Water-ethanol mixture in organosilica
15080
    1Sil     Ob    1   2.824   0.163  11.164 -0.1048 -0.2348 -0.1227
    1Sil     Ob    2   3.414   0.152  10.369  0.0242 -0.4258  0.5044
    1Sil     Ob    3   2.654   0.649  10.721 -0.1841 -0.0777  0.0831
    1Sil     Ob    4   3.182   0.647  11.110  0.5459  0.2071  0.2536
    1Sil     Ob    5   3.022   0.542  10.342 -0.2161 -0.2907  0.9243
    1Sil     Ob    6   3.008   0.487  11.195  0.0036  0.0728 -0.0683
    1Sil     Ob    7   2.774   0.475  10.394  0.2621 -0.4382  0.7173
    1Sil     Ob    8   3.309   0.470  10.792 -0.7689 -0.8869 -0.2172
    1Sil     Ob    9   2.800   0.228  10.918 -0.4241 -0.6262  0.1710
    1Sil     Ob   10   3.097   0.215  10.519  0.7523  0.2637  0.1574
    1Sil     Ob   11   2.787   0.408  11.097 -0.0015 -0.3359  0.3506
    1Sil     Ob   12   2.540   0.404  10.301 -0.3146  0.3802 -0.5948
    1Sil     Ob   13   3.118   0.293  10.761  0.7091 -0.5331 -0.5809
    1Sil     Ob   14   2.725   0.399  10.749  0.8716  0.0031  0.5476
    1Sil     Ob   15   3.248   0.409  11.153 -0.1141 -1.2931  0.1332
    1Sil     Ob   16   2.950   0.292  10.312 -0.1043 -0.2457  0.0776
    1Sil     Ob   17   3.189   0.214  10.267  0.6483 -0.1430  0.1959
    1Sil     Ob   18   2.589   0.235  11.067 -0.3126  0.5316 -0.8346
    1Sil     Ob   19   2.889   0.218  10.668 -0.2815 -0.0781  0.0516
    1Sil     Ob   20   2.564   0.469  10.556 -0.7209 -0.3047 -0.0869
    1Sil     Ob   21   3.099   0.468  10.950 -0.4879  0.3502  0.0907
    1Sil     Ob   22   2.780   0.158  12.353  0.3706  0.0837 -0.3365
    1Sil     Ob   23   3.345   0.145  11.566  0.8794 -0.3188 -0.7082
    1Sil     Ob   24   2.589   0.653  11.914  0.0858 -0.0913  0.3448
    1Sil     Ob   25   3.133   0.643  12.304 -0.4974  0.0899  0.3978
    1Sil     Ob   26   2.957   0.553  11.551  0.0452 -0.2000 -0.1838
    1Sil     Ob   27   2.964   0.482  12.387 -0.0340  0.3333 -0.1988
    1Sil     Ob   28   2.716   0.468  11.584 -0.7636 -0.2782 -0.0956
    1Sil     Ob   29   3.248   0.468  11.979 -0.0202  0.1863  0.4379
    1Sil     Ob   30   2.748   0.236  12.104 -0.1307  0.4115 -0.4092
    1Sil     Ob   31   3.322   0.214  11.310 -0.1610  0.0523 -0.0365
    1Sil     Ob   32   3.040   0.231  11.709 -0.0034  0.4632  0.1327
    1Sil     Ob   33   2.730   0.405  12.292 -0.6802  0.8369  0.3131
    1Sil     Ob   34   2.482   0.403  11.496 -0.0252 -0.0300 -0.1500
    1Sil     Ob   35   3.064   0.294  11.953  0.1249 -0.0490  0.2761
    1Sil     Ob   36   2.666   0.404  11.932  0.2731 -0.0175 -0.1494
    1Sil     Ob   37   3.198   0.397  12.349 -0.1226 -0.6537 -0.5591
    1Sil     Ob   38   2.891   0.304  11.501 -0.3540 -0.1592  0.0205
    1Sil     Ob   39   3.129   0.235  11.463 -0.1873 -0.6133 -0.2467
    1Sil     Ob   40   2.550   0.227  12.274  0.1067 -0.7459 -0.3264
    1Sil     Ob   41   2.830   0.207  11.863  0.2255  0.3270 -0.0573
    1Sil     Ob   42   2.517   0.474  11.744  0.3744  0.3862  0.5206
    1Sil     Ob   43   3.040   0.462  12.144 -0.1423  0.2074 -0.7250
    1Sil     Ob   44   2.801   0.486  11.351  0.4247  1.1786  0.5044
    1Sil     Ob   45   2.830   0.659  11.159  0.8969  0.0670 -0.7367
    1Sil     Ob   46   3.415   0.656  10.362  0.1532  0.5241 -0.0631
    1Sil     Ob   47   3.076   0.536  10.702 -0.2162 -0.4598 -0.2006
    1Sil     Ob   48   2.641   1.145  10.726  0.0905  0.4905 -0.3417
    1Sil     Ob   49   3.176   1.143  11.114  0.3984 -0.1678  0.7832
    1Sil     Ob   50   3.015   1.024  10.326 -0.4500 -0.3468 -0.5361
    1Sil     Ob   51   2.993   0.972  11.188  0.7409  0.1982  0.1881
    1Sil     Ob   52   2.777   0.959  10.402 -0.1623 -0.0986 -0.0605
    1Sil     Ob   53   3.306   0.959  10.805  0.0549 -0.2914 -0.1563
    1Sil     Ob   54   2.809   0.726  10.907 -0.1812  0.1324  0.4998
    1Sil     Ob   55   3.094   0.710  10.519  0.3522  0.0267  0.0321
    1Sil     Ob   56   2.764   0.907  11.093  0.0096 -0.2953 -1.1408
    1Sil     Ob   57   2.551   0.885  10.302  0.2150  0.3404  0.7183
    1Sil     Ob   58   3.121   0.781  10.760  0.3513 -0.6577  0.4574
    1Sil     Ob   59   2.729   0.905  10.737 -0.2555  0.0657  0.4941
    1Sil     Ob   60   3.239   0.892  11.139  0.3268  0.1067 -0.5658
    1Sil     Ob   61   2.947   0.781  10.329 -0.1011 -0.0871 -0.2943
    1Sil     Ob   62   3.188   0.724  10.268 -0.3924 -0.5911 -0.9343
    1Sil     Ob   63   2.599   0.718  11.071  1.4544 -0.2037  0.1691
    1Sil     Ob   64   2.891   0.712  10.671  0.0709  0.0225  0.3498
    1Sil     Ob   65   2.570   0.965  10.550  0.0034 -0.0647  0.1194
    1Sil     Ob   66   3.084   0.963  10.946 -0.2564  0.0545 -0.6077
    1Sil     Ob   67   2.776   0.654  12.363  0.5347  0.6340  0.3572
    1Sil     Ob   68   3.356   0.647  11.560  0.5629  0.6079 -0.0789
    1Sil     Ob   69   3.002   0.540  11.899  0.7801  0.4873  0.0592
    1Sil     Ob   70   2.592   1.146  11.905 -0.3100 -0.4323 -0.6385
    1Sil     Ob   71   3.141   1.141  12.300 -0.0507 -0.2026 -0.3498
    1Sil     Ob   72   2.960   1.042  11.531  0.0972  0.3689  0.2079
    1Sil     Ob   73   2.953   0.969  12.380  0.3587 -0.2399 -0.2293
    1Sil     Ob   74   2.711   0.974  11.590 -0.2684  0.3881  0.7435
    1Sil     Ob   75   3.238   0.963  11.988 -0.3242 -0.0704 -0.5343
    1Sil     Ob   76   2.744   0.718  12.109  0.1077  0.3220 -0.1364
    1Sil     Ob   77   3.321   0.731  11.318 -0.0586  0.2321  0.0450
    1Sil     Ob   78   3.025   0.728  11.714 -0.2560 -0.0922  0.4698
    1Sil     Ob   79   2.731   0.896  12.287 -0.0831  0.2641 -0.4681
    1Sil     Ob   80   2.503   0.901  11.489 -0.8081  0.1457 -0.2709
    1Sil     Ob   81   3.055   0.796  11.940  0.1778 -0.0577 -0.0111
    1Sil     Ob   82   2.652   0.896  11.950  0.3669 -0.3830  0.0187
    1Sil     Ob   83   3.201   0.885  12.350  0.2059  0.8888 -0.7412
    1Sil     Ob   84   2.883   0.796  11.507 -0.2952  0.3103 -0.2815
    1Sil     Ob   85   3.120   0.728  11.473 -0.4692 -0.0423  0.6633
    1Sil     Ob   86   2.556   0.720  12.274 -0.2940  0.4755 -0.1084
    1Sil     Ob   87   2.824   0.720  11.861  0.0160  1.2682  0.3294
    1Sil     Ob   88   2.508   0.965  11.740  0.0343  0.0747 -0.2548
    1Sil     Ob   89   3.043   0.953  12.147 -0.0377  0.6290 -0.5046
    1Sil     Ob   90   2.792   0.971  11.340 -0.1273 -0.8171 -0.5298
    1Sil     Ob   91   2.821   1.156  11.162  0.1531 -0.0870 -0.5890
    1Sil     Ob   92   3.415   1.149  10.366  0.7555  0.2266  0.4917
    1Sil     Ob   93   3.087   1.030  10.689 -0.3707  0.4792  0.1390
    1Sil     Ob   94   2.643   1.634  10.720  0.6178  0.6567 -0.1690
    1Sil     Ob   95   3.189   1.628  11.101 -0.0839 -0.3979 -0.2215
    1Sil     Ob   96   3.007   1.526  10.356  0.0420 -0.0119  0.4997
    1Sil     Ob   97   3.021   1.465  11.183 -0.1907  0.3255 -0.3436
    1Sil     Ob   98   2.767   1.448  10.402 -0.4547 -0.4719  0.2227
    1Sil     Ob   99   3.311   1.464  10.793 -0.1410  0.3039 -0.2713
    1Sil     Ob  100   2.797   1.214  10.908  0.2897  0.0739  0.4073
    1Sil     Ob  101   3.091   1.210  10.503 -0.8404  0.1077  0.3434
    1Sil     Ob  102   2.789   1.390  11.094 -0.5524  0.3421 -0.4950
    1Sil     Ob  103   2.546   1.381  10.301 -0.1963 -0.5451 -0.0563
    1Sil     Ob  104   3.127   1.275  10.743 -0.1171 -0.0666 -0.4826
    1Sil     Ob  105   2.720   1.393  10.742  0.2858 -0.2953 -0.2203
    1Sil     Ob  106   3.263   1.395  11.141  0.1213  0.2609 -0.0762
    1Sil     Ob  107   2.949   1.277  10.306  0.3290  0.2845  0.6042
    1Sil     Ob  108   3.188   1.208  10.267  0.3992  0.2494  0.3832
    1Sil     Ob  109   2.592   1.218  11.070 -0.0498  0.1271  0.5484
    1Sil     Ob  110   2.890   1.201  10.665  0.7790 -0.4560 -1.2445
    1Sil     Ob  111   2.568   1.450  10.555 -0.0816  0.5125 -0.2274
    1Sil     Ob  112   3.099   1.442  10.948 -0.9434  0.0743  0.5741
    1Sil     Ob  113   2.777   1.139  12.344  0.2431 -0.2953  0.3392
    1Sil     Ob  114   3.364   1.145  11.556  0.4402  0.0100  0.9869
    1Sil     Ob  115   3.004   1.033  11.910 -0.1622 -0.4208  0.1770
    1Sil     Ob  116   2.601   1.644  11.907 -0.4208 -0.4016 -0.0051
    1Sil     Ob  117   3.129   1.634  12.321 -0.3661  0.5511 -0.2281
    1Sil     Ob  118   2.972   1.530  11.531  0.3811 -0.1954 -0.1489
    1Sil     Ob  119   2.967   1.453  12.361  0.3760  0.2509 -0.2340
    1Sil     Ob  120   2.725   1.473  11.596  0.2137 -0.1655  0.3488
    1Sil     Ob  121   3.264   1.444  11.973 -0.0989 -0.2076  0.0454
    1Sil     Ob  122   2.736   1.207  12.102 -0.0837  0.3197  0.1790
    1Sil     Ob  123   3.334   1.208  11.303 -0.3104 -0.3150 -0.1632
    1Sil     Ob  124   3.042   1.207  11.710  0.1034  0.2148  0.2355
    1Sil     Ob  125   2.727   1.386  12.292 -0.0482 -0.2786 -0.2046
    1Sil     Ob  126   2.496   1.387  11.490 -0.4903  0.1934  0.3151
    1Sil     Ob  127   3.069   1.287  11.954  0.2735  0.0493 -0.3755
    1Sil     Ob  128   2.670   1.396  11.950 -0.4117  0.6271 -0.0927
    1Sil     Ob  129   3.202   1.393  12.298 -0.2171 -0.3188 -0.2806
    1Sil     Ob  130   2.895   1.288  11.520  0.3059 -0.4915  0.7643
    1Sil     Ob  131   3.134   1.219  11.462  0.1832 -0.3881 -0.6354
    1Sil     Ob  132   2.537   1.208  12.266  0.1555 -0.2894  0.1131
    1Sil     Ob  133   2.830   1.221  11.866  0.9293  0.2998  0.5233
    1Sil     Ob  134   2.522   1.458  11.749  0.3394  0.1655 -0.1602
    1Sil     Ob  135   3.052   1.482  12.116  0.0665  0.5296  0.2072
    1Sil     Ob  136   2.809   1.448  11.344 -0.5280  0.2601 -0.3566
    1Sil     Ob  137   2.827   1.633  11.163 -0.2760 -0.1194  0.5095
    1Sil     Ob  138   3.417   1.638  10.368  0.3325  0.0300  0.1007
    1Sil     Ob  139   3.065   1.537  10.705 -0.2501 -0.0394  0.6001
    1Sil     Ob  140   2.649   2.126  10.708 -0.2668 -0.7929 -0.0049
    1Sil     Ob  141   3.184   2.130  11.111  0.5117  0.0365  0.7842
    1Sil     Ob  142   3.010   2.020  10.329 -0.1899  0.2216  0.3769
    1Sil     Ob  143   3.011   1.951  11.184  0.7338  0.2644  0.5272
    1Sil     Ob  144   2.775   1.946  10.400 -0.1518 -0.4444  0.3152
    1Sil     Ob  145   3.314   1.946  10.786 -0.3281  0.1469 -0.3642
    1Sil     Ob  146   2.802   1.697  10.916  0.2345 -0.1854 -0.1792
    1Sil     Ob  147   3.090   1.707  10.525  0.4729  0.3287  0.2187
    1Sil     Ob  148   2.780   1.886  11.098 -0.1516 -0.1361 -0.1894
    1Sil     Ob  149   2.551   1.883  10.304 -0.1484  0.2849 -0.4811
    1Sil     Ob  150   3.119   1.779  10.758 -0.1608 -0.1742  0.2671
    1Sil     Ob  151   2.717   1.883  10.751  0.2214 -0.4627 -0.9059
    1Sil     Ob  152   3.258   1.878  11.134  0.2036  0.1590 -0.9622
    1Sil     Ob  153   2.942   1.776  10.322 -0.5874 -0.3203 -0.1778
    1Sil     Ob  154   3.180   1.693  10.279  0.0335 -0.1475  0.0749
    1Sil     Ob  155   2.598   1.717  11.070  0.0615  0.3023 -0.4703
    1Sil     Ob  156   2.888   1.705  10.677  0.2235 -0.0226 -0.1069
    1Sil     Ob  157   2.563   1.942  10.560 -0.5966  0.6658 -0.5111
    1Sil     Ob  158   3.104   1.951  10.938  0.0364 -0.4285  0.0015
    1Sil     Ob  159   2.778   1.633  12.349 -0.0935  0.0869  0.5737
    1Sil     Ob  160   3.375   1.634  11.550 -0.5522 -0.1936  0.5385
    1Sil     Ob  161   3.037   1.531  11.868 -0.1295 -0.2197 -0.5318
    1Sil     Ob  162   2.600   2.127  11.915 -0.2314  0.3947 -0.0803
    1Sil     Ob  163   3.133   2.119  12.293 -0.8109  0.0571  0.3730
    1Sil     Ob  164   2.957   2.019  11.538  0.3341  0.0228 -0.4600
    1Sil     Ob  165   2.959   1.948  12.376 -0.5782  0.9217  0.4372
    1Sil     Ob  166   2.716   1.951  11.584 -0.4553 -0.1170 -0.6802
    1Sil     Ob  167   3.262   1.941  11.973 -0.1975 -0.2189 -0.1394
    1Sil     Ob  168   2.765   1.709  12.095  0.0826  0.2972 -0.3785
    1Sil     Ob  169   3.337   1.686  11.304 -0.0177 -0.3479 -0.0502
    1Sil     Ob  170   3.054   1.722  11.691 -0.3383 -0.3912  0.8648
    1Sil     Ob  171   2.742   1.881  12.293  0.1940 -0.3948  0.7705
    1Sil     Ob  172   2.478   1.879  11.497  0.5384  0.1955 -0.4027
    1Sil     Ob  173   3.080   1.776  11.935  0.7085  0.1244  0.0372
    1Sil     Ob  174   2.683   1.888  11.923  0.1916 -0.4519  0.2034
    1Sil     Ob  175   3.205   1.880  12.323 -0.1704 -0.6828 -0.2940
    1Sil     Ob  176   2.893   1.778  11.500 -0.7261  0.4974 -0.0287
    1Sil     Ob  177   3.144   1.721  11.461  0.3171  0.0064 -0.0693
    1Sil     Ob  178   2.552   1.712  12.262  0.9452 -0.0125 -0.0781
    1Sil     Ob  179   2.848   1.697  11.847  0.0500 -0.4536 -0.3338
    1Sil     Ob  180   2.517   1.961  11.740  0.3551 -0.3292  0.1170
    1Sil     Ob  181   3.047   1.945  12.122 -0.4779  0.1241 -0.0181
    1Sil     Ob  182   2.800   1.968  11.349 -0.1322 -0.2181  0.0084
    1Sil     Ob  183   2.839   2.132  11.149  0.3737 -0.5650 -0.3097
    1Sil     Ob  184   3.405   2.123  10.371 -0.1302 -0.6097 -0.0120
    1Sil     Ob  185   3.081   2.027  10.689 -0.6471  0.0698 -0.3562
    1Sil     Ob  186   2.646   2.622  10.723 -0.5427 -0.6987 -0.3175
    1Sil     Ob  187   3.178   2.618  11.117  0.2710  0.1640  0.1170
    1Sil     Ob  188   3.030   2.506  10.331 -0.2499  0.1252  0.0020
    1Sil     Ob  189   3.003   2.435  11.169  0.2854  0.3734  0.6475
    1Sil     Ob  190   2.782   2.442  10.387  0.5561 -0.8536  0.3043
    1Sil     Ob  191   3.305   2.436  10.794 -0.6818 -0.3443  0.2212
    1Sil     Ob  192   2.796   2.191  10.904 -0.2080  0.0682 -0.0027
    1Sil     Ob  193   3.096   2.203  10.501 -0.5505 -0.3655  0.0066
    1Sil     Ob  194   2.767   2.372  11.100  0.2496  0.1198  0.8662
    1Sil     Ob  195   2.544   2.361  10.299  0.0844 -0.1217 -0.2316
    1Sil     Ob  196   3.123   2.269  10.755 -0.7094  0.0781  0.3842
    1Sil     Ob  197   2.729   2.371  10.734  0.2214  0.8426 -0.9839
    1Sil     Ob  198   3.246   2.377  11.135 -0.6261 -0.2612  0.5817
    1Sil     Ob  199   2.940   2.267  10.307 -0.6397 -0.0828 -0.4833
    1Sil     Ob  200   3.182   2.194  10.258 -0.0922 -0.0618  0.2142
    1Sil     Ob  201   2.602   2.187  11.069 -0.2011  0.2798 -0.0986
    1Sil     Ob  202   2.894   2.198  10.660 -0.1471  0.0545  0.0438
    1Sil     Ob  203   2.568   2.444  10.543  0.6249 -0.3498  0.4590
    1Sil     Ob  204   3.105   2.449  10.939 -0.1323  0.4819 -0.2847
    1Sil     Ob  205   2.773   2.120  12.359  0.1495  0.1881 -0.7623
    1Sil     Ob  206   3.365   2.126  11.553 -0.2260 -0.2480  0.5582
    1Sil     Ob  207   3.043   2.026  11.877 -0.1975  0.0073 -0.2549
    1Sil     Ob  208   2.603   2.608  11.916  0.1317 -0.0083 -0.2929
    1Sil     Ob  209   3.140   2.613  12.294  0.4342  0.4245 -0.3482
    1Sil     Ob  210   2.958   2.513  11.533 -0.0964  0.5053  0.4604
    1Sil     Ob  211   2.960   2.447  12.381 -0.2100  0.0204  0.0113
    1Sil     Ob  212   2.721   2.432  11.580 -0.1020 -0.1595 -0.3350
    1Sil     Ob  213   3.253   2.434  11.997 -0.0692 -0.2076 -0.4620
    1Sil     Ob  214   2.756   2.184  12.113  0.0397  0.5788  0.2684
    1Sil     Ob  215   3.330   2.197  11.308 -0.5163 -0.1861  0.0330
    1Sil     Ob  216   3.038   2.208  11.697  0.1692 -0.2828  0.1612
    1Sil     Ob  217   2.732   2.367  12.300 -0.0215  0.1131 -0.0067
    1Sil     Ob  218   2.477   2.373  11.497 -0.1241  0.5086  0.1375
    1Sil     Ob  219   3.057   2.261  11.964 -0.6606 -0.5121 -0.7336
    1Sil     Ob  220   2.677   2.360  11.950  0.7027 -0.5081 -0.0616
    1Sil     Ob  221   3.202   2.369  12.312  0.4699  0.3865 -0.0190
    1Sil     Ob  222   2.895   2.262  11.487  0.2130 -0.8042  0.0844
    1Sil     Ob  223   3.138   2.189  11.459 -0.1318  0.5799 -0.0460
    1Sil     Ob  224   2.549   2.194  12.263  0.4732  0.2794 -0.1033
    1Sil     Ob  225   2.845   2.177  11.863 -1.1965 -0.1033 -0.4056
    1Sil     Ob  226   2.529   2.429  11.742  0.3638 -0.0570 -0.5033
    1Sil     Ob  227   3.038   2.447  12.137  0.2551 -0.3575 -0.2858
    1Sil     Ob  228   2.805   2.451  11.342 -0.7132  0.4591 -0.2671
    1Sil     Ob  229   2.828   2.627  11.156  0.0479  0.7016 -0.6269
    1Sil     Ob  230   3.430   2.621  10.370  0.2748  0.0537  0.1038
    1Sil     Ob  231   3.090   2.517  10.697  0.2304  0.1607 -0.2113
    1Sil     Ob  232   2.657   3.107  10.728 -0.3278  0.2789 -0.5461
    1Sil     Ob  233   3.183   3.113  11.108  0.5171 -0.4998 -0.0657
    1Sil     Ob  234   3.018   3.006  10.355  0.7631 -0.1354 -0.5342
    1Sil     Ob  235   3.011   2.941  11.199 -0.3600  0.0577  0.2464
    1Sil     Ob  236   2.772   2.929  10.392  0.7015 -0.5488 -0.2125
    1Sil     Ob  237   3.300   2.944  10.790 -0.7360 -0.3716  0.3467
    1Sil     Ob  238   2.792   2.686  10.913 -0.2797  0.0937 -0.3294
    1Sil     Ob  239   3.110   2.686  10.512 -0.6404 -0.3826  0.3133
    1Sil     Ob  240   2.788   2.866  11.092 -0.2147  0.3691  0.0445
    1Sil     Ob  241   2.533   2.866  10.300  0.1796 -0.4028  0.0919
    1Sil     Ob  242   3.117   2.756  10.767  0.1755 -0.4264  0.0740
    1Sil     Ob  243   2.724   2.859  10.748  0.1619  0.2072 -0.4204
    1Sil     Ob  244   3.248   2.868  11.149  0.0111  0.7037 -0.0224
    1Sil     Ob  245   2.956   2.759  10.321  0.5388 -0.0039  0.4845
    1Sil     Ob  246   3.205   2.684  10.265  0.0146 -0.0147  0.1404
    1Sil     Ob  247   2.601   2.693  11.077  0.0401  0.5185  0.1011
    1Sil     Ob  248   2.888   2.680  10.674  0.1142  0.6342 -0.0131
    1Sil     Ob  249   2.568   2.937  10.558  0.2209 -0.5766  0.3050
    1Sil     Ob  250   3.095   2.923  10.954 -0.3806 -0.3483  0.4918
    1Sil     Ob  251   2.778   2.616  12.356  0.6687 -0.8222  0.5509
    1Sil     Ob  252   3.356   2.623  11.562  0.5088 -0.4911 -0.4221
    1Sil     Ob  253   3.022   2.513  11.892 -0.5183 -0.3786 -0.0138
    1Sil     Ob  254   2.591   3.107  11.918 -0.1215 -0.0451  0.4474
    1Sil     Ob  255   3.142   3.109  12.295 -0.2881 -0.1067 -0.1677
    1Sil     Ob  256   2.963   3.010  11.522 -0.5311  0.2418  0.3406
    1Sil     Ob  257   2.971   2.950  12.397 -0.3595  0.4642 -0.2544
    1Sil     Ob  258   2.719   2.954  11.589 -0.1633 -0.3043 -0.3881
    1Sil     Ob  259   3.256   2.927  11.988 -0.0240  0.2208 -0.0671
    1Sil     Ob  260   2.748   2.692  12.109 -0.2694 -0.0126  0.3034
    1Sil     Ob  261   3.330   2.682  11.315 -0.0352 -0.5033 -0.1771
    1Sil     Ob  262   3.037   2.677  11.706 -0.1772  0.0789 -0.0966
    1Sil     Ob  263   2.732   2.875  12.310 -0.0869 -0.1552 -0.3128
    1Sil     Ob  264   2.495   2.871  11.498  0.2535 -0.2234  0.0734
    1Sil     Ob  265   3.068   2.753  11.948  0.1548 -0.2854  0.2843
    1Sil     Ob  266   2.652   2.856  11.942 -0.3348  0.2939  0.3821
    1Sil     Ob  267   3.203   2.860  12.347  0.5385  0.8586  0.0692
    1Sil     Ob  268   2.880   2.764  11.531  0.0678  0.2326  0.2022
    1Sil     Ob  269   3.125   2.688  11.465  0.5125  0.4487 -0.1788
    1Sil     Ob  270   2.546   2.694  12.272  0.0949  0.6384 -0.4874
    1Sil     Ob  271   2.835   2.692  11.855 -0.3203  0.2986  0.0776
    1Sil     Ob  272   2.506   2.941  11.745 -0.0264 -0.3897 -0.1559
    1Sil     Ob  273   3.050   2.919  12.149  0.4672 -0.0837 -0.3354
    1Sil     Ob  274   2.797   2.927  11.337 -0.3500  0.2076 -0.3508
    1Sil     Ob  275   2.831   3.118  11.166  0.0653  0.2556  0.4592
    1Sil     Ob  276   3.426   3.122  10.363 -0.2736 -0.1774  0.4864
    1Sil     Ob  277   3.062   3.006  10.716  0.0499  0.4203 -0.3096
    1Sil     Ob  278   3.008  -0.008  11.195 -0.2155  0.1730  0.5315
    1Sil     Ob  279   2.774  -0.016  10.402 -0.6534 -0.0199  0.6294
    1Sil     Ob  280   3.299  -0.026  10.796  0.2352 -0.0601 -0.1669
    1Sil     Ob  281   2.807   3.178  10.913  0.9761  0.3460 -0.0322
    1Sil     Ob  282   3.107   3.186  10.529  0.1418  0.1835  0.3408
    1Sil     Ob  283   2.789   3.373  11.093 -0.0374  0.2848  0.2433
    1Sil     Ob  284   2.548  -0.094  10.293 -0.1372 -0.3338  0.1914
    1Sil     Ob  285   3.118   3.248  10.775  0.0411  0.2295  0.1939
    1Sil     Ob  286   2.716  -0.096  10.750 -0.0982  0.6390 -0.9214
    1Sil     Ob  287   3.245  -0.088  11.142  0.6862  0.2464  0.3316
    1Sil     Ob  288   2.945  -0.205  10.328 -0.1930 -0.2174  0.1127
    1Sil     Ob  289   3.190   3.179  10.286 -0.0679 -1.1611  0.4080
    1Sil     Ob  290   2.606   3.190  11.073  0.0403 -0.5583  0.1971
    1Sil     Ob  291   2.894   3.184  10.677  0.4283  0.2668 -0.0260
    1Sil     Ob  292   2.565  -0.024  10.553  0.2089 -0.3864 -0.2078
    1Sil     Ob  293   3.082  -0.022  10.953  0.0992  0.3019 -0.2121
    1Sil     Ob  294   2.790   3.121  12.365  0.2514 -0.0942  0.2190
    1Sil     Ob  295   3.375   3.117  11.549 -0.0901  0.0954 -0.0814
    1Sil     Ob  296   3.015   2.997  11.901  0.4981 -0.2763  0.3842
    1Sil     Ob  297   2.967  -0.027  12.374 -0.3082  0.4189 -0.1046
    1Sil     Ob  298   2.719  -0.008  11.587  0.1593 -0.1884  0.0829
    1Sil     Ob  299   3.257  -0.034  11.990 -0.2534 -0.3350 -0.1743
    1Sil     Ob  300   2.759   3.192  12.104  0.5266 -0.0193  0.4681
    1Sil     Ob  301   3.333   3.182  11.304  0.1791  0.1132  0.2805
    1Sil     Ob  302   3.046   3.153  11.710 -0.0828  0.5144  0.1040
    1Sil     Ob  303   2.734   3.364  12.309  0.4552  0.1091  0.3432
    1Sil     Ob  304   2.501  -0.084  11.491  0.7444  0.1420 -0.6027
    1Sil     Ob  305   3.069   3.238  11.960  0.1564  0.0725  0.0154
    1Sil     Ob  306   2.679  -0.090  11.937  0.1324 -0.1269  0.2665
    1Sil     Ob  307   3.208  -0.096  12.332  0.5493 -0.4908  1.2281
    1Sil     Ob  308   2.890  -0.190  11.531  0.0795  0.6311 -0.0222
    1Sil     Ob  309   3.131   3.184  11.465  0.4601 -0.3003  0.2936
    1Sil     Ob  310   2.555   3.187  12.269  0.0905  0.0650  0.4443
    1Sil     Ob  311   2.842   3.187  11.861 -0.0610 -0.4912  0.1735
    1Sil     Ob  312   2.509  -0.022  11.745  0.0525 -0.4069  0.3033
    1Sil     Ob  313   3.051  -0.031  12.133  0.4647 -0.0405 -0.5662
    1Sil     Ob  314   2.805  -0.028  11.347  0.3276 -0.9602  0.0661
    1Sil     Ob  315   3.644   0.169  11.174 -0.8852 -0.7625  0.3143
    1Sil     Ob  316   4.260   0.158  10.364 -0.1941  0.3304  0.5087
    1Sil     Ob  317   3.492   0.641  10.721 -0.3243 -0.7090  0.1559
    1Sil     Ob  318   4.014   0.658  11.115 -0.1906  0.7096 -0.8403
    1Sil     Ob  319   3.844   0.545  10.347 -1.0954 -0.2127 -0.0134
    1Sil     Ob  320   3.832   0.480  11.186 -0.2604 -1.2514 -0.0909
    1Sil     Ob  321   3.605   0.467  10.394  0.3915 -0.0530 -0.1061
    1Sil     Ob  322   4.132   0.474  10.795  0.0970  0.2768  0.2387
    1Sil     Ob  323   3.632   0.238  10.922 -0.7006  0.3572  0.5045
    1Sil     Ob  324   3.912   0.223  10.531 -0.0635  0.0723  0.6328
    1Sil     Ob  325   3.590   0.416  11.109 -0.4034 -0.2899  0.2358
    1Sil     Ob  326   3.371   0.406  10.304 -0.1684  0.3926 -0.2260
    1Sil     Ob  327   3.948   0.290  10.769  0.1711  0.2865 -0.0163
    1Sil     Ob  328   3.556   0.399  10.744  0.6243  0.2154 -0.0694
    1Sil     Ob  329   4.083   0.413  11.137 -0.4889  0.4674 -0.2516
    1Sil     Ob  330   3.775   0.288  10.321 -0.0636 -0.0514  0.2661
    1Sil     Ob  331   4.015   0.203  10.286 -0.7284  0.3975  0.5679
    1Sil     Ob  332   3.423   0.233  11.071  0.2210 -0.3725  0.2011
    1Sil     Ob  333   3.713   0.208  10.680  0.2985  0.6570  0.3149
    1Sil     Ob  334   3.397   0.474  10.549 -0.2611 -0.1403  0.3882
    1Sil     Ob  335   3.923   0.481  10.945 -0.4193  0.4851  0.3654
    1Sil     Ob  336   3.611   0.159  12.351 -0.4385 -0.4190 -0.1910
    1Sil     Ob  337   4.212   0.159  11.545  0.6606 -0.1111  0.1130
    1Sil     Ob  338   3.412   0.644  11.899  0.6575  0.5386 -0.8520
    1Sil     Ob  339   3.963   0.656  12.295 -0.1052 -0.0526  0.1177
    1Sil     Ob  340   3.799   0.547  11.545 -0.0309 -0.0246  0.3261
    1Sil     Ob  341   3.787   0.479  12.380 -0.5707 -0.5904  0.5230
    1Sil     Ob  342   3.545   0.460  11.591 -0.5525 -0.5303 -0.1301
    1Sil     Ob  343   4.073   0.483  11.979 -0.3512 -0.3194 -0.3107
    1Sil     Ob  344   3.577   0.227  12.101  0.5155  0.7721  0.3063
    1Sil     Ob  345   4.174   0.242  11.298  0.2427  0.0854 -0.0564
    1Sil     Ob  346   3.888   0.227  11.709  0.2469  0.2582  0.0477
    1Sil     Ob  347   3.557   0.405  12.296 -0.4850 -0.1118 -0.1041
    1Sil     Ob  348   3.323   0.394  11.488 -0.6121  0.0414  0.0695
    1Sil     Ob  349   3.898   0.294  11.952  0.5595 -0.0277 -0.3782
    1Sil     Ob  350   3.496   0.397  11.936  0.0090 -0.7335 -0.0210
    1Sil     Ob  351   4.021   0.407  12.347  0.1735  0.0223 -0.2535
    1Sil     Ob  352   3.735   0.295  11.499 -0.9199  0.0089 -0.1626
    1Sil     Ob  353   3.977   0.216  11.460 -0.7523 -0.4286 -0.2907
    1Sil     Ob  354   3.376   0.226  12.264 -0.0861 -0.2624  0.0518
    1Sil     Ob  355   3.674   0.223  11.862  0.1988 -0.5028  0.0058
    1Sil     Ob  356   3.339   0.466  11.741 -0.8483 -0.5040  0.2879
    1Sil     Ob  357   3.870   0.473  12.139  0.0728  0.3590  0.5275
    1Sil     Ob  358   3.631   0.489  11.350  0.4565 -0.5346  0.2140
    1Sil     Ob  359   3.646   0.662  11.162  0.0042 -0.1813 -0.1709
    1Sil     Ob  360   4.264   0.659  10.331 -0.4522  0.3409 -0.6464
    1Sil     Ob  361   3.915   0.530  10.694 -0.3854 -0.0545  0.0573
    1Sil     Ob  362   3.477   1.136  10.728 -0.0206  0.2354  0.0870
    1Sil     Ob  363   4.009   1.137  11.114 -0.7676  0.4984  0.0005
    1Sil     Ob  364   3.850   1.033  10.362 -0.0393  0.4530  0.0126
    1Sil     Ob  365   3.840   0.963  11.192 -0.2393  0.1265 -0.2187
    1Sil     Ob  366   3.603   0.972  10.404 -0.1598 -0.1305 -0.3768
    1Sil     Ob  367   4.138   0.966  10.810 -0.2074 -0.1699 -0.7383
    1Sil     Ob  368   3.631   0.728  10.921  0.2587  0.0639  0.5227
    1Sil     Ob  369   3.933   0.719  10.511 -0.1777  0.5504 -0.6389
    1Sil     Ob  370   3.600   0.904  11.109  0.1136  0.1162  0.9205
    1Sil     Ob  371   3.377   0.902  10.305 -0.0980 -0.5386  0.1440
    1Sil     Ob  372   3.970   0.779  10.758  0.5072  0.4267 -0.0806
    1Sil     Ob  373   3.555   0.892  10.744  0.3712 -0.0524  0.6363
    1Sil     Ob  374   4.090   0.901  11.148 -0.2203  0.5456 -0.5402
    1Sil     Ob  375   3.776   0.793  10.329 -0.2792 -0.1704  0.6575
    1Sil     Ob  376   4.023   0.717  10.271  0.4800 -0.3132 -0.0768
    1Sil     Ob  377   3.421   0.729  11.069  0.0620  0.2468 -0.2840
    1Sil     Ob  378   3.729   0.713  10.670  0.7855 -0.2578  0.8316
    1Sil     Ob  379   3.398   0.976  10.557 -0.2971 -0.0491  0.5195
    1Sil     Ob  380   3.932   0.939  10.953  0.1323  0.3287  0.2838
    1Sil     Ob  381   3.592   0.646  12.344 -0.2133 -0.0181  0.7659
    1Sil     Ob  382   4.183   0.647  11.563  0.3812 -0.6231 -0.2978
    1Sil     Ob  383   3.840   0.542  11.895 -0.3493  0.7866  0.0664
    1Sil     Ob  384   3.420   1.143  11.942  0.1385  0.3792  0.4245
    1Sil     Ob  385   3.969   1.142  12.326 -0.6117 -0.8472  0.3162
    1Sil     Ob  386   3.782   1.039  11.545  0.1475 -0.1645  0.1112
    1Sil     Ob  387   3.798   0.955  12.367 -0.1597 -0.0751 -0.0839
    1Sil     Ob  388   3.543   0.965  11.597  0.0501 -0.0011 -0.2411
    1Sil     Ob  389   4.098   0.927  11.975 -0.0920 -0.3889 -0.0598
    1Sil     Ob  390   3.565   0.707  12.095  0.4910  0.2011 -0.5603
    1Sil     Ob  391   4.164   0.718  11.317  0.0050  0.2613  0.0563
    1Sil     Ob  392   3.870   0.715  11.715  0.2660 -1.8133  0.0260
    1Sil     Ob  393   3.564   0.887  12.285 -0.1536  0.0250  0.2861
    1Sil     Ob  394   3.304   0.899  11.512  0.3005 -0.3247 -0.3082
    1Sil     Ob  395   3.876   0.788  11.965 -0.0501  0.3654  0.1463
    1Sil     Ob  396   3.479   0.886  11.937 -0.8783 -0.0894  0.1675
    1Sil     Ob  397   4.043   0.891  12.337 -0.2801 -0.0193 -0.1576
    1Sil     Ob  398   3.716   0.790  11.520  0.1691  0.6120  0.2865
    1Sil     Ob  399   3.961   0.726  11.460 -0.2937 -0.0988 -0.3952
    1Sil     Ob  400   3.365   0.722  12.257  0.3247 -0.2977  0.2445
    1Sil     Ob  401   3.659   0.718  11.853  0.2948 -0.6735  0.2669
    1Sil     Ob  402   3.327   0.978  11.748 -0.0902  0.5648 -0.3938
    1Sil     Ob  403   3.906   0.997  12.131  0.3628  0.0241 -0.3651
    1Sil     Ob  404   3.630   0.983  11.352  0.6046  0.5509 -0.6110
    1Sil     Ob  405   3.665   1.146  11.165  0.4075 -0.4838  0.0856
    1Sil     Ob  406   4.263   1.158  10.361 -0.6775  0.6073  0.3617
    1Sil     Ob  407   3.913   1.021  10.712  0.0562 -0.2828 -0.2161
    1Sil     Ob  408   3.476   1.634  10.722  0.3003 -0.3412  0.6017
    1Sil     Ob  409   4.015   1.646  11.118  0.2147 -0.0458  0.4195
    1Sil     Ob  410   3.849   1.537  10.323 -0.0116 -0.1269 -0.1970
    1Sil     Ob  411   3.839   1.462  11.185 -0.2946  0.0639  0.3891
    1Sil     Ob  412   3.605   1.457  10.391 -0.2286  0.4207 -0.1561
    1Sil     Ob  413   4.141   1.460  10.803 -0.2499  0.3721  0.4764
    1Sil     Ob  414   3.633   1.206  10.917  0.6787  0.3732  0.0837
    1Sil     Ob  415   3.925   1.208  10.523 -0.0237  0.2681 -0.6183
    1Sil     Ob  416   3.612   1.390  11.092  0.1352  0.9327 -0.4122
    1Sil     Ob  417   3.369   1.393  10.308 -0.0206  0.0095 -0.5294
    1Sil     Ob  418   3.948   1.277  10.780 -0.7356  0.4204 -0.2152
    1Sil     Ob  419   3.554   1.387  10.743  0.3804 -0.2111 -0.2524
    1Sil     Ob  420   4.079   1.394  11.148  0.1628  0.1876 -0.3818
    1Sil     Ob  421   3.777   1.275  10.323 -0.2648 -0.5861  0.0786
    1Sil     Ob  422   4.021   1.220  10.280  0.3315  0.2190 -0.2580
    1Sil     Ob  423   3.429   1.210  11.072 -0.1927 -0.6991  0.5591
    1Sil     Ob  424   3.720   1.194  10.677  0.8130 -0.1380 -0.5629
    1Sil     Ob  425   3.401   1.457  10.549 -0.6504  0.1367 -0.1644
    1Sil     Ob  426   3.939   1.466  10.947  1.4478  0.4307  0.8361
    1Sil     Ob  427   3.616   1.132  12.354  0.1159  0.8090 -0.3156
    1Sil     Ob  428   4.204   1.145  11.546 -0.5099  0.4723  0.2581
    1Sil     Ob  429   3.874   1.027  11.882  0.2529  0.2791  0.0340
    1Sil     Ob  430   3.432   1.620  11.915 -0.0116  0.0542 -0.2341
    1Sil     Ob  431   3.961   1.623  12.308  0.2173  0.3704 -0.2723
    1Sil     Ob  432   3.808   1.526  11.512  0.7833  0.1429  0.3621
    1Sil     Ob  433   3.791   1.451  12.377 -0.4706  0.4466  0.2062
    1Sil     Ob  434   3.560   1.457  11.577  0.1254 -0.4877 -0.2353
    1Sil     Ob  435   4.083   1.450  11.990  0.3116  0.3138  0.4888
    1Sil     Ob  436   3.590   1.226  12.112  0.2353 -0.6572  0.3239
    1Sil     Ob  437   4.163   1.212  11.303  0.1802 -0.2977 -0.1790
    1Sil     Ob  438   3.873   1.221  11.700  0.3741 -0.3643 -0.2641
    1Sil     Ob  439   3.555   1.379  12.310  0.2598  0.1128 -0.1307
    1Sil     Ob  440   3.330   1.390  11.483  0.2905  0.1904 -0.3454
    1Sil     Ob  441   3.905   1.275  11.951  0.3694  0.3129  0.2248
    1Sil     Ob  442   3.509   1.378  11.920 -0.1176 -0.3053 -0.4342
    1Sil     Ob  443   4.026   1.384  12.330  0.5066 -0.7987  0.1127
    1Sil     Ob  444   3.723   1.278  11.493 -0.2838 -0.1038  0.0648
    1Sil     Ob  445   3.965   1.196  11.464 -0.2523  0.7651 -0.1923
    1Sil     Ob  446   3.383   1.209  12.270  0.4454  0.1080  0.0761
    1Sil     Ob  447   3.665   1.184  11.867  0.0030 -0.3024  0.6260
    1Sil     Ob  448   3.363   1.454  11.726 -0.0755  0.1035 -0.0668
    1Sil     Ob  449   3.865   1.451  12.133  0.2501 -0.9758 -0.1774
    1Sil     Ob  450   3.630   1.467  11.337  0.4279 -0.5335  0.3088
    1Sil     Ob  451   3.655   1.635  11.156  0.3094 -0.0194  0.3754
    1Sil     Ob  452   4.240   1.639  10.362  0.1574  0.1647 -0.6457
    1Sil     Ob  453   3.921   1.523  10.699  0.0459  0.7778  0.1451
    1Sil     Ob  454   3.477   2.124  10.723  0.3129 -0.1510 -0.1848
    1Sil     Ob  455   4.019   2.136  11.112  0.5271 -0.1718  0.1987
    1Sil     Ob  456   3.850   2.017  10.338 -0.5847 -0.7852  0.4825
    1Sil     Ob  457   3.843   1.950  11.188 -0.2300 -0.2713 -0.3774
    1Sil     Ob  458   3.599   1.961  10.394 -0.4421  0.5007 -0.0670
    1Sil     Ob  459   4.136   1.945  10.800 -0.5629 -0.5427  0.1960
    1Sil     Ob  460   3.636   1.706  10.908 -0.3182 -0.4493  0.1478
    1Sil     Ob  461   3.926   1.692  10.512 -0.9882 -0.2488  0.7033
    1Sil     Ob  462   3.618   1.881  11.092 -0.4992 -0.8924  0.5857
    1Sil     Ob  463   3.360   1.880  10.299 -0.0990  0.1866  0.4083
    1Sil     Ob  464   3.954   1.766  10.758 -0.1032  0.0567 -0.7811
    1Sil     Ob  465   3.556   1.883  10.731 -0.3137 -0.4199 -0.3566
    1Sil     Ob  466   4.088   1.886  11.152  0.5408  0.0941  0.0711
    1Sil     Ob  467   3.770   1.773  10.325 -0.2937  0.0699 -0.2142
    1Sil     Ob  468   4.009   1.722  10.277 -1.0965 -0.1522  0.5593
    1Sil     Ob  469   3.424   1.707  11.066 -0.4125  0.1197 -0.0631
    1Sil     Ob  470   3.723   1.693  10.660 -0.0269 -0.2353 -0.4931
    1Sil     Ob  471   3.394   1.945  10.549 -0.4203  0.6513  0.0437
    1Sil     Ob  472   3.937   1.946  10.949  0.5493 -0.1495 -0.0274
    1Sil     Ob  473   3.603   1.633  12.356  0.1478 -0.0753 -0.1977
    1Sil     Ob  474   4.189   1.638  11.566 -0.2822  0.4719 -0.7478
    1Sil     Ob  475   3.856   1.516  11.889 -0.2462 -0.1621 -0.5025
    1Sil     Ob  476   3.432   2.119  11.908 -0.4424  0.1626  0.3770
    1Sil     Ob  477   3.958   2.121  12.315 -0.1559 -0.6626  0.5609
    1Sil     Ob  478   3.805   2.023  11.545  0.0738  0.4349 -0.5610
    1Sil     Ob  479   3.792   1.949  12.390 -0.1602  0.0212 -0.0804
    1Sil     Ob  480   3.561   1.956  11.584 -0.2633 -0.1637  0.3429
    1Sil     Ob  481   4.091   1.936  11.989  0.5148  0.0365  0.0056
    1Sil     Ob  482   3.578   1.703  12.104 -0.0349 -0.2648 -0.2366
    1Sil     Ob  483   4.169   1.709  11.319 -0.5562 -0.3587 -0.0154
    1Sil     Ob  484   3.873   1.686  11.700 -0.5117  0.4922 -0.2290
    1Sil     Ob  485   3.558   1.874  12.299 -0.5493 -0.0234  0.2324
    1Sil     Ob  486   3.343   1.882  11.480 -0.1088 -0.4352  0.1969
    1Sil     Ob  487   3.913   1.762  11.947  0.7667  0.4925  0.1993
    1Sil     Ob  488   3.509   1.874  11.928  0.6135  0.2371 -0.8127
    1Sil     Ob  489   4.040   1.866  12.344 -0.2063  0.0122 -0.8979
    1Sil     Ob  490   3.717   1.774  11.523 -0.2123 -0.2764 -0.1209
    1Sil     Ob  491   3.967   1.720  11.467  0.5015  0.2439  0.0531
    1Sil     Ob  492   3.381   1.686  12.268  0.4526  0.0508  0.0186
    1Sil     Ob  493   3.674   1.691  11.860 -0.4175  0.2205  0.0117
    1Sil     Ob  494   3.353   1.957  11.733  0.2453 -0.3643  0.7463
    1Sil     Ob  495   3.882   1.929  12.151  0.0026 -0.5843  0.0080
    1Sil     Ob  496   3.644   1.935  11.344  0.2779 -0.0588  0.4317
    1Sil     Ob  497   3.654   2.124  11.174  0.5134 -0.7052 -0.4786
    1Sil     Ob  498   4.249   2.123  10.351 -0.1063  0.0305  0.1086
    1Sil     Ob  499   3.910   2.026  10.700  0.4489 -0.1490 -0.4549
    1Sil     Ob  500   3.480   2.616  10.727  0.5375 -0.2191 -0.0979
    1Sil     Ob  501   4.013   2.638  11.110  0.3039  0.1098  0.7995
    1Sil     Ob  502   3.837   2.515  10.352 -0.0486 -0.1648 -0.4888
    1Sil     Ob  503   3.839   2.461  11.194  0.5931  0.2171  0.0068
    1Sil     Ob  504   3.605   2.442  10.405  0.3209  0.0755 -0.0599
    1Sil     Ob  505   4.143   2.443  10.805  0.2154 -0.0993 -0.2024
    1Sil     Ob  506   3.633   2.197  10.919 -0.8921 -0.2106  0.3854
    1Sil     Ob  507   3.927   2.205  10.509 -0.1965  0.2464  0.3708
    1Sil     Ob  508   3.606   2.383  11.103 -0.0074  0.6177  0.1564
    1Sil     Ob  509   3.374   2.369  10.309  0.2779  0.3861 -0.0424
    1Sil     Ob  510   3.949   2.275  10.765 -0.2151 -0.4636  0.3508
    1Sil     Ob  511   3.550   2.370  10.751 -0.8004 -0.0197  1.1726
    1Sil     Ob  512   4.081   2.389  11.151  0.0714 -0.5876 -0.0927
    1Sil     Ob  513   3.772   2.262  10.315 -0.2529  0.3171 -0.6672
    1Sil     Ob  514   4.012   2.194  10.265  0.1529  0.4751  0.0408
    1Sil     Ob  515   3.429   2.190  11.070  0.8433  0.1581 -0.8380
    1Sil     Ob  516   3.722   2.206  10.669 -0.7328 -0.2316 -0.1126
    1Sil     Ob  517   3.403   2.443  10.558  0.2965 -0.2751 -0.3316
    1Sil     Ob  518   3.920   2.449  10.952 -0.3742  0.1626 -0.6803
    1Sil     Ob  519   3.606   2.118  12.362  0.1197  0.2254  0.1511
    1Sil     Ob  520   4.198   2.135  11.564  0.5782 -0.4788  0.5878
    1Sil     Ob  521   3.860   2.015  11.896  0.1231 -0.2641 -0.6197
    1Sil     Ob  522   3.425   2.616  11.913  0.4066  0.3257 -0.5167
    1Sil     Ob  523   3.964   2.620  12.299 -0.5753  0.4743  0.4376
    1Sil     Ob  524   3.781   2.519  11.528  0.5042  0.1030 -0.0864
    1Sil     Ob  525   3.780   2.459  12.385 -0.1342 -0.4070 -0.9553
    1Sil     Ob  526   3.535   2.442  11.593  0.0504 -0.2712  0.3636
    1Sil     Ob  527   4.085   2.437  11.995 -0.3111 -0.5509 -0.1300
    1Sil     Ob  528   3.580   2.182  12.098 -0.4659 -0.0617  0.2589
    1Sil     Ob  529   4.172   2.201  11.312 -0.1850 -0.3135 -0.0939
    1Sil     Ob  530   3.883   2.197  11.715 -0.0071  0.1290 -0.6241
    1Sil     Ob  531   3.566   2.366  12.284  0.4827  0.2906 -0.5457
    1Sil     Ob  532   3.306   2.370  11.500 -0.2677 -0.3857  0.2056
    1Sil     Ob  533   3.905   2.261  11.960  0.4219  0.0255 -0.1353
    1Sil     Ob  534   3.495   2.369  11.941 -0.8827  0.2428  0.3928
    1Sil     Ob  535   4.023   2.373  12.335 -0.0121 -0.0950 -0.0135
    1Sil     Ob  536   3.714   2.271  11.531  0.9674 -0.3179  0.1830
    1Sil     Ob  537   3.966   2.216  11.471  0.4133  0.1497  0.4205
    1Sil     Ob  538   3.375   2.186  12.250 -0.4228  0.3570  0.3997
    1Sil     Ob  539   3.674   2.191  11.863  0.4331 -0.2146  0.3409
    1Sil     Ob  540   3.332   2.447  11.743  0.1015  0.7080 -0.4197
    1Sil     Ob  541   3.865   2.449  12.132  0.3704 -0.5559 -0.2898
    1Sil     Ob  542   3.626   2.421  11.343 -0.0747 -0.4306 -0.1413
    1Sil     Ob  543   3.647   2.629  11.172  0.4186 -0.5508  0.6150
    1Sil     Ob  544   4.250   2.621  10.364 -0.5135 -0.0261 -0.5448
    1Sil     Ob  545   3.903   2.518  10.698 -0.2299 -0.2575 -0.5875
    1Sil     Ob  546   3.471   3.111  10.709  0.2321 -0.0626 -0.6721
    1Sil     Ob  547   4.018   3.126  11.106  0.7694 -0.3221  0.0857
    1Sil     Ob  548   3.857   3.007  10.337 -0.2210  0.1531 -0.1773
    1Sil     Ob  549   3.839   2.952  11.185 -0.5419 -0.9109 -0.3042
    1Sil     Ob  550   3.606   2.931  10.391 -0.3664 -0.3546 -0.1281
    1Sil     Ob  551   4.135   2.931  10.790  0.4041 -0.2329  0.3427
    1Sil     Ob  552   3.634   2.700  10.918  0.0709  0.8155  0.2372
    1Sil     Ob  553   3.922   2.689  10.510  0.4144 -0.3325 -0.2153
    1Sil     Ob  554   3.610   2.874  11.096  0.0745 -0.0745 -0.7411
    1Sil     Ob  555   3.386   2.871  10.298  0.6887 -0.2948 -0.3082
    1Sil     Ob  556   3.951   2.756  10.762 -0.1637 -0.0831  0.2969
    1Sil     Ob  557   3.549   2.867  10.746  0.0210  0.3081 -0.5664
    1Sil     Ob  558   4.076   2.877  11.152 -0.1825  0.1406  0.9608
    1Sil     Ob  559   3.776   2.754  10.312  0.6204 -0.9015  0.1939
    1Sil     Ob  560   4.015   2.686  10.274  0.3895 -0.0234 -0.2548
    1Sil     Ob  561   3.422   2.700  11.070  0.5784  0.1735 -0.0388
    1Sil     Ob  562   3.724   2.684  10.673  0.1495  0.2667 -0.0737
    1Sil     Ob  563   3.400   2.940  10.540  0.3074 -0.1331 -0.7775
    1Sil     Ob  564   3.928   2.942  10.943 -0.6152  0.9457  0.2328
    1Sil     Ob  565   3.594   2.620  12.361  0.2373 -0.9170 -0.5074
    1Sil     Ob  566   4.193   2.626  11.565  0.2649  0.0771  0.3435
    1Sil     Ob  567   3.857   2.504  11.884 -0.0261  0.4385  0.1989
    1Sil     Ob  568   3.420   3.114  11.944 -0.2388  0.2400 -0.0488
    1Sil     Ob  569   3.967   3.108  12.304  0.2440  0.0489  0.1225
    1Sil     Ob  570   3.787   3.009  11.541 -0.6009  0.3312 -0.7752
    1Sil     Ob  571   3.787   2.929  12.376  0.4156 -0.5912  0.1826
    1Sil     Ob  572   3.547   2.932  11.595 -0.0555 -0.0467  0.2597
    1Sil     Ob  573   4.087   2.931  11.986  0.0887  0.4544 -0.1486
    1Sil     Ob  574   3.574   2.689  12.111  0.4199  0.3542 -0.8590
    1Sil     Ob  575   4.163   2.699  11.319  0.0047 -0.2448  0.2229
    1Sil     Ob  576   3.857   2.684  11.703  0.5578 -0.0230  0.5448
    1Sil     Ob  577   3.555   2.871  12.298  0.5265  0.1093 -0.1770
    1Sil     Ob  578   3.319   2.869  11.497 -0.6014 -0.0532 -0.3284
    1Sil     Ob  579   3.891   2.758  11.943 -0.2051 -0.3645 -0.5796
    1Sil     Ob  580   3.504   2.862  11.924  0.4518 -0.2363 -0.0347
    1Sil     Ob  581   4.036   2.859  12.338 -0.3512 -0.6158  0.4154
    1Sil     Ob  582   3.711   2.758  11.515 -0.8893  0.1316 -0.2536
    1Sil     Ob  583   3.960   2.693  11.470  0.1502 -0.6263 -0.2734
    1Sil     Ob  584   3.375   2.689  12.255 -0.2041 -0.4601 -0.3646
    1Sil     Ob  585   3.658   2.680  11.867 -0.7676  0.2255  0.1104
    1Sil     Ob  586   3.341   2.960  11.748 -0.0887  0.1691 -0.7258
    1Sil     Ob  587   3.880   2.933  12.134  0.3919 -0.2064 -0.5897
    1Sil     Ob  588   3.630   2.934  11.345 -0.0480 -0.1836 -0.4069
    1Sil     Ob  589   3.642   3.120  11.165  0.0155  0.0001 -0.8077
    1Sil     Ob  590   4.259   3.132  10.359  0.9179 -0.1780 -0.1053
    1Sil     Ob  591   3.914   3.001  10.693 -0.3140 -0.0076  0.0398
    1Sil     Ob  592   3.839   0.000  11.189  0.1228  0.6703 -0.6419
    1Sil     Ob  593   3.606  -0.034  10.402  0.0315  0.5209  0.0307
    1Sil     Ob  594   4.145  -0.017  10.807  0.2654 -0.3240  0.3385
    1Sil     Ob  595   3.616   3.178  10.915  0.3905 -0.1130  0.1734
    1Sil     Ob  596   3.936   3.181  10.511 -0.0815 -0.6126 -0.0743
    1Sil     Ob  597   3.607   3.366  11.103  0.2168  0.1566  0.1834
    1Sil     Ob  598   3.363   3.360  10.317 -0.3403 -0.2922  0.4304
    1Sil     Ob  599   3.963   3.257  10.757 -0.9252  0.5866  0.2614
    1Sil     Ob  600   3.541  -0.091  10.747 -0.2922  0.1532 -0.0961
    1Sil     Ob  601   4.081  -0.083  11.142 -0.1098  0.3483 -0.4708
    1Sil     Ob  602   3.775  -0.192  10.319  0.0985 -0.3136  0.7753
    1Sil     Ob  603   4.023   3.186  10.260  0.7055  0.2683  0.4520
    1Sil     Ob  604   3.418   3.191  11.072  0.1399  0.1298  0.3272
    1Sil     Ob  605   3.725   3.192  10.672  0.0806  0.0369 -0.0079
    1Sil     Ob  606   3.395  -0.024  10.557  0.2215  0.0880 -0.3772
    1Sil     Ob  607   3.926  -0.024  10.950  0.0496  0.2325  0.5468
    1Sil     Ob  608   3.606   3.115  12.359  0.1582  0.5518  0.6019
    1Sil     Ob  609   4.200   3.114  11.557 -0.2775 -0.3106  0.3748
    1Sil     Ob  610   3.858   3.007  11.889  0.4357  0.0169  0.1540
    1Sil     Ob  611   3.792  -0.017  12.379  0.2244 -0.3667 -0.0004
    1Sil     Ob  612   3.551  -0.000  11.585  0.5520 -0.3419  0.7929
    1Sil     Ob  613   4.093  -0.044  11.982  0.5256 -1.0496  0.4105
    1Sil     Ob  614   3.596   3.208  12.113 -0.0566  0.3095 -0.9984
    1Sil     Ob  615   4.159   3.178  11.306 -0.5958  0.2721 -0.5153
    1Sil     Ob  616   3.872   3.192  11.700 -0.2422 -0.1719 -0.2590
    1Sil     Ob  617   3.553   3.361  12.310  0.7009 -0.1351  0.0380
    1Sil     Ob  618   3.323   3.356  11.485 -0.0775 -0.1536  0.1873
    1Sil     Ob  619   3.882   3.252  11.962  0.0141 -0.3643  0.8359
    1Sil     Ob  620   3.501  -0.088  11.947 -0.3251 -0.0044  0.8714
    1Sil     Ob  621   4.037  -0.102  12.328  0.0533  0.0475 -0.1520
    1Sil     Ob  622   3.715  -0.199  11.510 -0.8580 -0.2812  0.4436
    1Sil     Ob  623   3.958   3.180  11.461  0.6208 -0.2399 -0.0084
    1Sil     Ob  624   3.392   3.180  12.257 -0.3752 -0.2947  0.3839
    1Sil     Ob  625   3.662   3.173  11.862  0.2262 -0.4271  0.3081
    1Sil     Ob  626   3.346  -0.036  11.744  0.1520 -0.1674  0.3333
    1Sil     Ob  627   3.885  -0.009  12.142 -0.7553  0.3165  0.3144
    1Sil     Ob  628   3.636  -0.011  11.347 -0.5066 -0.6806 -0.4426
    1Sil     Ob  629   4.489   0.177  11.159  0.0623  0.0721  0.5071
    1Sil     Ob  630   5.086   0.158  10.372  0.1997 -0.0438 -0.1510
    1Sil     Ob  631   4.306   0.660  10.734 -0.2821 -0.0079 -0.2019
    1Sil     Ob  632   4.857   0.655  11.104  0.2287 -0.0187 -0.4692
    1Sil     Ob  633   4.665   0.538  10.362 -0.1404  0.2966 -0.3399
    1Sil     Ob  634   4.680   0.480  11.190  0.9534  0.2705 -0.0933
    1Sil     Ob  635   4.421   0.468  10.400 -0.6660  0.3428  0.3534
    1Sil     Ob  636   4.968   0.480  10.802 -0.0466  0.1127  0.2056
    1Sil     Ob  637   4.464   0.257  10.907 -0.6123  0.3184 -0.5358
    1Sil     Ob  638   4.755   0.216  10.513  0.1010 -0.0324  0.2869
    1Sil     Ob  639   4.448   0.416  11.100  0.2799 -0.0165 -0.3910
    1Sil     Ob  640   4.178   0.411  10.316 -0.0014 -0.2880 -0.5016
    1Sil     Ob  641   4.790   0.294  10.758 -0.0354  0.3662  0.7573
    1Sil     Ob  642   4.377   0.415  10.727  0.0197  0.3559 -0.2721
    1Sil     Ob  643   4.926   0.403  11.139 -0.3742 -0.6854  0.4785
    1Sil     Ob  644   4.596   0.293  10.333  0.1329 -0.4140 -0.1139
    1Sil     Ob  645   4.851   0.216  10.270  0.6342 -0.4480  0.0516
    1Sil     Ob  646   4.263   0.251  11.066 -0.2980  0.1106  0.3720
    1Sil     Ob  647   4.556   0.229  10.663 -0.0318  0.1056  0.4409
    1Sil     Ob  648   4.220   0.519  10.548 -0.1982  0.3352 -0.7917
    1Sil     Ob  649   4.759   0.459  10.952  0.1384  0.1686  0.3730
    1Sil     Ob  650   4.439   0.150  12.374  0.2555  0.2542 -0.3581
    1Sil     Ob  651   5.009   0.148  11.568 -0.0488  0.1935  0.5039
    1Sil     Ob  652   4.260   0.643  11.912  0.2914  0.4245  0.3413
    1Sil     Ob  653   4.794   0.655  12.316 -0.2512 -0.9024  0.0277
    1Sil     Ob  654   4.621   0.542  11.544 -0.2832  0.6951 -0.2086
    1Sil     Ob  655   4.632   0.464  12.369  0.5152  0.0619  0.0011
    1Sil     Ob  656   4.379   0.490  11.587  0.6579 -0.4051  0.1500
    1Sil     Ob  657   4.920   0.443  11.980  0.8032 -0.4287  0.4284
    1Sil     Ob  658   4.405   0.214  12.128 -0.1213  0.5105  0.0627
    1Sil     Ob  659   4.991   0.214  11.310 -0.3220  0.7433  0.5091
    1Sil     Ob  660   4.706   0.214  11.719 -0.7034  0.1774 -0.0427
    1Sil     Ob  661   4.399   0.392  12.292  0.4129  0.3508  0.1835
    1Sil     Ob  662   4.151   0.405  11.501 -0.0811 -0.0731  0.4627
    1Sil     Ob  663   4.717   0.282  11.973 -0.2491 -0.1721 -0.1164
    1Sil     Ob  664   4.315   0.392  11.962  0.6837 -0.1027  0.4779
    1Sil     Ob  665   4.874   0.403  12.309  0.1196 -0.0750 -0.5705
    1Sil     Ob  666   4.546   0.299  11.534  0.1355 -0.1590 -0.2282
    1Sil     Ob  667   4.792   0.250  11.476  0.9728 -0.1232  0.7379
    1Sil     Ob  668   4.204   0.234  12.285  0.0280 -0.0754 -0.5453
    1Sil     Ob  669   4.484   0.224  11.871 -0.2863 -0.2290  0.2875
    1Sil     Ob  670   4.188   0.461  11.746  0.3385 -0.2248 -0.6297
    1Sil     Ob  671   4.720   0.488  12.136  0.1918 -0.3499  0.4565
    1Sil     Ob  672   4.476   0.482  11.348 -0.1540 -0.0771  0.2983
    1Sil     Ob  673   4.507   0.667  11.161 -0.7950 -0.0485  0.1549
    1Sil     Ob  674   5.085   0.666  10.349 -0.0169 -0.4419 -0.5517
    1Sil     Ob  675   4.727   0.546  10.718 -0.0830  0.1700  0.1407
    1Sil     Ob  676   4.303   1.155  10.730  0.2412 -0.2720 -0.2951
    1Sil     Ob  677   4.853   1.149  11.112 -0.3726  0.5623  0.9535
    1Sil     Ob  678   4.684   1.031  10.358 -0.7757 -0.1141  0.0828
    1Sil     Ob  679   4.681   0.976  11.202 -0.1134 -0.0292 -0.1455
    1Sil     Ob  680   4.437   0.970  10.405  0.0167  0.6205  0.1404
    1Sil     Ob  681   4.972   0.950  10.802 -0.6572 -0.0150  0.2585
    1Sil     Ob  682   4.466   0.737  10.911  0.2488 -0.3588  0.2169
    1Sil     Ob  683   4.761   0.711  10.528  0.1351  0.5186 -0.3080
    1Sil     Ob  684   4.451   0.912  11.100 -0.0209 -0.0881 -0.1700
    1Sil     Ob  685   4.196   0.913  10.314  0.3894  0.1185 -0.1685
    1Sil     Ob  686   4.779   0.792  10.777 -0.2406  0.3405  0.1542
    1Sil     Ob  687   4.387   0.910  10.751 -0.2573  0.0648 -0.5533
    1Sil     Ob  688   4.926   0.903  11.128  0.1212 -0.1687  0.0014
    1Sil     Ob  689   4.608   0.788  10.336 -0.7687 -0.5183 -0.0936
    1Sil     Ob  690   4.844   0.702  10.275  0.2974 -0.0471  0.1044
    1Sil     Ob  691   4.267   0.731  11.076 -0.1178  0.2303 -0.4550
    1Sil     Ob  692   4.546   0.729  10.674 -0.4250  0.9593  0.0984
    1Sil     Ob  693   4.228   0.989  10.557  0.8366  0.0458  0.4449
    1Sil     Ob  694   4.758   0.974  10.956  1.0149 -0.6178  0.1282
    1Sil     Ob  695   4.444   0.641  12.352  1.0963  0.2432 -0.1766
    1Sil     Ob  696   5.025   0.644  11.557 -0.4354 -0.1747  0.4142
    1Sil     Ob  697   4.702   0.527  11.888 -0.4633  0.1498 -0.1674
    1Sil     Ob  698   4.254   1.128  11.926  0.5938 -0.6829 -0.2376
    1Sil     Ob  699   4.779   1.142  12.298 -0.2172 -0.2167 -0.0831
    1Sil     Ob  700   4.622   1.034  11.520  0.2890  0.1337  0.9815
    1Sil     Ob  701   4.616   0.961  12.385 -0.6273  0.2102 -0.3964
    1Sil     Ob  702   4.385   0.968  11.590  0.0087  0.2726 -0.0971
    1Sil     Ob  703   4.910   0.954  11.988  0.4438 -0.0597  0.2194
    1Sil     Ob  704   4.400   0.698  12.101 -0.0343  0.3322 -0.2333
    1Sil     Ob  705   4.993   0.727  11.306  0.1037  0.6936 -0.6519
    1Sil     Ob  706   4.706   0.720  11.716 -0.1163 -0.2077  0.5063
    1Sil     Ob  707   4.403   0.886  12.285  0.5266 -0.6270  0.1424
    1Sil     Ob  708   4.151   0.899  11.494  0.0641 -0.3135  0.3984
    1Sil     Ob  709   4.729   0.779  11.959 -0.6728 -0.4196 -0.4000
    1Sil     Ob  710   4.344   0.882  11.922  0.1802  0.5065 -0.6471
    1Sil     Ob  711   4.868   0.898  12.334  0.1245 -0.5022  0.1173
    1Sil     Ob  712   4.546   0.787  11.516 -0.0308  1.0276  0.8339
    1Sil     Ob  713   4.791   0.723  11.466 -0.6695  0.0373 -0.1679
    1Sil     Ob  714   4.208   0.699  12.270  0.2136 -0.0419  0.7587
    1Sil     Ob  715   4.501   0.687  11.866 -0.1596  0.2598  0.5317
    1Sil     Ob  716   4.182   0.981  11.736 -0.1942 -0.3908  0.5188
    1Sil     Ob  717   4.702   0.964  12.143 -0.4650 -0.2614  1.0398
    1Sil     Ob  718   4.459   0.959  11.348  0.0807 -0.1880 -0.2680
    1Sil     Ob  719   4.475   1.156  11.175  0.2263  0.2447 -0.4784
    1Sil     Ob  720   5.088   1.146  10.357 -0.3400  0.3655  0.4517
    1Sil     Ob  721   4.736   1.040  10.719 -0.1364 -0.4031  0.0273
    1Sil     Ob  722   4.309   1.642  10.730  0.5813 -0.0964 -0.4861
    1Sil     Ob  723   4.844   1.635  11.117 -0.0062 -0.2669  0.3276
    1Sil     Ob  724   4.679   1.527  10.343 -0.5431 -0.4401  0.0897
    1Sil     Ob  725   4.669   1.459  11.195  0.0383 -0.2106 -0.2924
    1Sil     Ob  726   4.429   1.459  10.405  0.7882  0.5492  0.4263
    1Sil     Ob  727   4.966   1.457  10.808 -0.3339  0.7630  0.2594
    1Sil     Ob  728   4.455   1.217  10.914 -0.2980  0.0332  0.0702
    1Sil     Ob  729   4.762   1.220  10.522  0.6468  0.4645 -0.4231
    1Sil     Ob  730   4.434   1.395  11.096 -0.5790 -0.7697  0.1163
    1Sil     Ob  731   4.197   1.398  10.313  0.3173  0.5375  0.4078
    1Sil     Ob  732   4.783   1.291  10.785 -0.1550 -0.0968 -0.4420
    1Sil     Ob  733   4.379   1.396  10.746 -0.1374  0.4846  0.2089
    1Sil     Ob  734   4.925   1.391  11.149  0.0679  0.4590  0.4168
    1Sil     Ob  735   4.608   1.281  10.334 -0.0251  0.0227 -0.2622
    1Sil     Ob  736   4.860   1.213  10.280  0.6610  0.2848 -0.4021
    1Sil     Ob  737   4.253   1.218  11.069 -0.5190 -0.2785  0.1602
    1Sil     Ob  738   4.553   1.209  10.676 -0.1462  0.2841  0.3111
    1Sil     Ob  739   4.225   1.468  10.554 -0.3638 -0.3605 -0.3672
    1Sil     Ob  740   4.757   1.467  10.965  0.5268 -0.5051 -0.1077
    1Sil     Ob  741   4.426   1.140  12.361  0.0309 -0.1349  0.2863
    1Sil     Ob  742   5.009   1.136  11.567  0.2775 -0.4486  0.5606
    1Sil     Ob  743   4.680   1.026  11.890  0.1346 -0.3461 -0.0008
    1Sil     Ob  744   4.250   1.628  11.916 -0.0767 -0.0207 -0.0736
    1Sil     Ob  745   4.798   1.629  12.285  0.2277 -0.3776 -0.9804
    1Sil     Ob  746   4.607   1.525  11.555 -0.1759  0.6648  0.7366
    1Sil     Ob  747   4.624   1.467  12.387 -0.2800 -0.2558  0.5386
    1Sil     Ob  748   4.373   1.455  11.591 -1.0937 -0.5165  0.5904
    1Sil     Ob  749   4.914   1.435  11.993 -0.2168 -0.7934 -0.1737
    1Sil     Ob  750   4.415   1.214  12.108 -0.8457  0.2076 -0.0301
    1Sil     Ob  751   5.000   1.210  11.322 -0.5279 -0.0401 -0.1656
    1Sil     Ob  752   4.683   1.203  11.708 -0.4102  0.0719 -0.2714
    1Sil     Ob  753   4.396   1.387  12.306  0.1387  0.3486  0.7840
    1Sil     Ob  754   4.144   1.390  11.491  0.3127  0.4387  0.1975
    1Sil     Ob  755   4.717   1.274  11.951  0.2368 -0.2665  0.6690
    1Sil     Ob  756   4.326   1.385  11.939  0.2055 -0.2495 -0.3937
    1Sil     Ob  757   4.855   1.387  12.331  0.2390 -0.8537  0.3235
    1Sil     Ob  758   4.539   1.286  11.517  0.0072 -0.0126  0.1680
    1Sil     Ob  759   4.789   1.229  11.475 -0.0299  0.4543  0.1397
    1Sil     Ob  760   4.204   1.212  12.268  0.0860 -0.6291 -0.5088
    1Sil     Ob  761   4.492   1.195  11.870  0.4521 -0.2973  0.1455
    1Sil     Ob  762   4.174   1.447  11.741  0.2267 -0.3370  0.2727
    1Sil     Ob  763   4.701   1.448  12.136 -0.0115 -0.1669  0.0696
    1Sil     Ob  764   4.462   1.455  11.344  0.7415  0.4419 -0.0050
    1Sil     Ob  765   4.482   1.640  11.168  0.0704  0.4193  0.2658
    1Sil     Ob  766   5.089   1.636  10.355 -0.1155  0.1991 -0.0401
    1Sil     Ob  767   4.730   1.539  10.713 -0.4830 -0.2438  0.2164
    1Sil     Ob  768   4.305   2.130  10.733 -0.0552  0.9360 -0.6046
    1Sil     Ob  769   4.853   2.133  11.099  0.0696 -0.1685  0.1501
    1Sil     Ob  770   4.673   2.026  10.334  0.5121  0.4538 -0.6215
    1Sil     Ob  771   4.667   1.973  11.187 -0.0931  0.2497 -0.8471
    1Sil     Ob  772   4.430   1.948  10.390  0.1131  0.4828  0.3243
    1Sil     Ob  773   4.969   1.949  10.792  1.0830  0.1611 -1.2242
    1Sil     Ob  774   4.468   1.716  10.915  0.3889 -0.3250 -0.0497
    1Sil     Ob  775   4.755   1.699  10.509 -0.7902 -0.1874 -0.2832
    1Sil     Ob  776   4.436   1.891  11.103 -0.4874  0.1468 -1.2504
    1Sil     Ob  777   4.207   1.880  10.297 -0.2837 -1.3657  0.0130
    1Sil     Ob  778   4.785   1.786  10.761  0.2675 -0.1048 -1.1523
    1Sil     Ob  779   4.382   1.891  10.742 -0.4192  0.6526 -0.4515
    1Sil     Ob  780   4.910   1.887  11.138  0.1832  0.1007  0.1633
    1Sil     Ob  781   4.606   1.773  10.310  0.5745 -0.2048 -0.2832
    1Sil     Ob  782   4.853   1.691  10.264  0.4591 -0.5442 -0.2875
    1Sil     Ob  783   4.257   1.714  11.067 -0.3454 -0.1596 -0.4132
    1Sil     Ob  784   4.553   1.714  10.671  0.1672  0.7408  0.6976
    1Sil     Ob  785   4.223   1.952  10.545 -0.0978  0.1921 -0.3803
    1Sil     Ob  786   4.761   1.949  10.945 -0.0141  0.2097 -0.1018
    1Sil     Ob  787   4.439   1.630  12.368  0.1696 -0.1870  1.1534
    1Sil     Ob  788   5.024   1.638  11.560  0.1920 -0.1230 -0.5998
    1Sil     Ob  789   4.692   1.520  11.887  0.4067  0.1523 -0.4595
    1Sil     Ob  790   4.266   2.127  11.923  0.2376 -0.3947 -0.2562
    1Sil     Ob  791   4.800   2.127  12.309 -0.5415  0.0063  0.2811
    1Sil     Ob  792   4.626   2.022  11.526  0.1111 -0.1103 -0.4371
    1Sil     Ob  793   4.623   1.956  12.399 -0.4320  0.9463 -0.1619
    1Sil     Ob  794   4.380   1.953  11.596  0.6094 -0.6653  0.7749
    1Sil     Ob  795   4.916   1.945  11.995 -0.0623  0.1388  0.3709
    1Sil     Ob  796   4.409   1.696  12.111 -0.1091 -0.0460  0.6509
    1Sil     Ob  797   4.993   1.721  11.315 -0.5746  0.0777 -0.6014
    1Sil     Ob  798   4.690   1.706  11.713 -0.5737 -0.2540 -0.2102
    1Sil     Ob  799   4.398   1.882  12.309 -0.2358  0.3605 -0.0300
    1Sil     Ob  800   4.145   1.884  11.504  0.3097  0.5165  0.0778
    1Sil     Ob  801   4.735   1.764  11.959 -0.7075  0.0388 -0.4007
    1Sil     Ob  802   4.333   1.870  11.937 -0.4743  0.0686  0.0280
    1Sil     Ob  803   4.863   1.868  12.353 -0.1255 -0.2234 -0.1117
    1Sil     Ob  804   4.546   1.771  11.516 -0.1162 -0.1381  0.7194
    1Sil     Ob  805   4.791   1.692  11.473 -0.0698  0.0867 -0.0851
    1Sil     Ob  806   4.211   1.698  12.271 -1.0086  0.5690 -0.1997
    1Sil     Ob  807   4.496   1.683  11.875  0.0869  0.9351  0.3039
    1Sil     Ob  808   4.181   1.952  11.749 -0.1275 -0.0403 -0.4438
    1Sil     Ob  809   4.709   1.923  12.150 -0.0195 -0.0458 -0.5620
    1Sil     Ob  810   4.465   1.940  11.349  0.4087 -0.2438  0.1372
    1Sil     Ob  811   4.466   2.127  11.175 -0.0879  0.2634 -0.2202
    1Sil     Ob  812   5.058   2.126  10.377  0.0814  0.6339 -0.1874
    1Sil     Ob  813   4.738   2.018  10.699  0.8490  0.7145  0.2474
    1Sil     Ob  814   4.306   2.620  10.741  0.8175 -0.1634  0.0980
    1Sil     Ob  815   4.854   2.618  11.112 -0.0098  0.6789 -0.0706
    1Sil     Ob  816   4.677   2.505  10.344 -0.1287  0.0356  0.8703
    1Sil     Ob  817   4.675   2.458  11.200 -0.1906  0.1589  0.0703
    1Sil     Ob  818   4.422   2.436  10.397 -0.3769 -0.4857  0.0507
    1Sil     Ob  819   4.967   2.447  10.799 -0.4894 -0.1250  0.4728
    1Sil     Ob  820   4.463   2.198  10.920  0.3083  0.1215 -0.0506
    1Sil     Ob  821   4.754   2.196  10.513 -0.2461  0.4093  0.4143
    1Sil     Ob  822   4.452   2.382  11.100  0.6825 -0.0497 -0.0624
    1Sil     Ob  823   4.187   2.378  10.318 -0.2175 -0.1174 -0.1312
    1Sil     Ob  824   4.785   2.266  10.759 -0.4051  0.1256 -0.1604
    1Sil     Ob  825   4.379   2.373  10.746 -0.2691 -0.1382 -0.2802
    1Sil     Ob  826   4.918   2.378  11.154  0.4783  0.1484 -0.1388
    1Sil     Ob  827   4.597   2.264  10.317  0.6657 -0.5302  0.6452
    1Sil     Ob  828   4.836   2.198  10.275  0.0315  0.3881  0.7921
    1Sil     Ob  829   4.259   2.223  11.068 -0.7068 -0.2870 -0.5395
    1Sil     Ob  830   4.550   2.195  10.675 -0.6383  0.2681  0.0163
    1Sil     Ob  831   4.224   2.447  10.562  0.3359  0.4386 -0.3927
    1Sil     Ob  832   4.761   2.433  10.951  0.3425 -0.5606 -0.6880
    1Sil     Ob  833   4.439   2.129  12.376 -0.1227  0.7516 -0.1728
    1Sil     Ob  834   5.024   2.125  11.555  0.1124  0.0717 -0.1963
    1Sil     Ob  835   4.678   2.005  11.911 -0.2490 -0.1654 -0.0649
    1Sil     Ob  836   4.260   2.612  11.920 -0.5221 -0.4312  0.0502
    1Sil     Ob  837   4.811   2.621  12.287  0.1879 -0.4251  0.2014
    1Sil     Ob  838   4.625   2.522  11.532 -0.3208 -0.5367 -0.1231
    1Sil     Ob  839   4.630   2.446  12.380  0.5713  0.3758  0.0850
    1Sil     Ob  840   4.389   2.453  11.592 -0.3895  0.0184  1.0040
    1Sil     Ob  841   4.932   2.432  11.997  0.2277  0.2779 -0.0748
    1Sil     Ob  842   4.407   2.186  12.123 -0.4744 -0.1189  0.0220
    1Sil     Ob  843   4.996   2.196  11.308  0.5489 -0.3775  0.2438
    1Sil     Ob  844   4.708   2.171  11.712 -0.4908 -0.1646 -0.3530
    1Sil     Ob  845   4.383   2.372  12.319 -0.7268 -0.2935  0.1926
    1Sil     Ob  846   4.169   2.376  11.497  0.1953 -0.5044 -0.2525
    1Sil     Ob  847   4.750   2.253  11.960 -0.2943 -0.6850 -0.2971
    1Sil     Ob  848   4.333   2.369  11.949 -0.3483  0.2725  0.9222
    1Sil     Ob  849   4.871   2.370  12.335  0.0299  0.2224  0.2163
    1Sil     Ob  850   4.552   2.271  11.517  0.1018  0.4032 -0.4574
    1Sil     Ob  851   4.789   2.202  11.462  0.5165  0.4991 -0.9100
    1Sil     Ob  852   4.209   2.192  12.280  0.0492  0.1541 -0.0055
    1Sil     Ob  853   4.511   2.197  11.872 -0.0796 -0.1887 -0.7447
    1Sil     Ob  854   4.182   2.431  11.749 -0.1152  0.8254 -0.0646
    1Sil     Ob  855   4.719   2.430  12.140  0.7407  0.2013  0.0767
    1Sil     Ob  856   4.460   2.447  11.348  0.2208  0.1051  0.5388
    1Sil     Ob  857   4.497   2.636  11.162  0.1327  0.1086 -0.2569
    1Sil     Ob  858   5.086   2.611  10.374 -0.2048  0.0477  0.2227
    1Sil     Ob  859   4.736   2.508  10.705 -0.0025 -0.2224  0.0851
    1Sil     Ob  860   4.311   3.119  10.744 -0.0571  0.3631 -0.1800
    1Sil     Ob  861   4.853   3.122  11.108  0.5720 -0.2135 -0.6838
    1Sil     Ob  862   4.671   3.017  10.363 -0.4149  0.7946  0.2041
    1Sil     Ob  863   4.677   2.954  11.202  0.2850  0.4317  0.3648
    1Sil     Ob  864   4.431   2.931  10.403 -0.0484 -0.1026  0.1648
    1Sil     Ob  865   4.969   2.943  10.804 -0.2376  0.3510  0.1907
    1Sil     Ob  866   4.476   2.701  10.913  0.0120  0.5761  0.1843
    1Sil     Ob  867   4.755   2.672  10.516 -0.2194  0.1698  0.6505
    1Sil     Ob  868   4.462   2.881  11.104  0.2275  0.6450  0.4658
    1Sil     Ob  869   4.200   2.881  10.308 -0.2824 -0.1135  0.2302
    1Sil     Ob  870   4.784   2.748  10.764  0.1391  0.1517 -0.6244
    1Sil     Ob  871   4.383   2.873  10.739 -0.0209  0.2154 -0.6156
    1Sil     Ob  872   4.913   2.871  11.159 -0.0644  0.0008 -0.2053
    1Sil     Ob  873   4.607   2.761  10.325  0.2688  0.7421  0.3782
    1Sil     Ob  874   4.857   2.681  10.274 -0.0706 -0.4707 -0.2861
    1Sil     Ob  875   4.262   2.716  11.075  0.5599 -0.4118 -0.5872
    1Sil     Ob  876   4.542   2.677  10.665  0.0331  0.1952 -0.3033
    1Sil     Ob  877   4.227   2.958  10.554 -0.5700 -0.7942 -0.2048
    1Sil     Ob  878   4.755   2.929  10.958  0.3822  0.5906  0.3829
    1Sil     Ob  879   4.433   2.615  12.369 -0.9325 -0.7223 -0.3821
    1Sil     Ob  880   5.029   2.620  11.565 -0.5938 -0.8317 -0.3060
    1Sil     Ob  881   4.705   2.499  11.892 -0.1774 -0.1541 -0.3001
    1Sil     Ob  882   4.259   3.104  11.923 -0.1569 -0.9069  0.5653
    1Sil     Ob  883   4.795   3.115  12.303 -0.6604  0.6913  0.1176
    1Sil     Ob  884   4.618   3.010  11.535 -0.1752  0.1306  0.1594
    1Sil     Ob  885   4.628   2.933  12.380  0.2177  0.6495  0.3665
    1Sil     Ob  886   4.384   2.932  11.589 -0.1754 -0.4002  0.5057
    1Sil     Ob  887   4.930   2.921  11.980  0.3595  0.5923  0.6447
    1Sil     Ob  888   4.408   2.686  12.113 -0.7123 -0.0459 -0.4261
    1Sil     Ob  889   4.995   2.683  11.309  0.0415  0.3280 -0.0999
    1Sil     Ob  890   4.705   2.701  11.715  0.1574  0.2053 -0.1920
    1Sil     Ob  891   4.395   2.854  12.306 -0.2360 -0.1742  0.3465
    1Sil     Ob  892   4.146   2.865  11.500 -0.0507  0.1136  0.6410
    1Sil     Ob  893   4.741   2.747  11.955 -0.4797 -0.5869 -0.1028
    1Sil     Ob  894   4.337   2.859  11.920 -0.4060 -0.4683 -0.6732
    1Sil     Ob  895   4.875   2.874  12.337 -0.2464  0.1106 -0.0472
    1Sil     Ob  896   4.553   2.767  11.511 -0.3857 -0.1784  0.1810
    1Sil     Ob  897   4.797   2.693  11.469  0.3503 -0.3107  0.1540
    1Sil     Ob  898   4.199   2.692  12.274  0.5778  0.1915  0.3593
    1Sil     Ob  899   4.508   2.660  11.876 -0.1299  0.3181 -0.2818
    1Sil     Ob  900   4.173   2.928  11.747 -0.5795 -0.2773  0.1533
    1Sil     Ob  901   4.717   2.939  12.129  0.0334 -0.0337  0.9109
    1Sil     Ob  902   4.463   2.943  11.344 -0.2028 -0.4181  0.1352
    1Sil     Ob  903   4.497   3.125  11.175  0.3307 -0.1628 -0.4858
    1Sil     Ob  904   5.076   3.112  10.386 -0.6282 -0.2534 -0.4030
    1Sil     Ob  905   4.750   3.006  10.706 -0.0278  0.0796  0.4640
    1Sil     Ob  906   4.677   0.002  11.195 -0.9968 -0.0034 -0.0614
    1Sil     Ob  907   4.439  -0.022  10.405 -0.5443  0.3071  0.1674
    1Sil     Ob  908   4.971  -0.023  10.801 -0.2624 -0.7212  0.3350
    1Sil     Ob  909   4.472   3.209  10.931 -0.4125  0.3621  0.1391
    1Sil     Ob  910   4.749   3.198  10.530  0.1281 -0.5269  0.3073
    1Sil     Ob  911   4.443   3.381  11.107 -0.0966 -0.7115 -0.0489
    1Sil     Ob  912   4.201   3.368  10.308 -1.0554  0.1536 -0.2251
    1Sil     Ob  913   4.791   3.250  10.774 -0.1720 -0.5134 -0.3825
    1Sil     Ob  914   4.395  -0.085  10.747 -0.1752 -0.1363 -0.3005
    1Sil     Ob  915   4.920  -0.088  11.153 -0.0109 -0.2175 -0.4363
    1Sil     Ob  916   4.598  -0.198  10.325  0.1857 -0.3648 -0.4582
    1Sil     Ob  917   4.848   3.184  10.279 -0.3686 -0.2928  0.0302
    1Sil     Ob  918   4.266   3.191  11.076 -0.3260 -0.0903 -0.0861
    1Sil     Ob  919   4.551   3.173  10.689 -0.7450  0.0578 -0.2767
    1Sil     Ob  920   4.237  -0.014  10.557  0.5540 -0.2976  0.0434
    1Sil     Ob  921   4.761  -0.018  10.954  0.2288 -0.4985 -0.0248
    1Sil     Ob  922   4.449   3.104  12.366  0.6529 -0.3313  0.4172
    1Sil     Ob  923   5.034   3.106  11.562  0.1138 -0.2197  0.1991
    1Sil     Ob  924   4.702   2.998  11.882 -0.2903  0.4515  0.4051
    1Sil     Ob  925   4.636  -0.008  12.391 -1.3557  0.1039 -0.4469
    1Sil     Ob  926   4.387  -0.021  11.592 -0.3688 -0.3044  0.3334
    1Sil     Ob  927   4.902  -0.023  11.983  0.7358  0.4200  0.8107
    1Sil     Ob  928   4.419   3.181  12.110 -0.0309  0.3842 -0.0022
    1Sil     Ob  929   5.002   3.176  11.309 -0.1485  0.0339  0.7081
    1Sil     Ob  930   4.694   3.183  11.698  0.2558 -0.2104  0.2187
    1Sil     Ob  931   4.413   3.349  12.307 -0.5654 -0.3934  0.1278
    1Sil     Ob  932   4.160   3.366  11.492 -0.0000 -0.1882 -0.4858
    1Sil     Ob  933   4.720   3.250  11.958  0.6087  0.3549 -0.3276
    1Sil     Ob  934   4.339  -0.101  11.924  0.9267  0.5039 -0.6312
    1Sil     Ob  935   4.868  -0.090  12.334  0.2448  0.0135 -0.3108
    1Sil     Ob  936   4.559  -0.198  11.487 -0.7609 -0.2603 -0.7965
    1Sil     Ob  937   4.801   3.184  11.460 -0.5658  0.5195 -0.2736
    1Sil     Ob  938   4.215   3.167  12.280 -0.0168  0.3898  0.1377
    1Sil     Ob  939   4.505   3.155  11.865 -0.0242  0.7329  0.6671
    1Sil     Ob  940   4.176  -0.019  11.740 -0.0099 -0.1681 -0.3827
    1Sil     Ob  941   4.700  -0.043  12.146 -0.1606  0.4380 -0.2195
    1Sil     Ob  942   4.473   0.004  11.347 -0.2495 -0.1950  0.2831
    1Sil     Ob  943   5.323   0.161  11.160 -0.3195 -0.1301  0.4925
    1Sil     Ob  944   5.138   0.655  10.737  0.0898 -0.3125  0.6187
    1Sil     Ob  945   5.688   0.649  11.112  0.0800 -0.0951 -0.0358
    1Sil     Ob  946   5.512   0.550  10.335  0.6096 -0.7059  0.5966
    1Sil     Ob  947   5.503   0.477  11.177 -0.2246  0.1027  0.4986
    1Sil     Ob  948   5.257   0.488  10.390 -0.0262 -0.9707 -0.0623
    1Sil     Ob  949   2.481   0.463  10.803  0.5456  0.2186  0.4863
    1Sil     Ob  950   5.301   0.231  10.912  0.4171  0.2105 -0.0348
    1Sil     Ob  951   2.274   0.226  10.528  0.3968  0.1181  0.1826
    1Sil     Ob  952   5.262   0.408  11.099 -0.2866 -0.4787 -0.7377
    1Sil     Ob  953   5.024   0.410  10.314  0.2190  0.3662  0.5306
    1Sil     Ob  954   2.277   0.291  10.778  0.0916  0.0433  0.1721
    1Sil     Ob  955   5.213   0.407  10.742 -0.0684  0.3556  0.4160
    1Sil     Ob  956   5.745   0.410  11.148  0.1429  0.2653  1.0257
    1Sil     Ob  957   5.430   0.306  10.335 -0.4321 -0.0101  0.2949
    1Sil     Ob  958   2.343   0.240  10.280 -0.0463  0.4260  0.1217
    1Sil     Ob  959   5.103   0.223  11.070  0.2575 -0.2128  0.4395
    1Sil     Ob  960   2.061   0.224  10.669  0.4527  0.1592 -0.0300
    1Sil     Ob  961   5.054   0.497  10.554  0.2233 -0.7633 -0.2820
    1Sil     Ob  962   5.595   0.481  10.939  0.7692 -0.2581  0.6501
    1Sil     Ob  963   5.279   0.152  12.340 -0.2668  0.2851 -0.2077
    1Sil     Ob  964   5.085   0.636  11.931 -0.3658  0.7558  0.1406
    1Sil     Ob  965   5.629   0.648  12.304 -0.4310  0.0529 -0.7159
    1Sil     Ob  966   5.470   0.550  11.523  0.5057  0.4035 -0.4353
    1Sil     Ob  967   5.465   0.481  12.379 -0.3054  0.3205  0.1773
    1Sil     Ob  968   5.214   0.479  11.589  0.0368  0.1230 -0.2318
    1Sil     Ob  969   2.423   0.456  11.979  0.1958  0.0506 -0.3830
    1Sil     Ob  970   5.246   0.236  12.099  0.0978 -0.1834  0.5285
    1Sil     Ob  971   2.500   0.235  11.318 -0.6500  0.2444 -0.3252
    1Sil     Ob  972   2.198   0.231  11.702  0.4206 -0.6593 -0.2515
    1Sil     Ob  973   5.226   0.399  12.301  0.1136  0.3981  0.2205
    1Sil     Ob  974   4.990   0.396  11.496 -0.3729 -0.1346 -0.4706
    1Sil     Ob  975   2.237   0.290  11.951  0.0191 -0.2388 -0.0759
    1Sil     Ob  976   5.168   0.387  11.915  0.3860  0.4776  0.3057
    1Sil     Ob  977   5.701   0.397  12.326 -0.2833  0.2934  0.1246
    1Sil     Ob  978   5.385   0.296  11.511 -0.5386  0.1634 -0.2908
    1Sil     Ob  979   2.299   0.216  11.468 -0.0876 -0.0889  0.5230
    1Sil     Ob  980   5.046   0.217  12.260 -0.1125 -0.3042  0.5261
    1Sil     Ob  981   1.994   0.198  11.864  0.1649 -0.2453 -0.0169
    1Sil     Ob  982   5.007   0.477  11.742 -0.9672  0.2055 -0.5266
    1Sil     Ob  983   5.539   0.465  12.134  0.3056  0.0194  0.0606
    1Sil     Ob  984   5.301   0.459  11.342  0.0263 -0.1720 -0.6211
    1Sil     Ob  985   5.327   0.656  11.169 -0.0216 -0.4811 -0.1863
    1Sil     Ob  986   2.245   0.538  10.698  0.2393 -0.5040 -0.2963
    1Sil     Ob  987   5.143   1.151  10.734 -0.1857  1.0686  0.1125
    1Sil     Ob  988   5.676   1.146  11.102  0.5537  0.4924  0.7224
    1Sil     Ob  989   5.493   1.040  10.358 -0.6775  0.2547 -0.4208
    1Sil     Ob  990   5.509   0.979  11.196  0.3758  0.3575  0.1021
    1Sil     Ob  991   5.253   0.947  10.390 -0.7809 -0.1882  0.2257
    1Sil     Ob  992   2.469   0.959  10.796  0.0420  0.7189  0.2156
    1Sil     Ob  993   5.307   0.730  10.918 -0.1988  0.0876  0.3914
    1Sil     Ob  994   2.258   0.721  10.508 -0.4139  0.4479  0.8168
    1Sil     Ob  995   5.290   0.914  11.101  0.4551 -0.5174  0.1195
    1Sil     Ob  996   5.004   0.908  10.315 -0.0973  0.1935  0.4738
    1Sil     Ob  997   2.293   0.782  10.765  0.0085  0.1755 -0.0086
    1Sil     Ob  998   5.221   0.901  10.744  0.2007 -0.3146  0.4539
    1Sil     Ob  999   5.755   0.900  11.146  0.0951 -0.3406  0.1452
    1Sil     Ob 1000   5.442   0.793  10.297 -0.1230 -0.3768  0.0176
    1Sil     Ob 1001   2.359   0.714  10.264 -0.0077 -0.5773 -0.0062
    1Sil     Ob 1002   5.110   0.736  11.069 -0.2238 -0.1307  0.4351
    1Sil     Ob 1003   2.052   0.710  10.677  0.8557 -0.8581  0.2459
    1Sil     Ob 1004   5.055   0.984  10.562  0.1569  0.5535  0.5418
    1Sil     Ob 1005   5.588   0.956  10.954 -0.5236  0.5903 -0.0625
    1Sil     Ob 1006   5.271   0.643  12.372  0.1500 -0.0593 -0.2125
    1Sil     Ob 1007   2.186   0.539  11.890 -0.1711 -0.0909 -0.3001
    1Sil     Ob 1008   5.080   1.135  11.917  0.2548  0.5752  0.0629
    1Sil     Ob 1009   5.617   1.143  12.323 -0.0954  0.9097 -0.0112
    1Sil     Ob 1010   5.452   1.039  11.545 -0.0021  0.5406 -0.2847
    1Sil     Ob 1011   5.445   0.965  12.391 -0.5658 -0.1531 -0.4999
    1Sil     Ob 1012   5.210   0.979  11.583 -0.0333  0.2289 -0.3050
    1Sil     Ob 1013   2.418   0.973  11.989 -0.7223 -0.2657  0.1315
    1Sil     Ob 1014   5.233   0.698  12.121 -0.2123 -0.4554  0.0770
    1Sil     Ob 1015   2.503   0.723  11.316 -0.5255 -0.0655 -0.3270
    1Sil     Ob 1016   2.213   0.712  11.710 -0.6089  0.8820 -0.0606
    1Sil     Ob 1017   5.213   0.889  12.299 -0.1728  0.1827  0.7475
    1Sil     Ob 1018   4.982   0.895  11.493 -0.6890 -0.0152  0.0849
    1Sil     Ob 1019   2.244   0.785  11.959  0.0040  0.4888 -0.1862
    1Sil     Ob 1020   5.148   0.883  11.959 -0.1036 -0.1410  0.0768
    1Sil     Ob 1021   5.689   0.892  12.347  0.0090  0.2588 -0.5162
    1Sil     Ob 1022   5.373   0.790  11.521 -0.1008  0.1442  0.4239
    1Sil     Ob 1023   2.295   0.748  11.470 -0.1073  0.2775 -0.1144
    1Sil     Ob 1024   5.036   0.711  12.281  0.4906  0.0418 -0.5084
    1Sil     Ob 1025   2.006   0.720  11.869 -0.0961  0.2304 -0.1197
    1Sil     Ob 1026   5.016   0.943  11.746 -0.4085  0.4154  0.0731
    1Sil     Ob 1027   5.541   0.957  12.148 -0.5493  0.5171 -0.2020
    1Sil     Ob 1028   5.295   0.975  11.350 -0.2437 -0.2486  0.9338
    1Sil     Ob 1029   5.334   1.158  11.168  0.0625  0.1695 -0.3247
    1Sil     Ob 1030   2.230   1.034  10.708  0.0402  0.3380 -0.1692
    1Sil     Ob 1031   5.136   1.639  10.730 -0.1489  0.2848  0.2177
    1Sil     Ob 1032   5.679   1.630  11.124  0.7029  0.2432  0.3676
    1Sil     Ob 1033   5.510   1.541  10.335  0.6759  0.5503 -0.2035
    1Sil     Ob 1034   5.502   1.469  11.197  0.1764 -0.3881 -0.6671
    1Sil     Ob 1035   5.267   1.466  10.403 -0.3051 -0.4769 -0.6424
    1Sil     Ob 1036   2.478   1.462  10.805  0.2777 -0.1041 -0.0953
    1Sil     Ob 1037   5.301   1.215  10.923 -0.1179  0.6967 -0.8283
    1Sil     Ob 1038   2.265   1.202  10.522  0.1942  0.0167 -0.0831
    1Sil     Ob 1039   5.269   1.399  11.100  0.0848 -0.5474  0.4529
    1Sil     Ob 1040   5.041   1.395  10.305  0.2178 -0.0726  0.3168
    1Sil     Ob 1041   2.291   1.278  10.767 -0.4489 -0.2554 -0.3542
    1Sil     Ob 1042   5.207   1.394  10.757 -0.8180  0.6467  0.8830
    1Sil     Ob 1043   5.744   1.391  11.144 -0.5294 -0.1248  0.6243
    1Sil     Ob 1044   5.433   1.284  10.337  0.3642 -0.1825 -0.2977
    1Sil     Ob 1045   2.349   1.207  10.279 -0.2717 -0.0437  0.2132
    1Sil     Ob 1046   5.099   1.215  11.075  0.3345 -0.1068 -0.1411
    1Sil     Ob 1047   2.063   1.220  10.676  0.2338  0.4507 -0.2454
    1Sil     Ob 1048   5.050   1.473  10.551  1.0631 -0.4813  0.6163
    1Sil     Ob 1049   5.597   1.470  10.948  0.2723 -0.2005  0.2106
    1Sil     Ob 1050   5.256   1.136  12.367 -0.2126  0.0675 -0.1180
    1Sil     Ob 1051   2.185   1.031  11.912  0.2927  0.2366 -0.0264
    1Sil     Ob 1052   5.090   1.629  11.938 -0.0328  0.7509  0.6183
    1Sil     Ob 1053   5.633   1.642  12.295  0.3425  0.8244 -0.1560
    1Sil     Ob 1054   5.456   1.530  11.541 -0.2846 -0.0178 -0.3843
    1Sil     Ob 1055   5.459   1.458  12.379 -0.1382  0.1088  0.5548
    1Sil     Ob 1056   5.215   1.470  11.595 -0.1829  0.3746 -0.0409
    1Sil     Ob 1057   2.423   1.461  11.986  0.0090 -0.5180  0.3441
    1Sil     Ob 1058   5.230   1.203  12.118 -0.0148  0.4217  0.2193
    1Sil     Ob 1059   2.489   1.211  11.305 -0.1600  0.5820 -0.2244
    1Sil     Ob 1060   2.208   1.204  11.726  0.1796 -0.4163  0.0863
    1Sil     Ob 1061   5.229   1.383  12.295  0.4234  0.1757 -0.3320
    1Sil     Ob 1062   4.981   1.390  11.500  0.0330 -0.4756 -0.1920
    1Sil     Ob 1063   2.238   1.283  11.969  0.5652 -0.7743  0.2866
    1Sil     Ob 1064   5.164   1.381  11.934  0.2100  0.6632 -0.2104
    1Sil     Ob 1065   5.694   1.389  12.311  0.2128 -1.2065 -0.5545
    1Sil     Ob 1066   5.379   1.284  11.522  0.0324 -0.0045 -0.5623
    1Sil     Ob 1067   2.294   1.215  11.474 -0.0751  0.4443  0.1279
    1Sil     Ob 1068   5.030   1.201  12.280 -0.7101  0.1705 -0.6538
    1Sil     Ob 1069   2.000   1.197  11.875  0.8733 -0.7887 -0.4920
    1Sil     Ob 1070   5.016   1.459  11.745  0.0720 -0.8383 -0.1729
    1Sil     Ob 1071   5.544   1.475  12.133 -0.0569  0.1074  0.6595
    1Sil     Ob 1072   5.293   1.459  11.350  1.0673  0.3931  0.1300
    1Sil     Ob 1073   5.317   1.651  11.166 -0.0281  0.2946 -0.0824
    1Sil     Ob 1074   2.252   1.532  10.703  0.4795  0.4563 -0.3608
    1Sil     Ob 1075   5.138   2.134  10.711 -0.0306 -0.5090 -0.4164
    1Sil     Ob 1076   5.675   2.124  11.121  1.0081 -0.4909 -0.4948
    1Sil     Ob 1077   5.504   2.025  10.345 -0.0434  0.7156  0.3239
    1Sil     Ob 1078   5.498   1.954  11.190 -0.3305  0.8084 -0.3423
    1Sil     Ob 1079   5.260   1.957  10.389 -0.5055 -0.4599 -0.2526
    1Sil     Ob 1080   2.469   1.948  10.801  0.5224  0.4987  0.1015
    1Sil     Ob 1081   5.298   1.723  10.922  0.1609 -0.3245  0.3598
    1Sil     Ob 1082   2.259   1.710  10.510 -0.0882  0.0806 -0.6420
    1Sil     Ob 1083   5.267   1.895  11.114  0.6416 -0.0140 -0.8430
    1Sil     Ob 1084   5.024   1.885  10.311  0.6775  0.1482  0.1121
    1Sil     Ob 1085   2.288   1.772  10.766 -0.5311 -0.0357 -0.2095
    1Sil     Ob 1086   5.217   1.888  10.747 -0.9089  0.2746 -0.3214
    1Sil     Ob 1087   5.749   1.887  11.161 -0.4952  0.6838 -0.0178
    1Sil     Ob 1088   5.429   1.783  10.299  0.0890  0.1039 -0.5697
    1Sil     Ob 1089   2.363   1.712  10.266  0.0309  0.1364 -0.1849
    1Sil     Ob 1090   5.091   1.715  11.074  0.3165 -0.5843  0.0779
    1Sil     Ob 1091   2.054   1.704  10.676  0.6846 -0.1114  0.0017
    1Sil     Ob 1092   5.066   1.944  10.557 -0.6312 -0.0968 -0.7336
    1Sil     Ob 1093   5.591   1.945  10.958  0.6144 -0.0928  0.6057
    1Sil     Ob 1094   5.264   1.638  12.363 -0.1435 -0.0717 -0.0658
    1Sil     Ob 1095   2.200   1.528  11.879  0.0429 -0.5065  0.3431
    1Sil     Ob 1096   5.088   2.121  11.923 -0.0454 -0.0562 -0.0383
    1Sil     Ob 1097   5.632   2.133  12.295  0.6557 -0.4758 -0.1259
    1Sil     Ob 1098   5.439   2.017  11.549 -1.0798  0.6125  0.8319
    1Sil     Ob 1099   5.466   1.960  12.386  0.0810  0.3020 -0.0956
    1Sil     Ob 1100   5.197   1.939  11.587 -0.2150 -0.8549  0.3631
    1Sil     Ob 1101   2.429   1.942  11.984 -0.7219  0.1751 -0.2063
    1Sil     Ob 1102   5.250   1.701  12.111  0.6255 -0.2262  0.0817
    1Sil     Ob 1103   2.508   1.700  11.314  0.1342  0.2342  0.5224
    1Sil     Ob 1104   2.207   1.711  11.694 -0.1523  0.0840 -0.5633
    1Sil     Ob 1105   5.234   1.882  12.293  0.1463  1.1880 -0.6117
    1Sil     Ob 1106   4.952   1.881  11.517  0.6971  0.4148 -0.6511
    1Sil     Ob 1107   2.240   1.767  11.953  0.0463  0.2191  0.0658
    1Sil     Ob 1108   5.163   1.873  11.943  0.5367 -0.6536 -0.1941
    1Sil     Ob 1109   5.697   1.883  12.348  0.5287 -0.0533 -0.1930
    1Sil     Ob 1110   5.375   1.770  11.503  0.1672  0.0505  0.7802
    1Sil     Ob 1111   2.295   1.707  11.457  0.2996  0.2761 -0.0912
    1Sil     Ob 1112   5.041   1.713  12.262  0.1187 -0.0101  0.9745
    1Sil     Ob 1113   2.006   1.699  11.858 -0.1409  0.2646  0.2176
    1Sil     Ob 1114   5.004   1.951  11.753  0.1265  0.0998 -0.0747
    1Sil     Ob 1115   5.553   1.944  12.140  0.3413  0.3631  0.2764
    1Sil     Ob 1116   5.290   1.966  11.353  0.5631  0.5136  0.1081
    1Sil     Ob 1117   5.322   2.137  11.160 -0.1168 -0.2163  0.0432
    1Sil     Ob 1118   2.233   2.022  10.713 -0.0018 -0.2712 -0.4289
    1Sil     Ob 1119   5.145   2.624  10.720 -0.6651 -0.0426  0.8250
    1Sil     Ob 1120   5.680   2.619  11.121 -0.3233  0.4882  0.0890
    1Sil     Ob 1121   5.499   2.518  10.353 -0.2949  0.3612  0.3131
    1Sil     Ob 1122   5.503   2.443  11.179 -0.2042 -0.4340  0.8111
    1Sil     Ob 1123   5.266   2.429  10.403  0.2399  0.4285  0.1537
    1Sil     Ob 1124   2.484   2.431  10.788  0.2772 -0.1659  0.2170
    1Sil     Ob 1125   5.293   2.201  10.914  0.2940  0.3206 -1.0497
    1Sil     Ob 1126   2.252   2.193  10.511 -0.4725 -0.1012 -0.2017
    1Sil     Ob 1127   5.271   2.375  11.096  0.1396  0.2796 -0.4988
    1Sil     Ob 1128   5.029   2.367  10.311 -0.5965  0.6293  0.2950
    1Sil     Ob 1129   2.303   2.272  10.751 -0.8322  0.0738  0.1242
    1Sil     Ob 1130   5.214   2.379  10.756 -0.2038 -0.3016 -0.0870
    1Sil     Ob 1131   5.756   2.374  11.138 -0.0386 -0.4777 -0.4794
    1Sil     Ob 1132   5.443   2.271  10.300 -0.0252 -0.3941 -0.5712
    1Sil     Ob 1133   2.362   2.188  10.267  0.6428 -0.6718  0.1620
    1Sil     Ob 1134   5.094   2.205  11.071 -0.2660  1.0705 -0.9940
    1Sil     Ob 1135   2.056   2.211  10.672  0.2288 -0.0367  0.0214
    1Sil     Ob 1136   5.066   2.441  10.556 -0.2985  0.0815  0.0715
    1Sil     Ob 1137   5.602   2.441  10.946 -0.1898  0.0491  0.3360
    1Sil     Ob 1138   5.272   2.123  12.359  0.1568 -0.4171  0.1552
    1Sil     Ob 1139   2.200   2.012  11.891  0.2635 -0.3704  0.2386
    1Sil     Ob 1140   5.105   2.606  11.939  0.0772 -0.3069  0.1581
    1Sil     Ob 1141   5.634   2.621  12.295 -0.2193 -0.1602  0.5799
    1Sil     Ob 1142   5.461   2.512  11.527  0.5436  0.5104 -0.4632
    1Sil     Ob 1143   5.465   2.444  12.381  0.5087  0.2516 -0.2023
    1Sil     Ob 1144   5.215   2.442  11.586 -0.0481  0.0777  0.2057
    1Sil     Ob 1145   2.428   2.435  11.986 -0.5767  0.5906  0.2467
    1Sil     Ob 1146   5.250   2.193  12.106 -0.0656 -0.2190 -0.5087
    1Sil     Ob 1147   2.506   2.209  11.305  0.3891  0.2043 -0.0113
    1Sil     Ob 1148   2.204   2.197  11.711 -0.4050  0.4153 -0.4556
    1Sil     Ob 1149   5.233   2.366  12.295 -0.3026 -0.2936  1.2630
    1Sil     Ob 1150   4.976   2.369  11.500  0.3232 -0.8119 -0.5636
    1Sil     Ob 1151   2.235   2.261  11.954  0.3635  0.5844 -0.2589
    1Sil     Ob 1152   5.170   2.368  11.944 -0.2504 -0.8972 -0.6033
    1Sil     Ob 1153   5.704   2.376  12.326  0.4547  1.0763 -0.7315
    1Sil     Ob 1154   5.388   2.266  11.520  0.4817  0.3463  0.4635
    1Sil     Ob 1155   2.298   2.187  11.470 -0.1487 -0.0239 -0.4875
    1Sil     Ob 1156   5.044   2.199  12.266 -0.8224  0.1149 -0.1775
    1Sil     Ob 1157   2.009   2.181  11.865 -0.5967  0.3784 -0.1662
    1Sil     Ob 1158   5.008   2.455  11.755 -0.9548 -0.4715 -0.2325
    1Sil     Ob 1159   5.548   2.434  12.139 -0.0823 -0.3743  0.3351
    1Sil     Ob 1160   5.303   2.429  11.342 -0.4134 -0.0357  0.1526
    1Sil     Ob 1161   5.304   2.614  11.170 -0.3712  0.0003  0.3449
    1Sil     Ob 1162   2.257   2.509  10.711  0.5269 -0.1427 -0.3129
    1Sil     Ob 1163   5.145   3.110  10.718  0.4367 -0.2294  0.5568
    1Sil     Ob 1164   5.688   3.120  11.117  0.0438  0.3428 -0.2637
    1Sil     Ob 1165   5.510   3.005  10.356 -0.1871  0.2912  0.4823
    1Sil     Ob 1166   5.516   2.939  11.188  0.0262  0.0474  0.5191
    1Sil     Ob 1167   5.260   2.938  10.406  0.4032 -0.0879 -0.3274
    1Sil     Ob 1168   2.475   2.943  10.790  0.5190 -0.1253 -0.2400
    1Sil     Ob 1169   5.292   2.684  10.922  0.2036  0.0570 -0.8669
    1Sil     Ob 1170   2.263   2.688  10.530  0.2136 -0.1620 -0.7623
    1Sil     Ob 1171   5.283   2.875  11.108 -0.6102  0.0854 -0.2670
    1Sil     Ob 1172   5.047   2.862  10.301  0.2201 -0.5134  0.2520
    1Sil     Ob 1173   2.303   2.761  10.775  0.3408  0.3447 -0.2250
    1Sil     Ob 1174   5.211   2.864  10.757 -0.3081 -0.3337  0.3515
    1Sil     Ob 1175   5.752   2.868  11.148  0.4199  0.1798  0.7026
    1Sil     Ob 1176   5.431   2.765  10.325  0.4490 -0.3157 -0.5745
    1Sil     Ob 1177   2.348   2.688  10.274  0.4588  0.4524 -0.1969
    1Sil     Ob 1178   5.087   2.704  11.072  0.6628 -0.2677  0.3064
    1Sil     Ob 1179   2.066   2.682  10.684 -0.6214 -0.1870  0.5746
    1Sil     Ob 1180   5.060   2.922  10.561 -0.2199 -0.0919  0.2550
    1Sil     Ob 1181   5.598   2.945  10.947  0.5803  0.0417 -0.1569
    1Sil     Ob 1182   5.285   2.610  12.373 -0.2799 -0.3581 -0.3420
    1Sil     Ob 1183   2.207   2.501  11.883 -0.4639 -0.7144  0.1731
    1Sil     Ob 1184   5.095   3.093  11.902 -0.1414  0.0300  0.3524
    1Sil     Ob 1185   5.638   3.111  12.300 -0.6580  0.1417  0.0272
    1Sil     Ob 1186   5.477   3.005  11.533 -0.2521 -0.0559  1.0581
    1Sil     Ob 1187   5.459   2.953  12.400 -0.4170 -0.3262  0.3716
    1Sil     Ob 1188   5.236   2.933  11.584  0.3659 -0.3344  0.4341
    1Sil     Ob 1189   2.417   2.932  11.997 -0.0809  0.3425 -0.3286
    1Sil     Ob 1190   5.260   2.694  12.119  0.0270 -0.3075 -0.1302
    1Sil     Ob 1191   2.513   2.686  11.321 -0.3238  0.6727 -0.4289
    1Sil     Ob 1192   2.215   2.689  11.701  0.0166  0.5320  0.0231
    1Sil     Ob 1193   5.241   2.864  12.312 -0.3414  0.6446  0.8755
    1Sil     Ob 1194   4.992   2.866  11.493  0.0251  0.4088  0.1091
    1Sil     Ob 1195   2.230   2.748  11.957 -0.2677  0.0717  0.8967
    1Sil     Ob 1196   5.178   2.850  11.929 -0.7573 -0.1750  0.0942
    1Sil     Ob 1197   5.703   2.866  12.356  0.1772  0.3882  0.2086
    1Sil     Ob 1198   5.395   2.760  11.502  0.0164  0.3791  0.0325
    1Sil     Ob 1199   2.309   2.691  11.467 -0.1328 -1.3128  0.3500
    1Sil     Ob 1200   5.056   2.696  12.280 -0.1638  0.3097  0.1050
    1Sil     Ob 1201   2.013   2.663  11.866  0.6223 -0.4910 -0.1901
    1Sil     Ob 1202   5.024   2.926  11.740  0.2283  0.4139 -0.1042
    1Sil     Ob 1203   5.534   2.920  12.153 -0.5305 -0.4144  0.1011
    1Sil     Ob 1204   5.316   2.952  11.344  0.1803  0.2438  0.3636
    1Sil     Ob 1205   5.333   3.126  11.163  0.1587  0.2806 -0.0389
    1Sil     Ob 1206   2.240   3.006  10.698  0.2488 -0.2542 -0.0258
    1Sil     Ob 1207   2.184  -0.016  11.192  0.7487  0.5830  0.3077
    1Sil     Ob 1208   1.940  -0.021  10.397 -0.2000  0.2630  0.0524
    1Sil     Ob 1209   2.476  -0.017  10.796  0.8530  0.0010  0.0124
    1Sil     Ob 1210   5.306   3.190  10.915  0.2626  0.4033 -0.4234
    1Sil     Ob 1211   2.261   3.187  10.520  0.0150  0.2497 -0.3375
    1Sil     Ob 1212   5.287   3.364  11.097  0.1323  0.7262 -0.1728
    1Sil     Ob 1213   5.028   3.363  10.314  0.3529 -0.6493 -0.2048
    1Sil     Ob 1214   2.288   3.250  10.761 -0.2567 -0.0169 -0.2213
    1Sil     Ob 1215   5.220  -0.089  10.742 -0.6638 -0.3391  0.4559
    1Sil     Ob 1216   2.425  -0.083  11.147 -0.1835  0.0037  0.0644
    1Sil     Ob 1217   2.112  -0.190  10.317  0.1223 -0.2281  0.5050
    1Sil     Ob 1218   2.355   3.185  10.279 -0.6870  0.1839  0.2874
    1Sil     Ob 1219   5.103   3.195  11.068 -0.5915  0.4164  0.3415
    1Sil     Ob 1220   2.056   3.194  10.667 -0.1273  0.2942 -0.0510
    1Sil     Ob 1221   5.062  -0.011  10.557 -0.1457  0.5012  0.3667
    1Sil     Ob 1222   2.273  -0.021  10.957 -0.0384 -0.1858 -0.0430
    1Sil     Ob 1223   5.268   3.111  12.362  0.3720 -0.4842  0.4757
    1Sil     Ob 1224   2.176   2.992  11.907 -0.3570  0.3529  0.7343
    1Sil     Ob 1225   2.133  -0.021  12.375 -0.8947  0.2741  0.3270
    1Sil     Ob 1226   1.884  -0.023  11.581  0.3719  0.1813  0.0516
    1Sil     Ob 1227   2.425  -0.022  11.989 -0.6120 -0.0175  0.1776
    1Sil     Ob 1228   5.257   3.173  12.099  0.4092 -0.8483 -0.6204
    1Sil     Ob 1229   2.501   3.186  11.310 -0.2744  0.3201  0.6837
    1Sil     Ob 1230   2.211   3.161  11.712 -0.6983 -0.2104  0.2531
    1Sil     Ob 1231   5.244   3.346  12.276 -0.3476 -0.1456  0.4751
    1Sil     Ob 1232   4.985   3.349  11.493 -0.7055  0.3179 -0.1970
    1Sil     Ob 1233   2.236   3.249  11.957  0.4864  0.7398  0.1009
    1Sil     Ob 1234   5.151  -0.110  11.941 -0.2846  0.1681 -0.4358
    1Sil     Ob 1235   2.375  -0.098  12.324 -0.1055 -0.2474  0.3807
    1Sil     Ob 1236   2.057  -0.202  11.528 -0.3157 -0.0033 -0.4439
    1Sil     Ob 1237   2.304   3.212  11.475 -0.2512 -0.2632  0.2602
    1Sil     Ob 1238   5.040   3.181  12.257 -0.3482 -0.1619  0.2071
    1Sil     Ob 1239   2.006   3.179  11.864  0.1197 -0.1812  0.0403
    1Sil     Ob 1240   4.999  -0.046  11.742  0.0496 -0.7081 -0.9310
    1Sil     Ob 1241   2.210  -0.024  12.135 -0.3304  0.5432  0.1800
    1Sil     Ob 1242   5.307  -0.031  11.347  0.7893 -0.3491  0.4263
    1Sil     Ob 1243   2.580   0.167  10.360  0.0033 -0.6317  0.3707
    1Sil     Ob 1244   2.523   0.154  11.573  0.5751  0.1635 -0.4600
    1Sil     Ob 1245   2.582   0.645  10.373  0.4170 -0.5743 -0.0640
    1Sil     Ob 1246   2.525   0.653  11.559 -0.3618  0.4952 -0.3625
    1Sil     Ob 1247   2.594   1.131  10.357 -0.1604  0.5256 -0.5687
    1Sil     Ob 1248   2.527   1.140  11.555 -1.0488 -0.2755  0.4165
    1Sil     Ob 1249   2.585   1.630  10.374 -0.0283  0.1121 -0.6060
    1Sil     Ob 1250   2.519   1.636  11.568 -0.2263 -0.4900 -0.5786
    1Sil     Ob 1251   2.587   2.123  10.366  0.1193  0.1833 -0.4904
    1Sil     Ob 1252   2.539   2.128  11.547 -0.5337 -0.3162  0.0639
    1Sil     Ob 1253   2.579   2.618  10.362  0.0904 -0.3478  0.1739
    1Sil     Ob 1254   2.540   2.617  11.569 -0.2727  0.6107 -0.5434
    1Sil     Ob 1255   2.580   3.109  10.361  0.2432 -0.4560 -0.2311
    1Sil     Ob 1256   2.528   3.123  11.570  0.3315 -0.1572  0.4258
    1Sil     Ob 1257   3.069   0.035  10.701  0.8494 -0.1832  0.1678
    1Sil     Ob 1258   3.034   0.043  11.886  0.0036  0.0396 -0.0950
    1Sil     Ob 1259   3.918   0.048  10.700  0.2078 -0.3712  0.0514
    1Sil     Ob 1260   3.864   0.054  11.890  0.1723  0.3354 -0.1210
    1Sil     Ob 1261   4.737   0.045  10.707  0.6746  0.5565  0.1038
    1Sil     Ob 1262   4.659   0.038  11.910 -0.3011 -0.0243 -0.1202
    1Sil     Ob 1263   2.253   0.047  10.701 -0.3328  0.2779 -0.4578
    1Sil     Ob 1264   2.198   0.042  11.882 -0.2313 -0.0342  0.0340
    1Sil     Ob 1265   2.641   0.154  10.726 -0.0628  0.2144 -0.0607
    1Sil     Ob 1266   3.183   0.157  11.104  0.1348  0.1625  0.8681
    1Sil     Ob 1267   3.011   0.043  10.349  0.4934 -0.1511 -0.0097
    1Sil     Ob 1268   2.595   0.157  11.912 -0.1507 -0.5665 -0.2780
    1Sil     Ob 1269   3.133   0.150  12.310  0.2359 -0.0741 -0.0541
    1Sil     Ob 1270   2.956   0.061  11.533  0.6859 -0.6117 -0.1037
    1Sil     Ob 1271   3.475   0.157  10.731 -0.0646 -0.4150  0.4331
    1Sil     Ob 1272   4.022   0.157  11.100  0.2424  0.3209  0.1054
    1Sil     Ob 1273   3.841   0.046  10.367 -0.1600 -0.2334 -0.0047
    1Sil     Ob 1274   3.429   0.151  11.906  0.6909 -0.2519  0.4623
    1Sil     Ob 1275   3.958   0.156  12.317  0.4713  0.1749  0.1319
    1Sil     Ob 1276   3.802   0.046  11.538 -0.0527 -0.1607  0.4855
    1Sil     Ob 1277   4.311   0.161  10.724 -0.3758  0.1610 -0.2870
    1Sil     Ob 1278   4.861   0.156  11.108 -0.3157 -0.6211 -0.2529
    1Sil     Ob 1279   4.680   0.050  10.335  0.1827  0.0516  0.1893
    1Sil     Ob 1280   4.249   0.143  11.927 -0.0756  0.4688 -0.8849
    1Sil     Ob 1281   4.809   0.149  12.273  0.1096 -0.5421  0.8017
    1Sil     Ob 1282   4.626   0.051  11.548  0.5923 -0.4953 -0.1132
    1Sil     Ob 1283   5.141   0.165  10.738  0.0792  0.0319  0.4241
    1Sil     Ob 1284   2.346   0.156  11.113 -0.2828 -0.3838 -0.9664
    1Sil     Ob 1285   2.180   0.054  10.358  0.4084  0.4733  0.0907
    1Sil     Ob 1286   5.085   0.138  11.909 -0.3900  0.2621 -0.6822
    1Sil     Ob 1287   2.308   0.146  12.300  0.5488 -0.0467 -0.8341
    1Sil     Ob 1288   2.121   0.045  11.544  0.2047  0.4763  0.3830
    1Sil     Oy 1289   3.403   0.229  10.121 -0.2393  0.2525 -0.0502
    1Sil     Cm 1290   2.863   0.461  10.147 -0.1525  0.3215 -0.7188
    1Sil     Cm 1291   2.754   0.472  12.541 -0.0158  0.0386  0.0586
    1Sil     Oy 1292   3.286   0.209  12.513  0.2954 -0.0488 -0.2892
    1Sil     Cm 1293   3.391   0.722  10.109  0.2960 -0.0247 -0.3343
    1Sil     Oy 1294   2.840   0.935  10.160  0.0265  0.3799  0.1369
    1Sil     Oy 1295   2.745   0.979  12.532 -0.0591  0.2883 -0.4162
    1Sil     Oy 1296   3.279   0.699  12.507  0.1706 -0.4720  0.3226
    1Sil     Oy 1297   3.389   1.218  10.116  0.8437 -0.4312  0.7133
    1Sil     Cm 1298   2.842   1.474  10.144 -0.4070  0.1207 -0.4104
    1Sil     Oy 1299   2.783   1.452  12.529 -0.0284  0.0619 -0.6348
    1Sil     Cm 1300   3.263   1.236  12.525 -0.4823  0.4899  0.9311
    1Sil     Cm 1301   3.368   1.702  10.122  0.1970 -0.1449  0.2990
    1Sil     Oy 1302   2.846   1.936  10.150  0.5825 -0.0941  0.1175
    1Sil     Oy 1303   2.761   1.936  12.540  0.0106  0.1756 -0.0449
    1Sil     Oy 1304   3.289   1.716  12.502  0.2616 -0.3836  0.3317
    1Sil     Cm 1305   3.410   2.198  10.090 -0.5105  0.2122  0.4923
    1Sil     Cm 1306   2.865   2.462  10.132  0.2902  0.5017 -0.0479
    1Sil     Cm 1307   2.768   2.440  12.544  0.2731  0.1257 -1.1642
    1Sil     Cm 1308   3.290   2.190  12.508 -0.2359  0.3473 -0.2455
    1Sil     Cm 1309   3.424   2.692  10.112  0.1236  0.0447 -0.4472
    1Sil     Cm 1310   2.871   2.940  10.144  0.0543 -0.6406 -1.1109
    1Sil     Cm 1311   2.760   2.948  12.565  0.1415  0.4896  0.0231
    1Sil     Oy 1312   3.280   2.687  12.507 -0.5802 -0.0988 -0.4615
    1Sil     Cm 1313   3.377   3.201  10.105 -0.1534 -0.9759  0.0801
    1Sil     Cm 1314   2.846  -0.028  10.135  0.6099  0.1647  0.0764
    1Sil     Cm 1315   2.779  -0.019  12.553 -0.0374  0.1166 -0.3383
    1Sil     Cm 1316   3.292   3.166  12.504 -0.5058 -0.2057 -0.1807
    1Sil     Cm 1317   4.210   0.231  10.115  0.8026 -0.2613  0.5791
    1Sil     Cm 1318   3.689   0.465  10.137  0.3846  0.5596  0.6657
    1Sil     Oy 1319   3.571   0.469  12.541 -0.3476 -0.0297  0.6664
    1Sil     Cm 1320   4.100   0.242  12.536  0.2178 -0.2427  0.1613
    1Sil     Cm 1321   4.214   0.767  10.087 -0.4980 -0.3768 -0.1411
    1Sil     Cm 1322   3.677   0.993  10.143  0.0969  0.7619  0.0291
    1Sil     Oy 1323   3.603   0.948  12.539 -0.9636  0.4029 -0.5268
    1Sil     Oy 1324   4.097   0.704  12.511 -0.3090  0.9606  0.4835
    1Sil     Oy 1325   4.211   1.242  10.116  0.6655  0.3643  0.6327
    1Sil     Cm 1326   3.679   1.454  10.125  0.0144  0.1844  0.4102
    1Sil     Oy 1327   3.588   1.458  12.554 -0.1488 -0.3044 -0.2097
    1Sil     Oy 1328   4.125   1.247  12.512 -0.2630  0.3714  0.5163
    1Sil     Oy 1329   4.210   1.709  10.113  0.1495  0.3925  0.0539
    1Sil     Cm 1330   3.706   1.938  10.148  0.5741 -0.0006  0.0699
    1Sil     Cm 1331   3.582   1.942  12.572 -0.2564 -0.1905 -0.1547
    1Sil     Cm 1332   4.122   1.680  12.527  0.4596 -0.4571  0.3843
    1Sil     Oy 1333   4.215   2.222  10.116  0.6031 -0.1834 -0.1559
    1Sil     Oy 1334   3.688   2.463  10.159 -0.4830 -0.5880  0.3594
    1Sil     Cm 1335   3.589   2.431  12.558 -0.3484  0.3148 -0.0565
    1Sil     Cm 1336   4.095   2.205  12.543 -0.3578  0.4986  0.4717
    1Sil     Cm 1337   4.216   2.694  10.121  0.1155 -0.3113  0.3143
    1Sil     Oy 1338   3.689   2.928  10.145  0.9721  0.0572 -0.1024
    1Sil     Cm 1339   3.591   2.934  12.543  0.1309  0.2624 -0.2883
    1Sil     Cm 1340   4.108   2.678  12.516  0.1557 -0.4285 -0.1766
    1Sil     Cm 1341   4.238   3.210  10.108  0.1329 -0.2759  0.0628
    1Sil     Oy 1342   3.692  -0.024  10.161 -0.3943 -0.2356  0.2331
    1Sil     Cm 1343   3.598  -0.007  12.555 -0.2741 -0.4618  0.1976
    1Sil     Cm 1344   4.108   3.178  12.528 -0.1910 -0.1803  0.1776
    1Sil     Oy 1345   5.086   0.250  10.124 -0.0458  0.0111 -0.0922
    1Sil     Oy 1346   4.518   0.479  10.155 -0.0980  0.0402 -0.3383
    1Sil     Oy 1347   4.437   0.468  12.539 -0.1653 -0.3612  0.1750
    1Sil     Cm 1348   4.937   0.227  12.517 -0.3546  0.3647 -0.5146
    1Sil     Cm 1349   5.035   0.765  10.090  0.7216  0.0627  0.4604
    1Sil     Cm 1350   4.517   0.970  10.141  0.0513  0.5232  0.8921
    1Sil     Cm 1351   4.395   0.938  12.551  0.2271  0.1737 -0.1985
    1Sil     Cm 1352   4.949   0.730  12.531 -0.6108 -0.3348  0.9543
    1Sil     Cm 1353   5.051   1.231  10.102  0.1172  0.1620 -0.0249
    1Sil     Cm 1354   4.516   1.456  10.132  0.4287  0.1888  0.4578
    1Sil     Oy 1355   4.405   1.445  12.546 -0.1714  0.0954 -0.1831
    1Sil     Cm 1356   4.916   1.212  12.535  0.3918  0.6556 -0.1701
    1Sil     Cm 1357   5.061   1.705  10.106  0.0725  0.2263 -0.1189
    1Sil     Cm 1358   4.493   1.957  10.127  0.1779  0.1030 -0.1541
    1Sil     Cm 1359   4.416   1.943  12.569 -0.1631 -0.4109 -1.0145
    1Sil     Oy 1360   4.923   1.671  12.505 -0.2530 -0.4826  0.5352
    1Sil     Oy 1361   5.041   2.191  10.120  0.2743  0.1154 -0.2544
    1Sil     Oy 1362   4.511   2.427  10.157 -0.6091 -0.1793 -0.0067
    1Sil     Cm 1363   4.435   2.431  12.587 -0.4475  0.7699  0.6905
    1Sil     Oy 1364   4.948   2.195  12.513  0.1427 -0.1815 -0.7725
    1Sil     Oy 1365   5.062   2.660  10.122  0.0801 -0.4818  0.0609
    1Sil     Cm 1366   4.533   2.950  10.163  0.5082 -0.3252 -0.3334
    1Sil     Cm 1367   4.428   2.921  12.568 -0.0584 -0.8966  0.2093
    1Sil     Cm 1368   4.959   2.683  12.527  0.1686  0.1465 -0.3536
    1Sil     Cm 1369   5.056   3.188  10.118  0.3682 -0.5194  0.1480
    1Sil     Cm 1370   4.513  -0.022  10.148  0.7058 -0.0412 -0.2052
    1Sil     Cm 1371   4.439  -0.041  12.570 -0.1464  0.4720 -0.4037
    1Sil     Oy 1372   4.951   3.182  12.494  0.2886  0.6222 -0.3814
    1Sil     Cm 1373   2.556   0.227  10.118 -0.4047  0.2944  0.0263
    1Sil     Cm 1374   5.357   0.453  10.142  0.7356  0.0886  1.0689
    1Sil     Cm 1375   5.270   0.455  12.555 -0.3293 -0.2263  0.3753
    1Sil     Cm 1376   2.439   0.221  12.536 -0.1066  0.1887 -0.0770
    1Sil     Cm 1377   2.573   0.696  10.117 -0.5519 -0.1114 -0.8195
    1Sil     Oy 1378   5.359   0.970  10.147  0.0511 -0.2159  0.5519
    1Sil     Oy 1379   5.246   0.951  12.552  0.1787 -0.5403  0.3300
    1Sil     Oy 1380   2.438   0.695  12.504 -0.3475 -0.1135  0.2416
    1Sil     Cm 1381   2.529   1.189  10.107 -0.7113 -0.1930 -0.3018
    1Sil     Cm 1382   5.356   1.457  10.144  0.6912 -0.2712  0.3308
    1Sil     Cm 1383   5.257   1.442  12.549  0.4577  0.8326  0.0077
    1Sil     Cm 1384   2.435   1.250  12.528 -0.0702  1.2272 -0.4206
    1Sil     Oy 1385   2.572   1.695  10.133  0.6294  0.3724  0.5975
    1Sil     Cm 1386   5.356   1.970  10.128 -0.2874 -0.9013  0.2361
    1Sil     Oy 1387   5.274   1.934  12.544 -0.2231  0.2646  0.8146
    1Sil     Cm 1388   2.459   1.697  12.521 -0.5424  0.3557 -0.0705
    1Sil     Cm 1389   2.581   2.159  10.094  0.1818 -0.3868 -0.3870
    1Sil     Cm 1390   5.346   2.462  10.152  0.4369  0.2253  0.3124
    1Sil     Cm 1391   5.270   2.409  12.545 -0.3545  0.0056  0.5418
    1Sil     Oy 1392   2.432   2.206  12.505 -0.7367  0.1408  0.3374
    1Sil     Cm 1393   2.560   2.688  10.106 -0.4254  0.2525 -0.0671
    1Sil     Cm 1394   5.345   2.943  10.144 -0.8113  0.0281 -0.4195
    1Sil     Cm 1395   5.249   2.932  12.577 -0.0215 -0.5038  0.2629
    1Sil     Oy 1396   2.452   2.684  12.510 -0.4759 -0.0676 -0.0736
    1Sil     Cm 1397   2.553   3.169  10.104  0.1153 -0.5142  0.6950
    1Sil     Cm 1398   2.036  -0.008  10.147 -0.7727  0.2186  0.6118
    1Sil     Cm 1399   5.251  -0.039  12.538 -0.0948  0.1170  0.3137
    1Sil     Cm 1400   2.457   3.189  12.529  0.8802 -0.1838 -0.4686
    1Sil    Sib 1401   3.343   0.255  10.272 -0.1965  0.4030  0.2854
    1Sil    Sib 1402   2.752   0.259  11.059 -0.0032 -0.1081  0.3471
    1Sil    Sib 1403   3.041   0.192  10.665  0.0373  0.0544 -0.1497
    1Sil    Sib 1404   2.606   0.499  10.707  0.2676  0.3493  0.1265
    1Sil    Sib 1405   3.135   0.501  11.101  0.2457  0.4471 -0.0931
    1Sil    Sim 1406   2.902   0.443  10.299  0.4181 -0.0813  0.0397
    1Sil    Sib 1407   2.855   0.516  11.204  0.5159  0.3950  0.0539
    1Sil    Sib 1408   2.620   0.493  10.409 -0.0105 -0.0937 -0.3813
    1Sil    Sib 1409   3.155   0.440  10.798  0.0932  0.0592  0.2761
    1Sil    Sib 1410   2.768   0.250  10.769 -0.3354  0.5958  0.0057
    1Sil    Sib 1411   3.292   0.252  11.160  0.0059  0.2263  0.1811
    1Sil    Sib 1412   3.063   0.191  10.365 -0.0482 -0.1226 -0.2507
    1Sil    Sib 1413   3.284   0.247  11.458  0.1899 -0.5424 -0.0685
    1Sil    Sib 1414   2.703   0.250  12.256 -0.1167  0.5912 -0.1720
    1Sil    Sib 1415   2.993   0.192  11.852 -0.2614 -0.0747 -0.0178
    1Sil    Sib 1416   2.545   0.501  11.894  0.5144 -0.4439  0.1366
    1Sil    Sib 1417   3.089   0.494  12.294 -0.1890 -0.0857 -0.3487
    1Sil    Sib 1418   2.841   0.452  11.497 -0.1526 -0.5569 -0.4492
    1Sil    Sim 1419   2.807   0.501  12.390  0.0399  0.0619 -0.0258
    1Sil    Sib 1420   2.558   0.501  11.596 -0.3357  0.0639  0.0266
    1Sil    Sib 1421   3.091   0.441  12.000 -0.0937 -0.2844  0.3700
    1Sil    Sib 1422   2.715   0.251  11.956 -0.0306 -0.1695 -0.3149
    1Sil    Sib 1423   3.245   0.247  12.355  0.0542  0.1287  0.2647
    1Sil    Sib 1424   3.003   0.208  11.553  0.1090  0.0050 -0.2070
    1Sil    Sim 1425   3.341   0.750  10.265 -0.3300  0.2455  0.0264
    1Sil    Sib 1426   2.755   0.750  11.052 -0.1689  0.0207  0.3387
    1Sil    Sib 1427   3.045   0.684  10.662  0.2250 -0.3541  0.0035
    1Sil    Sib 1428   2.603   0.994  10.705 -0.3389  0.2717 -0.3313
    1Sil    Sib 1429   3.121   0.992  11.092 -0.0824 -0.0257 -0.0838
    1Sil    Sib 1430   2.897   0.924  10.304 -0.0846 -0.0738 -0.4376
    1Sil    Sib 1431   2.842   1.001  11.198 -0.0554  0.4762 -0.2104
    1Sil    Sib 1432   2.624   0.982  10.402 -0.0484 -0.0581 -0.3472
    1Sil    Sib 1433   3.150   0.936  10.803  0.1609  0.0599 -0.2600
    1Sil    Sib 1434   2.771   0.749  10.762 -0.3000 -0.5600  0.2290
    1Sil    Sib 1435   3.289   0.744  11.162 -0.1482 -0.4555 -0.1718
    1Sil    Sib 1436   3.066   0.688  10.365 -0.2334  0.3353  0.3755
    1Sil    Sib 1437   3.274   0.749  11.464  0.1008 -0.0304  0.1004
    1Sil    Sib 1438   2.707   0.747  12.257  0.5213 -0.2935  0.2587
    1Sil    Sib 1439   2.980   0.693  11.851 -0.3857  0.7046 -0.1040
    1Sil    Sib 1440   2.543   0.994  11.895  0.3559  0.2286 -0.2280
    1Sil    Sib 1441   3.087   0.990  12.292 -0.1373 -0.0761 -0.2244
    1Sil    Sib 1442   2.837   0.947  11.489  0.2325 -0.2585  0.2985
    1Sil    Sib 1443   2.800   0.990  12.383 -0.3004 -0.3641 -0.3800
    1Sil    Sib 1444   2.561   0.996  11.593  0.2823  0.3531  0.5908
    1Sil    Sib 1445   3.082   0.940  11.998 -0.2449  0.1471  0.8024
    1Sil    Sib 1446   2.707   0.749  11.957  0.1468 -0.1876  0.0055
    1Sil    Sib 1447   3.243   0.733  12.358  0.1126  0.2996  0.1032
    1Sil    Sib 1448   2.995   0.698  11.564 -0.0735  0.4481  0.1297
    1Sil    Sib 1449   3.338   1.244  10.264 -0.0509  0.4826  0.0595
    1Sil    Sib 1450   2.744   1.246  11.060 -0.1313 -0.0570 -0.0140
    1Sil    Sib 1451   3.051   1.178  10.651 -0.0985 -0.1379  0.2066
    1Sil    Sib 1452   2.600   1.484  10.706 -0.1142  0.1732  0.1701
    1Sil    Sib 1453   3.142   1.483  11.089  0.1027 -0.4139  0.0532
    1Sil    Sim 1454   2.894   1.426  10.303  0.2840  0.1596 -0.0328
    1Sil    Sib 1455   2.864   1.485  11.197  0.1405 -0.1782  0.0793
    1Sil    Sib 1456   2.618   1.477  10.408 -0.3089 -0.1592 -0.2591
    1Sil    Sib 1457   3.150   1.433  10.796  0.5963 -0.2067  0.0493
    1Sil    Sib 1458   2.765   1.240  10.759  0.4481 -0.1522 -0.1746
    1Sil    Sib 1459   3.302   1.238  11.155  0.1899  0.1855 -0.1816
    1Sil    Sib 1460   3.062   1.173  10.351  0.2192  0.2629 -0.2210
    1Sil    Sib 1461   3.292   1.240  11.452  0.0322 -0.7705  0.4856
    1Sil    Sib 1462   2.697   1.236  12.251  0.1769  0.1104  0.0344
    1Sil    Sib 1463   2.990   1.183  11.859 -0.8885  0.0197  0.1241
    1Sil    Sib 1464   2.552   1.492  11.898 -0.1056  0.2539 -0.1857
    1Sil    Sib 1465   3.085   1.492  12.270  0.1190  0.2856 -0.4421
    1Sil    Sib 1466   2.854   1.434  11.501 -0.4999  0.2265 -0.2624
    1Sil    Sib 1467   2.816   1.479  12.382  0.2106 -0.1528  0.2510
    1Sil    Sib 1468   2.564   1.487  11.602 -0.0798  0.1009  0.4541
    1Sil    Sib 1469   3.106   1.438  11.972 -0.2502 -0.0278 -0.1401
    1Sil    Sib 1470   2.707   1.246  11.958  0.4641  0.3170 -0.3373
    1Sil    Sim 1471   3.249   1.248  12.342  0.4890 -0.1987 -0.0177
    1Sil    Sib 1472   3.008   1.189  11.557 -0.5034  0.3259 -0.1145
    1Sil    Sim 1473   3.332   1.722  10.267 -0.0056 -0.3184  0.4434
    1Sil    Sib 1474   2.754   1.728  11.061 -0.3398 -0.1181  0.0766
    1Sil    Sib 1475   3.040   1.684  10.665  0.0725  0.2490 -0.1158
    1Sil    Sib 1476   2.594   1.974  10.707  0.1256 -0.1068  0.0582
    1Sil    Sib 1477   3.142   1.975  11.094  0.0024  0.5477 -0.2130
    1Sil    Sib 1478   2.891   1.920  10.303 -0.0724  0.2199  0.0873
    1Sil    Sib 1479   2.858   1.982  11.198 -0.2357  0.0177 -0.2099
    1Sil    Sib 1480   2.621   1.974  10.413  0.1543 -0.5124  0.7606
    1Sil    Sib 1481   3.153   1.929  10.790  0.5145 -0.0291  0.0729
    1Sil    Sib 1482   2.759   1.726  10.771 -0.0643  0.3812  0.2126
    1Sil    Sib 1483   3.302   1.724  11.156 -0.1278 -0.2719  0.3243
    1Sil    Sib 1484   3.056   1.677  10.372 -0.2098  0.4374  0.1283
    1Sil    Sib 1485   3.300   1.734  11.449  0.0134  0.6246  0.2242
    1Sil    Sib 1486   2.706   1.732  12.249  0.3761  0.2585  0.1025
    1Sil    Sib 1487   3.006   1.683  11.832  0.6658  0.4515 -0.3275
    1Sil    Sib 1488   2.556   1.978  11.889  0.2181 -0.0491  0.4112
    1Sil    Sib 1489   3.083   1.970  12.280 -0.0335 -0.0892  0.3496
    1Sil    Sib 1490   2.841   1.926  11.488  0.2549  0.1023  0.0222
    1Sil    Sib 1491   2.809   1.975  12.396 -0.5133  0.5922 -0.0514
    1Sil    Sib 1492   2.563   1.978  11.593 -0.0610 -0.1495  0.2601
    1Sil    Sib 1493   3.112   1.924  11.978 -0.0367  0.2400  0.0281
    1Sil    Sib 1494   2.728   1.734  11.944  0.6969  0.0188  0.0479
    1Sil    Sib 1495   3.252   1.730  12.350 -0.1999  0.3664 -0.2530
    1Sil    Sib 1496   3.019   1.687  11.543  0.1220 -0.7119  0.1673
    1Sil    Sim 1497   3.343   2.223  10.265  0.0286 -0.5340 -0.0337
    1Sil    Sib 1498   2.752   2.222  11.050 -0.4007  0.3858 -0.3266
    1Sil    Sib 1499   3.051   2.180  10.650 -0.0830  0.3495 -0.3443
    1Sil    Sib 1500   2.607   2.467  10.698  0.1719  0.0523 -0.1843
    1Sil    Sib 1501   3.132   2.471  11.089  0.0728  0.4540  0.2309
    1Sil    Sim 1502   2.901   2.423  10.290  0.3241  0.3541  0.0418
    1Sil    Sib 1503   2.852   2.472  11.194  0.0173  0.1124  0.1015
    1Sil    Sib 1504   2.620   2.466  10.394  0.3065 -0.2978 -0.0817
    1Sil    Sib 1505   3.155   2.417  10.792 -0.5234 -0.3823 -0.2504
    1Sil    Sib 1506   2.772   2.220  10.751 -0.1053 -0.5526 -0.0438
    1Sil    Sib 1507   3.298   2.222  11.158 -0.0377  0.0891 -0.0445
    1Sil    Sib 1508   3.055   2.170  10.349  0.1672  0.0476 -0.0814
    1Sil    Sib 1509   3.287   2.221  11.454  0.0205 -0.1967 -0.0919
    1Sil    Sib 1510   2.710   2.220  12.255 -0.3581 -0.3745  0.6466
    1Sil    Sib 1511   2.999   2.172  11.851  0.3710 -0.2677  0.0628
    1Sil    Sib 1512   2.559   2.459  11.899 -0.3277  0.2190 -0.2125
    1Sil    Sib 1513   3.079   2.469  12.286 -0.2134 -0.2787 -0.2730
    1Sil    Sib 1514   2.846   2.410  11.487  0.4361 -0.6737  0.2052
    1Sil    Sim 1515   2.804   2.464  12.399 -0.7192  0.1026 -0.3871
    1Sil    Sib 1516   2.570   2.460  11.593 -0.3269  0.2157 -0.1320
    1Sil    Sib 1517   3.097   2.411  11.999  0.4611 -0.4803  0.6894
    1Sil    Sib 1518   2.720   2.209  11.961  0.0316  0.1245  0.1682
    1Sil    Sim 1519   3.245   2.215  12.342  0.2927 -0.0935  0.0216
    1Sil    Sib 1520   3.011   2.164  11.547 -0.1656  0.2784  0.8491
    1Sil    Sim 1521   3.363   2.720  10.264  0.2210 -0.0534 -0.2646
    1Sil    Sib 1522   2.753   2.721  11.059 -0.5611 -0.0476 -0.3140
    1Sil    Sib 1523   3.053   2.667  10.656  0.3278  0.3214 -0.1325
    1Sil    Sib 1524   2.606   2.962  10.709 -0.0777 -0.0196 -0.2858
    1Sil    Sib 1525   3.135   2.962  11.104 -0.1889 -0.4589  0.0543
    1Sil    Sim 1526   2.905   2.904  10.303  0.5374  0.0779 -0.0581
    1Sil    Sib 1527   2.855   2.964  11.192  0.4182  0.2540 -0.2643
    1Sil    Sib 1528   2.614   2.960  10.403  0.2154 -0.2170 -0.4822
    1Sil    Sib 1529   3.144   2.906  10.804 -0.0640  0.0930  0.0501
    1Sil    Sib 1530   2.764   2.716  10.764 -0.5158 -0.5428  0.3694
    1Sil    Sib 1531   3.292   2.715  11.160 -0.2082  0.2902 -0.0850
    1Sil    Sib 1532   3.075   2.661  10.353 -0.6831 -0.0863 -0.1108
    1Sil    Sib 1533   3.281   2.718  11.461 -0.0442  0.0147  0.1192
    1Sil    Sib 1534   2.702   2.718  12.262 -0.1538  0.2646 -0.1284
    1Sil    Sib 1535   2.986   2.660  11.852  0.2208 -0.0383 -0.0910
    1Sil    Sib 1536   2.541   2.957  11.897  0.6872  0.1875 -0.0770
    1Sil    Sib 1537   3.091   2.959  12.297 -0.1530 -0.2728  0.0843
    1Sil    Sib 1538   2.840   2.915  11.490 -0.2524 -0.0349 -0.0515
    1Sil    Sim 1539   2.816   2.969  12.408  0.1537 -0.0933 -0.5090
    1Sil    Sib 1540   2.564   2.973  11.600  0.1049 -0.2023 -0.1442
    1Sil    Sib 1541   3.096   2.900  11.998  0.2920 -0.6897 -0.4475
    1Sil    Sib 1542   2.708   2.712  11.954  0.2395  0.1299  0.3697
    1Sil    Sib 1543   3.251   2.709  12.350  0.1380 -0.0227 -0.3642
    1Sil    Sib 1544   3.000   2.660  11.557 -0.2970 -0.1488  0.1957
    1Sil    Sim 1545   3.341   3.217  10.273 -0.1891 -0.3585  0.5672
    1Sil    Sib 1546   2.762   3.214  11.062  0.0833 -0.7638  0.2354
    1Sil    Sib 1547   3.047   3.158  10.671  0.1571 -0.0270 -0.1821
    1Sil    Sib 1548   2.602  -0.001  10.706 -0.2123  0.2458  0.2881
    1Sil    Sib 1549   3.129   0.012  11.100  0.0112  0.1543 -0.0865
    1Sil    Sim 1550   2.892  -0.053  10.308 -0.4484  0.0949 -0.2190
    1Sil    Sib 1551   2.854   0.015  11.200  0.2916  0.3500 -0.3026
    1Sil    Sib 1552   2.610   0.011  10.402 -0.2667 -0.0640 -0.1665
    1Sil    Sib 1553   3.141  -0.052  10.807 -0.3215 -0.1851 -0.4443
    1Sil    Sib 1554   2.769   3.207  10.767 -0.3578 -0.1364  0.3812
    1Sil    Sib 1555   3.293   3.215  11.153  0.1275  0.1972  0.0435
    1Sil    Sib 1556   3.062   3.155  10.380 -0.1817  0.1066 -0.0180
    1Sil    Sib 1557   3.291   3.212  11.449  0.1505  0.0124  0.6717
    1Sil    Sib 1558   2.713   3.216  12.260 -0.0806 -0.1038  0.1902
    1Sil    Sib 1559   2.993   3.144  11.859 -0.0981  0.4883  0.2192
    1Sil    Sib 1560   2.551   0.006  11.892 -0.0526 -0.3971 -0.0764
    1Sil    Sib 1561   3.090  -0.002  12.281 -0.2069  0.5027  0.3681
    1Sil    Sib 1562   2.846  -0.041  11.501 -0.1607  0.8157 -0.3969
    1Sil    Sim 1563   2.819   0.011  12.397 -0.2640 -0.0275  0.0079
    1Sil    Sib 1564   2.560   0.009  11.602 -0.5784 -0.3311 -0.2825
    1Sil    Sib 1565   3.102  -0.059  11.988 -0.0957 -0.0916 -0.2142
    1Sil    Sib 1566   2.718   3.213  11.949  0.0724  0.4289  0.1044
    1Sil    Sim 1567   3.260   3.203  12.342  0.5578  0.1165 -0.1063
    1Sil    Sib 1568   3.010   3.156  11.561 -0.4376  0.0258  0.3770
    1Sil    Sim 1569   4.169   0.255  10.271  0.0318 -0.5280  0.1116
    1Sil    Sib 1570   3.576   0.260  11.068 -0.1450  0.0848  0.1299
    1Sil    Sib 1571   3.871   0.194  10.673 -0.1872 -0.3969  0.0996
    1Sil    Sib 1572   3.435   0.495  10.704 -0.1304 -0.1023  0.0538
    1Sil    Sib 1573   3.969   0.507  11.096 -0.1481 -0.0499 -0.0040
    1Sil    Sim 1574   3.731   0.441  10.304 -0.1272  0.5653  0.2084
    1Sil    Sib 1575   3.677   0.515  11.202  0.0369 -0.1847  0.3553
    1Sil    Sib 1576   3.452   0.506  10.403 -0.1888 -0.0517 -0.0828
    1Sil    Sib 1577   3.978   0.439  10.799 -0.2875 -0.4302  0.1750
    1Sil    Sib 1578   3.594   0.256  10.771  0.2346  0.2577  0.3343
    1Sil    Sib 1579   4.135   0.267  11.150 -0.0178 -0.2292  0.3334
    1Sil    Sib 1580   3.888   0.194  10.379 -0.6746  0.1308 -0.1836
    1Sil    Sib 1581   4.133   0.252  11.453 -0.2386 -0.2412 -0.1817
    1Sil    Sib 1582   3.530   0.252  12.255  0.3830  0.5779 -0.3641
    1Sil    Sib 1583   3.832   0.199  11.853  0.2728  0.1082 -0.3086
    1Sil    Sib 1584   3.374   0.493  11.891  0.0212 -0.2568  0.1007
    1Sil    Sib 1585   3.909   0.504  12.285 -0.0646 -0.1726  0.5390
    1Sil    Sib 1586   3.679   0.448  11.499 -0.4113 -0.0060  0.1236
    1Sil    Sib 1587   3.630   0.499  12.392  0.3826 -0.4246  0.0706
    1Sil    Sib 1588   3.389   0.497  11.595  0.1500  0.5311 -0.2507
    1Sil    Sib 1589   3.917   0.446  11.992  0.3243 -0.3535 -0.1241
    1Sil    Sib 1590   3.543   0.248  11.950 -0.0342 -0.4377  0.3953
    1Sil    Sim 1591   4.066   0.255  12.368  0.0159  0.5366 -0.0097
    1Sil    Sib 1592   3.851   0.197  11.555 -0.1686 -0.2100 -0.1659
    1Sil    Sim 1593   4.171   0.760  10.255  0.1641  0.0702 -0.0034
    1Sil    Sib 1594   3.578   0.751  11.064  0.4984 -0.0627  0.2025
    1Sil    Sib 1595   3.884   0.685  10.661 -0.1876  0.2599 -0.4192
    1Sil    Sib 1596   3.433   0.989  10.710  0.2985 -0.0670 -0.1209
    1Sil    Sib 1597   3.968   0.984  11.101 -0.2591  0.5619 -0.4403
    1Sil    Sim 1598   3.729   0.945  10.310 -0.2150 -0.1365  0.0252
    1Sil    Sib 1599   3.684   0.995  11.207 -0.0658  0.4242  0.1036
    1Sil    Sib 1600   3.450   1.000  10.409  0.1694 -0.1906 -0.6260
    1Sil    Sib 1601   3.985   0.925  10.804  0.2890 -0.3165  0.2916
    1Sil    Sib 1602   3.603   0.741  10.765  0.0848 -0.2468 -0.1570
    1Sil    Sib 1603   4.135   0.753  11.165  0.1748  0.0963  0.0378
    1Sil    Sib 1604   3.897   0.696  10.366 -0.1368 -0.2740  0.4835
    1Sil    Sib 1605   4.115   0.745  11.458  0.2677  0.0067  0.2785
    1Sil    Sib 1606   3.526   0.736  12.240 -0.1870 -0.0971 -0.0746
    1Sil    Sib 1607   3.812   0.690  11.859 -0.4346 -0.1384  0.0206
    1Sil    Sib 1608   3.367   0.991  11.904  0.2714 -0.1225 -0.1498
    1Sil    Sib 1609   3.931   0.992  12.290  0.3831 -0.0254 -0.0589
    1Sil    Sib 1610   3.666   0.942  11.500 -0.0385 -0.0106 -0.3555
    1Sil    Sib 1611   3.645   0.977  12.382 -0.0091 -0.2027 -0.0395
    1Sil    Sib 1612   3.386   0.995  11.601 -0.0806 -0.0185  0.0721
    1Sil    Sib 1613   3.939   0.935  11.988 -0.1692  0.0601 -0.2943
    1Sil    Sib 1614   3.527   0.740  11.946 -0.0803  0.0829  0.2898
    1Sil    Sib 1615   4.079   0.743  12.351 -0.3829  0.1980 -0.4289
    1Sil    Sib 1616   3.841   0.695  11.562  0.4372  0.0517 -0.2226
    1Sil    Sib 1617   4.173   1.253  10.267 -0.1998  0.1846 -0.5041
    1Sil    Sib 1618   3.583   1.239  11.063 -0.1299  0.2048  0.1522
    1Sil    Sib 1619   3.878   1.172  10.671 -0.2123 -0.0183 -0.5425
    1Sil    Sib 1620   3.438   1.482  10.700  0.1547  0.1205 -0.3463
    1Sil    Sib 1621   3.973   1.495  11.095 -0.0355  0.0213  0.1840
    1Sil    Sim 1622   3.730   1.432  10.291  0.3291 -0.1023 -0.6418
    1Sil    Sib 1623   3.681   1.487  11.191 -0.7785 -0.3749 -0.2577
    1Sil    Sib 1624   3.449   1.484  10.406 -0.0075 -0.0890 -0.4822
    1Sil    Sib 1625   3.990   1.428  10.807 -0.2945 -0.1244  0.0504
    1Sil    Sib 1626   3.597   1.235  10.763  0.2675  0.2607 -0.1212
    1Sil    Sib 1627   4.125   1.241  11.157 -0.0433 -0.1825  0.8964
    1Sil    Sib 1628   3.895   1.183  10.372 -0.1711  0.0648 -0.4079
    1Sil    Sib 1629   4.120   1.233  11.454  0.0289  0.0690 -0.3541
    1Sil    Sib 1630   3.538   1.230  12.263  0.4285 -0.1999 -0.4714
    1Sil    Sib 1631   3.829   1.177  11.849  0.0162 -0.2268 -0.1006
    1Sil    Sib 1632   3.389   1.472  11.881 -0.0378 -0.4371 -0.4639
    1Sil    Sib 1633   3.910   1.477  12.287 -0.0636  0.2102 -0.1959
    1Sil    Sib 1634   3.682   1.429  11.483 -0.5051  0.2610  0.1099
    1Sil    Sib 1635   3.633   1.477  12.397  0.0718  0.1715 -0.3104
    1Sil    Sib 1636   3.408   1.486  11.583 -0.2762  0.5977 -0.4699
    1Sil    Sib 1637   3.926   1.425  11.992  0.1431  0.0397  0.4311
    1Sil    Sib 1638   3.546   1.230  11.961  0.2440 -0.4212  0.4013
    1Sil    Sib 1639   4.081   1.243  12.358 -0.0058 -0.2210 -0.3175
    1Sil    Sib 1640   3.837   1.189  11.551  0.2789  0.2770 -0.3980
    1Sil    Sib 1641   4.166   1.736  10.264 -0.1519 -0.2154  0.0470
    1Sil    Sib 1642   3.580   1.732  11.056 -0.2660 -0.4714  0.4358
    1Sil    Sib 1643   3.882   1.664  10.658  0.0855  0.3126 -0.5711
    1Sil    Sib 1644   3.434   1.973  10.694 -0.1974  0.4245  0.3927
    1Sil    Sib 1645   3.974   1.979  11.102  0.1424 -0.2892 -0.6206
    1Sil    Sim 1646   3.729   1.926  10.308 -0.1481 -0.6545 -0.1887
    1Sil    Sib 1647   3.690   1.972  11.201  0.4875 -0.2105 -0.0878
    1Sil    Sib 1648   3.444   1.974  10.403  0.0845 -0.9146 -0.2219
    1Sil    Sib 1649   3.981   1.921  10.801  0.5020  0.3090 -0.0065
    1Sil    Sib 1650   3.599   1.730  10.755 -0.3875 -0.4306 -0.0294
    1Sil    Sib 1651   4.136   1.735  11.163  0.4846  0.1692 -0.1194
    1Sil    Sib 1652   3.887   1.681  10.364 -0.0663 -0.6695  0.3249
    1Sil    Sib 1653   4.121   1.738  11.462 -0.3015  0.2687  0.2962
    1Sil    Sib 1654   3.531   1.724  12.256  0.0424 -0.1534  0.3810
    1Sil    Sib 1655   3.830   1.665  11.850 -0.1445  0.1762 -0.4339
    1Sil    Sib 1656   3.388   1.973  11.885 -0.0605  0.0645 -0.1540
    1Sil    Sib 1657   3.919   1.966  12.300 -0.0034  0.2319  0.0598
    1Sil    Sib 1658   3.686   1.930  11.497  0.0131  0.1780 -0.0305
    1Sil    Sim 1659   3.637   1.967  12.403 -0.0221 -0.0546  0.0693
    1Sil    Sib 1660   3.402   1.980  11.589 -0.0839 -0.1778  0.4793
    1Sil    Sib 1661   3.937   1.910  11.989 -0.1460  0.3430  0.0460
    1Sil    Sib 1662   3.549   1.723  11.950  0.0811 -0.1009 -0.0653
    1Sil    Sim 1663   4.081   1.712  12.363 -0.5735 -0.2487  0.2870
    1Sil    Sib 1664   3.840   1.673  11.550  0.5142 -0.5548  0.2010
    1Sil    Sib 1665   4.165   2.226  10.265  0.3549 -0.3857  0.1676
    1Sil    Sib 1666   3.581   2.225  11.068  0.0901 -0.2024 -0.4938
    1Sil    Sib 1667   3.880   2.178  10.660 -0.3157 -0.2922 -0.3179
    1Sil    Sib 1668   3.437   2.465  10.706  0.2004  0.0125  0.1498
    1Sil    Sib 1669   3.959   2.485  11.101  0.1127  0.2551 -0.2637
    1Sil    Sib 1670   3.726   2.416  10.309  0.0726 -0.1526  0.4606
    1Sil    Sib 1671   3.681   2.481  11.200  0.7824  0.1838 -0.2160
    1Sil    Sib 1672   3.451   2.467  10.412  0.1869  0.4564  0.3045
    1Sil    Sib 1673   3.982   2.424  10.802  0.0992 -0.2275 -0.5072
    1Sil    Sib 1674   3.598   2.219  10.764  0.3516 -0.1862 -0.1690
    1Sil    Sib 1675   4.132   2.235  11.162  0.1475  0.4441 -0.1969
    1Sil    Sib 1676   3.886   2.168  10.361 -0.3383 -0.3543  0.1975
    1Sil    Sib 1677   4.124   2.228  11.461  0.0063 -0.2355 -0.2039
    1Sil    Sib 1678   3.536   2.208  12.250 -0.1711 -0.3739 -0.6555
    1Sil    Sib 1679   3.833   2.163  11.857 -0.0859 -0.7187 -0.8097
    1Sil    Sib 1680   3.376   2.458  11.899  0.1999 -0.3467 -0.0539
    1Sil    Sib 1681   3.904   2.476  12.285 -0.1068  0.0195 -0.4440
    1Sil    Sib 1682   3.664   2.418  11.495 -0.1459 -0.6410  0.1579
    1Sil    Sim 1683   3.626   2.470  12.393 -0.2033 -0.2037 -0.1608
    1Sil    Sib 1684   3.382   2.471  11.594  0.1666  0.6166 -0.2474
    1Sil    Sib 1685   3.931   2.415  11.995 -0.2136 -0.0898  0.0651
    1Sil    Sib 1686   3.545   2.219  11.949 -0.3087 -0.3935 -0.3991
    1Sil    Sim 1687   4.067   2.221  12.362 -0.4679 -0.0708 -0.5255
    1Sil    Sib 1688   3.841   2.178  11.566  0.0717 -0.4009 -0.1940
    1Sil    Sim 1689   4.170   2.723  10.263  0.5778 -0.2645 -0.2306
    1Sil    Sib 1690   3.579   2.724  11.065 -0.3797  0.0439  0.2860
    1Sil    Sib 1691   3.873   2.665  10.662 -0.0783  0.4250  0.4668
    1Sil    Sib 1692   3.430   2.958  10.694 -0.1338 -0.2965  0.1353
    1Sil    Sib 1693   3.966   2.973  11.094  0.3427 -0.1885 -0.4017
    1Sil    Sib 1694   3.734   2.902  10.298  0.5188 -0.2595 -0.3431
    1Sil    Sib 1695   3.682   2.971  11.197 -0.0589  0.0606 -0.3521
    1Sil    Sib 1696   3.456   2.969  10.395 -0.0731 -0.4349 -0.3163
    1Sil    Sib 1697   3.981   2.906  10.796  0.1054  0.3200 -0.0856
    1Sil    Sib 1698   3.595   2.715  10.764  0.8675  0.0670 -0.6823
    1Sil    Sib 1699   4.128   2.728  11.163 -0.0159 -0.1006  0.0912
    1Sil    Sib 1700   3.890   2.663  10.363 -0.0162 -0.5594 -0.1596
    1Sil    Sib 1701   4.113   2.715  11.463 -0.2606 -0.3866 -0.0976
    1Sil    Sib 1702   3.523   2.724  12.253 -0.5447  0.0789  0.3728
    1Sil    Sib 1703   3.812   2.654  11.846  0.2521 -0.1092 -0.3776
    1Sil    Sib 1704   3.380   2.965  11.899 -0.0456  0.0515  0.3314
    1Sil    Sib 1705   3.920   2.955  12.282 -0.0912  0.1257  0.3049
    1Sil    Sib 1706   3.672   2.906  11.498 -0.2296 -0.0789  0.2660
    1Sil    Sim 1707   3.636   2.965  12.393  0.1995  0.1017 -0.0875
    1Sil    Sib 1708   3.396   2.967  11.600  0.2313 -0.2460  0.1629
    1Sil    Sib 1709   3.928   2.907  11.987  0.0317 -0.0703  0.5291
    1Sil    Sib 1710   3.539   2.711  11.959  0.0675  0.1807 -0.0758
    1Sil    Sim 1711   4.073   2.715  12.360 -0.0044 -0.0557  0.2640
    1Sil    Sib 1712   3.829   2.659  11.556 -0.0286 -0.0633  0.0530
    1Sil    Sim 1713   4.176   3.228  10.257 -0.0982  0.0297 -0.2037
    1Sil    Sib 1714   3.575   3.216  11.061 -0.2039 -0.2395  0.2805
    1Sil    Sib 1715   3.883   3.160  10.660 -0.2212 -0.2371 -0.1789
    1Sil    Sib 1716   3.426   0.009  10.709 -0.0703 -0.0131  0.1125
    1Sil    Sib 1717   3.962   0.011  11.098 -0.1024 -0.0081 -0.2315
    1Sil    Sib 1718   3.729  -0.047  10.308 -0.0918  0.0744  0.0805
    1Sil    Sib 1719   3.686   0.021  11.198  0.0968  0.0523  0.0841
    1Sil    Sib 1720   3.443   0.001  10.406 -0.3339  0.1706 -0.1674
    1Sil    Sib 1721   3.988  -0.051  10.805 -0.2233 -0.5325  0.0230
    1Sil    Sib 1722   3.590   3.209  10.761 -0.2240 -0.0818 -0.0744
    1Sil    Sib 1723   4.130   3.217  11.157 -0.2362 -0.3052  0.3855
    1Sil    Sib 1724   3.894   3.163  10.354 -0.4152 -0.1508 -0.3783
    1Sil    Sib 1725   4.119   3.213  11.459  0.0878 -0.0228  0.2879
    1Sil    Sib 1726   3.543   3.218  12.255  0.0628  0.0590 -0.2774
    1Sil    Sib 1727   3.820   3.158  11.851  0.1515 -0.2385  0.3290
    1Sil    Sib 1728   3.382  -0.002  11.897 -0.6643 -0.2085 -0.4307
    1Sil    Sib 1729   3.920   0.006  12.291 -0.1725  0.3026  0.5053
    1Sil    Sib 1730   3.677  -0.040  11.496 -0.5787 -0.0989 -0.6671
    1Sil    Sim 1731   3.639   0.014  12.393  0.0223 -0.0909 -0.0341
    1Sil    Sib 1732   3.388   0.002  11.593 -0.1064  0.2609  0.0016
    1Sil    Sib 1733   3.931  -0.051  11.996  0.0120 -0.3364  0.3409
    1Sil    Sib 1734   3.542   3.213  11.964 -0.7386 -0.0396  0.9115
    1Sil    Sim 1735   4.081   3.198  12.356  0.2545 -0.6022  0.0006
    1Sil    Sib 1736   3.829   3.161  11.552 -0.2205 -0.0873  0.2270
    1Sil    Sib 1737   5.009   0.259  10.273  0.0047  0.1842 -0.3063
    1Sil    Sib 1738   4.414   0.267  11.056  0.4771  0.1101 -0.6529
    1Sil    Sib 1739   4.707   0.193  10.664 -0.3780 -0.2640  0.0631
    1Sil    Sib 1740   4.255   0.513  10.706  0.1079 -0.1702 -0.3327
    1Sil    Sib 1741   4.810   0.503  11.095 -0.1041 -0.1610 -0.3011
    1Sil    Sib 1742   4.546   0.445  10.311 -0.0498 -0.3872 -0.2039
    1Sil    Sib 1743   4.526   0.516  11.199  0.0958  0.4263 -0.0117
    1Sil    Sib 1744   4.271   0.513  10.399  0.3521  0.1162  0.0238
    1Sil    Sib 1745   4.813   0.442  10.805 -0.2128  0.3850  0.5151
    1Sil    Sib 1746   4.429   0.266  10.753  0.2109  0.0092 -0.1011
    1Sil    Sib 1747   4.971   0.252  11.158 -0.3113  0.1870  0.3833
    1Sil    Sib 1748   4.722   0.197  10.360  0.1137  0.0013 -0.3713
    1Sil    Sib 1749   4.946   0.250  11.459  0.0517  0.5939 -0.4786
    1Sil    Sib 1750   4.366   0.241  12.272  0.4840  0.3843  0.4966
    1Sil    Sib 1751   4.645   0.190  11.868  0.6873 -0.6931 -0.4636
    1Sil    Sib 1752   4.207   0.493  11.901 -0.3443 -0.0364 -0.3603
    1Sil    Sib 1753   4.753   0.506  12.283 -0.0593 -0.0420 -0.3948
    1Sil    Sib 1754   4.508   0.451  11.503 -0.1825 -0.2898  0.4294
    1Sil    Sib 1755   4.479   0.491  12.385 -0.2183 -0.4348 -0.3420
    1Sil    Sib 1756   4.225   0.504  11.600 -0.1169 -0.0697  0.4445
    1Sil    Sib 1757   4.761   0.432  11.996  0.3284 -0.1402 -0.1409
    1Sil    Sib 1758   4.366   0.242  11.970 -0.2584 -0.3275  0.4319
    1Sil    Sim 1759   4.913   0.251  12.335  0.2068 -0.1069  0.1278
    1Sil    Sib 1760   4.668   0.201  11.566  0.4049 -0.4571  0.0128
    1Sil    Sim 1761   4.993   0.763  10.263  0.0140  0.2381  0.3045
    1Sil    Sib 1762   4.425   0.765  11.062  0.6795 -0.0509 -0.1890
    1Sil    Sib 1763   4.705   0.694  10.673 -0.2917 -0.0034 -0.4567
    1Sil    Sib 1764   4.264   1.004  10.710 -0.0673  0.2967 -0.2185
    1Sil    Sib 1765   4.806   1.002  11.105 -0.1822 -0.3735  0.7815
    1Sil    Sim 1766   4.560   0.941  10.311  0.0005 -0.0010  0.2969
    1Sil    Sib 1767   4.516   1.003  11.209 -0.0214  0.3597  0.2281
    1Sil    Sib 1768   4.282   1.006  10.408 -0.2381  0.1197  0.3476
    1Sil    Sib 1769   4.814   0.939  10.814  0.0346  0.1103 -0.8093
    1Sil    Sib 1770   4.425   0.763  10.767 -0.4671  0.3435  0.1041
    1Sil    Sib 1771   4.978   0.754  11.151 -0.2252  0.3692  0.2981
    1Sil    Sib 1772   4.724   0.687  10.376  0.3454  0.3884  0.1510
    1Sil    Sib 1773   4.947   0.743  11.455 -0.3366 -0.0079  0.2928
    1Sil    Sib 1774   4.365   0.735  12.247 -0.0052 -0.0728 -0.1571
    1Sil    Sib 1775   4.661   0.680  11.859  0.2288 -0.4187 -0.2022
    1Sil    Sib 1776   4.221   0.979  11.885 -0.2600 -0.6519 -0.3629
    1Sil    Sib 1777   4.743   0.990  12.288 -0.0940 -0.6485  0.1198
    1Sil    Sib 1778   4.504   0.934  11.496 -0.5723 -0.1508  0.4555
    1Sil    Sim 1779   4.462   0.987  12.393 -0.8544 -0.1898  0.1875
    1Sil    Sib 1780   4.233   0.996  11.594 -0.4929 -0.4572 -0.5137
    1Sil    Sib 1781   4.753   0.932  11.995 -0.0409 -0.2532 -0.3819
    1Sil    Sib 1782   4.377   0.729  11.955 -0.0225 -0.0728  0.0753
    1Sil    Sim 1783   4.907   0.746  12.364  0.3836  0.0211 -0.1558
    1Sil    Sib 1784   4.666   0.692  11.565  0.0713  0.1487 -0.1868
    1Sil    Sim 1785   5.011   1.247  10.265  0.1436 -0.3489 -0.3088
    1Sil    Sib 1786   4.411   1.247  11.060  0.3010 -0.1588 -0.5412
    1Sil    Sib 1787   4.714   1.194  10.675  0.1202  0.4271  0.2025
    1Sil    Sib 1788   4.265   1.489  10.707  0.1783  0.3002 -0.0580
    1Sil    Sib 1789   4.801   1.485  11.114  0.5434 -0.1471 -0.4903
    1Sil    Sim 1790   4.557   1.434  10.305  0.0588 -0.1876  0.3639
    1Sil    Sib 1791   4.511   1.492  11.202  0.2391  0.0493  0.0438
    1Sil    Sib 1792   4.271   1.492  10.413 -0.2432 -0.4529  0.1754
    1Sil    Sib 1793   4.810   1.443  10.818  0.2972  0.5376  0.0011
    1Sil    Sib 1794   4.424   1.241  10.766  0.2266 -0.2089 -0.6138
    1Sil    Sib 1795   4.974   1.244  11.169 -0.1247  0.2831  0.2270
    1Sil    Sib 1796   4.730   1.184  10.374 -0.2900 -0.2724  0.3203
    1Sil    Sib 1797   4.940   1.241  11.463  0.1525 -0.4303 -0.1441
    1Sil    Sib 1798   4.363   1.235  12.259  0.2361  0.4558 -0.2592
    1Sil    Sib 1799   4.644   1.174  11.855  0.1318  0.1684  0.0898
    1Sil    Sib 1800   4.204   1.476  11.898 -0.0468 -0.0695 -0.2606
    1Sil    Sib 1801   4.739   1.483  12.285 -0.0622  0.2832  0.2640
    1Sil    Sib 1802   4.498   1.433  11.495 -0.3131 -0.0076  0.0618
    1Sil    Sib 1803   4.472   1.479  12.404 -0.6386  0.4380 -0.2796
    1Sil    Sib 1804   4.219   1.483  11.595  0.2154  0.0742 -0.2167
    1Sil    Sib 1805   4.754   1.421  11.989  0.0579  0.0790 -0.3592
    1Sil    Sib 1806   4.367   1.233  11.960  0.5346 -0.5706 -0.0042
    1Sil    Sim 1807   4.894   1.241  12.356  0.2792 -0.2592 -0.4288
    1Sil    Sib 1808   4.659   1.187  11.552 -0.5846  0.0625  0.0576
    1Sil    Sim 1809   5.008   1.731  10.262  0.2560  0.7021  0.2455
    1Sil    Sib 1810   4.413   1.743  11.062  0.0044  0.1290  0.2758
    1Sil    Sib 1811   4.710   1.690  10.661  0.5011  0.1291 -0.3544
    1Sil    Sib 1812   4.259   1.981  10.705  0.1186  0.0247  0.2968
    1Sil    Sib 1813   4.799   1.987  11.093 -0.3113  0.1371 -0.0833
    1Sil    Sim 1814   4.550   1.924  10.299 -0.1015  0.5744 -0.1969
    1Sil    Sib 1815   4.509   1.981  11.201 -0.0080  0.0704  0.3419
    1Sil    Sib 1816   4.274   1.976  10.399 -0.5619 -0.4823  0.1412
    1Sil    Sib 1817   4.814   1.929  10.799 -0.5260  0.3080 -0.1759
    1Sil    Sib 1818   4.429   1.737  10.766 -0.3197  0.0918  0.2429
    1Sil    Sib 1819   4.958   1.737  11.160 -0.4284 -0.1049 -0.5098
    1Sil    Sib 1820   4.725   1.671  10.357  0.4021  0.1393  0.0709
    1Sil    Sib 1821   4.938   1.733  11.468 -0.2311  0.2723 -0.2166
    1Sil    Sib 1822   4.363   1.726  12.259 -0.0401 -0.1502 -0.0673
    1Sil    Sib 1823   4.656   1.669  11.859  0.0191 -0.3552 -0.2026
    1Sil    Sib 1824   4.217   1.970  11.901  0.0571 -0.2998  0.4505
    1Sil    Sib 1825   4.752   1.971  12.300 -0.0039  0.2903  0.0409
    1Sil    Sib 1826   4.507   1.923  11.501  0.1084 -0.3149 -0.6059
    1Sil    Sim 1827   4.466   1.980  12.414  0.0957 -0.6820 -0.0473
    1Sil    Sib 1828   4.223   1.981  11.602 -0.2122 -0.2461  0.1885
    1Sil    Sib 1829   4.760   1.913  12.008 -0.5286  0.0655 -0.2795
    1Sil    Sib 1830   4.372   1.719  11.961 -0.2361  0.1181  0.2817
    1Sil    Sib 1831   4.904   1.723  12.351 -0.0564  0.3235 -0.0529
    1Sil    Sib 1832   4.660   1.678  11.563  0.0576 -0.0317  0.5594
    1Sil    Sib 1833   4.994   2.222  10.274  0.2934  0.5255 -0.0450
    1Sil    Sib 1834   4.412   2.231  11.066  0.0217  0.7599  0.1465
    1Sil    Sib 1835   4.702   2.170  10.664 -0.4468  0.5899 -0.4603
    1Sil    Sib 1836   4.268   2.470  10.710 -0.0131  0.0145 -0.2846
    1Sil    Sib 1837   4.800   2.470  11.104  0.5644  0.1162 -0.0369
    1Sil    Sib 1838   4.552   2.410  10.310  0.2216  0.4157 -0.1460
    1Sil    Sib 1839   4.517   2.485  11.205 -0.0995 -0.0005  0.0202
    1Sil    Sib 1840   4.271   2.472  10.412 -0.1437  0.4041  0.3357
    1Sil    Sib 1841   4.815   2.416  10.801  0.3197 -0.2227  0.1458
    1Sil    Sib 1842   4.428   2.224  10.770  0.0629 -0.4066  0.2933
    1Sil    Sib 1843   4.965   2.225  11.158 -0.0738  0.7998 -0.0383
    1Sil    Sib 1844   4.715   2.171  10.363  0.0033  0.2892 -0.3311
    1Sil    Sib 1845   4.948   2.220  11.456 -0.0987 -0.0811  0.1377
    1Sil    Sib 1846   4.360   2.221  12.274  0.5199  0.0448 -0.1653
    1Sil    Sib 1847   4.665   2.156  11.865  0.3909  0.1532  0.1392
    1Sil    Sib 1848   4.215   2.460  11.900  0.2040 -0.1423 -0.0469
    1Sil    Sib 1849   4.759   2.471  12.284 -0.0377  0.2100  0.0411
    1Sil    Sib 1850   4.507   2.424  11.496 -0.1175 -0.1464 -0.1418
    1Sil    Sim 1851   4.477   2.468  12.410 -0.1840 -0.0399  0.1494
    1Sil    Sib 1852   4.230   2.474  11.602 -0.0165 -0.0795 -0.2190
    1Sil    Sib 1853   4.776   2.408  11.992  0.4994  0.1121 -0.0492
    1Sil    Sib 1854   4.383   2.217  11.966 -0.5674 -0.0671  0.2270
    1Sil    Sib 1855   4.914   2.223  12.359  0.0489 -0.5073  0.1180
    1Sil    Sib 1856   4.666   2.163  11.556 -0.1431 -0.0201 -0.5155
    1Sil    Sib 1857   5.009   2.706  10.267 -0.3735  0.4221 -0.3368
    1Sil    Sib 1858   4.420   2.733  11.064 -0.4416 -0.0417 -0.2291
    1Sil    Sib 1859   4.701   2.653  10.663  0.4363 -0.2878  0.4696
    1Sil    Sib 1860   4.269   2.968  10.704  0.0775 -0.1143 -0.0258
    1Sil    Sib 1861   4.799   2.966  11.105  0.1850 -0.2426  0.6028
    1Sil    Sim 1862   4.556   2.913  10.313 -0.3547  0.1508  0.5752
    1Sil    Sib 1863   4.525   2.976  11.209 -0.4015 -0.0005 -0.3117
    1Sil    Sib 1864   4.274   2.975  10.406 -0.3108 -0.0165 -0.0423
    1Sil    Sib 1865   4.816   2.899  10.810  0.4771  0.2934 -0.1132
    1Sil    Sib 1866   4.429   2.716  10.761 -0.0737  0.2193  0.0564
    1Sil    Sib 1867   4.958   2.719  11.162  0.5546 -0.3008  0.0910
    1Sil    Sib 1868   4.723   2.656  10.364  0.5437 -0.0846  0.2408
    1Sil    Sib 1869   4.955   2.712  11.459 -0.1099 -0.2929  0.1587
    1Sil    Sib 1870   4.359   2.713  12.261  0.4202  0.2243 -0.1073
    1Sil    Sib 1871   4.667   2.651  11.858  0.0569 -0.0456  0.0188
    1Sil    Sib 1872   4.216   2.957  11.897 -0.0814 -0.3286 -0.1317
    1Sil    Sib 1873   4.755   2.966  12.286  0.1036  0.1197  0.1765
    1Sil    Sib 1874   4.503   2.912  11.494  0.1775 -0.0907 -0.2140
    1Sil    Sim 1875   4.477   2.954  12.401  0.2422 -0.1126 -0.1480
    1Sil    Sib 1876   4.229   2.964  11.596  0.1283  0.4613 -0.2634
    1Sil    Sib 1877   4.773   2.899  11.988  0.2905  0.6166  0.5112
    1Sil    Sib 1878   4.378   2.705  11.956  0.5251 -0.1085 -0.0069
    1Sil    Sim 1879   4.923   2.723  12.350 -0.1698  0.0523 -0.3880
    1Sil    Sib 1880   4.671   2.673  11.564 -0.2090  0.0608  0.3108
    1Sil    Sim 1881   5.001   3.213  10.275  0.2221  0.0736 -0.2051
    1Sil    Sib 1882   4.418   3.225  11.073  0.1251  0.1608  0.2996
    1Sil    Sib 1883   4.706   3.158  10.680 -0.1856  0.7041 -0.6047
    1Sil    Sib 1884   4.274   0.012  10.709  0.4117  0.1034 -0.1956
    1Sil    Sib 1885   4.803   0.009  11.105  0.8162 -0.5744 -0.1926
    1Sil    Sim 1886   4.554  -0.049  10.302 -0.0710 -0.0839 -0.5419
    1Sil    Sib 1887   4.521   0.026  11.200  0.1193 -0.0707  0.3136
    1Sil    Sib 1888   4.284   0.006  10.409 -0.6312  0.0613 -0.1569
    1Sil    Sib 1889   4.816  -0.048  10.808 -0.1307  0.4011 -0.0846
    1Sil    Sib 1890   4.430   3.218  10.780 -0.1739 -0.0820  0.3159
    1Sil    Sib 1891   4.971   3.214  11.156  0.1018 -0.0890  0.7669
    1Sil    Sib 1892   4.718   3.165  10.379  0.0756  0.1541  0.0207
    1Sil    Sib 1893   4.958   3.206  11.457 -0.0724  0.4870  0.2891
    1Sil    Sib 1894   4.377   3.198  12.264 -0.3477 -0.2895  0.0668
    1Sil    Sib 1895   4.659   3.149  11.850  0.2995  0.2868 -0.1249
    1Sil    Sib 1896   4.215  -0.005  11.892  0.0810  0.0909 -0.2099
    1Sil    Sib 1897   4.749   0.003  12.282  0.4119 -0.2366 -0.1885
    1Sil    Sib 1898   4.511  -0.045  11.489 -0.2245  0.5591 -0.6757
    1Sil    Sim 1899   4.484  -0.000  12.411  0.3037  0.2157 -0.2246
    1Sil    Sib 1900   4.230   0.011  11.594  0.0857 -0.0395 -0.1178
    1Sil    Sib 1901   4.745  -0.055  11.995 -0.1267 -0.1563 -0.4279
    1Sil    Sib 1902   4.380   3.199  11.956  0.3491  0.6403 -0.2438
    1Sil    Sib 1903   4.914   3.214  12.345  0.1539  0.0582  0.0681
    1Sil    Sib 1904   4.667   3.156  11.546 -0.5614  0.1222  0.3842
    1Sil    Sim 1905   2.502   0.255  10.261 -0.4043  0.5219 -0.0264
    1Sil    Sib 1906   5.251   0.254  11.060  0.3365  0.3177  0.0194
    1Sil    Sib 1907   2.216   0.195  10.672 -0.2920  0.1129 -0.4339
    1Sil    Sib 1908   5.095   0.506  10.708 -0.1471  0.0149  0.2080
    1Sil    Sib 1909   5.632   0.502  11.087 -0.5637  0.3857 -0.2932
    1Sil    Sim 1910   5.388   0.453  10.300 -0.0659 -0.2426  0.4964
    1Sil    Sib 1911   5.348   0.498  11.195 -0.2262 -0.1931  0.4790
    1Sil    Sib 1912   5.103   0.519  10.404 -0.3947  0.1383 -0.1719
    1Sil    Sib 1913   2.324   0.442  10.798  0.1580 -0.0027  0.1202
    1Sil    Sib 1914   5.261   0.256  10.761 -0.3168  0.1610  0.2079
    1Sil    Sib 1915   2.464   0.255  11.162  0.4256 -0.0496  0.0318
    1Sil    Sib 1916   2.228   0.207  10.379  0.3623 -0.3910 -0.0423
    1Sil    Sib 1917   2.453   0.250  11.465  0.0965  0.2325  0.4168
    1Sil    Sib 1918   5.200   0.250  12.247 -0.6270  0.2271  0.5265
    1Sil    Sib 1919   2.160   0.190  11.847  0.0423 -0.2847 -0.7587
    1Sil    Sib 1920   5.047   0.484  11.890 -0.1537 -0.1535 -0.5267
    1Sil    Sib 1921   5.584   0.498  12.281 -0.0783 -0.3457 -0.1088
    1Sil    Sib 1922   5.342   0.445  11.498 -0.2089 -0.0742  0.3101
    1Sil    Sim 1923   5.305   0.493  12.404 -0.1590  0.6242 -0.2620
    1Sil    Sib 1924   5.057   0.497  11.597 -0.6591  0.5066 -0.3440
    1Sil    Sib 1925   2.266   0.441  11.984 -0.2002 -0.0886  0.1491
    1Sil    Sib 1926   5.204   0.239  11.951  0.2899 -0.2387 -0.6507
    1Sil    Sim 1927   2.418   0.255  12.353 -0.1859  0.3459 -0.2756
    1Sil    Sib 1928   2.168   0.192  11.554 -0.0690 -0.3566  0.3295
    1Sil    Sim 1929   2.515   0.733  10.263  0.4554 -0.0488 -0.0069
    1Sil    Sib 1930   5.262   0.762  11.063 -0.0194 -0.0621 -0.3117
    1Sil    Sib 1931   2.211   0.687  10.662 -0.6649 -0.0191 -0.2291
    1Sil    Sib 1932   5.099   1.002  10.715  0.1501  0.1021 -0.0387
    1Sil    Sib 1933   5.634   0.997  11.102 -0.2355  0.0900 -0.0463
    1Sil    Sib 1934   5.386   0.940  10.299  0.4482 -0.3845  0.0367
    1Sil    Sib 1935   5.353   1.006  11.208 -0.1599 -0.0971  0.3778
    1Sil    Sib 1936   5.102   0.999  10.408 -0.5158 -0.3117  0.3320
    1Sil    Sib 1937   2.312   0.934  10.801  0.1684  0.1792  0.2251
    1Sil    Sib 1938   5.263   0.750  10.770 -0.2462 -0.1576  0.0968
    1Sil    Sib 1939   2.472   0.750  11.158 -0.0743 -0.1395  0.4870
    1Sil    Sib 1940   5.556   0.695  10.354 -0.3875 -0.0887  0.0879
    1Sil    Sib 1941   2.454   0.752  11.461 -0.0901 -0.2229  0.2918
    1Sil    Sib 1942   5.190   0.735  12.271 -0.1543  0.0816 -0.1755
    1Sil    Sib 1943   2.159   0.692  11.857 -0.0056  0.1840 -0.0683
    1Sil    Sib 1944   5.039   0.978  11.902 -0.0564 -0.5959  0.0994
    1Sil    Sib 1945   5.576   0.991  12.301  0.2185 -0.0891 -0.2503
    1Sil    Sib 1946   5.334   0.945  11.500  0.2976  0.6002 -0.1062
    1Sil    Sib 1947   5.289   0.986  12.396 -0.0283  0.0795 -0.6832
    1Sil    Sib 1948   5.054   0.986  11.596 -0.1392  0.3641  0.5896
    1Sil    Sib 1949   2.265   0.935  12.000 -0.6766  0.4725 -0.1733
    1Sil    Sib 1950   5.199   0.731  11.971 -0.0475 -0.1107  0.5516
    1Sil    Sib 1951   2.417   0.740  12.356 -0.0293 -0.0869  0.2580
    1Sil    Sib 1952   5.501   0.699  11.560 -0.4334 -0.3874 -0.1471
    1Sil    Sim 1953   2.507   1.230  10.266  0.1945 -0.4162 -0.0004
    1Sil    Sib 1954   5.253   1.248  11.066  0.0556 -0.0103 -0.4678
    1Sil    Sib 1955   2.214   1.181  10.667  0.0740 -0.3894 -0.1274
    1Sil    Sib 1956   5.090   1.491  10.714 -0.1164 -0.2405 -0.6428
    1Sil    Sib 1957   5.629   1.485  11.103 -0.1809  0.4205  0.1701
    1Sil    Sim 1958   5.392   1.437  10.309 -0.0727 -0.1654  0.0971
    1Sil    Sib 1959   5.346   1.494  11.206 -0.1101 -0.0335  0.2037
    1Sil    Sib 1960   5.111   1.495  10.405  0.0809 -0.2453  0.3412
    1Sil    Sib 1961   2.324   1.435  10.805 -0.2435 -0.0126 -0.0973
    1Sil    Sib 1962   5.267   1.247  10.768  0.2059 -0.2576  0.0355
    1Sil    Sib 1963   2.465   1.241  11.155  0.4576  0.2641 -0.0460
    1Sil    Sib 1964   5.548   1.186  10.376  0.3715  0.1514 -0.5998
    1Sil    Sib 1965   2.452   1.236  11.455 -0.3201  0.0572  0.1860
    1Sil    Sib 1966   5.186   1.231  12.264  0.2486  0.1050 -0.2875
    1Sil    Sib 1967   2.157   1.180  11.873  0.0562 -0.1704 -0.0312
    1Sil    Sib 1968   5.048   1.473  11.904 -0.4855 -0.1733  0.4851
    1Sil    Sib 1969   5.582   1.491  12.279 -0.5160 -0.0306  0.0270
    1Sil    Sib 1970   5.339   1.433  11.505  0.0624 -0.4710 -0.1225
    1Sil    Sim 1971   5.301   1.480  12.396  0.3788 -0.0177 -0.3022
    1Sil    Sib 1972   5.060   1.489  11.597  0.0436  0.1945 -0.4880
    1Sil    Sib 1973   2.271   1.439  11.988  0.0744 -0.3827 -0.1983
    1Sil    Sib 1974   5.201   1.227  11.964 -0.2769  0.4737 -0.1622
    1Sil    Sim 1975   2.410   1.242  12.356  0.5156 -0.1339 -0.3687
    1Sil    Sib 1976   5.499   1.188  11.570  0.3774  0.3710 -0.1249
    1Sil    Sib 1977   2.516   1.732  10.271 -0.1929 -0.4027  0.1643
    1Sil    Sib 1978   5.244   1.744  11.067 -0.2352  0.1253 -0.1345
    1Sil    Sib 1979   2.213   1.678  10.661 -0.1907 -0.0652  0.0998
    1Sil    Sib 1980   5.098   1.981  10.708 -0.0381  0.4148  0.2482
    1Sil    Sib 1981   5.628   1.976  11.107 -0.0162  0.4296 -0.0411
    1Sil    Sim 1982   5.385   1.934  10.293 -0.0267  0.1388  0.2523
    1Sil    Sib 1983   5.350   1.986  11.209  0.2397  0.1527  0.0056
    1Sil    Sib 1984   5.104   1.979  10.408  0.1266 -0.6396 -0.2139
    1Sil    Sib 1985   2.310   1.920  10.810 -0.2685 -0.1634  0.0192
    1Sil    Sib 1986   5.261   1.734  10.769  0.7789  0.0467 -0.1141
    1Sil    Sib 1987   2.469   1.734  11.165  0.6278 -0.2277  0.1221
    1Sil    Sib 1988   5.554   1.687  10.356  0.1628 -0.2641 -0.1736
    1Sil    Sib 1989   2.453   1.731  11.462  0.1223 -0.0055 -0.1848
    1Sil    Sib 1990   5.194   1.730  12.255  0.2537  0.0709 -0.1571
    1Sil    Sib 1991   2.160   1.673  11.845 -0.1619 -0.2637  0.0403
    1Sil    Sib 1992   5.041   1.974  11.905  0.0318 -0.1061  0.5587
    1Sil    Sib 1993   5.589   1.981  12.293  0.1126  0.3438  0.2439
    1Sil    Sib 1994   5.328   1.921  11.497  0.0700 -0.0095 -0.2165
    1Sil    Sib 1995   5.314   1.975  12.396  0.0223  0.3852  0.5411
    1Sil    Sib 1996   5.044   1.977  11.606 -0.3330  0.2282  0.4228
    1Sil    Sib 1997   2.273   1.920  11.991  0.1418  0.0602  0.1492
    1Sil    Sib 1998   5.211   1.725  11.958 -0.2225  0.1913 -0.3556
    1Sil    Sim 1999   2.418   1.738  12.352 -0.1989  0.0139 -0.4115
    1Sil    Sib 2000   5.496   1.683  11.546 -0.2099 -0.4352 -0.0890
    1Sil    Sim 2001   2.515   2.210  10.259  0.0005 -0.0825  0.4312
    1Sil    Sib 2002   5.245   2.222  11.059  0.6362  0.2132  0.0602
    1Sil    Sib 2003   2.211   2.174  10.665  0.1581  0.1760  0.6653
    1Sil    Sib 2004   5.096   2.474  10.710 -0.3547  0.3102  0.4016
    1Sil    Sib 2005   5.635   2.474  11.093 -0.1193 -0.1578  0.0342
    1Sil    Sim 2006   5.386   2.420  10.302  0.5796  0.0014 -0.0142
    1Sil    Sib 2007   5.349   2.469  11.199  0.7289 -0.2902 -0.2380
    1Sil    Sib 2008   5.112   2.460  10.409  0.2770  0.2835  0.1106
    1Sil    Sib 2009   2.328   2.418  10.803  0.0206  0.1238 -0.0976
    1Sil    Sib 2010   5.256   2.227  10.768 -0.1773  0.1279  0.6386
    1Sil    Sib 2011   2.472   2.219  11.156  0.2354 -0.7345  0.3260
    1Sil    Sib 2012   5.556   2.170  10.355 -0.1824 -0.0331  0.6720
    1Sil    Sib 2013   2.458   2.224  11.451  0.0837 -0.3729 -0.1328
    1Sil    Sib 2014   5.203   2.220  12.252 -0.2691 -0.0815 -0.6015
    1Sil    Sib 2015   2.163   2.166  11.856  0.2292  0.4785  0.5767
    1Sil    Sib 2016   5.056   2.461  11.905 -0.5056 -0.6225  0.6817
    1Sil    Sib 2017   5.587   2.474  12.286 -0.0493  0.0685  0.1549
    1Sil    Sib 2018   5.344   2.413  11.492 -0.3098 -0.1829 -0.0444
    1Sil    Sim 2019   5.311   2.457  12.399  0.3062  0.0161 -0.1491
    1Sil    Sib 2020   5.058   2.473  11.598 -0.0368  0.4190 -0.5133
    1Sil    Sib 2021   2.272   2.414  11.990  0.2440  0.3024 -0.1095
    1Sil    Sib 2022   5.213   2.215  11.956 -0.2105 -0.4385 -0.3092
    1Sil    Sib 2023   2.420   2.229  12.345 -0.2784  0.1026 -0.0833
    1Sil    Sib 2024   5.497   2.164  11.565  0.2198 -0.1526 -0.1090
    1Sil    Sim 2025   2.501   2.713  10.262  0.0147 -0.3694 -0.1742
    1Sil    Sib 2026   5.240   2.721  11.071 -0.5474  0.6531 -0.1864
    1Sil    Sib 2027   2.224   2.661  10.681  0.1030 -0.1347 -0.0940
    1Sil    Sib 2028   5.094   2.961  10.711 -0.2832 -0.3993 -0.0699
    1Sil    Sib 2029   5.641   2.971  11.103  0.3815  0.3277  0.1815
    1Sil    Sim 2030   5.387   2.914  10.312  0.1673  0.3171  0.0328
    1Sil    Sib 2031   5.363   2.975  11.203 -0.1411 -0.0888 -0.0351
    1Sil    Sib 2032   5.108   2.958  10.413  0.3778 -0.1657 -0.1499
    1Sil    Sib 2033   2.322   2.915  10.797 -0.0713 -0.0010 -0.1692
    1Sil    Sib 2034   5.262   2.713  10.770 -0.4270  0.0027 -0.4121
    1Sil    Sib 2035   2.474   2.718  11.172  0.2023  0.2947 -0.2689
    1Sil    Sib 2036   5.552   2.669  10.372 -0.0348 -0.2372 -0.4083
    1Sil    Sib 2037   2.470   2.718  11.464 -0.1077  0.0796 -0.0349
    1Sil    Sib 2038   5.211   2.716  12.270  0.1009 -0.1856  0.2280
    1Sil    Sib 2039   2.167   2.654  11.851  0.1070 -0.1556  0.2321
    1Sil    Sib 2040   5.056   2.950  11.889 -0.1944 -0.6615  0.0886
    1Sil    Sib 2041   5.584   2.965  12.301 -0.2666  0.2374  0.1403
    1Sil    Sib 2042   5.357   2.911  11.492  0.1992  0.0358 -0.2608
    1Sil    Sim 2043   5.303   2.969  12.412  0.1516  0.3232 -0.2820
    1Sil    Sib 2044   5.073   2.957  11.591  0.0038  0.3694 -0.5432
    1Sil    Sib 2045   2.259   2.895  12.004  0.2185 -0.6427 -0.0233
    1Sil    Sib 2046   5.218   2.702  11.965  0.0131 -0.0278 -0.4480
    1Sil    Sib 2047   2.420   2.717  12.357 -0.0977  0.5493  0.4454
    1Sil    Sib 2048   5.507   2.664  11.552  0.0417 -0.2549 -0.1620
    1Sil    Sim 2049   2.507   3.204  10.257  0.0287 -0.3831  0.0374
    1Sil    Sib 2050   5.258   3.216  11.062  0.4563  0.1529 -0.9727
    1Sil    Sib 2051   2.208   3.159  10.659  0.0008  0.5687 -0.0110
    1Sil    Sib 2052   5.099   0.010  10.707 -0.3315 -0.1081 -0.3125
    1Sil    Sib 2053   2.310   0.011  11.103  0.0510  0.0586 -0.1149
    1Sil    Sim 2054   2.062  -0.040  10.307  0.2455 -0.3103 -0.5800
    1Sil    Sib 2055   5.356   0.007  11.197  0.0168  0.0446 -0.1922
    1Sil    Sib 2056   5.111   0.006  10.408 -0.4752 -0.0856  0.2524
    1Sil    Sib 2057   2.321  -0.048  10.804 -0.1349 -0.3423 -0.0828
    1Sil    Sib 2058   5.260   3.213  10.761  0.3299 -0.0501 -0.2406
    1Sil    Sib 2059   2.474   3.216  11.164 -0.2701  0.3174 -0.3236
    1Sil    Sib 2060   5.551   3.166  10.369  0.0624  0.3197  0.3970
    1Sil    Sib 2061   2.457   3.222  11.457  0.4211  0.2808 -0.1130
    1Sil    Sib 2062   5.202   3.199  12.247 -0.1899  0.5262  0.2398
    1Sil    Sib 2063   2.157   3.145  11.860 -0.2084  0.0019 -0.0583
    1Sil    Sib 2064   5.034  -0.013  11.896  0.5730 -0.2980  0.0913
    1Sil    Sib 2065   2.259  -0.002  12.284 -0.0987 -0.0367  0.2735
    1Sil    Sib 2066   2.011  -0.052  11.500 -0.0345  0.1814 -0.0066
    1Sil    Sim 2067   5.307   0.001  12.381  0.0177 -0.1953  0.0402
    1Sil    Sib 2068   5.044  -0.007  11.600 -0.2812 -0.2469  0.0888
    1Sil    Sib 2069   2.267  -0.054  11.986  0.1478 -0.1249 -0.2595
    1Sil    Sib 2070   5.207   3.196  11.952  0.3504 -0.0037 -0.2459
    1Sil    Sim 2071   2.421   3.210  12.357  0.2674 -0.0142  0.0862
    1Sil    Sib 2072   5.506   3.161  11.559  0.2598  0.3671 -0.2046
    1Sil     Hy 2073   3.428   0.139  10.114 -4.0508 -0.8121 -0.9696
    1Sil     Hm 2074   2.914   0.550  10.110  1.4533 -0.1726  0.2561
    1Sil     Hm 2075   2.890   0.377  10.083 -1.8408  0.1040 -1.1519
    1Sil     Hm 2076   2.755   0.461  10.139 -0.1952 -2.2871 -0.6486
    1Sil     Hm 2077   2.646   0.481  12.545  0.0428  0.7792  0.0164
    1Sil     Hm 2078   2.784   0.372  12.572 -2.8170 -1.4293 -1.7383
    1Sil     Hm 2079   2.784   0.551  12.610 -0.3510 -0.2209  0.5056
    1Sil     Hy 2080   3.333   0.282  12.548  1.2108  0.6807 -2.9656
    1Sil     Hm 2081   3.313   0.751  10.039  0.3222  0.1996 -0.2719
    1Sil     Hm 2082   3.405   0.614  10.099 -0.4600 -0.1658  0.0826
    1Sil     Hm 2083   3.476   0.786  10.085 -0.4842  1.3797  0.6198
    1Sil     Hy 2084   2.818   1.025  10.147  0.5337  0.2686 -1.6614
    1Sil     Hy 2085   2.801   0.914  12.569 -0.0098  1.4258  1.5770
    1Sil     Hy 2086   3.225   0.740  12.572 -2.2064 -0.0132 -1.8632
    1Sil     Hy 2087   3.397   1.303  10.076  1.7900 -1.0372 -0.4064
    1Sil     Hm 2088   2.929   1.479  10.078 -0.5613 -1.5492 -0.7591
    1Sil     Hm 2089   2.772   1.399  10.108 -1.6343  0.3509  1.4169
    1Sil     Hm 2090   2.790   1.570  10.149  0.1204  0.3655  0.6735
    1Sil     Hy 2091   2.780   1.535  12.574 -4.4977 -1.1262  1.4863
    1Sil     Hm 2092   3.239   1.135  12.557 -1.2675  0.4438  0.2192
    1Sil     Hm 2093   3.194   1.307  12.569 -0.4549  1.9991 -1.3677
    1Sil     Hm 2094   3.364   1.264  12.555  0.4462  0.1060 -1.6891
    1Sil     Hm 2095   3.476   1.690  10.120  0.0598 -1.3186 -0.3966
    1Sil     Hm 2096   3.314   1.615  10.085  0.7268  0.3566 -1.7598
    1Sil     Hm 2097   3.337   1.785  10.057  1.4507  1.6011  1.8729
    1Sil     Hy 2098   2.925   1.908  10.107 -0.3369 -2.4930 -0.0696
    1Sil     Hy 2099   2.780   1.844  12.535 -1.3142 -0.0592 -0.9410
    1Sil     Hy 2100   3.211   1.703  12.552  1.7051 -1.2536  2.4634
    1Sil     Hm 2101   3.456   2.100  10.081 -2.2281 -0.4978 -0.8500
    1Sil     Hm 2102   3.333   2.204  10.012 -0.5965 -3.5277  0.1868
    1Sil     Hm 2103   3.483   2.276  10.069 -0.4815  0.2627  0.7817
    1Sil     Hm 2104   2.801   2.550  10.133 -0.3279  0.0594  3.0670
    1Sil     Hm 2105   2.955   2.478  10.072  1.0273 -1.7054  0.4011
    1Sil     Hm 2106   2.821   2.374  10.085 -1.0330  1.1002  0.0388
    1Sil     Hm 2107   2.846   2.475  12.611  0.8301 -2.2117 -0.5573
    1Sil     Hm 2108   2.671   2.486  12.560  0.7165  0.9310 -0.7630
    1Sil     Hm 2109   2.752   2.333  12.562  0.7074  0.3623  0.7291
    1Sil     Hm 2110   3.212   2.211  12.582 -0.9353 -3.1024  0.0696
    1Sil     Hm 2111   3.317   2.088  12.532 -0.6797  0.4421  0.6856
    1Sil     Hm 2112   3.380   2.245  12.535  0.1464 -0.6108  0.4600
    1Sil     Hm 2113   3.385   2.602  10.064 -1.2256  1.1096 -1.3964
    1Sil     Hm 2114   3.410   2.777  10.045 -1.3605 -0.3130 -0.6067
    1Sil     Hm 2115   3.533   2.686  10.119  0.1054 -0.9950 -1.1089
    1Sil     Hm 2116   2.766   2.970  10.136 -0.3489 -0.7803  2.6930
    1Sil     Hm 2117   2.933   3.021  10.108 -0.0427  0.6249  1.4341
    1Sil     Hm 2118   2.880   2.852  10.081 -1.0495 -0.4476 -1.5599
    1Sil     Hm 2119   2.844   2.962  12.631  0.3734 -1.1732  0.1202
    1Sil     Hm 2120   2.713   2.851  12.583 -0.7575  1.1408  1.2541
    1Sil     Hm 2121   2.688   3.028  12.583 -0.0457  0.5192 -0.8256
    1Sil     Hy 2122   3.235   2.757  12.550 -2.2227 -0.3604 -1.6789
    1Sil     Hm 2123   3.468   3.254  10.077 -0.2897 -0.2907  0.9021
    1Sil     Hm 2124   3.389   3.098  10.072 -1.6149 -0.5801 -1.7898
    1Sil     Hm 2125   3.287   3.236  10.053 -0.4114 -1.7044  0.0250
    1Sil     Hm 2126   2.869  -0.115  10.074  1.2208  1.3148 -1.3542
    1Sil     Hm 2127   2.743   0.005  10.121 -0.4121 -3.3065 -1.0809
    1Sil     Hm 2128   2.910   0.054  10.104  2.0759 -0.5669  1.1252
    1Sil     Hm 2129   2.835   0.053  12.614  0.0896 -0.3047  0.0403
    1Sil     Hm 2130   2.676   0.008  12.576  0.1710 -1.5462  2.8668
    1Sil     Hm 2131   2.804  -0.118  12.591 -0.7171 -1.0192 -2.7646
    1Sil     Hm 2132   3.207   3.196  12.565 -0.6908 -0.0664 -0.5091
    1Sil     Hm 2133   3.311   3.060  12.522  0.7723  0.0809  0.2840
    1Sil     Hm 2134   3.379   3.226  12.531 -0.2622 -0.6434  0.0230
    1Sil     Hm 2135   4.318   0.229  10.100  0.4907 -0.9357 -1.6694
    1Sil     Hm 2136   4.171   0.136  10.078  0.2502  1.1183 -2.5616
    1Sil     Hm 2137   4.172   0.315  10.056 -0.4710 -0.5465  0.9802
    1Sil     Hm 2138   3.652   0.566  10.124 -0.6874  0.3083  1.7063
    1Sil     Hm 2139   3.783   0.447  10.085 -0.3223 -1.1165 -0.0959
    1Sil     Hm 2140   3.617   0.387  10.109 -0.3860  1.1100  1.1049
    1Sil     Hy 2141   3.515   0.542  12.556  0.1427  0.2738  1.0167
    1Sil     Hm 2142   4.025   0.294  12.597 -0.8441 -1.9272  0.3243
    1Sil     Hm 2143   4.106   0.141  12.575  0.4998  0.4846  2.0770
    1Sil     Hm 2144   4.201   0.281  12.548 -0.3483  1.2364  0.2601
    1Sil     Hm 2145   4.316   0.738  10.063  0.2473  1.9535  0.1111
    1Sil     Hm 2146   4.148   0.699  10.032 -0.2586 -0.3281 -0.4894
    1Sil     Hm 2147   4.187   0.865  10.048 -1.1963 -0.6071 -0.2483
    1Sil     Hm 2148   3.770   1.000  10.087 -0.0211  0.1558 -0.2384
    1Sil     Hm 2149   3.607   0.927  10.093  1.0533 -0.3309  0.1186
    1Sil     Hm 2150   3.639   1.095  10.147 -0.0339  0.7615 -1.0041
    1Sil     Hy 2151   3.569   1.030  12.570 -1.8143  0.7097 -2.1814
    1Sil     Hy 2152   4.054   0.767  12.566 -0.6521  1.7049 -0.6034
    1Sil     Hy 2153   4.186   1.322  10.072 -1.5752 -0.7963 -0.3168
    1Sil     Hm 2154   3.588   1.514  10.123  1.7703  2.9485 -3.4754
    1Sil     Hm 2155   3.765   1.505  10.084 -1.1192  1.1912 -0.7642
    1Sil     Hm 2156   3.660   1.358  10.077 -3.3759  0.3654  1.2696
    1Sil     Hy 2157   3.618   1.536  12.597 -2.6269  0.7260 -0.2890
    1Sil     Hy 2158   4.152   1.334  12.535  0.8596  0.0923  0.2600
    1Sil     Hy 2159   4.189   1.787  10.064 -1.4274 -0.3836 -0.5507
    1Sil     Hm 2160   3.731   2.039  10.115 -1.4166  0.0314 -1.3776
    1Sil     Hm 2161   3.774   1.869  10.098 -0.4094  0.3228 -1.7335
    1Sil     Hm 2162   3.604   1.912  10.122  1.2117 -3.2277  0.5979
    1Sil     Hm 2163   3.588   2.037  12.625 -2.2154  1.0293 -2.0432
    1Sil     Hm 2164   3.480   1.905  12.573  0.1050 -1.2364 -1.0059
    1Sil     Hm 2165   3.650   1.867  12.614 -0.4279 -0.7137 -0.7969
    1Sil     Hm 2166   4.194   1.597  12.523 -0.3787 -1.2638  1.7296
    1Sil     Hm 2167   4.170   1.772  12.560 -0.7334 -0.0771  1.0667
    1Sil     Hm 2168   4.036   1.657  12.589 -0.2150 -0.2048 -0.4547
    1Sil     Hy 2169   4.222   2.311  10.086 -1.3245  0.2207  0.5505
    1Sil     Hy 2170   3.727   2.549  10.156 -0.3956 -0.6427 -0.0707
    1Sil     Hm 2171   3.482   2.439  12.576 -0.3438  0.0804  0.0768
    1Sil     Hm 2172   3.624   2.329  12.577 -2.0091 -0.1732  0.4967
    1Sil     Hm 2173   3.642   2.502  12.621  1.6092  0.2613 -1.6079
    1Sil     Hm 2174   4.030   2.128  12.584  1.5434 -1.5478 -0.2425
    1Sil     Hm 2175   4.200   2.177  12.553 -0.4514 -0.2455 -0.5360
    1Sil     Hm 2176   4.081   2.306  12.582 -1.6957  0.1497  0.9103
    1Sil     Hm 2177   4.142   2.726  10.048  0.7215 -0.9790 -0.6011
    1Sil     Hm 2178   4.319   2.727  10.106  0.0042 -0.0986  0.0193
    1Sil     Hm 2179   4.232   2.588  10.104 -1.9665 -0.8557  1.5885
    1Sil     Hy 2180   3.646   2.857  10.102 -2.6873  1.2959  1.2904
    1Sil     Hm 2181   3.671   2.939  12.617  0.7467 -3.6204 -0.5854
    1Sil     Hm 2182   3.509   2.997  12.577  0.4220 -0.9008  2.7559
    1Sil     Hm 2183   3.554   2.831  12.546 -1.1168  0.7270  0.6149
    1Sil     Hm 2184   4.022   2.684  12.582  1.0596  0.9902  0.9144
    1Sil     Hm 2185   4.149   2.577  12.524  0.3290 -0.3312  0.1839
    1Sil     Hm 2186   4.179   2.747  12.563 -0.7804  0.2951  0.1888
    1Sil     Hm 2187   4.212   3.115  10.060 -0.3183  1.3450 -3.0576
    1Sil     Hm 2188   4.344   3.203  10.133  0.0547 -1.6750  0.0297
    1Sil     Hm 2189   4.215   3.298  10.049 -1.1800 -0.3178  0.5017
    1Sil     Hy 2190   3.766  -0.005  10.107  0.0078 -1.4663  0.3345
    1Sil     Hm 2191   3.606  -0.110  12.590 -2.0608 -0.6426  0.1428
    1Sil     Hm 2192   3.657   0.065  12.611 -1.3276  0.3755  0.2367
    1Sil     Hm 2193   3.492   0.015  12.570 -0.4281 -1.0308 -0.0131
    1Sil     Hm 2194   4.151   3.081  12.552 -1.6311 -0.7889  0.3843
    1Sil     Hm 2195   4.181   3.250  12.565  0.6179 -1.7019  1.5756
    1Sil     Hm 2196   4.016   3.197  12.583  0.2760 -0.1638  0.9532
    1Sil     Hy 2197   5.026   0.279  10.058 -0.8091 -1.5277 -0.0955
    1Sil     Hy 2198   4.596   0.493  10.105  0.3309  3.6089  1.1644
    1Sil     Hy 2199   4.351   0.501  12.559  0.0928 -0.1081  0.9008
    1Sil     Hm 2200   5.004   0.145  12.543 -3.4101 -1.4913  1.9367
    1Sil     Hm 2201   4.979   0.318  12.560 -2.1288  1.6699 -1.4620
    1Sil     Hm 2202   4.838   0.210  12.558 -1.0141  2.2757 -1.2425
    1Sil     Hm 2203   5.144   0.758  10.087  0.6341 -3.3067  2.2587
    1Sil     Hm 2204   5.003   0.676  10.035 -0.3975  1.8162 -1.8043
    1Sil     Hm 2205   5.001   0.851  10.033  2.3338  2.0613  2.4380
    1Sil     Hm 2206   4.455   0.890  10.101  1.9511 -0.7064  0.2976
    1Sil     Hm 2207   4.465   1.065  10.132  1.3571  1.3447  1.7709
    1Sil     Hm 2208   4.602   0.980  10.073 -0.9153 -1.2201 -0.6132
    1Sil     Hm 2209   4.362   0.835  12.559 -0.2983  0.2792 -0.9170
    1Sil     Hm 2210   4.478   0.942  12.621  0.5623  0.8338 -0.6255
    1Sil     Hm 2211   4.307   0.996  12.581 -0.4919 -0.4108 -1.1433
    1Sil     Hm 2212   4.966   0.623  12.544  0.4993 -0.2790  0.1064
    1Sil     Hm 2213   5.041   0.778  12.565 -0.0623 -0.6183 -0.1003
    1Sil     Hm 2214   4.869   0.765  12.595 -2.0974 -2.3427  0.2503
    1Sil     Hm 2215   5.002   1.139  10.071  3.2210 -1.2134 -0.9855
    1Sil     Hm 2216   5.160   1.227  10.102  0.0954 -0.4293  0.9789
    1Sil     Hm 2217   5.011   1.313  10.042 -1.0900  1.4252  2.4287
    1Sil     Hm 2218   4.608   1.484  10.082  1.2138 -3.2322 -0.1653
    1Sil     Hm 2219   4.469   1.369  10.086 -0.1663 -0.0532  1.5193
    1Sil     Hm 2220   4.444   1.537  10.119 -0.7094 -1.0637 -1.4487
    1Sil     Hy 2221   4.458   1.377  12.583 -1.3957 -0.6405  0.2665
    1Sil     Hm 2222   4.920   1.303  12.594  0.5262  0.7847 -0.3774
    1Sil     Hm 2223   4.834   1.149  12.571  0.9836  0.8176  1.5203
    1Sil     Hm 2224   5.011   1.163  12.554  0.6770 -0.1476 -3.3691
    1Sil     Hm 2225   5.169   1.716  10.099 -0.1195  1.2617 -1.7966
    1Sil     Hm 2226   5.029   1.608  10.069  0.9407 -1.3447  3.0798
    1Sil     Hm 2227   5.011   1.779  10.043 -1.6017  0.5762  1.5879
    1Sil     Hm 2228   4.574   1.974  10.057  0.3906 -0.8985 -0.1522
    1Sil     Hm 2229   4.420   1.885  10.090 -3.4600  2.6410  1.7497
    1Sil     Hm 2230   4.441   2.053  10.127 -0.7405 -0.3805 -0.2878
    1Sil     Hm 2231   4.486   1.995  12.635 -1.3421  0.9305 -0.8010
    1Sil     Hm 2232   4.318   1.981  12.597  0.5508 -0.6176  1.9486
    1Sil     Hm 2233   4.413   1.836  12.591 -0.5480 -0.3453 -0.7506
    1Sil     Hy 2234   4.967   1.746  12.541 -2.0770  0.4877  0.7957
    1Sil     Hy 2235   4.970   2.169  10.063 -0.5484 -0.8213  1.0733
    1Sil     Hy 2236   4.599   2.439  10.128 -0.2353  0.1948  1.2397
    1Sil     Hm 2237   4.437   2.529  12.635 -1.0072  2.2017 -2.1025
    1Sil     Hm 2238   4.334   2.393  12.599  0.3191 -0.7594  2.7493
    1Sil     Hm 2239   4.495   2.357  12.640 -0.5874  0.2789  0.1693
    1Sil     Hy 2240   4.866   2.209  12.558  0.8696  0.1137  0.4731
    1Sil     Hy 2241   4.995   2.621  10.069  0.7726 -0.1309 -1.0970
    1Sil     Hm 2242   4.608   2.895  10.105  0.5920 -0.0867 -0.4502
    1Sil     Hm 2243   4.434   2.922  10.125 -1.8398  1.1990  4.2598
    1Sil     Hm 2244   4.544   3.056  10.143 -0.2918 -0.1875 -0.0717
    1Sil     Hm 2245   4.319   2.914  12.574 -0.2055 -0.9663 -2.0611
    1Sil     Hm 2246   4.477   2.827  12.593 -0.2787 -0.8567  0.8143
    1Sil     Hm 2247   4.459   3.011  12.622  0.0874 -0.5579 -0.4303
    1Sil     Hm 2248   4.916   2.587  12.557 -1.1077  0.4991 -1.0238
    1Sil     Hm 2249   5.064   2.657  12.533  0.0573 -1.2360 -3.6070
    1Sil     Hm 2250   4.928   2.766  12.590 -1.1458 -0.7309  0.1895
    1Sil     Hm 2251   5.010   3.264  10.054 -1.0689 -1.5915 -0.1181
    1Sil     Hm 2252   5.164   3.197  10.109  0.3615 -1.2199 -0.8186
    1Sil     Hm 2253   5.020   3.093  10.078  2.4888 -0.8535 -1.0222
    1Sil     Hm 2254   4.405  -0.011  10.141  0.8267  0.2989 -1.7501
    1Sil     Hm 2255   4.563   0.063  10.101  3.9302 -0.9516  1.4399
    1Sil     Hm 2256   4.538  -0.107  10.084 -2.1466 -0.7940 -0.3550
    1Sil     Hm 2257   4.506   0.011  12.638 -0.4202  1.0035 -0.5429
    1Sil     Hm 2258   4.336  -0.015  12.593 -1.1351 -1.7662 -2.0725
    1Sil     Hm 2259   4.448  -0.149  12.587  1.8406  0.7644  0.4805
    1Sil     Hy 2260   4.892   3.233  12.547  0.6842  0.3730  0.2936
    1Sil     Hm 2261   2.520   0.126  10.094 -1.9325  0.4319  1.6545
    1Sil     Hm 2262   2.520   0.292  10.039 -0.2757 -0.0535 -0.3246
    1Sil     Hm 2263   2.663   0.245  10.111 -0.3947  0.3695  0.3748
    1Sil     Hm 2264   5.440   0.497  10.087 -0.1521  1.8962  1.1188
    1Sil     Hm 2265   5.339   0.347  10.122  2.0836  0.0131  0.1818
    1Sil     Hm 2266   5.269   0.504  10.102 -0.1858 -0.6841  2.1066
    1Sil     Hm 2267   5.323   0.370  12.597  0.7290 -0.1457 -0.7418
    1Sil     Hm 2268   5.294   0.543  12.615 -1.1175  1.0154 -1.0965
    1Sil     Hm 2269   5.163   0.438  12.556 -0.2156 -1.1679 -1.3250
    1Sil     Hm 2270   2.348   0.180  12.580  0.8805 -1.7445  0.1951
    1Sil     Hm 2271   2.520   0.149  12.549 -0.5949 -0.3519  0.0164
    1Sil     Hm 2272   2.471   0.314  12.582  0.2764 -0.6611  1.4221
    1Sil     Hm 2273   2.568   0.591  10.088  0.5238 -0.0588 -1.2181
    1Sil     Hm 2274   2.519   0.750  10.039 -1.8661 -0.1512  0.0569
    1Sil     Hm 2275   2.681   0.711  10.115 -0.6323  0.5910 -0.2219
    1Sil     Hy 2276   5.421   1.036  10.121 -1.4266  0.6944 -0.7952
    1Sil     Hy 2277   5.324   0.910  12.585  0.3978 -1.9821 -1.8610
    1Sil     Hy 2278   2.460   0.604  12.502  3.0206  0.6412 -1.1683
    1Sil     Hm 2279   2.517   1.081  10.098 -1.1696 -0.1608 -0.1009
    1Sil     Hm 2280   2.451   1.229  10.041 -1.1612  2.3481  1.7096
    1Sil     Hm 2281   2.629   1.210  10.069 -0.9033  1.6543  0.1715
    1Sil     Hm 2282   5.295   1.541  10.111  0.8770  0.5508  2.0387
    1Sil     Hm 2283   5.443   1.464  10.080 -0.0805 -1.5312 -0.8881
    1Sil     Hm 2284   5.297   1.373  10.108  1.6675 -0.6131 -0.4808
    1Sil     Hm 2285   5.347   1.435  12.610  0.0616 -0.9304  0.4280
    1Sil     Hm 2286   5.211   1.343  12.550  1.2025  0.4870  1.0499
    1Sil     Hm 2287   5.185   1.510  12.594 -0.7318  1.2506 -2.4195
    1Sil     Hm 2288   2.405   1.156  12.576  1.8557  1.5436  1.4791
    1Sil     Hm 2289   2.540   1.271  12.548  0.0975 -0.1952  0.2943
    1Sil     Hm 2290   2.368   1.323  12.573  0.1587  0.6279  0.9276
    1Sil     Hy 2291   2.636   1.763  10.120  1.2650 -0.2485  0.4089
    1Sil     Hm 2292   5.273   2.039  10.115  2.4229  1.7270 -4.0863
    1Sil     Hm 2293   5.444   2.009  10.077 -0.9984  1.0344  0.4536
    1Sil     Hm 2294   5.316   1.879  10.082  2.5130 -2.4881  0.8181
    1Sil     Hy 2295   5.182   1.954  12.551 -0.1570  0.6258  0.6602
    1Sil     Hm 2296   2.483   1.592  12.536  0.4541  0.9162  2.6098
    1Sil     Hm 2297   2.533   1.767  12.559 -0.1084  0.2796 -0.7692
    1Sil     Hm 2298   2.364   1.721  12.569 -1.1787 -0.4580 -0.9041
    1Sil     Hm 2299   2.557   2.226  10.012  0.0838  1.2256  0.9278
    1Sil     Hm 2300   2.689   2.151  10.107  0.2396 -0.1964 -0.7504
    1Sil     Hm 2301   2.546   2.059  10.067 -0.6523 -0.2927  0.3302
    1Sil     Hm 2302   5.302   2.375  10.103 -1.7096  1.5690 -0.1931
    1Sil     Hm 2303   5.275   2.544  10.145  0.1133 -0.1483 -1.0212
    1Sil     Hm 2304   5.434   2.497  10.098 -0.1386  0.4120 -0.5156
    1Sil     Hm 2305   5.292   2.486  12.619  2.5346  1.5694 -1.7935
    1Sil     Hm 2306   5.329   2.317  12.556 -2.3802 -1.2857  0.8207
    1Sil     Hm 2307   5.168   2.373  12.551 -0.0843 -0.7728  0.5989
    1Sil     Hy 2308   2.359   2.156  12.539  0.6393 -0.7797  2.0495
    1Sil     Hm 2309   2.553   2.585  10.072  0.1401  0.4993 -0.9348
    1Sil     Hm 2310   2.503   2.751  10.037  0.1400  0.1150 -0.6599
    1Sil     Hm 2311   2.665   2.718  10.099 -0.1811 -0.4271  0.6873
    1Sil     Hm 2312   5.270   2.868  10.118 -0.4023 -0.6475  0.3264
    1Sil     Hm 2313   5.309   3.041  10.115  0.5409  0.1860 -1.6053
    1Sil     Hm 2314   5.431   2.932  10.078 -0.2553  1.1110  0.1162
    1Sil     Hm 2315   5.326   2.962  12.648  0.6134  0.7452 -0.9585
    1Sil     Hm 2316   5.163   2.990  12.609 -0.1149  1.1148 -2.8147
    1Sil     Hm 2317   5.217   2.828  12.588  0.2306 -0.5888  0.1833
    1Sil     Hy 2318   2.370   2.706  12.552 -1.4801 -2.2636 -0.8094
    1Sil     Hm 2319   2.493   3.080  10.083  0.2006 -1.0125  2.4916
    1Sil     Hm 2320   2.532   3.260  10.048  0.7164 -0.1102  1.1247
    1Sil     Hm 2321   2.658   3.145  10.090  0.2644  0.7872 -0.4795
    1Sil     Hm 2322   2.128  -0.011  10.088 -0.3465  1.1444  1.2074
    1Sil     Hm 2323   2.003   0.095  10.136 -1.8132 -0.0207  1.4912
    1Sil     Hm 2324   1.962  -0.075  10.104 -0.5113  1.0871 -1.2249
    1Sil     Hm 2325   5.145  -0.018  12.548 -0.3017  0.2412 -1.8389
    1Sil     Hm 2326   5.260  -0.147  12.550 -1.2705 -0.3792 -2.7701
    1Sil     Hm 2327   5.310   0.013  12.614  2.5148 -0.1749 -1.4447
    1Sil     Hm 2328   2.558   3.224  12.552 -0.0860  2.0379  0.6023
    1Sil     Hm 2329   2.386   3.251  12.584 -0.3015 -0.5101 -1.6096
    1Sil     Hm 2330   2.439   3.083  12.547 -2.3056 -0.1579 -3.1504
    2Eth     Ho 2331   2.045   0.080   2.898 -1.7630 -3.1134 -1.2126
    2Eth     Oh 2332   1.986   0.134   2.849  0.2106  0.3930  0.1392
    2Eth     Co 2333   2.025   0.264   2.863 -0.0703 -0.2067  0.4456
    2Eth    Hco 2334   2.097   0.280   2.783 -1.3296  1.7831 -0.3563
    2Eth    Hco 2335   2.073   0.274   2.960 -0.8928 -1.8078  1.0384
    2Eth     Ch 2336   1.925   0.376   2.843  0.6068 -0.9147  0.6463
    2Eth    Hcc 2337   1.885   0.369   2.742 -0.6230  0.1599  1.0443
    2Eth    Hcc 2338   1.978   0.469   2.863  0.5822 -0.7774  0.0673
    2Eth    Hcc 2339   1.831   0.379   2.898 -0.9286  0.3639 -1.9618
    3Eth     Ho 2340   0.644   2.367   3.344  2.8976  1.6076  2.2866
    3Eth     Oh 2341   0.710   2.300   3.336  0.9267 -0.0575 -0.9032
    3Eth     Co 2342   0.678   2.208   3.437 -0.2423 -0.5444  0.0963
    3Eth    Hco 2343   0.584   2.160   3.412 -1.2805  1.8762 -0.7378
    3Eth    Hco 2344   0.658   2.261   3.530  0.4131  2.5132 -1.4628
    3Eth     Ch 2345   0.791   2.110   3.456 -0.3060  0.3589  0.1644
    3Eth    Hcc 2346   0.841   2.083   3.363  0.0644 -1.7629  0.9549
    3Eth    Hcc 2347   0.748   2.018   3.495 -0.0601 -0.9000 -2.4065
    3Eth    Hcc 2348   0.860   2.160   3.524 -0.5814  1.1339 -0.1124
    4Eth     Ho 2349   1.597   0.412   8.711 -0.7956  1.0521  1.8434
    4Eth     Oh 2350   1.548   0.482   8.671 -0.0123  0.2578 -0.6039
    4Eth     Co 2351   1.585   0.485   8.533  0.1172  0.1543 -0.1472
    4Eth    Hco 2352   1.535   0.400   8.487 -1.5387  0.9270  0.1792
    4Eth    Hco 2353   1.691   0.463   8.521 -0.1617 -1.7871  0.8070
    4Eth     Ch 2354   1.540   0.617   8.463 -0.5013  0.2072  0.0126
    4Eth    Hcc 2355   1.552   0.600   8.356 -3.3591  0.1625 -0.3354
    4Eth    Hcc 2356   1.601   0.702   8.493 -0.3076 -0.7514  2.4404
    4Eth    Hcc 2357   1.434   0.633   8.482 -0.6284 -2.2505  1.7346
    5Eth     Ho 2358   3.259   0.191   2.030  0.0203  0.6485  0.5520
    5Eth     Oh 2359   3.166   0.196   2.018  0.1171  0.1946 -0.3958
    5Eth     Co 2360   3.131   0.126   1.898 -0.4058 -0.0857 -0.0939
    5Eth    Hco 2361   3.179   0.028   1.908  0.3140  0.3918  1.1632
    5Eth    Hco 2362   3.169   0.179   1.811 -2.1058  1.3886  0.0487
    5Eth     Ch 2363   2.974   0.100   1.881 -0.2832 -0.5483 -0.6585
    5Eth    Hcc 2364   2.922   0.193   1.858  0.0952 -0.6118 -1.8239
    5Eth    Hcc 2365   2.935   0.052   1.971 -1.7690 -0.9408 -1.4893
    5Eth    Hcc 2366   2.945   0.033   1.800 -0.0301  1.0643 -2.1190
    6Eth     Ho 2367   1.902   2.072   8.735 -0.2497 -0.5915  0.4822
    6Eth     Oh 2368   1.857   2.095   8.656  0.1663 -0.0754  0.3914
    6Eth     Co 2369   1.844   2.238   8.658 -1.2691  0.3942 -0.5281
    6Eth    Hco 2370   1.937   2.287   8.631 -0.7937 -0.5029 -0.5675
    6Eth    Hco 2371   1.818   2.258   8.762  2.0548  2.9593 -0.1061
    6Eth     Ch 2372   1.732   2.281   8.572  0.3746  0.1314 -0.2527
    6Eth    Hcc 2373   1.746   2.249   8.468 -1.4553  0.5984 -0.6492
    6Eth    Hcc 2374   1.731   2.389   8.558 -2.0534  0.1514 -0.0212
    6Eth    Hcc 2375   1.639   2.238   8.608  0.3845 -0.5933 -1.0451
    7Eth     Ho 2376   0.458   2.674   1.586  0.2277  1.0407 -0.5235
    7Eth     Oh 2377   0.381   2.701   1.632 -0.3756 -0.2974 -0.7142
    7Eth     Co 2378   0.267   2.701   1.552  0.8569  0.2828 -0.2746
    7Eth    Hco 2379   0.301   2.704   1.448 -0.2098  3.4845 -0.6003
    7Eth    Hco 2380   0.198   2.785   1.565 -2.6645 -2.8162  1.7963
    7Eth     Ch 2381   0.193   2.569   1.568 -0.2152 -0.4823  0.2529
    7Eth    Hcc 2382   0.158   2.546   1.668  0.9462  0.9744  1.0085
    7Eth    Hcc 2383   0.251   2.485   1.531 -3.3002 -2.4463 -0.3074
    7Eth    Hcc 2384   0.110   2.575   1.497 -0.5238 -0.4434  0.6166
    8Eth     Ho 2385   0.313   3.273   6.921 -0.0341  0.5259  1.5062
    8Eth     Oh 2386   0.326   3.180   6.924  0.3060  0.5001 -0.3795
    8Eth     Co 2387   0.204   3.125   6.886  0.1935 -0.1049 -0.6884
    8Eth    Hco 2388   0.217   3.097   6.781  1.5818  1.2881 -0.9121
    8Eth    Hco 2389   0.124   3.198   6.895  0.4988 -0.0654  2.2670
    8Eth     Ch 2390   0.171   3.001   6.965 -0.1549  0.4454 -0.0460
    8Eth    Hcc 2391   0.242   2.918   6.968 -0.3006  0.3023 -0.6132
    8Eth    Hcc 2392   0.080   2.953   6.932 -0.3970 -0.1550  1.4685
    8Eth    Hcc 2393   0.148   3.028   7.068  0.8743 -2.7339  1.0814
    9Eth     Ho 2394   0.803   2.761   1.646  0.0330  0.6618 -0.6394
    9Eth     Oh 2395   0.724   2.779   1.598 -0.0623 -0.4107 -0.8757
    9Eth     Co 2396   0.741   2.885   1.510 -0.3142  0.2886  0.4872
    9Eth    Hco 2397   0.811   2.856   1.432 -0.4170  0.9013  0.1690
    9Eth    Hco 2398   0.793   2.964   1.564  0.9146 -0.8771  1.0498
    9Eth     Ch 2399   0.601   2.933   1.454  0.6574  0.7231  0.9196
    9Eth    Hcc 2400   0.601   3.014   1.381 -0.8791 -1.0785 -1.1624
    9Eth    Hcc 2401   0.521   2.951   1.526  1.8801  0.6601  2.3148
    9Eth    Hcc 2402   0.548   2.855   1.398 -0.9311  2.0727  0.4919
   10Eth     Ho 2403   0.065   0.740   2.152 -1.7530  1.9544  1.4276
   10Eth     Oh 2404   0.048   0.650   2.173 -0.0580  1.3000  0.0974
   10Eth     Co 2405  -0.069   0.624   2.099 -0.7925  0.1734 -0.5675
   10Eth    Hco 2406  -0.099   0.520   2.114 -2.1653  0.7631  0.8716
   10Eth    Hco 2407  -0.044   0.626   1.993  0.0105 -3.3029 -0.5168
   10Eth     Ch 2408  -0.179   0.724   2.140 -0.0159  1.0269 -0.0634
   10Eth    Hcc 2409  -0.132   0.823   2.133 -1.3404  1.8431  2.0767
   10Eth    Hcc 2410  -0.213   0.710   2.243 -0.3244  3.3123  0.1706
   10Eth    Hcc 2411  -0.269   0.724   2.079 -1.7827 -2.6048  2.3691
   11Eth     Ho 2412   3.173   0.772   3.380 -0.6875 -2.5871 -1.8162
   11Eth     Oh 2413   3.083   0.791   3.360 -0.4345  0.0860 -0.5153
   11Eth     Co 2414   3.069   0.909   3.288  0.9235 -0.2115  0.1331
   11Eth    Hco 2415   3.133   0.907   3.200 -0.1368 -1.0924 -0.6346
   11Eth    Hco 2416   3.112   0.990   3.347  0.3164 -1.0605  1.7773
   11Eth     Ch 2417   2.922   0.935   3.241 -0.3599  0.1525  0.4167
   11Eth    Hcc 2418   2.856   0.948   3.327 -2.3751  2.2741 -1.3793
   11Eth    Hcc 2419   2.884   0.865   3.167 -1.9332  0.7131  0.6842
   11Eth    Hcc 2420   2.918   1.025   3.180  1.4784 -0.0328 -0.0145
   12Eth     Ho 2421   2.953   0.376   8.006  0.2955  0.4115  1.4166
   12Eth     Oh 2422   2.893   0.447   8.022 -0.3508  0.2590 -0.1851
   12Eth     Co 2423   2.909   0.549   7.926 -0.4351  0.0937 -0.0799
   12Eth    Hco 2424   2.868   0.509   7.833 -0.4730 -1.1627  0.4734
   12Eth    Hco 2425   3.016   0.565   7.911 -0.0499  0.1375  2.5919
   12Eth     Ch 2426   2.848   0.673   7.971  0.4440 -0.1447  0.5664
   12Eth    Hcc 2427   2.746   0.651   8.001  0.0793 -0.8178 -1.1036
   12Eth    Hcc 2428   2.833   0.744   7.890 -0.4797 -0.6212  0.3114
   12Eth    Hcc 2429   2.915   0.734   8.032  0.1990 -0.8005  1.5001
   13Eth     Ho 2430   2.698   3.238   3.036  1.3210 -1.0265  0.5616
   13Eth     Oh 2431   2.636   3.172   3.008  0.1833  0.4372 -0.4198
   13Eth     Co 2432   2.652   3.145   2.872 -0.0714  0.0539  0.7781
   13Eth    Hco 2433   2.749   3.097   2.878 -0.1517 -0.1324  0.5760
   13Eth    Hco 2434   2.660   3.234   2.809 -0.7359 -0.5084 -0.1201
   13Eth     Ch 2435   2.546   3.050   2.820 -0.1742 -0.5471 -0.3798
   13Eth    Hcc 2436   2.451   3.097   2.796 -1.3375 -2.8091 -0.2783
   13Eth    Hcc 2437   2.528   2.985   2.906  1.4141 -1.3131 -0.5951
   13Eth    Hcc 2438   2.580   2.982   2.742 -1.1450 -2.1314  0.5539
   14Eth     Ho 2439   2.142   2.757   9.609  0.4633  0.2849  0.0283
   14Eth     Oh 2440   2.125   2.830   9.665 -0.4047  0.0803  0.0407
   14Eth     Co 2441   2.049   2.808   9.785 -0.0824 -0.3129 -0.0369
   14Eth    Hco 2442   1.959   2.752   9.758  0.1149  0.0474 -1.5051
   14Eth    Hco 2443   2.014   2.907   9.814 -0.2759 -0.0711 -1.0833
   14Eth     Ch 2444   2.128   2.727   9.892  0.2022  0.4948  0.1770
   14Eth    Hcc 2445   2.067   2.686   9.973  0.2932 -1.5480 -0.7472
   14Eth    Hcc 2446   2.203   2.798   9.928  1.5687 -0.4129 -0.8439
   14Eth    Hcc 2447   2.162   2.633   9.848  0.4507  2.0922 -3.1540
   15Eth     Ho 2448   0.600   2.949   8.197 -0.4277 -0.2485 -0.2904
   15Eth     Oh 2449   0.592   2.920   8.287  0.1495 -0.4349 -0.2920
   15Eth     Co 2450   0.720   2.882   8.342  0.2283 -0.2233  0.5271
   15Eth    Hco 2451   0.693   2.895   8.447 -0.0753  3.1488  0.0966
   15Eth    Hco 2452   0.793   2.958   8.313 -0.3712  0.6537  1.2624
   15Eth     Ch 2453   0.760   2.742   8.285  0.1403 -0.0423  0.4113
   15Eth    Hcc 2454   0.674   2.675   8.294  0.0823 -0.3660 -2.1015
   15Eth    Hcc 2455   0.838   2.697   8.345 -0.1003 -0.5243  0.3626
   15Eth    Hcc 2456   0.799   2.760   8.184  1.8019  0.5924  1.1444
   16Eth     Ho 2457   0.963   2.829   9.264  1.0098  0.0120  0.2851
   16Eth     Oh 2458   0.953   2.826   9.357  0.8267 -0.1344  0.2603
   16Eth     Co 2459   0.819   2.794   9.384  0.3009 -0.1292 -0.1239
   16Eth    Hco 2460   0.782   2.704   9.334 -0.5724  0.1343  0.0534
   16Eth    Hco 2461   0.755   2.875   9.351  1.6656  0.6195 -0.9987
   16Eth     Ch 2462   0.815   2.781   9.536 -0.5978  0.2196 -0.6556
   16Eth    Hcc 2463   0.862   2.866   9.585 -0.5783 -1.5181  2.4622
   16Eth    Hcc 2464   0.852   2.687   9.578 -1.2083  0.0443 -0.4973
   16Eth    Hcc 2465   0.709   2.780   9.564 -0.4936 -0.3081 -0.2628
   17Eth     Ho 2466   2.772   0.790   2.608 -1.6531 -0.8563 -2.4148
   17Eth     Oh 2467   2.688   0.825   2.630 -0.7205 -0.1751  0.3534
   17Eth     Co 2468   2.612   0.712   2.652 -0.6831  0.1316  0.0925
   17Eth    Hco 2469   2.668   0.630   2.697 -0.3141  0.2674 -0.1143
   17Eth    Hco 2470   2.573   0.670   2.560  1.1775 -0.9094 -0.2477
   17Eth     Ch 2471   2.491   0.747   2.741  0.7203 -0.0055  0.4683
   17Eth    Hcc 2472   2.420   0.664   2.741 -1.8766  2.1502 -0.9300
   17Eth    Hcc 2473   2.430   0.831   2.707  0.3775 -0.7254 -0.7438
   17Eth    Hcc 2474   2.517   0.770   2.844  0.5068  0.5263  0.4065
   18Eth     Ho 2475   2.908   2.160   2.421 -0.6893 -2.9877 -1.0394
   18Eth     Oh 2476   2.995   2.129   2.438  0.4126  0.3337 -0.2035
   18Eth     Co 2477   3.003   2.093   2.574 -0.3797 -0.6514  0.2184
   18Eth    Hco 2478   3.104   2.057   2.594 -0.9418 -0.7005  3.1784
   18Eth    Hco 2479   2.933   2.010   2.585 -1.3921  0.2824  1.0337
   18Eth     Ch 2480   2.969   2.215   2.657  0.2820 -0.6871  0.4018
   18Eth    Hcc 2481   3.004   2.209   2.760 -0.3454 -1.9506  0.5507
   18Eth    Hcc 2482   2.867   2.254   2.650  0.4626 -0.1840  0.5085
   18Eth    Hcc 2483   3.017   2.305   2.616  2.4511 -1.5602  0.9337
   19Eth     Ho 2484   3.025   3.393   9.612  0.8272 -1.1019 -0.7587
   19Eth     Oh 2485   2.951   3.339   9.630  0.0748  0.1288 -0.0852
   19Eth     Co 2486   2.840   3.432   9.620  0.2213 -0.1547 -0.7674
   19Eth    Hco 2487   2.857   3.502   9.539 -2.9153 -1.2058 -2.4517
   19Eth    Hco 2488   2.830   3.494   9.709  0.6816 -0.9983 -0.1260
   19Eth     Ch 2489   2.719   3.346   9.584 -0.0227 -0.1535 -0.6589
   19Eth    Hcc 2490   2.753   3.275   9.509 -1.9349 -0.7153 -1.0309
   19Eth    Hcc 2491   2.632   3.401   9.548 -0.9681  0.1649  2.0355
   19Eth    Hcc 2492   2.686   3.279   9.663  0.6605 -0.3779 -0.5642
   20Eth     Ho 2493   0.656   1.934   6.682 -0.5465 -0.7607 -0.5127
   20Eth     Oh 2494   0.750   1.930   6.671 -0.4626 -0.2219 -0.0402
   20Eth     Co 2495   0.803   1.933   6.803 -0.5418 -0.3785  0.0870
   20Eth    Hco 2496   0.770   1.851   6.867  0.0989  1.0325  2.2752
   20Eth    Hco 2497   0.757   2.020   6.851 -0.7460 -0.5615  0.2271
   20Eth     Ch 2498   0.961   1.932   6.794 -0.1941 -0.3522  0.1448
   20Eth    Hcc 2499   0.993   1.998   6.713 -0.7078  1.2138  1.1910
   20Eth    Hcc 2500   0.998   1.835   6.760  3.4257  1.5984 -1.7695
   20Eth    Hcc 2501   1.009   1.966   6.886  0.9615 -1.6788  0.0481
   21Eth     Ho 2502   0.349   2.054   2.494  0.9293 -1.3442  0.3027
   21Eth     Oh 2503   0.290   2.024   2.560  0.1240  0.1851  0.2955
   21Eth     Co 2504   0.200   2.133   2.563  0.1305  0.5835 -0.0574
   21Eth    Hco 2505   0.173   2.149   2.459  2.7004  0.5948 -0.7666
   21Eth    Hco 2506   0.264   2.220   2.580  0.8061  0.6014 -2.4426
   21Eth     Ch 2507   0.071   2.128   2.641  0.0893 -0.8512 -0.0046
   21Eth    Hcc 2508   0.007   2.212   2.614  1.3195 -0.4174 -1.6671
   21Eth    Hcc 2509   0.091   2.132   2.748 -1.1960  1.1897  0.1805
   21Eth    Hcc 2510   0.012   2.040   2.615 -1.2959 -0.0298  0.3348
   22Eth     Ho 2511   0.432   2.056   9.807  1.6295 -0.5184  0.3361
   22Eth     Oh 2512   0.456   1.972   9.773 -0.3034 -1.0630  0.2759
   22Eth     Co 2513   0.353   1.871   9.808  0.5802  0.3089 -0.6738
   22Eth    Hco 2514   0.290   1.868   9.719  0.1028  2.3067 -0.4154
   22Eth    Hco 2515   0.294   1.901   9.895  0.0432 -0.9639 -0.5885
   22Eth     Ch 2516   0.413   1.734   9.849  0.2061 -0.5890  0.3869
   22Eth    Hcc 2517   0.468   1.697   9.763 -1.4615  1.3584 -1.5779
   22Eth    Hcc 2518   0.327   1.669   9.866  0.0604 -0.9780 -1.7451
   22Eth    Hcc 2519   0.479   1.726   9.935  1.8453  1.4979 -0.6464
   23Eth     Ho 2520   0.063   0.892   2.712 -1.1018  1.7799  0.7878
   23Eth     Oh 2521   0.033   0.842   2.785  0.0033 -0.5542 -0.3159
   23Eth     Co 2522  -0.091   0.898   2.821 -0.5258 -0.0329 -0.4412
   23Eth    Hco 2523  -0.147   0.913   2.729  1.1667  0.2765 -1.4559
   23Eth    Hco 2524  -0.067   0.993   2.870  0.0795 -0.1920 -0.4175
   23Eth     Ch 2525  -0.172   0.817   2.924 -0.4679 -0.7221 -0.2903
   23Eth    Hcc 2526  -0.261   0.864   2.967 -0.5073 -1.3924  0.3746
   23Eth    Hcc 2527  -0.100   0.795   3.003  0.4667  0.8753 -0.6635
   23Eth    Hcc 2528  -0.219   0.733   2.873 -0.2528 -0.7131 -0.5033
   24Eth     Ho 2529   2.258   2.492   1.996  1.2736 -2.1766 -0.1034
   24Eth     Oh 2530   2.326   2.556   1.989 -0.3974 -0.3370 -0.0729
   24Eth     Co 2531   2.353   2.588   1.853  0.1973  0.4657 -0.5719
   24Eth    Hco 2532   2.268   2.569   1.788  0.2255 -0.8276 -0.2438
   24Eth    Hco 2533   2.447   2.535   1.834  1.0020  1.7121 -0.1294
   24Eth     Ch 2534   2.393   2.736   1.831  0.0211  1.2429  0.5337
   24Eth    Hcc 2535   2.481   2.761   1.889  0.1134  0.2120  0.8350
   24Eth    Hcc 2536   2.319   2.808   1.866 -2.5025 -1.7062  1.4629
   24Eth    Hcc 2537   2.407   2.765   1.727 -1.3773  0.9412  0.2475
   25Eth     Ho 2538   2.286   2.145   5.245 -1.1628 -1.0732 -0.8440
   25Eth     Oh 2539   2.334   2.169   5.168 -0.2859 -0.0434 -0.0010
   25Eth     Co 2540   2.332   2.070   5.074  0.8842 -0.1717  0.3537
   25Eth    Hco 2541   2.230   2.041   5.048  1.2610 -1.6128  0.4425
   25Eth    Hco 2542   2.382   1.983   5.116  0.4576 -1.7819 -2.3989
   25Eth     Ch 2543   2.403   2.113   4.939 -0.0955  0.5744 -0.4592
   25Eth    Hcc 2544   2.365   2.210   4.904 -0.7483  0.8562  0.9968
   25Eth    Hcc 2545   2.375   2.043   4.860  1.6159 -1.1550  0.4361
   25Eth    Hcc 2546   2.512   2.117   4.946  0.1560  2.0792 -4.0560
   26Eth     Ho 2547   3.094   0.781   6.204 -3.3386  0.1481 -1.1857
   26Eth     Oh 2548   3.069   0.823   6.284 -0.4176 -0.0471 -0.1154
   26Eth     Co 2549   2.977   0.727   6.337  0.3656 -0.3374  0.0557
   26Eth    Hco 2550   3.023   0.628   6.334  1.0169 -0.0693  0.8309
   26Eth    Hco 2551   2.881   0.728   6.285  0.2489 -0.8250  0.2620
   26Eth     Ch 2552   2.954   0.761   6.486  1.2589 -0.0240 -0.5006
   26Eth    Hcc 2553   2.883   0.686   6.523  0.5014  0.3423 -1.1878
   26Eth    Hcc 2554   2.902   0.853   6.513  1.0584 -0.4759  0.6916
   26Eth    Hcc 2555   3.041   0.753   6.551  1.4380 -1.7237 -0.9193
   27Eth     Ho 2556   2.584   0.565   3.798 -0.1157 -0.0061  0.1929
   27Eth     Oh 2557   2.658   0.621   3.813  0.1276 -0.0942 -0.6397
   27Eth     Co 2558   2.624   0.754   3.803 -0.1745  0.2590 -0.0805
   27Eth    Hco 2559   2.517   0.764   3.816 -0.2528  1.8125 -1.8256
   27Eth    Hco 2560   2.640   0.780   3.699  0.7101  0.4247  0.0851
   27Eth     Ch 2561   2.718   0.826   3.894 -0.1443  0.0177  0.5232
   27Eth    Hcc 2562   2.825   0.817   3.877 -0.4376 -0.0788 -1.3882
   27Eth    Hcc 2563   2.696   0.797   3.997  4.3591  1.0815  1.8778
   27Eth    Hcc 2564   2.701   0.933   3.876  0.6446 -0.5592 -4.4481
   28Eth     Ho 2565   1.545   2.175   4.280 -0.7306  1.0441  0.2756
   28Eth     Oh 2566   1.578   2.138   4.360 -0.3804 -0.1358 -0.4033
   28Eth     Co 2567   1.549   2.231   4.464 -0.3743  0.1370 -0.1770
   28Eth    Hco 2568   1.587   2.330   4.439  0.8593 -0.3489 -0.2590
   28Eth    Hco 2569   1.602   2.193   4.551 -0.5766  0.3810  0.0538
   28Eth     Ch 2570   1.400   2.254   4.498 -0.3450  0.5456 -0.0759
   28Eth    Hcc 2571   1.358   2.177   4.563  1.6711 -0.4450  0.0906
   28Eth    Hcc 2572   1.340   2.267   4.408  0.3529  3.3972 -0.1906
   28Eth    Hcc 2573   1.395   2.348   4.554 -0.0132  1.5514 -1.7031
   29Eth     Ho 2574   2.125   0.880   2.443 -0.9145 -0.6673 -1.8133
   29Eth     Oh 2575   2.049   0.917   2.484  0.5719  0.1757  0.2890
   29Eth     Co 2576   1.948   0.816   2.485 -0.5017 -0.5433  0.4272
   29Eth    Hco 2577   1.982   0.721   2.525 -2.6914 -2.6405 -2.4649
   29Eth    Hco 2578   1.914   0.798   2.383  0.5137  0.2494 -0.0543
   29Eth     Ch 2579   1.832   0.876   2.573 -0.3857 -0.3594 -0.2413
   29Eth    Hcc 2580   1.814   0.827   2.669  0.7739  0.0083  0.1699
   29Eth    Hcc 2581   1.736   0.887   2.522  0.2144  0.6972 -1.1619
   29Eth    Hcc 2582   1.852   0.979   2.602 -1.8407  0.4298 -1.9292
   30Eth     Ho 2583   0.256   1.889   1.558  0.9327  1.9000  0.2045
   30Eth     Oh 2584   0.327   1.868   1.500  0.0883 -0.0825 -0.1462
   30Eth     Co 2585   0.419   1.963   1.543  0.3561  0.0997  0.1084
   30Eth    Hco 2586   0.452   1.935   1.643 -0.2856 -0.4208  0.1744
   30Eth    Hco 2587   0.393   2.069   1.541  2.5385  0.6533  0.1138
   30Eth     Ch 2588   0.535   1.932   1.438 -0.0407 -0.0432  0.0401
   30Eth    Hcc 2589   0.566   1.828   1.442  0.8605  0.2470  0.8672
   30Eth    Hcc 2590   0.622   1.996   1.452  0.1229  0.3192 -2.4543
   30Eth    Hcc 2591   0.507   1.956   1.335  0.5008 -2.8128 -0.7893
   31Eth     Ho 2592   0.569   0.255   2.402 -1.6464  0.4649  0.5791
   31Eth     Oh 2593   0.553   0.162   2.400  1.0845 -0.0747  0.5073
   31Eth     Co 2594   0.412   0.147   2.430 -0.3623 -0.5124  0.4847
   31Eth    Hco 2595   0.362   0.238   2.396 -1.3405 -1.0031  0.6026
   31Eth    Hco 2596   0.389   0.166   2.535 -1.1420  2.6134 -0.1822
   31Eth     Ch 2597   0.332   0.032   2.367 -0.7173 -0.3824  0.0939
   31Eth    Hcc 2598   0.321   0.041   2.259  2.6888 -1.7865 -0.4109
   31Eth    Hcc 2599   0.231   0.037   2.408 -0.4940  1.2745  0.4768
   31Eth    Hcc 2600   0.371  -0.066   2.392 -1.4650 -1.3682 -2.5078
   32Eth     Ho 2601   0.626   0.319   9.501 -2.2426  1.1949 -0.8940
   32Eth     Oh 2602   0.574   0.276   9.566  0.0079  0.1156  0.2785
   32Eth     Co 2603   0.527   0.382   9.647  0.1159  0.4929  0.0692
   32Eth    Hco 2604   0.483   0.455   9.578  0.9863 -0.7082 -1.7808
   32Eth    Hco 2605   0.607   0.440   9.692  0.9259 -0.0804 -0.6344
   32Eth     Ch 2606   0.434   0.331   9.755  0.0213  0.1466  0.2169
   32Eth    Hcc 2607   0.497   0.266   9.816  0.6494 -2.5592 -3.1491
   32Eth    Hcc 2608   0.354   0.274   9.707 -1.5252  1.5516  1.0772
   32Eth    Hcc 2609   0.389   0.420   9.800  0.2502  0.0766  0.5888
   33Eth     Ho 2610   2.401   2.618   7.324  0.7583 -0.0046 -0.2992
   33Eth     Oh 2611   2.353   2.698   7.335  0.0937 -0.4832  0.3765
   33Eth     Co 2612   2.308   2.746   7.204  0.4351 -0.2471  0.2284
   33Eth    Hco 2613   2.243   2.669   7.162  0.2984 -0.5695  1.0251
   33Eth    Hco 2614   2.396   2.752   7.140  0.4635  0.5107  0.3448
   33Eth     Ch 2615   2.230   2.873   7.215 -0.0579  0.1796 -0.2794
   33Eth    Hcc 2616   2.171   2.898   7.127  1.8594 -0.3269 -1.7458
   33Eth    Hcc 2617   2.302   2.953   7.233 -1.0187  1.2505 -1.1108
   33Eth    Hcc 2618   2.169   2.885   7.304  0.3993  1.2996 -0.1069
   34Eth     Ho 2619   0.141   1.513   7.849  3.0515  0.5858  3.2026
   34Eth     Oh 2620   0.115   1.603   7.854 -0.3089 -0.0790  0.0270
   34Eth     Co 2621   0.229   1.670   7.901  0.3810  0.1712  0.7735
   34Eth    Hco 2622   0.234   1.773   7.864  0.6957 -0.4942 -1.0995
   34Eth    Hco 2623   0.321   1.629   7.859  1.1178  0.7438  1.8166
   34Eth     Ch 2624   0.236   1.673   8.047 -0.2795  0.1304  0.2522
   34Eth    Hcc 2625   0.311   1.742   8.085 -0.0435  1.3374 -2.2938
   34Eth    Hcc 2626   0.274   1.577   8.082  0.9410  0.6652  0.3997
   34Eth    Hcc 2627   0.145   1.711   8.094 -0.0158 -0.9724  1.6991
   35Eth     Ho 2628   3.049   1.843   6.793  0.6372  0.0771  0.7217
   35Eth     Oh 2629   3.109   1.852   6.721  0.1426  0.6308  0.3739
   35Eth     Co 2630   3.220   1.764   6.740 -0.1568 -0.3211 -0.3069
   35Eth    Hco 2631   3.189   1.665   6.773  0.8515  0.2246  2.3432
   35Eth    Hco 2632   3.268   1.812   6.825  0.0862 -1.1977  0.0588
   35Eth     Ch 2633   3.303   1.759   6.608  0.7197 -0.5300  0.1008
   35Eth    Hcc 2634   3.401   1.715   6.628  0.4350 -0.6218  1.2903
   35Eth    Hcc 2635   3.329   1.859   6.575 -2.1539  0.3218  0.3303
   35Eth    Hcc 2636   3.244   1.707   6.532  0.9356 -0.4161 -0.1495
   36Eth     Ho 2637   3.285   1.853   1.490 -0.4384 -1.2031  2.1222
   36Eth     Oh 2638   3.199   1.884   1.509 -0.5387  0.3195 -0.5839
   36Eth     Co 2639   3.175   2.007   1.429  0.5319  0.2921  0.4007
   36Eth    Hco 2640   3.189   1.995   1.321 -0.6777  0.9139  0.1667
   36Eth    Hco 2641   3.251   2.081   1.454  0.7502 -0.1561  1.0564
   36Eth     Ch 2642   3.039   2.060   1.440  0.0473 -0.2718 -0.0988
   36Eth    Hcc 2643   3.023   2.154   1.388 -1.9625  0.0245  1.0069
   36Eth    Hcc 2644   3.011   2.088   1.542  1.7046  2.9584 -0.4589
   36Eth    Hcc 2645   2.957   1.992   1.417  0.6407 -2.0413  2.7284
   37Eth     Ho 2646   1.813   1.248   8.101  0.6405  0.8953 -1.6034
   37Eth     Oh 2647   1.731   1.239   8.056  0.1902 -0.2281 -0.5958
   37Eth     Co 2648   1.758   1.238   7.915 -0.6395 -0.2821 -0.4705
   37Eth    Hco 2649   1.848   1.181   7.893  2.1199  3.9331 -0.6309
   37Eth    Hco 2650   1.775   1.339   7.876  1.6075  0.0056  1.1469
   37Eth     Ch 2651   1.637   1.183   7.841  0.8962  0.3474  0.3002
   37Eth    Hcc 2652   1.614   1.082   7.876  1.1354  0.0865 -0.2913
   37Eth    Hcc 2653   1.656   1.188   7.734 -2.5865  0.1708 -0.4080
   37Eth    Hcc 2654   1.559   1.259   7.848  0.0715 -0.4974  0.4260
   38Eth     Ho 2655   0.923   1.933   2.460  1.4883 -0.8916  0.0298
   38Eth     Oh 2656   0.964   2.017   2.473  0.7802 -0.5611  0.1729
   38Eth     Co 2657   1.029   2.051   2.355 -0.0261 -0.2475  0.1785
   38Eth    Hco 2658   0.996   1.992   2.270  1.1874  0.1942 -0.6075
   38Eth    Hco 2659   1.135   2.030   2.370 -0.1274 -1.1856 -0.4236
   38Eth     Ch 2660   1.009   2.198   2.335 -0.0140 -0.7805 -0.3605
   38Eth    Hcc 2661   1.053   2.241   2.426 -1.5127 -0.0405  0.0369
   38Eth    Hcc 2662   0.903   2.223   2.330 -0.4174 -1.8309  2.1847
   38Eth    Hcc 2663   1.063   2.238   2.249 -2.3026 -0.1818 -1.5496
   39Eth     Ho 2664   0.241   1.024   8.256 -2.3807  2.2399 -0.0899
   39Eth     Oh 2665   0.183   0.957   8.226  0.3493 -0.4760  0.5380
   39Eth     Co 2666   0.243   0.834   8.257  0.4549  1.1505  0.4490
   39Eth    Hco 2667   0.252   0.829   8.365  0.9327 -0.4531  0.3602
   39Eth    Hco 2668   0.346   0.824   8.223 -0.0033  2.9716 -1.6462
   39Eth     Ch 2669   0.159   0.715   8.210  0.1098 -0.1485  0.7507
   39Eth    Hcc 2670   0.145   0.733   8.103  2.5719  0.5944  0.5288
   39Eth    Hcc 2671   0.064   0.712   8.263  0.8031 -1.1223  1.9540
   39Eth    Hcc 2672   0.199   0.617   8.235 -1.1153 -1.1003 -0.9087
   40Eth     Ho 2673   1.835   0.052   7.516 -1.8371 -1.1563  1.2199
   40Eth     Oh 2674   1.825  -0.006   7.443  0.4295 -0.1430  0.0587
   40Eth     Co 2675   1.687  -0.032   7.448 -0.4106  0.8618 -0.0033
   40Eth    Hco 2676   1.628   0.058   7.462 -1.2898  0.1312  1.0341
   40Eth    Hco 2677   1.679  -0.090   7.540 -0.7115  0.5567 -0.2173
   40Eth     Ch 2678   1.657  -0.088   7.312 -0.2474 -0.0747  0.2523
   40Eth    Hcc 2679   1.550  -0.109   7.310 -0.3780  0.5114  0.6451
   40Eth    Hcc 2680   1.709  -0.179   7.286 -0.5760  0.0360 -0.8332
   40Eth    Hcc 2681   1.680  -0.017   7.232 -0.5750 -1.8199 -1.4107
   41Eth     Ho 2682   2.907   0.552   1.550  1.0130  1.3598 -1.7875
   41Eth     Oh 2683   2.971   0.483   1.553 -0.6000 -0.1214 -0.2426
   41Eth     Co 2684   3.072   0.528   1.466 -0.1034  0.7726 -0.1121
   41Eth    Hco 2685   3.124   0.612   1.511  2.1947 -0.3189 -0.6350
   41Eth    Hco 2686   3.031   0.558   1.370 -0.7621  0.3026  0.0158
   41Eth     Ch 2687   3.170   0.412   1.433 -0.1728 -0.4583  0.4195
   41Eth    Hcc 2688   3.261   0.459   1.397 -0.3034 -1.7253 -1.6729
   41Eth    Hcc 2689   3.131   0.357   1.347  1.0908 -3.7936  1.8850
   41Eth    Hcc 2690   3.197   0.347   1.517 -0.8597 -0.3364  0.7325
   42Eth     Ho 2691   3.056   1.917   7.892 -2.5727  1.1884  0.0425
   42Eth     Oh 2692   3.017   1.886   7.972 -0.5551 -0.7526  0.3295
   42Eth     Co 2693   3.029   1.984   8.070 -0.6470  0.3483  0.3646
   42Eth    Hco 2694   2.946   2.053   8.053 -0.1858  0.7410 -0.3627
   42Eth    Hco 2695   3.125   2.034   8.069 -0.1204 -0.6603  0.2950
   42Eth     Ch 2696   3.012   1.928   8.217  0.2621 -0.2107 -0.2097
   42Eth    Hcc 2697   2.920   1.869   8.218  0.2469 -0.1780  0.2367
   42Eth    Hcc 2698   3.002   2.010   8.287 -0.4898 -0.6498  0.2087
   42Eth    Hcc 2699   3.096   1.863   8.238  0.2298 -0.1206  0.2016
   43Eth     Ho 2700   0.228   1.305   8.753 -1.2506 -0.2064  0.6702
   43Eth     Oh 2701   0.258   1.341   8.835  0.8131 -0.2366 -0.0225
   43Eth     Co 2702   0.344   1.451   8.802  0.9229 -0.2013 -0.1304
   43Eth    Hco 2703   0.305   1.527   8.735 -1.5930  0.2274  1.7262
   43Eth    Hco 2704   0.431   1.413   8.748  0.4305  1.2097 -1.9507
   43Eth     Ch 2705   0.386   1.519   8.936  0.1515  0.1997  0.2533
   43Eth    Hcc 2706   0.420   1.449   9.012  0.9186  1.1264  0.7649
   43Eth    Hcc 2707   0.303   1.576   8.978 -1.3893 -1.4788 -0.4233
   43Eth    Hcc 2708   0.464   1.591   8.911  1.2967 -0.7463  1.0521
   44Eth     Ho 2709   2.328   1.645   3.351  0.6799 -1.0742 -0.1401
   44Eth     Oh 2710   2.245   1.651   3.394  0.6310 -0.0340 -0.3745
   44Eth     Co 2711   2.213   1.509   3.389 -0.6504 -0.0227  0.4298
   44Eth    Hco 2712   2.258   1.475   3.296  1.5130 -0.4254  1.6086
   44Eth    Hco 2713   2.107   1.485   3.385 -0.4449 -0.5963 -2.1315
   44Eth     Ch 2714   2.280   1.428   3.497  0.0596  1.0182 -0.3319
   44Eth    Hcc 2715   2.270   1.320   3.488 -0.1677  1.0800 -0.8751
   44Eth    Hcc 2716   2.257   1.444   3.602 -2.4733 -0.3628 -0.6477
   44Eth    Hcc 2717   2.388   1.445   3.491  0.2640 -0.2967 -0.4716
   45Eth     Ho 2718   1.080   3.176   7.740 -0.1643  0.5244  0.9173
   45Eth     Oh 2719   1.125   3.247   7.699  0.5187 -0.2375  0.3172
   45Eth     Co 2720   1.053   3.289   7.584  0.1474  0.1526 -0.2155
   45Eth    Hco 2721   0.947   3.270   7.598 -0.1692  0.7586 -1.6293
   45Eth    Hco 2722   1.090   3.230   7.500  0.0346 -1.2673  0.7184
   45Eth     Ch 2723   1.088   3.434   7.537 -0.6982  0.0180  0.3820
   45Eth    Hcc 2724   1.190   3.447   7.501 -1.3266  0.8259 -1.1642
   45Eth    Hcc 2725   1.070   3.504   7.618  1.8248 -0.1312  1.1256
   45Eth    Hcc 2726   1.027   3.465   7.452 -0.7576  1.7834  1.0592
   46Eth     Ho 2727   0.342   2.777   1.794  2.9470  0.7344 -1.3436
   46Eth     Oh 2728   0.337   2.838   1.864  0.8106 -0.6659 -0.2011
   46Eth     Co 2729   0.408   2.947   1.827 -0.2596 -0.1296 -0.6399
   46Eth    Hco 2730   0.489   2.915   1.762  0.1262 -0.3326 -0.0705
   46Eth    Hco 2731   0.447   3.001   1.914  1.5625  0.6057 -1.8823
   46Eth     Ch 2732   0.327   3.058   1.757  0.3578 -0.3604  0.2547
   46Eth    Hcc 2733   0.383   3.149   1.734 -0.5758 -0.5814 -3.2238
   46Eth    Hcc 2734   0.239   3.092   1.812 -0.0620 -2.2096  0.7683
   46Eth    Hcc 2735   0.296   3.021   1.659  0.7980 -3.5481  1.2736
   47Eth     Ho 2736   3.224   2.411   9.596 -1.6869  0.6546 -1.1067
   47Eth     Oh 2737   3.232   2.497   9.634  0.4820 -0.0296  0.0187
   47Eth     Co 2738   3.346   2.504   9.709  0.8387  0.0908 -0.7288
   47Eth    Hco 2739   3.414   2.428   9.671 -3.6024 -2.2042 -4.5391
   47Eth    Hco 2740   3.321   2.477   9.812 -1.0619  0.0095 -1.1962
   47Eth     Ch 2741   3.404   2.638   9.709  0.2173  0.3316  0.4385
   47Eth    Hcc 2742   3.342   2.718   9.751 -0.1989  2.1226 -3.4037
   47Eth    Hcc 2743   3.450   2.664   9.614  0.1690 -0.3690  0.2217
   47Eth    Hcc 2744   3.490   2.632   9.775  1.7128  1.3295 -1.3832
   48Eth     Ho 2745   1.822   3.076   4.860 -0.2490  0.6101 -1.2983
   48Eth     Oh 2746   1.888   3.126   4.905 -0.3293 -0.3101 -0.1334
   48Eth     Co 2747   1.995   3.038   4.929 -0.1052 -0.0501 -0.3665
   48Eth    Hco 2748   2.010   2.975   4.841  0.1154 -0.1654 -0.2485
   48Eth    Hco 2749   1.963   2.977   5.013 -0.8243  0.5301 -0.2151
   48Eth     Ch 2750   2.121   3.123   4.933  0.9645  0.2384  0.2721
   48Eth    Hcc 2751   2.203   3.060   4.967  1.7824  0.9097 -0.4275
   48Eth    Hcc 2752   2.112   3.215   4.991 -1.7192 -0.5809  1.2631
   48Eth    Hcc 2753   2.150   3.149   4.832  3.3449  0.0482  0.8669
   49Eth     Ho 2754   1.656   2.492   7.271  0.9158 -1.0233 -0.5242
   49Eth     Oh 2755   1.705   2.564   7.237  0.3432 -0.4200 -0.0677
   49Eth     Co 2756   1.831   2.549   7.294 -0.7798  0.1178  0.4273
   49Eth    Hco 2757   1.868   2.455   7.253 -0.1655  0.4302  0.2519
   49Eth    Hco 2758   1.814   2.537   7.401 -0.6183  0.3484  0.4817
   49Eth     Ch 2759   1.924   2.674   7.273  0.0237 -0.2731  0.3239
   49Eth    Hcc 2760   1.955   2.686   7.169  0.2324 -1.5111  0.2348
   49Eth    Hcc 2761   2.016   2.661   7.329 -0.2855 -1.0298  0.6583
   49Eth    Hcc 2762   1.871   2.765   7.300  0.6678 -0.0007  0.6607
   50Eth     Ho 2763   1.655   0.645   9.318  0.6607 -1.2317  0.2835
   50Eth     Oh 2764   1.711   0.704   9.365 -0.5643  0.0144  0.2247
   50Eth     Co 2765   1.804   0.625   9.428 -0.4320  0.4210 -0.6632
   50Eth    Hco 2766   1.856   0.561   9.358 -0.9437 -0.5554 -0.1611
   50Eth    Hco 2767   1.736   0.558   9.481 -1.3443  0.1182 -2.1976
   50Eth     Ch 2768   1.907   0.697   9.516 -0.3995 -0.6487 -0.1860
   50Eth    Hcc 2769   1.978   0.764   9.468 -1.4504 -0.9376 -2.2055
   50Eth    Hcc 2770   1.968   0.620   9.563  1.4368  1.0682  0.2638
   50Eth    Hcc 2771   1.848   0.739   9.598 -2.5163 -1.8531 -1.0477
   51Eth     Ho 2772   2.354   0.565   9.812  0.9414  0.0739  1.5707
   51Eth     Oh 2773   2.333   0.656   9.820 -0.3494 -0.0903  0.2995
   51Eth     Co 2774   2.206   0.670   9.880 -0.3781 -0.4202 -0.6117
   51Eth    Hco 2775   2.210   0.688   9.988 -1.3686 -0.5803 -0.5453
   51Eth    Hco 2776   2.166   0.570   9.862 -0.9459 -0.2032 -0.5674
   51Eth     Ch 2777   2.139   0.797   9.830 -0.5175  0.0364  0.1973
   51Eth    Hcc 2778   2.139   0.810   9.722 -1.1958 -0.3436  0.1417
   51Eth    Hcc 2779   2.185   0.884   9.876 -0.8517 -1.3443  3.3161
   51Eth    Hcc 2780   2.038   0.799   9.871 -1.9165 -0.2835 -3.1185
   52Eth     Ho 2781   2.692   3.024   9.525 -1.8043  1.1438 -3.8809
   52Eth     Oh 2782   2.606   3.002   9.555 -0.0671 -0.2486  0.5047
   52Eth     Co 2783   2.626   2.904   9.656 -0.2728  0.1741 -0.6393
   52Eth    Hco 2784   2.713   2.939   9.712 -0.2601  0.5663 -0.9019
   52Eth    Hco 2785   2.653   2.813   9.601 -1.2268 -1.7151  1.9482
   52Eth     Ch 2786   2.510   2.878   9.755  0.3923  0.1145 -0.3385
   52Eth    Hcc 2787   2.511   2.951   9.836  0.7364 -0.7083  0.4113
   52Eth    Hcc 2788   2.525   2.781   9.804 -2.1143  0.8667  2.0718
   52Eth    Hcc 2789   2.411   2.864   9.710 -0.5722 -0.1120  1.7865
   53Eth     Ho 2790   1.313   1.819   8.519  1.3386  2.8643  1.8969
   53Eth     Oh 2791   1.237   1.870   8.499  0.2107  0.6896  0.3636
   53Eth     Co 2792   1.249   1.989   8.575 -0.7722 -0.7112  0.4499
   53Eth    Hco 2793   1.327   2.056   8.538 -0.5741 -1.2915 -0.2101
   53Eth    Hco 2794   1.261   1.982   8.683  0.8645 -1.0124  0.2709
   53Eth     Ch 2795   1.116   2.045   8.557 -0.2737 -0.8622 -0.4746
   53Eth    Hcc 2796   1.119   2.154   8.565  0.0012 -0.7685 -1.7629
   53Eth    Hcc 2797   1.033   2.018   8.623  0.5729 -4.8094 -0.9284
   53Eth    Hcc 2798   1.078   2.023   8.457  1.4590  3.2357 -2.1552
   54Eth     Ho 2799   1.649   3.370   3.325 -1.2087  0.0830 -0.2895
   54Eth     Oh 2800   1.690   3.410   3.250  0.0603  0.4435  0.5733
   54Eth     Co 2801   1.811   3.473   3.280 -0.3261 -0.8248  0.1509
   54Eth    Hco 2802   1.883   3.392   3.293 -0.6424 -0.8610  1.7274
   54Eth    Hco 2803   1.807   3.539   3.366  0.6218 -0.0771 -0.3680
   54Eth     Ch 2804   1.842   3.550   3.154  0.6079 -0.1082 -0.4245
   54Eth    Hcc 2805   1.939   3.599   3.160 -0.2325  1.5280  0.2934
   54Eth    Hcc 2806   1.775   3.635   3.137 -0.0618 -0.3130  1.1881
   54Eth    Hcc 2807   1.844   3.493   3.061 -0.4982 -0.0667 -0.4905
   55Eth     Ho 2808   0.375   0.075   1.715 -0.3918  0.6976 -1.0714
   55Eth     Oh 2809   0.437   0.031   1.659  0.2297  0.2618 -0.0415
   55Eth     Co 2810   0.360  -0.056   1.569 -0.5576 -0.4350 -1.0149
   55Eth    Hco 2811   0.290   0.002   1.507 -1.1556 -0.6166 -0.5203
   55Eth    Hco 2812   0.295  -0.108   1.639  1.2799 -1.8343 -0.3341
   55Eth     Ch 2813   0.442  -0.157   1.492 -0.4492  0.2353  0.1066
   55Eth    Hcc 2814   0.526  -0.200   1.546  0.0839  1.1586  0.0107
   55Eth    Hcc 2815   0.483  -0.109   1.403 -1.5931 -1.0536 -1.1474
   55Eth    Hcc 2816   0.378  -0.240   1.460  0.8469 -1.9853  3.0766
   56Eth     Ho 2817   0.608   0.079   1.599 -0.0383  0.8206  0.9881
   56Eth     Oh 2818   0.685   0.116   1.561 -0.0072 -0.0914  0.1719
   56Eth     Co 2819   0.744   0.008   1.490 -0.3139 -0.7881  0.8912
   56Eth    Hco 2820   0.716   0.009   1.385 -1.9234  1.3156  1.3087
   56Eth    Hco 2821   0.682  -0.068   1.538  1.5000 -1.2581  2.5554
   56Eth     Ch 2822   0.894  -0.010   1.515 -0.4094  0.3582 -0.2716
   56Eth    Hcc 2823   0.921  -0.014   1.620  1.4877  0.5662 -0.7421
   56Eth    Hcc 2824   0.936   0.076   1.463 -1.3399  0.8507 -0.2263
   56Eth    Hcc 2825   0.936  -0.094   1.459 -0.1476 -0.1767  0.7283
   57Eth     Ho 2826   0.005   2.112   8.851 -0.3666  0.0820  2.0893
   57Eth     Oh 2827   0.040   2.199   8.854 -0.5249  0.2185  0.2935
   57Eth     Co 2828  -0.068   2.290   8.823  0.5219 -0.0079 -0.6802
   57Eth    Hco 2829  -0.136   2.321   8.902 -0.7387  0.2218 -1.8355
   57Eth    Hco 2830  -0.129   2.241   8.748 -1.3588 -1.3360  1.6800
   57Eth     Ch 2831  -0.011   2.414   8.757 -0.2145  0.3322 -0.7566
   57Eth    Hcc 2832  -0.064   2.503   8.789 -1.0850 -0.5608  0.3153
   57Eth    Hcc 2833  -0.025   2.406   8.649 -1.8227  0.5537 -0.5777
   57Eth    Hcc 2834   0.093   2.435   8.782  0.4120 -0.7990 -2.3643
   58Eth     Ho 2835   2.214   3.449   9.870  0.4664 -0.4569 -2.3025
   58Eth     Oh 2836   2.268   3.375   9.888  0.1663 -0.0776  0.4161
   58Eth     Co 2837   2.202   3.267   9.833 -0.5575  0.3792 -0.0638
   58Eth    Hco 2838   2.214   3.292   9.728  0.1026  2.8935  0.5715
   58Eth    Hco 2839   2.098   3.250   9.861 -0.8963 -0.5359 -1.8040
   58Eth     Ch 2840   2.288   3.140   9.866  0.3677 -1.0083  1.5003
   58Eth    Hcc 2841   2.308   3.128   9.973  0.5443 -1.1207  1.4563
   58Eth    Hcc 2842   2.388   3.158   9.824  0.2617 -0.3956  1.4988
   58Eth    Hcc 2843   2.256   3.044   9.826 -1.5665 -0.4720  1.7133
   59Eth     Ho 2844   0.400   0.067   6.355  0.2146  0.4033  0.3108
   59Eth     Oh 2845   0.493   0.052   6.364  0.2093 -0.0942 -0.4096
   59Eth     Co 2846   0.551   0.122   6.258  0.4607  0.0643  0.2358
   59Eth    Hco 2847   0.496   0.215   6.245  0.0271 -0.5087 -2.2295
   59Eth    Hco 2848   0.541   0.061   6.168  2.8685 -0.2426  0.1512
   59Eth     Ch 2849   0.693   0.162   6.284 -0.1979 -0.8676 -0.1543
   59Eth    Hcc 2850   0.729   0.223   6.201  0.6661 -1.3249 -0.1190
   59Eth    Hcc 2851   0.750   0.069   6.280  1.9685  0.4588 -1.3864
   59Eth    Hcc 2852   0.702   0.210   6.381  2.0507 -1.0967 -0.2249
   60Eth     Ho 2853   0.469   0.772   9.613 -1.8407  2.4506 -0.0769
   60Eth     Oh 2854   0.452   0.728   9.695  0.4287  0.1805 -0.7884
   60Eth     Co 2855   0.518   0.795   9.794  0.1715 -0.6519  0.6689
   60Eth    Hco 2856   0.471   0.894   9.795  0.2652 -0.6150  1.2375
   60Eth    Hco 2857   0.625   0.802   9.778 -0.1812  1.9149 -1.0301
   60Eth     Ch 2858   0.496   0.721   9.921  0.0764  0.2506  0.2624
   60Eth    Hcc 2859   0.563   0.762   9.997  1.6647 -0.5389 -0.6737
   60Eth    Hcc 2860   0.520   0.615   9.919  0.2216  0.2879 -1.5884
   60Eth    Hcc 2861   0.394   0.729   9.959 -0.9739 -1.9558 -1.9589
   61Eth     Ho 2862   2.943   3.045   1.558 -1.5905 -0.4435 -0.6285
   61Eth     Oh 2863   2.994   2.970   1.536  0.0825  0.5529 -0.2348
   61Eth     Co 2864   3.112   3.022   1.490  0.0029  0.0964 -0.7134
   61Eth    Hco 2865   3.123   3.105   1.560 -0.6062 -0.5305  0.1352
   61Eth    Hco 2866   3.102   3.064   1.390 -1.5153  0.4401 -0.4406
   61Eth     Ch 2867   3.235   2.928   1.494  0.4220  0.4999 -0.0482
   61Eth    Hcc 2868   3.237   2.864   1.582 -1.7686  3.2226  2.0800
   61Eth    Hcc 2869   3.337   2.968   1.500 -0.1167  1.7922  0.9447
   61Eth    Hcc 2870   3.233   2.868   1.404 -0.5814  0.7367 -0.1818
   62Eth     Ho 2871   1.268   2.920   6.381 -0.9378 -3.2611 -1.4977
   62Eth     Oh 2872   1.352   2.916   6.340 -0.1107  0.7007 -0.4471
   62Eth     Co 2873   1.326   2.933   6.201  0.4691  0.0576  0.2258
   62Eth    Hco 2874   1.297   3.037   6.182 -1.2787  0.0173  2.4612
   62Eth    Hco 2875   1.236   2.878   6.174  0.4928  0.2296 -0.2208
   62Eth     Ch 2876   1.442   2.903   6.112  0.1542  0.2078 -0.0684
   62Eth    Hcc 2877   1.431   2.916   6.004 -2.3635  0.3260  0.1692
   62Eth    Hcc 2878   1.461   2.796   6.126 -0.4232  0.1828  0.5054
   62Eth    Hcc 2879   1.522   2.964   6.154  1.4998 -1.1249 -0.6456
   63Eth     Ho 2880   2.404   0.879   6.650 -0.8515 -1.7242  1.8127
   63Eth     Oh 2881   2.442   0.806   6.603  0.0908 -0.1801  0.1113
   63Eth     Co 2882   2.530   0.870   6.507  0.2090  0.6604  0.6159
   63Eth    Hco 2883   2.626   0.894   6.553 -1.0698  2.1030  2.6102
   63Eth    Hco 2884   2.475   0.956   6.469  0.8060 -0.6260 -3.3789
   63Eth     Ch 2885   2.539   0.784   6.386  0.5316 -0.1260 -0.3115
   63Eth    Hcc 2886   2.599   0.694   6.402  0.6537 -0.2607 -1.4917
   63Eth    Hcc 2887   2.589   0.839   6.306 -0.2702 -1.0229 -1.4534
   63Eth    Hcc 2888   2.442   0.767   6.338  0.6968 -0.7932 -0.4215
   64Eth     Ho 2889   2.144   2.707   4.943 -0.7461  0.9664  2.9847
   64Eth     Oh 2890   2.090   2.631   4.934  0.5216  0.3213  0.1080
   64Eth     Co 2891   2.009   2.666   4.828 -0.4151  0.1020 -0.1385
   64Eth    Hco 2892   2.075   2.717   4.757 -1.5938  1.6960 -0.1227
   64Eth    Hco 2893   1.926   2.730   4.857 -1.1486 -1.0540  0.3317
   64Eth     Ch 2894   1.945   2.531   4.793 -1.1857 -0.2098  0.3218
   64Eth    Hcc 2895   1.885   2.503   4.879 -1.3959 -1.7229 -0.3064
   64Eth    Hcc 2896   2.013   2.450   4.767 -1.9753 -0.9909  0.6962
   64Eth    Hcc 2897   1.883   2.553   4.706 -0.0438  1.2293 -0.1731
   65Eth     Ho 2898   3.037   2.271   9.645  2.0660  2.8904  2.9962
   65Eth     Oh 2899   2.954   2.267   9.689  0.2300  0.1225 -0.4148
   65Eth     Co 2900   2.962   2.166   9.792  0.5868 -0.0568  0.5131
   65Eth    Hco 2901   3.037   2.204   9.862 -0.2000 -1.5414  2.2047
   65Eth    Hco 2902   2.982   2.067   9.752  0.3583  0.1785 -0.1878
   65Eth     Ch 2903   2.828   2.141   9.856  0.0924  0.9570 -0.0458
   65Eth    Hcc 2904   2.810   2.204   9.943 -0.3594  1.3391 -0.4143
   65Eth    Hcc 2905   2.822   2.041   9.900  2.2975  0.7637 -0.1038
   65Eth    Hcc 2906   2.749   2.141   9.781 -0.7274 -1.3125  0.7729
   66Eth     Ho 2907   3.137   2.324   8.282 -0.1105 -0.4627 -0.3459
   66Eth     Oh 2908   3.068   2.387   8.272 -0.3239 -0.6195  0.1491
   66Eth     Co 2909   2.951   2.340   8.334  0.0673  0.4250  0.1674
   66Eth    Hco 2910   2.984   2.243   8.369  1.6848  0.4416 -1.2379
   66Eth    Hco 2911   2.868   2.331   8.263 -0.7970  1.0225  1.0892
   66Eth     Ch 2912   2.907   2.438   8.437  0.2248 -0.7360  0.6105
   66Eth    Hcc 2913   2.823   2.408   8.499 -0.8286 -1.1796 -0.9974
   66Eth    Hcc 2914   2.877   2.531   8.390  0.0441 -0.9839  0.2283
   66Eth    Hcc 2915   2.988   2.443   8.510 -0.0477  2.2901  0.7634
   67Eth     Ho 2916   0.926   2.343   4.824 -0.6794  0.9227 -0.3831
   67Eth     Oh 2917   0.884   2.315   4.745  0.1711 -1.0376 -0.1721
   67Eth     Co 2918   0.930   2.400   4.646 -0.5076  0.2356 -0.2903
   67Eth    Hco 2919   1.032   2.435   4.659 -0.8344  1.5449 -1.0311
   67Eth    Hco 2920   0.864   2.487   4.643 -2.4441 -1.1607  0.9362
   67Eth     Ch 2921   0.918   2.334   4.512 -0.2399 -0.7764 -0.0039
   67Eth    Hcc 2922   0.950   2.402   4.433 -0.3208 -0.2736  0.3948
   67Eth    Hcc 2923   0.818   2.297   4.491 -0.7853 -0.5359  2.0823
   67Eth    Hcc 2924   0.982   2.245   4.508  0.9891  0.0951 -0.0851
   68Eth     Ho 2925   2.068   2.863   1.589  1.2925 -0.8330  0.7116
   68Eth     Oh 2926   2.132   2.881   1.523  0.1008  0.4522 -0.1374
   68Eth     Co 2927   2.183   3.008   1.548  0.6902 -0.5519  0.0389
   68Eth    Hco 2928   2.238   3.007   1.642 -0.5714 -1.5876  0.7818
   68Eth    Hco 2929   2.089   3.061   1.559  0.3796 -1.4781  1.8833
   68Eth     Ch 2930   2.262   3.066   1.435  0.0121 -0.1501  0.1290
   68Eth    Hcc 2931   2.274   3.174   1.430  1.1602 -0.2192  1.0658
   68Eth    Hcc 2932   2.210   3.037   1.344 -0.1266 -0.8403  0.4220
   68Eth    Hcc 2933   2.360   3.018   1.440  0.3583  0.5672  0.3200
   69Eth     Ho 2934   0.521   2.259   8.290  1.9372 -1.3939 -0.2540
   69Eth     Oh 2935   0.511   2.209   8.369  0.0249 -0.3318  0.1997
   69Eth     Co 2936   0.618   2.122   8.382  0.2092 -0.5930  0.3061
   69Eth    Hco 2937   0.695   2.177   8.328 -1.8218 -0.0649 -2.1371
   69Eth    Hco 2938   0.613   2.030   8.324 -0.0284 -1.3385  1.4867
   69Eth     Ch 2939   0.663   2.106   8.525  0.0253 -0.8688 -0.2722
   69Eth    Hcc 2940   0.576   2.087   8.587  1.7783 -2.0825  1.8734
   69Eth    Hcc 2941   0.690   2.206   8.561 -1.1109 -1.0456  1.1181
   69Eth    Hcc 2942   0.743   2.034   8.539  1.8292  0.9382 -1.0765
   70Eth     Ho 2943   1.047   2.312   5.832 -0.2414 -0.7381  1.2810
   70Eth     Oh 2944   1.121   2.370   5.845 -0.5237  0.0188 -0.3373
   70Eth     Co 2945   1.191   2.389   5.723  0.4900  0.7211  0.4785
   70Eth    Hco 2946   1.152   2.473   5.665  0.4035  0.0830 -0.4066
   70Eth    Hco 2947   1.168   2.301   5.661 -1.0195  0.5765  1.2059
   70Eth     Ch 2948   1.346   2.406   5.737 -0.2583 -0.6817 -0.0375
   70Eth    Hcc 2949   1.383   2.333   5.809 -1.3394  0.4928  1.7644
   70Eth    Hcc 2950   1.352   2.511   5.766 -2.6533 -1.1105  2.1858
   70Eth    Hcc 2951   1.401   2.394   5.644 -0.4651 -0.0207 -0.2520
   71Eth     Ho 2952   1.042   1.504   7.430  0.0947 -1.9072 -0.3003
   71Eth     Oh 2953   0.981   1.450   7.476 -0.6634 -0.1773  0.7850
   71Eth     Co 2954   0.858   1.464   7.414  0.2548 -0.0954  0.3212
   71Eth    Hco 2955   0.863   1.429   7.311  1.5777 -0.5642  0.5316
   71Eth    Hco 2956   0.817   1.565   7.418  1.4996  0.4637 -0.5417
   71Eth     Ch 2957   0.766   1.370   7.491  0.2609  0.9356 -0.3230
   71Eth    Hcc 2958   0.764   1.411   7.592  1.9496  1.3000 -0.4202
   71Eth    Hcc 2959   0.798   1.266   7.504 -2.6423  0.4233  3.3562
   71Eth    Hcc 2960   0.660   1.383   7.472 -0.0244 -2.7897 -1.7359
   72Eth     Ho 2961   0.916   1.343   1.724  1.3621 -1.5047 -0.9238
   72Eth     Oh 2962   0.982   1.355   1.790 -0.2196 -0.2832  0.4787
   72Eth     Co 2963   1.099   1.350   1.713  0.0491  1.2715 -0.2464
   72Eth    Hco 2964   1.088   1.378   1.608 -1.6731  1.0826 -0.1340
   72Eth    Hco 2965   1.137   1.248   1.712  0.0489  1.2143  2.1950
   72Eth     Ch 2966   1.206   1.442   1.775  0.9181  0.1421 -0.4712
   72Eth    Hcc 2967   1.184   1.544   1.743  0.5367  0.3265  0.3619
   72Eth    Hcc 2968   1.305   1.419   1.737  1.6406  0.9306  0.8944
   72Eth    Hcc 2969   1.201   1.441   1.884 -1.1980  0.7135 -0.5396
   73Eth     Ho 2970   3.238   2.968   5.437  0.0994  0.7212  0.0570
   73Eth     Oh 2971   3.265   3.005   5.355 -0.4175  0.4391 -0.2451
   73Eth     Co 2972   3.196   3.129   5.334  0.6423  1.2891  0.1260
   73Eth    Hco 2973   3.231   3.204   5.405  2.1120  1.3327 -0.6223
   73Eth    Hco 2974   3.091   3.115   5.357  0.3202  0.5148 -1.7190
   73Eth     Ch 2975   3.220   3.185   5.188  0.9218  0.3593 -0.8375
   73Eth    Hcc 2976   3.199   3.111   5.110  1.0703 -2.9376  2.1111
   73Eth    Hcc 2977   3.322   3.217   5.169  0.1023  1.8186 -3.0242
   73Eth    Hcc 2978   3.179   3.284   5.170  0.4434  0.0031 -1.7457
   74Eth     Ho 2979   2.250   0.289   2.039 -0.0404  0.2104  1.3324
   74Eth     Oh 2980   2.314   0.220   2.042  0.1939  0.3577  0.1643
   74Eth     Co 2981   2.282   0.144   2.156 -0.0983  0.4345 -0.3772
   74Eth    Hco 2982   2.174   0.133   2.171 -0.1804  2.3070  0.5258
   74Eth    Hco 2983   2.318   0.196   2.244 -1.7608 -1.9269  1.7760
   74Eth     Ch 2984   2.332   0.007   2.134 -0.0299  0.2349 -0.4551
   74Eth    Hcc 2985   2.438   0.011   2.108  0.0833  0.5996  0.0512
   74Eth    Hcc 2986   2.285  -0.041   2.048 -0.7154  0.4428 -0.1996
   74Eth    Hcc 2987   2.318  -0.048   2.227  0.6703  2.1011  0.8090
   75Eth     Ho 2988   3.309   3.207   3.691 -0.1359 -0.2163 -0.1358
   75Eth     Oh 2989   3.403   3.201   3.681 -0.1193 -0.1080 -0.0439
   75Eth     Co 2990   3.417   3.062   3.698  0.3492 -0.0721 -0.2395
   75Eth    Hco 2991   3.522   3.032   3.687  1.2096  2.1635  1.5332
   75Eth    Hco 2992   3.371   2.995   3.625  0.9857 -1.0703  0.2556
   75Eth     Ch 2993   3.370   2.997   3.834  0.8091  0.5208  0.3569
   75Eth    Hcc 2994   3.271   2.952   3.838  1.6577 -1.7026 -2.1707
   75Eth    Hcc 2995   3.378   3.066   3.917  0.2841  1.0322 -0.0172
   75Eth    Hcc 2996   3.416   2.902   3.862  0.5592  1.1571  3.0767
   76Eth     Ho 2997   0.433   2.171   6.591 -1.0968  0.9023  0.0644
   76Eth     Oh 2998   0.386   2.126   6.659 -0.5839  0.7533  0.3261
   76Eth     Co 2999   0.249   2.180   6.676 -0.4920  0.3115 -0.3879
   76Eth    Hco 3000   0.189   2.141   6.594  2.4017 -2.6925 -1.1926
   76Eth    Hco 3001   0.251   2.289   6.676  1.1272  0.3014 -0.2405
   76Eth     Ch 3002   0.196   2.122   6.800  0.5210  0.0908  0.6378
   76Eth    Hcc 3003   0.213   2.015   6.791 -1.2540 -0.1046 -0.5930
   76Eth    Hcc 3004   0.090   2.140   6.786  0.6623  2.9937  2.8979
   76Eth    Hcc 3005   0.237   2.170   6.889 -0.0390  0.3901  0.7394
   77Eth     Ho 3006   2.224   0.760   1.274 -0.7827 -0.0709 -0.2078
   77Eth     Oh 3007   2.176   0.822   1.327  0.2080  0.1254  0.4707
   77Eth     Co 3008   2.268   0.868   1.421  0.2755 -0.4857 -0.6863
   77Eth    Hco 3009   2.350   0.918   1.370 -1.4985  2.4529 -0.7371
   77Eth    Hco 3010   2.306   0.784   1.480 -0.3823  0.3670  0.9758
   77Eth     Ch 3011   2.208   0.963   1.516  0.3951  0.1656  0.5640
   77Eth    Hcc 3012   2.264   0.947   1.608  1.7227  5.1620  0.7939
   77Eth    Hcc 3013   2.101   0.941   1.520  0.2276  0.6770 -0.8957
   77Eth    Hcc 3014   2.225   1.066   1.485 -0.6455  0.3665  0.6281
   78Eth     Ho 3015   2.823   3.246   8.247  0.9967  0.0095  0.1933
   78Eth     Oh 3016   2.810   3.273   8.336 -0.8692  0.4607 -0.1837
   78Eth     Co 3017   2.735   3.391   8.342  0.0269 -0.6245  0.0741
   78Eth    Hco 3018   2.657   3.384   8.267 -0.5920 -2.9625  0.8949
   78Eth    Hco 3019   2.800   3.475   8.315  1.7294 -2.0563 -0.3696
   78Eth     Ch 3020   2.681   3.418   8.491 -0.4106 -0.5487 -0.2870
   78Eth    Hcc 3021   2.680   3.526   8.506  0.9228 -0.1614 -2.5882
   78Eth    Hcc 3022   2.750   3.381   8.567 -1.3235 -1.2039  0.2339
   78Eth    Hcc 3023   2.583   3.378   8.516 -0.9889 -0.2908 -2.0348
   79Eth     Ho 3024   1.440   0.762   3.459 -0.6323  0.4934 -0.1742
   79Eth     Oh 3025   1.372   0.716   3.414 -0.6999 -0.3681  0.7963
   79Eth     Co 3026   1.412   0.602   3.344  0.3153 -0.0541 -0.7466
   79Eth    Hco 3027   1.455   0.523   3.406 -2.9000  0.2570  2.0131
   79Eth    Hco 3028   1.494   0.637   3.282  1.7884  0.6232  1.5412
   79Eth     Ch 3029   1.292   0.552   3.261  1.2359 -0.2657 -0.3497
   79Eth    Hcc 3030   1.335   0.475   3.197  2.2553  1.2592 -1.5320
   79Eth    Hcc 3031   1.240   0.629   3.205 -1.1469  0.2055  2.3956
   79Eth    Hcc 3032   1.217   0.496   3.316  0.8235 -1.4852 -2.1139
   80Eth     Ho 3033   0.963   2.558   4.909  0.0521 -0.2123  1.0657
   80Eth     Oh 3034   0.869   2.559   4.902  0.1105 -0.4920  0.2686
   80Eth     Co 3035   0.829   2.484   5.017  0.1746 -0.2921  0.3630
   80Eth    Hco 3036   0.875   2.541   5.098  1.1533 -1.7691  0.8745
   80Eth    Hco 3037   0.876   2.386   5.008  0.0864 -0.2116 -1.0501
   80Eth     Ch 3038   0.678   2.480   5.018 -0.2369  0.4991 -0.1353
   80Eth    Hcc 3039   0.645   2.379   5.043  3.1444 -0.9545 -1.2813
   80Eth    Hcc 3040   0.626   2.483   4.922  0.0471 -2.5298 -0.4500
   80Eth    Hcc 3041   0.624   2.560   5.068 -1.8689  0.8187 -2.3440
   81Eth     Ho 3042   1.630   0.816   3.620  2.6457  1.1660 -0.9247
   81Eth     Oh 3043   1.628   0.813   3.526  0.4418  0.1889 -0.8891
   81Eth     Co 3044   1.654   0.944   3.487  0.6232  0.0078 -0.1478
   81Eth    Hco 3045   1.754   0.970   3.522  1.6214 -0.4248 -2.5903
   81Eth    Hco 3046   1.577   1.010   3.528  0.3030 -0.0008 -0.7267
   81Eth     Ch 3047   1.665   0.954   3.332  0.0530  0.4317 -0.0952
   81Eth    Hcc 3048   1.697   1.055   3.305  1.7034 -0.8600 -3.1424
   81Eth    Hcc 3049   1.563   0.936   3.300  0.5448  0.0926 -1.4880
   81Eth    Hcc 3050   1.729   0.878   3.288 -0.7960 -1.6245  2.0891
   82Eth     Ho 3051   2.893   1.793   9.167 -0.9135 -0.4125 -0.4344
   82Eth     Oh 3052   2.900   1.886   9.152  0.3875 -0.5205 -0.5196
   82Eth     Co 3053   2.777   1.927   9.104  0.6076  0.8414  0.5223
   82Eth    Hco 3054   2.765   2.035   9.107  0.9428  0.8559  1.5896
   82Eth    Hco 3055   2.697   1.879   9.161 -1.5397  1.4264 -1.9329
   82Eth     Ch 3056   2.749   1.894   8.959 -0.2668 -0.6844 -0.0730
   82Eth    Hcc 3057   2.818   1.812   8.936  0.7642 -0.4984  2.2182
   82Eth    Hcc 3058   2.767   1.970   8.884  0.7557 -0.8360  0.0113
   82Eth    Hcc 3059   2.647   1.857   8.946 -0.2777  0.1944 -2.6731
   83Eth     Ho 3060   1.129   0.766   6.160 -1.1923 -0.2636 -1.0952
   83Eth     Oh 3061   1.055   0.776   6.217 -0.4872  0.1595 -0.2473
   83Eth     Co 3062   1.104   0.815   6.346 -0.2808 -0.6644 -0.8299
   83Eth    Hco 3063   1.156   0.910   6.334 -0.7699 -0.3138 -0.2152
   83Eth    Hco 3064   1.180   0.744   6.379 -0.7316 -0.7903 -0.0372
   83Eth     Ch 3065   0.998   0.826   6.455 -0.1643  0.5226  0.4188
   83Eth    Hcc 3066   0.924   0.898   6.421  0.5199 -0.4600 -3.4572
   83Eth    Hcc 3067   1.035   0.867   6.549  0.5497  0.1668  0.2984
   83Eth    Hcc 3068   0.956   0.728   6.476 -0.8029  0.5087 -0.9135
   84Eth     Ho 3069   1.163   0.293   9.651 -0.8672 -0.9492  1.0114
   84Eth     Oh 3070   1.169   0.368   9.707  0.3022 -0.5934  0.4281
   84Eth     Co 3071   1.070   0.465   9.685  0.1614  0.4330 -0.7321
   84Eth    Hco 3072   1.013   0.471   9.593 -1.1664  1.9731  0.1773
   84Eth    Hco 3073   1.117   0.561   9.705  0.1553  0.1556  0.7267
   84Eth     Ch 3074   0.969   0.456   9.799 -0.0396 -0.1925 -0.0331
   84Eth    Hcc 3075   1.022   0.448   9.894  0.2033  0.9576 -0.0571
   84Eth    Hcc 3076   0.911   0.366   9.781 -0.4697 -0.2882  1.7462
   84Eth    Hcc 3077   0.905   0.545   9.800  1.9036  1.2389 -0.6084
   85Eth     Ho 3078   2.224   1.775   9.654  0.6348  0.7227  2.1709
   85Eth     Oh 3079   2.135   1.803   9.653  0.6716  0.8570 -0.0485
   85Eth     Co 3080   2.058   1.741   9.754 -0.5092  0.0279  0.4284
   85Eth    Hco 3081   2.114   1.721   9.845  0.3782  1.3783  0.1871
   85Eth    Hco 3082   2.016   1.651   9.707 -1.5510  0.5900  0.2724
   85Eth     Ch 3083   1.927   1.811   9.779  0.4864  0.3133 -0.8376
   85Eth    Hcc 3084   1.942   1.911   9.822 -0.7588  1.0267 -2.0309
   85Eth    Hcc 3085   1.865   1.755   9.848 -1.5606  2.3763 -0.9420
   85Eth    Hcc 3086   1.878   1.813   9.682 -0.7188 -3.9586 -0.3975
   86Eth     Ho 3087   0.282   1.185   4.209  0.8203 -1.9428  2.2627
   86Eth     Oh 3088   0.190   1.167   4.221  0.2400 -0.6464  0.0652
   86Eth     Co 3089   0.179   1.118   4.354  0.0073 -0.6503  0.6289
   86Eth    Hco 3090   0.218   1.193   4.423 -1.9337 -0.4458  1.5289
   86Eth    Hco 3091   0.256   1.041   4.360  0.4638 -0.3160 -0.8142
   86Eth     Ch 3092   0.034   1.083   4.375 -0.3817 -0.6920 -0.4283
   86Eth    Hcc 3093   0.019   0.981   4.341  2.4979 -1.3932  0.3002
   86Eth    Hcc 3094  -0.039   1.135   4.313 -0.6317 -1.1493 -0.5156
   86Eth    Hcc 3095  -0.001   1.098   4.478  0.6886 -2.5567  0.2169
   87Eth     Ho 3096   1.114   1.702   5.885  1.8746  1.5110 -0.6682
   87Eth     Oh 3097   1.171   1.629   5.869 -0.3593 -0.3113 -0.5100
   87Eth     Co 3098   1.271   1.663   5.776 -0.2093  0.4857  0.3665
   87Eth    Hco 3099   1.357   1.718   5.815  0.7613 -1.4305  0.9621
   87Eth    Hco 3100   1.234   1.726   5.694  0.2719  0.0692 -0.1750
   87Eth     Ch 3101   1.325   1.538   5.705  0.1269 -0.5011 -0.7774
   87Eth    Hcc 3102   1.371   1.466   5.773 -1.8786 -1.6865 -0.6652
   87Eth    Hcc 3103   1.407   1.563   5.638 -0.1658 -0.2378 -1.0406
   87Eth    Hcc 3104   1.261   1.476   5.644 -1.0121  0.8300 -0.9607
   88Eth     Ho 3105   2.894   2.982   4.338  0.9599 -2.5139 -2.0053
   88Eth     Oh 3106   2.805   2.970   4.311  0.0195  0.0437 -0.2283
   88Eth     Co 3107   2.783   2.858   4.230 -0.7316  0.4609  0.1371
   88Eth    Hco 3108   2.865   2.790   4.254 -1.5385 -0.3320  0.6271
   88Eth    Hco 3109   2.787   2.891   4.126  0.9772  1.4755  0.5090
   88Eth     Ch 3110   2.643   2.791   4.261 -0.5202  0.2815 -0.6004
   88Eth    Hcc 3111   2.629   2.692   4.217 -2.7203  1.5261 -2.8116
   88Eth    Hcc 3112   2.562   2.850   4.218 -0.5617 -0.5689 -1.6996
   88Eth    Hcc 3113   2.622   2.777   4.367  1.9874 -1.4321 -0.2808
   89Eth     Ho 3114   2.253   3.361   8.596 -0.0273 -0.3265 -1.8454
   89Eth     Oh 3115   2.233   3.271   8.610 -0.3364 -0.0941 -0.7436
   89Eth     Co 3116   2.223   3.227   8.477  0.3804  0.0042  0.2689
   89Eth    Hco 3117   2.325   3.238   8.441 -0.4295  2.4062 -1.4759
   89Eth    Hco 3118   2.175   3.303   8.415 -1.1479  2.1991  3.9465
   89Eth     Ch 3119   2.170   3.083   8.466  0.2648  0.0178  1.1068
   89Eth    Hcc 3120   2.062   3.093   8.478 -0.2845 -2.5355 -1.2719
   89Eth    Hcc 3121   2.214   3.024   8.547 -0.4813 -0.2793  1.2922
   89Eth    Hcc 3122   2.187   3.021   8.379  0.8937 -1.9082  2.5682
   90Eth     Ho 3123   1.949   2.030   4.945 -1.4845 -2.1427 -0.0380
   90Eth     Oh 3124   1.912   2.051   5.028  0.0409  0.9434 -0.0674
   90Eth     Co 3125   1.839   1.938   5.090  0.5144  0.1460 -0.2176
   90Eth    Hco 3126   1.865   1.842   5.046  1.2712  0.2704 -0.0571
   90Eth    Hco 3127   1.732   1.950   5.074  0.2065 -1.4888  0.5096
   90Eth     Ch 3128   1.869   1.943   5.241  0.2576 -0.4440 -0.8261
   90Eth    Hcc 3129   1.801   1.886   5.304 -0.9340  1.3154 -0.4738
   90Eth    Hcc 3130   1.847   2.045   5.275 -1.5347 -1.7141  2.0395
   90Eth    Hcc 3131   1.972   1.921   5.270  0.5610  0.1491 -1.4397
   91Eth     Ho 3132   0.656   3.177   7.418 -1.0499  0.0248 -0.8053
   91Eth     Oh 3133   0.615   3.196   7.500 -0.3463  0.1858 -0.4927
   91Eth     Co 3134   0.616   3.335   7.521  0.2584 -0.0918 -0.9353
   91Eth    Hco 3135   0.608   3.383   7.423  1.0235  0.0313 -0.9449
   91Eth    Hco 3136   0.712   3.365   7.563 -0.1170  2.2028 -1.6269
   91Eth     Ch 3137   0.513   3.367   7.622  0.4813  0.9502 -0.0763
   91Eth    Hcc 3138   0.516   3.466   7.668  3.1660  0.2450  1.3715
   91Eth    Hcc 3139   0.542   3.303   7.705 -0.4213  0.6223 -0.0101
   91Eth    Hcc 3140   0.412   3.353   7.585 -0.1640 -1.3192  2.4255
   92Eth     Ho 3141   2.160   0.458   7.771 -2.7121 -0.0874 -1.9452
   92Eth     Oh 3142   2.126   0.393   7.831 -0.2929  0.2551 -0.1381
   92Eth     Co 3143   2.190   0.411   7.962  0.0251  0.8916 -0.3563
   92Eth    Hco 3144   2.196   0.517   7.986 -0.4964  0.4922  1.5553
   92Eth    Hco 3145   2.290   0.372   7.941  0.9302  2.7695  0.3462
   92Eth     Ch 3146   2.104   0.330   8.059  0.3027  0.3636 -0.2388
   92Eth    Hcc 3147   2.091   0.226   8.029 -0.0222 -0.2426  1.9471
   92Eth    Hcc 3148   2.005   0.373   8.072 -0.7477 -1.3358 -2.4301
   92Eth    Hcc 3149   2.153   0.335   8.157  1.6945  0.4289 -0.9202
   93Eth     Ho 3150   0.993   2.390   1.569  0.7148 -0.4061  1.6077
   93Eth     Oh 3151   0.934   2.320   1.590 -0.1455 -0.1488  0.1465
   93Eth     Co 3152   0.997   2.199   1.554 -0.0895 -0.3298  0.4731
   93Eth    Hco 3153   1.096   2.182   1.596 -0.3220 -1.6434  0.5234
   93Eth    Hco 3154   1.002   2.197   1.445 -0.2660 -1.0463  0.4770
   93Eth     Ch 3155   0.901   2.090   1.584  0.2381  0.3525  0.2551
   93Eth    Hcc 3156   0.875   2.085   1.689  0.3682  0.8069  0.3095
   93Eth    Hcc 3157   0.939   1.989   1.564 -1.1990 -0.4437  1.4162
   93Eth    Hcc 3158   0.814   2.109   1.521 -0.6423  3.5617  2.3278
   94Eth     Ho 3159   1.636   0.615   4.148 -0.2116 -3.8079 -1.8610
   94Eth     Oh 3160   1.604   0.577   4.228 -0.1969 -0.3074 -0.0933
   94Eth     Co 3161   1.527   0.678   4.298 -0.4584 -0.1263  0.2688
   94Eth    Hco 3162   1.424   0.643   4.301 -0.3882 -0.5074 -1.3689
   94Eth    Hco 3163   1.527   0.771   4.241 -1.4263 -0.8407 -0.9332
   94Eth     Ch 3164   1.574   0.709   4.431  0.1745  0.5872  0.5367
   94Eth    Hcc 3165   1.523   0.796   4.472  0.4292  0.7456  0.5129
   94Eth    Hcc 3166   1.678   0.740   4.439  0.7460  0.0062 -3.4463
   94Eth    Hcc 3167   1.576   0.626   4.503 -0.5113 -0.3260 -0.4740
   95Eth     Ho 3168   2.470   0.375   3.236 -0.6489  1.7966  0.8077
   95Eth     Oh 3169   2.484   0.327   3.315 -0.1661  0.0731 -0.2935
   95Eth     Co 3170   2.361   0.279   3.381 -1.4379  0.1347  0.4510
   95Eth    Hco 3171   2.284   0.353   3.361 -1.9924 -0.3955  0.5999
   95Eth    Hco 3172   2.374   0.261   3.488 -1.0809  2.2675  0.7908
   95Eth     Ch 3173   2.317   0.160   3.309  0.5716  0.7032 -0.3420
   95Eth    Hcc 3174   2.217   0.128   3.336  0.1359  3.2358  1.2269
   95Eth    Hcc 3175   2.391   0.084   3.335  0.6617  0.6779 -0.6702
   95Eth    Hcc 3176   2.321   0.171   3.201  1.3802 -5.8452 -1.2034
   96Eth     Ho 3177   0.086   1.778   5.486 -1.6357 -0.5896 -0.6817
   96Eth     Oh 3178   0.025   1.812   5.548 -0.3910  0.1244  0.1838
   96Eth     Co 3179   0.113   1.855   5.639 -0.2689 -0.6445 -0.4360
   96Eth    Hco 3180   0.186   1.908   5.578  0.7474 -0.7986  0.6251
   96Eth    Hco 3181   0.162   1.771   5.689 -0.3720 -1.1608 -1.1904
   96Eth     Ch 3182   0.055   1.961   5.733  0.6697  0.7979  0.2976
   96Eth    Hcc 3183  -0.018   1.909   5.796  0.6634 -0.4728 -0.7260
   96Eth    Hcc 3184   0.008   2.049   5.689 -0.6107  0.9883  1.9934
   96Eth    Hcc 3185   0.132   1.995   5.803  3.0519  0.4132 -2.0621
   97Eth     Ho 3186   2.975   1.597   8.594 -0.0277  0.5481 -0.0361
   97Eth     Oh 3187   2.917   1.567   8.661  0.3252  0.0285  0.0446
   97Eth     Co 3188   2.794   1.624   8.625  0.3215 -0.4035  0.1179
   97Eth    Hco 3189   2.806   1.676   8.529  0.8483  2.7774  1.8355
   97Eth    Hco 3190   2.753   1.683   8.707 -0.4136  1.1051 -1.2859
   97Eth     Ch 3191   2.694   1.516   8.591  0.4008 -0.7026  0.0018
   97Eth    Hcc 3192   2.714   1.481   8.489  2.0937  1.0870 -0.3144
   97Eth    Hcc 3193   2.592   1.549   8.613  1.1051  0.8139  1.1148
   97Eth    Hcc 3194   2.711   1.430   8.655 -0.8108 -0.0948  1.1766
   98Eth     Ho 3195   0.229   2.136   5.907 -2.6107 -0.3681 -0.1774
   98Eth     Oh 3196   0.216   2.225   5.936  0.2884 -0.1266  0.4968
   98Eth     Co 3197   0.274   2.300   5.845  0.4341 -0.7666  1.0622
   98Eth    Hco 3198   0.219   2.276   5.754  2.3531  0.7906 -0.5636
   98Eth    Hco 3199   0.380   2.273   5.842  0.8995  1.0920 -0.0885
   98Eth     Ch 3200   0.260   2.445   5.879 -0.5385 -0.7024  0.0647
   98Eth    Hcc 3201   0.296   2.480   5.976 -1.1349 -0.2817  0.1368
   98Eth    Hcc 3202   0.155   2.473   5.893  0.2404  2.4694  0.0755
   98Eth    Hcc 3203   0.286   2.504   5.791  1.2484 -1.3341  0.1407
   99Eth     Ho 3204   3.322   0.131   1.640  1.0475 -0.1215 -0.5078
   99Eth     Oh 3205   3.287   0.047   1.619  0.0425  0.0751  0.3251
   99Eth     Co 3206   3.265   0.035   1.476  0.7840 -0.8118 -0.7649
   99Eth    Hco 3207   3.357   0.062   1.425  1.5036 -1.5428  0.1246
   99Eth    Hco 3208   3.202   0.121   1.452  1.9690  0.5801  0.9666
   99Eth     Ch 3209   3.194  -0.090   1.430  0.6145  0.0823 -0.5870
   99Eth    Hcc 3210   3.156  -0.081   1.329 -1.3517 -2.3348 -0.1027
   99Eth    Hcc 3211   3.101  -0.116   1.481  2.2121 -2.5765  1.0978
   99Eth    Hcc 3212   3.258  -0.177   1.442 -0.1857 -0.4287 -0.0137
  100Eth     Ho 3213   2.250   2.268   4.011 -0.9431  0.3212  0.0171
  100Eth     Oh 3214   2.195   2.270   3.934  0.0316  0.0408 -0.6861
  100Eth     Co 3215   2.165   2.400   3.894  0.2239  0.4360  0.3938
  100Eth    Hco 3216   2.122   2.460   3.974 -0.7795  0.6402 -0.2822
  100Eth    Hco 3217   2.087   2.392   3.818 -1.8607 -1.2975  2.6267
  100Eth     Ch 3218   2.290   2.476   3.839  0.1354 -0.1827 -0.0869
  100Eth    Hcc 3219   2.275   2.583   3.850  1.0224 -0.2705  2.3862
  100Eth    Hcc 3220   2.315   2.454   3.735  0.3310  0.3620 -0.1549
  100Eth    Hcc 3221   2.381   2.447   3.891  0.8540  1.1061 -0.6241
  101Eth     Ho 3222   1.983   1.965   2.476 -3.4968  2.1334  2.1235
  101Eth     Oh 3223   1.946   1.879   2.471  0.2312  0.4964  0.5353
  101Eth     Co 3224   2.045   1.792   2.510 -0.0458 -0.6900 -0.7000
  101Eth    Hco 3225   2.001   1.716   2.575  1.0599 -0.0367  0.8344
  101Eth    Hco 3226   2.118   1.849   2.566 -0.3250 -1.7592  0.7997
  101Eth     Ch 3227   2.116   1.721   2.393  0.4963  0.4190  0.9304
  101Eth    Hcc 3228   2.055   1.648   2.340  2.4541 -2.3477  2.4206
  101Eth    Hcc 3229   2.204   1.673   2.435  1.2802 -0.6012 -1.8063
  101Eth    Hcc 3230   2.156   1.796   2.325 -0.7589  0.2752  0.0182
  102Eth     Ho 3231   2.474   1.808   9.652 -0.6246 -0.6630  0.0177
  102Eth     Oh 3232   2.418   1.804   9.728 -0.3117  0.0756  0.2928
  102Eth     Co 3233   2.445   1.921   9.801  0.5130  0.0913 -1.0040
  102Eth    Hco 3234   2.449   2.008   9.736 -3.7106  2.4599  1.6849
  102Eth    Hco 3235   2.538   1.907   9.855 -0.8312 -0.8199  1.1374
  102Eth     Ch 3236   2.327   1.949   9.899 -0.0961 -0.3508 -0.4518
  102Eth    Hcc 3237   2.230   1.985   9.865 -0.9332  1.2248  3.2779
  102Eth    Hcc 3238   2.355   2.033   9.962  1.9392 -0.2807 -1.3982
  102Eth    Hcc 3239   2.307   1.874   9.976 -1.3360 -1.0474 -1.4400
  103Eth     Ho 3240   2.776   3.060   1.635  1.0527 -0.3326  0.6630
  103Eth     Oh 3241   2.810   3.145   1.615 -0.2879 -0.0096 -0.2780
  103Eth     Co 3242   2.704   3.227   1.567 -0.6764  0.7839 -0.0929
  103Eth    Hco 3243   2.614   3.206   1.624 -1.0899  0.4300 -0.8746
  103Eth    Hco 3244   2.676   3.196   1.467  1.1629  0.3308 -0.4965
  103Eth     Ch 3245   2.753   3.377   1.568 -1.0361  0.4668  0.2478
  103Eth    Hcc 3246   2.794   3.412   1.662  1.1859 -0.4733 -0.3373
  103Eth    Hcc 3247   2.673   3.449   1.547 -1.5945 -0.3885 -0.6666
  103Eth    Hcc 3248   2.828   3.395   1.491 -0.9120  0.4235  0.3610
  104Eth     Ho 3249   1.540   2.650   3.156  0.3091 -0.0668 -0.2364
  104Eth     Oh 3250   1.523   2.677   3.068  0.0304  0.4929 -0.0087
  104Eth     Co 3251   1.611   2.792   3.050 -0.4223 -0.1141  0.4807
  104Eth    Hco 3252   1.712   2.760   3.079 -0.2019 -1.9111 -2.1037
  104Eth    Hco 3253   1.598   2.873   3.121 -2.0583  2.0493 -2.2169
  104Eth     Ch 3254   1.614   2.839   2.898 -0.1255  0.3903 -0.7250
  104Eth    Hcc 3255   1.654   2.940   2.892  2.1315 -0.4890 -0.8193
  104Eth    Hcc 3256   1.510   2.838   2.865 -0.1380  0.3751 -0.6863
  104Eth    Hcc 3257   1.684   2.785   2.835 -1.6889 -1.0744 -1.2554
  105Eth     Ho 3258   2.764   2.298   4.844  1.3424  0.2976 -0.7006
  105Eth     Oh 3259   2.771   2.219   4.793 -0.0138 -0.1949 -0.1530
  105Eth     Co 3260   2.651   2.213   4.714 -0.5329 -0.5664  0.2200
  105Eth    Hco 3261   2.666   2.257   4.616  1.4078 -0.2200  0.6478
  105Eth    Hco 3262   2.559   2.246   4.763  0.3983 -0.4624  1.9583
  105Eth     Ch 3263   2.625   2.067   4.682  0.0442 -0.1322  0.1146
  105Eth    Hcc 3264   2.710   2.031   4.624  1.1186  1.4888  0.6479
  105Eth    Hcc 3265   2.535   2.040   4.626 -0.1796 -1.8839  1.2844
  105Eth    Hcc 3266   2.614   1.999   4.767  2.2755 -1.5002 -0.6351
  106Eth     Ho 3267   1.279   0.332   9.109 -0.4224 -0.7962 -0.2323
  106Eth     Oh 3268   1.266   0.368   9.194  1.3498 -0.0963 -0.2500
  106Eth     Co 3269   1.193   0.488   9.177  0.3680 -0.5816  0.1186
  106Eth    Hco 3270   1.125   0.486   9.091 -1.3974 -0.7493  1.4968
  106Eth    Hco 3271   1.261   0.570   9.152  0.5567 -1.2488 -1.6635
  106Eth     Ch 3272   1.114   0.511   9.304 -0.5728 -0.0135 -0.8578
  106Eth    Hcc 3273   1.181   0.532   9.387  0.1228 -0.1833 -1.3666
  106Eth    Hcc 3274   1.061   0.419   9.330 -0.3036  0.1071  0.1181
  106Eth    Hcc 3275   1.036   0.587   9.301 -1.9536 -1.2853  1.8334
  107Eth     Ho 3276   0.482   0.108   8.208  0.3847  0.1723 -0.1002
  107Eth     Oh 3277   0.510   0.085   8.121  0.3374 -0.2905  0.0036
  107Eth     Co 3278   0.650   0.097   8.110  0.8607  0.6383  0.3060
  107Eth    Hco 3279   0.693   0.066   8.205  1.8707  0.9061 -0.0519
  107Eth    Hco 3280   0.682   0.199   8.087 -1.6638  1.5381  0.6125
  107Eth     Ch 3281   0.688   0.004   7.992 -0.5448  0.1261  0.1105
  107Eth    Hcc 3282   0.666   0.062   7.902  1.0272 -0.1141 -0.4586
  107Eth    Hcc 3283   0.628  -0.083   8.017 -2.5985  1.0996 -1.3431
  107Eth    Hcc 3284   0.790  -0.032   8.007 -0.4262 -1.1307 -3.2407
  108Eth     Ho 3285   0.657   2.602   1.533  0.7264 -1.8155  0.3387
  108Eth     Oh 3286   0.578   2.559   1.507  0.1492 -0.4730 -0.1202
  108Eth     Co 3287   0.602   2.469   1.399 -0.1291 -0.1227  0.2848
  108Eth    Hco 3288   0.711   2.467   1.397 -0.1666 -2.9940 -2.0564
  108Eth    Hco 3289   0.568   2.525   1.312  0.4332  1.8420  1.2869
  108Eth     Ch 3290   0.556   2.332   1.437 -0.0157  0.5489 -0.1028
  108Eth    Hcc 3291   0.601   2.294   1.529 -0.3535 -0.2717 -0.2649
  108Eth    Hcc 3292   0.580   2.258   1.361  1.9794  2.0181 -0.9313
  108Eth    Hcc 3293   0.447   2.328   1.445  0.0649 -0.6378  0.5690
  109Eth     Ho 3294   0.306   0.175   6.114 -0.5457  0.2142  0.4232
  109Eth     Oh 3295   0.309   0.195   6.022 -0.4090 -0.4850  0.2703
  109Eth     Co 3296   0.259   0.096   5.930  0.7859 -0.5259  0.1443
  109Eth    Hco 3297   0.266   0.130   5.827  1.0113 -1.4458 -0.1540
  109Eth    Hco 3298   0.153   0.084   5.953  0.4890  0.5969 -0.6075
  109Eth     Ch 3299   0.342  -0.029   5.926  0.3911  0.2991 -0.2739
  109Eth    Hcc 3300   0.444  -0.014   5.888  0.5647 -0.4774 -0.1173
  109Eth    Hcc 3301   0.299  -0.105   5.861 -0.6983 -0.8521  1.7685
  109Eth    Hcc 3302   0.360  -0.082   6.019  0.4756  0.4491 -0.2042
  110Eth     Ho 3303   2.094   1.877   1.286  0.5621  2.1744  0.0992
  110Eth     Oh 3304   2.169   1.852   1.336 -0.0175  0.5725  0.2011
  110Eth     Co 3305   2.112   1.754   1.421 -0.9485 -0.3558  0.5601
  110Eth    Hco 3306   2.039   1.692   1.369 -1.1588  0.3565 -0.0039
  110Eth    Hco 3307   2.050   1.789   1.503 -2.2042 -2.2042  0.4191
  110Eth     Ch 3308   2.219   1.660   1.481  0.2791 -0.5791 -0.9284
  110Eth    Hcc 3309   2.188   1.587   1.555  1.8435  1.0343  1.3917
  110Eth    Hcc 3310   2.280   1.730   1.538 -1.1761 -1.5395  1.9017
  110Eth    Hcc 3311   2.276   1.611   1.402  2.2678  0.1246  0.0200
  111Eth     Ho 3312   0.205   0.621   3.957 -0.6706 -0.8257 -1.1947
  111Eth     Oh 3313   0.165   0.680   3.896 -0.0798  0.8163 -0.0547
  111Eth     Co 3314   0.045   0.727   3.962  0.3255  0.1007 -0.1017
  111Eth    Hco 3315   0.069   0.759   4.063  0.4026 -2.8636  0.8625
  111Eth    Hco 3316  -0.025   0.644   3.968  0.6909 -0.0568  2.7057
  111Eth     Ch 3317  -0.011   0.836   3.881 -0.7248 -0.4007 -0.4827
  111Eth    Hcc 3318  -0.070   0.808   3.794 -0.0055 -1.0369 -0.7680
  111Eth    Hcc 3319   0.077   0.891   3.850 -0.1653 -1.0202 -0.0026
  111Eth    Hcc 3320  -0.070   0.907   3.939 -1.2149  0.2267 -1.7409
  112Eth     Ho 3321   1.898   2.895   4.368 -2.1540  1.6181  1.8155
  112Eth     Oh 3322   1.828   2.867   4.312 -0.1392  0.1767 -0.0443
  112Eth     Co 3323   1.755   2.782   4.397  0.2317  0.3267 -0.1593
  112Eth    Hco 3324   1.723   2.843   4.481  0.8386  1.6663 -0.8893
  112Eth    Hco 3325   1.829   2.713   4.438  1.4262  1.6768 -0.0216
  112Eth     Ch 3326   1.627   2.712   4.333 -0.0579  0.2883 -0.0395
  112Eth    Hcc 3327   1.586   2.635   4.399 -1.3985  1.4994  0.5575
  112Eth    Hcc 3328   1.671   2.663   4.246  0.7903  1.7182 -0.4316
  112Eth    Hcc 3329   1.550   2.780   4.298 -0.1294 -0.1422 -0.7303
  113Eth     Ho 3330   0.798   3.339   4.954 -0.2411  0.3274  0.0291
  113Eth     Oh 3331   0.818   3.284   5.027 -0.4962  0.1640 -0.0238
  113Eth     Co 3332   0.705   3.277   5.113 -0.1030 -0.0059 -0.1995
  113Eth    Hco 3333   0.619   3.270   5.046 -0.9585  2.5458  0.5625
  113Eth    Hco 3334   0.681   3.362   5.176 -1.1004 -1.0318  0.8189
  113Eth     Ch 3335   0.721   3.160   5.197 -0.4349  0.0517 -0.1227
  113Eth    Hcc 3336   0.799   3.181   5.270 -1.2595  2.1496  0.2061
  113Eth    Hcc 3337   0.746   3.086   5.121 -1.8280 -1.0232  0.4516
  113Eth    Hcc 3338   0.631   3.142   5.257  1.1610  1.5633  2.8614
  114Eth     Ho 3339   1.918   0.008   9.679  0.4100  0.7438  0.5423
  114Eth     Oh 3340   1.838  -0.036   9.703  0.5775  0.1721  0.0766
  114Eth     Co 3341   1.763   0.047   9.793  0.4944 -0.0065  0.0507
  114Eth    Hco 3342   1.755   0.144   9.744 -2.6366 -0.2904 -0.1112
  114Eth    Hco 3343   1.811   0.046   9.891 -1.0149 -0.9591  0.8108
  114Eth     Ch 3344   1.617  -0.012   9.807 -0.1468 -0.5063 -0.3982
  114Eth    Hcc 3345   1.571   0.049   9.885  0.6275  0.6868 -0.8533
  114Eth    Hcc 3346   1.618  -0.114   9.844  1.7630 -1.4696 -3.0150
  114Eth    Hcc 3347   1.546  -0.006   9.725 -1.2777  2.6109  0.7187
  115Eth     Ho 3348   1.209   3.251   6.097  0.7971 -1.5302  0.5173
  115Eth     Oh 3349   1.190   3.296   6.178 -0.1376 -0.6649 -0.1743
  115Eth     Co 3350   1.301   3.384   6.205 -0.2062 -0.0717  0.4941
  115Eth    Hco 3351   1.321   3.457   6.127 -1.7980 -1.2189 -1.0172
  115Eth    Hco 3352   1.390   3.321   6.210 -0.4564 -0.4295  0.3944
  115Eth     Ch 3353   1.280   3.446   6.347 -0.2494 -0.2419  0.1228
  115Eth    Hcc 3354   1.188   3.504   6.356  0.9175  2.2416 -2.7668
  115Eth    Hcc 3355   1.372   3.503   6.363  1.2013 -2.2069 -1.0060
  115Eth    Hcc 3356   1.282   3.367   6.421 -2.3395  1.9396  2.6075
  116Eth     Ho 3357   0.488   1.256   4.376 -0.7511 -0.2107  0.6943
  116Eth     Oh 3358   0.518   1.225   4.460 -0.6155 -0.5534  0.5223
  116Eth     Co 3359   0.611   1.123   4.438 -0.4552 -0.3744 -0.3939
  116Eth    Hco 3360   0.673   1.146   4.351  1.9476 -0.2531  1.2872
  116Eth    Hco 3361   0.565   1.037   4.390 -0.2307 -0.5348 -0.3197
  116Eth     Ch 3362   0.695   1.098   4.560 -0.4616 -0.2403 -0.8358
  116Eth    Hcc 3363   0.776   1.032   4.531  0.3253 -0.1904  1.2109
  116Eth    Hcc 3364   0.653   1.059   4.653  3.3869  0.6138  1.3467
  116Eth    Hcc 3365   0.744   1.192   4.582 -1.0866 -0.4993  1.8592
  117Eth     Ho 3366   3.327   2.156   1.940  0.8113  1.0196 -0.2399
  117Eth     Oh 3367   3.250   2.191   1.899  0.0005 -0.2059  0.2330
  117Eth     Co 3368   3.309   2.279   1.809 -0.7068 -0.3479  0.1851
  117Eth    Hco 3369   3.392   2.222   1.769  0.3589 -0.7559  2.9007
  117Eth    Hco 3370   3.368   2.357   1.856  0.8556 -1.4149  0.0177
  117Eth     Ch 3371   3.208   2.323   1.701  0.2353 -0.0714 -0.4330
  117Eth    Hcc 3372   3.153   2.235   1.667 -0.2890  0.1468 -0.1456
  117Eth    Hcc 3373   3.250   2.380   1.619 -3.9702  1.3888 -1.7016
  117Eth    Hcc 3374   3.140   2.399   1.740 -2.1324 -1.7804 -1.0961
  118Eth     Ho 3375   2.470   0.101   7.241  1.6587  0.0924 -0.9579
  118Eth     Oh 3376   2.541   0.093   7.302  0.3970 -0.5822  0.4645
  118Eth     Co 3377   2.546  -0.043   7.351 -0.6172  0.9605  0.0252
  118Eth    Hco 3378   2.553  -0.113   7.267  2.5164  0.2750  0.8010
  118Eth    Hco 3379   2.452  -0.059   7.405 -0.5243  0.1286 -0.0446
  118Eth     Ch 3380   2.667  -0.064   7.437 -0.8184  0.3525  0.4136
  118Eth    Hcc 3381   2.659   0.009   7.518 -1.5521  1.6077 -0.7711
  118Eth    Hcc 3382   2.763  -0.047   7.389 -1.5465  1.2233 -0.7523
  118Eth    Hcc 3383   2.657  -0.165   7.478  0.0199 -0.1592 -0.6317
  119Eth     Ho 3384   1.910   3.430   3.905  0.6057  0.7645 -1.4782
  119Eth     Oh 3385   1.933   3.506   3.956 -0.5816 -0.0313  0.3142
  119Eth     Co 3386   2.076   3.504   3.941 -0.4009 -0.2842 -0.2273
  119Eth    Hco 3387   2.114   3.415   3.892  1.2560  0.4707 -0.3678
  119Eth    Hco 3388   2.126   3.497   4.038  1.6528  2.2878 -1.0415
  119Eth     Ch 3389   2.116   3.646   3.885  1.3480 -0.5578  0.0702
  119Eth    Hcc 3390   2.066   3.672   3.792  1.5347 -1.1292 -0.1957
  119Eth    Hcc 3391   2.221   3.640   3.859  0.9881 -2.1329 -1.1350
  119Eth    Hcc 3392   2.089   3.724   3.955  0.2962 -1.5374  0.7771
  120Eth     Ho 3393   3.254   3.246   9.489  0.9515  0.5471 -0.1955
  120Eth     Oh 3394   3.210   3.303   9.429 -0.2004  0.0413  0.1689
  120Eth     Co 3395   3.310   3.343   9.333  0.4935 -0.1151 -0.0834
  120Eth    Hco 3396   3.328   3.261   9.262  2.8042 -1.2252  1.6953
  120Eth    Hco 3397   3.400   3.373   9.387  1.9342 -1.2137 -1.7852
  120Eth     Ch 3398   3.253   3.462   9.255 -0.3119  0.1087  0.0863
  120Eth    Hcc 3399   3.166   3.434   9.195 -0.0848  0.2534 -0.3113
  120Eth    Hcc 3400   3.336   3.502   9.197  0.7954 -1.1521  0.7854
  120Eth    Hcc 3401   3.235   3.545   9.324  0.2998  0.4115 -0.1160
  121Eth     Ho 3402   1.537   1.083   9.341 -1.6095  1.2521 -0.4636
  121Eth     Oh 3403   1.512   1.047   9.258 -0.5929  0.2115 -0.3283
  121Eth     Co 3404   1.502   1.140   9.158  0.3402  0.6459 -0.2712
  121Eth    Hco 3405   1.602   1.184   9.156 -0.1017  1.6716 -0.0945
  121Eth    Hco 3406   1.440   1.227   9.181  0.0363  0.8241 -1.7118
  121Eth     Ch 3407   1.471   1.069   9.026  0.3417  0.5694  0.1057
  121Eth    Hcc 3408   1.480   1.149   8.952 -0.4489  0.4545 -0.1196
  121Eth    Hcc 3409   1.375   1.016   9.025 -0.3565  1.7941 -1.2949
  121Eth    Hcc 3410   1.551   0.998   9.007 -2.1027 -1.2710 -4.0269
  122Eth     Ho 3411   0.181   1.795   6.276  0.4069 -1.2763  0.7415
  122Eth     Oh 3412   0.092   1.782   6.303 -0.0220  0.4800  0.2039
  122Eth     Co 3413   0.023   1.908   6.268  0.1800 -0.2350 -0.3501
  122Eth    Hco 3414   0.058   1.977   6.345 -1.7753  1.1921 -0.6846
  122Eth    Hco 3415  -0.085   1.899   6.281 -0.2797  2.5257 -1.9238
  122Eth     Ch 3416   0.055   1.974   6.134 -0.2369 -0.3907 -0.3638
  122Eth    Hcc 3417   0.006   2.071   6.123  2.3692  1.2676  2.0099
  122Eth    Hcc 3418   0.051   1.915   6.042 -2.0505  2.0111 -1.8810
  122Eth    Hcc 3419   0.157   2.013   6.131 -0.7993  1.1286 -0.2149
  123Eth     Ho 3420   1.183   2.932   4.299  2.5289  0.3292  1.3063
  123Eth     Oh 3421   1.124   2.945   4.371  0.9348  0.1612  0.0609
  123Eth     Co 3422   1.164   2.862   4.481 -0.9319 -0.2603 -0.0404
  123Eth    Hco 3423   1.273   2.871   4.480 -0.9562  0.4585 -4.3599
  123Eth    Hco 3424   1.133   2.761   4.455 -1.8574  0.1311 -0.4567
  123Eth     Ch 3425   1.093   2.898   4.607 -0.2336 -0.5482 -0.4100
  123Eth    Hcc 3426   0.987   2.916   4.591 -0.2851 -0.5653 -0.0840
  123Eth    Hcc 3427   1.141   2.973   4.669 -0.3200 -0.6057 -0.2730
  123Eth    Hcc 3428   1.087   2.811   4.673 -1.2540 -0.4660 -0.3960
  124Eth     Ho 3429   3.183   1.148   4.130  0.7697 -2.0254 -0.6950
  124Eth     Oh 3430   3.111   1.098   4.097 -0.0148 -1.1277 -0.3735
  124Eth     Co 3431   3.051   1.173   3.994  0.4171  0.3189  0.3087
  124Eth    Hco 3432   3.120   1.256   3.981  1.3010 -0.5016 -0.2524
  124Eth    Hco 3433   2.955   1.212   4.028  0.3078  1.8561 -1.6703
  124Eth     Ch 3434   3.046   1.096   3.863  0.0772  0.2270  0.2418
  124Eth    Hcc 3435   3.145   1.083   3.820 -0.6134 -0.4584 -1.1697
  124Eth    Hcc 3436   2.998   1.151   3.782  1.6055  0.5838 -0.4376
  124Eth    Hcc 3437   2.992   1.002   3.871  0.4298 -0.0332 -0.3465
  125Eth     Ho 3438   1.937   2.684   1.664  3.1357  0.6005 -0.8130
  125Eth     Oh 3439   1.926   2.773   1.692 -0.0093 -0.0450  0.2276
  125Eth     Co 3440   1.801   2.809   1.623 -0.1473  0.2076  0.0566
  125Eth    Hco 3441   1.707   2.774   1.665  0.5110  0.8503  2.1374
  125Eth    Hco 3442   1.803   2.769   1.522  1.8037 -1.7405  0.8061
  125Eth     Ch 3443   1.798   2.962   1.606  0.0978 -0.0712  0.7841
  125Eth    Hcc 3444   1.709   3.002   1.556  0.1554 -2.7782 -1.6288
  125Eth    Hcc 3445   1.878   3.006   1.545 -0.9496 -1.9210 -2.0205
  125Eth    Hcc 3446   1.773   3.003   1.704  1.1871 -1.5017  1.6820
  126Eth     Ho 3447   2.947   1.387   6.229  2.5330  0.6889 -0.7120
  126Eth     Oh 3448   2.961   1.297   6.208 -0.6667 -0.0559  0.1301
  126Eth     Co 3449   3.034   1.313   6.087  0.2463 -0.1037 -0.6388
  126Eth    Hco 3450   3.128   1.351   6.127 -0.6182  0.5472  0.7991
  126Eth    Hco 3451   3.001   1.403   6.035 -1.9933  0.2377  1.3027
  126Eth     Ch 3452   3.044   1.185   6.002 -0.4315  0.3009 -0.2098
  126Eth    Hcc 3453   3.078   1.091   6.047  1.2570  0.8503 -0.2845
  126Eth    Hcc 3454   3.099   1.205   5.910 -0.2908  0.9668  0.0106
  126Eth    Hcc 3455   2.941   1.173   5.971 -1.0877  0.8777  1.6512
  127Eth     Ho 3456   2.621   2.933   3.034 -1.5125 -2.4289 -1.0360
  127Eth     Oh 3457   2.633   2.890   3.117 -0.4279 -0.3171 -0.0621
  127Eth     Co 3458   2.527   2.807   3.133 -0.2819 -0.5911 -1.0139
  127Eth    Hco 3459   2.503   2.759   3.039 -0.8325 -1.0839 -0.6248
  127Eth    Hco 3460   2.447   2.870   3.171 -0.9564 -0.8944 -1.9410
  127Eth     Ch 3461   2.552   2.707   3.248 -0.0844 -0.4855  0.1351
  127Eth    Hcc 3462   2.633   2.638   3.227  0.0598 -0.9645  2.1355
  127Eth    Hcc 3463   2.470   2.637   3.266  0.7054 -1.6062 -0.5780
  127Eth    Hcc 3464   2.578   2.754   3.342 -2.2873  0.8342  0.1331
  128Eth     Ho 3465   1.616   3.184   1.704 -2.6810 -1.5727 -1.5908
  128Eth     Oh 3466   1.606   3.237   1.627 -0.7233 -0.1076 -0.8826
  128Eth     Co 3467   1.730   3.297   1.604  0.1002  0.0258 -0.6145
  128Eth    Hco 3468   1.814   3.228   1.594 -0.5815 -1.2037  1.7011
  128Eth    Hco 3469   1.757   3.366   1.684 -2.4628 -1.1621  1.3806
  128Eth     Ch 3470   1.732   3.373   1.471 -0.2895 -0.3320 -0.8570
  128Eth    Hcc 3471   1.724   3.312   1.381  0.0539 -2.2856  0.4091
  128Eth    Hcc 3472   1.822   3.434   1.469 -1.5547  1.5853 -0.4121
  128Eth    Hcc 3473   1.648   3.443   1.470  0.3585  0.5433  1.5277
  129Eth     Ho 3474   1.893   0.960   5.069 -0.2986  1.1043  1.2108
  129Eth     Oh 3475   1.986   0.962   5.058 -0.3624 -0.3691  0.2326
  129Eth     Co 3476   2.034   0.990   5.189  0.1236 -0.9350 -0.0781
  129Eth    Hco 3477   2.001   0.917   5.263  2.8381 -1.2584  0.8621
  129Eth    Hco 3478   2.007   1.084   5.236 -1.2876 -0.5535 -1.6161
  129Eth     Ch 3479   2.185   0.983   5.168 -0.1039  0.2059 -0.0890
  129Eth    Hcc 3480   2.232   0.963   5.265 -0.7889  1.0708  0.4219
  129Eth    Hcc 3481   2.230   1.073   5.125 -0.6620 -0.6137 -2.4334
  129Eth    Hcc 3482   2.222   0.897   5.113  0.0730  0.5117 -0.4528
  130Eth     Ho 3483   1.095   2.242  10.008 -0.4594  0.6961 -0.7678
  130Eth     Oh 3484   1.157   2.217   9.943 -0.8258 -0.5453 -0.6571
  130Eth     Co 3485   1.085   2.149   9.846 -0.9225  0.3923  1.3781
  130Eth    Hco 3486   1.003   2.218   9.826  0.3518  1.7775  0.8713
  130Eth    Hco 3487   1.050   2.058   9.894 -2.0390 -1.6595 -3.0963
  130Eth     Ch 3488   1.146   2.134   9.711  0.2696  0.9561 -0.1455
  130Eth    Hcc 3489   1.078   2.112   9.628  1.8196  0.9943 -1.4504
  130Eth    Hcc 3490   1.234   2.070   9.719  0.8687  1.6020 -1.3034
  130Eth    Hcc 3491   1.169   2.232   9.669 -1.0777  1.3517  0.0387
  131Eth     Ho 3492   0.980   2.555   8.969 -1.3889  1.0307  0.7207
  131Eth     Oh 3493   0.938   2.528   8.890  0.0893  0.4146  0.1346
  131Eth     Co 3494   1.022   2.527   8.773 -0.0469 -0.3328  0.3092
  131Eth    Hco 3495   1.047   2.423   8.751 -0.6749 -0.5313  0.5325
  131Eth    Hco 3496   1.114   2.581   8.797 -0.7902  0.7674  0.6909
  131Eth     Ch 3497   0.955   2.590   8.648 -0.4920  0.2918  0.0320
  131Eth    Hcc 3498   0.871   2.656   8.672  0.7371  2.3087 -1.0039
  131Eth    Hcc 3499   0.911   2.506   8.594  0.1353 -1.3139  1.9941
  131Eth    Hcc 3500   1.021   2.643   8.580 -0.8417 -0.7109 -1.1091
  132Eth     Ho 3501   1.126   2.273   5.235 -1.1911  0.2185 -1.7991
  132Eth     Oh 3502   1.211   2.280   5.196 -0.4554  0.6769 -0.1624
  132Eth     Co 3503   1.256   2.410   5.244  1.1646 -0.4533 -0.5819
  132Eth    Hco 3504   1.251   2.404   5.352  2.4539 -0.2957 -0.5058
  132Eth    Hco 3505   1.188   2.485   5.204 -0.0016 -0.3790  1.4932
  132Eth     Ch 3506   1.391   2.445   5.186 -0.3536 -0.0038  1.0422
  132Eth    Hcc 3507   1.428   2.546   5.206  0.9429  0.4022 -2.9506
  132Eth    Hcc 3508   1.389   2.419   5.080  2.8260  0.9684  0.6895
  132Eth    Hcc 3509   1.475   2.386   5.224  0.1366  0.7087  1.0846
  133Eth     Ho 3510   1.938   2.491   9.591 -1.5135  2.2291 -0.5415
  133Eth     Oh 3511   1.865   2.459   9.641 -0.5488  0.0848 -0.4856
  133Eth     Co 3512   1.897   2.328   9.685  0.5124 -0.5301  1.6832
  133Eth    Hco 3513   2.005   2.316   9.684  0.4564 -1.1203 -0.1064
  133Eth    Hco 3514   1.865   2.269   9.599 -1.7717 -0.7140  2.6125
  133Eth     Ch 3515   1.811   2.263   9.796  0.8142  0.1786  0.2712
  133Eth    Hcc 3516   1.863   2.169   9.819 -1.2509 -0.4243  2.7038
  133Eth    Hcc 3517   1.717   2.231   9.752  0.7415  1.2845 -0.3863
  133Eth    Hcc 3518   1.802   2.325   9.885 -2.9012  0.9240 -0.5492
  134Eth     Ho 3519   0.024   1.844   9.254 -1.6241 -0.3859 -0.7310
  134Eth     Oh 3520   0.049   1.885   9.173  0.5623 -0.1064  0.0514
  134Eth     Co 3521   0.167   1.828   9.127  0.1538 -0.2301 -0.4295
  134Eth    Hco 3522   0.150   1.739   9.068 -0.9642 -0.0295 -0.4339
  134Eth    Hco 3523   0.227   1.806   9.215  3.4430 -0.1233 -2.5856
  134Eth     Ch 3524   0.240   1.940   9.060 -0.6235 -0.1955 -0.2499
  134Eth    Hcc 3525   0.175   1.993   8.989 -0.3498 -0.9773 -1.1003
  134Eth    Hcc 3526   0.318   1.899   8.996 -1.4643 -0.1925 -1.3031
  134Eth    Hcc 3527   0.272   2.020   9.126 -3.6184  3.5710 -3.1107
  135Eth     Ho 3528   2.072   3.034   3.357 -3.3071 -0.1436 -1.0789
  135Eth     Oh 3529   2.060   2.951   3.399  0.3101 -0.1596  0.1415
  135Eth     Co 3530   2.167   2.875   3.340 -0.4051 -0.5492  0.3730
  135Eth    Hco 3531   2.229   2.853   3.426 -0.8996 -0.3122  0.7957
  135Eth    Hco 3532   2.225   2.932   3.267 -0.3301  0.9392  1.5629
  135Eth     Ch 3533   2.109   2.751   3.278 -0.0669  0.0353  0.0128
  135Eth    Hcc 3534   2.027   2.777   3.211 -0.2157 -0.8434 -0.1572
  135Eth    Hcc 3535   2.059   2.686   3.349  1.8380  1.1319  2.4406
  135Eth    Hcc 3536   2.190   2.698   3.228  2.9973 -0.5448  5.2294
  136Eth     Ho 3537   3.255   1.157   4.837 -0.5690 -1.4025 -1.0489
  136Eth     Oh 3538   3.230   1.079   4.882 -0.4324 -0.4917  0.6122
  136Eth     Co 3539   3.108   1.029   4.833  0.7277 -0.0343 -0.2575
  136Eth    Hco 3540   3.079   1.044   4.729 -2.7393 -1.0133  0.4978
  136Eth    Hco 3541   3.032   1.096   4.874  1.5774  1.6135 -1.3206
  136Eth     Ch 3542   3.085   0.883   4.876 -0.0213  0.1419  0.7076
  136Eth    Hcc 3543   3.173   0.827   4.845 -0.3471  1.1867 -2.2092
  136Eth    Hcc 3544   2.997   0.836   4.832 -1.7830  3.3584  0.6213
  136Eth    Hcc 3545   3.072   0.879   4.984 -0.2694 -0.3915  0.6573
  137Eth     Ho 3546   3.024   2.943   9.650 -0.2804 -0.7458 -1.1289
  137Eth     Oh 3547   3.083   2.884   9.694 -0.4110  0.0331  0.1244
  137Eth     Co 3548   3.013   2.851   9.806 -0.2999  0.2295  0.2213
  137Eth    Hco 3549   2.925   2.794   9.775 -0.3435 -0.8644  2.2177
  137Eth    Hco 3550   2.977   2.943   9.852  0.4444 -0.1970  1.6982
  137Eth     Ch 3551   3.111   2.772   9.901  0.6038 -0.3929  0.4493
  137Eth    Hcc 3552   3.150   2.685   9.847 -0.3615 -1.4633  1.4511
  137Eth    Hcc 3553   3.061   2.721   9.983  0.2413  0.3389  0.6780
  137Eth    Hcc 3554   3.191   2.840   9.929  0.8433  0.5329 -2.2670
  138Eth     Ho 3555   2.759   2.826   8.702  3.3118  2.0286 -1.0695
  138Eth     Oh 3556   2.716   2.907   8.724  0.0959  0.1443 -0.2727
  138Eth     Co 3557   2.834   2.973   8.777  1.0365  0.3751  0.9328
  138Eth    Hco 3558   2.906   2.977   8.695 -1.1795  0.8125 -1.0599
  138Eth    Hco 3559   2.869   2.903   8.853 -0.7732 -1.1801  0.3735
  138Eth     Ch 3560   2.799   3.121   8.829  0.1718 -0.3262 -0.5316
  138Eth    Hcc 3561   2.874   3.159   8.899 -0.4793  0.7414 -0.3979
  138Eth    Hcc 3562   2.710   3.113   8.890 -0.1831  1.5501 -0.7535
  138Eth    Hcc 3563   2.773   3.194   8.751 -0.7203  0.8158  0.8147
  139Eth     Ho 3564   1.482   1.459   5.014 -2.0845  3.1940 -0.5152
  139Eth     Oh 3565   1.555   1.513   5.036 -0.3015  0.5159  0.4570
  139Eth     Co 3566   1.684   1.456   4.995  0.5538  0.7836  1.0904
  139Eth    Hco 3567   1.681   1.441   4.887  0.7981  0.0057  1.1886
  139Eth    Hco 3568   1.732   1.377   5.053  1.4042  0.4621 -0.0454
  139Eth     Ch 3569   1.771   1.578   5.006  0.3622  0.6759 -0.1889
  139Eth    Hcc 3570   1.724   1.676   5.002 -2.3383 -0.6079 -0.3796
  139Eth    Hcc 3571   1.844   1.571   4.925  0.4880  0.1930 -0.0404
  139Eth    Hcc 3572   1.840   1.583   5.091 -0.5860  0.4695  0.6059
  140Eth     Ho 3573   0.706   1.042   6.553  2.0560 -0.6525  0.4030
  140Eth     Oh 3574   0.708   1.043   6.647  0.1550 -0.0608  0.4512
  140Eth     Co 3575   0.732   0.916   6.696  0.5293  0.3886  0.1165
  140Eth    Hco 3576   0.841   0.904   6.699  0.4221 -0.7023  0.0318
  140Eth    Hco 3577   0.684   0.842   6.632  0.7137 -2.0807  2.7431
  140Eth     Ch 3578   0.663   0.897   6.833  0.4951  0.2868  0.0249
  140Eth    Hcc 3579   0.688   0.801   6.878 -1.8282  0.9801  2.9803
  140Eth    Hcc 3580   0.554   0.896   6.831  0.4033 -2.2566  2.8991
  140Eth    Hcc 3581   0.687   0.978   6.903 -0.4589 -0.3048  1.0663
  141Eth     Ho 3582   0.658   0.831   9.518  0.1989  0.3980 -0.9192
  141Eth     Oh 3583   0.729   0.873   9.563 -0.2746  0.5300 -0.2955
  141Eth     Co 3584   0.835   0.835   9.478  0.1620  0.2267 -0.8163
  141Eth    Hco 3585   0.801   0.830   9.374  0.7216 -0.6846 -0.9665
  141Eth    Hco 3586   0.874   0.734   9.497  0.2318  0.4244  0.0866
  141Eth     Ch 3587   0.956   0.927   9.506 -0.7231 -0.3251  0.1779
  141Eth    Hcc 3588   0.925   1.031   9.503  1.4459  0.3270 -0.8782
  141Eth    Hcc 3589   1.036   0.909   9.434 -0.9841 -1.1402  0.0803
  141Eth    Hcc 3590   1.001   0.913   9.604 -0.1958 -1.6446 -0.2363
  142Eth     Ho 3591   0.662   0.250   3.411 -1.4255  2.5095 -0.5669
  142Eth     Oh 3592   0.728   0.300   3.454  0.4657  0.0438 -0.4933
  142Eth     Co 3593   0.855   0.251   3.413  0.3965 -0.0256  0.5006
  142Eth    Hco 3594   0.846   0.249   3.305 -0.8586  1.8689  0.5409
  142Eth    Hco 3595   0.873   0.155   3.460  1.6007  0.5629  1.2632
  142Eth     Ch 3596   0.967   0.348   3.462  0.2871  0.2473 -0.5342
  142Eth    Hcc 3597   0.951   0.451   3.428 -1.6989 -0.1204 -0.7534
  142Eth    Hcc 3598   1.067   0.320   3.428  0.2489  0.3756 -0.7542
  142Eth    Hcc 3599   0.974   0.350   3.571  0.0758 -0.7807 -0.5021
  143Eth     Ho 3600   2.991   2.367   4.529  0.1788  2.0307  0.6928
  143Eth     Oh 3601   2.969   2.391   4.441 -0.4423  0.3459  0.3588
  143Eth     Co 3602   3.081   2.424   4.363  0.6209 -0.4766  0.4587
  143Eth    Hco 3603   3.120   2.330   4.323  0.0824 -0.0619 -1.1075
  143Eth    Hco 3604   3.152   2.473   4.429 -0.8449 -0.5469  2.1248
  143Eth     Ch 3605   3.051   2.518   4.242 -0.1426 -0.5741  0.0461
  143Eth    Hcc 3606   2.996   2.607   4.271  1.1643  0.6175 -1.0745
  143Eth    Hcc 3607   2.998   2.465   4.162 -0.3657  0.3296 -0.4048
  143Eth    Hcc 3608   3.138   2.551   4.186 -1.3528  1.0922 -0.9046
  144Eth     Ho 3609   0.199   0.578   6.395 -0.1284  0.3383 -1.8499
  144Eth     Oh 3610   0.285   0.543   6.405 -0.4851 -0.0470  0.1039
  144Eth     Co 3611   0.316   0.481   6.291 -0.4094 -0.7156 -0.1744
  144Eth    Hco 3612   0.276   0.529   6.202  0.4399 -0.6533 -0.5277
  144Eth    Hco 3613   0.285   0.376   6.293  2.5622 -1.6799 -1.6972
  144Eth     Ch 3614   0.469   0.492   6.267  0.7785 -0.0840 -0.0638
  144Eth    Hcc 3615   0.527   0.438   6.341  1.1147  2.5167  1.6541
  144Eth    Hcc 3616   0.488   0.599   6.278  1.1475  0.1577 -2.7392
  144Eth    Hcc 3617   0.500   0.469   6.166  1.1073 -1.0387  0.2538
  145Eth     Ho 3618   2.989   0.880   2.320  0.0055 -2.3978  0.1638
  145Eth     Oh 3619   2.914   0.891   2.265  0.3822  0.4322  0.1529
  145Eth     Co 3620   2.824   0.979   2.329  0.5750  0.6397  0.2494
  145Eth    Hco 3621   2.849   1.084   2.315  0.3033  0.9760  2.2566
  145Eth    Hco 3622   2.830   0.949   2.433  2.4165  2.5504  0.7158
  145Eth     Ch 3623   2.684   0.953   2.272  0.1321 -0.1381  0.4101
  145Eth    Hcc 3624   2.617   1.022   2.321  0.2975  1.4463 -1.5532
  145Eth    Hcc 3625   2.640   0.856   2.295  0.7633 -0.5428 -0.0351
  145Eth    Hcc 3626   2.691   0.969   2.164 -1.0338 -0.7703  0.2313
  146Eth     Ho 3627   2.582   0.227   1.775 -1.5146  0.8382 -0.2289
  146Eth     Oh 3628   2.575   0.193   1.688 -0.1203  0.1372 -0.0820
  146Eth     Co 3629   2.650   0.270   1.604 -0.7396  0.1037 -0.0923
  146Eth    Hco 3630   2.716   0.206   1.547  0.0781  1.5066 -0.7563
  146Eth    Hco 3631   2.714   0.345   1.650 -0.4989 -0.0374 -0.1981
  146Eth     Ch 3632   2.560   0.348   1.504 -0.2177 -0.2036 -0.0094
  146Eth    Hcc 3633   2.501   0.423   1.557  0.5541 -1.0118  2.0190
  146Eth    Hcc 3634   2.490   0.291   1.443 -2.6733  2.7426 -0.0710
  146Eth    Hcc 3635   2.637   0.394   1.442 -1.2925  0.8027 -0.6258
  147Eth     Ho 3636   2.599   2.494   9.659 -0.0479 -1.2158 -0.0888
  147Eth     Oh 3637   2.509   2.473   9.640 -0.2517 -0.2959 -0.1531
  147Eth     Co 3638   2.475   2.408   9.759 -0.5412 -0.3017 -0.2527
  147Eth    Hco 3639   2.509   2.470   9.842  0.7960 -1.6009  0.1752
  147Eth    Hco 3640   2.535   2.318   9.769  0.3235  0.1709 -1.0324
  147Eth     Ch 3641   2.331   2.371   9.747  0.2978  0.4255  0.0713
  147Eth    Hcc 3642   2.315   2.293   9.673 -2.6685  0.9296  0.1155
  147Eth    Hcc 3643   2.277   2.459   9.712 -1.6184 -0.7754 -0.0811
  147Eth    Hcc 3644   2.285   2.339   9.841 -3.2601 -0.3043 -1.8325
  148Eth     Ho 3645   1.646   1.972   9.688  0.5503 -2.3225  0.3445
  148Eth     Oh 3646   1.574   1.961   9.747 -0.2751 -0.1275 -0.2062
  148Eth     Co 3647   1.476   1.879   9.686 -0.5940 -0.4710  0.2462
  148Eth    Hco 3648   1.530   1.806   9.626 -1.3298 -1.4135  0.7204
  148Eth    Hco 3649   1.416   1.949   9.627  1.8756  0.4975 -1.1932
  148Eth     Ch 3650   1.384   1.812   9.789 -0.0086  0.1116 -0.5448
  148Eth    Hcc 3651   1.348   1.879   9.867  1.5455 -1.7530  1.8371
  148Eth    Hcc 3652   1.441   1.735   9.840 -0.8394 -0.1090  0.0656
  148Eth    Hcc 3653   1.296   1.771   9.739 -0.6559  0.0758  0.6142
  149Eth     Ho 3654   0.975   1.519   9.481 -0.3239 -1.7871 -1.1707
  149Eth     Oh 3655   1.055   1.518   9.530 -0.8730 -0.2998 -0.1966
  149Eth     Co 3656   1.017   1.440   9.644 -0.1770 -0.1202 -0.8668
  149Eth    Hco 3657   1.009   1.336   9.611  0.4497  0.4708 -2.8770
  149Eth    Hco 3658   0.916   1.476   9.667 -0.9192 -1.6087 -1.7063
  149Eth     Ch 3659   1.107   1.453   9.766  0.0259  0.6633  0.0519
  149Eth    Hcc 3660   1.130   1.558   9.786 -0.1955  0.9291 -1.0649
  149Eth    Hcc 3661   1.188   1.387   9.735 -2.5371 -2.9961  0.9419
  149Eth    Hcc 3662   1.065   1.400   9.851 -0.3027 -0.7287 -0.9667
  150Eth     Ho 3663   1.515   2.430   9.939 -1.2943  0.1904  1.2524
  150Eth     Oh 3664   1.538   2.520   9.954 -0.0789  0.0988  0.0611
  150Eth     Co 3665   1.623   2.555   9.842  0.2731  0.1031 -0.1146
  150Eth    Hco 3666   1.591   2.492   9.758  0.2214  0.2874 -0.2323
  150Eth    Hco 3667   1.727   2.525   9.859 -0.3027 -1.3786  0.9199
  150Eth     Ch 3668   1.607   2.708   9.818  0.3991 -0.2232  0.6170
  150Eth    Hcc 3669   1.638   2.769   9.903 -0.8871 -1.3368  1.9137
  150Eth    Hcc 3670   1.505   2.731   9.788  0.5360 -0.7901 -0.3184
  150Eth    Hcc 3671   1.664   2.717   9.725  0.1233 -1.2954  0.3451
  151Eth     Ho 3672   1.421   2.928   1.782  2.2149 -0.2327  1.6993
  151Eth     Oh 3673   1.443   2.854   1.729  0.3551  0.4224 -0.0582
  151Eth     Co 3674   1.413   2.896   1.598 -0.4172  0.2531 -0.3096
  151Eth    Hco 3675   1.464   2.982   1.555  0.9580  0.0426  0.8815
  151Eth    Hco 3676   1.311   2.934   1.608  1.2056  4.3140  1.7653
  151Eth     Ch 3677   1.418   2.781   1.496  0.4988 -0.3333 -0.3416
  151Eth    Hcc 3678   1.406   2.830   1.399 -0.0386  1.8498  0.7950
  151Eth    Hcc 3679   1.336   2.710   1.511  0.2801 -0.2271 -0.9997
  151Eth    Hcc 3680   1.516   2.737   1.481  1.9200  2.2740  0.9534
  152Sol     OW 3681   0.294   1.041   7.150  0.0191  0.4329  0.0619
  152Sol     HW 3682   0.221   1.082   7.196 -0.0579  1.4432 -0.9462
  152Sol     HW 3683   0.271   1.047   7.057  1.7548  1.5524 -0.3356
  152Sol     MW 3684   0.286   1.045   7.146 -0.4237  0.7080  0.9958
  153Sol     OW 3685   2.244   0.178   7.351 -0.1838 -0.3632 -0.2771
  153Sol     HW 3686   2.273   0.148   7.437 -0.3303 -0.7185 -0.3505
  153Sol     HW 3687   2.174   0.117   7.327 -1.1660  0.6377  0.0083
  153Sol     MW 3688   2.240   0.170   7.357 -0.2215 -0.3346 -0.3515
  154Sol     OW 3689   1.927   2.101   7.036  0.4933  0.6399 -0.1224
  154Sol     HW 3690   1.881   2.102   7.119 -0.1224 -0.9724 -0.4165
  154Sol     HW 3691   1.860   2.122   6.970  0.5982  0.2479 -0.3603
  154Sol     MW 3692   1.917   2.103   7.037 -0.5149  0.6638  0.3439
  155Sol     OW 3693   0.969   3.136   1.795  0.0464 -0.2511  0.1593
  155Sol     HW 3694   1.014   3.068   1.846  1.3916  1.1663  0.9380
  155Sol     HW 3695   0.903   3.171   1.855  0.2689  0.0437  0.2346
  155Sol     MW 3696   0.967   3.133   1.805  0.2881 -0.0118 -0.2125
  156Sol     OW 3697   2.577   1.521   4.763 -0.7714 -0.6286  0.4109
  156Sol     HW 3698   2.558   1.582   4.835  1.1443  1.4516 -0.7828
  156Sol     HW 3699   2.664   1.487   4.783 -0.2279 -0.0396 -0.9023
  156Sol     MW 3700   2.583   1.524   4.771  0.2012  0.5080  0.1207
  157Sol     OW 3701   1.954   2.855   1.945  0.3238  0.2517 -0.0152
  157Sol     HW 3702   1.863   2.873   1.969  0.0301 -0.3270 -0.6850
  157Sol     HW 3703   1.948   2.817   1.857  1.2819  1.0913 -0.4459
  157Sol     MW 3704   1.945   2.853   1.939 -0.4638 -0.3376 -0.6391
  158Sol     OW 3705   3.056   2.366   4.730  0.0418 -0.3526 -0.4090
  158Sol     HW 3706   2.968   2.338   4.753 -0.7998  0.2416 -2.7373
  158Sol     HW 3707   3.113   2.294   4.758 -1.1650 -0.7574  1.0491
  158Sol     MW 3708   3.053   2.357   4.734  0.1792 -0.1502  0.1666
  159Sol     OW 3709   1.911   0.628   5.011  0.7357  0.0765  0.2263
  159Sol     HW 3710   1.980   0.651   4.949  0.6138 -1.0067 -0.3286
  159Sol     HW 3711   1.832   0.667   4.975  0.4248 -1.6260 -1.0118
  159Sol     MW 3712   1.910   0.633   5.002 -0.1749  0.3536  0.0802
  160Sol     OW 3713   1.311   1.214   3.959  0.5396 -0.4348  0.0645
  160Sol     HW 3714   1.270   1.157   3.894  0.0321  0.2833 -0.2612
  160Sol     HW 3715   1.389   1.248   3.916  1.3796 -1.6539  0.6162
  160Sol     MW 3716   1.314   1.212   3.950  0.0307  0.2055 -0.2406
  161Sol     OW 3717   2.051   3.345   1.874  0.4294 -0.1453 -0.1120
  161Sol     HW 3718   2.023   3.343   1.966  0.6636  1.0188 -0.0012
  161Sol     HW 3719   2.072   3.254   1.853  0.1432 -0.4578  0.9173
  161Sol     MW 3720   2.050   3.337   1.881 -0.0780 -0.2312 -0.2237
  162Sol     OW 3721   0.475   3.344   5.517 -0.4112  0.5140 -0.4115
  162Sol     HW 3722   0.420   3.330   5.440 -1.7778  1.4933  0.3809
  162Sol     HW 3723   0.438   3.287   5.585  0.8923 -0.4763 -0.4890
  162Sol     MW 3724   0.467   3.337   5.516 -0.3162 -0.0219  0.2211
  163Sol     OW 3725   0.074   0.466   7.460  0.0139 -0.5643  0.0143
  163Sol     HW 3726   0.006   0.416   7.505 -2.1680  1.5315 -0.8451
  163Sol     HW 3727   0.123   0.509   7.531  0.0967 -1.6141  0.6057
  163Sol     MW 3728   0.073   0.466   7.470 -0.2922  0.2776  0.3334
  164Sol     OW 3729   1.751   1.261   1.530 -0.4440 -0.0836 -0.1999
  164Sol     HW 3730   1.752   1.230   1.439 -0.6807  0.0334 -0.2440
  164Sol     HW 3731   1.684   1.208   1.573 -0.4316 -0.0417 -0.1284
  164Sol     MW 3732   1.745   1.253   1.525 -0.1450  0.0392 -0.3052
  165Sol     OW 3733   2.942   1.404   5.032  0.5791  0.2331  0.0628
  165Sol     HW 3734   2.901   1.480   5.073  0.7158  0.5953 -0.4606
  165Sol     HW 3735   3.032   1.432   5.014  0.6167 -0.0339 -0.1771
  165Sol     MW 3736   2.947   1.414   5.034  0.3594  0.0598  0.1510
  166Sol     OW 3737   2.107   3.388   8.908 -0.1875  0.5237  0.0944
  166Sol     HW 3738   2.197   3.365   8.929 -0.0244  1.4428  0.4234
  166Sol     HW 3739   2.056   3.358   8.982  0.2871  3.0656  1.5004
  166Sol     MW 3740   2.110   3.383   8.916 -0.4215 -0.0741  0.0603
  167Sol     OW 3741   0.220   1.770   2.681  0.4007  0.3879  0.1592
  167Sol     HW 3742   0.152   1.740   2.622 -2.5672  0.7275  3.2340
  167Sol     HW 3743   0.223   1.865   2.670 -0.7693  0.5509  1.1155
  167Sol     MW 3744   0.214   1.775   2.675  0.4948 -0.0262  0.4840
  168Sol     OW 3745   2.794   2.653   7.991  0.1236  0.4301 -0.1712
  168Sol     HW 3746   2.803   2.558   7.998 -2.4590  0.1384 -0.2551
  168Sol     HW 3747   2.835   2.687   8.071  0.8426 -0.7647 -0.0296
  168Sol     MW 3748   2.798   2.648   7.999  0.1027 -0.0246 -0.6722
  169Sol     OW 3749   2.730   2.814   5.345  0.0729 -0.1973  0.0725
  169Sol     HW 3750   2.699   2.729   5.315 -2.1701 -0.0050  1.7238
  169Sol     HW 3751   2.660   2.875   5.323  1.2030  1.0447 -0.1399
  169Sol     MW 3752   2.721   2.812   5.341 -0.2421  0.1764 -0.1085
  170Sol     OW 3753   1.585   1.633   3.512 -0.1185  0.0993  0.2755
  170Sol     HW 3754   1.549   1.707   3.562 -1.1009 -0.7721  0.8621
  170Sol     HW 3755   1.525   1.561   3.528  0.6356 -0.7440 -0.5990
  170Sol     MW 3756   1.576   1.633   3.518 -0.2718 -0.1822 -0.4663
  171Sol     OW 3757   0.644   2.408   2.864 -0.0588  0.3099  1.0568
  171Sol     HW 3758   0.691   2.384   2.944 -0.2210  0.1557  1.1067
  171Sol     HW 3759   0.642   2.503   2.865  0.9558  0.3419  0.6455
  171Sol     MW 3760   0.648   2.414   2.871 -0.1190  0.6057 -0.2700
  172Sol     OW 3761   1.327   3.204   5.946 -0.1676 -0.5157 -0.1358
  172Sol     HW 3762   1.328   3.273   5.880 -1.5138 -2.4224 -2.1991
  172Sol     HW 3763   1.416   3.167   5.943 -0.0732 -0.2653 -0.4830
  172Sol     MW 3764   1.335   3.207   5.940  0.1233  0.0790  0.4107
  173Sol     OW 3765   2.737   2.975   3.351 -0.2407 -0.2942  0.2387
  173Sol     HW 3766   2.703   2.944   3.268 -3.0666 -2.2712  2.0294
  173Sol     HW 3767   2.659   3.008   3.398  1.1126 -0.0918  2.4424
  173Sol     MW 3768   2.727   2.975   3.348 -0.0054  0.1477 -0.4149
  174Sol     OW 3769   2.018   1.938   6.282  0.4078 -0.2384  0.3308
  174Sol     HW 3770   2.002   1.848   6.253  0.1068  0.0492 -0.3988
  174Sol     HW 3771   2.014   1.990   6.202 -2.1167  0.8140  1.1064
  174Sol     MW 3772   2.017   1.935   6.273  0.2987 -0.0130 -0.2167
  175Sol     OW 3773   0.132   3.262   7.236  0.3365  0.1225 -0.8308
  175Sol     HW 3774   0.196   3.191   7.244  1.4470  1.2412  0.4413
  175Sol     HW 3775   0.052   3.226   7.274  0.9490 -0.3878 -0.0001
  175Sol     MW 3776   0.131   3.253   7.240 -0.3977 -0.0773  0.0416
  176Sol     OW 3777   1.968   3.412   4.824 -0.1356 -0.4187 -0.0814
  176Sol     HW 3778   1.895   3.471   4.844 -0.2000 -0.5552  0.0889
  176Sol     HW 3779   1.941   3.328   4.860 -0.4992 -0.8137 -1.2359
  176Sol     MW 3780   1.959   3.410   4.829  0.2246  0.2877 -0.5934
  177Sol     OW 3781   2.797   0.013   8.963  0.1918 -0.5230 -0.3014
  177Sol     HW 3782   2.870  -0.008   8.905  0.2671 -1.5696  0.1665
  177Sol     HW 3783   2.820  -0.028   9.046  0.1657  1.0921  0.5328
  177Sol     MW 3784   2.806   0.007   8.965 -0.4467  0.6656  0.2743
  178Sol     OW 3785   1.370   1.343   5.420 -0.1232 -0.0521 -0.7962
  178Sol     HW 3786   1.338   1.274   5.477 -1.9733  1.7130  0.3832
  178Sol     HW 3787   1.464   1.346   5.436 -0.0690 -2.0068 -0.5854
  178Sol     MW 3788   1.376   1.337   5.426  0.4150  0.1868  0.5174
  179Sol     OW 3789   1.437   3.338   2.619 -0.0689  0.4341  0.2212
  179Sol     HW 3790   1.478   3.405   2.673  0.1918 -0.5365  1.2590
  179Sol     HW 3791   1.495   3.328   2.544  0.0625  1.1364  0.2341
  179Sol     MW 3792   1.445   3.343   2.618 -0.0933  0.4566  0.4236
  180Sol     OW 3793   2.857   1.148   8.120 -0.0495 -0.0592 -0.6284
  180Sol     HW 3794   2.921   1.134   8.050  1.0646 -3.0132  0.8784
  180Sol     HW 3795   2.781   1.097   8.093  1.0843 -2.8095  1.1146
  180Sol     MW 3796   2.856   1.142   8.111  0.5077 -0.6031  0.4638
  181Sol     OW 3797   1.813   2.667   9.306 -0.0088  0.3509  0.3781
  181Sol     HW 3798   1.826   2.761   9.320 -3.0549  0.5804  2.1094
  181Sol     HW 3799   1.778   2.660   9.218 -1.1892  1.0197  0.7756
  181Sol     MW 3800   1.811   2.675   9.300  0.3424 -0.2888  0.1795
  182Sol     OW 3801   2.745   1.146   4.625  0.0723  0.0516 -0.1829
  182Sol     HW 3802   2.749   1.227   4.676  0.3977 -0.1463  0.1034
  182Sol     HW 3803   2.668   1.100   4.657 -0.1727  0.2966 -0.4181
  182Sol     MW 3804   2.738   1.149   4.632 -0.0498 -0.1079 -0.3529
  183Sol     OW 3805   3.273   2.217   8.263  0.3371  0.6239  0.0693
  183Sol     HW 3806   3.342   2.241   8.325  1.1507 -0.1588 -0.5288
  183Sol     HW 3807   3.319   2.199   8.181 -0.5468 -0.1826 -0.2576
  183Sol     MW 3808   3.283   2.218   8.261 -0.1130 -0.4839 -0.3265
  184Sol     OW 3809   2.239   2.533   6.915  0.1998 -0.7665 -0.3069
  184Sol     HW 3810   2.211   2.473   6.845 -2.0986  0.8549 -0.8790
  184Sol     HW 3811   2.316   2.577   6.879 -0.8668 -0.0595 -1.8231
  184Sol     MW 3812   2.243   2.532   6.905  0.4408  0.3397  0.1836
  185Sol     OW 3813   2.348   1.844   5.999 -0.4457  0.2121  0.0779
  185Sol     HW 3814   2.385   1.932   5.986 -0.4011  0.2149  0.2197
  185Sol     HW 3815   2.317   1.845   6.090 -3.8102  1.3277 -1.0052
  185Sol     MW 3816   2.348   1.852   6.006 -0.6262  0.3144 -0.2330
  186Sol     OW 3817   2.744   0.201   7.732  0.0950 -0.6663 -0.5647
  186Sol     HW 3818   2.730   0.255   7.655  0.2628  0.3277  0.0931
  186Sol     HW 3819   2.658   0.162   7.750 -0.3555  0.4487 -0.2488
  186Sol     MW 3820   2.735   0.202   7.727  0.0190 -0.0418  0.3573
  187Sol     OW 3821   0.684   1.364   7.913 -0.8571  0.7682 -0.7442
  187Sol     HW 3822   0.766   1.318   7.929 -0.1971  1.4612 -2.1077
  187Sol     HW 3823   0.668   1.414   7.993 -1.1511 -1.1602  0.4242
  187Sol     MW 3824   0.690   1.364   7.921 -0.1528  0.2974  0.3261
  188Sol     OW 3825   1.872   1.907   3.818  0.2302  0.2189  0.0555
  188Sol     HW 3826   1.836   1.818   3.810  1.5960 -0.2805 -0.7776
  188Sol     HW 3827   1.895   1.915   3.910  1.1587 -0.7321 -0.0780
  188Sol     MW 3828   1.871   1.900   3.825 -0.2350 -0.4410  0.4645
  189Sol     OW 3829   0.853   0.964   5.726  0.2262  0.3022 -0.1358
  189Sol     HW 3830   0.896   0.903   5.786  1.5716  0.9497 -0.4172
  189Sol     HW 3831   0.918   1.033   5.712  0.0988 -0.0583 -2.6710
  189Sol     MW 3832   0.863   0.965   5.730 -0.2356  0.5313  0.0423
  190Sol     OW 3833   0.722   3.237   5.530 -0.0165 -0.0647  0.0246
  190Sol     HW 3834   0.633   3.255   5.499 -0.7767 -1.0913  1.5709
  190Sol     HW 3835   0.731   3.142   5.524  0.8879  0.0105  0.1190
  190Sol     MW 3836   0.714   3.231   5.527  0.3282 -0.0288  0.1237
  191Sol     OW 3837   2.386   1.584   9.969 -0.4189 -0.0277  0.2261
  191Sol     HW 3838   2.452   1.617  10.030  0.8837  0.4372 -1.3977
  191Sol     HW 3839   2.367   1.659   9.912 -0.7879 -0.7733 -0.6356
  191Sol     MW 3840   2.390   1.594   9.970 -0.6429 -0.0444  0.4179
  192Sol     OW 3841   0.567   2.264   6.477  0.5262  0.0247  0.4208
  192Sol     HW 3842   0.547   2.354   6.503  2.8489  1.8596 -3.6258
  192Sol     HW 3843   0.662   2.263   6.464  0.3627 -2.6305 -0.9273
  192Sol     MW 3844   0.574   2.272   6.478 -0.0661  0.1175 -0.6496
  193Sol     OW 3845   1.300   1.105   5.885  0.2636  0.3570  0.3092
  193Sol     HW 3846   1.252   1.171   5.935 -2.9941 -1.2989 -0.4853
  193Sol     HW 3847   1.287   1.024   5.933 -2.0773 -1.0785 -2.5679
  193Sol     MW 3848   1.295   1.104   5.894  0.5907  0.1777  0.4124
  194Sol     OW 3849   2.410   0.580   5.703 -0.7002 -0.4541 -0.5121
  194Sol     HW 3850   2.329   0.592   5.653  0.5447  0.4521 -2.3718
  194Sol     HW 3851   2.434   0.489   5.688 -0.6922 -0.3703 -1.0113
  194Sol     MW 3852   2.405   0.573   5.697  0.4639 -0.7958 -0.2222
  195Sol     OW 3853   2.353   3.357   2.622 -0.1328 -0.6661 -0.1276
  195Sol     HW 3854   2.437   3.363   2.576 -0.1207 -0.6398 -0.1011
  195Sol     HW 3855   2.368   3.400   2.706  0.1940 -1.8052  0.4033
  195Sol     MW 3856   2.362   3.361   2.625  0.3273 -0.4380 -0.0046
  196Sol     OW 3857   2.981   2.740   5.819  0.1281  0.2741  0.1993
  196Sol     HW 3858   2.939   2.709   5.739 -1.0816  1.4197  0.3877
  196Sol     HW 3859   3.074   2.750   5.795 -0.4457  1.8755 -1.4422
  196Sol     MW 3860   2.986   2.738   5.810  0.1217  0.0508  0.1524
  197Sol     OW 3861   1.252   3.356   9.216 -0.4822 -0.0658  0.0328
  197Sol     HW 3862   1.296   3.397   9.291 -0.7889  1.5178 -0.6191
  197Sol     HW 3863   1.322   3.317   9.165  0.0337  1.2590 -0.2850
  197Sol     MW 3864   1.262   3.356   9.218  0.2387 -0.1101 -0.3072
  198Sol     OW 3865   1.660   1.947   8.795 -0.3083  0.3249  0.2143
  198Sol     HW 3866   1.658   1.869   8.739  0.9111 -0.1148  0.7830
  198Sol     HW 3867   1.734   1.998   8.763 -0.0698  0.4345  0.9414
  198Sol     MW 3868   1.666   1.944   8.787 -0.0098 -0.2989 -0.2936
  199Sol     OW 3869   0.113   2.004   4.055  0.3230  0.3562  0.6467
  199Sol     HW 3870   0.023   1.980   4.034  0.4004  1.5953 -1.1990
  199Sol     HW 3871   0.131   1.959   4.137 -1.2050 -1.7668 -0.1388
  199Sol     MW 3872   0.106   1.998   4.060 -0.2000 -0.0504 -0.2380
  200Sol     OW 3873   1.448   3.412   5.553 -0.2085  0.1728 -0.3663
  200Sol     HW 3874   1.525   3.417   5.496 -0.5570 -2.7627 -1.1671
  200Sol     HW 3875   1.374   3.428   5.496 -0.2855  2.3790  0.2917
  200Sol     MW 3876   1.449   3.414   5.543 -0.1514 -0.0408 -0.5484
  201Sol     OW 3877   1.430   2.034   8.908 -0.0041  0.0598 -0.0091
  201Sol     HW 3878   1.495   2.007   8.843 -0.9214 -1.5403 -0.2775
  201Sol     HW 3879   1.375   2.097   8.862 -0.1480 -0.4464 -0.5320
  201Sol     MW 3880   1.431   2.037   8.898 -0.0301 -0.2996  0.3652
  202Sol     OW 3881   0.736   0.348   6.571  0.5207 -0.2349  0.4481
  202Sol     HW 3882   0.710   0.261   6.540 -0.4758  0.5573 -1.0016
  202Sol     HW 3883   0.824   0.361   6.535  0.9775 -0.9360  1.2926
  202Sol     MW 3884   0.742   0.341   6.565 -0.1981  0.0256  0.2273
  203Sol     OW 3885   2.369   0.791   4.781  0.6118 -1.3754 -0.2490
  203Sol     HW 3886   2.297   0.800   4.843  0.6899 -1.1955 -0.1827
  203Sol     HW 3887   2.342   0.720   4.722  0.2464 -1.1117 -0.4021
  203Sol     MW 3888   2.360   0.786   4.781  0.2809  0.3796  0.0669
  204Sol     OW 3889   1.452   1.627   4.426  0.3202  0.3497  0.1101
  204Sol     HW 3890   1.439   1.535   4.449 -1.1063 -0.0701 -2.1996
  204Sol     HW 3891   1.393   1.675   4.484 -0.0515 -0.3307  0.2984
  204Sol     MW 3892   1.445   1.623   4.433 -0.2273  0.3951 -0.4631
  205Sol     OW 3893   3.129   3.315   3.564  0.0313 -0.8215  0.5466
  205Sol     HW 3894   3.090   3.338   3.649  1.2559  0.7041  0.7181
  205Sol     HW 3895   3.072   3.359   3.500  0.3048 -0.2486  0.6928
  205Sol     MW 3896   3.120   3.321   3.566  0.1893  0.4115 -0.5597
  206Sol     OW 3897   2.309   1.350   2.642  0.0083 -0.3029  0.1101
  206Sol     HW 3898   2.296   1.444   2.653 -0.0015 -0.2754 -0.1222
  206Sol     HW 3899   2.221   1.316   2.623  0.1648 -0.2170 -0.7745
  206Sol     MW 3900   2.300   1.356   2.641  0.2379  0.4522  0.4963
  207Sol     OW 3901   2.898   0.922   4.486 -0.1260 -0.3806 -0.4971
  207Sol     HW 3902   2.850   0.996   4.524  0.5849 -0.3770  0.4073
  207Sol     HW 3903   2.904   0.944   4.393 -0.4170  0.4275 -0.3380
  207Sol     MW 3904   2.894   0.931   4.481  0.4151 -0.4756  0.6332
  208Sol     OW 3905   0.890   1.690   9.085 -0.2139  0.1920  0.0808
  208Sol     HW 3906   0.897   1.665   8.993 -2.5092  0.3531 -0.1701
  208Sol     HW 3907   0.978   1.717   9.110  0.6119 -0.6938 -1.8232
  208Sol     MW 3908   0.899   1.690   9.079  0.4101  0.1061 -0.1659
  209Sol     OW 3909   0.052   2.482   2.720  0.1344  0.4814 -0.7379
  209Sol     HW 3910  -0.040   2.491   2.744  0.4778  0.8816  0.4924
  209Sol     HW 3911   0.052   2.467   2.626 -1.2802 -1.2347 -0.4842
  209Sol     MW 3912   0.044   2.482   2.714 -0.1336 -0.1531  0.4732
  210Sol     OW 3913   2.124   3.037   9.358 -0.6382 -0.1517 -0.2051
  210Sol     HW 3914   2.136   3.032   9.264 -1.0376  2.6393 -0.4649
  210Sol     HW 3915   2.213   3.038   9.394 -0.3854  1.6577 -0.8025
  210Sol     MW 3916   2.133   3.037   9.353  0.1999  0.4871  0.2905
  211Sol     OW 3917   0.843   0.646   4.051 -0.1671 -0.0294 -0.0204
  211Sol     HW 3918   0.928   0.640   4.094  0.4821  0.9721 -1.1380
  211Sol     HW 3919   0.788   0.582   4.097  0.7862  0.3070  1.6082
  211Sol     MW 3920   0.845   0.639   4.059 -0.3743 -0.1184  0.0520
  212Sol     OW 3921   0.976   3.322   9.265 -0.1470 -0.1789  0.5267
  212Sol     HW 3922   0.972   3.235   9.305  0.0821  0.0864  1.1237
  212Sol     HW 3923   1.069   3.344   9.265 -0.0422 -0.5852 -1.0225
  212Sol     MW 3924   0.984   3.316   9.269 -0.1836 -0.2784 -0.5173
  213Sol     OW 3925   1.213   0.211   9.415 -0.4181 -0.1142  0.3717
  213Sol     HW 3926   1.236   0.244   9.328 -1.9995  1.0301  0.3652
  213Sol     HW 3927   1.280   0.146   9.435  1.0608  0.9916 -0.8971
  213Sol     MW 3928   1.221   0.208   9.409  0.4558  0.5975  0.1888
  214Sol     OW 3929   0.142   1.678   4.467  0.3969 -0.0362 -0.0405
  214Sol     HW 3930   0.070   1.620   4.444  1.5285 -0.9259 -1.5021
  214Sol     HW 3931   0.101   1.762   4.487 -1.1938 -1.0784  1.2099
  214Sol     MW 3932   0.132   1.681   4.467  0.3874  1.0678 -0.3273
  215Sol     OW 3933   1.896   3.055   9.087  0.4970 -0.2995  0.4698
  215Sol     HW 3934   1.963   3.007   9.039  0.7865 -0.7070  1.2836
  215Sol     HW 3935   1.813   3.018   9.057  0.6852 -0.6860  0.4312
  215Sol     MW 3936   1.894   3.048   9.080 -0.0651 -0.2154  0.5289
  216Sol     OW 3937   2.382   2.300   7.036 -0.1269 -0.4226 -0.6287
  216Sol     HW 3938   2.328   2.378   7.026  0.3188 -0.2806 -2.1083
  216Sol     HW 3939   2.320   2.228   7.043 -0.5276 -0.0511 -0.3487
  216Sol     MW 3940   2.372   2.301   7.036 -0.1953  0.3686  0.0045
  217Sol     OW 3941   2.720   1.585   6.667  0.3165  0.4511  0.7404
  217Sol     HW 3942   2.676   1.643   6.605 -0.7532 -1.6945 -0.5797
  217Sol     HW 3943   2.674   1.598   6.750 -1.8554 -0.6099 -0.2432
  217Sol     MW 3944   2.712   1.591   6.669  0.0176  0.1280  0.0903
  218Sol     OW 3945   0.586   2.398   4.393  0.0809 -0.2020 -0.0199
  218Sol     HW 3946   0.576   2.366   4.303  1.5386 -0.5275 -0.0795
  218Sol     HW 3947   0.517   2.464   4.403 -1.1912 -1.3983 -0.8051
  218Sol     MW 3948   0.579   2.401   4.386  0.0371 -0.0147 -0.5404
  219Sol     OW 3949   1.590   2.564   5.515 -0.2519 -0.4285 -0.3092
  219Sol     HW 3950   1.656   2.616   5.468 -0.4504  1.4003  1.3658
  219Sol     HW 3951   1.506   2.596   5.482 -0.4316  1.6210  1.9204
  219Sol     MW 3952   1.589   2.572   5.508  0.8373  0.2170 -0.1022
  220Sol     OW 3953   1.884   3.241   5.157 -0.0210 -0.6427 -0.7361
  220Sol     HW 3954   1.826   3.316   5.146  0.5701  0.0480  0.6956
  220Sol     HW 3955   1.880   3.195   5.073 -0.4084  0.9609 -1.6213
  220Sol     MW 3956   1.878   3.243   5.149 -0.4995 -0.3159  0.6903
  221Sol     OW 3957   2.254   0.875   2.993 -0.3968  0.1210 -0.0846
  221Sol     HW 3958   2.232   0.923   3.073 -1.0468  1.7581 -1.2351
  221Sol     HW 3959   2.313   0.933   2.945 -1.0988 -0.2692 -1.4467
  221Sol     MW 3960   2.257   0.884   2.996  0.2623  0.0994 -0.2206
  222Sol     OW 3961   2.352   1.825   3.647 -0.3609  0.6320 -0.7401
  222Sol     HW 3962   2.336   1.749   3.592 -2.9487  1.5400 -1.3506
  222Sol     HW 3963   2.265   1.849   3.681  0.7638  1.7801  1.4852
  222Sol     MW 3964   2.343   1.821   3.646  0.3086  0.0051  0.2921
  223Sol     OW 3965   0.981   0.751   5.868  0.0444 -0.0702  0.1931
  223Sol     HW 3966   0.968   0.799   5.949 -0.6745  0.4402 -0.2101
  223Sol     HW 3967   1.074   0.729   5.867  0.1710  0.4167  0.8810
  223Sol     MW 3968   0.988   0.754   5.875 -0.2852 -1.0361  0.4693
  224Sol     OW 3969   3.150   0.809   5.999 -0.2960 -0.2311 -0.0416
  224Sol     HW 3970   3.201   0.884   6.030 -0.1387  0.2483 -1.3950
  224Sol     HW 3971   3.201   0.733   6.024  1.5421  0.2726 -2.0816
  224Sol     MW 3972   3.159   0.809   6.004 -0.3364  0.2418  0.1609
  225Sol     OW 3973   1.346   1.447   7.652  0.0294 -0.0633  0.3240
  225Sol     HW 3974   1.352   1.462   7.746 -0.8799  0.0613  0.3728
  225Sol     HW 3975   1.378   1.529   7.612 -0.5679  0.2797  0.5405
  225Sol     MW 3976   1.349   1.456   7.657 -0.4580 -0.5752 -0.4055
  226Sol     OW 3977   1.011   1.179   4.544 -0.1380 -0.4714  0.1956
  226Sol     HW 3978   0.980   1.256   4.497  1.7163 -0.2099 -0.6531
  226Sol     HW 3979   1.006   1.108   4.479  0.7161 -0.4849  0.1365
  226Sol     MW 3980   1.008   1.180   4.534  0.4826  0.0337 -0.3997
  227Sol     OW 3981   3.035   0.177   7.724  0.3558 -0.2914 -0.1435
  227Sol     HW 3982   3.052   0.199   7.816  0.1739 -2.6807  0.4850
  227Sol     HW 3983   2.940   0.173   7.717  0.3598  0.1938 -0.5253
  227Sol     MW 3984   3.028   0.178   7.732 -0.1808 -0.2747  0.2798
  228Sol     OW 3985   2.648   2.507   5.686 -0.3118 -0.3837  0.4842
  228Sol     HW 3986   2.642   2.510   5.782  2.1964  0.0042  0.6600
  228Sol     HW 3987   2.591   2.577   5.656 -3.0845 -2.0605  1.5594
  228Sol     MW 3988   2.642   2.513   5.692  0.6068 -0.2245 -0.0575
  229Sol     OW 3989   1.742   2.462   7.696 -0.2065  0.4123  0.0757
  229Sol     HW 3990   1.755   2.440   7.788  0.1363 -0.0122 -0.0764
  229Sol     HW 3991   1.649   2.444   7.680  0.4760 -2.7691 -0.5518
  229Sol     MW 3992   1.735   2.459   7.703 -0.1127 -0.0379  0.3037
  230Sol     OW 3993   0.582   2.469   2.330  0.3291  0.4188 -0.5516
  230Sol     HW 3994   0.547   2.491   2.416  1.0039 -0.8334  0.0597
  230Sol     HW 3995   0.591   2.374   2.331  0.2729  0.3814 -2.0389
  230Sol     MW 3996   0.580   2.463   2.338 -0.2120  0.1252 -0.4776
  231Sol     OW 3997   3.249   2.227   4.914 -0.3016  0.0144 -0.2401
  231Sol     HW 3998   3.268   2.201   5.004 -0.7391 -1.8251 -0.6578
  231Sol     HW 3999   3.329   2.206   4.866  0.6200  2.7484  0.0425
  231Sol     MW 4000   3.258   2.222   4.918  0.3607  0.5028  0.3813
  232Sol     OW 4001   1.085   2.423   7.174  0.5086 -0.0316 -0.1137
  232Sol     HW 4002   1.089   2.494   7.111  0.9749 -0.1967 -0.2751
  232Sol     HW 4003   1.004   2.438   7.223 -0.2929 -0.3673 -1.3082
  232Sol     MW 4004   1.078   2.430   7.173 -0.7004  0.0811 -0.2616
  233Sol     OW 4005   2.544   0.558   4.158 -0.1700 -0.0435  0.2849
  233Sol     HW 4006   2.491   0.638   4.160  0.4971  0.4368 -0.4363
  233Sol     HW 4007   2.553   0.533   4.249 -5.0815 -2.5159  0.2143
  233Sol     MW 4008   2.540   0.563   4.166 -1.1657  0.1335  0.2550
  234Sol     OW 4009   1.247   0.400   8.452 -0.1976 -0.7063 -0.0576
  234Sol     HW 4010   1.233   0.312   8.488 -0.4601 -1.7909 -2.7267
  234Sol     HW 4011   1.304   0.387   8.377  0.0744  1.4801 -0.2596
  234Sol     MW 4012   1.250   0.391   8.449 -0.1164 -1.1290  0.1834
  235Sol     OW 4013   1.908   0.810   8.632  0.3110 -0.3933  0.7623
  235Sol     HW 4014   1.915   0.728   8.583 -0.4739 -0.0356  0.0405
  235Sol     HW 4015   1.855   0.867   8.576  0.5591  0.4903  1.4175
  235Sol     MW 4016   1.904   0.808   8.623  0.3641 -0.1562  0.0506
  236Sol     OW 4017   0.415   0.419   2.014  0.3194 -0.3432  0.2190
  236Sol     HW 4018   0.362   0.397   2.090  0.5740 -0.0918  0.4699
  236Sol     HW 4019   0.454   0.504   2.035  1.0719 -0.6732  0.1745
  236Sol     MW 4020   0.414   0.424   2.023  0.2517 -0.2757 -0.1590
  237Sol     OW 4021   2.397   1.087   8.945  0.1669  0.2897  0.0527
  237Sol     HW 4022   2.433   1.087   9.034  0.0214  0.6342  0.1105
  237Sol     HW 4023   2.305   1.066   8.955 -0.3341  2.4169  0.1806
  237Sol     MW 4024   2.392   1.085   8.953  0.1525  0.1730 -0.2430
  238Sol     OW 4025   2.789   1.913   2.012  0.0446 -0.2106 -0.5962
  238Sol     HW 4026   2.856   1.981   2.007 -1.3669  1.3695  1.0444
  238Sol     HW 4027   2.712   1.953   1.970 -0.6498 -0.9725 -0.0547
  238Sol     MW 4028   2.788   1.923   2.007 -0.0175  0.6129  0.0264
  239Sol     OW 4029   0.869   1.116   1.475 -0.2909 -0.0674 -0.0560
  239Sol     HW 4030   0.842   1.207   1.489 -0.7209 -0.2420  0.2598
  239Sol     HW 4031   0.893   1.112   1.383  0.3682  0.5343  0.0831
  239Sol     MW 4032   0.869   1.124   1.468 -0.1315  0.3899  0.3014
  240Sol     OW 4033   2.089   2.153   3.131 -0.3990  0.2144  0.0043
  240Sol     HW 4034   2.027   2.108   3.189 -0.5745  0.7716  0.2540
  240Sol     HW 4035   2.174   2.140   3.173 -0.2325 -1.2580 -0.7730
  240Sol     MW 4036   2.091   2.148   3.140  0.4311 -0.2034  0.2270
  241Sol     OW 4037   0.995   2.295   3.049  0.0522 -0.7462 -0.0172
  241Sol     HW 4038   0.902   2.277   3.057 -0.0957  0.0110  0.0156
  241Sol     HW 4039   1.012   2.293   2.955 -0.3288  0.6969 -0.1315
  241Sol     MW 4040   0.988   2.293   3.041  0.0045 -0.3698 -0.0361
  242Sol     OW 4041   2.361   0.416   6.976  0.0975  0.5686 -0.3701
  242Sol     HW 4042   2.334   0.507   6.962  0.4269  0.3018 -2.8129
  242Sol     HW 4043   2.448   0.410   6.937  0.1664 -0.7526 -0.0472
  242Sol     MW 4044   2.366   0.424   6.972  0.0929 -0.1740 -0.1398
  243Sol     OW 4045   0.987   2.932   3.236 -0.4083  0.1653 -0.4687
  243Sol     HW 4046   1.070   2.915   3.193  1.7705  1.4293  3.0784
  243Sol     HW 4047   0.972   2.856   3.292  0.1333  1.4885  1.5164
  243Sol     MW 4048   0.993   2.924   3.237  0.4742  0.4883  0.1445
  244Sol     OW 4049   2.105   0.125   9.657 -0.1529 -0.3532  0.1265
  244Sol     HW 4050   2.098   0.169   9.742  0.5071 -1.0335  0.5314
  244Sol     HW 4051   2.067   0.188   9.595  2.5131  1.6281  0.4195
  244Sol     MW 4052   2.101   0.135   9.659 -0.2401  0.0230 -0.0011
  245Sol     OW 4053   0.084   0.222   3.927  0.1602  0.7335 -0.0807
  245Sol     HW 4054  -0.012   0.216   3.931  0.2550 -0.4668  0.5384
  245Sol     HW 4055   0.107   0.286   3.994 -0.1643  0.5807  0.1777
  245Sol     MW 4056   0.077   0.227   3.933 -0.2327 -0.2468 -0.1285
  246Sol     OW 4057   0.676   1.448   4.575 -0.7551 -0.6774  0.0695
  246Sol     HW 4058   0.638   1.360   4.579  1.2114 -1.5118  0.9176
  246Sol     HW 4059   0.755   1.438   4.522 -1.2561  0.8784 -1.0096
  246Sol     MW 4060   0.680   1.439   4.571 -0.1407  0.6680 -0.7863
  247Sol     OW 4061   0.211   2.735   3.607 -0.4442 -0.0514 -0.2093
  247Sol     HW 4062   0.182   2.768   3.522 -1.6411 -0.5858 -0.0305
  247Sol     HW 4063   0.131   2.702   3.648  0.2162 -0.3230  0.8877
  247Sol     MW 4064   0.201   2.735   3.603 -0.3952 -0.1951 -0.2791
  248Sol     OW 4065   2.429   0.386   3.741  0.2484  0.1857  0.0553
  248Sol     HW 4066   2.515   0.369   3.703  1.3037  1.9330  1.5761
  248Sol     HW 4067   2.435   0.349   3.830 -1.2709 -1.4617 -0.5040
  248Sol     MW 4068   2.438   0.381   3.746 -0.1362  0.4207  0.0930
  249Sol     OW 4069   2.882   0.153   6.221  0.2208  0.5517  0.7096
  249Sol     HW 4070   2.906   0.230   6.170  1.0525 -0.0989  0.0954
  249Sol     HW 4071   2.959   0.135   6.275  0.5279 -0.5872 -0.0831
  249Sol     MW 4072   2.891   0.158   6.221  0.1272  0.0887  0.2819
  250Sol     OW 4073   1.710   0.721   4.857  0.4373  0.1565  0.2059
  250Sol     HW 4074   1.617   0.716   4.881  0.7809 -1.3505  1.2890
  250Sol     HW 4075   1.719   0.807   4.816 -1.1575  0.8985  1.3390
  250Sol     MW 4076   1.702   0.728   4.855 -0.4225 -0.1861 -0.1694
  251Sol     OW 4077   1.334   2.437   1.468 -0.1282  0.2399  0.5368
  251Sol     HW 4078   1.263   2.498   1.486 -0.5930 -0.6161  1.6476
  251Sol     HW 4079   1.405   2.464   1.526 -0.9203 -1.2712  2.2815
  251Sol     MW 4080   1.334   2.445   1.474  0.0909 -0.4122 -0.3621
  252Sol     OW 4081   2.764   2.240   1.626  0.0269 -0.6715 -1.0086
  252Sol     HW 4082   2.742   2.330   1.602  1.7158 -0.2864 -1.1575
  252Sol     HW 4083   2.747   2.190   1.547 -1.8701 -0.6690 -0.6364
  252Sol     MW 4084   2.760   2.244   1.617  0.2821  0.4682  0.2867
  253Sol     OW 4085   2.482   0.115   9.824 -0.4430  0.0291  0.2363
  253Sol     HW 4086   2.469   0.099   9.730 -0.6046 -0.1102  0.2819
  253Sol     HW 4087   2.431   0.046   9.867  0.3747 -0.4654  0.4184
  253Sol     MW 4088   2.476   0.107   9.819  0.0499 -0.5389  0.2695
  254Sol     OW 4089   0.640   2.625   9.787  0.0292  0.8131  0.4120
  254Sol     HW 4090   0.584   2.651   9.860 -0.9621 -2.7648  0.9910
  254Sol     HW 4091   0.705   2.566   9.826  0.5749  0.2623 -1.2783
  254Sol     MW 4092   0.641   2.622   9.797  0.2610  0.0551  0.1099
  255Sol     OW 4093   0.871   3.346   4.037  0.1029 -0.3888  0.1701
  255Sol     HW 4094   0.804   3.345   4.105 -2.0390 -0.6041 -1.8540
  255Sol     HW 4095   0.831   3.396   3.965  1.5541 -1.7120 -1.6186
  255Sol     MW 4096   0.861   3.350   4.037 -0.1606 -0.2840  0.3449
  256Sol     OW 4097   3.230   2.742   9.468 -0.4598 -0.0152 -0.4006
  256Sol     HW 4098   3.232   2.805   9.540 -0.7048 -0.4761  0.0199
  256Sol     HW 4099   3.218   2.657   9.512  1.9141 -0.5777 -0.8104
  256Sol     MW 4100   3.229   2.740   9.478 -0.0079  0.4656  0.0008
  257Sol     OW 4101   0.033   0.788   3.459 -0.0184 -0.6748 -0.7834
  257Sol     HW 4102   0.065   0.717   3.403  0.0466 -0.3714 -1.1392
  257Sol     HW 4103   0.105   0.852   3.460 -0.6235  0.0414 -1.6470
  257Sol     MW 4104   0.042   0.787   3.454 -0.4380 -0.4074 -0.6793
  258Sol     OW 4105   0.253   0.788   4.849 -0.2934 -0.4003  0.1447
  258Sol     HW 4106   0.210   0.845   4.912  2.6586 -0.4995  2.3984
  258Sol     HW 4107   0.192   0.715   4.836 -0.3763 -1.1433  4.1383
  258Sol     MW 4108   0.244   0.786   4.853 -0.3707  0.0265  0.2857
  259Sol     OW 4109   0.297   2.100   1.886  0.4107  0.1536  0.3890
  259Sol     HW 4110   0.236   2.039   1.843 -0.2801  0.1872  1.2995
  259Sol     HW 4111   0.369   2.109   1.824 -0.2069 -0.3953 -0.4284
  259Sol     MW 4112   0.298   2.095   1.877 -0.1320 -0.8401 -0.6479
  260Sol     OW 4113   0.266   1.164   5.054  0.1988 -0.4699 -0.6794
  260Sol     HW 4114   0.297   1.181   5.143  1.2527  0.8823 -1.2905
  260Sol     HW 4115   0.343   1.178   4.999 -0.1561 -2.3793 -1.7162
  260Sol     MW 4116   0.275   1.167   5.057 -0.0636  0.1486 -0.4928
  261Sol     OW 4117   2.419   1.123   4.239  0.4373 -0.3571 -0.0604
  261Sol     HW 4118   2.411   1.218   4.225  0.7519 -0.0657  1.6264
  261Sol     HW 4119   2.513   1.107   4.234  0.5139 -0.3213  1.2117
  261Sol     MW 4120   2.427   1.130   4.237 -0.1228  0.7728 -0.7909
  262Sol     OW 4121   0.832   0.508   8.116 -0.0549 -0.4093  0.0014
  262Sol     HW 4122   0.885   0.432   8.141  0.8101  0.1483 -0.1190
  262Sol     HW 4123   0.871   0.539   8.035  0.0852  0.6439  0.4727
  262Sol     MW 4124   0.840   0.504   8.111  0.3527 -0.7495  0.0977
  263Sol     OW 4125   1.351   1.297   4.928  0.3178  0.1028 -0.3534
  263Sol     HW 4126   1.301   1.301   4.846  0.3667 -1.2007 -0.4670
  263Sol     HW 4127   1.285   1.291   4.997  0.2669  1.7690 -0.2505
  263Sol     MW 4128   1.341   1.297   4.927 -0.5159  0.7074 -0.1356
  264Sol     OW 4129   1.247   0.208   2.443  0.2541  0.2362  0.2845
  264Sol     HW 4130   1.187   0.258   2.499 -0.5099 -0.6772  0.2837
  264Sol     HW 4131   1.333   0.223   2.482 -0.2077  0.0490  1.3833
  264Sol     MW 4132   1.249   0.214   2.452 -0.0184 -0.0185  0.2261
  265Sol     OW 4133   0.174   2.308   4.301 -0.1651  0.5558  0.0897
  265Sol     HW 4134   0.121   2.364   4.359 -0.4700 -0.0455  0.3925
  265Sol     HW 4135   0.136   2.322   4.214  1.8275  3.3323 -0.4027
  265Sol     MW 4136   0.166   2.315   4.298  0.1351  0.4062 -0.5251
  266Sol     OW 4137   1.845   1.064   7.445 -0.0461 -0.3168 -0.1350
  266Sol     HW 4138   1.750   1.070   7.457  0.0843  1.0983  0.2943
  266Sol     HW 4139   1.870   0.983   7.490 -0.8482  0.1401  1.1703
  266Sol     MW 4140   1.839   1.057   7.450  0.3358  0.0291  0.7076
  267Sol     OW 4141   0.770   0.529   5.535  0.4132  0.2474 -0.0904
  267Sol     HW 4142   0.854   0.574   5.529 -0.1438  1.2305 -0.6752
  267Sol     HW 4143   0.734   0.556   5.619  1.4173 -1.5036  0.9324
  267Sol     MW 4144   0.774   0.535   5.542 -0.0498 -0.3244 -0.1765
  268Sol     OW 4145   2.026   0.483   3.521  0.2263  0.5903 -0.1970
  268Sol     HW 4146   2.054   0.513   3.434 -1.0158 -0.6680 -1.0539
  268Sol     HW 4147   2.105   0.490   3.575  0.4911  3.4184 -0.8623
  268Sol     MW 4148   2.036   0.487   3.518  0.1541  0.6528 -0.2259
  269Sol     OW 4149   0.925   0.242   2.014 -0.5534  0.0802  0.3013
  269Sol     HW 4150   0.896   0.221   1.925  0.0670 -0.3953  0.2116
  269Sol     HW 4151   0.909   0.162   2.064 -1.1938  0.4493  0.6929
  269Sol     MW 4152   0.921   0.233   2.010 -0.2729  0.2997 -0.5800
  270Sol     OW 4153   1.648   1.695   4.615  0.0859  0.2646  0.1893
  270Sol     HW 4154   1.584   1.706   4.545  0.0862 -1.8399 -0.1867
  270Sol     HW 4155   1.595   1.690   4.695 -0.2055 -0.9556 -0.0668
  270Sol     MW 4156   1.638   1.695   4.616 -0.2011 -0.1524  0.6925
  271Sol     OW 4157   0.165   0.689   9.714  0.1807  0.3098  0.2920
  271Sol     HW 4158   0.149   0.619   9.777 -0.4275  0.4370  0.2846
  271Sol     HW 4159   0.260   0.701   9.714  0.5014 -1.9681 -1.3132
  271Sol     MW 4160   0.172   0.684   9.720  0.5699 -0.1961 -0.1259
  272Sol     OW 4161   0.487   1.960   7.692 -0.1811  0.3206  0.5560
  272Sol     HW 4162   0.580   1.980   7.682 -0.3722  1.1760  0.4683
  272Sol     HW 4163   0.484   1.865   7.703  0.5204 -0.0138 -1.8418
  272Sol     MW 4164   0.495   1.953   7.692 -0.2748 -0.5538 -0.1170
  273Sol     OW 4165   2.831   3.441   4.922  0.3288  0.1980  0.2566
  273Sol     HW 4166   2.781   3.367   4.886  1.2432 -0.8972  1.1932
  273Sol     HW 4167   2.819   3.434   5.017  1.5872  0.3980  0.4370
  273Sol     MW 4168   2.826   3.434   4.927  0.1269  0.4823  0.7328
  274Sol     OW 4169   2.930   0.534   8.304 -0.7166 -0.2440 -0.3460
  274Sol     HW 4170   2.924   0.453   8.356  0.3158 -0.5406 -0.6854
  274Sol     HW 4171   2.923   0.504   8.213  1.0653 -0.1058 -0.5425
  274Sol     MW 4172   2.929   0.524   8.301  0.1389 -0.7048 -0.0035
  275Sol     OW 4173   3.322   0.248   7.090  0.1248  0.5416 -0.1764
  275Sol     HW 4174   3.392   0.274   7.151 -0.9847  0.5086  1.1332
  275Sol     HW 4175   3.341   0.156   7.071 -0.6939 -0.0671  1.7917
  275Sol     MW 4176   3.330   0.242   7.094 -0.0003  0.2329 -0.2514
  276Sol     OW 4177   1.790   0.197   7.634  0.0206 -0.3842  0.1782
  276Sol     HW 4178   1.750   0.253   7.701 -1.3316  0.5175 -1.3343
  276Sol     HW 4179   1.882   0.189   7.660  0.1868  2.3766  0.5812
  276Sol     MW 4180   1.795   0.202   7.642 -0.4057  0.0436  0.0373
  277Sol     OW 4181   0.131   2.524   8.175 -0.1800 -0.4469 -0.1172
  277Sol     HW 4182   0.044   2.520   8.134  0.0885 -0.1445 -0.7190
  277Sol     HW 4183   0.189   2.482   8.111 -0.0954 -1.8248  0.8574
  277Sol     MW 4184   0.128   2.520   8.165  0.4275  0.4867  0.0413
  278Sol     OW 4185   1.139   2.802   6.555 -0.4328  0.6383 -0.4314
  278Sol     HW 4186   1.139   2.706   6.559 -4.3590  0.5912  1.5422
  278Sol     HW 4187   1.203   2.829   6.620  0.9908 -0.6073 -1.2809
  278Sol     MW 4188   1.144   2.796   6.561 -0.2100  0.2947 -0.4370
  279Sol     OW 4189   2.704   0.178   4.752  0.1090  0.1573  0.0985
  279Sol     HW 4190   2.689   0.265   4.791  1.7219  0.5019 -0.0237
  279Sol     HW 4191   2.752   0.130   4.819 -0.7272 -0.6275  0.1362
  279Sol     MW 4192   2.707   0.182   4.762 -0.1418  0.5164  0.0030
  280Sol     OW 4193   0.554   1.122   5.477  0.0108 -0.2712  0.1939
  280Sol     HW 4194   0.565   1.031   5.505 -2.4690 -0.8165 -0.4908
  280Sol     HW 4195   0.544   1.171   5.559  0.7757 -0.6953  0.5439
  280Sol     MW 4196   0.554   1.118   5.487 -0.5469  0.4737 -0.0733
  281Sol     OW 4197   1.969   0.486   2.420  0.0923  0.2765  0.2787
  281Sol     HW 4198   1.965   0.391   2.434  0.6888  0.4210  1.4543
  281Sol     HW 4199   1.890   0.520   2.461 -0.1134  0.2943 -0.1288
  281Sol     MW 4200   1.962   0.481   2.425  0.0191  0.3347 -0.3621
  282Sol     OW 4201   1.363   3.159   3.220  0.3518  0.2264  0.5578
  282Sol     HW 4202   1.276   3.197   3.234  0.7326  1.3207  0.0298
  282Sol     HW 4203   1.403   3.158   3.307  0.3383  1.0431  0.5768
  282Sol     MW 4204   1.359   3.162   3.229  0.5164 -0.6245 -0.2061
  283Sol     OW 4205   1.368   2.168   1.364 -0.3723  0.3510 -0.4585
  283Sol     HW 4206   1.451   2.198   1.401  0.7730  1.3469 -3.6800
  283Sol     HW 4207   1.316   2.247   1.354 -0.5185  0.1466 -1.3355
  283Sol     MW 4208   1.371   2.177   1.367  0.1035 -0.5771  0.1791
  284Sol     OW 4209   3.104   3.070   4.851 -0.0608  0.7177 -0.0875
  284Sol     HW 4210   3.042   3.070   4.777 -1.2344  0.9241  0.8752
  284Sol     HW 4211   3.051   3.044   4.926  0.6273  2.5385  1.0662
  284Sol     MW 4212   3.094   3.068   4.851  0.3515  0.5020  0.9658
  285Sol     OW 4213   0.708   2.665   4.467 -0.0051  0.3988 -0.0482
  285Sol     HW 4214   0.684   2.679   4.558 -1.5143 -0.0277 -0.3634
  285Sol     HW 4215   0.714   2.570   4.458 -1.3166  0.3624 -0.7294
  285Sol     MW 4216   0.706   2.657   4.474  0.3764 -0.1798 -0.3522
  286Sol     OW 4217   0.915   2.951   3.968 -0.3410  0.2235  0.3626
  286Sol     HW 4218   0.846   2.887   3.987  0.0554 -0.4428 -0.3555
  286Sol     HW 4219   0.879   3.004   3.896  1.0392 -2.1003 -2.1448
  286Sol     MW 4220   0.905   2.950   3.963  0.4551  0.8740  0.0055
  287Sol     OW 4221   3.110   2.554   3.260 -0.0654  0.2775  0.3511
  287Sol     HW 4222   3.075   2.477   3.304  0.3431  1.1710  2.3059
  287Sol     HW 4223   3.032   2.602   3.230 -0.3175 -0.8904 -0.9159
  287Sol     MW 4224   3.099   2.552   3.261 -0.2641  0.4624 -0.3653
  288Sol     OW 4225   1.934   1.733   6.736 -0.4319  0.0039 -0.4625
  288Sol     HW 4226   1.857   1.720   6.681  0.1211 -0.5563 -1.1253
  288Sol     HW 4227   2.002   1.761   6.675  0.0907 -0.2505 -0.0001
  288Sol     MW 4228   1.933   1.734   6.725 -0.1927 -0.9385  0.0650
  289Sol     OW 4229   1.159   2.536   4.888 -0.3721 -0.0609  0.4940
  289Sol     HW 4230   1.188   2.446   4.877  0.3133  0.0735  1.1359
  289Sol     HW 4231   1.238   2.589   4.876 -0.6729  0.4194  0.5881
  289Sol     MW 4232   1.169   2.533   4.886 -0.2270  0.4319  0.2628
  290Sol     OW 4233   1.406   0.013   9.415  0.0169  0.0736  0.2082
  290Sol     HW 4234   1.491   0.031   9.374 -0.3838  1.3762 -0.0515
  290Sol     HW 4235   1.414  -0.077   9.447  1.8535  0.5130  1.0628
  290Sol     MW 4236   1.415   0.006   9.414 -0.8701  0.3729  0.0831
  291Sol     OW 4237   3.045   2.050   4.285 -0.5552  0.7821  0.0389
  291Sol     HW 4238   3.029   1.979   4.223 -0.5355  0.8148 -0.0041
  291Sol     HW 4239   3.039   2.130   4.231  1.7193  0.7088 -0.3618
  291Sol     MW 4240   3.043   2.051   4.274  0.3095  0.2060  0.2303
  292Sol     OW 4241   2.112   1.294   7.923  0.6540 -0.3330  0.0215
  292Sol     HW 4242   2.147   1.213   7.959 -2.1887 -0.8764  1.7247
  292Sol     HW 4243   2.076   1.268   7.838  1.1282 -0.5261 -0.1211
  292Sol     MW 4244   2.112   1.284   7.918 -0.1392  0.2313  0.8273
  293Sol     OW 4245   0.166   2.944   7.967  0.0717  0.1554 -0.1715
  293Sol     HW 4246   0.125   3.021   8.007 -0.2350 -0.3232  0.4351
  293Sol     HW 4247   0.207   2.898   8.039  3.5270  1.7083 -1.0284
  293Sol     MW 4248   0.166   2.947   7.977  0.0074 -0.3235  0.3716
  294Sol     OW 4249   0.700   1.515   8.155  0.3631 -0.0031 -0.2150
  294Sol     HW 4250   0.721   1.428   8.190  0.6672  0.4781  0.8178
  294Sol     HW 4251   0.784   1.560   8.151  0.0362  0.6853  0.4868
  294Sol     MW 4252   0.710   1.511   8.158 -0.6996  0.4244 -0.6809
  295Sol     OW 4253   0.426   0.499   8.035  0.0197 -0.3659 -0.3513
  295Sol     HW 4254   0.420   0.585   7.993  1.5467  0.8662  1.8330
  295Sol     HW 4255   0.343   0.489   8.082  0.7843  1.0520  1.3770
  295Sol     MW 4256   0.418   0.506   8.036 -0.2177 -0.6901  0.2688
  296Sol     OW 4257   1.565   0.549   5.465  1.0154 -0.4340 -0.1869
  296Sol     HW 4258   1.511   0.577   5.392  0.6130  0.2487  0.3674
  296Sol     HW 4259   1.637   0.613   5.467  1.0464 -0.4754 -0.0086
  296Sol     MW 4260   1.567   0.557   5.459  0.1681 -0.0124 -0.0919
  297Sol     OW 4261   0.940   0.128   2.422 -0.1829 -0.0628 -0.0641
  297Sol     HW 4262   0.882   0.106   2.495  0.0597  1.7752  0.6957
  297Sol     HW 4263   0.920   0.220   2.402  0.3283 -0.3047 -1.7865
  297Sol     MW 4264   0.933   0.134   2.426 -0.4404 -0.3357 -0.0093
  298Sol     OW 4265   1.253   2.917   3.192  0.0286  0.2286  0.1667
  298Sol     HW 4266   1.286   2.874   3.271  0.4057 -1.0329 -0.6647
  298Sol     HW 4267   1.292   3.005   3.194  0.9328 -0.1787  0.7989
  298Sol     MW 4268   1.259   2.921   3.199  0.1163  0.0157  0.2783
  299Sol     OW 4269   3.178   0.240   5.949  0.0794 -0.3429 -0.1295
  299Sol     HW 4270   3.150   0.267   5.862 -0.5556 -0.7208 -0.0463
  299Sol     HW 4271   3.118   0.285   6.009  2.0334  1.8671  0.2563
  299Sol     MW 4272   3.170   0.246   5.947  0.3579 -0.0383  0.0622
  300Sol     OW 4273   1.960   1.930   5.627 -0.7779 -0.8329 -0.0628
  300Sol     HW 4274   1.924   2.015   5.653 -2.1235 -1.5250  0.4019
  300Sol     HW 4275   2.025   1.910   5.695 -1.4873 -0.8234  0.6303
  300Sol     MW 4276   1.962   1.936   5.636 -0.3868  0.4945 -0.3636
  301Sol     OW 4277   1.505   2.830   7.902  0.0433 -0.3300 -0.0172
  301Sol     HW 4278   1.592   2.792   7.916 -0.1026 -0.6350  0.0678
  301Sol     HW 4279   1.447   2.777   7.956 -0.2565 -0.3746 -0.3794
  301Sol     MW 4280   1.507   2.822   7.908 -0.0137 -0.3266 -0.2055
  302Sol     OW 4281   3.196   0.662   6.940 -0.3698  0.3047 -0.4049
  302Sol     HW 4282   3.168   0.581   6.982  0.8751  0.0435 -0.0413
  302Sol     HW 4283   3.248   0.633   6.865  0.2784  0.7568 -0.1365
  302Sol     MW 4284   3.198   0.652   6.937  0.1495 -0.1110 -0.2356
  303Sol     OW 4285   0.080   0.578   3.271  0.6005 -0.3244 -0.4718
  303Sol     HW 4286   0.159   0.552   3.224  1.3954  0.0677  0.6350
  303Sol     HW 4287   0.023   0.501   3.264  1.1494 -0.6879 -1.0986
  303Sol     MW 4288   0.082   0.569   3.266 -0.0060  0.4120  0.5095
  304Sol     OW 4289   0.536   1.852   7.992 -0.3570  0.1435  0.4023
  304Sol     HW 4290   0.592   1.798   7.936 -1.7322 -0.2906 -0.5660
  304Sol     HW 4291   0.558   1.825   8.082  0.2650 -0.7122 -0.0063
  304Sol     MW 4292   0.543   1.845   7.995 -0.5769  0.0396  0.0227
  305Sol     OW 4293   1.333   1.948   4.353 -0.4198  0.5397 -0.2317
  305Sol     HW 4294   1.408   1.915   4.302 -1.5914 -0.0148 -1.6443
  305Sol     HW 4295   1.349   2.042   4.360  1.0066  0.2608  0.5050
  305Sol     MW 4296   1.341   1.953   4.349 -0.2998  0.3582 -0.2320
  306Sol     OW 4297   2.345   0.885   5.766  0.1714  0.4052 -0.3775
  306Sol     HW 4298   2.390   0.950   5.712  0.3481  0.1946 -0.4841
  306Sol     HW 4299   2.303   0.826   5.703  1.1431 -0.3781 -0.2974
  306Sol     MW 4300   2.345   0.886   5.756  0.4674 -0.2945  0.5113
  307Sol     OW 4301   1.892   2.556   5.130  0.3902  0.1365  0.0256
  307Sol     HW 4302   1.959   2.569   5.063  0.3632 -1.2163 -0.2683
  307Sol     HW 4303   1.896   2.463   5.151 -2.0640 -0.1777 -0.7036
  307Sol     MW 4304   1.898   2.549   5.126 -0.8964 -0.6428 -0.3944
  308Sol     OW 4305   1.368   1.614   9.445 -0.2529 -0.1291 -0.7025
  308Sol     HW 4306   1.357   1.702   9.407 -1.3764 -0.5564 -1.3863
  308Sol     HW 4307   1.305   1.560   9.398 -0.4197 -1.0478  0.5704
  308Sol     MW 4308   1.361   1.617   9.437  0.1213  0.1736 -0.4659
  309Sol     OW 4309   2.059   0.773   6.991  0.0806 -0.1188  0.2161
  309Sol     HW 4310   1.973   0.735   6.976  0.9336 -2.1053  0.1599
  309Sol     HW 4311   2.046   0.837   7.061 -2.3508  3.2253 -3.0744
  309Sol     MW 4312   2.050   0.776   6.996 -0.1338  0.3922  0.4271
  310Sol     OW 4313   3.100   1.965   2.238  0.1256 -0.3565  0.2708
  310Sol     HW 4314   3.095   2.015   2.157 -2.8197 -0.0976  0.5667
  310Sol     HW 4315   3.057   2.020   2.303  1.2057 -1.1706  1.7086
  310Sol     MW 4316   3.096   1.974   2.237  0.2934  0.3657  0.3788
  311Sol     OW 4317   2.442   2.394   5.482  0.0179  0.2827 -0.4872
  311Sol     HW 4318   2.346   2.399   5.486 -0.1123 -0.4980 -2.1070
  311Sol     HW 4319   2.462   2.303   5.505  0.3755  0.4871  0.0034
  311Sol     MW 4320   2.435   2.386   5.484  0.0926  0.2552  0.3509
  312Sol     OW 4321   0.359   0.389   3.288 -0.2409 -0.1440 -0.4305
  312Sol     HW 4322   0.450   0.419   3.283 -0.5546  0.9371  0.1757
  312Sol     HW 4323   0.325   0.430   3.368 -1.6276  0.4962 -1.3254
  312Sol     MW 4324   0.364   0.396   3.295 -0.6725  0.1808 -0.3447
  313Sol     OW 4325   3.203   1.035   1.809  0.0862  0.4168  0.4433
  313Sol     HW 4326   3.234   0.953   1.772  1.4495  0.0827  2.2370
  313Sol     HW 4327   3.153   1.010   1.887  0.3327  1.2520  0.8891
  313Sol     MW 4328   3.201   1.026   1.813  0.0754 -0.6328 -0.3780
  314Sol     OW 4329   0.413   1.819   7.415  0.1248 -0.1340 -0.0949
  314Sol     HW 4330   0.492   1.766   7.428  1.6442  2.5117  1.7708
  314Sol     HW 4331   0.422   1.852   7.325  1.2198  0.2847  0.1632
  314Sol     MW 4332   0.421   1.817   7.408 -0.1190 -0.3296 -0.0028
  315Sol     OW 4333   1.652   2.013   4.786 -0.0039 -0.2513  0.2000
  315Sol     HW 4334   1.722   1.978   4.730 -0.7293  0.6348 -1.2750
  315Sol     HW 4335   1.611   1.936   4.824  1.3723 -0.8102  0.6081
  315Sol     MW 4336   1.655   2.003   4.784 -0.1823 -0.7284 -0.0598
  316Sol     OW 4337   2.384   0.538   8.289 -0.1239 -0.1257 -0.0390
  316Sol     HW 4338   2.460   0.593   8.271  0.5174  0.0792  2.9501
  316Sol     HW 4339   2.415   0.448   8.274  0.2077  0.0692 -0.5049
  316Sol     MW 4340   2.394   0.535   8.286 -1.0642 -0.0101 -0.4009
  317Sol     OW 4341   2.417   2.131   2.081 -0.0493  0.4448  0.0958
  317Sol     HW 4342   2.438   2.211   2.129  0.4520 -0.2131  0.9803
  317Sol     HW 4343   2.466   2.138   2.000 -1.5524  1.9599 -0.7259
  317Sol     MW 4344   2.423   2.139   2.078 -0.2357 -0.0069  0.4555
  318Sol     OW 4345   0.759   0.813   2.919 -0.0685 -0.2922 -0.9228
  318Sol     HW 4346   0.836   0.861   2.951  0.0304 -0.7165 -0.5094
  318Sol     HW 4347   0.751   0.838   2.827  1.6979 -1.7161 -1.4857
  318Sol     MW 4348   0.765   0.820   2.914  0.1101 -0.4291  0.1711
  319Sol     OW 4349   3.090   2.790   4.002  0.0568 -0.0644 -0.2886
  319Sol     HW 4350   3.024   2.846   3.962 -0.2807  0.4175  0.9005
  319Sol     HW 4351   3.065   2.701   3.977 -0.8823  0.1371 -0.0791
  319Sol     MW 4352   3.082   2.787   3.996  0.3158  0.3687 -0.1723
  320Sol     OW 4353   2.112   2.669   3.643 -0.2697 -0.5252 -0.2057
  320Sol     HW 4354   2.098   2.755   3.603  0.3899 -0.3760 -0.1220
  320Sol     HW 4355   2.039   2.616   3.611 -0.3731 -0.0904 -0.7076
  320Sol     MW 4356   2.104   2.672   3.636 -0.8371 -0.4187 -0.2053
  321Sol     OW 4357   1.278   3.422   5.784  0.1269  0.2773  0.7062
  321Sol     HW 4358   1.309   3.445   5.697  2.1802 -0.9368  1.0831
  321Sol     HW 4359   1.282   3.503   5.834 -1.1992  1.0049 -0.3491
  321Sol     MW 4360   1.281   3.431   5.781 -0.3642  1.1155 -0.1515
  322Sol     OW 4361   3.264   2.582   4.677  0.1998  0.0965  0.2290
  322Sol     HW 4362   3.298   2.509   4.626 -0.2262  1.1360 -1.5673
  322Sol     HW 4363   3.179   2.551   4.709  0.6230 -0.6813  0.6143
  322Sol     MW 4364   3.259   2.572   4.676 -0.4887 -0.0020  0.0232
  323Sol     OW 4365   2.137   2.734   2.126 -0.4170  0.6058  0.2169
  323Sol     HW 4366   2.195   2.682   2.070  0.1158  0.0914  1.2275
  323Sol     HW 4367   2.068   2.764   2.068  0.3900  0.4864 -0.8235
  323Sol     MW 4368   2.136   2.732   2.116  0.3741 -0.1710 -0.0299
  324Sol     OW 4369   2.502   1.545   8.962 -0.1059 -0.2810  0.0361
  324Sol     HW 4370   2.439   1.597   8.914  1.3152  1.4122 -0.0722
  324Sol     HW 4371   2.510   1.464   8.913 -1.1241  0.0795 -0.7279
  324Sol     MW 4372   2.497   1.543   8.954 -0.3422  0.2474 -0.4254
  325Sol     OW 4373   2.410   1.858   6.943  0.2194 -0.8016 -0.3424
  325Sol     HW 4374   2.405   1.852   6.847 -0.6763 -0.1705 -0.3418
  325Sol     HW 4375   2.380   1.772   6.973 -0.5794 -0.6226 -0.6078
  325Sol     MW 4376   2.407   1.849   6.937 -0.3221  0.1717 -0.4124
  326Sol     OW 4377   2.756   1.780   7.978  0.6790  0.1986 -0.1237
  326Sol     HW 4378   2.740   1.744   8.065  2.2921 -0.4769 -0.0847
  326Sol     HW 4379   2.850   1.799   7.977  1.0474 -1.4832 -2.3236
  326Sol     MW 4380   2.763   1.778   7.986  0.0919  0.2013  0.1639
  327Sol     OW 4381   1.716   2.035   5.957  0.2300 -0.2639  0.3403
  327Sol     HW 4382   1.755   2.074   5.879 -1.0242  0.4892  0.0766
  327Sol     HW 4383   1.713   1.941   5.938  1.4945 -0.2901  0.1960
  327Sol     MW 4384   1.719   2.030   5.948  0.6045  0.0929 -0.0692
  328Sol     OW 4385   1.561   2.050   2.966 -0.5002 -0.1929 -0.2435
  328Sol     HW 4386   1.650   2.020   2.950 -0.1187  0.7699  0.0130
  328Sol     HW 4387   1.507   2.000   2.905  0.4971  0.9078 -2.0553
  328Sol     MW 4388   1.564   2.043   2.959  0.1857  0.1041 -0.6303
  329Sol     OW 4389   1.566   2.049   4.006  0.1019  0.2212  0.0561
  329Sol     HW 4390   1.603   2.009   3.927  0.2851  1.4180 -0.4816
  329Sol     HW 4391   1.533   1.976   4.057  1.0877 -0.6669 -0.5683
  329Sol     MW 4392   1.567   2.039   4.003  0.6335 -0.4765  0.1518
  330Sol     OW 4393   0.842   0.729   7.600  0.1255  0.2032  0.7201
  330Sol     HW 4394   0.890   0.792   7.653  1.5354 -0.0489 -0.2362
  330Sol     HW 4395   0.910   0.677   7.557 -1.0057 -0.4929 -0.2517
  330Sol     MW 4396   0.852   0.730   7.600  0.4989  0.1430 -0.0854
  331Sol     OW 4397   1.693   2.612   6.563 -0.5536  0.0121 -0.4354
  331Sol     HW 4398   1.603   2.627   6.594 -0.8225 -1.7201 -0.3242
  331Sol     HW 4399   1.683   2.587   6.471 -0.4531 -2.8706  0.2795
  331Sol     MW 4400   1.684   2.611   6.558 -0.2738  0.3174 -0.1458
  332Sol     OW 4401   2.528   0.803   5.497 -0.2944 -0.7544  0.3404
  332Sol     HW 4402   2.534   0.783   5.590 -1.3854 -0.2650  0.5253
  332Sol     HW 4403   2.493   0.892   5.493  1.5759 -0.0275 -0.5236
  332Sol     MW 4404   2.525   0.809   5.505 -0.1868  0.4143  0.1791
  333Sol     OW 4405   3.276   0.249   6.813 -0.0917 -0.1154 -0.1689
  333Sol     HW 4406   3.274   0.252   6.908  0.1169  0.8269 -0.1833
  333Sol     HW 4407   3.190   0.284   6.787 -0.6114 -1.4668 -0.3219
  333Sol     MW 4408   3.268   0.253   6.819 -0.4206 -0.0204 -0.1572
  334Sol     OW 4409   1.483   0.244   7.860  0.1775  0.2411 -0.1837
  334Sol     HW 4410   1.462   0.222   7.769  3.2020 -2.6694 -0.2584
  334Sol     HW 4411   1.466   0.163   7.908  1.1483  0.9694  1.4059
  334Sol     MW 4412   1.480   0.235   7.856  0.2902  0.2635 -0.2999
  335Sol     OW 4413   0.552   0.668   3.010  0.3577 -0.3867 -0.4821
  335Sol     HW 4414   0.578   0.612   3.083 -1.1934 -1.6966 -0.9006
  335Sol     HW 4415   0.633   0.710   2.981  1.1814 -0.7866  1.2090
  335Sol     MW 4416   0.561   0.666   3.014  0.1254  0.5045  0.0753
  336Sol     OW 4417   1.878   1.329   3.256 -0.1322 -0.5990  0.1492
  336Sol     HW 4418   1.815   1.303   3.188 -1.3514  1.0762  0.6231
  336Sol     HW 4419   1.948   1.373   3.208 -0.5944 -0.1526 -0.1229
  336Sol     MW 4420   1.878   1.330   3.245 -0.0270 -0.5931 -0.1063
  337Sol     OW 4421   0.311   0.560   1.783 -0.4593 -0.0932  0.3271
  337Sol     HW 4422   0.250   0.510   1.729 -1.6946  0.7430  0.9382
  337Sol     HW 4423   0.330   0.504   1.858 -0.2166 -0.4797 -0.0214
  337Sol     MW 4424   0.308   0.551   1.785  0.3741  0.0425  0.0857
  338Sol     OW 4425   1.968   2.726   3.909 -0.1280 -0.0708  0.0256
  338Sol     HW 4426   1.999   2.723   3.818  0.6748 -0.0149  0.2996
  338Sol     HW 4427   2.036   2.681   3.959  0.1068  1.1060  0.7938
  338Sol     MW 4428   1.977   2.722   3.905  0.0493  0.1175 -0.0893
  339Sol     OW 4429   2.366   2.003   1.446 -0.6897 -0.2721  0.6188
  339Sol     HW 4430   2.333   1.979   1.533  1.2855 -1.8100  0.9912
  339Sol     HW 4431   2.310   1.956   1.385 -0.0211 -1.8752  1.2004
  339Sol     MW 4432   2.358   1.996   1.448  0.0661  0.3557 -0.3186
  340Sol     OW 4433   2.149   2.145   5.364  0.3816  0.0614 -0.3003
  340Sol     HW 4434   2.083   2.212   5.381 -0.5390 -0.2194 -2.5042
  340Sol     HW 4435   2.098   2.065   5.349  1.3982 -0.8487  1.0273
  340Sol     MW 4436   2.139   2.144   5.364 -0.0810 -0.1621 -0.3068
  341Sol     OW 4437   3.285   2.448   6.998  0.2193  0.5563  0.4641
  341Sol     HW 4438   3.297   2.359   7.032 -0.0451  0.7456  1.0601
  341Sol     HW 4439   3.224   2.437   6.925 -0.3810  0.3408  0.9941
  341Sol     MW 4440   3.281   2.439   6.995 -0.1911  0.5938 -0.1683
  342Sol     OW 4441   1.414   2.024   6.395  0.7727 -0.2438 -0.7881
  342Sol     HW 4442   1.498   2.071   6.389  0.7243 -0.0418 -0.0423
  342Sol     HW 4443   1.417   1.981   6.481 -0.7175  1.4297  0.1490
  342Sol     MW 4444   1.422   2.025   6.402  0.4086  0.0775  0.5561
  343Sol     OW 4445   2.636   3.346   8.003 -0.5474  0.7709  0.2143
  343Sol     HW 4446   2.634   3.314   7.913 -1.4640  0.1159  0.4647
  343Sol     HW 4447   2.574   3.291   8.050  0.1431  0.9070  1.3165
  343Sol     MW 4448   2.631   3.338   7.999  0.1382  0.0438  0.0373
  344Sol     OW 4449   0.380   2.072   2.881 -0.1806  0.5744  0.3634
  344Sol     HW 4450   0.440   2.073   2.956  1.6813  1.8740 -1.1013
  344Sol     HW 4451   0.388   2.159   2.842 -1.1545 -0.0604 -1.3107
  344Sol     MW 4452   0.387   2.080   2.884  0.0886 -0.3690 -0.0969
  345Sol     OW 4453   0.197   0.856   9.438  0.5473 -0.6794 -0.2302
  345Sol     HW 4454   0.165   0.780   9.488  1.8507 -0.2350  1.3143
  345Sol     HW 4455   0.180   0.833   9.346  0.0039 -2.4039  0.2787
  345Sol     MW 4456   0.192   0.847   9.434  0.1592  0.3222  0.3398
  346Sol     OW 4457   3.095   2.675   7.611  0.3726 -0.5257 -0.2066
  346Sol     HW 4458   3.050   2.596   7.642  0.2994  0.0756  1.2589
  346Sol     HW 4459   3.183   2.645   7.589  0.1097 -1.1663 -0.4035
  346Sol     MW 4460   3.099   2.665   7.612  0.6684  0.6285  0.2129
  347Sol     OW 4461   3.076   1.958   7.705 -0.4266  0.0562  0.4180
  347Sol     HW 4462   2.996   1.945   7.654 -0.2657  2.0167 -0.3855
  347Sol     HW 4463   3.147   1.928   7.648 -0.4166  0.2747  0.3158
  347Sol     MW 4464   3.075   1.954   7.696 -0.4313 -0.4025 -0.3615
  348Sol     OW 4465   1.013   1.873   6.232  0.6486 -0.3799  0.2486
  348Sol     HW 4466   1.055   1.801   6.279  2.5577 -1.1479 -2.5683
  348Sol     HW 4467   1.069   1.949   6.250  0.1351 -0.1577  0.9771
  348Sol     MW 4468   1.022   1.874   6.238  0.5860 -0.0473  0.3543
  349Sol     OW 4469   0.965   1.041   5.040 -0.8202 -0.0359 -0.1066
  349Sol     HW 4470   0.900   0.972   5.055  0.3679 -1.5640 -1.6746
  349Sol     HW 4471   0.966   1.051   4.944  1.6490 -0.4684 -0.1546
  349Sol     MW 4472   0.959   1.036   5.033  0.7017 -0.5727  0.1053
  350Sol     OW 4473   1.452   0.393   7.388  0.0423  0.1377  0.0313
  350Sol     HW 4474   1.525   0.357   7.439  0.2098  0.2778 -0.1085
  350Sol     HW 4475   1.417   0.463   7.443 -0.3475 -0.2975  0.3497
  350Sol     MW 4476   1.456   0.396   7.398 -0.5373 -0.1744 -0.3588
  351Sol     OW 4477   3.240   1.611   2.056 -0.2744 -0.6014  0.4056
  351Sol     HW 4478   3.162   1.605   2.111 -0.7786 -2.1337 -0.4489
  351Sol     HW 4479   3.313   1.605   2.118 -0.7844  2.2352  1.3643
  351Sol     MW 4480   3.239   1.610   2.067  0.1983  0.1725 -0.5639
  352Sol     OW 4481   1.687   0.263   3.607  0.2810 -0.7121 -0.1447
  352Sol     HW 4482   1.731   0.314   3.676  1.4156 -0.3089 -1.1632
  352Sol     HW 4483   1.662   0.329   3.542 -0.2046 -1.1845 -0.4358
  352Sol     MW 4484   1.689   0.274   3.608 -0.2841  0.1840 -0.6310
  353Sol     OW 4485   3.189   2.326   2.961 -0.8178 -0.1486  0.0269
  353Sol     HW 4486   3.234   2.397   3.006 -0.9218  0.5828 -1.0197
  353Sol     HW 4487   3.232   2.246   2.993 -0.6200  0.3787  1.1018
  353Sol     MW 4488   3.197   2.325   2.968 -0.0493  0.3503 -0.1297
  354Sol     OW 4489   1.652   2.645   6.284 -0.3318  0.6598  0.6285
  354Sol     HW 4490   1.640   2.556   6.251  1.1783  0.2454  1.1669
  354Sol     HW 4491   1.718   2.683   6.226 -1.4696  1.6670 -0.0280
  354Sol     MW 4492   1.657   2.641   6.276 -0.5779  0.2367  0.2004
  355Sol     OW 4493   0.647   2.791   5.171 -0.0644 -0.6164  1.1859
  355Sol     HW 4494   0.622   2.847   5.245  0.3375  0.5587  0.4490
  355Sol     HW 4495   0.583   2.813   5.102  0.2934 -0.8331  0.7826
  355Sol     MW 4496   0.639   2.798   5.171  0.6927  0.3284 -0.5607
  356Sol     OW 4497   1.314   1.419   3.012 -0.0871 -0.5367  0.3668
  356Sol     HW 4498   1.359   1.446   2.932 -0.7160 -1.0836 -0.1709
  356Sol     HW 4499   1.367   1.457   3.082 -1.4837  2.9492 -0.3927
  356Sol     MW 4500   1.323   1.425   3.011 -0.7212 -0.4371 -0.2074
  357Sol     OW 4501   1.882   1.400   6.550  0.0847  0.0698 -0.7441
  357Sol     HW 4502   1.802   1.451   6.536 -1.4273 -2.2196 -0.5988
  357Sol     HW 4503   1.881   1.378   6.643  1.8741  1.5809 -0.3203
  357Sol     MW 4504   1.875   1.403   6.557 -0.5586  0.7520  0.0402
  358Sol     OW 4505   2.329   0.349   4.748  0.2753 -0.0076  0.6011
  358Sol     HW 4506   2.365   0.318   4.665 -1.8179  2.3120 -1.2364
  358Sol     HW 4507   2.369   0.292   4.814  2.0525 -1.8352 -1.9570
  358Sol     MW 4508   2.336   0.341   4.746 -0.2390 -0.4101  0.2284
  359Sol     OW 4509   2.049   1.000   3.601  0.0969  0.1149  0.2163
  359Sol     HW 4510   2.132   1.018   3.645 -0.1465  1.0163  0.3028
  359Sol     HW 4511   2.072   0.941   3.529  0.7936  0.3007  0.2881
  359Sol     MW 4512   2.058   0.996   3.598 -0.4515  0.5378 -0.4769
  360Sol     OW 4513   2.433   2.367   7.375 -0.3468 -0.4054 -0.9333
  360Sol     HW 4514   2.413   2.320   7.455  2.2423  2.2355  1.3779
  360Sol     HW 4515   2.498   2.313   7.331  1.9443  0.4636  1.2621
  360Sol     MW 4516   2.437   2.358   7.378  0.5024  0.0721 -0.0943
  361Sol     OW 4517   2.649   0.477   4.399 -0.5070 -0.2466  0.0030
  361Sol     HW 4518   2.714   0.521   4.454  0.7308  0.2521 -1.8355
  361Sol     HW 4519   2.700   0.416   4.346 -1.7278 -0.9553 -0.3641
  361Sol     MW 4520   2.660   0.476   4.399  0.3041 -0.1982  0.3024
  362Sol     OW 4521   0.287   2.333   2.253  0.0017  0.3369 -0.7005
  362Sol     HW 4522   0.376   2.306   2.275 -0.4312  0.0819  0.7766
  362Sol     HW 4523   0.295   2.372   2.166  1.1088 -2.1312 -1.7640
  362Sol     MW 4524   0.296   2.334   2.247 -0.0192 -0.0595  0.3139
  363Sol     OW 4525   2.828   2.394   7.946  0.7860 -0.3165 -0.2025
  363Sol     HW 4526   2.761   2.329   7.927  0.2165  0.3184 -0.4048
  363Sol     HW 4527   2.911   2.347   7.941  0.5498 -0.5015 -2.6579
  363Sol     MW 4528   2.829   2.384   7.944 -0.4390 -0.2080  0.0033
  364Sol     OW 4529   2.791   1.765   9.856  0.6699 -0.3335  0.3170
  364Sol     HW 4530   2.880   1.788   9.880  0.3808  0.9542  0.1799
  364Sol     HW 4531   2.781   1.792   9.765 -0.3711  1.0629  0.8328
  364Sol     MW 4532   2.798   1.769   9.850 -0.2259 -0.1839 -0.1849
  365Sol     OW 4533   1.219   0.224   7.419 -0.0756  0.3220  0.3662
  365Sol     HW 4534   1.282   0.292   7.397  0.6110  0.4489  2.5580
  365Sol     HW 4535   1.237   0.153   7.357  0.1941  1.5280 -0.9672
  365Sol     MW 4536   1.226   0.224   7.412  0.3418  0.4048  0.7085
  366Sol     OW 4537   2.178   1.209   5.729  0.3582  0.2523 -0.6587
  366Sol     HW 4538   2.257   1.263   5.728  0.3422  0.2875 -2.4421
  366Sol     HW 4539   2.189   1.151   5.804  0.1501  3.0576  1.6289
  366Sol     MW 4540   2.186   1.209   5.735  0.7104  0.2650  0.1934
  367Sol     OW 4541   1.887   0.481   8.301 -0.7992 -0.2665  0.1905
  367Sol     HW 4542   1.843   0.522   8.227 -2.0028 -1.3043  0.3212
  367Sol     HW 4543   1.973   0.523   8.304 -0.9800  0.2328 -1.3983
  367Sol     MW 4544   1.891   0.488   8.295 -0.2808  0.4716 -0.0640
  368Sol     OW 4545   1.822   2.189   9.030  0.5800  0.0455 -0.3122
  368Sol     HW 4546   1.905   2.152   8.999  1.1008  0.7174  0.2692
  368Sol     HW 4547   1.772   2.113   9.058  0.7455 -0.4261 -1.2449
  368Sol     MW 4548   1.825   2.179   9.029 -0.1255 -0.6218  0.8220
  369Sol     OW 4549   2.377   2.956   8.749  0.3655  0.5461  0.2605
  369Sol     HW 4550   2.418   2.996   8.673 -1.6310  0.1336 -1.0600
  369Sol     HW 4551   2.397   2.863   8.742 -0.3972  0.4084 -0.1431
  369Sol     MW 4552   2.382   2.951   8.742 -0.1000 -0.2923 -0.2556
  370Sol     OW 4553   1.216   2.980   2.232  0.2953 -0.0468 -0.1985
  370Sol     HW 4554   1.178   2.949   2.315 -0.6504 -0.8199 -0.9089
  370Sol     HW 4555   1.302   3.014   2.256  0.3509 -0.9958  0.9885
  370Sol     MW 4556   1.220   2.981   2.242 -0.2067 -0.7481 -0.0509
  371Sol     OW 4557   1.856   2.446   1.900 -1.0749  0.2719  0.0865
  371Sol     HW 4558   1.820   2.519   1.950  0.8543  0.1099  1.7809
  371Sol     HW 4559   1.950   2.449   1.918 -0.5719 -0.8782 -2.1468
  371Sol     MW 4560   1.861   2.453   1.906 -0.1579 -0.3374 -0.1954
  372Sol     OW 4561   0.689   1.104   6.360 -0.2768 -0.3204 -0.0262
  372Sol     HW 4562   0.646   1.150   6.289  0.5380 -0.0366 -0.3421
  372Sol     HW 4563   0.661   1.013   6.351 -1.4132 -0.0035  0.2409
  372Sol     MW 4564   0.683   1.100   6.353 -0.1220  0.3121 -0.0162
  373Sol     OW 4565   1.599   1.103   9.558  0.1330 -0.0466  0.2269
  373Sol     HW 4566   1.616   1.179   9.614 -1.2971  0.3321  0.1534
  373Sol     HW 4567   1.682   1.088   9.513 -0.3893  3.3333 -2.0447
  373Sol     MW 4568   1.608   1.108   9.559  0.0727 -0.4979  0.1102
  374Sol     OW 4569   2.308   1.242   5.358 -0.3937  0.1776  0.4654
  374Sol     HW 4570   2.368   1.187   5.309 -1.5317 -0.7751  0.1188
  374Sol     HW 4571   2.235   1.184   5.381 -0.1617  0.7699  2.7624
  374Sol     MW 4572   2.307   1.232   5.356 -0.2818 -0.2261 -0.4244
  375Sol     OW 4573   1.712   2.119   2.381 -0.3219 -0.2019  0.8732
  375Sol     HW 4574   1.759   2.196   2.351  1.6776 -1.5275  0.5290
  375Sol     HW 4575   1.721   2.120   2.476  0.4293 -0.4616  0.8064
  375Sol     MW 4576   1.717   2.126   2.387  0.3304  0.1178 -0.2151
  376Sol     OW 4577   0.932   1.187   6.291  0.2146  0.3420 -0.0349
  376Sol     HW 4578   0.902   1.160   6.205 -0.8524  1.4701 -0.0254
  376Sol     HW 4579   0.854   1.184   6.346  1.0238 -1.0598  1.0755
  376Sol     MW 4580   0.922   1.184   6.288  0.5967  0.3470 -0.1295
  377Sol     OW 4581   1.173   1.066   2.756 -0.0693 -0.3560 -0.1812
  377Sol     HW 4582   1.265   1.077   2.781 -0.7211  0.2327  2.1004
  377Sol     HW 4583   1.171   0.987   2.702  1.6972 -0.6578  0.1777
  377Sol     MW 4584   1.181   1.060   2.754 -0.2526 -0.1577  0.1585
  378Sol     OW 4585   2.024   0.392   4.709 -0.6180  0.5237 -0.4799
  378Sol     HW 4586   2.096   0.448   4.679  0.0311 -0.3615 -0.5844
  378Sol     HW 4587   2.049   0.367   4.798 -0.9206  0.4205 -0.4225
  378Sol     MW 4588   2.033   0.395   4.715  0.2751 -0.4871  0.6110
  379Sol     OW 4589   1.390   1.619   7.108  1.1389  0.7385 -0.3254
  379Sol     HW 4590   1.454   1.589   7.044  0.5733 -0.4002 -0.3602
  379Sol     HW 4591   1.390   1.552   7.176  1.3163  1.6531  0.5997
  379Sol     MW 4592   1.396   1.611   7.108  0.0748 -0.0010 -0.3332
  380Sol     OW 4593   1.279   2.787   2.967 -0.0319 -0.0462 -0.2833
  380Sol     HW 4594   1.268   2.833   3.050 -0.6098 -0.9332  0.1370
  380Sol     HW 4595   1.364   2.744   2.973  0.3859  0.7293 -0.5671
  380Sol     MW 4596   1.286   2.787   2.975  0.5545 -0.1694 -0.3352
  381Sol     OW 4597   3.275   3.114   9.604  0.6113 -0.2942 -0.5852
  381Sol     HW 4598   3.235   3.044   9.655  0.3773 -0.6692 -1.2720
  381Sol     HW 4599   3.366   3.086   9.592  0.4109 -0.6916 -1.2170
  381Sol     MW 4600   3.280   3.105   9.607  0.1077 -0.1057  0.0811
  382Sol     OW 4601   1.668   0.524   6.486 -0.2880 -0.4104 -0.1749
  382Sol     HW 4602   1.741   0.558   6.538 -0.0384 -0.3853 -0.5473
  382Sol     HW 4603   1.647   0.594   6.425  0.7021 -1.1935 -1.4382
  382Sol     MW 4604   1.673   0.533   6.486  0.1185 -0.2665 -0.1630
  383Sol     OW 4605   0.906   1.384   2.851 -0.5162 -0.1828 -0.2276
  383Sol     HW 4606   0.891   1.345   2.765 -2.3216 -0.4830  0.2064
  383Sol     HW 4607   0.905   1.309   2.911  0.9615 -0.0001  0.0433
  383Sol     MW 4608   0.904   1.374   2.849 -0.2125 -0.3919  0.0000
  384Sol     OW 4609   0.678   2.702   3.554  0.3090  0.3154 -0.2566
  384Sol     HW 4610   0.706   2.658   3.634  2.1526  0.4936 -0.7704
  384Sol     HW 4611   0.631   2.635   3.504  1.3978 -0.5344 -0.1594
  384Sol     MW 4612   0.676   2.692   3.556  0.2694 -0.5691 -0.1327
  385Sol     OW 4613   2.048   2.374   7.039  0.0029 -0.2707  0.3133
  385Sol     HW 4614   2.065   2.405   6.950  2.6781  0.2291  0.9642
  385Sol     HW 4615   2.014   2.285   7.027 -0.2637  0.0097 -1.2149
  385Sol     MW 4616   2.047   2.369   7.030  0.0734 -0.2779 -0.0508
  386Sol     OW 4617   2.912   0.225   3.638  0.6819  0.3434  0.1653
  386Sol     HW 4618   2.948   0.148   3.682  1.6372  0.4882 -0.3340
  386Sol     HW 4619   2.967   0.235   3.560 -1.1776 -0.1178 -1.2493
  386Sol     MW 4620   2.920   0.219   3.635  0.3725  0.4720 -0.2662
  387Sol     OW 4621   0.991   0.962   3.595  0.2142  0.3052  0.3399
  387Sol     HW 4622   1.052   0.914   3.538 -0.9254 -0.2503 -0.4267
  387Sol     HW 4623   0.929   0.896   3.625 -1.2549  1.2426 -0.5612
  387Sol     MW 4624   0.991   0.952   3.593 -0.2233 -0.4067  0.2994
  388Sol     OW 4625   0.681   2.656   4.739 -0.7058  0.1312 -0.1716
  388Sol     HW 4626   0.636   2.716   4.799 -1.6565 -1.6136  0.8961
  388Sol     HW 4627   0.761   2.630   4.786 -0.9604 -0.4610 -0.0577
  388Sol     MW 4628   0.684   2.659   4.749 -0.3216  1.0202 -0.7105
  389Sol     OW 4629   1.611   0.634   2.682 -0.2008 -0.1466 -0.4481
  389Sol     HW 4630   1.659   0.663   2.760 -2.9008 -0.5641  1.4862
  389Sol     HW 4631   1.552   0.707   2.662  0.8723  0.1896 -2.5041
  389Sol     MW 4632   1.610   0.643   2.688  0.0089 -0.2692  0.3905
  390Sol     OW 4633   1.007   2.367   3.433 -0.0661 -0.0668 -0.1110
  390Sol     HW 4634   0.999   2.363   3.528  0.7169 -1.4300 -0.0912
  390Sol     HW 4635   0.917   2.363   3.400 -0.2449 -1.7350  0.5147
  390Sol     MW 4636   0.999   2.366   3.439 -0.1013  0.2752 -0.0430
  391Sol     OW 4637   0.605   1.774   8.270  0.1328  1.0700  0.2757
  391Sol     HW 4638   0.625   1.683   8.246  0.8085  0.7047  2.1109
  391Sol     HW 4639   0.575   1.768   8.361 -2.0903  2.4214 -0.3453
  391Sol     MW 4640   0.604   1.765   8.276  0.0360 -0.3558  0.2692
  392Sol     OW 4641   3.240   2.459   6.112 -0.0095  0.5641 -0.0512
  392Sol     HW 4642   3.199   2.410   6.183  0.5792 -0.8697 -0.6886
  392Sol     HW 4643   3.318   2.499   6.151  1.7219 -2.2994 -0.4774
  392Sol     MW 4644   3.243   2.459   6.121 -0.1494  0.2433  0.3785
  393Sol     OW 4645   0.051   2.151   9.303 -0.7343  0.1730 -0.4563
  393Sol     HW 4646   0.072   2.227   9.250  0.8469  0.0095 -0.0819
  393Sol     HW 4647   0.049   2.078   9.241  1.8944 -0.1495 -0.2112
  393Sol     MW 4648   0.052   2.151   9.293  0.5334  0.3909  0.1956
  394Sol     OW 4649   0.234   1.671   5.409 -0.7589  0.0655 -0.3460
  394Sol     HW 4650   0.267   1.584   5.433  0.3404  0.6612  0.3394
  394Sol     HW 4651   0.230   1.669   5.313  1.6566  0.0699 -0.4974
  394Sol     MW 4652   0.237   1.663   5.402  0.4007  0.5261  0.2055
  395Sol     OW 4653   1.112   2.353   6.810 -0.1965  0.0432  0.1995
  395Sol     HW 4654   1.129   2.270   6.765 -1.4973  0.0888 -0.4042
  395Sol     HW 4655   1.053   2.330   6.881  1.2322  0.1050  1.4319
  395Sol     MW 4656   1.108   2.343   6.812 -0.0301  0.3242  0.2934
  396Sol     OW 4657   2.083   2.191   7.816  0.5361 -0.0714 -0.3404
  396Sol     HW 4658   2.155   2.128   7.823  1.5219  1.2342  2.0043
  396Sol     HW 4659   2.125   2.276   7.825 -1.1151  0.7995 -0.6759
  396Sol     MW 4660   2.094   2.193   7.818  0.0805 -0.0632  0.0956
  397Sol     OW 4661   1.867   0.639   6.670 -0.0367  0.5420  0.1807
  397Sol     HW 4662   1.926   0.711   6.647  0.3957  0.3320  0.6239
  397Sol     HW 4663   1.921   0.560   6.663 -0.3899  0.3010  0.1312
  397Sol     MW 4664   1.877   0.638   6.667  0.1542 -0.0860 -0.2017
  398Sol     OW 4665   3.085   3.006   8.181  0.1693  0.4550 -0.2619
  398Sol     HW 4666   3.025   2.947   8.135 -0.9146  0.9267  0.5249
  398Sol     HW 4667   3.049   3.011   8.270  1.1380  1.0794  0.0961
  398Sol     MW 4668   3.076   3.001   8.185  0.2789 -0.3837  0.1860
  399Sol     OW 4669   2.730   3.221   4.808  0.2625 -0.2860  0.3310
  399Sol     HW 4670   2.725   3.141   4.860 -0.0036  0.0775  0.8717
  399Sol     HW 4671   2.638   3.244   4.791  0.3600 -1.1969 -1.5369
  399Sol     MW 4672   2.721   3.216   4.811 -0.0578  0.0080  0.1752
  400Sol     OW 4673   1.252   0.522   5.033 -0.2217 -0.2074  0.1220
  400Sol     HW 4674   1.318   0.490   4.972 -1.1056 -0.8855 -0.4826
  400Sol     HW 4675   1.207   0.592   4.985 -0.3751 -0.1871  0.2960
  400Sol     MW 4676   1.254   0.526   5.023  0.0160 -0.4167  0.8945
  401Sol     OW 4677   2.492   2.388   5.105  0.7774 -0.0330 -0.1450
  401Sol     HW 4678   2.438   2.312   5.129  0.8354 -0.3147 -0.9131
  401Sol     HW 4679   2.483   2.447   5.180 -0.2901 -0.2493 -0.0893
  401Sol     MW 4680   2.486   2.386   5.114 -0.1745  0.5826 -0.2420
  402Sol     OW 4681   1.008   0.647   2.894  0.0134 -0.2121  0.2885
  402Sol     HW 4682   1.010   0.740   2.871  0.5826  0.3534  2.5065
  402Sol     HW 4683   1.100   0.620   2.889 -0.3163 -1.0873 -1.8599
  402Sol     MW 4684   1.017   0.653   2.891 -0.4616 -0.2083 -0.0826
  403Sol     OW 4685   2.887   2.729   4.522  0.1290  0.0831  0.8207
  403Sol     HW 4686   2.829   2.662   4.486 -0.2767  0.1883  1.2673
  403Sol     HW 4687   2.828   2.788   4.570  0.3017  1.4973 -0.6498
  403Sol     MW 4688   2.876   2.728   4.523 -0.3878 -0.0751 -0.2262
  404Sol     OW 4689   0.317   2.473   5.026  0.1386 -0.5049  0.1581
  404Sol     HW 4690   0.291   2.516   4.945 -2.1441 -1.0574  0.5799
  404Sol     HW 4691   0.337   2.546   5.086 -0.0439 -0.0784 -0.2976
  404Sol     MW 4692   0.317   2.483   5.024  0.0903  0.0063  0.4171
  405Sol     OW 4693   1.110   0.310   3.115 -0.0649  0.6267  0.2810
  405Sol     HW 4694   1.142   0.332   3.028  0.7199  1.4926  0.7832
  405Sol     HW 4695   1.189   0.299   3.168 -0.5525  1.4172  1.1987
  405Sol     MW 4696   1.120   0.311   3.112 -0.5019  0.2490  0.0429
  406Sol     OW 4697   0.979   2.121   8.101  0.0175 -0.0868  0.4442
  406Sol     HW 4698   0.905   2.180   8.085 -0.3037 -1.2594 -2.8187
  406Sol     HW 4699   0.938   2.037   8.123  0.3038 -0.8040 -1.6086
  406Sol     MW 4700   0.968   2.119   8.101  0.1436 -0.0763  0.0425
  407Sol     OW 4701   0.192   3.173   2.193  0.2963 -0.0756  0.2188
  407Sol     HW 4702   0.165   3.229   2.121 -1.6650 -0.3642  0.6918
  407Sol     HW 4703   0.186   3.084   2.158 -2.2108 -0.3279  1.1496
  407Sol     MW 4704   0.189   3.170   2.183  0.2618 -0.1356  0.4503
  408Sol     OW 4705   3.215   2.243   9.509  0.3455 -0.1055  0.5058
  408Sol     HW 4706   3.287   2.222   9.449  0.9188 -1.5991  1.6932
  408Sol     HW 4707   3.169   2.160   9.520 -0.9032  0.6066  0.6212
  408Sol     MW 4708   3.218   2.234   9.505 -0.7259  0.0984 -0.4014
  409Sol     OW 4709   0.440   2.459   9.759 -0.0146 -0.7413  0.7992
  409Sol     HW 4710   0.521   2.506   9.781 -0.3584 -0.5429  1.6432
  409Sol     HW 4711   0.425   2.479   9.667  0.5074 -0.1930  0.8312
  409Sol     MW 4712   0.446   2.465   9.753 -0.0970 -0.4453 -0.1596
  410Sol     OW 4713   0.983   1.763   8.453  0.2878 -0.1485  0.4113
  410Sol     HW 4714   0.940   1.776   8.537 -1.8603  0.9077 -0.8151
  410Sol     HW 4715   1.067   1.808   8.461  0.7609 -1.3691  2.4968
  410Sol     MW 4716   0.987   1.768   8.461  0.2621 -0.1238  1.1593
  411Sol     OW 4717   0.154   0.983   2.550 -0.0072 -0.4775  0.5070
  411Sol     HW 4718   0.124   1.057   2.497  0.9592 -1.4414 -1.4347
  411Sol     HW 4719   0.231   1.016   2.596  0.7235 -0.4266 -0.7460
  411Sol     MW 4720   0.158   0.993   2.550 -0.1530  0.3075 -0.4432
  412Sol     OW 4721   2.757   2.230   5.983 -0.3147  0.2222  0.2687
  412Sol     HW 4722   2.776   2.323   5.992 -0.9433  0.4079 -0.3114
  412Sol     HW 4723   2.842   2.190   5.963  0.2699  0.4298  2.2854
  412Sol     MW 4724   2.767   2.235   5.982  0.7924  0.0512 -0.4608
  413Sol     OW 4725   2.088   3.149   2.372 -0.0493  0.0859 -0.2175
  413Sol     HW 4726   2.004   3.105   2.385  0.3213 -0.5615 -0.0366
  413Sol     HW 4727   2.080   3.231   2.422  0.1090 -0.8205  1.3189
  413Sol     MW 4728   2.079   3.153   2.378  0.0988 -0.3915 -0.6038
  414Sol     OW 4729   1.634   2.414   3.334 -0.0318 -0.0356  0.5070
  414Sol     HW 4730   1.603   2.371   3.254 -0.0257  0.2795  0.3342
  414Sol     HW 4731   1.591   2.366   3.405 -1.7341  1.0453  0.2378
  414Sol     MW 4732   1.627   2.406   3.333 -0.1805  0.2200 -0.3660
  415Sol     OW 4733   3.302   2.519   5.302 -0.7690  0.0291 -0.4797
  415Sol     HW 4734   3.302   2.517   5.206 -1.3167 -0.7104 -0.4770
  415Sol     HW 4735   3.322   2.429   5.327  2.1585  0.8091  0.1260
  415Sol     MW 4736   3.304   2.511   5.296 -0.2386  0.3939 -0.2260
  416Sol     OW 4737   1.663   2.189   6.632 -0.2824  0.3837 -0.5098
  416Sol     HW 4738   1.695   2.115   6.580 -0.1709 -0.2749  0.4806
  416Sol     HW 4739   1.645   2.152   6.718 -1.2639  1.2892 -0.3112
  416Sol     MW 4740   1.664   2.179   6.635 -0.0496 -0.1651 -0.0228
  417Sol     OW 4741   1.437   0.677   9.844  0.1444 -0.6886  0.2339
  417Sol     HW 4742   1.353   0.722   9.836  0.2050 -0.4053  1.0980
  417Sol     HW 4743   1.489   0.710   9.771 -0.2894 -0.4071  0.0477
  417Sol     MW 4744   1.434   0.684   9.837  0.0737  0.1145  0.6644
  418Sol     OW 4745   1.801   3.154   9.753  0.0981 -0.2678 -0.1362
  418Sol     HW 4746   1.765   3.242   9.743  0.2259 -0.3021 -0.9261
  418Sol     HW 4747   1.881   3.155   9.700 -1.2938 -1.6610 -2.3329
  418Sol     MW 4748   1.805   3.162   9.747 -0.6771 -0.3417  0.0417
  419Sol     OW 4749   2.181   0.409   1.709  0.8174 -0.0637  0.1070
  419Sol     HW 4750   2.221   0.322   1.719  1.6471  0.1333 -1.4399
  419Sol     HW 4751   2.249   0.470   1.737  1.1281  0.2033 -1.2074
  419Sol     MW 4752   2.191   0.406   1.713 -0.0408 -0.5337  0.2162
  420Sol     OW 4753   0.319   1.339   7.903 -0.0532 -0.1395 -0.2248
  420Sol     HW 4754   0.383   1.331   7.832  1.0438 -1.3475  0.8710
  420Sol     HW 4755   0.235   1.341   7.859  0.6624  0.1317 -1.6196
  420Sol     MW 4756   0.318   1.339   7.893 -0.2896  0.1137 -0.2136
  421Sol     OW 4757   3.262   1.764   3.297 -0.1467  0.6982 -0.0313
  421Sol     HW 4758   3.344   1.780   3.343 -0.3257  2.3256 -0.2302
  421Sol     HW 4759   3.287   1.708   3.223  0.2481 -1.3611  1.6226
  421Sol     MW 4760   3.272   1.761   3.294 -0.4585 -0.2412  0.0823
  422Sol     OW 4761   2.679   2.228   5.701  0.5782  0.3778  0.1578
  422Sol     HW 4762   2.718   2.239   5.787 -2.4134  1.5893  1.4103
  422Sol     HW 4763   2.669   2.317   5.668  0.4919 -0.0168 -0.9011
  422Sol     MW 4764   2.682   2.237   5.705  0.2037 -0.3874  0.6216
  423Sol     OW 4765   3.006   2.114   5.923 -0.0329 -0.3688  0.1120
  423Sol     HW 4766   3.085   2.163   5.898  0.5596 -0.8334  1.0301
  423Sol     HW 4767   3.035   2.023   5.931 -0.5664 -0.4883  0.8117
  423Sol     MW 4768   3.016   2.110   5.922 -0.3210 -0.3476  0.3848
  424Sol     OW 4769   0.316   2.950   3.082  0.0077  0.3904 -0.0689
  424Sol     HW 4770   0.388   2.921   3.138  1.1940  3.4605  0.1067
  424Sol     HW 4771   0.242   2.959   3.141  0.2100 -0.1518  0.2716
  424Sol     MW 4772   0.316   2.948   3.092  0.6085  0.0251 -0.6051
  425Sol     OW 4773   0.720   3.023   6.719  0.1216  0.0849 -0.1707
  425Sol     HW 4774   0.704   2.997   6.628 -0.4014 -0.2927  0.0237
  425Sol     HW 4775   0.633   3.045   6.753  0.0555 -1.5398  0.7726
  425Sol     MW 4776   0.711   3.022   6.714  0.0814  0.1364 -0.0677
  426Sol     OW 4777   2.065   2.789   6.336  0.0972  0.1617  0.0279
  426Sol     HW 4778   2.120   2.861   6.305 -0.0974  0.6730  0.8477
  426Sol     HW 4779   1.996   2.780   6.270  0.1462  0.6994 -0.0937
  426Sol     MW 4780   2.064   2.794   6.327  0.5839 -0.3638  0.1672
  427Sol     OW 4781   0.019   1.764   2.468 -0.0778 -0.0102 -0.5783
  427Sol     HW 4782   0.038   1.832   2.404  1.9236  0.3635  0.3666
  427Sol     HW 4783   0.028   1.682   2.420 -1.4492  0.3438 -1.4657
  427Sol     MW 4784   0.021   1.763   2.458 -0.2179  0.4875 -0.0595
  428Sol     OW 4785   2.085   2.429   2.785 -0.0539  0.2472 -0.3486
  428Sol     HW 4786   2.005   2.409   2.736  0.7454 -0.0036 -1.5523
  428Sol     HW 4787   2.054   2.476   2.862 -1.2443  1.4458 -1.5338
  428Sol     MW 4788   2.075   2.431   2.788 -0.1915  0.0723 -0.0951
  429Sol     OW 4789   0.571   0.809   1.801  0.6388 -0.1175 -0.2426
  429Sol     HW 4790   0.485   0.851   1.797  0.4439 -0.3013  1.6901
  429Sol     HW 4791   0.566   0.740   1.734 -0.4344  0.3824 -0.6991
  429Sol     MW 4792   0.563   0.807   1.795  0.3176 -0.6563 -0.6235
  430Sol     OW 4793   1.484   0.457   2.861  0.4766  0.0629  0.2502
  430Sol     HW 4794   1.460   0.381   2.808  0.6821 -0.1710  0.4928
  430Sol     HW 4795   1.526   0.517   2.799  0.7653 -0.2353  0.1548
  430Sol     MW 4796   1.486   0.455   2.851  0.3979 -0.1301 -0.0958
  431Sol     OW 4797   3.249   0.607   8.723  0.7948  0.2154  0.2389
  431Sol     HW 4798   3.241   0.651   8.807 -1.7636  2.1549 -0.9531
  431Sol     HW 4799   3.172   0.635   8.673  1.6956 -1.7001 -2.3861
  431Sol     MW 4800   3.241   0.613   8.726  0.1369  0.1902 -0.1185
  432Sol     OW 4801   1.735   1.708   9.453 -0.0292 -0.6704  0.2706
  432Sol     HW 4802   1.830   1.698   9.452  0.2094  1.0182  2.3943
  432Sol     HW 4803   1.702   1.621   9.477  0.9199 -1.4540 -1.1836
  432Sol     MW 4804   1.741   1.699   9.455 -0.1694  0.3202  0.4244
  433Sol     OW 4805   2.104   1.526   3.805 -0.1835  0.1660 -0.4226
  433Sol     HW 4806   2.133   1.618   3.805 -1.2085  0.4978 -1.2391
  433Sol     HW 4807   2.056   1.516   3.723  1.7342 -1.6866 -1.3434
  433Sol     MW 4808   2.102   1.534   3.798 -0.0119 -0.0581 -0.2532
  434Sol     OW 4809   2.455   0.979   6.097  0.5841  0.0370 -0.3016
  434Sol     HW 4810   2.379   1.003   6.149  2.2835  1.4158  1.5700
  434Sol     HW 4811   2.442   0.886   6.078 -0.3056 -0.3777  2.1716
  434Sol     MW 4812   2.447   0.973   6.100 -0.3384  0.0571 -0.9198
  435Sol     OW 4813   0.107   0.149   6.606  0.1894 -0.2539 -0.1221
  435Sol     HW 4814   0.185   0.202   6.595 -0.4089  0.5760 -0.4616
  435Sol     HW 4815   0.060   0.190   6.679 -0.7786  0.3170 -1.0458
  435Sol     MW 4816   0.109   0.158   6.611  0.1793  0.5350  0.2787
  436Sol     OW 4817   1.041   2.838   9.823  0.5147  0.3065 -0.4642
  436Sol     HW 4818   1.081   2.799   9.745  2.8426  1.5728  0.0483
  436Sol     HW 4819   1.115   2.858   9.880 -1.0774  0.4650  1.5864
  436Sol     MW 4820   1.051   2.836   9.821  0.3080  0.1672 -0.7628
  437Sol     OW 4821   1.015   3.168   4.466  0.2541  0.1286 -0.3499
  437Sol     HW 4822   0.922   3.157   4.450  0.0760  1.2889 -0.1283
  437Sol     HW 4823   1.055   3.090   4.428 -0.7726 -0.2187 -0.7296
  437Sol     MW 4824   1.011   3.160   4.461  0.0172 -0.6605  0.4278
  438Sol     OW 4825   1.985   0.261   7.137  0.4141 -0.3808 -0.6321
  438Sol     HW 4826   1.940   0.258   7.221  0.3463 -1.2927 -0.7002
  438Sol     HW 4827   1.960   0.179   7.093  1.6047 -0.5806 -0.9448
  438Sol     MW 4828   1.979   0.253   7.140  0.1689 -0.0312  0.0773
  439Sol     OW 4829   1.199   2.792   5.848  0.2407 -0.3182 -0.8361
  439Sol     HW 4830   1.210   2.722   5.911  0.7352  0.9093  0.4827
  439Sol     HW 4831   1.288   2.811   5.817  0.4717  1.3900  0.7179
  439Sol     MW 4832   1.208   2.788   5.851  0.1795  0.1905  0.6796
  440Sol     OW 4833   0.627   0.466   3.227  0.1294  0.6733 -0.0714
  440Sol     HW 4834   0.709   0.498   3.265 -0.2622  0.8822  0.5959
  440Sol     HW 4835   0.654   0.394   3.169  0.7580  0.5718  0.3448
  440Sol     MW 4836   0.637   0.462   3.225  0.0453 -0.0393  0.7708
  441Sol     OW 4837   0.392   1.991   3.357 -0.5977  0.1373 -0.3496
  441Sol     HW 4838   0.324   1.925   3.370  1.6247 -1.8345  1.5125
  441Sol     HW 4839   0.415   2.019   3.445  1.7475  0.0011 -0.8979
  441Sol     MW 4840   0.388   1.988   3.366 -0.1861 -0.1624 -0.0465
  442Sol     OW 4841   1.533   1.744   4.853 -0.1334  0.4427 -0.0488
  442Sol     HW 4842   1.551   1.676   4.918  0.3237 -1.2194 -1.8893
  442Sol     HW 4843   1.444   1.773   4.873 -0.5336 -1.0779  0.4078
  442Sol     MW 4844   1.527   1.741   4.861  0.6152 -0.2753 -0.7872
  443Sol     OW 4845   0.318   1.513   8.489  0.2450  0.2067 -0.4783
  443Sol     HW 4846   0.300   1.595   8.442  2.4617  1.2714  0.4826
  443Sol     HW 4847   0.412   1.514   8.504 -0.1615 -0.9603  2.4559
  443Sol     MW 4848   0.325   1.521   8.486 -0.3452 -0.3502  0.0248
  444Sol     OW 4849   2.613   2.086   1.873  0.0617 -0.3085 -0.2391
  444Sol     HW 4850   2.634   2.165   1.823 -1.0456  1.3603  1.8382
  444Sol     HW 4851   2.615   2.015   1.809 -1.4953  1.7797 -2.6802
  444Sol     MW 4852   2.615   2.087   1.863  0.4281 -0.2177  0.2468
  445Sol     OW 4853   1.334   0.575   7.564  0.4076 -0.6630  0.4495
  445Sol     HW 4854   1.275   0.546   7.634 -0.7766 -0.7260 -0.5393
  445Sol     HW 4855   1.278   0.627   7.506  0.8790 -2.1922 -1.4579
  445Sol     MW 4856   1.323   0.577   7.565  0.3425 -0.5933  0.4489
  446Sol     OW 4857   1.456   2.034   3.239  0.3177 -0.0237  0.1111
  446Sol     HW 4858   1.366   2.039   3.205  0.2385 -1.3025  0.0925
  446Sol     HW 4859   1.510   2.029   3.160  0.2343 -1.4988  0.1214
  446Sol     MW 4860   1.453   2.034   3.229 -0.2010 -0.4402  0.0169
  447Sol     OW 4861   0.733   1.052   7.301 -0.3826 -0.6053 -0.1530
  447Sol     HW 4862   0.677   1.040   7.378  0.2379  3.1124  0.9468
  447Sol     HW 4863   0.679   1.100   7.239  0.8324  1.1673  0.1078
  447Sol     MW 4864   0.723   1.055   7.303 -0.0273  0.2535  0.4502
  448Sol     OW 4865   2.017   1.681   9.427  0.6728 -0.4026  0.3893
  448Sol     HW 4866   2.058   1.595   9.430 -0.4995 -0.9616  0.8192
  448Sol     HW 4867   2.057   1.729   9.500 -0.6688 -1.5310  1.9247
  448Sol     MW 4868   2.024   1.678   9.434  0.1680 -0.0048  0.6330
  449Sol     OW 4869   1.714   2.974   3.643  0.0686 -0.0801 -0.5536
  449Sol     HW 4870   1.619   2.970   3.631 -0.1621  2.3277  0.2633
  449Sol     HW 4871   1.738   3.063   3.616  2.0552 -0.5705 -0.4818
  449Sol     MW 4872   1.708   2.982   3.639  0.1709  0.2317 -0.3254
  450Sol     OW 4873   2.742   1.281   4.362  0.1965 -0.0728  0.1634
  450Sol     HW 4874   2.670   1.340   4.386 -0.8286 -1.1226 -0.2471
  450Sol     HW 4875   2.759   1.229   4.440 -1.5721 -1.8971 -0.6007
  450Sol     MW 4876   2.737   1.282   4.371  0.3644  0.2664  0.1469
  451Sol     OW 4877   0.508   1.116   3.404  0.5286 -0.3368 -0.5174
  451Sol     HW 4878   0.524   1.111   3.498 -1.6407  0.3997 -0.1012
  451Sol     HW 4879   0.536   1.030   3.370 -1.0452 -1.5396  1.1638
  451Sol     MW 4880   0.512   1.108   3.409 -0.3781 -0.0125  0.4486
  452Sol     OW 4881   2.822   0.834   9.446  0.3725  0.0153 -0.7285
  452Sol     HW 4882   2.727   0.830   9.454  0.1768  1.3184 -2.2325
  452Sol     HW 4883   2.848   0.743   9.430 -0.6686 -0.2811 -0.7871
  452Sol     MW 4884   2.816   0.825   9.445 -0.0265  0.0902 -0.1794
  453Sol     OW 4885   1.040   1.125   9.174  0.5986  0.3039 -0.2489
  453Sol     HW 4886   1.126   1.164   9.191  0.5556  0.0200  0.6599
  453Sol     HW 4887   1.057   1.032   9.162  0.4768  0.3216 -0.5733
  453Sol     MW 4888   1.049   1.120   9.175 -0.2404  0.7701 -0.2233
  454Sol     OW 4889   1.948   1.082   9.224 -0.2705  0.1895 -0.2916
  454Sol     HW 4890   1.921   1.074   9.133 -1.1179  0.5513 -0.0717
  454Sol     HW 4891   1.949   1.176   9.241  2.7203  0.2870 -0.7758
  454Sol     MW 4892   1.946   1.090   9.218 -0.0002  0.7938  0.3281
  455Sol     OW 4893   2.512   0.813   1.673  0.4329 -0.8417  0.3326
  455Sol     HW 4894   2.602   0.789   1.651  1.1671  1.2591  0.8550
  455Sol     HW 4895   2.499   0.898   1.631 -0.8820 -0.5360  1.3052
  455Sol     MW 4896   2.519   0.819   1.667  0.4437  0.7041 -0.0499
  456Sol     OW 4897   1.445   2.556   2.782 -0.6451  0.3997 -0.0778
  456Sol     HW 4898   1.526   2.531   2.738 -0.8615  0.4864 -0.5257
  456Sol     HW 4899   1.473   2.600   2.862 -0.2227 -2.4912  1.4690
  456Sol     MW 4900   1.454   2.557   2.786  0.3495 -0.0617 -0.6554
  457Sol     OW 4901   2.788   1.606   3.637 -0.5540  0.2323  0.6676
  457Sol     HW 4902   2.763   1.570   3.722 -1.7346  2.6034  1.3834
  457Sol     HW 4903   2.883   1.599   3.634 -0.5964 -0.8234  1.7507
  457Sol     MW 4904   2.794   1.602   3.645 -0.1795 -0.0374 -0.4758
  458Sol     OW 4905   0.982   1.478   5.746 -0.3033 -0.4070  0.4448
  458Sol     HW 4906   1.041   1.533   5.797  0.8165 -1.4273  0.2789
  458Sol     HW 4907   0.931   1.539   5.693  0.4169  0.4998  0.7858
  458Sol     MW 4908   0.983   1.488   5.746 -0.5004  0.0309 -0.8945
  459Sol     OW 4909   2.186   1.965   8.499  0.1542 -0.2277 -0.3717
  459Sol     HW 4910   2.119   1.902   8.526  1.1780 -1.1522  0.0480
  459Sol     HW 4911   2.204   1.943   8.408 -2.2164  1.9238 -1.4071
  459Sol     MW 4912   2.182   1.957   8.493 -0.1063 -0.2762  0.3108
  460Sol     OW 4913   1.648   0.959   1.407  0.2113 -0.1728 -0.2702
  460Sol     HW 4914   1.555   0.939   1.419  0.1385  0.1917 -0.2096
  460Sol     HW 4915   1.668   0.931   1.318 -0.1513  0.4799 -0.5534
  460Sol     MW 4916   1.642   0.955   1.400 -0.3907  0.1147 -0.1705
  461Sol     OW 4917   0.074   3.319   8.892  0.3462 -0.0579  0.2970
  461Sol     HW 4918   0.037   3.406   8.908  0.7281  0.2725 -0.5572
  461Sol     HW 4919   0.121   3.297   8.972 -0.5888  0.0875  0.8997
  461Sol     MW 4920   0.075   3.325   8.900 -0.9252  0.3303 -0.0711
  462Sol     OW 4921   2.189   1.151   4.692  0.5463 -0.6766  0.1492
  462Sol     HW 4922   2.149   1.066   4.671  0.1629 -0.0940 -1.5996
  462Sol     HW 4923   2.272   1.150   4.645  0.6593 -0.1955  0.3403
  462Sol     MW 4924   2.193   1.143   4.686 -0.1668 -0.3286 -0.3126
  463Sol     OW 4925   2.789   1.610   2.941 -0.5998 -0.4084 -0.3270
  463Sol     HW 4926   2.795   1.580   2.850  1.1788 -0.7352 -0.1236
  463Sol     HW 4927   2.810   1.704   2.936  0.4502 -0.6273 -0.1478
  463Sol     MW 4928   2.791   1.616   2.932  0.1464 -0.1411  0.1941
  464Sol     OW 4929   1.767   2.719   7.886 -0.0771  0.3052 -0.2103
  464Sol     HW 4930   1.787   2.672   7.805  0.2903  0.5330 -0.2511
  464Sol     HW 4931   1.824   2.796   7.884 -0.1205  0.3486  0.2302
  464Sol     MW 4932   1.774   2.722   7.878 -0.1578  0.2770  0.0772
  465Sol     OW 4933   2.650   0.267   3.573 -0.2924  0.0765 -0.2379
  465Sol     HW 4934   2.741   0.241   3.589 -0.2281  0.6244  0.2885
  465Sol     HW 4935   2.657   0.348   3.523 -0.4904 -1.3224 -2.6559
  465Sol     MW 4936   2.659   0.272   3.570  0.2490  0.1496 -0.0933
  466Sol     OW 4937   2.694   1.357   8.159 -0.0460  0.4795  0.4528
  466Sol     HW 4938   2.767   1.295   8.171 -1.5338 -1.2843  0.5582
  466Sol     HW 4939   2.706   1.391   8.070 -0.5184 -1.7047 -0.4663
  466Sol     MW 4940   2.702   1.355   8.152 -0.1971 -0.3605  0.5896
  467Sol     OW 4941   0.108   0.951   6.576  0.2480 -0.0169 -0.4133
  467Sol     HW 4942   0.146   1.038   6.562  2.6465 -0.9413  0.1169
  467Sol     HW 4943   0.160   0.914   6.648  0.7984 -2.7814 -2.1444
  467Sol     MW 4944   0.116   0.956   6.582  0.2897 -0.0237 -0.5750
  468Sol     OW 4945   0.568   0.778   4.508  0.6568 -0.5772  0.0672
  468Sol     HW 4946   0.547   0.687   4.488  0.6703 -0.4560 -0.5141
  468Sol     HW 4947   0.554   0.786   4.603 -0.2800 -0.9316 -0.0363
  468Sol     MW 4948   0.565   0.770   4.515  0.1020  0.5325 -0.1081
  469Sol     OW 4949   0.842   0.900   6.060 -0.4172 -0.3601 -0.7752
  469Sol     HW 4950   0.915   0.872   6.115 -0.5588 -0.9188 -0.8730
  469Sol     HW 4951   0.858   0.993   6.045  1.4177 -0.9309 -2.5694
  469Sol     MW 4952   0.850   0.906   6.064 -0.5698  0.6527 -0.2021
  470Sol     OW 4953   1.133   3.205   2.915  0.5431 -0.5976  0.8273
  470Sol     HW 4954   1.187   3.168   2.845  0.4496 -0.1003  0.4847
  470Sol     HW 4955   1.061   3.142   2.925  0.2112 -0.3579  0.0256
  470Sol     MW 4956   1.131   3.196   2.909 -0.0912 -0.1230  0.4882
  471Sol     OW 4957   0.709   0.261   3.744 -0.2394 -0.1473 -0.0859
  471Sol     HW 4958   0.769   0.327   3.778 -0.9100  0.6485 -0.4214
  471Sol     HW 4959   0.696   0.286   3.652  0.5074 -1.4923 -0.5595
  471Sol     MW 4960   0.713   0.269   3.739  0.0954 -0.0473  0.3043
  472Sol     OW 4961   0.546   0.755   8.470 -0.0979 -0.0544 -0.3400
  472Sol     HW 4962   0.517   0.682   8.523  1.7441  0.1385  0.9461
  472Sol     HW 4963   0.582   0.715   8.391 -0.1737 -0.4769 -0.1601
  472Sol     MW 4964   0.546   0.745   8.467  0.1600  0.2445 -0.4030
  473Sol     OW 4965   0.704   1.848   5.409  0.3112  0.4890  0.6834
  473Sol     HW 4966   0.732   1.788   5.340 -1.1174 -1.9936  2.1827
  473Sol     HW 4967   0.780   1.906   5.423  1.9650 -1.3501 -0.3906
  473Sol     MW 4968   0.714   1.848   5.404 -0.3406 -0.4310  0.3368
  474Sol     OW 4969   2.142   1.633   5.265 -0.3296 -0.5603 -0.7457
  474Sol     HW 4970   2.065   1.658   5.316  0.3813  0.8469 -0.3270
  474Sol     HW 4971   2.107   1.613   5.178 -1.0237  1.3459 -0.9265
  474Sol     MW 4972   2.132   1.634   5.262 -0.5612 -0.8193 -0.0905
  475Sol     OW 4973   3.129   0.486   9.945  0.1147  0.2422 -0.0885
  475Sol     HW 4974   3.058   0.426   9.970  1.2531 -0.8784  0.4883
  475Sol     HW 4975   3.092   0.573   9.957 -1.8865 -0.3150 -1.7966
  475Sol     MW 4976   3.119   0.488   9.948 -0.1364 -0.3843  0.2800
  476Sol     OW 4977   1.359   0.599   3.696 -0.1642  0.2404  0.5128
  476Sol     HW 4978   1.389   0.687   3.716 -0.3207  0.2276  0.7986
  476Sol     HW 4979   1.367   0.593   3.601 -0.5462  0.7078  0.4473
  476Sol     MW 4980   1.363   0.606   3.689 -0.4128  0.0928 -0.0536
  477Sol     OW 4981   0.284   0.568   6.809 -0.0802  0.7702  0.5002
  477Sol     HW 4982   0.366   0.522   6.790 -0.0446  1.0346  0.0007
  477Sol     HW 4983   0.269   0.553   6.902  0.5805  0.7924  0.6137
  477Sol     MW 4984   0.290   0.562   6.816 -0.2917 -0.1381  0.1513
  478Sol     OW 4985   0.358   1.548   2.601 -0.9496 -0.9979  0.5432
  478Sol     HW 4986   0.281   1.495   2.580 -1.4393 -0.2418  0.4037
  478Sol     HW 4987   0.329   1.606   2.672 -0.2981 -1.2047  0.9814
  478Sol     MW 4988   0.348   1.548   2.605 -0.3564 -0.0659 -0.0109
  479Sol     OW 4989   0.857   0.385   9.060  0.0952 -0.2175 -0.3204
  479Sol     HW 4990   0.848   0.333   9.140  2.8666 -2.4999 -1.4452
  479Sol     HW 4991   0.767   0.397   9.030 -0.9168 -0.2493  2.5301
  479Sol     MW 4992   0.848   0.382   9.064 -0.3599  0.1358  0.5089
  480Sol     OW 4993   1.653   0.989   5.560 -0.3409 -1.1210  0.6562
  480Sol     HW 4994   1.691   0.904   5.581  0.6358 -0.7723  0.3381
  480Sol     HW 4995   1.704   1.021   5.486 -1.7192 -0.9414 -0.2318
  480Sol     MW 4996   1.661   0.984   5.555 -0.4936  0.5571 -0.4486
  481Sol     OW 4997   1.051   1.377   3.579  0.6462 -0.1092  0.0323
  481Sol     HW 4998   1.016   1.455   3.537  0.6454 -0.4722 -0.6508
  481Sol     HW 4999   0.974   1.323   3.599  0.7329 -0.5057 -0.6629
  481Sol     MW 5000   1.041   1.379   3.577 -0.1642 -0.3643 -0.4927
  482Sol     OW 5001   2.604   3.409   2.495  0.0295 -0.5377  0.2621
  482Sol     HW 5002   2.693   3.406   2.530 -0.3107 -0.7716  1.1165
  482Sol     HW 5003   2.594   3.499   2.463  1.8088 -1.4501 -3.1829
  482Sol     MW 5004   2.611   3.417   2.495 -0.2626 -0.4554  0.0552
  483Sol     OW 5005   2.615   0.425   8.021  0.2538 -0.1166  0.6735
  483Sol     HW 5006   2.575   0.381   8.096 -1.4801  0.0367 -0.1359
  483Sol     HW 5007   2.709   0.418   8.036  0.0150 -3.9088  0.6771
  483Sol     MW 5008   2.620   0.421   8.029  0.5693  0.5306 -0.3465
  484Sol     OW 5009   1.484   2.284   3.534 -0.3212 -0.1168 -0.6082
  484Sol     HW 5010   1.395   2.298   3.503  0.2953  3.3410 -0.9795
  484Sol     HW 5011   1.475   2.271   3.629 -1.2624 -0.3498 -0.7247
  484Sol     MW 5012   1.475   2.284   3.540 -0.1809  0.1740  0.2148
  485Sol     OW 5013   0.802   2.706   7.213 -0.8015  0.9750  0.2143
  485Sol     HW 5014   0.787   2.616   7.183  1.3971  0.4729  0.5966
  485Sol     HW 5015   0.778   2.761   7.138 -0.2035 -0.0259 -0.7161
  485Sol     MW 5016   0.798   2.703   7.204  0.0658 -0.0062  0.2256
  486Sol     OW 5017   0.281   1.544   7.034 -0.6381 -0.3714  0.4321
  486Sol     HW 5018   0.282   1.488   7.112  0.6269 -1.5693 -0.4415
  486Sol     HW 5019   0.251   1.487   6.964 -0.4064  0.3469 -0.2511
  486Sol     MW 5020   0.278   1.534   7.035  0.5028  0.5149  0.2121
  487Sol     OW 5021   1.942   3.329   9.111  0.1596 -0.2442  0.2520
  487Sol     HW 5022   1.934   3.234   9.125 -3.0250  0.1038  1.1850
  487Sol     HW 5023   1.961   3.364   9.198  0.1033  0.0931  0.1276
  487Sol     MW 5024   1.943   3.323   9.120 -0.8079  0.0513  0.0904
  488Sol     OW 5025   0.768   2.986   3.102 -0.1414 -0.0374  0.5706
  488Sol     HW 5026   0.849   2.974   3.152  0.1301  2.3554  0.7536
  488Sol     HW 5027   0.699   2.959   3.162  0.3260  0.7452  1.4647
  488Sol     MW 5028   0.769   2.982   3.112 -0.1274  0.2566 -0.1782
  489Sol     OW 5029   1.271   1.214   2.339 -0.2916  0.4325  0.0350
  489Sol     HW 5030   1.352   1.172   2.368  0.1960  0.1031 -1.7052
  489Sol     HW 5031   1.256   1.177   2.251 -3.0232 -0.4846  0.8512
  489Sol     MW 5032   1.277   1.207   2.333  0.0116  0.6089 -0.0929
  490Sol     OW 5033   0.328   2.017   8.246  0.2656  0.0872 -0.3332
  490Sol     HW 5034   0.381   2.078   8.297  0.8126 -0.6240 -0.0450
  490Sol     HW 5035   0.357   2.028   8.156  0.4467  0.1673 -0.2646
  490Sol     MW 5036   0.335   2.023   8.242 -0.2723  0.2501 -0.1671
  491Sol     OW 5037   0.649   2.859   7.876 -0.1841 -0.3877 -0.7194
  491Sol     HW 5038   0.679   2.793   7.813  0.6568 -0.5485 -0.1556
  491Sol     HW 5039   0.689   2.941   7.847 -1.1729 -0.1332 -1.3795
  491Sol     MW 5040   0.655   2.860   7.868 -0.2129 -0.1375  0.2790
  492Sol     OW 5041   0.517   0.726   4.804  0.7278  0.1364  0.1390
  492Sol     HW 5042   0.427   0.752   4.822  0.3931 -0.0630 -1.1982
  492Sol     HW 5043   0.514   0.631   4.800  0.5983  0.1927 -1.8156
  492Sol     MW 5044   0.509   0.720   4.805 -0.0082  0.3016  0.0557
  493Sol     OW 5045   2.361   2.816   7.552 -0.8103 -0.1289 -0.6187
  493Sol     HW 5046   2.404   2.751   7.607 -0.1491  1.0358  0.2621
  493Sol     HW 5047   2.355   2.775   7.466 -0.6208 -1.4383 -0.0105
  493Sol     MW 5048   2.365   2.807   7.549  0.3520 -0.0417 -0.0608
  494Sol     OW 5049   0.820   1.981   2.962  0.2174  0.3432  0.0553
  494Sol     HW 5050   0.788   2.021   2.881 -2.1806 -2.7750 -0.6287
  494Sol     HW 5051   0.744   1.979   3.019  1.2551  0.1463  1.4467
  494Sol     MW 5052   0.811   1.984   2.960  0.2421 -0.0448 -0.7360
  495Sol     OW 5053   0.625   1.004   5.875 -0.3679 -0.1060 -0.1939
  495Sol     HW 5054   0.712   0.998   5.834 -1.0383  0.6590 -1.7862
  495Sol     HW 5055   0.642   1.046   5.959  0.7805  0.2646 -0.5903
  495Sol     MW 5056   0.635   1.007   5.879 -0.5130 -0.0450  0.0859
  496Sol     OW 5057   2.394   0.882   9.688 -0.7769  0.1902 -0.3065
  496Sol     HW 5058   2.456   0.836   9.632  1.9273  0.3990  2.3724
  496Sol     HW 5059   2.361   0.815   9.747 -0.2874  0.7905  0.6575
  496Sol     MW 5060   2.397   0.872   9.688 -0.5639 -0.4716 -0.1604
  497Sol     OW 5061   3.174   3.256   2.640 -0.1507 -0.0155 -0.4525
  497Sol     HW 5062   3.245   3.283   2.581  0.2239 -1.9094 -0.9219
  497Sol     HW 5063   3.142   3.337   2.678  1.0944  1.0389 -1.5923
  497Sol     MW 5064   3.178   3.265   2.638 -0.1104  0.1072 -0.2029
  498Sol     OW 5065   2.914   1.549   6.319 -0.2814 -0.8122 -1.4406
  498Sol     HW 5066   2.980   1.594   6.266  0.6335  0.8536  1.0226
  498Sol     HW 5067   2.839   1.608   6.318  0.9970  1.0417  1.9740
  498Sol     MW 5068   2.914   1.559   6.314  0.2196 -0.1951  0.1857
  499Sol     OW 5069   0.361   1.017   2.715  0.5469 -0.1272  0.2454
  499Sol     HW 5070   0.442   1.043   2.671  0.0111 -0.9454 -1.2849
  499Sol     HW 5071   0.374   0.924   2.736 -0.4654 -0.5940 -1.1373
  499Sol     MW 5072   0.369   1.011   2.713 -0.0994  0.1470 -0.6135
  500Sol     OW 5073   2.418   2.038   3.480  0.3670 -0.0475  0.4460
  500Sol     HW 5074   2.373   2.074   3.557  1.4386 -0.2934  1.2034
  500Sol     HW 5075   2.444   1.950   3.507  4.2153  1.2320  1.2526
  500Sol     MW 5076   2.416   2.033   3.489 -0.0805 -0.0237  0.0421
  501Sol     OW 5077   0.508   1.789   2.496  0.1324 -0.0283  0.1140
  501Sol     HW 5078   0.453   1.721   2.535 -0.3189  0.6743  0.7017
  501Sol     HW 5079   0.531   1.846   2.569  3.6067 -1.6162  0.3514
  501Sol     MW 5080   0.505   1.788   2.506 -0.3465 -0.2428  0.0534
  502Sol     OW 5081   1.764   1.236   3.800 -0.4404  0.1682 -0.2480
  502Sol     HW 5082   1.816   1.179   3.857 -1.1695 -1.2358 -0.9421
  502Sol     HW 5083   1.818   1.247   3.721 -0.7090 -0.3736 -0.5117
  502Sol     MW 5084   1.774   1.232   3.798  0.1530 -0.1007  0.0063
  503Sol     OW 5085   0.546   3.106   8.069  0.2469 -0.4527 -0.1412
  503Sol     HW 5086   0.473   3.161   8.097  1.4173  2.3027 -2.2439
  503Sol     HW 5087   0.523   3.079   7.979  1.6227  0.1231 -0.6809
  503Sol     MW 5088   0.538   3.108   8.063 -0.4300 -0.4839  0.2466
  504Sol     OW 5089   2.109   1.596   4.972  0.3108  0.7095 -0.4332
  504Sol     HW 5090   2.165   1.519   4.975  0.5483  0.8362 -1.3948
  504Sol     HW 5091   2.064   1.591   4.888 -2.0742 -0.0290  0.8288
  504Sol     MW 5092   2.110   1.589   4.965 -0.1518  0.0110  0.3477
  505Sol     OW 5093   2.640   1.523   9.828 -0.3778  0.2215  0.1991
  505Sol     HW 5094   2.687   1.605   9.841  0.9974 -0.7599  1.5449
  505Sol     HW 5095   2.581   1.517   9.903  0.6609 -0.7790  0.9467
  505Sol     MW 5096   2.639   1.530   9.836 -0.6221  0.3822 -0.0368
  506Sol     OW 5097   2.137   2.531   7.493 -0.0285 -0.2597  0.5194
  506Sol     HW 5098   2.224   2.570   7.493  0.0366 -0.3936 -0.3816
  506Sol     HW 5099   2.149   2.446   7.450 -0.6385 -0.1990  0.2199
  506Sol     MW 5100   2.146   2.527   7.489 -0.1436  0.0130  0.6432
  507Sol     OW 5101   1.156   2.725   9.553  0.5737  0.5215  0.2943
  507Sol     HW 5102   1.188   2.635   9.561 -0.5738  0.2638  2.1603
  507Sol     HW 5103   1.097   2.722   9.478  0.9441 -0.1565  0.0221
  507Sol     MW 5104   1.154   2.717   9.547 -0.2049 -0.1331 -0.3886
  508Sol     OW 5105   2.857   0.616   1.831 -0.3002 -0.0653  0.0398
  508Sol     HW 5106   2.929   0.554   1.826 -0.5346 -0.3301 -0.1233
  508Sol     HW 5107   2.883   0.679   1.898  2.0950  2.4407 -3.0310
  508Sol     MW 5108   2.866   0.616   1.836 -0.6323  0.2276  0.0302
  509Sol     OW 5109   0.903   2.495   7.945  0.2382 -0.5500 -0.1785
  509Sol     HW 5110   0.852   2.556   7.892 -1.1596 -0.7414  0.8962
  509Sol     HW 5111   0.971   2.462   7.887 -2.0106 -1.7127 -2.2364
  509Sol     MW 5112   0.904   2.497   7.935 -1.1316  0.1997  0.4412
  510Sol     OW 5113   1.908   0.188   6.823 -0.6202 -0.9094 -0.0609
  510Sol     HW 5114   1.856   0.268   6.823  0.2022 -0.3653 -0.2481
  510Sol     HW 5115   1.998   0.218   6.810 -0.3729 -1.9058 -0.7180
  510Sol     MW 5116   1.912   0.197   6.822  0.5110 -0.4666 -0.4937
  511Sol     OW 5117   3.069   2.306   9.211 -0.1943 -0.3763 -0.2432
  511Sol     HW 5118   3.084   2.232   9.152 -2.1654 -0.7451 -0.3002
  511Sol     HW 5119   3.105   2.276   9.295  2.8444  0.2524 -1.2409
  511Sol     MW 5120   3.074   2.296   9.214  0.0650 -0.4103  0.2461
  512Sol     OW 5121   3.079   1.730   4.536 -0.0263 -0.0544  0.0172
  512Sol     HW 5122   3.002   1.779   4.565  0.8244  0.6336  1.1036
  512Sol     HW 5123   3.102   1.769   4.452  0.4384  1.1607  0.7126
  512Sol     MW 5124   3.074   1.738   4.531  0.1694 -0.1297  0.2326
  513Sol     OW 5125   2.552   0.059   8.834  0.5136  0.1022  0.2351
  513Sol     HW 5126   2.635   0.040   8.878 -0.6755 -1.4274  1.8663
  513Sol     HW 5127   2.520  -0.026   8.805  0.4357  0.8982 -2.1375
  513Sol     MW 5128   2.557   0.050   8.835 -0.2933 -0.5916  0.2335
  514Sol     OW 5129   2.804   1.194   9.115 -0.6014 -0.1651  0.2677
  514Sol     HW 5130   2.893   1.171   9.143 -0.3079  1.2195  0.4731
  514Sol     HW 5131   2.797   1.288   9.131 -1.8567 -0.1322 -0.4307
  514Sol     MW 5132   2.812   1.200   9.119 -0.2403 -0.7010 -0.3640
  515Sol     OW 5133   1.386   0.904   6.726 -0.9407  0.1357  0.2151
  515Sol     HW 5134   1.339   0.840   6.780 -0.9658 -0.8161 -0.9056
  515Sol     HW 5135   1.469   0.916   6.770  0.0765 -2.5538 -0.8196
  515Sol     MW 5136   1.389   0.899   6.734 -0.0971  0.0288 -0.4941
  516Sol     OW 5137   2.550   1.970   7.957  0.0533 -0.5577 -0.0224
  516Sol     HW 5138   2.540   1.973   8.052 -0.5054 -0.8751 -0.0666
  516Sol     HW 5139   2.623   1.910   7.942  0.4584 -0.1210  0.2287
  516Sol     MW 5140   2.555   1.965   7.964 -0.4268 -0.2022  0.5032
  517Sol     OW 5141   1.318   2.686   8.020  0.1443 -0.0364 -0.1593
  517Sol     HW 5142   1.346   2.608   8.069 -1.3453  0.7066  1.9657
  517Sol     HW 5143   1.309   2.754   8.087 -0.4202  1.4531 -1.7215
  517Sol     MW 5144   1.320   2.685   8.031  0.3063 -0.5213  0.3696
  518Sol     OW 5145   1.580   0.275   4.353 -0.3945 -0.1679 -0.1397
  518Sol     HW 5146   1.637   0.220   4.300 -0.3604 -0.4440  0.1819
  518Sol     HW 5147   1.541   0.337   4.291  1.4594  1.0531 -0.1291
  518Sol     MW 5148   1.581   0.276   4.343 -0.0704 -0.0729 -0.1827
  519Sol     OW 5149   1.155   3.186   2.056 -0.0065 -0.2362 -0.1476
  519Sol     HW 5150   1.184   3.112   2.109  2.5234  0.9455  0.1885
  519Sol     HW 5151   1.105   3.241   2.116 -0.1843 -0.6727  0.1041
  519Sol     MW 5152   1.153   3.184   2.066  0.4203  0.0637  0.2101
  520Sol     OW 5153   0.229   1.410   3.028 -0.2378  0.1257  0.3551
  520Sol     HW 5154   0.193   1.356   2.958  0.6476  0.2467 -0.1965
  520Sol     HW 5155   0.324   1.400   3.021  0.0124  2.7997 -0.6067
  520Sol     MW 5156   0.234   1.405   3.021 -0.2228  0.0727  0.3274
  521Sol     OW 5157   1.076   1.533   8.189  0.1191 -0.5717  0.9943
  521Sol     HW 5158   1.055   1.440   8.181  2.0345 -0.7522 -3.6205
  521Sol     HW 5159   1.167   1.534   8.218  0.5432 -0.2015 -0.3130
  521Sol     MW 5160   1.082   1.524   8.191  0.3038 -0.2912 -0.3435
  522Sol     OW 5161   3.131   0.119   2.360  0.1465  0.7078  0.2417
  522Sol     HW 5162   3.186   0.062   2.306  0.9863  2.3586 -0.7141
  522Sol     HW 5163   3.078   0.167   2.296  0.0894  1.6262  0.9681
  522Sol     MW 5164   3.131   0.118   2.349 -0.6576  0.3294 -0.1663
  523Sol     OW 5165   2.585   0.897   3.187 -0.2399  0.3128  0.1756
  523Sol     HW 5166   2.627   0.860   3.264 -0.1592  1.4253  0.6718
  523Sol     HW 5167   2.637   0.865   3.113 -0.8265 -1.4483  0.5071
  523Sol     MW 5168   2.593   0.891   3.187  0.4108 -0.1382 -0.0690
  524Sol     OW 5169   0.620   3.053   7.219  0.0215 -0.0158  0.2631
  524Sol     HW 5170   0.600   3.125   7.158 -0.4613  2.8816  3.6711
  524Sol     HW 5171   0.713   3.064   7.238  0.0549 -0.6123  0.4484
  524Sol     MW 5172   0.627   3.061   7.215 -0.6622  0.4188 -0.1131
  525Sol     OW 5173   2.542   2.902   8.196 -0.1085 -0.2387  0.6646
  525Sol     HW 5174   2.628   2.902   8.237 -0.1202  1.9210  0.7546
  525Sol     HW 5175   2.485   2.857   8.258  0.7229 -0.6414  1.1332
  525Sol     MW 5176   2.544   2.898   8.205 -0.0204  0.1578 -0.0616
  526Sol     OW 5177   0.681   2.932   3.418 -0.4547  0.2976  0.6550
  526Sol     HW 5178   0.644   3.015   3.450 -0.9893  0.6488 -0.8144
  526Sol     HW 5179   0.698   2.881   3.497 -1.4690  1.2511  1.5046
  526Sol     MW 5180   0.679   2.935   3.428  0.1249 -0.1477 -1.3108
  527Sol     OW 5181   1.549   0.471   5.026  0.1812 -0.3876  0.1233
  527Sol     HW 5182   1.519   0.503   4.941  0.0778  0.4809  0.4780
  527Sol     HW 5183   1.609   0.539   5.057  0.3610 -0.7861  0.6565
  527Sol     MW 5184   1.552   0.480   5.021 -0.2133  0.0772  0.8574
  528Sol     OW 5185   0.054   1.067   8.846 -0.5180 -0.2733 -0.0906
  528Sol     HW 5186   0.005   1.134   8.798 -1.8252 -1.5907 -0.6473
  528Sol     HW 5187   0.117   1.033   8.782 -1.7772 -1.5309 -0.6884
  528Sol     MW 5188   0.055   1.070   8.836  0.2718  0.0233 -0.0011
  529Sol     OW 5189   0.589   1.945   9.011  0.2396  0.3194  0.0064
  529Sol     HW 5190   0.681   1.965   9.025 -0.0647  0.9790  1.1730
  529Sol     HW 5191   0.560   1.903   9.092 -0.2653 -0.6942 -0.6944
  529Sol     MW 5192   0.594   1.943   9.020  0.9693 -0.0416  0.2667
  530Sol     OW 5193   0.691   0.367   4.518 -0.1647 -0.2837 -0.4136
  530Sol     HW 5194   0.726   0.278   4.521  3.1109  0.9148 -1.2888
  530Sol     HW 5195   0.666   0.386   4.608  0.4819 -1.5646  0.0501
  530Sol     MW 5196   0.692   0.361   4.526 -0.1029  0.0002 -0.0472
  531Sol     OW 5197   1.785   0.796   8.859  0.1310 -0.0832 -0.1788
  531Sol     HW 5198   1.836   0.790   8.778  1.0665  0.3287  0.3728
  531Sol     HW 5199   1.836   0.748   8.923 -1.0960 -1.2529 -0.0587
  531Sol     MW 5200   1.794   0.792   8.857  0.1102 -0.2456 -0.1526
  532Sol     OW 5201   0.553   2.400   8.142 -0.3674  0.0903 -0.0998
  532Sol     HW 5202   0.570   2.494   8.138 -2.1931  0.6290  3.3896
  532Sol     HW 5203   0.471   2.388   8.093 -1.5110  0.7236  1.6280
  532Sol     MW 5204   0.547   2.408   8.137  0.5449 -0.6080 -0.1809
  533Sol     OW 5205   2.838   0.321   5.118  0.3515  0.5092  0.1062
  533Sol     HW 5206   2.773   0.358   5.178  0.1480  0.3334 -0.0032
  533Sol     HW 5207   2.905   0.283   5.176 -1.1898 -2.0688  0.2993
  533Sol     MW 5208   2.838   0.321   5.129 -0.2840 -0.2847  0.4307
  534Sol     OW 5209   0.348   1.151   8.346 -0.1289 -0.3229  0.2247
  534Sol     HW 5210   0.300   1.189   8.419 -1.6397 -0.8456 -0.4725
  534Sol     HW 5211   0.387   1.226   8.301  0.1713  0.0593  1.1178
  534Sol     MW 5212   0.347   1.161   8.348  0.2148 -0.2076  0.1649
  535Sol     OW 5213   0.591   2.028   6.114 -0.7198  0.3895 -0.1465
  535Sol     HW 5214   0.640   1.951   6.143 -0.8181  1.0680  1.9066
  535Sol     HW 5215   0.657   2.096   6.105 -0.9682  0.7473  0.6147
  535Sol     MW 5216   0.601   2.027   6.116  0.2482 -0.2658  0.3690
  536Sol     OW 5217   1.770   3.173   2.135  0.0372 -0.1914  0.6754
  536Sol     HW 5218   1.766   3.088   2.180  0.0876  0.0153  1.0750
  536Sol     HW 5219   1.713   3.162   2.059  0.6844 -0.8458  0.2823
  536Sol     MW 5220   1.764   3.164   2.132  0.0226  0.0023  0.2207
  537Sol     OW 5221   0.036   2.580   7.625  0.4916  0.3142 -0.2394
  537Sol     HW 5222   0.054   2.664   7.665  1.8252 -0.5195  0.9108
  537Sol     HW 5223   0.081   2.583   7.540  1.8012  0.1712  0.4541
  537Sol     MW 5224   0.041   2.588   7.621  0.2698  0.4485  0.0021
  538Sol     OW 5225   2.826   2.818   3.599 -0.6703  0.2693  0.4509
  538Sol     HW 5226   2.740   2.814   3.642 -1.7013  1.1705 -1.4957
  538Sol     HW 5227   2.808   2.852   3.512  1.3753 -1.8626 -0.8358
  538Sol     MW 5228   2.817   2.821   3.595 -0.3972  0.0546 -0.2917
  539Sol     OW 5229   2.627   0.671   6.756  0.6124  0.0910 -0.5201
  539Sol     HW 5230   2.554   0.709   6.708  0.9198 -0.0257 -1.0833
  539Sol     HW 5231   2.695   0.738   6.754  0.3589  0.3881  0.4117
  539Sol     MW 5232   2.626   0.681   6.751  0.2784  0.2661 -0.0540
  540Sol     OW 5233   3.239   1.704   8.809 -0.5440 -0.0652 -0.4115
  540Sol     HW 5234   3.156   1.701   8.762 -0.0381 -0.9276 -1.2651
  540Sol     HW 5235   3.305   1.686   8.742  0.2910  0.1418  0.3531
  540Sol     MW 5236   3.237   1.702   8.799  0.0410  0.3588 -0.3846
  541Sol     OW 5237   1.532   2.281   4.135 -0.3550  0.5596  0.0132
  541Sol     HW 5238   1.617   2.326   4.140 -0.0378  0.0617 -0.8713
  541Sol     HW 5239   1.547   2.207   4.077 -0.9052 -0.6550  1.3880
  541Sol     MW 5240   1.541   2.279   4.131 -0.4568 -0.4560  0.1462
  542Sol     OW 5241   1.607   0.420   3.107  0.0999 -0.5020  0.6732
  542Sol     HW 5242   1.559   0.424   3.024  0.2864 -2.0851  0.4847
  542Sol     HW 5243   1.600   0.329   3.135  2.0524 -0.5098  1.1926
  542Sol     MW 5244   1.602   0.413   3.102  0.1314 -0.5415 -0.4841
  543Sol     OW 5245   2.746   1.088   3.626 -0.0106  0.0925  0.1938
  543Sol     HW 5246   2.804   1.151   3.584 -0.1062  0.5205  0.6960
  543Sol     HW 5247   2.795   1.006   3.627 -1.2205 -0.7746 -3.6657
  543Sol     MW 5248   2.755   1.086   3.623 -0.2050  0.4460 -0.6219
  544Sol     OW 5249   0.342   0.315   1.454  0.2510  0.5077  0.4843
  544Sol     HW 5250   0.427   0.282   1.482  1.4172  1.6588 -1.5789
  544Sol     HW 5251   0.352   0.332   1.360 -2.7225 -0.7901 -0.1429
  544Sol     MW 5252   0.350   0.314   1.448  0.2028  0.4069  1.2653
  545Sol     OW 5253   0.298   2.983   2.539 -0.3259 -0.2114 -0.2465
  545Sol     HW 5254   0.372   3.006   2.483 -0.5559 -0.0777 -0.4953
  545Sol     HW 5255   0.308   2.889   2.555  0.4103 -0.0142  0.4722
  545Sol     MW 5256   0.306   2.976   2.535  0.0969 -0.3692  0.0348
  546Sol     OW 5257   1.403   2.181   2.540 -0.2188 -0.4149  0.5847
  546Sol     HW 5258   1.379   2.272   2.522  0.3805 -0.3967 -0.1308
  546Sol     HW 5259   1.491   2.186   2.576 -0.0648 -0.7420  0.2556
  546Sol     MW 5260   1.408   2.189   2.542 -0.1251 -0.3184 -0.0511
  547Sol     OW 5261   3.115   2.721   6.061  0.3352  0.5475 -0.1803
  547Sol     HW 5262   3.073   2.717   5.975  0.0312 -0.0340  0.0013
  547Sol     HW 5263   3.164   2.639   6.068 -0.4961  0.1247  0.6547
  547Sol     MW 5264   3.116   2.714   6.054 -0.5713 -0.3720 -0.4412
  548Sol     OW 5265   0.723   1.481   9.160 -0.4275 -0.2481  0.1702
  548Sol     HW 5266   0.644   1.508   9.205 -0.6863 -1.4926  0.4784
  548Sol     HW 5267   0.774   1.561   9.150 -1.7525  0.5661 -0.0959
  548Sol     MW 5268   0.721   1.490   9.163 -0.1089 -0.0803  0.4268
  549Sol     OW 5269   1.789   3.039   7.178 -0.1457 -0.2402 -0.6604
  549Sol     HW 5270   1.726   2.987   7.228 -1.1814  1.3366 -0.2928
  549Sol     HW 5271   1.735   3.100   7.128  1.0347  0.1377 -1.4956
  549Sol     MW 5272   1.779   3.040   7.178 -0.2028  0.1371 -0.4039
  550Sol     OW 5273   2.092   3.386   2.511  0.3253 -0.1581 -0.0122
  550Sol     HW 5274   2.166   3.397   2.571  0.1448  1.1494 -0.0176
  550Sol     HW 5275   2.088   3.468   2.462  1.8416 -1.9800 -3.4183
  550Sol     MW 5276   2.098   3.394   2.512 -0.3646 -0.1309 -0.6482
  551Sol     OW 5277   2.158   1.681   7.184 -0.1079  0.1421 -0.2030
  551Sol     HW 5278   2.174   1.599   7.138 -0.4083 -0.4154  0.6799
  551Sol     HW 5279   2.089   1.724   7.134 -1.2384 -0.9863  0.3756
  551Sol     MW 5280   2.154   1.677   7.175 -0.2592  0.0180 -0.0642
  552Sol     OW 5281   2.544   3.003   5.303 -0.7536  0.4378  0.0532
  552Sol     HW 5282   2.460   3.034   5.338 -0.9246  0.5666 -0.4568
  552Sol     HW 5283   2.522   2.969   5.216 -0.3607  0.0012  0.1237
  552Sol     MW 5284   2.534   3.003   5.298 -0.0563  0.1662  0.4713
  553Sol     OW 5285   0.450   3.373   1.941 -0.0436  0.1155  0.0560
  553Sol     HW 5286   0.505   3.355   1.865 -1.4930 -1.1551 -0.7071
  553Sol     HW 5287   0.388   3.439   1.910  0.4194  0.8273  0.6330
  553Sol     MW 5288   0.450   3.377   1.931  0.2025  0.4177 -0.4424
  554Sol     OW 5289   0.812   1.956   4.438 -0.1894 -0.1762 -0.0779
  554Sol     HW 5290   0.849   2.021   4.377  2.2778 -1.2086  0.2564
  554Sol     HW 5291   0.800   1.878   4.385 -2.1154  0.1974 -0.2183
  554Sol     MW 5292   0.814   1.955   4.428  0.4713 -0.4863 -0.3411
  555Sol     OW 5293   1.430   2.885   7.065  0.1356  0.3083  0.0278
  555Sol     HW 5294   1.424   2.792   7.042  1.1923  0.5402 -1.2412
  555Sol     HW 5295   1.480   2.885   7.147  1.3721 -0.1634 -0.7124
  555Sol     MW 5296   1.434   2.876   7.070  0.6127 -0.2686 -0.1956
  556Sol     OW 5297   1.334   1.917   2.839  0.4570  0.0950 -0.4171
  556Sol     HW 5298   1.262   1.890   2.895  0.2252 -0.7610 -1.1136
  556Sol     HW 5299   1.296   1.919   2.751  1.0937  0.3572 -0.6878
  556Sol     MW 5300   1.324   1.915   2.836 -0.5123 -0.3377  0.5119
  557Sol     OW 5301   1.422   0.081   8.473  0.2527 -0.4981  0.6820
  557Sol     HW 5302   1.340   0.097   8.520 -0.1699 -1.4927  0.2902
  557Sol     HW 5303   1.486   0.062   8.541 -0.1860 -1.1958  0.9022
  557Sol     MW 5304   1.420   0.081   8.483 -0.3825  0.0340  0.2069
  558Sol     OW 5305   0.315   1.938   8.645  0.1914  0.2632  0.3496
  558Sol     HW 5306   0.293   2.027   8.672 -2.2596 -0.7812  1.8820
  558Sol     HW 5307   0.389   1.914   8.700 -0.3073  0.6850  1.2080
  558Sol     MW 5308   0.320   1.944   8.652 -0.4325  0.2271 -0.4814
  559Sol     OW 5309   0.777   2.267   7.994 -0.2213 -0.0716  0.1015
  559Sol     HW 5310   0.822   2.348   7.970 -0.9603  0.6026  0.9389
  559Sol     HW 5311   0.691   2.296   8.025 -0.3212 -1.1410  0.8578
  559Sol     MW 5312   0.773   2.277   7.995  0.1649  0.8101 -0.0276
  560Sol     OW 5313   3.160   1.634   7.994  0.2205  0.5642 -0.0731
  560Sol     HW 5314   3.100   1.708   8.011  0.0662  0.2393  0.8457
  560Sol     HW 5315   3.233   1.673   7.945  0.0356  1.2838  0.2114
  560Sol     MW 5316   3.161   1.644   7.991  0.4795  0.3410  0.2641
  561Sol     OW 5317   2.759   1.400   2.030  0.2124 -0.0695 -0.0939
  561Sol     HW 5318   2.820   1.332   2.059  0.6423 -0.3957 -1.6993
  561Sol     HW 5319   2.809   1.481   2.036 -0.0434  0.0047  1.0696
  561Sol     MW 5320   2.769   1.401   2.033 -0.5751 -0.0323  0.1587
  562Sol     OW 5321   0.353   2.798   7.644 -0.0321  0.2910 -0.2059
  562Sol     HW 5322   0.260   2.801   7.667 -0.4994 -1.3553 -1.7461
  562Sol     HW 5323   0.366   2.876   7.590 -0.6721  0.1956 -0.4999
  562Sol     MW 5324   0.346   2.806   7.641 -1.1547 -0.4766  0.1075
  563Sol     OW 5325   1.511   0.163   5.719  0.2546 -0.0898 -0.0542
  563Sol     HW 5326   1.447   0.208   5.664 -0.6503 -2.6576 -1.1672
  563Sol     HW 5327   1.531   0.082   5.672  2.5205 -0.4546  1.4619
  563Sol     MW 5328   1.507   0.160   5.710 -0.5595 -0.7660 -0.4480
  564Sol     OW 5329   1.725   1.690   8.690  0.4046  0.0578 -0.0493
  564Sol     HW 5330   1.754   1.684   8.781  1.1419  1.9251 -0.1339
  564Sol     HW 5331   1.804   1.673   8.639 -0.2686 -2.2095 -0.3693
  564Sol     MW 5332   1.735   1.688   8.693 -0.6140 -0.4466  0.1200
  565Sol     OW 5333   0.871   0.662   9.114 -0.2402  0.1244  0.4512
  565Sol     HW 5334   0.904   0.580   9.077 -2.6313  0.0632 -1.6759
  565Sol     HW 5335   0.946   0.722   9.109  0.5818 -0.9717 -1.0572
  565Sol     MW 5336   0.881   0.660   9.110  0.1172  0.2962  0.1515
  566Sol     OW 5337   2.485   1.742   4.570 -0.0937  0.5969  0.3643
  566Sol     HW 5338   2.405   1.783   4.603  0.9685  2.8329  0.2479
  566Sol     HW 5339   2.521   1.696   4.645 -0.0275  1.9270  1.1596
  566Sol     MW 5340   2.481   1.742   4.579  0.4476 -0.0986  0.2408
  567Sol     OW 5341   0.475   2.144   5.462  0.1880 -0.0643 -0.3692
  567Sol     HW 5342   0.440   2.076   5.405  0.3869 -0.4416 -0.0459
  567Sol     HW 5343   0.488   2.100   5.547 -0.8481  0.6875  0.1916
  567Sol     MW 5344   0.473   2.134   5.465 -0.2389  0.3647  0.0548
  568Sol     OW 5345   0.752   3.345   3.443  0.5789 -0.3458 -1.1923
  568Sol     HW 5346   0.821   3.322   3.505 -0.7709 -0.6780  0.2511
  568Sol     HW 5347   0.797   3.375   3.365  2.3742  2.5654  0.8669
  568Sol     MW 5348   0.762   3.345   3.442  0.0109 -0.3423 -0.0196
  569Sol     OW 5349   2.801   0.724   2.082 -0.0188  0.4535  0.1919
  569Sol     HW 5350   2.831   0.797   2.135 -0.5038  0.1412  0.8991
  569Sol     HW 5351   2.706   0.734   2.078 -0.0785 -0.0762  0.2090
  569Sol     MW 5352   2.795   0.731   2.086  0.1644 -0.2393 -0.0440
  570Sol     OW 5353   2.528   0.290   8.265 -0.4659 -0.2858  0.3631
  570Sol     HW 5354   2.522   0.291   8.361  2.1463  1.1322  0.5711
  570Sol     HW 5355   2.502   0.201   8.240 -0.3735 -0.9306  2.4490
  570Sol     MW 5356   2.525   0.282   8.271  0.0391 -0.1807  0.0665
  571Sol     OW 5357   1.834   1.634   3.416  0.1478  0.2366  0.1736
  571Sol     HW 5358   1.812   1.603   3.329  0.7375  0.8507 -0.2022
  571Sol     HW 5359   1.752   1.629   3.465 -0.6162  1.5450 -0.9217
  571Sol     MW 5360   1.825   1.631   3.413  0.5467 -0.0922  0.4594
  572Sol     OW 5361   1.499   2.665   2.177 -0.4293  0.0679 -0.5483
  572Sol     HW 5362   1.552   2.745   2.180 -0.2683 -0.0881  3.1258
  572Sol     HW 5363   1.415   2.694   2.142 -0.1107  1.7075 -0.0178
  572Sol     MW 5364   1.496   2.675   2.174 -0.3844  0.3182  0.1225
  573Sol     OW 5365   2.308   0.567   6.494  0.0208  0.1244  0.0976
  573Sol     HW 5366   2.365   0.634   6.530  0.3462  0.6229 -1.2951
  573Sol     HW 5367   2.361   0.487   6.495  0.3570  0.3410 -0.1506
  573Sol     MW 5368   2.318   0.566   6.497  0.8365  0.5972 -0.2005
  574Sol     OW 5369   0.139   1.480   9.787 -0.1983  0.3385 -0.5497
  574Sol     HW 5370   0.217   1.425   9.791  0.3530  1.1571  0.1386
  574Sol     HW 5371   0.077   1.431   9.733  0.8063 -0.2994 -1.1313
  574Sol     MW 5372   0.141   1.471   9.782 -0.4266 -0.5202  0.0476
  575Sol     OW 5373   0.807   1.527   6.692 -0.3929 -0.0048 -0.0494
  575Sol     HW 5374   0.801   1.433   6.709 -1.1203  0.2342  1.1149
  575Sol     HW 5375   0.890   1.553   6.731 -0.3614 -0.1015 -0.0514
  575Sol     MW 5376   0.814   1.521   6.697 -0.0907 -0.1246  0.1882
  576Sol     OW 5377   2.710   1.806   4.863 -0.0543 -0.2111  0.3901
  576Sol     HW 5378   2.731   1.872   4.930 -1.4513  0.6103  0.0252
  576Sol     HW 5379   2.616   1.794   4.871 -0.1187 -0.6050 -0.9912
  576Sol     MW 5380   2.704   1.811   4.870  0.6213  0.6395 -0.2175
  577Sol     OW 5381   0.046   2.300   3.678  0.1363 -0.1096 -0.5868
  577Sol     HW 5382   0.054   2.205   3.678  2.0692  0.0241 -0.0338
  577Sol     HW 5383   0.069   2.326   3.588  0.7736 -0.0996 -0.4262
  577Sol     MW 5384   0.049   2.294   3.670  0.4543  0.1926  0.4053
  578Sol     OW 5385   1.385   2.212   8.012 -0.4669 -0.6016 -0.0371
  578Sol     HW 5386   1.392   2.209   7.917 -0.2531  0.0911 -0.0534
  578Sol     HW 5387   1.292   2.205   8.030 -0.7135  1.3542 -0.4105
  578Sol     MW 5388   1.378   2.211   8.005 -0.2418  0.4294  0.6900
  579Sol     OW 5389   0.755   0.441   8.542 -0.8029 -0.3210 -0.1289
  579Sol     HW 5390   0.828   0.379   8.548  1.4617  2.0404 -2.1883
  579Sol     HW 5391   0.678   0.386   8.531  0.8378 -2.8247  0.4957
  579Sol     MW 5392   0.755   0.431   8.542  0.4208 -0.3018  0.0630
  580Sol     OW 5393   1.012   2.520   8.181 -0.1685  0.6014  0.1293
  580Sol     HW 5394   1.066   2.599   8.189 -0.3919  0.8084 -0.3876
  580Sol     HW 5395   0.970   2.529   8.096 -0.2015 -0.0772  0.0787
  580Sol     MW 5396   1.013   2.528   8.174  0.3134 -0.1861 -0.1769
  581Sol     OW 5397   2.718   1.074   9.789  0.4360 -0.0386 -0.1691
  581Sol     HW 5398   2.731   0.980   9.775  1.6092  0.0683  0.1492
  581Sol     HW 5399   2.757   1.091   9.875  1.1050  0.9234 -0.6624
  581Sol     MW 5400   2.723   1.067   9.796  0.2432  0.0597  0.1942
  582Sol     OW 5401   2.135   2.909   7.663 -0.3391  0.4671 -0.3807
  582Sol     HW 5402   2.227   2.892   7.645 -0.6661  0.5342 -2.1455
  582Sol     HW 5403   2.100   2.824   7.690  0.6589  0.8410  2.2879
  582Sol     MW 5404   2.140   2.900   7.664  0.2039 -0.0051 -0.0860
  583Sol     OW 5405   0.437   0.238   7.382 -0.6458  0.3095 -1.2403
  583Sol     HW 5406   0.489   0.186   7.322 -0.6776  0.3547 -1.3067
  583Sol     HW 5407   0.490   0.316   7.399 -0.9921  0.6850 -1.8507
  583Sol     MW 5408   0.446   0.241   7.378  0.3497 -0.0411 -0.0488
  584Sol     OW 5409   3.254   2.753   6.541 -0.1399  0.1396  0.3481
  584Sol     HW 5410   3.291   2.833   6.503 -0.4594  0.3308  0.4399
  584Sol     HW 5411   3.164   2.749   6.508 -0.0033 -0.3893  0.0309
  584Sol     MW 5412   3.249   2.760   6.534 -0.1989 -0.3856 -0.3062
  585Sol     OW 5413   2.910   0.564   4.005 -0.2629  0.1369  0.0530
  585Sol     HW 5414   2.856   0.486   4.010 -0.1544  0.0930  0.6138
  585Sol     HW 5415   2.855   0.629   3.961 -0.0376 -0.5147 -1.2246
  585Sol     MW 5416   2.900   0.563   4.001  0.3313 -0.2369  0.5432
  586Sol     OW 5417   0.753   0.245   6.951  0.0472  0.6237  0.5658
  586Sol     HW 5418   0.729   0.158   6.920  0.9140  0.7640 -0.5160
  586Sol     HW 5419   0.675   0.299   6.934 -0.0578  0.3369  0.1353
  586Sol     MW 5420   0.744   0.242   6.947  0.0879 -0.1198 -0.0632
  587Sol     OW 5421   0.331   1.736   1.896 -0.0541  0.7867  0.1940
  587Sol     HW 5422   0.303   1.646   1.881 -2.4987  1.7587 -1.3845
  587Sol     HW 5423   0.308   1.753   1.987 -0.6950  0.2086  0.1392
  587Sol     MW 5424   0.327   1.729   1.903 -0.3402  0.3849  0.1797
  588Sol     OW 5425   0.782   2.083   7.690  0.4928 -0.3355  0.2982
  588Sol     HW 5426   0.809   2.168   7.654  1.1137 -0.3568  0.7098
  588Sol     HW 5427   0.829   2.076   7.773 -1.5450  0.0734  1.5159
  588Sol     MW 5428   0.788   2.090   7.694 -0.4394  0.1687 -0.2921
  589Sol     OW 5429   3.180   2.898   4.247  0.3114  0.4204  0.1701
  589Sol     HW 5430   3.178   2.848   4.328  0.8550  0.8739  0.4709
  589Sol     HW 5431   3.140   2.841   4.182 -2.7687  1.1245  1.3530
  589Sol     MW 5432   3.176   2.889   4.248  0.0068 -0.4224  0.3634
  590Sol     OW 5433   2.231   1.049   9.528  0.3337  0.4079  0.1236
  590Sol     HW 5434   2.261   0.980   9.588 -0.3906 -0.5342 -0.5794
  590Sol     HW 5435   2.305   1.109   9.522  1.0603 -0.4271  0.5708
  590Sol     MW 5436   2.240   1.048   9.533  0.3715  0.8856  0.2559
  591Sol     OW 5437   1.895   0.910   5.834 -0.1726 -0.2317  0.0170
  591Sol     HW 5438   1.953   0.967   5.885 -0.1219  0.9093 -1.2768
  591Sol     HW 5439   1.815   0.904   5.887  0.0824  0.4806  0.4941
  591Sol     MW 5440   1.893   0.915   5.843  0.1014  0.2024  0.3132
  592Sol     OW 5441   2.687   2.394   6.243  0.2117  0.6146  0.0092
  592Sol     HW 5442   2.699   2.299   6.249 -1.4078  0.2653 -1.5939
  592Sol     HW 5443   2.773   2.427   6.215  0.4535 -0.5358 -0.6603
  592Sol     MW 5444   2.696   2.388   6.241  0.1437  0.0187  0.2035
  593Sol     OW 5445   2.356   1.171   2.281  0.3069 -0.7006 -0.3022
  593Sol     HW 5446   2.337   1.095   2.337  2.3225 -1.0565 -0.0650
  593Sol     HW 5447   2.400   1.233   2.339 -2.6096  1.3177 -0.1150
  593Sol     MW 5448   2.358   1.170   2.291  0.4514  0.2650 -0.3330
  594Sol     OW 5449   1.077   0.019   8.184 -0.9266  0.2265  0.5960
  594Sol     HW 5450   1.065   0.024   8.089  1.5846 -0.7549  0.1797
  594Sol     HW 5451   1.066  -0.074   8.204 -0.9525  0.3547  1.1792
  594Sol     MW 5452   1.075   0.011   8.177  0.7308  0.3410  0.0732
  595Sol     OW 5453   1.066   1.536   6.759 -0.0714 -0.1035  0.0683
  595Sol     HW 5454   1.130   1.582   6.705 -0.3842 -0.7876 -0.8977
  595Sol     HW 5455   1.061   1.588   6.839  3.2372 -1.1673  1.0315
  595Sol     MW 5456   1.071   1.545   6.761 -0.2229  0.0760 -0.0480
  596Sol     OW 5457   2.703   0.770   3.390 -0.3047  0.8052  0.3932
  596Sol     HW 5458   2.700   0.675   3.388  0.8265  0.7794 -0.7347
  596Sol     HW 5459   2.788   0.791   3.429 -0.1880  1.3546 -0.1491
  596Sol     MW 5460   2.710   0.764   3.394 -0.3158  0.0263  0.0339
  597Sol     OW 5461   1.195   3.000   9.523  0.1614 -0.5625  0.5020
  597Sol     HW 5462   1.217   3.023   9.613  0.0973  0.1968  0.3269
  597Sol     HW 5463   1.182   2.906   9.524  2.6679 -0.9156  0.7581
  597Sol     MW 5464   1.196   2.994   9.531  0.8429 -0.7569  0.2907
  598Sol     OW 5465   2.898   3.302   2.304 -0.2868  0.2236  0.2129
  598Sol     HW 5466   2.993   3.301   2.316 -0.4708  1.9889  1.9713
  598Sol     HW 5467   2.883   3.249   2.225  2.2208  0.6305 -0.5611
  598Sol     MW 5468   2.905   3.297   2.298 -0.2823  0.2292  0.7895
  599Sol     OW 5469   3.000   3.226   1.788  0.5930  0.8777  0.1152
  599Sol     HW 5470   2.945   3.254   1.861  1.1082 -0.2252  0.9329
  599Sol     HW 5471   2.939   3.185   1.727  0.7562 -2.2487  1.9775
  599Sol     MW 5472   2.990   3.225   1.789  0.1260  0.2012 -0.6852
  600Sol     OW 5473   3.000   2.716   6.398 -0.2366  0.1604  0.2312
  600Sol     HW 5474   2.913   2.749   6.375 -0.8430  0.2452  2.5332
  600Sol     HW 5475   2.986   2.661   6.475  1.5562 -1.0164 -0.2351
  600Sol     MW 5476   2.991   2.714   6.403 -0.0070 -0.1496 -0.2755
  601Sol     OW 5477   0.376   1.316   9.782  0.3807  0.0821 -0.4893
  601Sol     HW 5478   0.328   1.234   9.770 -1.4431  0.9464  0.6324
  601Sol     HW 5479   0.460   1.289   9.819  0.3509 -1.3807 -1.4471
  601Sol     MW 5480   0.379   1.306   9.785 -0.2807 -0.0011  0.2249
  602Sol     OW 5481   1.879   2.336   2.296  0.3260 -0.4971  0.0292
  602Sol     HW 5482   1.936   2.391   2.351  0.3897 -3.8797  3.5853
  602Sol     HW 5483   1.802   2.390   2.281  1.6460  1.7062  0.8067
  602Sol     MW 5484   1.878   2.346   2.300 -0.4672  0.1148  0.9845
  603Sol     OW 5485   2.882   0.331   6.533  0.0765  0.1689 -0.1957
  603Sol     HW 5486   2.823   0.389   6.485  2.2441  0.6842 -2.3699
  603Sol     HW 5487   2.840   0.245   6.530 -0.5292  0.5017 -1.7716
  603Sol     MW 5488   2.873   0.329   6.529  0.3067 -0.1390  0.3670
  604Sol     OW 5489   2.324   2.359   6.095  0.1216 -0.0378  0.3136
  604Sol     HW 5490   2.309   2.443   6.138  3.2092 -0.3977  2.2759
  604Sol     HW 5491   2.335   2.297   6.167  2.2433 -1.2770 -1.0301
  604Sol     MW 5492   2.324   2.361   6.105 -0.2258  0.0497 -0.0760
  605Sol     OW 5493   0.274   3.384   9.749  0.2146 -0.2527  0.1276
  605Sol     HW 5494   0.338   3.400   9.818  0.7163 -1.3307 -0.0807
  605Sol     HW 5495   0.320   3.405   9.668 -0.0573  0.0492  0.0495
  605Sol     MW 5496   0.284   3.388   9.748 -0.5224 -0.3385  0.3512
  606Sol     OW 5497   1.626   0.060   4.597  0.4678  0.0740  0.2746
  606Sol     HW 5498   1.648   0.117   4.523  1.0201 -1.5887 -0.8693
  606Sol     HW 5499   1.531   0.072   4.609  0.7414  1.9479  0.6794
  606Sol     MW 5500   1.619   0.066   4.592 -0.1806 -0.1274 -0.6545
  607Sol     OW 5501   2.192   2.692   1.306  0.3692 -0.0321 -0.0863
  607Sol     HW 5502   2.188   2.749   1.383 -2.2297 -0.0016 -0.2044
  607Sol     HW 5503   2.123   2.724   1.249  1.1798 -1.1222 -1.7070
  607Sol     MW 5504   2.186   2.700   1.308  0.5499 -0.3082  0.1300
  608Sol     OW 5505   0.495   1.828   9.268  0.1861  0.7103  0.2434
  608Sol     HW 5506   0.466   1.869   9.350  0.9355 -0.0696  0.9140
  608Sol     HW 5507   0.495   1.734   9.288 -1.0675  0.3977 -1.1226
  608Sol     MW 5508   0.492   1.823   9.277 -0.2804 -0.1290  0.2027
  609Sol     OW 5509   2.312   2.406   4.577  0.4425  0.0934 -0.5643
  609Sol     HW 5510   2.362   2.407   4.659  0.9889  2.3420 -0.8743
  609Sol     HW 5511   2.344   2.330   4.530  1.5064 -0.1411  0.5030
  609Sol     MW 5512   2.319   2.399   4.580  0.1282  0.2229  0.0674
  610Sol     OW 5513   1.650   1.812   8.033 -0.5086 -0.1611 -0.3313
  610Sol     HW 5514   1.691   1.799   7.947 -1.2031 -1.0929 -0.5313
  610Sol     HW 5515   1.683   1.897   8.062 -0.3840  0.2423 -1.5969
  610Sol     MW 5516   1.657   1.819   8.028 -0.0992  0.7328 -0.6688
  611Sol     OW 5517   1.887   1.109   2.235  0.3129 -0.1574  0.2366
  611Sol     HW 5518   1.837   1.190   2.243 -0.7368 -0.7268 -0.4500
  611Sol     HW 5519   1.916   1.091   2.325  1.0050  1.2500  0.3031
  611Sol     MW 5520   1.885   1.115   2.244  0.2134  0.1159 -0.0246
  612Sol     OW 5521   3.264   1.786   4.743 -0.1902  1.1577  0.0014
  612Sol     HW 5522   3.314   1.864   4.718 -2.8044  2.9398  0.1496
  612Sol     HW 5523   3.217   1.761   4.663 -1.4762  1.3935  0.6668
  612Sol     MW 5524   3.264   1.791   4.733 -0.3839 -0.2739 -0.0208
  613Sol     OW 5525   2.361   3.255   4.056 -0.0877  0.3623 -0.1641
  613Sol     HW 5526   2.322   3.284   4.139  0.4712 -0.0175  0.2353
  613Sol     HW 5527   2.430   3.319   4.038  0.4412 -0.1146  0.1697
  613Sol     MW 5528   2.363   3.264   4.062 -0.1406 -0.0506  0.0891
  614Sol     OW 5529   2.293   1.499   5.458  1.0462 -0.5502  0.5363
  614Sol     HW 5530   2.297   1.406   5.434  2.4666  0.0184 -1.4994
  614Sol     HW 5531   2.219   1.533   5.409  0.8431 -0.4759  0.8909
  614Sol     MW 5532   2.286   1.494   5.452 -0.4345 -0.1809 -0.4097
  615Sol     OW 5533   1.797   1.643   8.966 -0.0350  0.5897 -0.3501
  615Sol     HW 5534   1.716   1.641   9.017 -0.5189  0.9612 -1.0853
  615Sol     HW 5535   1.858   1.692   9.021 -0.2532  0.1457  0.2944
  615Sol     MW 5536   1.795   1.647   8.976  0.4561  0.5758  0.0659
  616Sol     OW 5537   0.333   2.466   4.629 -0.2721  0.0095  0.3300
  616Sol     HW 5538   0.360   2.378   4.657 -1.9739 -0.5668  0.2062
  616Sol     HW 5539   0.290   2.503   4.706 -1.2257  0.0161 -0.1974
  616Sol     MW 5540   0.332   2.461   4.639  0.3474  0.2072 -0.4460
  617Sol     OW 5541   2.566   1.518   3.078  0.2775  0.0394  0.2641
  617Sol     HW 5542   2.648   1.540   3.033  0.6579 -0.9491  0.4574
  617Sol     HW 5543   2.547   1.596   3.131  1.1643  0.2261  0.3239
  617Sol     MW 5544   2.572   1.527   3.079  0.5968  0.2620 -0.5910
  618Sol     OW 5545   1.129   0.863   2.089  0.6690 -0.1461  0.2700
  618Sol     HW 5546   1.051   0.824   2.129  0.8509 -1.5870 -0.7760
  618Sol     HW 5547   1.201   0.807   2.117  0.9813 -0.3630 -0.9514
  618Sol     MW 5548   1.128   0.855   2.095  0.3426 -0.1193 -0.0365
  619Sol     OW 5549   3.019   1.419   8.076 -0.4004 -0.1505  0.0574
  619Sol     HW 5550   3.080   1.490   8.058  0.5382 -0.7363  0.9328
  619Sol     HW 5551   2.983   1.397   7.990  1.5578 -0.6604 -0.6552
  619Sol     MW 5552   3.021   1.424   8.067 -0.6371 -0.0561  0.1873
  620Sol     OW 5553   0.851   0.937   8.362  0.2583  0.7014 -0.0776
  620Sol     HW 5554   0.836   0.842   8.356  0.7601  0.6674 -0.8727
  620Sol     HW 5555   0.766   0.976   8.343  0.8727  0.4963 -3.6658
  620Sol     MW 5556   0.842   0.932   8.360  0.0785 -0.2733 -0.1375
  621Sol     OW 5557   2.168   0.804   8.744  0.0611 -0.2669 -0.3462
  621Sol     HW 5558   2.196   0.748   8.816 -0.0197  1.0999  0.7565
  621Sol     HW 5559   2.075   0.784   8.732  0.4077 -1.5374 -1.0459
  621Sol     MW 5560   2.162   0.797   8.749  0.6756  0.2043  0.1286
  622Sol     OW 5561   0.305   2.987   5.327 -0.0733 -0.3494  0.3052
  622Sol     HW 5562   0.339   3.076   5.334  1.2783 -0.9064  1.1376
  622Sol     HW 5563   0.232   2.993   5.266 -0.6665  1.5083  1.1948
  622Sol     MW 5564   0.302   2.995   5.322  0.3456 -0.2892 -0.1410
  623Sol     OW 5565   3.162   0.097   5.115 -0.3127  0.3869  0.1168
  623Sol     HW 5566   3.210   0.149   5.050 -0.2876  1.8386  1.2791
  623Sol     HW 5567   3.118   0.030   5.063  0.7060  0.7532 -1.2712
  623Sol     MW 5568   3.163   0.096   5.105 -0.0515  0.2120 -0.6837
  624Sol     OW 5569   2.914   2.155   8.627  0.1009 -0.2759  0.1452
  624Sol     HW 5570   2.983   2.101   8.588  0.5861  1.0198 -0.8395
  624Sol     HW 5571   2.832   2.113   8.599  0.4674 -0.8471 -0.0961
  624Sol     MW 5572   2.913   2.146   8.621 -0.3830 -0.3560  1.1229
  625Sol     OW 5573   2.882   0.826   6.003  0.1569  0.1767 -0.0871
  625Sol     HW 5574   2.975   0.836   6.024 -0.5270  0.9610  2.7914
  625Sol     HW 5575   2.855   0.912   5.972 -0.3801  1.0170  2.5372
  625Sol     MW 5576   2.888   0.834   6.002 -0.0141 -0.5233  0.7291
  626Sol     OW 5577   0.415   2.641   7.079 -0.5896  0.1681 -0.1551
  626Sol     HW 5578   0.320   2.647   7.091 -0.4435  2.3917  0.0933
  626Sol     HW 5579   0.430   2.669   6.989  0.0008  1.8452  0.4479
  626Sol     MW 5580   0.408   2.644   7.072  0.1259  0.0271 -0.3863
  627Sol     OW 5581   3.021   0.266   4.654  0.3097 -0.1725  0.0504
  627Sol     HW 5582   2.947   0.267   4.715 -0.4518 -1.3668 -0.8056
  627Sol     HW 5583   3.038   0.358   4.635 -0.6346  0.1376  0.6661
  627Sol     MW 5584   3.016   0.274   4.657  0.9152 -0.2371 -0.6861
  628Sol     OW 5585   1.592   2.313   8.907  0.3301 -0.2787  0.4449
  628Sol     HW 5586   1.642   2.382   8.863  1.3658 -1.4414 -0.2279
  628Sol     HW 5587   1.658   2.256   8.946 -0.5280 -0.6128  1.4422
  628Sol     MW 5588   1.602   2.314   8.906 -0.4594 -0.0375 -0.4867
  629Sol     OW 5589   1.823   2.112   8.221  0.6617 -0.3866  0.0619
  629Sol     HW 5590   1.809   2.053   8.295  0.9747  0.8782  1.1425
  629Sol     HW 5591   1.739   2.112   8.174 -0.5107  1.0022  2.0477
  629Sol     MW 5592   1.814   2.107   8.223  0.5525  0.1451  0.6376
  630Sol     OW 5593   2.667   0.585   7.183 -0.7242 -0.2692 -0.3086
  630Sol     HW 5594   2.714   0.503   7.165  0.8053  0.4595  0.2927
  630Sol     HW 5595   2.575   0.564   7.167 -0.3583 -2.1460 -0.0413
  630Sol     MW 5596   2.663   0.576   7.180  0.0854 -0.0929  0.0896
  631Sol     OW 5597   0.760   2.352   2.604  0.1540 -0.1253 -0.2027
  631Sol     HW 5598   0.701   2.365   2.678  1.3890 -1.1831  1.0143
  631Sol     HW 5599   0.823   2.286   2.635  1.8904  0.8748 -1.4982
  631Sol     MW 5600   0.761   2.347   2.614 -0.2540  0.0050 -0.1367
  632Sol     OW 5601   0.819   2.861   4.290 -0.1879 -0.0592 -0.1207
  632Sol     HW 5602   0.785   2.790   4.344  0.8856 -1.1088 -0.7889
  632Sol     HW 5603   0.911   2.869   4.315 -0.3076  1.1118 -0.0373
  632Sol     MW 5604   0.824   2.855   4.297  0.0134  0.2114  0.1604
  633Sol     OW 5605   3.249   2.788   5.733  0.0740  0.2457  0.3141
  633Sol     HW 5606   3.276   2.731   5.662  3.3397  0.1593  1.5409
  633Sol     HW 5607   3.199   2.857   5.691  1.2643 -0.2282 -1.9559
  633Sol     MW 5608   3.247   2.789   5.723 -0.0042 -0.5288 -0.0993
  634Sol     OW 5609   2.866   0.842   7.157  0.3610  0.5099 -0.1126
  634Sol     HW 5610   2.930   0.810   7.221  0.9317 -1.7129 -1.7404
  634Sol     HW 5611   2.795   0.777   7.160  0.3305  0.4634 -1.5990
  634Sol     MW 5612   2.865   0.833   7.163  0.5399  0.6773  0.5632
  635Sol     OW 5613   0.400   1.379   8.163  0.0975  0.3049 -0.1795
  635Sol     HW 5614   0.318   1.413   8.197 -0.1456 -0.1858 -0.2658
  635Sol     HW 5615   0.382   1.362   8.070 -0.0893 -0.9985  0.0899
  635Sol     MW 5616   0.391   1.381   8.158 -0.1429 -0.2625  0.1948
  636Sol     OW 5617   2.978   1.164   2.758  0.1653 -0.0189  0.3405
  636Sol     HW 5618   2.893   1.202   2.780 -0.0128 -0.1869 -0.0445
  636Sol     HW 5619   3.032   1.177   2.836  0.2180  1.3365  0.0799
  636Sol     MW 5620   2.975   1.168   2.767 -0.3601  0.0710  0.1458
  637Sol     OW 5621   0.973   1.906   7.571 -0.1431 -0.7440  0.1885
  637Sol     HW 5622   0.898   1.947   7.614 -1.6591 -2.4798 -0.7494
  637Sol     HW 5623   0.964   1.813   7.589  1.2032 -1.0959 -0.8450
  637Sol     MW 5624   0.966   1.902   7.577  0.4616  0.4375 -0.0015
  638Sol     OW 5625   0.103   0.376   5.980 -0.1782  0.0150  0.3625
  638Sol     HW 5626   0.170   0.317   6.013 -0.3871 -0.2601  0.2939
  638Sol     HW 5627   0.020   0.333   6.000 -0.2904 -0.6156 -1.3885
  638Sol     MW 5628   0.101   0.367   5.985  0.2870  0.0378 -0.0554
  639Sol     OW 5629   0.320   2.228   7.758  0.0322  0.0083  0.4278
  639Sol     HW 5630   0.244   2.268   7.717  0.0867  0.2102  0.5239
  639Sol     HW 5631   0.389   2.236   7.692  0.5993  1.9303  1.2214
  639Sol     MW 5632   0.320   2.232   7.748 -0.6003 -0.0134 -0.3747
  640Sol     OW 5633   2.699   0.706   4.846 -0.6581  0.3978 -0.3560
  640Sol     HW 5634   2.610   0.727   4.819 -0.7788  2.5936  1.5971
  640Sol     HW 5635   2.715   0.762   4.922  1.1940 -2.4346  1.4302
  640Sol     MW 5636   2.693   0.713   4.850  0.7551 -0.6577 -0.1241
  641Sol     OW 5637   3.191   0.481   2.445 -0.1173  0.3216  0.0987
  641Sol     HW 5638   3.250   0.549   2.477  0.5913 -0.4700  0.5281
  641Sol     HW 5639   3.109   0.526   2.428  0.9720  1.6774 -1.7095
  641Sol     MW 5640   3.189   0.491   2.447 -0.8062 -0.3116 -0.5756
  642Sol     OW 5641   0.004   1.232   5.344  0.3584  0.4811  0.1204
  642Sol     HW 5642   0.044   1.183   5.416 -1.1920 -0.8154  0.1291
  642Sol     HW 5643  -0.079   1.262   5.379  0.0413  0.7113 -0.8139
  642Sol     MW 5644   0.000   1.231   5.354  0.2493 -0.0584  0.6697
  643Sol     OW 5645   0.867   1.755   2.403 -0.1828  0.0860 -0.0298
  643Sol     HW 5646   0.837   1.669   2.431 -0.2715  0.5937  1.4947
  643Sol     HW 5647   0.841   1.761   2.311  0.4655 -1.7883 -0.3601
  643Sol     MW 5648   0.862   1.748   2.397  0.3062  0.2101  0.5861
  644Sol     OW 5649   2.317   2.187   6.308 -0.2820  0.1137 -0.2430
  644Sol     HW 5650   2.362   2.172   6.391 -0.5982 -0.1022 -0.1043
  644Sol     HW 5651   2.225   2.201   6.333 -0.3656  0.1255 -0.5490
  644Sol     MW 5652   2.312   2.187   6.318 -0.2265  0.0079  0.1482
  645Sol     OW 5653   0.498   0.787   2.696 -0.2551  0.0562 -0.5217
  645Sol     HW 5654   0.573   0.846   2.686 -0.6780  1.1991  2.4151
  645Sol     HW 5655   0.537   0.703   2.718  0.2057  0.8003  1.6623
  645Sol     MW 5656   0.508   0.785   2.697 -0.8787  0.0926 -0.4234
  646Sol     OW 5657   3.079   0.093   5.597  0.0883 -0.5217 -0.3272
  646Sol     HW 5658   3.048   0.104   5.507 -1.6055 -0.3711  0.2477
  646Sol     HW 5659   3.108   0.002   5.601  1.2179 -0.2158 -1.3182
  646Sol     MW 5660   3.078   0.085   5.589 -0.4176 -0.1655 -0.1610
  647Sol     OW 5661   0.248   0.394   4.174  0.9645  0.2694 -0.2775
  647Sol     HW 5662   0.153   0.402   4.165  0.9797  0.8777  0.0950
  647Sol     HW 5663   0.261   0.367   4.265  1.0904 -0.9643 -0.6516
  647Sol     MW 5664   0.240   0.392   4.181  0.4220  0.7000 -0.8674
  648Sol     OW 5665   2.432   0.740   5.986 -0.0347 -0.5361 -0.5557
  648Sol     HW 5666   2.395   0.786   5.911  0.7252 -0.0456 -0.6322
  648Sol     HW 5667   2.368   0.671   6.005 -1.3902  0.7724 -0.2077
  648Sol     MW 5668   2.423   0.738   5.981  0.0413  0.4163 -0.7273
  649Sol     OW 5669   1.261   2.028   8.238 -0.1541  0.5914  0.2922
  649Sol     HW 5670   1.203   2.102   8.255 -0.1058  0.3965  1.3118
  649Sol     HW 5671   1.247   1.968   8.311 -3.2654 -2.3557 -2.5338
  649Sol     MW 5672   1.255   2.029   8.246  0.3235 -0.4130 -0.1430
  650Sol     OW 5673   1.352   2.348   6.591  0.0797 -0.1613 -0.1565
  650Sol     HW 5674   1.443   2.321   6.594  0.1693  0.0348 -0.9313
  650Sol     HW 5675   1.347   2.422   6.651  0.7146  0.6232 -1.0543
  650Sol     MW 5676   1.360   2.352   6.597  0.5436 -0.5000 -1.0462
  651Sol     OW 5677   1.222   0.624   5.881 -0.1466  0.0071  0.0869
  651Sol     HW 5678   1.273   0.622   5.800  0.0060 -1.0218  0.2097
  651Sol     HW 5679   1.157   0.555   5.872  0.1964 -0.4592  1.0483
  651Sol     MW 5680   1.221   0.618   5.873 -0.2777 -0.4284 -0.4468
  652Sol     OW 5681   1.171   2.890   8.465  0.1237 -0.2621 -0.0910
  652Sol     HW 5682   1.196   2.799   8.478  0.3692 -0.6608 -3.0430
  652Sol     HW 5683   1.253   2.936   8.449 -0.1870  0.0844 -0.7274
  652Sol     MW 5684   1.180   2.886   8.465 -0.3912  0.2273  0.2199
  653Sol     OW 5685   1.971   3.031   2.894  0.2401 -0.1961 -0.2704
  653Sol     HW 5686   2.041   3.076   2.847 -0.7683 -1.2196 -2.8113
  653Sol     HW 5687   1.896   3.090   2.887  0.4427  0.2727  1.2807
  653Sol     MW 5688   1.971   3.041   2.889 -0.8964 -0.5224 -0.0676
  654Sol     OW 5689   0.092   0.037   2.937 -0.2176 -0.6036 -0.0815
  654Sol     HW 5690   0.150   0.091   2.991 -0.2258  1.2074 -1.8423
  654Sol     HW 5691   0.080  -0.043   2.988 -5.1357  3.3103  5.5841
  654Sol     MW 5692   0.096   0.035   2.946  0.2212  0.1468  0.0484
  655Sol     OW 5693   0.183   2.729   7.192  0.0487  0.0821 -0.0968
  655Sol     HW 5694   0.227   2.814   7.189  1.2066 -0.5138 -0.6115
  655Sol     HW 5695   0.103   2.741   7.141 -0.1521  1.0591  0.4409
  655Sol     MW 5696   0.180   2.737   7.187 -0.1344  0.5084  0.5263
  656Sol     OW 5697   3.286   0.271   5.315  0.4779 -0.0692 -0.1032
  656Sol     HW 5698   3.358   0.327   5.284  0.7559 -0.7450 -0.6958
  656Sol     HW 5699   3.260   0.221   5.237  0.0914 -0.6130  0.3758
  656Sol     MW 5700   3.290   0.271   5.305 -0.4160 -0.0823  0.2991
  657Sol     OW 5701   1.070   3.150   5.504  0.3759  0.2469 -0.6608
  657Sol     HW 5702   1.060   3.211   5.577 -0.0097 -0.0175 -0.4913
  657Sol     HW 5703   0.990   3.098   5.505  0.6899 -0.2441 -0.8182
  657Sol     MW 5704   1.062   3.150   5.510  0.6020  0.0749  0.1501
  658Sol     OW 5705   1.440   2.263   3.802 -0.3093  0.4487 -0.0202
  658Sol     HW 5706   1.438   2.192   3.866 -2.4866  0.3869 -0.1085
  658Sol     HW 5707   1.484   2.335   3.848  0.0237 -0.2745  0.8136
  658Sol     MW 5708   1.444   2.263   3.812 -1.2250  0.4944  0.2646
  659Sol     OW 5709   3.229   2.031   3.031  0.2010 -0.0462 -0.2381
  659Sol     HW 5710   3.218   2.040   3.126 -0.1764  4.0782 -0.5883
  659Sol     HW 5711   3.323   2.018   3.019  0.3064 -0.1773  0.6658
  659Sol     MW 5712   3.236   2.031   3.038 -0.3436  0.7828 -0.1363
  660Sol     OW 5713   1.715   3.451   9.451 -0.2010  0.5419 -0.4730
  660Sol     HW 5714   1.722   3.545   9.434 -2.1900  0.4741 -1.8052
  660Sol     HW 5715   1.773   3.436   9.525 -0.7404  3.0169  0.5043
  660Sol     MW 5716   1.721   3.458   9.456  0.3618  0.0613 -0.1900
  661Sol     OW 5717   0.713   0.014   9.528  0.7002 -0.5825  0.0046
  661Sol     HW 5718   0.795   0.051   9.496  0.6548 -0.3229  0.1814
  661Sol     HW 5719   0.665   0.090   9.562  1.8181 -1.1789  3.0702
  661Sol     MW 5720   0.716   0.024   9.528  0.3800  0.3388 -0.2095
  662Sol     OW 5721   1.930   1.393   7.223  0.3711 -0.0759  0.6126
  662Sol     HW 5722   1.896   1.389   7.312  1.9466  0.1247  1.2569
  662Sol     HW 5723   2.016   1.350   7.228  0.6695  0.3260 -0.7074
  662Sol     MW 5724   1.935   1.389   7.231  0.1342 -1.0875 -0.2013
  663Sol     OW 5725   3.151   0.347   3.904 -0.1006  0.3465 -0.5301
  663Sol     HW 5726   3.162   0.361   3.810 -1.5821  1.4286 -0.5533
  663Sol     HW 5727   3.073   0.398   3.927  0.5067  0.4490  1.3629
  663Sol     MW 5728   3.145   0.353   3.898  0.6623  0.5301  0.0291
  664Sol     OW 5729   0.188   2.684   8.935  0.2179  1.1032 -0.3696
  664Sol     HW 5730   0.164   2.733   8.857 -1.0046  0.6796 -0.2687
  664Sol     HW 5731   0.234   2.607   8.901  0.9570  1.6431 -0.5957
  664Sol     MW 5732   0.190   2.681   8.925  0.6469 -1.0317 -0.2897
  665Sol     OW 5733   0.211   3.111   9.698  0.2792 -0.0141 -0.6408
  665Sol     HW 5734   0.249   3.199   9.692 -0.4455  0.4048  0.6637
  665Sol     HW 5735   0.271   3.064   9.756 -0.3333  0.1748  0.1463
  665Sol     MW 5736   0.220   3.115   9.703  0.6235 -0.1002 -0.5562
  666Sol     OW 5737   0.134   1.428   8.250 -0.0850  0.0034 -0.1444
  666Sol     HW 5738   0.070   1.392   8.188 -0.8526  1.0680  0.0163
  666Sol     HW 5739   0.097   1.512   8.276  1.2022  0.4574  0.2459
  666Sol     MW 5740   0.125   1.432   8.247 -0.4127 -0.0678  0.3905
  667Sol     OW 5741   1.842   1.923   8.439  0.4719  0.2270 -0.1469
  667Sol     HW 5742   1.904   1.852   8.424  1.5212  1.0482  0.2423
  667Sol     HW 5743   1.870   1.963   8.521 -0.5639  0.6156  0.0231
  667Sol     MW 5744   1.850   1.920   8.445 -0.1945 -0.2415  0.1036
  668Sol     OW 5745   2.609   3.027   7.302 -0.2694  0.3102  0.3388
  668Sol     HW 5746   2.524   3.063   7.326 -1.0097 -1.5110  0.5936
  668Sol     HW 5747   2.643   2.990   7.384 -0.0325 -0.5147 -0.1294
  668Sol     MW 5748   2.605   3.027   7.312 -0.3407  0.6768 -0.5551
  669Sol     OW 5749   1.990   1.854   1.790  0.4359 -0.1007  0.3060
  669Sol     HW 5750   2.007   1.818   1.877  1.9149 -1.7538 -0.6374
  669Sol     HW 5751   1.932   1.929   1.806 -0.5200 -1.2830  2.5538
  669Sol     MW 5752   1.987   1.858   1.800 -0.0984 -0.9020  0.0757
  670Sol     OW 5753   2.313   0.215   4.243  0.5184 -0.4829  0.4836
  670Sol     HW 5754   2.316   0.119   4.236  1.5721 -0.3824 -0.6533
  670Sol     HW 5755   2.357   0.246   4.164 -4.7178  1.0657 -2.0076
  670Sol     MW 5756   2.318   0.209   4.235  0.1194 -0.3739  0.1159
  671Sol     OW 5757   1.300   0.545   6.232 -0.2468  0.1763  0.0337
  671Sol     HW 5758   1.334   0.514   6.148 -2.6344 -1.2907 -0.4355
  671Sol     HW 5759   1.332   0.481   6.296 -0.7771 -0.3019 -0.1760
  671Sol     MW 5760   1.306   0.536   6.230 -0.8267 -0.3807  0.2732
  672Sol     OW 5761   2.348   2.270   4.181 -0.0460  0.3514 -0.1742
  672Sol     HW 5762   2.358   2.241   4.272  0.9562 -0.2598 -0.4725
  672Sol     HW 5763   2.428   2.319   4.162 -1.3994  2.8114  0.1015
  672Sol     MW 5764   2.356   2.272   4.188 -0.4567  0.7451 -0.2878
  673Sol     OW 5765   0.476   1.836   5.107 -0.3545  0.3039  0.2160
  673Sol     HW 5766   0.448   1.858   5.195  0.7144 -0.0057  0.6425
  673Sol     HW 5767   0.480   1.921   5.062  3.2768  1.0208  1.7181
  673Sol     MW 5768   0.474   1.846   5.111  0.5150 -0.2264  0.5326
  674Sol     OW 5769   0.254   1.200   6.138 -0.2832  1.0152 -0.4888
  674Sol     HW 5770   0.295   1.117   6.161  0.2136  0.6844 -2.4373
  674Sol     HW 5771   0.178   1.206   6.195 -0.2851 -0.7440 -0.2739
  674Sol     MW 5772   0.251   1.193   6.145  0.2222 -0.0920  0.0951
  675Sol     OW 5773   0.056   1.574   1.707 -0.1818 -0.4003  0.2423
  675Sol     HW 5774   0.088   1.611   1.624 -1.4746  0.1124 -0.0449
  675Sol     HW 5775   0.007   1.646   1.748 -1.2292 -1.2474  0.5140
  675Sol     MW 5776   0.054   1.584   1.703 -0.1496  0.1040  0.2992
  676Sol     OW 5777   1.379   1.728   3.114  0.1619 -0.6292 -0.1391
  676Sol     HW 5778   1.368   1.693   3.026  0.7009  0.4162 -0.6378
  676Sol     HW 5779   1.473   1.728   3.129  0.1262 -0.0364  0.1138
  676Sol     MW 5780   1.386   1.725   3.108 -0.1093 -0.4030 -0.0747
  677Sol     OW 5781   0.485   3.039   9.564  0.4552 -0.4525 -0.0184
  677Sol     HW 5782   0.468   2.971   9.499 -0.6888 -0.1105 -0.0877
  677Sol     HW 5783   0.549   3.096   9.524  2.8119 -2.4789  0.7299
  677Sol     MW 5784   0.489   3.038   9.555 -0.1757  0.3847 -0.3755
  678Sol     OW 5785   1.313   3.235   7.203 -0.2325  0.3179 -0.9691
  678Sol     HW 5786   1.355   3.204   7.122  1.6098 -3.2495  1.2247
  678Sol     HW 5787   1.299   3.156   7.254 -3.0405  2.3145  1.5041
  678Sol     MW 5788   1.316   3.225   7.200  0.3322 -0.0129  0.3481
  679Sol     OW 5789   1.468   0.869   2.566  0.8634 -0.1834  0.3816
  679Sol     HW 5790   1.387   0.820   2.550 -0.1299  0.5026  2.9694
  679Sol     HW 5791   1.463   0.943   2.507 -0.6819  0.1289  0.8753
  679Sol     MW 5792   1.460   0.871   2.560 -0.0554 -0.0062 -0.4834
  680Sol     OW 5793   3.317   2.972   4.692  0.6232 -0.3532 -0.1124
  680Sol     HW 5794   3.260   2.915   4.641  0.2661  0.9877 -1.2557
  680Sol     HW 5795   3.260   3.010   4.759 -0.0326  1.5940 -1.7481
  680Sol     MW 5796   3.307   2.970   4.694  0.0145  0.7267  0.0830
  681Sol     OW 5797   2.719   2.811   7.136 -0.1984  0.3628  0.1878
  681Sol     HW 5798   2.803   2.843   7.105 -0.0368  0.1246  0.3810
  681Sol     HW 5799   2.677   2.887   7.176 -0.6478  0.8174 -1.1188
  681Sol     MW 5800   2.723   2.820   7.137  0.5758  0.0920 -0.2590
  682Sol     OW 5801   1.340   0.821   9.259  0.5472 -0.6565  0.4292
  682Sol     HW 5802   1.397   0.898   9.269 -0.3981  0.2632 -1.0190
  682Sol     HW 5803   1.385   0.767   9.194  0.4559 -0.5776  0.2992
  682Sol     MW 5804   1.349   0.823   9.254 -0.3958 -0.0364  0.0893
  683Sol     OW 5805   0.835   2.109   7.224 -0.5308 -0.6185  0.1031
  683Sol     HW 5806   0.906   2.044   7.222 -0.0629 -0.0941 -1.6691
  683Sol     HW 5807   0.772   2.074   7.286 -0.3083 -2.8273 -0.8523
  683Sol     MW 5808   0.836   2.100   7.229 -0.0883  0.6006  0.6465
  684Sol     OW 5809   1.835   1.608   2.089 -0.8722 -0.7795  0.5167
  684Sol     HW 5810   1.757   1.601   2.033  0.1052 -1.9687 -0.7403
  684Sol     HW 5811   1.903   1.562   2.040  1.2058  2.1221  0.5370
  684Sol     MW 5812   1.834   1.603   2.079  0.3625  0.0977  0.1353
  685Sol     OW 5813   0.811   3.428   9.792 -0.2255  0.4107  0.1203
  685Sol     HW 5814   0.795   3.438   9.698  2.4826 -1.0486 -0.5507
  685Sol     HW 5815   0.901   3.458   9.804 -0.1250 -0.5799  2.0273
  685Sol     MW 5816   0.817   3.432   9.784  0.0173  0.0939  0.2182
  686Sol     OW 5817   1.190   0.817   2.631  0.0479  0.3237 -0.2377
  686Sol     HW 5818   1.242   0.757   2.685 -2.1699 -0.3089  1.2547
  686Sol     HW 5819   1.150   0.761   2.565 -1.6863  0.1991  0.8952
  686Sol     MW 5820   1.191   0.807   2.630  1.1287 -0.1629  0.0892
  687Sol     OW 5821   3.327   2.335   4.564  0.3696  0.4348 -0.6543
  687Sol     HW 5822   3.255   2.274   4.547 -0.5330  1.5713 -0.9926
  687Sol     HW 5823   3.384   2.289   4.626 -0.4126 -0.6531 -0.7292
  687Sol     MW 5824   3.326   2.326   4.568  0.1148  0.0836  0.0995
  688Sol     OW 5825   0.890   3.432   3.226 -0.1746 -0.2053 -0.3270
  688Sol     HW 5826   0.835   3.401   3.154 -0.8431 -1.1354  0.5670
  688Sol     HW 5827   0.940   3.505   3.189  2.0044 -2.7787 -2.6971
  688Sol     MW 5828   0.890   3.436   3.217  0.0775 -0.1572 -1.0596
  689Sol     OW 5829   1.433   2.861   5.687 -0.0449  0.0381  0.1774
  689Sol     HW 5830   1.435   2.831   5.596 -1.3416 -0.7764  0.4021
  689Sol     HW 5831   1.416   2.955   5.681 -1.7996 -0.2875 -0.4148
  689Sol     MW 5832   1.431   2.867   5.678  0.0664 -0.4633 -0.1154
  690Sol     OW 5833   2.020   0.928   4.659  0.1622  0.2236 -0.2853
  690Sol     HW 5834   1.936   0.958   4.693  1.0432  1.8151  0.4969
  690Sol     HW 5835   1.998   0.886   4.575 -1.5379 -0.3962  0.4588
  690Sol     MW 5836   2.011   0.927   4.654 -0.0165  0.1148 -0.3901
  691Sol     OW 5837   0.298   3.356   3.674  0.1685  0.7824  0.3707
  691Sol     HW 5838   0.223   3.296   3.679  0.2664  0.8145  2.9606
  691Sol     HW 5839   0.373   3.298   3.660 -0.1284  0.5829 -0.3974
  691Sol     MW 5840   0.298   3.345   3.673  0.1444 -0.3748 -0.1497
  692Sol     OW 5841   1.294   3.325   3.729 -0.5597  0.3084  0.1405
  692Sol     HW 5842   1.289   3.297   3.821 -1.1403 -2.2810 -0.6479
  692Sol     HW 5843   1.265   3.249   3.679  0.7934  1.3235 -2.2681
  692Sol     MW 5844   1.291   3.316   3.733  0.4165 -0.2779  0.5693
  693Sol     OW 5845   3.111   0.268   9.128  0.3513 -0.9020  0.0336
  693Sol     HW 5846   3.068   0.244   9.046  0.7289 -0.9257 -0.1569
  693Sol     HW 5847   3.077   0.204   9.192 -2.2255  0.9308  0.5795
  693Sol     MW 5848   3.104   0.260   9.127  0.7245 -0.1054  0.8643
  694Sol     OW 5849   2.597   2.540   3.692  0.0017  0.1112  0.0248
  694Sol     HW 5850   2.576   2.625   3.655  0.8539 -0.5703 -2.1074
  694Sol     HW 5851   2.580   2.478   3.621  0.1814 -1.4038  1.2790
  694Sol     MW 5852   2.594   2.542   3.683  0.2542  0.1576  0.1015
  695Sol     OW 5853   2.674   2.378   2.973 -0.3770  0.2353  0.0382
  695Sol     HW 5854   2.641   2.368   2.884  1.0078  1.1704 -0.6090
  695Sol     HW 5855   2.757   2.329   2.974  0.3859  1.5107  0.3501
  695Sol     MW 5856   2.679   2.373   2.965 -0.1524 -0.0765  0.3686
  696Sol     OW 5857   2.733   2.432   7.539  0.0281  0.3039 -0.4237
  696Sol     HW 5858   2.781   2.372   7.481 -1.2305  1.1881 -2.4384
  696Sol     HW 5859   2.721   2.511   7.486 -0.4852  1.4189  1.3331
  696Sol     MW 5860   2.736   2.434   7.529  0.0672 -0.0778  0.3069
  697Sol     OW 5861   1.662   2.128   6.897 -0.3561  0.3189  0.2454
  697Sol     HW 5862   1.618   2.207   6.926  0.5815  1.1847 -0.6400
  697Sol     HW 5863   1.635   2.061   6.959 -1.4896  1.2409  0.7529
  697Sol     MW 5864   1.656   2.129   6.905  0.7970  0.0914  0.4699
  698Sol     OW 5865   2.028   3.153   7.108  0.1249  0.2911  0.0586
  698Sol     HW 5866   1.958   3.093   7.136  1.9731 -1.3295  1.3464
  698Sol     HW 5867   1.982   3.230   7.075 -2.3371 -1.5988 -1.1368
  698Sol     MW 5868   2.017   3.154   7.107  0.2562 -0.0707  0.4165
  699Sol     OW 5869   1.948   1.687   2.823  0.3984  0.6552  0.0394
  699Sol     HW 5870   1.856   1.709   2.836  0.4490  1.5085 -0.9690
  699Sol     HW 5871   1.947   1.618   2.756  0.4988  0.8132 -0.1262
  699Sol     MW 5872   1.940   1.683   2.818  0.1269 -0.6720  0.2287
  700Sol     OW 5873   0.046   3.100   3.201  0.2300  0.5363 -0.6060
  700Sol     HW 5874   0.082   3.175   3.250  0.6496 -0.1687  0.1791
  700Sol     HW 5875   0.025   3.136   3.115 -1.0072  1.9237  0.2415
  700Sol     MW 5876   0.048   3.110   3.198 -0.1150 -0.0151  0.3502
  701Sol     OW 5877   2.061   0.449   6.622  0.1597 -0.1523 -0.1612
  701Sol     HW 5878   2.098   0.385   6.682  0.6438  0.8022  0.5606
  701Sol     HW 5879   2.131   0.466   6.558 -0.1402 -0.7032 -0.6451
  701Sol     MW 5880   2.070   0.445   6.621  0.2976 -0.1334 -0.1212
  702Sol     OW 5881   0.620   0.865   8.158  0.1711  0.9899 -0.0986
  702Sol     HW 5882   0.594   0.955   8.139  0.5158  1.0400 -0.3192
  702Sol     HW 5883   0.587   0.814   8.084  0.7219  1.0575 -0.3951
  702Sol     MW 5884   0.615   0.868   8.150 -0.4099  0.4554 -0.5985
  703Sol     OW 5885   0.267   2.323   5.507  0.1056  0.1152 -0.3091
  703Sol     HW 5886   0.349   2.285   5.540  0.0310 -1.2099 -1.5646
  703Sol     HW 5887   0.287   2.415   5.491  1.0923  0.0000  0.2459
  703Sol     MW 5888   0.276   2.327   5.509 -0.0070  1.0103  0.2572
  704Sol     OW 5889   2.280   2.253   2.898 -0.2083  0.3316 -0.2765
  704Sol     HW 5890   2.266   2.241   2.992  1.1477 -0.2728 -0.1353
  704Sol     HW 5891   2.202   2.300   2.867 -0.0940  1.6245  1.3577
  704Sol     MW 5892   2.272   2.256   2.903 -0.1437 -0.1417 -0.6565
  705Sol     OW 5893   0.644   3.040   5.994 -0.4889  0.4763 -0.4628
  705Sol     HW 5894   0.732   3.013   5.970 -0.5289 -1.1943  1.1570
  705Sol     HW 5895   0.655   3.124   6.038  0.4982 -0.4983  1.1960
  705Sol     MW 5896   0.653   3.045   5.996  0.2804  0.0144  0.0374
  706Sol     OW 5897   2.126   1.874   6.569 -0.0967 -0.0038 -0.4699
  706Sol     HW 5898   2.156   1.848   6.482  1.4149  2.8588 -0.8510
  706Sol     HW 5899   2.075   1.953   6.555 -2.7633 -1.3969  0.9030
  706Sol     MW 5900   2.124   1.879   6.560  0.3276  0.3601 -0.3886
  707Sol     OW 5901   0.849   0.807   5.095 -0.1127 -0.0024  0.3607
  707Sol     HW 5902   0.927   0.778   5.047 -1.4089 -2.1414 -0.5002
  707Sol     HW 5903   0.862   0.775   5.184  0.0989 -0.1624  0.2726
  707Sol     MW 5904   0.857   0.802   5.098 -0.5062 -0.3245  0.2153
  708Sol     OW 5905   0.472   2.856   3.708  0.2549 -0.2578 -0.2644
  708Sol     HW 5906   0.392   2.814   3.675  0.9847 -0.8643 -1.2861
  708Sol     HW 5907   0.543   2.814   3.659  1.0527  1.6844 -0.7826
  708Sol     MW 5908   0.471   2.848   3.701  0.2645  0.2164  0.6523
  709Sol     OW 5909   2.532   2.155   9.313 -0.2409  0.1995  0.2889
  709Sol     HW 5910   2.501   2.246   9.318  0.3723  0.3652  1.2756
  709Sol     HW 5911   2.600   2.149   9.381 -0.9932 -1.2733  0.9348
  709Sol     MW 5912   2.535   2.163   9.320 -0.3121  0.1737  0.3454
  710Sol     OW 5913   3.109   3.052   6.795 -0.2192  0.4009 -0.0398
  710Sol     HW 5914   3.141   2.962   6.800  0.6667  0.6916 -0.3135
  710Sol     HW 5915   3.116   3.076   6.703  1.1904  1.3101  0.2695
  710Sol     MW 5916   3.113   3.046   6.787  0.3880 -0.3971 -0.0184
  711Sol     OW 5917   1.644   1.537   5.981  0.6944  0.0894  0.1551
  711Sol     HW 5918   1.715   1.506   6.037 -0.2828 -1.8880  0.3362
  711Sol     HW 5919   1.599   1.458   5.952 -3.4374  1.3239  2.6607
  711Sol     MW 5920   1.646   1.528   5.983 -0.2044 -0.3403  0.0528
  712Sol     OW 5921   2.194   0.731   5.605  0.3870 -0.2220 -0.3833
  712Sol     HW 5922   2.113   0.751   5.558  0.3413  0.2041 -0.1325
  712Sol     HW 5923   2.165   0.713   5.695  0.5552 -0.1872 -0.3221
  712Sol     MW 5924   2.184   0.731   5.609 -1.0394 -0.5842 -0.0655
  713Sol     OW 5925   0.390   1.172   2.023 -0.0498 -0.1726  0.4678
  713Sol     HW 5926   0.430   1.240   1.968 -0.1698  0.3500  1.0151
  713Sol     HW 5927   0.447   1.166   2.099 -0.9106  0.4475  1.1658
  713Sol     MW 5928   0.399   1.178   2.025 -0.8068 -0.4304 -0.3591
  714Sol     OW 5929   2.113   0.414   4.266 -0.4650  0.1907 -0.0014
  714Sol     HW 5930   2.072   0.372   4.342  0.2668 -0.7374 -0.1221
  714Sol     HW 5931   2.178   0.351   4.235 -0.8162  0.5289 -1.4587
  714Sol     MW 5932   2.115   0.405   4.270  0.4670 -0.0316 -0.1652
  715Sol     OW 5933   0.193   1.192   6.481 -0.1805 -0.2629  0.0365
  715Sol     HW 5934   0.283   1.225   6.476 -0.3110  0.2338  0.9737
  715Sol     HW 5935   0.147   1.256   6.535 -0.4709 -1.9015  1.7761
  715Sol     MW 5936   0.197   1.201   6.485  0.1945  0.0763 -0.4683
  716Sol     OW 5937   1.855   0.103   8.512  0.5896  0.0387 -0.5363
  716Sol     HW 5938   1.920   0.097   8.582  0.2425  1.1520 -0.0999
  716Sol     HW 5939   1.771   0.104   8.558  0.3244 -0.1233 -1.0222
  716Sol     MW 5940   1.853   0.103   8.523  0.0273 -0.6145  0.5739
  717Sol     OW 5941   0.718   2.897   7.014 -0.2005 -0.3677  0.1467
  717Sol     HW 5942   0.660   2.939   7.078  1.0179  1.2356  0.2541
  717Sol     HW 5943   0.684   2.924   6.929 -0.4943 -0.6546  0.1737
  717Sol     MW 5944   0.710   2.903   7.012 -0.0936 -0.3209  0.2985
  718Sol     OW 5945   3.311   1.072   6.918 -0.0491 -0.2335  0.4018
  718Sol     HW 5946   3.404   1.054   6.906 -0.0813 -0.0252 -0.1520
  718Sol     HW 5947   3.278   0.996   6.967  0.1055 -1.0278 -0.6992
  718Sol     MW 5948   3.316   1.064   6.922  0.4264  0.0291  0.2319
  719Sol     OW 5949   3.037   0.936   5.396  0.3369 -0.3299 -0.3934
  719Sol     HW 5950   3.102   0.899   5.457  0.6917 -0.1503 -0.6628
  719Sol     HW 5951   3.089   0.978   5.328 -0.0622 -0.6471 -0.8950
  719Sol     MW 5952   3.048   0.936   5.395  0.1694  0.4406 -0.0754
  720Sol     OW 5953   0.539   1.952   4.680 -0.3955  0.3124  0.3178
  720Sol     HW 5954   0.476   1.896   4.634  0.3533 -0.5447  0.3107
  720Sol     HW 5955   0.559   2.022   4.619 -1.5380  0.7320  0.4207
  720Sol     MW 5956   0.536   1.953   4.671 -0.0099 -0.0898 -0.4868
  721Sol     OW 5957   0.563   1.945   2.710  0.6009  0.1042  0.5324
  721Sol     HW 5958   0.492   1.975   2.766 -0.2572 -1.3874  0.2691
  721Sol     HW 5959   0.582   2.020   2.654 -1.1264  0.3566  0.2533
  721Sol     MW 5960   0.558   1.954   2.710 -0.3840  0.6630  0.0856
  722Sol     OW 5961   1.587   2.042   9.146  0.0022  0.0277 -0.2769
  722Sol     HW 5962   1.540   2.080   9.220 -0.4993  1.0052 -1.0967
  722Sol     HW 5963   1.521   2.033   9.077  0.8507  0.7273 -1.1895
  722Sol     MW 5964   1.577   2.045   9.146  0.1872  0.7322  0.1189
  723Sol     OW 5965   0.534   3.343   9.899 -0.2266 -0.0929 -0.0454
  723Sol     HW 5966   0.531   3.256   9.939 -1.3044 -0.3669 -0.6758
  723Sol     HW 5967   0.621   3.348   9.859  0.6803  0.0160  1.9130
  723Sol     MW 5968   0.541   3.335   9.899  0.6101  0.6656  0.2144
  724Sol     OW 5969   0.189   0.229   3.117 -0.1812  0.3536  0.1477
  724Sol     HW 5970   0.249   0.264   3.183 -0.8925  0.4923  0.7272
  724Sol     HW 5971   0.103   0.261   3.143 -0.9671 -2.3416  1.0703
  724Sol     MW 5972   0.187   0.235   3.125  0.4656 -0.5576 -0.1304
  725Sol     OW 5973   2.616   1.235   6.465  0.4804 -0.3322  0.0581
  725Sol     HW 5974   2.668   1.179   6.408  2.0420  0.4690  0.6666
  725Sol     HW 5975   2.680   1.284   6.517 -0.9065 -1.2704  2.7568
  725Sol     MW 5976   2.626   1.235   6.464  0.1864  0.0536  0.3607
  726Sol     OW 5977   1.008   0.995   5.330 -0.0021 -0.2473 -0.7619
  726Sol     HW 5978   0.942   1.040   5.381 -1.9281 -2.6394 -1.0419
  726Sol     HW 5979   0.983   1.010   5.239  0.6377  0.0003 -0.8993
  726Sol     MW 5980   1.000   1.000   5.326 -0.2090  0.4477  0.7534
  727Sol     OW 5981   1.595   3.181   5.910 -0.2753  0.2227 -0.0311
  727Sol     HW 5982   1.628   3.267   5.884  1.5446 -0.4867 -0.2037
  727Sol     HW 5983   1.650   3.156   5.985  0.0240 -1.2948 -0.7403
  727Sol     MW 5984   1.603   3.187   5.915 -0.0625 -0.0526  0.4381
  728Sol     OW 5985   1.926   0.012   2.116  0.5893 -0.2740  0.5280
  728Sol     HW 5986   1.869  -0.055   2.155 -1.3887  1.7288  1.1384
  728Sol     HW 5987   1.869   0.061   2.057  1.8705  1.2864  0.5645
  728Sol     MW 5988   1.916   0.010   2.114  0.4148 -0.7702 -0.2230
  729Sol     OW 5989   1.064   2.628   4.186  0.0556 -0.7014  0.8878
  729Sol     HW 5990   1.136   2.567   4.196 -0.3642 -1.7163 -1.9980
  729Sol     HW 5991   1.105   2.710   4.159  0.1083 -1.5337 -1.6940
  729Sol     MW 5992   1.074   2.630   4.185  0.4145  0.4854 -0.0001
  730Sol     OW 5993   1.298   1.135   5.595  0.3312 -0.0921 -0.2097
  730Sol     HW 5994   1.301   1.043   5.571  0.5623 -0.0186 -0.4624
  730Sol     HW 5995   1.309   1.136   5.690 -0.2107 -0.3576 -0.1394
  730Sol     MW 5996   1.299   1.127   5.601 -0.2250 -0.2303  0.7244
  731Sol     OW 5997   3.109   1.317   6.672 -0.2509 -0.4607  0.0510
  731Sol     HW 5998   3.147   1.237   6.635  2.1979  2.3914 -3.8878
  731Sol     HW 5999   3.025   1.326   6.628 -0.7140 -1.0014  0.7961
  731Sol     MW 6000   3.105   1.310   6.665 -0.0238  0.7253  0.3221
  732Sol     OW 6001   2.697   1.122   8.539  0.8763 -0.3479  0.7487
  732Sol     HW 6002   2.613   1.154   8.506  0.7917 -0.7335  0.5799
  732Sol     HW 6003   2.698   1.145   8.631  0.5708 -0.3652  0.7573
  732Sol     MW 6004   2.690   1.127   8.544  0.3065 -0.4011  0.9100
  733Sol     OW 6005   2.351   1.944   9.378  0.5809 -1.0020  1.0979
  733Sol     HW 6006   2.412   1.985   9.316  0.4778 -1.6177  0.5833
  733Sol     HW 6007   2.316   2.017   9.428  1.6307 -0.6228  1.3005
  733Sol     MW 6008   2.354   1.954   9.377 -0.0168  0.4639  0.0913
  734Sol     OW 6009   3.264   0.373   2.692 -0.0346  0.6488 -0.4691
  734Sol     HW 6010   3.234   0.409   2.609  0.5549 -0.7956 -1.3336
  734Sol     HW 6011   3.288   0.449   2.744 -2.3957  1.6967 -0.8297
  734Sol     MW 6012   3.264   0.383   2.689  0.0206  0.4839  0.5947
  735Sol     OW 6013   3.047   0.065   2.637 -0.1132 -0.3736  0.1712
  735Sol     HW 6014   3.075   0.106   2.555 -0.8296  0.7725  0.4785
  735Sol     HW 6015   3.102   0.106   2.704 -0.3255 -0.4591  0.3992
  735Sol     MW 6016   3.054   0.072   2.636 -0.3196  0.4465 -0.4363
  736Sol     OW 6017   1.237   1.523   5.277 -0.0790  0.5931  0.5645
  736Sol     HW 6018   1.249   1.498   5.185 -1.7960  0.4295  0.3577
  736Sol     HW 6019   1.295   1.465   5.326 -1.7920 -1.8343 -0.1575
  736Sol     MW 6020   1.243   1.515   5.273 -0.0882  0.6184 -0.4397
  737Sol     OW 6021   2.847   1.112   7.226 -0.0642 -0.2614 -0.2325
  737Sol     HW 6022   2.800   1.162   7.159  0.5853  0.3159 -0.2574
  737Sol     HW 6023   2.851   1.023   7.191 -0.5138 -0.1602 -0.5517
  737Sol     MW 6024   2.843   1.109   7.217 -0.7472 -0.2319  0.1261
  738Sol     OW 6025   2.765   1.074   5.372  0.2160  0.4452  0.5147
  738Sol     HW 6026   2.813   0.991   5.372  1.4288  1.1271 -0.1980
  738Sol     HW 6027   2.788   1.115   5.289 -0.4797  1.4398  0.8005
  738Sol     MW 6028   2.772   1.070   5.365 -0.3911  0.6980  1.0638
  739Sol     OW 6029   0.171   2.974   5.040 -0.0446  0.2853 -0.4968
  739Sol     HW 6030   0.243   3.036   5.033  0.0256  0.0747 -1.7573
  739Sol     HW 6031   0.194   2.904   4.979 -0.6852 -0.4082  0.0611
  739Sol     MW 6032   0.179   2.974   5.034 -0.5755 -0.6428  0.1552
  740Sol     OW 6033   0.822   0.918   7.986  0.0567  0.6594 -0.1116
  740Sol     HW 6034   0.769   0.866   8.046 -2.1215  1.1292 -1.6093
  740Sol     HW 6035   0.845   0.996   8.037  0.0553  0.0500  0.8310
  740Sol     MW 6036   0.820   0.920   7.996 -0.1914  0.4356  0.2255
  741Sol     OW 6037   2.285   1.966   5.537  0.4433 -0.0258 -0.5006
  741Sol     HW 6038   2.215   1.919   5.583  0.1139  0.3071 -0.6544
  741Sol     HW 6039   2.238   2.030   5.484  0.7918 -0.7429 -1.6869
  741Sol     MW 6040   2.274   1.967   5.536  0.0113 -0.3381 -0.1391
  742Sol     OW 6041   0.992   0.418   6.494  0.5712 -0.2821 -0.1220
  742Sol     HW 6042   0.960   0.460   6.414  0.7409 -0.9920 -0.5714
  742Sol     HW 6043   1.074   0.463   6.513  0.0683  0.5177  0.1765
  742Sol     MW 6044   0.996   0.426   6.488 -0.0189 -0.2561  0.0945
  743Sol     OW 6045   1.501   3.161   8.166  0.5937  0.5613 -0.0351
  743Sol     HW 6046   1.470   3.159   8.075 -0.4178  0.2503  0.3158
  743Sol     HW 6047   1.442   3.222   8.210  0.2517 -0.3036  0.7147
  743Sol     MW 6048   1.493   3.166   8.162  0.0486  0.1775 -0.5781
  744Sol     OW 6049   0.092   2.175   8.034  0.5171  0.1102 -0.0483
  744Sol     HW 6050   0.048   2.192   7.951 -0.3705 -1.3882  0.0974
  744Sol     HW 6051   0.157   2.108   8.013  0.3216 -0.2396  0.4581
  744Sol     MW 6052   0.094   2.171   8.025 -0.5837 -0.2288  0.1528
  745Sol     OW 6053   0.325   0.083   3.870  0.2446  0.4836 -0.0695
  745Sol     HW 6054   0.238   0.115   3.892  0.7956  2.6347 -0.8919
  745Sol     HW 6055   0.313   0.038   3.786  0.1128  1.6917 -0.7028
  745Sol     MW 6056   0.316   0.082   3.864  0.4495 -0.8530 -0.0665
  746Sol     OW 6057   0.750   3.143   6.315  0.1100  0.3499  0.3436
  746Sol     HW 6058   0.799   3.177   6.390 -0.6987  0.5812  0.7759
  746Sol     HW 6059   0.817   3.108   6.256  0.7140 -0.3035  1.4052
  746Sol     MW 6060   0.760   3.143   6.316  0.2944 -0.0511 -0.2858
  747Sol     OW 6061   1.046   2.530   6.583 -0.5600 -0.6274 -0.0856
  747Sol     HW 6062   1.103   2.493   6.516 -0.7427  0.6321 -0.9659
  747Sol     HW 6063   1.067   2.481   6.663 -0.0554 -1.8739 -0.9694
  747Sol     MW 6064   1.053   2.522   6.584 -0.9983 -0.4489  0.0528
  748Sol     OW 6065   2.669   1.838   2.247 -0.2751  0.0177 -0.1175
  748Sol     HW 6066   2.746   1.803   2.293 -0.7282  0.4872  1.0182
  748Sol     HW 6067   2.706   1.885   2.172  0.4376 -1.4047 -0.6771
  748Sol     MW 6068   2.680   1.839   2.244  0.5718  0.4456 -0.1238
  749Sol     OW 6069   2.448   3.337   4.830  0.0181  0.1196 -0.7116
  749Sol     HW 6070   2.423   3.260   4.780  0.3715 -0.3347 -0.1902
  749Sol     HW 6071   2.455   3.407   4.765  0.9725 -0.5762 -1.3650
  749Sol     MW 6072   2.446   3.337   4.820 -0.1768 -0.3621 -0.5249
  750Sol     OW 6073   3.176   1.744   5.018  0.4548 -0.8105 -0.0724
  750Sol     HW 6074   3.245   1.793   5.063  0.1556  0.7117 -1.2291
  750Sol     HW 6075   3.192   1.761   4.925 -1.3402 -0.6357 -0.3540
  750Sol     MW 6076   3.184   1.750   5.014 -0.2946 -0.4683 -0.2162
  751Sol     OW 6077   2.874   3.293   2.605 -0.3398 -0.4887  0.3136
  751Sol     HW 6078   2.936   3.359   2.636 -0.8723 -0.2712  0.9435
  751Sol     HW 6079   2.891   3.285   2.512 -0.6242  0.9343  0.1229
  751Sol     MW 6080   2.881   3.298   2.600  0.2505  0.3461 -0.2727
  752Sol     OW 6081   0.467   1.587   4.998 -0.3885  0.3636  0.0672
  752Sol     HW 6082   0.488   1.601   4.906 -0.3894  1.2827  0.2008
  752Sol     HW 6083   0.476   1.674   5.038  1.2886 -0.3454  1.2710
  752Sol     MW 6084   0.469   1.596   4.994  0.0235 -0.4766 -0.2870
  753Sol     OW 6085   1.107   2.557   1.565 -0.1951  0.4031  0.3178
  753Sol     HW 6086   1.117   2.525   1.655  0.2720 -0.4805 -0.0395
  753Sol     HW 6087   1.083   2.649   1.575 -1.5289 -0.0374  1.3654
  753Sol     MW 6088   1.106   2.563   1.574 -0.3466  0.4492  0.4202
  754Sol     OW 6089   2.539   0.105   5.881  0.2029  0.9874 -0.1305
  754Sol     HW 6090   2.533   0.192   5.920  0.9567  1.1307 -0.3151
  754Sol     HW 6091   2.622   0.070   5.913 -0.7769 -0.2403  1.0774
  754Sol     MW 6092   2.546   0.110   5.887 -0.0959  0.3055  0.3443
  755Sol     OW 6093   1.603   2.126   6.206  0.2015 -0.5981 -0.0448
  755Sol     HW 6094   1.630   2.098   6.119  0.9412  0.9421 -0.3313
  755Sol     HW 6095   1.672   2.093   6.264  0.4581 -0.3996 -0.2332
  755Sol     MW 6096   1.612   2.121   6.203 -0.1597 -0.0914 -0.3425
  756Sol     OW 6097   0.679   0.678   6.108 -0.5381 -0.1371 -0.0884
  756Sol     HW 6098   0.601   0.693   6.055  1.6487 -1.4715 -3.8682
  756Sol     HW 6099   0.737   0.751   6.087  0.9682 -1.5014 -0.7598
  756Sol     MW 6100   0.677   0.685   6.101  0.6314  0.2736  0.3352
  757Sol     OW 6101   1.723   0.952   4.680  0.6017  0.0323 -0.2167
  757Sol     HW 6102   1.750   1.044   4.675 -0.8264  0.4138 -1.2319
  757Sol     HW 6103   1.628   0.955   4.669  0.7590 -1.7393 -2.2787
  757Sol     MW 6104   1.717   0.961   4.679  0.4065  0.4225 -0.1314
  758Sol     OW 6105   2.448   0.706   6.952 -0.3973  0.1239 -0.0679
  758Sol     HW 6106   2.375   0.705   6.890 -1.4610  1.5152  1.1418
  758Sol     HW 6107   2.526   0.698   6.896 -1.2629  2.4315 -1.7364
  758Sol     MW 6108   2.449   0.706   6.941 -0.8155  0.0603 -0.1937
  759Sol     OW 6109   2.788   1.100   6.274 -0.0251 -0.0779 -0.1838
  759Sol     HW 6110   2.819   1.166   6.211 -0.4063  0.0760 -0.2108
  759Sol     HW 6111   2.805   1.016   6.230  2.4227 -0.1124  0.7148
  759Sol     MW 6112   2.793   1.098   6.264  0.1092  0.5979  0.2260
  760Sol     OW 6113   1.672   0.383   5.799  0.2863 -0.0638  0.2370
  760Sol     HW 6114   1.746   0.406   5.742 -0.1863  1.9192  0.3832
  760Sol     HW 6115   1.636   0.303   5.761  0.3115  0.9289 -1.9264
  760Sol     MW 6116   1.676   0.378   5.791 -0.5802  0.0449 -0.2977
  761Sol     OW 6117   1.368   1.399   7.294 -0.0875 -0.1026  0.0396
  761Sol     HW 6118   1.313   1.463   7.340  0.8168 -0.0345  1.0360
  761Sol     HW 6119   1.426   1.365   7.361 -0.4914 -1.9194 -0.5072
  761Sol     MW 6120   1.368   1.402   7.304 -0.3539 -0.1152 -0.3233
  762Sol     OW 6121   1.725   2.862   3.887 -0.4548 -0.3034 -0.1912
  762Sol     HW 6122   1.719   2.903   3.800 -3.0990 -0.6929 -0.2345
  762Sol     HW 6123   1.808   2.815   3.885 -0.5471 -0.4709 -2.6058
  762Sol     MW 6124   1.732   2.862   3.879 -0.6470  0.0496  0.3583
  763Sol     OW 6125   2.780   1.769   6.016 -0.4648 -0.1772  0.2202
  763Sol     HW 6126   2.737   1.684   6.001 -0.2528  0.0036 -1.5565
  763Sol     HW 6127   2.740   1.828   5.953  0.0258  0.8362  0.8348
  763Sol     MW 6128   2.773   1.766   6.009 -0.5479  0.4536 -0.1513
  764Sol     OW 6129   1.600   0.994   2.170 -0.1060  0.3739  0.1041
  764Sol     HW 6130   1.682   1.032   2.142  0.1684  1.2986  2.0516
  764Sol     HW 6131   1.625   0.912   2.213  0.1266  1.8930  3.0332
  764Sol     MW 6132   1.609   0.990   2.172  0.4349 -0.1031  0.4425
  765Sol     OW 6133   3.085   1.357   5.404  0.4394  0.4898  0.0460
  765Sol     HW 6134   3.152   1.423   5.420  0.6548  0.2969 -0.0485
  765Sol     HW 6135   3.062   1.325   5.491  2.2581 -1.1933 -0.0416
  765Sol     MW 6136   3.089   1.360   5.413 -0.7305  0.7961  0.3886
  766Sol     OW 6137   1.172   2.568   2.692 -0.3842 -0.1596  0.2279
  766Sol     HW 6138   1.267   2.569   2.707 -0.6151 -0.4987  1.8519
  766Sol     HW 6139   1.139   2.640   2.746 -1.2864 -1.5535  1.5773
  766Sol     MW 6140   1.178   2.575   2.698 -0.1210  0.5097  0.5875
  767Sol     OW 6141   2.243   2.257   1.756 -0.5976 -0.2962 -0.0562
  767Sol     HW 6142   2.238   2.164   1.735 -3.5210 -0.1173 -0.3575
  767Sol     HW 6143   2.303   2.294   1.690  0.1672 -1.8676 -0.2472
  767Sol     MW 6144   2.248   2.252   1.748  0.1816 -0.3183  0.0395
  768Sol     OW 6145   3.035   1.462   4.630  0.2455 -0.7599 -0.4788
  768Sol     HW 6146   3.095   1.432   4.698 -1.2031  1.7798  2.0604
  768Sol     HW 6147   3.069   1.548   4.604 -1.8884  0.4695  0.6060
  768Sol     MW 6148   3.043   1.467   4.634  0.1424  0.7513 -0.0295
  769Sol     OW 6149   2.045   1.433   8.410  0.1430 -0.4090 -0.4715
  769Sol     HW 6150   1.999   1.374   8.469 -0.0157  0.6753  0.5128
  769Sol     HW 6151   2.123   1.385   8.383  0.8144 -0.4858  1.5377
  769Sol     MW 6152   2.047   1.424   8.413  0.7536  0.2779 -0.2292
  770Sol     OW 6153   3.107   0.436   7.103  0.1846 -0.2632 -0.0989
  770Sol     HW 6154   3.096   0.475   7.190 -1.3959 -1.5732  0.3232
  770Sol     HW 6155   3.185   0.382   7.110 -0.5423 -1.2075  0.8391
  770Sol     MW 6156   3.113   0.435   7.111  0.2483  0.2916 -0.3026
  771Sol     OW 6157   2.471   0.312   4.998 -0.5266 -0.1563 -0.0945
  771Sol     HW 6158   2.541   0.350   4.944 -0.3137 -0.7475 -0.2388
  771Sol     HW 6159   2.508   0.311   5.087 -0.2322 -0.7438 -0.2194
  771Sol     MW 6160   2.481   0.315   5.001  0.1981 -0.1735 -0.2995
  772Sol     OW 6161   0.625   3.441   6.862 -0.3127 -0.3843  0.2346
  772Sol     HW 6162   0.711   3.411   6.832 -0.4123 -0.6912  0.2559
  772Sol     HW 6163   0.585   3.480   6.785  0.4020  1.0123  0.5676
  772Sol     MW 6164   0.629   3.442   6.852  0.2273 -0.1535  0.0051
  773Sol     OW 6165   1.825   1.761   4.252 -0.1473  0.2771  0.4436
  773Sol     HW 6166   1.912   1.734   4.223 -0.3243  0.7439 -0.5367
  773Sol     HW 6167   1.794   1.688   4.305  1.1533  0.4338  1.4539
  773Sol     MW 6168   1.830   1.752   4.254  0.5530 -0.3502  0.0705
  774Sol     OW 6169   2.639   2.232   7.036  0.2033 -0.4245 -1.1614
  774Sol     HW 6170   2.547   2.238   7.062  0.1503  2.3726 -1.8742
  774Sol     HW 6171   2.688   2.249   7.117  0.0553  1.8176 -1.5170
  774Sol     MW 6172   2.635   2.234   7.046 -0.1576  0.1335  0.2885
  775Sol     OW 6173   0.676   1.639   5.985  0.2480 -0.1806 -0.3278
  775Sol     HW 6174   0.683   1.696   5.908  0.6063 -0.2338 -0.3384
  775Sol     HW 6175   0.687   1.698   6.059  0.1604 -0.1668 -0.3263
  775Sol     MW 6176   0.678   1.650   5.984 -0.0248 -0.2197  0.2662
  776Sol     OW 6177   1.499   3.175   2.954 -0.2309  0.2616 -0.1919
  776Sol     HW 6178   1.460   3.155   2.869 -0.6563  3.4438 -0.8117
  776Sol     HW 6179   1.423   3.185   3.013  0.0863 -2.6094  0.7564
  776Sol     MW 6180   1.488   3.174   2.952  0.0970 -0.6208 -0.0392
  777Sol     OW 6181   3.087   0.403   9.536  0.5481  0.3236  0.0900
  777Sol     HW 6182   3.099   0.323   9.485  0.7974  0.7959 -0.6039
  777Sol     HW 6183   3.176   0.432   9.557  0.4474  0.1173  0.8245
  777Sol     MW 6184   3.096   0.399   9.533 -0.0588 -0.5459 -0.1546
  778Sol     OW 6185   2.845   0.091   7.175 -0.3335 -0.0843 -0.3029
  778Sol     HW 6186   2.909   0.044   7.122 -1.4795 -0.3627 -1.4908
  778Sol     HW 6187   2.760   0.066   7.137 -1.0612  1.4440  0.2699
  778Sol     MW 6188   2.843   0.085   7.166 -0.0880  0.2140 -0.3612
  779Sol     OW 6189   2.508   1.075   5.604  0.3122  0.1594  0.3880
  779Sol     HW 6190   2.488   1.089   5.511 -2.2387 -1.8958  0.5671
  779Sol     HW 6191   2.479   1.155   5.647 -1.4813 -0.1257 -0.2237
  779Sol     MW 6192   2.503   1.083   5.599  0.2472 -0.7522  0.2925
  780Sol     OW 6193   1.584   1.491   9.217 -0.1965  0.2435  0.2953
  780Sol     HW 6194   1.584   1.582   9.188  0.8497  0.2246  0.2410
  780Sol     HW 6195   1.588   1.496   9.313 -0.5180  0.2510  0.3115
  780Sol     MW 6196   1.584   1.500   9.223  0.3603  0.2956  0.3211
  781Sol     OW 6197   2.504   1.312   8.828 -0.2366 -0.4365 -0.3488
  781Sol     HW 6198   2.454   1.238   8.862 -2.3313  1.2534  0.4017
  781Sol     HW 6199   2.461   1.334   8.745  0.9578 -0.6556 -1.0298
  781Sol     MW 6200   2.496   1.308   8.824 -0.4420 -0.3229  0.6609
  782Sol     OW 6201   2.382   2.468   4.858 -0.0374  0.4446 -0.6473
  782Sol     HW 6202   2.288   2.481   4.873 -0.2264  1.5157 -2.5880
  782Sol     HW 6203   2.415   2.433   4.941 -2.0363  0.6453  0.2628
  782Sol     MW 6204   2.376   2.466   4.867  0.4143 -0.2197  0.2429
  783Sol     OW 6205   2.038   2.658   4.173  0.6757 -0.1037 -0.2378
  783Sol     HW 6206   2.044   2.576   4.223  2.1696 -0.4386 -0.9419
  783Sol     HW 6207   1.972   2.709   4.220 -1.0373 -2.1029 -0.3590
  783Sol     MW 6208   2.033   2.655   4.182  0.0211 -0.4513  0.0814
  784Sol     OW 6209   0.498   0.491   4.372  0.5942  0.5093 -0.6172
  784Sol     HW 6210   0.415   0.461   4.410 -0.7336  3.6629 -0.8437
  784Sol     HW 6211   0.565   0.441   4.418 -1.3512 -1.0566  0.6182
  784Sol     MW 6212   0.496   0.484   4.379  0.4843  0.4045 -0.5446
  785Sol     OW 6213   0.739   0.029   8.495  0.0203 -0.1901  0.1715
  785Sol     HW 6214   0.684  -0.048   8.484 -1.3853  1.1222 -2.2727
  785Sol     HW 6215   0.678   0.103   8.500  1.4770  1.1495 -1.2267
  785Sol     MW 6216   0.729   0.029   8.495 -0.3024  0.1837  0.0028
  786Sol     OW 6217   3.246   1.350   4.804 -0.2695 -0.0621 -0.0361
  786Sol     HW 6218   3.233   1.380   4.893 -0.7977 -0.9276  0.1821
  786Sol     HW 6219   3.327   1.392   4.776  0.2576 -0.3196  1.0844
  786Sol     MW 6220   3.252   1.356   4.809 -0.1374 -0.2767 -0.2360
  787Sol     OW 6221   2.187   1.909   4.356  0.3287 -0.7510  0.2303
  787Sol     HW 6222   2.282   1.914   4.343  0.1556 -0.9753 -1.2396
  787Sol     HW 6223   2.163   1.821   4.328 -0.2934 -0.7703  0.7946
  787Sol     MW 6224   2.193   1.902   4.352 -0.0314  0.5567  0.2057
  788Sol     OW 6225   0.731   3.283   6.072  0.8349 -0.5997 -0.3461
  788Sol     HW 6226   0.781   3.356   6.037 -0.9647  0.2399 -1.2394
  788Sol     HW 6227   0.752   3.282   6.165  0.2875  1.5541 -0.1725
  788Sol     MW 6228   0.737   3.289   6.077 -0.4925  0.1736  0.4287
  789Sol     OW 6229   3.162   1.251   9.432 -0.8776  0.2167  0.0487
  789Sol     HW 6230   3.167   1.268   9.338 -2.3344  2.4525  0.3279
  789Sol     HW 6231   3.129   1.162   9.439 -2.3218  0.6005 -1.5664
  789Sol     MW 6232   3.159   1.245   9.425  0.5572 -0.1229 -0.1248
  790Sol     OW 6233   0.051   1.409   6.631  0.4715 -0.5309 -0.5028
  790Sol     HW 6234  -0.040   1.382   6.622  0.4382  0.1672 -2.6864
  790Sol     HW 6235   0.055   1.495   6.589  1.5543  0.7441  2.0928
  790Sol     MW 6236   0.044   1.414   6.626  0.3417  0.2864 -0.2996
  791Sol     OW 6237   0.066   3.002   9.153 -0.1038 -0.6973 -0.3304
  791Sol     HW 6238   0.121   3.060   9.205  0.0335  0.0766 -1.3177
  791Sol     HW 6239   0.067   2.919   9.200  0.0388 -0.0183  0.8782
  791Sol     MW 6240   0.071   2.999   9.162 -0.3829  0.0784 -0.0291
  792Sol     OW 6241   2.815   1.807   4.568 -0.4917  0.3737  0.7963
  792Sol     HW 6242   2.796   1.727   4.520 -0.6417  0.9979 -0.1950
  792Sol     HW 6243   2.779   1.792   4.656 -2.0466  0.0181  0.1136
  792Sol     MW 6244   2.810   1.799   4.572 -0.3861 -0.0861  0.9196
  793Sol     OW 6245   1.094   1.703   7.869 -0.1749 -0.3866  0.4048
  793Sol     HW 6246   1.042   1.709   7.949  0.0058 -0.0438  0.4958
  793Sol     HW 6247   1.177   1.746   7.890 -0.8289  1.3954 -0.5505
  793Sol     MW 6248   1.097   1.707   7.878  0.1452 -0.1408 -0.1006
  794Sol     OW 6249   0.683   1.548   2.457  0.1509 -0.0337 -0.4530
  794Sol     HW 6250   0.664   1.521   2.547  0.5574 -1.5072 -0.7949
  794Sol     HW 6251   0.624   1.622   2.441  2.0063  2.0752  1.9359
  794Sol     MW 6252   0.676   1.553   2.463  0.3239 -0.2620 -0.1371
  795Sol     OW 6253   1.634   1.345   5.477  0.4329  0.3321  0.4886
  795Sol     HW 6254   1.653   1.419   5.419 -0.2702  0.6128  0.6127
  795Sol     HW 6255   1.672   1.269   5.432 -1.1231  0.3527 -0.9158
  795Sol     MW 6256   1.639   1.345   5.468  0.4315 -0.7279 -0.0151
  796Sol     OW 6257   1.620   3.408   5.365  0.6174 -0.4846  0.3723
  796Sol     HW 6258   1.598   3.320   5.334  3.2554 -1.0685 -0.0196
  796Sol     HW 6259   1.652   3.453   5.287 -1.3910  1.1032  0.4193
  796Sol     MW 6260   1.621   3.404   5.355 -0.0260 -0.2616  0.3496
  797Sol     OW 6261   0.812   0.129   7.201  0.3641  0.5101  0.0149
  797Sol     HW 6262   0.818   0.173   7.116  2.2937 -0.6645 -0.4875
  797Sol     HW 6263   0.875   0.057   7.195  1.2262  0.9681  2.7731
  797Sol     MW 6264   0.818   0.127   7.193 -0.0014  0.0792  0.5367
  798Sol     OW 6265   1.682   2.520   6.024 -0.0144  0.1174 -0.3093
  798Sol     HW 6266   1.640   2.549   5.942 -0.8755  1.5201  0.6148
  798Sol     HW 6267   1.771   2.553   6.018 -0.7644  2.3481  0.3800
  798Sol     MW 6268   1.686   2.525   6.016 -0.3200 -0.1348  0.3289
  799Sol     OW 6269   2.880   0.240   7.397 -0.1538  0.9519  0.0968
  799Sol     HW 6270   2.800   0.280   7.432  0.4842  1.2983  1.1803
  799Sol     HW 6271   2.849   0.179   7.330 -1.4079  0.3019  1.2331
  799Sol     MW 6272   2.870   0.238   7.395 -0.2675  0.3698  0.5219
  800Sol     OW 6273   0.014   0.687   5.357 -0.0161 -0.3473 -0.1176
  800Sol     HW 6274  -0.067   0.671   5.309 -0.1636 -0.1878  0.0737
  800Sol     HW 6275   0.083   0.683   5.291 -0.0928 -1.3224 -0.1412
  800Sol     MW 6276   0.013   0.685   5.347 -0.0204 -0.1270  0.0292
  801Sol     OW 6277   1.836   1.933   7.275 -0.1567  0.0548 -0.2141
  801Sol     HW 6278   1.925   1.937   7.310 -0.4845 -0.9071  0.7781
  801Sol     HW 6279   1.836   1.855   7.219 -0.3538  0.0898 -0.2612
  801Sol     MW 6280   1.844   1.926   7.273  0.2580  0.3944  0.8392
  802Sol     OW 6281   2.186   1.474   9.558 -0.1380  0.5561  0.2658
  802Sol     HW 6282   2.182   1.441   9.648  0.2521 -0.3151 -0.0287
  802Sol     HW 6283   2.276   1.507   9.548  0.1136 -0.2102 -0.0892
  802Sol     MW 6284   2.194   1.474   9.565  0.3856 -0.1832 -0.0887
  803Sol     OW 6285   1.310   2.559   3.912 -0.4482 -0.1038  0.0816
  803Sol     HW 6286   1.403   2.580   3.899 -0.5163 -0.3136 -0.8259
  803Sol     HW 6287   1.265   2.642   3.896 -0.3686  0.1425  1.1468
  803Sol     MW 6288   1.314   2.568   3.909 -0.4958  0.2316 -0.0784
  804Sol     OW 6289   2.289   2.038   7.910 -0.1493  0.2584 -0.1921
  804Sol     HW 6290   2.257   1.974   7.846 -1.1837 -0.2377  0.7945
  804Sol     HW 6291   2.384   2.034   7.902 -0.2593  0.2199 -1.7024
  804Sol     MW 6292   2.295   2.032   7.904 -0.0325 -0.5663 -0.1127
  805Sol     OW 6293   3.269   3.369   7.905 -0.8821  0.4298 -0.2542
  805Sol     HW 6294   3.359   3.397   7.886 -1.3069  3.5199  1.9472
  805Sol     HW 6295   3.223   3.379   7.821  0.3834  0.6698 -0.9349
  805Sol     MW 6296   3.273   3.373   7.896 -0.1497  0.5868  0.0508
  806Sol     OW 6297   3.124   0.278   7.965 -0.6421  0.2477 -0.4920
  806Sol     HW 6298   3.084   0.228   8.036  0.5057 -1.7362 -1.2040
  806Sol     HW 6299   3.178   0.344   8.009 -2.8313  1.4894  0.4659
  806Sol     MW 6300   3.125   0.280   7.975 -0.0169  0.4919 -0.1010
  807Sol     OW 6301   0.526   1.442   7.212 -0.3082 -0.2398  0.2376
  807Sol     HW 6302   0.502   1.354   7.184 -0.5002  0.7485 -2.9046
  807Sol     HW 6303   0.442   1.487   7.223 -0.2085 -0.3975  1.7926
  807Sol     MW 6304   0.516   1.438   7.210  0.4263  0.4584  0.2717
  808Sol     OW 6305   3.053   0.096   4.000  0.1087  0.2425  0.6300
  808Sol     HW 6306   3.072   0.080   4.092 -0.4170  0.3424  0.7598
  808Sol     HW 6307   3.088   0.184   3.984  0.6177  0.0354  0.6123
  808Sol     MW 6308   3.058   0.102   4.007  0.1859  0.3610 -0.0689
  809Sol     OW 6309   2.950   2.055   4.687 -0.1021  0.3268  0.0835
  809Sol     HW 6310   2.882   2.100   4.738  1.1292  1.0718  1.0888
  809Sol     HW 6311   2.911   1.970   4.665 -0.5517 -0.1149  2.5086
  809Sol     MW 6312   2.940   2.052   4.689 -0.5882 -0.5142 -0.2466
  810Sol     OW 6313   0.513   0.986   7.509 -0.3760  0.3690  0.8027
  810Sol     HW 6314   0.423   1.018   7.509  0.3573  2.5435  0.2372
  810Sol     HW 6315   0.559   1.046   7.569  0.8275 -0.3181  0.5759
  810Sol     MW 6316   0.509   0.994   7.515 -0.6994  0.5714  0.2093
  811Sol     OW 6317   1.433   0.207   3.521  0.1004 -0.1252 -0.7058
  811Sol     HW 6318   1.401   0.231   3.608  1.0276  0.8786 -0.6218
  811Sol     HW 6319   1.513   0.157   3.538  1.4855  1.8991 -0.9850
  811Sol     MW 6320   1.438   0.205   3.530  0.3577 -0.5016  0.3467
  812Sol     OW 6321   2.240   0.549   5.015 -0.1360  0.4930  0.3613
  812Sol     HW 6322   2.198   0.623   4.971 -2.6185 -0.1209  1.5955
  812Sol     HW 6323   2.281   0.499   4.944 -0.0887  1.9911 -0.6905
  812Sol     MW 6324   2.240   0.551   5.004  0.2868 -0.1904  0.1050
  813Sol     OW 6325   1.620   1.774   9.192  0.0964 -0.1903 -0.0325
  813Sol     HW 6326   1.643   1.788   9.284  0.3528  0.5841 -0.2070
  813Sol     HW 6327   1.621   1.862   9.154 -0.7970 -0.4177 -0.5973
  813Sol     MW 6328   1.622   1.783   9.197 -0.3915  0.6519 -0.5530
  814Sol     OW 6329   0.723   0.878   9.015 -0.2210 -0.2824  0.8062
  814Sol     HW 6330   0.787   0.824   9.062  0.5250  0.2204  0.3860
  814Sol     HW 6331   0.696   0.944   9.078 -0.1245 -0.3353  0.9046
  814Sol     MW 6332   0.727   0.879   9.025  0.0817 -0.2120  0.6411
  815Sol     OW 6333   3.067   1.851   9.907  0.4811 -0.0165 -0.1730
  815Sol     HW 6334   3.130   1.902   9.857  0.4597 -0.3357 -0.5230
  815Sol     HW 6335   3.098   1.761   9.901 -0.7101 -0.3669 -1.4203
  815Sol     MW 6336   3.075   1.847   9.902  0.2563  0.5619 -0.3240
  816Sol     OW 6337   2.290   3.087   5.733  0.3974  0.3709 -0.4200
  816Sol     HW 6338   2.315   3.154   5.670 -0.1270  0.7810 -0.1929
  816Sol     HW 6339   2.264   3.012   5.679 -0.8190  0.9857 -0.7266
  816Sol     MW 6340   2.290   3.086   5.723 -0.3069  0.6029  0.0524
  817Sol     OW 6341   1.126   1.046   7.418  0.1535  0.3643  0.1294
  817Sol     HW 6342   1.077   1.086   7.346 -2.3077 -1.5619  0.6419
  817Sol     HW 6343   1.126   1.113   7.486 -1.0408  0.7356 -0.2113
  817Sol     MW 6344   1.121   1.056   7.418  0.2453  0.0014 -0.4575
  818Sol     OW 6345   3.120   0.101   9.538 -0.1489  0.3403 -0.3766
  818Sol     HW 6346   3.163   0.022   9.505 -0.4071 -0.5248  1.3067
  818Sol     HW 6347   3.177   0.132   9.608  0.7012  2.5074 -1.9685
  818Sol     MW 6348   3.129   0.097   9.541  0.3463  0.2593 -0.1743
  819Sol     OW 6349   0.223   1.528   6.126  0.2821  0.8230  0.3889
  819Sol     HW 6350   0.261   1.440   6.123  0.1454  0.7843 -0.2428
  819Sol     HW 6351   0.134   1.516   6.091 -0.6472  0.7324  2.6854
  819Sol     MW 6352   0.218   1.519   6.123 -0.2898 -0.0330 -0.5684
  820Sol     OW 6353   0.047   3.375   6.153 -0.1325  0.4382 -0.4601
  820Sol     HW 6354  -0.038   3.413   6.134 -0.1532  0.5463 -0.1514
  820Sol     HW 6355   0.072   3.330   6.072  0.0360  1.3663 -0.9284
  820Sol     MW 6356   0.042   3.374   6.144  0.2707  0.4359 -0.5433
  821Sol     OW 6357   2.076   3.449   4.407  0.3223 -0.3484 -0.0843
  821Sol     HW 6358   2.051   3.381   4.470  0.7684  0.2893  0.7818
  821Sol     HW 6359   2.036   3.529   4.441 -1.0009 -0.3266 -1.5996
  821Sol     MW 6360   2.070   3.450   4.415 -0.4008 -0.3612  0.1298
  822Sol     OW 6361   2.144   2.066   7.353 -0.9526  0.7591 -0.3531
  822Sol     HW 6362   2.141   2.158   7.380  0.5829  0.7453 -0.0339
  822Sol     HW 6363   2.150   2.069   7.258 -1.0058  1.0012 -0.3491
  822Sol     MW 6364   2.145   2.075   7.347 -0.2932  0.5303  0.0923
  823Sol     OW 6365   3.238   2.273   5.867  0.2635  0.4004 -0.0042
  823Sol     HW 6366   3.297   2.312   5.932  1.4401 -3.0923  1.1465
  823Sol     HW 6367   3.282   2.286   5.783  0.5735  1.5540  0.3230
  823Sol     MW 6368   3.247   2.278   5.865  0.4789  0.2987  0.6263
  824Sol     OW 6369   3.096   3.361   4.886  0.3203  0.4778  0.0077
  824Sol     HW 6370   3.098   3.266   4.878  1.7817  0.4632  0.4862
  824Sol     HW 6371   3.003   3.382   4.893  0.1195 -1.2673  4.1918
  824Sol     MW 6372   3.088   3.355   4.886 -0.4349 -0.0983  0.0569
  825Sol     OW 6373   0.588   2.191   7.033 -0.8325  0.4770  0.0334
  825Sol     HW 6374   0.507   2.217   7.078 -0.1051  0.2062  1.5064
  825Sol     HW 6375   0.650   2.261   7.053 -0.0595 -0.3939  0.7099
  825Sol     MW 6376   0.586   2.200   7.039  0.4851 -0.5669  0.9229
  826Sol     OW 6377   1.125   1.609   7.007  0.4322  0.6085 -0.2264
  826Sol     HW 6378   1.205   1.637   7.050  0.7426  0.6188 -0.8059
  826Sol     HW 6379   1.098   1.530   7.054 -0.0230  1.4197  0.9233
  826Sol     MW 6380   1.129   1.605   7.015 -0.1883 -0.6769  0.1780
  827Sol     OW 6381   1.710   1.031   1.650 -0.0334 -0.1218  0.1456
  827Sol     HW 6382   1.665   0.964   1.702 -1.1468  0.2840 -0.2687
  827Sol     HW 6383   1.694   1.004   1.559  2.0346 -0.9223 -0.0113
  827Sol     MW 6384   1.705   1.023   1.646 -0.1300 -0.5157  0.2936
  828Sol     OW 6385   1.023   0.311   1.518  0.1059 -0.1535  0.1398
  828Sol     HW 6386   1.113   0.326   1.489 -0.1395 -0.4832 -0.7838
  828Sol     HW 6387   0.969   0.361   1.458 -0.4917 -2.0022 -0.8887
  828Sol     MW 6388   1.026   0.317   1.510  0.2838 -0.1506  0.2835
  829Sol     OW 6389   0.025   2.577   3.740 -0.1111 -0.3235 -0.2214
  829Sol     HW 6390  -0.047   2.588   3.678  0.1989 -1.6980 -0.8392
  829Sol     HW 6391   0.048   2.484   3.734  0.3588 -0.3320  1.4642
  829Sol     MW 6392   0.020   2.569   3.734  0.1920  0.9175 -0.2340
  830Sol     OW 6393   1.756   3.365   2.338 -0.1053 -0.2077 -0.0206
  830Sol     HW 6394   1.822   3.343   2.404 -3.0444 -2.0286  2.4692
  830Sol     HW 6395   1.744   3.284   2.288 -0.3844  0.1393 -0.5265
  830Sol     MW 6396   1.760   3.356   2.339  0.3756  0.1696 -0.3291
  831Sol     OW 6397   1.890   3.429   4.205  0.1549 -0.5142 -0.3115
  831Sol     HW 6398   1.965   3.434   4.265  0.4107  0.5682 -0.6999
  831Sol     HW 6399   1.924   3.465   4.123 -0.7526 -0.1540 -0.5322
  831Sol     MW 6400   1.900   3.433   4.203 -0.7911 -0.4166  0.3175
  832Sol     OW 6401   1.374   1.810   6.235  0.0371 -0.2747  0.3284
  832Sol     HW 6402   1.375   1.880   6.300 -0.9856 -0.5019  0.5844
  832Sol     HW 6403   1.283   1.800   6.210  0.1459 -1.6048  0.3889
  832Sol     MW 6404   1.366   1.815   6.238 -0.7792  0.1900  0.4891
  833Sol     OW 6405   1.380   2.443   6.148 -0.5704  0.0046 -0.1418
  833Sol     HW 6406   1.349   2.503   6.080 -1.3373 -0.7907 -0.4881
  833Sol     HW 6407   1.470   2.421   6.121 -0.7648 -0.0662 -0.7264
  833Sol     MW 6408   1.386   2.447   6.140 -0.4357  0.4281  0.5706
  834Sol     OW 6409   0.807   1.571   1.909 -0.4339 -0.0868 -0.0750
  834Sol     HW 6410   0.875   1.535   1.851  1.8329  1.7288  1.3920
  834Sol     HW 6411   0.766   1.640   1.857  2.1096  2.0638  0.6525
  834Sol     MW 6412   0.810   1.574   1.899 -0.3596  0.2230 -0.5198
  835Sol     OW 6413   2.473   0.898   7.349 -0.0247  0.0793 -0.1142
  835Sol     HW 6414   2.447   0.872   7.261  0.4900 -0.3589 -0.1445
  835Sol     HW 6415   2.519   0.821   7.384 -1.4110 -0.2372  1.0428
  835Sol     MW 6416   2.475   0.889   7.344  0.2208 -0.0258 -0.1965
  836Sol     OW 6417   0.582   1.491   2.151 -0.1600 -0.5182  0.1334
  836Sol     HW 6418   0.628   1.501   2.068  1.0136  0.0760  0.8264
  836Sol     HW 6419   0.649   1.512   2.217 -1.3974  0.2258  1.1717
  836Sol     MW 6420   0.592   1.494   2.150  0.2677  0.0163 -0.2558
  837Sol     OW 6421   0.479   0.564   7.733  0.3316 -0.3126 -0.0532
  837Sol     HW 6422   0.528   0.483   7.721  0.8666 -0.0626  0.4726
  837Sol     HW 6423   0.522   0.627   7.675 -1.0388 -0.7979 -1.6582
  837Sol     MW 6424   0.487   0.563   7.727  0.5451 -0.0860 -0.5576
  838Sol     OW 6425   1.038   2.027   9.373 -0.5339 -0.1953 -0.0282
  838Sol     HW 6426   1.038   1.956   9.437  0.2750  0.4676  0.7109
  838Sol     HW 6427   0.949   2.027   9.337 -1.7568  0.9549  2.8167
  838Sol     MW 6428   1.030   2.021   9.375 -0.6157 -0.4207 -0.0680
  839Sol     OW 6429   1.852   2.152   5.749  0.0647 -0.3383 -0.0676
  839Sol     HW 6430   1.782   2.200   5.703 -0.9577 -1.5598  0.1886
  839Sol     HW 6431   1.926   2.213   5.749 -1.3848  1.4838  0.7759
  839Sol     MW 6432   1.852   2.162   5.745  0.5828 -0.4666  0.1413
  840Sol     OW 6433   3.103   0.480   2.976  0.4336 -0.1174  0.0554
  840Sol     HW 6434   3.190   0.504   2.945  0.2209 -0.3009 -0.7019
  840Sol     HW 6435   3.081   0.547   3.041  1.8541 -1.0525  1.5529
  840Sol     MW 6436   3.109   0.488   2.979  0.4575  0.3386  0.1762
  841Sol     OW 6437   0.025   1.366   6.906 -0.3080  0.1406 -0.2066
  841Sol     HW 6438   0.001   1.280   6.941  1.5099 -0.6339 -0.8054
  841Sol     HW 6439   0.024   1.354   6.811  2.2098  0.1305 -0.2573
  841Sol     MW 6440   0.023   1.357   6.900 -0.6622 -0.2228  0.1026
  842Sol     OW 6441   3.298   1.533   3.108 -0.7941 -0.0122 -0.0581
  842Sol     HW 6442   3.389   1.510   3.091  0.3033  2.8682  1.5266
  842Sol     HW 6443   3.263   1.558   3.022  0.3514  0.2927 -0.4345
  842Sol     MW 6444   3.303   1.533   3.098  0.3228 -0.5190  1.0725
  843Sol     OW 6445   0.103   0.025   4.286 -0.3566  0.1243 -0.5675
  843Sol     HW 6446   0.083   0.102   4.340 -1.9462 -0.5529 -0.1511
  843Sol     HW 6447   0.194   0.003   4.308 -0.4089  0.9255  0.5129
  843Sol     MW 6448   0.109   0.030   4.293  0.6350 -0.6706 -0.0740
  844Sol     OW 6449   0.688   3.395   4.222  0.6750  0.0398 -0.0324
  844Sol     HW 6450   0.745   3.402   4.298  0.4599  1.1801  0.0377
  844Sol     HW 6451   0.610   3.350   4.253  0.6401  0.3968  0.3977
  844Sol     MW 6452   0.686   3.392   4.231 -0.1845  0.1595  0.1774
  845Sol     OW 6453   2.803   1.528   8.940 -0.3274 -0.1758  0.5598
  845Sol     HW 6454   2.847   1.532   8.855 -0.8846  0.4032  0.2960
  845Sol     HW 6455   2.710   1.540   8.920 -0.5829 -1.1327  1.1454
  845Sol     MW 6456   2.799   1.530   8.930 -0.2614 -0.2037  0.0493
  846Sol     OW 6457   2.245   1.723   9.164 -0.5881  0.2838  0.5116
  846Sol     HW 6458   2.288   1.775   9.233 -1.7444 -0.1073  1.5407
  846Sol     HW 6459   2.252   1.632   9.195  1.5234 -0.2323 -1.3284
  846Sol     MW 6460   2.250   1.719   9.173 -0.0869 -0.4184 -0.2323
  847Sol     OW 6461   0.590   1.228   5.721  0.0120  0.2731 -0.6284
  847Sol     HW 6462   0.639   1.277   5.787  0.5870  0.3203 -1.0857
  847Sol     HW 6463   0.575   1.142   5.762  0.0214  0.4378 -0.2799
  847Sol     MW 6464   0.593   1.224   5.731 -0.0799 -0.3908 -0.0255
  848Sol     OW 6465   0.443   2.621   7.364  0.6104 -0.5814 -0.1738
  848Sol     HW 6466   0.356   2.623   7.404 -0.1636  2.9813 -1.8520
  848Sol     HW 6467   0.427   2.619   7.270  2.2223  3.2588 -0.6256
  848Sol     MW 6468   0.434   2.621   7.360 -0.3907 -0.5657  0.4329
  849Sol     OW 6469   2.367   1.400   8.559 -0.5150  0.1530 -1.0768
  849Sol     HW 6470   2.409   1.455   8.494  0.0074  0.7160 -0.2727
  849Sol     HW 6471   2.404   1.313   8.544  1.5293  0.7690  0.0743
  849Sol     MW 6472   2.374   1.397   8.552 -0.2728  0.4627  0.7241
  850Sol     OW 6473   1.738   1.674   3.091 -0.5027  0.6328 -0.1650
  850Sol     HW 6474   1.708   1.692   3.002 -0.9494  1.4200  0.1433
  850Sol     HW 6475   1.781   1.756   3.119 -0.0724  0.2795  0.2214
  850Sol     MW 6476   1.739   1.683   3.086 -0.6204  0.6975  0.1604
  851Sol     OW 6477   0.595   0.883   5.031  0.2341 -0.6855 -0.5846
  851Sol     HW 6478   0.564   0.807   4.983  0.2713 -1.8340  1.1554
  851Sol     HW 6479   0.687   0.864   5.050 -0.5126 -1.6370  2.4473
  851Sol     MW 6480   0.600   0.875   5.029  0.2428  0.0455  0.3892
  852Sol     OW 6481   2.411   1.842   2.617  0.0668 -0.2563 -0.3616
  852Sol     HW 6482   2.353   1.914   2.643 -0.6560 -0.8634 -0.2903
  852Sol     HW 6483   2.438   1.864   2.528 -1.3251 -0.6339 -0.8859
  852Sol     MW 6484   2.409   1.851   2.611  0.0907  0.7492 -0.5324
  853Sol     OW 6485   1.072   0.019   7.915 -0.1294 -0.6554  0.3332
  853Sol     HW 6486   1.136  -0.040   7.875 -0.2940 -0.3668 -0.3600
  853Sol     HW 6487   0.996   0.014   7.857  0.7891  2.2628 -1.2150
  853Sol     MW 6488   1.071   0.013   7.907 -0.7015 -0.4869 -0.0345
  854Sol     OW 6489   3.308   0.109   8.933 -0.1164  0.1855 -0.2836
  854Sol     HW 6490   3.357   0.166   8.992  0.8107  0.4579 -1.2843
  854Sol     HW 6491   3.222   0.151   8.924  0.1007  0.7043  0.0441
  854Sol     MW 6492   3.305   0.118   8.937  0.8697  0.9444  0.1006
  855Sol     OW 6493   1.338   0.175   6.995  0.4851  0.1640 -0.0651
  855Sol     HW 6494   1.398   0.244   7.022 -0.0370  0.9197 -0.8006
  855Sol     HW 6495   1.283   0.216   6.928 -0.7244 -0.5702  0.4530
  855Sol     MW 6496   1.338   0.185   6.991  0.1082 -0.5190 -0.5378
  856Sol     OW 6497   1.016   3.171   8.288 -0.1177  0.2288  0.1637
  856Sol     HW 6498   0.927   3.190   8.259 -0.4007 -2.2530 -0.7106
  856Sol     HW 6499   1.027   3.223   8.368 -3.0798 -0.9739  1.3959
  856Sol     MW 6500   1.009   3.178   8.293  0.2557  0.6573 -0.2357
  857Sol     OW 6501   0.254   0.003   7.852 -0.1839  0.0605  0.0467
  857Sol     HW 6502   0.289   0.080   7.897  1.1576 -0.8854  0.6816
  857Sol     HW 6503   0.237   0.033   7.763 -1.1748  1.4904  0.6948
  857Sol     MW 6504   0.256   0.013   7.848  0.3429 -0.4194  0.4594
  858Sol     OW 6505   2.568   1.157   7.308 -0.3182 -0.4031 -0.9107
  858Sol     HW 6506   2.523   1.072   7.306  1.1691 -1.1939 -1.9365
  858Sol     HW 6507   2.656   1.138   7.273  0.3776  1.3539 -0.1554
  858Sol     MW 6508   2.572   1.147   7.304  0.2163 -0.3891 -0.4811
  859Sol     OW 6509   0.157   1.115   3.241 -0.1257  0.1143 -0.1219
  859Sol     HW 6510   0.183   1.045   3.301  1.6805  1.4526  0.7226
  859Sol     HW 6511   0.190   1.088   3.156  0.7754  0.0228  0.2498
  859Sol     MW 6512   0.162   1.107   3.239 -0.2689 -0.0894  0.1247
  860Sol     OW 6513   3.004   1.841   6.480  0.0302  0.3946 -0.1376
  860Sol     HW 6514   3.052   1.848   6.562  2.2030  1.2874 -1.4448
  860Sol     HW 6515   2.997   1.747   6.464 -1.3217  0.1854  1.5621
  860Sol     MW 6516   3.008   1.833   6.486  0.0517  0.1008 -0.2083
  861Sol     OW 6517   2.417   0.313   6.474 -0.2828  0.4445  0.0595
  861Sol     HW 6518   2.396   0.232   6.426 -2.9383  0.5325  0.9889
  861Sol     HW 6519   2.452   0.282   6.557  1.4490  0.2805 -0.7144
  861Sol     MW 6520   2.418   0.303   6.477  0.2009 -0.3077  0.2751
  862Sol     OW 6521   1.242   0.220   5.923  0.0932  0.4258  0.7134
  862Sol     HW 6522   1.307   0.288   5.940 -0.4871  1.2170 -0.1537
  862Sol     HW 6523   1.171   0.237   5.985 -0.5788  1.3473 -0.2828
  862Sol     MW 6524   1.241   0.227   5.930  0.0356 -0.1035  0.0466
  863Sol     OW 6525   1.656   1.705   2.827  0.2135  0.2890 -0.7462
  863Sol     HW 6526   1.675   1.765   2.755 -1.9750  0.9167 -0.8333
  863Sol     HW 6527   1.577   1.658   2.800  1.6485 -2.3973 -0.4995
  863Sol     MW 6528   1.651   1.706   2.818 -0.3419  0.7096  0.2969
  864Sol     OW 6529   1.091   2.311   2.797  0.2461  0.0538 -0.1008
  864Sol     HW 6530   1.113   2.397   2.762  0.8547 -0.7369 -1.7503
  864Sol     HW 6531   1.174   2.263   2.796 -0.0229 -0.4596  1.0968
  864Sol     MW 6532   1.101   2.314   2.794  0.1599 -0.0903 -0.0573
  865Sol     OW 6533   0.367   2.358   2.813  0.3261 -0.2602  0.0376
  865Sol     HW 6534   0.441   2.389   2.865  1.0845  0.9802 -1.7406
  865Sol     HW 6535   0.297   2.422   2.830  0.7335  0.4312 -0.8061
  865Sol     MW 6536   0.367   2.367   2.819 -0.0967  0.8081 -0.3784
  866Sol     OW 6537   3.246   1.261   8.720  0.1965 -0.0890  0.1583
  866Sol     HW 6538   3.151   1.273   8.713  0.1956  1.2166  1.9288
  866Sol     HW 6539   3.276   1.253   8.630 -1.4643  0.7072 -0.4879
  866Sol     MW 6540   3.240   1.262   8.711 -0.5724  0.5272 -0.1442
  867Sol     OW 6541   3.177   1.477   2.621  0.6967  0.4506 -0.7225
  867Sol     HW 6542   3.111   1.408   2.611  0.3228 -0.0316  3.9682
  867Sol     HW 6543   3.130   1.557   2.600 -0.6975 -0.1432  0.0335
  867Sol     MW 6544   3.167   1.478   2.618  0.0953  0.0329 -0.1463
  868Sol     OW 6545   0.348   0.985   1.813  0.1812  0.2147 -0.5791
  868Sol     HW 6546   0.356   1.021   1.724 -0.8368  2.3171  0.1432
  868Sol     HW 6547   0.329   1.062   1.868 -0.2273 -1.2010  1.2928
  868Sol     MW 6548   0.347   0.995   1.810 -0.1943 -0.1633 -0.3105
  869Sol     OW 6549   1.458   1.538   1.377 -0.7780  0.1991 -0.4636
  869Sol     HW 6550   1.507   1.592   1.315  0.1453 -0.1522 -0.0459
  869Sol     HW 6551   1.522   1.512   1.442 -1.1749 -1.5292 -0.7364
  869Sol     MW 6552   1.468   1.541   1.377 -0.0187  0.0844 -0.3123
  870Sol     OW 6553   2.227   1.287   8.245 -0.3067  0.5347  0.4276
  870Sol     HW 6554   2.312   1.251   8.269  0.2966  0.7005 -1.3458
  870Sol     HW 6555   2.247   1.374   8.211 -0.8464 -0.3982 -2.4185
  870Sol     MW 6556   2.237   1.292   8.244 -0.0280 -0.0739  0.1740
  871Sol     OW 6557   3.245   0.947   8.163  0.1500 -0.2566 -0.3656
  871Sol     HW 6558   3.338   0.966   8.171 -0.0675  0.1482  1.1856
  871Sol     HW 6559   3.211   0.951   8.252 -1.5395  0.5282 -1.0246
  871Sol     MW 6560   3.250   0.949   8.171  0.5090  0.6640 -0.1617
  872Sol     OW 6561   1.937   0.395   9.764  0.2867  0.6581 -0.3317
  872Sol     HW 6562   1.939   0.385   9.669 -1.9428  0.5042 -0.3849
  872Sol     HW 6563   1.855   0.354   9.791  1.4628 -0.3627  1.8087
  872Sol     MW 6564   1.930   0.391   9.758  0.0426 -0.4422 -0.1262
  873Sol     OW 6565   2.420   0.317   4.018 -0.2626  0.4042  0.7040
  873Sol     HW 6566   2.492   0.257   3.997 -0.8619 -0.7935  1.9651
  873Sol     HW 6567   2.463   0.394   4.054  0.5319  0.8317 -1.0956
  873Sol     MW 6568   2.430   0.318   4.020 -0.1594  0.0118 -0.0542
  874Sol     OW 6569   0.920   0.216   8.553 -0.1863 -0.0153  0.0399
  874Sol     HW 6570   0.848   0.154   8.559 -1.3496  1.1701 -1.1808
  874Sol     HW 6571   0.941   0.220   8.460  0.1000  1.1443  0.1452
  874Sol     MW 6572   0.916   0.211   8.546 -0.4864 -0.0195 -0.5851
  875Sol     OW 6573   3.205   1.205   3.226  0.2592  0.1494 -0.5016
  875Sol     HW 6574   3.290   1.163   3.225  0.3526  0.3086  0.4215
  875Sol     HW 6575   3.214   1.278   3.287 -0.7332 -0.2602  0.1606
  875Sol     MW 6576   3.213   1.208   3.231  0.4226  0.2833  0.1665
  876Sol     OW 6577   1.005   3.365   3.612  0.3564  0.0682 -0.0334
  876Sol     HW 6578   0.947   3.426   3.657  1.7644  2.8067 -1.8114
  876Sol     HW 6579   1.079   3.355   3.672  1.2590  2.0808 -0.7611
  876Sol     MW 6580   1.007   3.370   3.622  0.5830 -0.3176 -0.0189
  877Sol     OW 6581   2.525   1.143   6.916 -0.5149  0.1252 -0.1848
  877Sol     HW 6582   2.534   1.206   6.988 -3.3013  0.7480 -0.3352
  877Sol     HW 6583   2.607   1.151   6.867  0.4493  1.3941  1.5709
  877Sol     MW 6584   2.533   1.149   6.918  0.0431  0.6503  0.0131
  878Sol     OW 6585   2.021   2.131   2.570 -0.3543 -0.1019  0.4034
  878Sol     HW 6586   2.075   2.090   2.638  1.2064 -1.6485 -1.7394
  878Sol     HW 6587   2.081   2.186   2.521 -0.9164 -0.9763 -1.3166
  878Sol     MW 6588   2.031   2.132   2.572  0.2552 -0.3488  0.0726
  879Sol     OW 6589   1.588   2.683   3.353  0.0361  0.5544  0.7145
  879Sol     HW 6590   1.652   2.612   3.361 -1.2793 -0.7661 -0.2694
  879Sol     HW 6591   1.636   2.762   3.380  1.5413 -0.6830  1.7256
  879Sol     MW 6592   1.598   2.684   3.356 -0.1181 -0.3525 -0.3743
  880Sol     OW 6593   3.177   1.369   1.948 -0.3473  0.1335 -0.0417
  880Sol     HW 6594   3.194   1.460   1.970 -1.3049 -0.2670  2.5476
  880Sol     HW 6595   3.099   1.371   1.892  1.2441  1.0669 -2.2979
  880Sol     MW 6596   3.172   1.377   1.945  0.1927  0.5861 -0.5042
  881Sol     OW 6597   1.291   1.645   2.580 -0.5964 -0.2362 -0.1983
  881Sol     HW 6598   1.265   1.737   2.586 -0.0675 -0.1125  0.1922
  881Sol     HW 6599   1.232   1.600   2.641 -0.1307 -0.0052  0.4200
  881Sol     MW 6600   1.283   1.649   2.586 -0.3071  0.2247 -0.5391
  882Sol     OW 6601   1.099   1.571   4.796  0.3201  0.4428  0.5579
  882Sol     HW 6602   1.117   1.490   4.749  1.0464  0.0790  1.4414
  882Sol     HW 6603   1.035   1.617   4.742  0.3485 -0.4489 -0.2415
  882Sol     MW 6604   1.095   1.568   4.787 -0.1795 -0.3203  0.1309
  883Sol     OW 6605   2.017   1.681   7.427  0.2999  0.0072  0.5506
  883Sol     HW 6606   2.091   1.695   7.486  0.9070 -1.0324  0.0515
  883Sol     HW 6607   2.057   1.656   7.344 -0.5703  0.9006 -0.1514
  883Sol     MW 6608   2.027   1.680   7.425 -0.0580 -0.3481 -0.2417
  884Sol     OW 6609   0.704   2.011   7.445  0.2793 -0.5070  0.2236
  884Sol     HW 6610   0.733   2.035   7.533 -0.2970 -0.6575  0.4559
  884Sol     HW 6611   0.611   1.993   7.454  0.1901 -0.4040 -0.4443
  884Sol     MW 6612   0.698   2.011   7.453 -0.3162 -0.3550  0.2471
  885Sol     OW 6613   0.127   1.401   5.157  0.2013  0.0275 -0.2185
  885Sol     HW 6614   0.179   1.329   5.120 -1.4017 -0.5517 -1.4034
  885Sol     HW 6615   0.076   1.361   5.227  0.1870  0.2551 -0.0972
  885Sol     MW 6616   0.127   1.391   5.160 -0.1745  0.1689  0.0412
  886Sol     OW 6617   2.449   2.498   8.290  0.3413 -0.0839  0.2372
  886Sol     HW 6618   2.437   2.592   8.302  0.2550 -0.0797  0.1246
  886Sol     HW 6619   2.425   2.483   8.198  2.0928  0.0724 -0.2539
  886Sol     MW 6620   2.446   2.505   8.283  0.0122 -0.0087 -0.0369
  887Sol     OW 6621   0.274   3.050   9.004  0.2282  0.1267 -0.1965
  887Sol     HW 6622   0.285   3.140   9.032  1.6907 -0.3920  1.0227
  887Sol     HW 6623   0.195   3.020   9.049  1.0799  0.1008  1.3365
  887Sol     MW 6624   0.268   3.055   9.011  0.4516 -0.2536 -0.0678
  888Sol     OW 6625   2.918   2.277   8.889 -0.0775  0.4130  0.1087
  888Sol     HW 6626   2.900   2.258   8.796 -0.4159  0.7424  0.1059
  888Sol     HW 6627   2.972   2.203   8.918 -1.4949 -0.6246  0.1319
  888Sol     MW 6628   2.921   2.269   8.883  0.2012 -0.2425 -0.0587
  889Sol     OW 6629   1.540   2.011   3.509 -0.2511 -0.2495  0.1732
  889Sol     HW 6630   1.503   2.096   3.530 -2.6169 -1.2661  0.3680
  889Sol     HW 6631   1.519   1.998   3.416  0.0562 -0.6382  0.1538
  889Sol     MW 6632   1.535   2.017   3.502  0.2760 -0.0075 -0.0111
  890Sol     OW 6633   2.339   3.178   6.900  0.1617 -0.2156 -0.3632
  890Sol     HW 6634   2.330   3.196   6.994  0.2297 -0.6894 -0.2688
  890Sol     HW 6635   2.365   3.087   6.895  1.2600  0.1168 -0.8017
  890Sol     MW 6636   2.340   3.172   6.908 -0.4187  0.4226  0.2185
  891Sol     OW 6637   1.545   1.899   5.509 -0.0899 -0.1932 -0.2008
  891Sol     HW 6638   1.487   1.846   5.455 -0.7353 -0.1572  0.4522
  891Sol     HW 6639   1.495   1.916   5.589  0.4066  0.7487 -0.0866
  891Sol     MW 6640   1.536   1.896   5.512 -0.4194 -0.7153 -0.5152
  892Sol     OW 6641   0.717   1.170   1.897 -0.5584  0.2193 -0.0004
  892Sol     HW 6642   0.786   1.214   1.947 -0.9627 -0.2584  0.9950
  892Sol     HW 6643   0.763   1.103   1.847 -0.1814  0.5298 -0.0790
  892Sol     MW 6644   0.728   1.168   1.897 -0.0397  0.2670 -0.3423
  893Sol     OW 6645   0.692   0.939   1.314  0.3137 -0.3295  0.1286
  893Sol     HW 6646   0.627   0.895   1.370  0.2158 -0.3845 -0.0294
  893Sol     HW 6647   0.691   1.030   1.344 -1.9436  0.3289 -1.8119
  893Sol     MW 6648   0.686   0.943   1.322 -0.6698  0.1725 -0.8637
  894Sol     OW 6649   1.895   0.949   7.747 -0.0504 -0.4744 -0.1136
  894Sol     HW 6650   1.816   0.897   7.759  0.9104 -1.4685  2.3875
  894Sol     HW 6651   1.938   0.911   7.671 -0.9390 -1.2552 -0.2299
  894Sol     MW 6652   1.892   0.941   7.741 -0.4405  0.3254  0.4075
  895Sol     OW 6653   2.828   2.482   5.931 -0.3187 -0.1162 -0.1348
  895Sol     HW 6654   2.896   2.501   5.865  0.1121  0.0446  0.3514
  895Sol     HW 6655   2.865   2.515   6.013 -0.0665 -2.0225  0.5229
  895Sol     MW 6656   2.837   2.487   5.932 -0.2145 -0.1727 -0.1677
  896Sol     OW 6657   2.782   2.599   9.398 -0.3471  0.1686  0.6083
  896Sol     HW 6658   2.843   2.653   9.347 -0.5472 -1.3030 -1.2637
  896Sol     HW 6659   2.696   2.624   9.365 -0.3977 -1.8448 -0.9177
  896Sol     MW 6660   2.780   2.606   9.390 -0.2465 -0.8569 -0.2660
  897Sol     OW 6661   0.943   1.602   5.316 -0.2902  0.1280 -0.2272
  897Sol     HW 6662   0.941   1.665   5.244 -0.8410 -0.9782 -1.2069
  897Sol     HW 6663   1.034   1.598   5.343 -0.0756  0.5274 -0.8899
  897Sol     MW 6664   0.951   1.607   5.312 -0.0537 -0.5708 -0.4175
  898Sol     OW 6665   2.666   3.243   7.755 -0.0409 -0.2035 -0.1272
  898Sol     HW 6666   2.689   3.151   7.769  1.1731  0.2829  1.1167
  898Sol     HW 6667   2.573   3.241   7.730 -0.3369 -1.6745  1.0286
  898Sol     MW 6668   2.660   3.235   7.754  0.3476  0.1360 -1.0316
  899Sol     OW 6669   1.169   0.655   8.856 -0.1249  0.2031  0.0283
  899Sol     HW 6670   1.097   0.654   8.792  0.9593 -1.2625 -1.2130
  899Sol     HW 6671   1.243   0.691   8.807  0.0731  1.4828  1.2378
  899Sol     MW 6672   1.169   0.658   8.846 -0.2353 -0.6229 -0.3563
  900Sol     OW 6673   1.789   2.851   3.413 -0.8351  0.8064 -0.2107
  900Sol     HW 6674   1.883   2.858   3.399 -0.8240  2.0354  0.4605
  900Sol     HW 6675   1.772   2.900   3.493 -2.1345  1.1201 -0.6572
  900Sol     MW 6676   1.796   2.856   3.419 -0.0495 -0.0234  0.1779
  901Sol     OW 6677   2.025   1.819   2.061  0.0118  0.1861 -0.1979
  901Sol     HW 6678   1.955   1.754   2.067  1.3563 -1.2591  0.2789
  901Sol     HW 6679   1.990   1.895   2.108 -1.0745 -0.6606  0.4115
  901Sol     MW 6680   2.015   1.820   2.066  0.1461 -0.2612 -0.2297
  902Sol     OW 6681   2.640   1.497   1.788  0.0547 -0.0055 -0.1988
  902Sol     HW 6682   2.599   1.423   1.744 -3.3817  0.5253  1.9306
  902Sol     HW 6683   2.687   1.458   1.862  0.1855 -0.2666 -0.4183
  902Sol     MW 6684   2.641   1.487   1.791  0.4914 -0.0823  0.5030
  903Sol     OW 6685   0.760   1.799   4.234  0.0483 -0.1674  0.6173
  903Sol     HW 6686   0.796   1.762   4.154 -0.6132  1.4208 -0.4461
  903Sol     HW 6687   0.721   1.724   4.280  0.8873 -1.1677 -0.2824
  903Sol     MW 6688   0.759   1.789   4.231  0.1748 -0.3486 -0.0606
  904Sol     OW 6689   1.267   2.755   2.089  0.0499 -0.0310 -0.6354
  904Sol     HW 6690   1.261   2.835   2.141  0.4826  0.4899 -1.3748
  904Sol     HW 6691   1.214   2.691   2.137  2.1393 -0.1881  1.5806
  904Sol     MW 6692   1.261   2.756   2.098  0.5567 -0.1598 -0.0154
  905Sol     OW 6693   0.297   1.526   2.183 -0.1629  0.4349 -0.0666
  905Sol     HW 6694   0.393   1.525   2.181 -0.1556  1.0315  0.1201
  905Sol     HW 6695   0.271   1.481   2.103  0.2784 -1.2346  0.6914
  905Sol     MW 6696   0.303   1.522   2.176  0.3759 -0.2711 -0.0050
  906Sol     OW 6697   2.877   2.612   5.602  0.4644 -0.1505  0.0243
  906Sol     HW 6698   2.896   2.572   5.517  0.9337 -1.7064  0.8325
  906Sol     HW 6699   2.793   2.575   5.628  0.7790 -0.4342  0.6664
  906Sol     MW 6700   2.871   2.605   5.597 -0.8123  0.3322 -0.1461
  907Sol     OW 6701   2.784   2.879   7.473  0.3259 -0.0704 -0.6125
  907Sol     HW 6702   2.779   2.895   7.567 -1.5717  0.2607 -0.7470
  907Sol     HW 6703   2.876   2.894   7.451  0.3569  2.1149  0.8036
  907Sol     MW 6704   2.792   2.882   7.479  0.2118 -0.2915 -0.0048
  908Sol     OW 6705   1.464   3.366   3.454 -0.2485  0.3280  0.0796
  908Sol     HW 6706   1.375   3.401   3.457 -1.0524 -1.7370  1.2087
  908Sol     HW 6707   1.493   3.367   3.545  1.1596  1.6215 -0.3644
  908Sol     MW 6708   1.459   3.369   3.462  0.4365 -0.6933 -0.0494
  909Sol     OW 6709   2.006   0.297   9.460  0.0788  0.4429 -0.2602
  909Sol     HW 6710   1.915   0.284   9.437 -0.2513  0.5012  0.9872
  909Sol     HW 6711   2.050   0.314   9.376 -1.5099  3.0628 -0.6240
  909Sol     MW 6712   2.002   0.298   9.450 -0.6717 -0.1445 -0.1439
  910Sol     OW 6713   0.583   1.169   2.635  0.0385  0.0312 -0.1436
  910Sol     HW 6714   0.563   1.259   2.663  1.0777 -0.3617  1.8867
  910Sol     HW 6715   0.601   1.177   2.541  2.1277  2.2699  0.4209
  910Sol     MW 6716   0.583   1.178   2.629 -0.2684  0.7029  0.3042
  911Sol     OW 6717   1.738   1.999   6.416 -0.3911  0.3865  0.1352
  911Sol     HW 6718   1.731   1.913   6.457  1.1584 -0.6182 -1.6322
  911Sol     HW 6719   1.832   2.013   6.405 -0.6198  2.3194  0.3929
  911Sol     MW 6720   1.746   1.992   6.419 -0.2505  0.6279 -0.0338
  912Sol     OW 6721   1.896   1.442   6.093  0.1549 -0.3639  0.5358
  912Sol     HW 6722   1.894   1.350   6.066  1.8736 -0.1136 -0.5491
  912Sol     HW 6723   1.989   1.463   6.100 -0.1841  1.7504 -0.8584
  912Sol     MW 6724   1.904   1.436   6.091 -0.7057 -0.3198  0.4408
  913Sol     OW 6725   3.174   1.623   6.233  0.1890 -0.0899 -0.0754
  913Sol     HW 6726   3.191   1.615   6.139  1.3183  0.3420  0.0985
  913Sol     HW 6727   3.255   1.655   6.271 -0.3506  0.0242  1.0218
  913Sol     MW 6728   3.183   1.625   6.228  0.4217 -0.0370 -0.2286
  914Sol     OW 6729   1.949   1.199   8.241 -0.0717 -0.0329 -0.3919
  914Sol     HW 6730   2.036   1.239   8.238  0.0509 -0.1335  1.4683
  914Sol     HW 6731   1.909   1.235   8.320 -1.5768 -0.3025 -1.0136
  914Sol     MW 6732   1.953   1.206   8.248  0.3936  0.2690 -0.4356
  915Sol     OW 6733   0.499   0.774   5.916  0.3286 -0.0359  0.1322
  915Sol     HW 6734   0.419   0.807   5.874  0.0366 -1.9197 -0.8502
  915Sol     HW 6735   0.562   0.846   5.908 -1.0756  1.2534  0.3957
  915Sol     MW 6736   0.497   0.784   5.911  0.0620 -0.0432  0.3731
  916Sol     OW 6737   2.881   3.332   6.655 -0.5098  0.4256  0.0300
  916Sol     HW 6738   2.833   3.276   6.716 -0.5862 -1.0924 -1.4071
  916Sol     HW 6739   2.969   3.339   6.693 -1.2866  1.6725  1.6753
  916Sol     MW 6740   2.885   3.328   6.664 -0.0699  0.4032  0.3056
  917Sol     OW 6741   2.490   2.252   8.415  0.0889 -0.4296 -1.0339
  917Sol     HW 6742   2.397   2.258   8.439  0.5793 -0.3037  0.9533
  917Sol     HW 6743   2.514   2.342   8.390  0.1510 -0.0093  0.4366
  917Sol     MW 6744   2.484   2.261   8.415  0.2587 -0.5016 -0.4545
  918Sol     OW 6745   1.539   1.060   7.453 -0.0445 -0.5790  0.1989
  918Sol     HW 6746   1.511   0.995   7.518  0.0085 -0.2117  0.5956
  918Sol     HW 6747   1.486   1.043   7.376 -0.2557 -0.8878  0.4161
  918Sol     MW 6748   1.532   1.053   7.452  0.3503 -0.1735 -0.1125
  919Sol     OW 6749   1.554   0.528   1.444  0.3003 -0.0417 -1.0717
  919Sol     HW 6750   1.605   0.590   1.393 -0.1768  1.4820  0.2684
  919Sol     HW 6751   1.465   0.563   1.444  0.3614  0.1723  1.0768
  919Sol     MW 6752   1.550   0.536   1.440  0.2053  0.3093  0.4790
  920Sol     OW 6753   1.755   2.529   8.808  0.1387  0.0124 -0.1038
  920Sol     HW 6754   1.778   2.563   8.721  0.9631 -1.7641 -0.6051
  920Sol     HW 6755   1.838   2.529   8.856  0.4292 -2.4609 -0.5359
  920Sol     MW 6756   1.765   2.532   8.805 -0.1402  0.0049 -0.3103
  921Sol     OW 6757   0.285   2.782   8.168  0.0752  0.7114 -1.0316
  921Sol     HW 6758   0.250   2.693   8.173  1.4256  0.1734 -0.9130
  921Sol     HW 6759   0.309   2.804   8.258  2.1772  0.1861 -1.4481
  921Sol     MW 6760   0.284   2.776   8.176  0.0353 -0.5026  0.2461
  922Sol     OW 6761   1.066   0.853   7.055 -0.2732  0.5362  0.2773
  922Sol     HW 6762   1.107   0.869   7.140 -1.2447  0.9691  0.6772
  922Sol     HW 6763   1.074   0.936   7.008  0.6050  0.1815 -0.2040
  922Sol     MW 6764   1.070   0.862   7.058  0.0289 -0.3471  0.2301
  923Sol     OW 6765   1.608   1.682   2.244  0.0261 -0.4396  0.7152
  923Sol     HW 6766   1.697   1.653   2.225 -1.5240 -3.7258 -2.1147
  923Sol     HW 6767   1.587   1.743   2.173 -0.5322 -0.9114  0.4723
  923Sol     MW 6768   1.614   1.685   2.236 -0.6286  0.3101 -0.4447
  924Sol     OW 6769   2.133   2.254   5.724 -0.3327  0.2789  0.4565
  924Sol     HW 6770   2.122   2.335   5.674 -2.3477 -0.9650 -1.2047
  924Sol     HW 6771   2.117   2.280   5.815  2.5377  2.4075  0.4268
  924Sol     MW 6772   2.130   2.264   5.728  0.5291 -0.5400 -0.2711
  925Sol     OW 6773   0.475   3.179   2.143  0.3541  0.4681  0.2925
  925Sol     HW 6774   0.491   3.229   2.063  1.7957 -1.3569 -0.6156
  925Sol     HW 6775   0.383   3.194   2.163  0.1011  1.3468 -1.4367
  925Sol     MW 6776   0.468   3.185   2.138 -0.6035  0.1179 -0.4722
  926Sol     OW 6777   0.228   1.572   6.423  0.3979  0.3647  0.6253
  926Sol     HW 6778   0.203   1.553   6.333 -0.5781 -1.4818  1.2542
  926Sol     HW 6779   0.190   1.658   6.441  1.5080  1.2286 -1.0354
  926Sol     MW 6780   0.222   1.578   6.417  0.4839 -0.3801  0.7239
  927Sol     OW 6781   2.928   1.389   9.528 -0.1435 -0.0827  0.0220
  927Sol     HW 6782   2.934   1.485   9.533 -0.4399 -0.0285 -0.6346
  927Sol     HW 6783   3.006   1.364   9.479 -1.0569 -0.0233 -1.4747
  927Sol     MW 6784   2.936   1.396   9.524 -0.4952  0.5342 -0.1812
  928Sol     OW 6785   0.870   0.987   8.773 -0.4919 -0.0916 -0.3626
  928Sol     HW 6786   0.821   0.917   8.815 -1.1116  0.4344 -0.1990
  928Sol     HW 6787   0.886   1.051   8.842  0.5492 -0.3156 -0.3826
  928Sol     MW 6788   0.867   0.987   8.783  0.5082 -0.1071  0.7204
  929Sol     OW 6789   0.716   1.703   7.802  0.0627 -0.2052  0.5033
  929Sol     HW 6790   0.747   1.663   7.882  1.0776 -1.0746 -0.3133
  929Sol     HW 6791   0.785   1.686   7.738 -0.3048  1.2866 -0.3143
  929Sol     MW 6792   0.725   1.698   7.803  0.3493  0.5322  0.2319
  930Sol     OW 6793   0.606   1.030   4.062  0.1667  0.0106  0.3223
  930Sol     HW 6794   0.685   0.990   4.098 -0.0277  0.3346  1.1280
  930Sol     HW 6795   0.548   0.957   4.043 -0.0596 -0.1285  1.4816
  930Sol     MW 6796   0.608   1.020   4.064  0.1806 -0.5501  0.2490
  931Sol     OW 6797   0.550   2.151   1.760  0.3433  0.6471 -0.3377
  931Sol     HW 6798   0.606   2.225   1.739  0.2473  0.9020  0.3212
  931Sol     HW 6799   0.602   2.097   1.819  0.6991 -0.1958 -1.3914
  931Sol     MW 6800   0.560   2.152   1.763  0.3782 -0.1844 -0.0139
  932Sol     OW 6801   1.064   2.896   8.765  0.2155  0.6138  0.3935
  932Sol     HW 6802   1.064   2.800   8.764 -0.6307  0.6122  0.4241
  932Sol     HW 6803   1.017   2.921   8.686  0.5594  1.0106  0.3123
  932Sol     MW 6804   1.060   2.890   8.758  0.1126  0.4510 -0.2146
  933Sol     OW 6805   3.133   1.031   6.609 -1.1387  0.2106 -0.0931
  933Sol     HW 6806   3.106   1.026   6.518 -1.1367  1.1634 -0.1561
  933Sol     HW 6807   3.186   0.953   6.624  1.8239  1.7632 -1.9156
  933Sol     MW 6808   3.135   1.024   6.603  0.8077  0.5731  0.1557
  934Sol     OW 6809   0.770   3.270   1.962 -0.0362  0.4876  0.2747
  934Sol     HW 6810   0.790   3.284   2.055 -0.5911  0.9317  0.3279
  934Sol     HW 6811   0.757   3.358   1.927 -0.6546  0.2735 -0.0395
  934Sol     MW 6812   0.771   3.280   1.967  0.1828 -0.8155  0.3863
  935Sol     OW 6813   0.023   3.166   8.067  0.5597  0.1349  0.1602
  935Sol     HW 6814  -0.064   3.129   8.083  0.4737  0.0123 -0.5574
  935Sol     HW 6815   0.005   3.253   8.030  0.6917 -0.8475 -2.3045
  935Sol     MW 6816   0.013   3.171   8.065 -0.2203  0.2561  0.2737
  936Sol     OW 6817   1.200   0.249   7.894  0.0794 -0.0042  0.7887
  936Sol     HW 6818   1.169   0.159   7.904  1.0845 -0.1535  2.6642
  936Sol     HW 6819   1.294   0.241   7.879 -0.1314  0.6567 -1.0527
  936Sol     MW 6820   1.205   0.240   7.893 -0.6231  0.5015 -0.3838
  937Sol     OW 6821   2.748   0.678   1.575  0.6460  0.3737  0.5900
  937Sol     HW 6822   2.780   0.763   1.544  0.9261  0.5504  1.3616
  937Sol     HW 6823   2.778   0.672   1.666 -0.9246  0.2507  1.1201
  937Sol     MW 6824   2.753   0.685   1.580 -0.3287 -0.2439  0.5343
  938Sol     OW 6825   1.276   1.793   4.928 -0.5671 -0.2921 -0.2191
  938Sol     HW 6826   1.258   1.878   4.887 -0.9984 -0.5673 -0.6130
  938Sol     HW 6827   1.197   1.741   4.910 -0.4070 -0.6936  0.2313
  938Sol     MW 6828   1.267   1.796   4.922 -0.2384 -0.0880  0.5897
  939Sol     OW 6829   2.326   1.619   6.291  0.0162 -0.6971  0.1201
  939Sol     HW 6830   2.242   1.613   6.336  0.1200  0.6894  0.5124
  939Sol     HW 6831   2.341   1.712   6.278  0.4474 -1.0111 -1.9418
  939Sol     MW 6832   2.320   1.626   6.294  0.3856  0.0807  0.2680
  940Sol     OW 6833   2.010   1.799   8.664  0.9803 -0.2284 -0.2152
  940Sol     HW 6834   2.072   1.729   8.686  0.6827  0.4245  2.8612
  940Sol     HW 6835   2.009   1.856   8.741 -0.1540  2.1995 -1.9566
  940Sol     MW 6836   2.015   1.798   8.672  0.1034  0.0140  0.0811
  941Sol     OW 6837   1.124   0.471   7.732 -0.6140  0.2774  0.4151
  941Sol     HW 6838   1.041   0.450   7.691 -0.5385  0.3206  0.2411
  941Sol     HW 6839   1.156   0.387   7.766 -0.3152  0.1129 -0.2742
  941Sol     MW 6840   1.120   0.461   7.732  0.2326  0.4057 -0.4131
  942Sol     OW 6841   0.455   2.739   5.648 -0.1148  0.5446 -0.2003
  942Sol     HW 6842   0.491   2.681   5.715 -2.0985 -1.7104 -1.0214
  942Sol     HW 6843   0.478   2.827   5.677  2.9043 -0.6030  1.1306
  942Sol     MW 6844   0.461   2.742   5.656 -0.0063 -0.8362 -0.9915
  943Sol     OW 6845   2.459   2.542   6.303  0.2694  0.1461 -0.0059
  943Sol     HW 6846   2.507   2.469   6.262  0.0957 -0.2551  0.4986
  943Sol     HW 6847   2.521   2.580   6.365  0.7056  1.0770 -0.9999
  943Sol     MW 6848   2.469   2.538   6.305 -0.1028  0.2292  0.2451
  944Sol     OW 6849   2.876   2.344   1.904  0.0992 -0.6417 -0.3270
  944Sol     HW 6850   2.857   2.330   1.811 -0.4383  0.8347 -0.4395
  944Sol     HW 6851   2.864   2.438   1.917 -1.2109 -1.0540  1.5538
  944Sol     MW 6852   2.873   2.351   1.897  0.3235  0.0913  0.0546
  945Sol     OW 6853   1.679   2.892   1.965 -0.0514 -0.1419 -0.1488
  945Sol     HW 6854   1.657   2.807   1.928 -0.7526 -0.2732  0.5262
  945Sol     HW 6855   1.655   2.884   2.058  1.1460  0.3463  0.2097
  945Sol     MW 6856   1.675   2.884   1.970  0.3876  0.2198  0.4362
  946Sol     OW 6857   3.010   0.985   7.911  0.1518  0.0779 -0.1987
  946Sol     HW 6858   3.084   1.006   7.854  0.0029 -1.2572 -0.9094
  946Sol     HW 6859   3.043   0.919   7.971 -0.2306  0.0932  0.0335
  946Sol     MW 6860   3.019   0.981   7.911 -0.2228 -0.4714 -0.5033
  947Sol     OW 6861   0.190   2.604   4.796  0.2148  0.1159  0.1544
  947Sol     HW 6862   0.206   2.698   4.783  1.1647 -0.0763 -0.0988
  947Sol     HW 6863   0.104   2.589   4.757  0.6630  0.6232 -1.0646
  947Sol     MW 6864   0.184   2.611   4.791  0.0319  0.3713  0.3419
  948Sol     OW 6865   2.802   0.640   8.652 -0.4220 -0.6704  0.4903
  948Sol     HW 6866   2.737   0.708   8.640 -0.5786 -0.8390  0.3849
  948Sol     HW 6867   2.833   0.652   8.742  1.1970  0.9665 -0.2401
  948Sol     MW 6868   2.799   0.647   8.659  0.0659  0.3240  0.0374
  949Sol     OW 6869   1.588   0.804   1.763 -0.4532  0.1505  0.1454
  949Sol     HW 6870   1.668   0.751   1.761 -0.6102 -0.2754  3.1297
  949Sol     HW 6871   1.529   0.756   1.821 -1.7480  2.0500  0.4201
  949Sol     MW 6872   1.590   0.795   1.768 -1.0547  0.3145 -0.1435
  950Sol     OW 6873   2.699   3.433   4.214 -0.0905 -0.1323  0.6466
  950Sol     HW 6874   2.791   3.419   4.236 -0.2404 -2.5268 -0.0553
  950Sol     HW 6875   2.651   3.410   4.293 -0.1224  0.2154  0.7264
  950Sol     MW 6876   2.703   3.430   4.223  0.2577 -0.5219 -0.0636
  951Sol     OW 6877   3.016   2.834   7.007 -0.0426 -0.2128 -0.4145
  951Sol     HW 6878   3.006   2.929   7.013 -1.4691 -0.3694 -0.1018
  951Sol     HW 6879   3.100   2.822   6.964  1.2745  1.1716  1.6918
  951Sol     MW 6880   3.022   2.842   7.003  0.2108  0.0007  0.4940
  952Sol     OW 6881   3.321   1.176   6.286 -0.4772  0.0052 -0.2985
  952Sol     HW 6882   3.232   1.160   6.316 -0.8940  3.2765  0.4732
  952Sol     HW 6883   3.372   1.186   6.367 -0.0899  1.3216 -0.6868
  952Sol     MW 6884   3.318   1.176   6.296  0.1850  0.8659  0.0129
  953Sol     OW 6885   3.216   1.427   3.383 -0.2524  0.4310  0.6473
  953Sol     HW 6886   3.302   1.436   3.422 -0.7632 -0.0090  1.8990
  953Sol     HW 6887   3.212   1.494   3.315  1.1138  0.3634  0.4968
  953Sol     MW 6888   3.223   1.434   3.380  0.0493  0.0047  0.0078
  954Sol     OW 6889   1.704   0.165   2.763 -0.1034 -0.3136 -0.3683
  954Sol     HW 6890   1.780   0.151   2.819 -0.0644 -0.3567 -0.4318
  954Sol     HW 6891   1.633   0.118   2.806  0.0646 -0.8470 -0.6648
  954Sol     MW 6892   1.704   0.160   2.772 -0.4838 -0.4009 -0.4237
  955Sol     OW 6893   3.320   1.569   3.878 -0.3829  0.1054 -0.6748
  955Sol     HW 6894   3.266   1.573   3.957  0.3043 -1.0717 -0.1140
  955Sol     HW 6895   3.365   1.654   3.875  1.2512 -0.6292  1.4572
  955Sol     MW 6896   3.319   1.577   3.885 -0.7446 -0.4594  0.0744
  956Sol     OW 6897   0.144   0.846   9.160  0.2734 -0.0263  0.1346
  956Sol     HW 6898   0.149   0.797   9.078 -0.6649 -0.9262  0.5979
  956Sol     HW 6899   0.165   0.937   9.135  1.7046 -0.5882 -0.7855
  956Sol     MW 6900   0.146   0.850   9.150  0.3631  0.2780 -0.0928
  957Sol     OW 6901   0.299   3.236   5.046 -0.1647 -0.1704 -0.5123
  957Sol     HW 6902   0.206   3.246   5.025  0.2416  1.4356 -1.6631
  957Sol     HW 6903   0.343   3.231   4.960  1.1077  2.2324 -0.0386
  957Sol     MW 6904   0.295   3.236   5.036 -0.3687  0.3434  0.4288
  958Sol     OW 6905   1.279   1.906   5.174  0.2390  0.6257 -0.4819
  958Sol     HW 6906   1.188   1.918   5.201 -0.1429 -1.9565 -0.4748
  958Sol     HW 6907   1.273   1.858   5.092  1.5961  0.3339 -0.4139
  958Sol     MW 6908   1.270   1.902   5.169  0.3552  0.2521 -0.3267
  959Sol     OW 6909   2.276   0.093   6.664  0.4008  0.2609 -0.2187
  959Sol     HW 6910   2.363   0.110   6.700  0.1189  1.6985 -0.2031
  959Sol     HW 6911   2.251   0.008   6.701  2.2483 -0.7143 -1.1106
  959Sol     MW 6912   2.282   0.087   6.670  0.0150 -0.3827 -0.0279
  960Sol     OW 6913   1.293   0.508   4.486  0.4168  0.3339  0.0401
  960Sol     HW 6914   1.367   0.454   4.515  0.5477  0.0788 -0.7527
  960Sol     HW 6915   1.216   0.466   4.525  0.8889  2.0763  2.9970
  960Sol     MW 6916   1.293   0.499   4.492 -0.3978  0.3704  0.0768
  961Sol     OW 6917   0.313   1.238   5.865 -0.0488  0.1677 -0.6500
  961Sol     HW 6918   0.293   1.236   5.958 -2.3141 -1.9329 -1.1456
  961Sol     HW 6919   0.295   1.329   5.839  0.1083  0.6398  0.8258
  961Sol     MW 6920   0.310   1.246   5.871  0.3690  0.3057 -0.0321
  962Sol     OW 6921   0.078   2.452   2.427 -0.6048 -0.3534 -0.1026
  962Sol     HW 6922  -0.002   2.411   2.394 -0.9782  0.6572 -0.4842
  962Sol     HW 6923   0.144   2.432   2.362 -0.9382  0.1896 -0.6114
  962Sol     MW 6924   0.077   2.447   2.419 -0.8306 -0.3075  0.4655
  963Sol     OW 6925   2.058   2.299   9.182 -0.3649  0.0749 -0.2951
  963Sol     HW 6926   2.068   2.394   9.186 -0.5957  0.0692  0.4201
  963Sol     HW 6927   1.964   2.284   9.178 -0.3643 -0.1556  0.4625
  963Sol     MW 6928   2.051   2.306   9.182 -0.4619 -0.4861 -0.6116
  964Sol     OW 6929   1.876   0.785   6.317 -0.1801  0.1907  0.5568
  964Sol     HW 6930   1.951   0.770   6.375  1.0671 -2.4159 -1.6277
  964Sol     HW 6931   1.887   0.876   6.287  0.9821  0.4851  1.8112
  964Sol     MW 6932   1.884   0.792   6.319 -0.5399 -0.4445  0.1669
  965Sol     OW 6933   2.464   1.961   4.279 -0.0172 -0.9377 -0.7018
  965Sol     HW 6934   2.556   1.935   4.280  0.1369 -0.4657 -1.7463
  965Sol     HW 6935   2.446   1.980   4.187 -0.6844  0.6534 -0.2612
  965Sol     MW 6936   2.471   1.961   4.271  0.7770 -0.0880  0.8190
  966Sol     OW 6937   1.766   1.117   5.303  0.1187 -0.2941  0.3151
  966Sol     HW 6938   1.812   1.201   5.308 -1.5270  0.6009  1.0875
  966Sol     HW 6939   1.753   1.103   5.209 -2.1391  1.8016  0.2660
  966Sol     MW 6940   1.769   1.124   5.295  0.1669 -1.3710 -0.4566
  967Sol     OW 6941   2.475   1.025   3.559  0.5227 -0.5812 -0.1301
  967Sol     HW 6942   2.565   1.054   3.573 -0.0448  0.4214  1.5852
  967Sol     HW 6943   2.456   1.050   3.469  1.1495  1.4797  0.2761
  967Sol     MW 6944   2.481   1.030   3.552 -0.5596  0.2126  0.6885
  968Sol     OW 6945   0.828   0.807   7.202 -0.1040  0.3559 -1.0693
  968Sol     HW 6946   0.889   0.850   7.142  0.1777  1.1925 -0.2002
  968Sol     HW 6947   0.772   0.878   7.235 -0.9961 -0.2718 -1.2113
  968Sol     MW 6948   0.829   0.817   7.200  0.4619 -0.3806  0.3046
  969Sol     OW 6949   2.912   1.195   9.967 -0.6054 -0.1706  0.3315
  969Sol     HW 6950   2.970   1.145   9.909 -1.0865 -1.1366  0.6863
  969Sol     HW 6951   2.912   1.283   9.929 -0.0061 -0.5077 -0.4784
  969Sol     MW 6952   2.917   1.199   9.958  0.7837 -0.1209  0.2547
  970Sol     OW 6953   2.661   3.057   6.228 -0.2489 -0.3185 -0.0601
  970Sol     HW 6954   2.594   3.102   6.176 -2.7106 -0.2703  3.0271
  970Sol     HW 6955   2.727   3.124   6.245 -0.8797  0.4546 -0.6313
  970Sol     MW 6956   2.661   3.067   6.224  0.3852 -0.2456  0.8775
  971Sol     OW 6957   2.114   1.889   2.955  0.3656  0.3624  0.1963
  971Sol     HW 6958   2.042   1.833   2.925  1.1436 -0.6766  0.2135
  971Sol     HW 6959   2.071   1.955   3.009 -0.3357 -1.9152  2.5694
  971Sol     MW 6960   2.103   1.890   2.957 -0.0766 -0.6336  0.2745
  972Sol     OW 6961   3.145   0.229   3.452 -0.0919 -0.6285 -0.3426
  972Sol     HW 6962   3.145   0.308   3.505 -1.4249 -0.2971 -0.8266
  972Sol     HW 6963   3.192   0.164   3.506 -0.9710 -0.1568  1.0116
  972Sol     MW 6964   3.150   0.230   3.462 -0.7724 -0.0308 -0.0575
  973Sol     OW 6965   3.015   0.481   7.358  0.3525 -0.8241  0.4096
  973Sol     HW 6966   3.023   0.493   7.453  0.4722 -0.4242  0.3496
  973Sol     HW 6967   2.966   0.399   7.348 -0.7823 -0.2148  0.8369
  973Sol     MW 6968   3.011   0.475   7.366 -0.0897  0.0697 -0.2062
  974Sol     OW 6969   1.856   1.220   8.504  0.5303 -0.1230 -0.3942
  974Sol     HW 6970   1.812   1.135   8.501 -4.8102  2.4727 -0.6370
  974Sol     HW 6971   1.847   1.248   8.595 -0.5550  1.5723 -1.0211
  974Sol     MW 6972   1.851   1.215   8.512 -0.2851  0.2871  0.5019
  975Sol     OW 6973   1.206   1.120   6.666  0.2475 -0.1691 -0.4159
  975Sol     HW 6974   1.262   1.046   6.690  0.1021  0.2632  1.3579
  975Sol     HW 6975   1.215   1.128   6.571  2.6247 -0.5622 -0.2583
  975Sol     MW 6976   1.212   1.114   6.660 -0.0958  0.0712  0.1149
  976Sol     OW 6977   3.051   1.838   5.989  0.2412 -0.3570  0.7582
  976Sol     HW 6978   3.097   1.766   5.946  0.2809  0.6443 -0.9446
  976Sol     HW 6979   2.958   1.818   5.978  0.2532 -0.1955  0.3389
  976Sol     MW 6980   3.047   1.830   5.984 -0.4146 -0.4350  0.4414
  977Sol     OW 6981   1.427   3.159   6.953 -0.1886 -0.6290  0.7171
  977Sol     HW 6982   1.496   3.177   6.889 -0.8603 -1.2813 -0.2026
  977Sol     HW 6983   1.440   3.068   6.978 -1.4302 -1.1181 -0.3581
  977Sol     MW 6984   1.434   3.152   6.950  0.2523 -0.0463  0.3988
  978Sol     OW 6985   2.717   2.698   6.349 -0.7731  0.6873  0.7027
  978Sol     HW 6986   2.687   2.725   6.262  1.3363  1.2582  0.1260
  978Sol     HW 6987   2.688   2.768   6.407 -3.4399 -0.3887  0.7019
  978Sol     MW 6988   2.712   2.707   6.346 -0.4313  0.5346 -0.5618
  979Sol     OW 6989   2.032   0.370   9.150  0.2121  0.1411 -0.1863
  979Sol     HW 6990   1.999   0.288   9.111 -0.9789  0.9598 -0.9499
  979Sol     HW 6991   2.113   0.388   9.103 -0.2287  0.1041 -0.9726
  979Sol     MW 6992   2.036   0.364   9.142 -0.5921  0.2780 -0.4952
  980Sol     OW 6993   0.904   2.125   3.887 -0.1852  0.4105 -0.3526
  980Sol     HW 6994   0.834   2.076   3.843 -0.1768 -0.6228  0.7454
  980Sol     HW 6995   0.859   2.198   3.930 -0.4938  0.1517 -0.2337
  980Sol     MW 6996   0.893   2.127   3.887 -0.0421  0.1581 -0.5485
  981Sol     OW 6997   1.297   0.160   3.767 -0.0671  0.4855 -0.6243
  981Sol     HW 6998   1.269   0.076   3.731 -2.6140  0.9521  0.1449
  981Sol     HW 6999   1.373   0.139   3.821 -0.1836 -1.1760 -1.0716
  981Sol     MW 7000   1.301   0.151   3.768  0.4387 -0.7554 -0.4345
  982Sol     OW 7001   3.252   0.926   9.496  0.3677  0.4574  0.3259
  982Sol     HW 7002   3.252   0.901   9.588  0.5841 -1.0263 -0.0588
  982Sol     HW 7003   3.344   0.920   9.470  0.2248  0.2667 -0.1381
  982Sol     MW 7004   3.261   0.923   9.502 -0.3632 -0.3697 -0.2821
  983Sol     OW 7005   1.775   1.742   5.580 -0.0126  0.4222  0.0672
  983Sol     HW 7006   1.852   1.798   5.589 -0.4670  1.2520 -1.0795
  983Sol     HW 7007   1.702   1.803   5.574 -0.6229 -0.3311 -0.1347
  983Sol     MW 7008   1.776   1.752   5.580 -0.5166 -0.0006  0.5362
  984Sol     OW 7009   2.563   0.286   9.471  0.0249  0.9710 -0.2426
  984Sol     HW 7010   2.496   0.218   9.475  1.4481 -0.5787 -1.8654
  984Sol     HW 7011   2.621   0.267   9.545  0.1994  0.6445 -0.4609
  984Sol     MW 7012   2.562   0.278   9.478  0.2864 -0.5613 -0.2753
  985Sol     OW 7013   2.858   1.521   5.296  0.8530 -0.1143 -0.6883
  985Sol     HW 7014   2.875   1.608   5.332  1.4376 -0.6888  0.4677
  985Sol     HW 7015   2.935   1.469   5.321 -0.5346 -1.5785  0.6984
  985Sol     MW 7016   2.866   1.524   5.301 -0.1852  0.6075  0.2808
  986Sol     OW 7017   0.295   2.104   3.893 -0.3778  0.5477  0.0749
  986Sol     HW 7018   0.216   2.138   3.849  0.0138 -0.9636 -1.8888
  986Sol     HW 7019   0.261   2.053   3.966 -1.2809 -0.7974 -1.2620
  986Sol     MW 7020   0.285   2.103   3.895  0.6554  0.2723 -0.0998
  987Sol     OW 7021   0.883   0.427   2.824  0.4297 -0.2091  0.0533
  987Sol     HW 7022   0.917   0.509   2.860  3.9639 -1.4150 -0.3219
  987Sol     HW 7023   0.872   0.369   2.899 -0.6185  0.0828  0.1393
  987Sol     MW 7024   0.885   0.429   2.834  0.3861 -0.3914 -0.6879
  988Sol     OW 7025   0.244   1.054   2.982  0.0796 -0.1409  0.3357
  988Sol     HW 7026   0.306   1.040   2.911  1.2535 -0.7294  1.4647
  988Sol     HW 7027   0.175   1.109   2.943  0.8665 -0.1812 -1.1500
  988Sol     MW 7028   0.243   1.058   2.972 -0.0103  0.2972 -0.7507
  989Sol     OW 7029   0.744   1.536   7.057  0.3267  0.3166 -0.6697
  989Sol     HW 7030   0.683   1.493   7.117  0.8453  0.7518  0.1716
  989Sol     HW 7031   0.688   1.579   6.992 -0.2381 -0.0242 -0.4067
  989Sol     MW 7032   0.734   1.536   7.057 -0.4137  0.1112 -0.2305
  990Sol     OW 7033   2.042   3.256   4.578 -0.1954  0.2215  0.5253
  990Sol     HW 7034   1.947   3.247   4.573 -0.0078 -2.6452  1.0598
  990Sol     HW 7035   2.059   3.283   4.668 -0.5207  1.0118  0.3483
  990Sol     MW 7036   2.035   3.257   4.585  0.6239  0.6531  0.1037
  991Sol     OW 7037   0.738   2.598   7.721 -0.6795  0.1806  0.1340
  991Sol     HW 7038   0.732   2.634   7.632 -1.1534  0.9510  0.4675
  991Sol     HW 7039   0.648   2.572   7.742 -0.5454 -0.1149  0.3386
  991Sol     MW 7040   0.729   2.599   7.715 -0.6045  0.5772  0.0608
  992Sol     OW 7041   1.671   1.199   2.585  0.1845 -1.1051  0.0799
  992Sol     HW 7042   1.696   1.195   2.677 -0.6155  0.3014  0.3689
  992Sol     HW 7043   1.725   1.269   2.548  1.6521 -2.7050 -0.9118
  992Sol     MW 7044   1.678   1.205   2.590 -0.0538  0.2987 -0.3066
  993Sol     OW 7045   3.093   0.432   4.334  0.4837 -0.0273 -0.1573
  993Sol     HW 7046   3.068   0.523   4.321  2.4626  0.3575 -1.5237
  993Sol     HW 7047   3.011   0.383   4.323 -0.4410  1.4925 -0.2373
  993Sol     MW 7048   3.083   0.436   4.332  0.0021 -0.4302  0.0299
  994Sol     OW 7049   2.694   3.278   3.728 -0.2846  0.4434  0.0257
  994Sol     HW 7050   2.677   3.191   3.763  1.6582  0.7834  1.9140
  994Sol     HW 7051   2.741   3.262   3.646  1.4118 -0.2957  1.1162
  994Sol     MW 7052   2.697   3.269   3.723 -0.3091  0.0832  0.0734
  995Sol     OW 7053   2.735   2.246   9.494  0.0501  0.6701 -0.9740
  995Sol     HW 7054   2.793   2.292   9.555 -1.8407  2.3700 -0.3776
  995Sol     HW 7055   2.746   2.291   9.411  1.2076 -0.4325 -1.4365
  995Sol     MW 7056   2.741   2.254   9.492 -0.1737 -0.2814 -0.4260
  996Sol     OW 7057   0.626   2.566   5.380 -0.0579  0.3241 -0.2575
  996Sol     HW 7058   0.593   2.601   5.298  1.1006  0.7666 -0.5401
  996Sol     HW 7059   0.647   2.474   5.361 -1.0169  0.0688 -0.1018
  996Sol     MW 7060   0.625   2.561   5.371 -0.2136  0.6520 -0.0586
  997Sol     OW 7061   2.142   3.090   4.365  0.5097  0.2114  0.7320
  997Sol     HW 7062   2.085   3.114   4.292  1.2487 -0.0848  0.0504
  997Sol     HW 7063   2.122   3.153   4.434 -0.6667  0.0839  0.5105
  997Sol     MW 7064   2.135   3.097   4.365 -0.5802 -0.1063 -0.5330
  998Sol     OW 7065   0.486   2.619   8.589 -0.4302  0.2418 -0.1130
  998Sol     HW 7066   0.465   2.535   8.548 -2.8137  0.6523  0.2078
  998Sol     HW 7067   0.465   2.684   8.523 -1.0593  0.7243  0.5565
  998Sol     MW 7068   0.482   2.617   8.580  0.9874 -0.1079 -0.3270
  999Sol     OW 7069   0.285   0.342   4.739 -0.0265  0.2033  0.7311
  999Sol     HW 7070   0.248   0.268   4.786  0.5091 -0.7770 -0.3630
  999Sol     HW 7071   0.236   0.418   4.771 -1.5178 -0.7993  0.8541
  999Sol     MW 7072   0.278   0.342   4.746  0.0098  0.0922  0.2367
 1000Sol     OW 7073   0.588   0.515   2.710 -0.2914  0.5737  0.0724
 1000Sol     HW 7074   0.513   0.462   2.735 -0.2556 -0.3449 -1.6843
 1000Sol     HW 7075   0.661   0.479   2.760 -0.5707  0.0023  0.0699
 1000Sol     MW 7076   0.588   0.507   2.717 -0.5969 -0.1207 -0.2505
 1001Sol     OW 7077   1.471   2.734   8.735 -0.4827  0.5227 -0.5122
 1001Sol     HW 7078   1.453   2.797   8.805  0.2793  1.3174 -1.0132
 1001Sol     HW 7079   1.525   2.783   8.673  0.4543 -0.7511 -0.7239
 1001Sol     MW 7080   1.475   2.744   8.736  0.0482 -0.4860 -0.3087
 1002Sol     OW 7081   1.352   1.231   3.517  0.4334 -0.2579  0.2248
 1002Sol     HW 7082   1.267   1.263   3.487  1.5149  0.1260 -2.6538
 1002Sol     HW 7083   1.332   1.163   3.580 -2.0315 -0.4903 -0.7570
 1002Sol     MW 7084   1.343   1.228   3.520 -0.1546 -0.0317  0.2587
 1003Sol     OW 7085   3.037   2.631   8.707  0.2151 -0.3559  0.6136
 1003Sol     HW 7086   3.074   2.707   8.752 -0.3219 -0.0644  0.5664
 1003Sol     HW 7087   3.109   2.598   8.653  1.0842 -1.1406  2.2242
 1003Sol     MW 7088   3.047   2.635   8.706  0.0256 -0.2407  0.3953
 1004Sol     OW 7089   2.960   2.728   2.883  0.1205  0.2737  0.2166
 1004Sol     HW 7090   2.949   2.806   2.828 -1.1999 -0.3951 -0.4850
 1004Sol     HW 7091   2.937   2.758   2.972 -1.1787  0.4977 -0.1825
 1004Sol     MW 7092   2.957   2.738   2.886  0.1702  0.0460  0.2960
 1005Sol     OW 7093   0.849   0.729   3.346  0.1890  0.0621  0.3430
 1005Sol     HW 7094   0.820   0.668   3.415 -0.1045  1.7814  1.7694
 1005Sol     HW 7095   0.891   0.672   3.281  0.1510 -1.6515  1.7608
 1005Sol     MW 7096   0.850   0.718   3.347 -0.3787 -0.2717  0.5448
 1006Sol     OW 7097   2.841   0.366   5.641  0.0502  0.9754 -0.0604
 1006Sol     HW 7098   2.936   0.364   5.633  0.0488  1.9415 -0.3911
 1006Sol     HW 7099   2.825   0.363   5.735  0.3287 -1.5161 -0.0633
 1006Sol     MW 7100   2.848   0.365   5.649  0.1391 -0.1019  0.1803
 1007Sol     OW 7101   0.318   2.159   4.494  0.1041 -0.1135 -0.1740
 1007Sol     HW 7102   0.276   2.213   4.428  1.7431 -0.1092 -1.2516
 1007Sol     HW 7103   0.408   2.148   4.462  1.1340  0.4648  2.3792
 1007Sol     MW 7104   0.322   2.163   4.485  0.1083  0.0254 -0.2019
 1008Sol     OW 7105   1.550   0.663   9.021 -0.0018  0.1601  0.0291
 1008Sol     HW 7106   1.584   0.574   9.029 -0.1263  0.1645  0.6293
 1008Sol     HW 7107   1.626   0.716   8.998  0.7665  0.4543  3.0212
 1008Sol     MW 7108   1.559   0.659   9.020  0.2209 -0.0850  0.1655
 1009Sol     OW 7109   2.082   2.946   6.569  0.3726  0.1593 -0.1560
 1009Sol     HW 7110   2.170   2.909   6.582 -0.6161 -1.9591  0.6833
 1009Sol     HW 7111   2.048   2.900   6.492 -0.2815  0.4692 -0.0560
 1009Sol     MW 7112   2.087   2.938   6.563  0.0883 -0.4269  0.4449
 1010Sol     OW 7113   2.960   3.116   7.012 -0.3267  0.2081  0.4101
 1010Sol     HW 7114   3.024   3.105   6.942 -1.6755  0.9598 -0.9912
 1010Sol     HW 7115   2.989   3.193   7.060 -0.0716  0.4155 -0.0836
 1010Sol     MW 7116   2.968   3.122   7.010  0.1471 -0.3815 -0.2559
 1011Sol     OW 7117   1.112   2.821   7.859 -0.0044 -0.2545  0.1638
 1011Sol     HW 7118   1.089   2.747   7.804  2.3126 -1.0529  0.1832
 1011Sol     HW 7119   1.177   2.785   7.920  0.1992  1.4931  0.9959
 1011Sol     MW 7120   1.116   2.811   7.860 -0.0275 -0.1923 -0.5318
 1012Sol     OW 7121   1.202   2.461   9.567 -0.1446  0.0948  0.7561
 1012Sol     HW 7122   1.283   2.410   9.564  0.2545  0.7836 -1.6708
 1012Sol     HW 7123   1.135   2.400   9.536  0.2588  0.8629 -1.7213
 1012Sol     MW 7124   1.203   2.451   9.564 -0.0613  0.2624 -0.2550
 1013Sol     OW 7125   1.689   0.728   2.952  0.4063  0.2591 -0.6103
 1013Sol     HW 7126   1.711   0.691   3.037  0.6081 -1.4651 -1.3948
 1013Sol     HW 7127   1.615   0.787   2.969  0.0167 -0.5812  0.6345
 1013Sol     MW 7128   1.685   0.730   2.961 -0.4714 -0.2280  0.2778
 1014Sol     OW 7129   1.383   0.948   1.671 -0.2470 -0.4083 -0.0502
 1014Sol     HW 7130   1.319   0.953   1.742  0.0930  1.6637  0.1639
 1014Sol     HW 7131   1.451   0.890   1.704 -0.3920  0.0498  1.0825
 1014Sol     MW 7132   1.383   0.943   1.681  0.1925 -0.1580 -0.5567
 1015Sol     OW 7133   1.886   2.243   2.978  0.1873  0.3707  0.2505
 1015Sol     HW 7134   1.870   2.332   3.010  1.2282  1.2113 -1.5160
 1015Sol     HW 7135   1.981   2.234   2.978  0.0583 -1.2251  1.6603
 1015Sol     MW 7136   1.893   2.251   2.981 -0.3835 -0.1795 -0.2400
 1016Sol     OW 7137   2.931   1.647   3.932  0.1544  0.2212 -0.0113
 1016Sol     HW 7138   2.982   1.696   3.869 -0.5168  2.5053  1.1548
 1016Sol     HW 7139   2.994   1.619   3.999  0.6065 -0.9023 -0.8951
 1016Sol     MW 7140   2.941   1.649   3.933 -0.2972  0.0059  0.0344
 1017Sol     OW 7141   2.449   1.215   7.989 -0.5019  0.4168  0.0661
 1017Sol     HW 7142   2.525   1.157   7.986 -0.3097  0.5220  2.6362
 1017Sol     HW 7143   2.374   1.155   7.992 -0.5501  0.3173 -2.1233
 1017Sol     MW 7144   2.449   1.204   7.989  0.4482 -0.2606 -0.6453
 1018Sol     OW 7145   0.819   2.596   4.068 -0.4435 -0.1003 -0.5825
 1018Sol     HW 7146   0.896   2.599   4.124 -0.6575  1.8136 -0.3692
 1018Sol     HW 7147   0.776   2.681   4.081 -0.0200  0.7635 -4.2819
 1018Sol     MW 7148   0.822   2.604   4.074 -0.0422  0.3693 -0.0917
 1019Sol     OW 7149   0.772   1.924   9.306  0.2591 -0.5197  0.1851
 1019Sol     HW 7150   0.680   1.937   9.327  0.9401  3.3486  1.2669
 1019Sol     HW 7151   0.787   1.975   9.227  1.8092  0.3818  1.0156
 1019Sol     MW 7152   0.765   1.930   9.301 -0.0163 -0.3445  0.0930
 1020Sol     OW 7153   1.625   2.305   1.838  0.5702 -0.2283  0.4186
 1020Sol     HW 7154   1.575   2.298   1.920  0.4782 -1.2999  0.2832
 1020Sol     HW 7155   1.700   2.360   1.860 -0.1166  0.5379  0.8949
 1020Sol     MW 7156   1.627   2.309   1.847 -0.4749 -0.1900  0.5947
 1021Sol     OW 7157   2.701   0.497   5.279 -0.4147 -0.0278 -0.4444
 1021Sol     HW 7158   2.613   0.530   5.263 -0.7155 -0.2287  0.7755
 1021Sol     HW 7159   2.741   0.561   5.338 -0.4788 -1.0135  0.7045
 1021Sol     MW 7160   2.697   0.505   5.283  0.1728  1.1938 -0.3579
 1022Sol     OW 7161   1.846   1.891   4.638  0.0406 -0.3522 -0.1959
 1022Sol     HW 7162   1.782   1.820   4.635  1.5726 -1.9288  2.6807
 1022Sol     HW 7163   1.839   1.932   4.552 -2.5110 -2.5268 -1.1084
 1022Sol     MW 7164   1.840   1.888   4.630  0.0594  0.4547  0.0997
 1023Sol     OW 7165   1.952   1.714   7.017 -0.3969  0.2629  0.1391
 1023Sol     HW 7166   1.901   1.633   7.013  3.3946 -2.2725  0.1190
 1023Sol     HW 7167   1.971   1.735   6.926  1.0801 -0.5532  0.2327
 1023Sol     MW 7168   1.949   1.708   7.009 -0.0287 -0.2590 -0.5026
 1024Sol     OW 7169   1.574   0.306   2.335  0.3464 -0.4225  0.0697
 1024Sol     HW 7170   1.545   0.217   2.317  0.1003  0.0521 -2.0295
 1024Sol     HW 7171   1.632   0.327   2.262 -1.5616  1.9988 -0.8157
 1024Sol     MW 7172   1.576   0.300   2.327 -0.1046 -0.1881 -0.1197
 1025Sol     OW 7173   2.494   0.303   8.523  0.2688  0.4080 -0.0825
 1025Sol     HW 7174   2.424   0.358   8.559  1.1782  0.2275  2.0658
 1025Sol     HW 7175   2.574   0.349   8.546  0.9699 -0.9496  0.2033
 1025Sol     MW 7176   2.495   0.312   8.528  0.4098  0.0691 -0.4368
 1026Sol     OW 7177   1.427   3.195   9.487 -0.7080  0.2366 -0.8995
 1026Sol     HW 7178   1.357   3.134   9.465 -2.0279  1.0946  0.7925
 1026Sol     HW 7179   1.478   3.150   9.555 -1.6141  0.9359  0.2657
 1026Sol     MW 7180   1.426   3.186   9.491 -0.3447  0.0814 -0.0741
 1027Sol     OW 7181   0.739   2.321   4.033 -0.2634  0.9914  0.0588
 1027Sol     HW 7182   0.655   2.300   4.072 -0.8048 -0.5167 -1.8417
 1027Sol     HW 7183   0.758   2.411   4.062 -1.5402  0.6194  2.1228
 1027Sol     MW 7184   0.733   2.327   4.039 -0.4473 -0.2059  0.5107
 1028Sol     OW 7185   2.636   0.748   5.746 -0.0996  0.1099  0.6202
 1028Sol     HW 7186   2.647   0.805   5.822 -1.6160 -0.7393  1.5142
 1028Sol     HW 7187   2.553   0.704   5.762  0.4071 -1.3596 -0.6944
 1028Sol     MW 7188   2.630   0.749   5.755 -0.0455 -0.1165 -0.1039
 1029Sol     OW 7189   3.183   0.905   8.865  0.0618 -0.3658  0.1291
 1029Sol     HW 7190   3.255   0.968   8.860  0.3150 -0.6236  0.4813
 1029Sol     HW 7191   3.141   0.910   8.779 -0.9837  1.5255  0.7374
 1029Sol     MW 7192   3.186   0.911   8.857 -0.7410  0.0172  0.0207
 1030Sol     OW 7193   0.880   2.754   6.303 -0.3699  0.5083 -0.1727
 1030Sol     HW 7194   0.953   2.694   6.290 -0.1037  0.6972  0.4330
 1030Sol     HW 7195   0.914   2.839   6.276 -0.0957  0.7433  0.8681
 1030Sol     MW 7196   0.890   2.756   6.299  0.7153  0.1899  0.3436
 1031Sol     OW 7197   0.833   0.983   1.716 -0.2020  0.0595  0.3271
 1031Sol     HW 7198   0.849   1.019   1.629  1.1809 -0.5739  0.2985
 1031Sol     HW 7199   0.747   0.942   1.710 -0.2770  0.3560 -0.6291
 1031Sol     MW 7200   0.827   0.982   1.708  0.6818  0.2230  0.3149
 1032Sol     OW 7201   3.322   3.224   2.953  0.0503 -0.1358  0.0142
 1032Sol     HW 7202   3.227   3.214   2.947  0.1254  0.3352 -2.5288
 1032Sol     HW 7203   3.357   3.162   2.889  1.3589  1.1373 -0.5304
 1032Sol     MW 7204   3.316   3.218   2.947 -0.1268  0.4550  0.3739
 1033Sol     OW 7205   1.141   2.044   7.379 -0.3218 -0.0633  0.5068
 1033Sol     HW 7206   1.073   2.033   7.446 -1.3364 -0.2062 -0.5266
 1033Sol     HW 7207   1.133   1.967   7.324  0.7262 -0.1023  0.4051
 1033Sol     MW 7208   1.134   2.036   7.380 -0.0727  0.0402  0.2325
 1034Sol     OW 7209   2.189   3.178   2.799  0.5363  0.1266 -0.0734
 1034Sol     HW 7210   2.248   3.196   2.726  0.7398  1.7483  0.4775
 1034Sol     HW 7211   2.247   3.172   2.875 -0.0061  1.6772  0.4596
 1034Sol     MW 7212   2.200   3.179   2.799  0.4075 -0.5776  0.1565
 1035Sol     OW 7213   1.294   1.937   1.486  0.6328  0.1709 -0.3913
 1035Sol     HW 7214   1.365   1.921   1.549  0.9835  0.2080 -0.7738
 1035Sol     HW 7215   1.312   2.024   1.450  0.6790 -0.0307 -0.8597
 1035Sol     MW 7216   1.302   1.943   1.488  0.4376  0.2196 -0.1478
 1036Sol     OW 7217   2.609   0.133   3.994 -0.8929 -0.1271 -0.0046
 1036Sol     HW 7218   2.563   0.073   3.935 -2.1998  0.5642  0.2999
 1036Sol     HW 7219   2.644   0.076   4.063 -0.9549 -0.7108 -0.4513
 1036Sol     MW 7220   2.608   0.122   3.995 -0.2606 -0.3426 -0.7056
 1037Sol     OW 7221   2.671   2.817   6.104  0.2203 -0.2743  0.4811
 1037Sol     HW 7222   2.730   2.829   6.029  1.3398 -2.8052  0.9187
 1037Sol     HW 7223   2.686   2.895   6.158  0.6731  0.7317 -1.0600
 1037Sol     MW 7224   2.678   2.825   6.102 -0.1512  0.1085 -0.4848
 1038Sol     OW 7225   2.820   1.909   2.930  0.3614  0.3362 -0.1344
 1038Sol     HW 7226   2.754   1.967   2.891 -1.7723 -1.0278  1.3486
 1038Sol     HW 7227   2.826   1.938   3.021 -0.9007 -1.8490  0.6823
 1038Sol     MW 7228   2.814   1.917   2.934 -0.4341 -0.2213 -0.2028
 1039Sol     OW 7229   2.656   2.048   6.653  0.2968 -0.0422 -0.2958
 1039Sol     HW 7230   2.666   2.026   6.746  0.9360  0.9148 -0.1292
 1039Sol     HW 7231   2.744   2.074   6.625 -0.1044  0.7063 -0.8940
 1039Sol     MW 7232   2.665   2.048   6.659 -0.6850  0.5900 -0.9474
 1040Sol     OW 7233   2.904   2.027   3.197  0.7641  0.7005 -0.0273
 1040Sol     HW 7234   2.845   2.053   3.267 -0.4756 -2.1929  0.0647
 1040Sol     HW 7235   2.943   1.945   3.228  0.6949 -0.2782 -2.4257
 1040Sol     MW 7236   2.903   2.022   3.206  0.1564  0.0238 -0.0692
 1041Sol     OW 7237   2.883   3.234   5.505 -0.3400  0.2307 -0.1074
 1041Sol     HW 7238   2.811   3.242   5.567 -0.9866  1.4717 -0.9972
 1041Sol     HW 7239   2.960   3.265   5.553 -0.9541  1.8201 -0.1275
 1041Sol     MW 7240   2.884   3.238   5.515 -0.3602 -0.3375 -0.4450
 1042Sol     OW 7241   0.516   1.433   6.132  0.3587  0.0684 -0.5596
 1042Sol     HW 7242   0.526   1.455   6.224  0.2045 -0.9781 -0.2805
 1042Sol     HW 7243   0.531   1.515   6.085  1.2643  0.4323  0.3479
 1042Sol     MW 7244   0.519   1.442   6.136 -0.1933 -0.1418  0.2667
 1043Sol     OW 7245   0.564   3.275   8.483  0.5232  0.2114 -0.5930
 1043Sol     HW 7246   0.520   3.345   8.531  0.2132 -0.2798 -0.1537
 1043Sol     HW 7247   0.570   3.203   8.546 -0.7588 -0.7835 -1.5845
 1043Sol     MW 7248   0.561   3.275   8.493 -0.2363 -0.6461 -0.1288
 1044Sol     OW 7249   0.674   1.425   8.643 -0.3418 -0.1937  0.0810
 1044Sol     HW 7250   0.673   1.335   8.608 -3.5984  0.4231 -1.5693
 1044Sol     HW 7251   0.666   1.414   8.738  1.6973 -1.6939  0.1161
 1044Sol     MW 7252   0.673   1.416   8.648  0.2516 -0.1207  0.6202
 1045Sol     OW 7253   2.146   0.570   2.219  0.2780  0.6127 -0.3023
 1045Sol     HW 7254   2.080   0.531   2.276  0.2904  0.3282 -0.4811
 1045Sol     HW 7255   2.101   0.643   2.177 -0.1931 -0.1368 -1.1149
 1045Sol     MW 7256   2.136   0.573   2.220  0.1185 -0.4470  0.2378
 1046Sol     OW 7257   1.280   0.392   4.108  0.9121  0.1017 -0.2983
 1046Sol     HW 7258   1.303   0.320   4.166  0.1805  0.7199  0.7760
 1046Sol     HW 7259   1.205   0.359   4.058  0.8998 -0.0673 -0.1690
 1046Sol     MW 7260   1.275   0.383   4.109  0.1101  0.0197  0.4663
 1047Sol     OW 7261   1.043   2.807   1.653  0.9131 -0.4110 -0.0258
 1047Sol     HW 7262   1.051   2.885   1.598  1.1347 -0.5949 -0.2563
 1047Sol     HW 7263   1.026   2.842   1.741 -1.0510 -0.1668 -0.4812
 1047Sol     MW 7264   1.043   2.817   1.656  0.1061  0.3153 -0.3781
 1048Sol     OW 7265   1.922   1.473   3.612  0.3435  0.7001  0.8326
 1048Sol     HW 7266   1.899   1.513   3.529  1.5047 -0.7358 -0.2108
 1048Sol     HW 7267   1.929   1.379   3.593 -0.2555  0.2348  2.7381
 1048Sol     MW 7268   1.921   1.468   3.603 -0.1719 -0.1167 -0.1269
 1049Sol     OW 7269   0.329   0.527   9.221  0.0375 -0.0214 -0.2464
 1049Sol     HW 7270   0.254   0.519   9.280  0.1825 -0.1537 -0.0812
 1049Sol     HW 7271   0.366   0.613   9.241 -0.0616  0.0376 -0.3178
 1049Sol     MW 7272   0.326   0.534   9.228 -0.0802  0.3927 -0.0408
 1050Sol     OW 7273   0.740   3.227   8.246 -0.2189 -0.3646  0.2069
 1050Sol     HW 7274   0.693   3.194   8.170  0.8018  2.2834 -1.6464
 1050Sol     HW 7275   0.671   3.244   8.311 -1.6133  1.2425 -1.6201
 1050Sol     MW 7276   0.729   3.226   8.245 -0.1809 -0.2148 -0.2979
 1051Sol     OW 7277   2.956   0.130   5.303  0.4863 -0.1969 -0.0717
 1051Sol     HW 7278   2.892   0.090   5.244 -0.4655  0.2194  0.6528
 1051Sol     HW 7279   3.040   0.119   5.259 -0.3466  1.1342 -2.0550
 1051Sol     MW 7280   2.958   0.125   5.294  0.2176 -0.2662 -0.5970
 1052Sol     OW 7281   2.938   0.350   3.296  0.0954 -0.2772 -0.1035
 1052Sol     HW 7282   2.888   0.300   3.232  1.0169 -1.5204  0.1358
 1052Sol     HW 7283   3.000   0.287   3.332 -0.6011  0.3297  2.2196
 1052Sol     MW 7284   2.939   0.340   3.293 -0.3845  0.1976 -0.7237
 1053Sol     OW 7285   1.024   2.392   9.165  0.3529  0.3929  0.0483
 1053Sol     HW 7286   0.933   2.392   9.136  0.5963 -0.1219 -0.7407
 1053Sol     HW 7287   1.062   2.315   9.124  0.6268 -0.5860  2.0706
 1053Sol     MW 7288   1.019   2.385   9.159  0.2429 -0.2606 -1.0540
 1054Sol     OW 7289   0.489   1.382   7.686 -0.1686  0.2496 -0.0468
 1054Sol     HW 7290   0.462   1.474   7.678 -1.2286  0.2401  2.9028
 1054Sol     HW 7291   0.572   1.386   7.734 -0.2466 -0.3418  0.1326
 1054Sol     MW 7292   0.494   1.391   7.689 -0.3404 -0.5158  0.0110
 1055Sol     OW 7293   0.947   0.108   9.414  0.2413  0.0514 -0.2736
 1055Sol     HW 7294   1.036   0.145   9.418 -0.5814  2.0263  0.3776
 1055Sol     HW 7295   0.960   0.017   9.389  2.3761  0.6806 -1.5800
 1055Sol     MW 7296   0.956   0.103   9.412 -0.7712  0.0609 -0.9156
 1056Sol     OW 7297   0.347   2.652   5.230  0.2704 -0.3371 -0.1189
 1056Sol     HW 7298   0.329   2.746   5.236 -1.2681 -0.6727  0.9965
 1056Sol     HW 7299   0.331   2.620   5.319 -1.4802 -2.0278 -1.0312
 1056Sol     MW 7300   0.344   2.658   5.239  0.5002 -0.0249 -0.0651
 1057Sol     OW 7301   0.405   1.855   6.700 -0.4906  0.1570  0.1442
 1057Sol     HW 7302   0.403   1.951   6.706 -0.0037  0.1162  1.1882
 1057Sol     HW 7303   0.431   1.837   6.610  0.6302  1.0297  0.2726
 1057Sol     MW 7304   0.407   1.862   6.693  0.1306  0.1929 -0.6408
 1058Sol     OW 7305   0.217   3.212   7.724 -0.2647 -0.2612 -0.2659
 1058Sol     HW 7306   0.270   3.145   7.766 -0.4689  0.2634  0.8402
 1058Sol     HW 7307   0.239   3.293   7.771  0.7489  0.6593 -2.2251
 1058Sol     MW 7308   0.224   3.214   7.732 -0.5607 -0.0515 -0.2241
 1059Sol     OW 7309   2.928   3.244   7.911 -0.0939 -0.0338 -0.0916
 1059Sol     HW 7310   2.959   3.314   7.969 -0.9320  0.6406 -0.4372
 1059Sol     HW 7311   2.834   3.261   7.901 -0.3328 -1.3119 -0.0561
 1059Sol     MW 7312   2.922   3.252   7.915 -0.7416  0.1112 -0.1173
 1060Sol     OW 7313   2.419   0.612   2.292 -0.1554 -0.3194 -0.2630
 1060Sol     HW 7314   2.337   0.575   2.259 -2.4210  0.8400  3.6661
 1060Sol     HW 7315   2.476   0.537   2.304 -1.1751 -1.3402 -1.5610
 1060Sol     MW 7316   2.416   0.602   2.290 -0.3460 -0.2789  0.0669
 1061Sol     OW 7317   1.080   0.720   4.931  0.2836  0.2652  0.2913
 1061Sol     HW 7318   1.070   0.758   4.844  1.8835 -1.2980 -0.6119
 1061Sol     HW 7319   1.024   0.642   4.929 -0.7440  0.9802  1.1343
 1061Sol     MW 7320   1.074   0.716   4.923 -0.3009  0.1637 -0.4314
 1062Sol     OW 7321   0.101   2.422   8.418  0.1089  0.0261 -0.4693
 1062Sol     HW 7322   0.181   2.394   8.462 -0.9436 -2.4687 -0.0597
 1062Sol     HW 7323   0.129   2.446   8.330  1.6148  1.2177  0.3064
 1062Sol     MW 7324   0.110   2.422   8.414 -0.2733  0.1708  0.6857
 1063Sol     OW 7325   1.961   0.612   6.100  0.1814 -0.3899  0.4282
 1063Sol     HW 7326   1.935   0.680   6.162  2.2062  0.9620 -0.1454
 1063Sol     HW 7327   2.027   0.561   6.146  0.2070 -0.6505  0.1048
 1063Sol     MW 7328   1.964   0.614   6.109 -0.3681 -0.0239 -0.2124
 1064Sol     OW 7329   0.043   0.247   4.434  0.5181  0.0747 -0.4352
 1064Sol     HW 7330   0.109   0.314   4.450 -1.8781  1.8393  2.4600
 1064Sol     HW 7331  -0.011   0.283   4.363 -0.1969  0.8219  0.4746
 1064Sol     MW 7332   0.044   0.256   4.429  0.4073 -0.1254  0.1369
 1065Sol     OW 7333   1.883   0.448   5.641 -0.0314  0.0935 -0.0584
 1065Sol     HW 7334   1.961   0.490   5.677 -1.0344  1.5874  0.4447
 1065Sol     HW 7335   1.908   0.423   5.552  0.8415  1.1017 -0.1164
 1065Sol     MW 7336   1.892   0.450   5.636 -0.6058 -0.1880 -0.2255
 1066Sol     OW 7337   2.534   1.924   7.577  0.3015  0.3222  0.1997
 1066Sol     HW 7338   2.444   1.919   7.607  0.7619 -1.0630  1.3880
 1066Sol     HW 7339   2.537   2.003   7.523 -0.9380  1.9048  2.4033
 1066Sol     MW 7340   2.526   1.930   7.575  0.2640 -0.3268 -0.6614
 1067Sol     OW 7341   1.708   3.279   8.784 -0.0295  0.1194 -0.6597
 1067Sol     HW 7342   1.801   3.260   8.796  0.1679  2.0773  1.1911
 1067Sol     HW 7343   1.677   3.306   8.871 -2.3031 -0.4017 -1.2649
 1067Sol     MW 7344   1.713   3.280   8.793 -0.0627  0.1115 -0.2498
 1068Sol     OW 7345   0.483   2.939   9.157  0.0682 -0.0159  0.5972
 1068Sol     HW 7346   0.533   3.021   9.162 -0.8842  0.5699  0.5110
 1068Sol     HW 7347   0.407   2.960   9.103 -0.1223 -0.9918  0.4815
 1068Sol     MW 7348   0.481   2.948   9.153  0.1438 -0.0498  0.6094
 1069Sol     OW 7349   1.769   0.647   2.048  0.0832 -0.1999 -0.4979
 1069Sol     HW 7350   1.766   0.642   1.952 -1.0912 -2.0088 -0.3918
 1069Sol     HW 7351   1.773   0.555   2.077 -0.2757  0.3017  1.2004
 1069Sol     MW 7352   1.769   0.638   2.042  0.2595 -0.7861  0.0887
 1070Sol     OW 7353   1.327   3.252   2.282 -0.7998  0.6997 -0.4295
 1070Sol     HW 7354   1.364   3.316   2.221 -1.0625  1.8793  0.6314
 1070Sol     HW 7355   1.232   3.257   2.267 -0.7356 -0.3892 -1.2583
 1070Sol     MW 7356   1.322   3.259   2.275  0.1614  0.1963 -0.1391
 1071Sol     OW 7357   3.025   2.863   2.158 -0.1698 -0.6797  0.0516
 1071Sol     HW 7358   3.081   2.827   2.089 -0.4846  0.4221 -0.7905
 1071Sol     HW 7359   2.947   2.893   2.112  0.0485  0.9907  0.7506
 1071Sol     MW 7360   3.023   2.862   2.147  0.0244 -0.0416 -0.3113
 1072Sol     OW 7361   2.371   1.328   5.078 -0.3933 -0.1495 -0.0970
 1072Sol     HW 7362   2.442   1.377   5.120  0.3175 -2.0105  0.9172
 1072Sol     HW 7363   2.415   1.263   5.023 -1.3274  0.1712 -1.2335
 1072Sol     MW 7364   2.381   1.327   5.077 -0.4866 -0.1877  0.0330
 1073Sol     OW 7365   2.434   1.486   7.272 -0.5235 -0.5401  0.3313
 1073Sol     HW 7366   2.487   1.407   7.270 -0.7485 -0.6876  0.0751
 1073Sol     HW 7367   2.474   1.541   7.339  1.0442  0.1081 -1.0830
 1073Sol     MW 7368   2.442   1.484   7.278 -0.3949 -0.2090  0.0739
 1074Sol     OW 7369   1.378   0.874   3.795 -0.0075 -0.2512 -0.0167
 1074Sol     HW 7370   1.310   0.838   3.851  0.2429 -2.7791 -1.2928
 1074Sol     HW 7371   1.458   0.873   3.848  0.1481 -2.2803 -0.2601
 1074Sol     MW 7372   1.379   0.871   3.805  0.2011  0.3626  0.2295
 1075Sol     OW 7373   0.572   1.512   5.598  0.1588  0.1297  0.2836
 1075Sol     HW 7374   0.662   1.544   5.593  0.9857 -2.0998  0.3854
 1075Sol     HW 7375   0.580   1.424   5.635 -2.1733  0.3686  1.3906
 1075Sol     MW 7376   0.581   1.507   5.600  0.3900  0.1260  0.3466
 1076Sol     OW 7377   2.193   0.523   2.576  0.3394 -0.8476  0.1915
 1076Sol     HW 7378   2.117   0.517   2.518  0.7565 -1.6350 -0.2786
 1076Sol     HW 7379   2.170   0.591   2.639  0.8930  1.8952 -2.4311
 1076Sol     MW 7380   2.184   0.529   2.577  0.1034 -0.2504 -0.8010
 1077Sol     OW 7381   0.559   0.080   8.789 -0.3136  0.0499  0.2278
 1077Sol     HW 7382   0.591  -0.005   8.820 -0.2305 -0.0964 -0.2543
 1077Sol     HW 7383   0.637   0.135   8.787 -0.6115  0.5735  1.9487
 1077Sol     MW 7384   0.569   0.077   8.792 -0.4282  0.0826 -0.1128
 1078Sol     OW 7385   2.002   0.791   2.101  0.2712 -0.5752  0.4003
 1078Sol     HW 7386   1.911   0.769   2.081  0.0683  1.0183 -0.5486
 1078Sol     HW 7387   2.050   0.765   2.023  0.3865  0.0513  0.2597
 1078Sol     MW 7388   1.998   0.787   2.092  0.0802 -0.2457  0.0180
 1079Sol     OW 7389   0.347   2.359   3.982 -0.0308 -0.3880 -0.0545
 1079Sol     HW 7390   0.413   2.401   3.927  1.1630  0.8091  2.2214
 1079Sol     HW 7391   0.338   2.271   3.945  2.2521 -0.3019 -0.9370
 1079Sol     MW 7392   0.353   2.355   3.974 -0.2948 -0.4680  0.5578
 1080Sol     OW 7393   2.222   1.415   4.348  0.2679  0.3869 -0.7635
 1080Sol     HW 7394   2.227   1.419   4.443  0.6527 -1.3539 -0.7035
 1080Sol     HW 7395   2.145   1.361   4.330  0.5672  0.1833 -1.4331
 1080Sol     MW 7396   2.215   1.411   4.355 -0.2705 -0.5446  0.0072
 1081Sol     OW 7397   1.754   0.583   8.059  0.1501 -0.3559  0.0179
 1081Sol     HW 7398   1.681   0.627   8.017  0.8727  0.2799 -0.5844
 1081Sol     HW 7399   1.770   0.505   8.006  1.5923  0.8735 -1.3935
 1081Sol     MW 7400   1.749   0.580   8.051  0.0390 -0.3776 -0.1725
 1082Sol     OW 7401   1.892   2.819   5.234 -0.5883  0.5684 -0.3900
 1082Sol     HW 7402   1.910   2.727   5.211 -0.2763  0.6763 -0.5917
 1082Sol     HW 7403   1.847   2.815   5.318 -2.1934  0.1360 -1.2538
 1082Sol     MW 7404   1.890   2.810   5.239 -0.3103 -0.1428 -0.1617
 1083Sol     OW 7405   2.109   1.138   8.890  0.2704  0.2901 -0.2321
 1083Sol     HW 7406   2.032   1.087   8.915  0.0780 -0.0613 -1.5399
 1083Sol     HW 7407   2.114   1.130   8.795  1.7140  0.6028 -0.1981
 1083Sol     MW 7408   2.103   1.132   8.884  0.4453 -0.1750  0.1353
 1084Sol     OW 7409   1.531   2.225   4.895 -0.0394  0.4678  0.0983
 1084Sol     HW 7410   1.577   2.152   4.852  1.7223  0.9072  1.1844
 1084Sol     HW 7411   1.541   2.207   4.988  0.6205  2.2137  0.3846
 1084Sol     MW 7412   1.536   2.216   4.899 -0.0651  0.3490  0.9242
 1085Sol     OW 7413   3.236   3.112   6.517  0.3966 -0.1822 -0.5995
 1085Sol     HW 7414   3.267   3.115   6.427 -0.3788 -0.3830 -0.8749
 1085Sol     HW 7415   3.243   3.203   6.548  0.4889 -0.0782 -0.9259
 1085Sol     MW 7416   3.239   3.121   6.512 -0.8525  0.1762  0.2784
 1086Sol     OW 7417   1.389   3.149   7.893  0.0895  0.3436  0.1516
 1086Sol     HW 7418   1.317   3.141   7.955  0.7752  0.7325  0.9986
 1086Sol     HW 7419   1.402   3.060   7.860 -1.0965  0.3583 -0.3675
 1086Sol     MW 7420   1.383   3.140   7.895  0.5183 -0.1547  0.0409
 1087Sol     OW 7421   2.750   2.917   8.389  0.1837  0.1023  0.2166
 1087Sol     HW 7422   2.751   2.854   8.462 -3.4736  0.5416  0.7276
 1087Sol     HW 7423   2.820   2.978   8.410 -1.0771  0.4798  3.6757
 1087Sol     MW 7424   2.756   2.917   8.398  0.4376 -0.4637 -0.3005
 1088Sol     OW 7425   2.809   1.693   1.374 -0.0227 -0.2111  0.2467
 1088Sol     HW 7426   2.782   1.748   1.448  0.5873  0.1478  0.2118
 1088Sol     HW 7427   2.796   1.603   1.405  0.6915 -0.0715  0.9736
 1088Sol     MW 7428   2.805   1.690   1.383  0.6764 -0.0959 -0.1151
 1089Sol     OW 7429   0.489   2.983   6.834 -0.0558  0.5381  0.0054
 1089Sol     HW 7430   0.435   3.051   6.876  0.5641  0.6316  0.6741
 1089Sol     HW 7431   0.432   2.945   6.767 -0.6191  1.3031  0.0370
 1089Sol     MW 7432   0.479   2.986   6.832 -0.0012 -0.2625 -0.1080
 1090Sol     OW 7433   2.055   2.220   8.293 -0.1462  0.6036 -0.6153
 1090Sol     HW 7434   2.106   2.145   8.263 -1.5196 -0.8033  0.5057
 1090Sol     HW 7435   1.964   2.196   8.277 -0.5655  2.3905 -1.0365
 1090Sol     MW 7436   2.052   2.211   8.289  0.4235  0.2559 -0.4224
 1091Sol     OW 7437   0.808   2.676   6.556  0.4979  0.3714  0.5337
 1091Sol     HW 7438   0.883   2.620   6.576 -0.3261 -0.8142  0.4096
 1091Sol     HW 7439   0.819   2.700   6.464  0.8378  0.3783  0.5765
 1091Sol     MW 7440   0.815   2.673   6.550  0.2935 -0.2079  0.3904
 1092Sol     OW 7441   1.356   0.023   4.661  0.0228 -0.5423  0.1388
 1092Sol     HW 7442   1.305   0.092   4.618  0.7143  0.3010  0.6629
 1092Sol     HW 7443   1.327  -0.057   4.618 -2.6718 -0.2518  1.2641
 1092Sol     MW 7444   1.349   0.022   4.653  0.5308  0.6531 -0.5908
 1093Sol     OW 7445   2.979   1.290   8.764  0.4275  0.4679  0.9225
 1093Sol     HW 7446   2.894   1.251   8.786  0.4393 -0.5196 -0.6677
 1093Sol     HW 7447   2.958   1.368   8.713  0.4700 -0.1528 -0.0600
 1093Sol     MW 7448   2.969   1.293   8.761  0.2864  0.1919  0.1321
 1094Sol     OW 7449   1.717   3.009   4.116 -0.1326  0.2934  0.5122
 1094Sol     HW 7450   1.703   2.972   4.029 -0.5973  1.5805  0.0202
 1094Sol     HW 7451   1.750   2.936   4.168  1.2608 -0.2307 -1.0409
 1094Sol     MW 7452   1.719   2.999   4.112  0.0328  0.0707 -0.1031
 1095Sol     OW 7453   0.577   1.097   9.478 -0.4134 -0.0528 -0.1725
 1095Sol     HW 7454   0.620   1.169   9.524  0.5852 -0.3069 -0.6839
 1095Sol     HW 7455   0.638   1.024   9.486 -0.4814 -0.2594 -1.4059
 1095Sol     MW 7456   0.586   1.097   9.482  0.4187  0.2148 -0.2366
 1096Sol     OW 7457   0.062   3.378   4.642 -0.2856 -0.4300  0.0032
 1096Sol     HW 7458   0.017   3.335   4.569 -1.1419  1.0759 -0.3858
 1096Sol     HW 7459   0.007   3.453   4.663  0.1791 -0.6205  1.9391
 1096Sol     MW 7460   0.053   3.381   4.637 -0.2637  0.2559 -0.6123
 1097Sol     OW 7461   0.308   1.433   6.738  0.0967 -0.2304 -0.1054
 1097Sol     HW 7462   0.218   1.415   6.710 -0.4930  2.6742 -0.2477
 1097Sol     HW 7463   0.362   1.406   6.663 -0.7394 -1.0664 -0.4110
 1097Sol     MW 7464   0.305   1.429   6.729  0.3340  0.1702 -0.0153
 1098Sol     OW 7465   2.248   3.373   6.106 -0.3869  0.0027  0.3145
 1098Sol     HW 7466   2.273   3.429   6.032 -0.4500  0.0545  0.3328
 1098Sol     HW 7467   2.161   3.339   6.082 -1.5496  2.0538  1.5171
 1098Sol     MW 7468   2.242   3.375   6.097 -0.0831 -0.2675  0.5451
 1099Sol     OW 7469   2.687   3.148   7.077 -0.0718 -0.0593  0.0885
 1099Sol     HW 7470   2.647   3.125   7.161  0.1130 -1.0358 -0.0831
 1099Sol     HW 7471   2.781   3.144   7.093  0.0465 -3.3139 -0.9098
 1099Sol     MW 7472   2.691   3.145   7.086  0.1212 -0.0492 -0.4290
 1100Sol     OW 7473   3.037   1.155   6.922  0.4758 -0.3975 -0.1567
 1100Sol     HW 7474   3.036   1.061   6.940  2.3912 -0.4056 -0.0517
 1100Sol     HW 7475   3.107   1.167   6.858 -0.9432  0.7280 -1.5408
 1100Sol     MW 7476   3.043   1.148   6.918  0.1768 -0.5116 -0.3389
 1101Sol     OW 7477   1.440   0.178   6.589 -0.2790 -0.0761  0.5514
 1101Sol     HW 7478   1.379   0.115   6.629 -1.9337  0.7383 -0.6383
 1101Sol     HW 7479   1.447   0.248   6.654 -0.5553 -0.2139  0.7323
 1101Sol     MW 7480   1.435   0.178   6.599  0.5567 -0.2813 -0.3213
 1102Sol     OW 7481   2.071   2.231   4.665 -0.2445 -0.2261  0.1457
 1102Sol     HW 7482   2.137   2.301   4.660 -0.6228  0.1024 -0.2850
 1102Sol     HW 7483   2.043   2.218   4.575 -0.6852 -0.4501  0.3148
 1102Sol     MW 7484   2.074   2.237   4.657 -0.1994  0.5683 -0.8352
 1103Sol     OW 7485   1.316   2.184   2.800 -0.2491  0.0755  0.5512
 1103Sol     HW 7486   1.358   2.188   2.714  0.7115  0.1720  1.0179
 1103Sol     HW 7487   1.304   2.090   2.816 -0.3562  0.0537  0.3555
 1103Sol     MW 7488   1.319   2.176   2.793 -0.5389 -0.1512  0.1851
 1104Sol     OW 7489   1.984   0.574   5.298 -0.1889 -0.4095  0.0598
 1104Sol     HW 7490   2.014   0.484   5.307  0.3972 -0.1002  1.3477
 1104Sol     HW 7491   1.979   0.589   5.204  0.3255 -1.5788 -0.1542
 1104Sol     MW 7492   1.986   0.568   5.291  0.3886  0.0271 -0.1382
 1105Sol     OW 7493   0.944   2.286   6.307  0.7482 -0.2007  0.7515
 1105Sol     HW 7494   0.899   2.256   6.386  2.9207 -1.2938  1.6136
 1105Sol     HW 7495   1.021   2.230   6.301  1.3484  0.8100 -1.3898
 1105Sol     MW 7496   0.946   2.278   6.314 -0.2806  0.1771 -0.6648
 1106Sol     OW 7497   1.308   0.156   4.234 -0.0991 -0.4971  0.5344
 1106Sol     HW 7498   1.383   0.098   4.221  0.2811  0.3082 -0.9402
 1106Sol     HW 7499   1.237   0.115   4.185  0.7613  1.3974 -2.4532
 1106Sol     MW 7500   1.309   0.147   4.229 -0.6892 -0.0307 -0.0608
 1107Sol     OW 7501   0.996   1.918   5.184 -0.4287  0.3580 -0.6669
 1107Sol     HW 7502   0.995   1.949   5.275  0.1840  1.8813 -1.1567
 1107Sol     HW 7503   0.904   1.915   5.158 -0.5217  1.3904 -0.4676
 1107Sol     MW 7504   0.988   1.921   5.190  0.1616  0.4760  0.3373
 1108Sol     OW 7505   1.150   2.121   1.896  0.3147 -0.1171  0.1673
 1108Sol     HW 7506   1.212   2.048   1.899  0.3756 -0.1198 -1.0063
 1108Sol     HW 7507   1.189   2.183   1.834 -0.6628  0.0647 -0.2711
 1108Sol     MW 7508   1.159   2.120   1.891 -0.3267  0.3286  0.0697
 1109Sol     OW 7509   0.273   0.854   5.468  0.3742  0.2868 -0.1268
 1109Sol     HW 7510   0.225   0.935   5.452 -2.6204 -1.3554  0.1573
 1109Sol     HW 7511   0.347   0.858   5.407 -1.3984  1.8680 -2.2812
 1109Sol     MW 7512   0.276   0.861   5.461 -0.0463 -0.1592 -0.3617
 1110Sol     OW 7513   0.467   2.617   4.115  0.2960 -0.2576  0.3520
 1110Sol     HW 7514   0.431   2.535   4.150 -0.1180  0.2455  1.1319
 1110Sol     HW 7515   0.391   2.665   4.083  0.7255 -0.9483 -1.8152
 1110Sol     MW 7516   0.457   2.614   4.115  0.3511  0.1942  0.2544
 1111Sol     OW 7517   1.213   0.785   7.424 -0.5493 -0.1733  0.0183
 1111Sol     HW 7518   1.137   0.744   7.384 -1.5692  0.7634  0.9583
 1111Sol     HW 7519   1.190   0.878   7.428  0.8727  0.2015 -0.1942
 1111Sol     MW 7520   1.204   0.790   7.420 -0.0807 -0.1223  0.1002
 1112Sol     OW 7521   0.958   0.012   6.097  0.2818  0.0957 -0.1585
 1112Sol     HW 7522   0.990   0.099   6.120  1.6893 -0.2305 -0.8179
 1112Sol     HW 7523   1.024  -0.048   6.132 -1.2657 -0.7896  1.3230
 1112Sol     MW 7524   0.967   0.014   6.102 -1.0103  0.9155  1.1933
 1113Sol     OW 7525   2.727   2.503   3.917  0.3645  0.0755  0.0104
 1113Sol     HW 7526   2.675   2.496   3.998 -1.7635  1.9833 -1.1502
 1113Sol     HW 7527   2.663   2.495   3.847  1.9671  0.1735 -1.4936
 1113Sol     MW 7528   2.716   2.501   3.918 -0.4628  0.4967 -0.2749
 1114Sol     OW 7529   2.202   1.456   9.190  0.2701 -0.4464 -0.1455
 1114Sol     HW 7530   2.264   1.386   9.168 -1.6420 -1.9677 -0.8081
 1114Sol     HW 7531   2.126   1.411   9.226 -0.1556  1.4594  1.4545
 1114Sol     MW 7532   2.201   1.446   9.191  0.0430 -0.1703  0.2588
 1115Sol     OW 7533   1.421   2.651   2.437  0.1982  0.0114 -0.0017
 1115Sol     HW 7534   1.374   2.568   2.445 -0.1821  0.0988 -1.3238
 1115Sol     HW 7535   1.454   2.652   2.348  0.5214  1.1214  0.1217
 1115Sol     MW 7536   1.420   2.644   2.430  0.5436 -0.3113  0.5716
 1116Sol     OW 7537   2.770   1.462   5.565  0.3045  0.3505  0.4219
 1116Sol     HW 7538   2.796   1.462   5.473  0.8125  0.5956  0.5686
 1116Sol     HW 7539   2.691   1.515   5.567  1.2000  1.6950  0.3918
 1116Sol     MW 7540   2.765   1.466   5.556 -0.3413  0.6138 -0.2052
 1117Sol     OW 7541   1.865   2.524   3.561  0.1078  0.6697  0.5918
 1117Sol     HW 7542   1.819   2.531   3.477  1.0648  0.4576  0.0395
 1117Sol     HW 7543   1.817   2.455   3.608  1.6957 -1.8053 -1.2315
 1117Sol     MW 7544   1.856   2.518   3.557 -0.1422 -0.0927 -0.0311
 1118Sol     OW 7545   1.959   0.439   1.512  0.5043 -0.6564 -0.4812
 1118Sol     HW 7546   1.958   0.532   1.490 -0.1299 -0.3755  0.6814
 1118Sol     HW 7547   2.048   0.421   1.541  0.4485 -0.2566 -0.0690
 1118Sol     MW 7548   1.967   0.445   1.513  0.0129  0.5649 -0.1965
 1119Sol     OW 7549   3.208   2.798   6.825 -0.0511  0.0189 -0.2318
 1119Sol     HW 7550   3.284   2.795   6.884 -0.3951 -1.8084  0.1428
 1119Sol     HW 7551   3.237   2.754   6.746 -1.0992 -1.8168  0.3828
 1119Sol     MW 7552   3.217   2.794   6.824  0.1223  0.2689 -0.0133
 1120Sol     OW 7553   2.269   0.619   3.059 -0.3498  0.1828  0.2957
 1120Sol     HW 7554   2.191   0.592   3.108  0.3220  0.5393  1.6057
 1120Sol     HW 7555   2.249   0.709   3.031 -0.4551  0.2356  0.5373
 1120Sol     MW 7556   2.260   0.625   3.061 -0.2008  0.3927  0.3251
 1121Sol     OW 7557   0.071   2.021   8.581  0.5802 -0.2006  0.6014
 1121Sol     HW 7558   0.062   2.013   8.486  2.0977  0.7103  0.3569
 1121Sol     HW 7559   0.149   1.969   8.602 -0.1430 -0.9463  1.4341
 1121Sol     MW 7560   0.077   2.016   8.574  0.5090  0.5781  0.1788
 1122Sol     OW 7561   2.616   2.942   9.212  0.3661 -0.4443  0.1139
 1122Sol     HW 7562   2.572   2.913   9.132  1.9275  1.1526 -1.3799
 1122Sol     HW 7563   2.704   2.966   9.184  0.2191  2.4155  1.8332
 1122Sol     MW 7564   2.620   2.942   9.202 -0.0653 -0.1505 -0.0523
 1123Sol     OW 7565   0.355   2.749   6.020 -0.1305  0.3335  0.3477
 1123Sol     HW 7566   0.312   2.813   5.963 -0.5682 -0.2710 -0.0102
 1123Sol     HW 7567   0.405   2.802   6.082  0.3497  1.0021 -0.5914
 1123Sol     MW 7568   0.356   2.759   6.020  0.1152  0.0517  0.7623
 1124Sol     OW 7569   2.240   2.954   2.493  0.0174  0.3226 -0.2008
 1124Sol     HW 7570   2.325   2.914   2.475 -0.5788 -0.9073 -0.3276
 1124Sol     HW 7571   2.237   3.032   2.437  1.5234  1.0259  0.6479
 1124Sol     MW 7572   2.248   2.958   2.486  0.4946 -0.4647 -0.3074
 1125Sol     OW 7573   3.081   2.955   5.595  0.5199 -0.2482  0.1746
 1125Sol     HW 7574   3.039   2.924   5.515 -0.4978 -0.6514  0.8675
 1125Sol     HW 7575   3.079   3.051   5.587 -1.0434 -0.2435  0.4573
 1125Sol     MW 7576   3.077   2.961   5.587 -0.3834 -0.0212 -0.2017
 1126Sol     OW 7577   1.579   1.693   2.526  0.0512 -0.0485  0.1168
 1126Sol     HW 7578   1.494   1.663   2.559 -0.1117  1.2966  0.9978
 1126Sol     HW 7579   1.567   1.703   2.432 -1.8896  3.4774  0.6289
 1126Sol     MW 7580   1.570   1.691   2.521 -0.0843 -0.2202 -0.0950
 1127Sol     OW 7581   1.311   2.992   7.316 -0.3324 -0.3254 -0.5840
 1127Sol     HW 7582   1.286   3.002   7.408 -2.5491  2.3429 -1.4320
 1127Sol     HW 7583   1.241   2.939   7.278 -1.0598  1.1918 -1.3954
 1127Sol     MW 7584   1.303   2.988   7.321  0.2790  0.3884 -0.0770
 1128Sol     OW 7585   0.182   0.500   1.553  0.1364 -0.2592  0.0046
 1128Sol     HW 7586   0.242   0.439   1.510  0.8969  1.0847 -0.8592
 1128Sol     HW 7587   0.196   0.584   1.508 -3.4689 -0.2506 -1.2522
 1128Sol     MW 7588   0.188   0.502   1.545  0.3714 -0.0268  0.5636
 1129Sol     OW 7589   0.972   1.285   2.053 -0.4121  0.4979  0.2266
 1129Sol     HW 7590   0.989   1.317   1.964 -0.5284  0.6481  0.2578
 1129Sol     HW 7591   0.942   1.362   2.101 -4.5257 -0.3711 -0.7123
 1129Sol     MW 7592   0.971   1.295   2.049  0.2158 -0.6114  0.0148
 1130Sol     OW 7593   0.435   0.242   7.919  0.5092  0.2219  0.1057
 1130Sol     HW 7594   0.485   0.199   7.988  1.6394  0.6822 -0.4226
 1130Sol     HW 7595   0.425   0.332   7.949  2.2350  0.7911 -0.9779
 1130Sol     MW 7596   0.438   0.246   7.928  0.1531  0.0607  0.2037
 1131Sol     OW 7597   0.759   3.013   7.677  0.5106  0.0790 -0.1082
 1131Sol     HW 7598   0.830   2.964   7.634 -1.5436 -2.5404 -0.6333
 1131Sol     HW 7599   0.697   3.030   7.607 -0.7959 -0.3285  0.9365
 1131Sol     MW 7600   0.760   3.010   7.667 -0.2624  0.2006  0.1011
 1132Sol     OW 7601   2.984   2.358   7.152 -0.3376  0.1092 -0.4264
 1132Sol     HW 7602   2.977   2.447   7.186  0.2880  0.5506 -1.4077
 1132Sol     HW 7603   2.990   2.370   7.057 -2.1274 -1.0883 -0.7079
 1132Sol     MW 7604   2.984   2.367   7.146 -0.1924 -1.0645 -0.3238
 1133Sol     OW 7605   1.654   2.566   2.586 -0.5233  0.1606 -0.3261
 1133Sol     HW 7606   1.725   2.629   2.577 -0.7822  0.3432 -1.0969
 1133Sol     HW 7607   1.589   2.593   2.521 -0.6881 -0.8177 -0.5774
 1133Sol     MW 7608   1.654   2.574   2.579  0.0940  0.3669  0.7232
 1134Sol     OW 7609   0.371   1.799   3.996  0.1819 -0.2724 -0.0723
 1134Sol     HW 7610   0.446   1.749   3.964  1.2129 -0.2400  2.1886
 1134Sol     HW 7611   0.328   1.741   4.059  0.6909  1.1867  1.6688
 1134Sol     MW 7612   0.374   1.789   3.999  0.5782  0.1342 -0.3622
 1135Sol     OW 7613   2.440   1.134   9.808  0.5131 -0.4426  0.6070
 1135Sol     HW 7614   2.535   1.136   9.802  0.4896 -1.2476 -0.0681
 1135Sol     HW 7615   2.414   1.052   9.766 -0.5920  0.5384 -0.6871
 1135Sol     MW 7616   2.446   1.127   9.804 -0.6519 -0.6422  0.5303
 1136Sol     OW 7617   1.061   1.807   4.187 -0.3238  0.2169 -0.6195
 1136Sol     HW 7618   0.989   1.791   4.126 -1.2502  2.8068 -0.2548
 1136Sol     HW 7619   1.115   1.873   4.144  1.1580 -0.7423 -0.2992
 1136Sol     MW 7620   1.059   1.811   4.178 -0.2265  0.5942 -0.0418
 1137Sol     OW 7621   0.388   3.431   3.153  0.4470 -0.4369  0.3557
 1137Sol     HW 7622   0.338   3.510   3.131  1.0943  0.0843  0.7542
 1137Sol     HW 7623   0.444   3.457   3.225  0.4062 -1.3648  0.7352
 1137Sol     MW 7624   0.388   3.440   3.157  0.6775  0.1072 -0.2130
 1138Sol     OW 7625   2.733   1.987   4.355 -0.3884 -0.4255 -0.2618
 1138Sol     HW 7626   2.812   1.988   4.301 -0.0080 -0.3227  0.2924
 1138Sol     HW 7627   2.757   1.935   4.432 -0.3220  1.0207  0.7097
 1138Sol     MW 7628   2.743   1.982   4.357 -0.1495  0.1842 -0.5542
 1139Sol     OW 7629   0.394   0.184   3.590 -0.3031  0.6583 -0.5581
 1139Sol     HW 7630   0.317   0.132   3.614 -0.3381  0.3570 -1.3006
 1139Sol     HW 7631   0.361   0.273   3.583 -0.8880  0.3354 -2.1855
 1139Sol     MW 7632   0.384   0.187   3.591 -0.7993  0.4183 -0.1904
 1140Sol     OW 7633   0.587   1.787   3.058  0.1606 -0.3644 -0.1131
 1140Sol     HW 7634   0.636   1.791   3.140 -0.6234  1.0432  0.3229
 1140Sol     HW 7635   0.635   1.726   3.003  0.8488 -1.1115  1.3034
 1140Sol     MW 7636   0.595   1.782   3.061  0.6978 -0.2584 -0.3916
 1141Sol     OW 7637   2.357   3.094   7.451 -0.4685  0.1026 -0.2344
 1141Sol     HW 7638   2.266   3.113   7.427  0.0208  0.7897 -1.5825
 1141Sol     HW 7639   2.352   3.011   7.499 -1.8897  0.4958  0.3539
 1141Sol     MW 7640   2.348   3.089   7.453  0.3830 -0.2728  0.5348
 1142Sol     OW 7641   1.712   3.218   9.305  0.3873  0.7448  0.4395
 1142Sol     HW 7642   1.706   3.289   9.369 -0.9326 -0.8973  2.2210
 1142Sol     HW 7643   1.781   3.161   9.339  0.5213  0.4854 -0.2554
 1142Sol     MW 7644   1.718   3.219   9.314  0.3513 -0.1479  0.4195
 1143Sol     OW 7645   1.043   0.364   2.618  0.5515  0.4825  0.0356
 1143Sol     HW 7646   0.977   0.383   2.684 -0.2881 -1.8610 -0.0826
 1143Sol     HW 7647   1.005   0.394   2.536 -1.3065 -2.6650 -0.3462
 1143Sol     MW 7648   1.034   0.369   2.617  0.4414 -0.2892 -0.1050
 1144Sol     OW 7649   0.116   1.388   2.621  0.7803 -0.0051 -0.5917
 1144Sol     HW 7650   0.119   1.320   2.553  2.2586 -0.4238 -0.1019
 1144Sol     HW 7651   0.028   1.425   2.612  0.8931 -0.1745 -2.6257
 1144Sol     MW 7652   0.108   1.385   2.614  0.0156  0.4610 -0.1434
 1145Sol     OW 7653   2.007   1.619   4.711 -0.2818  0.0277 -0.2093
 1145Sol     HW 7654   2.023   1.712   4.693 -0.5487 -0.0698 -0.9687
 1145Sol     HW 7655   2.075   1.573   4.660  0.4425 -0.1555  0.9105
 1145Sol     MW 7656   2.015   1.623   4.704  0.3193 -0.2065 -0.0134
 1146Sol     OW 7657   0.976   1.005   4.322 -0.1511  0.4243 -0.2185
 1146Sol     HW 7658   1.061   0.962   4.319  0.0609  0.8187  0.0271
 1146Sol     HW 7659   0.913   0.936   4.304  0.1313 -0.1328  0.8620
 1146Sol     MW 7660   0.978   0.995   4.320  0.1325 -0.0885 -0.3012
 1147Sol     OW 7661   1.918   3.431   6.651 -0.2224 -0.0016 -0.0813
 1147Sol     HW 7662   1.907   3.509   6.705 -0.5187  0.6281 -1.0271
 1147Sol     HW 7663   1.949   3.364   6.711  2.0022  1.3876  0.3610
 1147Sol     MW 7664   1.920   3.432   6.661 -0.5777  0.0613  0.3541
 1148Sol     OW 7665   0.108   1.623   1.429 -0.5935 -0.0577 -0.1921
 1148Sol     HW 7666   0.204   1.620   1.425 -0.5299  2.5178 -2.9830
 1148Sol     HW 7667   0.081   1.627   1.337 -3.3757 -0.4505  0.5744
 1148Sol     MW 7668   0.114   1.623   1.420 -0.3685  0.3168  0.1277
 1149Sol     OW 7669   3.097   1.965   8.530  0.0395 -0.2632  0.2813
 1149Sol     HW 7670   3.191   1.944   8.532 -0.3031 -1.7495  2.4617
 1149Sol     HW 7671   3.057   1.892   8.484 -0.0180  0.5696 -1.0050
 1149Sol     MW 7672   3.102   1.957   8.526  0.2286  0.2515 -0.1424
 1150Sol     OW 7673   2.920   0.595   3.647 -0.1153 -0.1287 -0.3712
 1150Sol     HW 7674   2.888   0.543   3.573 -1.1813  1.3754 -0.9988
 1150Sol     HW 7675   2.859   0.575   3.718  1.0162 -1.7159  0.1957
 1150Sol     MW 7676   2.912   0.588   3.647 -0.2805 -0.3938  0.5760
 1151Sol     OW 7677   2.337   0.757   4.165  0.1495 -0.1492 -0.3581
 1151Sol     HW 7678   2.247   0.733   4.144  0.0999 -0.7940  0.5549
 1151Sol     HW 7679   2.333   0.851   4.185 -0.5472 -0.4298  0.8572
 1151Sol     MW 7680   2.329   0.763   4.165  0.5967  0.2814  0.0180
 1152Sol     OW 7681   1.084   0.420   4.645  0.3103 -0.1893  0.0865
 1152Sol     HW 7682   1.009   0.468   4.611 -0.0645 -0.8721 -0.0448
 1152Sol     HW 7683   1.046   0.352   4.701  0.8531 -0.1381  0.5262
 1152Sol     MW 7684   1.074   0.418   4.647 -0.4183 -1.0007  0.5798
 1153Sol     OW 7685   0.824   1.629   5.586  0.2296 -0.3112  0.4612
 1153Sol     HW 7686   0.850   1.625   5.494 -1.4313  0.2623 -0.0603
 1153Sol     HW 7687   0.759   1.699   5.588 -1.0132 -1.4904  1.7638
 1153Sol     MW 7688   0.820   1.635   5.578 -0.1228 -0.4157 -0.1316
 1154Sol     OW 7689   0.750   1.763   5.158  0.3318  0.0060 -0.0175
 1154Sol     HW 7690   0.665   1.787   5.123  0.3010 -1.1927 -0.8040
 1154Sol     HW 7691   0.777   1.687   5.106  1.5048 -0.1349  0.7674
 1154Sol     MW 7692   0.745   1.758   5.150 -0.0839 -0.2890  0.0850
 1155Sol     OW 7693   0.543   0.441   4.774 -0.0908  0.6254  0.5672
 1155Sol     HW 7694   0.468   0.385   4.753  1.0008 -1.3604  1.7991
 1155Sol     HW 7695   0.533   0.459   4.867 -0.5121  2.6506  0.1473
 1155Sol     MW 7696   0.535   0.437   4.780 -0.1033  0.4282 -0.0045
 1156Sol     OW 7697   1.626   1.181   6.713 -0.1896 -0.4146  0.0627
 1156Sol     HW 7698   1.556   1.202   6.775  1.1056  0.2340  1.3503
 1156Sol     HW 7699   1.581   1.141   6.639 -1.8286 -0.8409  1.2444
 1156Sol     MW 7700   1.616   1.180   6.712 -0.0940 -0.4238  0.3385
 1157Sol     OW 7701   0.593   1.450   2.679  0.2301 -0.1581 -0.1750
 1157Sol     HW 7702   0.608   1.509   2.754  0.5390  2.5180 -2.2703
 1157Sol     HW 7703   0.508   1.476   2.645 -0.8454 -2.7421  0.3895
 1157Sol     MW 7704   0.587   1.458   2.683  0.1617 -0.4378 -0.4797
 1158Sol     OW 7705   3.109   0.346   5.709  0.1421 -0.3891 -1.0863
 1158Sol     HW 7706   3.188   0.380   5.665  0.7530  0.7209  0.7880
 1158Sol     HW 7707   3.101   0.256   5.677  2.7981 -0.8934 -0.5079
 1158Sol     MW 7708   3.116   0.341   5.702 -0.0898  1.0365  0.2486
 1159Sol     OW 7709   1.393   1.203   9.876 -0.7514  0.4926  0.1956
 1159Sol     HW 7710   1.479   1.222   9.840 -0.3451 -1.4145  0.1226
 1159Sol     HW 7711   1.389   1.252   9.958 -0.1659  1.7371 -0.5230
 1159Sol     MW 7712   1.400   1.209   9.881 -0.4743 -0.1899  0.0659
 1160Sol     OW 7713   1.719   0.283   8.788 -0.3408  0.1129 -0.2796
 1160Sol     HW 7714   1.796   0.339   8.787 -0.5369  0.3719 -0.7540
 1160Sol     HW 7715   1.724   0.237   8.872 -0.2509  0.9291  0.1699
 1160Sol     MW 7716   1.726   0.284   8.796 -0.1795  0.6646 -0.3745
 1161Sol     OW 7717   0.793   2.939   8.938  0.3491  0.0177  0.8169
 1161Sol     HW 7718   0.826   2.933   8.849  2.3362 -1.6115  1.6207
 1161Sol     HW 7719   0.724   2.873   8.943 -0.3128  0.6631  0.2685
 1161Sol     MW 7720   0.790   2.933   8.931  0.0883 -0.0909 -0.0141
 1162Sol     OW 7721   1.640   2.504   9.471 -0.4796 -0.1131 -0.4090
 1162Sol     HW 7722   1.724   2.486   9.515 -0.4365  0.6689 -0.1557
 1162Sol     HW 7723   1.665   2.545   9.388 -0.5930 -0.5950 -0.6845
 1162Sol     MW 7724   1.650   2.506   9.467  0.5842 -0.0469  0.0275
 1163Sol     OW 7725   1.035   0.249   8.303 -0.4856 -0.4443 -0.4400
 1163Sol     HW 7726   1.094   0.316   8.269 -2.9344  1.2042 -1.6116
 1163Sol     HW 7727   1.057   0.170   8.253  1.6867 -0.2582  0.1754
 1163Sol     MW 7728   1.042   0.248   8.295 -0.2762  0.1587  0.1391
 1164Sol     OW 7729   0.404   0.186   5.463 -0.1568  0.0337  0.4338
 1164Sol     HW 7730   0.464   0.191   5.537  0.3544 -0.7531  0.0810
 1164Sol     HW 7731   0.407   0.095   5.435 -1.2064  0.0770  0.1479
 1164Sol     MW 7732   0.410   0.179   5.467 -0.0787 -0.3949 -0.4199
 1165Sol     OW 7733   2.827   0.873   9.174  0.2999 -0.2505  0.0020
 1165Sol     HW 7734   2.810   0.863   9.268  0.2064 -0.4437 -0.0335
 1165Sol     HW 7735   2.914   0.913   9.169  1.0397 -1.8250  0.1357
 1165Sol     MW 7736   2.833   0.876   9.182  0.0708  0.1953 -0.4451
 1166Sol     OW 7737   1.128   0.915   1.822 -0.2151 -0.5400  0.3272
 1166Sol     HW 7738   1.127   0.890   1.914  2.0529  0.2861  0.5970
 1166Sol     HW 7739   1.055   0.976   1.813 -0.1198 -0.2107  1.6947
 1166Sol     MW 7740   1.121   0.918   1.829 -0.4784 -0.2845  0.0670
 1167Sol     OW 7741   0.398   1.256   5.291 -0.2107 -0.1733  0.2791
 1167Sol     HW 7742   0.439   1.184   5.339  1.1299  0.3858  0.0113
 1167Sol     HW 7743   0.471   1.297   5.243 -1.0812  0.9032 -0.1435
 1167Sol     MW 7744   0.408   1.253   5.291  0.1187 -0.2735  0.1640
 1168Sol     OW 7745   2.942   2.156   3.592  0.2340 -0.6511 -0.3689
 1168Sol     HW 7746   2.919   2.199   3.675  0.8175  0.0868 -0.5822
 1168Sol     HW 7747   2.858   2.146   3.546  0.0310 -0.1667 -0.1124
 1168Sol     MW 7748   2.932   2.159   3.596 -0.1678  0.3984  0.4633
 1169Sol     OW 7749   2.875   2.389   2.185 -0.2478  0.0082  0.4289
 1169Sol     HW 7750   2.891   2.354   2.097  2.5950 -0.9777  1.2684
 1169Sol     HW 7751   2.853   2.481   2.171  0.2128 -0.1294 -1.3207
 1169Sol     MW 7752   2.874   2.394   2.176 -0.8110  0.9712 -0.2788
 1170Sol     OW 7753   0.214   1.247   8.551 -0.3104  0.0307 -0.1771
 1170Sol     HW 7754   0.135   1.228   8.500  0.8295 -1.4522 -1.4437
 1170Sol     HW 7755   0.238   1.336   8.525 -1.1229  0.1895 -0.3933
 1170Sol     MW 7756   0.209   1.253   8.544 -0.0340  0.1473 -0.0954
 1171Sol     OW 7757   2.852   3.192   2.050 -0.4837 -0.3987  0.6005
 1171Sol     HW 7758   2.783   3.249   2.016  0.7167 -0.2999 -1.7809
 1171Sol     HW 7759   2.817   3.103   2.040 -0.7385 -0.2865  0.4963
 1171Sol     MW 7760   2.843   3.189   2.046 -0.2666  0.0227  0.3299
 1172Sol     OW 7761   1.557   1.497   6.953  0.2469  0.1199 -0.7011
 1172Sol     HW 7762   1.652   1.496   6.943  0.2602 -0.9674 -0.4801
 1172Sol     HW 7763   1.535   1.410   6.987 -0.5875  1.0803  1.3424
 1172Sol     MW 7764   1.563   1.490   6.956 -0.6616 -0.4411  0.4763
 1173Sol     OW 7765   1.073   0.267   3.912  0.5282  0.6194 -0.0565
 1173Sol     HW 7766   1.005   0.311   3.862  1.3335  2.0745  0.1029
 1173Sol     HW 7767   1.134   0.234   3.846  0.0678 -0.0216 -0.1632
 1173Sol     MW 7768   1.072   0.268   3.902 -0.4003  0.3864  0.0455
 1174Sol     OW 7769   0.531   0.580   5.331 -0.5543 -0.0954  0.2959
 1174Sol     HW 7770   0.472   0.553   5.402 -0.5844  1.5369  0.9086
 1174Sol     HW 7771   0.618   0.568   5.368 -0.5759  1.3321  0.8578
 1174Sol     MW 7772   0.533   0.576   5.341 -0.1213 -0.0175  0.2158
 1175Sol     OW 7773   2.531   1.086   4.976 -0.1049 -0.0016 -0.0257
 1175Sol     HW 7774   2.617   1.102   5.016 -1.9787  2.4754  3.2456
 1175Sol     HW 7775   2.510   0.996   5.001  0.2842  0.3536  1.6486
 1175Sol     MW 7776   2.537   1.079   4.982 -0.0882  0.2592 -0.0905
 1176Sol     OW 7777   0.536   3.102   3.794 -0.4410  0.0895 -0.0660
 1176Sol     HW 7778   0.491   3.022   3.767 -0.1012 -0.2715  0.4454
 1176Sol     HW 7779   0.480   3.139   3.862 -0.2143 -0.1055  0.2267
 1176Sol     MW 7780   0.527   3.098   3.798  0.0940  0.1363 -0.5621
 1177Sol     OW 7781   2.284   3.363   3.650 -0.3653 -0.0657 -0.0068
 1177Sol     HW 7782   2.287   3.267   3.652 -1.0546 -0.0837  0.7062
 1177Sol     HW 7783   2.347   3.388   3.582  0.9180 -0.9719  0.8192
 1177Sol     MW 7784   2.290   3.356   3.644  0.0067  0.1489 -0.0145
 1178Sol     OW 7785   2.431   0.293   4.491 -0.3902 -0.3449  0.2920
 1178Sol     HW 7786   2.409   0.272   4.400  0.0098  0.0616  0.1025
 1178Sol     HW 7787   2.487   0.370   4.485 -1.0933  0.2209  0.9402
 1178Sol     MW 7788   2.434   0.298   4.482 -0.2298  0.2650  0.0228
 1179Sol     OW 7789   1.814   2.271   3.706  0.2188 -0.2680 -0.1469
 1179Sol     HW 7790   1.827   2.224   3.624 -1.2667 -0.1619 -0.4590
 1179Sol     HW 7791   1.858   2.218   3.772 -0.2915 -1.3884 -0.6999
 1179Sol     MW 7792   1.819   2.262   3.704 -0.2441 -0.0275 -0.4551
 1180Sol     OW 7793   2.938   2.984   2.750 -0.5284  0.6804 -0.1297
 1180Sol     HW 7794   3.029   3.008   2.730 -0.5304  1.0647  0.3119
 1180Sol     HW 7795   2.897   2.973   2.664  0.4163 -1.3932 -0.3416
 1180Sol     MW 7796   2.943   2.985   2.741 -0.2221 -0.0759  0.5787
 1181Sol     OW 7797   0.565   1.017   8.406 -0.0884  0.0982 -0.2743
 1181Sol     HW 7798   0.490   1.071   8.383 -0.1194 -0.4870 -1.5856
 1181Sol     HW 7799   0.529   0.930   8.419  0.1539  0.1171  0.5279
 1181Sol     MW 7800   0.555   1.014   8.405 -0.5286  0.3294  0.3141
 1182Sol     OW 7801   1.391   1.860   6.919 -0.3938 -0.2414 -0.1810
 1182Sol     HW 7802   1.378   1.786   6.978  1.0661 -0.5883 -0.2847
 1182Sol     HW 7803   1.445   1.921   6.970 -0.7691  0.3193 -0.4531
 1182Sol     MW 7804   1.394   1.859   6.929 -0.1933 -0.2441  0.2646
 1183Sol     OW 7805   3.304   1.442   4.470 -0.3273  0.5338 -0.2374
 1183Sol     HW 7806   3.375   1.431   4.533 -0.2646 -0.5630 -0.4816
 1183Sol     HW 7807   3.228   1.462   4.524 -0.3494 -0.7354  0.2366
 1183Sol     MW 7808   3.304   1.443   4.480  0.4319  0.1072  0.0914
 1184Sol     OW 7809   2.795   0.321   3.879  0.1411 -0.1060 -0.5463
 1184Sol     HW 7810   2.828   0.275   3.802 -1.2184 -0.6679 -0.7993
 1184Sol     HW 7811   2.724   0.266   3.911  0.0418  0.6387  0.5296
 1184Sol     MW 7812   2.792   0.312   3.875  0.4744 -0.4518 -0.3683
 1185Sol     OW 7813   0.631   0.646   3.805 -0.0673 -0.2803 -0.2831
 1185Sol     HW 7814   0.677   0.588   3.744 -0.3900 -0.7583 -0.0796
 1185Sol     HW 7815   0.640   0.602   3.890 -0.2026  0.0358 -0.1034
 1185Sol     MW 7816   0.636   0.636   3.807  0.5097  0.8285 -0.0052
 1186Sol     OW 7817   2.720   1.788   3.447 -0.2065  0.0581  0.3510
 1186Sol     HW 7818   2.789   1.763   3.385 -0.2102 -0.7452  0.6686
 1186Sol     HW 7819   2.726   1.723   3.517 -1.9345 -0.6130 -0.1072
 1186Sol     MW 7820   2.727   1.780   3.447  0.2379  0.1060 -0.2568
 1187Sol     OW 7821   2.817   2.720   6.824 -0.0864 -0.7530  0.0509
 1187Sol     HW 7822   2.904   2.709   6.863 -0.2617  1.2626  1.0838
 1187Sol     HW 7823   2.831   2.778   6.749 -0.2859 -1.8383 -0.8370
 1187Sol     MW 7824   2.826   2.724   6.821  0.3718  0.1154 -0.1579
 1188Sol     OW 7825   1.641   2.847   9.505 -0.1006 -0.5144 -0.3609
 1188Sol     HW 7826   1.729   2.875   9.481 -1.0111 -0.2047 -3.5900
 1188Sol     HW 7827   1.650   2.755   9.531  1.2147 -0.4206 -0.4963
 1188Sol     MW 7828   1.649   2.841   9.505 -0.0058  0.1426 -0.3828
 1189Sol     OW 7829   1.709   3.234   7.011 -0.0509  0.0272  0.3027
 1189Sol     HW 7830   1.633   3.291   7.015  0.6269  0.9965 -0.4463
 1189Sol     HW 7831   1.707   3.196   6.924 -0.8009 -1.5449  0.9800
 1189Sol     MW 7832   1.702   3.235   7.004  0.8730  0.1203  0.0221
 1190Sol     OW 7833   2.111   0.233   9.905 -0.0458 -0.3342 -0.0985
 1190Sol     HW 7834   2.080   0.212   9.994 -0.7498 -0.0412 -0.2732
 1190Sol     HW 7835   2.043   0.289   9.868  0.0980 -0.7066 -0.9387
 1190Sol     MW 7836   2.102   0.236   9.910  0.2867 -0.2652  0.2282
 1191Sol     OW 7837   1.650   2.437   2.234 -0.1593 -0.4568  0.5287
 1191Sol     HW 7838   1.597   2.515   2.214  0.5541  0.3209  1.6159
 1191Sol     HW 7839   1.610   2.367   2.183 -0.5030  0.7322 -0.8766
 1191Sol     MW 7840   1.642   2.438   2.228  0.0174 -0.0703 -0.0452
 1192Sol     OW 7841   0.178   2.937   2.048 -0.4541 -0.4023 -0.0579
 1192Sol     HW 7842   0.089   2.936   2.013 -0.2129  1.1773 -0.7962
 1192Sol     HW 7843   0.231   2.894   1.981 -0.4614 -0.1713 -0.2111
 1192Sol     MW 7844   0.175   2.933   2.039 -0.1262 -0.1539 -0.0084
 1193Sol     OW 7845   2.463   2.184   2.504  0.1306  0.1323 -0.9581
 1193Sol     HW 7846   2.484   2.245   2.434  0.9409 -0.1390 -0.9592
 1193Sol     HW 7847   2.475   2.098   2.465  0.8292 -0.0209 -0.4241
 1193Sol     MW 7848   2.466   2.182   2.494 -0.6951  0.0967  0.3412
 1194Sol     OW 7849   0.541   1.939   7.135 -0.2401  0.5503  0.0547
 1194Sol     HW 7850   0.564   2.026   7.104 -1.4982  0.8759  0.0068
 1194Sol     HW 7851   0.461   1.917   7.088  0.9530 -1.3362 -1.1896
 1194Sol     MW 7852   0.536   1.945   7.128 -0.1193 -0.6694 -0.1965
 1195Sol     OW 7853   2.685   1.845   6.270  0.0339 -0.0531  0.1345
 1195Sol     HW 7854   2.679   1.940   6.260  0.2045 -0.0109  0.4213
 1195Sol     HW 7855   2.721   1.814   6.186 -1.3710 -0.0184 -0.4947
 1195Sol     MW 7856   2.688   1.851   6.261  0.2265  0.3708 -0.2013
 1196Sol     OW 7857   2.935   0.160   4.402  0.0067  0.7459  0.1700
 1196Sol     HW 7858   2.947   0.185   4.493 -0.4420  1.5381  0.0195
 1196Sol     HW 7859   3.020   0.124   4.375  0.3566  1.1831  0.6919
 1196Sol     MW 7860   2.944   0.159   4.407  0.2344  0.1109 -0.1104
 1197Sol     OW 7861   2.731   2.986   4.946 -0.2960  0.1352 -0.3421
 1197Sol     HW 7862   2.788   3.006   5.020 -2.7403 -2.3866  2.3545
 1197Sol     HW 7863   2.785   2.935   4.886  1.6295  1.9507 -0.2093
 1197Sol     MW 7864   2.741   2.983   4.947 -0.6685 -0.1498 -0.1173
 1198Sol     OW 7865   0.013   2.627   5.544 -0.2358 -0.5570 -0.6191
 1198Sol     HW 7866  -0.010   2.546   5.589  1.5852 -0.2691  0.8636
 1198Sol     HW 7867   0.004   2.606   5.451 -0.4124 -2.2644 -0.2326
 1198Sol     MW 7868   0.010   2.618   5.540  0.2040  0.1074  0.0510
 1199Sol     OW 7869   1.440   2.291   9.592  0.2723 -0.0409 -0.1814
 1199Sol     HW 7870   1.522   2.327   9.559  0.5733 -1.1113 -0.5973
 1199Sol     HW 7871   1.460   2.263   9.682  0.2570  0.0519 -0.1484
 1199Sol     MW 7872   1.449   2.292   9.597  0.6964  0.5475 -0.4266
 1200Sol     OW 7873   1.225   0.774   4.573  0.3338 -0.4884  0.0391
 1200Sol     HW 7874   1.133   0.797   4.582  0.7303  0.2438  2.5605
 1200Sol     HW 7875   1.224   0.686   4.534 -1.3369  0.5378 -2.3424
 1200Sol     MW 7876   1.217   0.768   4.570  0.5005 -0.1719 -0.1556
 1201Sol     OW 7877   0.267   3.117   9.353  0.1112  0.4886  0.0275
 1201Sol     HW 7878   0.295   3.086   9.439  0.1554  0.6972  0.0898
 1201Sol     HW 7879   0.326   3.190   9.334 -1.0898  1.6376  0.6456
 1201Sol     MW 7880   0.275   3.121   9.359 -0.1212 -0.4908  0.4954
 1202Sol     OW 7881   3.082   3.408   8.103  0.0598 -0.3358 -0.3580
 1202Sol     HW 7882   3.146   3.410   8.032 -1.1822 -2.4995 -1.5945
 1202Sol     HW 7883   3.129   3.367   8.176  0.9099  0.5985 -0.3696
 1202Sol     MW 7884   3.092   3.404   8.103  0.4702 -0.2725 -0.0477
 1203Sol     OW 7885   0.121   0.649   4.519  0.0392  0.0449  0.5879
 1203Sol     HW 7886   0.051   0.673   4.459  0.5866 -2.0553 -0.9483
 1203Sol     HW 7887   0.169   0.730   4.533 -1.0839  0.9250 -0.4803
 1203Sol     MW 7888   0.119   0.658   4.515 -0.7650  0.8927  0.0688
 1204Sol     OW 7889   2.862   2.994   5.933 -0.5662 -0.1729  0.7157
 1204Sol     HW 7890   2.772   3.005   5.901  0.5015  1.3316 -1.9812
 1204Sol     HW 7891   2.897   2.921   5.882  0.7401  1.3726 -0.6821
 1204Sol     MW 7892   2.857   2.989   5.925  0.1040 -0.5026  0.2190
 1205Sol     OW 7893   1.229   1.942   3.766  0.3262 -0.2012  0.1415
 1205Sol     HW 7894   1.215   1.984   3.851 -1.7119 -0.8410  0.1541
 1205Sol     HW 7895   1.193   1.854   3.777  0.7980 -0.5692 -1.1442
 1205Sol     MW 7896   1.225   1.938   3.775  0.2422  0.3106 -0.2401
 1206Sol     OW 7897   1.220   2.394   3.702 -0.7293  0.6044  0.0290
 1206Sol     HW 7898   1.218   2.456   3.774  0.5453  2.6653 -1.6463
 1206Sol     HW 7899   1.291   2.333   3.724 -0.5603  1.0294  0.6662
 1206Sol     MW 7900   1.226   2.394   3.710  0.3929  0.4487  0.4536
 1207Sol     OW 7901   0.842   1.308   8.276 -0.0980 -0.2725 -0.4160
 1207Sol     HW 7902   0.811   1.238   8.334  3.1811 -2.0913 -0.7068
 1207Sol     HW 7903   0.895   1.364   8.333 -3.6206  2.7793  0.0794
 1207Sol     MW 7904   0.844   1.307   8.286  0.0231 -0.0202  0.6189
 1208Sol     OW 7905   1.332   1.280   1.416 -0.4658  0.1066  0.6489
 1208Sol     HW 7906   1.365   1.362   1.380  1.0756 -0.1707  1.3965
 1208Sol     HW 7907   1.359   1.281   1.508  0.7540 -1.8350  0.3375
 1208Sol     MW 7908   1.337   1.287   1.421 -0.6555 -0.3181 -0.8902
 1209Sol     OW 7909   0.219   0.461   8.978 -0.1966  0.2849  0.6897
 1209Sol     HW 7910   0.283   0.484   9.045 -0.8332  0.5584  1.2109
 1209Sol     HW 7911   0.139   0.442   9.027 -0.0825 -1.6220  0.1623
 1209Sol     MW 7912   0.217   0.462   8.989 -0.2064 -0.1140 -0.0473
 1210Sol     OW 7913   2.518   1.594   5.589  0.1361 -0.1257  0.2290
 1210Sol     HW 7914   2.491   1.630   5.673 -0.8833 -1.1844  0.3687
 1210Sol     HW 7915   2.437   1.560   5.550  0.4699  0.9491 -1.4829
 1210Sol     MW 7916   2.508   1.594   5.593  0.1279 -0.0036 -0.5350
 1211Sol     OW 7917   2.378   0.036   2.906  0.0682  0.5053  0.1647
 1211Sol     HW 7918   2.353   0.127   2.890  1.3761  1.2831  2.3385
 1211Sol     HW 7919   2.308   0.002   2.962 -1.0409 -0.2288 -1.6033
 1211Sol     MW 7920   2.369   0.041   2.910 -0.0653  0.3370  0.1939
 1212Sol     OW 7921   2.991   1.936   5.180  0.4327  0.2907  0.1267
 1212Sol     HW 7922   3.033   1.866   5.130  0.1719  0.4716 -0.3489
 1212Sol     HW 7923   2.908   1.952   5.135  0.2588  0.5592  0.5322
 1212Sol     MW 7924   2.987   1.931   5.172 -0.5801  0.7106  0.3166
 1213Sol     OW 7925   1.412   2.184   7.756 -0.5875 -0.7441 -0.1724
 1213Sol     HW 7926   1.438   2.255   7.698  0.1945  0.3750  1.5086
 1213Sol     HW 7927   1.487   2.124   7.755  0.8043  0.8819  2.1565
 1213Sol     MW 7928   1.421   2.185   7.751  0.0714  0.7770  0.6891
 1214Sol     OW 7929   0.967   2.282   5.332 -0.7656  0.0892 -0.3386
 1214Sol     HW 7930   1.014   2.363   5.351  1.5159 -1.9547  3.4321
 1214Sol     HW 7931   0.877   2.300   5.359 -0.5356  1.6894 -0.5617
 1214Sol     MW 7932   0.964   2.291   5.337 -0.1043  0.3692 -0.7521
 1215Sol     OW 7933   1.794   0.394   6.058 -0.4111 -0.3256  0.5361
 1215Sol     HW 7934   1.759   0.391   5.969 -1.0226  0.7529  0.7380
 1215Sol     HW 7935   1.850   0.471   6.060 -0.4576 -0.3019  1.1094
 1215Sol     MW 7936   1.796   0.401   6.051  0.1809  0.2770  0.8872
 1216Sol     OW 7937   1.271   2.532   3.289  0.3720  0.4190 -0.0568
 1216Sol     HW 7938   1.314   2.447   3.296  0.0400  0.3684  1.6607
 1216Sol     HW 7939   1.286   2.560   3.199 -0.6537 -2.0791 -1.0544
 1216Sol     MW 7940   1.276   2.527   3.281  0.3242 -0.1237 -0.7302
 1217Sol     OW 7941   2.127   1.020   5.945  0.0441  0.2148 -0.2277
 1217Sol     HW 7942   2.184   0.949   5.918 -0.6492  0.2161 -1.7318
 1217Sol     HW 7943   2.127   1.015   6.041  1.0039 -1.0049 -0.2769
 1217Sol     MW 7944   2.132   1.013   5.951 -0.3740  0.2043 -0.1707
 1218Sol     OW 7945   1.413   2.388   8.392 -0.3008 -0.0824 -0.2164
 1218Sol     HW 7946   1.471   2.315   8.371  0.2698 -0.2578  1.8577
 1218Sol     HW 7947   1.325   2.354   8.379 -0.0964 -1.6905  2.2613
 1218Sol     MW 7948   1.411   2.379   8.389 -0.0403  0.1077  0.2486
 1219Sol     OW 7949   2.024   1.372   9.808  1.2953  0.0273 -0.2253
 1219Sol     HW 7950   1.982   1.288   9.828 -1.8050  1.7313  0.8142
 1219Sol     HW 7951   2.117   1.357   9.825  0.7322 -3.0277  0.4804
 1219Sol     MW 7952   2.029   1.363   9.811 -1.0631  0.5100  0.4094
 1220Sol     OW 7953   1.922   3.054   7.530  0.7603  1.0329  0.3951
 1220Sol     HW 7954   1.997   2.999   7.554  0.5752  0.3351 -0.6283
 1220Sol     HW 7955   1.899   3.098   7.612  1.8278  0.7049  0.8907
 1220Sol     MW 7956   1.927   3.053   7.540 -0.2074 -0.0892 -0.0372
 1221Sol     OW 7957   3.197   2.320   3.918  0.9130 -0.1399 -0.1258
 1221Sol     HW 7958   3.258   2.353   3.983  0.6017 -2.0047  1.1729
 1221Sol     HW 7959   3.242   2.330   3.834  0.8090  3.4802  0.1794
 1221Sol     MW 7960   3.206   2.324   3.916  0.4679 -0.1107 -0.3424
 1222Sol     OW 7961   2.783   2.548   9.666 -0.1585 -0.0184  0.6173
 1222Sol     HW 7962   2.857   2.487   9.656 -0.9086 -0.8023 -0.2452
 1222Sol     HW 7963   2.767   2.581   9.577  0.0689  1.2459  1.0376
 1222Sol     MW 7964   2.788   2.545   9.657  0.4754 -0.4836  0.2132
 1223Sol     OW 7965   2.395   2.782   6.188 -0.2418  0.9357 -0.1597
 1223Sol     HW 7966   2.480   2.805   6.150  0.5695  1.6599  2.0271
 1223Sol     HW 7967   2.404   2.689   6.209 -0.7373  0.4991 -1.7816
 1223Sol     MW 7968   2.404   2.775   6.187 -0.1509  0.2060 -0.3232
 1224Sol     OW 7969   0.575   1.626   8.508 -0.3451  0.3364 -0.2262
 1224Sol     HW 7970   0.628   1.556   8.545 -0.4353 -0.5760 -1.7574
 1224Sol     HW 7971   0.572   1.694   8.576  2.5362  0.2970 -0.0094
 1224Sol     MW 7972   0.579   1.626   8.517  0.8289  0.5911  0.1183
 1225Sol     OW 7973   1.787   2.848   5.901  0.4130  0.6738  0.6961
 1225Sol     HW 7974   1.828   2.917   5.849  1.4189  0.6019  1.3791
 1225Sol     HW 7975   1.702   2.834   5.859  0.4443  1.9037  0.1954
 1225Sol     MW 7976   1.783   2.853   5.892  0.4881 -0.0744  0.2425
 1226Sol     OW 7977   1.127   1.249   7.603 -0.2644  0.0331  0.4180
 1226Sol     HW 7978   1.050   1.306   7.607 -1.0251 -0.9893  0.8017
 1226Sol     HW 7979   1.202   1.308   7.607 -1.0370  1.0413  0.1093
 1226Sol     MW 7980   1.127   1.259   7.604  0.8302 -0.4996  0.6429
 1227Sol     OW 7981   1.200   1.076   3.760 -0.1474  0.0167  0.3639
 1227Sol     HW 7982   1.264   1.005   3.767 -0.6623 -0.3735  1.1004
 1227Sol     HW 7983   1.131   1.041   3.704 -0.3206 -0.0041  0.5909
 1227Sol     MW 7984   1.200   1.066   3.755 -0.3758  0.2725 -0.0960
 1228Sol     OW 7985   3.091   2.520   2.770 -0.0993  0.3675  0.3714
 1228Sol     HW 7986   3.104   2.453   2.837 -0.1942  0.8923  0.9213
 1228Sol     HW 7987   3.067   2.599   2.819 -1.0945  0.5205 -0.3388
 1228Sol     MW 7988   3.090   2.521   2.781 -0.2285 -0.0344 -0.2950
 1229Sol     OW 7989   1.821   3.163   7.782 -0.0498  0.3699 -0.0782
 1229Sol     HW 7990   1.750   3.199   7.835  0.5198  1.0710  0.2169
 1229Sol     HW 7991   1.883   3.235   7.774  0.2973 -0.0259 -0.9284
 1229Sol     MW 7992   1.820   3.173   7.786 -0.2726 -0.1027 -0.2498
 1230Sol     OW 7993   1.311   1.182   9.515  0.1027  0.1810 -0.6910
 1230Sol     HW 7994   1.401   1.149   9.514  0.0113 -0.0749 -1.7233
 1230Sol     HW 7995   1.270   1.140   9.590  0.5398 -0.5479 -0.8619
 1230Sol     MW 7996   1.316   1.175   9.521  0.3598 -1.1031  0.0109
 1231Sol     OW 7997   3.058   2.104   7.041 -0.3716  0.5917 -0.1150
 1231Sol     HW 7998   3.019   2.190   7.053 -1.4472 -0.2187  2.3523
 1231Sol     HW 7999   2.992   2.043   7.072  1.3397 -0.9992  0.4604
 1231Sol     MW 8000   3.049   2.106   7.045  0.9680  0.8034  0.9559
 1232Sol     OW 8001   2.267   3.006   6.312 -0.0187  0.0887 -0.0042
 1232Sol     HW 8002   2.316   2.926   6.329  0.2738  0.1309 -0.6341
 1232Sol     HW 8003   2.310   3.072   6.366  1.6767  0.4902 -1.8263
 1232Sol     MW 8004   2.275   3.005   6.319 -0.1944  0.0557 -0.0145
 1233Sol     OW 8005   2.163   2.589   2.560 -0.1713  0.4746 -0.7326
 1233Sol     HW 8006   2.144   2.541   2.641  1.5981 -0.9351 -1.1362
 1233Sol     HW 8007   2.191   2.675   2.590  1.2660 -0.3020  0.2225
 1233Sol     MW 8008   2.164   2.592   2.570  0.5372 -0.0370  0.1691
 1234Sol     OW 8009   1.960   0.203   3.524  0.2087 -0.3055  0.2581
 1234Sol     HW 8010   1.996   0.288   3.550 -0.0511 -0.5548  1.4588
 1234Sol     HW 8011   1.867   0.210   3.542 -0.2996  0.1521 -2.3705
 1234Sol     MW 8012   1.955   0.211   3.528  0.1498 -0.7549 -0.6241
 1235Sol     OW 8013   0.914   1.657   7.640 -0.0530  0.6309  0.1624
 1235Sol     HW 8014   0.971   1.651   7.717  0.2585  0.0741 -0.1120
 1235Sol     HW 8015   0.919   1.571   7.600 -1.6846  0.3353  0.5601
 1235Sol     MW 8016   0.920   1.649   7.643 -0.3660 -0.5479  0.0995
 1236Sol     OW 8017   1.934   2.930   7.886 -0.1441  0.3056  0.5650
 1236Sol     HW 8018   2.019   2.939   7.843 -0.2099  2.0471  0.7677
 1236Sol     HW 8019   1.886   3.008   7.860 -1.9733 -1.0487 -0.1737
 1236Sol     MW 8020   1.938   2.938   7.880 -0.2466  0.3131 -0.1332
 1237Sol     OW 8021   0.581   1.616   7.406 -0.2521  0.1291 -0.2178
 1237Sol     HW 8022   0.566   1.542   7.348  0.3015  0.8006 -1.2219
 1237Sol     HW 8023   0.643   1.671   7.360 -2.7899  2.6445 -0.7367
 1237Sol     MW 8024   0.585   1.614   7.397 -0.0953  0.2484  0.0726
 1238Sol     OW 8025   3.101   2.293   3.367 -0.3769 -0.5334  0.1676
 1238Sol     HW 8026   3.113   2.227   3.298  1.1914  0.1840 -0.2749
 1238Sol     HW 8027   3.093   2.243   3.448 -0.8399 -1.3300 -0.3644
 1238Sol     MW 8028   3.101   2.283   3.368  0.0540 -0.2393  0.3659
 1239Sol     OW 8029   3.286   0.865   7.088  0.1397 -0.3620  0.4386
 1239Sol     HW 8030   3.228   0.926   7.133 -1.1205  0.6021 -2.4137
 1239Sol     HW 8031   3.233   0.787   7.074  0.2762 -0.3675 -0.0510
 1239Sol     MW 8032   3.276   0.864   7.091  0.4180 -0.0307 -0.6582
 1240Sol     OW 8033   1.493   1.079   2.406 -0.3446  0.7345 -0.1456
 1240Sol     HW 8034   1.562   1.123   2.455 -0.1073  2.3884 -1.9197
 1240Sol     HW 8035   1.534   1.057   2.322 -1.5151  0.3254 -0.6160
 1240Sol     MW 8036   1.503   1.081   2.403 -0.1979  0.2854 -0.0181
 1241Sol     OW 8037   1.668   2.584   6.954 -0.0896  0.0146 -0.2998
 1241Sol     HW 8038   1.726   2.601   7.028  0.4554 -0.5174 -0.5947
 1241Sol     HW 8039   1.725   2.592   6.877 -0.8618  1.4985 -0.7138
 1241Sol     MW 8040   1.679   2.586   6.954 -0.2589 -0.3631  0.6786
 1242Sol     OW 8041   1.284   2.918   6.762  0.7268 -0.2261  0.2791
 1242Sol     HW 8042   1.290   2.983   6.692  0.4026 -2.1085 -1.5465
 1242Sol     HW 8043   1.374   2.891   6.778  0.4798 -3.2559 -2.8314
 1242Sol     MW 8044   1.292   2.921   6.757  0.4085 -0.0386  0.1417
 1243Sol     OW 8045   0.568   2.887   5.413 -0.0434  0.0980  0.5696
 1243Sol     HW 8046   0.475   2.910   5.416 -0.0272  0.3817 -0.6490
 1243Sol     HW 8047   0.573   2.800   5.453 -0.7969  0.2053  0.8965
 1243Sol     MW 8048   0.560   2.881   5.417 -0.0107 -0.4183  0.0834
 1244Sol     OW 8049   0.196   0.308   7.273  0.1471 -0.0460  0.4515
 1244Sol     HW 8050   0.267   0.260   7.314  0.1898 -0.0900  0.3250
 1244Sol     HW 8051   0.151   0.352   7.346  1.5599  1.6689  0.3187
 1244Sol     MW 8052   0.198   0.308   7.283 -0.1497  0.3284 -0.8671
 1245Sol     OW 8053   1.510   2.954   9.308 -0.1028 -0.3037  0.4313
 1245Sol     HW 8054   1.563   2.904   9.371 -0.3717 -0.7273  0.3246
 1245Sol     HW 8055   1.541   3.044   9.317  0.4056 -0.4934  0.6089
 1245Sol     MW 8056   1.517   2.958   9.315  0.6902  0.1473  0.2952
 1246Sol     OW 8057   0.790   0.674   4.786  0.2194  0.2807  0.0967
 1246Sol     HW 8058   0.702   0.700   4.814  0.0188  1.3986 -1.4924
 1246Sol     HW 8059   0.818   0.610   4.852 -1.6069  0.2132  0.8509
 1246Sol     MW 8060   0.785   0.671   4.795  0.1643 -0.1948  0.1341
 1247Sol     OW 8061   1.718   3.062   8.336  0.5518  0.4650 -0.0773
 1247Sol     HW 8062   1.651   3.083   8.271  0.5920 -0.1365 -0.3176
 1247Sol     HW 8063   1.732   3.144   8.383 -2.0205  0.0749  1.4921
 1247Sol     MW 8064   1.713   3.071   8.334 -0.1687  1.1663 -0.0301
 1248Sol     OW 8065   2.474   2.414   1.332 -0.2907 -0.2995  0.0982
 1248Sol     HW 8066   2.460   2.490   1.275  0.0731 -0.1018  0.2727
 1248Sol     HW 8067   2.477   2.340   1.272  0.9312  0.0020 -0.2404
 1248Sol     MW 8068   2.473   2.414   1.321 -0.2723  0.6320  0.6077
 1249Sol     OW 8069   1.961   2.549   2.994 -0.1461  0.0250 -0.7909
 1249Sol     HW 8070   1.981   2.634   2.955 -1.2560  1.0067  0.7101
 1249Sol     HW 8071   1.868   2.536   2.975 -0.7542  0.5893  1.5395
 1249Sol     MW 8072   1.954   2.556   2.989 -0.8790 -0.2427 -0.4213
 1250Sol     OW 8073   3.150   0.092   7.297 -0.3961  0.6395 -0.3573
 1250Sol     HW 8074   3.090   0.052   7.360 -0.1652  1.9304  0.7088
 1250Sol     HW 8075   3.116   0.181   7.285  1.2682  1.3590  0.1974
 1250Sol     MW 8076   3.142   0.097   7.301 -0.0474  0.6988  0.0592
 1251Sol     OW 8077   1.449   0.501  10.034  0.1278 -0.1930 -0.1885
 1251Sol     HW 8078   1.474   0.563  10.103  0.3209 -1.4648  0.9033
 1251Sol     HW 8079   1.457   0.551   9.953  1.2484  0.9211  0.5902
 1251Sol     MW 8080   1.452   0.511  10.033  0.6039 -0.5012  0.4144
 1252Sol     OW 8081   1.502   1.302   3.760  0.7424  0.2621 -0.1327
 1252Sol     HW 8082   1.590   1.265   3.755  0.9147  0.7958 -1.0879
 1252Sol     HW 8083   1.467   1.291   3.672 -0.4672 -0.7239  0.4568
 1252Sol     MW 8084   1.507   1.298   3.752 -0.0634 -0.1352  0.4703
 1253Sol     OW 8085   2.110   2.781   2.917 -0.0948 -0.4116  0.3034
 1253Sol     HW 8086   2.077   2.870   2.925 -0.6497 -0.6310  0.4823
 1253Sol     HW 8087   2.184   2.788   2.856 -0.1957  0.1504  0.2435
 1253Sol     MW 8088   2.114   2.789   2.912 -0.4727  0.2322  0.3328
 1254Sol     OW 8089   0.374   0.545   4.015 -0.2643  0.2652 -0.2209
 1254Sol     HW 8090   0.343   0.498   4.092  2.5115  1.6932  1.8710
 1254Sol     HW 8091   0.416   0.479   3.960  1.2174 -0.1476  1.3960
 1254Sol     MW 8092   0.375   0.535   4.017 -0.0415 -0.3017 -0.1443
 1255Sol     OW 8093   1.339   1.823   2.209  0.2318 -0.2007  0.2338
 1255Sol     HW 8094   1.326   1.845   2.117 -1.4446 -0.0240  0.4967
 1255Sol     HW 8095   1.338   1.907   2.254  3.3164 -0.0702  0.2085
 1255Sol     MW 8096   1.338   1.832   2.205 -0.1833  0.0346  0.6409
 1256Sol     OW 8097   2.295   3.071   3.670 -0.6010 -0.3629 -0.3755
 1256Sol     HW 8098   2.211   3.032   3.647 -1.0233  0.8713 -0.9801
 1256Sol     HW 8099   2.303   3.057   3.765 -1.0514 -1.3014 -0.4719
 1256Sol     MW 8100   2.288   3.067   3.677  0.6714  0.3110  0.2227
 1257Sol     OW 8101   2.189   2.861   5.244  0.4818 -0.3562  0.1678
 1257Sol     HW 8102   2.211   2.825   5.158 -0.5250 -0.5125 -0.0343
 1257Sol     HW 8103   2.094   2.849   5.251  0.6523 -0.9470  1.5855
 1257Sol     MW 8104   2.182   2.857   5.237  1.0979  0.0430 -0.4697
 1258Sol     OW 8105   1.082   0.456   1.770 -0.2959 -0.4318  0.4285
 1258Sol     HW 8106   1.124   0.528   1.723 -2.1364  0.7343  0.5143
 1258Sol     HW 8107   1.037   0.406   1.702  0.6052 -1.2444  0.4266
 1258Sol     MW 8108   1.082   0.458   1.760 -0.2586  0.0571 -0.3346
 1259Sol     OW 8109   2.930   0.477   9.146 -0.3418 -0.1446 -0.3077
 1259Sol     HW 8110   2.861   0.447   9.206  1.4667 -1.5404  1.1319
 1259Sol     HW 8111   2.992   0.405   9.143  1.5055  1.4263 -0.8823
 1259Sol     MW 8112   2.929   0.468   9.151 -0.4176  0.2445  0.0982
 1260Sol     OW 8113   0.842   0.632   8.372  0.4665 -0.1833  0.0618
 1260Sol     HW 8114   0.799   0.565   8.425  1.3137 -0.9646 -0.2197
 1260Sol     HW 8115   0.849   0.593   8.285  0.1224  0.6426 -0.3409
 1260Sol     MW 8116   0.839   0.623   8.369  0.5609 -0.2872 -0.3963
 1261Sol     OW 8117   1.490   3.127   5.666  0.0739  0.4629  0.6550
 1261Sol     HW 8118   1.537   3.142   5.749  0.6601 -0.4095  0.4910
 1261Sol     HW 8119   1.454   3.213   5.643 -0.3424  0.6473  1.9661
 1261Sol     MW 8120   1.491   3.136   5.672 -0.4265  0.4979  0.0126
 1262Sol     OW 8121   1.585   1.960   7.130 -0.1648  0.7612  0.3259
 1262Sol     HW 8122   1.628   1.875   7.141 -0.8686  0.2550 -0.7470
 1262Sol     HW 8123   1.560   1.986   7.218  1.6879  0.7197  0.8935
 1262Sol     MW 8124   1.587   1.955   7.139  0.0922 -0.4047 -0.0130
 1263Sol     OW 8125   0.908   0.430   2.380 -0.2380 -0.0450  0.3828
 1263Sol     HW 8126   0.911   0.470   2.293 -0.4777 -0.8133  0.0113
 1263Sol     HW 8127   0.818   0.445   2.410 -0.4403 -0.6356  0.0800
 1263Sol     MW 8128   0.900   0.435   2.375  0.1064 -0.3392  0.2317
 1264Sol     OW 8129   0.607   0.900   2.357  0.1352  0.1501 -0.3001
 1264Sol     HW 8130   0.552   0.822   2.367 -0.6697  0.6516 -0.8123
 1264Sol     HW 8131   0.696   0.867   2.363 -0.2135 -0.6936  0.3836
 1264Sol     MW 8132   0.610   0.890   2.359 -0.1779 -0.8987  0.2403
 1265Sol     OW 8133   2.006   3.398   7.872  0.0525  0.5660 -1.1586
 1265Sol     HW 8134   1.932   3.433   7.922 -0.6062 -0.9452 -1.0718
 1265Sol     HW 8135   2.023   3.465   7.806 -0.6700  1.4373 -0.4798
 1265Sol     MW 8136   2.001   3.407   7.871  0.1125  0.1802 -0.3315
 1266Sol     OW 8137   0.288   2.601   5.492  0.1561 -0.3834 -0.5314
 1266Sol     HW 8138   0.197   2.616   5.517  0.2408 -0.9952  0.1230
 1266Sol     HW 8139   0.338   2.656   5.551  0.3856 -2.1922  0.9991
 1266Sol     MW 8140   0.284   2.607   5.499  0.3715  0.3014 -0.2661
 1267Sol     OW 8141   3.067   2.609   2.506  0.2682 -0.0126  0.3695
 1267Sol     HW 8142   3.084   2.526   2.461 -0.3537 -0.1564  0.3978
 1267Sol     HW 8143   3.069   2.586   2.599  0.4853  0.0798  0.3875
 1267Sol     MW 8144   3.069   2.599   2.510 -0.2682  0.0755  0.4495
 1268Sol     OW 8145   3.107   0.837   2.479 -0.7137 -0.3127 -0.3333
 1268Sol     HW 8146   3.199   0.812   2.468 -0.6274 -0.1363 -0.0077
 1268Sol     HW 8147   3.110   0.931   2.496 -0.7648 -0.7869  2.4557
 1268Sol     MW 8148   3.116   0.843   2.479  0.0273  0.0027 -0.5897
 1269Sol     OW 8149   2.956   0.317   9.793  0.1096  0.2198 -0.1203
 1269Sol     HW 8150   2.991   0.373   9.724 -0.3145  1.0276  0.3078
 1269Sol     HW 8151   3.030   0.263   9.821  0.2350 -0.2690 -1.3493
 1269Sol     MW 8152   2.965   0.317   9.790  0.1255 -0.1047  0.5305
 1270Sol     OW 8153   1.177   2.834   3.896  0.8449  0.0652 -0.4473
 1270Sol     HW 8154   1.226   2.882   3.963  0.2295  1.2892 -0.8629
 1270Sol     HW 8155   1.085   2.856   3.913  0.5363 -1.0911 -0.5555
 1270Sol     MW 8156   1.173   2.840   3.904  0.2603  0.1297  0.1683
 1271Sol     OW 8157   2.562   2.451   1.582 -0.4595  0.4576 -0.5326
 1271Sol     HW 8158   2.621   2.521   1.607 -0.4982  0.2840  0.0554
 1271Sol     HW 8159   2.536   2.472   1.493  3.0418 -1.2029 -2.0343
 1271Sol     MW 8160   2.565   2.459   1.577 -0.5633 -0.0531 -0.4144
 1272Sol     OW 8161   0.817   0.828   3.786  0.2187  0.1066 -0.4902
 1272Sol     HW 8162   0.824   0.843   3.880 -1.4728 -0.7379 -0.2203
 1272Sol     HW 8163   0.742   0.769   3.776  0.4009  0.1612 -2.3577
 1272Sol     MW 8164   0.811   0.824   3.793 -0.0337  0.0416 -0.4657
 1273Sol     OW 8165   2.357   1.728   8.804  0.3993 -0.5306  0.2870
 1273Sol     HW 8166   2.287   1.670   8.776 -0.4740  0.2710  0.7760
 1273Sol     HW 8167   2.314   1.792   8.861  1.7196 -0.6895  1.4905
 1273Sol     MW 8168   2.347   1.729   8.807 -0.2360 -0.3870  0.7057
 1274Sol     OW 8169   2.776   1.452   1.527  0.4413  0.4880  0.8455
 1274Sol     HW 8170   2.832   1.442   1.605  0.7905 -2.6985  0.2712
 1274Sol     HW 8171   2.773   1.364   1.489 -3.2200  1.0619 -0.3680
 1274Sol     MW 8172   2.781   1.443   1.531 -0.1192 -0.1511  0.0677
 1275Sol     OW 8173   1.244   2.491   6.386 -0.2690 -0.0366 -0.3602
 1275Sol     HW 8174   1.303   2.492   6.310  0.8315 -1.6157  0.4329
 1275Sol     HW 8175   1.292   2.441   6.452 -1.7104  0.3168  0.9787
 1275Sol     MW 8176   1.254   2.486   6.385 -1.1494  0.1447 -0.1186
 1276Sol     OW 8177   3.012   3.229   2.924 -0.0427 -0.1411  0.5508
 1276Sol     HW 8178   2.991   3.186   2.841  1.6485  3.2310 -1.7303
 1276Sol     HW 8179   2.933   3.280   2.945  0.5432  1.2143 -0.4860
 1276Sol     MW 8180   3.003   3.229   2.919 -0.4027  0.3927  0.2110
 1277Sol     OW 8181   2.980   0.192   8.181  0.3488 -0.2149 -0.3793
 1277Sol     HW 8182   2.901   0.192   8.127 -0.9479 -1.2043  1.4548
 1277Sol     HW 8183   3.019   0.106   8.166 -0.8058 -1.0782  1.3002
 1277Sol     MW 8184   2.976   0.184   8.175  0.4357 -0.5021  0.0705
 1278Sol     OW 8185   2.118   2.379   1.982 -0.2133  0.1655  0.2513
 1278Sol     HW 8186   2.152   2.329   1.907 -2.6762 -0.2785 -0.6051
 1278Sol     HW 8187   2.138   2.324   2.058  0.0496 -0.5830 -0.3447
 1278Sol     MW 8188   2.123   2.369   1.982 -0.0472 -0.0613  0.2777
 1279Sol     OW 8189   0.813   2.072   9.085 -0.1339  0.3213 -0.4255
 1279Sol     HW 8190   0.881   2.079   9.018 -0.2741  0.6445 -0.5348
 1279Sol     HW 8191   0.777   2.160   9.092 -2.2983 -0.3506 -2.2469
 1279Sol     MW 8192   0.816   2.080   9.079  0.0477 -0.3241 -0.5471
 1280Sol     OW 8193   2.376   3.314   8.999 -0.1204 -0.5305  0.2718
 1280Sol     HW 8194   2.421   3.320   8.915 -0.5308  0.2393  0.1035
 1280Sol     HW 8195   2.446   3.297   9.062  0.0497 -2.2673 -0.3663
 1280Sol     MW 8196   2.387   3.313   8.997 -0.0944 -0.4793  0.6186
 1281Sol     OW 8197   0.920   3.012   2.865  0.5018 -0.1892 -0.8544
 1281Sol     HW 8198   0.858   3.018   2.938  1.7481  0.7060  0.1571
 1281Sol     HW 8199   0.947   2.920   2.863 -0.2565 -0.4139 -0.8020
 1281Sol     MW 8200   0.917   3.004   2.871 -0.1285  0.3004 -0.2161
 1282Sol     OW 8201   0.196   0.790   6.088 -0.5192 -0.3345  0.6885
 1282Sol     HW 8202   0.148   0.871   6.071  2.5469  1.7568  1.4648
 1282Sol     HW 8203   0.175   0.733   6.013 -1.1033  1.9992 -0.9714
 1282Sol     MW 8204   0.190   0.792   6.080 -0.0359 -0.0148  1.3817
 1283Sol     OW 8205   1.863   2.572   6.767 -0.1885  0.3795  0.1422
 1283Sol     HW 8206   1.918   2.646   6.793  0.3636  0.2495 -0.6411
 1283Sol     HW 8207   1.831   2.595   6.680  0.5390 -0.5942 -0.3949
 1283Sol     MW 8208   1.865   2.580   6.762  0.2264 -0.0670 -0.1436
 1284Sol     OW 8209   1.565   0.189   1.742  0.8002  0.1365 -0.5057
 1284Sol     HW 8210   1.511   0.148   1.674  0.7394 -0.1755 -0.2686
 1284Sol     HW 8211   1.613   0.258   1.696  1.2542 -0.5076 -1.0058
 1284Sol     MW 8212   1.564   0.191   1.732  0.4009  0.0288 -0.1052
 1285Sol     OW 8213   0.674   0.460   4.150 -0.2071 -0.0090 -0.2781
 1285Sol     HW 8214   0.601   0.487   4.206 -0.1364  1.4905 -0.8915
 1285Sol     HW 8215   0.723   0.398   4.203 -0.9498  0.3095  0.7915
 1285Sol     MW 8216   0.671   0.457   4.160 -0.1245 -0.1241  0.4116
 1286Sol     OW 8217   1.660   3.441   5.899  0.4724  0.0370 -0.0324
 1286Sol     HW 8218   1.610   3.504   5.848 -0.5990 -1.7324 -1.2208
 1286Sol     HW 8219   1.751   3.455   5.872  0.3005  1.3000 -0.0024
 1286Sol     MW 8220   1.664   3.448   5.892 -0.0599 -0.7196  0.7926
 1287Sol     OW 8221   0.329   0.323   6.582  0.0011  0.6052 -0.2385
 1287Sol     HW 8222   0.392   0.379   6.628  1.7998 -1.2181 -0.4459
 1287Sol     HW 8223   0.304   0.374   6.504  0.9530  1.4726  0.0111
 1287Sol     MW 8224   0.332   0.333   6.579  0.0908  0.1023 -0.5721
 1288Sol     OW 8225   0.274   1.450   7.305 -0.0810 -0.7978  0.5398
 1288Sol     HW 8226   0.310   1.374   7.350  2.0178  0.5400  1.1563
 1288Sol     HW 8227   0.220   1.493   7.371  1.0946 -0.1352  1.0679
 1288Sol     MW 8228   0.272   1.447   7.315 -0.3731  0.0475  0.2915
 1289Sol     OW 8229   0.483   2.976   5.765  0.1399 -0.3345 -0.0178
 1289Sol     HW 8230   0.530   2.993   5.847 -0.7626 -1.4428  0.7421
 1289Sol     HW 8231   0.423   3.050   5.757  1.5133  0.7237 -0.6297
 1289Sol     MW 8232   0.482   2.984   5.772  0.1778 -0.2621 -0.0043
 1290Sol     OW 8233   1.399   1.703   1.781 -0.0229 -0.2273  0.1480
 1290Sol     HW 8234   1.446   1.781   1.755  0.7349 -0.2048  1.5245
 1290Sol     HW 8235   1.361   1.669   1.700  0.8462  0.7571 -0.6780
 1290Sol     MW 8236   1.400   1.707   1.771 -0.3006  0.4604  0.0865
 1291Sol     OW 8237   3.129   0.498   1.779  0.2366  0.4176  0.4791
 1291Sol     HW 8238   3.149   0.591   1.767 -1.0802  0.7738  0.9469
 1291Sol     HW 8239   3.076   0.475   1.703  1.1235 -0.1340  0.0166
 1291Sol     MW 8240   3.126   0.504   1.771  0.1260 -0.1870 -0.2359
 1292Sol     OW 8241   1.157   3.395   2.550  0.2713 -0.5053  0.4366
 1292Sol     HW 8242   1.242   3.371   2.513 -0.1187 -2.3021  0.6537
 1292Sol     HW 8243   1.113   3.443   2.480  0.8977 -0.8564 -0.2078
 1292Sol     MW 8244   1.161   3.397   2.540 -0.0520 -0.3732 -0.1394
 1293Sol     OW 8245   3.160   0.795   9.265  0.8143  0.6045 -0.2184
 1293Sol     HW 8246   3.237   0.757   9.223  1.1549 -1.8725  2.4708
 1293Sol     HW 8247   3.189   0.816   9.354 -1.7882 -1.2432  1.1418
 1293Sol     MW 8248   3.170   0.793   9.270 -0.0345 -0.1438 -0.2376
 1294Sol     OW 8249   1.269   1.591   2.316 -0.0843  0.4975  0.2432
 1294Sol     HW 8250   1.266   1.595   2.412 -0.8846  0.5119  0.2263
 1294Sol     HW 8251   1.325   1.664   2.290  0.2952  0.3775  0.7060
 1294Sol     MW 8252   1.274   1.598   2.322  0.3141  0.6815  0.1563
 1295Sol     OW 8253   2.745   2.625   7.358 -0.0646  0.2027 -0.1697
 1295Sol     HW 8254   2.734   2.639   7.264 -0.2583 -0.0326 -0.1828
 1295Sol     HW 8255   2.745   2.713   7.395  2.4802  0.4506 -0.6474
 1295Sol     MW 8256   2.744   2.634   7.353 -0.3957  0.1785  0.2304
 1296Sol     OW 8257   1.434   3.313   1.404 -0.0643  0.3308 -0.0467
 1296Sol     HW 8258   1.422   3.393   1.455 -2.6840 -0.8449  1.2269
 1296Sol     HW 8259   1.510   3.271   1.444 -0.1266  1.0086  0.7982
 1296Sol     MW 8260   1.440   3.317   1.412 -0.2065 -0.0367  0.1827
 1297Sol     OW 8261   1.803   1.217   4.725  0.0736  0.2222 -0.2611
 1297Sol     HW 8262   1.860   1.212   4.803  1.8031 -0.9570 -1.5598
 1297Sol     HW 8263   1.814   1.307   4.694  1.9955 -0.2569 -1.0328
 1297Sol     MW 8264   1.809   1.225   4.729 -0.1199 -0.0142 -0.0252
 1298Sol     OW 8265   0.996   1.235   4.201 -0.3250 -0.4474  0.2154
 1298Sol     HW 8266   1.090   1.250   4.208 -0.8133  1.7156  3.1467
 1298Sol     HW 8267   0.982   1.150   4.242  0.6059 -1.9401 -2.4581
 1298Sol     MW 8268   1.003   1.229   4.205  0.4714  0.3118 -0.7706
 1299Sol     OW 8269   0.864   0.064   9.093  0.1102  0.5393 -0.2672
 1299Sol     HW 8270   0.877   0.023   9.007  2.1127  0.0140  0.2592
 1299Sol     HW 8271   0.919   0.013   9.152 -0.7139  1.3341  1.2121
 1299Sol     MW 8272   0.870   0.056   9.091  0.1816  0.1029 -0.7948
 1300Sol     OW 8273   1.199   1.188   6.387  0.1405  0.2415 -0.4465
 1300Sol     HW 8274   1.113   1.178   6.345 -0.4354  0.3809  0.6898
 1300Sol     HW 8275   1.233   1.271   6.354 -0.2672  0.2994 -0.7236
 1300Sol     MW 8276   1.194   1.194   6.380 -0.0700  0.0960  0.0420
 1301Sol     OW 8277   1.226   1.666   3.845  0.7788 -0.1776 -0.0581
 1301Sol     HW 8278   1.254   1.673   3.754  0.6671  0.8176 -0.0210
 1301Sol     HW 8279   1.199   1.575   3.855 -0.5020  0.0286 -1.4089
 1301Sol     MW 8280   1.226   1.659   3.838 -0.2650  0.3265 -0.0786
 1302Sol     OW 8281   2.970   1.535   3.123  0.0773 -0.3697 -0.8980
 1302Sol     HW 8282   2.908   1.546   3.051  0.2004 -2.1573 -1.3105
 1302Sol     HW 8283   3.055   1.555   3.084 -0.1232  1.2287 -0.5552
 1302Sol     MW 8284   2.972   1.537   3.113  0.1164  0.4492  0.2094
 1303Sol     OW 8285   2.010   0.525   7.375 -0.4173 -0.5959  0.5778
 1303Sol     HW 8286   2.062   0.457   7.333  1.0211 -0.0007  1.3708
 1303Sol     HW 8287   1.924   0.485   7.388  0.6973 -2.6263  1.9923
 1303Sol     MW 8288   2.007   0.515   7.372  0.1160  0.3098 -0.3250
 1304Sol     OW 8289   0.781   2.578   5.620 -0.8281  0.2027  0.3971
 1304Sol     HW 8290   0.766   2.658   5.671  1.8736  0.4756  0.8258
 1304Sol     HW 8291   0.720   2.585   5.546 -2.5699  1.3136  1.8972
 1304Sol     MW 8292   0.774   2.586   5.618  0.5053  0.5895  0.5553
 1305Sol     OW 8293   1.881   2.211   7.610 -0.4039  0.0577 -0.1897
 1305Sol     HW 8294   1.874   2.306   7.600  0.4366  0.0807 -0.5840
 1305Sol     HW 8295   1.949   2.199   7.676  0.0492 -0.2890 -0.7181
 1305Sol     MW 8296   1.887   2.218   7.615  0.1355 -0.1924  0.1931
 1306Sol     OW 8297   1.008   2.739   2.865 -0.4797  0.3117 -0.0880
 1306Sol     HW 8298   0.974   2.681   2.933  0.8406 -0.3803 -0.0086
 1306Sol     HW 8299   1.089   2.773   2.902 -0.7933  1.5276 -0.4981
 1306Sol     MW 8300   1.012   2.737   2.875 -0.4587  0.5524  0.6180
 1307Sol     OW 8301   3.014   1.446   1.694  0.0441 -0.2075  0.1025
 1307Sol     HW 8302   3.078   1.443   1.623  1.5549  0.9526  1.3694
 1307Sol     HW 8303   2.983   1.536   1.694 -0.1464 -0.2715  0.7493
 1307Sol     MW 8304   3.017   1.454   1.688 -0.1550 -0.3244  0.3202
 1308Sol     OW 8305   2.033   1.553   7.968 -0.4516 -0.3047 -0.4464
 1308Sol     HW 8306   2.046   1.459   7.953 -0.4591 -0.1238 -1.5670
 1308Sol     HW 8307   1.947   1.558   8.011 -1.1605 -0.6973 -1.7724
 1308Sol     MW 8308   2.026   1.545   7.971 -0.7077  0.4342  0.5418
 1309Sol     OW 8309   2.931   0.950   4.215  0.2894 -0.8435  0.0111
 1309Sol     HW 8310   2.860   0.991   4.166  0.0820 -0.6813  0.4476
 1309Sol     HW 8311   3.011   0.991   4.180  0.1618 -0.9241 -0.3771
 1309Sol     MW 8312   2.932   0.958   4.207 -0.3184 -0.5746 -0.4356
 1310Sol     OW 8313   2.421   2.100   9.035  0.5635 -0.2155  0.1787
 1310Sol     HW 8314   2.479   2.123   9.108  2.0887 -0.1278 -1.0316
 1310Sol     HW 8315   2.467   2.131   8.957 -0.9318 -0.5241 -0.8509
 1310Sol     MW 8316   2.431   2.104   9.034  0.2240  0.0488 -0.0233
 1311Sol     OW 8317   1.703   1.887   1.317  0.6084 -0.1736 -0.2368
 1311Sol     HW 8318   1.740   1.810   1.361  1.0447 -0.2338 -0.7042
 1311Sol     HW 8319   1.635   1.918   1.376 -1.3287 -2.4176 -1.1944
 1311Sol     MW 8320   1.700   1.883   1.326  0.2044  0.1714 -0.5151
 1312Sol     OW 8321   3.185   2.439   6.735  0.1979 -0.2996  0.4962
 1312Sol     HW 8322   3.139   2.491   6.669  3.2102  0.1909 -1.3529
 1312Sol     HW 8323   3.217   2.362   6.687  0.5029 -1.0926  1.9277
 1312Sol     MW 8324   3.184   2.437   6.725  0.7558 -0.2702 -0.5791
 1313Sol     OW 8325   0.911   2.708   3.372  0.0752 -0.3188 -0.3756
 1313Sol     HW 8326   0.984   2.692   3.432 -0.0502  2.9792  0.7385
 1313Sol     HW 8327   0.835   2.718   3.430 -0.5452  0.2412 -1.2834
 1313Sol     MW 8328   0.910   2.707   3.383  0.3554 -0.1150  0.0082
 1314Sol     OW 8329   0.585   1.745   1.786  0.7301  0.1520 -0.0278
 1314Sol     HW 8330   0.498   1.739   1.825  0.1255 -0.9738 -1.4954
 1314Sol     HW 8331   0.624   1.823   1.825 -0.7020  0.3046  1.1162
 1314Sol     MW 8332   0.581   1.752   1.793  0.2351 -0.3824 -0.3115
 1315Sol     OW 8333   2.855   1.611   9.189  0.5426 -0.4707 -0.2656
 1315Sol     HW 8334   2.825   1.593   9.099  0.3883 -0.6981 -0.1708
 1315Sol     HW 8335   2.776   1.603   9.242  0.4418  0.6554 -0.2380
 1315Sol     MW 8336   2.845   1.608   9.186  0.4060  0.0560  0.2900
 1316Sol     OW 8337   1.088   2.600   6.939  0.0491  0.1243  0.8272
 1316Sol     HW 8338   1.139   2.532   6.894 -0.4071 -0.9208  1.8603
 1316Sol     HW 8339   1.119   2.682   6.901  1.3086 -0.5987  0.2483
 1316Sol     MW 8340   1.096   2.601   6.932 -0.0162 -0.1563 -0.1390
 1317Sol     OW 8341   2.366   0.083   6.305  0.3711  0.0088 -0.2690
 1317Sol     HW 8342   2.311   0.012   6.338  1.0774 -0.4816 -0.1287
 1317Sol     HW 8343   2.328   0.106   6.220 -0.0695 -0.3023 -0.1559
 1317Sol     MW 8344   2.358   0.079   6.300 -0.3776 -0.1690 -0.6342
 1318Sol     OW 8345   0.434   0.794   9.136 -0.5121 -0.2032 -0.6153
 1318Sol     HW 8346   0.485   0.818   9.058  0.2714 -1.7363 -0.5961
 1318Sol     HW 8347   0.343   0.801   9.107 -0.2677  0.7351 -1.2042
 1318Sol     MW 8348   0.431   0.797   9.126 -0.1266 -0.9908 -0.2011
 1319Sol     OW 8349   2.897   1.654   1.980  0.2358  0.3553 -0.2990
 1319Sol     HW 8350   2.857   1.741   1.976  2.0319  1.2475  0.4710
 1319Sol     HW 8351   2.945   1.653   2.063 -0.0033 -1.4846 -0.1557
 1319Sol     MW 8352   2.898   1.662   1.987  0.0428 -0.1591 -0.2691
 1320Sol     OW 8353   0.753   2.845   5.698 -0.2347  0.2417 -0.1267
 1320Sol     HW 8354   0.790   2.897   5.770  0.3326  0.0693 -0.2921
 1320Sol     HW 8355   0.665   2.881   5.686  0.4692  1.7695 -0.8323
 1320Sol     MW 8356   0.749   2.853   5.704 -0.0229 -0.4659  0.1044
 1321Sol     OW 8357   1.246   1.483   9.097 -0.3055 -0.0004  0.3548
 1321Sol     HW 8358   1.232   1.424   9.171  0.5092 -2.3122 -1.2503
 1321Sol     HW 8359   1.337   1.512   9.106 -0.8178  1.3045  1.3458
 1321Sol     MW 8360   1.253   1.480   9.104 -0.3473  0.0036  0.0331
 1322Sol     OW 8361   0.011   1.779   7.675 -0.4549  0.1326  0.2817
 1322Sol     HW 8362   0.090   1.833   7.678  0.7024 -1.2959 -2.3056
 1322Sol     HW 8363   0.029   1.707   7.735 -0.4586  0.6598  0.9197
 1322Sol     MW 8364   0.020   1.777   7.680  0.1246 -0.3657 -0.4514
 1323Sol     OW 8365   1.207   0.910   3.088  0.9554  0.1931 -0.0349
 1323Sol     HW 8366   1.113   0.912   3.068  0.9273 -1.0701 -0.0906
 1323Sol     HW 8367   1.210   0.898   3.183  1.0540 -0.6803 -0.1467
 1323Sol     MW 8368   1.199   0.909   3.095  0.1830 -0.2055 -0.4867
 1324Sol     OW 8369   1.579   2.503   4.883  0.0441  0.0337  0.3916
 1324Sol     HW 8370   1.674   2.496   4.875  0.1528 -0.5360  2.0053
 1324Sol     HW 8371   1.547   2.414   4.870 -0.4157  0.5016 -1.8083
 1324Sol     MW 8372   1.585   2.494   4.881 -0.1288  0.0718  0.0341
 1325Sol     OW 8373   0.390   3.040   7.831  0.1609  0.5492 -0.3401
 1325Sol     HW 8374   0.418   2.967   7.776  0.3377  1.2564 -1.2032
 1325Sol     HW 8375   0.318   3.004   7.884 -0.7821  0.1529 -1.8466
 1325Sol     MW 8376   0.386   3.031   7.830  0.4754 -0.1065  0.2308
 1326Sol     OW 8377   1.398   0.242   8.982 -0.2502 -0.1773 -0.1208
 1326Sol     HW 8378   1.338   0.168   8.974 -0.2395 -0.4028  1.8156
 1326Sol     HW 8379   1.387   0.290   8.900 -2.3082 -0.7873 -0.2203
 1326Sol     MW 8380   1.392   0.239   8.974 -0.6346  0.8838 -0.4153
 1327Sol     OW 8381   1.662   0.991   8.217  0.2744 -0.6508 -0.0952
 1327Sol     HW 8382   1.697   1.070   8.176  0.6967 -0.4731  0.6010
 1327Sol     HW 8383   1.568   0.995   8.202  0.4593 -0.7937 -1.4080
 1327Sol     MW 8384   1.657   0.998   8.212  0.0845  0.3284 -0.4924
 1328Sol     OW 8385   0.481   0.658   2.340  0.2286  0.3160  0.1706
 1328Sol     HW 8386   0.431   0.610   2.273  0.8760 -0.5279  0.2819
 1328Sol     HW 8387   0.415   0.684   2.404 -0.8049  3.2742 -1.9830
 1328Sol     MW 8388   0.470   0.656   2.340  0.4294  0.4391 -0.3036
 1329Sol     OW 8389   2.028   2.029   9.568 -0.2534  0.2207 -0.0624
 1329Sol     HW 8390   2.065   1.945   9.593  0.6244  0.8191  0.6641
 1329Sol     HW 8391   2.095   2.070   9.513 -0.3811  0.7431  0.1669
 1329Sol     MW 8392   2.037   2.025   9.565  0.5407 -0.2256  0.0104
 1330Sol     OW 8393   1.301   2.622   8.544 -0.2385 -0.2072 -0.1429
 1330Sol     HW 8394   1.339   2.655   8.625 -0.3462  0.6378 -0.4330
 1330Sol     HW 8395   1.355   2.546   8.522  1.8238  1.4521 -0.9653
 1330Sol     MW 8396   1.310   2.618   8.549 -0.0850  0.1581  0.4802
 1331Sol     OW 8397   3.164   2.841   8.822 -0.4982 -0.1339 -0.2689
 1331Sol     HW 8398   3.169   2.913   8.885 -0.3625  0.0205 -0.4531
 1331Sol     HW 8399   3.251   2.837   8.783 -0.1486 -1.2102  0.6085
 1331Sol     MW 8400   3.172   2.847   8.824 -0.1543 -0.1521  0.2032
 1332Sol     OW 8401   1.473   1.462   3.267 -0.4968 -0.1688  0.3179
 1332Sol     HW 8402   1.430   1.399   3.323 -1.0694 -0.2369 -0.1931
 1332Sol     HW 8403   1.482   1.540   3.321 -0.3801 -0.4712  0.7388
 1332Sol     MW 8404   1.470   1.463   3.277 -0.4294 -0.3721 -0.3668
 1333Sol     OW 8405   1.361   0.604   5.640  0.1597  1.2160 -0.5853
 1333Sol     HW 8406   1.347   0.687   5.595  0.0090  0.9772 -0.9868
 1333Sol     HW 8407   1.425   0.557   5.585  0.0920  0.9841 -0.4685
 1333Sol     MW 8408   1.366   0.607   5.631  0.0132  0.7975  0.3707
 1334Sol     OW 8409   0.581   1.785   3.565 -1.4582 -0.3283  0.1066
 1334Sol     HW 8410   0.508   1.836   3.598 -0.8936  3.0461 -3.4620
 1334Sol     HW 8411   0.541   1.706   3.528 -2.8525 -0.3335  1.6204
 1334Sol     MW 8412   0.571   1.782   3.564  0.4890 -0.3893  0.2860
 1335Sol     OW 8413   2.975   1.130   8.382  0.5849  0.5467 -0.2306
 1335Sol     HW 8414   2.898   1.144   8.437  0.0288 -2.4704 -0.1421
 1335Sol     HW 8415   2.942   1.127   8.293  0.5358 -0.8878 -0.1818
 1335Sol     MW 8416   2.965   1.131   8.379  0.0212  0.0160  0.1261
 1336Sol     OW 8417   3.089   2.099   7.384  0.3609 -0.3874 -0.0439
 1336Sol     HW 8418   3.182   2.082   7.396  0.0585 -1.0967  1.5185
 1336Sol     HW 8419   3.055   2.019   7.344  0.0114 -1.1672  1.7169
 1336Sol     MW 8420   3.094   2.090   7.382  0.2653 -0.6198 -0.1782
 1337Sol     OW 8421   2.349   2.842   6.571 -0.2758  0.1426 -0.1186
 1337Sol     HW 8422   2.431   2.851   6.523 -0.2533 -0.1208 -0.1316
 1337Sol     HW 8423   2.349   2.751   6.601 -1.5978 -0.5087 -2.0277
 1337Sol     MW 8424   2.356   2.835   6.569 -0.2159 -0.1535 -0.9289
 1338Sol     OW 8425   2.782   2.655   2.139  0.1798 -0.9794 -0.7118
 1338Sol     HW 8426   2.691   2.628   2.152 -0.1817 -0.7158 -2.6108
 1338Sol     HW 8427   2.810   2.686   2.225 -2.0598  0.5326 -0.4879
 1338Sol     MW 8428   2.776   2.655   2.148  0.3407  0.5334 -0.4562
 1339Sol     OW 8429   1.763   0.730   5.380  0.3256  0.4824  0.7523
 1339Sol     HW 8430   1.821   0.663   5.344 -0.0106 -0.8226  2.5219
 1339Sol     HW 8431   1.821   0.794   5.420  0.7019  1.9838 -2.1023
 1339Sol     MW 8432   1.773   0.730   5.381  0.0845  0.4718 -0.2721
 1340Sol     OW 8433   1.548   0.070   2.201  0.1623 -0.0089  0.0669
 1340Sol     HW 8434   1.547   0.049   2.108  0.0037  1.5474 -0.2901
 1340Sol     HW 8435   1.617   0.014   2.237 -2.3430 -3.4613 -0.2638
 1340Sol     MW 8436   1.554   0.063   2.196 -0.1968 -0.2670  0.1891
 1341Sol     OW 8437   1.679   2.064   7.747 -0.3298  0.3025  0.3283
 1341Sol     HW 8438   1.718   1.977   7.744  0.1724  0.5302  0.2577
 1341Sol     HW 8439   1.734   2.118   7.690 -1.5077  0.3234 -0.8194
 1341Sol     MW 8440   1.687   2.061   7.742  0.2040  0.4783  0.1391
 1342Sol     OW 8441   1.202   2.577   5.993 -0.0972  0.5479 -0.0517
 1342Sol     HW 8442   1.181   2.504   5.936 -0.4044  1.0327 -0.5620
 1342Sol     HW 8443   1.129   2.581   6.055 -1.1052  1.7140 -1.3114
 1342Sol     MW 8444   1.194   2.571   5.994 -0.5179 -0.0592 -0.2897
 1343Sol     OW 8445   1.234   0.871   4.314 -0.3243  0.6791 -0.0996
 1343Sol     HW 8446   1.299   0.940   4.297  1.2809 -0.6619  0.5297
 1343Sol     HW 8447   1.254   0.841   4.403 -0.9963 -0.6339 -0.3905
 1343Sol     MW 8448   1.241   0.875   4.321 -0.2268 -0.1272 -0.8591
 1344Sol     OW 8449   0.256   0.399   5.335 -0.7004 -0.5791 -0.1123
 1344Sol     HW 8450   0.310   0.325   5.362  0.6808  0.0543 -1.1219
 1344Sol     HW 8451   0.271   0.466   5.401 -0.5244 -0.5292 -0.2033
 1344Sol     MW 8452   0.262   0.399   5.343  0.4162  0.2701  0.0506
 1345Sol     OW 8453   2.125   0.776   4.886  0.2718 -0.3122 -0.3955
 1345Sol     HW 8454   2.093   0.837   4.953  0.1524 -0.1244 -0.6245
 1345Sol     HW 8455   2.110   0.821   4.803 -0.4285 -0.9215 -0.6085
 1345Sol     MW 8456   2.121   0.785   4.885 -0.0639  0.5537 -0.6001
 1346Sol     OW 8457   3.034   2.139   4.021 -0.1904  0.4845 -0.2500
 1346Sol     HW 8458   3.089   2.210   3.989 -0.9834  0.6355 -1.2837
 1346Sol     HW 8459   2.951   2.149   3.975 -0.0592 -1.5584 -1.0145
 1346Sol     MW 8460   3.032   2.146   4.014  0.0563 -0.0591 -0.0666
 1347Sol     OW 8461   0.334   1.795   6.153 -0.1990 -0.1371  0.5744
 1347Sol     HW 8462   0.290   1.717   6.120  2.4225 -1.2985 -0.3005
 1347Sol     HW 8463   0.357   1.844   6.074  0.8167  0.0257  0.9598
 1347Sol     MW 8464   0.332   1.793   6.143  0.2373  0.0245 -0.2163
 1348Sol     OW 8465   2.098   0.391   1.983 -0.4285 -0.2058  0.2244
 1348Sol     HW 8466   2.105   0.458   1.915  0.0258 -0.9272 -0.4534
 1348Sol     HW 8467   2.077   0.440   2.063 -1.5193  0.5891 -0.5327
 1348Sol     MW 8468   2.097   0.402   1.984 -0.2869  0.3025 -0.3791
 1349Sol     OW 8469   1.922   1.348   4.324 -0.5078  0.0517 -0.0048
 1349Sol     HW 8470   1.852   1.337   4.259 -0.7918 -1.9870  0.6045
 1349Sol     HW 8471   1.881   1.401   4.393 -2.2028 -2.9144  1.3598
 1349Sol     MW 8472   1.912   1.352   4.325  0.3851  0.2861 -0.1875
 1350Sol     OW 8473   1.796   1.641   7.574 -0.1056  0.8415  0.1214
 1350Sol     HW 8474   1.866   1.661   7.511  0.4768 -0.7035  0.2529
 1350Sol     HW 8475   1.721   1.690   7.542 -0.4097 -1.4908 -3.0374
 1350Sol     MW 8476   1.796   1.647   7.565 -0.1855  0.2199 -0.4719
 1351Sol     OW 8477   0.412   1.061   3.690  0.9732 -0.2698  0.3999
 1351Sol     HW 8478   0.416   0.981   3.742 -1.3760 -0.1612  0.8220
 1351Sol     HW 8479   0.355   1.119   3.740 -0.9470  0.0214 -2.0203
 1351Sol     MW 8480   0.407   1.059   3.699 -0.2981  0.0871  0.1662
 1352Sol     OW 8481   2.568   1.541   9.259  0.4345  0.1131 -0.3001
 1352Sol     HW 8482   2.525   1.465   9.297  2.1850  0.7454  3.0722
 1352Sol     HW 8483   2.541   1.540   9.167 -2.4327 -2.5077  0.4932
 1352Sol     MW 8484   2.562   1.534   9.254  0.4563  0.2969  0.2386
 1353Sol     OW 8485   2.847   0.691   8.973  0.7756  0.7136 -0.1393
 1353Sol     HW 8486   2.820   0.762   9.032 -0.3437  0.0268  0.1973
 1353Sol     HW 8487   2.854   0.615   9.030 -0.0501  0.1023 -0.8287
 1353Sol     MW 8488   2.845   0.690   8.984  0.3555  0.0686 -0.0699
 1354Sol     OW 8489   2.597   2.316   8.724 -0.3699 -0.7880 -0.2860
 1354Sol     HW 8490   2.639   2.247   8.673 -3.7927 -1.4648 -2.3865
 1354Sol     HW 8491   2.612   2.291   8.815  1.9995 -2.0187 -0.9730
 1354Sol     MW 8492   2.602   2.307   8.727  0.3389 -0.1754 -0.2077
 1355Sol     OW 8493   0.565   0.262   8.418  0.3180 -0.0395 -0.4887
 1355Sol     HW 8494   0.476   0.243   8.447  0.8674 -2.0097  0.0218
 1355Sol     HW 8495   0.558   0.344   8.370 -1.6951  0.0446 -0.0946
 1355Sol     MW 8496   0.557   0.267   8.416 -0.3490 -0.4144  0.1308
 1356Sol     OW 8497   0.490   0.928   3.100 -0.0446 -0.1158 -0.5327
 1356Sol     HW 8498   0.507   0.847   3.051  0.7592  0.4233 -1.1813
 1356Sol     HW 8499   0.398   0.947   3.084  0.2835  0.2215 -2.1232
 1356Sol     MW 8500   0.484   0.922   3.094 -0.3332  0.4472 -0.4692
 1357Sol     OW 8501   0.593   2.362   4.722 -0.3614 -0.7885  0.0113
 1357Sol     HW 8502   0.605   2.457   4.724 -1.0499 -0.6903 -0.4334
 1357Sol     HW 8503   0.679   2.328   4.697 -1.1107 -0.0201 -4.0481
 1357Sol     MW 8504   0.602   2.367   4.720 -0.3318 -0.0962  0.2995
 1358Sol     OW 8505   2.295   2.791   2.723  0.1552  0.6814  0.2099
 1358Sol     HW 8506   2.382   2.755   2.701 -0.3889 -0.2612 -0.4494
 1358Sol     HW 8507   2.292   2.874   2.675  0.1112 -0.0075 -1.0229
 1358Sol     MW 8508   2.303   2.795   2.716  0.2570 -0.3535  1.1459
 1359Sol     OW 8509   0.313   2.966   4.244  0.2435 -0.6192 -0.9831
 1359Sol     HW 8510   0.356   2.922   4.170  1.6474 -1.1314  0.1049
 1359Sol     HW 8511   0.338   2.914   4.320 -1.9939 -0.6637 -0.2568
 1359Sol     MW 8512   0.319   2.957   4.244 -0.8028  0.2182 -0.0286
 1360Sol     OW 8513   0.067   1.000   9.925 -0.0618 -0.1083 -0.1177
 1360Sol     HW 8514   0.129   1.042   9.866  2.0807  0.8333  2.6710
 1360Sol     HW 8515   0.055   1.064   9.996 -1.0554 -1.9449  1.4182
 1360Sol     MW 8516   0.071   1.010   9.926 -0.0425  0.0127 -0.3130
 1361Sol     OW 8517   0.905   0.496   4.961  0.1123 -0.6440  0.1012
 1361Sol     HW 8518   0.931   0.430   4.897 -0.1845 -0.4201 -0.2551
 1361Sol     HW 8519   0.897   0.449   5.044 -0.2358 -1.0807 -0.1800
 1361Sol     MW 8520   0.906   0.486   4.963 -0.3162  0.3466  0.6114
 1362Sol     OW 8521   0.234   0.116   4.925 -0.3666 -0.4430  0.0183
 1362Sol     HW 8522   0.160   0.061   4.948  0.9065 -0.6455  4.0059
 1362Sol     HW 8523   0.294   0.109   4.999  2.6886  1.4044 -2.1191
 1362Sol     MW 8524   0.233   0.110   4.934  0.2674  0.1879 -0.3601
 1363Sol     OW 8525   2.170   1.270   3.056  0.4192 -0.0667  0.5041
 1363Sol     HW 8526   2.135   1.359   3.062 -1.0919 -0.6192  0.1896
 1363Sol     HW 8527   2.259   1.282   3.024  0.1624  1.3269  0.2517
 1363Sol     MW 8528   2.175   1.279   3.054 -0.3793  0.0268  0.8427
 1364Sol     OW 8529   3.306   1.174   8.406 -0.9124 -0.0294  0.5629
 1364Sol     HW 8530   3.280   1.195   8.316  1.2906 -0.1588 -0.1390
 1364Sol     HW 8531   3.285   1.081   8.416 -1.0782 -0.0381  0.1631
 1364Sol     MW 8532   3.302   1.168   8.399 -0.5657  0.4573  0.1969
 1365Sol     OW 8533   1.634   2.341   6.386  0.0409  0.3736  0.3515
 1365Sol     HW 8534   1.664   2.289   6.461  0.6987  1.6579  0.9942
 1365Sol     HW 8535   1.614   2.276   6.318 -0.0640 -0.7694  1.4587
 1365Sol     MW 8536   1.635   2.331   6.387 -0.0843  0.1384 -0.3808
 1366Sol     OW 8537   1.964   0.921   1.749  0.2775 -0.5858  0.1775
 1366Sol     HW 8538   2.033   0.985   1.766 -1.0170  1.2735 -1.1941
 1366Sol     HW 8539   1.898   0.971   1.700  1.0662 -3.9638 -4.7226
 1366Sol     MW 8540   1.964   0.932   1.746  0.1935 -0.2819 -0.3365
 1367Sol     OW 8541   0.109   1.063   5.519 -0.0546  0.6287  0.0490
 1367Sol     HW 8542   0.031   1.007   5.522  0.7675 -0.5438  0.1526
 1367Sol     HW 8543   0.129   1.082   5.611 -1.2045  2.3605 -0.0405
 1367Sol     MW 8544   0.104   1.059   5.527  0.5027 -0.6065 -0.0933
 1368Sol     OW 8545   1.688   1.772   5.851 -0.3336  0.4531 -0.6419
 1368Sol     HW 8546   1.661   1.697   5.904  0.3744 -0.0137 -0.9297
 1368Sol     HW 8547   1.731   1.733   5.774 -0.3697  1.1429 -1.0145
 1368Sol     MW 8548   1.690   1.762   5.849  0.1302 -0.0941 -0.5199
 1369Sol     OW 8549   1.193   3.044   3.702  0.3563 -0.1434  0.1780
 1369Sol     HW 8550   1.122   3.023   3.641  0.8931 -0.9865 -0.1674
 1369Sol     HW 8551   1.190   2.974   3.767  1.7864 -1.0068 -0.6544
 1369Sol     MW 8552   1.186   3.036   3.702 -0.0331 -0.1553 -0.4955
 1370Sol     OW 8553   1.884   3.410   5.672  0.6930 -0.2930  0.1703
 1370Sol     HW 8554   1.943   3.375   5.605 -0.3127 -1.4666 -0.1262
 1370Sol     HW 8555   1.938   3.419   5.750  1.5985 -0.0105 -0.4827
 1370Sol     MW 8556   1.894   3.407   5.673 -0.1011  0.1001  0.5798
 1371Sol     OW 8557   1.403   0.486   9.589 -0.4613  0.1765  0.0967
 1371Sol     HW 8558   1.364   0.567   9.556  0.2849  0.3343 -0.3982
 1371Sol     HW 8559   1.341   0.456   9.656  0.7016  2.7229  2.4214
 1371Sol     MW 8560   1.394   0.490   9.592  0.5550 -0.4003 -0.2613
 1372Sol     OW 8561   1.528   0.674   7.939 -0.6989  1.1657 -0.1161
 1372Sol     HW 8562   1.482   0.754   7.964  0.5415  1.4822  1.2286
 1372Sol     HW 8563   1.482   0.605   7.987 -3.2942  0.7076 -3.1352
 1372Sol     MW 8564   1.520   0.675   7.946  0.4611  0.5308 -0.2618
 1373Sol     OW 8565   2.448   1.922   8.583 -0.3057 -0.5694  0.5684
 1373Sol     HW 8566   2.430   1.851   8.643 -3.3464 -0.0943  0.2891
 1373Sol     HW 8567   2.362   1.957   8.560  0.8024 -0.1497 -3.3351
 1373Sol     MW 8568   2.439   1.919   8.586 -0.0041 -0.0135 -0.1532
 1374Sol     OW 8569   1.014   2.832   4.930 -0.0464 -0.0034 -0.2563
 1374Sol     HW 8570   1.029   2.888   5.006 -0.7520 -1.0900  0.7044
 1374Sol     HW 8571   1.078   2.762   4.938  0.3795  0.2827 -1.0830
 1374Sol     MW 8572   1.021   2.831   4.937  0.7188  0.0663 -0.0781
 1375Sol     OW 8573   1.577   1.382   4.056  0.1241  0.2165  0.0753
 1375Sol     HW 8574   1.614   1.324   3.990  0.5152  0.7549 -0.1813
 1375Sol     HW 8575   1.561   1.464   4.010  0.8744  0.7588  0.7640
 1375Sol     MW 8576   1.579   1.384   4.046  0.5407 -0.6798  0.0896
 1376Sol     OW 8577   0.396   2.841   9.389  0.5673  0.7796 -0.5884
 1376Sol     HW 8578   0.303   2.824   9.379  0.6301  0.5134 -0.7164
 1376Sol     HW 8579   0.422   2.883   9.307  0.5765  0.7796 -0.5862
 1376Sol     MW 8580   0.390   2.843   9.381  0.1739  0.6627  0.1618
 1377Sol     OW 8581   1.335   3.335   4.015  0.4206  0.4687 -0.1201
 1377Sol     HW 8582   1.246   3.354   4.046  0.6169 -0.2900  0.9495
 1377Sol     HW 8583   1.363   3.261   4.068  2.0674  1.3376  0.2646
 1377Sol     MW 8584   1.329   3.330   4.023  0.4573  0.2125  0.1061
 1378Sol     OW 8585   2.960   3.049   6.452 -0.5483  0.1715 -0.1823
 1378Sol     HW 8586   3.053   3.069   6.455 -0.1730 -1.6537  1.0381
 1378Sol     HW 8587   2.947   3.005   6.368 -0.1218 -0.4883  0.1000
 1378Sol     MW 8588   2.967   3.047   6.445  0.5465  0.1755  0.0636
 1379Sol     OW 8589   1.406   0.659   5.255  0.0138  0.3658 -0.1873
 1379Sol     HW 8590   1.386   0.597   5.185 -1.8694 -1.7036  2.0824
 1379Sol     HW 8591   1.321   0.676   5.297  1.4350 -0.6383  3.3155
 1379Sol     MW 8592   1.396   0.655   5.253 -0.3775 -0.7813 -0.1044
 1380Sol     OW 8593   1.550   0.819   9.614  0.1523  0.2235 -1.1695
 1380Sol     HW 8594   1.580   0.907   9.636  0.6787 -0.2303 -0.0294
 1380Sol     HW 8595   1.581   0.806   9.524  1.6722  0.5259 -0.7130
 1380Sol     MW 8596   1.556   0.826   9.608 -0.6311 -0.0007 -0.0230
 1381Sol     OW 8597   2.143   3.235   5.276  0.5267  0.3648  0.1491
 1381Sol     HW 8598   2.064   3.197   5.236  1.6894 -2.3782  0.4011
 1381Sol     HW 8599   2.196   3.263   5.201 -1.1840  3.4106 -0.0096
 1381Sol     MW 8600   2.141   3.234   5.265 -0.2706  0.7971  0.3090
 1382Sol     OW 8601   0.577   2.389   6.199 -0.5525 -0.3796  0.1661
 1382Sol     HW 8602   0.586   2.484   6.190 -0.6403 -0.3722  0.1558
 1382Sol     HW 8603   0.483   2.374   6.191 -0.8322 -0.2027  2.6794
 1382Sol     MW 8604   0.569   2.397   6.197 -0.3470  0.3355  0.6127
 1383Sol     OW 8605   1.233   3.419   1.946  0.5347 -0.2549 -0.1690
 1383Sol     HW 8606   1.203   3.337   1.984 -0.9245 -0.6260 -2.0701
 1383Sol     HW 8607   1.240   3.479   2.021  0.2808 -1.7133  1.0331
 1383Sol     MW 8608   1.231   3.417   1.956  0.4949 -0.4898 -0.3131
 1384Sol     OW 8609   1.586   0.030   6.909  0.2210  0.0300 -0.1075
 1384Sol     HW 8610   1.519   0.077   6.959  0.1224  0.0170 -0.2265
 1384Sol     HW 8611   1.545   0.013   6.825 -0.8793 -2.9504  0.9534
 1384Sol     MW 8612   1.576   0.033   6.906  0.2699 -0.0069  0.0527
 1385Sol     OW 8613   0.121   2.317   9.099 -0.2685 -0.0039 -0.3454
 1385Sol     HW 8614   0.094   2.300   9.008  0.5693  0.0319 -0.6071
 1385Sol     HW 8615   0.082   2.401   9.120  0.7620  0.6938 -1.1806
 1385Sol     MW 8616   0.115   2.323   9.092 -0.6051  0.5372  0.4063
 1386Sol     OW 8617   1.499   3.144   7.496 -0.3050  0.5981  0.5139
 1386Sol     HW 8618   1.487   3.208   7.566  0.2733  1.5686 -0.2591
 1386Sol     HW 8619   1.460   3.185   7.419  0.2773  0.1164 -0.0383
 1386Sol     MW 8620   1.495   3.153   7.496 -0.3085  0.1157  0.5088
 1387Sol     OW 8621   2.748   2.637   1.658 -0.0890  0.6529  0.6044
 1387Sol     HW 8622   2.775   2.621   1.749 -1.0519  0.0158  0.7878
 1387Sol     HW 8623   2.829   2.629   1.607 -0.0452 -2.0466  1.0259
 1387Sol     MW 8624   2.758   2.635   1.662  0.4551 -0.2428 -0.2065
 1388Sol     OW 8625   2.898   1.302   7.850  0.3326 -0.2485 -0.0936
 1388Sol     HW 8626   2.803   1.316   7.842  0.2710 -0.8138 -0.3260
 1388Sol     HW 8627   2.934   1.334   7.767  0.1695 -1.6706 -0.7160
 1388Sol     MW 8628   2.892   1.306   7.842  0.1967 -0.7345  0.3776
 1389Sol     OW 8629   2.051   2.731   8.727 -0.2230 -0.2812  0.3659
 1389Sol     HW 8630   2.032   2.668   8.797  0.1029 -2.0190 -1.0815
 1389Sol     HW 8631   1.995   2.703   8.654  1.3225 -0.0560 -0.9208
 1389Sol     MW 8632   2.044   2.723   8.727 -0.2155  0.2306 -0.3870
 1390Sol     OW 8633   2.969   2.158   5.376 -0.0277  0.4582 -0.5515
 1390Sol     HW 8634   2.982   2.114   5.460  0.7571 -0.3450 -1.0936
 1390Sol     HW 8635   2.980   2.089   5.310  3.2369  1.8017 -1.5183
 1390Sol     MW 8636   2.971   2.148   5.378  0.1946 -0.5554  0.2026
 1391Sol     OW 8637   0.184   0.290   8.748  0.1282 -0.1920 -0.6016
 1391Sol     HW 8638   0.216   0.353   8.812 -1.4313 -0.1484  0.1619
 1391Sol     HW 8639   0.089   0.285   8.764  0.0335 -1.7409 -1.5038
 1391Sol     MW 8640   0.178   0.295   8.755  0.2619 -0.0947  0.0609
 1392Sol     OW 8641   1.129   0.468   5.269  0.8615  0.1356 -0.3874
 1392Sol     HW 8642   1.097   0.555   5.296 -0.2387 -0.4693  0.3262
 1392Sol     HW 8643   1.167   0.482   5.182 -0.3367  1.1282 -0.7738
 1392Sol     MW 8644   1.129   0.477   5.264  0.1035  0.1623 -0.0955
 1393Sol     OW 8645   1.496   1.156   4.406  0.0232 -0.0392  0.8494
 1393Sol     HW 8646   1.466   1.102   4.478  0.4171 -0.2284  0.8711
 1393Sol     HW 8647   1.588   1.133   4.394  0.4802  1.3611  1.5257
 1393Sol     MW 8648   1.501   1.149   4.411 -0.2573  0.1002 -0.3894
 1394Sol     OW 8649   2.648   1.915   5.834  0.0332 -0.3049 -0.4355
 1394Sol     HW 8650   2.575   1.978   5.837  0.6028  0.4719 -2.4564
 1394Sol     HW 8651   2.681   1.920   5.744  1.1284 -2.3264 -0.1707
 1394Sol     MW 8652   2.644   1.921   5.826  0.2292 -0.0368  0.0016
 1395Sol     OW 8653   3.130   3.179   2.123 -0.3899 -1.1432  0.0141
 1395Sol     HW 8654   3.041   3.211   2.108  0.3851  2.0688  1.7606
 1395Sol     HW 8655   3.124   3.126   2.203 -0.5259  0.1081  0.8401
 1395Sol     MW 8656   3.122   3.177   2.129 -0.2492 -0.2056 -0.0980
 1396Sol     OW 8657   2.861   1.778   2.422 -0.0621 -0.5471  0.2627
 1396Sol     HW 8658   2.789   1.749   2.478 -0.2341 -0.5013  0.0653
 1396Sol     HW 8659   2.938   1.778   2.480  0.1282 -2.2463  0.0435
 1396Sol     MW 8660   2.862   1.776   2.433  0.2029 -0.0911 -0.2630
 1397Sol     OW 8661   0.214   0.765   1.414  0.3192  0.0383 -0.6320
 1397Sol     HW 8662   0.233   0.798   1.327 -0.1051 -1.3570 -1.2698
 1397Sol     HW 8663   0.131   0.807   1.438  0.5536  0.6010 -0.7894
 1397Sol     MW 8664   0.208   0.772   1.409  0.4259  0.6165  0.6211
 1398Sol     OW 8665   0.986   0.652   7.353  0.7239 -0.1475 -0.1095
 1398Sol     HW 8666   0.926   0.700   7.296  0.4535 -0.3265  0.0250
 1398Sol     HW 8667   0.999   0.568   7.308 -0.5915 -0.8475  0.7756
 1398Sol     MW 8668   0.982   0.648   7.344  0.2917 -0.3052 -0.1719
 1399Sol     OW 8669   2.159   1.103   3.291  0.0866 -0.0353  0.5919
 1399Sol     HW 8670   2.254   1.097   3.303  0.2499  1.3275  0.0519
 1399Sol     HW 8671   2.149   1.143   3.204 -1.0016 -1.9580 -0.1955
 1399Sol     MW 8672   2.167   1.106   3.284  0.3060 -0.1337  0.1207
 1400Sol     OW 8673   2.377   1.012   7.594  0.3593 -0.1193  0.0944
 1400Sol     HW 8674   2.425   0.979   7.518  1.3817 -1.0220  1.1254
 1400Sol     HW 8675   2.377   0.939   7.656  1.3913  1.3027  1.8168
 1400Sol     MW 8676   2.381   1.003   7.592 -0.8180  0.0898  0.3547
 1401Sol     OW 8677   1.945   1.468   2.672 -0.9729 -0.3793  0.1467
 1401Sol     HW 8678   2.005   1.395   2.657  0.5561  0.9728 -0.5262
 1401Sol     HW 8679   1.886   1.466   2.597  1.1790  1.0676 -1.6688
 1401Sol     MW 8680   1.945   1.462   2.664 -0.6416 -0.0322 -0.2835
 1402Sol     OW 8681   0.869   1.177   3.730 -0.5599 -0.1068  0.0271
 1402Sol     HW 8682   0.814   1.210   3.659 -0.0438  1.0978  0.1690
 1402Sol     HW 8683   0.906   1.095   3.696 -1.9175 -0.5818 -0.3078
 1402Sol     MW 8684   0.868   1.173   3.720 -0.0269  0.1604 -0.3096
 1403Sol     OW 8685   3.163   2.656   7.178  0.2298  0.4104  0.0357
 1403Sol     HW 8686   3.099   2.693   7.117 -0.3643  0.0216  0.4345
 1403Sol     HW 8687   3.204   2.584   7.129  1.4849  1.6492 -0.7954
 1403Sol     MW 8688   3.161   2.653   7.168 -0.0224  0.1667 -0.0114
 1404Sol     OW 8689   2.627   1.666   2.520 -0.0247  0.8071 -0.1086
 1404Sol     HW 8690   2.569   1.701   2.588  0.4792  0.9935  0.2282
 1404Sol     HW 8691   2.577   1.674   2.439  0.1431  2.4646 -0.0592
 1404Sol     MW 8692   2.617   1.670   2.519 -1.0173 -0.1761  0.4052
 1405Sol     OW 8693   3.314   0.149   8.517 -0.3035 -0.6185  0.5132
 1405Sol     HW 8694   3.268   0.203   8.581 -0.7273 -0.3640 -0.0042
 1405Sol     HW 8695   3.353   0.078   8.569  1.2551  0.8229  1.3538
 1405Sol     MW 8696   3.314   0.147   8.527  0.1702  0.2950 -0.1554
 1406Sol     OW 8697   2.523   3.202   9.220 -0.1241 -0.6832  0.2963
 1406Sol     HW 8698   2.531   3.107   9.230  0.5235 -0.6049  0.5315
 1406Sol     HW 8699   2.600   3.237   9.263 -0.6410 -0.0157  0.6828
 1406Sol     MW 8700   2.530   3.196   9.225  0.2424 -0.2255  0.4008
 1407Sol     OW 8701   1.535   1.582   3.867 -0.2296  0.2181  0.4041
 1407Sol     HW 8702   1.477   1.655   3.844 -1.1298 -0.7787 -0.5441
 1407Sol     HW 8703   1.497   1.506   3.824  1.8013 -0.4672 -0.2549
 1407Sol     MW 8704   1.526   1.582   3.861  0.2920  0.4398 -0.0108
 1408Sol     OW 8705   1.937   1.102   2.911  0.1259  0.1927  0.1323
 1408Sol     HW 8706   1.950   1.007   2.917  1.3017  0.1732 -2.2431
 1408Sol     HW 8707   2.007   1.139   2.965 -0.2002 -0.2716  0.8809
 1408Sol     MW 8708   1.945   1.097   2.917 -0.1093 -0.1160  0.0588
 1409Sol     OW 8709   1.062   1.271   6.839  0.1521 -0.2687  0.1883
 1409Sol     HW 8710   1.117   1.207   6.794  0.6752 -0.2660  0.8154
 1409Sol     HW 8711   1.076   1.353   6.791  0.0205 -0.4652 -0.1876
 1409Sol     MW 8712   1.068   1.273   6.830 -0.1618  0.1215 -0.7671
 1410Sol     OW 8713   0.517   1.392   3.030 -0.0043  0.5897 -0.1879
 1410Sol     HW 8714   0.599   1.414   3.075  1.4257  1.1188 -2.9374
 1410Sol     HW 8715   0.532   1.304   2.995 -1.2246  0.0472  0.6202
 1410Sol     MW 8716   0.526   1.386   3.031  0.1106 -0.1929  0.3263
 1411Sol     OW 8717   0.332   2.625   6.703  0.1125 -0.6088 -0.2055
 1411Sol     HW 8718   0.424   2.610   6.682  0.4385  1.6934 -0.5756
 1411Sol     HW 8719   0.315   2.714   6.673 -0.8762  0.9069  4.4373
 1411Sol     MW 8720   0.339   2.632   6.698 -0.0020  0.8388  0.8284
 1412Sol     OW 8721   2.769   1.234   1.358 -0.2280 -0.2760  0.1441
 1412Sol     HW 8722   2.832   1.168   1.331  0.9984  0.8053  0.3088
 1412Sol     HW 8723   2.747   1.282   1.278 -0.9091 -0.6935  0.0728
 1412Sol     MW 8724   2.772   1.233   1.348 -0.5122 -0.5827 -0.0382
 1413Sol     OW 8725   2.258   0.612   3.683  0.0478 -0.2763 -0.2348
 1413Sol     HW 8726   2.296   0.536   3.728  0.2949 -0.2744 -0.4399
 1413Sol     HW 8727   2.327   0.642   3.624 -0.0767  0.0638 -0.2078
 1413Sol     MW 8728   2.268   0.608   3.682  0.1320 -0.4146  0.2461
 1414Sol     OW 8729   2.558   2.817   3.628 -0.2645  0.1218 -0.0208
 1414Sol     HW 8730   2.551   2.910   3.608  1.1880  0.5926  1.5931
 1414Sol     HW 8731   2.487   2.776   3.577  0.1623  1.8740 -2.1113
 1414Sol     MW 8732   2.551   2.821   3.621  0.4011  0.3844  0.4832
 1415Sol     OW 8733   2.633   0.856   8.573 -0.1273 -0.4067 -0.3645
 1415Sol     HW 8734   2.566   0.867   8.640 -0.1094  1.5632 -0.6463
 1415Sol     HW 8735   2.656   0.945   8.547  0.0549 -1.1145 -2.7836
 1415Sol     MW 8736   2.629   0.865   8.576 -0.0413  0.2996 -0.7807
 1416Sol     OW 8737   1.885   1.988   3.255 -0.4815  0.1215  0.3655
 1416Sol     HW 8738   1.851   2.054   3.316 -0.2346 -0.7436  1.4568
 1416Sol     HW 8739   1.931   1.925   3.311 -0.3772 -0.7689 -0.7056
 1416Sol     MW 8740   1.886   1.988   3.266  0.0320 -0.4593  0.2161
 1417Sol     OW 8741   1.483   0.055   2.856 -0.8366 -0.4358 -0.7801
 1417Sol     HW 8742   1.393   0.023   2.852 -1.2448  0.2625  1.9026
 1417Sol     HW 8743   1.495   0.083   2.946  2.1644 -0.7266 -1.0203
 1417Sol     MW 8744   1.476   0.054   2.863  0.3941  0.2628  0.4476
 1418Sol     OW 8745   0.351   2.390   9.277  0.2429 -0.4538  0.0887
 1418Sol     HW 8746   0.338   2.321   9.342 -1.7482  1.4749  1.8004
 1418Sol     HW 8747   0.286   2.371   9.209 -1.3664  0.6076  1.3184
 1418Sol     MW 8748   0.344   2.382   9.277  0.0196 -0.6775 -0.0853
 1419Sol     OW 8749   1.731   2.163   7.375 -0.2378 -0.0974 -0.4467
 1419Sol     HW 8750   1.785   2.156   7.454 -0.5658 -0.6251 -0.2689
 1419Sol     HW 8751   1.745   2.079   7.330  1.7861  1.0941 -2.1295
 1419Sol     MW 8752   1.737   2.154   7.378  0.1535  0.2559  0.0336
 1420Sol     OW 8753   0.118   0.174   8.259  0.2677  0.5443  0.4251
 1420Sol     HW 8754   0.046   0.186   8.321 -1.1055  1.1942 -1.2525
 1420Sol     HW 8755   0.145   0.083   8.271 -0.2215  0.5478  1.6920
 1420Sol     MW 8756   0.114   0.167   8.266 -0.4671 -0.3246 -0.6220
 1421Sol     OW 8757   2.607   0.390   2.281  0.0590  0.2561 -0.4819
 1421Sol     HW 8758   2.689   0.439   2.281  0.1629  0.0870 -1.4435
 1421Sol     HW 8759   2.633   0.298   2.274 -0.2032  0.1959 -0.7196
 1421Sol     MW 8760   2.616   0.386   2.280  0.0413  0.0516 -0.4827
 1422Sol     OW 8761   3.125   1.631   7.490 -0.3138 -0.6672  1.0073
 1422Sol     HW 8762   3.096   1.701   7.432  1.4560 -1.3878 -0.8482
 1422Sol     HW 8763   3.194   1.670   7.543  0.0767 -0.7513  0.5718
 1422Sol     MW 8764   3.128   1.640   7.489  0.2382 -0.6309  0.0838
 1423Sol     OW 8765   2.297   1.363   9.828  0.6088  0.2937 -0.0289
 1423Sol     HW 8766   2.327   1.439   9.878  1.1920  0.0379  0.0135
 1423Sol     HW 8767   2.354   1.291   9.856  0.3360 -0.0667 -0.3782
 1423Sol     MW 8768   2.305   1.363   9.835  0.3674 -0.3119 -0.2683
 1424Sol     OW 8769   3.287   2.541   7.921  0.2606 -0.3766 -0.1285
 1424Sol     HW 8770   3.316   2.547   7.830  0.1236 -0.5748 -0.1833
 1424Sol     HW 8771   3.282   2.632   7.950 -0.9803 -0.2550 -0.7172
 1424Sol     MW 8772   3.290   2.550   7.915 -0.0119 -0.0682 -0.0553
 1425Sol     OW 8773   1.184   2.012   4.772  0.3007 -0.4535  0.3033
 1425Sol     HW 8774   1.104   2.009   4.720  0.3798 -0.8070  0.1993
 1425Sol     HW 8775   1.193   2.104   4.797 -0.5187 -0.5325  0.9127
 1425Sol     MW 8776   1.178   2.020   4.770 -0.2905  0.1263  0.2264
 1426Sol     OW 8777   0.569   3.414   3.959  0.3258  0.1908  0.2828
 1426Sol     HW 8778   0.481   3.444   3.935  0.3721  0.1991  0.1177
 1426Sol     HW 8779   0.570   3.416   4.054 -0.5096 -1.7088  0.3469
 1426Sol     MW 8780   0.561   3.417   3.965  0.4558 -0.0372  0.0962
 1427Sol     OW 8781   0.242   2.084   4.970  0.2940 -0.2729 -0.1133
 1427Sol     HW 8782   0.213   2.113   5.056  1.0777 -0.1377  0.0997
 1427Sol     HW 8783   0.328   2.124   4.958  0.4362 -0.7537 -0.7205
 1427Sol     MW 8784   0.247   2.091   4.976 -0.1997 -0.0928 -0.0841
 1428Sol     OW 8785   2.253   1.044   8.012  0.1123  0.1885  0.0790
 1428Sol     HW 8786   2.208   0.979   7.958  1.0594  0.4747 -1.0745
 1428Sol     HW 8787   2.222   1.027   8.101 -1.8167  0.0012 -0.6051
 1428Sol     MW 8788   2.246   1.036   8.015 -0.1581  0.1041  0.4445
 1429Sol     OW 8789   2.518   3.427   3.525 -0.8762 -0.3070  0.1187
 1429Sol     HW 8790   2.549   3.375   3.599 -0.1141 -0.3814 -0.2441
 1429Sol     HW 8791   2.577   3.503   3.523 -0.5879 -0.5442 -0.6964
 1429Sol     MW 8792   2.526   3.429   3.532 -0.6103  0.3642  0.2507
 1430Sol     OW 8793   2.619   3.054   3.889  0.1277  0.7423 -0.4013
 1430Sol     HW 8794   2.636   3.077   3.980 -1.6587  0.3736  0.0396
 1430Sol     HW 8795   2.537   3.006   3.891  2.1120 -2.8519 -1.7111
 1430Sol     MW 8796   2.613   3.052   3.897 -0.5626  0.4193  0.3499
 1431Sol     OW 8797   0.350   2.362   8.527  0.4100 -0.6104 -0.1221
 1431Sol     HW 8798   0.394   2.301   8.468 -1.8351 -0.9327 -1.5201
 1431Sol     HW 8799   0.311   2.307   8.595 -2.4727 -0.9225 -1.9327
 1431Sol     MW 8800   0.350   2.352   8.528  0.4952 -0.2674 -0.1194
 1432Sol     OW 8801   1.115   2.916   2.484 -0.1863 -0.1980 -0.0005
 1432Sol     HW 8802   1.072   2.996   2.514  1.2014  0.3738  0.4785
 1432Sol     HW 8803   1.042   2.856   2.464 -1.2608  1.6639 -1.8096
 1432Sol     MW 8804   1.105   2.917   2.485 -0.9132 -0.3017  0.2888
 1433Sol     OW 8805   2.659   1.597   3.915  0.7788  0.2051 -0.7075
 1433Sol     HW 8806   2.627   1.680   3.878 -0.6248 -0.3245 -0.7039
 1433Sol     HW 8807   2.752   1.612   3.930  0.0019  2.8488  2.0715
 1433Sol     MW 8808   2.664   1.606   3.913  0.5193 -0.6036  0.2976
 1434Sol     OW 8809   0.097   3.199   5.942  0.0139 -0.0789  0.3572
 1434Sol     HW 8810   0.014   3.153   5.954  0.2722 -0.1884  1.7362
 1434Sol     HW 8811   0.164   3.132   5.955  0.3752  0.5327  1.7271
 1434Sol     MW 8812   0.096   3.189   5.944  0.2511  0.2221  0.0925
 1435Sol     OW 8813   0.514   2.256   4.177  0.3024 -0.0091 -0.2598
 1435Sol     HW 8814   0.424   2.271   4.151  0.2985  0.7816  0.1973
 1435Sol     HW 8815   0.530   2.163   4.157 -0.8148 -0.3314  0.2826
 1435Sol     MW 8816   0.508   2.249   4.173  0.2083  0.2428  0.2039
 1436Sol     OW 8817   1.013   1.189   5.647  0.6524  0.0031 -0.3153
 1436Sol     HW 8818   1.107   1.183   5.630  0.6171  1.7609 -1.2297
 1436Sol     HW 8819   1.001   1.276   5.684 -0.5779 -0.3365  0.1133
 1436Sol     MW 8820   1.020   1.196   5.649  0.2313  0.1029  0.1798
 1437Sol     OW 8821   0.714   1.458   3.226  0.4056 -0.2554  0.5054
 1437Sol     HW 8822   0.801   1.475   3.190  0.3101 -1.6409 -0.4284
 1437Sol     HW 8823   0.692   1.537   3.275  1.8163  0.4545  0.0144
 1437Sol     MW 8824   0.719   1.467   3.227 -0.0757 -0.3168 -0.2813
 1438Sol     OW 8825   0.294   0.495   3.029  0.0107  0.1586  0.0319
 1438Sol     HW 8826   0.371   0.546   3.002 -0.1854  0.2429 -0.3799
 1438Sol     HW 8827   0.328   0.431   3.091  0.2053  1.0354  0.8502
 1438Sol     MW 8828   0.304   0.494   3.032 -0.0221  0.1605  0.0497
 1439Sol     OW 8829   1.116   3.279   8.803 -0.4022  0.3719 -0.3341
 1439Sol     HW 8830   1.066   3.214   8.852  0.6768 -1.1534 -1.1927
 1439Sol     HW 8831   1.193   3.231   8.771  1.5653  2.6100  0.8645
 1439Sol     MW 8832   1.119   3.269   8.804  0.4288 -0.0199  0.2216
 1440Sol     OW 8833   1.267   1.905   7.996 -0.0828 -0.1810 -0.3940
 1440Sol     HW 8834   1.224   1.966   7.936 -0.6471 -0.3164 -0.1352
 1440Sol     HW 8835   1.262   1.948   8.082 -2.4338 -1.5328  0.1884
 1440Sol     MW 8836   1.263   1.914   7.998  0.1307  0.0076  0.1980
 1441Sol     OW 8837   1.692   2.929   4.845 -0.0848 -0.1331  0.6073
 1441Sol     HW 8838   1.677   2.925   4.940 -0.9650 -0.3256  0.4716
 1441Sol     HW 8839   1.604   2.924   4.808  0.2426  0.2511 -0.2136
 1441Sol     MW 8840   1.682   2.928   4.850  0.1193  0.1670  0.1570
 1442Sol     OW 8841   0.770   2.242   6.078 -0.2860  0.1236 -0.0966
 1442Sol     HW 8842   0.695   2.295   6.104 -1.6375 -1.2985 -1.0040
 1442Sol     HW 8843   0.829   2.245   6.153 -1.0432  1.6133  0.4585
 1442Sol     MW 8844   0.768   2.247   6.087 -0.0290  0.5302 -0.3570
 1443Sol     OW 8845   0.935   3.427   4.371  0.2227  0.0012 -0.0985
 1443Sol     HW 8846   0.995   3.479   4.424  0.9779 -0.2891 -0.6677
 1443Sol     HW 8847   0.965   3.337   4.383 -1.9567 -0.4946  2.0502
 1443Sol     MW 8848   0.943   3.423   4.377 -0.2193  0.1342  0.5806
 1444Sol     OW 8849   0.947   1.352   7.055 -0.5271  0.1458  0.4799
 1444Sol     HW 8850   0.873   1.411   7.037 -1.6118 -1.7731 -1.6206
 1444Sol     HW 8851   0.987   1.338   6.969 -0.4422 -2.3534  0.9126
 1444Sol     MW 8852   0.944   1.356   7.046 -0.2889  0.3365  0.0577
 1445Sol     OW 8853   0.469   1.464   3.776  0.5591 -0.3546 -0.8399
 1445Sol     HW 8854   0.519   1.383   3.788 -0.6624 -1.1222 -0.8460
 1445Sol     HW 8855   0.393   1.453   3.833 -0.5199  0.0278 -2.1939
 1445Sol     MW 8856   0.467   1.455   3.782  0.0021 -0.3810  0.4125
 1446Sol     OW 8857   2.588   0.856   7.778 -0.2386  0.5046 -0.3633
 1446Sol     HW 8858   2.558   0.777   7.823 -1.6906  0.4431 -1.4163
 1446Sol     HW 8859   2.659   0.825   7.721 -1.2149 -0.1553 -1.2278
 1446Sol     MW 8860   2.592   0.846   7.777 -0.5016 -0.2048  0.3356
 1447Sol     OW 8861   2.965   0.003   3.781  0.5349 -0.0634 -0.1278
 1447Sol     HW 8862   2.890  -0.057   3.785  2.3330 -2.4023 -0.4181
 1447Sol     HW 8863   2.973   0.036   3.870 -0.7224  0.0500 -0.0463
 1447Sol     MW 8864   2.959   0.000   3.789 -0.7036 -0.4958  0.5684
 1448Sol     OW 8865   2.489   1.252   1.697  0.3827  0.6475 -0.4252
 1448Sol     HW 8866   2.396   1.266   1.680  0.7333  1.2370 -1.9832
 1448Sol     HW 8867   2.492   1.182   1.763 -1.1381  0.3031 -0.7087
 1448Sol     MW 8868   2.481   1.247   1.701 -0.3946  0.0981 -0.3308
 1449Sol     OW 8869   0.083   0.628   5.859 -0.1802  0.5784 -0.7871
 1449Sol     HW 8870   0.000   0.613   5.813 -0.0792  0.5904 -0.9750
 1449Sol     HW 8871   0.111   0.541   5.886 -1.1451  0.7590  0.8453
 1449Sol     MW 8872   0.078   0.619   5.857 -0.3567 -0.0099  0.2929
 1450Sol     OW 8873   1.195   1.938   3.484 -0.0741  0.5618 -0.0758
 1450Sol     HW 8874   1.188   1.950   3.579  2.8430  0.3723  0.2055
 1450Sol     HW 8875   1.213   2.026   3.451  1.4056  0.2305 -0.1688
 1450Sol     MW 8876   1.196   1.947   3.490 -0.1856 -0.5755 -0.3475
 1451Sol     OW 8877   0.937   1.452   4.019 -0.5695 -0.1551  0.4371
 1451Sol     HW 8878   1.011   1.441   3.959  0.5116 -0.1133  1.7562
 1451Sol     HW 8879   0.947   1.381   4.082 -2.8750 -1.4594 -0.5998
 1451Sol     MW 8880   0.945   1.445   4.019 -0.1370  0.4675 -0.1149
 1452Sol     OW 8881   1.819   1.992   4.395 -0.1103 -0.4116 -0.6758
 1452Sol     HW 8882   1.822   1.918   4.335 -3.8282 -1.4489  0.3026
 1452Sol     HW 8883   1.730   2.028   4.385  0.5479  1.9156  1.2155
 1452Sol     MW 8884   1.811   1.989   4.389 -0.2339  1.1017 -0.0145
 1453Sol     OW 8885   0.876   2.961   5.483 -0.5406 -0.1941  0.1124
 1453Sol     HW 8886   0.867   2.916   5.399 -0.3299  1.4482 -0.8149
 1453Sol     HW 8887   0.830   2.905   5.545  1.1088 -2.5187 -0.6984
 1453Sol     MW 8888   0.871   2.952   5.481 -0.2188  0.1316  0.3641
 1454Sol     OW 8889   2.123   3.404   5.489 -0.0182 -0.0178 -0.0054
 1454Sol     HW 8890   2.216   3.393   5.510 -0.3314 -1.1052  0.9003
 1454Sol     HW 8891   2.114   3.370   5.400  0.7115  1.4708 -0.6673
 1454Sol     MW 8892   2.130   3.400   5.483  0.0536 -0.0374 -0.2017
 1455Sol     OW 8893   2.526   2.112   5.499 -0.3977  0.0570 -0.1645
 1455Sol     HW 8894   2.449   2.072   5.539  0.2728 -0.7746  0.3069
 1455Sol     HW 8895   2.584   2.130   5.573 -0.0794  0.5452 -0.5366
 1455Sol     MW 8896   2.524   2.110   5.509  0.4020 -0.5180  0.4326
 1456Sol     OW 8897   0.201   0.987   3.498  0.2692  0.5578 -0.2711
 1456Sol     HW 8898   0.159   1.051   3.556 -1.7139 -2.1379  1.3563
 1456Sol     HW 8899   0.294   1.011   3.501 -0.3444  3.0426  0.7015
 1456Sol     MW 8900   0.206   0.995   3.504 -0.4352  0.5450  0.0389
 1457Sol     OW 8901   0.056   3.433   7.039  0.3053 -0.5812  0.2680
 1457Sol     HW 8902   0.135   3.476   7.005 -1.0485  1.4190 -0.4528
 1457Sol     HW 8903   0.086   3.385   7.115  2.1973  0.3732  0.1633
 1457Sol     MW 8904   0.066   3.433   7.043 -0.1594 -0.0336  0.1943
 1458Sol     OW 8905   2.775   1.492   7.326 -0.7396  0.1293  0.5479
 1458Sol     HW 8906   2.841   1.452   7.383 -0.0567  2.3368  1.3428
 1458Sol     HW 8907   2.706   1.520   7.386 -0.6983  1.1419  0.1325
 1458Sol     MW 8908   2.775   1.491   7.337  0.0760 -0.2769  0.1904
 1459Sol     OW 8909   0.913   1.212   8.935  0.6616 -0.0774 -0.7425
 1459Sol     HW 8910   0.982   1.246   8.879  0.1519  3.0395  0.4475
 1459Sol     HW 8911   0.957   1.188   9.016  0.4878  1.1603 -0.2751
 1459Sol     MW 8912   0.923   1.213   8.937 -0.0162 -0.5791 -0.4485
 1460Sol     OW 8913   3.102   1.818   7.275  0.5441  0.1642 -0.4752
 1460Sol     HW 8914   3.148   1.803   7.192 -2.1056  1.4828 -2.2649
 1460Sol     HW 8915   3.010   1.827   7.250 -0.4406 -0.4314  2.7631
 1460Sol     MW 8916   3.098   1.818   7.265 -0.6790 -0.6402 -0.3300
 1461Sol     OW 8917   0.913   1.164   2.665 -0.5059 -0.1439  0.0853
 1461Sol     HW 8918   0.990   1.131   2.710 -0.5025  0.4230  0.5032
 1461Sol     HW 8919   0.946   1.204   2.584 -0.2640  0.8884  0.6888
 1461Sol     MW 8920   0.923   1.165   2.662  0.3813  0.0194 -0.0691
 1462Sol     OW 8921   0.424   3.232   4.771  0.6028  0.1935  0.4132
 1462Sol     HW 8922   0.382   3.285   4.703 -0.5908 -1.3305 -0.0695
 1462Sol     HW 8923   0.499   3.192   4.728  0.2148 -0.2662  0.1594
 1462Sol     MW 8924   0.427   3.233   4.761  0.1747  0.1728  0.4198
 1463Sol     OW 8925   1.124   2.067   3.166  0.1224  0.7954  0.1283
 1463Sol     HW 8926   1.060   2.125   3.125  1.5899  0.7461 -2.3518
 1463Sol     HW 8927   1.134   1.995   3.103  3.2540  1.2481  0.0401
 1463Sol     MW 8928   1.119   2.065   3.156 -0.2443 -0.4299  0.6087
 1464Sol     OW 8929   0.820   3.125   3.740 -0.5486  0.2903  0.3767
 1464Sol     HW 8930   0.867   3.208   3.732 -0.9104  0.4440 -0.2190
 1464Sol     HW 8931   0.728   3.150   3.746 -0.9655 -0.1510 -2.9260
 1464Sol     MW 8932   0.816   3.135   3.740  0.5031  0.0829 -0.2915
 1465Sol     OW 8933   1.963   1.990   8.885  0.1529 -0.1348  0.0448
 1465Sol     HW 8934   1.915   1.919   8.926  1.2522 -1.0002 -0.1307
 1465Sol     HW 8935   2.053   1.981   8.919  0.8970 -0.3992 -1.9166
 1465Sol     MW 8936   1.967   1.983   8.892 -0.1707  0.6590  0.3972
 1466Sol     OW 8937   3.226   3.309   3.869 -0.1891 -0.1587 -0.5383
 1466Sol     HW 8938   3.301   3.325   3.926  0.8127  1.8551 -2.3626
 1466Sol     HW 8939   3.171   3.386   3.877 -0.9999 -0.6903 -0.8396
 1466Sol     MW 8940   3.228   3.317   3.875 -0.1266 -0.3437 -0.0717
 1467Sol     OW 8941   2.331   2.142   3.719  0.2250 -0.7725  0.0560
 1467Sol     HW 8942   2.296   2.213   3.772  0.5857  0.4068 -1.2675
 1467Sol     HW 8943   2.255   2.090   3.693 -0.1159 -0.4402  0.4010
 1467Sol     MW 8944   2.321   2.143   3.721  0.1843 -0.4292 -0.1180
 1468Sol     OW 8945   0.910   3.378   2.882  0.2067 -0.4370 -0.1700
 1468Sol     HW 8946   0.985   3.319   2.891  0.7124  0.6546  3.6059
 1468Sol     HW 8947   0.847   3.347   2.947 -1.5686  0.2476 -1.5094
 1468Sol     MW 8948   0.911   3.370   2.888 -0.0842 -0.0131 -0.2090
 1469Sol     OW 8949   3.142   1.564   4.095 -0.4366  0.2960 -0.1063
 1469Sol     HW 8950   3.165   1.477   4.127 -0.2283 -0.4404 -2.1719
 1469Sol     HW 8951   3.178   1.624   4.160 -2.7201 -1.2051  2.6229
 1469Sol     MW 8952   3.147   1.561   4.104  0.1576 -0.3414  0.0444
 1470Sol     OW 8953   1.711   0.354   5.352 -0.1304  0.8133 -0.0202
 1470Sol     HW 8954   1.719   0.288   5.421 -0.3334  0.5235 -0.2747
 1470Sol     HW 8955   1.661   0.425   5.393  1.6526  1.6061  0.8245
 1470Sol     MW 8956   1.707   0.355   5.362 -0.5696 -0.3889  0.1470
 1471Sol     OW 8957   1.113   1.643   6.341  0.0190  0.1413  0.1324
 1471Sol     HW 8958   1.115   1.637   6.437 -1.3058 -0.0539  0.1535
 1471Sol     HW 8959   1.032   1.599   6.316 -1.2757  2.9290 -0.8624
 1471Sol     MW 8960   1.106   1.639   6.348  0.1581 -0.1881 -0.6973
 1472Sol     OW 8961   2.865   0.664   5.664  0.1936  0.0762 -0.2770
 1472Sol     HW 8962   2.870   0.577   5.703  0.6740  0.2625  0.0824
 1472Sol     HW 8963   2.785   0.702   5.700  0.7625  0.3388  0.7188
 1472Sol     MW 8964   2.858   0.660   5.671 -0.1850 -0.2181 -0.2894
 1473Sol     OW 8965   0.178   1.677   9.499  0.2086 -0.1112 -0.8115
 1473Sol     HW 8966   0.269   1.704   9.511  0.2777 -1.1395  1.3096
 1473Sol     HW 8967   0.181   1.582   9.495 -0.5576 -0.0584 -2.9893
 1473Sol     MW 8968   0.186   1.671   9.500 -0.4421  0.5350  0.0979
 1474Sol     OW 8969   2.034   2.179   4.371 -0.1114  0.0499 -0.0108
 1474Sol     HW 8970   1.946   2.141   4.367  0.0634 -0.5284  1.6331
 1474Sol     HW 8971   2.093   2.104   4.375  0.3801  0.4543  0.4388
 1474Sol     MW 8972   2.032   2.169   4.371 -0.1385 -0.2684 -0.2115
 1475Sol     OW 8973   2.704   2.667   5.024 -0.6880 -0.3634  0.5826
 1475Sol     HW 8974   2.728   2.574   5.034 -2.2961 -0.6635  1.7973
 1475Sol     HW 8975   2.768   2.701   4.961 -1.5634 -2.8827 -1.7783
 1475Sol     MW 8976   2.712   2.661   5.019  0.0040  0.1393 -0.2464
 1476Sol     OW 8977   1.343   0.704   2.179  0.2968  0.0557  0.0726
 1476Sol     HW 8978   1.323   0.620   2.219  1.2253  0.4925  1.5017
 1476Sol     HW 8979   1.435   0.720   2.200  0.4640  0.8969 -1.1695
 1476Sol     MW 8980   1.350   0.698   2.184 -0.5334  0.6683 -0.0150
 1477Sol     OW 8981   2.052   3.178   6.364 -0.6859 -0.1672  0.4629
 1477Sol     HW 8982   2.100   3.259   6.384 -2.0355  0.6389  0.4776
 1477Sol     HW 8983   2.119   3.110   6.366  0.2011  0.7260  1.9941
 1477Sol     MW 8984   2.063   3.179   6.366  0.0830 -0.9922 -0.1370
 1478Sol     OW 8985   2.476   0.667   7.924 -0.7168 -0.0791  0.3408
 1478Sol     HW 8986   2.528   0.589   7.941 -2.3808 -0.7799  2.3764
 1478Sol     HW 8987   2.487   0.721   8.002  0.1301  1.5862 -0.8998
 1478Sol     MW 8988   2.481   0.665   7.932  0.1724  0.2925 -0.1816
 1479Sol     OW 8989   2.938   0.247   2.158  0.2520  0.3854 -0.2970
 1479Sol     HW 8990   3.019   0.229   2.111  0.1628  0.0012 -0.3128
 1479Sol     HW 8991   2.934   0.342   2.166  1.4852  0.3427  1.0776
 1479Sol     MW 8992   2.945   0.254   2.155  0.3102 -0.5227  0.5289
 1480Sol     OW 8993   3.099   1.791   3.760 -0.3378  0.2637  0.3634
 1480Sol     HW 8994   3.084   1.842   3.681  1.5621  1.1340  0.5557
 1480Sol     HW 8995   3.165   1.727   3.735 -0.7826 -0.3974  0.8624
 1480Sol     MW 8996   3.103   1.790   3.751 -0.1204  0.0650  0.0352
 1481Sol     OW 8997   0.196   0.361   8.074  0.6017 -0.2689  0.0993
 1481Sol     HW 8998   0.172   0.336   7.985 -0.1350  0.4905  0.0834
 1481Sol     HW 8999   0.190   0.280   8.124  2.6916 -1.0802 -0.8709
 1481Sol     MW 9000   0.193   0.352   8.070 -0.4436  0.3725  0.2923
 1482Sol     OW 9001   0.223   1.774   3.381  0.0933  0.0576  0.3061
 1482Sol     HW 9002   0.273   1.739   3.307 -1.6153 -1.4375 -0.1645
 1482Sol     HW 9003   0.241   1.714   3.453 -1.9573 -1.2224 -0.2014
 1482Sol     MW 9004   0.229   1.766   3.381  0.1967  0.4137 -0.3900
 1483Sol     OW 9005   1.509   0.344   7.110 -0.3209 -0.3865  0.3895
 1483Sol     HW 9006   1.506   0.342   7.206 -2.4470  0.5984  0.3623
 1483Sol     HW 9007   1.600   0.363   7.090  0.3048 -1.3198  2.1980
 1483Sol     MW 9008   1.517   0.345   7.117 -0.1904 -0.6379 -0.1674
 1484Sol     OW 9009   2.814   1.392   4.793  0.7082  0.0163 -0.7433
 1484Sol     HW 9010   2.876   1.424   4.727  0.6232  1.6640 -0.0534
 1484Sol     HW 9011   2.865   1.390   4.874  0.3530 -0.3796 -0.5303
 1484Sol     MW 9012   2.824   1.394   4.794  0.0431  0.1050  0.2964
 1485Sol     OW 9013   1.938   0.804   7.527 -0.1310 -0.5131 -0.3189
 1485Sol     HW 9014   1.901   0.778   7.442  1.7407  1.1970 -1.7171
 1485Sol     HW 9015   2.031   0.815   7.509  0.1595  0.6423  1.7995
 1485Sol     MW 9016   1.943   0.803   7.517  0.3813 -0.3757  0.5426
 1486Sol     OW 9017   2.877   2.645   1.902  0.7708  0.0629  0.7270
 1486Sol     HW 9018   2.838   2.673   1.985 -0.0791  2.6071 -0.4627
 1486Sol     HW 9019   2.967   2.677   1.907  0.5919  0.6098  0.4987
 1486Sol     MW 9020   2.882   2.651   1.910 -0.2109 -0.1045 -0.3815
 1487Sol     OW 9021   3.000   2.853   5.369 -0.3598 -0.0926  0.1921
 1487Sol     HW 9022   3.031   2.767   5.343  0.7865  1.1624 -2.7426
 1487Sol     HW 9023   2.905   2.848   5.361 -0.5283 -1.8395  2.6275
 1487Sol     MW 9024   2.994   2.845   5.366 -0.3159 -0.4120 -0.3836
 1488Sol     OW 9025   1.813   1.823   7.763  0.1700 -0.1653 -0.0581
 1488Sol     HW 9026   1.907   1.834   7.761  0.0587  0.7693 -0.0064
 1488Sol     HW 9027   1.797   1.742   7.713  0.8296  0.7156 -1.7263
 1488Sol     MW 9028   1.820   1.816   7.758 -0.3368  0.4544 -0.1154
 1489Sol     OW 9029   3.192   3.083   6.004  0.3615 -0.5012  0.0270
 1489Sol     HW 9030   3.161   3.147   6.067  0.5995 -0.5210  0.1629
 1489Sol     HW 9031   3.194   3.000   6.052  3.4303  0.0171  0.8610
 1489Sol     MW 9032   3.189   3.081   6.014 -0.2224 -0.4707 -0.0847
 1490Sol     OW 9033   1.946   3.439   5.944  0.6347  0.0735  0.3964
 1490Sol     HW 9034   1.977   3.360   5.988  1.4883 -0.2598 -0.7935
 1490Sol     HW 9035   1.960   3.509   6.007 -0.8469 -0.8162  1.7712
 1490Sol     MW 9036   1.950   3.438   5.954  0.3069  0.1184 -0.2377
 1491Sol     OW 9037   0.562   3.266   7.056 -0.0357  0.0701 -0.5380
 1491Sol     HW 9038   0.468   3.276   7.046 -0.2156 -1.3046 -0.2975
 1491Sol     HW 9039   0.600   3.321   6.988 -0.9887  1.5173  0.0989
 1491Sol     MW 9040   0.557   3.271   7.049 -0.3866  0.4621 -0.5342
 1492Sol     OW 9041   0.737   2.316   6.738 -0.1552 -0.0618  0.0636
 1492Sol     HW 9042   0.699   2.254   6.800  1.2859 -1.3315 -0.2905
 1492Sol     HW 9043   0.788   2.377   6.791 -0.2753 -0.1390  0.2654
 1492Sol     MW 9044   0.738   2.316   6.748  0.1088  0.0280  0.7323
 1493Sol     OW 9045   2.675   3.151   4.139 -0.0616 -0.2406 -0.3916
 1493Sol     HW 9046   2.717   3.231   4.170 -1.2612  0.2441  0.0257
 1493Sol     HW 9047   2.723   3.080   4.181  0.8273  0.2645 -0.5390
 1493Sol     MW 9048   2.683   3.152   4.145  0.2030 -0.1762  0.6159
 1494Sol     OW 9049   1.609   3.185   6.760  0.3594  0.1806 -0.4222
 1494Sol     HW 9050   1.673   3.121   6.730  1.2325  0.7380  0.2312
 1494Sol     HW 9051   1.617   3.258   6.699  0.9031  0.5798  0.1249
 1494Sol     MW 9052   1.615   3.186   6.752  0.1221  0.4022 -0.5132
 1495Sol     OW 9053   1.276   1.785   4.565  0.6484  0.3613  0.3791
 1495Sol     HW 9054   1.233   1.840   4.631  0.2267 -0.6593  0.9733
 1495Sol     HW 9055   1.289   1.843   4.490 -0.6831  1.0026  0.6341
 1495Sol     MW 9056   1.273   1.795   4.564 -0.3444 -0.1397 -0.5268
 1496Sol     OW 9057   3.157   1.274   7.652 -0.5987  0.5373  0.1463
 1496Sol     HW 9058   3.178   1.181   7.665 -1.5601  0.3486  0.3928
 1496Sol     HW 9059   3.098   1.274   7.576 -1.3245  0.8551  0.7109
 1496Sol     MW 9060   3.153   1.265   7.646 -0.0454  0.1355  0.0797
 1497Sol     OW 9061   1.349   0.310   5.566 -0.1397  0.1149 -0.2321
 1497Sol     HW 9062   1.333   0.311   5.471  2.6987 -0.3199 -0.7512
 1497Sol     HW 9063   1.290   0.378   5.601 -0.1679  1.2953 -2.4805
 1497Sol     MW 9064   1.342   0.316   5.561 -0.2265  0.6973  0.4869
 1498Sol     OW 9065   2.003   1.181   4.927  0.1478 -0.5644 -0.2650
 1498Sol     HW 9066   2.067   1.162   4.858  0.7558  0.8691 -0.0960
 1498Sol     HW 9067   1.999   1.100   4.978  1.3142 -0.8963 -0.6807
 1498Sol     MW 9068   2.008   1.172   4.925  0.6262 -0.5212 -0.0582
 1499Sol     OW 9069   0.885   1.715   3.991 -0.0373 -0.2722  0.0674
 1499Sol     HW 9070   0.902   1.621   3.993  0.8463 -0.1444 -1.1453
 1499Sol     HW 9071   0.911   1.743   3.904 -1.9714  0.8016 -0.1983
 1499Sol     MW 9072   0.889   1.709   3.984  0.3649 -0.2786  0.1827
 1500Sol     OW 9073   2.910   0.701   5.179 -0.0174 -0.0886  0.1052
 1500Sol     HW 9074   2.892   0.739   5.266  0.6239  1.5234 -0.4449
 1500Sol     HW 9075   2.869   0.615   5.182 -0.1638  0.0135  1.9545
 1500Sol     MW 9076   2.905   0.697   5.187  0.0578 -0.0214  0.2169
 1501Sol     OW 9077   3.226   2.771   2.327 -0.0150 -0.2787 -0.8295
 1501Sol     HW 9078   3.153   2.807   2.278  1.0854  0.8002 -1.7011
 1501Sol     HW 9079   3.187   2.705   2.384 -1.6118  0.0723 -1.5094
 1501Sol     MW 9080   3.216   2.768   2.328 -0.0454  0.2395 -0.5711
 1502Sol     OW 9081   2.403   3.135   6.109  0.2914 -0.1742 -0.5756
 1502Sol     HW 9082   2.365   3.087   6.183  0.9108  0.8397  0.4074
 1502Sol     HW 9083   2.371   3.224   6.119  2.8941  0.6957  0.2650
 1502Sol     MW 9084   2.397   3.138   6.116  0.1923 -0.0146 -0.3036
 1503Sol     OW 9085   2.385   1.969   4.002  0.0567  0.5780 -0.1387
 1503Sol     HW 9086   2.292   1.988   3.988 -0.7515 -2.1006  1.0755
 1503Sol     HW 9087   2.393   1.876   3.980  2.0619  0.3502  1.4040
 1503Sol     MW 9088   2.377   1.962   3.999 -0.4519 -0.1069 -0.5530
 1504Sol     OW 9089   1.269   0.029   7.246 -0.2022 -0.6457  0.0537
 1504Sol     HW 9090   1.313   0.079   7.178 -1.0660  0.4066  0.2505
 1504Sol     HW 9091   1.285  -0.062   7.224  0.2583 -0.2948 -1.0646
 1504Sol     MW 9092   1.274   0.026   7.238  0.0955 -0.3472 -0.6493
 1505Sol     OW 9093   3.305   2.811   2.605  0.3702 -0.3053 -0.0753
 1505Sol     HW 9094   3.391   2.774   2.622  0.2051  0.1755  1.9812
 1505Sol     HW 9095   3.311   2.849   2.518  2.6940  1.0243  0.6344
 1505Sol     MW 9096   3.313   2.811   2.599  0.7636  0.0766  0.7493
 1506Sol     OW 9097   0.628   3.065   8.652  0.1416 -0.1985 -0.2453
 1506Sol     HW 9098   0.688   3.021   8.593  0.3720  0.9645 -0.9065
 1506Sol     HW 9099   0.578   2.995   8.693  2.8759 -1.2891  1.3337
 1506Sol     MW 9100   0.629   3.055   8.650  0.0005 -0.2520 -0.3091
 1507Sol     OW 9101   0.674   1.861   5.791 -0.6103 -0.5381 -0.3971
 1507Sol     HW 9102   0.622   1.936   5.764  0.2702 -0.6410 -2.4530
 1507Sol     HW 9103   0.765   1.887   5.773 -0.1340 -1.3009  0.8261
 1507Sol     MW 9104   0.678   1.870   5.787  0.1684  0.6789 -0.1360
 1508Sol     OW 9105   1.261   2.299   1.725  0.0237  0.0003  0.1917
 1508Sol     HW 9106   1.297   2.363   1.786  1.6905 -1.2253  0.5312
 1508Sol     HW 9107   1.300   2.322   1.640 -0.9366  0.6403 -0.0840
 1508Sol     MW 9108   1.268   2.307   1.723  0.2010 -0.0576 -0.0737
 1509Sol     OW 9109   1.326   1.870   9.359 -0.0998 -0.2667  0.8192
 1509Sol     HW 9110   1.241   1.874   9.403  0.0594  0.3540  1.0763
 1509Sol     HW 9111   1.389   1.899   9.425  0.3861 -1.2810  0.8114
 1509Sol     MW 9112   1.324   1.873   9.369  0.1785 -0.0686 -0.7038
 1510Sol     OW 9113   0.964   2.911   7.532 -0.2507  0.0679  0.1043
 1510Sol     HW 9114   0.935   2.969   7.462  0.1604  2.5454  1.8989
 1510Sol     HW 9115   1.059   2.923   7.536 -0.1374 -0.9115  0.3245
 1510Sol     MW 9116   0.970   2.918   7.526 -0.2601 -0.1994 -0.0849
 1511Sol     OW 9117   2.788   2.016   5.023  0.4109  0.1753  0.4260
 1511Sol     HW 9118   2.785   2.079   4.951  1.9013  0.8434  0.9230
 1511Sol     HW 9119   2.728   2.051   5.088  0.0509  0.2504  0.0573
 1511Sol     MW 9120   2.783   2.025   5.022 -0.0407 -0.1236  0.4947
 1512Sol     OW 9121   1.753   0.041   5.128 -0.0516  0.4407  0.3158
 1512Sol     HW 9122   1.707   0.026   5.046  2.0593 -1.0145 -0.6486
 1512Sol     HW 9123   1.782   0.133   5.123 -0.6011  0.5874 -0.2239
 1512Sol     MW 9124   1.752   0.048   5.120 -0.0076  0.1514 -0.0105
 1513Sol     OW 9125   0.476   0.320   3.864  0.0180  0.0415  0.1192
 1513Sol     HW 9126   0.434   0.234   3.856 -0.5994  0.4007 -0.5348
 1513Sol     HW 9127   0.563   0.308   3.827  0.2483 -0.5295  0.8399
 1513Sol     MW 9128   0.480   0.311   3.860 -0.1334  0.0354 -0.1256
 1514Sol     OW 9129   0.248   0.440   5.042  0.6818 -0.4757 -0.4731
 1514Sol     HW 9130   0.244   0.412   5.133  0.4049 -0.1355 -0.3760
 1514Sol     HW 9131   0.176   0.503   5.033  0.3639 -0.9133 -1.0645
 1514Sol     MW 9132   0.241   0.443   5.049 -0.3704 -0.1576 -0.2507
 1515Sol     OW 9133   3.280   0.327   3.234 -0.0955  0.2784  0.5627
 1515Sol     HW 9134   3.252   0.280   3.312 -0.6262 -1.3461 -0.5829
 1515Sol     HW 9135   3.202   0.328   3.178  0.9906 -0.7580 -0.9899
 1515Sol     MW 9136   3.270   0.323   3.236 -0.3615 -0.0480 -0.6662
 1516Sol     OW 9137   0.486   1.653   7.658 -0.0249  0.0423  0.2117
 1516Sol     HW 9138   0.530   1.636   7.575  2.0757  0.8918  1.1198
 1516Sol     HW 9139   0.557   1.661   7.722 -1.6045 -0.7277  2.1289
 1516Sol     MW 9140   0.496   1.652   7.657 -0.6244 -0.0042  0.0862
 1517Sol     OW 9141   1.372   1.051   8.213 -0.7127 -0.1365  0.1743
 1517Sol     HW 9142   1.339   1.021   8.298 -1.7956  0.5520 -0.0031
 1517Sol     HW 9143   1.328   1.134   8.198  0.6236  0.4892 -0.3692
 1517Sol     MW 9144   1.365   1.055   8.220 -0.5801  0.2947 -0.2213
 1518Sol     OW 9145   3.146   0.600   5.184 -0.1263  0.0321  0.1821
 1518Sol     HW 9146   3.122   0.525   5.131 -0.3252  0.1497  0.1033
 1518Sol     HW 9147   3.068   0.656   5.182 -0.5208 -0.4543  1.4614
 1518Sol     MW 9148   3.137   0.599   5.179 -0.1863  0.2037  0.1467
 1519Sol     OW 9149   2.915   1.205   7.492 -0.7427  0.1375  0.3433
 1519Sol     HW 9150   2.898   1.138   7.559  0.9872  0.0506  0.7047
 1519Sol     HW 9151   2.895   1.161   7.409  0.5207 -0.9012  0.5646
 1519Sol     MW 9152   2.911   1.195   7.491  0.4978 -0.2394  0.2778
 1520Sol     OW 9153   0.397   2.893   6.588  0.0434 -0.1963 -0.1988
 1520Sol     HW 9154   0.490   2.893   6.565  0.2664 -0.3320  0.6555
 1520Sol     HW 9155   0.353   2.929   6.511  0.8295  0.0973 -0.5210
 1520Sol     MW 9156   0.402   2.897   6.579 -0.2425 -0.1564 -0.2298
 1521Sol     OW 9157   1.997   0.802   3.777  0.0235  0.0767  0.2720
 1521Sol     HW 9158   2.002   0.867   3.707 -2.0936 -0.4718 -0.4384
 1521Sol     HW 9159   2.067   0.740   3.757 -0.4685  0.0023 -1.3004
 1521Sol     MW 9160   2.003   0.802   3.769 -0.1345 -0.3460  0.4322
 1522Sol     OW 9161   2.507   0.119   7.827  0.0746  0.1962 -0.1583
 1522Sol     HW 9162   2.489   0.202   7.873 -0.5370  0.4744 -0.9038
 1522Sol     HW 9163   2.541   0.062   7.896  0.0507  0.9121  0.4657
 1522Sol     MW 9164   2.508   0.122   7.838  0.3684 -0.1503 -0.0421
 1523Sol     OW 9165   2.463   1.492   9.595 -0.0393  0.0963  0.1920
 1523Sol     HW 9166   2.454   1.398   9.582  0.1605  0.1556 -0.3749
 1523Sol     HW 9167   2.519   1.500   9.672 -1.3140 -0.2536  1.1670
 1523Sol     MW 9168   2.467   1.484   9.601 -1.2318  0.5273 -0.3468
 1524Sol     OW 9169   1.781   1.734   6.500  0.6550  0.1855  0.6968
 1524Sol     HW 9170   1.857   1.721   6.445 -0.6285 -0.9896 -0.8208
 1524Sol     HW 9171   1.722   1.662   6.479 -2.0919  2.5854 -0.2217
 1524Sol     MW 9172   1.782   1.726   6.494 -0.6018 -0.1299  0.3275
 1525Sol     OW 9173   3.038   3.133   3.996 -0.1358 -0.2523  0.3044
 1525Sol     HW 9174   3.004   3.078   3.926 -0.9736 -1.8950  1.9606
 1525Sol     HW 9175   3.112   3.179   3.956  0.4605 -2.4191 -1.1999
 1525Sol     MW 9176   3.042   3.132   3.986  0.3640 -0.1282 -0.2011
 1526Sol     OW 9177   0.105   0.935   5.007  0.1850 -0.4258 -0.2397
 1526Sol     HW 9178   0.012   0.950   4.990  0.3143 -0.5377 -1.0926
 1526Sol     HW 9179   0.141   1.022   5.019 -0.0097 -0.3717 -0.0519
 1526Sol     MW 9180   0.100   0.944   5.006  0.0887  0.6991  0.1649
 1527Sol     OW 9181   0.935   2.608   3.102  0.5842 -0.4716  0.7857
 1527Sol     HW 9182   0.965   2.519   3.123  1.4502  0.0964  1.9882
 1527Sol     HW 9183   0.927   2.652   3.187  0.6825  0.7662  0.1686
 1527Sol     MW 9184   0.937   2.604   3.111  0.4480  0.4980  0.3473
 1528Sol     OW 9185   2.839   3.170   3.506  0.1459 -0.2402 -0.2248
 1528Sol     HW 9186   2.893   3.241   3.473 -0.1136 -0.4210 -1.0550
 1528Sol     HW 9187   2.802   3.129   3.428 -0.5906 -0.5918  0.2938
 1528Sol     MW 9188   2.840   3.172   3.496 -1.0011 -0.4946  0.1665
 1529Sol     OW 9189   1.517   0.275   9.937  0.6009 -0.5558 -0.4372
 1529Sol     HW 9190   1.486   0.355   9.978  0.4955 -0.6670 -0.2992
 1529Sol     HW 9191   1.437   0.223   9.923  0.5413 -0.2116 -1.4416
 1529Sol     MW 9192   1.507   0.277   9.939  0.0130  0.0368  0.4647
 1530Sol     OW 9193   0.831   0.410   5.843  0.3993 -0.1300 -0.5297
 1530Sol     HW 9194   0.786   0.483   5.886  1.6955  0.4840 -0.2110
 1530Sol     HW 9195   0.765   0.341   5.839 -0.1546  0.2704  1.2240
 1530Sol     MW 9196   0.821   0.410   5.847 -0.1771  0.0655  0.1967
 1531Sol     OW 9197   2.091   2.752   8.271 -0.0016 -0.1457 -0.1559
 1531Sol     HW 9198   2.028   2.680   8.258 -0.5800  0.3397 -0.0809
 1531Sol     HW 9199   2.050   2.827   8.229  0.5069  0.1890 -0.0517
 1531Sol     MW 9200   2.081   2.752   8.266  0.6726  0.2796  0.2003
 1532Sol     OW 9201   2.307   0.095   8.569 -1.1565  0.1609  0.1244
 1532Sol     HW 9202   2.383   0.137   8.607 -0.4661 -1.5413  0.7035
 1532Sol     HW 9203   2.321   0.099   8.474  0.4735 -1.5333  0.2567
 1532Sol     MW 9204   2.315   0.099   8.564 -0.4696  0.4197 -0.1381
 1533Sol     OW 9205   0.352   1.237   7.474  0.1913 -0.3509 -0.8107
 1533Sol     HW 9206   0.289   1.205   7.539 -1.4120  1.8333 -1.2085
 1533Sol     HW 9207   0.425   1.271   7.526 -0.9151  1.0497 -0.1273
 1533Sol     MW 9208   0.353   1.237   7.485  0.3290  0.4488  0.2382
 1534Sol     OW 9209   1.946   0.148   2.358 -0.5582 -0.0907 -0.4285
 1534Sol     HW 9210   1.855   0.135   2.383  0.2734 -1.2091  2.1971
 1534Sol     HW 9211   1.952   0.113   2.269 -2.5338 -0.5910 -0.3867
 1534Sol     MW 9212   1.939   0.144   2.352 -0.2932  0.1150 -0.0507
 1535Sol     OW 9213   3.138   2.669   8.277 -0.6909  0.1073 -0.3613
 1535Sol     HW 9214   3.181   2.681   8.192 -0.0402 -2.3480 -0.4464
 1535Sol     HW 9215   3.106   2.579   8.274 -0.6211 -0.0148  2.0087
 1535Sol     MW 9216   3.139   2.662   8.269  0.0291  0.0252 -0.2368
 1536Sol     OW 9217   2.564   1.346   3.279 -0.2376  0.2240 -0.5299
 1536Sol     HW 9218   2.602   1.391   3.355 -2.2938 -0.8949  1.2102
 1536Sol     HW 9219   2.570   1.410   3.208  3.0485  0.7752  0.1747
 1536Sol     MW 9220   2.568   1.356   3.279  0.5523 -0.5051  0.0174
 1537Sol     OW 9221   1.072   2.951   6.961 -0.2985  0.5706 -0.0649
 1537Sol     HW 9222   1.013   2.912   6.896 -0.3458 -0.2433  0.4631
 1537Sol     HW 9223   1.155   2.964   6.914 -0.0198 -0.9666 -0.0129
 1537Sol     MW 9224   1.074   2.949   6.951  0.1365  0.0997 -0.1311
 1538Sol     OW 9225   3.262   0.872   5.532 -0.0270 -0.3036 -0.1256
 1538Sol     HW 9226   3.241   0.814   5.605 -0.7104 -1.3263 -1.1246
 1538Sol     HW 9227   3.285   0.814   5.460  1.3806  0.7178 -0.5168
 1538Sol     MW 9228   3.262   0.862   5.532 -0.0806  0.3524  0.3101
 1539Sol     OW 9229   2.193   2.819   9.176 -0.3372  0.1201 -0.5833
 1539Sol     HW 9230   2.280   2.806   9.214 -0.7109  1.6368  0.8492
 1539Sol     HW 9231   2.209   2.866   9.094  0.2061  0.1412 -0.4635
 1539Sol     MW 9232   2.202   2.822   9.172 -0.1853  0.7394 -0.0964
 1540Sol     OW 9233   0.353   1.203   4.692  0.1081 -0.0143 -0.0155
 1540Sol     HW 9234   0.410   1.170   4.761  1.2787 -0.1465 -1.0262
 1540Sol     HW 9235   0.411   1.215   4.616 -1.2828 -0.5860 -1.2005
 1540Sol     MW 9236   0.363   1.201   4.691  0.4207  0.2628 -0.2589
 1541Sol     OW 9237   0.902   1.574   3.484  0.2517 -0.7209  0.1089
 1541Sol     HW 9238   0.816   1.532   3.476 -0.3512  0.7394 -1.6280
 1541Sol     HW 9239   0.920   1.608   3.396  3.6498 -2.9130 -0.1507
 1541Sol     MW 9240   0.896   1.573   3.475  0.5529 -0.0459  0.0402
 1542Sol     OW 9241   0.946   1.635   3.193 -0.5627  0.0829  0.0657
 1542Sol     HW 9242   0.974   1.723   3.218  1.7101 -1.0056  1.4953
 1542Sol     HW 9243   1.000   1.614   3.117  1.9498 -1.6488  2.2512
 1542Sol     MW 9244   0.953   1.641   3.188  0.1058  0.1041  0.4780
 1543Sol     OW 9245   2.277   2.465   7.771 -0.5363 -0.8513  0.0996
 1543Sol     HW 9246   2.346   2.503   7.717 -1.3878  0.6557  0.0325
 1543Sol     HW 9247   2.203   2.525   7.759 -1.1616 -1.2720  1.8463
 1543Sol     MW 9248   2.277   2.474   7.765  0.7685 -0.0653  0.2207
 1544Sol     OW 9249   2.576   2.816   6.913 -0.5265  0.6640  0.0708
 1544Sol     HW 9250   2.610   2.841   6.999 -2.1373 -0.2292  0.9960
 1544Sol     HW 9251   2.653   2.795   6.861  0.4958  1.7594  1.1234
 1544Sol     MW 9252   2.586   2.817   6.916  0.4297 -0.0580 -0.0153
 1545Sol     OW 9253   1.755   0.401   7.455 -0.1306 -0.0211 -0.0347
 1545Sol     HW 9254   1.704   0.470   7.499 -1.6094  0.1430 -1.9604
 1545Sol     HW 9255   1.768   0.335   7.523 -1.8357  0.5185  0.8620
 1545Sol     MW 9256   1.751   0.401   7.465  0.0256  0.1247 -0.1663
 1546Sol     OW 9257   2.258   1.665   2.101 -0.0402 -0.2643 -0.2540
 1546Sol     HW 9258   2.250   1.587   2.047 -0.7095 -1.1631  1.1305
 1546Sol     HW 9259   2.174   1.710   2.090  0.5343  0.5507 -1.4595
 1546Sol     MW 9260   2.250   1.662   2.095  0.5052  0.6986  0.3649
 1547Sol     OW 9261   1.907   2.328   5.414 -0.0125  0.4694  0.6646
 1547Sol     HW 9262   1.890   2.342   5.321  0.1020  0.2555  0.6117
 1547Sol     HW 9263   1.821   2.307   5.452  0.0497 -0.1413  0.4805
 1547Sol     MW 9264   1.898   2.327   5.409 -0.3256 -0.2365 -0.0474
 1548Sol     OW 9265   0.732   1.293   9.600  0.1033  0.3723 -0.4858
 1548Sol     HW 9266   0.788   1.307   9.524  1.9370 -0.2288  0.6967
 1548Sol     HW 9267   0.717   1.381   9.634  1.0094  0.4946 -0.3731
 1548Sol     MW 9268   0.736   1.302   9.597 -0.7151 -0.8177  0.1366
 1549Sol     OW 9269   0.099   1.328   7.753 -0.4212 -0.2691  0.2106
 1549Sol     HW 9270   0.010   1.327   7.717  0.4282 -1.7319 -1.9298
 1549Sol     HW 9271   0.139   1.247   7.722  1.7791  0.5107  0.8935
 1549Sol     MW 9272   0.095   1.321   7.747 -0.2853 -0.3834  0.4038
 1550Sol     OW 9273   1.382   2.540   6.802  0.1083  0.7094  0.0889
 1550Sol     HW 9274   1.411   2.465   6.853  1.4095  0.9435 -0.2728
 1550Sol     HW 9275   1.426   2.615   6.842 -0.3149  1.1363 -0.2371
 1550Sol     MW 9276   1.389   2.540   6.810 -0.2258  0.4008 -0.1351
 1551Sol     OW 9277   3.190   1.784   4.256 -0.5791  0.1790  0.0518
 1551Sol     HW 9278   3.143   1.810   4.176 -0.7494 -1.0702 -0.2702
 1551Sol     HW 9279   3.277   1.821   4.246 -0.4413 -0.3878 -0.9667
 1551Sol     MW 9280   3.193   1.789   4.248  0.1003 -0.0276  0.4452
 1552Sol     OW 9281   0.411   0.887   2.155  0.1423  0.5938 -0.7678
 1552Sol     HW 9282   0.433   0.954   2.090 -0.4074  1.0743 -0.4662
 1552Sol     HW 9283   0.470   0.904   2.228  0.1351  0.6271 -0.7699
 1552Sol     MW 9284   0.418   0.895   2.156  0.0207 -0.3033 -0.1437
 1553Sol     OW 9285   0.699   0.550   9.387 -0.6267 -0.3812  0.2995
 1553Sol     HW 9286   0.757   0.590   9.322 -1.8384  0.3313 -0.3501
 1553Sol     HW 9287   0.702   0.456   9.366 -0.7558 -0.1908 -0.5706
 1553Sol     MW 9288   0.705   0.545   9.379  0.4640 -0.3893 -0.0119
 1554Sol     OW 9289   1.076   2.987   5.133  0.7534 -0.0528 -0.7384
 1554Sol     HW 9290   1.126   2.985   5.215  0.8080 -1.1653 -0.7917
 1554Sol     HW 9291   1.067   3.080   5.113  2.3883  0.1883 -0.4606
 1554Sol     MW 9292   1.080   2.995   5.138  0.0788 -0.2859  0.2415
 1555Sol     OW 9293   3.099   2.670   4.992 -0.4619  0.4634 -0.2785
 1555Sol     HW 9294   3.161   2.601   4.968 -0.9301 -0.2101  0.4441
 1555Sol     HW 9295   3.150   2.729   5.047 -0.1267  0.5764 -0.7026
 1555Sol     MW 9296   3.109   2.669   4.995 -1.0563  0.1202 -0.3534
 1556Sol     OW 9297   2.073   0.946   8.260 -0.6778  0.0827 -0.0720
 1556Sol     HW 9298   2.002   0.882   8.261 -1.0047  0.4406  1.8497
 1556Sol     HW 9299   2.030   1.031   8.267 -0.0846  0.3005  1.0770
 1556Sol     MW 9300   2.063   0.948   8.261 -0.6053 -0.0364 -0.2010
 1557Sol     OW 9301   0.244   0.160   7.587  0.6507 -0.4404 -0.3779
 1557Sol     HW 9302   0.316   0.172   7.524 -0.4847  1.6430 -1.3445
 1557Sol     HW 9303   0.184   0.099   7.543 -0.2358  1.1622 -1.4739
 1557Sol     MW 9304   0.245   0.156   7.577 -0.1082  0.4127  0.0056
 1558Sol     OW 9305   3.031   1.483   3.574  0.0273  0.0980 -0.0501
 1558Sol     HW 9306   2.958   1.423   3.557 -0.7089  1.3846 -1.5140
 1558Sol     HW 9307   3.088   1.474   3.498 -1.0991  2.6847 -1.2716
 1558Sol     MW 9308   3.029   1.477   3.566  0.4128  0.2106 -0.0044
 1559Sol     OW 9309   0.874   1.813   8.725 -0.8609  0.4062  0.4474
 1559Sol     HW 9310   0.920   1.862   8.793  0.7065  1.8872 -1.6154
 1559Sol     HW 9311   0.888   1.721   8.748  1.8312  0.8547  0.7139
 1559Sol     MW 9312   0.879   1.809   8.733 -0.6418 -0.4069 -0.2735
 1560Sol     OW 9313   3.223   1.759   1.818  0.4377  0.1452 -0.6280
 1560Sol     HW 9314   3.193   1.713   1.896 -1.5624  1.8527 -0.3585
 1560Sol     HW 9315   3.149   1.753   1.757  0.7470  1.6393 -1.1613
 1560Sol     MW 9316   3.214   1.754   1.819 -0.1251  0.3515 -0.1484
 1561Sol     OW 9317   1.248   2.427   2.463  0.2575 -0.2991  0.3678
 1561Sol     HW 9318   1.193   2.472   2.399  1.4200  0.5988  0.0051
 1561Sol     HW 9319   1.214   2.455   2.548 -0.7345 -0.8338  0.1614
 1561Sol     MW 9320   1.240   2.433   2.465 -0.5017  0.4532  0.6084
 1562Sol     OW 9321   0.685   2.667   2.984  0.5739 -0.5213  0.5977
 1562Sol     HW 9322   0.769   2.642   3.022  0.6697 -1.2118 -0.0524
 1562Sol     HW 9323   0.647   2.729   3.046  0.3338 -2.2935  2.2688
 1562Sol     MW 9324   0.689   2.670   2.993 -0.1370  0.1504  0.7833
 1563Sol     OW 9325   1.974   1.342   9.299 -0.4275  0.0219  0.5065
 1563Sol     HW 9326   1.961   1.376   9.387 -1.6799 -0.3340  0.4697
 1563Sol     HW 9327   1.925   1.403   9.243  0.3837  0.2635  0.0476
 1563Sol     MW 9328   1.968   1.351   9.302  0.0836  0.7979 -0.0951
 1564Sol     OW 9329   0.727   0.546   3.545 -0.2320  0.0444  0.1378
 1564Sol     HW 9330   0.731   0.456   3.513 -0.4644  0.1265 -0.1208
 1564Sol     HW 9331   0.636   0.573   3.532  0.1029  0.7172 -0.8696
 1564Sol     MW 9332   0.719   0.540   3.541 -0.4202  0.5745 -0.4670
 1565Sol     OW 9333   3.044   3.074   3.659  0.0084 -0.1594 -0.2655
 1565Sol     HW 9334   3.093   3.142   3.613  0.1800 -1.1533 -1.6041
 1565Sol     HW 9335   2.955   3.082   3.625 -0.5304  0.9438  1.3644
 1565Sol     MW 9336   3.041   3.081   3.652 -0.2339  0.6269 -0.3301
 1566Sol     OW 9337   2.298   2.608   5.797 -0.1567  0.2145 -0.0594
 1566Sol     HW 9338   2.308   2.577   5.707  0.2247 -0.9071  0.3676
 1566Sol     HW 9339   2.374   2.575   5.843 -0.4945  0.5487  0.7488
 1566Sol     MW 9340   2.306   2.603   5.793  0.4252 -0.5229  0.3541
 1567Sol     OW 9341   1.787   0.949   4.136 -0.0117  0.1896 -0.4176
 1567Sol     HW 9342   1.831   1.017   4.085 -2.9340  2.1660 -0.4396
 1567Sol     HW 9343   1.757   0.994   4.215 -1.0827 -1.3173  0.0541
 1567Sol     MW 9344   1.788   0.960   4.138  0.3018 -0.5633 -0.1298
 1568Sol     OW 9345   2.099   1.654   4.219 -0.0714  0.1181  0.4938
 1568Sol     HW 9346   2.176   1.609   4.253 -0.1249  0.3068  0.8692
 1568Sol     HW 9347   2.040   1.583   4.192  0.5066 -0.0169 -0.4128
 1568Sol     MW 9348   2.101   1.644   4.220  0.4193 -0.0119 -0.1729
 1569Sol     OW 9349   2.582   3.439   5.491  0.0977 -0.5574  0.0356
 1569Sol     HW 9350   2.556   3.441   5.399 -1.1316 -0.5459  0.3787
 1569Sol     HW 9351   2.641   3.513   5.501 -0.0897 -0.3127 -0.6481
 1569Sol     MW 9352   2.585   3.446   5.484 -1.1641  0.3782  0.1447
 1570Sol     OW 9353   2.132   0.744   2.750  0.1805 -0.5885 -0.7873
 1570Sol     HW 9354   2.113   0.827   2.706  0.6107 -0.7266 -1.2299
 1570Sol     HW 9355   2.183   0.769   2.827  1.0684 -0.5168 -1.3927
 1570Sol     MW 9356   2.135   0.754   2.753 -0.0755 -0.1964  0.3831
 1571Sol     OW 9357   0.596   2.157   2.534  0.6177  0.0012  0.1750
 1571Sol     HW 9358   0.612   2.147   2.440  0.2425  3.1518 -0.2678
 1571Sol     HW 9359   0.648   2.234   2.559  1.9178 -1.6852  2.8847
 1571Sol     MW 9360   0.602   2.163   2.528 -0.0434  0.5231  0.1016
 1572Sol     OW 9361   0.738   1.059   9.753  0.4202 -0.5500  0.3667
 1572Sol     HW 9362   0.734   0.976   9.706  1.0089 -0.6802  0.5437
 1572Sol     HW 9363   0.750   1.125   9.684 -2.2386 -0.3707  0.0222
 1572Sol     MW 9364   0.738   1.058   9.742  0.4021  0.0307 -0.7764
 1573Sol     OW 9365   0.491   1.552   9.290 -0.1520 -0.7777 -0.0669
 1573Sol     HW 9366   0.415   1.512   9.247  0.2713  0.4125 -1.9988
 1573Sol     HW 9367   0.490   1.516   9.379 -2.6895 -1.1307 -0.2021
 1573Sol     MW 9368   0.484   1.545   9.294  0.1119  0.0833  0.0911
 1574Sol     OW 9369   3.260   3.448   3.207 -0.6799 -0.2232 -0.0906
 1574Sol     HW 9370   3.198   3.376   3.216 -0.3465 -0.5387 -0.3518
 1574Sol     HW 9371   3.308   3.449   3.290 -2.3543  1.2571  0.9111
 1574Sol     MW 9372   3.259   3.442   3.215 -0.2419  0.4750  0.0977
 1575Sol     OW 9373   2.406   0.210   8.989 -0.2888 -0.0969 -0.2407
 1575Sol     HW 9374   2.346   0.145   9.026  1.6620 -1.5216  0.4432
 1575Sol     HW 9375   2.458   0.162   8.925 -0.3088  1.2917 -1.3209
 1575Sol     MW 9376   2.405   0.200   8.987  0.1576  0.8595 -0.1296
 1576Sol     OW 9377   2.079   2.364   5.949 -0.2511  0.1826 -0.2274
 1576Sol     HW 9378   2.158   2.369   6.002  1.2120  0.9295 -2.4056
 1576Sol     HW 9379   2.035   2.447   5.964  0.4292  0.6097 -0.5573
 1576Sol     MW 9380   2.082   2.372   5.955  0.4226  0.3456 -0.1312
 1577Sol     OW 9381   1.799   1.626   3.809  0.4794 -0.2908 -0.2778
 1577Sol     HW 9382   1.827   1.571   3.736 -0.2709 -1.0559  0.0065
 1577Sol     HW 9383   1.708   1.601   3.824  1.0862 -1.2132  1.9210
 1577Sol     MW 9384   1.793   1.619   3.804  0.0025  0.0749 -0.2360
 1578Sol     OW 9385   1.670   3.303   4.331  0.3542 -0.0223 -0.2195
 1578Sol     HW 9386   1.689   3.287   4.424 -2.5816  2.9787  1.0287
 1578Sol     HW 9387   1.747   3.350   4.299 -0.7484  3.7235  2.2365
 1578Sol     MW 9388   1.679   3.306   4.337  0.3451  0.1276  0.2391
 1579Sol     OW 9389   0.562   0.433   6.963 -0.4102 -0.8633 -0.0005
 1579Sol     HW 9390   0.487   0.412   7.019 -0.2476 -0.3296  0.4229
 1579Sol     HW 9391   0.617   0.489   7.018  0.2764 -1.2236 -0.3245
 1579Sol     MW 9392   0.560   0.436   6.973 -0.2199 -0.0815  0.4192
 1580Sol     OW 9393   0.913   0.304   5.182  0.5366  0.3882  0.5059
 1580Sol     HW 9394   0.961   0.231   5.142  0.2417 -0.6235  1.9821
 1580Sol     HW 9395   0.976   0.344   5.242  0.9196  1.8097 -0.7924
 1580Sol     MW 9396   0.923   0.301   5.184 -0.0638 -0.1853 -0.1613
 1581Sol     OW 9397   2.473   1.903   3.069 -0.2962  0.6833  0.3214
 1581Sol     HW 9398   2.525   1.925   2.991 -1.5743  1.0613 -0.4469
 1581Sol     HW 9399   2.425   1.984   3.088 -2.3023 -0.3172 -0.3440
 1581Sol     MW 9400   2.473   1.913   3.064 -0.0732 -0.5367  0.3806
 1582Sol     OW 9401   2.350   3.335   9.393 -0.1138 -0.1677 -0.6580
 1582Sol     HW 9402   2.389   3.308   9.311  1.9428 -0.5086  0.3955
 1582Sol     HW 9403   2.353   3.257   9.448 -2.0097 -0.1080 -0.4378
 1582Sol     MW 9404   2.354   3.326   9.391 -0.5751 -0.0582 -0.1893
 1583Sol     OW 9405   0.068   3.367   4.923  0.0646  0.4023  0.1065
 1583Sol     HW 9406  -0.024   3.379   4.945  0.3715  0.6333  1.3266
 1583Sol     HW 9407   0.072   3.379   4.828 -1.1277  0.5837  0.0692
 1583Sol     MW 9408   0.060   3.370   4.916 -0.1800 -0.0665  0.5989
 1584Sol     OW 9409   0.415   2.030   3.622  0.0067  0.2216  0.1573
 1584Sol     HW 9410   0.349   2.044   3.690  0.5343  2.8008  0.2069
 1584Sol     HW 9411   0.497   2.061   3.661  0.9241 -1.3081 -0.5269
 1584Sol     MW 9412   0.416   2.034   3.631 -0.3943 -0.1683 -0.0374
 1585Sol     OW 9413   2.373   3.330   5.613 -0.0162  0.5761  0.3442
 1585Sol     HW 9414   2.362   3.377   5.695 -1.6022  2.8686 -1.0994
 1585Sol     HW 9415   2.449   3.371   5.571  1.4531 -1.2994  1.0930
 1585Sol     MW 9416   2.379   3.338   5.616 -0.0012  0.4632 -0.1027
 1586Sol     OW 9417   2.813   2.720   8.575  0.6918 -0.4473  0.1208
 1586Sol     HW 9418   2.890   2.679   8.615  0.4047 -1.2090 -0.0914
 1586Sol     HW 9419   2.752   2.647   8.563  0.7164 -0.2061 -1.5695
 1586Sol     MW 9420   2.815   2.709   8.577 -0.0659 -0.2965  0.3097
 1587Sol     OW 9421   0.928   2.350   3.707 -0.1879  0.1628  0.0709
 1587Sol     HW 9422   1.023   2.352   3.717 -0.1995 -0.2295  0.2559
 1587Sol     HW 9423   0.900   2.271   3.753 -0.7431  0.9589  1.1333
 1587Sol     MW 9424   0.934   2.344   3.712  0.0606  0.2119 -0.9107
 1588Sol     OW 9425   2.355   2.770   8.351 -0.1624  0.2173  0.0758
 1588Sol     HW 9426   2.346   2.724   8.434 -1.9954 -0.2432 -0.3425
 1588Sol     HW 9427   2.265   2.791   8.325  0.2951 -0.4787 -2.2246
 1588Sol     MW 9428   2.346   2.768   8.356  0.0470 -0.1355  0.0030
 1589Sol     OW 9429   1.492   2.126   8.361  0.3304  0.1267 -0.3613
 1589Sol     HW 9430   1.409   2.092   8.327  1.0118 -0.2701 -1.6944
 1589Sol     HW 9431   1.543   2.048   8.382  1.1396  0.3144 -1.5373
 1589Sol     MW 9432   1.489   2.116   8.360  0.4661 -0.1855 -0.4701
 1590Sol     OW 9433   1.675   3.103   5.286 -0.0772 -0.3339  0.3065
 1590Sol     HW 9434   1.749   3.156   5.257 -0.5010  0.7147  1.1078
 1590Sol     HW 9435   1.698   3.077   5.375 -1.0495  0.7151  0.8691
 1590Sol     MW 9436   1.684   3.106   5.291  0.1504  0.2179 -0.1156
 1591Sol     OW 9437   2.853   0.502   2.237  0.2350  0.4780 -0.1375
 1591Sol     HW 9438   2.877   0.559   2.310 -0.8081  0.1997  0.4173
 1591Sol     HW 9439   2.822   0.563   2.169  0.4351  0.6730 -0.0568
 1591Sol     MW 9440   2.853   0.513   2.237 -0.2595  0.2042  0.1121
 1592Sol     OW 9441   1.923   2.152   6.105  0.0815  0.0619  0.1281
 1592Sol     HW 9442   1.843   2.131   6.057  0.4991 -0.1756 -0.4683
 1592Sol     HW 9443   1.978   2.197   6.041  0.5453 -0.0416  0.4577
 1592Sol     MW 9444   1.921   2.154   6.095 -0.5673 -0.4022  0.1911
 1593Sol     OW 9445   1.246   2.291   4.889  0.1720  0.0858  0.0457
 1593Sol     HW 9446   1.331   2.250   4.878 -0.3780 -1.5600  1.8278
 1593Sol     HW 9447   1.222   2.274   4.980 -1.9401  0.7372 -0.3632
 1593Sol     MW 9448   1.251   2.286   4.896  0.0021 -0.0014  0.1767
 1594Sol     OW 9449   3.024   1.387   9.190  0.0350  0.4798 -0.2819
 1594Sol     HW 9450   3.091   1.423   9.131  2.2415 -0.6381  1.4937
 1594Sol     HW 9451   2.959   1.457   9.197  0.3715  1.1257 -2.9879
 1594Sol     MW 9452   3.024   1.397   9.185  0.0727  0.2176 -0.3069
 1595Sol     OW 9453   0.888   3.056   7.307  0.2120  0.5203  0.0141
 1595Sol     HW 9454   0.934   2.994   7.251  1.3194  1.1819  0.1876
 1595Sol     HW 9455   0.935   3.139   7.295  0.1108  0.8001  1.4818
 1595Sol     MW 9456   0.896   3.058   7.301  0.0815  0.1253  0.1283
 1596Sol     OW 9457   3.152   1.275   2.962 -0.0474 -0.5116 -0.0983
 1596Sol     HW 9458   3.170   1.369   2.957 -1.1313 -0.2192  1.1034
 1596Sol     HW 9459   3.181   1.249   3.049 -1.4710 -0.8878  0.2849
 1596Sol     MW 9460   3.156   1.281   2.969  0.0949 -0.2858  0.0689
 1597Sol     OW 9461   0.718   3.256   3.056  0.2152  0.1225  0.4692
 1597Sol     HW 9462   0.630   3.269   3.020  0.9419  0.9207 -1.0468
 1597Sol     HW 9463   0.727   3.161   3.060 -0.8080  0.0258  0.9014
 1597Sol     MW 9464   0.711   3.248   3.053  0.1524 -0.5549  0.0373
 1598Sol     OW 9465   2.413   1.323   2.925 -0.2932  0.3234  0.2522
 1598Sol     HW 9466   2.410   1.340   2.831  1.3324 -1.1415 -0.0724
 1598Sol     HW 9467   2.462   1.397   2.961  3.2438 -1.4704 -0.6696
 1598Sol     MW 9468   2.417   1.331   2.920  0.3689  0.3649 -0.1011
 1599Sol     OW 9469   1.372   0.121   1.531 -0.3323 -0.5191 -0.2807
 1599Sol     HW 9470   1.302   0.122   1.596  0.4940  2.0027  0.6027
 1599Sol     HW 9471   1.347   0.188   1.467 -0.3006 -1.8277 -1.7164
 1599Sol     MW 9472   1.363   0.127   1.531  0.0474  0.5399  0.1989
 1600Sol     OW 9473   3.305   2.810   5.147  0.0508  0.4226  0.1182
 1600Sol     HW 9474   3.352   2.870   5.088 -1.9135  2.3477  0.4751
 1600Sol     HW 9475   3.298   2.857   5.229  0.2676 -1.1341  1.0465
 1600Sol     MW 9476   3.309   2.820   5.149  0.0254  1.1718 -0.2368
 1601Sol     OW 9477   1.505   1.223   7.018 -0.0647 -0.0838  0.6382
 1601Sol     HW 9478   1.525   1.156   7.084  0.6097 -0.7202 -0.1985
 1601Sol     HW 9479   1.418   1.256   7.043  1.0555  1.1810  3.0640
 1601Sol     MW 9480   1.499   1.220   7.026 -0.3828  0.2735 -0.2580
 1602Sol     OW 9481   3.223   2.243   5.365 -0.3143 -0.0355 -0.4939
 1602Sol     HW 9482   3.129   2.229   5.354 -0.1948 -1.1035 -0.1408
 1602Sol     HW 9483   3.263   2.184   5.302  0.1008  1.2567 -1.4666
 1602Sol     MW 9484   3.218   2.237   5.358 -0.2682  0.6101  0.1711
 1603Sol     OW 9485   0.555   2.500   3.424  0.3580 -0.0465 -0.4749
 1603Sol     HW 9486   0.531   2.534   3.338  0.0334 -1.2472 -0.8684
 1603Sol     HW 9487   0.471   2.480   3.467  0.5520 -1.2570 -0.6295
 1603Sol     MW 9488   0.545   2.501   3.421 -1.0752  0.2747  0.0232
 1604Sol     OW 9489   2.865   2.971   9.144  0.7654 -0.2873  0.1715
 1604Sol     HW 9490   2.923   2.900   9.174  0.0910 -1.1920 -0.6340
 1604Sol     HW 9491   2.923   3.047   9.135  1.4647 -0.6931  1.2014
 1604Sol     MW 9492   2.876   2.971   9.145 -0.1728 -0.2200  0.6507
 1605Sol     OW 9493   0.578   1.645   4.394  0.1290  0.3950 -0.2493
 1605Sol     HW 9494   0.507   1.697   4.431 -1.6619 -0.5593 -2.2772
 1605Sol     HW 9495   0.607   1.590   4.467 -2.3325 -0.3903  0.1656
 1605Sol     MW 9496   0.574   1.645   4.404  1.0497  0.6249  0.2635
 1606Sol     OW 9497   0.397   0.608   8.687  0.0378  0.4447 -0.3355
 1606Sol     HW 9498   0.309   0.628   8.654  0.1830  1.0971 -0.3200
 1606Sol     HW 9499   0.382   0.544   8.757 -0.4454  0.7160 -0.1873
 1606Sol     MW 9500   0.387   0.604   8.690  0.0863 -0.3248 -0.3271
 1607Sol     OW 9501   0.062   3.115   6.277  0.9465 -0.0297 -0.4891
 1607Sol     HW 9502   0.074   3.186   6.214 -1.0580 -0.0460 -0.9184
 1607Sol     HW 9503   0.031   3.042   6.224  0.2023 -0.3482  0.3863
 1607Sol     MW 9504   0.061   3.115   6.267  0.4422 -0.2830  0.4250
 1608Sol     OW 9505   2.472   1.047   2.933 -0.1413 -0.0630  0.0205
 1608Sol     HW 9506   2.455   1.140   2.946  1.8602  0.7800 -2.6953
 1608Sol     HW 9507   2.516   1.018   3.013 -0.0810  1.5333  0.5737
 1608Sol     MW 9508   2.475   1.052   2.941  0.5573 -0.1828 -0.0719
 1609Sol     OW 9509   2.232   2.371   6.687  0.2023 -0.3194 -0.6103
 1609Sol     HW 9510   2.150   2.351   6.641 -0.5314 -1.2453  1.0512
 1609Sol     HW 9511   2.294   2.306   6.655 -0.1136 -0.5204 -0.8177
 1609Sol     MW 9512   2.230   2.363   6.680 -0.0795 -0.3728 -0.2236
 1610Sol     OW 9513   2.976   3.065   8.432  0.3225  0.4485 -0.0161
 1610Sol     HW 9514   3.050   3.061   8.491  0.2476 -0.3839  0.0226
 1610Sol     HW 9515   2.945   3.156   8.438  2.2732  1.2250 -1.1919
 1610Sol     MW 9516   2.980   3.073   8.437 -0.5421  0.1013 -0.8241
 1611Sol     OW 9517   0.995   2.523   5.414 -0.0166  0.1706 -0.7395
 1611Sol     HW 9518   0.971   2.604   5.368 -1.3433  0.3384  0.2015
 1611Sol     HW 9519   0.951   2.531   5.498 -0.0522 -1.4853 -0.5992
 1611Sol     MW 9520   0.989   2.531   5.417 -0.0133  0.1024 -0.4601
 1612Sol     OW 9521   2.963   2.806   7.809  0.4780 -0.1959 -0.4734
 1612Sol     HW 9522   3.024   2.767   7.746  0.0708 -1.9827  0.2243
 1612Sol     HW 9523   2.923   2.732   7.854 -0.9522  1.0034  0.2880
 1612Sol     MW 9524   2.965   2.796   7.808  0.1028 -0.1415  0.3685
 1613Sol     OW 9525   2.648   2.032   1.435  0.3020 -0.2796  0.1889
 1613Sol     HW 9526   2.554   2.021   1.446  0.3354 -0.9446 -0.2173
 1613Sol     HW 9527   2.668   1.990   1.352  0.6519  1.5992 -0.6880
 1613Sol     MW 9528   2.641   2.027   1.429 -0.5828 -0.0205  0.0925
 1614Sol     OW 9529   3.099   3.113   2.438  0.3810 -0.7548 -0.2798
 1614Sol     HW 9530   3.115   3.181   2.504 -0.3638 -0.8889  0.0459
 1614Sol     HW 9531   3.171   3.051   2.449  0.4970 -0.5484  0.1200
 1614Sol     MW 9532   3.107   3.114   2.445 -0.1800  0.1117  0.1805
 1615Sol     OW 9533   3.302   0.918   1.477 -0.3097 -0.1633 -0.1303
 1615Sol     HW 9534   3.220   0.887   1.440 -0.3635 -2.0955  1.4801
 1615Sol     HW 9535   3.283   1.007   1.507 -1.4999 -0.1915 -0.7857
 1615Sol     MW 9536   3.293   0.923   1.477  0.4763 -0.4325  0.0258
 1616Sol     OW 9537   1.001   3.285   8.548  0.0898 -0.2272  0.0713
 1616Sol     HW 9538   0.921   3.332   8.523  1.0789  1.3815 -0.1710
 1616Sol     HW 9539   1.010   3.301   8.642 -0.7611 -1.8245  0.4445
 1616Sol     MW 9540   0.994   3.291   8.554 -0.0064 -0.5039 -0.4337
 1617Sol     OW 9541   0.763   0.250   5.454 -0.6810 -0.4941  0.2591
 1617Sol     HW 9542   0.701   0.284   5.390 -1.0873  0.7044  1.2603
 1617Sol     HW 9543   0.817   0.326   5.477  0.8444 -1.4076 -0.2377
 1617Sol     MW 9544   0.762   0.260   5.450  0.0094 -0.1754  0.6281
 1618Sol     OW 9545   2.496   1.225   6.003  0.1752 -0.2281 -0.2771
 1618Sol     HW 9546   2.485   1.137   6.037  1.0994 -0.4444 -0.5228
 1618Sol     HW 9547   2.530   1.276   6.077  2.4854 -0.7696 -0.9140
 1618Sol     MW 9548   2.498   1.222   6.012 -0.1942 -0.5305  0.3164
 1619Sol     OW 9549   0.465   0.696   6.537  0.2626 -0.1038 -0.3389
 1619Sol     HW 9550   0.496   0.623   6.591  0.5014  0.7845  0.7466
 1619Sol     HW 9551   0.399   0.657   6.480 -0.7335 -0.8732  1.2882
 1619Sol     MW 9552   0.462   0.686   6.537 -0.3415  0.0777  0.2450
 1620Sol     OW 9553   0.426   2.617   2.156 -0.1684 -0.3425  0.0899
 1620Sol     HW 9554   0.472   2.553   2.211 -0.3576  0.2493  0.9420
 1620Sol     HW 9555   0.352   2.646   2.210  0.0498  0.7724 -0.2061
 1620Sol     MW 9556   0.423   2.614   2.166  0.1148  0.0174  0.1664
 1621Sol     OW 9557   3.269   2.569   3.047  0.3353 -0.5099 -0.3760
 1621Sol     HW 9558   3.203   2.584   3.115  1.9496  0.5384  0.9807
 1621Sol     HW 9559   3.273   2.651   2.998 -1.4774 -1.5520 -2.3750
 1621Sol     MW 9560   3.263   2.578   3.048  0.2538 -0.0708 -0.1589
 1622Sol     OW 9561   3.320   1.528   5.965 -0.3294  0.0133 -0.7333
 1622Sol     HW 9562   3.285   1.440   5.948  0.2371 -0.1151 -1.2318
 1622Sol     HW 9563   3.263   1.586   5.914  0.2080 -0.2000 -1.5896
 1622Sol     MW 9564   3.312   1.525   5.959  0.2865 -0.6390 -0.1987
 1623Sol     OW 9565   2.209   1.656   7.637 -0.0696  0.1168 -0.6753
 1623Sol     HW 9566   2.265   1.579   7.626  0.7345  0.4802  0.6745
 1623Sol     HW 9567   2.157   1.636   7.715 -1.7670 -0.1667 -1.8480
 1623Sol     MW 9568   2.209   1.647   7.643 -0.1565 -0.0248  0.1314
 1624Sol     OW 9569   1.472   2.415   7.592  0.1530 -1.0705 -0.0681
 1624Sol     HW 9570   1.393   2.468   7.597 -0.8627 -2.6826  1.4709
 1624Sol     HW 9571   1.495   2.414   7.499 -1.1184  0.1157 -0.4067
 1624Sol     MW 9572   1.467   2.420   7.584  0.3087 -0.0669  0.3562
 1625Sol     OW 9573   0.858   0.836   2.435  0.3443 -0.4810 -0.3005
 1625Sol     HW 9574   0.865   0.830   2.340  2.9549 -0.1292 -0.1614
 1625Sol     HW 9575   0.944   0.808   2.468 -0.1990  0.3221  1.9060
 1625Sol     MW 9576   0.866   0.833   2.430 -0.3552 -0.6846  0.3678
 1626Sol     OW 9577   3.255   0.844   9.780  0.1295  0.6515 -0.0685
 1626Sol     HW 9578   3.308   0.887   9.847  1.3725 -2.1609  0.8006
 1626Sol     HW 9579   3.316   0.785   9.735 -1.9392 -1.7179  0.1118
 1626Sol     MW 9580   3.265   0.843   9.782  0.3537  0.0702 -0.2969
 1627Sol     OW 9581   1.957   2.006   8.008  0.2611  0.3282  0.0934
 1627Sol     HW 9582   1.976   2.083   7.954 -1.4533  0.8234  0.1703
 1627Sol     HW 9583   1.908   2.041   8.083 -0.5626 -0.8254  0.1082
 1627Sol     MW 9584   1.954   2.016   8.010 -0.1317  0.4184  0.6352
 1628Sol     OW 9585   1.099   3.229   3.275  0.3335 -0.0426 -0.0959
 1628Sol     HW 9586   1.056   3.143   3.281  1.4212 -0.7403 -1.8728
 1628Sol     HW 9587   1.027   3.290   3.257 -0.3460 -0.7175  0.3286
 1628Sol     MW 9588   1.088   3.227   3.274  0.8477  0.6170  0.2081
 1629Sol     OW 9589   0.363   0.070   9.537 -0.8764  0.1278  0.1161
 1629Sol     HW 9590   0.434   0.128   9.563  0.3525 -1.0669 -0.5132
 1629Sol     HW 9591   0.398   0.021   9.462 -1.3977 -2.3596  1.4375
 1629Sol     MW 9592   0.372   0.070   9.532 -0.2200  0.0713  0.4516
 1630Sol     OW 9593   0.456   2.540   7.775  0.0523 -0.2287  0.5962
 1630Sol     HW 9594   0.470   2.571   7.864  2.4530 -2.1060  0.9472
 1630Sol     HW 9595   0.436   2.618   7.724  0.3318  1.0796  2.4654
 1630Sol     MW 9596   0.455   2.550   7.778 -0.0051  0.2850 -0.5070
 1631Sol     OW 9597   1.966   2.971   8.156  0.5426 -0.5626  0.1441
 1631Sol     HW 9598   1.946   2.946   8.066 -0.1001 -0.6914  0.3165
 1631Sol     HW 9599   1.883   2.961   8.202  0.0588  2.5030  0.0778
 1631Sol     MW 9600   1.956   2.968   8.152 -0.0752  0.1245 -0.0331
 1632Sol     OW 9601   2.758   1.651   7.737  0.1179 -0.1505  0.4997
 1632Sol     HW 9602   2.743   1.695   7.821 -0.2335 -1.6094  1.2165
 1632Sol     HW 9603   2.850   1.627   7.738  0.1174 -0.1534  0.4698
 1632Sol     MW 9604   2.765   1.653   7.745 -0.2908  0.5714  0.4244
 1633Sol     OW 9605   2.303   2.762   4.265 -0.0453 -0.2437 -0.3605
 1633Sol     HW 9606   2.355   2.839   4.240 -1.4212  1.7666  2.6421
 1633Sol     HW 9607   2.223   2.768   4.213  0.0602  0.0665 -0.4876
 1633Sol     MW 9608   2.301   2.769   4.258  0.3469  0.9309  0.5175
 1634Sol     OW 9609   0.766   2.358   9.604 -0.4655  0.0290  0.1855
 1634Sol     HW 9610   0.829   2.334   9.536  1.4151 -0.3857  2.0214
 1634Sol     HW 9611   0.708   2.421   9.561  0.2165 -0.7890 -2.0150
 1634Sol     MW 9612   0.767   2.362   9.594 -0.5224 -0.0490  0.0060
 1635Sol     OW 9613   2.128   0.841   7.862 -0.1824 -0.5427  0.2140
 1635Sol     HW 9614   2.120   0.767   7.923 -0.1151 -0.6017  0.1516
 1635Sol     HW 9615   2.040   0.877   7.855  0.2520  1.0721  2.3899
 1635Sol     MW 9616   2.120   0.838   7.867  0.0690 -0.6955 -0.3635
 1636Sol     OW 9617   2.708   1.216   9.455  0.2419  0.3546 -0.1659
 1636Sol     HW 9618   2.742   1.305   9.465  0.4703  0.4808 -1.9962
 1636Sol     HW 9619   2.783   1.160   9.475  0.5315  0.5925 -0.5771
 1636Sol     MW 9620   2.718   1.219   9.458  0.2736 -0.0944 -0.0862
 1637Sol     OW 9621   0.207   0.706   7.089  0.0188 -0.0449 -0.7751
 1637Sol     HW 9622   0.134   0.761   7.060  0.3334  0.9012  0.2175
 1637Sol     HW 9623   0.266   0.766   7.135  1.4488 -0.7957 -1.5966
 1637Sol     MW 9624   0.205   0.716   7.090 -0.2483  0.0932  0.5087
 1638Sol     OW 9625   0.577   2.128   4.472 -0.1381 -0.1193  0.0425
 1638Sol     HW 9626   0.610   2.216   4.454 -0.4679 -0.0349 -0.1561
 1638Sol     HW 9627   0.645   2.070   4.439  0.1806  0.0657  0.3751
 1638Sol     MW 9628   0.586   2.131   4.467  0.0116  0.0651  0.2377
 1639Sol     OW 9629   0.959   3.057   7.845 -0.1337  0.4364 -0.8214
 1639Sol     HW 9630   0.976   2.963   7.840  0.4241  0.3120  2.4410
 1639Sol     HW 9631   0.877   3.069   7.798 -0.6457 -1.8154 -0.5447
 1639Sol     MW 9632   0.953   3.049   7.840 -0.6559  0.1899  0.0685
 1640Sol     OW 9633   2.519   3.116   2.111  0.0875 -0.6408  0.5091
 1640Sol     HW 9634   2.424   3.122   2.121 -0.1028 -3.1768  0.4653
 1640Sol     HW 9635   2.541   3.185   2.049 -1.5107  0.9919  1.6975
 1640Sol     MW 9636   2.513   3.123   2.106 -0.8564  0.1789 -0.1334
 1641Sol     OW 9637   0.964   0.573   3.147  0.1466  0.1190 -0.1119
 1641Sol     HW 9638   0.966   0.613   3.061  0.3296  0.3900  0.0183
 1641Sol     HW 9639   1.015   0.493   3.137  1.0634  0.6849  0.0129
 1641Sol     MW 9640   0.968   0.569   3.139 -0.8304 -0.4570 -0.6600
 1642Sol     OW 9641   2.320   3.348   5.093 -0.0831 -0.0327 -0.8893
 1642Sol     HW 9642   2.375   3.321   5.019  2.9010 -1.3672  1.7022
 1642Sol     HW 9643   2.266   3.419   5.057  1.3816 -0.5040 -4.2924
 1642Sol     MW 9644   2.320   3.352   5.083  0.0007 -0.6309 -0.2261
 1643Sol     OW 9645   0.375   0.348   2.786 -0.6525 -0.0797  0.5987
 1643Sol     HW 9646   0.308   0.329   2.720 -0.3477  0.5715  0.1039
 1643Sol     HW 9647   0.329   0.401   2.851 -0.5325  0.6735  0.0767
 1643Sol     MW 9648   0.365   0.351   2.786  0.1103 -0.2609 -0.2065
 1644Sol     OW 9649   1.844   2.835   6.171 -0.1450 -0.4746  0.2698
 1644Sol     HW 9650   1.817   2.871   6.086 -0.7630 -1.4379  0.0366
 1644Sol     HW 9651   1.812   2.898   6.235  1.1670  0.7494 -0.2547
 1644Sol     MW 9652   1.839   2.843   6.169 -0.3019  0.0170 -0.2054
 1645Sol     OW 9653   0.551   0.648   2.035 -0.1631 -0.2121  0.4987
 1645Sol     HW 9654   0.491   0.692   2.095 -0.4846 -0.2857  0.2356
 1645Sol     HW 9655   0.565   0.711   1.964 -1.8151 -1.0818 -0.6424
 1645Sol     MW 9656   0.547   0.658   2.034  0.0177 -0.0256  0.4545
 1646Sol     OW 9657   2.717   1.102   4.125 -1.3175 -0.3551  0.5268
 1646Sol     HW 9658   2.724   1.181   4.177  1.0012 -0.3994  0.3373
 1646Sol     HW 9659   2.697   1.133   4.036 -0.5570  0.0111  0.4829
 1646Sol     MW 9660   2.715   1.111   4.122  0.0423 -0.4399  0.1113
 1647Sol     OW 9661   2.911   2.246   2.995 -0.1768 -0.2403 -0.0513
 1647Sol     HW 9662   2.916   2.157   3.028  0.2196 -0.3333 -0.3621
 1647Sol     HW 9663   3.001   2.270   2.976 -0.3598 -0.0497 -0.6970
 1647Sol     MW 9664   2.919   2.241   2.997  0.8159  0.0206  0.2437
 1648Sol     OW 9665   2.430   1.664   5.172  0.5927 -0.0878  0.0398
 1648Sol     HW 9666   2.457   1.710   5.251 -0.4013  1.1055 -0.2897
 1648Sol     HW 9667   2.343   1.629   5.192  0.7298 -0.5818 -0.2075
 1648Sol     MW 9668   2.424   1.665   5.181  0.0097  0.2985 -0.4084
 1649Sol     OW 9669   0.988   2.990   3.523 -0.2874 -1.0600  0.0111
 1649Sol     HW 9670   0.974   2.976   3.429  0.0128  1.1305 -0.3859
 1649Sol     HW 9671   0.901   2.983   3.562 -0.4501 -1.7089 -0.4632
 1649Sol     MW 9672   0.979   2.988   3.518 -0.1901  0.3078  0.1646
 1650Sol     OW 9673   1.101   1.806   9.529 -0.3626  0.5869 -0.0554
 1650Sol     HW 9674   1.052   1.811   9.611  0.5614  0.6984  0.4911
 1650Sol     HW 9675   1.113   1.712   9.514  0.5089  0.5967  0.5625
 1650Sol     MW 9676   1.097   1.798   9.535  0.2831 -0.2264  0.7791
 1651Sol     OW 9677   2.982   2.098   1.978  0.4754 -0.5679  0.1801
 1651Sol     HW 9678   2.955   2.189   1.966 -0.7557 -1.0624 -0.9755
 1651Sol     HW 9679   3.058   2.088   1.922  2.2480  0.4314  2.3086
 1651Sol     MW 9680   2.986   2.105   1.972  0.5392  0.2826 -0.0589
 1652Sol     OW 9681   3.220   1.451   8.977  1.0489  0.2032 -0.0827
 1652Sol     HW 9682   3.211   1.538   8.938  1.0045 -0.0386 -0.6089
 1652Sol     HW 9683   3.204   1.390   8.905 -0.5722 -0.2604  0.6284
 1652Sol     MW 9684   3.217   1.454   8.967  0.8192 -0.1426 -0.3595
 1653Sol     OW 9685   1.053   0.991   8.185 -0.2332 -0.5471 -0.4048
 1653Sol     HW 9686   0.997   0.965   8.258  0.1566  0.4465  0.2804
 1653Sol     HW 9687   1.095   0.910   8.156 -0.7377 -1.0252  0.1865
 1653Sol     MW 9688   1.052   0.982   8.189  0.4844  0.0835  0.1469
 1654Sol     OW 9689   0.425   3.375   2.791 -0.4248  0.0532  0.0038
 1654Sol     HW 9690   0.415   3.306   2.856  1.4747 -1.5297 -1.3314
 1654Sol     HW 9691   0.461   3.331   2.714 -1.2047  2.1586 -1.6176
 1654Sol     MW 9692   0.427   3.365   2.790  0.2897 -0.1584  0.2311
 1655Sol     OW 9693   2.398   1.117   8.523 -0.1970 -0.0331  0.0939
 1655Sol     HW 9694   2.420   1.041   8.576  0.5243 -0.7489 -1.1968
 1655Sol     HW 9695   2.416   1.090   8.433 -0.7674  1.3690 -0.4708
 1655Sol     MW 9696   2.401   1.108   8.520  0.0548  0.0346  0.1659
 1656Sol     OW 9697   1.290   2.619   1.821  0.0727  0.1910  0.1434
 1656Sol     HW 9698   1.269   2.686   1.886  1.5607 -1.3199  2.2060
 1656Sol     HW 9699   1.344   2.665   1.756 -0.4212  1.4088  0.5711
 1656Sol     MW 9700   1.293   2.629   1.821  0.0646 -0.2302  0.0990
 1657Sol     OW 9701   1.422   1.235   8.566 -0.1803  0.2261 -0.4059
 1657Sol     HW 9702   1.424   1.149   8.609 -0.9138  0.7082  0.6106
 1657Sol     HW 9703   1.347   1.230   8.507 -0.4669  0.3165 -0.0461
 1657Sol     MW 9704   1.416   1.227   8.565  0.5106 -0.2781  0.0816
 1658Sol     OW 9705   2.802   2.932   6.657 -0.0468 -0.3781 -0.6178
 1658Sol     HW 9706   2.782   2.999   6.722 -0.8476 -2.1987  1.0770
 1658Sol     HW 9707   2.852   2.977   6.589 -1.4595  2.1375 -0.0241
 1658Sol     MW 9708   2.804   2.942   6.656  0.0486  0.1882 -0.1747
 1659Sol     OW 9709   0.513   2.656   8.012 -0.5977 -0.3797 -0.0984
 1659Sol     HW 9710   0.577   2.721   7.981 -1.5224  0.6327  0.0664
 1659Sol     HW 9711   0.450   2.707   8.063 -1.1119 -1.4822  0.3882
 1659Sol     MW 9712   0.513   2.667   8.014  0.2008  0.6117  0.5435
 1660Sol     OW 9713   2.647   0.259   2.556 -0.0116 -0.3642  0.5601
 1660Sol     HW 9714   2.578   0.308   2.602 -0.3499  1.2698 -1.5590
 1660Sol     HW 9715   2.657   0.306   2.473  0.7913 -3.0180 -0.8917
 1660Sol     MW 9716   2.641   0.268   2.553  0.1670 -0.0556  0.3859
 1661Sol     OW 9717   0.051   2.023   3.703 -0.0170  0.0046  0.4175
 1661Sol     HW 9718  -0.031   1.983   3.676 -0.5718  1.1398  0.4100
 1661Sol     HW 9719   0.098   1.954   3.749 -0.4716 -0.9870 -0.6021
 1661Sol     MW 9720   0.048   2.014   3.705  0.7743  0.4331 -0.4722
 1662Sol     OW 9721   2.610   2.010   5.250 -0.5910 -0.2008 -0.2555
 1662Sol     HW 9722   2.566   2.076   5.305  0.1370 -0.2987  0.4519
 1662Sol     HW 9723   2.599   1.928   5.298  1.0289 -0.0953  0.3064
 1662Sol     MW 9724   2.605   2.009   5.260  0.0145 -0.3181  0.2218
 1663Sol     OW 9725   2.886   1.288   3.492  0.1347 -0.5024 -0.5141
 1663Sol     HW 9726   2.800   1.331   3.486  0.8343  1.0671  0.3255
 1663Sol     HW 9727   2.910   1.270   3.401 -1.2538 -1.3425 -0.7439
 1663Sol     MW 9728   2.880   1.290   3.483 -0.1610  0.8533 -0.3756
 1664Sol     OW 9729   2.150   1.103   7.092 -0.1985  0.7064 -0.8404
 1664Sol     HW 9730   2.174   1.176   7.150 -0.8918 -0.1981  0.6271
 1664Sol     HW 9731   2.224   1.043   7.098 -0.2834  0.5998 -0.8579
 1664Sol     MW 9732   2.159   1.104   7.098  0.2710  0.0827  0.2855
 1665Sol     OW 9733   1.758   0.501   4.651  0.0820  0.1683 -0.5958
 1665Sol     HW 9734   1.838   0.458   4.680 -1.7578 -1.0864  2.9257
 1665Sol     HW 9735   1.758   0.586   4.696 -0.3878  0.2875 -0.8111
 1665Sol     MW 9736   1.765   0.505   4.658 -0.0497 -0.0484  0.3400
 1666Sol     OW 9737   3.101   1.429   7.053  0.0984  0.0071  0.2647
 1666Sol     HW 9738   3.187   1.426   7.010  0.5954  1.3544  1.1122
 1666Sol     HW 9739   3.053   1.356   7.016  1.2475 -0.1200 -1.0254
 1666Sol     MW 9740   3.105   1.423   7.046  0.4988  0.2444  0.4257
 1667Sol     OW 9741   0.236   0.130   1.850 -0.9404 -0.2706  0.1040
 1667Sol     HW 9742   0.211   0.161   1.937 -1.4459  0.8318 -0.4261
 1667Sol     HW 9743   0.178   0.177   1.790 -1.5904 -2.0795 -0.7427
 1667Sol     MW 9744   0.228   0.137   1.852 -0.0752 -0.0239 -0.0150
 1668Sol     OW 9745   0.211   3.313   3.360  0.0861 -0.1524  0.4382
 1668Sol     HW 9746   0.165   3.372   3.419  0.4543  0.7566 -0.1642
 1668Sol     HW 9747   0.262   3.371   3.303  1.0108 -1.0873  0.3024
 1668Sol     MW 9748   0.211   3.323   3.360 -0.1848  0.3109  0.2448
 1669Sol     OW 9749   2.927   1.836   6.943 -0.1101 -0.7266 -0.2014
 1669Sol     HW 9750   2.938   1.761   7.002  1.5287 -1.3966 -1.3312
 1669Sol     HW 9751   2.836   1.863   6.956 -0.3231 -2.0414  1.2362
 1669Sol     MW 9752   2.920   1.832   6.950 -0.5861 -0.1840 -0.0184
 1670Sol     OW 9753   0.455   0.658   3.521 -0.5941  0.0037 -0.0116
 1670Sol     HW 9754   0.438   0.715   3.596  1.5898 -0.1581  0.6214
 1670Sol     HW 9755   0.490   0.717   3.454  2.5171 -0.6697  0.9439
 1670Sol     MW 9756   0.457   0.669   3.521 -0.2367  0.0804  0.7011
 1671Sol     OW 9757   1.231   1.429   6.248  0.4238 -0.2138 -0.4266
 1671Sol     HW 9758   1.307   1.475   6.213  1.0554 -0.1538  1.0316
 1671Sol     HW 9759   1.180   1.496   6.292  0.4475 -0.5931  0.1766
 1671Sol     MW 9760   1.233   1.439   6.249  0.0336 -0.0441 -0.0764
 1672Sol     OW 9761   1.776   3.265   4.582  0.4454  0.1064 -0.4453
 1672Sol     HW 9762   1.700   3.208   4.575  1.3535 -1.2011  0.3279
 1672Sol     HW 9763   1.740   3.351   4.604 -0.9408 -0.0792 -1.9167
 1672Sol     MW 9764   1.766   3.268   4.583  0.8217 -0.0218 -0.0591
 1673Sol     OW 9765   1.409   2.822   5.203  0.3084 -0.0708  0.0263
 1673Sol     HW 9766   1.367   2.902   5.235 -0.5533  0.1767 -1.6473
 1673Sol     HW 9767   1.502   2.844   5.198  0.8262 -0.8671  4.4942
 1673Sol     MW 9768   1.413   2.831   5.205  0.1929 -0.3031  0.1028
 1674Sol     OW 9769   2.717   1.911   5.568 -0.5061  0.0269  0.1564
 1674Sol     HW 9770   2.761   1.840   5.519 -0.5641  0.0542  0.0645
 1674Sol     HW 9771   2.644   1.936   5.512 -0.4734  0.1738  0.1803
 1674Sol     MW 9772   2.715   1.906   5.558 -0.5587  0.2242  0.4975
 1675Sol     OW 9773   0.945   0.130   6.512  0.0494  0.1333  0.1985
 1675Sol     HW 9774   0.972   0.222   6.519  0.9147 -0.0143 -1.1468
 1675Sol     HW 9775   1.014   0.081   6.556 -0.2067  0.0891  0.5559
 1675Sol     MW 9776   0.953   0.134   6.517  0.5215  0.1859 -0.0811
 1676Sol     OW 9777   2.271   0.734   8.488 -0.0178  0.4225  0.7968
 1676Sol     HW 9778   2.260   0.729   8.583 -0.2969 -1.2337  0.6752
 1676Sol     HW 9779   2.355   0.692   8.471  0.1850  1.0062  0.3315
 1676Sol     MW 9780   2.278   0.730   8.495  0.1029 -0.0403  0.2330
 1677Sol     OW 9781   0.351   2.465   3.583 -0.1277 -0.4257  0.0857
 1677Sol     HW 9782   0.270   2.427   3.549 -0.1704  1.1110 -1.6092
 1677Sol     HW 9783   0.323   2.545   3.627  0.1935 -1.2661  1.8756
 1677Sol     MW 9784   0.341   2.469   3.584  0.1191 -0.4854 -0.2984
 1678Sol     OW 9785   0.280   3.329   9.083  0.7476 -0.1073  0.0909
 1678Sol     HW 9786   0.290   3.410   9.034  1.4247  0.2449  0.8027
 1678Sol     HW 9787   0.348   3.333   9.150  0.7945 -1.2641  0.1276
 1678Sol     MW 9788   0.287   3.336   9.084  0.2471 -1.0362  0.1523
 1679Sol     OW 9789   0.434   2.579   3.167 -0.7441 -0.2764 -0.4820
 1679Sol     HW 9790   0.338   2.581   3.170 -0.7407  0.0964 -0.5744
 1679Sol     HW 9791   0.455   2.561   3.075 -0.7395 -1.7539 -0.1986
 1679Sol     MW 9792   0.427   2.578   3.159 -0.1278 -0.5286  0.2620
 1680Sol     OW 9793   3.230   0.899   8.434  0.3093 -0.5371  0.6105
 1680Sol     HW 9794   3.296   0.845   8.477  0.2438 -1.8537 -0.9109
 1680Sol     HW 9795   3.147   0.856   8.455  0.2641 -1.1053 -0.6755
 1680Sol     MW 9796   3.228   0.890   8.440  0.4458  0.9828  0.0815
 1681Sol     OW 9797   0.699   1.712   6.498 -0.1421 -0.0694 -0.1189
 1681Sol     HW 9798   0.730   1.795   6.534  1.7166 -0.5083 -0.6399
 1681Sol     HW 9799   0.738   1.645   6.554 -1.2496 -0.6031  0.0181
 1681Sol     MW 9800   0.706   1.714   6.506 -0.3108  0.1509  0.1609
 1682Sol     OW 9801   1.061   3.312   2.283  0.7450  0.0765 -0.0298
 1682Sol     HW 9802   0.987   3.366   2.257 -0.0693 -0.7875  0.4509
 1682Sol     HW 9803   1.035   3.273   2.366  0.6761 -2.2319 -1.0815
 1682Sol     MW 9804   1.052   3.313   2.288  0.5398 -0.2285 -0.0471
 1683Sol     OW 9805   2.095   2.392   4.218  0.1877 -0.1042  0.3494
 1683Sol     HW 9806   2.188   2.373   4.210  0.6028  1.2532  1.8493
 1683Sol     HW 9807   2.064   2.332   4.286 -0.0006 -0.3538  0.0510
 1683Sol     MW 9808   2.100   2.385   4.223 -0.7664  0.3657 -0.4918
 1684Sol     OW 9809   3.160   1.077   5.196  0.3907 -0.6754  0.7192
 1684Sol     HW 9810   3.179   1.087   5.103 -0.3389  0.4065  0.6805
 1684Sol     HW 9811   3.230   1.125   5.240  0.1702 -0.3336  0.6983
 1684Sol     MW 9812   3.168   1.082   5.192 -0.0513  0.1093  0.2469
 1685Sol     OW 9813   3.008   0.887   6.940 -0.0478  0.6292  0.1220
 1685Sol     HW 9814   3.075   0.818   6.933  0.4541  1.1118  0.1306
 1685Sol     HW 9815   2.956   0.861   7.016 -0.6838 -0.4433 -0.6546
 1685Sol     MW 9816   3.010   0.878   6.946  0.5793  0.4700 -0.1450
 1686Sol     OW 9817   2.840   0.370   7.047  0.2403 -0.6310  0.6287
 1686Sol     HW 9818   2.848   0.291   7.101  0.7391 -0.5550  0.6657
 1686Sol     HW 9819   2.928   0.408   7.046 -0.1810  0.3863  1.3011
 1686Sol     MW 9820   2.849   0.366   7.051 -0.2133  0.1099  0.1757
 1687Sol     OW 9821   2.338   1.409   4.098 -0.0928  0.3901  0.1709
 1687Sol     HW 9822   2.430   1.434   4.109  0.4646 -1.5011 -0.0398
 1687Sol     HW 9823   2.298   1.431   4.182  1.0841 -0.9750  1.1092
 1687Sol     MW 9824   2.343   1.414   4.107  0.2826  0.1896 -0.2159
 1688Sol     OW 9825   2.221   2.426   8.972  0.3916 -0.0842 -0.4529
 1688Sol     HW 9826   2.271   2.408   8.893  0.4006  2.3368 -1.0256
 1688Sol     HW 9827   2.174   2.344   8.990  1.3069 -1.0268 -2.2763
 1688Sol     MW 9828   2.221   2.417   8.966  0.3616 -0.2727 -0.5332
 1689Sol     OW 9829   0.165   2.139   3.282 -0.5098 -0.0526 -0.6313
 1689Sol     HW 9830   0.224   2.093   3.341 -0.7167 -0.3890 -0.6870
 1689Sol     HW 9831   0.173   2.094   3.198 -2.4932 -1.5173 -0.0829
 1689Sol     MW 9832   0.171   2.131   3.280  0.5933  0.5580  0.7796
 1690Sol     OW 9833   1.078   1.856   5.973 -0.0795  0.2030  0.9058
 1690Sol     HW 9834   1.152   1.916   5.964  1.2112 -1.0710  2.7320
 1690Sol     HW 9835   1.046   1.871   6.062 -2.0403  0.7167  0.1461
 1690Sol     MW 9836   1.082   1.863   5.980  0.2910 -0.1010  0.1412
 1691Sol     OW 9837   2.822   0.748   7.635  0.1623  0.2358 -0.5004
 1691Sol     HW 9838   2.830   0.841   7.652 -0.2879  0.3400 -0.8273
 1691Sol     HW 9839   2.756   0.742   7.565  0.3760 -0.3050 -0.6618
 1691Sol     MW 9840   2.817   0.756   7.630 -0.6270  0.3257  0.2824
 1692Sol     OW 9841   2.870   2.261   7.395 -0.0953 -0.2692 -0.1884
 1692Sol     HW 9842   2.947   2.205   7.405  0.3788  0.1650 -1.3147
 1692Sol     HW 9843   2.886   2.310   7.314 -1.0992  0.5505  0.0950
 1692Sol     MW 9844   2.878   2.260   7.389 -0.1960  0.1558 -0.1196
 1693Sol     OW 9845   3.288   3.047   7.647 -0.0647  0.1085 -0.2070
 1693Sol     HW 9846   3.355   3.099   7.691 -0.3454 -1.8064  2.5315
 1693Sol     HW 9847   3.216   3.042   7.710 -0.9897 -1.6174 -1.3743
 1693Sol     MW 9848   3.287   3.051   7.656 -0.0760 -0.0847 -0.3221
 1694Sol     OW 9849   0.772   2.569   3.785 -0.1936  0.2231  0.4460
 1694Sol     HW 9850   0.834   2.501   3.759 -0.0188  1.1032 -1.5827
 1694Sol     HW 9851   0.800   2.594   3.873  1.3420 -0.5221  0.1966
 1694Sol     MW 9852   0.780   2.565   3.791  0.1496 -0.1804 -0.1104
 1695Sol     OW 9853   0.196   0.579   7.709 -0.0303  0.0268  0.0688
 1695Sol     HW 9854   0.284   0.606   7.735 -0.1807  0.8805 -0.2655
 1695Sol     HW 9855   0.179   0.499   7.758  0.1166  0.9992  1.7404
 1695Sol     MW 9856   0.203   0.574   7.716 -0.3339 -0.6105 -0.3460
 1696Sol     OW 9857   0.155   1.911   1.731  0.8971 -0.7631 -0.5114
 1696Sol     HW 9858   0.220   1.859   1.779  1.6741  1.1319  0.5527
 1696Sol     HW 9859   0.071   1.885   1.768  1.2246 -1.6500 -0.3733
 1696Sol     MW 9860   0.153   1.904   1.738  0.2027 -0.3667  0.6663
 1697Sol     OW 9861   0.678   2.466   7.112  0.4315  0.3553  0.3212
 1697Sol     HW 9862   0.595   2.514   7.108 -0.6200 -1.5688 -2.3393
 1697Sol     HW 9863   0.722   2.489   7.030  1.0146 -1.2520  0.1828
 1697Sol     MW 9864   0.674   2.473   7.104  0.0251 -0.5581  0.0734
 1698Sol     OW 9865   2.855   1.369   6.545 -0.2909  0.4997  0.2824
 1698Sol     HW 9866   2.855   1.405   6.456 -0.4706  1.6306  0.7463
 1698Sol     HW 9867   2.824   1.440   6.601 -1.4145 -0.6007  1.0982
 1698Sol     MW 9868   2.852   1.378   6.542  0.0764  0.0510  0.4889
 1699Sol     OW 9869   1.938   3.172   4.217 -0.4412  0.4921 -0.4830
 1699Sol     HW 9870   1.898   3.258   4.224 -0.8583  0.3322 -0.8775
 1699Sol     HW 9871   1.864   3.111   4.214 -0.1379  0.0267  0.9449
 1699Sol     MW 9872   1.928   3.174   4.217 -0.7306  0.7185  0.4430
 1700Sol     OW 9873   0.557   0.080   3.385 -0.4183 -0.1955 -0.3387
 1700Sol     HW 9874   0.498   0.094   3.459 -1.9894 -0.6579 -1.4964
 1700Sol     HW 9875   0.622   0.018   3.418 -0.9904 -0.2537  0.7093
 1700Sol     MW 9876   0.558   0.076   3.395  0.3117  0.2484 -0.0975
 1701Sol     OW 9877   0.830   2.562   6.860  0.7258  0.3523  0.1856
 1701Sol     HW 9878   0.823   2.626   6.789  3.1758 -1.1255 -1.4697
 1701Sol     HW 9879   0.920   2.569   6.891  0.2667 -0.4619  1.7701
 1701Sol     MW 9880   0.838   2.568   6.856 -0.5110 -0.4642  0.3744
 1702Sol     OW 9881   0.800   1.712   9.493  0.2196 -0.3362  0.0673
 1702Sol     HW 9882   0.727   1.696   9.433 -1.0256 -1.2387  1.7494
 1702Sol     HW 9883   0.846   1.787   9.456 -0.8015 -0.5721 -1.7338
 1702Sol     MW 9884   0.797   1.718   9.485 -0.0497 -0.0113 -0.0557
 1703Sol     OW 9885   1.074   2.602   2.247 -0.5001  0.8755 -0.4110
 1703Sol     HW 9886   1.036   2.654   2.318 -1.6332 -1.4016  0.7033
 1703Sol     HW 9887   0.999   2.572   2.196  0.1471  0.6172 -1.2185
 1703Sol     MW 9888   1.064   2.604   2.249 -0.1831 -0.3839  0.2269
 1704Sol     OW 9889   0.561   2.198   2.263  0.0544 -0.0445  0.5801
 1704Sol     HW 9890   0.588   2.206   2.172  1.2550 -1.1820  0.8108
 1704Sol     HW 9891   0.515   2.114   2.267 -1.3134  0.6852  0.7352
 1704Sol     MW 9892   0.559   2.191   2.256 -0.3125  0.3652  0.2978
 1705Sol     OW 9893   2.483   2.748   5.552  0.1817  0.3373 -0.1169
 1705Sol     HW 9894   2.547   2.817   5.541  1.7494 -1.0673 -0.0023
 1705Sol     HW 9895   2.487   2.698   5.470  0.2365 -0.5728  0.4315
 1705Sol     MW 9896   2.489   2.749   5.543 -0.8127  0.3075 -0.3457
 1706Sol     OW 9897   0.734   0.126   4.924  0.0713  0.6850  0.4796
 1706Sol     HW 9898   0.694   0.180   4.992  0.2211 -0.3108  1.3852
 1706Sol     HW 9899   0.662   0.101   4.867 -0.0308  1.6636  0.1812
 1706Sol     MW 9900   0.724   0.129   4.925  0.4083 -0.4079 -0.6566
 1707Sol     OW 9901   1.671   0.031   3.710 -0.2981 -0.0544 -0.2948
 1707Sol     HW 9902   1.668   0.120   3.674  0.2848 -0.6470 -1.8143
 1707Sol     HW 9903   1.639   0.041   3.800 -0.9201  1.5744 -0.6830
 1707Sol     MW 9904   1.668   0.040   3.715  0.2520  0.0662 -0.1753
 1708Sol     OW 9905   1.652   3.403   6.592 -0.2090 -0.2450 -0.5153
 1708Sol     HW 9906   1.744   3.427   6.599 -0.5797  0.6419  1.4187
 1708Sol     HW 9907   1.606   3.486   6.578 -0.6636 -0.7491 -2.1133
 1708Sol     MW 9908   1.656   3.412   6.591  0.4489 -0.1561  0.2427
 1709Sol     OW 9909   2.233   0.657   6.812  0.6472  0.4042 -0.0544
 1709Sol     HW 9910   2.165   0.698   6.865  0.0646  1.2671 -1.4354
 1709Sol     HW 9911   2.184   0.605   6.748  1.3371 -0.4359  0.0940
 1709Sol     MW 9912   2.222   0.656   6.811  0.4875 -0.2369 -0.4517
 1710Sol     OW 9913   0.785   3.009   4.864  0.0769 -0.0981  0.8091
 1710Sol     HW 9914   0.852   2.942   4.878  1.9388  1.3836 -0.6959
 1710Sol     HW 9915   0.801   3.075   4.931  2.0359  1.6504 -1.2634
 1710Sol     MW 9916   0.792   3.009   4.871  0.1136  0.2419  0.1757
 1711Sol     OW 9917   2.033   0.669   5.827  0.0096 -0.3611 -0.2405
 1711Sol     HW 9918   1.976   0.745   5.820  0.7672  0.4049  1.5850
 1711Sol     HW 9919   2.020   0.638   5.917 -0.1883 -2.3081 -0.9211
 1711Sol     MW 9920   2.027   0.673   5.834 -0.2748 -0.2341 -0.6580
 1712Sol     OW 9921   1.046   0.395   4.324  0.6645 -0.3065 -0.1172
 1712Sol     HW 9922   1.006   0.427   4.405  0.0265 -1.9095  0.2350
 1712Sol     HW 9923   1.063   0.473   4.273 -1.2004  0.5775  0.5465
 1712Sol     MW 9924   1.044   0.405   4.327  0.1369 -0.1699  0.2338
 1713Sol     OW 9925   0.538   1.478   4.173 -0.1129 -0.0160 -0.2347
 1713Sol     HW 9926   0.540   1.552   4.233 -1.3204 -0.3748  0.2653
 1713Sol     HW 9927   0.542   1.517   4.086 -0.6305  0.6375  0.0337
 1713Sol     MW 9928   0.538   1.488   4.170 -0.3187  0.3696  0.2646
 1714Sol     OW 9929   1.766   0.423   7.005  1.0808  0.0541  0.3052
 1714Sol     HW 9930   1.778   0.507   6.961 -0.6800  0.9544  1.4745
 1714Sol     HW 9931   1.848   0.408   7.053  0.9225  1.7637  1.1446
 1714Sol     MW 9932   1.775   0.429   7.006 -0.5565 -0.0090  0.2947
 1715Sol     OW 9933   1.038   3.063   1.515  0.1271  0.0518 -0.4878
 1715Sol     HW 9934   1.120   3.113   1.523 -0.0386  0.4225 -1.0696
 1715Sol     HW 9935   0.992   3.080   1.597 -0.4749  1.8673 -1.1763
 1715Sol     MW 9936   1.041   3.069   1.523 -0.5514 -0.2610 -0.7695
 1716Sol     OW 9937   2.105   0.234   5.142  0.2502  0.1395  0.0446
 1716Sol     HW 9938   2.146   0.189   5.068  1.8460 -0.6790  1.3974
 1716Sol     HW 9939   2.021   0.265   5.108 -0.1657 -2.4676 -1.3719
 1716Sol     MW 9940   2.102   0.233   5.132  0.0936 -0.5773 -0.1541
 1717Sol     OW 9941   0.878   2.324   7.585  0.1702  0.3456 -0.0684
 1717Sol     HW 9942   0.865   2.324   7.490 -0.6227  2.7176  0.0209
 1717Sol     HW 9943   0.797   2.360   7.620  1.7378  2.5933  1.3201
 1717Sol     MW 9944   0.870   2.327   7.579  1.0410  0.2225 -0.3907
 1718Sol     OW 9945   0.186   1.508   5.749  0.2540 -0.0269 -0.2675
 1718Sol     HW 9946   0.193   1.470   5.661  0.1532  0.8748 -0.6778
 1718Sol     HW 9947   0.093   1.508   5.768  0.3767 -1.3803  0.3698
 1718Sol     MW 9948   0.179   1.505   5.743  0.5496  0.4525  0.1952
 1719Sol     OW 9949   1.392   0.159   7.624 -0.2131 -0.1600  0.3922
 1719Sol     HW 9950   1.394   0.064   7.636 -1.1843 -0.2973 -0.4571
 1719Sol     HW 9951   1.332   0.173   7.550 -0.4204  1.1369  0.7855
 1719Sol     MW 9952   1.387   0.152   7.618 -0.2141 -0.1074  0.5537
 1720Sol     OW 9953   0.430   0.137   4.447  0.2098  0.5519  0.0288
 1720Sol     HW 9954   0.442   0.144   4.352  2.1356  3.3869  0.4124
 1720Sol     HW 9955   0.519   0.123   4.481 -0.1899  1.5846  1.5509
 1720Sol     MW 9956   0.439   0.136   4.441 -0.7797 -0.4040  0.1624
 1721Sol     OW 9957   2.591   1.066   2.682  0.0985  0.3642  0.2956
 1721Sol     HW 9958   2.630   0.986   2.648 -3.6931 -1.3389 -0.2585
 1721Sol     HW 9959   2.561   1.042   2.770  2.2686  2.3110  1.6317
 1721Sol     MW 9960   2.592   1.057   2.687 -0.3433  0.2582  0.1643
 1722Sol     OW 9961   0.815   2.920   1.999  0.4757  0.0193  0.1249
 1722Sol     HW 9962   0.756   2.853   2.033  0.4876 -1.9283 -3.3756
 1722Sol     HW 9963   0.761   2.998   1.991 -1.6272 -1.6404 -2.6838
 1722Sol     MW 9964   0.805   2.921   2.001  0.2867  0.3573  0.6084
 1723Sol     OW 9965   0.591   0.818   3.350 -0.0450  0.1534  0.5977
 1723Sol     HW 9966   0.683   0.792   3.349  0.3001  1.3625  0.1213
 1723Sol     HW 9967   0.571   0.838   3.259 -1.1727 -1.4171  0.4833
 1723Sol     MW 9968   0.597   0.818   3.342  0.1830 -0.2283 -0.0920
 1724Sol     OW 9969   1.697   0.538   2.446 -0.4379 -0.7322  0.5310
 1724Sol     HW 9970   1.647   0.465   2.408 -0.7071 -0.3339  0.1270
 1724Sol     HW 9971   1.647   0.562   2.525 -1.5610  0.4766 -0.5349
 1724Sol     MW 9972   1.688   0.533   2.450  0.1693 -0.1733  0.2073
 1725Sol     OW 9973   0.951   0.256   4.830 -0.2257  0.4532  0.5434
 1725Sol     HW 9974   1.007   0.186   4.862 -0.8730 -0.9628 -1.3167
 1725Sol     HW 9975   0.862   0.227   4.849 -0.4978  0.7921 -0.1906
 1725Sol     MW 9976   0.948   0.247   4.834 -0.0142  0.1354  0.2845
 1726Sol     OW 9977   0.435   3.336   9.313 -0.0772  0.6557 -0.2925
 1726Sol     HW 9978   0.484   3.413   9.286  1.2830  0.2439  0.8844
 1726Sol     HW 9979   0.503   3.272   9.338 -1.1926  0.0902  1.4248
 1726Sol     MW 9980   0.446   3.337   9.313 -0.6559  0.4123 -0.1480
 1727Sol     OW 9981   1.809   0.131   5.478  0.2652  0.0196  0.2003
 1727Sol     HW 9982   1.812   0.116   5.573 -3.0727  0.8769  0.4852
 1727Sol     HW 9983   1.791   0.045   5.440  0.3249 -0.0929  0.4242
 1727Sol     MW 9984   1.808   0.122   5.483  0.3088  0.2100 -0.2744
 1728Sol     OW 9985   3.219   3.025   2.773 -0.4431 -0.2712  0.2632
 1728Sol     HW 9986   3.232   3.102   2.717  1.8029  0.7481  2.1374
 1728Sol     HW 9987   3.238   2.951   2.715 -0.3727  0.6513 -0.9279
 1728Sol     MW 9988   3.222   3.026   2.762  0.0537 -0.1651 -0.2803
 1729Sol     OW 9989   0.393   2.575   9.484 -0.4728  0.5158  0.3035
 1729Sol     HW 9990   0.406   2.662   9.446 -0.5275 -0.1519 -1.2872
 1729Sol     HW 9991   0.378   2.518   9.409 -1.5020 -0.6925  1.4058
 1729Sol     MW 9992   0.393   2.578   9.474 -0.0091 -0.3045 -0.2856
 1730Sol     OW 9993   2.428   2.413   3.458  0.5048 -0.1114 -0.3468
 1730Sol     HW 9994   2.383   2.331   3.476 -0.4198  0.5318  0.3029
 1730Sol     HW 9995   2.493   2.390   3.392  1.4677 -1.7249  1.1252
 1730Sol     MW 9996   2.430   2.404   3.453  0.1059  0.0911  0.4609
 1731Sol     OW 9997   3.253   0.448   8.132 -0.2361 -0.0679 -0.3733
 1731Sol     HW 9998   3.346   0.423   8.134 -0.2607 -0.1215  0.4154
 1731Sol     HW 9999   3.233   0.470   8.223 -1.4314 -1.6825 -0.2151
 1731Sol     MW10000   3.260   0.447   8.141  0.1314 -0.3423 -0.6869
 1732Sol     OW10001   2.452   0.284   5.637  0.4611 -0.0881  0.1819
 1732Sol     HW10002   2.524   0.271   5.575  0.3722  0.4984 -0.0520
 1732Sol     HW10003   2.465   0.217   5.704  0.4897 -0.8011 -0.5346
 1732Sol     MW10004   2.460   0.277   5.637  0.1113  0.4625 -0.0595
 1733Sol     OW10005   0.654   2.745   2.123  0.6445 -0.0134  0.1339
 1733Sol     HW10006   0.570   2.701   2.116  0.3854  0.7259 -1.4131
 1733Sol     HW10007   0.662   2.767   2.216 -0.4927 -0.7988  0.4230
 1733Sol     MW10008   0.647   2.743   2.131 -0.1651  0.4787  0.5120
 1734Sol     OW10009   2.444   3.362   1.738 -0.0269 -0.1730 -0.2149
 1734Sol     HW10010   2.354   3.393   1.747  0.1960  0.0439  1.3278
 1734Sol     HW10011   2.490   3.436   1.697 -0.6768 -0.5258 -1.6122
 1734Sol     MW10012   2.440   3.372   1.735  0.2119  0.8472 -0.1185
 1735Sol     OW10013   2.844   0.336   4.204  0.0576  0.1841 -0.0792
 1735Sol     HW10014   2.823   0.300   4.118  0.3422 -0.0916 -0.0320
 1735Sol     HW10015   2.857   0.260   4.260  0.0794  0.3614  0.1589
 1735Sol     MW10016   2.844   0.326   4.201 -0.1049  0.0261  0.0295
 1736Sol     OW10017   2.056   2.628   7.712 -0.0189 -0.0993 -0.0021
 1736Sol     HW10018   1.981   2.575   7.739  0.0833 -0.2099  0.0635
 1736Sol     HW10019   2.078   2.593   7.625  0.2374 -0.3659  0.1693
 1736Sol     MW10020   2.051   2.620   7.706 -0.2445 -0.5946 -0.2089
 1737Sol     OW10021   2.587   2.439   4.143  0.1498 -0.3500 -0.2033
 1737Sol     HW10022   2.525   2.482   4.202  0.5321 -0.1641  0.0679
 1737Sol     HW10023   2.641   2.385   4.201  1.1651  0.5810 -0.2471
 1737Sol     MW10024   2.587   2.438   4.153  0.4759 -0.3086  0.2016
 1738Sol     OW10025   1.016   0.637   5.619  0.2015 -0.3537 -0.1654
 1738Sol     HW10026   1.088   0.581   5.647  1.3189  0.2248 -1.8389
 1738Sol     HW10027   0.983   0.676   5.701  3.4302  1.3455  0.4217
 1738Sol     MW10028   1.019   0.636   5.629 -0.6460 -0.3720 -0.8215
 1739Sol     OW10029   0.909   1.712   8.088 -0.1979 -0.3547 -0.1982
 1739Sol     HW10030   0.968   1.665   8.146 -2.0406 -0.8316  1.3413
 1739Sol     HW10031   0.883   1.790   8.137 -0.4921  0.0835 -1.0364
 1739Sol     MW10032   0.912   1.715   8.097  0.2323  0.1154 -0.0519
 1740Sol     OW10033   0.351   1.319   3.331 -0.3031 -0.8671 -0.1843
 1740Sol     HW10034   0.407   1.246   3.358  0.2436 -0.5614 -0.5005
 1740Sol     HW10035   0.281   1.277   3.280  0.8609 -1.0127 -1.6925
 1740Sol     MW10036   0.350   1.308   3.329 -0.1570 -0.1356  0.0513
 1741Sol     OW10037   1.598   0.111   9.153 -0.0270 -0.2626 -0.3346
 1741Sol     HW10038   1.526   0.152   9.106  0.5311  0.7805 -0.2824
 1741Sol     HW10039   1.589   0.018   9.134 -1.8871 -0.2553  0.3416
 1741Sol     MW10040   1.590   0.106   9.147  0.0258 -0.2534 -0.0163
 1742Sol     OW10041   2.505   0.841   5.099 -0.7823  0.0064  0.6342
 1742Sol     HW10042   2.449   0.766   5.116 -1.3191  0.5546  1.2767
 1742Sol     HW10043   2.594   0.807   5.107 -1.0147 -0.8885 -0.5047
 1742Sol     MW10044   2.508   0.831   5.101 -0.0635 -0.6503 -0.3933
 1743Sol     OW10045   3.164   2.099   4.537 -0.3743  0.0851  0.5032
 1743Sol     HW10046   3.082   2.083   4.583 -2.1329  3.3558 -1.2541
 1743Sol     HW10047   3.143   2.084   4.444  0.8096  1.5190 -0.0236
 1743Sol     MW10048   3.155   2.097   4.532 -0.3059 -0.3182  0.6296
 1744Sol     OW10049   1.958   0.856   4.361 -0.1730 -0.2340  0.1718
 1744Sol     HW10050   2.044   0.891   4.336  0.1596 -1.0550  0.1621
 1744Sol     HW10051   1.906   0.863   4.281 -0.2905  0.7707  0.3210
 1744Sol     MW10052   1.961   0.860   4.351 -0.4090 -0.5663  0.0890
 1745Sol     OW10053   0.547   0.587   5.731  0.1865  0.0423 -0.1339
 1745Sol     HW10054   0.543   0.660   5.792  2.9225  0.9426 -0.9799
 1745Sol     HW10055   0.546   0.509   5.787  2.0511  0.8321  1.0259
 1745Sol     MW10056   0.546   0.586   5.741  0.4275 -0.0860 -0.4153
 1746Sol     OW10057   1.335   2.283   8.797 -0.0991  0.0984 -0.3693
 1746Sol     HW10058   1.412   2.299   8.851 -1.0649 -0.9774  1.3784
 1746Sol     HW10059   1.356   2.322   8.713  2.3733 -0.2186  0.0679
 1746Sol     MW10060   1.344   2.288   8.794  0.7623 -0.6434 -0.3942
 1747Sol     OW10061   0.800   0.455   2.125 -0.0636 -0.0303  0.0417
 1747Sol     HW10062   0.713   0.454   2.085 -0.2464 -0.5155  0.4477
 1747Sol     HW10063   0.846   0.381   2.087 -0.5977 -1.1438  1.4936
 1747Sol     MW10064   0.796   0.448   2.118 -0.1769  0.2072 -0.2420
 1748Sol     OW10065   1.476   0.903   6.139 -0.0325 -0.1714  0.1945
 1748Sol     HW10066   1.538   0.848   6.090 -0.0392 -0.1706  0.1851
 1748Sol     HW10067   1.475   0.865   6.227 -1.0255 -0.9968 -0.1689
 1748Sol     MW10068   1.482   0.894   6.142 -0.0487 -0.1546 -0.2453
 1749Sol     OW10069   2.940   2.569   6.628 -0.1193 -0.3484 -0.1050
 1749Sol     HW10070   2.869   2.586   6.690 -0.3030 -1.7294  0.0894
 1749Sol     HW10071   2.918   2.484   6.589  0.6939 -0.1255 -1.0789
 1749Sol     MW10072   2.932   2.563   6.630  0.1265  0.6794 -0.3123
 1750Sol     OW10073   1.971   2.495   1.604 -0.0013  0.2014 -0.2689
 1750Sol     HW10074   2.059   2.484   1.568  0.7664  3.9971  0.2139
 1750Sol     HW10075   1.974   2.449   1.688  1.5478  0.2671 -0.2632
 1750Sol     MW10076   1.979   2.490   1.609 -0.4559 -0.4219 -0.1609
 1751Sol     OW10077   3.220   1.260   8.160 -0.3484 -0.3451  0.0486
 1751Sol     HW10078   3.198   1.178   8.116  0.8787  0.7065 -2.6477
 1751Sol     HW10079   3.144   1.316   8.146 -0.7071 -0.6252  0.8690
 1751Sol     MW10080   3.212   1.258   8.155  0.0436  0.6842 -0.6693
 1752Sol     OW10081   1.780   2.774   2.440 -0.0868 -0.2584  0.3867
 1752Sol     HW10082   1.847   2.735   2.383 -0.2750  0.7399 -0.5337
 1752Sol     HW10083   1.829   2.815   2.511  0.2356 -0.0420  0.0367
 1752Sol     MW10084   1.790   2.774   2.441  0.0818 -0.3518  0.5175
 1753Sol     OW10085   0.341   3.448   4.159 -0.5112 -0.1143 -0.5074
 1753Sol     HW10086   0.400   3.523   4.164  1.2045 -1.4033 -0.5907
 1753Sol     HW10087   0.278   3.470   4.091  0.5279  0.8602 -1.1700
 1753Sol     MW10088   0.341   3.456   4.154  0.4397 -0.0549  0.1546
 1754Sol     OW10089   2.065   1.105   5.518 -0.0406  0.3689 -1.4193
 1754Sol     HW10090   2.004   1.173   5.490 -0.0094  0.1066 -2.1316
 1754Sol     HW10091   2.115   1.145   5.589 -1.8361  0.1835 -0.0212
 1754Sol     MW10092   2.064   1.115   5.522  0.2697 -0.3553 -0.0394
 1755Sol     OW10093   0.503   1.997   9.487  0.3131  0.1719  0.1622
 1755Sol     HW10094   0.486   1.980   9.579 -0.7562  1.4731  0.2199
 1755Sol     HW10095   0.432   2.056   9.460 -0.9154 -2.2404 -2.1385
 1755Sol     MW10096   0.495   2.001   9.493  0.0113  0.0126  0.9766
 1756Sol     OW10097   2.648   2.094   8.577  0.7153  0.2134 -0.4360
 1756Sol     HW10098   2.586   2.135   8.517  1.2750  1.4596 -0.1665
 1756Sol     HW10099   2.622   2.002   8.578 -2.0049  0.9361  0.7189
 1756Sol     MW10100   2.640   2.089   8.572  0.1523 -0.0175 -0.4453
 1757Sol     OW10101   1.541   2.816   6.763 -0.1838  0.1108 -0.2682
 1757Sol     HW10102   1.562   2.862   6.682 -1.1802  0.5452 -0.2917
 1757Sol     HW10103   1.620   2.825   6.817  0.5595 -0.3745 -1.2686
 1757Sol     MW10104   1.550   2.821   6.761  0.0435 -0.2248 -0.5370
 1758Sol     OW10105   1.813   1.013   1.971  0.6165  0.4285  0.5136
 1758Sol     HW10106   1.865   0.983   1.895 -0.0812  1.2829 -0.3125
 1758Sol     HW10107   1.878   1.052   2.029  1.0369  0.6529 -0.0899
 1758Sol     MW10108   1.824   1.014   1.969 -0.0683  0.3239  0.3343
 1759Sol     OW10109   1.671   1.514   4.302  0.0976  0.0399  0.0612
 1759Sol     HW10110   1.653   1.462   4.224 -0.3064 -1.7698  1.3261
 1759Sol     HW10111   1.588   1.558   4.321  0.7730  2.1348 -1.7030
 1759Sol     MW10112   1.662   1.513   4.297  0.0777  0.3785  0.2147
 1760Sol     OW10113   1.283   2.362   3.061  0.2595 -0.1489 -0.2536
 1760Sol     HW10114   1.188   2.359   3.075  0.2110  0.7864 -0.3154
 1760Sol     HW10115   1.294   2.342   2.968  0.1232 -0.2588 -0.2469
 1760Sol     MW10116   1.275   2.360   3.054 -0.5685 -0.1204 -0.6027
 1761Sol     OW10117   1.827   3.397   2.622 -0.3754 -0.3707  0.0698
 1761Sol     HW10118   1.791   3.482   2.646 -1.4250 -0.4947 -0.9939
 1761Sol     HW10119   1.922   3.410   2.623 -0.4815  0.3663  1.4562
 1761Sol     MW10120   1.832   3.406   2.624 -0.3242  0.3489 -0.1274
 1762Sol     OW10121   1.287   0.893   5.013 -0.2847 -0.2878 -0.7872
 1762Sol     HW10122   1.258   0.945   5.087 -2.0005 -2.1255 -0.1250
 1762Sol     HW10123   1.207   0.850   4.981  0.6298 -0.4601 -2.9576
 1762Sol     MW10124   1.277   0.894   5.017  0.1495 -0.2391 -0.3217
 1763Sol     OW10125   0.837   0.423   7.629 -0.3663 -0.3654 -0.2765
 1763Sol     HW10126   0.803   0.512   7.628 -2.3470 -1.0936 -0.1496
 1763Sol     HW10127   0.761   0.368   7.651  1.1247 -1.9509  1.0775
 1763Sol     MW10128   0.827   0.426   7.631 -0.0482 -0.3422  0.0554
 1764Sol     OW10129   2.267   0.680   8.969 -0.6312 -0.4735 -0.4640
 1764Sol     HW10130   2.215   0.729   9.032 -1.2329 -0.9175 -0.6155
 1764Sol     HW10131   2.351   0.727   8.966 -1.1634  0.4946 -0.5383
 1764Sol     MW10132   2.270   0.689   8.974  0.2387 -0.1269 -0.2498
 1765Sol     OW10133   0.216   2.258   6.216  0.5230 -0.0885 -0.0556
 1765Sol     HW10134   0.275   2.188   6.244  1.0818  0.4047  0.0270
 1765Sol     HW10135   0.221   2.256   6.121  2.5244  1.4665 -0.0297
 1765Sol     MW10136   0.222   2.252   6.210 -0.3704  0.3828 -0.2530
 1766Sol     OW10137   1.813   1.299   8.772  0.1245  0.4072  0.0205
 1766Sol     HW10138   1.862   1.335   8.845  0.3586  2.2326 -0.9921
 1766Sol     HW10139   1.747   1.366   8.752 -1.7258 -1.2926  0.3223
 1766Sol     MW10140   1.811   1.308   8.776 -0.1391 -0.3082  0.0806
 1767Sol     OW10141   0.121   0.164   2.103 -0.0132 -0.6490 -0.4520
 1767Sol     HW10142   0.118   0.201   2.191 -2.6230  0.6797 -1.0595
 1767Sol     HW10143   0.076   0.079   2.111 -0.8094 -0.2453 -0.6289
 1767Sol     MW10144   0.116   0.159   2.112 -0.3622 -0.4370  0.5064
 1768Sol     OW10145   1.967   2.290   5.141 -0.5845 -0.2780  0.1515
 1768Sol     HW10146   1.914   2.214   5.116 -1.9431  0.2365  1.3776
 1768Sol     HW10147   2.057   2.260   5.133 -1.1071 -2.2686  1.3902
 1768Sol     MW10148   1.970   2.280   5.138  0.2121  0.3940  0.0471
 1769Sol     OW10149   1.487   2.079   9.418  0.3864 -0.0941  0.1096
 1769Sol     HW10150   1.445   2.136   9.482  1.4120  1.8438 -0.9308
 1769Sol     HW10151   1.571   2.056   9.458  1.9734  2.8484 -1.3931
 1769Sol     MW10152   1.491   2.082   9.428  0.4797  0.4476  0.3717
 1770Sol     OW10153   1.446   1.065   2.776  0.0335 -0.5761  0.3667
 1770Sol     HW10154   1.463   1.006   2.703  1.1499 -0.4061  0.4869
 1770Sol     HW10155   1.529   1.109   2.792 -1.0336  1.8129 -0.4025
 1770Sol     MW10156   1.455   1.064   2.771  0.6577  0.0041  0.7269
 1771Sol     OW10157   2.647   0.035   6.329  0.0474  0.0195 -0.1321
 1771Sol     HW10158   2.555   0.027   6.302 -0.3559  0.1403  1.1720
 1771Sol     HW10159   2.677   0.115   6.286 -0.7811  0.5819  0.3160
 1771Sol     MW10160   2.641   0.041   6.322  0.3591  0.9718  0.3597
 1772Sol     OW10161   1.825   2.865   6.960 -0.2045  0.0119 -0.2743
 1772Sol     HW10162   1.912   2.824   6.968  0.1226  0.6765 -0.3922
 1772Sol     HW10163   1.815   2.915   7.042  1.3649  3.4246 -2.0591
 1772Sol     MW10164   1.832   2.866   6.968  0.2564  0.2924  0.4915
 1773Sol     OW10165   2.554   0.362   6.050  0.3796  0.2830 -0.2369
 1773Sol     HW10166   2.495   0.433   6.076  0.4097 -0.0253  0.6924
 1773Sol     HW10167   2.615   0.403   5.989 -0.3419  0.7778 -0.6348
 1773Sol     MW10168   2.554   0.372   6.047 -0.0611  0.8967 -0.0709
 1774Sol     OW10169   2.660   1.444   7.894  0.0920  0.1991 -0.2923
 1774Sol     HW10170   2.567   1.467   7.900 -0.3142 -1.0517 -1.5007
 1774Sol     HW10171   2.701   1.519   7.851 -0.3322  0.8033  0.3541
 1774Sol     MW10172   2.655   1.453   7.890 -0.2205  0.1733 -0.1357
 1775Sol     OW10173   1.773   0.608   3.238  0.6640  0.0358 -0.0428
 1775Sol     HW10174   1.727   0.541   3.188 -0.3706 -0.1440  1.1280
 1775Sol     HW10175   1.741   0.597   3.328 -0.7159  3.0725 -0.1016
 1775Sol     MW10176   1.766   0.601   3.242 -0.1487  0.9573  0.3049
 1776Sol     OW10177   1.662   0.825   7.748 -0.2094  0.0278 -0.0692
 1776Sol     HW10178   1.576   0.848   7.711  0.0092 -3.3092 -2.8822
 1776Sol     HW10179   1.646   0.748   7.802  0.7314  0.5658  1.0129
 1776Sol     MW10180   1.653   0.820   7.749 -0.8684  0.3235 -0.1610
 1777Sol     OW10181   0.573   0.206   1.945  0.2088 -0.6413 -0.2455
 1777Sol     HW10182   0.585   0.163   2.030 -0.7113 -1.0187 -0.2994
 1777Sol     HW10183   0.525   0.286   1.966  1.3417  0.0484 -0.2275
 1777Sol     MW10184   0.570   0.210   1.955  0.1458  0.1146  0.4872
 1778Sol     OW10185   1.618   2.645   1.878 -0.1947 -0.0231  0.1415
 1778Sol     HW10186   1.527   2.634   1.905 -0.2563  1.4043  0.5284
 1778Sol     HW10187   1.627   2.588   1.802 -1.1055 -1.0268  0.7612
 1778Sol     MW10188   1.611   2.639   1.874  0.6016  0.3032  0.2822
 1779Sol     OW10189   2.097   1.412   8.926  0.7001  0.6390  0.1491
 1779Sol     HW10190   2.116   1.441   9.015  1.3515  0.5887  0.0236
 1779Sol     HW10191   2.094   1.316   8.932 -1.1678  0.6968  0.5026
 1779Sol     MW10192   2.098   1.406   8.935 -0.3625  0.2457 -0.2965
 1780Sol     OW10193   0.180   3.445   2.689  0.3451  0.3622  0.4979
 1780Sol     HW10194   0.268   3.420   2.716  1.0998  2.9770  0.5814
 1780Sol     HW10195   0.130   3.449   2.771  0.7191  1.0451  0.6930
 1780Sol     MW10196   0.183   3.443   2.699  0.5768  0.3052  0.1831
 1781Sol     OW10197   2.167   2.309   2.453  0.5767 -0.1258  0.1260
 1781Sol     HW10198   2.170   2.405   2.454 -2.3211  0.0340 -0.1494
 1781Sol     HW10199   2.258   2.282   2.457  1.4100  2.6367  1.0989
 1781Sol     MW10200   2.175   2.315   2.453 -0.0849 -0.6983 -0.4407
 1782Sol     OW10201   1.741   0.523   3.509  0.2595 -0.1686  0.3172
 1782Sol     HW10202   1.836   0.525   3.501  0.2341  3.6716  0.0208
 1782Sol     HW10203   1.722   0.584   3.581 -1.9880 -1.0526  0.5272
 1782Sol     MW10204   1.748   0.528   3.515  0.0405  0.0585 -0.0487
 1783Sol     OW10205   0.038   0.027   3.500 -0.5971  0.2178 -0.0251
 1783Sol     HW10206  -0.010  -0.049   3.534  1.6748 -2.1551 -1.8639
 1783Sol     HW10207   0.059   0.079   3.577 -0.1561 -2.2839  1.6139
 1783Sol     MW10208   0.036   0.025   3.510  0.0826 -0.7407 -0.7892
 1784Sol     OW10209   2.512   0.780   9.037  0.5544  0.3969 -0.6667
 1784Sol     HW10210   2.587   0.782   8.978  1.9761 -1.0724  1.0609
 1784Sol     HW10211   2.526   0.854   9.096  2.1179 -1.4902  1.3912
 1784Sol     MW10212   2.520   0.787   9.037  0.2798  0.2416 -0.7874
 1785Sol     OW10213   1.418   1.998   7.446 -0.2325 -0.2014 -0.4455
 1785Sol     HW10214   1.388   1.973   7.534 -0.6079  1.1287 -0.1886
 1785Sol     HW10215   1.341   2.035   7.404 -0.4162 -2.1274 -1.8633
 1785Sol     MW10216   1.409   1.999   7.450 -0.0271 -0.1335 -0.0970
 1786Sol     OW10217   2.755   2.948   2.008  0.4561 -0.2164 -0.2107
 1786Sol     HW10218   2.738   2.919   1.918 -0.6799 -0.2927  0.0189
 1786Sol     HW10219   2.668   2.968   2.043  0.8842 -0.2999  0.9054
 1786Sol     MW10220   2.746   2.947   2.003  0.2053 -0.0458 -0.1313
 1787Sol     OW10221   1.023   2.527   6.209 -0.1383  0.1713 -0.2802
 1787Sol     HW10222   1.099   2.524   6.267  0.8768 -0.7563 -1.6205
 1787Sol     HW10223   0.973   2.449   6.232  1.0088 -0.9885 -1.5987
 1787Sol     MW10224   1.025   2.519   6.216 -0.4699 -0.4003  0.5114
 1788Sol     OW10225   2.942   0.094   9.308 -0.1466  0.0476 -0.1172
 1788Sol     HW10226   2.978   0.096   9.397  1.9279 -0.1360 -0.9320
 1788Sol     HW10227   2.864   0.148   9.313 -1.3089 -1.7653  2.3538
 1788Sol     MW10228   2.938   0.099   9.317  0.0473  0.5468  0.0794
 1789Sol     OW10229   0.785   1.262   6.799 -0.2872  0.2608  0.2903
 1789Sol     HW10230   0.763   1.188   6.743  0.5651  0.9921 -1.0721
 1789Sol     HW10231   0.880   1.259   6.806 -0.3058  0.7997  0.8150
 1789Sol     MW10232   0.792   1.255   6.794 -0.1353 -0.0399 -1.0328
 1790Sol     OW10233   2.962   0.603   3.194  0.0238  0.0807  0.4162
 1790Sol     HW10234   3.002   0.657   3.261 -1.9384 -0.2641  1.9074
 1790Sol     HW10235   2.953   0.517   3.235  3.2707 -1.5242 -1.9706
 1790Sol     MW10236   2.965   0.600   3.203  0.2091  0.3491 -0.4024
 1791Sol     OW10237   0.215   1.080   9.052 -0.0303 -0.2321  0.3611
 1791Sol     HW10238   0.192   1.161   9.096  0.6337 -0.9757  2.1073
 1791Sol     HW10239   0.157   1.077   8.976  0.7484  2.4359 -0.3752
 1791Sol     MW10240   0.207   1.087   9.049 -0.4595 -0.0207  0.0452
 1792Sol     OW10241   1.471   2.070   2.278 -0.0410  0.2963  0.3934
 1792Sol     HW10242   1.420   2.105   2.351 -0.7831 -0.4900  0.2598
 1792Sol     HW10243   1.561   2.067   2.311 -0.3832 -0.1455  1.3135
 1792Sol     MW10244   1.475   2.073   2.288  0.0172  0.0044 -0.1525
 1793Sol     OW10245   2.886   1.765   5.390 -0.4735  0.1544  0.3092
 1793Sol     HW10246   2.946   1.761   5.464 -1.3604  0.7850  1.0756
 1793Sol     HW10247   2.909   1.847   5.345 -1.0565  0.6251  0.8636
 1793Sol     MW10248   2.894   1.772   5.392  0.4049 -0.3038  0.6131
 1794Sol     OW10249   1.134   2.038   4.028  0.8261  0.0738  0.0977
 1794Sol     HW10250   1.132   2.086   4.111 -1.9916  1.0838 -0.4952
 1794Sol     HW10251   1.066   2.080   3.974  1.4683 -1.6267 -2.1209
 1794Sol     MW10252   1.128   2.046   4.030 -0.5068  0.1436 -0.3861
 1795Sol     OW10253   0.196   1.115   9.698  0.2083 -0.3905  0.0749
 1795Sol     HW10254   0.222   1.062   9.622  0.5397 -0.0188 -0.0752
 1795Sol     HW10255   0.110   1.149   9.676 -0.3259 -1.4562  0.4817
 1795Sol     MW10256   0.191   1.113   9.689 -0.0449  0.2978 -0.1548
 1796Sol     OW10257   0.150   2.201   4.749 -0.4315  0.0232 -0.3028
 1796Sol     HW10258   0.185   2.153   4.823 -0.8555 -0.5069 -0.4422
 1796Sol     HW10259   0.214   2.189   4.679  0.7379  1.7953  0.4156
 1796Sol     MW10260   0.159   2.196   4.749 -0.2954 -0.6778 -0.1597
 1797Sol     OW10261   2.558   0.753   9.445  0.0954 -0.0580  0.0232
 1797Sol     HW10262   2.567   0.684   9.511 -0.5621 -0.3375 -0.1709
 1797Sol     HW10263   2.573   0.708   9.362  1.8377  0.4734  0.0303
 1797Sol     MW10264   2.560   0.742   9.443  1.0207  0.2045 -0.6678
 1798Sol     OW10265   3.266   3.231   1.792  0.2365 -0.4994 -0.7038
 1798Sol     HW10266   3.172   3.218   1.804  0.1937  1.2785  1.1787
 1798Sol     HW10267   3.272   3.309   1.737  0.5935  0.2454  0.3666
 1798Sol     MW10268   3.258   3.237   1.788  0.1486  0.4059 -0.0414
 1799Sol     OW10269   3.225   1.472   5.030  0.7999 -0.0585  0.1650
 1799Sol     HW10270   3.218   1.567   5.041  0.2199 -0.0144 -0.5463
 1799Sol     HW10271   3.306   1.448   5.076  1.7670  0.9935 -0.9761
 1799Sol     MW10272   3.232   1.478   5.035 -0.2992 -0.5118  0.5114
 1800Sol     OW10273   1.548   1.423   8.723  0.3511  0.8485 -0.4998
 1800Sol     HW10274   1.486   1.375   8.669  0.4258 -0.2041  0.3487
 1800Sol     HW10275   1.534   1.515   8.699  0.5345  0.3955 -2.4642
 1800Sol     MW10276   1.542   1.427   8.716 -0.0003 -0.3080 -0.1967
 1801Sol     OW10277   2.798   3.311   9.228  0.1308  0.2186  0.6705
 1801Sol     HW10278   2.837   3.393   9.260 -0.4895 -0.4538  3.1986
 1801Sol     HW10279   2.863   3.244   9.248 -0.2829 -0.2150  0.5736
 1801Sol     MW10280   2.807   3.313   9.232 -0.4794 -0.0070  0.2406
 1802Sol     OW10281   2.230   1.868   4.634  0.8239  0.1638 -0.5725
 1802Sol     HW10282   2.182   1.909   4.705  2.0883  1.8172 -0.6244
 1802Sol     HW10283   2.181   1.891   4.555  0.5432  0.0615 -0.4272
 1802Sol     MW10284   2.222   1.874   4.633  0.2920 -0.0029  0.3427
 1803Sol     OW10285   0.292   0.752   2.528 -0.5612 -0.6831  0.1489
 1803Sol     HW10286   0.363   0.765   2.591 -1.6419 -0.0479  1.2826
 1803Sol     HW10287   0.247   0.837   2.527 -0.4378 -0.6315 -1.6458
 1803Sol     MW10288   0.294   0.761   2.534 -0.3978 -0.2359 -0.0886
 1804Sol     OW10289   0.237   0.961   8.673  0.2585 -0.2802 -0.0090
 1804Sol     HW10290   0.259   1.048   8.640 -0.1593 -0.4060 -0.6358
 1804Sol     HW10291   0.320   0.922   8.697  0.4241  0.4135  0.5884
 1804Sol     MW10292   0.246   0.966   8.673 -0.2924 -0.8096 -0.0729
 1805Sol     OW10293   0.359   2.794   2.852  0.2173 -0.0523 -0.2450
 1805Sol     HW10294   0.340   2.868   2.910 -0.1900  0.7726 -1.4189
 1805Sol     HW10295   0.302   2.723   2.883 -1.0843  0.8433 -0.5485
 1805Sol     MW10296   0.352   2.794   2.860  0.3332 -0.0328 -0.2307
 1806Sol     OW10297   0.529   0.515   7.319 -0.3130  0.5312  0.1072
 1806Sol     HW10298   0.518   0.598   7.364  1.1668  1.6735 -1.5805
 1806Sol     HW10299   0.469   0.519   7.245 -1.1773 -0.4457  0.7442
 1806Sol     MW10300   0.523   0.522   7.317 -0.3640  0.7989  0.0116
 1807Sol     OW10301   3.147   1.653   5.798 -0.9145  0.3626 -0.0481
 1807Sol     HW10302   3.060   1.613   5.792 -0.1973 -1.0646 -1.2797
 1807Sol     HW10303   3.156   1.702   5.717 -1.5056  2.5028  1.1478
 1807Sol     MW10304   3.140   1.654   5.790 -0.1180  0.4808 -0.0498
 1808Sol     OW10305   0.729   0.936   2.687  0.6118  0.2882  0.6369
 1808Sol     HW10306   0.764   1.023   2.709  1.8061 -0.1071  0.3681
 1808Sol     HW10307   0.762   0.919   2.599 -2.3934  0.9574 -0.6437
 1808Sol     MW10308   0.735   0.943   2.681  0.0170  0.3094  0.1031
 1809Sol     OW10309   1.602   3.288   9.052  0.0336 -0.2860 -0.1752
 1809Sol     HW10310   1.520   3.243   9.032  0.7353 -1.3251 -0.7651
 1809Sol     HW10311   1.644   3.233   9.117  0.1347  0.4065  0.3528
 1809Sol     MW10312   1.598   3.279   9.056  0.8147  0.0583  0.1081
 1810Sol     OW10313   1.172   2.852   8.180  0.2750 -0.0018 -0.7257
 1810Sol     HW10314   1.185   2.887   8.268 -0.4798 -3.0178  0.6541
 1810Sol     HW10315   1.126   2.921   8.133 -3.4285 -0.0693  2.6074
 1810Sol     MW10316   1.169   2.861   8.183  0.1292  0.1031  0.0774
 1811Sol     OW10317   0.117   3.343   1.974  0.2962 -0.1577 -0.3743
 1811Sol     HW10318   0.143   3.423   1.929 -0.0959  0.4627  0.4815
 1811Sol     HW10319   0.067   3.293   1.909  0.5065  0.3136 -0.8941
 1811Sol     MW10320   0.115   3.345   1.964 -0.3287 -0.1784 -0.3338
 1812Sol     OW10321   1.637   0.981   7.150 -0.3260  0.1953  0.4776
 1812Sol     HW10322   1.607   0.903   7.198  0.4754  0.4983  1.4737
 1812Sol     HW10323   1.729   0.990   7.173  0.6279 -0.7973 -2.6563
 1812Sol     MW10324   1.642   0.974   7.156 -0.8970 -0.1703  0.4858
 1813Sol     OW10325   1.212   2.253   6.083 -0.2007  0.4334  0.1830
 1813Sol     HW10326   1.276   2.318   6.110  0.1567 -0.0767  0.5668
 1813Sol     HW10327   1.193   2.274   5.992  0.4345  0.6444  0.0990
 1813Sol     MW10328   1.216   2.261   6.078  0.2389 -0.3473 -1.1867
 1814Sol     OW10329   1.377   2.917   2.535  0.4456 -0.4328 -0.3984
 1814Sol     HW10330   1.284   2.925   2.517  0.3019  0.1808  0.5338
 1814Sol     HW10331   1.394   2.823   2.538 -0.5564 -0.5699  1.4135
 1814Sol     MW10332   1.371   2.909   2.534 -0.4968  0.4127  0.2750
 1815Sol     OW10333   0.124   2.556   6.512  0.3344 -0.2247  0.6987
 1815Sol     HW10334   0.053   2.616   6.534  0.9949  0.8608 -0.0930
 1815Sol     HW10335   0.189   2.569   6.581  1.4736  1.6385 -0.6948
 1815Sol     MW10336   0.123   2.562   6.520  0.0688  0.2185 -0.3142
 1816Sol     OW10337   0.173   0.270   2.627 -0.2914 -0.0529  0.2722
 1816Sol     HW10338   0.171   0.177   2.653 -0.9855 -0.2494 -0.4738
 1816Sol     HW10339   0.095   0.308   2.667  0.6130  0.4901  1.5663
 1816Sol     MW10340   0.166   0.265   2.633 -0.2138  0.3496  0.2049
 1817Sol     OW10341   1.188   2.103   6.306  0.8760 -0.4379  0.6760
 1817Sol     HW10342   1.272   2.068   6.334  1.5803 -0.3272 -1.1968
 1817Sol     HW10343   1.210   2.166   6.237 -0.5219  2.0143  2.3792
 1817Sol     MW10344   1.198   2.105   6.302 -0.4722 -0.6186  0.7427
 1818Sol     OW10345   2.836   0.269   2.751  0.2878  0.1388  0.2272
 1818Sol     HW10346   2.900   0.198   2.754  0.0516 -0.0841  0.1011
 1818Sol     HW10347   2.790   0.255   2.668  0.8540  0.9790 -0.2354
 1818Sol     MW10348   2.837   0.261   2.744  0.7127  0.4721 -0.5917
 1819Sol     OW10349   2.818   1.874   7.570  0.1007 -0.3821  0.3969
 1819Sol     HW10350   2.805   1.785   7.603 -0.8855 -0.8841 -1.2660
 1819Sol     HW10351   2.735   1.918   7.584 -0.5187 -0.7638 -1.7826
 1819Sol     MW10352   2.810   1.870   7.574 -0.0019  0.0508  0.1308
 1820Sol     OW10353   3.316   2.166   7.124  0.2192  0.6865  0.1500
 1820Sol     HW10354   3.225   2.140   7.109 -0.0916  0.9111  1.5821
 1820Sol     HW10355   3.362   2.084   7.140  0.0344  0.6644  0.5885
 1820Sol     MW10356   3.312   2.157   7.124 -0.3746 -0.1739 -0.0702
 1821Sol     OW10357   0.583   1.983   4.110  0.3773  0.1526 -0.1908
 1821Sol     HW10358   0.622   1.933   4.182  2.1680 -0.7674 -1.7396
 1821Sol     HW10359   0.523   1.922   4.068 -0.2483  0.5097  0.1805
 1821Sol     MW10360   0.581   1.973   4.113 -0.2875  0.0908  0.1792
 1822Sol     OW10361   1.335   3.393   8.233 -0.0374  0.1545 -0.7460
 1822Sol     HW10362   1.363   3.435   8.314 -0.3382 -2.3899  0.7233
 1822Sol     HW10363   1.244   3.420   8.222 -0.5279 -0.8335  0.7067
 1822Sol     MW10364   1.329   3.399   8.239  0.5440  0.3878 -0.0987
 1823Sol     OW10365   1.306   0.411   8.770  0.5459 -0.6213  0.2321
 1823Sol     HW10366   1.376   0.448   8.716 -0.9748  0.0292 -1.3021
 1823Sol     HW10367   1.259   0.487   8.804  0.5331 -1.0653  1.2279
 1823Sol     MW10368   1.308   0.421   8.768 -0.3692 -0.4799  0.0182
 1824Sol     OW10369   2.472   2.563   7.609  0.1332 -0.4456 -0.3127
 1824Sol     HW10370   2.517   2.580   7.692 -3.0778 -0.8153  1.5997
 1824Sol     HW10371   2.527   2.500   7.564  0.2540 -2.9213  3.1170
 1824Sol     MW10372   2.481   2.559   7.612 -0.5645  0.3864  0.0182
 1825Sol     OW10373   2.261   3.051   2.166 -0.6684  0.0165  0.3050
 1825Sol     HW10374   2.281   2.962   2.194  0.1038  0.5420  1.4638
 1825Sol     HW10375   2.201   3.085   2.232 -0.8134  0.4223 -0.0329
 1825Sol     MW10376   2.258   3.046   2.174  0.5593  0.2587  0.1785
 1826Sol     OW10377   0.090   2.422   4.075  0.3071  0.6974  0.1986
 1826Sol     HW10378   0.082   2.517   4.081  1.1018  0.7146  1.1136
 1826Sol     HW10379   0.177   2.408   4.038  0.1781  0.3292  0.0398
 1826Sol     MW10380   0.097   2.429   4.073 -0.3295  0.0255 -0.0672
 1827Sol     OW10381   2.580   0.221   1.958  0.3045  0.0149  0.1620
 1827Sol     HW10382   2.486   0.215   1.975  0.7670 -1.8595  2.2751
 1827Sol     HW10383   2.621   0.197   2.041  2.6551 -0.1019 -0.9976
 1827Sol     MW10384   2.575   0.219   1.967 -0.3676 -0.0452 -0.6623
 1828Sol     OW10385   3.218   0.746   1.738  0.4633 -0.2759  0.2634
 1828Sol     HW10386   3.232   0.798   1.658 -0.6345  3.5510  2.4493
 1828Sol     HW10387   3.306   0.735   1.774  0.6509  0.7071  0.1350
 1828Sol     MW10388   3.228   0.750   1.734  0.7302  0.0439 -0.2206
 1829Sol     OW10389   2.204   0.089   4.936  0.2388 -0.0670 -0.0048
 1829Sol     HW10390   2.144   0.041   4.879 -0.4471  1.3503 -0.5164
 1829Sol     HW10391   2.253   0.145   4.876  2.3465 -1.4605  0.3681
 1829Sol     MW10392   2.203   0.090   4.926 -0.6562  0.6048 -0.1826
 1830Sol     OW10393   0.417   1.881   5.367 -0.1316 -0.0165 -0.1638
 1830Sol     HW10394   0.506   1.869   5.402 -0.4223 -0.0202  0.5861
 1830Sol     HW10395   0.369   1.805   5.400 -0.6028  0.3795  0.0641
 1830Sol     MW10396   0.421   1.873   5.373  0.3913 -0.3710 -0.1748
 1831Sol     OW10397   0.770   1.384   5.887 -0.3278  0.0681  0.3184
 1831Sol     HW10398   0.726   1.455   5.934  0.8700 -0.4966  2.3554
 1831Sol     HW10399   0.836   1.427   5.833 -1.2772  0.6750 -0.3761
 1831Sol     MW10400   0.772   1.394   5.886 -0.4237 -0.6824 -0.1763
 1832Sol     OW10401   0.511   1.539   6.378  0.0349 -0.1171  0.1823
 1832Sol     HW10402   0.421   1.561   6.403  0.6433  0.8563  1.5633
 1832Sol     HW10403   0.564   1.609   6.415  1.2785 -0.1479 -1.4762
 1832Sol     MW10404   0.507   1.547   6.383 -0.4941 -0.3174 -0.0264
 1833Sol     OW10405   0.098   1.962   4.524  0.1454 -0.0070 -0.0321
 1833Sol     HW10406   0.162   2.033   4.529  0.2137 -0.1703  1.4111
 1833Sol     HW10407   0.013   2.004   4.537  0.2683 -0.3239  1.9148
 1833Sol     MW10408   0.096   1.972   4.525 -0.3025  0.1833 -0.3236
 1834Sol     OW10409   0.650   2.919   6.478 -0.5629 -0.3800  0.6384
 1834Sol     HW10410   0.646   2.963   6.393  0.8817  0.1629  0.8296
 1834Sol     HW10411   0.717   2.851   6.466 -1.7119 -1.5503  0.7905
 1834Sol     MW10412   0.656   2.917   6.469 -0.4883  0.6733 -0.1432
 1835Sol     OW10413   2.220   0.085   1.784 -0.1697  0.0057 -0.0328
 1835Sol     HW10414   2.158   0.015   1.800  0.7923 -0.9027 -0.1795
 1835Sol     HW10415   2.241   0.120   1.871  0.8014 -1.1784  0.2226
 1835Sol     MW10416   2.217   0.082   1.793 -0.1262  0.6010  0.0019
 1836Sol     OW10417   3.217   0.347   8.705 -0.2373  0.6898  0.2261
 1836Sol     HW10418   3.227   0.442   8.715 -1.7030  1.0121 -1.2108
 1836Sol     HW10419   3.150   0.323   8.769  1.4460  0.3100  1.8877
 1836Sol     MW10420   3.212   0.354   8.712  0.0886 -0.4605  0.6848
 1837Sol     OW10421   1.270   0.470   2.295 -0.2981  0.0926 -0.0625
 1837Sol     HW10422   1.222   0.441   2.217  1.3052  0.9134 -1.3810
 1837Sol     HW10423   1.317   0.392   2.325  0.0049  0.0668 -0.6052
 1837Sol     MW10424   1.270   0.460   2.291 -0.2222 -0.3993  0.3465
 1838Sol     OW10425   2.430   1.094   3.290  0.2199  0.0057  0.0620
 1838Sol     HW10426   2.494   1.030   3.258  0.2766  0.4148 -0.6635
 1838Sol     HW10427   2.469   1.179   3.271 -0.1969  0.2569  0.3234
 1838Sol     MW10428   2.439   1.096   3.285 -0.0410 -0.1736 -0.0959
 1839Sol     OW10429   1.106   0.414   5.761 -0.5196 -0.1458 -0.2071
 1839Sol     HW10430   1.012   0.397   5.774 -0.4779 -0.0423  0.2588
 1839Sol     HW10431   1.149   0.334   5.792 -0.3625  0.4991  1.2711
 1839Sol     MW10432   1.101   0.405   5.765 -0.2083 -0.2616 -0.1163
 1840Sol     OW10433   1.719   3.036   5.546 -0.3332  0.3477  0.0895
 1840Sol     HW10434   1.775   3.050   5.622  0.1879  2.8959 -0.7276
 1840Sol     HW10435   1.638   3.082   5.568  0.4772  2.6771 -1.6037
 1840Sol     MW10436   1.717   3.041   5.554 -0.0199 -0.5661  0.1289
 1841Sol     OW10437   2.300   3.230   7.159 -0.1079  0.2384  0.0766
 1841Sol     HW10438   2.314   3.236   7.253 -0.9090 -0.2837  0.2370
 1841Sol     HW10439   2.206   3.211   7.150  0.4427 -2.2113 -0.7187
 1841Sol     MW10440   2.293   3.229   7.167  0.1833 -0.6221  0.0573
 1842Sol     OW10441   1.652   0.363   9.723 -0.3290  0.3268  0.9186
 1842Sol     HW10442   1.615   0.313   9.795 -0.9385 -2.8571 -1.5157
 1842Sol     HW10443   1.577   0.409   9.685 -0.3453  0.4763  1.1317
 1842Sol     MW10444   1.642   0.363   9.726  0.4737  0.1032 -0.4088
 1843Sol     OW10445   1.482   0.232   2.574 -0.2538 -0.1127 -0.0159
 1843Sol     HW10446   1.541   0.246   2.499  0.2302  0.4996  0.4714
 1843Sol     HW10447   1.538   0.192   2.641 -0.6286 -0.4324  0.1038
 1843Sol     MW10448   1.492   0.230   2.573 -0.0298  0.0646 -0.4978
 1844Sol     OW10449   2.616   1.163   7.703  0.7241 -0.8415  0.6026
 1844Sol     HW10450   2.568   1.214   7.768 -0.5817 -0.1003 -0.9049
 1844Sol     HW10451   2.554   1.094   7.676  0.4481  0.1370 -1.3713
 1844Sol     MW10452   2.606   1.161   7.706  0.0536 -0.0697  0.3100
 1845Sol     OW10453   2.178   2.707   6.034 -0.4468 -0.4796 -0.4162
 1845Sol     HW10454   2.253   2.733   6.086 -0.0289  1.6497 -2.0185
 1845Sol     HW10455   2.214   2.685   5.948 -1.4416 -1.3623 -0.6287
 1845Sol     MW10456   2.188   2.707   6.031  0.2171 -0.0333 -0.5327
 1846Sol     OW10457   0.440   3.197   2.987 -0.3426  0.2634  0.4815
 1846Sol     HW10458   0.401   3.113   3.007  1.4972 -0.6606  0.2660
 1846Sol     HW10459   0.410   3.255   3.057 -2.2115 -0.3618  0.2287
 1846Sol     MW10460   0.434   3.195   2.995 -0.1872  0.2925 -0.8417
 1847Sol     OW10461   1.494   1.383   2.241  0.3355 -0.0814 -0.2414
 1847Sol     HW10462   1.437   1.457   2.262 -1.1328 -1.3342  0.2741
 1847Sol     HW10463   1.437   1.306   2.243  2.1604 -1.4667  1.0028
 1847Sol     MW10464   1.484   1.383   2.243  0.1750  0.0514 -0.2829
 1848Sol     OW10465   0.590   1.674   3.929 -0.0690  0.7077 -0.2305
 1848Sol     HW10466   0.569   1.607   3.865  0.2540  0.2294  0.1663
 1848Sol     HW10467   0.684   1.691   3.917 -0.5279  2.4932 -1.6672
 1848Sol     MW10468   0.597   1.670   3.922 -0.2680  0.0784  0.4215
 1849Sol     OW10469   1.642   1.468   9.474  0.0318  0.9672 -0.1235
 1849Sol     HW10470   1.722   1.420   9.499  1.0218  1.7441 -1.6530
 1849Sol     HW10471   1.585   1.462   9.550  1.9091  1.1484  1.3296
 1849Sol     MW10472   1.644   1.463   9.483  0.1558 -0.6207 -0.1531
 1850Sol     OW10473   2.578   2.556   5.322 -0.1168  0.7492  0.4810
 1850Sol     HW10474   2.651   2.509   5.280 -1.3975 -0.0178 -0.9615
 1850Sol     HW10475   2.547   2.496   5.390 -1.7792 -0.6171 -1.3903
 1850Sol     MW10476   2.582   2.546   5.324  0.3506  0.2708 -0.3600
 1851Sol     OW10477   1.558   3.001   9.719 -0.2972  0.0183 -0.0842
 1851Sol     HW10478   1.632   3.058   9.741 -0.0632 -0.1229 -0.4981
 1851Sol     HW10479   1.594   2.941   9.654 -0.3991 -0.9329  0.7281
 1851Sol     MW10480   1.568   3.001   9.715  0.7903 -0.0346 -0.5346
 1852Sol     OW10481   1.502   0.765   6.381 -0.3167  0.3555  0.1576
 1852Sol     HW10482   1.455   0.688   6.350 -1.5020  1.5964 -1.2459
 1852Sol     HW10483   1.491   0.763   6.476 -0.8808 -0.8469  0.0763
 1852Sol     MW10484   1.497   0.758   6.387 -0.3604 -0.4488  0.1993
 1853Sol     OW10485   2.204   0.412   8.929 -0.0344  0.1363 -0.3063
 1853Sol     HW10486   2.285   0.362   8.921 -0.8713 -1.2458 -0.1974
 1853Sol     HW10487   2.233   0.504   8.927  1.6454 -0.3338  1.0671
 1853Sol     MW10488   2.214   0.416   8.928  0.2747 -0.5257 -0.5107
 1854Sol     OW10489   0.123   1.723   2.933 -0.1329  0.0012  0.0545
 1854Sol     HW10490   0.142   1.755   2.845  1.0705  1.7870  0.9544
 1854Sol     HW10491   0.165   1.637   2.936 -0.0102  0.0092 -1.0336
 1854Sol     MW10492   0.128   1.718   2.925 -0.4726  0.2285 -0.3236
 1855Sol     OW10493   2.788   1.185   5.697 -0.2628  0.1080 -0.1405
 1855Sol     HW10494   2.781   1.273   5.660 -0.7183  0.2707  0.3322
 1855Sol     HW10495   2.725   1.132   5.648 -2.6587  0.8686  2.0121
 1855Sol     MW10496   2.782   1.188   5.690  0.2234 -0.0058 -0.4950
 1856Sol     OW10497   0.338   3.332   4.517 -0.2337 -0.3608 -0.3687
 1856Sol     HW10498   0.346   3.426   4.504 -1.1151 -0.1905  0.2580
 1856Sol     HW10499   0.247   3.319   4.546 -0.1064 -1.3892 -0.3922
 1856Sol     MW10500   0.331   3.339   4.519 -0.1387 -0.0325  0.4336
 1857Sol     OW10501   2.796   2.342   9.237 -0.3538 -0.4856 -0.6243
 1857Sol     HW10502   2.889   2.319   9.228 -0.5263 -0.6738 -2.0458
 1857Sol     HW10503   2.797   2.435   9.262  0.2174 -0.4125 -0.8942
 1857Sol     MW10504   2.805   2.349   9.239  0.3580 -0.1034  0.6224
 1858Sol     OW10505   1.232   3.233   1.569  0.2949  0.0687 -0.2612
 1858Sol     HW10506   1.304   3.249   1.508  1.3493 -0.1241  0.9015
 1858Sol     HW10507   1.207   3.320   1.601  1.6629 -0.0230  1.1546
 1858Sol     MW10508   1.236   3.242   1.567  0.2331 -0.1335  0.0331
 1859Sol     OW10509   2.904   2.763   4.841  0.2042  0.1651 -0.1012
 1859Sol     HW10510   2.926   2.746   4.749  1.3253  1.6461 -0.1318
 1859Sol     HW10511   2.984   2.743   4.889 -0.4456 -0.7935  0.5733
 1859Sol     MW10512   2.913   2.760   4.837 -0.0052 -0.2772  0.0137
 1860Sol     OW10513   1.648   2.869   8.543 -0.3515  0.6282  0.5807
 1860Sol     HW10514   1.643   2.924   8.621  2.5199  0.6416  0.8029
 1860Sol     HW10515   1.683   2.926   8.475 -0.2033 -0.1261  0.0100
 1860Sol     MW10516   1.651   2.879   8.544  0.0021  0.4467 -0.0199
 1861Sol     OW10517   0.356   3.074   7.519 -0.2856  0.0075  0.1087
 1861Sol     HW10518   0.441   3.116   7.506 -0.3594 -0.1473 -0.9056
 1861Sol     HW10519   0.304   3.140   7.567 -0.0910  0.7089 -0.6267
 1861Sol     MW10520   0.359   3.084   7.522 -0.0550  0.4980  0.5902
 1862Sol     OW10521   1.926   3.054   5.767 -0.4470 -0.2038 -0.3024
 1862Sol     HW10522   1.974   3.064   5.685  1.4900  0.1076  0.8606
 1862Sol     HW10523   1.993   3.046   5.834 -2.0087  1.4003  1.5009
 1862Sol     MW10524   1.936   3.054   5.765 -0.2514  0.0188 -0.0451
 1863Sol     OW10525   2.773   3.447   5.992  0.3854  0.3165 -0.6478
 1863Sol     HW10526   2.832   3.373   5.981 -0.7938 -0.7422  0.1488
 1863Sol     HW10527   2.815   3.502   6.059  0.7758 -0.1078 -0.5443
 1863Sol     MW10528   2.782   3.446   5.997  0.3714 -0.2937 -0.1951
 1864Sol     OW10529   0.946   2.856   6.752  0.0373 -0.4918 -0.6131
 1864Sol     HW10530   0.863   2.900   6.731  0.0689 -0.2486 -0.2238
 1864Sol     HW10531   0.986   2.840   6.666 -0.3428 -0.4808 -0.7979
 1864Sol     MW10532   0.942   2.859   6.742 -0.3115 -0.1003 -0.0422
 1865Sol     OW10533   2.576   1.905   7.238 -0.2624 -0.0664  0.3507
 1865Sol     HW10534   2.555   1.897   7.145  0.2819 -2.6787  0.3961
 1865Sol     HW10535   2.501   1.866   7.283  1.3252 -2.7390  0.7959
 1865Sol     MW10536   2.567   1.901   7.234 -0.3050 -0.3486 -0.1321
 1866Sol     OW10537   0.602   1.138   2.956  0.3783 -0.6033  0.7367
 1866Sol     HW10538   0.578   1.050   2.984 -0.1087 -0.2083  1.6044
 1866Sol     HW10539   0.616   1.131   2.862  2.7335 -2.1270  1.1731
 1866Sol     MW10540   0.601   1.129   2.950 -0.4716  0.0991 -0.0508
 1867Sol     OW10541   2.949   3.008   5.084 -0.2462 -0.8789 -0.2153
 1867Sol     HW10542   2.983   2.934   5.134 -0.7147 -0.7671  0.2801
 1867Sol     HW10543   2.910   3.066   5.150  0.6646  0.1142 -0.5290
 1867Sol     MW10544   2.948   3.007   5.094 -0.4231 -0.1522  0.3345
 1868Sol     OW10545   1.441   2.964   3.606  0.1663  0.5271  0.1241
 1868Sol     HW10546   1.358   2.995   3.643 -0.8354 -1.9490  0.0870
 1868Sol     HW10547   1.415   2.910   3.531  2.0291  2.8693 -2.2856
 1868Sol     MW10548   1.431   2.962   3.602 -0.2519  0.2756 -0.2018
 1869Sol     OW10549   1.319   3.099   1.819  0.5624 -0.6296 -0.2093
 1869Sol     HW10550   1.269   3.141   1.889 -1.1934 -2.4807 -0.3034
 1869Sol     HW10551   1.266   3.113   1.740  0.6579 -1.8058 -0.4848
 1869Sol     MW10552   1.309   3.104   1.818  0.2742 -0.0834 -0.0564
 1870Sol     OW10553   1.149   1.387   3.833 -0.2203  0.4950  0.7181
 1870Sol     HW10554   1.111   1.344   3.756  0.4702 -0.8408  1.1024
 1870Sol     HW10555   1.203   1.319   3.873  1.7737  2.0474  0.7431
 1870Sol     MW10556   1.150   1.377   3.829  0.0213  0.2781  0.5872
 1871Sol     OW10557   2.511   1.067   5.301 -0.2127 -0.0673  0.2272
 1871Sol     HW10558   2.501   0.979   5.267  0.7770  0.4287 -1.4141
 1871Sol     HW10559   2.602   1.072   5.330 -0.7695 -0.1630  2.0582
 1871Sol     MW10560   2.518   1.060   5.300  0.4549  0.0454  0.1510
 1872Sol     OW10561   1.520   0.156   3.122 -0.8195 -0.0631 -0.7682
 1872Sol     HW10562   1.437   0.162   3.169 -0.2405 -1.1001  0.4566
 1872Sol     HW10563   1.566   0.084   3.166  0.7792  0.5966 -1.3249
 1872Sol     MW10564   1.517   0.150   3.130  0.0585  0.8278 -0.1816
 1873Sol     OW10565   0.467   1.148   8.948  0.4770 -0.0406 -0.2556
 1873Sol     HW10566   0.470   1.243   8.937  1.0631 -0.1595 -1.1390
 1873Sol     HW10567   0.377   1.130   8.977  0.6933  0.8909  1.0023
 1873Sol     MW10568   0.459   1.155   8.950 -0.2864 -0.3676 -0.0493
 1874Sol     OW10569   2.568   1.626   7.475 -0.1499 -0.0275  0.3833
 1874Sol     HW10570   2.500   1.692   7.489  0.2557  0.3385  0.6543
 1874Sol     HW10571   2.625   1.633   7.552  0.0943 -0.4522  0.2444
 1874Sol     MW10572   2.567   1.633   7.483  0.6421 -0.0677  0.1219
 1875Sol     OW10573   0.269   1.361   9.338 -0.1399  0.2096  0.1352
 1875Sol     HW10574   0.279   1.274   9.378  1.3909 -0.1201 -0.8963
 1875Sol     HW10575   0.201   1.349   9.272  0.8294 -0.5117 -0.7619
 1875Sol     MW10576   0.264   1.352   9.336 -0.2657 -0.6207  0.2458
 1876Sol     OW10577   3.305   1.675   8.334  0.5239  0.1922 -0.0044
 1876Sol     HW10578   3.211   1.660   8.341  0.4714  0.5655  0.0820
 1876Sol     HW10579   3.314   1.768   8.317  0.9178  0.3597  1.0733
 1876Sol     MW10580   3.297   1.682   8.333  0.5985 -0.0403  0.3585
 1877Sol     OW10581   2.836   2.971   2.477  0.7837  0.2296 -0.1238
 1877Sol     HW10582   2.768   3.036   2.463 -0.3203 -0.7645  0.5042
 1877Sol     HW10583   2.917   3.016   2.455  0.0913  1.9525  0.7473
 1877Sol     MW10584   2.837   2.981   2.474  0.2849 -0.3676  0.0424
 1878Sol     OW10585   0.229   1.448   3.952  0.2391  0.3486 -0.9932
 1878Sol     HW10586   0.145   1.488   3.930 -0.1251  0.5374  0.6404
 1878Sol     HW10587   0.257   1.494   4.031  1.3446 -0.4693 -0.8953
 1878Sol     MW10588   0.224   1.455   3.957  0.1822  0.5317  0.0407
 1879Sol     OW10589   0.102   2.797   8.692  0.2702 -0.2726 -0.6946
 1879Sol     HW10590   0.161   2.836   8.627  0.5385 -0.5184 -0.6048
 1879Sol     HW10591   0.037   2.750   8.640 -0.0758  0.3205 -0.8053
 1879Sol     MW10592   0.102   2.796   8.682  0.3940 -0.0168  0.2816
 1880Sol     OW10593   3.275   0.716   7.743  0.4809 -0.9538 -0.0122
 1880Sol     HW10594   3.259   0.712   7.837  3.0579  3.3095  0.7107
 1880Sol     HW10595   3.358   0.669   7.731  1.3673  0.5129  0.2361
 1880Sol     MW10596   3.281   0.711   7.750 -0.1688 -0.0790 -0.7749
 1881Sol     OW10597   1.926   0.997   7.200 -0.2384 -0.8489 -0.0133
 1881Sol     HW10598   1.998   1.048   7.163 -0.4691 -1.9411 -2.0002
 1881Sol     HW10599   1.900   1.046   7.279  1.5778  0.4231 -0.1891
 1881Sol     MW10600   1.930   1.006   7.204 -0.3306  0.5271  0.6181
 1882Sol     OW10601   1.876   2.364   2.640 -0.2042  0.6874 -0.0176
 1882Sol     HW10602   1.790   2.358   2.599  0.2000  1.2494 -0.9510
 1882Sol     HW10603   1.926   2.292   2.601 -0.1107  0.6313  0.2012
 1882Sol     MW10604   1.873   2.357   2.633  0.0039  0.3944  0.4087
 1883Sol     OW10605   0.375   0.954   6.194  0.2454 -0.5325 -0.4880
 1883Sol     HW10606   0.325   0.897   6.136  0.2262 -0.8652 -0.1510
 1883Sol     HW10607   0.441   0.896   6.233  0.1645 -0.3493 -0.0684
 1883Sol     MW10608   0.377   0.944   6.193 -0.6296 -0.2561 -0.0830
 1884Sol     OW10609   0.232   1.917   7.604 -0.3867  0.7592  0.1753
 1884Sol     HW10610   0.265   1.870   7.528  0.0621  0.8695  0.3001
 1884Sol     HW10611   0.301   1.980   7.625  0.5121 -0.7918  2.0649
 1884Sol     MW10612   0.241   1.919   7.599  0.1118  0.3411  0.1581
 1885Sol     OW10613   2.619   2.304   3.225 -0.4216  0.4575  0.1831
 1885Sol     HW10614   2.701   2.321   3.271 -1.3301 -0.8375  2.3821
 1885Sol     HW10615   2.637   2.327   3.134  1.8731  1.7275  0.9240
 1885Sol     MW10616   2.628   2.307   3.221 -0.1041 -0.7250 -0.2611
 1886Sol     OW10617   1.978   1.760   9.140 -0.3000 -0.0321 -0.2962
 1886Sol     HW10618   2.068   1.732   9.125 -0.3416 -1.9171  2.4892
 1886Sol     HW10619   1.957   1.728   9.228 -3.6274  0.5023 -0.8038
 1886Sol     MW10620   1.984   1.754   9.146  0.4038  0.4537  0.1290
 1887Sol     OW10621   1.531   1.828   4.166 -0.3482  0.4245 -0.2755
 1887Sol     HW10622   1.481   1.751   4.191 -1.1250  1.4313  1.3975
 1887Sol     HW10623   1.622   1.801   4.170 -0.6857 -1.0637 -2.0726
 1887Sol     MW10624   1.535   1.819   4.168  0.4290  0.7354  0.2379
 1888Sol     OW10625   0.519   0.766   9.392 -0.2282  0.3066 -0.2828
 1888Sol     HW10626   0.556   0.679   9.378  0.0194  0.0096  2.0282
 1888Sol     HW10627   0.491   0.794   9.305  2.1885 -0.9231 -1.5125
 1888Sol     MW10628   0.520   0.760   9.383 -0.3377 -0.6773 -0.9212
 1889Sol     OW10629   3.325   0.412   5.578  0.0561  0.1908 -0.1079
 1889Sol     HW10630   3.378   0.489   5.557  0.3370 -0.3769 -1.5014
 1889Sol     HW10631   3.269   0.399   5.501 -3.1475  1.6228  1.8977
 1889Sol     MW10632   3.325   0.418   5.569  0.0492 -0.0276 -0.3246
 1890Sol     OW10633   0.472   1.951   2.251 -0.2354  0.3719 -0.4370
 1890Sol     HW10634   0.388   1.918   2.219 -0.0704  0.5455 -1.0719
 1890Sol     HW10635   0.495   1.893   2.323 -1.8136  1.4612  0.9843
 1890Sol     MW10636   0.466   1.943   2.254  0.0378 -0.2593  0.0986
 1891Sol     OW10637   2.395   0.347   2.982  0.4326 -0.2738  0.1890
 1891Sol     HW10638   2.354   0.426   3.016 -0.6174 -0.2492 -1.0852
 1891Sol     HW10639   2.487   0.370   2.971  0.4223  0.2912  1.2357
 1891Sol     MW10640   2.399   0.356   2.984  0.2632 -0.5035  0.1923
 1892Sol     OW10641   1.995   2.579   8.941  0.0150  0.2998 -0.0893
 1892Sol     HW10642   1.952   2.558   9.024 -1.3615  3.1346 -0.0002
 1892Sol     HW10643   2.083   2.542   8.949 -0.1690  0.2929  2.5503
 1892Sol     MW10644   1.999   2.574   8.949  0.2075 -0.9283 -0.0011
 1893Sol     OW10645   2.714   0.606   3.030 -0.6148  0.5487 -0.6069
 1893Sol     HW10646   2.788   0.584   3.086 -0.3164  0.2052 -1.1230
 1893Sol     HW10647   2.744   0.681   2.979 -0.0290 -0.5419 -1.9236
 1893Sol     MW10648   2.723   0.611   3.030  0.3524 -0.2513  0.4774
 1894Sol     OW10649   0.782   0.057   1.861  0.0468 -0.1327  0.3351
 1894Sol     HW10650   0.789   0.088   1.771 -0.7759 -1.5189 -0.2037
 1894Sol     HW10651   0.700   0.095   1.893  0.0141 -0.1631  0.2882
 1894Sol     MW10652   0.775   0.063   1.856  0.1081  0.3013 -0.5248
 1895Sol     OW10653   3.071   1.814   5.577 -0.3223  0.4199  0.4964
 1895Sol     HW10654   3.167   1.820   5.570 -0.5114  1.0428 -2.0697
 1895Sol     HW10655   3.045   1.895   5.621  0.3947 -0.0703  1.8216
 1895Sol     MW10656   3.078   1.822   5.580 -0.5348  0.5055 -0.2422
 1896Sol     OW10657   0.102   3.385   8.628 -0.1595  0.2189 -0.1408
 1896Sol     HW10658   0.083   3.347   8.714 -1.1038  1.1748  0.0910
 1896Sol     HW10659   0.197   3.396   8.627 -0.0766 -0.3726  0.5303
 1896Sol     MW10660   0.109   3.383   8.636  0.1517 -0.2374  0.1107
 1897Sol     OW10661   0.704   1.810   3.309  0.2597  0.4191 -0.2066
 1897Sol     HW10662   0.796   1.826   3.331  0.5275 -1.3880  0.0486
 1897Sol     HW10663   0.660   1.801   3.393  0.3283 -1.3017 -0.3511
 1897Sol     MW10664   0.708   1.811   3.318 -0.5506 -0.2163  0.0185
 1898Sol     OW10665   1.266   2.959   4.144 -0.0195 -0.0032  0.6886
 1898Sol     HW10666   1.337   3.013   4.181 -0.1124  0.6691 -0.1132
 1898Sol     HW10667   1.192   3.019   4.136 -0.2709 -0.3750  0.2484
 1898Sol     MW10668   1.266   2.969   4.147 -1.0721 -0.0610 -0.1347
 1899Sol     OW10669   3.144   0.066   4.256 -0.1732 -0.2748 -0.3500
 1899Sol     HW10670   3.098  -0.018   4.254 -1.6435  0.3400  3.3230
 1899Sol     HW10671   3.236   0.042   4.267 -0.5470 -1.4400  0.4529
 1899Sol     MW10672   3.148   0.056   4.257 -0.3108 -0.6681  0.2895
 1900Sol     OW10673   2.479   1.034   4.713  0.1986 -0.3763 -0.1295
 1900Sol     HW10674   2.497   1.067   4.801  0.8903 -0.6184 -0.1762
 1900Sol     HW10675   2.444   0.946   4.727 -0.1678 -0.2238 -0.0759
 1900Sol     MW10676   2.477   1.029   4.722  0.0405 -0.0741 -0.0319
 1901Sol     OW10677   2.022   1.188   2.641 -0.3324  0.6896  0.0422
 1901Sol     HW10678   2.015   1.116   2.578 -0.1156  0.5766  0.1488
 1901Sol     HW10679   1.986   1.153   2.722  0.1654  0.5634  0.2101
 1901Sol     MW10680   2.018   1.178   2.642  0.0730  0.3567  0.8566
 1902Sol     OW10681   0.060   0.034   7.457  0.2690 -0.3162  0.1211
 1902Sol     HW10682   0.094  -0.048   7.420  2.2202  0.6373 -0.2777
 1902Sol     HW10683   0.019   0.079   7.383 -2.2216 -1.5936  0.6603
 1902Sol     MW10684   0.060   0.030   7.447  0.0931 -0.1783  0.0149
 1903Sol     OW10685   0.098   1.080   5.804  0.0513  0.6123 -0.7837
 1903Sol     HW10686   0.129   0.990   5.806  0.1177  0.6382 -0.6159
 1903Sol     HW10687   0.176   1.133   5.820 -0.4131  0.5957  1.7834
 1903Sol     MW10688   0.108   1.077   5.806  0.0712  0.2270 -0.0909
 1904Sol     OW10689   2.693   2.414   6.837  0.2767  0.2729  0.1581
 1904Sol     HW10690   2.683   2.336   6.892  1.8561 -0.4668 -0.5919
 1904Sol     HW10691   2.689   2.487   6.899  4.2817 -0.6237  1.6238
 1904Sol     MW10692   2.692   2.414   6.847  0.0503 -0.1948 -0.1909
 1905Sol     OW10693   1.664   3.442   4.865 -0.2279 -0.0003  0.6183
 1905Sol     HW10694   1.601   3.370   4.866  1.2630 -1.3789 -0.4915
 1905Sol     HW10695   1.659   3.476   4.775  1.0170 -0.5187  0.3428
 1905Sol     MW10696   1.658   3.438   4.857  0.0675 -0.0249  0.4952
 1906Sol     OW10697   0.344   2.050   7.963 -0.1917 -0.2673  0.0340
 1906Sol     HW10698   0.420   1.993   7.972  0.1630 -0.1963 -2.1961
 1906Sol     HW10699   0.351   2.086   7.874 -1.2194  2.0794  0.8566
 1906Sol     MW10700   0.352   2.048   7.955  0.3905 -0.2404 -0.4307
 1907Sol     OW10701   0.747   1.195   8.510  0.5279 -0.0831 -0.0468
 1907Sol     HW10702   0.686   1.128   8.479  0.2905  0.6737 -1.2971
 1907Sol     HW10703   0.799   1.152   8.578 -0.8568 -0.9744  0.4671
 1907Sol     MW10704   0.746   1.185   8.513 -0.0275 -0.4529  0.3219
 1908Sol     OW10705   0.558   1.514   1.619  0.1565 -0.1858 -0.3472
 1908Sol     HW10706   0.533   1.457   1.691  0.7446 -0.6006 -0.4687
 1908Sol     HW10707   0.586   1.596   1.661  0.6411 -0.4801 -0.0959
 1908Sol     MW10708   0.558   1.517   1.629  0.7433  0.7484  0.2991
 1909Sol     OW10709   3.031   0.237   8.875  0.2903 -0.1534 -0.1689
 1909Sol     HW10710   3.024   0.147   8.843  0.5120 -0.5304  0.8462
 1909Sol     HW10711   2.943   0.272   8.864  0.3027 -0.3503 -0.9710
 1909Sol     MW10712   3.022   0.232   8.871  0.1873 -0.0849 -0.5581
 1910Sol     OW10713   2.523   0.023   5.227  0.0587  0.4023 -0.1809
 1910Sol     HW10714   2.460  -0.035   5.185 -0.9509  1.0155  0.4663
 1910Sol     HW10715   2.475   0.105   5.241  1.6032  1.6190 -1.5964
 1910Sol     MW10716   2.513   0.025   5.224  0.3899  0.0390 -0.5338
 1911Sol     OW10717   1.266   0.376   1.405 -1.1884  0.2185 -0.4660
 1911Sol     HW10718   1.233   0.364   1.316  0.3270 -0.3113 -0.9755
 1911Sol     HW10719   1.296   0.467   1.408  0.1175 -0.1860 -0.9709
 1911Sol     MW10720   1.266   0.383   1.397  0.4649  0.2194 -0.1129
 1912Sol     OW10721   1.676   2.432   3.880  0.4751  0.6870  0.3198
 1912Sol     HW10722   1.723   2.399   3.804 -0.1647  2.3536 -0.8196
 1912Sol     HW10723   1.653   2.522   3.857 -1.1369  0.6824  1.8432
 1912Sol     MW10724   1.679   2.437   3.871 -0.6762  0.4027  0.3147
 1913Sol     OW10725   2.935   2.569   3.623  0.0490  0.4336 -0.0354
 1913Sol     HW10726   2.888   2.650   3.604 -1.0254 -0.2316 -0.2522
 1913Sol     HW10727   2.924   2.555   3.717  0.3288  0.5962  0.0220
 1913Sol     MW10728   2.930   2.575   3.629 -0.7669 -0.2910  0.8705
 1914Sol     OW10729   0.231   1.648   5.145  0.2970  0.2011 -0.8527
 1914Sol     HW10730   0.303   1.625   5.086  1.2233  0.9636 -0.0309
 1914Sol     HW10731   0.176   1.570   5.148  0.2701  0.1278 -2.6763
 1914Sol     MW10732   0.232   1.639   5.140 -0.0186 -0.2865  0.0186
 1915Sol     OW10733   2.462   3.075   1.786  0.1090  0.0028 -0.0582
 1915Sol     HW10734   2.369   3.056   1.801 -0.0114  0.7616  0.2134
 1915Sol     HW10735   2.463   3.165   1.752  0.7098 -0.1662 -0.4956
 1915Sol     MW10736   2.454   3.082   1.785 -0.4431 -0.1851  0.5520
 1916Sol     OW10737   1.512   0.392   4.590 -0.1029 -0.0394 -0.1554
 1916Sol     HW10738   1.580   0.441   4.635 -1.4200  1.8050 -0.1153
 1916Sol     HW10739   1.559   0.337   4.527  1.4409  0.7899  0.2667
 1916Sol     MW10740   1.522   0.391   4.588  0.0297  0.4655 -0.6941
 1917Sol     OW10741   2.213   0.300   5.904  0.1397  0.5403 -0.3974
 1917Sol     HW10742   2.122   0.310   5.933  0.3241  2.0885 -0.2930
 1917Sol     HW10743   2.209   0.316   5.810  0.3798  1.1359 -0.3072
 1917Sol     MW10744   2.204   0.302   5.898  0.0661 -0.2521  0.1031
 1918Sol     OW10745   1.238   0.864   6.018  0.3311  0.3987 -0.4805
 1918Sol     HW10746   1.318   0.881   6.069 -0.8904 -1.3975  2.1918
 1918Sol     HW10747   1.264   0.796   5.956  1.1754  0.6480 -0.4157
 1918Sol     MW10748   1.248   0.859   6.017 -0.0792  0.5673 -0.4039
 1919Sol     OW10749   3.010   3.135   7.327 -0.3539 -0.3572  0.2989
 1919Sol     HW10750   3.028   3.041   7.320  0.3541 -0.1388 -1.0719
 1919Sol     HW10751   2.999   3.151   7.421  0.6719 -1.6082  0.6432
 1919Sol     MW10752   3.011   3.128   7.335 -0.1431 -0.0994 -0.3255
 1920Sol     OW10753   0.326   2.545   4.367  0.4851  0.3732 -0.6312
 1920Sol     HW10754   0.305   2.529   4.459  0.1117  1.1958 -0.5682
 1920Sol     HW10755   0.284   2.472   4.320 -1.8680  1.5595 -0.4213
 1920Sol     MW10756   0.320   2.537   4.371  0.3153  0.1482  0.4207
 1921Sol     OW10757   1.986   2.097   6.557  0.0997  0.1213 -0.1425
 1921Sol     HW10758   2.023   2.151   6.487  0.6805 -0.6137 -0.4030
 1921Sol     HW10759   1.980   2.156   6.632  0.6834  0.5662 -0.4432
 1921Sol     MW10760   1.989   2.107   6.557  0.2011  0.2457 -0.6702
 1922Sol     OW10761   1.483   1.835   3.700  0.2201  0.2072 -0.6993
 1922Sol     HW10762   1.396   1.870   3.717  0.0530 -0.3217 -0.4729
 1922Sol     HW10763   1.516   1.888   3.627 -1.0273 -0.8518 -2.0523
 1922Sol     MW10764   1.479   1.843   3.695  0.5465 -0.2360  0.1171
 1923Sol     OW10765   2.145   1.820   5.795  0.3653  0.3169 -0.1678
 1923Sol     HW10766   2.203   1.830   5.870 -0.5273 -0.3540  0.6229
 1923Sol     HW10767   2.166   1.734   5.759  2.0883  1.4047 -1.8196
 1923Sol     MW10768   2.152   1.813   5.799  0.4148  0.2442 -0.6003
 1924Sol     OW10769   3.063   0.705   8.518 -0.1420 -0.4977  0.3557
 1924Sol     HW10770   3.041   0.662   8.435 -0.2517  1.1881 -0.5226
 1924Sol     HW10771   2.978   0.723   8.559 -0.3282  2.3504 -1.1281
 1924Sol     MW10772   3.053   0.703   8.514  0.0720 -0.3131  0.1774
 1925Sol     OW10773   2.429   2.391   9.366 -0.2673  0.5223 -0.6365
 1925Sol     HW10774   2.448   2.449   9.292 -0.8353  1.0891 -0.3410
 1925Sol     HW10775   2.434   2.447   9.443 -1.6054  0.3507 -0.4176
 1925Sol     MW10776   2.431   2.401   9.366 -0.2802  0.0661 -0.5318
 1926Sol     OW10777   3.144   1.587   2.905 -0.3164 -0.1564  0.4762
 1926Sol     HW10778   3.155   1.681   2.886  1.5870 -0.7838 -1.8673
 1926Sol     HW10779   3.152   1.545   2.819 -1.1198 -2.4736  1.5149
 1926Sol     MW10780   3.146   1.592   2.895 -0.0168  0.1631 -0.5609
 1927Sol     OW10781   2.516   2.334   2.258 -0.6628  0.1972  0.5540
 1927Sol     HW10782   2.511   2.429   2.252  1.7256  0.3151 -0.1975
 1927Sol     HW10783   2.602   2.317   2.296 -0.6424 -1.6731 -0.2548
 1927Sol     MW10784   2.523   2.341   2.260 -0.3876  0.6447  0.5398
 1928Sol     OW10785   3.240   2.194   7.816 -0.1702  0.0536  0.1564
 1928Sol     HW10786   3.182   2.246   7.871 -0.3741  1.3923 -1.2887
 1928Sol     HW10787   3.182   2.136   7.768 -0.5279  2.3744 -2.3494
 1928Sol     MW10788   3.230   2.194   7.817  0.2083  0.0905  0.4142
 1929Sol     OW10789   3.031   3.143   9.313  0.4103  0.0082  0.1529
 1929Sol     HW10790   3.085   3.198   9.369  0.7997 -0.1180 -0.0989
 1929Sol     HW10791   3.092   3.102   9.253 -0.0917  0.8346 -0.9512
 1929Sol     MW10792   3.041   3.145   9.313 -0.6298  0.0797  0.3291
 1930Sol     OW10793   2.465   2.224   4.443 -0.1474 -0.5779  0.1596
 1930Sol     HW10794   2.551   2.265   4.454 -0.3382  0.1586 -1.0993
 1930Sol     HW10795   2.485   2.132   4.424  0.3512 -0.4939  0.2587
 1930Sol     MW10796   2.475   2.219   4.443  0.3232 -0.0808  0.1656
 1931Sol     OW10797   1.681   2.510   2.947 -0.0607  0.4646 -0.1209
 1931Sol     HW10798   1.626   2.575   2.990 -0.3781  1.2843 -1.7543
 1931Sol     HW10799   1.640   2.426   2.969 -1.8468  1.0456 -1.1401
 1931Sol     MW10800   1.672   2.508   2.953  0.1479  0.0050 -0.0518
 1932Sol     OW10801   1.293   2.258   7.279  0.2575 -0.2519  0.1804
 1932Sol     HW10802   1.239   2.328   7.242  0.6245  1.3184  2.5111
 1932Sol     HW10803   1.231   2.186   7.296 -0.6488  0.5986  0.5140
 1932Sol     MW10804   1.282   2.258   7.277 -0.0161 -0.5343 -0.2911
 1933Sol     OW10805   2.206   3.076   9.055 -0.6713  0.2145 -0.1504
 1933Sol     HW10806   2.274   3.137   9.025  0.8416 -1.4599 -0.2212
 1933Sol     HW10807   2.168   3.041   8.974 -0.5848  0.0314 -0.1126
 1933Sol     MW10808   2.209   3.078   9.045  0.1641  0.3052  0.0553
 1934Sol     OW10809   2.246   0.691   9.393  0.0109  0.0515 -0.0468
 1934Sol     HW10810   2.220   0.616   9.446  1.6550 -1.2921 -1.1088
 1934Sol     HW10811   2.309   0.738   9.448 -2.5875  1.8992  1.4865
 1934Sol     MW10812   2.249   0.689   9.403 -0.2442  0.7498  0.4814
 1935Sol     OW10813   0.262   0.917   4.589  0.2207 -0.3494 -0.1517
 1935Sol     HW10814   0.253   0.884   4.679 -1.1933  0.5101  0.0408
 1935Sol     HW10815   0.268   1.012   4.600  3.6714 -0.4415 -0.7397
 1935Sol     MW10816   0.262   0.923   4.598  0.3276 -0.1511 -0.1300
 1936Sol     OW10817   1.133   0.636   8.392  0.0599  0.2032  0.8080
 1936Sol     HW10818   1.039   0.618   8.387 -0.0062  0.5035  1.0249
 1936Sol     HW10819   1.173   0.549   8.394 -0.1988  0.0743  0.4528
 1936Sol     MW10820   1.128   0.626   8.391 -0.7228 -0.6158  0.5212
 1937Sol     OW10821   1.311   3.140   2.720  0.3930  0.3394  0.0015
 1937Sol     HW10822   1.368   3.211   2.692  1.1079 -0.3748 -0.3797
 1937Sol     HW10823   1.341   3.064   2.670 -2.0617  0.3410 -1.5448
 1937Sol     MW10824   1.319   3.140   2.713 -0.1006  0.0478 -0.0168
 1938Sol     OW10825   0.574   2.393   7.561  0.1565  0.0444  0.0290
 1938Sol     HW10826   0.553   2.458   7.494 -1.5944 -0.4796  0.0245
 1938Sol     HW10827   0.523   2.420   7.637  1.0824 -0.1263  0.7231
 1938Sol     MW10828   0.567   2.401   7.562 -0.2107  0.0047  0.4701
 1939Sol     OW10829   1.766   1.106   4.378  0.2441 -0.5032  0.6008
 1939Sol     HW10830   1.819   1.185   4.370  2.0086 -1.5508  1.8217
 1939Sol     HW10831   1.819   1.045   4.430 -1.1410 -2.4439 -0.1694
 1939Sol     MW10832   1.775   1.107   4.382  0.7204 -0.2186  0.0554
 1940Sol     OW10833   2.108   2.559   9.507 -0.3252  0.1700 -0.2881
 1940Sol     HW10834   2.187   2.601   9.541 -0.1941 -2.4411  2.9527
 1940Sol     HW10835   2.112   2.572   9.412  2.7436  2.1314  0.0529
 1940Sol     MW10836   2.115   2.564   9.501  0.3836 -0.4211 -0.4253
 1941Sol     OW10837   1.181   0.146   2.157 -0.1794  0.0435 -0.3215
 1941Sol     HW10838   1.199   0.150   2.251  0.1864 -1.3032 -0.3160
 1941Sol     HW10839   1.086   0.159   2.151 -0.0245  1.4189  0.1238
 1941Sol     MW10840   1.174   0.147   2.165 -0.2131  0.1422  0.5249
 1942Sol     OW10841   2.744   2.251   2.393 -0.1563 -0.1768 -0.0639
 1942Sol     HW10842   2.749   2.319   2.460  2.3664  0.0234 -0.4285
 1942Sol     HW10843   2.794   2.286   2.319 -0.4691 -1.6181 -0.9853
 1942Sol     MW10844   2.749   2.260   2.392 -0.7893 -0.2624  0.1116
 1943Sol     OW10845   2.292   1.688   4.003  0.2572 -0.1212 -0.3327
 1943Sol     HW10846   2.318   1.599   4.026 -1.3933 -0.6632 -0.4364
 1943Sol     HW10847   2.221   1.708   4.065  0.5114  1.0598 -0.4151
 1943Sol     MW10848   2.288   1.682   4.011 -0.4661 -0.3310  0.0681
 1944Sol     OW10849   1.082   1.853   2.937  0.4371  0.0769 -0.5345
 1944Sol     HW10850   1.062   1.759   2.940 -0.4579  0.1756 -2.6592
 1944Sol     HW10851   0.996   1.895   2.937  0.8425  0.9184  0.6395
 1944Sol     MW10852   1.073   1.848   2.938 -0.1561 -0.2324  0.0863
 1945Sol     OW10853   1.777   0.959   9.380  0.0180 -0.2867 -0.4767
 1945Sol     HW10854   1.754   0.868   9.361 -1.3482  0.3220 -1.8326
 1945Sol     HW10855   1.833   0.985   9.307  1.1121 -0.2768  0.3475
 1945Sol     MW10856   1.780   0.953   9.372 -0.3673  0.2541 -0.0705
 1946Sol     OW10857   1.438   2.467   8.117 -0.1135  0.1510  0.0166
 1946Sol     HW10858   1.417   2.390   8.064  1.0857  0.6141 -1.1533
 1946Sol     HW10859   1.435   2.435   8.207  1.4339 -1.5346 -0.5042
 1946Sol     MW10860   1.436   2.457   8.120 -0.1213 -0.1887 -0.1610
 1947Sol     OW10861   2.073   1.516   3.072  0.1047 -0.7556  0.0827
 1947Sol     HW10862   2.026   1.544   2.993  0.3403 -1.4207 -0.2919
 1947Sol     HW10863   2.142   1.582   3.083 -1.2290  0.5461  0.9483
 1947Sol     MW10864   2.075   1.525   3.066  0.3988 -0.1450 -0.2885
 1948Sol     OW10865   2.914   1.837   4.140 -0.3204 -0.0492  0.4531
 1948Sol     HW10866   2.909   1.809   4.048 -0.9562 -0.8425  0.7205
 1948Sol     HW10867   2.883   1.761   4.190  1.2155 -0.0730  1.4120
 1948Sol     MW10868   2.911   1.827   4.136  0.8197  0.2929  0.2085
 1949Sol     OW10869   3.311   0.664   7.287 -0.0598 -0.2701  0.2719
 1949Sol     HW10870   3.349   0.598   7.345 -2.2312 -2.1606 -0.3733
 1949Sol     HW10871   3.376   0.677   7.219  0.0288 -2.4704 -0.0926
 1949Sol     MW10872   3.320   0.660   7.286 -0.2550 -0.1666  0.1429
 1950Sol     OW10873   0.583   0.312   7.694 -0.0533 -0.1812 -0.0218
 1950Sol     HW10874   0.558   0.259   7.618 -1.4374 -0.9182  0.9273
 1950Sol     HW10875   0.518   0.290   7.761  1.0954  0.5265  1.3500
 1950Sol     MW10876   0.575   0.305   7.693 -0.0728  0.3133 -0.1795
 1951Sol     OW10877   2.062   0.157   7.707  0.3153 -0.3053 -0.4255
 1951Sol     HW10878   2.141   0.142   7.656  0.5316  1.6935 -0.7261
 1951Sol     HW10879   2.089   0.221   7.774 -0.4385 -1.4380  0.9921
 1951Sol     MW10880   2.072   0.161   7.709 -0.3620 -0.4003  0.1596
 1952Sol     OW10881   0.154   1.423   3.510  0.4172 -0.2581 -0.1763
 1952Sol     HW10882   0.212   1.393   3.439 -0.8369 -0.8019 -0.9869
 1952Sol     HW10883   0.160   1.354   3.576 -2.1594 -2.2200 -1.8694
 1952Sol     MW10884   0.160   1.414   3.509  0.3052 -0.0437  0.3099
 1953Sol     OW10885   0.276   0.464   3.577  0.6825 -0.1138 -0.4589
 1953Sol     HW10886   0.345   0.528   3.559 -0.2592  0.4272 -2.2805
 1953Sol     HW10887   0.205   0.516   3.614  0.0775 -0.1429 -1.5449
 1953Sol     MW10888   0.276   0.474   3.578  0.2488 -0.2482 -0.0469
 1954Sol     OW10889   0.600   0.845   6.348 -0.0676 -0.0819  0.8312
 1954Sol     HW10890   0.565   0.802   6.426  0.0858 -1.3373  0.2277
 1954Sol     HW10891   0.652   0.777   6.305 -0.7676  0.3650 -0.7622
 1954Sol     MW10892   0.602   0.835   6.352  0.2532  0.0668  0.0497
 1955Sol     OW10893   3.139   1.034   7.255  0.0828 -0.5749 -0.0642
 1955Sol     HW10894   3.060   1.086   7.239 -0.3477 -1.3846 -0.6373
 1955Sol     HW10895   3.114   0.974   7.325  1.3214  1.5605  2.2727
 1955Sol     MW10896   3.129   1.034   7.260  0.3576  0.4961 -0.1650
 1956Sol     OW10897   0.889   0.464   3.829  0.5485 -0.1288 -0.0096
 1956Sol     HW10898   0.865   0.522   3.901  1.2456  0.3774 -0.1832
 1956Sol     HW10899   0.931   0.521   3.765  0.5997 -0.7054 -0.4928
 1956Sol     MW10900   0.890   0.474   3.829  0.3446 -0.0138 -0.2990
 1957Sol     OW10901   2.471   2.832   9.000 -0.2877 -0.0660  0.0842
 1957Sol     HW10902   2.538   2.767   8.978 -0.0550 -0.2199  1.2069
 1957Sol     HW10903   2.486   2.903   8.938  0.4652 -0.4102 -0.1406
 1957Sol     MW10904   2.479   2.832   8.993 -1.0028  0.1959 -0.0848
 1958Sol     OW10905   3.101   1.089   9.789 -0.2031 -0.1651 -0.1002
 1958Sol     HW10906   3.161   1.015   9.801  0.5318  0.2902 -0.9499
 1958Sol     HW10907   3.050   1.066   9.711  0.0164  0.2059 -0.3587
 1958Sol     MW10908   3.102   1.080   9.783 -0.1469  0.5823  0.3049
 1959Sol     OW10909   1.238   1.354   4.196  0.1986  0.2985 -0.1676
 1959Sol     HW10910   1.289   1.312   4.126 -1.7512  0.0677 -1.4952
 1959Sol     HW10911   1.244   1.447   4.176 -0.3169  0.2364 -0.6226
 1959Sol     MW10912   1.243   1.358   4.188 -0.1091 -0.2616  0.3141
 1960Sol     OW10913   3.136   3.032   9.036  0.2267 -0.0496  0.0523
 1960Sol     HW10914   3.153   3.095   8.966 -0.6473 -1.5819 -1.5964
 1960Sol     HW10915   3.222   3.014   9.074  0.7605  0.5768 -0.8509
 1960Sol     MW10916   3.145   3.036   9.033  0.1202 -0.0578  0.2307
 1961Sol     OW10917   0.011   0.539   6.759  0.3164  0.0464 -0.1324
 1961Sol     HW10918   0.104   0.555   6.777  0.1609 -0.2504  0.9223
 1961Sol     HW10919   0.000   0.445   6.770 -0.3840  0.2512  1.0091
 1961Sol     MW10920   0.019   0.532   6.761  0.8976 -0.2000  0.0470
 1962Sol     OW10921   1.617   2.933   9.030  0.4538 -0.1575  0.2481
 1962Sol     HW10922   1.642   2.847   9.064  0.0716 -0.1436  0.5596
 1962Sol     HW10923   1.555   2.968   9.094  1.5097  0.8601  0.7361
 1962Sol     MW10924   1.614   2.928   9.039  0.5442 -0.4531 -0.0003
 1963Sol     OW10925   1.860   1.284   6.790 -0.7397  0.2759 -0.3578
 1963Sol     HW10926   1.777   1.242   6.768  0.0084 -1.0564 -0.6920
 1963Sol     HW10927   1.919   1.212   6.813  0.2089  1.2301  0.2928
 1963Sol     MW10928   1.858   1.274   6.790  0.0601 -0.7508  0.1505
 1964Sol     OW10929   0.845   3.274   6.769  0.1962 -0.0391  0.2762
 1964Sol     HW10930   0.803   3.195   6.734 -1.8340  0.8310  0.6954
 1964Sol     HW10931   0.890   3.244   6.848  1.4844 -1.2402 -0.8853
 1964Sol     MW10932   0.846   3.264   6.773 -0.0400 -0.3505  0.3323
 1965Sol     OW10933   1.243   0.705   6.847 -0.5475 -0.3289  0.0521
 1965Sol     HW10934   1.322   0.682   6.896  0.5638  1.8970 -0.6040
 1965Sol     HW10935   1.176   0.717   6.914  0.2179 -0.1602  0.8014
 1965Sol     MW10936   1.244   0.704   6.858 -0.5222  0.4390  0.4631
 1966Sol     OW10937   0.907   2.268   6.999  0.0562 -0.4757  0.0488
 1966Sol     HW10938   0.884   2.202   7.064  0.1806 -0.5948 -0.0269
 1966Sol     HW10939   0.968   2.327   7.044 -1.1627  0.4152  0.5519
 1966Sol     MW10940   0.911   2.267   7.009  0.1994 -0.2782 -0.2801
 1967Sol     OW10941   2.218   2.039   8.177  0.1577 -0.0156  0.3849
 1967Sol     HW10942   2.241   2.048   8.084 -0.2503  0.7505  0.3554
 1967Sol     HW10943   2.178   1.952   8.182  0.4453 -0.1804 -0.1057
 1967Sol     MW10944   2.216   2.032   8.169 -0.1866  0.1518  0.2966
 1968Sol     OW10945   0.339   1.820   6.969 -0.0039  0.1506 -0.0834
 1968Sol     HW10946   0.351   1.823   6.874  3.4458 -0.9888  0.2526
 1968Sol     HW10947   0.316   1.728   6.987  1.7208 -0.2027  0.3944
 1968Sol     MW10948   0.338   1.812   6.962 -0.4693 -0.1263 -0.2493
 1969Sol     OW10949   1.488   1.967   5.755 -0.4554  0.3085  1.0537
 1969Sol     HW10950   1.576   1.929   5.758 -0.3099  0.4341 -0.9526
 1969Sol     HW10951   1.477   2.009   5.840  1.5805  0.6244  1.1897
 1969Sol     MW10952   1.495   1.967   5.763  0.3619 -0.1693  0.5666
 1970Sol     OW10953   0.828   2.516   2.186 -0.0716 -0.1160 -0.6642
 1970Sol     HW10954   0.786   2.590   2.142 -0.0030 -0.2142 -0.8989
 1970Sol     HW10955   0.781   2.506   2.268 -2.0130 -1.6382 -1.9079
 1970Sol     MW10956   0.820   2.522   2.189 -0.4677  0.1040 -0.7490
 1971Sol     OW10957   0.120   1.174   2.160 -0.0555 -0.3954 -0.5851
 1971Sol     HW10958   0.124   1.082   2.136 -0.1313 -0.3957 -0.5965
 1971Sol     HW10959   0.202   1.211   2.128  0.2133 -0.5699 -0.1052
 1971Sol     MW10960   0.127   1.169   2.155  0.0497 -0.0143  0.0075
 1972Sol     OW10961   0.220   2.561   2.913  0.5744 -0.2270 -0.4941
 1972Sol     HW10962   0.174   2.560   2.996  0.0642 -0.3668 -0.7769
 1972Sol     HW10963   0.151   2.571   2.847  0.8681 -1.2869 -0.9699
 1972Sol     MW10964   0.210   2.562   2.914 -0.0634  0.0089 -0.1346
 1973Sol     OW10965   2.499   2.885   2.447 -0.1508 -0.0155 -0.0766
 1973Sol     HW10966   2.538   2.972   2.450  0.8894 -0.4600 -0.5327
 1973Sol     HW10967   2.520   2.846   2.532  1.7970 -0.8277 -0.8784
 1973Sol     MW10968   2.504   2.889   2.455 -0.0078  0.1563  0.1811
 1974Sol     OW10969   2.015   0.305   5.414  0.2475 -0.1182  0.0503
 1974Sol     HW10970   1.951   0.238   5.438  0.5148  0.2112  1.7164
 1974Sol     HW10971   2.062   0.268   5.339 -0.1314 -1.4576  0.4677
 1974Sol     MW10972   2.013   0.296   5.409 -0.2430  0.4846  0.4666
 1975Sol     OW10973   3.302   0.568   6.486 -0.5932  0.3527 -0.0211
 1975Sol     HW10974   3.328   0.561   6.578  1.0093  0.0228 -0.4835
 1975Sol     HW10975   3.325   0.658   6.462 -0.9615  0.4223 -0.1121
 1975Sol     MW10976   3.307   0.576   6.493  0.1415 -0.0479  0.3595
 1976Sol     OW10977   2.470   3.420   3.844  0.3222 -0.5272 -0.0244
 1976Sol     HW10978   2.541   3.367   3.808  1.6992  1.8005 -0.8856
 1976Sol     HW10979   2.395   3.403   3.787  1.1029 -0.6033 -1.0468
 1976Sol     MW10980   2.470   3.414   3.836  0.2276 -0.6085  0.3453
 1977Sol     OW10981   2.368   0.103   9.570 -0.3368  0.5726  0.0286
 1977Sol     HW10982   2.365   0.037   9.501 -0.8005  0.1660  0.4379
 1977Sol     HW10983   2.281   0.100   9.610  0.0684  0.5170  0.9056
 1977Sol     MW10984   2.360   0.097   9.567  0.8271 -0.4724 -0.2537
 1978Sol     OW10985   2.587   1.060   9.226 -0.4138  0.2889 -0.2776
 1978Sol     HW10986   2.591   1.077   9.320 -2.0925 -0.3199 -0.0887
 1978Sol     HW10987   2.665   1.102   9.191  0.5874 -0.0552  1.4801
 1978Sol     MW10988   2.595   1.065   9.231  0.1544 -0.6088  0.2395
 1979Sol     OW10989   2.677   0.258   5.461  0.1918 -0.3987  0.5100
 1979Sol     HW10990   2.742   0.288   5.525  0.0555  0.2456  0.3543
 1979Sol     HW10991   2.662   0.335   5.405 -0.9205 -0.4553  0.7213
 1979Sol     MW10992   2.682   0.268   5.462 -0.9402  0.1128  0.0883
 1980Sol     OW10993   0.501   0.330   9.138  0.2496  0.3187 -0.3140
 1980Sol     HW10994   0.453   0.386   9.199  1.0734  0.1314  0.5195
 1980Sol     HW10995   0.535   0.391   9.072  0.6367  0.7269  0.2549
 1980Sol     MW10996   0.499   0.341   9.137 -0.2270 -0.2143  0.2025
 1981Sol     OW10997   1.636   3.328   7.962 -0.2675 -0.0910 -0.1293
 1981Sol     HW10998   1.671   3.417   7.957 -0.0047 -0.2480 -1.2394
 1981Sol     HW10999   1.650   3.302   8.053 -2.0974  1.6985  0.6848
 1981Sol     MW11000   1.641   3.334   7.969 -0.4289  0.0419 -0.2185
 1982Sol     OW11001   1.275   1.030   5.276  0.6179  0.0752  0.2606
 1982Sol     HW11002   1.199   1.027   5.334 -0.7834 -0.5491 -1.5633
 1982Sol     HW11003   1.287   1.123   5.257 -0.5398  0.0904 -0.4872
 1982Sol     MW11004   1.269   1.038   5.279  0.6504 -0.2152  0.0511
 1983Sol     OW11005   2.226   2.054   7.064  0.3901 -1.2523  0.2336
 1983Sol     HW11006   2.272   1.982   7.020 -2.0099 -2.1859 -0.8288
 1983Sol     HW11007   2.135   2.043   7.038 -0.6577 -0.1860  3.3314
 1983Sol     MW11008   2.222   2.047   7.057  0.2331 -0.3241  0.2761
 1984Sol     OW11009   1.122   0.622   4.169  0.1713  0.5396  0.2333
 1984Sol     HW11010   1.192   0.561   4.145  0.2938  1.3813 -1.6837
 1984Sol     HW11011   1.168   0.699   4.202  0.1252  0.8346 -0.3915
 1984Sol     MW11012   1.132   0.623   4.170  0.1404 -0.0527 -0.1191
 1985Sol     OW11013   0.194   1.069   7.672 -0.2240  0.3889 -0.3094
 1985Sol     HW11014   0.183   1.008   7.599 -4.1539 -0.4639  0.8610
 1985Sol     HW11015   0.233   1.016   7.742  0.1915  0.2753 -0.6272
 1985Sol     MW11016   0.196   1.059   7.672 -0.1873  0.4473  0.0019
 1986Sol     OW11017   1.824   1.481   6.977  0.2833 -0.4374  0.1200
 1986Sol     HW11018   1.847   1.410   6.916  2.3743 -0.4612  0.8972
 1986Sol     HW11019   1.859   1.453   7.061  3.8355  2.7939 -0.1247
 1986Sol     MW11020   1.830   1.472   6.979 -0.8834  0.1874  0.0103
 1987Sol     OW11021   1.546   1.341   7.492  0.6610  0.1342 -0.0376
 1987Sol     HW11022   1.550   1.246   7.479  2.8203 -0.0031  1.3505
 1987Sol     HW11023   1.482   1.352   7.561  0.6032 -0.3392 -0.0089
 1987Sol     MW11024   1.541   1.333   7.497 -0.4815  0.4407  0.2821
 1988Sol     OW11025   1.939   2.180   3.958  0.2635 -1.0257  0.5462
 1988Sol     HW11026   2.030   2.204   3.940  0.1392 -0.8777  0.1304
 1988Sol     HW11027   1.904   2.255   4.007 -0.4025  0.0893 -1.5692
 1988Sol     MW11028   1.944   2.189   3.961  0.2482  0.1317  0.0293
 1989Sol     OW11029   0.837   0.237   4.234  0.1675 -0.1746  0.4624
 1989Sol     HW11030   0.913   0.287   4.262  0.9377 -0.6672 -0.6813
 1989Sol     HW11031   0.856   0.147   4.261 -0.0471 -0.2830  0.2581
 1989Sol     MW11032   0.846   0.233   4.239 -0.0945 -0.0503  0.2818
 1990Sol     OW11033   1.619   0.830   3.938  0.2460 -0.5987 -0.1180
 1990Sol     HW11034   1.672   0.751   3.928 -0.2935 -0.6993 -2.4690
 1990Sol     HW11035   1.658   0.876   4.012  3.0761 -1.0918 -1.2490
 1990Sol     MW11036   1.627   0.827   3.944 -0.1799  0.4347  0.1760
 1991Sol     OW11037   1.020   1.839   7.185 -0.5599 -0.1877  0.7007
 1991Sol     HW11038   0.944   1.818   7.238 -0.4058 -1.9706  0.2593
 1991Sol     HW11039   1.032   1.763   7.128  1.1637  0.3305  0.3212
 1991Sol     MW11040   1.015   1.830   7.185  0.3602 -0.1483 -0.3551
 1992Sol     OW11041   2.792   3.409   5.174 -0.6787  0.0308 -0.0529
 1992Sol     HW11042   2.701   3.435   5.189 -0.4975  0.6947 -0.0617
 1992Sol     HW11043   2.795   3.316   5.195 -0.9788  0.3818  1.5775
 1992Sol     MW11044   2.784   3.403   5.177 -0.3128  0.0858 -0.1335
 1993Sol     OW11045   0.579   1.130   2.230  0.1155  0.4237 -0.2315
 1993Sol     HW11046   0.600   1.045   2.267  0.2594  0.5156 -0.1015
 1993Sol     HW11047   0.641   1.190   2.271  1.3979  0.2646 -1.8464
 1993Sol     MW11048   0.587   1.128   2.237 -0.0095 -0.5342 -0.3189
 1994Sol     OW11049   1.252   2.324   2.082 -0.0355  0.3860  0.2454
 1994Sol     HW11050   1.213   2.259   2.024  0.0052  0.9928 -0.4686
 1994Sol     HW11051   1.179   2.382   2.106 -0.0951  0.0147  0.9698
 1994Sol     MW11052   1.242   2.324   2.079 -0.2121  0.3566 -0.1627
 1995Sol     OW11053   0.692   2.296   5.339  0.0700 -0.0909 -0.5515
 1995Sol     HW11054   0.610   2.276   5.384  0.7898 -1.0935  0.3462
 1995Sol     HW11055   0.698   2.231   5.270 -0.5755  0.8638 -1.5128
 1995Sol     MW11056   0.685   2.288   5.337 -0.0362  0.5498  0.4477
 1996Sol     OW11057   2.618   2.550   8.913  0.2809  0.2378 -0.1208
 1996Sol     HW11058   2.605   2.541   8.819 -1.1381  2.1410 -0.1432
 1996Sol     HW11059   2.711   2.571   8.923  0.4387  0.0019 -1.0943
 1996Sol     MW11060   2.625   2.551   8.906  0.2956  0.2087  0.2830
 1997Sol     OW11061   2.819   3.278   6.320  0.5395 -0.0613 -0.0927
 1997Sol     HW11062   2.821   3.233   6.404 -1.6008 -0.5556 -0.2788
 1997Sol     HW11063   2.768   3.358   6.337  0.1560 -0.1274 -0.8998
 1997Sol     MW11064   2.814   3.281   6.329  0.2026  0.3403  0.0160
 1998Sol     OW11065   2.936   1.060   9.591 -0.5406  0.1996 -0.3254
 1998Sol     HW11066   2.881   1.097   9.660  0.9852  0.0403  1.0157
 1998Sol     HW11067   2.895   0.976   9.570  0.2102 -0.7934  2.0079
 1998Sol     MW11068   2.927   1.056   9.596 -0.0667 -0.5241  0.2888
 1999Sol     OW11069   2.681   2.181   7.846 -0.0337 -0.1484 -0.0110
 1999Sol     HW11070   2.657   2.089   7.856  0.2438 -0.2702 -0.4209
 1999Sol     HW11071   2.621   2.214   7.779 -0.8501  0.2517  0.9148
 1999Sol     MW11072   2.674   2.175   7.841  0.1320  0.0405 -0.3251
 2000Sol     OW11073   2.412   3.234   8.132 -0.4613 -0.2877  0.5334
 2000Sol     HW11074   2.422   3.142   8.158 -0.6316  0.0245  1.7153
 2000Sol     HW11075   2.333   3.234   8.077 -0.0252 -0.9742 -0.1071
 2000Sol     MW11076   2.406   3.226   8.130  0.2412 -0.3561  0.0406
 2001Sol     OW11077   1.445   0.599   6.985  1.0624  0.0863 -0.1991
 2001Sol     HW11078   1.452   0.514   7.029  1.4563 -0.9313 -2.1845
 2001Sol     HW11079   1.497   0.658   7.040  1.8242 -1.2268  0.5285
 2001Sol     MW11080   1.450   0.597   6.994  0.4896  0.1201 -0.3307
 2002Sol     OW11081   0.600   1.227   3.862  0.3997 -0.2354  0.1226
 2002Sol     HW11082   0.651   1.174   3.801  0.5925  0.3940 -0.2679
 2002Sol     HW11083   0.590   1.171   3.939 -0.5645 -1.3605 -0.7897
 2002Sol     MW11084   0.604   1.217   3.863 -0.5009  0.0056  0.6521
 2003Sol     OW11085   0.586   0.057   9.151  0.2413  0.1603  0.9686
 2003Sol     HW11086   0.560   0.134   9.100 -0.6613 -0.4759  0.4649
 2003Sol     HW11087   0.680   0.047   9.134 -0.3182 -0.8557 -1.6616
 2003Sol     MW11088   0.592   0.063   9.145  0.1038  0.0084  0.6412
 2004Sol     OW11089   2.694   3.147   6.788 -0.2166  0.3259 -0.1357
 2004Sol     HW11090   2.699   3.141   6.883 -3.5259 -0.2850  0.0401
 2004Sol     HW11091   2.623   3.209   6.770 -0.1644 -0.1575 -2.2082
 2004Sol     MW11092   2.688   3.152   6.795 -0.1270 -0.2101 -0.0790
 2005Sol     OW11093   2.851   2.399   5.273 -0.4692 -0.3086  0.2499
 2005Sol     HW11094   2.931   2.448   5.253 -0.3020 -0.3880  0.7126
 2005Sol     HW11095   2.882   2.321   5.321 -0.6843 -1.1299 -0.9178
 2005Sol     MW11096   2.861   2.396   5.276 -0.3520  0.0547  0.0525
 2006Sol     OW11097   1.168   1.197   7.870 -0.0705 -0.0379 -0.1860
 2006Sol     HW11098   1.205   1.275   7.912 -0.8264  0.1395  0.1762
 2006Sol     HW11099   1.161   1.221   7.777  1.3003 -0.3101 -0.3722
 2006Sol     MW11100   1.170   1.206   7.865 -0.2767 -0.1191 -0.7368
 2007Sol     OW11101   0.521   0.496   5.050 -0.5778 -0.5447  0.5776
 2007Sol     HW11102   0.428   0.476   5.039 -0.3906 -2.5754  2.1952
 2007Sol     HW11103   0.526   0.535   5.138 -0.0682  0.7798 -0.0354
 2007Sol     MW11104   0.513   0.498   5.057  0.1434  0.1490  0.0202
 2008Sol     OW11105   1.242   3.109   4.882 -0.3813 -0.0026  0.6857
 2008Sol     HW11106   1.301   3.169   4.927  0.6113  1.4489 -2.4115
 2008Sol     HW11107   1.157   3.122   4.924  0.0036  2.9723  0.6283
 2008Sol     MW11108   1.239   3.116   4.890 -0.5423  0.1359 -0.3671
 2009Sol     OW11109   0.627   2.363   5.718  0.2996 -0.7733 -0.1621
 2009Sol     HW11110   0.702   2.418   5.694  0.3515  0.1246  1.8859
 2009Sol     HW11111   0.557   2.425   5.736 -0.4709 -1.5357 -0.5060
 2009Sol     MW11112   0.628   2.374   5.718 -0.6942  0.5372  0.4314
 2010Sol     OW11113   1.067   0.102   5.139  0.2640 -0.0372  0.1923
 2010Sol     HW11114   1.147   0.130   5.185  0.7745 -0.1500 -0.6185
 2010Sol     HW11115   1.062   0.008   5.155  0.9139 -0.2310 -0.6848
 2010Sol     MW11116   1.074   0.096   5.145 -0.2303  0.3328 -0.3450
 2011Sol     OW11117   3.036   1.684   2.230 -0.4318 -0.2074  0.2178
 2011Sol     HW11118   3.080   1.769   2.225 -0.7922 -0.0192  0.2651
 2011Sol     HW11119   2.965   1.698   2.293 -0.7597 -0.4255 -0.1041
 2011Sol     MW11120   3.034   1.693   2.235  0.8750 -0.7537 -0.2215
 2012Sol     OW11121   0.123   1.346   9.098 -0.0773 -0.9538 -0.3732
 2012Sol     HW11122   0.035   1.380   9.086  0.7931  2.0560  1.2586
 2012Sol     HW11123   0.161   1.345   9.010 -0.9134  0.1604 -0.7556
 2012Sol     MW11124   0.119   1.349   9.089 -0.5514 -0.2192 -0.2838
 2013Sol     OW11125   2.041   3.403   9.358 -0.3020  0.1511  0.0466
 2013Sol     HW11126   2.112   3.340   9.353 -0.3885  0.1058 -0.6255
 2013Sol     HW11127   2.071   3.469   9.420  0.4444  0.2919 -0.4714
 2013Sol     MW11128   2.050   3.403   9.363 -0.0184  0.2860 -0.1646
 2014Sol     OW11129   3.045   3.247   3.205 -0.3290  0.3030  0.3124
 2014Sol     HW11130   3.041   3.250   3.109  0.7088 -0.8631  0.2029
 2014Sol     HW11131   3.088   3.163   3.223 -1.2376  0.1620  1.8231
 2014Sol     MW11132   3.049   3.240   3.198  0.2412 -0.1217 -0.5600
 2015Sol     OW11133   0.107   3.281   4.070  0.5665  0.7327  0.0317
 2015Sol     HW11134   0.107   3.355   4.131  1.4506 -0.0800  1.0295
 2015Sol     HW11135   0.079   3.206   4.123  0.9278  0.1014 -0.6620
 2015Sol     MW11136   0.105   3.281   4.081  0.3345  0.4570  0.2177
 2016Sol     OW11137   0.896   3.210   8.997 -0.0414 -0.9882  0.2141
 2016Sol     HW11138   0.839   3.139   9.028 -0.5945  0.0673  1.6288
 2016Sol     HW11139   0.942   3.241   9.076 -0.2549  0.6396 -0.2866
 2016Sol     MW11140   0.895   3.206   9.007 -0.4116  0.0259 -0.2740
 2017Sol     OW11141   1.126   0.046   6.680  0.1733  0.2064  0.0449
 2017Sol     HW11142   1.135   0.126   6.732 -2.7997  1.4081 -1.1652
 2017Sol     HW11143   1.146  -0.024   6.742  1.5958  1.7980  1.4662
 2017Sol     MW11144   1.129   0.047   6.690 -0.3178  0.0675  0.1493
 2018Sol     OW11145   1.424   1.720   8.718 -0.0221 -0.0313  0.4579
 2018Sol     HW11146   1.519   1.719   8.711 -0.0307  2.4975 -0.7643
 2018Sol     HW11147   1.406   1.725   8.812  1.0387 -0.6773  0.6941
 2018Sol     MW11148   1.431   1.720   8.726 -0.1231 -0.0910  0.3881
 2019Sol     OW11149   0.628   0.375   1.492  0.0169 -0.5006 -0.2831
 2019Sol     HW11150   0.668   0.293   1.521 -0.0972 -0.4478  0.0262
 2019Sol     HW11151   0.699   0.423   1.450  0.4051 -0.1802  0.7275
 2019Sol     MW11152   0.638   0.372   1.491 -0.0932 -0.9773  0.3733
 2020Sol     OW11153   0.350   0.570   5.542  0.3066  0.4692  0.6098
 2020Sol     HW11154   0.414   0.579   5.613  1.8908  0.1269 -0.7381
 2020Sol     HW11155   0.331   0.661   5.516  1.3395  0.5401  0.0719
 2020Sol     MW11156   0.354   0.579   5.546 -0.2845  0.1823 -0.3002
 2021Sol     OW11157   2.224   1.267   1.658  0.0391 -0.0817  0.0798
 2021Sol     HW11158   2.172   1.290   1.582 -0.6628 -0.1143  0.5465
 2021Sol     HW11159   2.179   1.192   1.697 -0.2157  0.5954  1.1276
 2021Sol     MW11160   2.215   1.262   1.655  0.1943  0.0428 -0.1762
 2022Sol     OW11161   2.427   1.262   9.266 -0.5583  0.2126 -0.1289
 2022Sol     HW11162   2.496   1.202   9.239 -3.4688 -2.1442 -2.8134
 2022Sol     HW11163   2.417   1.247   9.360  0.9701 -1.1690 -0.1738
 2022Sol     MW11164   2.432   1.255   9.272 -0.0951 -0.5231  0.0541
 2023Sol     OW11165   0.707   1.399   8.914 -0.6818  0.9610  0.2351
 2023Sol     HW11166   0.782   1.340   8.919 -0.5998  0.9879 -0.6428
 2023Sol     HW11167   0.689   1.424   9.005 -0.4517 -0.0816  0.5664
 2023Sol     MW11168   0.712   1.396   8.923 -0.1364 -0.2293 -0.0784
 2024Sol     OW11169   1.489   1.555   6.199  0.3013 -0.5508 -0.1934
 2024Sol     HW11170   1.535   1.563   6.115  1.9992  1.9301  0.9158
 2024Sol     HW11171   1.462   1.644   6.220 -1.1915 -1.3359  1.3298
 2024Sol     MW11172   1.491   1.564   6.193  0.4541 -0.2926  0.5737
 2025Sol     OW11173   0.920   2.045   4.675  0.0802  0.5886 -0.0484
 2025Sol     HW11174   0.880   2.027   4.591  0.3114  2.2293 -0.5284
 2025Sol     HW11175   0.909   2.139   4.688 -1.1226  0.1749  2.3606
 2025Sol     MW11176   0.915   2.052   4.669  0.4162  0.0096  0.1904
 2026Sol     OW11177   0.139   2.384   3.408 -0.1592  0.1698 -0.5759
 2026Sol     HW11178   0.146   2.316   3.341 -2.9299 -0.5561 -0.2006
 2026Sol     HW11179   0.133   2.466   3.359 -0.6710 -0.2260 -1.1853
 2026Sol     MW11180   0.139   2.385   3.397  0.1862  0.0260 -0.4273
 2027Sol     OW11181   1.599   3.145   1.886  0.5173 -0.1649  0.1687
 2027Sol     HW11182   1.623   3.054   1.906  0.5801 -0.2358 -0.2370
 2027Sol     HW11183   1.511   3.139   1.851  0.2522  0.0038  0.7977
 2027Sol     MW11184   1.593   3.136   1.885 -0.3917 -0.3270  0.3054
 2028Sol     OW11185   1.096   0.816   9.103 -0.1547  0.1559  0.3233
 2028Sol     HW11186   1.130   0.771   9.026  0.6944  1.4632 -0.0721
 2028Sol     HW11187   1.174   0.842   9.152 -0.6223  1.3409  0.4595
 2028Sol     MW11188   1.106   0.814   9.101  0.4306  0.2665  0.0390
 2029Sol     OW11189   1.743   2.488   1.434  0.6505 -0.3336  0.6182
 2029Sol     HW11190   1.809   2.492   1.502  0.3994 -0.1747  0.8509
 2029Sol     HW11191   1.735   2.394   1.415  3.0113 -0.1753 -1.4440
 2029Sol     MW11192   1.748   2.480   1.438 -0.0568 -0.0516 -0.0999
 2030Sol     OW11193   0.744   1.266   3.476 -0.0174 -0.1888  0.8399
 2030Sol     HW11194   0.693   1.322   3.416  0.8305  0.5481  0.7950
 2030Sol     HW11195   0.790   1.206   3.418  2.6878  2.0740  0.5362
 2030Sol     MW11196   0.743   1.266   3.465  0.0372  0.0375  0.6495
 2031Sol     OW11197   1.299   2.434   4.153  0.4643 -0.1224 -0.3292
 2031Sol     HW11198   1.372   2.372   4.143  0.9264  0.1558  1.1565
 2031Sol     HW11199   1.288   2.472   4.066  1.1454 -1.2143 -0.9175
 2031Sol     MW11200   1.305   2.432   4.144 -0.0390  0.3569 -0.3026
 2032Sol     OW11201   0.109   2.647   6.895 -0.7366  0.3324  0.8409
 2032Sol     HW11202   0.066   2.565   6.920 -0.3789 -0.4193 -0.9991
 2032Sol     HW11203   0.189   2.620   6.851 -1.2358  1.6497 -0.9135
 2032Sol     MW11204   0.112   2.637   6.894 -0.6257 -0.3482 -0.0644
 2033Sol     OW11205   2.371   1.650   4.314  0.0809 -0.2854 -0.3303
 2033Sol     HW11206   2.362   1.555   4.325 -0.2747 -0.0381  1.6934
 2033Sol     HW11207   2.419   1.679   4.392  0.1093  1.2126 -0.8816
 2033Sol     MW11208   2.375   1.644   4.322 -0.4558  0.6287  0.4110
 2034Sol     OW11209   1.239   1.681   6.610  0.0202  0.0821 -0.5938
 2034Sol     HW11210   1.260   1.774   6.605  1.7506 -0.2598  0.0767
 2034Sol     HW11211   1.308   1.644   6.664 -2.3929 -1.0522  1.8327
 2034Sol     MW11212   1.247   1.686   6.615  0.2160  0.4753 -0.5813
 2035Sol     OW11213   2.624   2.180   7.321 -0.2817  0.0267  0.1384
 2035Sol     HW11214   2.634   2.085   7.327  2.2066  0.0308 -2.5547
 2035Sol     HW11215   2.701   2.215   7.366  0.1974  0.6740 -1.1606
 2035Sol     MW11216   2.632   2.174   7.326 -0.1755  0.3407 -0.9474
 2036Sol     OW11217   1.135   0.844   3.924  0.0176  0.1443 -0.3843
 2036Sol     HW11218   1.113   0.786   3.996  0.1510  1.7257  0.9522
 2036Sol     HW11219   1.086   0.924   3.941  2.8702  1.8957 -0.0456
 2036Sol     MW11220   1.129   0.846   3.932  0.3442  0.3595  0.1145
 2037Sol     OW11221   0.148   1.817   3.826  0.4710 -0.4910 -0.3289
 2037Sol     HW11222   0.216   1.780   3.770 -0.6312  0.0591 -2.0901
 2037Sol     HW11223   0.196   1.864   3.894  1.8655 -0.1370 -1.5177
 2037Sol     MW11224   0.158   1.818   3.827  0.0150  0.2811  0.2303
 2038Sol     OW11225   2.584   0.527   1.908 -0.4800  0.3282 -0.7170
 2038Sol     HW11226   2.669   0.552   1.873 -1.5131  0.6187 -3.0767
 2038Sol     HW11227   2.590   0.432   1.921  0.1625  0.3363 -0.9659
 2038Sol     MW11228   2.592   0.520   1.906  0.1338  0.0193  0.1582
 2039Sol     OW11229   0.319   2.997   7.264  0.0974 -0.4360  0.4133
 2039Sol     HW11230   0.339   3.021   7.355 -0.0384  0.7323  0.1394
 2039Sol     HW11231   0.405   2.988   7.223  0.1425  0.7740  0.2191
 2039Sol     MW11232   0.329   2.998   7.269 -0.7529  0.2880 -0.2547
 2040Sol     OW11233   2.382   1.496   7.898 -0.3273  0.0970 -0.2171
 2040Sol     HW11234   2.393   1.499   7.802 -0.3093 -0.2648 -0.2275
 2040Sol     HW11235   2.377   1.403   7.918 -0.9620  0.1919  0.0687
 2040Sol     MW11236   2.383   1.488   7.891 -0.0330 -0.0472 -0.3684
 2041Sol     OW11237   2.091   0.580   3.282 -0.2689  0.2861  0.7524
 2041Sol     HW11238   2.094   0.667   3.322  0.5141  0.9098 -0.5897
 2041Sol     HW11239   2.001   0.570   3.252  0.3780  2.0183 -1.9526
 2041Sol     MW11240   2.084   0.587   3.283  0.5445  0.1929  0.0007
 2042Sol     OW11241   1.897   1.215   3.526 -0.4287 -0.3541  0.3184
 2042Sol     HW11242   1.955   1.142   3.548 -1.6158 -1.5619 -0.4874
 2042Sol     HW11243   1.903   1.221   3.430  0.9478  1.6891  0.5195
 2042Sol     MW11244   1.903   1.209   3.519 -0.2094  0.3545  0.0231
 2043Sol     OW11245   2.211   0.808   7.480  0.3175 -0.1016  0.1060
 2043Sol     HW11246   2.263   0.888   7.475  0.5969 -0.2589  0.4428
 2043Sol     HW11247   2.232   0.760   7.400  0.1271  0.1719 -0.1098
 2043Sol     MW11248   2.217   0.811   7.473 -0.1442 -0.1455 -0.3544
 2044Sol     OW11249   2.463   1.554   8.362 -0.0333  0.1263  0.2670
 2044Sol     HW11250   2.401   1.543   8.289 -1.0553  0.5677  1.0523
 2044Sol     HW11251   2.488   1.646   8.359  1.3128 -0.2485 -0.6054
 2044Sol     MW11252   2.460   1.561   8.355 -0.0567 -0.5842 -0.0225
 2045Sol     OW11253   3.315   0.224   6.262 -0.2760 -0.5829  0.2285
 2045Sol     HW11254   3.254   0.157   6.230 -0.2742 -0.3285 -0.3147
 2045Sol     HW11255   3.263   0.277   6.322 -0.2941 -1.0268  0.6162
 2045Sol     MW11256   3.305   0.222   6.265 -0.2164 -0.1360 -0.1400
 2046Sol     OW11257   2.117   0.675   1.835 -0.9006 -0.1364  0.3919
 2046Sol     HW11258   2.082   0.757   1.800  1.1233  0.5372 -0.1408
 2046Sol     HW11259   2.208   0.672   1.804 -0.5409 -1.9391  1.4990
 2046Sol     MW11260   2.122   0.682   1.829  0.2201 -0.4794 -0.1365
 2047Sol     OW11261   0.922   1.176   6.008 -0.5283  0.6187  0.0889
 2047Sol     HW11262   0.853   1.238   5.982  0.5832  1.8533  0.0162
 2047Sol     HW11263   1.004   1.219   5.982  0.2905 -0.6830  0.4725
 2047Sol     MW11264   0.923   1.186   6.004  0.3625 -0.0392 -0.0796
 2048Sol     OW11265   0.267   0.454   2.246 -0.5109  0.1172  0.1518
 2048Sol     HW11266   0.201   0.519   2.221 -0.6191  1.2545  3.1588
 2048Sol     HW11267   0.221   0.394   2.305  0.6726 -0.1856  0.7891
 2048Sol     MW11268   0.257   0.454   2.249 -0.3062  0.0487 -0.1074
 2049Sol     OW11269   0.155   1.456   4.685  0.1017  0.8814  0.2839
 2049Sol     HW11270   0.228   1.396   4.701  0.8996  2.4678  2.8760
 2049Sol     HW11271   0.196   1.543   4.681 -1.1824  1.4338 -2.2092
 2049Sol     MW11272   0.165   1.459   4.686 -0.0535 -0.6053 -0.8401
 2050Sol     OW11273   1.220   1.063   9.737 -0.0992  0.2156 -0.0104
 2050Sol     HW11274   1.155   1.074   9.807  0.3966  0.9394  0.3521
 2050Sol     HW11275   1.297   1.111   9.769  1.0132 -1.5991  0.0964
 2050Sol     MW11276   1.221   1.068   9.746  0.1667 -0.2550 -0.1678
 2051Sol     OW11277   1.145   2.792   5.602  0.1574 -0.5837 -0.0607
 2051Sol     HW11278   1.144   2.795   5.698  1.4418  1.4247 -0.0985
 2051Sol     HW11279   1.064   2.835   5.576  0.8999  0.9474  0.1034
 2051Sol     MW11280   1.138   2.796   5.608 -0.1800  0.8577  0.1508
 2052Sol     OW11281   2.498   2.610   2.198 -0.3874  0.0692 -0.1628
 2052Sol     HW11282   2.492   2.703   2.222 -2.2146 -0.2082  0.5343
 2052Sol     HW11283   2.432   2.598   2.130 -0.9517 -0.9563  0.5550
 2052Sol     MW11284   2.492   2.618   2.194 -0.1237  0.3048  0.1203
 2053Sol     OW11285   1.382   0.955   1.423  0.3307  0.1150 -0.0577
 2053Sol     HW11286   1.372   0.947   1.518 -1.5732 -1.2582 -0.3632
 2053Sol     HW11287   1.346   1.042   1.403  1.0331  0.5409  0.5113
 2053Sol     MW11288   1.378   0.962   1.430 -0.0983 -0.1555  0.2937
 2054Sol     OW11289   2.046   3.100   5.531 -0.2509 -0.3082  0.3610
 2054Sol     HW11290   2.045   3.194   5.548 -1.3778 -0.0934 -0.8225
 2054Sol     HW11291   2.136   3.081   5.507 -0.5280  0.9279 -1.8014
 2054Sol     MW11292   2.054   3.107   5.531  0.3615  0.0626 -0.2930
 2055Sol     OW11293   1.608   0.801   5.144 -0.6978  0.2776 -0.7725
 2055Sol     HW11294   1.520   0.768   5.165 -1.2230  2.4227  0.6713
 2055Sol     HW11295   1.657   0.791   5.225  0.2132 -0.3359 -1.3952
 2055Sol     MW11296   1.604   0.797   5.153  0.1897  0.2949 -0.1104
 2056Sol     OW11297   2.248   1.245   7.529  0.2004  0.0392  0.0632
 2056Sol     HW11298   2.282   1.159   7.552 -0.5841 -0.9178 -2.1832
 2056Sol     HW11299   2.163   1.250   7.574 -0.7142 -1.2514 -1.4765
 2056Sol     MW11300   2.243   1.238   7.535 -0.1131  0.2321  0.4913
 2057Sol     OW11301   2.095   1.812   7.864  0.1935  0.1725  0.6018
 2057Sol     HW11302   2.072   1.890   7.915 -0.1965 -0.2337  1.0461
 2057Sol     HW11303   2.082   1.739   7.924  0.7588 -0.2226  0.2497
 2057Sol     MW11304   2.092   1.812   7.874 -0.7206  0.6202  0.1336
 2058Sol     OW11305   0.984   0.842   4.684  0.6538 -0.0178 -0.1239
 2058Sol     HW11306   0.912   0.789   4.718 -0.3388  0.0452 -2.0907
 2058Sol     HW11307   0.967   0.930   4.718  0.1840 -0.1475 -0.0219
 2058Sol     MW11308   0.976   0.845   4.690  0.2273 -0.2461 -0.0671
 2059Sol     OW11309   2.358   1.073   6.686 -0.2643 -0.4412  0.1132
 2059Sol     HW11310   2.421   1.092   6.756  1.4743 -1.6472 -1.0926
 2059Sol     HW11311   2.355   1.153   6.634 -0.0668 -0.2330  0.4171
 2059Sol     MW11312   2.364   1.082   6.688 -0.2883  0.1451  0.3315
 2060Sol     OW11313   2.112   1.575   6.449 -0.6009 -0.4813  0.7107
 2060Sol     HW11314   2.060   1.501   6.481  0.0691 -1.3889 -0.2642
 2060Sol     HW11315   2.160   1.605   6.526 -0.3202 -1.5345  0.9619
 2060Sol     MW11316   2.112   1.571   6.459 -0.1393  0.6491 -0.1862
 2061Sol     OW11317   1.739   3.146   6.127 -0.3207  0.3861  0.3795
 2061Sol     HW11318   1.739   3.097   6.209 -0.6920  2.5576  1.7213
 2061Sol     HW11319   1.828   3.178   6.118 -0.6963  1.5892  0.8418
 2061Sol     MW11320   1.747   3.145   6.134 -0.2285  0.3597  0.2291
 2062Sol     OW11321   1.746   0.374   7.854  0.3409  0.6329 -0.7071
 2062Sol     HW11322   1.652   0.375   7.874  0.1166 -0.0987 -1.6665
 2062Sol     HW11323   1.758   0.447   7.793  0.3263  0.5168 -0.8499
 2062Sol     MW11324   1.739   0.380   7.850 -0.0972  0.2727 -0.1160
 2063Sol     OW11325   0.497   0.054   4.777  0.2851 -0.0151 -0.1727
 2063Sol     HW11326   0.413   0.090   4.805  0.5732  1.4854 -1.1867
 2063Sol     HW11327   0.485  -0.041   4.782 -0.1386  0.1667  3.5726
 2063Sol     MW11328   0.488   0.048   4.780 -0.2603 -0.4209  0.1736
 2064Sol     OW11329   2.532   1.032   1.916  0.5484 -0.2404  0.2589
 2064Sol     HW11330   2.507   0.965   1.980 -1.6327  0.4762  0.2158
 2064Sol     HW11331   2.499   1.114   1.953 -0.0007  0.3043 -1.3736
 2064Sol     MW11332   2.526   1.033   1.925 -0.1507 -0.4451  0.4744
 2065Sol     OW11333   3.322   2.888   6.155  0.3275  0.5253  0.1408
 2065Sol     HW11334   3.248   2.831   6.133 -1.4462  1.9857  2.1211
 2065Sol     HW11335   3.395   2.828   6.170 -0.3518 -0.9364 -2.0972
 2065Sol     MW11336   3.322   2.878   6.154 -0.0614 -0.3501  0.3201
 2066Sol     OW11337   1.017   2.657   7.620  0.2579 -0.5803  0.0255
 2066Sol     HW11338   0.950   2.598   7.585  0.0146 -0.8735  0.9633
 2066Sol     HW11339   0.989   2.745   7.592 -0.4724 -0.7114  0.3379
 2066Sol     MW11340   1.008   2.660   7.614  0.0929 -0.5371 -0.0360
 2067Sol     OW11341   0.598   0.021   2.165  0.3274 -0.0612  0.4234
 2067Sol     HW11342   0.532  -0.032   2.120 -0.4851  1.5340 -0.3141
 2067Sol     HW11343   0.556   0.046   2.247 -0.0999  1.1493 -0.1495
 2067Sol     MW11344   0.588   0.019   2.168 -0.0471  0.1712 -0.0871
 2068Sol     OW11345   2.984   3.285   4.213 -0.2491 -0.1845 -0.2125
 2068Sol     HW11346   2.992   3.228   4.290  1.2018 -0.9425 -0.8983
 2068Sol     HW11347   2.993   3.226   4.138 -1.2694  0.6005 -0.9706
 2068Sol     MW11348   2.986   3.275   4.213  0.5369 -0.1539 -0.2205
 2069Sol     OW11349   1.075   0.653   2.430  0.8553  0.2578 -0.0500
 2069Sol     HW11350   1.012   0.581   2.435 -0.4930  1.3481 -1.1971
 2069Sol     HW11351   1.151   0.615   2.385 -0.4681 -0.0306 -2.0765
 2069Sol     MW11352   1.076   0.643   2.427 -0.1597  0.0194 -0.4640
 2070Sol     OW11353   0.851   1.206   3.063  0.2059  0.0255  0.1235
 2070Sol     HW11354   0.765   1.170   3.040  0.4848 -0.4674 -0.1511
 2070Sol     HW11355   0.864   1.179   3.154 -0.4524  1.1191  0.5555
 2070Sol     MW11356   0.844   1.200   3.069 -0.2290 -0.0638 -0.1209
 2071Sol     OW11357   2.225   2.026   2.738 -0.4928  0.0343  0.1842
 2071Sol     HW11358   2.187   1.963   2.799 -0.0246 -0.8644 -0.4396
 2071Sol     HW11359   2.258   2.097   2.794 -2.7490  0.6597  0.7536
 2071Sol     MW11360   2.225   2.026   2.749  0.1151 -0.1309 -0.5937
 2072Sol     OW11361   2.758   1.636   8.249  0.1352  0.2970  0.5566
 2072Sol     HW11362   2.695   1.675   8.310  0.7738  0.4130  1.1544
 2072Sol     HW11363   2.734   1.543   8.245 -0.0530  0.3348  0.8077
 2072Sol     MW11364   2.750   1.631   8.254  0.3589 -0.0842  0.0500
 2073Sol     OW11365   1.129   2.082   7.848 -0.1635 -0.0091  0.8096
 2073Sol     HW11366   1.062   2.110   7.911  0.1677  2.7333  0.0108
 2073Sol     HW11367   1.169   2.163   7.818  1.1998 -1.4139 -1.2979
 2073Sol     MW11368   1.126   2.091   7.851  0.1092 -0.0766  0.8146
 2074Sol     OW11369   2.924   2.528   6.182 -0.7198 -0.0770 -0.0289
 2074Sol     HW11370   2.937   2.574   6.264 -0.6530 -0.4310  0.1614
 2074Sol     HW11371   2.998   2.468   6.175 -0.9769 -0.3947 -0.1050
 2074Sol     MW11372   2.931   2.527   6.188 -0.5623 -0.4593 -0.2570
 2075Sol     OW11373   2.859   2.017   9.425 -0.2151 -0.0182  0.7037
 2075Sol     HW11374   2.794   1.983   9.364  1.2126 -1.8327  0.1200
 2075Sol     HW11375   2.823   2.100   9.456 -2.5334 -0.7231  0.0005
 2075Sol     MW11376   2.850   2.021   9.422  0.3897 -0.1975 -0.3299
 2076Sol     OW11377   1.692   1.242   5.723 -0.5208  0.4476 -0.3674
 2076Sol     HW11378   1.676   1.311   5.659 -1.0223  0.5300 -0.1492
 2076Sol     HW11379   1.685   1.161   5.673  0.1612  0.5476 -0.6447
 2076Sol     MW11380   1.690   1.241   5.713  0.2176  0.0676 -0.0128
 2077Sol     OW11381   2.121   3.425   6.466  0.3325  0.5102  0.1053
 2077Sol     HW11382   2.172   3.485   6.521 -0.5400 -0.3005  1.8361
 2077Sol     HW11383   2.046   3.401   6.520 -0.9744  0.2986 -1.7505
 2077Sol     MW11384   2.119   3.428   6.476  0.3285 -0.3617  0.4902
 2078Sol     OW11385   2.170   1.795   8.241  0.6396 -0.6722 -0.2309
 2078Sol     HW11386   2.087   1.753   8.263 -0.4277  0.6121 -1.6043
 2078Sol     HW11387   2.224   1.725   8.204 -0.2100 -1.3293 -0.2407
 2078Sol     MW11388   2.167   1.785   8.239 -0.3512 -0.3306 -0.2213
 2079Sol     OW11389   0.868   1.898   9.787 -0.3912  0.2029  0.1549
 2079Sol     HW11390   0.823   1.922   9.868 -0.5867  0.7687 -0.1162
 2079Sol     HW11391   0.811   1.930   9.717 -0.2098 -0.2576 -0.2073
 2079Sol     MW11392   0.859   1.903   9.788  0.2875  0.0197 -0.4030
 2080Sol     OW11393   3.090   2.285   6.280  0.0515  0.6358  0.4929
 2080Sol     HW11394   3.078   2.198   6.242 -0.5904 -0.0026  2.1206
 2080Sol     HW11395   3.167   2.277   6.336 -0.0023  1.1278  0.6412
 2080Sol     MW11396   3.096   2.277   6.281  0.2975  0.5422  0.1291
 2081Sol     OW11397   0.944   1.093   4.771 -0.0146  0.0477  0.4038
 2081Sol     HW11398   0.977   1.126   4.687  0.2104  0.4145  0.6345
 2081Sol     HW11399   0.915   1.171   4.818 -1.2319 -0.2759  0.1992
 2081Sol     MW11400   0.944   1.103   4.768 -0.0880  0.1880  0.0780
 2082Sol     OW11401   0.257   0.832   5.764 -0.0905  0.1957 -0.2300
 2082Sol     HW11402   0.209   0.752   5.786 -2.7295  2.0481  1.1414
 2082Sol     HW11403   0.252   0.837   5.669  0.7724 -1.6563 -0.3870
 2082Sol     MW11404   0.252   0.825   5.758  0.2923 -0.2963  0.4995
 2083Sol     OW11405   0.269   2.116   9.451  0.2564 -0.0250  0.2434
 2083Sol     HW11406   0.191   2.119   9.395 -0.0431 -0.0185  0.6495
 2083Sol     HW11407   0.235   2.137   9.538  0.6770 -0.2492  0.4604
 2083Sol     MW11408   0.259   2.118   9.454  0.1532 -0.3977 -0.3465
 2084Sol     OW11409   2.395   3.240   3.346 -0.7919  0.1362  0.3784
 2084Sol     HW11410   2.300   3.254   3.349 -0.5971  1.5166  0.5736
 2084Sol     HW11411   2.432   3.324   3.375  0.4621 -1.0684  2.3378
 2084Sol     MW11412   2.390   3.249   3.349  0.3982 -0.0005 -0.2455
 2085Sol     OW11413   3.002   3.396   8.500 -0.1451  0.5479 -0.0470
 2085Sol     HW11414   2.932   3.368   8.441 -1.0155 -0.2421  1.3344
 2085Sol     HW11415   3.080   3.397   8.445 -1.1627  1.1051 -1.5268
 2085Sol     MW11416   3.003   3.394   8.490  0.1796  0.0684 -0.3314
 2086Sol     OW11417   2.846   1.010   7.696 -0.3339 -0.5083  0.4113
 2086Sol     HW11418   2.896   1.011   7.777 -1.7265  0.0508  1.2819
 2086Sol     HW11419   2.766   1.058   7.716 -0.0184  1.0214 -1.7326
 2086Sol     MW11420   2.844   1.014   7.705 -0.0450 -0.0085  0.5096
 2087Sol     OW11421   3.055   0.578   7.607  0.2718 -0.8475 -0.6109
 2087Sol     HW11422   2.983   0.641   7.606  0.8074 -0.2479 -2.3142
 2087Sol     HW11423   3.126   0.622   7.654 -0.1742 -1.1111  0.3169
 2087Sol     MW11424   3.055   0.587   7.611  0.2570  0.2009  0.7043
 2088Sol     OW11425   2.588   2.029   2.849 -0.1208 -0.1003 -0.3719
 2088Sol     HW11426   2.563   1.974   2.775 -0.8033 -0.0894 -0.1500
 2088Sol     HW11427   2.550   2.115   2.828  0.4786  0.1466 -0.4575
 2088Sol     MW11428   2.582   2.032   2.840 -0.0891 -0.1271  0.7062
 2089Sol     OW11429   3.197   2.789   8.001 -0.0396  0.0577 -0.4864
 2089Sol     HW11430   3.215   2.879   8.028  0.7698  0.3635 -2.0159
 2089Sol     HW11431   3.115   2.795   7.952  0.3493  0.0659 -1.1385
 2089Sol     MW11432   3.191   2.797   7.999 -0.2659  0.3040 -0.0837
 2090Sol     OW11433   1.204   1.355   9.342 -0.0306  0.1036 -0.5771
 2090Sol     HW11434   1.135   1.406   9.385  0.6174 -0.3760  1.0699
 2090Sol     HW11435   1.226   1.286   9.405  0.0674 -1.3825 -2.2167
 2090Sol     MW11436   1.200   1.354   9.352 -0.3195 -0.3026 -0.1504
 2091Sol     OW11437   3.280   1.527   5.515 -0.2305 -0.4435  0.0537
 2091Sol     HW11438   3.341   1.476   5.568 -0.2710 -0.5442  0.0034
 2091Sol     HW11439   3.317   1.616   5.516 -0.2282 -0.4452  0.2453
 2091Sol     MW11440   3.289   1.531   5.520 -0.0110 -0.4494 -0.3568
 2092Sol     OW11441   1.444   0.854   2.962 -0.6169 -0.4952 -0.9551
 2092Sol     HW11442   1.378   0.878   3.027 -0.5987 -2.4426 -0.1873
 2092Sol     HW11443   1.450   0.931   2.905  0.0408  1.6076  1.8461
 2092Sol     MW11444   1.438   0.863   2.962  0.3138  0.3867 -0.2493
 2093Sol     OW11445   1.600   1.147   6.152 -0.1896  0.0009 -0.3599
 2093Sol     HW11446   1.538   1.073   6.146 -1.2379  0.7089  1.4127
 2093Sol     HW11447   1.602   1.183   6.064 -1.7528 -0.5007 -0.6158
 2093Sol     MW11448   1.594   1.143   6.144  0.0220 -0.3081  0.9116
 2094Sol     OW11449   2.949   3.439   3.402  0.5336  0.1724 -0.2448
 2094Sol     HW11450   2.980   3.409   3.317  2.5346  1.4516 -0.0275
 2094Sol     HW11451   2.866   3.482   3.384  0.9161  0.3840 -1.5694
 2094Sol     MW11452   2.945   3.440   3.393  0.1821  0.0331 -0.1448
 2095Sol     OW11453   2.225   0.679   5.339 -0.0387 -0.1730 -0.4556
 2095Sol     HW11454   2.249   0.687   5.432  0.5316 -1.0297 -0.5271
 2095Sol     HW11455   2.143   0.631   5.339  1.0508 -2.0726 -0.4990
 2095Sol     MW11456   2.220   0.676   5.347 -0.2020  0.2479 -0.1356
 2096Sol     OW11457   0.410   0.799   3.763 -0.3236 -0.1526 -0.2790
 2096Sol     HW11458   0.329   0.772   3.806 -0.2192 -1.7203 -1.0421
 2096Sol     HW11459   0.474   0.733   3.788  0.2643  0.0773 -1.1534
 2096Sol     MW11460   0.408   0.791   3.769 -0.2480  0.0963  0.1608
 2097Sol     OW11461   0.867   1.781   2.130 -0.4235 -0.0489  0.1083
 2097Sol     HW11462   0.883   1.874   2.113  0.7927 -0.1675  0.5541
 2097Sol     HW11463   0.863   1.741   2.043  1.5685  0.0255 -0.0452
 2097Sol     MW11464   0.868   1.786   2.120 -0.3864 -0.2125 -0.3589
 2098Sol     OW11465   0.549   0.084   7.177 -0.7457  0.2666  0.1662
 2098Sol     HW11466   0.641   0.107   7.164 -0.8231 -0.5860 -2.0330
 2098Sol     HW11467   0.545  -0.010   7.160 -1.9624  0.2366  0.5803
 2098Sol     MW11468   0.557   0.078   7.174 -0.1229 -0.3187  0.4004
 2099Sol     OW11469   0.833   2.383   7.322  0.1623  0.5732  0.0820
 2099Sol     HW11470   0.838   2.291   7.295 -1.0368 -0.1280  2.1456
 2099Sol     HW11471   0.755   2.417   7.278 -0.6756 -0.0382  1.0535
 2099Sol     MW11472   0.826   2.378   7.316 -0.1789 -0.1848 -0.2013
 2100Sol     OW11473   0.012   2.802   2.902  0.6439 -0.8577 -0.2888
 2100Sol     HW11474  -0.049   2.869   2.873  1.7293  0.7959  1.1881
 2100Sol     HW11475   0.094   2.849   2.920  1.6390 -2.6632  0.1111
 2100Sol     MW11476   0.014   2.812   2.901  0.1279  0.4678  0.0786
 2101Sol     OW11477   2.250   1.960   7.623  0.3337  0.5202  0.6570
 2101Sol     HW11478   2.200   1.999   7.551  1.4552 -0.5302 -0.7241
 2101Sol     HW11479   2.222   1.869   7.626 -1.2609  1.0409  2.9753
 2101Sol     MW11480   2.243   1.955   7.617  0.2844  0.5718  0.1022
 2102Sol     OW11481   3.024   1.621   8.391  0.0019  0.2258 -0.2303
 2102Sol     HW11482   2.954   1.629   8.327 -0.1368 -0.9958 -0.2256
 2102Sol     HW11483   3.029   1.528   8.412  1.4304  0.3311 -0.0164
 2102Sol     MW11484   3.018   1.614   8.387  0.2516 -0.1757 -0.3969
 2103Sol     OW11485   1.354   2.713   5.443  0.0324 -0.0295 -0.0916
 2103Sol     HW11486   1.269   2.751   5.462 -0.2912 -0.8148  0.0417
 2103Sol     HW11487   1.368   2.731   5.350 -0.7148 -0.7530 -0.3472
 2103Sol     MW11488   1.348   2.718   5.437 -0.7329  0.1147 -0.6056
 2104Sol     OW11489   1.953   1.668   6.245 -0.2556 -0.2190 -0.1415
 2104Sol     HW11490   1.910   1.598   6.196 -0.2211 -0.4692  0.1896
 2104Sol     HW11491   2.017   1.623   6.300  2.6928  0.3468 -2.9464
 2104Sol     MW11492   1.955   1.658   6.245  0.6885  0.3467  0.4547
 2105Sol     OW11493   1.364   3.270   5.257 -0.1193  0.0029 -0.3774
 2105Sol     HW11494   1.347   3.179   5.282 -0.4645  0.1165 -0.1962
 2105Sol     HW11495   1.287   3.318   5.288  0.8369  0.6426  1.0405
 2105Sol     MW11496   1.355   3.266   5.262 -0.3017 -0.5297  0.0576
 2106Sol     OW11497   2.302   1.701   3.032  0.2000  0.0329 -0.4251
 2106Sol     HW11498   2.375   1.759   3.052 -0.4787  0.6307  0.3295
 2106Sol     HW11499   2.227   1.759   3.018 -0.0908 -0.5619 -1.4230
 2106Sol     MW11500   2.302   1.711   3.032  0.2471  0.1374  0.2444
 2107Sol     OW11501   1.251   0.520   6.653  0.4698  0.2090 -0.1798
 2107Sol     HW11502   1.342   0.496   6.670  0.7816  1.1257 -0.4864
 2107Sol     HW11503   1.231   0.587   6.719  0.0327  0.0366 -0.1381
 2107Sol     MW11504   1.258   0.524   6.660 -0.4249  0.5566  0.3175
 2108Sol     OW11505   0.390   1.634   1.390  0.5897 -0.0517 -0.1375
 2108Sol     HW11506   0.447   1.600   1.459 -1.0816 -1.3466  0.6264
 2108Sol     HW11507   0.359   1.718   1.424  1.7649  0.5129 -0.4226
 2108Sol     MW11508   0.392   1.638   1.399 -0.3188  0.2265 -0.6772
 2109Sol     OW11509   3.087   1.875   2.853  0.2172  0.5876 -0.1472
 2109Sol     HW11510   2.998   1.896   2.881 -0.2907 -0.6836 -0.7568
 2109Sol     HW11511   3.142   1.939   2.897 -1.2259  2.9125 -1.6109
 2109Sol     MW11512   3.084   1.882   2.860 -0.6843  0.0342  0.0452
 2110Sol     OW11513   1.144   1.799   9.132 -0.3032 -0.6308  0.3414
 2110Sol     HW11514   1.187   1.851   9.200 -0.3837  2.0389 -1.5476
 2110Sol     HW11515   1.216   1.757   9.085 -0.0644 -0.0795  0.2139
 2110Sol     MW11516   1.154   1.800   9.134 -0.1684 -0.2993 -0.5043
 2111Sol     OW11517   0.644   0.256   5.156 -0.5556  0.3793  0.2021
 2111Sol     HW11518   0.590   0.326   5.118 -2.3391  0.1399  2.1624
 2111Sol     HW11519   0.731   0.296   5.167 -0.6452  1.1845 -1.8357
 2111Sol     MW11520   0.647   0.266   5.153 -0.1094  0.0400 -0.3426
 2112Sol     OW11521   0.746   0.820   4.307  0.1919 -0.4699  0.2949
 2112Sol     HW11522   0.682   0.808   4.378 -1.5174  2.8403 -0.5820
 2112Sol     HW11523   0.706   0.778   4.231 -0.4359  0.6404  0.0113
 2112Sol     MW11524   0.737   0.815   4.307 -0.0340 -0.1738  0.6160
 2113Sol     OW11525   1.422   0.714   8.762 -0.0588 -0.5610  0.6060
 2113Sol     HW11526   1.469   0.645   8.715  0.2390 -0.8507  1.3176
 2113Sol     HW11527   1.464   0.716   8.848 -0.7010 -0.1467  0.9097
 2113Sol     MW11528   1.430   0.708   8.765  0.2828  0.2131  0.9972
 2114Sol     OW11529   3.293   0.402   4.129 -0.0720 -0.5745  0.6652
 2114Sol     HW11530   3.244   0.425   4.050  0.6800  0.3607  0.4521
 2114Sol     HW11531   3.227   0.403   4.199 -0.2728  1.3477  0.4948
 2114Sol     MW11532   3.283   0.404   4.128 -0.0965  0.2663 -0.2784
 2115Sol     OW11533   1.737   0.382   3.858  0.6901  0.2869  0.3949
 2115Sol     HW11534   1.643   0.392   3.875  0.6541  1.2844 -0.3825
 2115Sol     HW11535   1.778   0.453   3.906  1.0830 -0.2904  0.9299
 2115Sol     MW11536   1.732   0.389   3.864  0.2884 -0.0001 -0.2461
 2116Sol     OW11537   2.748   0.578   9.628  0.1918  0.1925  0.0128
 2116Sol     HW11538   2.788   0.554   9.545 -1.0291  1.3237 -0.9282
 2116Sol     HW11539   2.732   0.495   9.673  3.0503 -0.3071  0.1852
 2116Sol     MW11540   2.750   0.569   9.625  0.5085  0.3566 -0.6276
 2117Sol     OW11541   1.283   3.098   6.560  0.5400 -0.4034 -0.0697
 2117Sol     HW11542   1.367   3.095   6.513  0.1871  2.2130 -0.9393
 2117Sol     HW11543   1.218   3.112   6.491  0.1724  5.3350  1.2302
 2117Sol     MW11544   1.285   3.099   6.549  0.2151  0.4297  0.0752
 2118Sol     OW11545   1.276   1.569   3.601 -0.9727  0.5831  0.1939
 2118Sol     HW11546   1.266   1.604   3.512 -0.1734  0.9511  0.2386
 2118Sol     HW11547   1.209   1.502   3.608 -0.2765 -0.2725 -1.1086
 2118Sol     MW11548   1.269   1.566   3.594  0.1487 -0.1278 -0.4659
 2119Sol     OW11549   1.160   2.290   8.224 -0.6874  0.0871  0.4803
 2119Sol     HW11550   1.119   2.376   8.229 -1.2244 -0.1185 -0.3336
 2119Sol     HW11551   1.100   2.237   8.171  1.3736  0.2151 -2.0497
 2119Sol     MW11552   1.151   2.293   8.220 -0.3235 -0.4997 -0.1828
 2120Sol     OW11553   0.899   2.772   5.268  0.1837 -0.4143  0.1304
 2120Sol     HW11554   0.953   2.795   5.192 -0.4273 -1.9285 -0.7730
 2120Sol     HW11555   0.809   2.771   5.235 -0.0162 -1.8350  0.6770
 2120Sol     MW11556   0.896   2.774   5.258  0.3792  0.2220 -0.0035
 2121Sol     OW11557   3.266   1.769   9.404 -0.2076  0.6096  0.2544
 2121Sol     HW11558   3.220   1.686   9.415  0.7408  0.2776  1.9667
 2121Sol     HW11559   3.355   1.751   9.434 -0.5373  2.7644  2.6935
 2121Sol     MW11560   3.270   1.760   9.408 -0.2748  0.3752  0.1457
 2122Sol     OW11561   0.079   1.191   7.233  0.2349  0.1522  0.1428
 2122Sol     HW11562  -0.006   1.149   7.220  0.3717  0.1198 -0.6858
 2122Sol     HW11563   0.059   1.283   7.245  0.0932  0.1698 -0.2277
 2122Sol     MW11564   0.070   1.195   7.233  0.2852 -0.6736 -0.0319
 2123Sol     OW11565   1.644   2.892   2.228  0.4009  0.2894  0.3212
 2123Sol     HW11566   1.595   2.962   2.271 -0.3293  0.9173 -1.4657
 2123Sol     HW11567   1.696   2.852   2.298 -0.2042  1.7351  1.6244
 2123Sol     MW11568   1.645   2.895   2.238  0.0587  0.2280  0.2865
 2124Sol     OW11569   3.288   1.183   1.530 -0.2835 -0.0834  0.4435
 2124Sol     HW11570   3.326   1.212   1.613  1.0799  1.4640 -0.6846
 2124Sol     HW11571   3.246   1.261   1.494  0.2419 -0.4046 -0.9159
 2124Sol     MW11572   3.287   1.192   1.534 -0.2295  0.1171  0.0079
 2125Sol     OW11573   3.087   1.080   6.350  0.0083  0.4203 -0.0732
 2125Sol     HW11574   3.015   1.140   6.328  0.3524  0.4293 -1.2353
 2125Sol     HW11575   3.057   0.995   6.318 -0.0509  0.1661  0.6642
 2125Sol     MW11576   3.078   1.078   6.345 -0.1881 -0.2917  1.2640
 2126Sol     OW11577   2.773   1.856   1.608  0.6496  0.5451 -0.2943
 2126Sol     HW11578   2.734   1.931   1.561  0.4837  0.2628 -0.6089
 2126Sol     HW11579   2.704   1.828   1.669  1.0029  1.1519  0.3937
 2126Sol     MW11580   2.763   1.861   1.609  0.5610 -0.0024  0.1444
 2127Sol     OW11581   1.628   2.828   7.254  0.2883  0.2810 -0.3235
 2127Sol     HW11582   1.673   2.744   7.249 -0.5008 -0.1881  0.2030
 2127Sol     HW11583   1.627   2.848   7.348  0.0360  0.6316 -0.4015
 2127Sol     MW11584   1.632   2.822   7.262 -0.9501  0.7119  0.2605
 2128Sol     OW11585   2.818   0.084   7.973  0.4860 -0.3448  0.1403
 2128Sol     HW11586   2.807   0.126   7.888  1.4854 -0.6003 -0.1216
 2128Sol     HW11587   2.736   0.037   7.988  0.2042 -0.0772 -0.5544
 2128Sol     MW11588   2.810   0.084   7.967 -0.4796  0.2047  0.0673
 2129Sol     OW11589   1.670   2.304   5.575  0.0424  0.7196  0.6724
 2129Sol     HW11590   1.615   2.378   5.548  0.5249  1.1023  0.7362
 2129Sol     HW11591   1.649   2.235   5.512  1.9176  1.9398 -1.3326
 2129Sol     MW11592   1.663   2.304   5.567  0.1095 -0.6593 -0.1852
 2130Sol     OW11593   1.352   2.793   3.431  0.3458  0.0027 -0.0776
 2130Sol     HW11594   1.285   2.726   3.441  0.1481  0.2786  0.4155
 2130Sol     HW11595   1.427   2.746   3.392 -0.0390 -0.3501 -0.3953
 2130Sol     MW11596   1.353   2.782   3.428 -0.1485  0.3129  0.0296
 2131Sol     OW11597   1.920   3.196   3.923  0.4036  0.2922  0.1697
 2131Sol     HW11598   1.833   3.182   3.887  0.5728 -0.1631 -0.0700
 2131Sol     HW11599   1.907   3.204   4.017 -0.0884  1.8238 -0.0096
 2131Sol     MW11600   1.911   3.195   3.928 -0.2886  0.1512  0.4392
 2132Sol     OW11601   1.626   1.330   8.396  0.1759  0.4333  0.3352
 2132Sol     HW11602   1.558   1.299   8.455 -0.0057 -1.2240 -0.7054
 2132Sol     HW11603   1.705   1.282   8.422  0.0788 -0.3490 -0.8027
 2132Sol     MW11604   1.627   1.323   8.404  0.1820  0.1088 -0.2765
 2133Sol     OW11605   0.310   3.021   6.363 -0.1889  0.0622  0.5271
 2133Sol     HW11606   0.366   3.096   6.342  0.1712 -0.1712  0.6468
 2133Sol     HW11607   0.222   3.049   6.338  0.1007  0.1207 -0.4520
 2133Sol     MW11608   0.307   3.030   6.359 -0.0663 -0.8457  0.2805
 2134Sol     OW11609   0.008   2.314   6.383  0.3315  0.1265 -0.0014
 2134Sol     HW11610   0.041   2.399   6.413 -0.6265  0.4726  0.1146
 2134Sol     HW11611   0.080   2.276   6.333  1.2078  0.4590  0.9939
 2134Sol     MW11612   0.017   2.318   6.381  0.1840  0.6201 -0.5407
 2135Sol     OW11613   2.925   1.618   7.114 -0.0173  0.8146 -0.5915
 2135Sol     HW11614   2.915   1.588   7.205  0.3467  0.0593 -0.7978
 2135Sol     HW11615   2.991   1.560   7.077 -0.5170  0.8096 -1.4844
 2135Sol     MW11616   2.930   1.610   7.119  0.5606 -0.2033 -0.2998
 2136Sol     OW11617   0.656   3.137   4.671  0.6176 -0.1203  0.2755
 2136Sol     HW11618   0.718   3.102   4.736  0.2428  0.0336  0.7192
 2136Sol     HW11619   0.705   3.136   4.589  2.3735  3.1427  1.2220
 2136Sol     MW11620   0.666   3.134   4.670 -0.0685 -0.1753 -0.1547
 2137Sol     OW11621   1.064   2.300   4.134  0.0547 -0.0503 -0.3028
 2137Sol     HW11622   1.150   2.332   4.107  0.5757 -0.2963  1.0675
 2137Sol     HW11623   1.002   2.356   4.087  0.9540  0.9561 -0.3022
 2137Sol     MW11624   1.066   2.308   4.127  0.2116 -0.3220  0.6462
 2138Sol     OW11625   2.978   1.252   2.102  0.1296 -0.3957  0.7980
 2138Sol     HW11626   3.064   1.280   2.071  0.0098 -0.1617  0.6720
 2138Sol     HW11627   2.970   1.162   2.071 -0.9387  0.5509 -1.9208
 2138Sol     MW11628   2.985   1.247   2.096  0.0027 -0.7853  0.5533
 2139Sol     OW11629   2.283   0.430   7.243 -0.3380  0.2804 -0.2762
 2139Sol     HW11630   2.264   0.340   7.269 -0.7464  0.3837 -0.2190
 2139Sol     HW11631   2.310   0.424   7.152  3.3274 -0.3828  0.7792
 2139Sol     MW11632   2.284   0.422   7.237  0.0774 -0.1093  0.4703
 2140Sol     OW11633   0.489   1.104   8.079 -0.1712 -0.4667 -0.0939
 2140Sol     HW11634   0.531   1.176   8.032 -1.2866 -0.2118 -0.6988
 2140Sol     HW11635   0.432   1.147   8.143  0.1796 -0.8189  0.4667
 2140Sol     MW11636   0.488   1.114   8.080  0.0860 -0.0712  0.1537
 2141Sol     OW11637   2.666   0.669   8.327 -0.3434 -0.2917  0.1886
 2141Sol     HW11638   2.678   0.712   8.412  0.7677  1.2971 -0.7332
 2141Sol     HW11639   2.737   0.605   8.323 -0.7437 -0.7681  0.6983
 2141Sol     MW11640   2.674   0.668   8.334  0.4936  0.5174  0.2139
 2142Sol     OW11641   2.333   1.812   7.332  0.0109 -0.9935  0.1562
 2142Sol     HW11642   2.278   1.750   7.283 -1.1742 -1.2455  1.7749
 2142Sol     HW11643   2.275   1.885   7.352  1.7839  1.4817 -3.1008
 2142Sol     MW11644   2.323   1.813   7.329 -0.1191  0.0363  0.7227
 2143Sol     OW11645   0.276   2.214   8.747  0.2854  0.0094 -0.4809
 2143Sol     HW11646   0.336   2.203   8.821 -1.0057  0.2838  0.6400
 2143Sol     HW11647   0.192   2.182   8.780 -0.0933 -0.7703 -2.1664
 2143Sol     MW11648   0.274   2.210   8.757  0.2080 -0.0489 -0.1999
 2144Sol     OW11649   0.035   1.738   9.737 -0.7225 -1.0687 -0.3777
 2144Sol     HW11650   0.081   1.666   9.780 -1.2354 -2.3026 -1.8762
 2144Sol     HW11651   0.061   1.732   9.645 -1.0498  0.4415 -0.5771
 2144Sol     MW11652   0.041   1.731   9.733  0.0232  0.4762 -0.5296
 2145Sol     OW11653   0.985   1.129   7.203 -0.4857  0.2316  0.6986
 2145Sol     HW11654   0.965   1.197   7.139 -1.1903  0.1139  0.7849
 2145Sol     HW11655   0.899   1.102   7.237 -0.2634 -1.2078  0.1454
 2145Sol     MW11656   0.975   1.132   7.201  0.5569  0.1251  0.7896
 2146Sol     OW11657   1.976   0.888   6.659  0.2773  0.1007  0.6986
 2146Sol     HW11658   1.903   0.940   6.625 -1.3943 -0.9520  2.5969
 2146Sol     HW11659   2.021   0.947   6.720 -0.6978 -0.1540  1.6793
 2146Sol     MW11660   1.974   0.898   6.661  0.3575 -0.1747 -0.1457
 2147Sol     OW11661   0.246   1.606   4.177  0.5413  0.5582  0.5329
 2147Sol     HW11662   0.267   1.678   4.236 -0.0354  0.5552  0.7417
 2147Sol     HW11663   0.172   1.562   4.218 -0.3721  1.0245 -0.5933
 2147Sol     MW11664   0.241   1.608   4.186  0.0535 -0.3705 -0.0886
 2148Sol     OW11665   1.489   1.051   4.865  0.4996 -0.4514  0.3724
 2148Sol     HW11666   1.433   0.997   4.922  1.5977 -0.4650  1.4571
 2148Sol     HW11667   1.456   1.140   4.876  1.2004 -0.3430  1.6314
 2148Sol     MW11668   1.481   1.054   4.871  0.0780 -0.6111  0.0361
 2149Sol     OW11669   0.166   2.864   3.347  0.4771  0.0231 -0.2284
 2149Sol     HW11670   0.236   2.928   3.363 -0.2722  0.5951  0.8300
 2149Sol     HW11671   0.095   2.915   3.309 -0.8369  0.2161  2.3620
 2149Sol     MW11672   0.166   2.874   3.345  0.1192  0.7084  0.2606
 2150Sol     OW11673   1.182   3.447   5.411 -0.5969 -0.1640 -0.1251
 2150Sol     HW11674   1.207   3.533   5.377 -0.6173  0.1458  0.6320
 2150Sol     HW11675   1.087   3.453   5.422 -0.6502 -0.4187 -0.4360
 2150Sol     MW11676   1.176   3.456   5.409 -0.2093 -0.1645  0.2548
 2151Sol     OW11677   2.439   0.593   5.210  0.1619 -0.5727  0.3755
 2151Sol     HW11678   2.385   0.635   5.277  0.4929  1.6854 -0.7465
 2151Sol     HW11679   2.377   0.555   5.149 -0.1538 -0.3275  0.5450
 2151Sol     MW11680   2.429   0.593   5.211  0.0586  0.1180  0.1261
 2152Sol     OW11681   2.146   3.433   8.127 -0.0483 -0.6923 -0.5534
 2152Sol     HW11682   2.070   3.403   8.175  0.7655 -2.6366 -0.4370
 2152Sol     HW11683   2.124   3.417   8.035 -1.5980  3.0084 -0.9223
 2152Sol     MW11684   2.137   3.429   8.123  0.3850 -0.8325  0.1898
 2153Sol     OW11685   1.411   1.035   1.953 -0.0952  0.3218  0.0294
 2153Sol     HW11686   1.330   1.057   2.000  0.6011 -0.3500  1.6142
 2153Sol     HW11687   1.472   1.012   2.023  0.6554 -1.8063 -1.2924
 2153Sol     MW11688   1.409   1.035   1.964  0.1766  0.4210  0.7198
 2154Sol     OW11689   0.824   0.584   1.823  0.0585  0.4224  0.0426
 2154Sol     HW11690   0.806   0.575   1.917 -0.1825  1.8830  0.1552
 2154Sol     HW11691   0.903   0.531   1.809 -0.1904 -0.2127  0.9679
 2154Sol     MW11692   0.830   0.579   1.831  0.3822  0.3336 -0.1026
 2155Sol     OW11693   1.757   1.996   9.519 -0.2149  0.0971 -0.8762
 2155Sol     HW11694   1.844   2.027   9.543 -0.3447 -0.0704 -0.1730
 2155Sol     HW11695   1.767   1.901   9.513  0.1796  0.2434 -3.0113
 2155Sol     MW11696   1.766   1.990   9.521  0.4765 -0.5871 -0.2403
 2156Sol     OW11697   2.372   0.950   7.054  0.0766 -0.8961 -0.1337
 2156Sol     HW11698   2.429   1.008   7.003 -0.2829  1.1256  1.6919
 2156Sol     HW11699   2.408   0.863   7.039  1.4380 -0.0712 -1.8932
 2156Sol     MW11700   2.381   0.948   7.048  0.6664 -0.1070 -0.7397
 2157Sol     OW11701   2.165   0.291   6.813  0.7624  0.0916 -0.6135
 2157Sol     HW11702   2.224   0.320   6.882 -0.3934 -0.5013  0.6588
 2157Sol     HW11703   2.220   0.238   6.755  1.9396  1.3222 -0.6410
 2157Sol     MW11704   2.175   0.289   6.814  0.3073 -0.3081 -0.2794
 2158Sol     OW11705   2.499   3.333   6.732  0.4684  0.1188  0.1023
 2158Sol     HW11706   2.434   3.282   6.781 -0.3831  0.5851 -0.5212
 2158Sol     HW11707   2.549   3.379   6.799  0.4566 -0.6033  0.6148
 2158Sol     MW11708   2.498   3.332   6.742 -0.5925 -0.1307 -0.3472
 2159Sol     OW11709   1.082   0.001   9.773  0.1928  0.6490 -0.8284
 2159Sol     HW11710   1.128   0.057   9.836  2.3199  0.4170 -2.1493
 2159Sol     HW11711   1.097  -0.088   9.804 -0.8378  0.6572 -0.2934
 2159Sol     MW11712   1.087  -0.002   9.782 -0.0548  0.2061  0.0555
 2160Sol     OW11713   3.163   2.803   4.529  0.0832 -0.2050 -0.0881
 2160Sol     HW11714   3.072   2.777   4.518 -0.3286  1.2059 -0.0722
 2160Sol     HW11715   3.206   2.726   4.564 -1.0579 -0.9515 -0.3090
 2160Sol     MW11716   3.159   2.794   4.531 -0.1706 -0.1180 -0.6817
 2161Sol     OW11717   2.253   0.460   8.605  0.2485 -0.3369 -0.0394
 2161Sol     HW11718   2.201   0.493   8.531  0.6834  1.2322  0.3311
 2161Sol     HW11719   2.189   0.439   8.672  0.0909  2.1090  0.6130
 2161Sol     MW11720   2.243   0.461   8.604 -0.4267  0.2008  0.1903
 2162Sol     OW11721   1.944   1.073   9.556 -0.1327  0.2204  0.2597
 2162Sol     HW11722   2.030   1.065   9.514 -0.3834  1.7793 -0.6148
 2162Sol     HW11723   1.884   1.030   9.496 -0.1537  0.3646  0.1760
 2162Sol     MW11724   1.947   1.069   9.547  0.4446  0.2879 -0.1169
 2163Sol     OW11725   0.885   0.536   6.235 -0.6263  0.4369  0.3762
 2163Sol     HW11726   0.938   0.613   6.252 -1.1610  0.6966  0.8946
 2163Sol     HW11727   0.815   0.567   6.177 -0.5533  0.2238  0.1695
 2163Sol     MW11728   0.883   0.546   6.231 -0.0905  0.6188 -0.7639
 2164Sol     OW11729   1.304   2.672   9.960 -0.0996  0.2259 -0.3879
 2164Sol     HW11730   1.243   2.621   9.908 -0.4939  0.3091 -0.0136
 2164Sol     HW11731   1.389   2.631   9.946  0.1464  1.3971 -2.6209
 2164Sol     MW11732   1.306   2.664   9.954 -0.0081  0.1931 -0.4552
 2165Sol     OW11733   2.327   0.102   7.602  0.1604 -0.0461 -0.0232
 2165Sol     HW11734   2.397   0.129   7.661  1.0817 -1.7046 -0.3437
 2165Sol     HW11735   2.327   0.007   7.606 -3.1929 -0.0394  1.2314
 2165Sol     MW11736   2.333   0.096   7.607 -0.0145 -0.4771 -0.4024
 2166Sol     OW11737   1.776   1.588   8.126  0.0365 -0.0814  0.1941
 2166Sol     HW11738   1.741   1.677   8.127  1.0663  0.3888 -1.8815
 2166Sol     HW11739   1.712   1.536   8.174 -1.7097  1.3805 -0.5162
 2166Sol     MW11740   1.767   1.592   8.130  0.0949 -0.3766  0.1816
 2167Sol     OW11741   1.285   1.706   3.356  0.0686 -0.0270 -0.0526
 2167Sol     HW11742   1.311   1.739   3.270 -0.0266 -0.2716 -0.1757
 2167Sol     HW11743   1.251   1.784   3.402 -0.6542 -0.0500 -0.5332
 2167Sol     MW11744   1.284   1.716   3.352 -0.1048 -0.0775 -0.1137
 2168Sol     OW11745   2.410   3.286   7.655 -0.1113  0.1550  0.2973
 2168Sol     HW11746   2.422   3.227   7.581  0.1828 -0.5427  0.9017
 2168Sol     HW11747   2.339   3.248   7.705  0.3645  0.0819  0.9185
 2168Sol     MW11748   2.405   3.277   7.653  0.0211  0.2961  0.0264
 2169Sol     OW11749   2.525   1.717   3.263 -0.1574 -0.2833  0.6344
 2169Sol     HW11750   2.516   1.788   3.200 -0.6631 -0.8319  0.0851
 2169Sol     HW11751   2.588   1.751   3.328  0.6646  0.1338 -0.3573
 2169Sol     MW11752   2.530   1.727   3.263  0.5602  0.2662  0.4708
 2170Sol     OW11753   1.990   1.158   6.445  0.2656 -0.0935  0.4938
 2170Sol     HW11754   1.919   1.094   6.445  0.0952  0.0854  0.0153
 2170Sol     HW11755   1.949   1.239   6.476  0.0423  0.2283 -0.6096
 2170Sol     MW11756   1.980   1.160   6.447  0.2490  0.2654 -0.0426
 2171Sol     OW11757   1.705   2.540   8.107 -0.0531 -0.1170  0.3550
 2171Sol     HW11758   1.610   2.528   8.108 -0.2975  1.6212  0.9301
 2171Sol     HW11759   1.720   2.600   8.035  0.2859  1.7676  1.9476
 2171Sol     MW11760   1.698   2.545   8.101 -0.0952  0.6962  0.0280
 2172Sol     OW11761   3.045   0.927   1.374  0.4683 -0.4352 -0.1686
 2172Sol     HW11762   2.962   0.911   1.418  0.3197 -0.1427 -0.3371
 2172Sol     HW11763   3.042   1.021   1.352 -0.2219 -0.9479 -2.3810
 2172Sol     MW11764   3.038   0.934   1.376  0.0806  0.3537 -0.0232
 2173Sol     OW11765   2.438   1.635   5.850 -0.4261 -0.4346 -0.3688
 2173Sol     HW11766   2.355   1.592   5.832 -0.8086  0.5695 -1.0834
 2173Sol     HW11767   2.413   1.722   5.883  0.3300  0.4944 -2.1934
 2173Sol     MW11768   2.428   1.639   5.851  0.2864  0.3824  0.0730
 2174Sol     OW11769   3.181   2.890   3.493 -0.0998 -0.5429  0.1464
 2174Sol     HW11770   3.124   2.924   3.561 -0.4948  0.8161 -0.8390
 2174Sol     HW11771   3.190   2.797   3.513 -1.9900 -0.6021  0.7768
 2174Sol     MW11772   3.177   2.885   3.500 -0.2672  0.1192 -0.2208
 2175Sol     OW11773   3.160   0.728   5.730  0.1705 -0.4946  0.0364
 2175Sol     HW11774   3.071   0.703   5.705 -0.1695 -0.1209  0.8370
 2175Sol     HW11775   3.149   0.780   5.810  1.1266 -0.6544  0.2865
 2175Sol     MW11776   3.151   0.730   5.735 -0.0063  0.2003  0.4974
 2176Sol     OW11777   1.393   0.649   1.901  0.0358 -0.5811 -0.3723
 2176Sol     HW11778   1.377   0.656   1.995 -1.0527  0.2091 -0.6201
 2176Sol     HW11779   1.410   0.556   1.888 -0.1871 -0.7638  0.5455
 2176Sol     MW11780   1.393   0.641   1.909  0.4461 -0.4189 -0.3544
 2177Sol     OW11781   1.646   3.447   1.935  0.3515 -0.0313 -0.7450
 2177Sol     HW11782   1.614   3.495   1.860  2.2845  2.2392 -0.1714
 2177Sol     HW11783   1.627   3.355   1.915 -3.4102  0.9263 -1.8481
 2177Sol     MW11784   1.642   3.443   1.927  0.1072  0.2446 -0.2886
 2178Sol     OW11785   0.458   1.221   4.197  0.0116  0.0076  0.1691
 2178Sol     HW11786   0.494   1.308   4.180 -0.1493 -0.0984 -0.7701
 2178Sol     HW11787   0.520   1.161   4.155 -0.6515 -0.2411 -0.4610
 2178Sol     MW11788   0.467   1.223   4.191 -0.2355  0.0527  0.8704
 2179Sol     OW11789   2.133   0.964   3.965 -0.2641 -0.5780  0.4038
 2179Sol     HW11790   2.199   0.987   3.900 -0.6243  0.2457  0.3293
 2179Sol     HW11791   2.077   0.899   3.921  1.0469 -2.0081  0.7896
 2179Sol     MW11792   2.134   0.960   3.956 -0.7135  0.1517  0.4488
 2180Sol     OW11793   1.941   1.514   4.027 -0.4636 -0.4096 -0.3480
 2180Sol     HW11794   2.005   1.510   3.956 -1.4004  0.6086 -1.2662
 2180Sol     HW11795   1.858   1.534   3.983 -0.7824  1.7773  1.1826
 2180Sol     MW11796   1.939   1.515   4.017  0.3019 -0.6496  0.3682
 2181Sol     OW11797   2.000   1.477   1.915  0.2976 -0.4868 -0.1872
 2181Sol     HW11798   1.960   1.401   1.872  0.5550  0.4918 -2.2174
 2181Sol     HW11799   2.094   1.458   1.914  0.2619 -0.7005  0.4300
 2181Sol     MW11800   2.005   1.468   1.911 -0.2996  0.2595 -0.3751
 2182Sol     OW11801   3.011   1.576   7.750 -0.2664 -0.0671 -0.2037
 2182Sol     HW11802   3.074   1.552   7.682  1.6784 -0.6590  1.7488
 2182Sol     HW11803   3.063   1.584   7.830 -2.7719 -1.5223  1.6926
 2182Sol     MW11804   3.021   1.574   7.751  0.0205 -0.5361  0.1024
 2183Sol     OW11805   0.030   0.397   9.597  0.0308  0.5972  0.0288
 2183Sol     HW11806   0.073   0.403   9.682  0.6764  1.8900 -0.3801
 2183Sol     HW11807   0.059   0.313   9.561  0.9726  0.7527  0.4207
 2183Sol     MW11808   0.037   0.390   9.601 -0.1769  0.3385 -0.0386
 2184Sol     OW11809   0.772   0.004   3.787 -0.4433 -0.4380  0.1196
 2184Sol     HW11810   0.741   0.092   3.765  1.8355  0.4899  0.4917
 2184Sol     HW11811   0.702  -0.034   3.840 -0.5926  1.9356  1.6983
 2184Sol     MW11812   0.763   0.009   3.790  0.1967 -0.7322  0.0218
 2185Sol     OW11813   0.933   2.978   8.541 -0.3636  0.4755  1.1069
 2185Sol     HW11814   1.000   2.938   8.486 -1.3934 -1.2146  1.0467
 2185Sol     HW11815   0.928   3.069   8.512  0.0431 -0.0664 -0.6914
 2185Sol     MW11816   0.938   2.983   8.534 -0.2465 -0.4587 -0.2097
 2186Sol     OW11817   0.553   2.050   3.118  0.0638  0.4384  0.3661
 2186Sol     HW11818   0.491   2.035   3.190  0.5773 -0.7083  0.5787
 2186Sol     HW11819   0.574   1.963   3.086  0.1264  0.9232 -0.9482
 2186Sol     MW11820   0.549   2.041   3.122 -0.3467  0.3503 -0.0926
 2187Sol     OW11821   0.734   1.295   2.391  0.3677 -0.5700 -0.1441
 2187Sol     HW11822   0.706   1.382   2.418 -0.4811 -0.9552  0.2822
 2187Sol     HW11823   0.828   1.293   2.406  0.0983 -0.3606  1.6908
 2187Sol     MW11824   0.740   1.302   2.395 -0.0927 -0.1867  0.0140
 2188Sol     OW11825   0.587   0.459   8.242 -0.1555 -0.1911  0.5654
 2188Sol     HW11826   0.530   0.489   8.171 -0.6669  1.8132  1.7895
 2188Sol     HW11827   0.675   0.480   8.212  0.0170 -3.4479 -1.4055
 2188Sol     MW11828   0.590   0.464   8.233 -0.4601 -0.2461  0.6338
 2189Sol     OW11829   3.266   2.636   8.530 -0.2005  0.2728 -0.1729
 2189Sol     HW11830   3.337   2.584   8.492 -1.1970 -0.2040 -1.4203
 2189Sol     HW11831   3.202   2.646   8.459 -2.1482 -0.6946  1.3676
 2189Sol     MW11832   3.266   2.632   8.520 -0.0784 -0.0824 -0.1982
 2190Sol     OW11833   1.887   2.061   1.549 -0.0823 -0.5163 -0.0042
 2190Sol     HW11834   1.957   2.103   1.499  0.5481 -1.3195  0.1898
 2190Sol     HW11835   1.898   2.095   1.638 -0.4580 -0.0112 -0.1465
 2190Sol     MW11836   1.895   2.068   1.553 -0.1733 -0.5723  0.3725
 2191Sol     OW11837   1.200   0.683   1.689  0.0837  0.1355  0.0906
 2191Sol     HW11838   1.170   0.764   1.732  1.6867  0.6684  0.2430
 2191Sol     HW11839   1.269   0.650   1.747  0.2766 -0.6899 -0.6045
 2191Sol     MW11840   1.204   0.687   1.698 -0.2845 -0.4304 -0.3871
 2192Sol     OW11841   2.751   0.279   9.297 -0.0389 -0.1505  0.4914
 2192Sol     HW11842   2.680   0.280   9.361 -0.7996 -2.2217 -0.2885
 2192Sol     HW11843   2.709   0.307   9.215  0.6146  1.0863  0.5701
 2192Sol     MW11844   2.741   0.282   9.295 -0.0050  0.5704 -0.0268
 2193Sol     OW11845   3.099   2.355   8.007 -0.4355 -0.2910 -0.1319
 2193Sol     HW11846   3.094   2.375   8.100  2.8032  0.1929  0.0185
 2193Sol     HW11847   3.157   2.423   7.971 -0.9528 -0.9593 -2.3314
 2193Sol     MW11848   3.104   2.363   8.012 -0.3131  0.1321  0.3997
 2194Sol     OW11849   1.398   2.917   4.737  0.8375 -0.1289  0.4639
 2194Sol     HW11850   1.378   2.836   4.784 -2.0963 -0.9201 -1.9350
 2194Sol     HW11851   1.352   2.985   4.786 -0.8405 -0.7005 -0.2822
 2194Sol     MW11852   1.392   2.916   4.745  0.0276  0.4733  0.2396
 2195Sol     OW11853   2.234   1.966   1.711  0.5601  0.0260 -0.0229
 2195Sol     HW11854   2.275   1.935   1.792  2.1502 -1.6832 -1.4274
 2195Sol     HW11855   2.147   1.928   1.711  0.1386  0.9534  1.4032
 2195Sol     MW11856   2.230   1.960   1.718  0.1577 -0.0567 -0.1618
 2196Sol     OW11857   0.484   0.894   8.819  0.3272 -0.1029  0.1215
 2196Sol     HW11858   0.574   0.863   8.819  0.5959  0.6654  0.0665
 2196Sol     HW11859   0.487   0.974   8.871 -0.0619  0.6857 -1.0597
 2196Sol     MW11860   0.492   0.898   8.824 -0.5238 -0.3890  0.3259
 2197Sol     OW11861   0.872   2.220   5.828  0.3186  0.1757 -0.2094
 2197Sol     HW11862   0.791   2.244   5.784  0.4204  0.2973 -0.3325
 2197Sol     HW11863   0.865   2.260   5.915 -0.1339 -0.5464  0.0925
 2197Sol     MW11864   0.864   2.226   5.832 -0.3416  0.3554  0.7472
 2198Sol     OW11865   3.208   0.761   4.413  0.2856  0.5047  0.4880
 2198Sol     HW11866   3.145   0.829   4.438 -0.1637  0.1475  0.3261
 2198Sol     HW11867   3.163   0.710   4.345  0.7356  0.2278  0.3954
 2198Sol     MW11868   3.199   0.762   4.409  0.2852 -0.0338 -0.0110
 2199Sol     OW11869   1.781   2.778   5.470 -0.5267  0.2043 -0.1982
 2199Sol     HW11870   1.845   2.732   5.525 -0.4465 -0.1439 -0.5780
 2199Sol     HW11871   1.766   2.861   5.515 -3.2168 -1.5276  2.3128
 2199Sol     MW11872   1.785   2.781   5.479  0.3835  0.0836 -0.3895
 2200Sol     OW11873   1.989   0.346   8.772  0.3070  0.0802 -0.0745
 2200Sol     HW11874   2.019   0.257   8.757 -1.7112 -0.5396 -0.7190
 2200Sol     HW11875   2.049   0.382   8.836  1.7113 -1.4319 -0.5167
 2200Sol     MW11876   1.997   0.342   8.776 -0.4319  0.0066 -0.2151
 2201Sol     OW11877   3.063   0.149   3.110  0.1682  0.1497  0.1600
 2201Sol     HW11878   3.130   0.108   3.165  1.1041  2.2605  0.6581
 2201Sol     HW11879   3.108   0.168   3.028 -0.1176  0.5814  0.1011
 2201Sol     MW11880   3.073   0.147   3.108  0.2948 -0.3827  0.9423
 2202Sol     OW11881   2.813   1.599   4.311 -0.3922  0.0291  0.4554
 2202Sol     HW11882   2.734   1.556   4.281 -1.1805  2.0671 -0.4432
 2202Sol     HW11883   2.876   1.527   4.324 -2.8936 -1.8196  2.9992
 2202Sol     MW11884   2.812   1.589   4.309 -0.5072 -0.2249  0.0364
 2203Sol     OW11885   2.030   1.241   1.449  0.1946  0.3698 -0.2702
 2203Sol     HW11886   2.008   1.203   1.364 -1.3760  0.5130  0.0595
 2203Sol     HW11887   1.946   1.251   1.494  1.0916 -0.5929  1.6903
 2203Sol     MW11888   2.020   1.239   1.446 -0.2917 -0.3463  0.4692
 2204Sol     OW11889   3.055   2.591   5.263 -0.4116  0.0812  0.0900
 2204Sol     HW11890   3.058   2.603   5.168 -1.2605 -1.0357 -0.0877
 2204Sol     HW11891   3.146   2.573   5.288 -0.1879  0.3806 -0.5107
 2204Sol     MW11892   3.064   2.590   5.257  0.3399  0.2411 -0.6950
 2205Sol     OW11893   1.796   0.687   6.915 -0.3919  0.5691  0.0712
 2205Sol     HW11894   1.812   0.675   6.821  0.9376 -0.7082  0.4541
 2205Sol     HW11895   1.723   0.749   6.919 -1.3264 -0.3838 -1.8159
 2205Sol     MW11896   1.791   0.692   6.907 -0.0163 -0.3324 -0.2546
 2206Sol     OW11897   1.204   1.620   7.345 -0.0036 -0.4538 -0.3942
 2206Sol     HW11898   1.227   1.685   7.279 -0.0316  0.0600  0.0951
 2206Sol     HW11899   1.226   1.663   7.429 -1.0075 -0.6692 -0.0161
 2206Sol     MW11900   1.208   1.630   7.347 -0.1809  0.1365  0.2393
 2207Sol     OW11901   0.131   2.646   6.261  0.1148 -0.4113 -0.5571
 2207Sol     HW11902   0.123   2.598   6.344 -0.5664  0.0500 -0.3518
 2207Sol     HW11903   0.225   2.665   6.254 -0.0735  1.3217  1.1254
 2207Sol     MW11904   0.139   2.643   6.268 -0.3554 -0.1087 -0.3392
 2208Sol     OW11905   2.292   0.015   5.841  0.5386  0.1992 -0.1178
 2208Sol     HW11906   2.378   0.042   5.873 -0.4062  1.1929  1.6233
 2208Sol     HW11907   2.237   0.093   5.851 -0.5839 -0.4235 -1.2228
 2208Sol     MW11908   2.295   0.025   5.844  0.1612  0.1197 -0.0929
 2209Sol     OW11909   2.902   2.085   6.579 -0.4635 -0.3512  0.1704
 2209Sol     HW11910   2.967   2.085   6.649  1.3032  1.0413 -1.4224
 2209Sol     HW11911   2.925   2.010   6.524  0.2380  0.5260 -0.7581
 2209Sol     MW11912   2.910   2.079   6.581  0.3393 -0.3448  0.1841
 2210Sol     OW11913   0.105   0.759   6.331 -0.1493  0.1045 -0.5930
 2210Sol     HW11914   0.150   0.779   6.249  1.3893  2.3863  0.7261
 2210Sol     HW11915   0.107   0.842   6.380 -0.1794 -1.4359  2.1191
 2210Sol     MW11916   0.109   0.768   6.328  0.3717 -0.0817 -0.2053
 2211Sol     OW11917   1.160   1.269   5.125 -0.0684  0.4225 -0.1110
 2211Sol     HW11918   1.106   1.334   5.170 -0.9393 -0.2101 -0.2278
 2211Sol     HW11919   1.098   1.201   5.098  0.8658 -0.5863  0.2413
 2211Sol     MW11920   1.150   1.268   5.127 -0.0184  0.0635  0.1312
 2212Sol     OW11921   2.609   3.162   2.378 -0.3618 -0.0315 -0.1772
 2212Sol     HW11922   2.634   3.249   2.411  0.2045 -0.2195 -0.1080
 2212Sol     HW11923   2.569   3.179   2.293 -2.5105  0.5370  0.8985
 2212Sol     MW11924   2.607   3.171   2.373  0.4824 -0.2157  0.1337
 2213Sol     OW11925   0.458   1.327   6.525  0.4386 -0.5416 -0.2758
 2213Sol     HW11926   0.532   1.266   6.518  0.1495 -0.7757 -1.3728
 2213Sol     HW11927   0.481   1.400   6.467 -1.9298 -2.4415 -3.8032
 2213Sol     MW11928   0.467   1.328   6.519  0.1133  0.3766  0.3155
 2214Sol     OW11929   1.661   2.201   1.427 -0.5649 -0.6171 -0.7513
 2214Sol     HW11930   1.730   2.152   1.471 -0.7923  0.5732  0.9994
 2214Sol     HW11931   1.679   2.190   1.334  1.9009 -0.4573 -0.3197
 2214Sol     MW11932   1.669   2.196   1.423  0.5445 -0.4996 -0.5609
 2215Sol     OW11933   0.202   2.262   5.192 -0.3594  0.3992 -0.6037
 2215Sol     HW11934   0.220   2.251   5.286 -1.9620 -0.3992 -0.3756
 2215Sol     HW11935   0.274   2.317   5.160  0.8451 -0.3134  0.8455
 2215Sol     MW11936   0.210   2.266   5.198 -0.0452 -0.4521  0.1710
 2216Sol     OW11937   2.261   1.530   8.135 -0.1020 -0.2482  0.2172
 2216Sol     HW11938   2.319   1.525   8.059  2.0649 -0.4493  1.8534
 2216Sol     HW11939   2.173   1.537   8.097  0.9934  0.5383 -2.3128
 2216Sol     MW11940   2.259   1.531   8.124  0.0808  0.1466  0.0252
 2217Sol     OW11941   1.351   0.350   4.809  0.3472 -0.0676 -0.4507
 2217Sol     HW11942   1.410   0.362   4.734 -0.4172  2.3429 -0.7316
 2217Sol     HW11943   1.264   0.365   4.772 -0.2286 -1.0933  0.4828
 2217Sol     MW11944   1.348   0.352   4.799  0.3481 -0.2068  0.4378
 2218Sol     OW11945   1.353   1.065   7.242  0.2413 -0.1224  0.3384
 2218Sol     HW11946   1.287   1.048   7.309  0.0160 -0.9762 -0.0930
 2218Sol     HW11947   1.310   1.127   7.182  0.1075 -0.0840  0.4732
 2218Sol     MW11948   1.343   1.069   7.242 -0.1321 -0.7797  0.0009
 2219Sol     OW11949   2.471   1.795   5.404 -0.4007 -0.2142  0.0402
 2219Sol     HW11950   2.486   1.739   5.480 -1.0211 -1.1165 -0.4902
 2219Sol     HW11951   2.404   1.857   5.433 -1.8079 -1.5612 -0.2474
 2219Sol     MW11952   2.466   1.796   5.413  0.0061  0.0722  0.3917
 2220Sol     OW11953   3.125   3.254   5.641  0.3748  0.6496  0.1712
 2220Sol     HW11954   3.087   3.260   5.729  0.2724  1.3000  0.0803
 2220Sol     HW11955   3.212   3.294   5.649  0.1950  1.0998 -0.1265
 2220Sol     MW11956   3.130   3.258   5.650  0.0652 -0.2175  0.3416
 2221Sol     OW11957   0.313   1.786   8.391 -0.0950 -0.1340  0.3343
 2221Sol     HW11958   0.326   1.869   8.345  2.1731 -0.0970  1.0020
 2221Sol     HW11959   0.296   1.810   8.482  0.5065 -0.3932  0.5181
 2221Sol     MW11960   0.312   1.795   8.395  0.5582  0.1625 -0.1890
 2222Sol     OW11961   1.785   2.156   3.455  0.1684  0.3614  0.6105
 2222Sol     HW11962   1.747   2.237   3.421  1.6788  1.3493  1.2291
 2222Sol     HW11963   1.710   2.101   3.476 -0.8705  1.6117  0.1944
 2222Sol     MW11964   1.775   2.158   3.454  0.7006 -0.1896 -0.4391
 2223Sol     OW11965   0.883   2.134   2.713  0.3313 -0.0732 -0.4462
 2223Sol     HW11966   0.958   2.191   2.730 -0.4882  1.6106 -2.2629
 2223Sol     HW11967   0.904   2.091   2.630  0.2544 -1.2719  0.1418
 2223Sol     MW11968   0.892   2.135   2.707  0.4244 -0.4667  0.0094
 2224Sol     OW11969   1.183   0.305   2.852  0.2515 -0.5092 -0.8584
 2224Sol     HW11970   1.222   0.218   2.847 -0.4428 -0.9770  1.3827
 2224Sol     HW11971   1.135   0.315   2.769  1.6517 -1.5879 -1.8180
 2224Sol     MW11972   1.182   0.298   2.844 -0.7569  0.2337  0.0389
 2225Sol     OW11973   2.541   1.293   2.474  0.4895 -0.1285  0.2371
 2225Sol     HW11974   2.472   1.339   2.522  0.3165 -0.8113  0.6463
 2225Sol     HW11975   2.568   1.222   2.532 -0.5713 -1.7214 -1.1629
 2225Sol     MW11976   2.537   1.291   2.483 -0.1230  0.2670 -0.3141
 2226Sol     OW11977   2.165   2.502   6.333  0.0159 -0.0855 -0.1347
 2226Sol     HW11978   2.149   2.594   6.315  0.9197 -0.1402 -1.3287
 2226Sol     HW11979   2.258   2.498   6.357 -0.6313 -0.3365  2.4712
 2226Sol     MW11980   2.172   2.510   6.333 -0.0201  0.2023  0.5439
 2227Sol     OW11981   1.424   0.993   4.606 -0.5882  0.1508  0.4212
 2227Sol     HW11982   1.371   0.916   4.628 -2.8044  1.5376  0.1395
 2227Sol     HW11983   1.411   1.052   4.679 -0.8464  1.2111 -0.4681
 2227Sol     MW11984   1.418   0.991   4.614  0.4717 -0.6657  0.6278
 2228Sol     OW11985   2.375   0.761   3.504  0.2098  0.1834  0.8415
 2228Sol     HW11986   2.428   0.831   3.541 -0.7440  0.5661  1.4942
 2228Sol     HW11987   2.428   0.726   3.432 -0.1059  2.8351 -0.7314
 2228Sol     MW11988   2.384   0.764   3.501  0.0757  0.8764  0.5697
 2229Sol     OW11989   0.587   3.088   9.980 -0.3993  0.4216  0.2398
 2229Sol     HW11990   0.668   3.054   9.943  0.1950  0.9712  1.0154
 2229Sol     HW11991   0.592   3.068  10.073 -0.9099  0.9165  0.3824
 2229Sol     MW11992   0.595   3.084   9.985  0.0638 -0.3401 -0.2483
 2230Sol     OW11993   1.752   1.432   2.479  0.3642  0.0051  0.3890
 2230Sol     HW11994   1.676   1.473   2.519 -0.3202 -0.8356 -0.0425
 2230Sol     HW11995   1.735   1.436   2.385  1.2767  0.6346  0.2416
 2230Sol     MW11996   1.744   1.436   2.474 -0.1217  0.1367  0.0228
 2231Sol     OW11997   2.429   2.537   9.125 -0.1564  0.4013  0.3235
 2231Sol     HW11998   2.356   2.518   9.066 -0.2570  0.6067  0.3778
 2231Sol     HW11999   2.507   2.532   9.071 -0.0791 -1.2690  0.5880
 2231Sol     MW12000   2.429   2.535   9.115  0.1456 -0.1952  0.0455
 2232Sol     OW12001   0.162   0.877   7.459  0.3441  0.5125 -0.1817
 2232Sol     HW12002   0.101   0.803   7.455 -0.8598  1.4856  0.0001
 2232Sol     HW12003   0.229   0.856   7.394 -0.6371 -0.1632 -0.9940
 2232Sol     MW12004   0.162   0.869   7.453 -0.4584 -0.3732 -0.3664
 2233Sol     OW12005   1.264   0.910   8.433  0.0483  0.6146  0.1166
 2233Sol     HW12006   1.185   0.949   8.472 -0.9867  0.3346 -1.6428
 2233Sol     HW12007   1.243   0.817   8.425  0.3256  0.6365 -0.9030
 2233Sol     MW12008   1.255   0.905   8.436  0.9118 -0.9672 -0.5482
 2234Sol     OW12009   2.796   1.215   6.790  0.3407 -0.4355  0.4348
 2234Sol     HW12010   2.875   1.199   6.841  1.8188 -2.0908 -2.2483
 2234Sol     HW12011   2.829   1.251   6.707 -1.9489  1.7176  0.4004
 2234Sol     MW12012   2.806   1.217   6.787 -0.2138  0.2484 -0.0923
 2235Sol     OW12013   0.731   2.274   2.071  0.1610  0.1380  0.2543
 2235Sol     HW12014   0.731   2.308   1.982  0.4762 -1.8797 -0.5335
 2235Sol     HW12015   0.752   2.350   2.125  3.0208  0.7896 -1.6406
 2235Sol     MW12016   0.733   2.284   2.068 -0.1403 -0.0831  0.0660
 2236Sol     OW12017   0.136   0.173   5.606 -0.2372  0.2947 -0.1968
 2236Sol     HW12018   0.206   0.205   5.549 -1.5143  0.2805 -1.8107
 2236Sol     HW12019   0.083   0.251   5.625  1.4453  0.7706  2.8947
 2236Sol     MW12020   0.137   0.183   5.602  0.0189  0.0484 -0.0572
 2237Sol     OW12021   1.242   2.260   3.388  0.0313 -0.0211 -0.4978
 2237Sol     HW12022   1.160   2.298   3.419  0.6767  0.0636  1.1079
 2237Sol     HW12023   1.218   2.216   3.306 -1.6576 -0.1926  0.0751
 2237Sol     MW12024   1.233   2.259   3.383 -0.0411 -0.0737 -0.1239
 2238Sol     OW12025   0.011   2.677   3.999 -0.1840 -0.0970 -0.1637
 2238Sol     HW12026   0.012   2.648   3.907  0.0009 -0.1203 -0.1538
 2238Sol     HW12027  -0.063   2.738   4.003 -0.5054 -0.4793 -0.2099
 2238Sol     MW12028   0.004   2.680   3.991 -0.7056  0.1739  0.2478
 2239Sol     OW12029   1.280   0.969   7.799  0.2578 -0.0505 -0.3371
 2239Sol     HW12030   1.300   0.911   7.872 -0.3203 -2.3434 -1.9382
 2239Sol     HW12031   1.246   1.049   7.840  0.1073 -1.2196  1.8876
 2239Sol     MW12032   1.279   0.971   7.809  0.0199  0.4074 -0.2889
 2240Sol     OW12033   0.769   0.045   2.645 -0.1972 -0.7044 -0.5632
 2240Sol     HW12034   0.715   0.101   2.702  1.5438  2.1672 -1.6098
 2240Sol     HW12035   0.835   0.008   2.703  1.4343  2.0337 -0.6098
 2240Sol     MW12036   0.770   0.047   2.655 -0.4475 -0.1095  0.8242
 2241Sol     OW12037   1.791   3.233   2.844  0.3664  0.5988 -0.0388
 2241Sol     HW12038   1.821   3.261   2.757  0.2651  0.7561 -0.0230
 2241Sol     HW12039   1.697   3.249   2.843  0.1348 -0.7271 -0.4063
 2241Sol     MW12040   1.785   3.237   2.836  0.6837  0.2659 -0.0519
 2242Sol     OW12041   2.364   3.235   6.478 -0.5431 -0.0030  0.5903
 2242Sol     HW12042   2.285   3.286   6.493 -1.5372 -0.9349 -1.2651
 2242Sol     HW12043   2.421   3.255   6.553 -2.1049  1.4720  1.4055
 2242Sol     MW12044   2.362   3.241   6.486 -0.2049 -0.3282  0.4932
 2243Sol     OW12045   1.511   0.246   8.266 -0.8181 -0.3194  0.1427
 2243Sol     HW12046   1.476   0.199   8.342 -0.3083 -0.8096  0.0805
 2243Sol     HW12047   1.606   0.243   8.278 -0.7314 -0.4499 -0.5416
 2243Sol     MW12048   1.517   0.241   8.274  0.0052 -0.0329 -0.2618
 2244Sol     OW12049   0.175   3.045   8.459 -0.1666  0.3521  0.3197
 2244Sol     HW12050   0.214   3.049   8.547 -1.2225  2.5892  0.7320
 2244Sol     HW12051   0.184   3.134   8.425  0.9056 -0.6760 -2.1641
 2244Sol     MW12052   0.179   3.054   8.464 -0.0254 -0.2131  0.5145
 2245Sol     OW12053   0.392   1.475   9.572 -0.5079  0.0442  0.2179
 2245Sol     HW12054   0.352   1.416   9.507  0.1267  1.5946 -1.6405
 2245Sol     HW12055   0.392   1.424   9.653 -0.7529 -2.2179 -1.1310
 2245Sol     MW12056   0.389   1.465   9.573 -0.1822 -0.0491  0.0706
 2246Sol     OW12057   2.629   2.448   6.555  0.2797 -0.4939  0.2056
 2246Sol     HW12058   2.669   2.436   6.641 -0.1499  2.5070  0.8862
 2246Sol     HW12059   2.701   2.434   6.493  0.8409 -1.5744  1.0697
 2246Sol     MW12060   2.639   2.445   6.557 -0.0894 -0.1354  0.1472
 2247Sol     OW12061   0.096   1.880   5.085 -0.4465 -0.1474  0.1508
 2247Sol     HW12062   0.146   1.808   5.125 -0.3252 -0.6985 -0.9871
 2247Sol     HW12063   0.161   1.929   5.035 -0.7894 -0.0628 -0.2106
 2247Sol     MW12064   0.107   1.878   5.084 -0.0556 -0.7211  0.0859
 2248Sol     OW12065   3.276   1.468   7.287 -0.0509  0.3158 -0.1833
 2248Sol     HW12066   3.234   1.510   7.361 -0.9228  0.9394 -1.0193
 2248Sol     HW12067   3.215   1.481   7.214  0.1867 -1.4305 -0.7025
 2248Sol     MW12068   3.267   1.473   7.287  0.4102  0.1082  0.3910
 2249Sol     OW12069   0.706   1.991  10.010 -0.2948 -0.2658  0.0074
 2249Sol     HW12070   0.740   2.078  10.029  0.8252 -0.5933 -0.4824
 2249Sol     HW12071   0.638   2.005   9.944 -1.0016  0.3638  0.8538
 2249Sol     MW12072   0.703   2.000  10.006 -0.2421  0.0469 -0.2905
 2250Sol     OW12073   2.240   0.577   4.630 -0.3467 -0.3492 -0.0436
 2250Sol     HW12074   2.265   0.496   4.675  2.0273  0.6355  0.5178
 2250Sol     HW12075   2.269   0.564   4.540  0.7851  0.1735  0.2364
 2250Sol     MW12076   2.245   0.568   4.626  0.0357 -0.4399  0.7219
 2251Sol     OW12077   1.138   3.027   5.985  0.2884 -0.0656 -0.1297
 2251Sol     HW12078   1.201   3.090   5.952  1.0994 -0.7525  0.0833
 2251Sol     HW12079   1.154   2.948   5.934  0.1095 -0.4714  0.4351
 2251Sol     MW12080   1.145   3.026   5.978  0.1868  0.7899  0.2951
 2252Sol     OW12081   1.801   1.804   1.587  0.3637 -0.0781 -0.0113
 2252Sol     HW12082   1.865   1.776   1.652  0.0963 -1.0481 -0.1547
 2252Sol     HW12083   1.818   1.897   1.574  0.5792  0.0624  1.2602
 2252Sol     MW12084   1.808   1.809   1.591  0.1036 -0.4411 -0.1061
 2253Sol     OW12085   0.498   3.189   4.300 -0.0630 -0.7990  0.2819
 2253Sol     HW12086   0.449   3.183   4.218  1.6140  2.0088 -0.9671
 2253Sol     HW12087   0.435   3.227   4.362 -0.9326 -1.7421 -0.0030
 2253Sol     MW12088   0.488   3.192   4.298 -0.1459 -0.1037 -0.1411
 2254Sol     OW12089   2.897   2.560   8.931 -0.0272 -0.2060 -0.1550
 2254Sol     HW12090   2.882   2.465   8.929 -2.3332  0.1364 -1.2743
 2254Sol     HW12091   2.958   2.577   8.860  0.5474 -0.8583  0.1747
 2254Sol     MW12092   2.901   2.553   8.925  0.3355  0.3119 -0.1421
 2255Sol     OW12093   2.205   0.969   6.216 -0.0799 -0.2396  0.3545
 2255Sol     HW12094   2.176   0.917   6.291 -2.7657  0.3449 -0.2313
 2255Sol     HW12095   2.194   1.060   6.245  0.8775 -0.0085 -0.0063
 2255Sol     MW12096   2.201   0.973   6.226  0.0078 -0.3073  0.4161
 2256Sol     OW12097   2.533   2.282   2.755  0.0950 -0.5294 -0.1362
 2256Sol     HW12098   2.451   2.297   2.802  0.1756  0.6586 -0.3450
 2256Sol     HW12099   2.506   2.246   2.671 -0.1341 -1.3516  0.2896
 2256Sol     MW12100   2.523   2.280   2.751  0.1752 -0.1591 -0.4088
 2257Sol     OW12101   1.814   0.614   1.787  0.2121 -0.0614  0.0258
 2257Sol     HW12102   1.769   0.549   1.733  0.4141 -0.2431  0.0742
 2257Sol     HW12103   1.905   0.613   1.755  0.2750  0.0101  0.2017
 2257Sol     MW12104   1.818   0.608   1.779  0.0484 -0.2622 -0.0779
 2258Sol     OW12105   1.511   0.269   5.206  0.0682 -0.0367  0.0351
 2258Sol     HW12106   1.520   0.334   5.136  1.9743  0.7911  1.0015
 2258Sol     HW12107   1.590   0.280   5.258 -0.2764 -2.1811  1.0424
 2258Sol     MW12108   1.519   0.276   5.204 -0.4310 -0.1219  0.1909
 2259Sol     OW12109   1.201   0.026   8.980  0.5171  0.0423  0.0877
 2259Sol     HW12110   1.189  -0.033   9.054 -2.9869 -1.1554 -1.3406
 2259Sol     HW12111   1.190  -0.030   8.903  1.1150  1.8306 -1.3265
 2259Sol     MW12112   1.199   0.016   8.980  0.4525  0.0555 -0.0632
 2260Sol     OW12113   0.941   0.427   7.202 -0.3189 -0.4275 -0.2049
 2260Sol     HW12114   0.853   0.456   7.179 -0.9855 -2.0392  0.2644
 2260Sol     HW12115   0.932   0.334   7.218  1.6149 -0.7313 -0.7934
 2260Sol     MW12116   0.932   0.422   7.201 -0.3620  0.3581 -0.5431
 2261Sol     OW12117   1.154   3.052   9.263 -1.3383 -0.3193 -0.3840
 2261Sol     HW12118   1.188   2.972   9.224  2.5115  1.4627 -0.9085
 2261Sol     HW12119   1.174   3.044   9.356  1.7789  1.1888 -0.8389
 2261Sol     MW12120   1.159   3.044   9.268 -0.2074  0.2511 -0.2009
 2262Sol     OW12121   0.917   0.161   3.017  0.3791  0.7501 -0.3611
 2262Sol     HW12122   0.997   0.212   3.029 -0.0291  1.5156 -0.8982
 2262Sol     HW12123   0.937   0.100   2.946  1.1269 -0.3855  0.7976
 2262Sol     MW12124   0.926   0.160   3.012  0.8469  0.1656 -0.0774
 2263Sol     OW12125   1.210   0.018   2.822  0.2864 -0.0491 -0.0831
 2263Sol     HW12126   1.196   0.011   2.727 -0.6529  0.1839  0.0330
 2263Sol     HW12127   1.179  -0.065   2.857 -0.2741  0.2490  0.1231
 2263Sol     MW12128   1.206   0.010   2.817 -0.1795 -0.0414 -0.2839
 2264Sol     OW12129   2.569   3.354   4.427 -0.5538  0.3587 -0.3127
 2264Sol     HW12130   2.573   3.261   4.446  0.6422  0.6287  0.8361
 2264Sol     HW12131   2.562   3.396   4.512 -0.1236  1.3604 -0.7561
 2264Sol     MW12132   2.569   3.350   4.436 -0.2254  0.3568  0.1545
 2265Sol     OW12133   1.815   1.485   4.607 -0.5979  0.8849 -0.2905
 2265Sol     HW12134   1.876   1.538   4.658 -1.0684  0.9478  0.2126
 2265Sol     HW12135   1.748   1.547   4.578 -1.8940  0.3432  1.4395
 2265Sol     MW12136   1.814   1.495   4.609  0.4808  0.4540  0.4801
 2266Sol     OW12137   0.656   2.805   4.069  0.3101 -0.2939  0.3393
 2266Sol     HW12138   0.656   2.863   4.145  0.1721 -0.2675  0.3185
 2266Sol     HW12139   0.575   2.754   4.077  1.1742 -1.5751  1.1965
 2266Sol     MW12140   0.649   2.805   4.077  0.7287  0.3871  0.6321
 2267Sol     OW12141   0.808   1.400   1.557 -0.2642 -0.2075 -0.1453
 2267Sol     HW12142   0.857   1.481   1.572 -0.5142 -0.0338 -0.2551
 2267Sol     HW12143   0.716   1.426   1.568 -0.2762 -0.8019  1.3292
 2267Sol     MW12144   0.804   1.410   1.560 -0.6488 -0.0367 -0.4314
 2268Sol     OW12145   3.083   1.740   2.584 -0.0996 -0.1790 -0.2416
 2268Sol     HW12146   3.090   1.791   2.664  1.4552 -3.0655  1.5812
 2268Sol     HW12147   3.159   1.767   2.531 -0.2901  0.6536 -0.0901
 2268Sol     MW12148   3.091   1.747   2.586  0.2224  0.2754 -0.4886
 2269Sol     OW12149   2.098   1.347   5.112  0.6671 -0.2004  0.3125
 2269Sol     HW12150   2.058   1.290   5.046  0.0093 -1.8934  2.1221
 2269Sol     HW12151   2.192   1.330   5.105  0.7282  0.4965 -0.9265
 2269Sol     MW12152   2.103   1.341   5.105 -0.3167 -0.0790 -0.6930
 2270Sol     OW12153   1.173   0.412   8.117  0.1254  0.1268  0.3274
 2270Sol     HW12154   1.149   0.374   8.032 -1.4860  1.5110  0.1250
 2270Sol     HW12155   1.267   0.430   8.110 -0.0699  0.6075 -1.3230
 2270Sol     MW12156   1.179   0.410   8.109  0.2156 -0.2424  0.1954
 2271Sol     OW12157   2.204   1.547   5.767 -0.1471 -0.0127  0.2656
 2271Sol     HW12158   2.125   1.522   5.814 -0.5116  1.1971  0.3139
 2271Sol     HW12159   2.217   1.478   5.702 -0.2561 -1.1199  1.4063
 2271Sol     MW12160   2.198   1.538   5.765 -0.3493  0.4427  0.1070
 2272Sol     OW12161   0.073   0.584   4.787 -0.1237  0.0505 -0.1497
 2272Sol     HW12162   0.051   0.588   4.694  0.4824  0.8511 -0.2614
 2272Sol     HW12163  -0.009   0.559   4.830 -0.7226  0.9124 -0.7668
 2272Sol     MW12164   0.064   0.582   4.783 -0.4861 -0.2117  0.1146
 2273Sol     OW12165   0.680   0.288   3.027 -0.2540  0.2285  0.1207
 2273Sol     HW12166   0.622   0.261   2.955  0.6346  0.8988 -0.8569
 2273Sol     HW12167   0.755   0.230   3.022  0.7396  1.5617 -0.7512
 2273Sol     MW12168   0.681   0.281   3.020 -0.0222  0.1437  0.2882
 2274Sol     OW12169   1.789   3.232   3.617 -0.1125  0.2618  0.2305
 2274Sol     HW12170   1.737   3.310   3.637  0.9700  0.3109  3.0627
 2274Sol     HW12171   1.874   3.266   3.589 -0.7425  0.1329 -1.9061
 2274Sol     MW12172   1.792   3.242   3.616  0.4195  0.1361 -0.2940
 2275Sol     OW12173   1.652   3.008   8.777  0.1751 -0.0634 -0.3546
 2275Sol     HW12174   1.683   3.098   8.783 -0.3331  0.0758  0.2676
 2275Sol     HW12175   1.617   2.988   8.864 -2.7009  0.2561 -1.3702
 2275Sol     MW12176   1.651   3.014   8.785  0.4214  0.1691  0.1132
 2276Sol     OW12177   1.027   1.984   8.920 -0.1944  0.2851  0.2808
 2276Sol     HW12178   1.053   1.926   8.992  0.0823  0.0990  0.0319
 2276Sol     HW12179   1.074   2.065   8.937  0.2044  0.0967  0.0729
 2276Sol     MW12180   1.033   1.986   8.928 -0.2241  0.1159 -0.1943
 2277Sol     OW12181   2.067   0.087   8.679 -0.0304 -0.3294 -0.9212
 2277Sol     HW12182   2.080   0.035   8.758 -0.5299  1.2071  0.1983
 2277Sol     HW12183   2.156   0.104   8.646  0.2624  0.2012  0.1089
 2277Sol     MW12184   2.076   0.084   8.683  0.5027 -0.3525  0.2645
 2278Sol     OW12185   0.408   2.102   6.310 -0.3625  0.0411  0.8380
 2278Sol     HW12186   0.460   2.079   6.233 -0.9710 -0.3907  0.5533
 2278Sol     HW12187   0.464   2.161   6.360 -0.0208  0.4388 -0.0029
 2278Sol     MW12188   0.418   2.105   6.308 -0.3062  0.3376  0.0970
 2279Sol     OW12189   2.586   1.829   3.825 -0.5193 -0.2599  0.4547
 2279Sol     HW12190   2.602   1.923   3.820  1.7321 -0.6728 -0.4221
 2279Sol     HW12191   2.500   1.818   3.784  0.2585  1.1637 -1.6609
 2279Sol     MW12192   2.579   1.836   3.821 -0.0008  0.1942 -0.4486
 2280Sol     OW12193   2.088   2.938   4.073  0.0538  0.1269 -0.2341
 2280Sol     HW12194   2.019   2.872   4.067  0.2677  0.0467 -2.4025
 2280Sol     HW12195   2.041   3.021   4.083 -0.3008 -0.1121  0.0986
 2280Sol     MW12196   2.077   2.940   4.073 -0.1356  0.2881 -0.2022
 2281Sol     OW12197   0.901   1.575   8.831  0.5095 -0.1696  0.3952
 2281Sol     HW12198   0.828   1.516   8.851 -0.1851  0.9810  1.3325
 2281Sol     HW12199   0.978   1.518   8.834 -0.3691 -1.4918 -1.0695
 2281Sol     MW12200   0.901   1.564   8.833  0.2848 -0.2768  0.3555
 2282Sol     OW12201   3.198   3.176   8.808  0.0258 -0.9755 -0.7793
 2282Sol     HW12202   3.200   3.166   8.712 -2.3481  0.0581 -0.9621
 2282Sol     HW12203   3.283   3.215   8.829  0.5137 -1.0491 -2.4722
 2282Sol     MW12204   3.206   3.179   8.801  0.4686  0.3516  0.2745
 2283Sol     OW12205   0.531   2.508   9.069  0.2491 -0.0368 -0.3410
 2283Sol     HW12206   0.483   2.491   9.151  1.5063  0.4323  0.5138
 2283Sol     HW12207   0.464   2.506   9.001 -0.9849  0.5369  0.8210
 2283Sol     MW12208   0.521   2.507   9.071 -0.2376  0.3322 -0.3017
 2284Sol     OW12209   2.404   2.588   6.651 -0.2569 -0.1218 -0.2655
 2284Sol     HW12210   2.353   2.511   6.676  0.4753 -0.0450  1.5167
 2284Sol     HW12211   2.486   2.552   6.617  0.2918 -0.1385  1.0393
 2284Sol     MW12212   2.407   2.577   6.650  0.1640 -0.0987 -0.1295
 2285Sol     OW12213   0.531   0.479   6.712 -0.2090 -0.7211 -0.4078
 2285Sol     HW12214   0.545   0.461   6.805  1.1013  1.5011 -0.1480
 2285Sol     HW12215   0.613   0.455   6.670  0.1474  0.8423 -0.6093
 2285Sol     MW12216   0.539   0.475   6.717  0.3540  0.7703 -0.2674
 2286Sol     OW12217   1.286   0.662   2.838 -0.5457 -0.1350 -0.4880
 2286Sol     HW12218   1.333   0.717   2.900 -0.3629 -1.0781  0.2250
 2286Sol     HW12219   1.325   0.575   2.849 -0.7909 -0.3923 -1.6361
 2286Sol     MW12220   1.294   0.659   2.845  0.1097 -0.2846 -0.2256
 2287Sol     OW12221   0.862   0.014   2.178 -0.6037 -0.4628  0.0692
 2287Sol     HW12222   0.869   0.047   2.268 -2.6207  0.7217 -0.1741
 2287Sol     HW12223   0.768   0.013   2.160 -0.2197 -0.6397 -2.0422
 2287Sol     MW12224   0.854   0.017   2.184 -0.2722 -0.0838 -0.4180
 2288Sol     OW12225   2.252   3.235   7.868  0.1285 -0.4156  0.2122
 2288Sol     HW12226   2.170   3.284   7.864 -1.4333 -3.0847 -1.7593
 2288Sol     HW12227   2.233   3.160   7.924  2.5367  1.1616  3.2978
 2288Sol     MW12228   2.243   3.233   7.872  0.1049 -0.8191 -0.0763
 2289Sol     OW12229   0.690   2.682   7.459 -0.2551  0.1754  0.2420
 2289Sol     HW12230   0.604   2.702   7.422 -0.8338 -2.0955  0.2902
 2289Sol     HW12231   0.747   2.672   7.382 -0.3457  0.3008  0.1587
 2289Sol     MW12232   0.688   2.683   7.448 -0.2673 -0.1867 -0.6756
 2290Sol     OW12233   0.206   2.931   5.883  0.2425 -0.0137 -0.5770
 2290Sol     HW12234   0.229   2.926   5.790  1.9513 -3.0854 -0.0662
 2290Sol     HW12235   0.112   2.913   5.886  0.5780 -2.0654 -1.5721
 2290Sol     MW12236   0.200   2.929   5.875 -0.1347  0.0078  0.0457
 2291Sol     OW12237   2.365   2.675   3.525 -0.0674 -0.2806 -0.1248
 2291Sol     HW12238   2.294   2.643   3.579 -0.8843  0.1110 -0.9521
 2291Sol     HW12239   2.402   2.597   3.484 -0.4928 -0.4098 -0.2569
 2291Sol     MW12240   2.362   2.665   3.526 -0.1617  0.3010 -0.2683
 2292Sol     OW12241   1.226   1.565   8.641  0.0997 -0.2017 -0.2663
 2292Sol     HW12242   1.216   1.581   8.547 -2.5550  0.8119  0.1619
 2292Sol     HW12243   1.301   1.619   8.666  2.1899 -2.0853 -2.1477
 2292Sol     MW12244   1.232   1.572   8.635 -0.0709  0.2317 -0.0597
 2293Sol     OW12245   0.083   1.630   8.585  0.0049 -0.0534 -0.7376
 2293Sol     HW12246   0.041   1.648   8.500 -0.1625  1.3778 -0.3701
 2293Sol     HW12247   0.176   1.622   8.564  0.0154  0.7233 -1.0078
 2293Sol     MW12248   0.088   1.631   8.575  0.2310  0.3277  0.4971
 2294Sol     OW12249   2.080   1.105   6.816 -0.1658 -0.6056 -0.1978
 2294Sol     HW12250   2.111   1.065   6.897 -1.8786  0.1338  0.8539
 2294Sol     HW12251   2.159   1.140   6.774  0.8456 -1.8133  0.6787
 2294Sol     MW12252   2.089   1.105   6.819 -0.1876 -0.0285  0.6100
 2295Sol     OW12253   1.354   1.387   4.460 -0.4722  0.2138  0.2447
 2295Sol     HW12254   1.419   1.317   4.449  0.1108  0.8838 -0.6942
 2295Sol     HW12255   1.301   1.384   4.380 -1.5080 -0.2386  0.9509
 2295Sol     MW12256   1.355   1.381   4.452 -0.4125 -0.2079 -0.3337
 2296Sol     OW12257   0.475   0.847   1.488 -0.4669  0.4214  0.2438
 2296Sol     HW12258   0.495   0.760   1.521  0.0249 -0.1304 -1.4845
 2296Sol     HW12259   0.381   0.845   1.468 -0.3213  0.0849 -0.4051
 2296Sol     MW12260   0.468   0.839   1.489  0.1586 -0.3121 -0.0203
 2297Sol     OW12261   2.771   0.722   5.424 -0.3180 -0.1014  0.3857
 2297Sol     HW12262   2.677   0.726   5.441 -0.2368 -1.3314  1.1149
 2297Sol     HW12263   2.810   0.706   5.509  0.4835 -0.6761 -0.0907
 2297Sol     MW12264   2.766   0.721   5.433  0.1060 -0.1007  0.1944
 2298Sol     OW12265   1.677   1.300   9.800 -0.0262  0.4371 -0.1359
 2298Sol     HW12266   1.697   1.393   9.793  1.7345  0.2936  2.4354
 2298Sol     HW12267   1.760   1.259   9.824 -0.3968 -2.0497 -2.8200
 2298Sol     MW12268   1.686   1.304   9.802  0.0511 -0.8935 -0.4702
 2299Sol     OW12269   1.257   1.877   1.950 -0.7263  0.4994  0.2317
 2299Sol     HW12270   1.313   1.823   1.893 -1.0949  0.9103 -0.5334
 2299Sol     HW12271   1.174   1.830   1.953 -0.8641  0.7252  0.0264
 2299Sol     MW12272   1.255   1.868   1.945 -0.3927 -0.2611 -0.0527
 2300Sol     OW12273   0.922   3.116   9.452  0.0945  0.2373 -0.4576
 2300Sol     HW12274   0.933   3.022   9.437 -0.7271  0.1841 -0.7164
 2300Sol     HW12275   0.952   3.129   9.542 -1.3245 -0.5413  0.1366
 2300Sol     MW12276   0.926   3.108   9.459  0.2575 -0.5490 -0.1570
 2301Sol     OW12277   2.905   2.781   3.150  0.3734  0.0624  0.1795
 2301Sol     HW12278   2.814   2.810   3.145  0.5496  0.6178  0.1537
 2301Sol     HW12279   2.952   2.857   3.186  0.7300 -0.4183  0.7383
 2301Sol     MW12280   2.901   2.791   3.153 -0.0277  0.0214  0.7889
 2302Sol     OW12281   1.652   2.924   7.500 -0.2872  0.5276  0.2785
 2302Sol     HW12282   1.738   2.960   7.480  0.0448  0.3503  1.3558
 2302Sol     HW12283   1.593   2.999   7.499 -0.2105  0.5708 -0.9830
 2302Sol     MW12284   1.654   2.934   7.498  0.3619 -0.0709 -0.2130
 2303Sol     OW12285   0.166   2.152   9.705 -0.2916 -0.0022  0.0297
 2303Sol     HW12286   0.089   2.101   9.733 -0.2092 -0.4967 -0.6202
 2303Sol     HW12287   0.199   2.192   9.785 -2.0819  1.3745  0.0958
 2303Sol     MW12288   0.162   2.151   9.714  0.4442  0.5017 -0.4721
 2304Sol     OW12289   1.804   2.662   8.571 -0.2608 -0.2102 -0.9211
 2304Sol     HW12290   1.749   2.738   8.550 -0.5498 -0.1418  0.0458
 2304Sol     HW12291   1.838   2.633   8.487 -2.2042 -0.5811 -1.6075
 2304Sol     MW12292   1.802   2.667   8.562  0.2400 -0.1829  0.3647
 2305Sol     OW12293   3.164   0.165   2.844 -0.5403 -0.2091 -0.1723
 2305Sol     HW12294   3.189   0.253   2.815 -2.2991  0.9698  1.7028
 2305Sol     HW12295   3.244   0.127   2.878 -0.4879  2.1986  2.6070
 2305Sol     MW12296   3.173   0.170   2.844 -0.2260 -0.0413 -0.4738
 2306Sol     OW12297   1.900   1.209   5.938  0.8872  0.0982 -0.0378
 2306Sol     HW12298   1.989   1.193   5.907  0.4611 -1.7003 -0.3676
 2306Sol     HW12299   1.846   1.205   5.860  0.0956 -2.2800  0.5885
 2306Sol     MW12300   1.903   1.207   5.929  0.1752 -0.4909  0.3122
 2307Sol     OW12301   2.302   1.607   2.734 -0.1339  0.0660  0.0444
 2307Sol     HW12302   2.272   1.632   2.822  1.5687  1.3323  0.2980
 2307Sol     HW12303   2.330   1.690   2.694  0.0397 -0.6432 -1.3249
 2307Sol     MW12304   2.302   1.617   2.738 -0.4075  0.5007  0.0154
 2308Sol     OW12305   0.159   2.614   3.231 -0.1981 -0.7511  0.1649
 2308Sol     HW12306   0.162   2.700   3.271  0.4863 -1.6416  2.0987
 2308Sol     HW12307   0.072   2.608   3.192 -0.0278  1.0299 -0.5318
 2308Sol     MW12308   0.152   2.621   3.231 -0.0738 -0.7154 -0.3905
 2309Sol     OW12309   0.285   1.655   3.640  0.0231  0.1213  0.1025
 2309Sol     HW12310   0.232   1.576   3.631 -0.5557  0.3925  1.1062
 2309Sol     HW12311   0.375   1.622   3.653 -0.1715 -0.3621  0.2402
 2309Sol     MW12312   0.289   1.645   3.640  0.3797  0.0055 -0.4100
 2310Sol     OW12313   2.092   2.201   1.425  0.1991 -0.4237  0.1283
 2310Sol     HW12314   2.165   2.143   1.401 -0.2242 -0.4927 -1.0420
 2310Sol     HW12315   2.132   2.288   1.433  0.7425 -0.7753  1.3845
 2310Sol     MW12316   2.102   2.204   1.423 -0.0880  0.2082  0.5959
 2311Sol     OW12317   1.560   2.288   3.094  0.3158  0.9178 -0.4367
 2311Sol     HW12318   1.569   2.202   3.053  2.8235  0.7538  0.3965
 2311Sol     HW12319   1.466   2.304   3.095 -0.0745 -1.0567 -2.1572
 2311Sol     MW12320   1.552   2.281   3.090  0.3495 -0.3574  0.3061
 2312Sol     OW12321   0.051   1.499   2.298 -0.0479 -0.4612 -0.4158
 2312Sol     HW12322   0.143   1.491   2.272 -0.3791 -0.8354 -1.5018
 2312Sol     HW12323   0.031   1.417   2.343 -0.3818 -1.2252 -1.9089
 2312Sol     MW12324   0.057   1.491   2.300 -0.0962 -0.2076  0.3109
 2313Sol     OW12325   3.177   1.904   4.000 -0.1437 -0.0435 -0.5677
 2313Sol     HW12326   3.157   1.861   3.917 -0.4508  1.0723 -1.0736
 2313Sol     HW12327   3.120   1.980   4.002  0.0602  0.0829  0.5456
 2313Sol     MW12328   3.170   1.907   3.993 -0.4691  0.5353  0.0678
 2314Sol     OW12329   0.740   2.342   1.817  0.0888  0.0025 -0.1103
 2314Sol     HW12330   0.812   2.344   1.754  0.8420 -1.5691  0.6809
 2314Sol     HW12331   0.699   2.429   1.810  0.1489 -0.1573 -2.7463
 2314Sol     MW12332   0.743   2.350   1.811 -0.6339 -0.1899  0.2476
 2315Sol     OW12333   2.528   2.718   9.323 -0.0671 -0.1135 -0.3112
 2315Sol     HW12334   2.562   2.801   9.291 -0.8196 -0.4748 -2.1428
 2315Sol     HW12335   2.489   2.677   9.246 -0.5692 -1.7305  0.7695
 2315Sol     MW12336   2.528   2.721   9.313 -0.3970  0.7590  0.0801
 2316Sol     OW12337   0.450   1.120   1.574 -0.3930 -0.3012  0.1401
 2316Sol     HW12338   0.474   1.028   1.558  0.3912 -0.1974  0.6984
 2316Sol     HW12339   0.392   1.142   1.501  3.2768  0.2165 -2.7403
 2316Sol     MW12340   0.447   1.114   1.566 -0.7792  0.0888  0.4394
 2317Sol     OW12341   2.447   0.661   3.259  0.0927 -0.0716 -0.3951
 2317Sol     HW12342   2.508   0.725   3.222 -0.3262  1.1105  0.9105
 2317Sol     HW12343   2.384   0.644   3.189  0.7082  0.2737 -1.0409
 2317Sol     MW12344   2.447   0.665   3.249  0.9042  0.1739 -0.4844
 2318Sol     OW12345   0.104   0.529   9.357 -0.0666  0.1095  0.1278
 2318Sol     HW12346   0.031   0.525   9.295 -0.7467 -0.8181  0.9712
 2318Sol     HW12347   0.076   0.475   9.431  1.5971 -0.4730  0.3507
 2318Sol     MW12348   0.095   0.524   9.358 -0.4215 -0.2567 -0.0545
 2319Sol     OW12349   0.046   0.599   3.648 -0.0863 -0.0449 -0.2658
 2319Sol     HW12350   0.076   0.644   3.727 -0.5969 -0.4754  0.1778
 2319Sol     HW12351   0.043   0.667   3.580 -1.4249  0.7213  0.5421
 2319Sol     MW12352   0.048   0.609   3.649 -0.3470  0.1543  0.0492
 2320Sol     OW12353   1.734   1.029   5.039  0.6706 -0.1406 -0.1790
 2320Sol     HW12354   1.700   1.084   4.969  2.1029 -0.2456 -0.9857
 2320Sol     HW12355   1.663   0.969   5.060 -0.2639  0.8234 -0.5490
 2320Sol     MW12356   1.725   1.029   5.035  0.3696 -0.0815  0.0723
 2321Sol     OW12357   0.397   2.945   9.837  0.1512  0.0599  0.2266
 2321Sol     HW12358   0.449   2.950   9.757 -0.0084  0.5196  0.1497
 2321Sol     HW12359   0.447   2.994   9.902  1.0330 -1.6217  0.8264
 2321Sol     MW12360   0.406   2.950   9.836  0.8656  0.3092 -0.2953
 2322Sol     OW12361   2.318   3.372   4.279 -0.4416  0.3320 -0.4315
 2322Sol     HW12362   2.262   3.407   4.349  0.7404 -0.2021  0.8181
 2322Sol     HW12363   2.402   3.355   4.323 -1.0597 -4.4291 -0.8485
 2322Sol     MW12364   2.321   3.373   4.289  0.0152 -0.3203 -0.0861
 2323Sol     OW12365   2.324   2.999   3.936  0.4356  0.4484 -0.4818
 2323Sol     HW12366   2.312   3.087   3.972 -0.8968  0.4042 -0.7840
 2323Sol     HW12367   2.253   2.947   3.975  2.1917 -0.9200  1.0041
 2323Sol     MW12368   2.317   3.002   3.943 -0.9619  0.4704 -0.2256
 2324Sol     OW12369   1.607   0.069   8.665  0.5024 -0.0735 -0.0086
 2324Sol     HW12370   1.638   0.149   8.707  2.2102 -0.0509 -1.2158
 2324Sol     HW12371   1.663  -0.000   8.700  0.4656 -0.3924 -0.5619
 2324Sol     MW12372   1.615   0.070   8.672  0.1900 -0.3036  0.2806
 2325Sol     OW12373   1.113   0.044   4.074  0.3809  0.2202  0.4401
 2325Sol     HW12374   1.095   0.117   4.015  0.8276 -0.9016 -1.1311
 2325Sol     HW12375   1.027   0.017   4.106  0.2234  1.4764  1.0796
 2325Sol     MW12376   1.104   0.048   4.071  0.1594 -0.3909 -0.5219
 2326Sol     OW12377   0.908   1.454   6.249  0.4473 -0.2159 -0.0403
 2326Sol     HW12378   0.925   1.362   6.267  0.9038  0.0859  1.1451
 2326Sol     HW12379   0.868   1.455   6.162 -0.6179 -1.6288  0.4248
 2326Sol     MW12380   0.906   1.446   6.243 -0.8658  0.0834  0.4869
 2327Sol     OW12381   3.115   1.582   9.855 -0.4850  0.0572 -0.0266
 2327Sol     HW12382   3.184   1.533   9.809 -0.8420  0.3587 -0.8909
 2327Sol     HW12383   3.040   1.523   9.854 -0.7952  0.4585 -0.7157
 2327Sol     MW12384   3.115   1.572   9.851 -0.1907  0.0608  0.5912
 2328Sol     OW12385   2.986   2.766   9.274 -0.1117  0.0816  0.1907
 2328Sol     HW12386   3.044   2.776   9.350  0.7558 -1.6108 -0.2420
 2328Sol     HW12387   3.026   2.698   9.221 -0.0665  2.0682 -2.4473
 2328Sol     MW12388   2.995   2.761   9.276 -0.2988  0.2269 -0.2462
 2329Sol     OW12389   2.524   2.522   5.965  0.0016 -0.3909 -0.5854
 2329Sol     HW12390   2.488   2.465   6.033  0.1977  0.2183  0.0353
 2329Sol     HW12391   2.599   2.564   6.006  0.9751 -1.0802 -1.6428
 2329Sol     MW12392   2.527   2.521   5.975 -0.5241  0.0646  0.2484
 2330Sol     OW12393   0.589   3.271   2.573  0.0652  0.7274 -0.5261
 2330Sol     HW12394   0.637   3.204   2.621 -1.8363 -0.8836 -0.7950
 2330Sol     HW12395   0.654   3.337   2.552  1.5557  0.0208  1.6460
 2330Sol     MW12396   0.599   3.271   2.576 -0.2638  0.2482  0.3114
 2331Sol     OW12397   2.329   2.482   8.038  0.0678  0.8571 -0.3128
 2331Sol     HW12398   2.237   2.464   8.057 -0.3722  3.1662 -0.0526
 2331Sol     HW12399   2.332   2.491   7.942 -0.2654  2.0483 -0.2297
 2331Sol     MW12400   2.321   2.482   8.031 -0.0948  0.0072 -0.1156
 2332Sol     OW12401   1.803   3.278   8.492  0.2263  0.6057  0.2385
 2332Sol     HW12402   1.826   3.370   8.476 -0.1059  0.6163 -0.2026
 2332Sol     HW12403   1.839   3.259   8.578 -2.4685  2.1140  1.7804
 2332Sol     MW12404   1.808   3.285   8.498  0.5322 -0.3037  0.2602
 2333Sol     OW12405   2.141   3.364   3.010  0.1900 -0.1713  1.1152
 2333Sol     HW12406   2.115   3.310   3.084 -0.3820 -0.4694  0.6968
 2333Sol     HW12407   2.127   3.308   2.933  3.1721 -0.7829  0.9554
 2333Sol     MW12408   2.138   3.354   3.009  0.7828  0.1195 -0.3292
 2334Sol     OW12409   0.778   2.068   9.569  0.0815  0.6128 -0.4452
 2334Sol     HW12410   0.778   2.157   9.606  0.9562  0.6336 -0.4846
 2334Sol     HW12411   0.686   2.048   9.556 -0.1450  1.3667 -0.0643
 2334Sol     MW12412   0.770   2.074   9.571  0.5367 -0.9425  0.0020
 2335Sol     OW12413   1.257   0.236   5.317 -0.1151 -0.0897 -0.4175
 2335Sol     HW12414   1.205   0.313   5.296  1.1096  1.1147  0.9145
 2335Sol     HW12415   1.343   0.254   5.281  1.2017  0.7668  2.9658
 2335Sol     MW12416   1.260   0.244   5.312  0.4272 -0.2989  0.1894
 2336Sol     OW12417   2.404   0.445   7.531  0.4114 -0.4893  0.0963
 2336Sol     HW12418   2.354   0.450   7.449  0.8334  2.6889 -0.0605
 2336Sol     HW12419   2.357   0.503   7.591  3.5290  2.1878  0.0951
 2336Sol     MW12420   2.395   0.451   7.529  0.1250  0.1010  0.1119
 2337Sol     OW12421   2.204   1.314   7.243 -0.2970 -1.0084 -0.8512
 2337Sol     HW12422   2.281   1.359   7.207 -0.4128 -1.9744 -2.3551
 2337Sol     HW12423   2.224   1.302   7.336  0.7799 -0.0326 -0.9522
 2337Sol     MW12424   2.213   1.317   7.248  0.4243 -0.2330 -0.2870
 2338Sol     OW12425   2.028   3.388   3.560  0.2640  0.4620 -0.2560
 2338Sol     HW12426   2.118   3.394   3.593 -0.4354  0.3188  1.7425
 2338Sol     HW12427   2.000   3.479   3.552 -0.0554  0.4645  0.9237
 2338Sol     MW12428   2.034   3.397   3.562 -0.4109  0.3345  0.3343
 2339Sol     OW12429   1.681   3.139   3.178  0.1158 -0.2662  0.1418
 2339Sol     HW12430   1.606   3.119   3.122 -0.1304 -1.5712  0.9156
 2339Sol     HW12431   1.687   3.234   3.176  0.2957 -0.2882 -2.3291
 2339Sol     MW12432   1.674   3.146   3.173 -0.4026  0.2221  0.8313
 2340Sol     OW12433   0.278   0.975   7.916  0.6334  0.2630  0.2388
 2340Sol     HW12434   0.352   1.018   7.960  0.2119  0.7332  0.4907
 2340Sol     HW12435   0.218   0.953   7.987  0.8561 -0.7742  0.1141
 2340Sol     MW12436   0.280   0.977   7.926 -0.0155 -0.1051 -0.1099
 2341Sol     OW12437   2.492   2.018   8.217  0.3544  0.2329  0.2335
 2341Sol     HW12438   2.400   2.043   8.210 -0.2490 -1.6888  1.1775
 2341Sol     HW12439   2.535   2.096   8.251 -0.9466  1.1007 -0.0713
 2341Sol     MW12440   2.487   2.027   8.219 -0.2077  0.2471 -0.2871
 2342Sol     OW12441   1.467   0.401   3.891  0.2076  0.2727 -0.6284
 2342Sol     HW12442   1.403   0.389   3.962  0.6430 -0.4660 -0.3572
 2342Sol     HW12443   1.417   0.443   3.821 -1.0952 -2.0805 -1.1733
 2342Sol     MW12444   1.457   0.403   3.891 -0.3474  0.5923  0.4420
 2343Sol     OW12445   0.517   0.601   1.630  0.1461 -0.2621 -0.4784
 2343Sol     HW12446   0.452   0.564   1.689 -2.7610 -0.5209 -3.7061
 2343Sol     HW12447   0.555   0.525   1.585 -0.1177  0.1206 -1.3652
 2343Sol     MW12448   0.515   0.591   1.631 -0.8236 -0.5857 -0.3246
 2344Sol     OW12449   0.087   0.234   3.660  0.2563  0.3139  0.2347
 2344Sol     HW12450   0.100   0.245   3.755  2.3489 -0.8345  0.1244
 2344Sol     HW12451   0.121   0.315   3.622  1.7255 -0.2282  0.3429
 2344Sol     MW12452   0.092   0.242   3.665  0.4089 -0.0493  0.0951
 2345Sol     OW12453   1.441   0.958   8.654 -0.2993  0.1959 -0.3779
 2345Sol     HW12454   1.418   0.880   8.705  1.3652 -0.2956 -0.3411
 2345Sol     HW12455   1.391   0.948   8.573 -1.7076  0.1556  0.4962
 2345Sol     MW12456   1.435   0.950   8.651 -0.8055  0.0768 -0.2024
 2346Sol     OW12457   0.317   1.109   9.442 -0.5705  0.3101  0.0881
 2346Sol     HW12458   0.287   1.023   9.414 -0.0057  1.0983 -3.0727
 2346Sol     HW12459   0.408   1.096   9.468 -0.5218 -0.0712 -0.2809
 2346Sol     MW12460   0.322   1.100   9.442  0.0027 -0.3090  0.1170
 2347Sol     OW12461   1.727   0.433   9.084 -0.1471  0.7300  0.5033
 2347Sol     HW12462   1.790   0.361   9.088 -0.0987  0.7113 -0.4512
 2347Sol     HW12463   1.782   0.512   9.085 -0.0425  0.6913 -1.5127
 2347Sol     MW12464   1.738   0.434   9.085  0.3028 -0.1814 -0.3397
 2348Sol     OW12465   2.064   2.249   6.348  0.0778 -0.2255 -0.0517
 2348Sol     HW12466   1.992   2.221   6.293 -0.0234 -2.0660  0.9696
 2348Sol     HW12467   2.066   2.344   6.339 -1.4813 -0.2974 -1.2916
 2348Sol     MW12468   2.058   2.255   6.343 -0.1312  0.0919  0.0020
 2349Sol     OW12469   1.006   0.705   8.636  0.7349 -0.1352  0.0796
 2349Sol     HW12470   0.912   0.725   8.644  0.7684 -0.6297  2.0419
 2349Sol     HW12471   1.027   0.724   8.545 -1.3324 -0.2586 -0.4438
 2349Sol     MW12472   0.999   0.709   8.629  0.5980  0.4635  0.1143
 2350Sol     OW12473   0.445   2.176   8.964  0.0404 -0.1057 -0.1077
 2350Sol     HW12474   0.503   2.100   8.960  0.6922  0.3626  0.1913
 2350Sol     HW12475   0.505   2.251   8.970 -0.5861  0.2430  2.6891
 2350Sol     MW12476   0.456   2.176   8.964 -0.2841 -0.3400 -0.1459
 2351Sol     OW12477   3.232   2.054   3.301 -0.1570 -0.3482 -0.1156
 2351Sol     HW12478   3.318   2.092   3.317 -0.4184 -0.0669  0.6849
 2351Sol     HW12479   3.248   1.960   3.299  0.1542 -0.3044  0.1751
 2351Sol     MW12480   3.241   2.049   3.303 -0.2837 -0.4177 -0.2973
 2352Sol     OW12481   1.932   2.621   5.947 -0.5588  0.1089 -0.2475
 2352Sol     HW12482   1.871   2.690   5.922  0.2982  1.1029  0.3404
 2352Sol     HW12483   2.003   2.667   5.991  0.8484 -0.9764 -1.3365
 2352Sol     MW12484   1.933   2.631   5.949  0.2181 -0.2511 -0.3167
 2353Sol     OW12485   2.729   0.872   2.904 -0.4185 -0.6198 -0.1224
 2353Sol     HW12486   2.691   0.883   2.817  0.4929 -2.9560 -0.8574
 2353Sol     HW12487   2.806   0.928   2.904  0.4927 -1.8471 -1.4242
 2353Sol     MW12488   2.732   0.878   2.896 -0.3289  0.1361 -0.2782
 2354Sol     OW12489   2.114   3.220   7.445 -0.2689  0.5104 -0.1460
 2354Sol     HW12490   2.081   3.282   7.380  2.5574  1.2051 -0.9807
 2354Sol     HW12491   2.041   3.159   7.459 -1.5866  1.4794 -2.5102
 2354Sol     MW12492   2.104   3.220   7.440  0.3851  0.3073  0.0879
 2355Sol     OW12493   2.340   3.048   9.515  0.1843 -0.3005 -0.1684
 2355Sol     HW12494   2.432   3.034   9.536  0.3510 -0.3487 -0.8944
 2355Sol     HW12495   2.292   3.027   9.595  0.7045 -1.6089 -0.1924
 2355Sol     MW12496   2.344   3.045   9.524  0.5782  0.1718 -0.4501
 2356Sol     OW12497   3.261   0.595   6.116 -0.3048  0.4971  0.6345
 2356Sol     HW12498   3.309   0.530   6.065 -0.3321  1.3490 -0.4820
 2356Sol     HW12499   3.310   0.602   6.198  1.6824  1.6045 -0.6148
 2356Sol     MW12500   3.269   0.590   6.119  0.2738  0.0098  0.0781
 2357Sol     OW12501   1.446   2.805   7.659  0.2793  0.3327 -0.4466
 2357Sol     HW12502   1.486   2.818   7.745 -2.2483 -3.3242  1.4129
 2357Sol     HW12503   1.517   2.822   7.597  3.0412  0.0304  2.4914
 2357Sol     MW12504   1.456   2.807   7.661  0.1487  0.1438 -0.0330
 2358Sol     OW12505   0.905   3.404   5.380 -0.2499  0.9090 -0.2029
 2358Sol     HW12506   0.864   3.490   5.379 -0.1994  0.9885  1.8708
 2358Sol     HW12507   0.855   3.355   5.445  0.8864 -0.0348 -0.0241
 2358Sol     MW12508   0.897   3.407   5.386 -0.2143  0.4428 -0.0577
 2359Sol     OW12509   0.096   2.813   7.738 -0.0359 -0.1310  0.3348
 2359Sol     HW12510   0.125   2.852   7.821 -1.2282 -0.1118  0.7634
 2359Sol     HW12511   0.031   2.875   7.705  0.1109 -0.3683 -0.3958
 2359Sol     MW12512   0.093   2.822   7.743 -0.3591  0.1130  0.2517
 2360Sol     OW12513   0.439   2.241   4.931 -0.9022 -0.3978 -0.4554
 2360Sol     HW12514   0.401   2.323   4.963  0.6744  0.3341 -0.3818
 2360Sol     HW12515   0.500   2.269   4.863  0.2074 -1.4342  0.0972
 2360Sol     MW12516   0.441   2.251   4.928  0.1409  0.3176 -0.3311
 2361Sol     OW12517   0.147   2.305   7.335  0.4610 -0.1878 -0.4115
 2361Sol     HW12518   0.127   2.258   7.416 -0.1528 -0.0888 -0.5017
 2361Sol     HW12519   0.089   2.266   7.270  1.0544 -0.3665 -0.8395
 2361Sol     MW12520   0.140   2.297   7.336  0.0696 -0.3101 -0.6197
 2362Sol     OW12521   1.608   1.525   6.446 -0.1747 -0.9841 -0.6636
 2362Sol     HW12522   1.536   1.481   6.491 -0.4321  1.8869  1.8770
 2362Sol     HW12523   1.582   1.525   6.353 -3.0621 -0.7211  0.0959
 2362Sol     MW12524   1.600   1.521   6.441 -0.4669  0.1966 -0.0807
 2363Sol     OW12525   2.395   3.047   4.260 -0.5476  1.0617  0.3103
 2363Sol     HW12526   2.305   3.061   4.291 -0.3463  4.1832 -0.3884
 2363Sol     HW12527   2.401   3.098   4.180  1.0755 -1.3427 -1.1690
 2363Sol     MW12528   2.387   3.052   4.256  0.5595 -0.9171  0.7072
 2364Sol     OW12529   2.765   1.222   5.133 -0.0062 -0.9108  0.6529
 2364Sol     HW12530   2.704   1.279   5.179 -1.2340 -0.1275 -1.8744
 2364Sol     HW12531   2.837   1.280   5.107  1.0310 -1.4918  2.1021
 2364Sol     MW12532   2.766   1.233   5.135 -0.1074 -0.0766  0.5278
 2365Sol     OW12533   2.954   3.231   7.592  0.2571  0.5142  0.0193
 2365Sol     HW12534   3.026   3.288   7.621  0.2996  1.2866 -1.5788
 2365Sol     HW12535   2.886   3.244   7.658 -0.2185  3.4019 -0.9736
 2365Sol     MW12536   2.955   3.237   7.601 -0.2521  0.0182  0.0215
 2366Sol     OW12537   0.070   2.015   7.408 -0.0589  0.0688  0.1598
 2366Sol     HW12538   0.114   1.979   7.331 -1.3087 -1.5723  0.1850
 2366Sol     HW12539   0.109   1.969   7.482  0.3627  0.8446  0.4208
 2366Sol     MW12540   0.077   2.008   7.408  0.2925  0.1969 -0.1719
 2367Sol     OW12541   1.904   3.431   7.050  0.8818  0.3295 -0.5968
 2367Sol     HW12542   1.831   3.372   7.034 -0.0474  1.4935 -0.7136
 2367Sol     HW12543   1.919   3.474   6.966  0.3682  1.5603 -0.0827
 2367Sol     MW12544   1.899   3.430   7.041  0.2201 -0.0084  0.3638
 2368Sol     OW12545   1.042   2.839   7.219  0.5910  0.6039  0.0962
 2368Sol     HW12546   0.975   2.774   7.239 -0.1324  1.4236  0.3633
 2368Sol     HW12547   1.033   2.854   7.125  0.7104  0.3886  0.0474
 2368Sol     MW12548   1.035   2.834   7.212 -0.0443 -0.1990  0.0188
 2369Sol     OW12549   2.137   1.103   8.604  0.5066 -0.3561 -0.0596
 2369Sol     HW12550   2.099   1.032   8.552 -0.2343  0.0474 -0.0799
 2369Sol     HW12551   2.230   1.102   8.582  0.7629 -2.2237  0.9861
 2369Sol     MW12552   2.142   1.097   8.597  0.1706  0.1737  0.5577
 2370Sol     OW12553   0.044   0.559   2.869  0.3380  0.3345  0.2211
 2370Sol     HW12554   0.086   0.543   2.954 -1.6029  2.2599  1.5893
 2370Sol     HW12555   0.065   0.651   2.849 -1.4667  0.6918 -0.0774
 2370Sol     MW12556   0.050   0.566   2.875  0.3069  0.4071  0.5573
 2371Sol     OW12557   0.865   3.317   6.503  0.1914 -0.3693  0.2078
 2371Sol     HW12558   0.864   3.327   6.598 -1.2698 -0.0551  0.1794
 2371Sol     HW12559   0.878   3.406   6.470 -0.6995 -0.2674  0.1087
 2371Sol     MW12560   0.866   3.326   6.508 -0.1564  0.3308 -0.1222
 2372Sol     OW12561   1.712   0.694   5.716 -0.3937 -0.3985  0.0614
 2372Sol     HW12562   1.642   0.636   5.686 -0.3629 -1.0002  1.1252
 2372Sol     HW12563   1.786   0.673   5.658 -1.3965  1.0028 -1.7532
 2372Sol     MW12564   1.713   0.687   5.708 -0.4375  0.3660  0.2216
 2373Sol     OW12565   2.503   1.398   3.784  0.3458 -0.3395 -0.3669
 2373Sol     HW12566   2.540   1.475   3.829 -1.2888  0.0283  0.3995
 2373Sol     HW12567   2.410   1.400   3.807 -0.0870 -1.4338 -1.9804
 2373Sol     MW12568   2.498   1.405   3.790 -0.1870 -0.0393 -0.3327
 2374Sol     OW12569   2.652   1.171   3.866  1.3699 -0.2352 -0.0644
 2374Sol     HW12570   2.583   1.232   3.841  1.9382  0.5891  0.3439
 2374Sol     HW12571   2.696   1.149   3.784  0.0969 -1.4088 -0.4291
 2374Sol     MW12572   2.650   1.175   3.857  0.2479 -0.2994  0.2429
 2375Sol     OW12573   1.235   1.262   7.099 -0.8517  0.1618 -0.5244
 2375Sol     HW12574   1.147   1.297   7.084 -0.4425  0.8771 -1.3749
 2375Sol     HW12575   1.272   1.317   7.168 -0.4186  1.0533 -1.4545
 2375Sol     MW12576   1.230   1.270   7.103 -0.0796  0.2289 -0.3641
 2376Sol     OW12577   2.221   1.238   6.288 -0.4065 -0.1809 -0.1774
 2376Sol     HW12578   2.128   1.229   6.306  0.0592  1.4471  3.4213
 2376Sol     HW12579   2.261   1.254   6.374  2.8723  1.5530 -1.9180
 2376Sol     MW12580   2.217   1.239   6.297  0.3046  0.4945 -0.1909
 2377Sol     OW12581   2.141   3.071   1.908 -0.1113  0.0462 -0.0674
 2377Sol     HW12582   2.182   3.086   1.993  0.5668 -2.2723  0.0381
 2377Sol     HW12583   2.077   3.001   1.923 -0.3396 -0.0492 -1.3648
 2377Sol     MW12584   2.139   3.066   1.917 -0.5005  0.0363  0.0024
 2378Sol     OW12585   2.984   1.161   1.692 -0.1006 -0.3527  0.3305
 2378Sol     HW12586   2.988   1.253   1.718 -0.8702 -0.4349  0.7391
 2378Sol     HW12587   3.069   1.125   1.716 -1.2477 -0.7698  3.9690
 2378Sol     MW12588   2.992   1.166   1.696  0.7240  0.1038  0.4854
 2379Sol     OW12589   2.697   2.896   4.628 -0.1549  0.2579  0.4232
 2379Sol     HW12590   2.655   2.955   4.566 -0.0197 -0.8422 -0.7099
 2379Sol     HW12591   2.625   2.849   4.670 -0.2484  1.0318  1.1652
 2379Sol     MW12592   2.687   2.897   4.626  0.3304  0.2136  0.1690
 2380Sol     OW12593   1.591   0.233   6.161 -0.6746  0.5030  0.4364
 2380Sol     HW12594   1.675   0.269   6.129 -0.4133  1.3991  2.0977
 2380Sol     HW12595   1.606   0.139   6.164  0.0973  0.6066  0.1874
 2380Sol     MW12596   1.600   0.228   6.158  0.4211 -0.4914 -0.1091
 2381Sol     OW12597   2.193   3.044   8.029 -0.1016 -0.9752  0.2797
 2381Sol     HW12598   2.235   2.960   8.012  0.0608 -0.8671  0.1456
 2381Sol     HW12599   2.111   3.022   8.074 -1.1853 -1.3582 -1.8107
 2381Sol     MW12600   2.189   3.035   8.032 -0.5085 -0.0246  0.0937
 2382Sol     OW12601   2.551   1.435   4.465 -0.2164  0.0005 -0.6567
 2382Sol     HW12602   2.498   1.355   4.469  2.9859 -2.1915  0.3575
 2382Sol     HW12603   2.567   1.457   4.557  1.7439 -0.1783 -0.9432
 2382Sol     MW12604   2.547   1.430   4.474 -0.2256  0.4356  0.4083
 2383Sol     OW12605   0.358   2.480   8.835 -0.1649  0.3100 -0.0917
 2383Sol     HW12606   0.370   2.536   8.759 -1.6471  0.6772 -0.0706
 2383Sol     HW12607   0.315   2.401   8.802 -0.3392  0.2436  0.2813
 2383Sol     MW12608   0.355   2.478   8.826  0.0588  0.3821  0.2487
 2384Sol     OW12609   2.046   3.449   7.298 -0.6330  0.6460  0.2548
 2384Sol     HW12610   1.998   3.427   7.218 -1.9442  0.0399  1.1854
 2384Sol     HW12611   1.978   3.458   7.365  0.6794 -1.7626  1.9694
 2384Sol     MW12612   2.035   3.448   7.297  0.0927  0.1507  0.1189
 2385Sol     OW12613   1.875   2.559   8.322 -0.2914 -0.1146 -0.1573
 2385Sol     HW12614   1.901   2.467   8.330  1.9754  0.6192  1.2571
 2385Sol     HW12615   1.811   2.560   8.250  0.3652 -2.6355 -0.8129
 2385Sol     MW12616   1.871   2.551   8.316  0.1200  0.3911  0.2431
 2386Sol     OW12617   0.001   3.367   9.733 -0.2140  0.3043  0.3152
 2386Sol     HW12618  -0.036   3.283   9.707 -0.0946 -0.4219  2.3904
 2386Sol     HW12619   0.096   3.353   9.730 -0.2033 -0.0937  2.0160
 2386Sol     MW12620   0.006   3.358   9.730  0.3051 -0.1418 -0.7906
 2387Sol     OW12621   2.342   2.413   8.716 -0.3531  0.6322  0.1098
 2387Sol     HW12622   2.433   2.383   8.720 -0.8791 -0.8095  2.9115
 2387Sol     HW12623   2.299   2.352   8.656  0.1961  0.3427  0.0135
 2387Sol     MW12624   2.346   2.405   8.711  0.5712  0.0604  1.1944
 2388Sol     OW12625   2.744   0.102   6.578  0.4243 -0.1940  0.5792
 2388Sol     HW12626   2.709   0.059   6.500  0.7404  0.6475 -0.0405
 2388Sol     HW12627   2.797   0.035   6.621  1.0491 -0.3737 -0.4577
 2388Sol     MW12628   2.746   0.092   6.574 -0.1762 -0.0696  0.3149
 2389Sol     OW12629   2.723   1.041   5.927 -0.1789 -0.2920 -0.4337
 2389Sol     HW12630   2.637   1.077   5.949  0.0767  0.4888 -0.6810
 2389Sol     HW12631   2.750   1.090   5.850 -1.6353 -3.8580 -3.3601
 2389Sol     MW12632   2.718   1.049   5.922  0.0041 -0.1610  0.3883
 2390Sol     OW12633   2.735   1.168   8.836  0.4608 -0.0107 -0.4420
 2390Sol     HW12634   2.650   1.213   8.838  0.9958  1.0257 -0.7504
 2390Sol     HW12635   2.761   1.161   8.927 -0.9851 -2.3343 -0.1572
 2390Sol     MW12636   2.730   1.171   8.844  0.6146  0.0857 -0.4387
 2391Sol     OW12637   3.291   1.297   9.700 -0.3773  0.1290  0.1081
 2391Sol     HW12638   3.256   1.306   9.611 -1.5857  0.9123  0.6527
 2391Sol     HW12639   3.242   1.224   9.737 -0.1466  0.0509  0.2564
 2391Sol     MW12640   3.283   1.291   9.695  0.1835 -0.5977 -0.0597
 2392Sol     OW12641   1.440   0.432   8.077 -0.4428 -0.1705  0.2275
 2392Sol     HW12642   1.423   0.365   8.010 -0.5245  0.8610 -0.8141
 2392Sol     HW12643   1.475   0.384   8.151 -0.0798 -1.3234 -0.6698
 2392Sol     MW12644   1.442   0.422   8.077  0.1064 -0.1982  0.8448
 2393Sol     OW12645   1.989   0.218   6.093 -0.1171 -0.3033 -0.0156
 2393Sol     HW12646   1.914   0.277   6.089 -0.3715 -0.7358 -2.2027
 2393Sol     HW12647   2.023   0.228   6.182 -2.0613  0.7584  0.6288
 2393Sol     MW12648   1.985   0.224   6.101 -0.0477 -0.6685 -0.2429
 2394Sol     OW12649   2.653   0.401   6.841  0.2065  0.0351  0.3453
 2394Sol     HW12650   2.653   0.480   6.786 -0.3522 -0.2974 -0.1482
 2394Sol     HW12651   2.726   0.413   6.901 -0.5741  1.4461  1.0268
 2394Sol     MW12652   2.659   0.409   6.841 -0.0850 -0.2823  0.1684
 2395Sol     OW12653   1.676   0.764   5.983  0.4578 -0.3467  0.1363
 2395Sol     HW12654   1.750   0.722   6.027  0.9357  0.9601  0.5906
 2395Sol     HW12655   1.679   0.728   5.894 -0.2692 -2.6926  1.0119
 2395Sol     MW12656   1.683   0.757   5.979  0.0714  0.2902  0.3308
 2396Sol     OW12657   0.077   0.002   5.389  0.1038 -0.0584 -1.0383
 2396Sol     HW12658   0.075   0.098   5.388 -0.6286 -0.0712 -1.1710
 2396Sol     HW12659   0.085  -0.021   5.482  2.2419  0.1523 -1.1393
 2396Sol     MW12660   0.078   0.009   5.397 -0.1713  1.0092 -0.2669
 2397Sol     OW12661   2.579   1.540   4.177  0.0408  0.4450  0.1418
 2397Sol     HW12662   2.600   1.567   4.087  0.9450  1.1873  0.5662
 2397Sol     HW12663   2.559   1.622   4.222 -0.0547  0.1106  0.7107
 2397Sol     MW12664   2.579   1.550   4.173  0.4149 -0.0553  0.5042
 2398Sol     OW12665   0.376   3.195   3.988 -0.4078 -0.2219  0.1434
 2398Sol     HW12666   0.429   3.273   4.006  0.0948 -0.2717 -1.0368
 2398Sol     HW12667   0.287   3.228   3.977 -0.6802 -0.1686  2.4015
 2398Sol     MW12668   0.373   3.205   3.989  0.2733  0.6152 -0.4057
 2399Sol     OW12669   1.013   3.221   6.979  0.5714  0.2990  0.7959
 2399Sol     HW12670   1.027   3.127   6.981 -0.7931  0.0630 -0.1568
 2399Sol     HW12671   1.087   3.255   6.928  0.3362 -0.4017 -0.0206
 2399Sol     MW12672   1.021   3.216   6.974 -0.0319 -0.2565  0.0494
 2400Sol     OW12673   1.137   2.642   3.516  0.0161 -0.7145 -0.3378
 2400Sol     HW12674   1.175   2.619   3.601  0.0864 -0.7874 -0.3889
 2400Sol     HW12675   1.169   2.575   3.456 -0.4345 -0.9481 -0.3221
 2400Sol     MW12676   1.143   2.634   3.518 -0.0419  0.6576  0.4749
 2401Sol     OW12677   1.458   1.572   6.718  1.0535  0.1247 -0.1709
 2401Sol     HW12678   1.529   1.628   6.686  1.4474 -0.6809 -0.7102
 2401Sol     HW12679   1.495   1.526   6.793  0.3716  1.4279  0.9962
 2401Sol     MW12680   1.467   1.573   6.722 -0.1688  0.8006 -0.1901
 2402Sol     OW12681   1.971   0.545   8.571 -0.1404 -0.0996  0.1585
 2402Sol     HW12682   1.965   0.483   8.644  0.6641 -0.5678 -0.1606
 2402Sol     HW12683   1.935   0.499   8.496 -1.4117  0.5572  0.3622
 2402Sol     MW12684   1.968   0.535   8.571 -0.0437  0.2025 -0.1702
 2403Sol     OW12685   0.719   0.695   8.694 -0.5206  0.3677  0.2085
 2403Sol     HW12686   0.653   0.732   8.635  0.9893  2.3485 -0.3128
 2403Sol     HW12687   0.758   0.623   8.644 -2.2748 -0.8401  0.5333
 2403Sol     MW12688   0.717   0.692   8.684  0.4523  0.5378  0.3144
 2404Sol     OW12689   0.115   0.721   8.591  0.0755 -0.2175 -0.0638
 2404Sol     HW12690   0.045   0.677   8.640 -0.5094  0.1249 -0.5740
 2404Sol     HW12691   0.126   0.805   8.635 -0.3034  0.0031 -0.3847
 2404Sol     MW12692   0.110   0.724   8.599  0.3405  0.1674  0.3199
 2405Sol     OW12693   0.487   0.761   7.934 -0.0874  0.3107  0.2130
 2405Sol     HW12694   0.395   0.780   7.912 -0.9180 -2.0659  1.4631
 2405Sol     HW12695   0.517   0.702   7.866  0.8749  1.9137 -0.7804
 2405Sol     MW12696   0.481   0.758   7.926 -0.2724  0.3668  0.3479
 2406Sol     OW12697   1.319   2.904   9.841 -0.1411 -0.0249 -0.4516
 2406Sol     HW12698   1.332   2.827   9.898  0.4015  0.4466  0.0737
 2406Sol     HW12699   1.407   2.922   9.807 -0.3630  0.0554 -0.9826
 2406Sol     MW12700   1.328   2.898   9.843  0.0383  0.1352  0.0240
 2407Sol     OW12701   1.745   1.313   2.148 -0.0760  0.2337 -0.2423
 2407Sol     HW12702   1.657   1.344   2.171  0.3592  1.4745 -0.2321
 2407Sol     HW12703   1.791   1.391   2.117  1.7432  0.0426  1.8597
 2407Sol     MW12704   1.741   1.323   2.147 -0.9305  0.2105  0.1010
 2408Sol     OW12705   2.934   3.260   5.847  0.5837  0.2745  0.4018
 2408Sol     HW12706   2.932   3.177   5.894  0.8881  1.9147  3.3995
 2408Sol     HW12707   2.848   3.267   5.806  0.4856 -1.3945  0.3067
 2408Sol     MW12708   2.926   3.253   5.847 -0.2735  0.0177 -0.1656
 2409Sol     OW12709   2.497   0.064   4.632 -0.2391 -0.1646  0.4760
 2409Sol     HW12710   2.464   0.134   4.575 -1.6805 -1.2611 -0.0461
 2409Sol     HW12711   2.569   0.105   4.681 -0.5685  1.4617 -0.3794
 2409Sol     MW12712   2.501   0.074   4.631  0.0862 -0.1537 -0.7400
 2410Sol     OW12713   1.149   1.247   8.191  0.0806 -0.2268  0.0450
 2410Sol     HW12714   1.112   1.159   8.179  0.4859 -0.2946 -0.7528
 2410Sol     HW12715   1.152   1.259   8.286 -0.6417 -0.7950  0.1452
 2410Sol     MW12716   1.146   1.240   8.198 -0.2629 -0.1406 -0.3069
 2411Sol     OW12717   2.593   3.084   4.440 -0.0897  0.4222  0.4040
 2411Sol     HW12718   2.517   3.065   4.386 -1.2465 -1.2518  2.5305
 2411Sol     HW12719   2.667   3.050   4.390 -0.8766  0.7373 -1.0120
 2411Sol     MW12720   2.593   3.080   4.431 -0.1491 -0.2710 -0.1869
 2412Sol     OW12721   0.318   1.431   5.497  0.3252 -1.0716  0.4778
 2412Sol     HW12722   0.407   1.455   5.524  0.3677 -0.0251 -0.5556
 2412Sol     HW12723   0.330   1.361   5.433  0.3120 -2.1018  1.5693
 2412Sol     MW12724   0.327   1.427   5.494  0.0308  0.0092  0.1083
 2413Sol     OW12725   2.450   2.208   6.590 -0.0982  0.5234  0.3515
 2413Sol     HW12726   2.506   2.137   6.622 -0.7016 -0.0485  0.1641
 2413Sol     HW12727   2.510   2.277   6.563  0.4262  0.9492  2.5567
 2413Sol     MW12728   2.460   2.208   6.590 -0.0683 -0.0618  0.0320
 2414Sol     OW12729   0.758   3.420   5.756 -0.0437 -0.4276  0.5057
 2414Sol     HW12730   0.744   3.361   5.682  0.9507  0.1985 -0.1973
 2414Sol     HW12731   0.730   3.370   5.832 -0.8505 -1.1698 -0.2600
 2414Sol     MW12732   0.754   3.410   5.756 -0.1849 -0.1564 -0.9353
 2415Sol     OW12733   0.530   2.587   5.884  0.3514  0.1252 -0.0966
 2415Sol     HW12734   0.610   2.572   5.934  1.1799  1.5958 -0.9725
 2415Sol     HW12735   0.477   2.643   5.940  0.5607  0.3848 -0.1607
 2415Sol     MW12736   0.532   2.590   5.894 -0.3296 -0.0998  0.5588
 2416Sol     OW12737   0.825   1.171   5.415 -0.2335 -0.2385  0.8214
 2416Sol     HW12738   0.870   1.180   5.499 -0.1793 -1.2631  0.9000
 2416Sol     HW12739   0.732   1.169   5.437 -0.4363  3.0474  0.5726
 2416Sol     MW12740   0.821   1.172   5.424 -0.0780 -0.3033  0.2227
 2417Sol     OW12741   1.786   3.027   6.362  0.1123  0.2817 -0.1992
 2417Sol     HW12742   1.867   3.067   6.395  1.3111 -0.9727 -1.5070
 2417Sol     HW12743   1.747   2.985   6.439  0.2653  1.6165  0.6130
 2417Sol     MW12744   1.790   3.027   6.372  0.3515 -0.4447  0.2212
 2418Sol     OW12745   0.055   1.674   7.131 -0.3586 -0.5140  0.0367
 2418Sol     HW12746   0.031   1.608   7.196  0.0581 -1.3413 -0.6391
 2418Sol     HW12747   0.137   1.643   7.093 -0.0881  0.4581 -0.2004
 2418Sol     MW12748   0.060   1.665   7.133 -0.1203 -0.2271 -0.0489
 2419Sol     OW12749   1.911   1.148   4.011  0.2358 -0.3648 -0.5520
 2419Sol     HW12750   1.989   1.108   3.972 -0.3455  0.1610 -2.2790
 2419Sol     HW12751   1.943   1.230   4.049  0.7884 -0.8306 -0.0023
 2419Sol     MW12752   1.921   1.152   4.011 -0.1037  0.1344 -0.4062
 2420Sol     OW12753   1.626   1.817   7.416  0.3328  0.2662  0.6472
 2420Sol     HW12754   1.568   1.893   7.427 -1.3111 -0.8636  0.0061
 2420Sol     HW12755   1.706   1.854   7.378  0.4051  1.9748  2.3789
 2420Sol     MW12756   1.628   1.828   7.413 -0.6931 -0.0601  0.1194
 2421Sol     OW12757   0.613   0.874   5.584  0.3284  0.5806  0.1050
 2421Sol     HW12758   0.703   0.880   5.616  0.9202 -0.9553 -1.1901
 2421Sol     HW12759   0.562   0.844   5.659  1.3444 -0.9641  0.2132
 2421Sol     MW12760   0.616   0.872   5.594  0.5798 -0.2599 -0.1653
 2422Sol     OW12761   3.250   0.997   7.736 -0.0840  0.4070 -0.0549
 2422Sol     HW12762   3.260   0.902   7.737 -0.7917  0.3349 -0.1183
 2422Sol     HW12763   3.339   1.030   7.751  0.3663 -0.2558 -1.2410
 2422Sol     MW12764   3.259   0.991   7.737 -0.3326 -0.2388  0.4086
 2423Sol     OW12765   3.063   1.014   9.165  0.2001 -0.3771 -0.1270
 2423Sol     HW12766   3.096   1.007   9.075 -0.3700 -0.9471 -0.2973
 2423Sol     HW12767   3.106   0.942   9.211  1.7115  0.8501  0.4556
 2423Sol     MW12768   3.070   1.007   9.161  0.2744  0.0176 -0.0154
 2424Sol     OW12769   0.203   0.733   5.148  0.4957  0.0769  0.0287
 2424Sol     HW12770   0.161   0.804   5.099  1.3709  0.1908 -0.5667
 2424Sol     HW12771   0.278   0.774   5.191  1.5831 -0.6746 -1.1138
 2424Sol     MW12772   0.206   0.743   5.147  0.2196 -0.3173 -0.2539
 2425Sol     OW12773   3.278   3.188   4.466  0.0675  0.7098 -0.3417
 2425Sol     HW12774   3.320   3.160   4.385  0.5122 -0.9595  0.4406
 2425Sol     HW12775   3.309   3.126   4.532 -3.6486 -0.6121  0.2559
 2425Sol     MW12776   3.284   3.180   4.464 -0.1732 -0.2875 -0.7503
 2426Sol     OW12777   2.717   0.466   6.339 -0.4255 -0.3120 -0.2112
 2426Sol     HW12778   2.662   0.396   6.305  0.1998 -0.6899 -0.4662
 2426Sol     HW12779   2.708   0.537   6.276 -1.4319  0.0204  0.2948
 2426Sol     MW12780   2.712   0.466   6.330  0.0978  0.1145 -0.0624
 2427Sol     OW12781   2.264   0.878   2.337  0.4885 -0.1480 -0.0557
 2427Sol     HW12782   2.345   0.836   2.366  1.0447  0.2728 -0.9853
 2427Sol     HW12783   2.244   0.838   2.252 -0.8429 -0.9899  0.6269
 2427Sol     MW12784   2.269   0.871   2.332  0.0889 -0.1319  0.0473
 2428Sol     OW12785   2.470   0.578   9.215  0.2761  0.0605 -0.0236
 2428Sol     HW12786   2.472   0.642   9.144  0.9569  0.1779  0.0975
 2428Sol     HW12787   2.392   0.600   9.265  0.6302  0.9476  0.1524
 2428Sol     MW12788   2.464   0.586   9.213 -0.2651  0.4622  0.0713
 2429Sol     OW12789   1.525   3.087   2.404  0.1685  0.2784  0.4137
 2429Sol     HW12790   1.472   3.023   2.452  0.2641 -0.7550 -0.8227
 2429Sol     HW12791   1.463   3.156   2.380 -0.1613  0.1334  0.8400
 2429Sol     MW12792   1.515   3.088   2.406  0.5964  0.1862  0.2160
 2430Sol     OW12793   1.986   2.609   2.360  0.7287  0.0731  0.0645
 2430Sol     HW12794   2.038   2.606   2.440 -0.2090 -1.4263  0.6252
 2430Sol     HW12795   2.047   2.642   2.294  1.7056  0.6545  1.2340
 2430Sol     MW12796   1.996   2.612   2.361  0.0940  0.4446 -0.5248
 2431Sol     OW12797   2.123   0.829   9.171  0.4341  0.3760 -0.3149
 2431Sol     HW12798   2.101   0.918   9.200 -0.0340  0.6902 -1.6234
 2431Sol     HW12799   2.149   0.784   9.252 -1.1137  1.1615  0.6618
 2431Sol     MW12800   2.123   0.833   9.181  0.1622  0.3814  0.6448
 2432Sol     OW12801   2.705   0.120   2.205  0.1291 -0.3406  0.2080
 2432Sol     HW12802   2.783   0.167   2.176 -0.0690  1.1586  1.9936
 2432Sol     HW12803   2.738   0.043   2.251  0.5307  0.0424  0.5502
 2432Sol     MW12804   2.715   0.117   2.206 -0.2981  0.6472 -0.5535
 2433Sol     OW12805   1.887   1.351   9.548 -0.0649  0.5265 -0.8136
 2433Sol     HW12806   1.947   1.379   9.618 -1.3806  0.9847  0.1677
 2433Sol     HW12807   1.890   1.256   9.551  0.7602  0.5452 -0.8997
 2433Sol     MW12808   1.893   1.345   9.555 -0.2840  0.2322 -0.0865
 2434Sol     OW12809   1.848   0.805   8.219 -0.1131  0.1530 -0.0601
 2434Sol     HW12810   1.812   0.727   8.176  1.0079 -1.5590  1.9887
 2434Sol     HW12811   1.778   0.870   8.215 -1.9869 -1.7904  0.3752
 2434Sol     MW12812   1.838   0.804   8.215 -0.0038 -0.9155  0.0218
 2435Sol     OW12813   0.592   2.524   6.565  0.4070 -0.0568 -0.6820
 2435Sol     HW12814   0.616   2.457   6.629  0.8420 -1.4389 -2.2447
 2435Sol     HW12815   0.674   2.573   6.551  0.1255  0.7410  0.3491
 2435Sol     MW12816   0.602   2.522   6.570 -0.4463  0.2736 -0.3196
 2436Sol     OW12817   0.694   0.919   2.019  0.3438 -0.1728  0.4601
 2436Sol     HW12818   0.651   0.896   1.936  0.2957 -1.7395  0.9031
 2436Sol     HW12819   0.661   1.007   2.039 -1.2512 -0.6097 -0.1365
 2436Sol     MW12820   0.687   0.925   2.013 -0.3311 -0.3546 -0.5340
 2437Sol     OW12821   0.132   0.906   2.089  0.5168 -0.1478  0.1783
 2437Sol     HW12822   0.226   0.899   2.105  0.1248 -2.2301  1.8647
 2437Sol     HW12823   0.123   0.893   1.995  1.9120 -0.1656  0.0328
 2437Sol     MW12824   0.140   0.904   2.082 -0.2791  0.2828 -0.3059
 2438Sol     OW12825   2.407   1.199   4.495  0.0341  0.5546  0.2904
 2438Sol     HW12826   2.439   1.145   4.567 -0.2869  0.8557  0.6603
 2438Sol     HW12827   2.386   1.136   4.426  2.3943  0.4224 -0.3553
 2438Sol     MW12828   2.408   1.189   4.495 -0.2001  0.3073 -1.2828
 2439Sol     OW12829   0.077   0.438   9.876  0.2990 -0.2399  0.6098
 2439Sol     HW12830  -0.013   0.468   9.864  0.6563  0.4161 -0.5205
 2439Sol     HW12831   0.081   0.409   9.967 -0.7711  0.7078  0.9656
 2439Sol     MW12832   0.069   0.438   9.883 -0.0435 -0.0176 -0.0655
 2440Sol     OW12833   3.067   1.159   5.603 -0.0601  0.5103  0.3804
 2440Sol     HW12834   3.068   1.109   5.521  0.1571  2.8281 -1.0680
 2440Sol     HW12835   2.979   1.145   5.638  0.0036 -0.8809  0.0047
 2440Sol     MW12836   3.059   1.153   5.598 -0.0995 -0.0490 -0.1201
 2441Sol     OW12837   1.052   3.155   4.095  0.6266 -0.1098 -0.2299
 2441Sol     HW12838   0.991   3.083   4.078 -0.0010  0.0312  1.3414
 2441Sol     HW12839   1.000   3.234   4.082  0.1559  0.0032  2.1206
 2441Sol     MW12840   1.042   3.156   4.093 -0.4252 -0.6306 -0.3230
 2442Sol     OW12841   2.140   2.456   5.512  0.4924  0.4645  0.0586
 2442Sol     HW12842   2.062   2.410   5.484  1.3494  0.1339 -1.8547
 2442Sol     HW12843   2.108   2.538   5.550 -0.8287 -0.2286  0.4525
 2442Sol     MW12844   2.130   2.460   5.513 -0.2126  0.4463  0.1542
 2443Sol     OW12845   0.166   1.970   3.042  0.2172  0.0634 -0.5299
 2443Sol     HW12846   0.157   1.876   3.028  0.0824 -0.2146  1.2872
 2443Sol     HW12847   0.240   1.996   2.987  1.4480 -1.4653  0.3695
 2443Sol     MW12848   0.172   1.964   3.036 -0.1058 -0.1185  0.4036
 2444Sol     OW12849   2.370   2.149   3.207 -0.3788  0.0782 -0.0954
 2444Sol     HW12850   2.374   2.110   3.295 -1.4668  1.6567  0.6576
 2444Sol     HW12851   2.450   2.201   3.201 -2.2605  3.3759  1.6274
 2444Sol     MW12852   2.378   2.150   3.215 -0.2670 -0.1674  0.2662
 2445Sol     OW12853   2.556   2.726   7.844 -0.1311  0.5234  0.3727
 2445Sol     HW12854   2.474   2.728   7.894 -0.3071  1.5571  0.0521
 2445Sol     HW12855   2.621   2.692   7.905 -0.8562 -0.5702  0.5455
 2445Sol     MW12856   2.554   2.723   7.854 -0.2812 -0.6409  0.3820
 2446Sol     OW12857   0.918   1.975   5.758  0.2185  0.5128 -0.1420
 2446Sol     HW12858   0.961   1.930   5.831 -0.4852  0.7129  0.4117
 2446Sol     HW12859   0.905   2.065   5.790 -1.2891  0.2613  0.0132
 2446Sol     MW12860   0.921   1.979   5.768  0.1944 -0.2070  0.2302
 2447Sol     OW12861   2.582   0.363   9.087 -0.3437  0.3947 -0.3418
 2447Sol     HW12862   2.513   0.307   9.050 -0.3882  0.5310 -0.4670
 2447Sol     HW12863   2.534   0.435   9.129 -0.2492  1.1300 -1.4627
 2447Sol     MW12864   2.571   0.364   9.087  0.4143  0.1315  0.3696
 2448Sol     OW12865   0.622   0.452   2.444 -0.0637  0.3319 -0.1931
 2448Sol     HW12866   0.586   0.534   2.410 -0.2968  0.0250 -0.6984
 2448Sol     HW12867   0.608   0.456   2.538  1.0103  1.4083 -0.0726
 2448Sol     MW12868   0.618   0.459   2.449 -0.0727 -0.4695 -0.2438
 2449Sol     OW12869   2.022   2.979   3.700  0.5991 -0.7371  0.3252
 2449Sol     HW12870   1.988   3.051   3.754  1.2735 -1.1834  1.3648
 2449Sol     HW12871   1.983   2.994   3.613  0.0794  0.4079  0.7380
 2449Sol     MW12872   2.015   2.987   3.697 -0.0592 -0.3340  0.1253
 2450Sol     OW12873   2.751   2.390   5.031 -0.2783  0.3378 -0.3271
 2450Sol     HW12874   2.659   2.389   5.059 -0.1365 -1.2758  0.1413
 2450Sol     HW12875   2.800   2.392   5.113  0.1030  0.8397 -0.5704
 2450Sol     MW12876   2.747   2.390   5.041 -0.2059  0.4051 -0.1063
 2451Sol     OW12877   3.103   0.387   6.373  0.1344  0.0183  0.3095
 2451Sol     HW12878   3.158   0.462   6.397  0.4036 -0.4816  1.2678
 2451Sol     HW12879   3.047   0.372   6.449 -0.0674 -0.6317  0.0418
 2451Sol     MW12880   3.103   0.393   6.382 -0.2930 -0.1518  0.0652
 2452Sol     OW12881   3.249   2.075   5.154 -0.0838 -0.2084  0.5104
 2452Sol     HW12882   3.312   2.010   5.122 -1.4654 -2.2780  1.9078
 2452Sol     HW12883   3.165   2.047   5.118 -0.8194  0.3528  1.7694
 2452Sol     MW12884   3.247   2.067   5.148 -0.4714 -0.4736  0.3209
 2453Sol     OW12885   0.161   0.793   1.834  0.5593  0.2617 -0.0258
 2453Sol     HW12886   0.209   0.712   1.817  3.3951  1.9582 -0.5153
 2453Sol     HW12887   0.225   0.862   1.816 -1.9554  2.6269 -0.1930
 2453Sol     MW12888   0.171   0.792   1.831  0.7028  0.7752 -0.0124
 2454Sol     OW12889   2.406   1.591   7.002 -0.1605 -0.3755 -0.0387
 2454Sol     HW12890   2.384   1.560   7.090 -1.5615  2.0586  0.5081
 2454Sol     HW12891   2.498   1.618   7.008 -0.5024  0.5845  0.9043
 2454Sol     MW12892   2.412   1.590   7.010  0.2703 -0.4609 -0.2515
 2455Sol     OW12893   0.052   3.044   2.414  0.6279  0.0776  0.9391
 2455Sol     HW12894   0.127   3.008   2.462  0.0723  0.5307  2.1651
 2455Sol     HW12895   0.090   3.077   2.333  1.4563 -1.4094  0.7057
 2455Sol     MW12896   0.062   3.044   2.411  0.2424  0.3216 -0.0974
 2456Sol     OW12897   3.103   1.376   8.461  0.3893 -0.5502  0.1631
 2456Sol     HW12898   3.196   1.367   8.438  0.1344 -0.7442 -0.7922
 2456Sol     HW12899   3.068   1.287   8.454  0.3351 -0.6430  1.4594
 2456Sol     MW12900   3.108   1.367   8.459 -0.3169 -0.7551  0.6386
 2457Sol     OW12901   2.687   0.497   3.413  0.1909  0.5148 -0.3055
 2457Sol     HW12902   2.611   0.475   3.360  0.4254 -1.1698  0.0088
 2457Sol     HW12903   2.762   0.464   3.363  0.7533  2.4652 -0.7755
 2457Sol     MW12904   2.687   0.492   3.404  0.1611 -0.3128 -0.6365
 2458Sol     OW12905   1.428   1.031   4.161 -0.1505 -0.3119  0.3773
 2458Sol     HW12906   1.388   1.087   4.094  0.5945 -1.5969 -1.1459
 2458Sol     HW12907   1.462   1.093   4.226  2.8253  1.1567 -2.4748
 2458Sol     MW12908   1.427   1.042   4.161 -0.5515 -0.0839 -0.1127
 2459Sol     OW12909   0.575   2.802   2.684  0.8014 -0.0459  0.3977
 2459Sol     HW12910   0.645   2.762   2.737  0.4450  0.8296  1.5498
 2459Sol     HW12911   0.499   2.804   2.743  1.0336  3.0571  0.6480
 2459Sol     MW12912   0.574   2.798   2.694 -0.5288  0.2915  0.2405
 2460Sol     OW12913   2.581   1.101   1.498 -0.1968 -0.1995 -0.5317
 2460Sol     HW12914   2.636   1.166   1.455  1.2545 -0.8894  0.2457
 2460Sol     HW12915   2.513   1.153   1.542  1.0122  0.8156  0.1816
 2460Sol     MW12916   2.580   1.112   1.498  0.4049 -0.2492 -0.0296
 2461Sol     OW12917   0.635   2.791   2.412  0.1389 -0.3241  0.0673
 2461Sol     HW12918   0.606   2.768   2.501  0.0069  0.5457  0.2578
 2461Sol     HW12919   0.592   2.875   2.394 -0.2095 -0.7319 -1.0054
 2461Sol     MW12920   0.629   2.797   2.419  0.2456 -0.0404  0.5464
 2462Sol     OW12921   2.443   1.948   2.373 -0.1119  0.0202 -0.0157
 2462Sol     HW12922   2.409   1.984   2.291 -0.1283  0.4719  0.1900
 2462Sol     HW12923   2.525   1.904   2.348 -2.6401 -4.3609 -1.2095
 2462Sol     MW12924   2.447   1.947   2.363  0.2728  0.1604  0.2113
 2463Sol     OW12925   0.043   3.383   5.679  0.3480 -0.1437 -0.2978
 2463Sol     HW12926   0.069   3.475   5.671  2.3506 -0.5603  1.0640
 2463Sol     HW12927   0.027   3.370   5.772 -0.9803 -0.9297 -0.6140
 2463Sol     MW12928   0.044   3.390   5.686  0.3068 -0.5246 -0.1001
 2464Sol     OW12929   1.432   2.137   5.163 -0.6027 -0.6857 -0.6105
 2464Sol     HW12930   1.379   2.059   5.147 -1.1254 -0.1065 -1.7585
 2464Sol     HW12931   1.369   2.207   5.179 -0.1615 -0.2580 -0.6992
 2464Sol     MW12932   1.422   2.136   5.163 -0.0665  0.4411 -0.2668
 2465Sol     OW12933   2.668   0.333   2.978 -0.0962  0.1373  0.4322
 2465Sol     HW12934   2.688   0.427   2.968 -0.1481 -0.1013 -1.9780
 2465Sol     HW12935   2.730   0.289   2.921 -2.0887 -1.1272 -0.7844
 2465Sol     MW12936   2.676   0.338   2.972 -0.6573 -0.5791 -0.4715
 2466Sol     OW12937   0.573   2.757   8.983  0.1563  0.4125 -0.2151
 2466Sol     HW12938   0.542   2.673   9.018  0.2486  0.4070 -0.1471
 2466Sol     HW12939   0.546   2.821   9.048 -0.5636  0.5276 -0.6220
 2466Sol     MW12940   0.567   2.755   8.992  0.0885  0.8784  0.1844
 2467Sol     OW12941   0.884   0.786   2.170 -0.7025  0.4243  0.4871
 2467Sol     HW12942   0.843   0.701   2.186 -0.8160  0.1605 -1.1787
 2467Sol     HW12943   0.829   0.828   2.105 -0.4983  1.6791  1.1027
 2467Sol     MW12944   0.876   0.782   2.166 -0.3507  0.0045  0.2489
 2468Sol     OW12945   0.428   2.692   9.962  0.1750  0.4452 -0.2867
 2468Sol     HW12946   0.428   2.784   9.935 -0.6222  0.4478 -0.3001
 2468Sol     HW12947   0.355   2.653   9.914  1.6185 -0.6130 -1.6479
 2468Sol     MW12948   0.421   2.697   9.956  0.1514  0.7616  0.0167
 2469Sol     OW12949   1.303   2.840   9.167 -0.3942  0.4343  0.3356
 2469Sol     HW12950   1.286   2.750   9.197 -3.3398  1.6176  2.5407
 2469Sol     HW12951   1.376   2.870   9.221 -1.0125  0.1551  1.3481
 2469Sol     MW12952   1.308   2.834   9.175 -0.3232  0.5355  0.0143
 2470Sol     OW12953   3.223   0.468   8.423 -0.3120 -0.0786 -1.0064
 2470Sol     HW12954   3.184   0.408   8.485  1.0072  0.1906  0.1064
 2470Sol     HW12955   3.276   0.527   8.476  0.7152  0.2557 -2.3614
 2470Sol     MW12956   3.224   0.468   8.433  0.2553  0.2449  0.4996
 2471Sol     OW12957   0.509   1.267   6.881  0.3053 -0.7255  0.6760
 2471Sol     HW12958   0.454   1.334   6.840 -0.8339 -1.1688  1.4525
 2471Sol     HW12959   0.599   1.292   6.858 -0.1820  0.3459 -0.1011
 2471Sol     MW12960   0.512   1.275   6.875  0.4180  0.0016  0.6472
 2472Sol     OW12961   2.718   0.129   3.331 -0.3914 -0.5908  0.5667
 2472Sol     HW12962   2.681   0.079   3.258  0.3731  0.0282 -0.2575
 2472Sol     HW12963   2.646   0.185   3.361 -0.2578  0.3143 -0.7613
 2472Sol     MW12964   2.708   0.130   3.327  0.3937 -0.1569  0.2869
 2473Sol     OW12965   2.712   1.431   2.313 -0.3270  0.1441 -0.2953
 2473Sol     HW12966   2.675   1.394   2.393 -0.6756  1.3339  0.0945
 2473Sol     HW12967   2.648   1.495   2.283 -1.0429 -1.5350 -2.5147
 2473Sol     MW12968   2.703   1.433   2.317 -0.0798 -0.3291  0.3574
 2474Sol     OW12969   1.042   3.265   5.135  0.1361 -0.2232  0.0173
 2474Sol     HW12970   1.015   3.268   5.227 -0.3832  1.1818 -0.1705
 2474Sol     HW12971   0.960   3.259   5.086  0.3359  0.4506 -0.4050
 2474Sol     MW12972   1.032   3.265   5.139  0.6569 -0.1104 -0.2095
 2475Sol     OW12973   2.400   3.095   4.660 -0.2188 -0.4760  0.3955
 2475Sol     HW12974   2.340   3.022   4.672 -0.1265 -0.7166 -0.5811
 2475Sol     HW12975   2.457   3.069   4.588  0.7218 -0.0233  0.9529
 2475Sol     MW12976   2.400   3.086   4.655 -0.3268 -0.5290  0.0653
 2476Sol     OW12977   1.081   1.563   2.968 -0.2601 -0.2386  0.1529
 2476Sol     HW12978   1.161   1.511   2.979 -0.2939 -0.2105  0.5380
 2476Sol     HW12979   1.022   1.505   2.919  0.0861 -0.1616 -0.3686
 2476Sol     MW12980   1.083   1.553   2.964 -0.0376  0.7193  0.3201
 2477Sol     OW12981   2.997   2.694   1.537  0.7117  0.7151  0.1186
 2477Sol     HW12982   3.079   2.695   1.588  1.0312  0.0205 -0.3728
 2477Sol     HW12983   2.975   2.786   1.525  0.4007  0.8879  1.9017
 2477Sol     MW12984   3.002   2.702   1.541  0.3700 -0.0136 -0.2254
 2478Sol     OW12985   2.914   2.337   6.489  0.4345  0.0893 -0.2616
 2478Sol     HW12986   2.959   2.333   6.405  1.3701 -2.3103  0.3035
 2478Sol     HW12987   2.920   2.248   6.524 -3.2113  0.1099  0.6779
 2478Sol     MW12988   2.919   2.329   6.485  0.1600 -0.0946  0.0831
 2479Sol     OW12989   1.390   0.901   5.512  0.0973 -0.5077  0.0105
 2479Sol     HW12990   1.470   0.952   5.523 -1.0872  1.3437  0.2988
 2479Sol     HW12991   1.361   0.923   5.423  0.5155 -2.0957 -0.5394
 2479Sol     MW12992   1.395   0.907   5.505 -0.3059 -0.0898 -0.1731
 2480Sol     OW12993   0.252   0.428   4.469 -0.4043  0.0070  0.4317
 2480Sol     HW12994   0.214   0.510   4.500 -0.8437 -0.6960  1.7529
 2480Sol     HW12995   0.277   0.381   4.548 -1.9572 -1.9981 -0.2197
 2480Sol     MW12996   0.251   0.431   4.479 -0.3457 -0.0678 -0.3852
 2481Sol     OW12997   3.053   2.085   9.042 -0.4896 -0.1083  0.3726
 2481Sol     HW12998   2.990   2.025   9.081  1.4734 -1.8535  0.9414
 2481Sol     HW12999   3.123   2.029   9.009  0.9014  1.7832 -0.0003
 2481Sol     MW13000   3.054   2.075   9.043 -0.0546  0.1924  0.1015
 2482Sol     OW13001   1.424   0.866   7.597  0.7151  0.2224 -0.3619
 2482Sol     HW13002   1.366   0.829   7.532  0.4395 -0.4444  0.2544
 2482Sol     HW13003   1.366   0.893   7.668  1.0822  0.2488 -0.0687
 2482Sol     MW13004   1.414   0.865   7.598  0.4657 -0.0171  0.0985
 2483Sol     OW13005   1.714   0.388   1.627  0.2011  0.0419  0.6467
 2483Sol     HW13006   1.663   0.435   1.561  0.5955 -2.0825 -1.2348
 2483Sol     HW13007   1.805   0.399   1.600  0.3557 -0.9800  0.7215
 2483Sol     MW13008   1.718   0.393   1.619  0.6630 -0.3218 -0.8234
 2484Sol     OW13009   3.187   0.734   7.989  0.7175  0.0684  0.0370
 2484Sol     HW13010   3.226   0.795   8.052 -0.4417  0.6913  0.1435
 2484Sol     HW13011   3.170   0.655   8.040 -0.7588  0.7768  0.6385
 2484Sol     MW13012   3.189   0.732   7.999 -0.5052  0.4236  0.1089
 2485Sol     OW13013   2.256   1.449   1.925 -0.7306  0.5620  0.5054
 2485Sol     HW13014   2.325   1.398   1.968 -0.5071  0.7867  0.4133
 2485Sol     HW13015   2.266   1.431   1.832 -0.3387  1.1571  0.4289
 2485Sol     MW13016   2.263   1.443   1.921  0.4469  0.0068 -0.2349
 2486Sol     OW13017   1.498   1.336   8.151 -0.3824 -0.1406 -0.2844
 2486Sol     HW13018   1.573   1.294   8.108 -1.5223 -0.0553 -2.4571
 2486Sol     HW13019   1.523   1.342   8.243  1.1008 -2.7224 -0.4549
 2486Sol     MW13020   1.507   1.332   8.155 -0.0727 -0.3482  0.1875
 2487Sol     OW13021   2.995   3.166   4.440 -0.1143 -0.2748 -0.2915
 2487Sol     HW13022   3.090   3.174   4.438 -0.1334  0.3222  0.9730
 2487Sol     HW13023   2.975   3.117   4.520 -0.9062  0.2234 -0.1732
 2487Sol     MW13024   3.002   3.162   4.447  0.0580 -0.4176  0.3503
 2488Sol     OW13025   2.521   0.199   6.718  0.1827  0.3080 -0.1313
 2488Sol     HW13026   2.586   0.153   6.664 -0.0990  0.0305 -0.2390
 2488Sol     HW13027   2.569   0.272   6.757  0.5392  0.1516 -0.2744
 2488Sol     MW13028   2.531   0.201   6.716  0.5034 -0.2692  0.0406
 2489Sol     OW13029   1.256   1.613   4.131 -0.1858 -0.3254 -0.4555
 2489Sol     HW13030   1.182   1.659   4.173 -2.5002 -3.2057 -1.2206
 2489Sol     HW13031   1.265   1.655   4.046  1.1453  2.0986  0.8195
 2489Sol     MW13032   1.250   1.621   4.127 -0.0167 -0.1172 -0.0610
 2490Sol     OW13033   1.826   0.441   4.388 -1.0777  0.5785  0.4559
 2490Sol     HW13034   1.784   0.492   4.457 -1.7383  2.8636 -1.5928
 2490Sol     HW13035   1.775   0.460   4.309 -0.3248 -1.9597 -0.7124
 2490Sol     MW13036   1.817   0.447   4.387  0.3256 -0.3562  0.0062
 2491Sol     OW13037   2.042   0.667   4.155  0.6599 -0.8685 -0.2407
 2491Sol     HW13038   2.058   0.573   4.163  0.8111 -0.7105  1.5048
 2491Sol     HW13039   2.030   0.697   4.245 -0.3563  0.6232 -0.8592
 2491Sol     MW13040   2.043   0.661   4.164  0.7823  1.1361  0.2250
 2492Sol     OW13041   2.574   1.816   8.370 -0.2712  0.4322  0.1846
 2492Sol     HW13042   2.567   1.888   8.308 -2.2746 -0.0627 -0.1846
 2492Sol     HW13043   2.528   1.847   8.448 -0.2238 -0.0498  0.4042
 2492Sol     MW13044   2.569   1.825   8.371  0.0802 -0.1191 -0.9469
 2493Sol     OW13045   0.991   0.618   7.939 -0.0422  0.3616  0.7323
 2493Sol     HW13046   0.985   0.693   7.880  1.9808  0.5470  0.7277
 2493Sol     HW13047   1.043   0.554   7.890 -2.3114 -1.3325  0.4626
 2493Sol     MW13048   0.995   0.619   7.929 -0.5826  0.6520 -0.3516
 2494Sol     OW13049   2.740   2.604   2.821  0.5128  0.4327 -0.1288
 2494Sol     HW13050   2.821   2.646   2.847  0.2264  2.0662 -1.7846
 2494Sol     HW13051   2.730   2.531   2.882  3.6908 -0.3511 -0.4716
 2494Sol     MW13052   2.746   2.601   2.829 -0.1752 -0.2832 -0.0678
 2495Sol     OW13053   2.574   1.752   9.485  0.1955 -0.1891 -0.1294
 2495Sol     HW13054   2.505   1.798   9.437 -0.2985 -0.5774  0.2195
 2495Sol     HW13055   2.540   1.665   9.500  1.2286 -0.7558 -0.9717
 2495Sol     MW13056   2.565   1.749   9.482 -0.0056 -0.5599  0.6947
 2496Sol     OW13057   1.363   3.147   9.019 -0.3068  0.1391  0.5811
 2496Sol     HW13058   1.341   3.108   8.934 -2.8436  1.6332  0.5028
 2496Sol     HW13059   1.308   3.100   9.082 -2.0336  2.2246  0.7180
 2496Sol     MW13060   1.356   3.139   9.017  0.2620 -0.4153  0.1938
 2497Sol     OW13061   0.852   1.316   9.357  0.0467  0.4063  0.1288
 2497Sol     HW13062   0.915   1.255   9.319  1.6670  1.8441  0.4393
 2497Sol     HW13063   0.815   1.362   9.282 -1.2773 -0.9996 -0.1172
 2497Sol     MW13064   0.854   1.315   9.347  0.2074  0.5329 -0.5620
 2498Sol     OW13065   3.227   1.342   3.707 -0.1039  0.0442  0.0734
 2498Sol     HW13066   3.170   1.411   3.674  2.1496  1.0550 -1.8250
 2498Sol     HW13067   3.291   1.387   3.761  0.7250 -0.7126 -0.2704
 2498Sol     MW13068   3.227   1.352   3.709 -0.3910 -0.4967  0.0048
 2499Sol     OW13069   0.496   0.100   6.641  0.4111 -0.0243  0.0923
 2499Sol     HW13070   0.518   0.062   6.556 -1.5032  1.0592 -0.9222
 2499Sol     HW13071   0.439   0.174   6.620 -0.8962 -0.3340  2.3634
 2499Sol     MW13072   0.492   0.103   6.632  0.1475  0.1300 -0.2981
 2500Sol     OW13073   1.818   0.113   7.995  0.2220 -0.4153  0.1702
 2500Sol     HW13074   1.833   0.131   8.088  1.9476  1.0625 -0.3654
 2500Sol     HW13075   1.793   0.198   7.958  2.4085 -0.3539 -1.2559
 2500Sol     MW13076   1.817   0.122   8.000  0.4912  0.3135  0.9702
 2501Sol     OW13077   2.224   2.463   1.449  0.3176  0.4778  0.2356
 2501Sol     HW13078   2.199   2.528   1.384 -0.6708 -2.3684 -2.3845
 2501Sol     HW13079   2.308   2.428   1.418  0.1742 -0.4340  0.8273
 2501Sol     MW13080   2.230   2.465   1.440  0.3041  0.0502 -0.4467
 2502Sol     OW13081   2.672   1.527   5.949 -0.3290  0.2497  0.0375
 2502Sol     HW13082   2.649   1.463   6.017 -0.9582  0.8056  0.3464
 2502Sol     HW13083   2.590   1.573   5.931  0.1247  0.9728 -0.1802
 2502Sol     MW13084   2.663   1.525   5.954  0.0130 -0.2782 -0.0157
 2503Sol     OW13085   0.589   0.717   7.524  0.0779 -0.0842 -0.4428
 2503Sol     HW13086   0.678   0.717   7.558  1.2310 -1.7631 -3.3284
 2503Sol     HW13087   0.557   0.806   7.538  2.5623  0.7952 -0.2733
 2503Sol     MW13088   0.594   0.725   7.528 -0.2744 -0.4278  0.4924
 2504Sol     OW13089   1.945   0.857   5.566 -0.0261  0.1106 -0.2634
 2504Sol     HW13090   1.918   0.881   5.655  1.5830  0.1741  0.2180
 2504Sol     HW13091   1.992   0.934   5.534 -0.5994  0.0865 -1.1834
 2504Sol     MW13092   1.946   0.866   5.571 -0.3304  0.4731 -0.3008
 2505Sol     OW13093   2.275   1.902   6.286 -0.4920 -0.0416  0.0050
 2505Sol     HW13094   2.183   1.919   6.266 -0.5226 -0.6752 -0.4048
 2505Sol     HW13095   2.316   1.988   6.286 -1.1373  0.2681  0.4475
 2505Sol     MW13096   2.270   1.911   6.285 -0.1506  1.2506 -0.6215
 2506Sol     OW13097   2.492   1.269   2.046 -0.0055  0.0131 -0.0239
 2506Sol     HW13098   2.572   1.321   2.042  0.3169 -0.5018 -0.3534
 2506Sol     HW13099   2.480   1.250   2.139  0.9491 -0.9667 -0.0946
 2506Sol     MW13100   2.498   1.272   2.054 -0.4054  0.5664 -0.1816
 2507Sol     OW13101   1.005   0.843   7.799  0.8854  0.1279  0.2595
 2507Sol     HW13102   0.934   0.885   7.847  1.5452  2.8856 -1.0922
 2507Sol     HW13103   1.074   0.910   7.795  2.3846 -1.4428 -1.0568
 2507Sol     MW13104   1.005   0.853   7.803 -0.0383  0.2773 -0.2704
 2508Sol     OW13105   0.452   0.860   5.264  0.4733  0.4510  0.4692
 2508Sol     HW13106   0.483   0.770   5.276 -0.0879  0.3625  1.2355
 2508Sol     HW13107   0.494   0.888   5.182 -1.8530 -1.5911 -1.5286
 2508Sol     MW13108   0.459   0.854   5.258 -0.1849 -0.4862  0.1076
 2509Sol     OW13109   0.699   1.614   2.885 -0.6257  0.1584 -0.2739
 2509Sol     HW13110   0.744   1.685   2.838 -0.4479  0.2458  0.0264
 2509Sol     HW13111   0.760   1.541   2.884  0.6127  1.0730  2.3434
 2509Sol     MW13112   0.708   1.614   2.881  0.7103 -0.3370 -0.5797
 2510Sol     OW13113   0.512   0.353   5.873 -0.3056  0.3883 -0.4159
 2510Sol     HW13114   0.534   0.290   5.804  2.5636 -1.8446  2.3674
 2510Sol     HW13115   0.426   0.325   5.904 -1.3737  1.0744 -2.6384
 2510Sol     MW13116   0.506   0.345   5.869 -0.2954 -0.3160 -0.0340
 2511Sol     OW13117   0.955   0.976   2.960 -0.0076 -0.4249  0.7099
 2511Sol     HW13118   1.010   1.024   2.898  2.0880 -2.3669  0.9901
 2511Sol     HW13119   0.906   1.044   3.006  0.5954  1.2203 -1.0207
 2511Sol     MW13120   0.956   0.987   2.959  0.3044 -0.3105 -0.5406
 2512Sol     OW13121   2.129   0.467   6.282 -0.2858 -0.3358  0.3708
 2512Sol     HW13122   2.076   0.397   6.321  0.6422  0.4962  3.2741
 2512Sol     HW13123   2.186   0.495   6.353  1.7554  1.0392 -1.7630
 2512Sol     MW13124   2.129   0.463   6.292  0.2023 -0.0630 -0.3806
 2513Sol     OW13125   0.102   0.138   9.561 -0.0730  0.1156  0.2418
 2513Sol     HW13126   0.079   0.065   9.619  0.9854 -0.0697  0.4320
 2513Sol     HW13127   0.194   0.124   9.540 -0.5943 -0.1482 -1.9748
 2513Sol     MW13128   0.108   0.130   9.564  0.4614 -0.0357 -0.0720
 2514Sol     OW13129   2.332   1.285   6.541  0.0184 -0.2730  0.7047
 2514Sol     HW13130   2.324   1.364   6.594  1.4310  0.5814 -0.3022
 2514Sol     HW13131   2.424   1.284   6.514 -0.6546 -0.6728 -1.7154
 2514Sol     MW13132   2.340   1.292   6.543  0.2051  0.1290 -0.5252
 2515Sol     OW13133   1.103   2.361   7.761 -0.1818 -0.3892 -0.3175
 2515Sol     HW13134   1.156   2.433   7.726  0.5452  0.0866  1.6887
 2515Sol     HW13135   1.049   2.333   7.687  1.0126  0.8437 -1.6927
 2515Sol     MW13136   1.103   2.365   7.751  0.2939  0.3374 -0.0996
 2516Sol     OW13137   0.568   2.852   4.881 -0.5292 -0.1306 -0.7902
 2516Sol     HW13138   0.645   2.906   4.897 -0.6901 -0.1615  0.1628
 2516Sol     HW13139   0.534   2.883   4.797  0.2850  0.1617 -1.0155
 2516Sol     MW13140   0.571   2.860   4.875  0.1647 -0.3196  0.5197
 2517Sol     OW13141   2.006   3.212   6.094 -0.4309 -0.3260 -0.3566
 2517Sol     HW13142   2.018   3.208   6.189  0.9345  1.1830 -0.4507
 2517Sol     HW13143   2.063   3.144   6.060  1.1212  0.8842 -0.2374
 2517Sol     MW13144   2.012   3.206   6.100 -0.1078 -0.6050  0.6011
 2518Sol     OW13145   1.567   2.859   6.480 -0.1062 -0.5803  0.2256
 2518Sol     HW13146   1.507   2.863   6.405  0.4062  0.0539 -0.1520
 2518Sol     HW13147   1.625   2.785   6.460  0.0643 -0.3776 -0.0250
 2518Sol     MW13148   1.566   2.853   6.471 -0.3410 -0.0535 -0.0532
 2519Sol     OW13149   2.648   1.400   3.532 -0.1188 -0.0036  0.3418
 2519Sol     HW13150   2.684   1.488   3.545 -0.0990  0.2578 -1.3051
 2519Sol     HW13151   2.608   1.378   3.616  2.1666  0.4923  1.6006
 2519Sol     MW13152   2.647   1.406   3.540 -0.6110  0.6038 -0.2469
 2520Sol     OW13153   2.498   1.223   8.273  0.5308 -0.1061  0.0883
 2520Sol     HW13154   2.480   1.185   8.187  0.1664  0.4532 -0.0882
 2520Sol     HW13155   2.577   1.276   8.260  0.7273 -0.3720  0.2026
 2520Sol     MW13156   2.503   1.225   8.264 -0.0043 -0.2271  0.0121
 2521Sol     OW13157   1.648   3.410   6.197  0.5362 -0.4763  0.2576
 2521Sol     HW13158   1.645   3.405   6.101  0.4385 -3.3673  0.3705
 2521Sol     HW13159   1.663   3.320   6.225  1.2478  0.4455  2.9617
 2521Sol     MW13160   1.649   3.402   6.191  0.7367  0.1788 -0.0138
 2522Sol     OW13161   1.249   1.933   2.584 -0.2290 -0.0924  0.1728
 2522Sol     HW13162   1.305   2.007   2.563 -0.3839  0.1734  0.6814
 2522Sol     HW13163   1.163   1.957   2.549 -0.4044  0.2018  0.7858
 2522Sol     MW13164   1.246   1.942   2.579  0.2570  0.5431  0.0910
 2523Sol     OW13165   0.588   1.648   6.866  0.1631  0.1170  0.0604
 2523Sol     HW13166   0.523   1.710   6.833 -0.1662  0.0513  0.5883
 2523Sol     HW13167   0.626   1.609   6.787 -0.1771  0.4233 -0.2562
 2523Sol     MW13168   0.586   1.650   6.856 -0.0675 -0.8233  0.0513
 2524Sol     OW13169   1.508   2.335   6.966 -0.1270  0.1850  0.3592
 2524Sol     HW13170   1.558   2.416   6.956 -0.2664  0.3248  0.7886
 2524Sol     HW13171   1.482   2.334   7.058 -1.5300  0.4668 -0.0288
 2524Sol     MW13172   1.511   2.342   6.973  0.0530 -0.1217 -0.5818
 2525Sol     OW13173   1.021   1.529   2.225  0.7221  0.2485  0.3671
 2525Sol     HW13174   1.114   1.550   2.219  0.5650  0.4413 -1.4434
 2525Sol     HW13175   0.977   1.612   2.209  0.2113 -0.0577  0.1992
 2525Sol     MW13176   1.026   1.538   2.223 -0.3260  0.2404  0.0148
 2526Sol     OW13177   2.902   1.420   9.791 -0.3405 -0.5534 -0.2821
 2526Sol     HW13178   2.920   1.407   9.698  2.1026  1.3308 -0.1474
 2526Sol     HW13179   2.811   1.447   9.795  0.0075  1.0662 -2.3354
 2526Sol     MW13180   2.896   1.421   9.783 -0.8939 -0.0484 -0.1624
 2527Sol     OW13181   3.294   2.459   5.029 -0.2148  0.0908 -0.3459
 2527Sol     HW13182   3.389   2.458   5.036 -0.2540  0.4432  0.2427
 2527Sol     HW13183   3.273   2.383   4.974  0.3714 -0.2753 -0.0664
 2527Sol     MW13184   3.301   2.452   5.024 -0.1423  0.0733  0.4226
 2528Sol     OW13185   1.900   1.137   9.818 -0.4350  0.0561 -0.2004
 2528Sol     HW13186   1.915   1.098   9.732 -1.6936  1.5013 -1.1098
 2528Sol     HW13187   1.872   1.065   9.874  0.8542 -0.9780 -0.8726
 2528Sol     MW13188   1.899   1.127   9.815 -0.7756 -1.2221 -0.2222
 2529Sol     OW13189   0.219   2.875   4.793 -0.0526 -0.5114 -0.1518
 2529Sol     HW13190   0.284   2.927   4.746 -1.5949  1.0053 -0.6655
 2529Sol     HW13191   0.135   2.913   4.767 -1.0757 -1.5342  1.5741
 2529Sol     MW13192   0.217   2.883   4.786  0.0055  1.4071  0.0893
 2530Sol     OW13193   1.278   1.661   1.525  0.0982  0.2156  0.0976
 2530Sol     HW13194   1.279   1.751   1.492  2.1797  0.2458  0.2261
 2530Sol     HW13195   1.338   1.614   1.468 -0.6757 -1.0207  0.2874
 2530Sol     MW13196   1.283   1.665   1.517  0.2716  0.0519  0.0639
 2531Sol     OW13197   1.838   1.028   6.161  0.3461 -0.4988 -0.0642
 2531Sol     HW13198   1.874   1.070   6.083 -1.3246 -1.0305 -1.1332
 2531Sol     HW13199   1.756   1.075   6.178 -0.6094 -2.0814 -0.1857
 2531Sol     MW13200   1.834   1.036   6.156  0.2600 -0.5736 -0.5453
 2532Sol     OW13201   2.639   3.428   7.023  0.7524  0.3869 -0.2404
 2532Sol     HW13202   2.544   3.437   7.020  0.8060  0.9459 -0.3077
 2532Sol     HW13203   2.654   3.335   7.039  0.1950  0.2917 -0.2728
 2532Sol     MW13204   2.632   3.421   7.024 -0.3067 -0.0686  0.2401
 2533Sol     OW13205   0.937   1.447   8.510  0.0201 -0.3017 -0.1756
 2533Sol     HW13206   0.847   1.422   8.530  0.6733 -1.0976  1.8318
 2533Sol     HW13207   0.934   1.542   8.498 -0.8933 -0.1959  0.8813
 2533Sol     MW13208   0.929   1.453   8.510  0.1676  0.2930 -0.2754
 2534Sol     OW13209   2.598   2.580   8.641  0.1091  0.5546 -0.0107
 2534Sol     HW13210   2.619   2.486   8.635 -0.2341  0.5229 -0.8157
 2534Sol     HW13211   2.506   2.585   8.615  0.6316  1.3209 -1.8302
 2534Sol     MW13212   2.592   2.572   8.638 -0.2319  1.1904  0.2327
 2535Sol     OW13213   1.131   1.270   8.455  0.0916 -0.2348 -0.0148
 2535Sol     HW13214   1.062   1.326   8.491  1.0829  0.6332  0.5658
 2535Sol     HW13215   1.106   1.182   8.483 -1.3776 -0.0835 -0.7741
 2535Sol     MW13216   1.122   1.267   8.461  0.3380 -0.8292 -0.1077
 2536Sol     OW13217   0.866   1.367   5.207 -0.3428  0.2531 -0.2201
 2536Sol     HW13218   0.867   1.444   5.264 -2.0144 -1.5014  2.3387
 2536Sol     HW13219   0.852   1.294   5.267 -0.9712 -1.8154 -2.7976
 2536Sol     MW13220   0.865   1.367   5.217 -0.5039 -0.0020 -0.0642
 2537Sol     OW13221   1.291   3.045   8.760 -0.1371  0.0109 -0.0353
 2537Sol     HW13222   1.332   3.023   8.676  1.2928 -2.2757  1.2048
 2537Sol     HW13223   1.209   2.996   8.760  0.7673 -1.5169  0.6943
 2537Sol     MW13224   1.287   3.039   8.752 -0.5105 -0.0392 -0.0953
 2538Sol     OW13225   2.157   3.279   6.722  0.3150 -0.5178 -0.8741
 2538Sol     HW13226   2.211   3.245   6.793 -0.9216  0.1373  0.4019
 2538Sol     HW13227   2.123   3.202   6.678  1.5577 -0.9283 -1.1400
 2538Sol     MW13228   2.159   3.269   6.724  0.2303 -0.3759  0.0501
 2539Sol     OW13229   1.792   2.377   4.108 -0.5748  0.4199  0.1408
 2539Sol     HW13230   1.868   2.434   4.119 -1.2154  1.3456 -0.1577
 2539Sol     HW13231   1.760   2.397   4.020 -0.4008 -0.9016 -0.2307
 2539Sol     MW13232   1.796   2.384   4.101 -0.5411  0.4652 -0.0786
 2540Sol     OW13233   2.623   1.815   6.532  0.2535 -0.1162  0.8039
 2540Sol     HW13234   2.644   1.903   6.563  0.1603  0.4100 -0.5667
 2540Sol     HW13235   2.643   1.817   6.438 -0.2557 -1.3996  0.6469
 2540Sol     MW13236   2.627   1.823   6.526 -0.1674 -0.4962 -0.2650
 2541Sol     OW13237   2.153   2.339   7.285  0.2298  0.1668  0.5598
 2541Sol     HW13238   2.124   2.357   7.195  0.1805 -2.4439 -0.0033
 2541Sol     HW13239   2.247   2.353   7.283  0.4792 -1.4430 -0.3681
 2541Sol     MW13240   2.158   2.342   7.277 -0.4101  0.2068  0.3882
 2542Sol     OW13241   1.968   2.890   2.644 -0.8207 -0.1737  0.3836
 2542Sol     HW13242   1.981   2.928   2.732  0.7932  1.1748 -0.4008
 2542Sol     HW13243   2.055   2.892   2.605 -1.5519 -0.7022 -1.2831
 2542Sol     MW13244   1.977   2.894   2.649 -0.2736  0.3021 -0.2859
 2543Sol     OW13245   2.131   0.807   3.418 -0.0811 -0.7804  0.2763
 2543Sol     HW13246   2.142   0.884   3.363 -2.2758  0.0490  0.9388
 2543Sol     HW13247   2.220   0.784   3.445  0.6398  1.2695 -0.2396
 2543Sol     MW13248   2.140   0.812   3.415 -0.2599 -0.1800  0.2452
 2544Sol     OW13249   3.123   3.342   6.819 -0.8338  0.2145 -0.1698
 2544Sol     HW13250   3.155   3.253   6.838 -0.9836  0.3502  0.7654
 2544Sol     HW13251   3.130   3.388   6.903 -2.8463  0.4575 -0.1118
 2544Sol     MW13252   3.127   3.338   6.828 -0.0161  0.1723  0.1695
 2545Sol     OW13253   2.839   3.438   3.021  0.1609  0.3499  0.3115
 2545Sol     HW13254   2.755   3.478   3.043  0.1620  0.6334 -0.2026
 2545Sol     HW13255   2.905   3.495   3.061  0.0721 -0.4194  1.5683
 2545Sol     MW13256   2.838   3.447   3.026  0.1512 -0.4173 -0.3169
 2546Sol     OW13257   2.489   0.763   2.057  0.0068 -0.2776  0.1964
 2546Sol     HW13258   2.501   0.697   1.989  2.3404  0.2999 -0.0030
 2546Sol     HW13259   2.454   0.714   2.132  1.0967 -1.6331 -0.1551
 2546Sol     MW13260   2.487   0.753   2.058 -0.4906  0.5466 -0.1393
 2547Sol     OW13261   0.298   3.282   8.067 -0.4883  0.8760 -0.2887
 2547Sol     HW13262   0.237   3.213   8.040  2.3374 -1.9042  0.1446
 2547Sol     HW13263   0.309   3.336   7.988  0.1073 -1.3829 -1.8104
 2547Sol     MW13264   0.294   3.280   8.057  0.6458  0.1073 -0.1723
 2548Sol     OW13265   1.443   2.251   9.879 -0.6313 -0.1350  0.0070
 2548Sol     HW13266   1.487   2.170   9.852  1.4796  0.3186  1.9520
 2548Sol     HW13267   1.360   2.222   9.916 -0.5243 -1.3036 -0.6540
 2548Sol     MW13268   1.440   2.241   9.880 -0.1001  0.2012 -0.4720
 2549Sol     OW13269   1.103   2.496   9.831 -0.0400 -0.0121 -0.2936
 2549Sol     HW13270   1.125   2.410   9.868 -0.7759 -0.6451 -1.2870
 2549Sol     HW13271   1.130   2.490   9.739  1.2285  1.3359 -0.0268
 2549Sol     MW13272   1.107   2.488   9.826  0.2252  0.0332 -0.7031
 2550Sol     OW13273   1.420   3.314   4.983  0.0122 -0.9011  0.2203
 2550Sol     HW13274   1.410   3.407   4.965  1.2041 -1.1257 -1.6505
 2550Sol     HW13275   1.394   3.305   5.075 -1.9047  0.9577 -0.0882
 2550Sol     MW13276   1.417   3.321   4.990  0.1359 -0.3344 -0.6241
 2551Sol     OW13277   2.992   2.936   6.182  0.5549  0.3093 -0.0162
 2551Sol     HW13278   2.959   2.968   6.098 -0.3952 -1.3695 -0.3081
 2551Sol     HW13279   3.023   2.847   6.164 -2.2787 -1.1624  1.9723
 2551Sol     MW13280   2.992   2.931   6.173 -0.0036  0.2593  0.1065
 2552Sol     OW13281   3.289   0.480   9.105 -0.0849  0.2876 -0.4743
 2552Sol     HW13282   3.219   0.419   9.125 -1.9163  2.3624 -0.3857
 2552Sol     HW13283   3.246   0.555   9.064  1.9109  2.0426  0.4855
 2552Sol     MW13284   3.279   0.482   9.103 -0.2774  0.4799  0.6397
 2553Sol     OW13285   2.425   2.533   4.357 -0.2042  0.8155  0.3016
 2553Sol     HW13286   2.386   2.509   4.440  0.2551 -0.2580  0.2217
 2553Sol     HW13287   2.379   2.612   4.330 -0.5970  0.9664  1.3996
 2553Sol     MW13288   2.418   2.538   4.362 -0.1875 -0.3338 -0.6027
 2554Sol     OW13289   2.316   2.666   8.600  0.4731  0.5532 -0.2977
 2554Sol     HW13290   2.233   2.701   8.632 -0.2413 -1.1192 -0.2514
 2554Sol     HW13291   2.326   2.582   8.645  1.5666  0.1555 -1.2468
 2554Sol     MW13292   2.310   2.662   8.607 -0.7267 -0.6469 -0.2100
 2555Sol     OW13293   1.811   2.349   7.957 -0.6034  0.2134 -0.1570
 2555Sol     HW13294   1.778   2.259   7.953  0.6085 -0.3167  1.2260
 2555Sol     HW13295   1.765   2.387   8.032 -1.3158  0.8470 -0.9053
 2555Sol     MW13296   1.804   2.344   7.964 -0.1153  0.0917  0.1835
 2556Sol     OW13297   2.834   1.758   9.561 -0.4515 -0.4458 -0.0594
 2556Sol     HW13298   2.857   1.846   9.530 -2.1586  0.0548  0.0604
 2556Sol     HW13299   2.749   1.739   9.521 -1.2995 -1.0072  1.9204
 2556Sol     MW13300   2.829   1.764   9.555 -0.5266  0.1217 -0.3913
 2557Sol     OW13301   0.095   1.260   2.857 -0.6679 -0.3316 -0.0437
 2557Sol     HW13302   0.002   1.238   2.859 -0.6773 -0.2508  1.0797
 2557Sol     HW13303   0.105   1.318   2.782 -1.9401  1.3539  1.0442
 2557Sol     MW13304   0.088   1.263   2.851  0.7017 -0.1319  0.1913
 2558Sol     OW13305   2.700   0.408   4.890  0.6645 -0.1424 -0.5422
 2558Sol     HW13306   2.711   0.502   4.877  1.4065 -0.0490  0.7084
 2558Sol     HW13307   2.753   0.388   4.967  0.0943 -1.4911 -0.4903
 2558Sol     MW13308   2.705   0.415   4.896 -0.2098 -0.0120  0.2335
 2559Sol     OW13309   0.633   1.102   7.746 -0.7182  0.1923  0.3777
 2559Sol     HW13310   0.668   1.056   7.822  0.8661  0.9000  0.0893
 2559Sol     HW13311   0.623   1.193   7.775 -1.1266  0.2504  0.0662
 2559Sol     MW13312   0.635   1.106   7.755 -0.7015 -0.1721 -0.3735
 2560Sol     OW13313   0.596   1.351   5.126 -0.3245 -0.1863  0.0852
 2560Sol     HW13314   0.554   1.426   5.084  0.1001 -0.5166 -0.9445
 2560Sol     HW13315   0.685   1.381   5.146 -0.0052 -0.5590 -0.7530
 2560Sol     MW13316   0.600   1.360   5.124 -0.9295  0.2050  0.0202
 2561Sol     OW13317   2.348   2.792   8.030 -0.0421 -0.3162  0.8158
 2561Sol     HW13318   2.419   2.825   8.085 -0.2259 -1.0376  1.4921
 2561Sol     HW13319   2.304   2.725   8.083 -0.8484 -0.3144  0.1758
 2561Sol     MW13320   2.350   2.789   8.039  0.0055  0.3407 -0.3484
 2562Sol     OW13321   0.128   2.771   9.310  0.0067  0.4319  0.1633
 2562Sol     HW13322   0.056   2.771   9.373  1.1399 -0.1249  1.4915
 2562Sol     HW13323   0.108   2.700   9.250 -2.5755  2.7863 -1.9096
 2562Sol     MW13324   0.120   2.765   9.310 -0.0490  0.3553  0.0998
 2563Sol     OW13325   1.387   0.131   4.999  0.4942  0.7528 -0.4775
 2563Sol     HW13326   1.445   0.160   5.069 -0.2877  0.9592  0.0937
 2563Sol     HW13327   1.377   0.207   4.942  0.3376  0.8866 -0.2709
 2563Sol     MW13328   1.391   0.140   5.000  0.7416 -0.4563 -0.5154
 2564Sol     OW13329   1.195   3.423   3.416 -0.2209 -0.1099  0.4667
 2564Sol     HW13330   1.121   3.418   3.477 -1.5780  2.8510 -0.8366
 2564Sol     HW13331   1.181   3.349   3.356 -0.3021 -1.4954  2.1665
 2564Sol     MW13332   1.187   3.416   3.416  0.2234 -0.0680  0.2091
 2565Sol     OW13333   2.602   0.652   7.451  0.7456 -0.0925 -0.3945
 2565Sol     HW13334   2.561   0.583   7.503 -1.4296  0.5898 -1.1704
 2565Sol     HW13335   2.619   0.612   7.366  0.1972  0.0802 -0.5903
 2565Sol     MW13336   2.600   0.642   7.448 -0.4324  0.2702  0.5698
 2566Sol     OW13337   2.926   2.498   7.714  0.0140  0.0510  0.4976
 2566Sol     HW13338   2.880   2.472   7.794  0.7047  0.6273  1.0892
 2566Sol     HW13339   2.869   2.469   7.643 -0.5967 -0.4868  1.1981
 2566Sol     MW13340   2.917   2.493   7.715  0.2565  0.0473  0.1147
 2567Sol     OW13341   3.157   0.675   8.983  0.1627  0.5348 -0.2898
 2567Sol     HW13342   3.177   0.767   8.970  0.2271  0.6122  0.3643
 2567Sol     HW13343   3.061   0.672   8.990  0.0674  0.3997 -1.4993
 2567Sol     MW13344   3.150   0.683   8.982 -0.0044  0.1326  0.0363
 2568Sol     OW13345   1.822   2.997   6.714  0.5466  0.0921 -0.4396
 2568Sol     HW13346   1.838   2.955   6.798 -1.3485 -1.1653 -0.6880
 2568Sol     HW13347   1.905   2.989   6.667  1.4257  0.2400  1.0557
 2568Sol     MW13348   1.831   2.993   6.717  0.2895  0.7971  0.5257
 2569Sol     OW13349   1.179   3.201   9.813  0.5255 -0.4697  0.2503
 2569Sol     HW13350   1.102   3.158   9.777  1.0766  0.8385 -2.6582
 2569Sol     HW13351   1.243   3.131   9.825 -0.5973 -1.3429  1.3799
 2569Sol     MW13352   1.178   3.191   9.811 -0.1354 -0.3645  0.8499
 2570Sol     OW13353   1.413   3.031   8.488  0.3927  0.6627 -0.3925
 2570Sol     HW13354   1.450   3.116   8.464  2.0259  1.1828  3.4748
 2570Sol     HW13355   1.490   2.975   8.499 -0.5527 -0.7381 -0.9405
 2570Sol     MW13356   1.423   3.034   8.487  0.3524  0.2981  0.2975
 2571Sol     OW13357   0.773   2.342   9.036 -0.3069  1.0928 -0.1552
 2571Sol     HW13358   0.697   2.399   9.052 -0.3125  0.9548  0.3220
 2571Sol     HW13359   0.823   2.388   8.969 -0.2131  1.7601  0.3613
 2571Sol     MW13360   0.770   2.351   9.032 -0.4480  0.0917  0.3064
 2572Sol     OW13361   2.026   1.825   3.437  0.2703  0.0399  0.0860
 2572Sol     HW13362   1.948   1.769   3.442  0.2429  0.0160 -0.6004
 2572Sol     HW13363   2.092   1.770   3.395  0.2625  0.5037 -0.5282
 2572Sol     MW13364   2.025   1.815   3.434 -0.0605 -0.4518 -0.0896
 2573Sol     OW13365   0.195   2.940   5.604  0.0851  0.3304  0.3122
 2573Sol     HW13366   0.116   2.888   5.623  0.3060  0.2872  1.1477
 2573Sol     HW13367   0.212   2.925   5.511  1.0877 -2.4050  0.8965
 2573Sol     MW13368   0.189   2.934   5.597  0.4271  0.2101  0.0498
 2574Sol     OW13369   1.524   1.278   5.917 -0.0971 -0.7996 -0.6995
 2574Sol     HW13370   1.459   1.208   5.916 -2.8151  1.6250 -2.0353
 2574Sol     HW13371   1.563   1.276   5.829 -0.2033 -0.6488 -0.7514
 2574Sol     MW13372   1.522   1.272   5.909  0.0820 -0.4140  0.0151
 2575Sol     OW13373   1.272   3.026   5.351  0.0380  0.3139  0.5313
 2575Sol     HW13374   1.199   3.058   5.404  0.0669 -0.6141  1.1424
 2575Sol     HW13375   1.342   3.008   5.414  0.1727 -0.5227  0.1502
 2575Sol     MW13376   1.272   3.028   5.361 -0.1646  0.2658  0.3894
 2576Sol     OW13377   0.039   2.573   9.137  0.2741 -0.0203  0.5444
 2576Sol     HW13378   0.081   2.617   9.063 -0.6656  1.2438  0.7458
 2576Sol     HW13379  -0.053   2.568   9.113 -0.0282  0.3390  1.6030
 2576Sol     MW13380   0.035   2.577   9.129 -0.2963 -0.3190  0.0289
 2577Sol     OW13381   0.549   2.833   3.196  0.0479  0.2250  0.4237
 2577Sol     HW13382   0.577   2.840   3.287  0.4300 -1.0702  0.4147
 2577Sol     HW13383   0.482   2.765   3.197 -0.1981  0.4536 -0.2083
 2577Sol     MW13384   0.545   2.828   3.204  0.3472  0.1668 -0.6031
 2578Sol     OW13385   2.509   0.792   8.156  0.5510 -0.0346  0.3830
 2578Sol     HW13386   2.572   0.764   8.223  1.9118  0.5078 -0.6456
 2578Sol     HW13387   2.443   0.841   8.206  1.7924  0.7691  1.3010
 2578Sol     MW13388   2.509   0.794   8.167  0.7053  0.7617  0.0428
 2579Sol     OW13389   0.825   2.641   2.666 -0.2140 -0.1612 -0.0290
 2579Sol     HW13390   0.888   2.673   2.731 -0.0589 -0.0761 -0.2205
 2579Sol     HW13391   0.852   2.551   2.649 -0.7926 -0.4692  0.6839
 2579Sol     MW13392   0.833   2.636   2.670  0.7506  0.8174 -0.7537
 2580Sol     OW13393   2.965   2.389   6.893 -0.4558 -0.1493  0.0684
 2580Sol     HW13394   3.031   2.391   6.824 -1.9196  0.5143 -1.3442
 2580Sol     HW13395   2.882   2.401   6.847 -1.6718 -2.0723  1.7055
 2580Sol     MW13396   2.964   2.391   6.883 -0.1982 -0.5052  0.4118
 2581Sol     OW13397   0.371   1.699   5.846  0.3118 -0.4186 -0.2821
 2581Sol     HW13398   0.460   1.666   5.832 -0.0923 -1.1603 -1.1898
 2581Sol     HW13399   0.314   1.633   5.806 -0.6525  0.0784  0.2292
 2581Sol     MW13400   0.374   1.690   5.841 -0.2837  0.2161 -0.0804
 2582Sol     OW13401   1.191   1.217   3.209 -0.1160 -0.3582  0.3428
 2582Sol     HW13402   1.244   1.262   3.143  0.5587 -0.0777  1.0696
 2582Sol     HW13403   1.186   1.127   3.179 -0.4999 -0.0530 -0.5198
 2582Sol     MW13404   1.196   1.213   3.201  0.2455 -0.7623 -0.0648
 2583Sol     OW13405   3.000   1.988   6.237 -0.5406  0.2138 -0.8849
 2583Sol     HW13406   3.014   1.930   6.312  1.1432  0.3435 -1.0799
 2583Sol     HW13407   3.021   1.934   6.161 -1.2104  0.4004 -1.2076
 2583Sol     MW13408   3.003   1.978   6.237 -0.1576 -0.2388  0.1849
 2584Sol     OW13409   0.918   1.106   3.315  0.4815 -0.3655 -0.2104
 2584Sol     HW13410   0.923   1.039   3.384 -1.9588 -0.5372 -0.1456
 2584Sol     HW13411   0.997   1.158   3.326  0.8215 -1.2709  1.8343
 2584Sol     MW13412   0.925   1.105   3.323 -0.2041 -0.0734  0.7582
 2585Sol     OW13413   2.413   2.121   5.949 -0.0169  0.8618 -0.3029
 2585Sol     HW13414   2.326   2.158   5.935 -1.4783 -1.5611  1.9451
 2585Sol     HW13415   2.466   2.194   5.979 -1.5134  2.1746 -0.8151
 2585Sol     MW13416   2.410   2.131   5.950 -0.0363 -0.6790  0.1475
 2586Sol     OW13417   0.906   0.550   4.498  0.0823 -0.3203 -0.0315
 2586Sol     HW13418   0.835   0.491   4.473  0.7400 -1.1008 -0.0862
 2586Sol     HW13419   0.865   0.636   4.506 -0.2133 -0.0438 -3.6682
 2586Sol     MW13420   0.896   0.553   4.496  0.6357 -0.9925  0.0379
 2587Sol     OW13421   1.425   0.419   6.020 -0.4000 -0.5200 -0.2277
 2587Sol     HW13422   1.463   0.343   6.063  0.0160 -0.3369 -0.2738
 2587Sol     HW13423   1.490   0.446   5.955 -0.6159 -0.2265 -0.3246
 2587Sol     MW13424   1.434   0.415   6.018 -0.0338 -0.2486 -0.5742
 2588Sol     OW13425   2.118   1.159   2.103  0.1405  0.0921 -0.3111
 2588Sol     HW13426   2.193   1.167   2.162 -0.7780 -0.9858  1.0386
 2588Sol     HW13427   2.043   1.146   2.161 -0.8453 -0.5658 -1.7034
 2588Sol     MW13428   2.118   1.158   2.113  0.5344  0.1584 -0.0352
 2589Sol     OW13429   1.642   2.165   2.678  0.2585  0.4897  0.0040
 2589Sol     HW13430   1.660   2.071   2.677  0.0347  0.4478 -0.0511
 2589Sol     HW13431   1.672   2.194   2.764 -1.3867  0.0323  0.7581
 2589Sol     MW13432   1.646   2.159   2.686  0.3211 -0.4494 -0.1025
 2590Sol     OW13433   3.069   0.405   6.748 -0.1199 -0.2489  0.1571
 2590Sol     HW13434   3.056   0.499   6.736 -0.9240 -0.4275 -0.5027
 2590Sol     HW13435   2.999   0.365   6.696  1.6893 -1.2664 -1.5524
 2590Sol     MW13436   3.061   0.410   6.742  0.1095 -0.0207 -0.8753
 2591Sol     OW13437   1.893   0.227   1.950  0.5945  0.2454  0.5434
 2591Sol     HW13438   1.898   0.241   1.855  0.7934 -0.1410  0.4979
 2591Sol     HW13439   1.981   0.249   1.982  0.5647  0.2507  0.6210
 2591Sol     MW13440   1.901   0.230   1.944 -0.0279 -0.3777  0.6037
 2592Sol     OW13441   1.726   0.989   6.480 -0.4254  0.7100 -0.0656
 2592Sol     HW13442   1.695   0.910   6.434 -0.3950  1.0610 -0.6954
 2592Sol     HW13443   1.652   1.050   6.475  0.6808  1.9171 -2.4345
 2592Sol     MW13444   1.716   0.987   6.475 -0.2935 -0.2639  0.5011
 2593Sol     OW13445   1.206   0.791   9.775  0.2287 -0.6060  0.2867
 2593Sol     HW13446   1.200   0.885   9.758 -0.5190 -0.9790 -1.6762
 2593Sol     HW13447   1.216   0.752   9.688 -1.2043 -2.4826  0.9382
 2593Sol     MW13448   1.207   0.796   9.766 -0.8174  0.4317 -0.4107
 2594Sol     OW13449   3.170   0.136   9.854  0.0316  0.4355 -0.2243
 2594Sol     HW13450   3.243   0.179   9.899  0.3865 -1.4354  1.0592
 2594Sol     HW13451   3.201   0.047   9.839 -0.4618  0.7403 -3.3459
 2594Sol     MW13452   3.180   0.132   9.857  0.1601  0.1509 -0.3407
 2595Sol     OW13453   0.140   2.145   2.110 -0.0907 -0.4226 -0.7403
 2595Sol     HW13454   0.204   2.121   2.044  0.6305 -2.8050  0.7469
 2595Sol     HW13455   0.186   2.206   2.168 -0.8093  1.8777 -2.5292
 2595Sol     MW13456   0.150   2.148   2.109  0.4632  0.1604  0.0061
 2596Sol     OW13457   0.107   2.282   7.614 -0.1003 -0.8198 -0.4967
 2596Sol     HW13458   0.089   2.376   7.608 -0.7413 -0.9615 -0.8551
 2596Sol     HW13459   0.031   2.246   7.660 -2.0225 -1.7898 -4.2267
 2596Sol     MW13460   0.098   2.287   7.618  0.1665 -0.0479  0.3474
 2597Sol     OW13461   0.833   0.180   8.832 -0.2602  0.1714 -0.0396
 2597Sol     HW13462   0.894   0.210   8.764 -2.4978  1.3904 -1.5909
 2597Sol     HW13463   0.871   0.211   8.914  1.8337 -0.2032 -0.8198
 2597Sol     MW13464   0.842   0.185   8.833  0.0037  0.1832 -0.1150
 2598Sol     OW13465   1.614   1.559   1.909  0.0172 -0.6146 -0.3515
 2598Sol     HW13466   1.548   1.612   1.864  0.1405 -0.2027 -0.0502
 2598Sol     HW13467   1.592   1.468   1.886 -0.0025 -0.4146 -1.1228
 2598Sol     MW13468   1.606   1.555   1.903  0.1560  0.1176  0.3718
 2599Sol     OW13469   2.844   1.922   7.307 -0.4157 -0.3288 -0.0347
 2599Sol     HW13470   2.834   1.897   7.399 -1.2023 -1.1518 -0.3343
 2599Sol     HW13471   2.761   1.897   7.266  0.3464 -1.0177 -1.2010
 2599Sol     MW13472   2.835   1.918   7.312  0.4608  0.5833  0.7012
 2600Sol     OW13473   0.488   0.221   4.149  0.3013 -0.4761  0.4903
 2600Sol     HW13474   0.571   0.215   4.101 -0.1491  0.9048 -0.4957
 2600Sol     HW13475   0.430   0.269   4.090 -1.9544 -3.4584  0.1778
 2600Sol     MW13476   0.490   0.225   4.139 -0.0391 -0.9074 -0.0953
 2601Sol     OW13477   0.549   2.362   3.765  0.6938 -0.5413  0.1245
 2601Sol     HW13478   0.619   2.426   3.751  1.2374 -1.1921 -0.1157
 2601Sol     HW13479   0.480   2.389   3.704 -0.2973  1.5848  2.0792
 2601Sol     MW13480   0.549   2.370   3.758  0.0022  0.8582  0.1399
 2602Sol     OW13481   2.076   2.405   8.089  0.5777 -0.0787 -0.2161
 2602Sol     HW13482   2.082   2.349   8.167 -0.7852 -0.1125 -0.1294
 2602Sol     HW13483   1.990   2.386   8.052 -0.4949  2.9700  0.5700
 2602Sol     MW13484   2.069   2.398   8.093  0.2691 -0.2390 -0.6851
 2603Sol     OW13485   1.224   2.953   7.595 -0.1799 -0.0120  0.5728
 2603Sol     HW13486   1.207   2.967   7.688  0.9860  1.0047  0.6342
 2603Sol     HW13487   1.293   2.886   7.593 -0.6462 -0.4932  0.4193
 2603Sol     MW13488   1.228   2.948   7.603 -0.1450  0.0690  0.2127
 2604Sol     OW13489   0.738   3.114   4.418 -0.0607 -0.3736 -0.3091
 2604Sol     HW13490   0.764   3.025   4.392 -0.3640 -0.4678 -0.2939
 2604Sol     HW13491   0.656   3.130   4.371  0.6781  0.4178 -1.3598
 2604Sol     MW13492   0.733   3.107   4.412  0.3495  0.5344 -0.3673
 2605Sol     OW13493   2.367   0.601   1.767 -0.1102 -0.1990  0.3093
 2605Sol     HW13494   2.435   0.572   1.828  0.6614  0.2963 -0.3142
 2605Sol     HW13495   2.403   0.680   1.727 -0.8833 -0.1634 -0.3210
 2605Sol     MW13496   2.376   0.606   1.769  0.3136 -0.0755  0.1660
 2606Sol     OW13497   0.039   3.336   2.480 -0.1279 -0.4480 -0.1767
 2606Sol     HW13498   0.081   3.380   2.553 -0.2178  0.3586 -0.6078
 2606Sol     HW13499   0.092   3.258   2.465  0.2774 -0.2664  0.3063
 2606Sol     MW13500   0.047   3.333   2.485  0.4732 -0.1916  0.4239
 2607Sol     OW13501   1.233   3.284   6.814 -0.5397 -0.1338 -0.0056
 2607Sol     HW13502   1.263   3.260   6.726 -1.6393 -0.2949 -0.3515
 2607Sol     HW13503   1.293   3.239   6.873  1.2686  1.3823 -0.6743
 2607Sol     MW13504   1.241   3.278   6.811 -0.3218  0.1493  0.2635
 2608Sol     OW13505   2.163   2.228   2.180 -0.1523 -0.0023  0.4337
 2608Sol     HW13506   2.231   2.161   2.169  0.0673  0.4363 -0.9896
 2608Sol     HW13507   2.175   2.259   2.270  0.0953 -1.4831  0.9183
 2608Sol     MW13508   2.170   2.225   2.187 -0.2373  0.1068 -0.8906
 2609Sol     OW13509   3.271   1.316   5.709  0.6760  0.6727  0.4476
 2609Sol     HW13510   3.189   1.275   5.678  0.9067  0.3761  0.2172
 2609Sol     HW13511   3.326   1.242   5.735  1.4841  0.7742 -0.9300
 2609Sol     MW13512   3.268   1.305   5.708  0.3209 -0.6320  0.1760
 2610Sol     OW13513   0.892   1.316   4.931 -0.2955  0.0581  0.0482
 2610Sol     HW13514   0.939   1.394   4.902  0.1603 -0.0880  0.3921
 2610Sol     HW13515   0.870   1.334   5.022 -0.2809 -0.1736  0.0979
 2610Sol     MW13516   0.894   1.325   4.936 -0.0850 -0.4420 -0.6949
 2611Sol     OW13517   0.493   3.212   6.308  0.2214 -0.7119 -0.1771
 2611Sol     HW13518   0.499   3.301   6.345  0.9967 -1.1467  0.7709
 2611Sol     HW13519   0.583   3.186   6.291  0.0255 -1.4638 -0.0999
 2611Sol     MW13520   0.501   3.218   6.310  0.2888  0.0060  0.2339
 2612Sol     OW13521   1.165   0.166   4.453 -0.5751  0.4420  0.0194
 2612Sol     HW13522   1.117   0.248   4.439 -2.2985 -0.6772 -0.7958
 2612Sol     HW13523   1.222   0.158   4.376 -1.1502  0.3663 -0.3985
 2612Sol     MW13524   1.166   0.173   4.445  0.5664  0.0100  0.6124
 2613Sol     OW13525   1.183   2.150   6.622 -0.1481 -0.0935 -0.0683
 2613Sol     HW13526   1.133   2.131   6.542 -1.9983  2.5677  0.3756
 2613Sol     HW13527   1.254   2.207   6.593  0.3305 -0.6954 -0.0927
 2613Sol     MW13528   1.185   2.154   6.612  0.1844  0.4169  0.0962
 2614Sol     OW13529   2.520   2.875   5.068 -0.3452 -0.1974 -0.1455
 2614Sol     HW13530   2.589   2.924   5.025 -1.4010  1.6527  0.2136
 2614Sol     HW13531   2.554   2.786   5.074  1.2617  0.2964 -1.5655
 2614Sol     MW13532   2.529   2.871   5.065 -0.6395  0.1344  0.2335
 2615Sol     OW13533   2.966   2.040   5.658 -0.5230  0.3145 -0.0531
 2615Sol     HW13534   2.968   2.065   5.750  0.2280 -1.3718  0.3993
 2615Sol     HW13535   2.875   2.015   5.642 -1.1034  2.5095 -0.3058
 2615Sol     MW13536   2.958   2.040   5.665  0.2629  0.1698  0.3675
 2616Sol     OW13537   2.270   2.844   4.724  0.4007 -0.0617  0.5252
 2616Sol     HW13538   2.345   2.784   4.722 -0.1409 -0.7742  1.1723
 2616Sol     HW13539   2.226   2.831   4.640  1.6969  1.2706 -0.3855
 2616Sol     MW13540   2.273   2.837   4.716  0.0470 -0.6411  0.4305
 2617Sol     OW13541   1.859   1.583   5.376 -0.0129 -0.1725  0.3619
 2617Sol     HW13542   1.835   1.621   5.460 -2.0122  0.7556 -0.6082
 2617Sol     HW13543   1.778   1.584   5.325  1.1208 -0.9338 -1.4892
 2617Sol     MW13544   1.850   1.587   5.379 -0.5052 -0.1756  0.1297
 2618Sol     OW13545   3.070   0.546   4.641  0.1305 -0.0036  0.3963
 2618Sol     HW13546   3.102   0.601   4.569  0.1625  1.9757  1.8642
 2618Sol     HW13547   2.979   0.573   4.652 -0.9335 -2.8357 -1.2137
 2618Sol     MW13548   3.065   0.553   4.636 -0.3305  0.1909 -0.2445
 2619Sol     OW13549   1.729   0.292   9.464  0.3600 -0.2256 -0.8044
 2619Sol     HW13550   1.702   0.303   9.555 -1.2318 -1.3217 -1.1175
 2619Sol     HW13551   1.664   0.342   9.414 -0.7098 -2.2574 -1.5214
 2619Sol     MW13552   1.720   0.298   9.468 -0.2006  0.0344  0.4428
 2620Sol     OW13553   0.712   1.960   4.888  0.0275 -0.0574 -0.1021
 2620Sol     HW13554   0.650   1.950   4.816  0.0829  1.3639 -0.3590
 2620Sol     HW13555   0.792   1.992   4.847  0.3299 -0.0444  0.4844
 2620Sol     MW13556   0.714   1.962   4.878 -0.1536 -0.0637  0.3210
 2621Sol     OW13557   1.188   1.373   2.659  0.7604 -0.4356  0.0650
 2621Sol     HW13558   1.141   1.367   2.576 -1.3910  3.8586  0.8227
 2621Sol     HW13559   1.144   1.311   2.717 -0.2725 -0.6182 -0.9040
 2621Sol     MW13560   1.180   1.367   2.657 -0.1715 -0.4364  0.6424
 2622Sol     OW13561   0.042   1.220   2.410  0.2465 -0.6537  0.2291
 2622Sol     HW13562  -0.042   1.178   2.428 -0.8825  1.1015 -0.7787
 2622Sol     HW13563   0.061   1.197   2.319 -0.0750  0.4677 -0.1315
 2622Sol     MW13564   0.036   1.214   2.403  0.1946  0.0416 -0.5265
 2623Sol     OW13565   0.739   2.252   3.090 -0.1492  0.2797  0.1425
 2623Sol     HW13566   0.733   2.273   3.183  0.3964  0.0185  0.2348
 2623Sol     HW13567   0.672   2.185   3.076  0.8831 -0.8729  0.6846
 2623Sol     MW13568   0.732   2.248   3.097 -0.2116 -0.4461  0.0802
 2624Sol     OW13569   1.802   0.210   8.257  0.1428  0.2041 -0.3571
 2624Sol     HW13570   1.854   0.157   8.318  0.1881 -1.7059 -1.9731
 2624Sol     HW13571   1.824   0.300   8.278  1.5655 -0.4768  1.1972
 2624Sol     MW13572   1.809   0.213   8.264  0.0974 -0.3450  0.1168
 2625Sol     OW13573   0.070   3.080   4.238  0.3558  0.4481 -0.8646
 2625Sol     HW13574   0.153   3.033   4.239  0.3834  0.4614 -1.9195
 2625Sol     HW13575   0.003   3.011   4.239  0.3915  0.4015 -1.4984
 2625Sol     MW13576   0.071   3.070   4.239 -0.0800 -0.2974 -0.1820
 2626Sol     OW13577   1.509   2.254   2.086  0.8918  0.0320 -0.0764
 2626Sol     HW13578   1.499   2.165   2.120  0.2888  0.1514  0.0509
 2626Sol     HW13579   1.420   2.288   2.080  1.2779  1.4646  2.0794
 2626Sol     MW13580   1.501   2.249   2.088 -0.0325 -0.6136  0.7151
 2627Sol     OW13581   2.459   1.211   9.545  0.3368  0.6183  0.5600
 2627Sol     HW13582   2.438   1.205   9.638  0.3274 -2.0470  0.4480
 2627Sol     HW13583   2.555   1.210   9.542  0.3375  0.7450  0.5445
 2627Sol     MW13584   2.466   1.210   9.553  0.1966  0.5578  0.4868
 2628Sol     OW13585   3.079   1.683   1.347 -0.0991  0.9851 -0.1241
 2628Sol     HW13586   3.110   1.748   1.409  0.2092  0.3355  0.4046
 2628Sol     HW13587   2.983   1.686   1.356  0.0191 -1.3035  2.6832
 2628Sol     MW13588   3.073   1.689   1.353 -0.5760  0.2349 -0.3969
 2629Sol     OW13589   1.916   0.708   1.470 -0.3011  0.0747  0.4814
 2629Sol     HW13590   1.879   0.753   1.546 -0.4913  1.1537 -0.2444
 2629Sol     HW13591   1.988   0.764   1.442 -2.0751  1.2662 -1.9336
 2629Sol     MW13592   1.919   0.717   1.474 -0.5249  0.2687 -0.3894
 2630Sol     OW13593   2.942   0.300   8.475  0.4092 -0.0639 -0.3627
 2630Sol     HW13594   2.943   0.247   8.396  1.9348  0.4543 -0.7112
 2630Sol     HW13595   2.864   0.271   8.522  0.6622 -1.9045 -1.0165
 2630Sol     MW13596   2.935   0.292   8.472  0.3898  0.2771 -0.6589
 2631Sol     OW13597   2.127   0.618   8.259 -0.2756 -0.5567 -0.7470
 2631Sol     HW13598   2.116   0.703   8.302 -0.8673  0.0843 -2.1391
 2631Sol     HW13599   2.216   0.591   8.283  0.0619  0.6418 -0.6033
 2631Sol     MW13600   2.134   0.623   8.265 -0.4560 -0.1612 -0.5065
 2632Sol     OW13601   1.488   3.126   4.220 -0.0942  0.2205 -0.1716
 2632Sol     HW13602   1.530   3.201   4.261 -0.8184  1.4769 -1.6586
 2632Sol     HW13603   1.560   3.067   4.197  0.5603  0.8868  0.1604
 2632Sol     MW13604   1.498   3.127   4.221  0.1416 -0.0064 -0.0736
 2633Sol     OW13605   0.313   0.851   6.738  0.0112  0.1910  0.4282
 2633Sol     HW13606   0.384   0.827   6.679  0.1548 -0.4752  0.8595
 2633Sol     HW13607   0.263   0.770   6.750 -2.3388  1.2065 -1.8862
 2633Sol     MW13608   0.315   0.841   6.734 -0.4888 -0.8393  0.0627
 2634Sol     OW13609   2.224   1.930   8.963  0.0171  0.1774  0.1642
 2634Sol     HW13610   2.292   1.991   8.992  2.0720 -1.8799 -0.1636
 2634Sol     HW13611   2.208   1.874   9.039  0.2591 -0.6766 -0.3919
 2634Sol     MW13612   2.229   1.930   8.972 -0.1078 -0.1423 -0.3024
 2635Sol     OW13613   2.503   3.065   3.503  0.7132  0.5252 -0.2135
 2635Sol     HW13614   2.418   3.049   3.546  1.6851 -1.1907  1.1601
 2635Sol     HW13615   2.484   3.129   3.435 -1.9412 -0.7331 -0.7270
 2635Sol     MW13616   2.494   3.069   3.501  0.2769 -0.3284  0.1205
 2636Sol     OW13617   1.514   1.578   8.432  0.0597  0.6112  0.0906
 2636Sol     HW13618   1.452   1.527   8.380  0.9177  1.9205 -2.3135
 2636Sol     HW13619   1.586   1.517   8.450 -0.1728  0.1817 -0.4318
 2636Sol     MW13620   1.515   1.568   8.429 -0.5301  0.2781  0.7302
 2637Sol     OW13621   2.726   2.529   2.559 -0.1583 -0.5451  1.0287
 2637Sol     HW13622   2.738   2.555   2.650 -0.7334  0.0602  0.9375
 2637Sol     HW13623   2.754   2.605   2.508 -1.8138 -0.0870  0.7601
 2637Sol     MW13624   2.729   2.538   2.563 -0.0893  0.3469  0.4401
 2638Sol     OW13625   0.008   1.010   6.076 -0.6391 -0.0479 -0.0048
 2638Sol     HW13626   0.019   1.055   5.992 -1.2205 -0.3049 -0.2221
 2638Sol     HW13627   0.007   1.080   6.141 -1.3824  0.2467 -0.3257
 2638Sol     MW13628   0.009   1.020   6.074  0.0274  0.4037 -0.1047
 2639Sol     OW13629   0.384   1.772   4.531 -0.0455  0.3133  0.0582
 2639Sol     HW13630   0.291   1.750   4.524  0.1780 -0.3186 -1.0333
 2639Sol     HW13631   0.416   1.715   4.602 -0.4333  0.3620  0.2766
 2639Sol     MW13632   0.379   1.765   4.537 -0.2192 -0.0880 -0.0466
 2640Sol     OW13633   1.326   0.655   1.436 -0.0243  0.0370 -0.1629
 2640Sol     HW13634   1.343   0.742   1.400  0.9572 -0.1063 -0.0401
 2640Sol     HW13635   1.270   0.673   1.512 -0.6102  0.4790 -0.6883
 2640Sol     MW13636   1.322   0.665   1.440  0.2694  0.3567  0.6309
 2641Sol     OW13637   3.028   0.683   4.223 -0.7173  0.5540 -0.5387
 2641Sol     HW13638   2.969   0.650   4.155 -1.2224  0.3038  0.0080
 2641Sol     HW13639   2.993   0.769   4.245  0.1577  1.1454 -1.4394
 2641Sol     MW13640   3.019   0.688   4.219 -0.1988 -0.0867  0.0790
 2642Sol     OW13641   0.377   2.822   8.425  0.4565 -0.5529  0.0984
 2642Sol     HW13642   0.329   2.904   8.426  1.3336  0.0346 -2.4701
 2642Sol     HW13643   0.466   2.846   8.400  0.5027 -2.3604 -1.6307
 2642Sol     MW13644   0.381   2.831   8.423  0.3434  0.4709  0.1688
 2643Sol     OW13645   2.042   1.986   4.801 -0.4980 -0.2401  0.4181
 2643Sol     HW13646   2.043   2.076   4.768  0.0507  0.0091  1.0934
 2643Sol     HW13647   1.966   1.946   4.760  0.1515  0.0729 -1.1182
 2643Sol     MW13648   2.036   1.991   4.795 -0.0447  0.2368  0.3129
 2644Sol     OW13649   0.396   2.236   9.919 -0.4424  0.2062 -0.5281
 2644Sol     HW13650   0.420   2.306   9.859  1.4357  0.1573  0.1280
 2644Sol     HW13651   0.394   2.277  10.005  0.1586 -0.4235 -0.2085
 2644Sol     MW13652   0.398   2.246   9.921 -0.4901  0.6203 -0.1091
 2645Sol     OW13653   2.582   1.788   1.788 -0.0545  0.0317  0.2639
 2645Sol     HW13654   2.498   1.807   1.830 -0.7744 -0.9349 -0.7061
 2645Sol     HW13655   2.593   1.693   1.800  1.3960  0.3318  1.2948
 2645Sol     MW13656   2.575   1.781   1.793  0.3729 -0.1205  0.6078
 2646Sol     OW13657   3.132   2.733   1.938 -0.0300  0.4040  0.5141
 2646Sol     HW13658   3.138   2.643   1.971 -0.7993  0.1461 -0.0310
 2646Sol     HW13659   3.219   2.770   1.952  0.4443 -0.6005  0.2406
 2646Sol     MW13660   3.140   2.728   1.942 -0.2145  0.0680 -0.0437
 2647Sol     OW13661   0.008   1.954   8.304  0.1272  0.4350  0.2972
 2647Sol     HW13662   0.092   1.959   8.260 -0.2969 -1.2213 -0.7723
 2647Sol     HW13663  -0.038   2.034   8.279  0.6985  0.4921 -0.5824
 2647Sol     MW13664   0.011   1.962   8.298  0.1478  0.6067 -0.3062
 2648Sol     OW13665   2.829   0.669   4.595  0.0638  0.0523 -0.0563
 2648Sol     HW13666   2.788   0.690   4.679  1.4851  0.7967  0.4639
 2648Sol     HW13667   2.850   0.754   4.557 -0.9106 -0.2638 -1.3657
 2648Sol     MW13668   2.827   0.678   4.599  0.1215 -0.3031  0.2867
 2649Sol     OW13669   3.143   0.456   3.649 -0.3417 -0.5312 -0.1152
 2649Sol     HW13670   3.223   0.508   3.654 -1.2526  0.9836 -1.0928
 2649Sol     HW13671   3.074   0.516   3.674 -1.1429 -1.9787  1.2540
 2649Sol     MW13672   3.144   0.466   3.652 -0.0612  0.0555 -0.4609
 2650Sol     OW13673   1.587   2.641   5.780  0.5760 -0.2008 -0.0409
 2650Sol     HW13674   1.601   2.602   5.694 -1.2303 -2.1879  0.4954
 2650Sol     HW13675   1.516   2.704   5.767  0.1528 -0.6591  0.0059
 2650Sol     MW13676   1.582   2.643   5.771 -0.0866  0.3258 -0.4216
 2651Sol     OW13677   2.281   0.522   6.060  0.3710 -0.4420 -0.0447
 2651Sol     HW13678   2.252   0.454   6.000 -0.1474  0.1666 -0.4835
 2651Sol     HW13679   2.241   0.499   6.144  0.0333 -0.5558 -0.2382
 2651Sol     MW13680   2.275   0.514   6.062  0.4926  0.1036  0.3643
 2652Sol     OW13681   3.004   2.538   3.918  0.0560  0.2117 -0.1294
 2652Sol     HW13682   2.911   2.526   3.936  0.3249  0.1132  1.2839
 2652Sol     HW13683   3.039   2.449   3.918 -0.0320  0.1526 -1.8309
 2652Sol     MW13684   2.999   2.529   3.920 -0.1556 -0.4232  0.3265
 2653Sol     OW13685   2.348   0.938   8.309  0.3009 -0.4597 -0.1877
 2653Sol     HW13686   2.340   0.878   8.383 -1.0422  1.5838  1.3824
 2653Sol     HW13687   2.261   0.937   8.268  0.5280 -0.2454 -0.6750
 2653Sol     MW13688   2.339   0.932   8.312  0.4992  0.3600 -0.0547
 2654Sol     OW13689   0.647   1.970   1.952 -0.8166  0.1095 -0.2289
 2654Sol     HW13690   0.731   2.002   1.982 -1.1982 -1.0315  2.2279
 2654Sol     HW13691   0.598   1.953   2.033 -2.5393 -1.4481 -1.5569
 2654Sol     MW13692   0.650   1.971   1.962 -0.1384  0.2097  0.4847
 2655Sol     OW13693   1.295   1.999   6.010  0.2619  0.1251 -0.7264
 2655Sol     HW13694   1.272   2.091   6.022  0.5998  0.0461  0.5930
 2655Sol     HW13695   1.360   1.981   6.078 -0.8406 -1.4540 -0.0518
 2655Sol     MW13696   1.298   2.005   6.017 -0.3567  0.2836 -0.5778
 2656Sol     OW13697   0.375   1.620   3.208 -0.7492  0.0218 -0.6831
 2656Sol     HW13698   0.445   1.632   3.144  0.3137 -0.0727  0.4494
 2656Sol     HW13699   0.339   1.534   3.188 -0.7368  0.1942 -1.4528
 2656Sol     MW13700   0.378   1.613   3.201 -0.2281 -0.5016  0.0449
 2657Sol     OW13701   1.869   0.157   9.038  0.3179  0.0796  1.0120
 2657Sol     HW13702   1.910   0.070   9.039  0.9528  0.3775  1.1083
 2657Sol     HW13703   1.783   0.144   9.076  0.1069 -0.6695  0.2900
 2657Sol     MW13704   1.865   0.148   9.041  0.2367 -0.6412  0.0873
 2658Sol     OW13705   1.845   0.315   5.101 -0.1778  0.2609  0.0215
 2658Sol     HW13706   1.819   0.346   5.188 -2.5055  1.6401 -1.1254
 2658Sol     HW13707   1.862   0.395   5.051  1.6665 -0.5346 -0.6821
 2658Sol     MW13708   1.844   0.325   5.104  0.2424 -0.0484  0.1125
 2659Sol     OW13709   0.576   1.228   9.936 -0.1046 -0.4232 -0.0469
 2659Sol     HW13710   0.634   1.171   9.886 -0.2737  0.1423 -0.9114
 2659Sol     HW13711   0.631   1.301   9.963 -0.2668 -0.1846 -0.3536
 2659Sol     MW13712   0.586   1.230   9.934  0.4093 -0.3802 -0.1144
 2660Sol     OW13713   2.538   2.751   4.771 -0.4431  0.3886 -0.4230
 2660Sol     HW13714   2.571   2.735   4.860 -0.5884  1.3068 -0.1941
 2660Sol     HW13715   2.552   2.669   4.725 -0.2679 -0.0676  0.4251
 2660Sol     MW13716   2.542   2.742   4.775 -0.0862 -0.3169  0.2415
 2661Sol     OW13717   0.148   1.941   7.142 -0.5060 -0.1948  0.1588
 2661Sol     HW13718   0.090   1.865   7.140 -1.3131  0.2338  3.7746
 2661Sol     HW13719   0.221   1.917   7.086 -0.4381 -3.9201  1.7122
 2661Sol     MW13720   0.149   1.932   7.137 -0.6181 -0.5472 -0.2620
 2662Sol     OW13721   0.618   2.073   5.126  0.2379 -0.0751  0.6527
 2662Sol     HW13722   0.660   2.038   5.047  0.1321  2.5182 -0.6185
 2662Sol     HW13723   0.552   2.134   5.092 -1.4134 -0.6483  2.7264
 2662Sol     MW13724   0.616   2.075   5.116 -0.3053 -0.4808  0.1098
 2663Sol     OW13725   0.025   0.686   2.439  0.4093  0.2115 -0.3216
 2663Sol     HW13726   0.113   0.684   2.475  0.3098  0.3133 -0.0681
 2663Sol     HW13727   0.034   0.653   2.350  0.3996 -1.6429  0.3524
 2663Sol     MW13728   0.034   0.683   2.434 -0.4477  0.0939  0.4960
 2664Sol     OW13729   2.927   0.875   3.587  0.7361  0.2378  0.3415
 2664Sol     HW13730   2.939   0.786   3.619 -1.5958 -0.0605  0.5294
 2664Sol     HW13731   2.973   0.877   3.503  2.2847 -0.6064  1.1494
 2664Sol     MW13732   2.932   0.867   3.583 -0.2836 -0.0991  0.4086
 2665Sol     OW13733   0.085   0.273   2.346 -0.0376 -0.0799 -0.4474
 2665Sol     HW13734  -0.011   0.273   2.350 -0.1088 -1.9765 -1.5650
 2665Sol     HW13735   0.112   0.267   2.437 -1.0024 -0.8548 -0.1981
 2665Sol     MW13736   0.078   0.272   2.354  0.2788 -0.8881 -0.0903
 2666Sol     OW13737   2.815   0.898   6.754  0.3173  0.1425  0.2538
 2666Sol     HW13738   2.845   0.971   6.702  1.8274 -1.8589 -1.7540
 2666Sol     HW13739   2.880   0.889   6.823 -1.0091  1.9782  1.8254
 2666Sol     MW13740   2.823   0.904   6.756 -0.3163  0.1056  0.3216
 2667Sol     OW13741   1.321   1.492   8.255  0.3408  0.3475  0.2532
 2667Sol     HW13742   1.348   1.579   8.226 -0.5275 -0.0524 -1.8293
 2667Sol     HW13743   1.385   1.432   8.216  0.1459 -0.0668  0.5644
 2667Sol     MW13744   1.329   1.494   8.249 -0.3024 -0.5874 -0.4105
 2668Sol     OW13745   2.323   2.216   7.576 -0.2773 -0.0894 -0.0307
 2668Sol     HW13746   2.312   2.270   7.653 -2.6473 -0.8657  0.2123
 2668Sol     HW13747   2.304   2.127   7.606 -0.6239 -0.4744 -1.3541
 2668Sol     MW13748   2.320   2.213   7.585  0.0003 -0.6638  0.1361
 2669Sol     OW13749   2.876   2.881   3.859 -0.2482 -0.0982 -0.3468
 2669Sol     HW13750   2.874   2.861   3.765 -1.0168 -0.0947 -0.3294
 2669Sol     HW13751   2.790   2.919   3.878 -1.4029 -3.2701  1.0673
 2669Sol     MW13752   2.869   2.883   3.852  0.0513 -0.4393 -0.0746
 2670Sol     OW13753   3.284   0.181   4.675  0.4816  0.1202 -0.4049
 2670Sol     HW13754   3.318   0.213   4.591 -1.9360  1.6502 -0.8361
 2670Sol     HW13755   3.189   0.193   4.669  0.3725  1.6364  3.0862
 2670Sol     MW13756   3.279   0.185   4.667  0.4412  0.2907  0.5946
 2671Sol     OW13757   0.496   1.301   1.795  0.5881  0.0457 -0.3999
 2671Sol     HW13758   0.461   1.247   1.724  1.1010 -0.3268 -0.3672
 2671Sol     HW13759   0.580   1.261   1.817  1.3335  1.2999 -0.8899
 2671Sol     MW13760   0.500   1.293   1.790 -0.4180  0.2612  0.0126
 2672Sol     OW13761   3.033   0.747   9.903 -0.3563  0.1637 -0.7191
 2672Sol     HW13762   3.032   0.819   9.966  0.8044 -0.8761  0.5224
 2672Sol     HW13763   3.110   0.765   9.848 -0.9951  0.7262 -1.4312
 2672Sol     MW13764   3.040   0.755   9.904  0.0077  1.0963 -0.0217
 2673Sol     OW13765   1.504   0.074   3.913  0.1648 -0.0751 -0.5469
 2673Sol     HW13766   1.533   0.127   3.987  1.6405  1.4074 -2.1268
 2673Sol     HW13767   1.465  -0.004   3.952 -0.4400  1.3703  1.7937
 2673Sol     MW13768   1.503   0.072   3.923  0.4044  0.2287 -0.2928
 2674Sol     OW13769   1.200   0.257   9.947  0.8700 -0.3090  0.4611
 2674Sol     HW13770   1.182   0.303   9.865 -0.4604 -1.2823  0.1929
 2674Sol     HW13771   1.166   0.316  10.015 -1.4298 -1.1335  0.0840
 2674Sol     MW13772   1.195   0.267   9.946 -0.0022  0.5591  0.0682
 2675Sol     OW13773   0.834   1.778   2.705 -0.0880 -0.0969  0.1359
 2675Sol     HW13774   0.765   1.844   2.706 -0.0579 -0.0715  0.4588
 2675Sol     HW13775   0.844   1.756   2.612  0.7586  1.2457 -0.0939
 2675Sol     MW13776   0.829   1.782   2.697 -0.0142 -0.0159  0.1242
 2676Sol     OW13777   2.830   2.400   3.387 -0.1755 -0.5455 -0.1245
 2676Sol     HW13778   2.853   2.440   3.471  0.7731 -1.0524 -0.1303
 2676Sol     HW13779   2.903   2.340   3.369 -1.4006 -2.0302 -0.2765
 2676Sol     MW13780   2.839   2.398   3.393 -0.0341 -0.3409  0.1225
 2677Sol     OW13781   0.234   3.357   8.310  0.3713 -0.2505 -0.1912
 2677Sol     HW13782   0.251   3.333   8.219  0.4547  0.0976 -0.2678
 2677Sol     HW13783   0.320   3.360   8.351  0.5638  2.1146 -0.7270
 2677Sol     MW13784   0.243   3.355   8.305 -0.0790 -0.6535 -0.2652
 2678Sol     OW13785   2.816   2.244   3.879 -0.4470  0.0377  0.5181
 2678Sol     HW13786   2.736   2.194   3.864 -1.0741  1.1996 -0.0532
 2678Sol     HW13787   2.786   2.333   3.897  0.7941  0.8802 -1.4445
 2678Sol     MW13788   2.806   2.247   3.879 -0.0193  0.2160 -0.0174
 2679Sol     OW13789   1.928   2.301   6.720 -0.6192  0.2051  0.0760
 2679Sol     HW13790   1.898   2.386   6.751 -2.8520 -0.1216 -1.1048
 2679Sol     HW13791   1.849   2.248   6.713  0.5756 -1.5775 -0.4674
 2679Sol     MW13792   1.918   2.304   6.722  0.1187 -1.2693 -0.4175
 2680Sol     OW13793   1.194   0.178   8.610 -0.0995 -0.3547  0.2599
 2680Sol     HW13794   1.099   0.169   8.615 -0.0810 -0.3617  0.6039
 2680Sol     HW13795   1.215   0.251   8.669  0.2488 -1.2758  1.2900
 2680Sol     MW13796   1.188   0.184   8.616 -0.2693 -0.4108  0.6018
 2681Sol     OW13797   3.182   3.425   5.911  0.6615  0.5406 -1.3135
 2681Sol     HW13798   3.096   3.389   5.890  1.2277 -1.6009 -0.2166
 2681Sol     HW13799   3.167   3.518   5.923 -1.6842  0.0855 -0.3441
 2681Sol     MW13800   3.173   3.430   5.910 -0.2971  1.0513  0.1804
 2682Sol     OW13801   0.260   1.458   1.887  0.1706  0.1311 -0.2660
 2682Sol     HW13802   0.192   1.478   1.823 -0.8000 -0.0108  0.6938
 2682Sol     HW13803   0.316   1.393   1.845 -0.0942  0.4929 -1.1872
 2682Sol     MW13804   0.259   1.454   1.878  0.4264 -0.0101 -0.2806
 2683Sol     OW13805   0.738   0.197   7.465 -0.0253 -0.6051 -0.3087
 2683Sol     HW13806   0.815   0.251   7.483 -1.0391  1.0497 -0.8968
 2683Sol     HW13807   0.754   0.161   7.378  0.0918 -0.3051 -0.4092
 2683Sol     MW13808   0.747   0.198   7.459 -0.1494 -0.0250 -0.0012
 2684Sol     OW13809   0.383   1.970   5.907 -0.0598 -0.1510 -0.1062
 2684Sol     HW13810   0.397   1.877   5.886 -0.5631  0.2709 -2.4983
 2684Sol     HW13811   0.455   1.992   5.966  1.6632 -1.3798 -1.6679
 2684Sol     MW13812   0.391   1.963   5.911  0.2636  0.4240  0.5412
 2685Sol     OW13813   0.981   1.874   3.317  0.3402 -0.2976 -0.1171
 2685Sol     HW13814   1.013   1.948   3.265  1.3251 -1.0198 -0.5618
 2685Sol     HW13815   1.052   1.855   3.378  0.3298 -1.2173 -0.3786
 2685Sol     MW13816   0.991   1.879   3.317 -0.4032 -0.1545  0.1200
 2686Sol     OW13817   0.521   1.642   4.730 -0.4348 -0.2524  0.2162
 2686Sol     HW13818   0.597   1.693   4.756  0.1653 -2.0030  2.0775
 2686Sol     HW13819   0.557   1.569   4.680 -0.9371 -0.6948  0.4855
 2686Sol     MW13820   0.531   1.640   4.728 -0.1826 -0.0737 -0.0585
 2687Sol     OW13821   3.102   0.036   6.348 -0.0720 -0.2488  0.4980
 2687Sol     HW13822   3.032  -0.017   6.385 -0.9537  1.4514  1.3063
 2687Sol     HW13823   3.171   0.036   6.414  0.0371 -0.6018  0.3846
 2687Sol     MW13824   3.102   0.031   6.357 -0.3804 -0.5636  0.3956
 2688Sol     OW13825   1.656   2.902   5.120  0.0703  0.7395  0.0586
 2688Sol     HW13826   1.654   2.988   5.161 -0.2777  0.7964 -0.0738
 2688Sol     HW13827   1.738   2.862   5.151  0.9148  1.6486 -0.9562
 2688Sol     MW13828   1.663   2.906   5.126  0.0215  0.4435 -0.0489
 2689Sol     OW13829   1.454   1.230   1.650 -0.0960  0.5331  0.0903
 2689Sol     HW13830   1.451   1.136   1.665 -2.4499  0.4319 -0.8306
 2689Sol     HW13831   1.486   1.267   1.732  2.5309 -1.1765 -0.1052
 2689Sol     MW13832   1.457   1.225   1.658  0.2092  0.1354  0.2536
 2690Sol     OW13833   1.402   0.337   6.365  0.1783  0.3218  0.2072
 2690Sol     HW13834   1.397   0.304   6.455  0.0543  0.8476  0.3945
 2690Sol     HW13835   1.473   0.287   6.325  0.3564  0.2174  0.6556
 2690Sol     MW13836   1.408   0.329   6.369  0.4313  0.2949  0.2949
 2691Sol     OW13837   2.939   0.627   2.461 -0.0817  0.1727  0.2673
 2691Sol     HW13838   3.003   0.694   2.487 -2.0257  2.6691 -1.2273
 2691Sol     HW13839   2.923   0.578   2.542  1.9187  1.0017  1.2215
 2691Sol     MW13840   2.943   0.629   2.471 -0.0115 -0.0495  0.1511
 2692Sol     OW13841   0.744   1.460   9.960 -0.2536 -0.2193  0.1331
 2692Sol     HW13842   0.773   1.539  10.005  0.4867  0.6168 -1.7601
 2692Sol     HW13843   0.726   1.488   9.870 -2.2759 -1.7207  0.0242
 2692Sol     MW13844   0.745   1.469   9.956  0.2427  0.4582 -0.1497
 2693Sol     OW13845   0.660   1.546   9.680 -0.6026  0.3542 -0.2132
 2693Sol     HW13846   0.716   1.609   9.637 -1.0301  0.1169 -1.1339
 2693Sol     HW13847   0.575   1.556   9.638 -0.6324 -0.9523 -0.4927
 2693Sol     MW13848   0.657   1.552   9.673 -0.5988 -0.6333 -0.0845
 2694Sol     OW13849   1.887   1.254   1.815  0.2351 -0.0400 -0.5713
 2694Sol     HW13850   1.858   1.267   1.725  0.2288  1.2512 -0.3865
 2694Sol     HW13851   1.828   1.187   1.850 -0.4973  0.2950 -1.1646
 2694Sol     MW13852   1.879   1.249   1.810  0.5916  0.1800  0.1084
 2695Sol     OW13853   0.615   0.188   5.668 -1.0949 -0.2972 -0.2898
 2695Sol     HW13854   0.662   0.212   5.588  0.3434  0.8434  0.8686
 2695Sol     HW13855   0.666   0.117   5.706  0.2585  1.5326  1.4267
 2695Sol     MW13856   0.624   0.184   5.664 -0.7469  0.4537 -0.2124
 2696Sol     OW13857   0.004   2.349   5.619 -0.0009 -0.0042  0.1595
 2696Sol     HW13858   0.097   2.346   5.597  0.2032 -0.0178  0.9827
 2696Sol     HW13859  -0.040   2.308   5.545  0.6863 -0.3530 -0.0621
 2696Sol     MW13860   0.009   2.345   5.611 -0.4545 -0.2782  0.2921
 2697Sol     OW13861   2.980   1.756   3.299 -0.5669  0.4967  0.0012
 2697Sol     HW13862   2.978   1.682   3.238 -0.9191  1.4697 -1.1808
 2697Sol     HW13863   3.074   1.771   3.315 -0.4288  1.1378 -1.4050
 2697Sol     MW13864   2.989   1.750   3.295  0.0237 -0.3252  0.1679
 2698Sol     OW13865   2.822   0.951   1.525  0.0628 -0.3421 -0.3902
 2698Sol     HW13866   2.735   0.991   1.518  0.2440  0.3210  1.0283
 2698Sol     HW13867   2.860   0.990   1.604  1.2644 -1.3732 -0.4483
 2698Sol     MW13868   2.817   0.958   1.531  0.2999  0.7609  0.1089
 2699Sol     OW13869   1.948   1.678   8.329  0.2006 -0.5779  0.2626
 2699Sol     HW13870   1.985   1.597   8.366 -0.2815 -1.7177 -1.6992
 2699Sol     HW13871   1.896   1.649   8.255  0.5195  1.6161 -0.8587
 2699Sol     MW13872   1.947   1.668   8.326  0.1134 -0.3969  0.1775
 2700Sol     OW13873   3.274   1.999   9.778 -0.2608  0.3354 -0.7723
 2700Sol     HW13874   3.292   1.906   9.768 -1.4805  0.2907 -2.8410
 2700Sol     HW13875   3.208   2.018   9.712  1.7997  3.1882 -2.1213
 2700Sol     MW13876   3.270   1.993   9.771 -0.3378 -0.0370  0.2294
 2701Sol     OW13877   1.374   0.005   7.956 -0.3770  0.4325 -0.0151
 2701Sol     HW13878   1.341   0.001   8.046  0.3248 -2.3041  0.1771
 2701Sol     HW13879   1.438  -0.066   7.951 -0.9483  0.0590 -2.9133
 2701Sol     MW13880   1.377  -0.002   7.964  0.3821  0.8956 -0.1057
 2702Sol     OW13881   1.196   0.280   6.783 -0.6559 -0.4260 -0.5227
 2702Sol     HW13882   1.128   0.308   6.843  0.7448 -0.3549  1.0576
 2702Sol     HW13883   1.207   0.354   6.723 -1.2461 -0.0358 -0.1510
 2702Sol     MW13884   1.191   0.289   6.783 -0.1707 -0.1255  0.6232
 2703Sol     OW13885   3.174   0.508   4.902  0.4844 -0.5037  0.4011
 2703Sol     HW13886   3.201   0.416   4.907  0.2933 -0.5313  1.0365
 2703Sol     HW13887   3.120   0.512   4.824  0.5073 -0.9326  0.3578
 2703Sol     MW13888   3.171   0.500   4.896  0.3713 -0.4151  0.2156
 2704Sol     OW13889   3.093   3.035   7.845  0.3566  0.3626 -0.0575
 2704Sol     HW13890   3.036   2.962   7.818  0.1891  1.4496 -2.8027
 2704Sol     HW13891   3.032   3.106   7.863  0.6101  0.2496  1.2945
 2704Sol     MW13892   3.082   3.034   7.844  0.3108 -0.2084 -0.7098
 2705Sol     OW13893   2.904   0.576   9.398 -0.2079 -0.0415 -0.0062
 2705Sol     HW13894   2.962   0.521   9.450  0.8463 -0.0183 -1.1476
 2705Sol     HW13895   2.931   0.562   9.308 -3.2618 -1.5382 -0.7497
 2705Sol     MW13896   2.911   0.570   9.395 -0.2483  0.2041  0.1552
 2706Sol     OW13897   1.098   0.268   6.146 -0.5518 -0.2163  0.3690
 2706Sol     HW13898   1.165   0.256   6.213 -1.2282 -2.4051  0.6852
 2706Sol     HW13899   1.055   0.350   6.170  1.1215  0.5093  0.9379
 2706Sol     MW13900   1.100   0.274   6.154  0.0828 -0.0238  0.0654
 2707Sol     OW13901   0.903   2.742   2.418  0.6108  0.6257  0.0502
 2707Sol     HW13902   0.814   2.772   2.400  1.0847  1.6163 -0.7185
 2707Sol     HW13903   0.905   2.728   2.512 -0.3198  0.7352  0.0928
 2707Sol     MW13904   0.895   2.744   2.424 -0.3225 -0.2634  0.3491
 2708Sol     OW13905   2.786   0.289   8.928 -0.0631  0.5727  0.3778
 2708Sol     HW13906   2.755   0.203   8.954 -2.0495  0.8619 -0.9648
 2708Sol     HW13907   2.723   0.350   8.966 -0.7701  1.2146 -1.7952
 2708Sol     MW13908   2.778   0.287   8.934 -0.2195 -0.3451 -0.2927
 2709Sol     OW13909   0.674   0.084   4.565 -0.0072  0.0283  0.1317
 2709Sol     HW13910   0.608   0.080   4.635 -1.0591 -1.0714 -0.8929
 2709Sol     HW13911   0.736   0.015   4.587 -0.1482 -0.0890  0.1601
 2709Sol     MW13912   0.674   0.077   4.573 -0.6444  0.0660  0.5037
 2710Sol     OW13913   1.670   1.214   2.866 -0.3977 -0.6218  0.2225
 2710Sol     HW13914   1.757   1.182   2.888 -0.2452 -0.0933  0.3740
 2710Sol     HW13915   1.659   1.294   2.917 -1.4009 -1.2664  1.0613
 2710Sol     MW13916   1.677   1.218   2.872 -0.4018 -0.1718 -0.2821
 2711Sol     OW13917   1.570   1.244   1.905  0.2185 -0.3120 -0.2356
 2711Sol     HW13918   1.513   1.168   1.915 -0.0293 -0.3432 -1.7235
 2711Sol     HW13919   1.635   1.235   1.974  0.9429 -2.5403 -1.1665
 2711Sol     MW13920   1.570   1.237   1.912  0.2567 -0.0188  0.5779
 2712Sol     OW13921   2.648   1.024   8.012 -0.2158  0.3451 -0.4346
 2712Sol     HW13922   2.604   0.976   8.082 -0.5365  1.9004  0.4662
 2712Sol     HW13923   2.642   0.967   7.936 -1.5272 -0.5660  0.3358
 2712Sol     MW13924   2.643   1.015   8.012 -0.0217  0.1759  0.2577
 2713Sol     OW13925   1.719   1.904   2.614  0.1559  0.5608  0.3595
 2713Sol     HW13926   1.667   1.847   2.557 -0.1280 -0.9584  2.1136
 2713Sol     HW13927   1.809   1.894   2.582 -0.1767  0.7614 -0.6640
 2713Sol     MW13928   1.722   1.898   2.606 -0.1398 -0.3787  0.2652
 2714Sol     OW13929   1.341   0.844   8.031 -0.2900 -0.0208 -0.0898
 2714Sol     HW13930   1.355   0.916   8.092 -1.1942  0.2003 -0.1333
 2714Sol     HW13931   1.263   0.799   8.066 -1.0184  0.3124 -1.2646
 2714Sol     MW13932   1.335   0.846   8.040  0.5864  0.5461  0.3581
 2715Sol     OW13933   0.146   0.326   7.799  0.4537  0.1298 -0.0639
 2715Sol     HW13934   0.066   0.331   7.746  1.1087 -0.0322 -1.0856
 2715Sol     HW13935   0.209   0.282   7.742  0.5516 -1.9920  1.6088
 2715Sol     MW13936   0.144   0.322   7.789 -0.4246 -0.5583 -0.3427
 2716Sol     OW13937   2.602   1.455   5.220 -0.3023 -0.1247  0.1637
 2716Sol     HW13938   2.685   1.461   5.267 -0.5357  0.9052  0.4403
 2716Sol     HW13939   2.568   1.544   5.219 -0.5142 -0.2034 -1.5767
 2716Sol     MW13940   2.606   1.463   5.224  0.2523  0.1743 -0.3726
 2717Sol     OW13941   2.547   1.415   6.216 -1.0249 -0.7084 -0.1498
 2717Sol     HW13942   2.539   1.373   6.301  1.3567 -0.2877  0.3172
 2717Sol     HW13943   2.474   1.478   6.213 -0.5558 -0.0368  1.9971
 2717Sol     MW13944   2.540   1.417   6.223 -0.0400 -0.0446 -0.5131
 2718Sol     OW13945   2.064   2.584   9.232 -0.4993 -1.2366 -0.6209
 2718Sol     HW13946   1.987   2.612   9.282  0.0835 -0.9563  0.1424
 2718Sol     HW13947   2.098   2.664   9.193  0.6885 -0.9805  0.8789
 2718Sol     MW13948   2.060   2.593   9.233  0.1829  0.2437 -0.5456
 2719Sol     OW13949   3.227   3.108   8.522 -0.5120  0.2733 -0.3088
 2719Sol     HW13950   3.232   3.196   8.485 -1.1368  1.2714  1.9209
 2719Sol     HW13951   3.308   3.065   8.494  1.4218  2.6776  1.3830
 2719Sol     MW13952   3.235   3.112   8.516 -0.1636  0.5436 -0.0728
 2720Sol     OW13953   1.866   2.937   9.336  0.3018  0.3897 -0.1346
 2720Sol     HW13954   1.949   2.952   9.380  0.3178  1.1367 -0.4032
 2720Sol     HW13955   1.875   2.984   9.253 -0.2627  0.2001 -0.3025
 2720Sol     MW13956   1.874   2.943   9.332 -0.1398  0.5854 -0.1477
 2721Sol     OW13957   3.051   0.426   6.101  0.1886  0.2881 -0.2695
 2721Sol     HW13958   3.097   0.509   6.095 -0.4473  0.4954 -2.5170
 2721Sol     HW13959   3.049   0.407   6.195 -0.8603  3.4728  0.4236
 2721Sol     MW13960   3.055   0.431   6.109  0.3650  0.1973 -0.3013
 2722Sol     OW13961   2.901   3.062   9.566  0.5722  0.7352  0.1229
 2722Sol     HW13962   2.949   3.067   9.484 -1.4450  2.3849 -0.9916
 2722Sol     HW13963   2.891   3.153   9.594 -0.8080  0.3343  0.9835
 2722Sol     MW13964   2.904   3.071   9.562 -0.4294  0.1955  0.7133
 2723Sol     OW13965   2.663   2.237   8.995 -0.0006 -0.6756  0.0019
 2723Sol     HW13966   2.742   2.205   8.951  0.0436 -0.5092 -0.0384
 2723Sol     HW13967   2.695   2.287   9.070 -0.0735 -0.8481  0.1483
 2723Sol     MW13968   2.673   2.239   8.997 -0.3517 -0.1666  0.4710
 2724Sol     OW13969   3.020   3.421   8.761 -0.0620 -0.7188  0.3478
 2724Sol     HW13970   3.010   3.416   8.666  0.3514 -0.6965  0.3055
 2724Sol     HW13971   3.085   3.355   8.782 -1.1055 -1.6358  0.7691
 2724Sol     MW13972   3.025   3.415   8.754  0.1138 -0.7550 -0.2690
 2725Sol     OW13973   1.376   1.701   7.540 -0.3864 -0.5445  0.5928
 2725Sol     HW13974   1.457   1.730   7.498  0.4503 -1.4860  1.5236
 2725Sol     HW13975   1.353   1.772   7.600  0.4973 -0.8809  1.3270
 2725Sol     MW13976   1.381   1.710   7.541 -1.1760 -0.4625  0.1309
 2726Sol     OW13977   1.907   2.039   2.170  0.0790  1.0029  0.0372
 2726Sol     HW13978   1.843   2.041   2.241 -0.3962  0.1623 -0.3600
 2726Sol     HW13979   1.964   2.114   2.187 -0.2691  1.0350  1.0817
 2726Sol     MW13980   1.906   2.046   2.178 -0.2837  0.2440  0.0567
 2727Sol     OW13981   3.193   1.452   1.486 -0.0715  0.4796  0.4109
 2727Sol     HW13982   3.144   1.529   1.457 -0.2790  0.5965  1.0821
 2727Sol     HW13983   3.268   1.488   1.534 -0.3720  0.2510  1.0507
 2727Sol     MW13984   3.196   1.462   1.488  0.0039 -0.1273 -0.4575
 2728Sol     OW13985   0.292   3.019   8.722  0.0967  0.3343 -0.3281
 2728Sol     HW13986   0.263   3.050   8.807 -1.0888 -0.7780 -0.3161
 2728Sol     HW13987   0.357   2.951   8.742 -0.8307 -0.5526 -0.2849
 2728Sol     MW13988   0.296   3.016   8.731 -0.2021  0.0198 -0.0134
 2729Sol     OW13989   1.884   0.716   7.264  0.0573 -0.2298  0.1767
 2729Sol     HW13990   1.931   0.798   7.250 -0.5060 -0.2027 -1.7343
 2729Sol     HW13991   1.951   0.656   7.296  0.9525  0.3842 -0.4954
 2729Sol     MW13992   1.894   0.718   7.265  0.1762  0.5282  0.2201
 2730Sol     OW13993   2.230   0.613   7.690  0.0700  0.5847  0.3051
 2730Sol     HW13994   2.196   0.692   7.648 -1.2090 -0.1719 -0.1044
 2730Sol     HW13995   2.290   0.646   7.757  0.2379  1.8735 -0.4526
 2730Sol     MW13996   2.232   0.623   7.692  0.1316  0.5042  0.3999
 2731Sol     OW13997   0.318   0.064   6.966  0.3581 -0.7331  0.0624
 2731Sol     HW13998   0.382   0.097   7.029 -0.0728  0.4015 -0.0870
 2731Sol     HW13999   0.336   0.113   6.885 -0.0222 -1.1472 -0.2766
 2731Sol     MW14000   0.325   0.071   6.964 -0.3827  0.0661 -0.5714
 2732Sol     OW14001   3.051   0.759   7.345 -0.1403 -0.6396 -0.0239
 2732Sol     HW14002   3.020   0.676   7.382 -0.7077  0.2792  1.6634
 2732Sol     HW14003   3.140   0.741   7.316 -0.0759 -1.7094  0.8045
 2732Sol     MW14004   3.056   0.750   7.346  0.7486  0.2310  0.0672
 2733Sol     OW14005   0.177   2.565   7.397  0.1845 -0.1781  0.0217
 2733Sol     HW14006   0.166   2.477   7.360 -4.0626 -0.0784  0.7577
 2733Sol     HW14007   0.163   2.624   7.324 -1.6277 -0.0944  0.4058
 2733Sol     MW14008   0.174   2.562   7.387 -0.0623 -0.4133  0.1062
 2734Sol     OW14009   1.546   2.345   7.323 -0.6774  0.9751  0.4507
 2734Sol     HW14010   1.452   2.324   7.322 -0.5727  0.5400 -0.5544
 2734Sol     HW14011   1.589   2.261   7.339 -0.4609  1.2186  1.1799
 2734Sol     MW14012   1.541   2.335   7.325 -0.4426  0.0261 -0.1538
 2735Sol     OW14013   1.489   0.447   6.737 -0.0072 -0.1999 -0.0221
 2735Sol     HW14014   1.555   0.486   6.679 -1.5945  0.3118 -1.5131
 2735Sol     HW14015   1.491   0.502   6.815  0.4305  0.5945 -0.5858
 2735Sol     MW14016   1.495   0.456   6.739  0.3768  0.0110 -0.3143
 2736Sol     OW14017   2.146   2.845   4.474  0.2900 -0.3710  0.1423
 2736Sol     HW14018   2.192   2.803   4.402 -1.1444 -1.9383  0.1050
 2736Sol     HW14019   2.135   2.936   4.446  1.9281 -0.3625 -0.5158
 2736Sol     MW14020   2.149   2.849   4.465  0.7004  0.0645  0.5912
 2737Sol     OW14021   1.603   0.917   6.882 -0.2807  0.4522 -0.4931
 2737Sol     HW14022   1.605   0.938   6.975  0.4742 -2.1941  0.1212
 2737Sol     HW14023   1.679   0.962   6.845 -0.3102  1.1073  0.2354
 2737Sol     MW14024   1.610   0.923   6.887 -0.0896 -0.2262  0.2506
 2738Sol     OW14025   2.395   1.442   7.642  0.4349 -0.3160  0.1761
 2738Sol     HW14026   2.477   1.462   7.596 -0.6582  1.4143 -1.1018
 2738Sol     HW14027   2.354   1.374   7.589  1.1354 -1.3458  0.9412
 2738Sol     MW14028   2.399   1.438   7.633 -0.2219 -0.5043  0.2442
 2739Sol     OW14029   0.853   2.166   4.256 -0.4136 -0.0193 -0.0041
 2739Sol     HW14030   0.937   2.206   4.233 -0.6283 -0.0365 -0.8066
 2739Sol     HW14031   0.794   2.190   4.185 -0.4962 -1.9072 -0.6043
 2739Sol     MW14032   0.855   2.172   4.248 -0.1998  0.2067  0.6739
 2740Sol     OW14033   3.168   3.391   7.634 -0.8079  0.1801  0.1522
 2740Sol     HW14034   3.224   3.422   7.563  0.2197  0.2102  0.9660
 2740Sol     HW14035   3.121   3.469   7.664 -1.0298  0.2206 -0.2952
 2740Sol     MW14036   3.168   3.400   7.631  0.0613  0.3578 -0.1417
 2741Sol     OW14037   1.613   1.545   5.303 -0.4559 -0.2763  0.0406
 2741Sol     HW14038   1.589   1.528   5.212 -0.9165  2.1987 -0.3378
 2741Sol     HW14039   1.552   1.612   5.332 -0.0354 -0.7277  2.0615
 2741Sol     MW14040   1.606   1.549   5.297  0.1302  0.2545  0.0451
 2742Sol     OW14041   0.995   3.168   2.515  0.3628 -0.1650 -0.2129
 2742Sol     HW14042   1.036   3.209   2.592 -0.7054 -1.7701  1.2477
 2742Sol     HW14043   0.905   3.152   2.542 -0.6341  1.2149 -2.5978
 2742Sol     MW14044   0.991   3.171   2.525 -0.0795 -0.4170 -0.3209
 2743Sol     OW14045   0.785   1.707   4.889  0.6019 -0.2685 -0.5538
 2743Sol     HW14046   0.834   1.709   4.807  1.2149 -0.4682 -0.1894
 2743Sol     HW14047   0.749   1.795   4.897  2.6297  0.5107  0.2444
 2743Sol     MW14048   0.786   1.715   4.882  0.3257  0.1180  0.5269
 2744Sol     OW14049   0.741   1.816   6.233 -0.3660 -0.1971 -0.3690
 2744Sol     HW14050   0.826   1.860   6.230 -0.6598  0.4001  0.0465
 2744Sol     HW14051   0.747   1.760   6.311 -1.0878  1.3703  0.8450
 2744Sol     MW14052   0.749   1.815   6.240 -0.1210  0.0611  0.6167
 2745Sol     OW14053   0.518   1.152   4.938  0.1660  0.3516 -0.2985
 2745Sol     HW14054   0.546   1.067   4.971 -1.0219 -0.3562 -1.1024
 2745Sol     HW14055   0.556   1.215   5.000 -0.6428 -0.8667  1.4777
 2745Sol     MW14056   0.524   1.150   4.947  0.2962 -0.2331  0.5795
 2746Sol     OW14057   1.714   2.658   9.045 -0.2073  0.2384 -0.7188
 2746Sol     HW14058   1.628   2.626   9.069  0.0164  0.0313 -0.1899
 2746Sol     HW14059   1.728   2.626   8.956  0.3099 -1.7199  0.0588
 2746Sol     MW14060   1.708   2.653   9.039 -0.1856  0.5307  0.0217
 2747Sol     OW14061   3.040   0.995   8.639 -0.5642 -0.0790  0.1970
 2747Sol     HW14062   3.043   1.025   8.548 -1.6187 -0.8203 -0.0962
 2747Sol     HW14063   3.006   1.069   8.688 -0.6618  0.0886 -0.1229
 2747Sol     MW14064   3.037   1.004   8.635  0.0518  0.1610 -0.3303
 2748Sol     OW14065   1.826   1.381   9.045  0.1871  0.6613 -0.2918
 2748Sol     HW14066   1.748   1.396   9.099  0.0002  1.6579 -0.8146
 2748Sol     HW14067   1.855   1.470   9.021  1.0857  0.2736 -0.6629
 2748Sol     MW14068   1.822   1.391   9.048 -0.0763  0.4308 -0.9730
 2749Sol     OW14069   0.290   3.316   5.296 -0.4854  0.2795  0.4550
 2749Sol     HW14070   0.207   3.362   5.304  0.8952  3.1190 -0.8803
 2749Sol     HW14071   0.292   3.287   5.205 -0.7358 -1.2808  0.9311
 2749Sol     MW14072   0.283   3.318   5.288 -0.3394 -0.4062 -0.5935
 2750Sol     OW14073   3.266   3.003   1.962  0.3800  0.0830 -0.0930
 2750Sol     HW14074   3.292   3.065   1.894  1.7491 -0.3777 -0.0093
 2750Sol     HW14075   3.217   3.055   2.025  1.5390  1.0886 -0.0100
 2750Sol     MW14076   3.264   3.013   1.961  0.5975  0.1922  0.8639
 2751Sol     OW14077   0.975   1.622   1.592 -0.0258 -0.1835 -0.0912
 2751Sol     HW14078   0.944   1.662   1.511  0.3203 -0.1340 -0.2021
 2751Sol     HW14079   1.069   1.641   1.593 -0.4198  1.8662  1.4738
 2751Sol     MW14080   0.981   1.627   1.585 -0.4987 -0.1738 -0.3184
 2752Sol     OW14081   3.298   1.358   4.201  0.5161 -0.3395  0.5347
 2752Sol     HW14082   3.289   1.390   4.291 -2.0133 -2.9077  1.2741
 2752Sol     HW14083   3.372   1.297   4.204 -0.2206 -1.2067  1.1185
 2752Sol     MW14084   3.304   1.356   4.209 -0.6015  0.2524 -0.3167
 2753Sol     OW14085   2.979   1.707   1.716  0.1446  0.0759 -0.1099
 2753Sol     HW14086   2.926   1.774   1.672  1.6782  0.6627 -1.1038
 2753Sol     HW14087   2.948   1.708   1.807 -2.1069 -0.1825 -0.8391
 2753Sol     MW14088   2.971   1.714   1.721 -0.0841 -0.2635 -0.8026
 2754Sol     OW14089   0.546   2.087   5.722  0.0703 -0.2399 -0.4023
 2754Sol     HW14090   0.476   2.060   5.781 -1.2915  0.5559 -1.6173
 2754Sol     HW14091   0.562   2.179   5.743  0.5345 -0.3295 -0.3480
 2754Sol     MW14092   0.542   2.093   5.729 -0.5159  0.4711  0.0665
 2755Sol     OW14093   1.791   2.071   1.870  0.3072  0.0501 -0.1197
 2755Sol     HW14094   1.820   2.085   1.960 -2.5555  0.6259  0.7558
 2755Sol     HW14095   1.720   2.134   1.857 -0.8142 -1.5410 -2.0488
 2755Sol     MW14096   1.788   2.078   1.877  0.1049 -0.2799  0.3613
 2756Sol     OW14097   1.372   1.743   5.380 -0.0855  0.6695  0.2544
 2756Sol     HW14098   1.361   1.814   5.317  0.6842 -0.5492 -1.2840
 2756Sol     HW14099   1.323   1.670   5.343  1.2005 -0.3693  0.5704
 2756Sol     MW14100   1.366   1.743   5.371 -0.1482  0.2447  0.2955
 2757Sol     OW14101   0.665   3.217   9.419  0.2863 -0.1507  0.2925
 2757Sol     HW14102   0.676   3.300   9.466 -1.0103 -0.4107  1.0971
 2757Sol     HW14103   0.752   3.177   9.420  0.9157  1.1999 -0.1016
 2757Sol     MW14104   0.674   3.221   9.423  0.2855 -0.2625 -0.3475
 2758Sol     OW14105   2.363   1.826   6.690  0.0011 -0.2832 -0.1963
 2758Sol     HW14106   2.290   1.852   6.634 -0.6551  0.4717  0.9986
 2758Sol     HW14107   2.439   1.824   6.632 -0.2799  2.5100 -0.6932
 2758Sol     MW14108   2.364   1.828   6.680 -0.5533  0.1345  0.2281
 2759Sol     OW14109   2.658   2.532   4.491  0.0835  0.2961  0.0090
 2759Sol     HW14110   2.702   2.456   4.453  0.5924  1.6741 -2.2303
 2759Sol     HW14111   2.578   2.541   4.439 -1.7747 -0.8035  2.5554
 2759Sol     MW14112   2.654   2.526   4.483 -0.3365 -0.7839  0.0604
 2760Sol     OW14113   2.720   2.957   7.772  0.5609  0.2518  0.1280
 2760Sol     HW14114   2.644   2.904   7.794 -0.0618  0.8449 -0.5680
 2760Sol     HW14115   2.795   2.900   7.790 -0.0964 -0.8144 -0.4506
 2760Sol     MW14116   2.720   2.947   7.775  0.4052 -0.4070 -0.2381
 2761Sol     OW14117   1.947   1.326   5.340  0.4110 -0.4088  0.3442
 2761Sol     HW14118   2.014   1.334   5.273  0.3305 -1.8641  0.0731
 2761Sol     HW14119   1.919   1.416   5.357  1.1535  0.0544 -0.8271
 2761Sol     MW14120   1.950   1.335   5.336 -0.6393 -0.3488  0.0668
 2762Sol     OW14121   1.613   0.700   7.242 -0.2096 -0.1065  0.6038
 2762Sol     HW14122   1.578   0.626   7.291 -0.1179 -1.8016 -1.8069
 2762Sol     HW14123   1.708   0.691   7.247 -0.1559  0.9605  1.8977
 2762Sol     MW14124   1.618   0.693   7.247 -0.2073 -0.4563  0.4930
 2763Sol     OW14125   0.788   2.917   9.845  0.0766 -0.3558 -0.3217
 2763Sol     HW14126   0.878   2.887   9.856 -0.5614 -1.9407  0.5926
 2763Sol     HW14127   0.739   2.838   9.822 -1.5869 -0.0070  1.9468
 2763Sol     MW14128   0.792   2.908   9.844  0.6930  0.4168  0.6144
 2764Sol     OW14129   2.185   0.356   5.628  0.2291  0.1965  0.3436
 2764Sol     HW14130   2.142   0.344   5.543  0.1294  0.9988  0.2711
 2764Sol     HW14131   2.275   0.327   5.615  0.7418  2.1145 -0.5835
 2764Sol     MW14132   2.189   0.352   5.620 -0.4435 -0.2172 -0.1511
 2765Sol     OW14133   0.610   3.175   9.110 -0.0315 -0.0562  0.6482
 2765Sol     HW14134   0.605   3.253   9.165 -1.1780  0.7920 -0.6248
 2765Sol     HW14135   0.610   3.208   9.020  2.6037 -1.3755  0.1132
 2765Sol     MW14136   0.609   3.185   9.107 -0.0405 -0.1050 -0.1456
 2766Sol     OW14137   2.123   0.796   6.452  0.1872  0.1463  0.2590
 2766Sol     HW14138   2.202   0.751   6.483  0.2018 -0.8831 -1.2073
 2766Sol     HW14139   2.091   0.844   6.528  2.3266  0.7016  0.8420
 2766Sol     MW14140   2.128   0.796   6.462  0.0507 -0.5596 -0.0848
 2767Sol     OW14141   0.641   3.277   8.854 -0.0428  0.3488  0.1932
 2767Sol     HW14142   0.729   3.274   8.891 -0.2361 -0.1133  0.6260
 2767Sol     HW14143   0.631   3.193   8.808  0.2598  0.9915 -1.0679
 2767Sol     MW14144   0.648   3.269   8.853  0.1325 -0.1184 -0.6806
 2768Sol     OW14145   1.645   2.123   8.000 -0.4169 -0.4891  0.4663
 2768Sol     HW14146   1.653   2.095   7.909 -0.7887 -0.1488  0.3256
 2768Sol     HW14147   1.552   2.146   8.009  0.0606  1.6287  0.3013
 2768Sol     MW14148   1.637   2.123   7.992  0.5450 -0.3040  0.2451
 2769Sol     OW14149   2.372   0.454   9.535 -0.0200 -0.4853  0.8754
 2769Sol     HW14150   2.442   0.396   9.505 -0.2316 -0.0120 -0.5940
 2769Sol     HW14151   2.345   0.418   9.619 -0.0882 -2.4949  0.0308
 2769Sol     MW14152   2.376   0.445   9.540 -0.9510 -0.0886 -0.6065
 2770Sol     OW14153   2.902   1.554   5.795 -0.7451 -0.4126  0.7787
 2770Sol     HW14154   2.830   1.543   5.858 -1.8461 -2.4768 -0.7832
 2770Sol     HW14155   2.861   1.540   5.710  0.9951  1.1048 -0.3269
 2770Sol     MW14156   2.892   1.552   5.793 -0.3758  0.3449  0.0267
 2771Sol     OW14157   1.719   0.349   2.110  0.5645  0.2103  0.0396
 2771Sol     HW14158   1.786   0.316   2.050  0.1191 -0.3944 -0.1352
 2771Sol     HW14159   1.641   0.358   2.055  0.5723  1.1699  0.1782
 2771Sol     MW14160   1.718   0.347   2.099 -0.1383 -0.2969 -0.1449
 2772Sol     OW14161   2.342   2.658   9.539  0.1159  0.6177  0.1771
 2772Sol     HW14162   2.399   2.592   9.580 -0.7290  1.0290  2.0869
 2772Sol     HW14163   2.396   2.699   9.472  1.4403 -0.3320  0.6497
 2772Sol     MW14164   2.352   2.655   9.537 -0.0827 -0.3869  0.3689
 2773Sol     OW14165   1.482   2.536   9.076  0.7631  0.1223  0.1539
 2773Sol     HW14166   1.426   2.529   9.153 -0.1503  2.5496 -0.2430
 2773Sol     HW14167   1.487   2.447   9.041 -0.0886 -0.7185  2.1159
 2773Sol     MW14168   1.478   2.528   9.080 -0.0741 -0.5338  0.1863
 2774Sol     OW14169   1.953   3.203   8.710  0.1327  0.1617  0.2322
 2774Sol     HW14170   2.037   3.246   8.694  0.2272  0.1037  0.5663
 2774Sol     HW14171   1.974   3.110   8.712 -0.3254 -0.0323 -2.1167
 2774Sol     MW14172   1.962   3.199   8.709 -0.3138  0.4243  0.3948
 2775Sol     OW14173   0.629   0.557   8.971 -0.1208 -0.1846 -0.3933
 2775Sol     HW14174   0.616   0.610   8.892 -1.7863 -1.1421 -0.7907
 2775Sol     HW14175   0.680   0.613   9.029  1.2704  0.4761 -2.1986
 2775Sol     MW14176   0.632   0.567   8.969  0.1125 -0.0135  0.2078
 2776Sol     OW14177   2.596   2.904   6.471  0.4359 -0.2442 -0.5508
 2776Sol     HW14178   2.617   2.964   6.399  0.2622 -0.8488 -1.1023
 2776Sol     HW14179   2.649   2.936   6.544  1.6481 -0.4573 -1.3275
 2776Sol     MW14180   2.603   2.913   6.471 -0.0869 -0.8087  0.1816
 2777Sol     OW14181   0.847   0.096   7.723  0.0195 -0.0747  0.0029
 2777Sol     HW14182   0.778   0.127   7.664 -2.2253  0.8499  2.9857
 2777Sol     HW14183   0.913   0.166   7.722 -0.4800  0.3935 -0.6306
 2777Sol     MW14184   0.847   0.105   7.717  0.1749  0.3918  0.2489
 2778Sol     OW14185   3.131   2.128   6.774 -0.0493  0.1031 -0.0623
 2778Sol     HW14186   3.140   2.035   6.753  3.6164  0.2237  0.6500
 2778Sol     HW14187   3.121   2.130   6.869  0.1580  0.4770 -0.0496
 2778Sol     MW14188   3.131   2.120   6.781  0.2458 -0.0809 -0.1135
 2779Sol     OW14189   0.043   0.314   1.700  0.7498 -0.3369  0.0209
 2779Sol     HW14190   0.085   0.379   1.644  0.2178  0.2525  0.3029
 2779Sol     HW14191  -0.044   0.349   1.717 -0.2217 -2.0223 -1.3513
 2779Sol     MW14192   0.039   0.323   1.697 -0.1561  0.6724 -0.0747
 2780Sol     OW14193   1.134   0.735   8.139 -1.0431  0.3809 -0.0557
 2780Sol     HW14194   1.076   0.691   8.076 -1.9410  0.7250  0.5283
 2780Sol     HW14195   1.134   0.678   8.216 -1.5759  0.9924  0.4026
 2780Sol     MW14196   1.129   0.726   8.140  0.2597 -1.1867  0.6445
 2781Sol     OW14197   0.581   1.849   8.743  0.3347 -0.1975  0.5896
 2781Sol     HW14198   0.578   1.867   8.837  1.4427  1.2860  0.3674
 2781Sol     HW14199   0.674   1.858   8.720  0.3765 -2.6075 -0.2661
 2781Sol     MW14200   0.589   1.852   8.749  0.3919  0.5492 -0.2859
 2782Sol     OW14201   3.219   0.352   7.630 -0.0659  0.3329 -0.1095
 2782Sol     HW14202   3.164   0.275   7.645  2.1990 -1.2417  0.3690
 2782Sol     HW14203   3.156   0.423   7.615 -2.2159 -1.4801 -0.0798
 2782Sol     MW14204   3.208   0.351   7.630  0.0020  0.0027 -0.2832
 2783Sol     OW14205   0.220   0.732   8.908 -0.6904 -0.1337 -0.4460
 2783Sol     HW14206   0.235   0.642   8.938 -1.0787  0.1992  0.7878
 2783Sol     HW14207   0.302   0.758   8.866  0.7714  0.2131  2.4850
 2783Sol     MW14208   0.229   0.726   8.907 -0.0397 -0.2415  0.2128
 2784Sol     OW14209   1.634   1.424   3.059 -0.2182 -0.0521  0.6604
 2784Sol     HW14210   1.670   1.512   3.070  0.9920 -0.7257  2.2038
 2784Sol     HW14211   1.574   1.413   3.133  0.8897 -1.1208  1.4278
 2784Sol     MW14212   1.632   1.431   3.067  0.1699 -0.5782  0.4680
 2785Sol     OW14213   2.037   1.971   4.077  0.1125 -0.1150  0.3561
 2785Sol     HW14214   2.046   1.987   4.171 -1.3251  0.5361  0.4114
 2785Sol     HW14215   1.989   2.047   4.045 -0.8817 -1.1211 -0.6014
 2785Sol     MW14216   2.033   1.979   4.083  0.3791  0.1016  0.3857
 2786Sol     OW14217   0.060   1.253   1.795 -0.3713 -0.2352  0.5996
 2786Sol     HW14218   0.017   1.175   1.830 -0.8207 -1.1024 -1.7768
 2786Sol     HW14219  -0.007   1.322   1.800 -0.9335 -0.7378  0.0036
 2786Sol     MW14220   0.050   1.253   1.799 -0.0503  0.2605  0.4374
 2787Sol     OW14221   0.225   1.206   1.403 -0.3934  0.7264  0.8311
 2787Sol     HW14222   0.142   1.186   1.447 -1.6967  0.6063 -1.6053
 2787Sol     HW14223   0.219   1.299   1.382 -0.6201  0.3897 -0.7083
 2787Sol     MW14224   0.217   1.213   1.405 -0.6922  0.4140 -0.1476
 2788Sol     OW14225   2.776   3.163   5.266 -0.0236 -0.0664 -0.0806
 2788Sol     HW14226   2.694   3.115   5.280  0.1319 -0.5528 -0.8010
 2788Sol     HW14227   2.801   3.194   5.353  0.0334 -1.5696  0.4585
 2788Sol     MW14228   2.771   3.161   5.275 -0.3578  0.0628 -0.3202
 2789Sol     OW14229   1.538   2.692   3.811  0.4513  1.0010 -0.4869
 2789Sol     HW14230   1.492   2.734   3.739  0.0367  1.4845  0.0470
 2789Sol     HW14231   1.602   2.757   3.839  1.5842  0.2547 -1.3487
 2789Sol     MW14232   1.539   2.702   3.807  0.1486 -0.1542  0.5304
 2790Sol     OW14233   3.085   1.116   2.490  0.1422  0.1075  0.7298
 2790Sol     HW14234   3.069   1.136   2.582  1.3296  0.0383  0.9512
 2790Sol     HW14235   3.045   1.189   2.442  0.8935  0.9425  1.3626
 2790Sol     MW14236   3.080   1.124   2.494 -0.2669 -0.4124  0.0705
 2791Sol     OW14237   2.553   2.724   2.653  0.1094 -0.0704  0.5243
 2791Sol     HW14238   2.568   2.650   2.594 -0.8573 -0.9454  1.3794
 2791Sol     HW14239   2.604   2.703   2.732 -0.7237 -0.1530  1.0413
 2791Sol     MW14240   2.559   2.716   2.655  0.3562 -0.3357  0.2921
 2792Sol     OW14241   2.448   1.716   4.914 -0.1839 -0.2148 -0.2469
 2792Sol     HW14242   2.450   1.695   5.008  1.6013  0.2199 -0.1561
 2792Sol     HW14243   2.362   1.753   4.899  0.0294  1.0644  1.5574
 2792Sol     MW14244   2.441   1.718   4.921  0.5057  0.1510  0.1902
 2793Sol     OW14245   2.724   2.119   6.268  0.5241  0.8958  0.4251
 2793Sol     HW14246   2.710   2.133   6.174 -1.7232 -2.0303  0.2594
 2793Sol     HW14247   2.810   2.076   6.273  0.0889 -0.1162 -0.4437
 2793Sol     MW14248   2.731   2.116   6.260 -0.0374  0.2926 -0.0226
 2794Sol     OW14249   0.994   3.377   7.197 -0.2300  0.1920  0.0281
 2794Sol     HW14250   0.995   3.320   7.120  0.7110 -1.3401  1.1357
 2794Sol     HW14251   1.086   3.395   7.216 -0.5293  2.4585 -0.5527
 2794Sol     MW14252   1.002   3.374   7.192  0.6499 -0.3687 -0.5234
 2795Sol     OW14253   2.340   0.350   9.794 -0.0073  0.1345 -0.0996
 2795Sol     HW14254   2.401   0.283   9.825  0.8416  0.5166 -0.8822
 2795Sol     HW14255   2.260   0.336   9.844  0.1692 -1.4407 -0.2339
 2795Sol     MW14256   2.338   0.343   9.801 -0.1028  0.1884  0.2792
 2796Sol     OW14257   0.987   2.300   9.439  0.2471 -0.4671  0.1522
 2796Sol     HW14258   1.000   2.206   9.434  2.6889 -0.0846 -1.2459
 2796Sol     HW14259   0.981   2.329   9.347  1.5340  0.9745  0.4934
 2796Sol     MW14260   0.987   2.294   9.430 -0.5715 -0.3451 -0.4526
 2797Sol     OW14261   1.616   0.727   2.252  0.0466  0.6049  0.2454
 2797Sol     HW14262   1.630   0.657   2.316  0.3085  1.1099  0.7513
 2797Sol     HW14263   1.679   0.710   2.182  0.3344  0.5193  0.5235
 2797Sol     MW14264   1.623   0.720   2.252 -0.0227  0.3219 -0.1966
 2798Sol     OW14265   1.402   3.315   7.672 -0.3947 -0.1876 -0.6263
 2798Sol     HW14266   1.312   3.302   7.643 -0.9977  0.6757  0.7638
 2798Sol     HW14267   1.408   3.264   7.753  0.1027  0.4194 -0.2763
 2798Sol     MW14268   1.394   3.309   7.677 -0.1308 -0.4117 -0.0289
 2799Sol     OW14269   1.119   0.842   3.362  0.1951  0.0819  0.5320
 2799Sol     HW14270   1.187   0.775   3.354 -0.7327 -0.8041  0.1150
 2799Sol     HW14271   1.037   0.794   3.361 -0.4397  1.1262  1.4341
 2799Sol     MW14272   1.118   0.832   3.361  0.3937  0.0974  0.4229
 2800Sol     OW14273   0.512   1.526   3.467  0.3735 -0.5505 -0.0187
 2800Sol     HW14274   0.466   1.484   3.395  0.2182 -0.5783  0.0972
 2800Sol     HW14275   0.497   1.469   3.542 -0.3022 -0.0014  0.2692
 2800Sol     MW14276   0.507   1.517   3.467  0.0625  0.3681 -0.1093
 2801Sol     OW14277   1.154   2.223   9.001 -0.2893  0.1727 -0.3846
 2801Sol     HW14278   1.214   2.185   9.065 -1.2801 -0.6701  0.0711
 2801Sol     HW14279   1.211   2.261   8.934  0.7416 -1.1278 -0.2650
 2801Sol     MW14280   1.164   2.223   9.001  0.3127 -0.1716  0.0157
 2802Sol     OW14281   0.290   3.185   5.664  0.4427  0.2196 -0.2445
 2802Sol     HW14282   0.222   3.252   5.657  0.0135 -0.3796 -1.9461
 2802Sol     HW14283   0.246   3.104   5.642  1.3943 -0.3736  0.0169
 2802Sol     MW14284   0.280   3.184   5.662  0.1224 -1.1445  0.7056
 2803Sol     OW14285   2.705   0.656   6.108 -0.0301  0.5467 -0.2582
 2803Sol     HW14286   2.615   0.676   6.083  0.4775  2.2650 -0.7699
 2803Sol     HW14287   2.758   0.722   6.062  1.1214  2.3526  3.4458
 2803Sol     MW14288   2.702   0.664   6.102  0.0624 -0.3571  0.0478
 2804Sol     OW14289   2.630   0.295   7.486 -0.6706 -0.1971  0.4021
 2804Sol     HW14290   2.555   0.350   7.510 -1.0945 -0.6121  0.0252
 2804Sol     HW14291   2.592   0.215   7.452 -0.0654 -0.0389 -0.6905
 2804Sol     MW14292   2.620   0.293   7.485  0.6234 -0.2310  0.3070
 2805Sol     OW14293   3.042   3.346   7.135  0.1874 -0.0778  0.2010
 2805Sol     HW14294   3.108   3.409   7.165  2.1703 -2.0775  0.1666
 2805Sol     HW14295   3.011   3.304   7.215 -0.6193  0.4349  0.1604
 2805Sol     MW14296   3.045   3.348   7.145  0.7113  0.6392 -0.6907
 2806Sol     OW14297   1.723   0.989   8.480 -0.2136 -0.2189  0.3317
 2806Sol     HW14298   1.692   0.989   8.390  0.3133 -0.2870  0.1498
 2806Sol     HW14299   1.645   0.972   8.532 -0.8913  1.7802  0.0255
 2806Sol     MW14300   1.713   0.988   8.477 -0.5851  0.3421  0.7272
 2807Sol     OW14301   0.770   3.016   2.625 -0.6041  0.2415  0.1397
 2807Sol     HW14302   0.717   2.937   2.625 -1.6059  0.8938  2.2030
 2807Sol     HW14303   0.831   3.005   2.698 -1.6425  1.9456  1.3010
 2807Sol     MW14304   0.771   3.008   2.631 -0.7108  0.7744 -0.2295
 2808Sol     OW14305   2.921   1.281   3.237  0.3661 -0.0694 -0.0576
 2808Sol     HW14306   3.014   1.263   3.242  0.0460 -1.6515  0.3774
 2808Sol     HW14307   2.916   1.373   3.209  2.0312  0.4851  1.3946
 2808Sol     MW14308   2.928   1.288   3.235 -0.0353 -0.3218 -0.2782
 2809Sol     OW14309   0.200   3.065   2.832  0.6940  0.1053 -0.2873
 2809Sol     HW14310   0.281   3.096   2.873  0.7551 -0.5813  0.1184
 2809Sol     HW14311   0.228   3.032   2.746  0.8940 -0.3826 -0.0391
 2809Sol     MW14312   0.210   3.065   2.828  0.1056 -0.2328 -0.7107
 2810Sol     OW14313   2.177   1.469   6.111  0.1024 -0.0702  0.1129
 2810Sol     HW14314   2.205   1.379   6.130 -2.5270 -0.7754  0.8980
 2810Sol     HW14315   2.235   1.523   6.163  0.8757 -1.4085  0.6718
 2810Sol     MW14316   2.184   1.465   6.118  0.8956 -0.1375 -0.2536
 2811Sol     OW14317   2.246   0.719   7.221 -0.0390  0.3633  0.0543
 2811Sol     HW14318   2.192   0.743   7.146  0.7792  0.2441 -0.5753
 2811Sol     HW14319   2.258   0.625   7.212 -0.7659  0.1787  0.8920
 2811Sol     MW14320   2.242   0.713   7.214  0.0449  0.5595  0.1506
 2812Sol     OW14321   0.310   2.392   8.000  0.2005  0.5755 -0.4763
 2812Sol     HW14322   0.315   2.427   7.911 -0.1131  1.8094 -0.0113
 2812Sol     HW14323   0.286   2.300   7.988 -2.9762  1.4746 -1.5701
 2812Sol     MW14324   0.308   2.387   7.991 -0.5670  0.0342  0.0489
 2813Sol     OW14325   1.181   1.118   2.079  0.4443  0.0659 -0.3388
 2813Sol     HW14326   1.138   1.036   2.102  0.1770  0.3478  0.1576
 2813Sol     HW14327   1.110   1.181   2.065  0.5406 -0.3146 -2.8472
 2813Sol     MW14328   1.171   1.116   2.080 -0.2315  0.4349  0.4909
 2814Sol     OW14329   0.314   2.417   1.966  0.4881  0.2369 -0.1103
 2814Sol     HW14330   0.393   2.470   1.955  1.2828 -0.3619  2.3086
 2814Sol     HW14331   0.336   2.334   1.923  0.2782  0.8564 -1.4577
 2814Sol     MW14332   0.323   2.414   1.961 -0.3602 -0.4559 -0.0114
 2815Sol     OW14333   2.164   1.575   8.713  0.1431 -0.2858 -0.1528
 2815Sol     HW14334   2.140   1.507   8.775 -3.1511 -1.7448 -2.8869
 2815Sol     HW14335   2.209   1.529   8.643  0.3719  0.7759 -0.7131
 2815Sol     MW14336   2.166   1.565   8.713  0.6779 -0.1905 -0.0149
 2816Sol     OW14337   1.961   2.686   5.663  0.0664  0.2820  0.0082
 2816Sol     HW14338   2.023   2.757   5.678 -1.0043  1.4322 -0.9049
 2816Sol     HW14339   1.936   2.657   5.751  1.1403  0.4606  0.3786
 2816Sol     MW14340   1.964   2.689   5.672 -0.0790 -0.7058  0.3462
 2817Sol     OW14341   1.354   1.942   6.651 -0.3568  0.2346 -0.0017
 2817Sol     HW14342   1.362   1.922   6.744 -0.9006 -0.8692 -0.1825
 2817Sol     HW14343   1.297   2.019   6.647 -0.0362  0.4963  0.6006
 2817Sol     MW14344   1.349   1.947   6.659 -0.1147 -0.5237  0.5088
 2818Sol     OW14345   1.438   1.462   2.764 -0.4696  0.0215 -0.0306
 2818Sol     HW14346   1.496   1.386   2.766  0.4540  0.6855 -1.1905
 2818Sol     HW14347   1.356   1.430   2.725 -0.3767 -0.5695  0.2614
 2818Sol     MW14348   1.436   1.452   2.761 -0.2742 -0.1753  0.1720
 2819Sol     OW14349   1.068   0.727   5.360  0.5160 -0.5175 -0.3321
 2819Sol     HW14350   1.060   0.710   5.454  0.6132 -0.8261 -0.3810
 2819Sol     HW14351   1.052   0.822   5.352  0.7845 -0.4397  0.0267
 2819Sol     MW14352   1.066   0.734   5.368  0.3318  0.0875  0.0315
 2820Sol     OW14353   3.253   3.313   8.334  0.5747  0.0828  0.1601
 2820Sol     HW14354   3.316   3.384   8.350 -0.3937  1.1475 -0.6818
 2820Sol     HW14355   3.306   3.243   8.297  1.3981  0.6990  0.1415
 2820Sol     MW14356   3.264   3.313   8.333 -0.0478  0.3758 -0.2078
 2821Sol     OW14357   0.468   0.777   4.169  0.5032 -0.2265  0.3581
 2821Sol     HW14358   0.433   0.720   4.101  1.8087  1.0307 -1.4417
 2821Sol     HW14359   0.441   0.737   4.251 -1.1861 -1.7483 -0.9031
 2821Sol     MW14360   0.463   0.769   4.170 -0.8285  0.0577 -0.2564
 2822Sol     OW14361   0.417   1.856   6.411  0.8302  0.1338  0.0394
 2822Sol     HW14362   0.389   1.813   6.330  0.2709 -0.8978  0.7791
 2822Sol     HW14363   0.436   1.946   6.384 -1.4632  0.3898 -0.8283
 2822Sol     MW14364   0.416   1.860   6.401 -0.1175  0.0307  1.2371
 2823Sol     OW14365   2.692   1.198   3.096 -0.0069  0.0238  0.1145
 2823Sol     HW14366   2.782   1.215   3.120  0.3102 -1.0923 -0.2461
 2823Sol     HW14367   2.640   1.234   3.168  0.5339  3.5631 -1.1652
 2823Sol     MW14368   2.695   1.203   3.104  0.6717  0.1012  0.2228
 2824Sol     OW14369   1.299   1.928   7.679  0.2862 -0.4400 -0.5215
 2824Sol     HW14370   1.204   1.917   7.679  0.3748 -1.6412  3.1442
 2824Sol     HW14371   1.312   2.018   7.710  0.3303  0.4941 -3.1505
 2824Sol     MW14372   1.292   1.935   7.682  0.9611  0.3724  0.1557
 2825Sol     OW14373   1.380   2.689   4.902 -0.2466 -0.2945  0.6051
 2825Sol     HW14374   1.398   2.734   4.984  0.0688 -0.2446  0.5075
 2825Sol     HW14375   1.456   2.635   4.886  0.0322  0.2731 -0.0409
 2825Sol     MW14376   1.388   2.689   4.908 -0.3699 -0.6544 -0.3145
 2826Sol     OW14377   0.213   1.894   4.279 -0.4145 -0.0914 -0.2610
 2826Sol     HW14378   0.302   1.926   4.291 -0.6544  1.2071 -1.7983
 2826Sol     HW14379   0.163   1.931   4.352 -0.0303  0.4659 -0.2859
 2826Sol     MW14380   0.216   1.900   4.286  0.5738 -0.0384 -0.0437
 2827Sol     OW14381   1.479   0.384   1.915  0.1130  0.5246  0.3239
 2827Sol     HW14382   1.512   0.311   1.862  1.3697  0.2822  1.4163
 2827Sol     HW14383   1.397   0.351   1.953 -1.1819  0.9510 -2.0062
 2827Sol     MW14384   1.474   0.374   1.913  0.4468  0.2285 -0.4596
 2828Sol     OW14385   3.130   2.359   2.369  1.1577 -0.0222 -0.3965
 2828Sol     HW14386   3.104   2.277   2.409 -0.2940 -0.0433 -1.3836
 2828Sol     HW14387   3.082   2.363   2.286  2.2445  1.1805 -0.9957
 2828Sol     MW14388   3.124   2.352   2.365  0.1371 -0.0411 -0.2795
 2829Sol     OW14389   3.070   1.627   9.586  0.0889  0.0377  0.4256
 2829Sol     HW14390   2.988   1.674   9.575 -0.3104 -0.4406  1.2900
 2829Sol     HW14391   3.071   1.602   9.678 -0.2780 -2.6692 -0.2586
 2829Sol     MW14392   3.063   1.629   9.593 -0.1250  0.2140  0.2459
 2830Sol     OW14393   2.726   2.067   3.410  0.2121  0.1314 -0.0943
 2830Sol     HW14394   2.717   1.974   3.430  1.2390 -0.3497 -1.7705
 2830Sol     HW14395   2.636   2.099   3.408 -0.3654 -1.4776 -2.4096
 2830Sol     MW14396   2.717   2.061   3.411 -0.2595 -0.3919 -0.0020
 2831Sol     OW14397   1.264   2.117   9.237 -0.1314  0.1554  0.1084
 2831Sol     HW14398   1.323   2.051   9.274 -0.4528 -1.2185 -1.7595
 2831Sol     HW14399   1.180   2.102   9.279 -0.0376 -0.1935  0.1675
 2831Sol     MW14400   1.262   2.110   9.244  0.6384  0.2285  0.0912
 2832Sol     OW14401   2.733   2.275   4.353 -0.1728 -0.3551  0.3693
 2832Sol     HW14402   2.824   2.303   4.361  0.3839 -1.6367 -1.0928
 2832Sol     HW14403   2.739   2.183   4.326 -1.8556  0.0398 -1.4822
 2832Sol     MW14404   2.742   2.269   4.351  0.3684  0.0573 -0.1760
 2833Sol     OW14405   1.986   0.246   4.475  0.4315 -0.5736  0.4611
 2833Sol     HW14406   2.001   0.288   4.560  1.4983 -0.9373  0.4539
 2833Sol     HW14407   1.930   0.307   4.428 -0.4479 -0.5217  1.5546
 2833Sol     MW14408   1.982   0.255   4.479 -0.1543  0.2286 -0.4051
 2834Sol     OW14409   3.176   2.452   2.029 -0.1403 -0.1964  0.1523
 2834Sol     HW14410   3.192   2.375   1.976  1.3624  0.5294 -0.4755
 2834Sol     HW14411   3.262   2.489   2.045 -0.6166  0.0020  2.5207
 2834Sol     MW14412   3.185   2.449   2.026 -0.0921 -0.1826  0.1368
 2835Sol     OW14413   3.259   1.950   8.929 -0.0416 -0.1829 -0.2198
 2835Sol     HW14414   3.260   1.868   8.879  1.0259 -0.8147  0.8248
 2835Sol     HW14415   3.294   1.927   9.015 -0.0202  1.3062  0.1897
 2835Sol     MW14416   3.262   1.941   8.932  0.0643  0.9461 -0.2970
 2836Sol     OW14417   1.246   3.235   4.613 -0.5295 -0.0669 -0.2177
 2836Sol     HW14418   1.223   3.238   4.706 -0.4699 -0.9363 -0.1785
 2836Sol     HW14419   1.170   3.195   4.571 -0.2104 -0.4399 -0.4378
 2836Sol     MW14420   1.237   3.232   4.617  0.6288  0.0091  0.1257
 2837Sol     OW14421   2.374   1.864   1.943 -0.1610 -0.4859 -0.5382
 2837Sol     HW14422   2.405   1.935   2.000 -1.4247  0.6195 -1.1754
 2837Sol     HW14423   2.355   1.792   2.002  0.5483 -0.0646  0.2092
 2837Sol     MW14424   2.375   1.864   1.953  0.1101  0.2901 -0.0247
 2838Sol     OW14425   0.443   2.944   4.645 -0.1294  0.2370  0.2782
 2838Sol     HW14426   0.443   2.902   4.559  1.5802  2.3949 -0.8091
 2838Sol     HW14427   0.469   3.034   4.628 -2.0232  1.3267  2.7854
 2838Sol     MW14428   0.445   2.948   4.635 -0.1657  0.1305  0.4147
 2839Sol     OW14429   2.494   1.632   2.240 -0.1805  0.1336 -0.1466
 2839Sol     HW14430   2.405   1.639   2.205 -0.5732  1.4140  1.0401
 2839Sol     HW14431   2.541   1.706   2.201 -0.1174  0.4627  0.5336
 2839Sol     MW14432   2.490   1.640   2.234 -0.6716  0.0630 -0.3802
 2840Sol     OW14433   2.474   3.277   8.742  0.1579 -0.2488 -0.6484
 2840Sol     HW14434   2.534   3.205   8.724 -0.3746 -1.3034  1.7149
 2840Sol     HW14435   2.405   3.267   8.675  0.9560 -0.9033 -1.3893
 2840Sol     MW14436   2.473   3.269   8.734 -0.6000 -0.3850 -0.4046
 2841Sol     OW14437   1.626   0.578   7.598  0.0237 -0.4083 -0.0862
 2841Sol     HW14438   1.534   0.601   7.590  0.0763 -0.6416 -1.5473
 2841Sol     HW14439   1.672   0.661   7.594 -0.1863 -0.1514  2.1718
 2841Sol     MW14440   1.622   0.587   7.597 -0.2898  0.2002 -0.3953
 2842Sol     OW14441   2.367   3.162   3.075  0.5760 -0.0450 -0.1489
 2842Sol     HW14442   2.376   3.186   3.168  0.4050  1.2823 -0.4676
 2842Sol     HW14443   2.458   3.155   3.044  0.6503  2.7914 -0.6915
 2842Sol     MW14444   2.376   3.164   3.081 -0.5353  0.7961 -0.0179
 2843Sol     OW14445   1.122   1.413   8.842 -0.1532 -0.4830  0.1061
 2843Sol     HW14446   1.167   1.452   8.917 -1.1434  0.6316  0.1294
 2843Sol     HW14447   1.173   1.440   8.766 -1.4645  1.8245  0.0177
 2843Sol     MW14448   1.130   1.419   8.842  0.0949  0.1139 -0.1677
 2844Sol     OW14449   1.079   3.183   6.395  0.5974 -0.0152 -0.5710
 2844Sol     HW14450   1.101   3.241   6.323 -0.7802 -1.2687 -2.0289
 2844Sol     HW14451   1.024   3.236   6.453  1.1567  0.7840 -0.7666
 2844Sol     MW14452   1.076   3.193   6.394 -0.0570  0.1025 -0.1613
 2845Sol     OW14453   0.893   3.028   5.844  0.0013  0.2288  0.3436
 2845Sol     HW14454   0.983   3.008   5.868  0.1180 -0.9322 -1.0640
 2845Sol     HW14455   0.899   3.110   5.795  0.2285  0.3947  0.6452
 2845Sol     MW14456   0.901   3.034   5.842  0.6278 -0.1952 -0.2325
 2846Sol     OW14457   1.642   1.506   1.568 -0.2937 -0.2152 -0.5340
 2846Sol     HW14458   1.707   1.554   1.618 -2.3404  0.1382  1.8786
 2846Sol     HW14459   1.671   1.415   1.572  0.7647  0.1074 -0.6664
 2846Sol     MW14460   1.650   1.502   1.573 -0.7821  0.7564 -0.1000
 2847Sol     OW14461   1.198   1.357   4.674 -0.0004  0.3054 -0.1296
 2847Sol     HW14462   1.146   1.286   4.636  1.6268 -0.8349 -0.2769
 2847Sol     HW14463   1.269   1.371   4.611  1.3982 -0.0182  1.3503
 2847Sol     MW14464   1.200   1.352   4.665  0.1260 -0.3042  0.5557
 2848Sol     OW14465   0.906   2.056   2.002  0.4510 -0.1144  0.2905
 2848Sol     HW14466   0.980   2.082   1.946 -1.3849 -1.4332 -2.9202
 2848Sol     HW14467   0.865   2.138   2.028  1.0750  0.5262 -0.7304
 2848Sol     MW14468   0.909   2.065   1.999 -0.0587 -0.2640 -0.0053
 2849Sol     OW14469   2.681   3.279   5.710  0.2341  0.5324  0.1608
 2849Sol     HW14470   2.609   3.240   5.760 -0.1988 -0.7860 -1.4676
 2849Sol     HW14471   2.638   3.326   5.638  1.0131 -1.0652 -1.3849
 2849Sol     MW14472   2.671   3.280   5.708  0.1015 -0.1040 -0.6641
 2850Sol     OW14473   2.779   0.885   5.058  0.2666  0.7222  0.0118
 2850Sol     HW14474   2.808   0.967   5.096 -0.4871  0.5473  0.9880
 2850Sol     HW14475   2.835   0.818   5.098  1.2441  0.7977 -1.1862
 2850Sol     MW14476   2.786   0.886   5.065  0.1395 -0.0210  0.0978
 2851Sol     OW14477   0.513   2.850   8.731 -0.3444 -0.7452 -0.6050
 2851Sol     HW14478   0.514   2.767   8.685  2.7361 -0.9289 -0.2969
 2851Sol     HW14479   0.521   2.826   8.824  0.5127 -0.1238 -0.5121
 2851Sol     MW14480   0.514   2.841   8.736 -0.1145  0.0648  0.0598
 2852Sol     OW14481   0.661   2.657   6.164 -0.0458 -0.1407 -0.0636
 2852Sol     HW14482   0.743   2.673   6.210  0.6300  3.0794 -2.2152
 2852Sol     HW14483   0.611   2.738   6.173 -0.3257  0.2113 -3.9621
 2852Sol     MW14484   0.664   2.666   6.169 -0.3565  0.2164 -0.3114
 2853Sol     OW14485   2.087   2.972   8.838  0.6287  0.0139 -0.7327
 2853Sol     HW14486   2.172   2.992   8.798  1.1845 -0.0395  0.4222
 2853Sol     HW14487   2.076   2.878   8.826  1.0684 -0.1008 -0.2208
 2853Sol     MW14488   2.093   2.965   8.833 -0.0884  0.3152 -1.0792
 2854Sol     OW14489   2.669   1.966   6.954 -0.1953 -0.0850 -0.4236
 2854Sol     HW14490   2.581   1.928   6.958 -0.0592 -0.3501  0.3077
 2854Sol     HW14491   2.660   2.051   6.997 -0.2969  0.3052 -1.2132
 2854Sol     MW14492   2.660   1.970   6.958 -0.4232 -0.3652  0.5243
 2855Sol     OW14493   1.151   0.048   1.691 -0.2113 -0.2403 -0.7068
 2855Sol     HW14494   1.056   0.054   1.678 -0.4478 -0.1254  0.9511
 2855Sol     HW14495   1.161   0.033   1.785  1.4934  1.8732 -0.5250
 2855Sol     MW14496   1.143   0.047   1.699 -0.0507 -0.7027  0.0627
 2856Sol     OW14497   0.908   1.762   4.671  0.0938 -0.1441  0.3739
 2856Sol     HW14498   0.911   1.857   4.664 -1.5435 -0.1630 -0.6667
 2856Sol     HW14499   0.890   1.731   4.583  1.9658 -1.5123  0.4319
 2856Sol     MW14500   0.907   1.767   4.663 -0.2165 -0.5062 -0.1712
 2857Sol     OW14501   2.221   2.251   8.527 -0.2219  0.0783 -0.2543
 2857Sol     HW14502   2.160   2.291   8.465  0.2550 -0.4340 -1.0601
 2857Sol     HW14503   2.202   2.158   8.524  0.3963 -0.0515 -0.2869
 2857Sol     MW14504   2.214   2.247   8.521 -0.3255  0.0249 -0.2785
 2858Sol     OW14505   1.525   1.924   1.627  0.8202  0.0950  0.3313
 2858Sol     HW14506   1.533   2.018   1.646  1.9250  0.1018 -0.1797
 2858Sol     HW14507   1.615   1.891   1.628  0.3067 -1.3906  2.6810
 2858Sol     MW14508   1.533   1.929   1.629 -0.5238  0.2529  0.4726
 2859Sol     OW14509   0.954   1.052   3.982 -0.3548  0.0790 -0.1283
 2859Sol     HW14510   0.971   1.127   4.038  1.1270  0.3254 -0.8744
 2859Sol     HW14511   0.933   1.089   3.896 -1.3617 -0.3192 -0.0581
 2859Sol     MW14512   0.954   1.062   3.979 -0.1036 -0.1801  0.4983
 2860Sol     OW14513   0.933   1.994   5.444 -0.2896  0.2275 -0.0052
 2860Sol     HW14514   0.933   1.984   5.540  1.8286 -0.4014 -0.0579
 2860Sol     HW14515   0.934   2.089   5.431 -2.0061  0.3491  0.5694
 2860Sol     MW14516   0.933   2.002   5.452 -0.1251  0.9228  0.2196
 2861Sol     OW14517   1.272   2.591   9.252 -0.7704 -0.2896  0.5983
 2861Sol     HW14518   1.194   2.537   9.240 -0.6047 -0.7479  1.5102
 2861Sol     HW14519   1.287   2.591   9.347 -0.8411  1.4654  0.6391
 2861Sol     MW14520   1.266   2.587   9.260  0.1617  0.5913  0.6581
 2862Sol     OW14521   2.564   3.067   5.900  0.4294  0.3964  0.2591
 2862Sol     HW14522   2.509   3.097   5.972  1.0325  1.4322  0.2888
 2862Sol     HW14523   2.503   3.057   5.826 -0.3612 -1.6070  1.1480
 2862Sol     MW14524   2.553   3.069   5.900  0.1545  0.6647 -0.2757
 2863Sol     OW14525   0.723   0.284   9.349 -0.2548 -0.5868 -0.0173
 2863Sol     HW14526   0.796   0.236   9.389 -0.0427 -0.4413 -0.2269
 2863Sol     HW14527   0.682   0.220   9.291 -1.1480 -1.0868  1.1315
 2863Sol     MW14528   0.726   0.274   9.348  0.0412 -0.2163 -0.2644
 2864Sol     OW14529   0.894   0.690   1.578 -0.6505 -0.2235 -0.0621
 2864Sol     HW14530   0.856   0.660   1.661 -0.5543 -0.1810 -0.0019
 2864Sol     HW14531   0.919   0.781   1.595 -2.0965  0.2778 -0.6409
 2864Sol     MW14532   0.893   0.696   1.587 -0.2312 -0.2182  0.6674
 2865Sol     OW14533   2.428   0.370   2.673 -0.2873  0.2895  0.3103
 2865Sol     HW14534   2.407   0.369   2.766  0.0405  1.1873  0.3976
 2865Sol     HW14535   2.367   0.433   2.634 -1.6562 -1.4268 -0.3984
 2865Sol     MW14536   2.421   0.376   2.677  0.3366 -0.3274 -0.7106
 2866Sol     OW14537   1.947   0.822   2.930  0.0792  0.2942  0.3952
 2866Sol     HW14538   1.871   0.766   2.946 -0.7973  0.9978 -1.2513
 2866Sol     HW14539   1.998   0.776   2.863  0.5142  0.4052  0.6418
 2866Sol     MW14540   1.945   0.813   2.926 -0.4372 -0.3777 -0.4930
 2867Sol     OW14541   1.531   2.485   1.652  0.2019  0.2991  0.1928
 2867Sol     HW14542   1.580   2.500   1.571 -0.0492  0.4861  0.0716
 2867Sol     HW14543   1.576   2.413   1.695  0.3620  0.2261 -0.0964
 2867Sol     MW14544   1.539   2.480   1.649 -0.2998  0.9837  0.5744
 2868Sol     OW14545   2.122   2.997   5.952  0.2387  0.0703  0.1980
 2868Sol     HW14546   2.134   2.906   5.978  0.7555  0.1547  0.2615
 2868Sol     HW14547   2.204   3.020   5.908  0.4193  0.7337  0.8731
 2868Sol     MW14548   2.130   2.991   5.950  0.5357 -0.1878 -0.2458
 2869Sol     OW14549   1.580   1.848   8.453  0.3355 -0.2191  0.5467
 2869Sol     HW14550   1.674   1.863   8.444  0.2789 -0.2582 -0.1896
 2869Sol     HW14551   1.570   1.753   8.452  0.2622 -0.2106  0.2679
 2869Sol     MW14552   1.588   1.841   8.452  0.2822 -0.6188  0.1476
 2870Sol     OW14553   2.231   1.414   4.615 -0.0825 -0.0339  0.3793
 2870Sol     HW14554   2.201   1.332   4.653 -0.6207  0.3754  0.8600
 2870Sol     HW14555   2.316   1.430   4.656 -0.1820 -0.1314  0.6293
 2870Sol     MW14556   2.236   1.408   4.622  0.1669 -0.7141 -0.0777
 2871Sol     OW14557   3.099   2.555   9.105 -0.0365  0.3637  0.3018
 2871Sol     HW14558   3.082   2.470   9.146 -3.4778  0.5647 -0.5585
 2871Sol     HW14559   3.037   2.558   9.031  1.6816  2.6425 -1.0888
 2871Sol     MW14560   3.092   2.547   9.102  0.7346 -0.1360  0.3970
 2872Sol     OW14561   0.521   3.179   3.539  0.1431 -0.1299 -0.7354
 2872Sol     HW14562   0.546   3.146   3.625 -0.7129  1.7832  0.2670
 2872Sol     HW14563   0.596   3.232   3.511  0.4414 -0.7911 -1.1866
 2872Sol     MW14564   0.530   3.181   3.544  0.2495  0.0716 -0.4340
 2873Sol     OW14565   1.447   1.455   9.673 -0.1120  0.5819  0.0755
 2873Sol     HW14566   1.377   1.435   9.735  1.0418 -0.2708  1.1489
 2873Sol     HW14567   1.406   1.508   9.605 -1.7554  0.1884  0.7513
 2873Sol     MW14568   1.437   1.458   9.673 -0.2637 -0.1431  0.0333
 2874Sol     OW14569   0.968   2.785   9.095  0.0133  0.3437 -0.0404
 2874Sol     HW14570   1.046   2.833   9.067 -0.3761 -0.5876 -2.9526
 2874Sol     HW14571   0.899   2.814   9.035 -1.2564 -0.7247  0.8633
 2874Sol     MW14572   0.969   2.792   9.087 -0.2195  0.0370  0.1914
 2875Sol     OW14573   2.601   1.350   7.481 -0.1476  0.0065  0.3731
 2875Sol     HW14574   2.620   1.298   7.559  0.0325 -0.2568  0.1521
 2875Sol     HW14575   2.583   1.286   7.413  0.8421  0.2191 -0.0961
 2875Sol     MW14576   2.601   1.340   7.482 -0.1839 -0.0642 -0.3166
 2876Sol     OW14577   0.846   2.168   6.536 -0.0400 -0.2752 -0.0727
 2876Sol     HW14578   0.794   2.088   6.526  0.0837 -0.2751 -0.7717
 2876Sol     HW14579   0.835   2.193   6.628  1.3436 -2.0760  0.6195
 2876Sol     MW14580   0.840   2.163   6.543 -0.1584  0.3897  0.3682
 2877Sol     OW14581   1.093   3.436   4.851 -0.0327 -0.1515 -0.0462
 2877Sol     HW14582   1.102   3.438   4.946 -0.0755  0.5683 -0.0559
 2877Sol     HW14583   1.183   3.440   4.819 -0.1253  2.9471 -0.0760
 2877Sol     MW14584   1.102   3.437   4.857 -0.1068 -0.5237 -0.1179
 2878Sol     OW14585   0.873   3.381   4.670 -0.0397 -0.0793  0.0161
 2878Sol     HW14586   0.924   3.394   4.750  0.7347  1.1340 -0.6357
 2878Sol     HW14587   0.928   3.324   4.616 -0.4597 -0.7142  0.2569
 2878Sol     MW14588   0.883   3.377   4.672  0.2652  0.3939 -0.4203
 2879Sol     OW14589   1.614   2.149   5.372 -0.4393 -0.2593  0.3357
 2879Sol     HW14590   1.566   2.147   5.289 -0.3662  0.2117  0.2852
 2879Sol     HW14591   1.595   2.064   5.412 -0.5227 -0.4632 -0.1366
 2879Sol     MW14592   1.608   2.141   5.368  0.1733  0.2259  0.0459
 2880Sol     OW14593   1.310   1.422   7.933  0.0801  0.5500 -0.1012
 2880Sol     HW14594   1.375   1.391   7.996 -0.6022 -0.1039  0.2981
 2880Sol     HW14595   1.282   1.506   7.967 -1.0605 -0.2860  1.0633
 2880Sol     MW14596   1.313   1.427   7.942  0.0114  0.4224 -0.7921
 2881Sol     OW14597   2.084   2.768   6.882  0.4806  0.6550 -0.0648
 2881Sol     HW14598   2.151   2.836   6.878  0.3049  0.6858 -2.9372
 2881Sol     HW14599   2.133   2.686   6.888  0.7371  0.8156  0.0084
 2881Sol     MW14600   2.094   2.766   6.882  0.3927 -0.0400 -0.0327
 2882Sol     OW14601   3.051   2.867   7.403 -0.6008 -0.5261 -0.5047
 2882Sol     HW14602   3.069   2.832   7.490  2.8579  1.1579 -0.4761
 2882Sol     HW14603   3.107   2.816   7.345  0.7337  1.5263 -1.0786
 2882Sol     MW14604   3.057   2.859   7.406  0.3477 -0.1576  0.4431
 2883Sol     OW14605   0.258   1.805   2.166 -0.2160  0.5922  0.1067
 2883Sol     HW14606   0.170   1.830   2.194 -0.2946  0.8476 -0.3591
 2883Sol     HW14607   0.264   1.711   2.184 -0.1727  0.8025  1.2059
 2883Sol     MW14608   0.251   1.798   2.170  0.0873  0.2894 -0.2117
 2884Sol     OW14609   0.228   0.106   6.271  0.0530 -0.2013  0.0335
 2884Sol     HW14610   0.213   0.020   6.230 -0.1872  0.7633 -1.9508
 2884Sol     HW14611   0.144   0.129   6.311 -0.6222  0.1885 -1.5470
 2884Sol     MW14612   0.219   0.100   6.271 -0.3047  0.0147  0.0431
 2885Sol     OW14613   2.755   1.274   2.809 -0.1494  0.9938 -0.3863
 2885Sol     HW14614   2.739   1.242   2.898 -0.3384  0.6401 -0.5455
 2885Sol     HW14615   2.688   1.231   2.756  0.3833  0.6747 -0.8090
 2885Sol     MW14616   2.748   1.267   2.812 -0.6646 -0.2012  0.5046
 2886Sol     OW14617   2.029   3.111   9.615 -0.2730  0.0190  0.2881
 2886Sol     HW14618   2.071   3.114   9.529  0.6477  0.0707  0.7327
 2886Sol     HW14619   2.045   3.023   9.647  0.2084  0.2852  0.8018
 2886Sol     MW14620   2.035   3.104   9.611 -0.0818  0.2142  0.1824
 2887Sol     OW14621   1.075   2.887   1.937 -0.0208  0.1155  0.1678
 2887Sol     HW14622   1.136   2.843   1.996  1.2897  2.3325  0.5311
 2887Sol     HW14623   0.994   2.893   1.986 -0.2993 -2.1238 -0.0003
 2887Sol     MW14624   1.073   2.884   1.947 -0.1944  0.6674  0.1305
 2888Sol     OW14625   2.188   2.200   9.419  0.0456  0.4246  0.2740
 2888Sol     HW14626   2.248   2.274   9.423  1.0406 -0.3968  0.7669
 2888Sol     HW14627   2.154   2.202   9.329  0.9024  0.8349 -0.0508
 2888Sol     MW14628   2.190   2.207   9.411  0.5666  0.5610  0.3858
 2889Sol     OW14629   0.373   0.827   7.276  0.0343 -0.0177 -0.1032
 2889Sol     HW14630   0.454   0.834   7.328  1.4275  0.5690 -2.3108
 2889Sol     HW14631   0.358   0.915   7.243 -2.3049  0.1907  1.3864
 2889Sol     MW14632   0.379   0.835   7.278 -0.2316  0.6282 -0.0002
 2890Sol     OW14633   2.366   0.026   7.021 -0.3813 -0.5877  0.1174
 2890Sol     HW14634   2.299   0.094   7.033  1.8429  1.4801  1.4109
 2890Sol     HW14635   2.336  -0.047   7.074 -0.1466  1.4714  3.2435
 2890Sol     MW14636   2.358   0.026   7.027  0.2303 -0.4489  0.5014
 2891Sol     OW14637   0.337   0.491   7.114 -0.4241 -1.1011 -1.0822
 2891Sol     HW14638   0.302   0.418   7.166  0.5525 -0.2879  0.7759
 2891Sol     HW14639   0.274   0.562   7.127 -0.0429 -0.8136 -0.8202
 2891Sol     MW14640   0.328   0.491   7.120  0.3567  0.1800 -0.5099
 2892Sol     OW14641   0.102   2.600   1.953  0.4241 -0.3508  0.2718
 2892Sol     HW14642   0.184   2.551   1.954  0.3767 -0.4398  2.8128
 2892Sol     HW14643   0.127   2.689   1.980 -0.1455 -0.1059  0.0028
 2892Sol     MW14644   0.112   2.604   1.955  0.1502  0.7399  0.0884
 2893Sol     OW14645   2.907   2.790   8.194 -0.4199  0.5344  0.1923
 2893Sol     HW14646   2.857   2.807   8.273  1.5494  0.3311  1.4994
 2893Sol     HW14647   2.998   2.786   8.223  0.4202  1.3699 -2.2118
 2893Sol     MW14648   2.910   2.792   8.203  0.1458 -0.5921 -0.1570
 2894Sol     OW14649   2.782   0.972   1.845 -0.0424  0.1050 -0.2565
 2894Sol     HW14650   2.693   1.003   1.862 -0.0952  0.9675 -1.9441
 2894Sol     HW14651   2.821   1.041   1.792  1.4190 -0.5818 -0.0938
 2894Sol     MW14652   2.777   0.981   1.842 -0.2232  0.0068 -0.3149
 2895Sol     OW14653   2.303   3.046   5.414 -0.6872 -0.5688  0.3834
 2895Sol     HW14654   2.261   3.127   5.385  0.3441  0.2838  1.1814
 2895Sol     HW14655   2.263   2.977   5.362 -0.9950  0.5653 -0.8955
 2895Sol     MW14656   2.296   3.047   5.407  0.2210  0.1098 -0.1925
 2896Sol     OW14657   0.390   2.258   7.203  0.4639  0.0399 -0.0895
 2896Sol     HW14658   0.437   2.265   7.286  1.4718 -0.7640 -0.5807
 2896Sol     HW14659   0.299   2.242   7.229  0.4373  1.6442  0.8699
 2896Sol     MW14660   0.386   2.257   7.213  0.1719 -0.1846 -0.5204
 2897Sol     OW14661   1.821   1.382   7.506  0.2878 -0.1811 -0.2160
 2897Sol     HW14662   1.856   1.460   7.549 -0.8239 -0.1070  0.5586
 2897Sol     HW14663   1.726   1.394   7.506  0.1651 -1.0548 -1.0217
 2897Sol     MW14664   1.816   1.390   7.509 -0.3699  0.5087  0.2538
 2898Sol     OW14665   1.993   0.235   6.380 -0.0591 -0.2546 -0.0401
 2898Sol     HW14666   2.007   0.141   6.371 -0.8011 -0.3667  0.0078
 2898Sol     HW14667   1.902   0.244   6.407  0.1288  0.4565  0.3697
 2898Sol     MW14668   1.986   0.228   6.382 -0.0572 -0.2185 -0.3659
 2899Sol     OW14669   0.144   1.184   3.692 -0.0235 -0.0143 -0.7139
 2899Sol     HW14670   0.143   1.160   3.784  2.1054  2.4541  0.0063
 2899Sol     HW14671   0.058   1.224   3.677 -0.5693 -0.8858  0.0577
 2899Sol     MW14672   0.136   1.185   3.699 -0.2482 -0.1535 -0.3324
 2900Sol     OW14673   2.413   0.899   8.736 -0.5802  0.2412  0.3824
 2900Sol     HW14674   2.415   0.949   8.818 -2.3189  0.1672  0.4898
 2900Sol     HW14675   2.321   0.873   8.726 -0.4841  0.6694 -1.8457
 2900Sol     MW14676   2.405   0.901   8.742  0.1694  0.4855 -0.1603
 2901Sol     OW14677   0.980   1.081   9.891  0.1374  0.7557  0.0143
 2901Sol     HW14678   0.904   1.053   9.840  0.0512  0.6785  0.1827
 2901Sol     HW14679   0.942   1.112   9.974  0.1760  1.8575 -0.3597
 2901Sol     MW14680   0.969   1.082   9.894  0.0031  0.0784 -0.1997
 2902Sol     OW14681   2.641   3.334   1.964 -0.6186  0.1129  0.0710
 2902Sol     HW14682   2.574   3.319   1.897  0.1452 -1.8580 -0.2866
 2902Sol     HW14683   2.656   3.429   1.962 -1.2808  0.2002 -1.8891
 2902Sol     MW14684   2.636   3.341   1.958 -0.3331  0.0291  0.4748
 2903Sol     OW14685   2.163   1.063   1.844  0.0879  0.5481  0.1406
 2903Sol     HW14686   2.134   1.104   1.926  2.3311  0.9372  0.7602
 2903Sol     HW14687   2.248   1.025   1.865 -0.2656 -1.1477 -1.4730
 2903Sol     MW14688   2.168   1.064   1.853  0.2645 -0.0416  0.0485
 2904Sol     OW14689   0.321   3.064   3.389 -0.1867  0.1424  0.4727
 2904Sol     HW14690   0.279   3.148   3.370 -2.7125 -1.3493 -0.7510
 2904Sol     HW14691   0.394   3.086   3.447  0.0350  3.3417 -0.9272
 2904Sol     MW14692   0.324   3.074   3.392 -0.3270  0.0159 -0.6857
 2905Sol     OW14693   0.905   1.212   7.995 -0.6097  0.2730 -0.0630
 2905Sol     HW14694   0.920   1.252   8.080  0.5785 -0.1883 -0.0442
 2905Sol     HW14695   0.992   1.180   7.968 -1.2983 -1.1504 -0.6395
 2905Sol     MW14696   0.915   1.213   8.000  0.1623 -0.3430 -0.1515
 2906Sol     OW14697   2.704   2.914   1.744  0.2266  0.0095  0.3657
 2906Sol     HW14698   2.717   2.828   1.704  0.3493 -1.0078  2.5397
 2906Sol     HW14699   2.610   2.929   1.737  0.2151 -0.2475 -0.0994
 2906Sol     MW14700   2.697   2.908   1.739 -0.5478 -0.1381 -0.2653
 2907Sol     OW14701   3.103   2.962   3.247  0.2075  0.2915  0.5006
 2907Sol     HW14702   3.120   2.944   3.340 -0.4298  1.0638  0.7738
 2907Sol     HW14703   3.190   2.974   3.209  0.5418 -1.2252  0.7415
 2907Sol     MW14704   3.113   2.962   3.252 -0.2250 -0.4394 -0.5068
 2908Sol     OW14705   0.517   3.075   2.385 -0.0096 -0.2024  0.4022
 2908Sol     HW14706   0.517   3.114   2.298  1.6943 -1.4303 -0.1876
 2908Sol     HW14707   0.549   3.145   2.443  1.2752 -0.1303 -0.3632
 2908Sol     MW14708   0.520   3.085   2.383  0.0715 -0.0935 -0.3751
 2909Sol     OW14709   0.724   0.557   7.151 -0.0741 -0.8448  0.0022
 2909Sol     HW14710   0.747   0.650   7.150 -0.2887 -0.7774 -1.7959
 2909Sol     HW14711   0.673   0.545   7.231 -0.3529  0.6694  0.0687
 2909Sol     MW14712   0.721   0.564   7.158 -0.2375 -0.0964 -0.1405
 2910Sol     OW14713   0.848   1.910   8.243 -0.0220 -0.6107 -0.2186
 2910Sol     HW14714   0.755   1.888   8.246  0.1886 -1.5996 -0.7492
 2910Sol     HW14715   0.880   1.890   8.330 -0.3588  0.0208  0.0599
 2910Sol     MW14716   0.842   1.906   8.251 -0.0323 -0.4624 -0.4068
 2911Sol     OW14717   0.568   0.166   2.809 -0.0909 -0.1368  0.1250
 2911Sol     HW14718   0.508   0.240   2.800  2.0539  1.2495 -3.5645
 2911Sol     HW14719   0.515   0.089   2.789 -1.1330  0.8911 -1.1186
 2911Sol     MW14720   0.558   0.165   2.807 -0.2966  0.0090 -0.0794
 2912Sol     OW14721   2.275   2.810   4.983  0.3582  0.7139 -0.1926
 2912Sol     HW14722   2.273   2.836   4.891  0.0833  1.4203  0.0034
 2912Sol     HW14723   2.362   2.837   5.013 -0.4222  2.7254  0.3645
 2912Sol     MW14724   2.282   2.815   4.978 -0.5030  0.5702 -0.4511
 2913Sol     OW14725   2.989   1.344   2.374  0.0845 -0.3587  0.0254
 2913Sol     HW14726   2.904   1.381   2.349 -0.8645 -1.9149  0.9440
 2913Sol     HW14727   3.037   1.340   2.291 -0.6606  0.6741 -0.4803
 2913Sol     MW14728   2.986   1.347   2.364  0.2876 -0.2527 -0.4600
 2914Sol     OW14729   2.090   1.968   3.660  0.7205 -0.0147 -0.2116
 2914Sol     HW14730   2.006   1.956   3.704  0.6834 -0.5418 -0.4271
 2914Sol     HW14731   2.074   1.942   3.570  1.4154 -1.2414  0.0117
 2914Sol     MW14732   2.081   1.965   3.656 -0.2377 -0.1985 -0.0478
 2915Sol     OW14733   0.836   2.442   9.857 -0.2338 -0.5821  0.5866
 2915Sol     HW14734   0.928   2.468   9.856 -0.0774 -1.1300 -0.0636
 2915Sol     HW14735   0.822   2.401   9.771 -1.1983 -0.1138  0.5131
 2915Sol     MW14736   0.843   2.440   9.849 -0.2938  0.0448 -0.1485
 2916Sol     OW14737   2.362   0.040   8.262  0.0346  0.7797 -0.2997
 2916Sol     HW14738   2.410  -0.021   8.205 -0.2442  1.5238 -1.3341
 2916Sol     HW14739   2.272   0.036   8.232 -0.5695 -0.5449  1.5889
 2916Sol     MW14740   2.359   0.034   8.255 -0.4744  0.1853 -0.8425
 2917Sol     OW14741   1.305   0.730   9.515 -0.4571  0.4559 -0.1365
 2917Sol     HW14742   1.381   0.770   9.557  0.6392 -0.9857 -0.7026
 2917Sol     HW14743   1.316   0.751   9.422 -1.7867  1.8850  0.0081
 2917Sol     MW14744   1.313   0.735   9.510  0.7403 -0.3196 -0.2046
 2918Sol     OW14745   3.107   3.250   6.196 -0.2512 -0.1574 -0.1850
 2918Sol     HW14746   3.014   3.246   6.219 -0.5771  1.8467 -1.0600
 2918Sol     HW14747   3.146   3.309   6.261  0.1777 -0.0202 -0.5621
 2918Sol     MW14748   3.102   3.255   6.204  0.1456 -0.2529  0.4664
 2919Sol     OW14749   1.522   0.482   9.307  0.4173  1.0663  0.2348
 2919Sol     HW14750   1.432   0.455   9.293  0.2146  0.7958  1.9275
 2919Sol     HW14751   1.567   0.463   9.225 -1.3432  2.4049 -1.0670
 2919Sol     MW14752   1.518   0.478   9.299 -0.6409 -0.4963 -0.4547
 2920Sol     OW14753   2.914   0.521   2.731  0.0403 -0.1478  0.1516
 2920Sol     HW14754   2.879   0.433   2.744 -0.6134  0.2787  1.3747
 2920Sol     HW14755   2.987   0.527   2.793 -0.7668  0.6223  1.0590
 2920Sol     MW14756   2.917   0.514   2.738  0.0818  0.5441  0.0699
 2921Sol     OW14757   2.536   3.042   8.534 -0.6739  0.0348 -0.6395
 2921Sol     HW14758   2.620   3.019   8.572 -1.4949 -1.6881  0.2089
 2921Sol     HW14759   2.542   3.013   8.443  0.3880  1.8446 -1.1614
 2921Sol     MW14760   2.544   3.037   8.529 -0.0134 -0.2310 -0.6327
 2922Sol     OW14761   3.191   2.619   3.511 -0.2771  0.0144  0.2483
 2922Sol     HW14762   3.114   2.590   3.559 -0.3592 -3.2356 -1.7422
 2922Sol     HW14763   3.165   2.615   3.419  1.6015  0.9501 -0.3410
 2922Sol     MW14764   3.182   2.616   3.507 -0.3286  0.2282  0.1449
 2923Sol     OW14765   1.089   0.637   3.740 -0.1638  0.2846 -0.2937
 2923Sol     HW14766   1.097   0.721   3.787  0.0287  1.4783 -2.4128
 2923Sol     HW14767   1.178   0.618   3.710  0.1390 -1.5997  1.6330
 2923Sol     MW14768   1.098   0.643   3.742 -0.0429 -0.4172 -0.0778
 2924Sol     OW14769   0.603   1.188   6.098 -0.1179 -0.0848  0.7045
 2924Sol     HW14770   0.517   1.145   6.101 -0.1040 -0.0971  1.0443
 2924Sol     HW14771   0.583   1.282   6.099 -0.1598 -0.0744 -0.4368
 2924Sol     MW14772   0.594   1.193   6.099  0.1129  0.1949 -0.2435
 2925Sol     OW14773   1.951   3.130   3.163 -0.0418 -0.0009  0.2090
 2925Sol     HW14774   1.961   3.113   3.069  1.1537 -0.8617  0.4718
 2925Sol     HW14775   1.857   3.124   3.179 -0.2236 -0.2078 -0.8726
 2925Sol     MW14776   1.944   3.128   3.156  0.0195  0.0027 -0.2469
 2926Sol     OW14777   2.700   0.273   9.707 -0.1626  0.0171  0.3980
 2926Sol     HW14778   2.649   0.227   9.774  0.3172 -2.6995 -1.0775
 2926Sol     HW14779   2.785   0.289   9.748 -0.6169  0.4002  1.2079
 2926Sol     MW14780   2.703   0.270   9.717 -0.2316  0.3164  0.1693
 2927Sol     OW14781   2.001   1.200   7.694  0.3254  0.1601 -0.3361
 2927Sol     HW14782   1.942   1.240   7.631 -0.9551  1.8721  1.8676
 2927Sol     HW14783   1.953   1.122   7.725  1.6151 -1.5712 -2.5488
 2927Sol     MW14784   1.991   1.196   7.691 -0.4817 -0.0377 -0.1847
 2928Sol     OW14785   1.950   3.277   8.264 -0.2615 -0.4207 -0.4114
 2928Sol     HW14786   1.890   3.270   8.338 -1.2701 -1.0744 -1.2609
 2928Sol     HW14787   1.966   3.186   8.239 -0.5614 -0.1886 -1.4745
 2928Sol     MW14788   1.946   3.268   8.268  0.4367 -0.4326 -0.1970
 2929Sol     OW14789   0.471   2.804   4.414  0.3454 -0.3647 -0.4420
 2929Sol     HW14790   0.418   2.729   4.389  0.1561  0.0996 -1.4448
 2929Sol     HW14791   0.560   2.770   4.419 -0.0729 -1.2585  1.7048
 2929Sol     MW14792   0.474   2.795   4.413  0.1353 -0.2552 -0.0362
 2930Sol     OW14793   1.151   3.093   8.040  0.0952 -0.6340 -0.3036
 2930Sol     HW14794   1.074   3.083   7.984  1.1512 -1.9625 -1.5621
 2930Sol     HW14795   1.117   3.132   8.120 -1.4448  1.3872 -1.8803
 2930Sol     MW14796   1.141   3.095   8.042  0.1018 -0.1464 -0.4680
 2931Sol     OW14797   2.685   1.347   7.107  0.2048 -0.3978  0.3106
 2931Sol     HW14798   2.720   1.388   7.186  0.6726  0.1827 -0.1978
 2931Sol     HW14799   2.702   1.410   7.037  0.2855 -1.1434 -0.3500
 2931Sol     MW14800   2.689   1.356   7.108  0.2928  0.2793  0.3293
 2932Sol     OW14801   1.737   0.259   6.407  0.0586  0.2328 -0.0225
 2932Sol     HW14802   1.683   0.241   6.330  0.6592  1.2754 -0.6983
 2932Sol     HW14803   1.701   0.340   6.443  0.8329  0.6501 -0.1784
 2932Sol     MW14804   1.729   0.265   6.403 -0.3988  0.1326 -0.7674
 2933Sol     OW14805   1.270   2.573   7.654  0.0135  0.4892  0.5771
 2933Sol     HW14806   1.335   2.641   7.639 -1.2907  1.8538  0.9568
 2933Sol     HW14807   1.190   2.606   7.613 -0.4537 -1.1612  0.0957
 2933Sol     MW14808   1.269   2.582   7.649 -0.0694 -0.5978 -0.1559
 2934Sol     OW14809   0.689   1.072   9.227  0.4303 -0.0642 -0.2122
 2934Sol     HW14810   0.628   1.076   9.301 -0.7733  0.1487 -1.1915
 2934Sol     HW14811   0.722   1.161   9.219 -0.8807  0.3742 -1.0777
 2934Sol     MW14812   0.686   1.081   9.233 -0.2498  0.4813  0.2776
 2935Sol     OW14813   1.843   1.048   8.952  0.0454 -0.2284 -0.3537
 2935Sol     HW14814   1.801   1.126   8.915  1.9880  0.3302 -1.4524
 2935Sol     HW14815   1.782   0.977   8.933 -0.9911  0.7595 -0.7923
 2935Sol     MW14816   1.834   1.049   8.947 -0.4397 -0.0470  0.2936
 2936Sol     OW14817   3.266   3.135   7.393 -1.1554 -0.0247  0.0146
 2936Sol     HW14818   3.283   3.093   7.477 -0.4033 -2.5566 -1.3687
 2936Sol     HW14819   3.173   3.117   7.376 -0.9406 -0.7801 -0.3759
 2936Sol     MW14820   3.259   3.130   7.399  0.9862  0.1280 -0.1302
 2937Sol     OW14821   1.000   3.282   5.736  0.2784  0.1154  0.1823
 2937Sol     HW14822   1.080   3.333   5.751  0.0328  1.2005 -2.0409
 2937Sol     HW14823   0.929   3.341   5.758  0.0022  0.6127 -1.9903
 2937Sol     MW14824   1.001   3.292   5.740 -0.3444 -0.2144 -0.3901
 2938Sol     OW14825   0.392   0.076   5.142  0.4221 -0.0396 -0.0866
 2938Sol     HW14826   0.364   0.009   5.204 -0.1563  1.7971  1.6713
 2938Sol     HW14827   0.477   0.106   5.175 -0.6355  2.0996  0.8077
 2938Sol     MW14828   0.397   0.073   5.150 -0.4537  0.3508 -0.4948
 2939Sol     OW14829   2.718   2.924   5.629  0.1940 -0.0149  0.1956
 2939Sol     HW14830   2.801   2.969   5.643  0.8526 -1.2789  0.4170
 2939Sol     HW14831   2.718   2.904   5.535 -1.0666  2.2964 -0.3364
 2939Sol     MW14832   2.726   2.926   5.622 -0.9775 -0.3044 -0.3139
 2940Sol     OW14833   0.568   2.563   1.818 -0.1601 -0.1873  0.1017
 2940Sol     HW14834   0.554   2.640   1.873  0.7196 -0.0942  0.1988
 2940Sol     HW14835   0.523   2.584   1.736  1.3482  1.0658 -0.4267
 2940Sol     MW14836   0.562   2.572   1.816  0.3969 -0.1207  0.1471
 2941Sol     OW14837   0.950   2.999   6.195  0.4513  0.6908  0.3626
 2941Sol     HW14838   1.006   2.995   6.117  1.4305  1.2823  1.0294
 2941Sol     HW14839   1.005   3.040   6.262 -0.3388  0.0698  1.4039
 2941Sol     MW14840   0.960   3.002   6.194  0.5131 -0.0286 -0.1557
 2942Sol     OW14841   1.543   3.098   4.581  0.2586  0.4077  0.3705
 2942Sol     HW14842   1.514   3.017   4.624 -0.5398  0.2721 -0.4092
 2942Sol     HW14843   1.468   3.126   4.529  0.9649  0.9810 -0.3570
 2942Sol     MW14844   1.533   3.094   4.580 -0.0476  0.4817 -0.1578
 2943Sol     OW14845   2.173   0.983   4.225 -0.6590 -0.1988  0.0366
 2943Sol     HW14846   2.262   1.018   4.219 -1.5272  2.0493 -0.3247
 2943Sol     HW14847   2.147   0.971   4.134 -1.1966  0.4373  0.1016
 2943Sol     MW14848   2.179   0.985   4.216 -0.1629 -0.2486 -0.5958
 2944Sol     OW14849   0.273   2.766   4.019 -0.3012 -0.3233  0.4672
 2944Sol     HW14850   0.177   2.775   4.021 -0.3795 -1.0481  0.1857
 2944Sol     HW14851   0.299   2.806   3.936 -0.3647 -0.1895  0.5107
 2944Sol     MW14852   0.267   2.770   4.012 -0.2054 -0.4480 -0.3853
 2945Sol     OW14853   0.275   0.130   8.979  0.6009 -0.0668 -0.1332
 2945Sol     HW14854   0.244   0.135   8.888  2.1241  0.1479 -0.6470
 2945Sol     HW14855   0.291   0.221   9.003  0.6642 -0.1662  0.1940
 2945Sol     MW14856   0.274   0.139   8.973  0.0009 -0.3722 -0.1317
 2946Sol     OW14857   1.190   1.336   5.983  0.0296  0.2430 -0.5294
 2946Sol     HW14858   1.213   1.417   5.937  2.0843  0.0116  0.0611
 2946Sol     HW14859   1.179   1.363   6.074 -1.7087  0.2619 -0.7098
 2946Sol     MW14860   1.191   1.346   5.987 -0.2938  0.6015  0.3172
 2947Sol     OW14861   2.340   2.924   6.832 -0.3689 -0.1597 -0.3321
 2947Sol     HW14862   2.331   2.913   6.737  1.6172  0.3930 -0.5862
 2947Sol     HW14863   2.422   2.880   6.854 -1.3158 -1.1750  1.2984
 2947Sol     MW14864   2.346   2.919   6.825  0.2183  0.1038 -0.2050
 2948Sol     OW14865   1.484   1.133   6.425  0.1864 -0.2316 -0.2814
 2948Sol     HW14866   1.506   1.161   6.336 -1.2303  0.9963 -0.2740
 2948Sol     HW14867   1.389   1.122   6.424  0.1587 -0.2661  1.0685
 2948Sol     MW14868   1.477   1.135   6.417  0.5804 -0.4819 -0.8028
 2949Sol     OW14869   0.385   0.006   8.599 -0.1301 -0.3813 -0.4718
 2949Sol     HW14870   0.332   0.084   8.584  0.8600  0.4648  0.3400
 2949Sol     HW14871   0.443   0.029   8.671  1.2558 -1.3294 -1.2386
 2949Sol     MW14872   0.385   0.015   8.604  0.0594 -0.2386 -0.2265
 2950Sol     OW14873   3.112   1.958   3.547 -0.0937  0.0502  0.2568
 2950Sol     HW14874   3.035   2.015   3.555 -0.3885 -0.3420  0.2673
 2950Sol     HW14875   3.158   1.989   3.470 -0.8768 -0.4349 -0.4106
 2950Sol     MW14876   3.109   1.966   3.541  0.1700 -0.3821  0.1528
 2951Sol     OW14877   0.530   1.176   7.133 -0.6534  0.0106  0.4865
 2951Sol     HW14878   0.446   1.131   7.138  0.0163 -1.3760 -0.2591
 2951Sol     HW14879   0.534   1.208   7.042  1.1110 -2.9880 -0.5525
 2951Sol     MW14880   0.523   1.175   7.125 -0.3540 -0.4929  0.4923
 2952Sol     OW14881   0.846   1.739   3.716  0.2060 -0.6204  0.1466
 2952Sol     HW14882   0.883   1.699   3.636 -0.7534  1.5308 -1.4195
 2952Sol     HW14883   0.756   1.761   3.692  0.1171  0.6898  1.6141
 2952Sol     MW14884   0.841   1.737   3.706 -0.1846  0.9984 -0.1259
 2953Sol     OW14885   3.249   3.384   6.580 -0.1342 -0.2877  0.3911
 2953Sol     HW14886   3.231   3.397   6.673  0.4909  0.4723  0.4110
 2953Sol     HW14887   3.328   3.435   6.563 -0.6435  0.1759 -0.7151
 2953Sol     MW14888   3.254   3.390   6.586 -0.5573  0.0435  0.7114
 2954Sol     OW14889   0.852   0.493   1.396  0.2243 -0.8697  0.1044
 2954Sol     HW14890   0.815   0.542   1.322  0.5277  0.9119  1.1121
 2954Sol     HW14891   0.875   0.560   1.460  0.5156 -2.3606  1.5804
 2954Sol     MW14892   0.851   0.504   1.395  0.1051 -0.0073  0.1087
 2955Sol     OW14893   1.419   1.703   8.123  0.4055  0.3378  0.0105
 2955Sol     HW14894   1.361   1.776   8.100  1.7001  0.7524 -2.0774
 2955Sol     HW14895   1.506   1.733   8.098  1.1813 -1.3063  0.6624
 2955Sol     MW14896   1.421   1.712   8.119 -0.1061 -0.5720  0.3189
 2956Sol     OW14897   2.448   1.319   5.738  0.0975 -0.2127 -0.0724
 2956Sol     HW14898   2.525   1.363   5.703  0.1303 -0.7378 -0.6557
 2956Sol     HW14899   2.472   1.296   5.828  0.4429  0.0439 -0.0997
 2956Sol     MW14900   2.457   1.321   5.743 -0.4349 -0.0655 -0.3626
 2957Sol     OW14901   0.276   1.083   6.863 -0.1090  0.4317  0.0763
 2957Sol     HW14902   0.338   1.152   6.838  0.4026  0.2714  0.8793
 2957Sol     HW14903   0.310   1.004   6.821  0.1528  0.3696  0.4076
 2957Sol     MW14904   0.285   1.082   6.857 -0.1484  0.5291  0.4442
 2958Sol     OW14905   1.817   3.082   2.468 -0.3110 -0.1341  0.1604
 2958Sol     HW14906   1.721   3.083   2.469 -0.3362  0.5623  3.0478
 2958Sol     HW14907   1.841   3.029   2.545  1.6091  2.2647  1.2664
 2958Sol     MW14908   1.811   3.077   2.475 -0.0382  0.1545 -0.1909
 2959Sol     OW14909   2.815   0.431   5.923  0.3606  0.0640 -0.2203
 2959Sol     HW14910   2.894   0.403   5.969  0.3352  2.2040  1.2048
 2959Sol     HW14911   2.812   0.525   5.937 -1.3325  0.2973 -2.0447
 2959Sol     MW14912   2.822   0.437   5.929  0.0120 -0.0276 -0.0830
 2960Sol     OW14913   3.300   0.255   4.938  0.1524  0.1522  0.1892
 2960Sol     HW14914   3.295   0.228   4.846  1.6733  1.8914 -0.4146
 2960Sol     HW14915   3.393   0.259   4.957 -0.1100  1.8074  1.2034
 2960Sol     MW14916   3.308   0.253   4.931  0.2359  0.1780 -0.3158
 2961Sol     OW14917   2.325   0.559   4.378 -0.5866 -0.1933  0.5176
 2961Sol     HW14918   2.245   0.512   4.354  0.1997 -1.6484  0.7201
 2961Sol     HW14919   2.340   0.619   4.304 -1.1517 -0.8209 -0.1190
 2961Sol     MW14920   2.319   0.561   4.369  0.2531  0.4240 -0.4914
 2962Sol     OW14921   2.215   2.815   5.608 -0.1085  0.1879 -0.1041
 2962Sol     HW14922   2.265   2.782   5.682  0.4488 -0.8494 -0.9186
 2962Sol     HW14923   2.267   2.790   5.531 -1.9362 -1.0520 -0.9722
 2962Sol     MW14924   2.224   2.810   5.608 -0.0464 -0.2222 -0.0977
 2963Sol     OW14925   0.497   2.874   6.207 -1.2058  0.0818 -0.6533
 2963Sol     HW14926   0.436   2.910   6.271 -0.5297  1.4553 -0.7526
 2963Sol     HW14927   0.524   2.950   6.154  0.8470 -0.4202 -0.3713
 2963Sol     MW14928   0.494   2.884   6.208  0.9646  0.3759  0.3302
 2964Sol     OW14929   2.266   1.064   3.744 -0.2811 -0.6979 -0.5395
 2964Sol     HW14930   2.342   1.040   3.692  0.0142 -2.6339  0.7273
 2964Sol     HW14931   2.282   1.155   3.770  1.2949 -0.8929 -0.8034
 2964Sol     MW14932   2.274   1.070   3.742  0.1241 -0.2489  0.2131
 2965Sol     OW14933   0.925   3.142   9.733 -0.5790 -0.3464 -0.5728
 2965Sol     HW14934   0.890   3.228   9.754 -0.1329 -0.1827 -0.5018
 2965Sol     HW14935   0.862   3.080   9.770  0.2308 -0.0739  1.3294
 2965Sol     MW14936   0.916   3.144   9.738  0.4584  0.6557  0.2717
 2966Sol     OW14937   0.919   1.390   4.421  0.9736  0.1304  0.0034
 2966Sol     HW14938   0.963   1.473   4.439 -0.8404  1.1162  0.0105
 2966Sol     HW14939   0.935   1.374   4.328  0.5823  0.9488 -0.2126
 2966Sol     MW14940   0.925   1.396   4.415 -0.2665 -0.4862 -0.1511
 2967Sol     OW14941   0.631   2.088   3.799  0.6850 -0.2040  0.0290
 2967Sol     HW14942   0.595   2.176   3.788 -3.3555 -1.8636 -1.1396
 2967Sol     HW14943   0.605   2.063   3.888  1.5111 -0.3451  0.2322
 2967Sol     MW14944   0.625   2.094   3.806 -0.1308  0.1098  0.7814
 2968Sol     OW14945   1.932   0.617   9.073 -0.2593 -0.5302 -0.0019
 2968Sol     HW14946   1.971   0.532   9.090  1.5087  0.0908 -0.8520
 2968Sol     HW14947   1.976   0.677   9.133  0.3208  0.2310 -1.1654
 2968Sol     MW14948   1.939   0.615   9.080 -0.0290 -0.2037 -0.2661
 2969Sol     OW14949   0.425   2.470   2.562 -0.4683 -0.5353 -0.8830
 2969Sol     HW14950   0.407   2.413   2.637  0.6143 -0.5653 -0.6306
 2969Sol     HW14951   0.378   2.550   2.581  2.8058  0.8945  1.7201
 2969Sol     MW14952   0.419   2.472   2.571 -0.3470 -0.4652 -0.0407
 2970Sol     OW14953   0.043   1.940   2.281 -0.6146  0.0619  0.4455
 2970Sol     HW14954   0.091   2.012   2.239 -0.5032  0.5099  1.3334
 2970Sol     HW14955  -0.049   1.960   2.263 -0.6981  1.4314  2.2328
 2970Sol     MW14956   0.039   1.949   2.276  0.0388  0.4051 -0.8675
 2971Sol     OW14957   0.159   1.162   3.950 -0.4798 -0.1560 -0.0612
 2971Sol     HW14958   0.167   1.136   4.042  0.5442  0.1444 -0.0549
 2971Sol     HW14959   0.180   1.255   3.950  1.1335 -0.5030 -0.8083
 2971Sol     MW14960   0.162   1.168   3.959 -0.0252 -0.1381  0.0086
 2972Sol     OW14961   1.394   1.774   8.994  0.1554 -0.3479  0.2572
 2972Sol     HW14962   1.405   1.866   8.970  0.0767 -0.2960  0.4194
 2972Sol     HW14963   1.428   1.769   9.084 -0.1306 -0.4143  0.3605
 2972Sol     MW14964   1.398   1.782   9.000 -0.1187  0.1284  0.3037
 2973Sol     OW14965   2.897   3.059   4.675 -0.0316 -0.4168  0.0627
 2973Sol     HW14966   2.843   3.133   4.703  0.5824  0.3382 -0.7382
 2973Sol     HW14967   2.834   2.991   4.652 -0.5671 -1.2396  3.6952
 2973Sol     MW14968   2.887   3.059   4.675  0.4745  0.0072 -0.0613
 2974Sol     OW14969   2.733   0.374   8.649  0.1980 -0.6264 -0.7898
 2974Sol     HW14970   2.763   0.463   8.632 -0.9217 -0.1098 -0.0911
 2974Sol     HW14971   2.771   0.351   8.734  0.6402 -0.8912 -1.0549
 2974Sol     MW14972   2.739   0.380   8.655  0.2340 -0.3294 -0.6765
 2975Sol     OW14973   0.221   2.672   2.555  0.2302  0.0678  0.8110
 2975Sol     HW14974   0.199   2.581   2.578 -0.2606  0.3710  1.5886
 2975Sol     HW14975   0.225   2.672   2.460  0.8418 -0.9121  0.8275
 2975Sol     MW14976   0.219   2.664   2.549  0.1664  1.1644 -0.3516
 2976Sol     OW14977   2.320   1.489   6.712  0.1580 -1.0160  0.0925
 2976Sol     HW14978   2.377   1.487   6.789  0.4326  0.8714 -0.0202
 2976Sol     HW14979   2.249   1.548   6.736 -0.9501 -2.1544 -0.3273
 2976Sol     MW14980   2.319   1.494   6.721 -0.0258 -1.0531  0.2938
 2977Sol     OW14981   1.824   1.978   2.969  0.3456 -0.4743  0.0082
 2977Sol     HW14982   1.830   1.973   3.064 -1.6246  2.4335  0.3519
 2977Sol     HW14983   1.836   2.071   2.949  0.6099 -1.0328 -2.5705
 2977Sol     MW14984   1.826   1.986   2.976  0.8345  0.4145  0.0753
 2978Sol     OW14985   1.414   0.704   4.863  0.7051 -0.0949 -0.2367
 2978Sol     HW14986   1.382   0.760   4.935  2.0274 -1.2424  1.2955
 2978Sol     HW14987   1.343   0.704   4.799 -0.3597  1.2656  0.9037
 2978Sol     MW14988   1.404   0.709   4.864  0.3251  0.6534  0.8653
 2979Sol     OW14989   0.178   2.727   2.269  0.2828  0.3152 -0.4384
 2979Sol     HW14990   0.183   2.796   2.202 -1.3990  0.2345 -0.6765
 2979Sol     HW14991   0.084   2.718   2.287  0.4984 -1.8159 -0.2886
 2979Sol     MW14992   0.170   2.733   2.265  0.0963  0.2029  0.3261
 2980Sol     OW14993   1.017   1.324   2.425 -0.3742 -0.4458  0.6059
 2980Sol     HW14994   1.095   1.277   2.395  0.1031  0.2138  0.8146
 2980Sol     HW14995   1.001   1.390   2.357  0.0402  0.2996  1.2276
 2980Sol     MW14996   1.023   1.325   2.416  0.4437 -0.3835  0.5851
 2981Sol     OW14997   0.772   1.764   7.242 -0.1929  0.2182  0.0835
 2981Sol     HW14998   0.713   1.833   7.210  1.3891  1.1489 -0.8803
 2981Sol     HW14999   0.755   1.690   7.184 -0.9029  0.2515  0.2433
 2981Sol     MW15000   0.765   1.764   7.234  0.1653 -0.2279  0.0301
 2982Sol     OW15001   1.045   1.649   4.422  0.4261 -0.7759 -0.6067
 2982Sol     HW15002   1.127   1.670   4.468 -0.2916 -0.3612  0.4960
 2982Sol     HW15003   1.042   1.711   4.349  0.0171  0.6779  0.6317
 2982Sol     MW15004   1.052   1.656   4.420  0.3147  0.1702 -0.3474
 2983Sol     OW15005   2.788   0.811   9.807  0.1589 -0.2104 -0.0911
 2983Sol     HW15006   2.873   0.788   9.846 -0.0278  0.3957  0.6929
 2983Sol     HW15007   2.772   0.742   9.743  0.5996 -1.0951  0.7301
 2983Sol     MW15008   2.794   0.803   9.805  0.2793  0.1994  0.4796
 2984Sol     OW15009   3.279   3.387   2.232  0.3627 -0.4423 -0.2140
 2984Sol     HW15010   3.332   3.355   2.305  2.5239 -1.8868 -2.3346
 2984Sol     HW15011   3.245   3.308   2.190  1.3247  0.2043 -2.3013
 2984Sol     MW15012   3.281   3.377   2.235  0.3821 -0.0608  0.0218
 2985Sol     OW15013   2.982   1.005   2.016 -0.3526  0.2230  0.2540
 2985Sol     HW15014   2.957   0.961   2.097 -0.8335  0.3033  0.1502
 2985Sol     HW15015   2.910   0.989   1.956  0.5971 -0.9356 -0.5919
 2985Sol     MW15016   2.973   1.000   2.018  0.2296 -0.1458 -0.0593
 2986Sol     OW15017   2.846   1.535   2.678  0.4020  0.1112  0.5399
 2986Sol     HW15018   2.843   1.441   2.695  3.1232 -0.2096 -0.5867
 2986Sol     HW15019   2.790   1.547   2.601 -0.5234 -0.4595  1.1105
 2986Sol     MW15020   2.840   1.527   2.673  0.0125  0.1951 -0.5357
 2987Sol     OW15021   3.121   1.995   9.540 -0.0439 -0.4171  0.2582
 2987Sol     HW15022   3.155   1.941   9.468  0.4964 -0.2036  0.3527
 2987Sol     HW15023   3.027   2.004   9.521  0.7585  2.9586 -2.5821
 2987Sol     MW15024   3.115   1.991   9.532 -0.2007  0.3388  0.0329
 2988Sol     OW15025   2.237   1.318   3.873 -0.1452 -0.5296  0.3593
 2988Sol     HW15026   2.271   1.329   3.962 -0.1593 -0.9513  0.4197
 2988Sol     HW15027   2.183   1.396   3.858 -2.8472 -2.0051  1.9616
 2988Sol     MW15028   2.235   1.326   3.880  0.0205  0.3026  0.0014
 2989Sol     OW15029   1.048   1.005   8.541 -0.1648  0.1319 -0.1743
 2989Sol     HW15030   1.013   1.019   8.629 -0.1636 -1.3429  0.0689
 2989Sol     HW15031   0.972   0.981   8.488 -0.3191  1.9427 -0.8054
 2989Sol     MW15032   1.038   1.004   8.545 -0.4686  0.3220 -0.1757
 2990Sol     OW15033   2.571   2.105   3.853 -0.3760  0.1196 -0.7168
 2990Sol     HW15034   2.515   2.149   3.789 -0.5463  0.2172 -0.5033
 2990Sol     HW15035   2.510   2.069   3.917 -0.1208  1.4928  0.3143
 2990Sol     MW15036   2.560   2.106   3.853 -0.7924  0.0489 -0.0718
 2991Sol     OW15037   2.367   0.257   5.247  0.3335 -0.1684 -0.4951
 2991Sol     HW15038   2.387   0.347   5.272  1.5881 -0.9191  1.2833
 2991Sol     HW15039   2.283   0.263   5.202 -0.7295  1.6043  1.6086
 2991Sol     MW15040   2.362   0.266   5.245  0.3174 -0.2961 -0.1054
 2992Sol     OW15041   0.282   0.251   8.491 -0.1156  0.0626  0.1919
 2992Sol     HW15042   0.220   0.251   8.565 -0.1894 -0.5495  0.1267
 2992Sol     HW15043   0.229   0.227   8.415  0.4227 -1.5632  0.3200
 2992Sol     MW15044   0.271   0.249   8.491 -0.2487 -0.3905  0.3478
 2993Sol     OW15045   1.224   0.385   2.028 -0.2579 -0.2557 -0.2478
 2993Sol     HW15046   1.199   0.293   2.034 -1.2298  0.0468  0.6051
 2993Sol     HW15047   1.157   0.424   1.971  0.5877 -0.2209 -1.2338
 2993Sol     MW15048   1.215   0.380   2.023 -0.2655 -0.5515 -0.2551
 2994Sol     OW15049   1.847   0.622   3.953  0.0116  0.0434  0.3887
 2994Sol     HW15050   1.902   0.648   4.027  1.0484 -1.9937  0.3671
 2994Sol     HW15051   1.881   0.673   3.879  1.5039 -0.7185  0.5163
 2994Sol     MW15052   1.855   0.629   3.953  0.1678 -0.6481  0.1524
 2995Sol     OW15053   1.720   0.225   4.099  0.1925 -0.1739  0.1586
 2995Sol     HW15054   1.768   0.146   4.075  0.0945 -0.2680  0.2762
 2995Sol     HW15055   1.737   0.286   4.027  0.7410 -0.1016  0.3415
 2995Sol     MW15056   1.726   0.224   4.091 -0.0676  0.4005 -0.0052
 2996Sol     OW15057   2.856   2.702   2.391  0.6532 -0.6414 -0.0215
 2996Sol     HW15058   2.943   2.685   2.427  1.2159 -0.2909 -1.1680
 2996Sol     HW15059   2.843   2.796   2.402  1.0741 -0.4316 -1.2215
 2996Sol     MW15060   2.863   2.709   2.395  0.3307 -0.3444  0.1567
 2997Sol     OW15061   1.304   0.195   3.292 -0.2512  0.0423 -0.5502
 2997Sol     HW15062   1.342   0.226   3.374  0.7359 -0.1683 -0.9075
 2997Sol     HW15063   1.258   0.114   3.316 -1.9648  1.2086  0.1939
 2997Sol     MW15064   1.304   0.190   3.301 -0.5618  0.1926  0.0862
 2998Sol     OW15065   2.605   0.098   3.100 -0.0374  0.5677 -0.3435
 2998Sol     HW15066   2.515   0.068   3.085  0.1646  0.3308 -1.1099
 2998Sol     HW15067   2.612   0.180   3.052  0.4145  0.1496 -0.9956
 2998Sol     MW15068   2.597   0.103   3.095 -0.3612 -0.4584  0.6860
 2999Sol     OW15069   2.127   3.235   3.340 -0.8887 -0.1228  0.0309
 2999Sol     HW15070   2.061   3.208   3.277 -0.7192  1.1586 -0.7013
 2999Sol     HW15071   2.080   3.289   3.403 -0.7682 -0.2026  0.1912
 2999Sol     MW15072   2.117   3.237   3.340  0.0979  0.2243  0.2039
 3000Sol     OW15073   2.660   1.657   7.075 -0.1506 -0.8254  0.0880
 3000Sol     HW15074   2.618   1.673   7.159 -0.1553  1.0123 -0.2359
 3000Sol     HW15075   2.752   1.644   7.097 -0.7241 -4.2478  0.7368
 3000Sol     MW15076   2.664   1.657   7.084 -0.3371 -0.3553 -0.2910
 3001Sol     OW15077   1.002   0.373   6.947 -0.6753 -0.0923 -0.5255
 3001Sol     HW15078   0.923   0.328   6.916 -1.0006  0.9065 -1.1744
 3001Sol     HW15079   0.982   0.397   7.037 -0.3293 -1.6245 -0.0239
 3001Sol     MW15080   0.993   0.371   6.952 -0.2436 -0.0096 -0.3829
   3.32700   3.45160  11.35620
