[ moleculetype ]
; Name   nrexcl
Sil     2

[ atoms ]
;  nr  type  resnr  resid  atom  cgnr  charge    mass
1	Ob	1	Sil	Ob	1	-0.550000011920929	15.999
2	Ob	1	Sil	Ob	2	-0.550000011920929	15.999
3	Ob	1	Sil	Ob	3	-0.550000011920929	15.999
4	Ob	1	Sil	Ob	4	-0.550000011920929	15.999
5	Ob	1	Sil	Ob	5	-0.550000011920929	15.999
6	Ob	1	Sil	Ob	6	-0.550000011920929	15.999
7	Ob	1	Sil	Ob	7	-0.550000011920929	15.999
8	Ob	1	Sil	Ob	8	-0.550000011920929	15.999
9	Ob	1	Sil	Ob	9	-0.550000011920929	15.999
10	Ob	1	Sil	Ob	10	-0.550000011920929	15.999
11	Ob	1	Sil	Ob	11	-0.550000011920929	15.999
12	Ob	1	Sil	Ob	12	-0.550000011920929	15.999
13	Ob	1	Sil	Ob	13	-0.550000011920929	15.999
14	Ob	1	Sil	Ob	14	-0.550000011920929	15.999
15	Ob	1	Sil	Ob	15	-0.550000011920929	15.999
16	Ob	1	Sil	Ob	16	-0.550000011920929	15.999
17	Ob	1	Sil	Ob	17	-0.550000011920929	15.999
18	Ob	1	Sil	Ob	18	-0.550000011920929	15.999
19	Ob	1	Sil	Ob	19	-0.550000011920929	15.999
20	Ob	1	Sil	Ob	20	-0.550000011920929	15.999
21	Ob	1	Sil	Ob	21	-0.550000011920929	15.999
22	Ob	1	Sil	Ob	22	-0.550000011920929	15.999
23	Ob	1	Sil	Ob	23	-0.550000011920929	15.999
24	Ob	1	Sil	Ob	24	-0.550000011920929	15.999
25	Ob	1	Sil	Ob	25	-0.550000011920929	15.999
26	Ob	1	Sil	Ob	26	-0.550000011920929	15.999
27	Ob	1	Sil	Ob	27	-0.550000011920929	15.999
28	Ob	1	Sil	Ob	28	-0.550000011920929	15.999
29	Ob	1	Sil	Ob	29	-0.550000011920929	15.999
30	Ob	1	Sil	Ob	30	-0.550000011920929	15.999
31	Ob	1	Sil	Ob	31	-0.550000011920929	15.999
32	Ob	1	Sil	Ob	32	-0.550000011920929	15.999
33	Ob	1	Sil	Ob	33	-0.550000011920929	15.999
34	Ob	1	Sil	Ob	34	-0.550000011920929	15.999
35	Ob	1	Sil	Ob	35	-0.550000011920929	15.999
36	Ob	1	Sil	Ob	36	-0.550000011920929	15.999
37	Ob	1	Sil	Ob	37	-0.550000011920929	15.999
38	Ob	1	Sil	Ob	38	-0.550000011920929	15.999
39	Ob	1	Sil	Ob	39	-0.550000011920929	15.999
40	Ob	1	Sil	Ob	40	-0.550000011920929	15.999
41	Ob	1	Sil	Ob	41	-0.550000011920929	15.999
42	Ob	1	Sil	Ob	42	-0.550000011920929	15.999
43	Ob	1	Sil	Ob	43	-0.550000011920929	15.999
44	Ob	1	Sil	Ob	44	-0.550000011920929	15.999
45	Ob	1	Sil	Ob	45	-0.550000011920929	15.999
46	Ob	1	Sil	Ob	46	-0.550000011920929	15.999
47	Ob	1	Sil	Ob	47	-0.550000011920929	15.999
48	Ob	1	Sil	Ob	48	-0.550000011920929	15.999
49	Ob	1	Sil	Ob	49	-0.550000011920929	15.999
50	Ob	1	Sil	Ob	50	-0.550000011920929	15.999
51	Ob	1	Sil	Ob	51	-0.550000011920929	15.999
52	Ob	1	Sil	Ob	52	-0.550000011920929	15.999
53	Ob	1	Sil	Ob	53	-0.550000011920929	15.999
54	Ob	1	Sil	Ob	54	-0.550000011920929	15.999
55	Ob	1	Sil	Ob	55	-0.550000011920929	15.999
56	Ob	1	Sil	Ob	56	-0.550000011920929	15.999
57	Ob	1	Sil	Ob	57	-0.550000011920929	15.999
58	Ob	1	Sil	Ob	58	-0.550000011920929	15.999
59	Ob	1	Sil	Ob	59	-0.550000011920929	15.999
60	Ob	1	Sil	Ob	60	-0.550000011920929	15.999
61	Ob	1	Sil	Ob	61	-0.550000011920929	15.999
62	Ob	1	Sil	Ob	62	-0.550000011920929	15.999
63	Ob	1	Sil	Ob	63	-0.550000011920929	15.999
64	Ob	1	Sil	Ob	64	-0.550000011920929	15.999
65	Ob	1	Sil	Ob	65	-0.550000011920929	15.999
66	Ob	1	Sil	Ob	66	-0.550000011920929	15.999
67	Ob	1	Sil	Ob	67	-0.550000011920929	15.999
68	Ob	1	Sil	Ob	68	-0.550000011920929	15.999
69	Ob	1	Sil	Ob	69	-0.550000011920929	15.999
70	Ob	1	Sil	Ob	70	-0.550000011920929	15.999
71	Ob	1	Sil	Ob	71	-0.550000011920929	15.999
72	Ob	1	Sil	Ob	72	-0.550000011920929	15.999
73	Ob	1	Sil	Ob	73	-0.550000011920929	15.999
74	Ob	1	Sil	Ob	74	-0.550000011920929	15.999
75	Ob	1	Sil	Ob	75	-0.550000011920929	15.999
76	Ob	1	Sil	Ob	76	-0.550000011920929	15.999
77	Ob	1	Sil	Ob	77	-0.550000011920929	15.999
78	Ob	1	Sil	Ob	78	-0.550000011920929	15.999
79	Ob	1	Sil	Ob	79	-0.550000011920929	15.999
80	Ob	1	Sil	Ob	80	-0.550000011920929	15.999
81	Ob	1	Sil	Ob	81	-0.550000011920929	15.999
82	Ob	1	Sil	Ob	82	-0.550000011920929	15.999
83	Ob	1	Sil	Ob	83	-0.550000011920929	15.999
84	Ob	1	Sil	Ob	84	-0.550000011920929	15.999
85	Ob	1	Sil	Ob	85	-0.550000011920929	15.999
86	Ob	1	Sil	Ob	86	-0.550000011920929	15.999
87	Ob	1	Sil	Ob	87	-0.550000011920929	15.999
88	Ob	1	Sil	Ob	88	-0.550000011920929	15.999
89	Ob	1	Sil	Ob	89	-0.550000011920929	15.999
90	Ob	1	Sil	Ob	90	-0.550000011920929	15.999
91	Ob	1	Sil	Ob	91	-0.550000011920929	15.999
92	Ob	1	Sil	Ob	92	-0.550000011920929	15.999
93	Ob	1	Sil	Ob	93	-0.550000011920929	15.999
94	Ob	1	Sil	Ob	94	-0.550000011920929	15.999
95	Ob	1	Sil	Ob	95	-0.550000011920929	15.999
96	Ob	1	Sil	Ob	96	-0.550000011920929	15.999
97	Ob	1	Sil	Ob	97	-0.550000011920929	15.999
98	Ob	1	Sil	Ob	98	-0.550000011920929	15.999
99	Ob	1	Sil	Ob	99	-0.550000011920929	15.999
100	Ob	1	Sil	Ob	100	-0.550000011920929	15.999
101	Ob	1	Sil	Ob	101	-0.550000011920929	15.999
102	Ob	1	Sil	Ob	102	-0.550000011920929	15.999
103	Ob	1	Sil	Ob	103	-0.550000011920929	15.999
104	Ob	1	Sil	Ob	104	-0.550000011920929	15.999
105	Ob	1	Sil	Ob	105	-0.550000011920929	15.999
106	Ob	1	Sil	Ob	106	-0.550000011920929	15.999
107	Ob	1	Sil	Ob	107	-0.550000011920929	15.999
108	Ob	1	Sil	Ob	108	-0.550000011920929	15.999
109	Ob	1	Sil	Ob	109	-0.550000011920929	15.999
110	Ob	1	Sil	Ob	110	-0.550000011920929	15.999
111	Ob	1	Sil	Ob	111	-0.550000011920929	15.999
112	Ob	1	Sil	Ob	112	-0.550000011920929	15.999
113	Ob	1	Sil	Ob	113	-0.550000011920929	15.999
114	Ob	1	Sil	Ob	114	-0.550000011920929	15.999
115	Ob	1	Sil	Ob	115	-0.550000011920929	15.999
116	Ob	1	Sil	Ob	116	-0.550000011920929	15.999
117	Ob	1	Sil	Ob	117	-0.550000011920929	15.999
118	Ob	1	Sil	Ob	118	-0.550000011920929	15.999
119	Ob	1	Sil	Ob	119	-0.550000011920929	15.999
120	Ob	1	Sil	Ob	120	-0.550000011920929	15.999
121	Ob	1	Sil	Ob	121	-0.550000011920929	15.999
122	Ob	1	Sil	Ob	122	-0.550000011920929	15.999
123	Ob	1	Sil	Ob	123	-0.550000011920929	15.999
124	Ob	1	Sil	Ob	124	-0.550000011920929	15.999
125	Ob	1	Sil	Ob	125	-0.550000011920929	15.999
126	Ob	1	Sil	Ob	126	-0.550000011920929	15.999
127	Ob	1	Sil	Ob	127	-0.550000011920929	15.999
128	Ob	1	Sil	Ob	128	-0.550000011920929	15.999
129	Ob	1	Sil	Ob	129	-0.550000011920929	15.999
130	Ob	1	Sil	Ob	130	-0.550000011920929	15.999
131	Ob	1	Sil	Ob	131	-0.550000011920929	15.999
132	Ob	1	Sil	Ob	132	-0.550000011920929	15.999
133	Ob	1	Sil	Ob	133	-0.550000011920929	15.999
134	Ob	1	Sil	Ob	134	-0.550000011920929	15.999
135	Ob	1	Sil	Ob	135	-0.550000011920929	15.999
136	Ob	1	Sil	Ob	136	-0.550000011920929	15.999
137	Ob	1	Sil	Ob	137	-0.550000011920929	15.999
138	Ob	1	Sil	Ob	138	-0.550000011920929	15.999
139	Ob	1	Sil	Ob	139	-0.550000011920929	15.999
140	Ob	1	Sil	Ob	140	-0.550000011920929	15.999
141	Ob	1	Sil	Ob	141	-0.550000011920929	15.999
142	Ob	1	Sil	Ob	142	-0.550000011920929	15.999
143	Ob	1	Sil	Ob	143	-0.550000011920929	15.999
144	Ob	1	Sil	Ob	144	-0.550000011920929	15.999
145	Ob	1	Sil	Ob	145	-0.550000011920929	15.999
146	Ob	1	Sil	Ob	146	-0.550000011920929	15.999
147	Ob	1	Sil	Ob	147	-0.550000011920929	15.999
148	Ob	1	Sil	Ob	148	-0.550000011920929	15.999
149	Ob	1	Sil	Ob	149	-0.550000011920929	15.999
150	Ob	1	Sil	Ob	150	-0.550000011920929	15.999
151	Ob	1	Sil	Ob	151	-0.550000011920929	15.999
152	Ob	1	Sil	Ob	152	-0.550000011920929	15.999
153	Ob	1	Sil	Ob	153	-0.550000011920929	15.999
154	Ob	1	Sil	Ob	154	-0.550000011920929	15.999
155	Ob	1	Sil	Ob	155	-0.550000011920929	15.999
156	Ob	1	Sil	Ob	156	-0.550000011920929	15.999
157	Ob	1	Sil	Ob	157	-0.550000011920929	15.999
158	Ob	1	Sil	Ob	158	-0.550000011920929	15.999
159	Ob	1	Sil	Ob	159	-0.550000011920929	15.999
160	Ob	1	Sil	Ob	160	-0.550000011920929	15.999
161	Ob	1	Sil	Ob	161	-0.550000011920929	15.999
162	Ob	1	Sil	Ob	162	-0.550000011920929	15.999
163	Ob	1	Sil	Ob	163	-0.550000011920929	15.999
164	Ob	1	Sil	Ob	164	-0.550000011920929	15.999
165	Ob	1	Sil	Ob	165	-0.550000011920929	15.999
166	Ob	1	Sil	Ob	166	-0.550000011920929	15.999
167	Ob	1	Sil	Ob	167	-0.550000011920929	15.999
168	Ob	1	Sil	Ob	168	-0.550000011920929	15.999
169	Ob	1	Sil	Ob	169	-0.550000011920929	15.999
170	Ob	1	Sil	Ob	170	-0.550000011920929	15.999
171	Ob	1	Sil	Ob	171	-0.550000011920929	15.999
172	Ob	1	Sil	Ob	172	-0.550000011920929	15.999
173	Ob	1	Sil	Ob	173	-0.550000011920929	15.999
174	Ob	1	Sil	Ob	174	-0.550000011920929	15.999
175	Ob	1	Sil	Ob	175	-0.550000011920929	15.999
176	Ob	1	Sil	Ob	176	-0.550000011920929	15.999
177	Ob	1	Sil	Ob	177	-0.550000011920929	15.999
178	Ob	1	Sil	Ob	178	-0.550000011920929	15.999
179	Ob	1	Sil	Ob	179	-0.550000011920929	15.999
180	Ob	1	Sil	Ob	180	-0.550000011920929	15.999
181	Ob	1	Sil	Ob	181	-0.550000011920929	15.999
182	Ob	1	Sil	Ob	182	-0.550000011920929	15.999
183	Ob	1	Sil	Ob	183	-0.550000011920929	15.999
184	Ob	1	Sil	Ob	184	-0.550000011920929	15.999
185	Ob	1	Sil	Ob	185	-0.550000011920929	15.999
186	Ob	1	Sil	Ob	186	-0.550000011920929	15.999
187	Ob	1	Sil	Ob	187	-0.550000011920929	15.999
188	Ob	1	Sil	Ob	188	-0.550000011920929	15.999
189	Ob	1	Sil	Ob	189	-0.550000011920929	15.999
190	Ob	1	Sil	Ob	190	-0.550000011920929	15.999
191	Ob	1	Sil	Ob	191	-0.550000011920929	15.999
192	Ob	1	Sil	Ob	192	-0.550000011920929	15.999
193	Ob	1	Sil	Ob	193	-0.550000011920929	15.999
194	Ob	1	Sil	Ob	194	-0.550000011920929	15.999
195	Ob	1	Sil	Ob	195	-0.550000011920929	15.999
196	Ob	1	Sil	Ob	196	-0.550000011920929	15.999
197	Ob	1	Sil	Ob	197	-0.550000011920929	15.999
198	Ob	1	Sil	Ob	198	-0.550000011920929	15.999
199	Ob	1	Sil	Ob	199	-0.550000011920929	15.999
200	Ob	1	Sil	Ob	200	-0.550000011920929	15.999
201	Ob	1	Sil	Ob	201	-0.550000011920929	15.999
202	Ob	1	Sil	Ob	202	-0.550000011920929	15.999
203	Ob	1	Sil	Ob	203	-0.550000011920929	15.999
204	Ob	1	Sil	Ob	204	-0.550000011920929	15.999
205	Ob	1	Sil	Ob	205	-0.550000011920929	15.999
206	Ob	1	Sil	Ob	206	-0.550000011920929	15.999
207	Ob	1	Sil	Ob	207	-0.550000011920929	15.999
208	Ob	1	Sil	Ob	208	-0.550000011920929	15.999
209	Ob	1	Sil	Ob	209	-0.550000011920929	15.999
210	Ob	1	Sil	Ob	210	-0.550000011920929	15.999
211	Ob	1	Sil	Ob	211	-0.550000011920929	15.999
212	Ob	1	Sil	Ob	212	-0.550000011920929	15.999
213	Ob	1	Sil	Ob	213	-0.550000011920929	15.999
214	Ob	1	Sil	Ob	214	-0.550000011920929	15.999
215	Ob	1	Sil	Ob	215	-0.550000011920929	15.999
216	Ob	1	Sil	Ob	216	-0.550000011920929	15.999
217	Ob	1	Sil	Ob	217	-0.550000011920929	15.999
218	Ob	1	Sil	Ob	218	-0.550000011920929	15.999
219	Ob	1	Sil	Ob	219	-0.550000011920929	15.999
220	Ob	1	Sil	Ob	220	-0.550000011920929	15.999
221	Ob	1	Sil	Ob	221	-0.550000011920929	15.999
222	Ob	1	Sil	Ob	222	-0.550000011920929	15.999
223	Ob	1	Sil	Ob	223	-0.550000011920929	15.999
224	Ob	1	Sil	Ob	224	-0.550000011920929	15.999
225	Ob	1	Sil	Ob	225	-0.550000011920929	15.999
226	Ob	1	Sil	Ob	226	-0.550000011920929	15.999
227	Ob	1	Sil	Ob	227	-0.550000011920929	15.999
228	Ob	1	Sil	Ob	228	-0.550000011920929	15.999
229	Ob	1	Sil	Ob	229	-0.550000011920929	15.999
230	Ob	1	Sil	Ob	230	-0.550000011920929	15.999
231	Ob	1	Sil	Ob	231	-0.550000011920929	15.999
232	Ob	1	Sil	Ob	232	-0.550000011920929	15.999
233	Ob	1	Sil	Ob	233	-0.550000011920929	15.999
234	Ob	1	Sil	Ob	234	-0.550000011920929	15.999
235	Ob	1	Sil	Ob	235	-0.550000011920929	15.999
236	Ob	1	Sil	Ob	236	-0.550000011920929	15.999
237	Ob	1	Sil	Ob	237	-0.550000011920929	15.999
238	Ob	1	Sil	Ob	238	-0.550000011920929	15.999
239	Ob	1	Sil	Ob	239	-0.550000011920929	15.999
240	Ob	1	Sil	Ob	240	-0.550000011920929	15.999
241	Ob	1	Sil	Ob	241	-0.550000011920929	15.999
242	Ob	1	Sil	Ob	242	-0.550000011920929	15.999
243	Ob	1	Sil	Ob	243	-0.550000011920929	15.999
244	Ob	1	Sil	Ob	244	-0.550000011920929	15.999
245	Ob	1	Sil	Ob	245	-0.550000011920929	15.999
246	Ob	1	Sil	Ob	246	-0.550000011920929	15.999
247	Ob	1	Sil	Ob	247	-0.550000011920929	15.999
248	Ob	1	Sil	Ob	248	-0.550000011920929	15.999
249	Ob	1	Sil	Ob	249	-0.550000011920929	15.999
250	Ob	1	Sil	Ob	250	-0.550000011920929	15.999
251	Ob	1	Sil	Ob	251	-0.550000011920929	15.999
252	Ob	1	Sil	Ob	252	-0.550000011920929	15.999
253	Ob	1	Sil	Ob	253	-0.550000011920929	15.999
254	Ob	1	Sil	Ob	254	-0.550000011920929	15.999
255	Ob	1	Sil	Ob	255	-0.550000011920929	15.999
256	Ob	1	Sil	Ob	256	-0.550000011920929	15.999
257	Ob	1	Sil	Ob	257	-0.550000011920929	15.999
258	Ob	1	Sil	Ob	258	-0.550000011920929	15.999
259	Ob	1	Sil	Ob	259	-0.550000011920929	15.999
260	Ob	1	Sil	Ob	260	-0.550000011920929	15.999
261	Ob	1	Sil	Ob	261	-0.550000011920929	15.999
262	Ob	1	Sil	Ob	262	-0.550000011920929	15.999
263	Ob	1	Sil	Ob	263	-0.550000011920929	15.999
264	Ob	1	Sil	Ob	264	-0.550000011920929	15.999
265	Ob	1	Sil	Ob	265	-0.550000011920929	15.999
266	Ob	1	Sil	Ob	266	-0.550000011920929	15.999
267	Ob	1	Sil	Ob	267	-0.550000011920929	15.999
268	Ob	1	Sil	Ob	268	-0.550000011920929	15.999
269	Ob	1	Sil	Ob	269	-0.550000011920929	15.999
270	Ob	1	Sil	Ob	270	-0.550000011920929	15.999
271	Ob	1	Sil	Ob	271	-0.550000011920929	15.999
272	Ob	1	Sil	Ob	272	-0.550000011920929	15.999
273	Ob	1	Sil	Ob	273	-0.550000011920929	15.999
274	Ob	1	Sil	Ob	274	-0.550000011920929	15.999
275	Ob	1	Sil	Ob	275	-0.550000011920929	15.999
276	Ob	1	Sil	Ob	276	-0.550000011920929	15.999
277	Ob	1	Sil	Ob	277	-0.550000011920929	15.999
278	Ob	1	Sil	Ob	278	-0.550000011920929	15.999
279	Ob	1	Sil	Ob	279	-0.550000011920929	15.999
280	Ob	1	Sil	Ob	280	-0.550000011920929	15.999
281	Ob	1	Sil	Ob	281	-0.550000011920929	15.999
282	Ob	1	Sil	Ob	282	-0.550000011920929	15.999
283	Ob	1	Sil	Ob	283	-0.550000011920929	15.999
284	Ob	1	Sil	Ob	284	-0.550000011920929	15.999
285	Ob	1	Sil	Ob	285	-0.550000011920929	15.999
286	Ob	1	Sil	Ob	286	-0.550000011920929	15.999
287	Ob	1	Sil	Ob	287	-0.550000011920929	15.999
288	Ob	1	Sil	Ob	288	-0.550000011920929	15.999
289	Ob	1	Sil	Ob	289	-0.550000011920929	15.999
290	Ob	1	Sil	Ob	290	-0.550000011920929	15.999
291	Ob	1	Sil	Ob	291	-0.550000011920929	15.999
292	Ob	1	Sil	Ob	292	-0.550000011920929	15.999
293	Ob	1	Sil	Ob	293	-0.550000011920929	15.999
294	Ob	1	Sil	Ob	294	-0.550000011920929	15.999
295	Ob	1	Sil	Ob	295	-0.550000011920929	15.999
296	Ob	1	Sil	Ob	296	-0.550000011920929	15.999
297	Ob	1	Sil	Ob	297	-0.550000011920929	15.999
298	Ob	1	Sil	Ob	298	-0.550000011920929	15.999
299	Ob	1	Sil	Ob	299	-0.550000011920929	15.999
300	Ob	1	Sil	Ob	300	-0.550000011920929	15.999
301	Ob	1	Sil	Ob	301	-0.550000011920929	15.999
302	Ob	1	Sil	Ob	302	-0.550000011920929	15.999
303	Ob	1	Sil	Ob	303	-0.550000011920929	15.999
304	Ob	1	Sil	Ob	304	-0.550000011920929	15.999
305	Ob	1	Sil	Ob	305	-0.550000011920929	15.999
306	Ob	1	Sil	Ob	306	-0.550000011920929	15.999
307	Ob	1	Sil	Ob	307	-0.550000011920929	15.999
308	Ob	1	Sil	Ob	308	-0.550000011920929	15.999
309	Ob	1	Sil	Ob	309	-0.550000011920929	15.999
310	Ob	1	Sil	Ob	310	-0.550000011920929	15.999
311	Ob	1	Sil	Ob	311	-0.550000011920929	15.999
312	Ob	1	Sil	Ob	312	-0.550000011920929	15.999
313	Ob	1	Sil	Ob	313	-0.550000011920929	15.999
314	Ob	1	Sil	Ob	314	-0.550000011920929	15.999
315	Ob	1	Sil	Ob	315	-0.550000011920929	15.999
316	Ob	1	Sil	Ob	316	-0.550000011920929	15.999
317	Ob	1	Sil	Ob	317	-0.550000011920929	15.999
318	Ob	1	Sil	Ob	318	-0.550000011920929	15.999
319	Ob	1	Sil	Ob	319	-0.550000011920929	15.999
320	Ob	1	Sil	Ob	320	-0.550000011920929	15.999
321	Ob	1	Sil	Ob	321	-0.550000011920929	15.999
322	Ob	1	Sil	Ob	322	-0.550000011920929	15.999
323	Ob	1	Sil	Ob	323	-0.550000011920929	15.999
324	Ob	1	Sil	Ob	324	-0.550000011920929	15.999
325	Ob	1	Sil	Ob	325	-0.550000011920929	15.999
326	Ob	1	Sil	Ob	326	-0.550000011920929	15.999
327	Ob	1	Sil	Ob	327	-0.550000011920929	15.999
328	Ob	1	Sil	Ob	328	-0.550000011920929	15.999
329	Ob	1	Sil	Ob	329	-0.550000011920929	15.999
330	Ob	1	Sil	Ob	330	-0.550000011920929	15.999
331	Ob	1	Sil	Ob	331	-0.550000011920929	15.999
332	Ob	1	Sil	Ob	332	-0.550000011920929	15.999
333	Ob	1	Sil	Ob	333	-0.550000011920929	15.999
334	Ob	1	Sil	Ob	334	-0.550000011920929	15.999
335	Ob	1	Sil	Ob	335	-0.550000011920929	15.999
336	Ob	1	Sil	Ob	336	-0.550000011920929	15.999
337	Ob	1	Sil	Ob	337	-0.550000011920929	15.999
338	Ob	1	Sil	Ob	338	-0.550000011920929	15.999
339	Ob	1	Sil	Ob	339	-0.550000011920929	15.999
340	Ob	1	Sil	Ob	340	-0.550000011920929	15.999
341	Ob	1	Sil	Ob	341	-0.550000011920929	15.999
342	Ob	1	Sil	Ob	342	-0.550000011920929	15.999
343	Ob	1	Sil	Ob	343	-0.550000011920929	15.999
344	Ob	1	Sil	Ob	344	-0.550000011920929	15.999
345	Ob	1	Sil	Ob	345	-0.550000011920929	15.999
346	Ob	1	Sil	Ob	346	-0.550000011920929	15.999
347	Ob	1	Sil	Ob	347	-0.550000011920929	15.999
348	Ob	1	Sil	Ob	348	-0.550000011920929	15.999
349	Ob	1	Sil	Ob	349	-0.550000011920929	15.999
350	Ob	1	Sil	Ob	350	-0.550000011920929	15.999
351	Ob	1	Sil	Ob	351	-0.550000011920929	15.999
352	Ob	1	Sil	Ob	352	-0.550000011920929	15.999
353	Ob	1	Sil	Ob	353	-0.550000011920929	15.999
354	Ob	1	Sil	Ob	354	-0.550000011920929	15.999
355	Ob	1	Sil	Ob	355	-0.550000011920929	15.999
356	Ob	1	Sil	Ob	356	-0.550000011920929	15.999
357	Ob	1	Sil	Ob	357	-0.550000011920929	15.999
358	Ob	1	Sil	Ob	358	-0.550000011920929	15.999
359	Ob	1	Sil	Ob	359	-0.550000011920929	15.999
360	Ob	1	Sil	Ob	360	-0.550000011920929	15.999
361	Ob	1	Sil	Ob	361	-0.550000011920929	15.999
362	Ob	1	Sil	Ob	362	-0.550000011920929	15.999
363	Ob	1	Sil	Ob	363	-0.550000011920929	15.999
364	Ob	1	Sil	Ob	364	-0.550000011920929	15.999
365	Ob	1	Sil	Ob	365	-0.550000011920929	15.999
366	Ob	1	Sil	Ob	366	-0.550000011920929	15.999
367	Ob	1	Sil	Ob	367	-0.550000011920929	15.999
368	Ob	1	Sil	Ob	368	-0.550000011920929	15.999
369	Ob	1	Sil	Ob	369	-0.550000011920929	15.999
370	Ob	1	Sil	Ob	370	-0.550000011920929	15.999
371	Ob	1	Sil	Ob	371	-0.550000011920929	15.999
372	Ob	1	Sil	Ob	372	-0.550000011920929	15.999
373	Ob	1	Sil	Ob	373	-0.550000011920929	15.999
374	Ob	1	Sil	Ob	374	-0.550000011920929	15.999
375	Ob	1	Sil	Ob	375	-0.550000011920929	15.999
376	Ob	1	Sil	Ob	376	-0.550000011920929	15.999
377	Ob	1	Sil	Ob	377	-0.550000011920929	15.999
378	Ob	1	Sil	Ob	378	-0.550000011920929	15.999
379	Ob	1	Sil	Ob	379	-0.550000011920929	15.999
380	Ob	1	Sil	Ob	380	-0.550000011920929	15.999
381	Ob	1	Sil	Ob	381	-0.550000011920929	15.999
382	Ob	1	Sil	Ob	382	-0.550000011920929	15.999
383	Ob	1	Sil	Ob	383	-0.550000011920929	15.999
384	Ob	1	Sil	Ob	384	-0.550000011920929	15.999
385	Ob	1	Sil	Ob	385	-0.550000011920929	15.999
386	Ob	1	Sil	Ob	386	-0.550000011920929	15.999
387	Ob	1	Sil	Ob	387	-0.550000011920929	15.999
388	Ob	1	Sil	Ob	388	-0.550000011920929	15.999
389	Ob	1	Sil	Ob	389	-0.550000011920929	15.999
390	Ob	1	Sil	Ob	390	-0.550000011920929	15.999
391	Ob	1	Sil	Ob	391	-0.550000011920929	15.999
392	Ob	1	Sil	Ob	392	-0.550000011920929	15.999
393	Ob	1	Sil	Ob	393	-0.550000011920929	15.999
394	Ob	1	Sil	Ob	394	-0.550000011920929	15.999
395	Ob	1	Sil	Ob	395	-0.550000011920929	15.999
396	Ob	1	Sil	Ob	396	-0.550000011920929	15.999
397	Ob	1	Sil	Ob	397	-0.550000011920929	15.999
398	Ob	1	Sil	Ob	398	-0.550000011920929	15.999
399	Ob	1	Sil	Ob	399	-0.550000011920929	15.999
400	Ob	1	Sil	Ob	400	-0.550000011920929	15.999
401	Ob	1	Sil	Ob	401	-0.550000011920929	15.999
402	Ob	1	Sil	Ob	402	-0.550000011920929	15.999
403	Ob	1	Sil	Ob	403	-0.550000011920929	15.999
404	Ob	1	Sil	Ob	404	-0.550000011920929	15.999
405	Ob	1	Sil	Ob	405	-0.550000011920929	15.999
406	Ob	1	Sil	Ob	406	-0.550000011920929	15.999
407	Ob	1	Sil	Ob	407	-0.550000011920929	15.999
408	Ob	1	Sil	Ob	408	-0.550000011920929	15.999
409	Ob	1	Sil	Ob	409	-0.550000011920929	15.999
410	Ob	1	Sil	Ob	410	-0.550000011920929	15.999
411	Ob	1	Sil	Ob	411	-0.550000011920929	15.999
412	Ob	1	Sil	Ob	412	-0.550000011920929	15.999
413	Ob	1	Sil	Ob	413	-0.550000011920929	15.999
414	Ob	1	Sil	Ob	414	-0.550000011920929	15.999
415	Ob	1	Sil	Ob	415	-0.550000011920929	15.999
416	Ob	1	Sil	Ob	416	-0.550000011920929	15.999
417	Ob	1	Sil	Ob	417	-0.550000011920929	15.999
418	Ob	1	Sil	Ob	418	-0.550000011920929	15.999
419	Ob	1	Sil	Ob	419	-0.550000011920929	15.999
420	Ob	1	Sil	Ob	420	-0.550000011920929	15.999
421	Ob	1	Sil	Ob	421	-0.550000011920929	15.999
422	Ob	1	Sil	Ob	422	-0.550000011920929	15.999
423	Ob	1	Sil	Ob	423	-0.550000011920929	15.999
424	Ob	1	Sil	Ob	424	-0.550000011920929	15.999
425	Ob	1	Sil	Ob	425	-0.550000011920929	15.999
426	Ob	1	Sil	Ob	426	-0.550000011920929	15.999
427	Ob	1	Sil	Ob	427	-0.550000011920929	15.999
428	Ob	1	Sil	Ob	428	-0.550000011920929	15.999
429	Ob	1	Sil	Ob	429	-0.550000011920929	15.999
430	Ob	1	Sil	Ob	430	-0.550000011920929	15.999
431	Ob	1	Sil	Ob	431	-0.550000011920929	15.999
432	Ob	1	Sil	Ob	432	-0.550000011920929	15.999
433	Ob	1	Sil	Ob	433	-0.550000011920929	15.999
434	Ob	1	Sil	Ob	434	-0.550000011920929	15.999
435	Ob	1	Sil	Ob	435	-0.550000011920929	15.999
436	Ob	1	Sil	Ob	436	-0.550000011920929	15.999
437	Ob	1	Sil	Ob	437	-0.550000011920929	15.999
438	Ob	1	Sil	Ob	438	-0.550000011920929	15.999
439	Ob	1	Sil	Ob	439	-0.550000011920929	15.999
440	Ob	1	Sil	Ob	440	-0.550000011920929	15.999
441	Ob	1	Sil	Ob	441	-0.550000011920929	15.999
442	Ob	1	Sil	Ob	442	-0.550000011920929	15.999
443	Ob	1	Sil	Ob	443	-0.550000011920929	15.999
444	Ob	1	Sil	Ob	444	-0.550000011920929	15.999
445	Ob	1	Sil	Ob	445	-0.550000011920929	15.999
446	Ob	1	Sil	Ob	446	-0.550000011920929	15.999
447	Ob	1	Sil	Ob	447	-0.550000011920929	15.999
448	Ob	1	Sil	Ob	448	-0.550000011920929	15.999
449	Ob	1	Sil	Ob	449	-0.550000011920929	15.999
450	Ob	1	Sil	Ob	450	-0.550000011920929	15.999
451	Ob	1	Sil	Ob	451	-0.550000011920929	15.999
452	Ob	1	Sil	Ob	452	-0.550000011920929	15.999
453	Ob	1	Sil	Ob	453	-0.550000011920929	15.999
454	Ob	1	Sil	Ob	454	-0.550000011920929	15.999
455	Ob	1	Sil	Ob	455	-0.550000011920929	15.999
456	Ob	1	Sil	Ob	456	-0.550000011920929	15.999
457	Ob	1	Sil	Ob	457	-0.550000011920929	15.999
458	Ob	1	Sil	Ob	458	-0.550000011920929	15.999
459	Ob	1	Sil	Ob	459	-0.550000011920929	15.999
460	Ob	1	Sil	Ob	460	-0.550000011920929	15.999
461	Ob	1	Sil	Ob	461	-0.550000011920929	15.999
462	Ob	1	Sil	Ob	462	-0.550000011920929	15.999
463	Ob	1	Sil	Ob	463	-0.550000011920929	15.999
464	Ob	1	Sil	Ob	464	-0.550000011920929	15.999
465	Ob	1	Sil	Ob	465	-0.550000011920929	15.999
466	Ob	1	Sil	Ob	466	-0.550000011920929	15.999
467	Ob	1	Sil	Ob	467	-0.550000011920929	15.999
468	Ob	1	Sil	Ob	468	-0.550000011920929	15.999
469	Ob	1	Sil	Ob	469	-0.550000011920929	15.999
470	Ob	1	Sil	Ob	470	-0.550000011920929	15.999
471	Ob	1	Sil	Ob	471	-0.550000011920929	15.999
472	Ob	1	Sil	Ob	472	-0.550000011920929	15.999
473	Ob	1	Sil	Ob	473	-0.550000011920929	15.999
474	Ob	1	Sil	Ob	474	-0.550000011920929	15.999
475	Ob	1	Sil	Ob	475	-0.550000011920929	15.999
476	Ob	1	Sil	Ob	476	-0.550000011920929	15.999
477	Ob	1	Sil	Ob	477	-0.550000011920929	15.999
478	Ob	1	Sil	Ob	478	-0.550000011920929	15.999
479	Ob	1	Sil	Ob	479	-0.550000011920929	15.999
480	Ob	1	Sil	Ob	480	-0.550000011920929	15.999
481	Ob	1	Sil	Ob	481	-0.550000011920929	15.999
482	Ob	1	Sil	Ob	482	-0.550000011920929	15.999
483	Ob	1	Sil	Ob	483	-0.550000011920929	15.999
484	Ob	1	Sil	Ob	484	-0.550000011920929	15.999
485	Ob	1	Sil	Ob	485	-0.550000011920929	15.999
486	Ob	1	Sil	Ob	486	-0.550000011920929	15.999
487	Ob	1	Sil	Ob	487	-0.550000011920929	15.999
488	Ob	1	Sil	Ob	488	-0.550000011920929	15.999
489	Ob	1	Sil	Ob	489	-0.550000011920929	15.999
490	Ob	1	Sil	Ob	490	-0.550000011920929	15.999
491	Ob	1	Sil	Ob	491	-0.550000011920929	15.999
492	Ob	1	Sil	Ob	492	-0.550000011920929	15.999
493	Ob	1	Sil	Ob	493	-0.550000011920929	15.999
494	Ob	1	Sil	Ob	494	-0.550000011920929	15.999
495	Ob	1	Sil	Ob	495	-0.550000011920929	15.999
496	Ob	1	Sil	Ob	496	-0.550000011920929	15.999
497	Ob	1	Sil	Ob	497	-0.550000011920929	15.999
498	Ob	1	Sil	Ob	498	-0.550000011920929	15.999
499	Ob	1	Sil	Ob	499	-0.550000011920929	15.999
500	Ob	1	Sil	Ob	500	-0.550000011920929	15.999
501	Ob	1	Sil	Ob	501	-0.550000011920929	15.999
502	Ob	1	Sil	Ob	502	-0.550000011920929	15.999
503	Ob	1	Sil	Ob	503	-0.550000011920929	15.999
504	Ob	1	Sil	Ob	504	-0.550000011920929	15.999
505	Ob	1	Sil	Ob	505	-0.550000011920929	15.999
506	Ob	1	Sil	Ob	506	-0.550000011920929	15.999
507	Ob	1	Sil	Ob	507	-0.550000011920929	15.999
508	Ob	1	Sil	Ob	508	-0.550000011920929	15.999
509	Ob	1	Sil	Ob	509	-0.550000011920929	15.999
510	Ob	1	Sil	Ob	510	-0.550000011920929	15.999
511	Ob	1	Sil	Ob	511	-0.550000011920929	15.999
512	Ob	1	Sil	Ob	512	-0.550000011920929	15.999
513	Ob	1	Sil	Ob	513	-0.550000011920929	15.999
514	Ob	1	Sil	Ob	514	-0.550000011920929	15.999
515	Ob	1	Sil	Ob	515	-0.550000011920929	15.999
516	Ob	1	Sil	Ob	516	-0.550000011920929	15.999
517	Ob	1	Sil	Ob	517	-0.550000011920929	15.999
518	Ob	1	Sil	Ob	518	-0.550000011920929	15.999
519	Ob	1	Sil	Ob	519	-0.550000011920929	15.999
520	Ob	1	Sil	Ob	520	-0.550000011920929	15.999
521	Ob	1	Sil	Ob	521	-0.550000011920929	15.999
522	Ob	1	Sil	Ob	522	-0.550000011920929	15.999
523	Ob	1	Sil	Ob	523	-0.550000011920929	15.999
524	Ob	1	Sil	Ob	524	-0.550000011920929	15.999
525	Ob	1	Sil	Ob	525	-0.550000011920929	15.999
526	Ob	1	Sil	Ob	526	-0.550000011920929	15.999
527	Ob	1	Sil	Ob	527	-0.550000011920929	15.999
528	Ob	1	Sil	Ob	528	-0.550000011920929	15.999
529	Ob	1	Sil	Ob	529	-0.550000011920929	15.999
530	Ob	1	Sil	Ob	530	-0.550000011920929	15.999
531	Ob	1	Sil	Ob	531	-0.550000011920929	15.999
532	Ob	1	Sil	Ob	532	-0.550000011920929	15.999
533	Ob	1	Sil	Ob	533	-0.550000011920929	15.999
534	Ob	1	Sil	Ob	534	-0.550000011920929	15.999
535	Ob	1	Sil	Ob	535	-0.550000011920929	15.999
536	Ob	1	Sil	Ob	536	-0.550000011920929	15.999
537	Ob	1	Sil	Ob	537	-0.550000011920929	15.999
538	Ob	1	Sil	Ob	538	-0.550000011920929	15.999
539	Ob	1	Sil	Ob	539	-0.550000011920929	15.999
540	Ob	1	Sil	Ob	540	-0.550000011920929	15.999
541	Ob	1	Sil	Ob	541	-0.550000011920929	15.999
542	Ob	1	Sil	Ob	542	-0.550000011920929	15.999
543	Ob	1	Sil	Ob	543	-0.550000011920929	15.999
544	Ob	1	Sil	Ob	544	-0.550000011920929	15.999
545	Ob	1	Sil	Ob	545	-0.550000011920929	15.999
546	Ob	1	Sil	Ob	546	-0.550000011920929	15.999
547	Ob	1	Sil	Ob	547	-0.550000011920929	15.999
548	Ob	1	Sil	Ob	548	-0.550000011920929	15.999
549	Ob	1	Sil	Ob	549	-0.550000011920929	15.999
550	Ob	1	Sil	Ob	550	-0.550000011920929	15.999
551	Ob	1	Sil	Ob	551	-0.550000011920929	15.999
552	Ob	1	Sil	Ob	552	-0.550000011920929	15.999
553	Ob	1	Sil	Ob	553	-0.550000011920929	15.999
554	Ob	1	Sil	Ob	554	-0.550000011920929	15.999
555	Ob	1	Sil	Ob	555	-0.550000011920929	15.999
556	Ob	1	Sil	Ob	556	-0.550000011920929	15.999
557	Ob	1	Sil	Ob	557	-0.550000011920929	15.999
558	Ob	1	Sil	Ob	558	-0.550000011920929	15.999
559	Ob	1	Sil	Ob	559	-0.550000011920929	15.999
560	Ob	1	Sil	Ob	560	-0.550000011920929	15.999
561	Ob	1	Sil	Ob	561	-0.550000011920929	15.999
562	Ob	1	Sil	Ob	562	-0.550000011920929	15.999
563	Ob	1	Sil	Ob	563	-0.550000011920929	15.999
564	Ob	1	Sil	Ob	564	-0.550000011920929	15.999
565	Ob	1	Sil	Ob	565	-0.550000011920929	15.999
566	Ob	1	Sil	Ob	566	-0.550000011920929	15.999
567	Ob	1	Sil	Ob	567	-0.550000011920929	15.999
568	Ob	1	Sil	Ob	568	-0.550000011920929	15.999
569	Ob	1	Sil	Ob	569	-0.550000011920929	15.999
570	Ob	1	Sil	Ob	570	-0.550000011920929	15.999
571	Ob	1	Sil	Ob	571	-0.550000011920929	15.999
572	Ob	1	Sil	Ob	572	-0.550000011920929	15.999
573	Ob	1	Sil	Ob	573	-0.550000011920929	15.999
574	Ob	1	Sil	Ob	574	-0.550000011920929	15.999
575	Ob	1	Sil	Ob	575	-0.550000011920929	15.999
576	Ob	1	Sil	Ob	576	-0.550000011920929	15.999
577	Ob	1	Sil	Ob	577	-0.550000011920929	15.999
578	Ob	1	Sil	Ob	578	-0.550000011920929	15.999
579	Ob	1	Sil	Ob	579	-0.550000011920929	15.999
580	Ob	1	Sil	Ob	580	-0.550000011920929	15.999
581	Ob	1	Sil	Ob	581	-0.550000011920929	15.999
582	Ob	1	Sil	Ob	582	-0.550000011920929	15.999
583	Ob	1	Sil	Ob	583	-0.550000011920929	15.999
584	Ob	1	Sil	Ob	584	-0.550000011920929	15.999
585	Ob	1	Sil	Ob	585	-0.550000011920929	15.999
586	Ob	1	Sil	Ob	586	-0.550000011920929	15.999
587	Ob	1	Sil	Ob	587	-0.550000011920929	15.999
588	Ob	1	Sil	Ob	588	-0.550000011920929	15.999
589	Ob	1	Sil	Ob	589	-0.550000011920929	15.999
590	Ob	1	Sil	Ob	590	-0.550000011920929	15.999
591	Ob	1	Sil	Ob	591	-0.550000011920929	15.999
592	Ob	1	Sil	Ob	592	-0.550000011920929	15.999
593	Ob	1	Sil	Ob	593	-0.550000011920929	15.999
594	Ob	1	Sil	Ob	594	-0.550000011920929	15.999
595	Ob	1	Sil	Ob	595	-0.550000011920929	15.999
596	Ob	1	Sil	Ob	596	-0.550000011920929	15.999
597	Ob	1	Sil	Ob	597	-0.550000011920929	15.999
598	Ob	1	Sil	Ob	598	-0.550000011920929	15.999
599	Ob	1	Sil	Ob	599	-0.550000011920929	15.999
600	Ob	1	Sil	Ob	600	-0.550000011920929	15.999
601	Ob	1	Sil	Ob	601	-0.550000011920929	15.999
602	Ob	1	Sil	Ob	602	-0.550000011920929	15.999
603	Ob	1	Sil	Ob	603	-0.550000011920929	15.999
604	Ob	1	Sil	Ob	604	-0.550000011920929	15.999
605	Ob	1	Sil	Ob	605	-0.550000011920929	15.999
606	Ob	1	Sil	Ob	606	-0.550000011920929	15.999
607	Ob	1	Sil	Ob	607	-0.550000011920929	15.999
608	Ob	1	Sil	Ob	608	-0.550000011920929	15.999
609	Ob	1	Sil	Ob	609	-0.550000011920929	15.999
610	Ob	1	Sil	Ob	610	-0.550000011920929	15.999
611	Ob	1	Sil	Ob	611	-0.550000011920929	15.999
612	Ob	1	Sil	Ob	612	-0.550000011920929	15.999
613	Ob	1	Sil	Ob	613	-0.550000011920929	15.999
614	Ob	1	Sil	Ob	614	-0.550000011920929	15.999
615	Ob	1	Sil	Ob	615	-0.550000011920929	15.999
616	Ob	1	Sil	Ob	616	-0.550000011920929	15.999
617	Ob	1	Sil	Ob	617	-0.550000011920929	15.999
618	Ob	1	Sil	Ob	618	-0.550000011920929	15.999
619	Ob	1	Sil	Ob	619	-0.550000011920929	15.999
620	Ob	1	Sil	Ob	620	-0.550000011920929	15.999
621	Ob	1	Sil	Ob	621	-0.550000011920929	15.999
622	Ob	1	Sil	Ob	622	-0.550000011920929	15.999
623	Ob	1	Sil	Ob	623	-0.550000011920929	15.999
624	Ob	1	Sil	Ob	624	-0.550000011920929	15.999
625	Ob	1	Sil	Ob	625	-0.550000011920929	15.999
626	Ob	1	Sil	Ob	626	-0.550000011920929	15.999
627	Ob	1	Sil	Ob	627	-0.550000011920929	15.999
628	Ob	1	Sil	Ob	628	-0.550000011920929	15.999
629	Ob	1	Sil	Ob	629	-0.550000011920929	15.999
630	Ob	1	Sil	Ob	630	-0.550000011920929	15.999
631	Ob	1	Sil	Ob	631	-0.550000011920929	15.999
632	Ob	1	Sil	Ob	632	-0.550000011920929	15.999
633	Ob	1	Sil	Ob	633	-0.550000011920929	15.999
634	Ob	1	Sil	Ob	634	-0.550000011920929	15.999
635	Ob	1	Sil	Ob	635	-0.550000011920929	15.999
636	Ob	1	Sil	Ob	636	-0.550000011920929	15.999
637	Ob	1	Sil	Ob	637	-0.550000011920929	15.999
638	Ob	1	Sil	Ob	638	-0.550000011920929	15.999
639	Ob	1	Sil	Ob	639	-0.550000011920929	15.999
640	Ob	1	Sil	Ob	640	-0.550000011920929	15.999
641	Ob	1	Sil	Ob	641	-0.550000011920929	15.999
642	Ob	1	Sil	Ob	642	-0.550000011920929	15.999
643	Ob	1	Sil	Ob	643	-0.550000011920929	15.999
644	Ob	1	Sil	Ob	644	-0.550000011920929	15.999
645	Ob	1	Sil	Ob	645	-0.550000011920929	15.999
646	Ob	1	Sil	Ob	646	-0.550000011920929	15.999
647	Ob	1	Sil	Ob	647	-0.550000011920929	15.999
648	Ob	1	Sil	Ob	648	-0.550000011920929	15.999
649	Ob	1	Sil	Ob	649	-0.550000011920929	15.999
650	Ob	1	Sil	Ob	650	-0.550000011920929	15.999
651	Ob	1	Sil	Ob	651	-0.550000011920929	15.999
652	Ob	1	Sil	Ob	652	-0.550000011920929	15.999
653	Ob	1	Sil	Ob	653	-0.550000011920929	15.999
654	Ob	1	Sil	Ob	654	-0.550000011920929	15.999
655	Ob	1	Sil	Ob	655	-0.550000011920929	15.999
656	Ob	1	Sil	Ob	656	-0.550000011920929	15.999
657	Ob	1	Sil	Ob	657	-0.550000011920929	15.999
658	Ob	1	Sil	Ob	658	-0.550000011920929	15.999
659	Ob	1	Sil	Ob	659	-0.550000011920929	15.999
660	Ob	1	Sil	Ob	660	-0.550000011920929	15.999
661	Ob	1	Sil	Ob	661	-0.550000011920929	15.999
662	Ob	1	Sil	Ob	662	-0.550000011920929	15.999
663	Ob	1	Sil	Ob	663	-0.550000011920929	15.999
664	Ob	1	Sil	Ob	664	-0.550000011920929	15.999
665	Ob	1	Sil	Ob	665	-0.550000011920929	15.999
666	Ob	1	Sil	Ob	666	-0.550000011920929	15.999
667	Ob	1	Sil	Ob	667	-0.550000011920929	15.999
668	Ob	1	Sil	Ob	668	-0.550000011920929	15.999
669	Ob	1	Sil	Ob	669	-0.550000011920929	15.999
670	Ob	1	Sil	Ob	670	-0.550000011920929	15.999
671	Ob	1	Sil	Ob	671	-0.550000011920929	15.999
672	Ob	1	Sil	Ob	672	-0.550000011920929	15.999
673	Ob	1	Sil	Ob	673	-0.550000011920929	15.999
674	Ob	1	Sil	Ob	674	-0.550000011920929	15.999
675	Ob	1	Sil	Ob	675	-0.550000011920929	15.999
676	Ob	1	Sil	Ob	676	-0.550000011920929	15.999
677	Ob	1	Sil	Ob	677	-0.550000011920929	15.999
678	Ob	1	Sil	Ob	678	-0.550000011920929	15.999
679	Ob	1	Sil	Ob	679	-0.550000011920929	15.999
680	Ob	1	Sil	Ob	680	-0.550000011920929	15.999
681	Ob	1	Sil	Ob	681	-0.550000011920929	15.999
682	Ob	1	Sil	Ob	682	-0.550000011920929	15.999
683	Ob	1	Sil	Ob	683	-0.550000011920929	15.999
684	Ob	1	Sil	Ob	684	-0.550000011920929	15.999
685	Ob	1	Sil	Ob	685	-0.550000011920929	15.999
686	Ob	1	Sil	Ob	686	-0.550000011920929	15.999
687	Ob	1	Sil	Ob	687	-0.550000011920929	15.999
688	Ob	1	Sil	Ob	688	-0.550000011920929	15.999
689	Ob	1	Sil	Ob	689	-0.550000011920929	15.999
690	Ob	1	Sil	Ob	690	-0.550000011920929	15.999
691	Ob	1	Sil	Ob	691	-0.550000011920929	15.999
692	Ob	1	Sil	Ob	692	-0.550000011920929	15.999
693	Ob	1	Sil	Ob	693	-0.550000011920929	15.999
694	Ob	1	Sil	Ob	694	-0.550000011920929	15.999
695	Ob	1	Sil	Ob	695	-0.550000011920929	15.999
696	Ob	1	Sil	Ob	696	-0.550000011920929	15.999
697	Ob	1	Sil	Ob	697	-0.550000011920929	15.999
698	Ob	1	Sil	Ob	698	-0.550000011920929	15.999
699	Ob	1	Sil	Ob	699	-0.550000011920929	15.999
700	Ob	1	Sil	Ob	700	-0.550000011920929	15.999
701	Ob	1	Sil	Ob	701	-0.550000011920929	15.999
702	Ob	1	Sil	Ob	702	-0.550000011920929	15.999
703	Ob	1	Sil	Ob	703	-0.550000011920929	15.999
704	Ob	1	Sil	Ob	704	-0.550000011920929	15.999
705	Ob	1	Sil	Ob	705	-0.550000011920929	15.999
706	Ob	1	Sil	Ob	706	-0.550000011920929	15.999
707	Ob	1	Sil	Ob	707	-0.550000011920929	15.999
708	Ob	1	Sil	Ob	708	-0.550000011920929	15.999
709	Ob	1	Sil	Ob	709	-0.550000011920929	15.999
710	Ob	1	Sil	Ob	710	-0.550000011920929	15.999
711	Ob	1	Sil	Ob	711	-0.550000011920929	15.999
712	Ob	1	Sil	Ob	712	-0.550000011920929	15.999
713	Ob	1	Sil	Ob	713	-0.550000011920929	15.999
714	Ob	1	Sil	Ob	714	-0.550000011920929	15.999
715	Ob	1	Sil	Ob	715	-0.550000011920929	15.999
716	Ob	1	Sil	Ob	716	-0.550000011920929	15.999
717	Ob	1	Sil	Ob	717	-0.550000011920929	15.999
718	Ob	1	Sil	Ob	718	-0.550000011920929	15.999
719	Ob	1	Sil	Ob	719	-0.550000011920929	15.999
720	Ob	1	Sil	Ob	720	-0.550000011920929	15.999
721	Ob	1	Sil	Ob	721	-0.550000011920929	15.999
722	Ob	1	Sil	Ob	722	-0.550000011920929	15.999
723	Ob	1	Sil	Ob	723	-0.550000011920929	15.999
724	Ob	1	Sil	Ob	724	-0.550000011920929	15.999
725	Ob	1	Sil	Ob	725	-0.550000011920929	15.999
726	Ob	1	Sil	Ob	726	-0.550000011920929	15.999
727	Ob	1	Sil	Ob	727	-0.550000011920929	15.999
728	Ob	1	Sil	Ob	728	-0.550000011920929	15.999
729	Ob	1	Sil	Ob	729	-0.550000011920929	15.999
730	Ob	1	Sil	Ob	730	-0.550000011920929	15.999
731	Ob	1	Sil	Ob	731	-0.550000011920929	15.999
732	Ob	1	Sil	Ob	732	-0.550000011920929	15.999
733	Ob	1	Sil	Ob	733	-0.550000011920929	15.999
734	Ob	1	Sil	Ob	734	-0.550000011920929	15.999
735	Ob	1	Sil	Ob	735	-0.550000011920929	15.999
736	Ob	1	Sil	Ob	736	-0.550000011920929	15.999
737	Ob	1	Sil	Ob	737	-0.550000011920929	15.999
738	Ob	1	Sil	Ob	738	-0.550000011920929	15.999
739	Ob	1	Sil	Ob	739	-0.550000011920929	15.999
740	Ob	1	Sil	Ob	740	-0.550000011920929	15.999
741	Ob	1	Sil	Ob	741	-0.550000011920929	15.999
742	Ob	1	Sil	Ob	742	-0.550000011920929	15.999
743	Ob	1	Sil	Ob	743	-0.550000011920929	15.999
744	Ob	1	Sil	Ob	744	-0.550000011920929	15.999
745	Ob	1	Sil	Ob	745	-0.550000011920929	15.999
746	Ob	1	Sil	Ob	746	-0.550000011920929	15.999
747	Ob	1	Sil	Ob	747	-0.550000011920929	15.999
748	Ob	1	Sil	Ob	748	-0.550000011920929	15.999
749	Ob	1	Sil	Ob	749	-0.550000011920929	15.999
750	Ob	1	Sil	Ob	750	-0.550000011920929	15.999
751	Ob	1	Sil	Ob	751	-0.550000011920929	15.999
752	Ob	1	Sil	Ob	752	-0.550000011920929	15.999
753	Ob	1	Sil	Ob	753	-0.550000011920929	15.999
754	Ob	1	Sil	Ob	754	-0.550000011920929	15.999
755	Ob	1	Sil	Ob	755	-0.550000011920929	15.999
756	Ob	1	Sil	Ob	756	-0.550000011920929	15.999
757	Ob	1	Sil	Ob	757	-0.550000011920929	15.999
758	Ob	1	Sil	Ob	758	-0.550000011920929	15.999
759	Ob	1	Sil	Ob	759	-0.550000011920929	15.999
760	Ob	1	Sil	Ob	760	-0.550000011920929	15.999
761	Ob	1	Sil	Ob	761	-0.550000011920929	15.999
762	Ob	1	Sil	Ob	762	-0.550000011920929	15.999
763	Ob	1	Sil	Ob	763	-0.550000011920929	15.999
764	Ob	1	Sil	Ob	764	-0.550000011920929	15.999
765	Ob	1	Sil	Ob	765	-0.550000011920929	15.999
766	Ob	1	Sil	Ob	766	-0.550000011920929	15.999
767	Ob	1	Sil	Ob	767	-0.550000011920929	15.999
768	Ob	1	Sil	Ob	768	-0.550000011920929	15.999
769	Ob	1	Sil	Ob	769	-0.550000011920929	15.999
770	Ob	1	Sil	Ob	770	-0.550000011920929	15.999
771	Ob	1	Sil	Ob	771	-0.550000011920929	15.999
772	Ob	1	Sil	Ob	772	-0.550000011920929	15.999
773	Ob	1	Sil	Ob	773	-0.550000011920929	15.999
774	Ob	1	Sil	Ob	774	-0.550000011920929	15.999
775	Ob	1	Sil	Ob	775	-0.550000011920929	15.999
776	Ob	1	Sil	Ob	776	-0.550000011920929	15.999
777	Ob	1	Sil	Ob	777	-0.550000011920929	15.999
778	Ob	1	Sil	Ob	778	-0.550000011920929	15.999
779	Ob	1	Sil	Ob	779	-0.550000011920929	15.999
780	Ob	1	Sil	Ob	780	-0.550000011920929	15.999
781	Ob	1	Sil	Ob	781	-0.550000011920929	15.999
782	Ob	1	Sil	Ob	782	-0.550000011920929	15.999
783	Ob	1	Sil	Ob	783	-0.550000011920929	15.999
784	Ob	1	Sil	Ob	784	-0.550000011920929	15.999
785	Ob	1	Sil	Ob	785	-0.550000011920929	15.999
786	Ob	1	Sil	Ob	786	-0.550000011920929	15.999
787	Ob	1	Sil	Ob	787	-0.550000011920929	15.999
788	Ob	1	Sil	Ob	788	-0.550000011920929	15.999
789	Ob	1	Sil	Ob	789	-0.550000011920929	15.999
790	Ob	1	Sil	Ob	790	-0.550000011920929	15.999
791	Ob	1	Sil	Ob	791	-0.550000011920929	15.999
792	Ob	1	Sil	Ob	792	-0.550000011920929	15.999
793	Ob	1	Sil	Ob	793	-0.550000011920929	15.999
794	Ob	1	Sil	Ob	794	-0.550000011920929	15.999
795	Ob	1	Sil	Ob	795	-0.550000011920929	15.999
796	Ob	1	Sil	Ob	796	-0.550000011920929	15.999
797	Ob	1	Sil	Ob	797	-0.550000011920929	15.999
798	Ob	1	Sil	Ob	798	-0.550000011920929	15.999
799	Ob	1	Sil	Ob	799	-0.550000011920929	15.999
800	Ob	1	Sil	Ob	800	-0.550000011920929	15.999
801	Ob	1	Sil	Ob	801	-0.550000011920929	15.999
802	Ob	1	Sil	Ob	802	-0.550000011920929	15.999
803	Ob	1	Sil	Ob	803	-0.550000011920929	15.999
804	Ob	1	Sil	Ob	804	-0.550000011920929	15.999
805	Ob	1	Sil	Ob	805	-0.550000011920929	15.999
806	Ob	1	Sil	Ob	806	-0.550000011920929	15.999
807	Ob	1	Sil	Ob	807	-0.550000011920929	15.999
808	Ob	1	Sil	Ob	808	-0.550000011920929	15.999
809	Ob	1	Sil	Ob	809	-0.550000011920929	15.999
810	Ob	1	Sil	Ob	810	-0.550000011920929	15.999
811	Ob	1	Sil	Ob	811	-0.550000011920929	15.999
812	Ob	1	Sil	Ob	812	-0.550000011920929	15.999
813	Ob	1	Sil	Ob	813	-0.550000011920929	15.999
814	Ob	1	Sil	Ob	814	-0.550000011920929	15.999
815	Ob	1	Sil	Ob	815	-0.550000011920929	15.999
816	Ob	1	Sil	Ob	816	-0.550000011920929	15.999
817	Ob	1	Sil	Ob	817	-0.550000011920929	15.999
818	Ob	1	Sil	Ob	818	-0.550000011920929	15.999
819	Ob	1	Sil	Ob	819	-0.550000011920929	15.999
820	Ob	1	Sil	Ob	820	-0.550000011920929	15.999
821	Ob	1	Sil	Ob	821	-0.550000011920929	15.999
822	Ob	1	Sil	Ob	822	-0.550000011920929	15.999
823	Ob	1	Sil	Ob	823	-0.550000011920929	15.999
824	Ob	1	Sil	Ob	824	-0.550000011920929	15.999
825	Ob	1	Sil	Ob	825	-0.550000011920929	15.999
826	Ob	1	Sil	Ob	826	-0.550000011920929	15.999
827	Ob	1	Sil	Ob	827	-0.550000011920929	15.999
828	Ob	1	Sil	Ob	828	-0.550000011920929	15.999
829	Ob	1	Sil	Ob	829	-0.550000011920929	15.999
830	Ob	1	Sil	Ob	830	-0.550000011920929	15.999
831	Ob	1	Sil	Ob	831	-0.550000011920929	15.999
832	Ob	1	Sil	Ob	832	-0.550000011920929	15.999
833	Ob	1	Sil	Ob	833	-0.550000011920929	15.999
834	Ob	1	Sil	Ob	834	-0.550000011920929	15.999
835	Ob	1	Sil	Ob	835	-0.550000011920929	15.999
836	Ob	1	Sil	Ob	836	-0.550000011920929	15.999
837	Ob	1	Sil	Ob	837	-0.550000011920929	15.999
838	Ob	1	Sil	Ob	838	-0.550000011920929	15.999
839	Ob	1	Sil	Ob	839	-0.550000011920929	15.999
840	Ob	1	Sil	Ob	840	-0.550000011920929	15.999
841	Ob	1	Sil	Ob	841	-0.550000011920929	15.999
842	Ob	1	Sil	Ob	842	-0.550000011920929	15.999
843	Ob	1	Sil	Ob	843	-0.550000011920929	15.999
844	Ob	1	Sil	Ob	844	-0.550000011920929	15.999
845	Ob	1	Sil	Ob	845	-0.550000011920929	15.999
846	Ob	1	Sil	Ob	846	-0.550000011920929	15.999
847	Ob	1	Sil	Ob	847	-0.550000011920929	15.999
848	Ob	1	Sil	Ob	848	-0.550000011920929	15.999
849	Ob	1	Sil	Ob	849	-0.550000011920929	15.999
850	Ob	1	Sil	Ob	850	-0.550000011920929	15.999
851	Ob	1	Sil	Ob	851	-0.550000011920929	15.999
852	Ob	1	Sil	Ob	852	-0.550000011920929	15.999
853	Ob	1	Sil	Ob	853	-0.550000011920929	15.999
854	Ob	1	Sil	Ob	854	-0.550000011920929	15.999
855	Ob	1	Sil	Ob	855	-0.550000011920929	15.999
856	Ob	1	Sil	Ob	856	-0.550000011920929	15.999
857	Ob	1	Sil	Ob	857	-0.550000011920929	15.999
858	Ob	1	Sil	Ob	858	-0.550000011920929	15.999
859	Ob	1	Sil	Ob	859	-0.550000011920929	15.999
860	Ob	1	Sil	Ob	860	-0.550000011920929	15.999
861	Ob	1	Sil	Ob	861	-0.550000011920929	15.999
862	Ob	1	Sil	Ob	862	-0.550000011920929	15.999
863	Ob	1	Sil	Ob	863	-0.550000011920929	15.999
864	Ob	1	Sil	Ob	864	-0.550000011920929	15.999
865	Ob	1	Sil	Ob	865	-0.550000011920929	15.999
866	Ob	1	Sil	Ob	866	-0.550000011920929	15.999
867	Ob	1	Sil	Ob	867	-0.550000011920929	15.999
868	Ob	1	Sil	Ob	868	-0.550000011920929	15.999
869	Ob	1	Sil	Ob	869	-0.550000011920929	15.999
870	Ob	1	Sil	Ob	870	-0.550000011920929	15.999
871	Ob	1	Sil	Ob	871	-0.550000011920929	15.999
872	Ob	1	Sil	Ob	872	-0.550000011920929	15.999
873	Ob	1	Sil	Ob	873	-0.550000011920929	15.999
874	Ob	1	Sil	Ob	874	-0.550000011920929	15.999
875	Ob	1	Sil	Ob	875	-0.550000011920929	15.999
876	Ob	1	Sil	Ob	876	-0.550000011920929	15.999
877	Ob	1	Sil	Ob	877	-0.550000011920929	15.999
878	Ob	1	Sil	Ob	878	-0.550000011920929	15.999
879	Ob	1	Sil	Ob	879	-0.550000011920929	15.999
880	Ob	1	Sil	Ob	880	-0.550000011920929	15.999
881	Ob	1	Sil	Ob	881	-0.550000011920929	15.999
882	Ob	1	Sil	Ob	882	-0.550000011920929	15.999
883	Ob	1	Sil	Ob	883	-0.550000011920929	15.999
884	Ob	1	Sil	Ob	884	-0.550000011920929	15.999
885	Ob	1	Sil	Ob	885	-0.550000011920929	15.999
886	Ob	1	Sil	Ob	886	-0.550000011920929	15.999
887	Ob	1	Sil	Ob	887	-0.550000011920929	15.999
888	Ob	1	Sil	Ob	888	-0.550000011920929	15.999
889	Ob	1	Sil	Ob	889	-0.550000011920929	15.999
890	Ob	1	Sil	Ob	890	-0.550000011920929	15.999
891	Ob	1	Sil	Ob	891	-0.550000011920929	15.999
892	Ob	1	Sil	Ob	892	-0.550000011920929	15.999
893	Ob	1	Sil	Ob	893	-0.550000011920929	15.999
894	Ob	1	Sil	Ob	894	-0.550000011920929	15.999
895	Ob	1	Sil	Ob	895	-0.550000011920929	15.999
896	Ob	1	Sil	Ob	896	-0.550000011920929	15.999
897	Cm	1	Sil	Cm	897	-0.3499999940395355	12.011
898	Cm	1	Sil	Cm	898	-0.3499999940395355	12.011
899	Cm	1	Sil	Cm	899	-0.3499999940395355	12.011
900	Cm	1	Sil	Cm	900	-0.3499999940395355	12.011
901	Cm	1	Sil	Cm	901	-0.3499999940395355	12.011
902	Cm	1	Sil	Cm	902	-0.3499999940395355	12.011
903	Cm	1	Sil	Cm	903	-0.3499999940395355	12.011
904	Cm	1	Sil	Cm	904	-0.3499999940395355	12.011
905	Cm	1	Sil	Cm	905	-0.3499999940395355	12.011
906	Cm	1	Sil	Cm	906	-0.3499999940395355	12.011
907	Cm	1	Sil	Cm	907	-0.3499999940395355	12.011
908	Cm	1	Sil	Cm	908	-0.3499999940395355	12.011
909	Cm	1	Sil	Cm	909	-0.3499999940395355	12.011
910	Cm	1	Sil	Cm	910	-0.3499999940395355	12.011
911	Cm	1	Sil	Cm	911	-0.3499999940395355	12.011
912	Cm	1	Sil	Cm	912	-0.3499999940395355	12.011
913	Cm	1	Sil	Cm	913	-0.3499999940395355	12.011
914	Cm	1	Sil	Cm	914	-0.3499999940395355	12.011
915	Cm	1	Sil	Cm	915	-0.3499999940395355	12.011
916	Cm	1	Sil	Cm	916	-0.3499999940395355	12.011
917	Cm	1	Sil	Cm	917	-0.3499999940395355	12.011
918	Cm	1	Sil	Cm	918	-0.3499999940395355	12.011
919	Cm	1	Sil	Cm	919	-0.3499999940395355	12.011
920	Cm	1	Sil	Cm	920	-0.3499999940395355	12.011
921	Cm	1	Sil	Cm	921	-0.3499999940395355	12.011
922	Cm	1	Sil	Cm	922	-0.3499999940395355	12.011
923	Cm	1	Sil	Cm	923	-0.3499999940395355	12.011
924	Cm	1	Sil	Cm	924	-0.3499999940395355	12.011
925	Cm	1	Sil	Cm	925	-0.3499999940395355	12.011
926	Cm	1	Sil	Cm	926	-0.3499999940395355	12.011
927	Cm	1	Sil	Cm	927	-0.3499999940395355	12.011
928	Cm	1	Sil	Cm	928	-0.3499999940395355	12.011
929	Cm	1	Sil	Cm	929	-0.3499999940395355	12.011
930	Cm	1	Sil	Cm	930	-0.3499999940395355	12.011
931	Cm	1	Sil	Cm	931	-0.3499999940395355	12.011
932	Cm	1	Sil	Cm	932	-0.3499999940395355	12.011
933	Cm	1	Sil	Cm	933	-0.3499999940395355	12.011
934	Cm	1	Sil	Cm	934	-0.3499999940395355	12.011
935	Cm	1	Sil	Cm	935	-0.3499999940395355	12.011
936	Cm	1	Sil	Cm	936	-0.3499999940395355	12.011
937	Cm	1	Sil	Cm	937	-0.3499999940395355	12.011
938	Cm	1	Sil	Cm	938	-0.3499999940395355	12.011
939	Cm	1	Sil	Cm	939	-0.3499999940395355	12.011
940	Cm	1	Sil	Cm	940	-0.3499999940395355	12.011
941	Cm	1	Sil	Cm	941	-0.3499999940395355	12.011
942	Cm	1	Sil	Cm	942	-0.3499999940395355	12.011
943	Cm	1	Sil	Cm	943	-0.3499999940395355	12.011
944	Cm	1	Sil	Cm	944	-0.3499999940395355	12.011
945	Cm	1	Sil	Cm	945	-0.3499999940395355	12.011
946	Cm	1	Sil	Cm	946	-0.3499999940395355	12.011
947	Cm	1	Sil	Cm	947	-0.3499999940395355	12.011
948	Cm	1	Sil	Cm	948	-0.3499999940395355	12.011
949	Cm	1	Sil	Cm	949	-0.3499999940395355	12.011
950	Cm	1	Sil	Cm	950	-0.3499999940395355	12.011
951	Cm	1	Sil	Cm	951	-0.3499999940395355	12.011
952	Cm	1	Sil	Cm	952	-0.3499999940395355	12.011
953	Cm	1	Sil	Cm	953	-0.3499999940395355	12.011
954	Cm	1	Sil	Cm	954	-0.3499999940395355	12.011
955	Cm	1	Sil	Cm	955	-0.3499999940395355	12.011
956	Cm	1	Sil	Cm	956	-0.3499999940395355	12.011
957	Cm	1	Sil	Cm	957	-0.3499999940395355	12.011
958	Cm	1	Sil	Cm	958	-0.3499999940395355	12.011
959	Cm	1	Sil	Cm	959	-0.3499999940395355	12.011
960	Cm	1	Sil	Cm	960	-0.3499999940395355	12.011
961	Cm	1	Sil	Cm	961	-0.3499999940395355	12.011
962	Cm	1	Sil	Cm	962	-0.3499999940395355	12.011
963	Cm	1	Sil	Cm	963	-0.3499999940395355	12.011
964	Cm	1	Sil	Cm	964	-0.3499999940395355	12.011
965	Cm	1	Sil	Cm	965	-0.3499999940395355	12.011
966	Cm	1	Sil	Cm	966	-0.3499999940395355	12.011
967	Cm	1	Sil	Cm	967	-0.3499999940395355	12.011
968	Cm	1	Sil	Cm	968	-0.3499999940395355	12.011
969	Cm	1	Sil	Cm	969	-0.3499999940395355	12.011
970	Cm	1	Sil	Cm	970	-0.3499999940395355	12.011
971	Cm	1	Sil	Cm	971	-0.3499999940395355	12.011
972	Cm	1	Sil	Cm	972	-0.3499999940395355	12.011
973	Cm	1	Sil	Cm	973	-0.3499999940395355	12.011
974	Cm	1	Sil	Cm	974	-0.3499999940395355	12.011
975	Cm	1	Sil	Cm	975	-0.3499999940395355	12.011
976	Cm	1	Sil	Cm	976	-0.3499999940395355	12.011
977	Cm	1	Sil	Cm	977	-0.3499999940395355	12.011
978	Cm	1	Sil	Cm	978	-0.3499999940395355	12.011
979	Cm	1	Sil	Cm	979	-0.3499999940395355	12.011
980	Cm	1	Sil	Cm	980	-0.3499999940395355	12.011
981	Cm	1	Sil	Cm	981	-0.3499999940395355	12.011
982	Cm	1	Sil	Cm	982	-0.3499999940395355	12.011
983	Cm	1	Sil	Cm	983	-0.3499999940395355	12.011
984	Cm	1	Sil	Cm	984	-0.3499999940395355	12.011
985	Cm	1	Sil	Cm	985	-0.3499999940395355	12.011
986	Cm	1	Sil	Cm	986	-0.3499999940395355	12.011
987	Cm	1	Sil	Cm	987	-0.3499999940395355	12.011
988	Cm	1	Sil	Cm	988	-0.3499999940395355	12.011
989	Cm	1	Sil	Cm	989	-0.3499999940395355	12.011
990	Cm	1	Sil	Cm	990	-0.3499999940395355	12.011
991	Cm	1	Sil	Cm	991	-0.3499999940395355	12.011
992	Cm	1	Sil	Cm	992	-0.3499999940395355	12.011
993	Cm	1	Sil	Cm	993	-0.3499999940395355	12.011
994	Cm	1	Sil	Cm	994	-0.3499999940395355	12.011
995	Cm	1	Sil	Cm	995	-0.3499999940395355	12.011
996	Cm	1	Sil	Cm	996	-0.3499999940395355	12.011
997	Cm	1	Sil	Cm	997	-0.3499999940395355	12.011
998	Cm	1	Sil	Cm	998	-0.3499999940395355	12.011
999	Cm	1	Sil	Cm	999	-0.3499999940395355	12.011
1000	Cm	1	Sil	Cm	1000	-0.3499999940395355	12.011
1001	Cm	1	Sil	Cm	1001	-0.3499999940395355	12.011
1002	Cm	1	Sil	Cm	1002	-0.3499999940395355	12.011
1003	Cm	1	Sil	Cm	1003	-0.3499999940395355	12.011
1004	Cm	1	Sil	Cm	1004	-0.3499999940395355	12.011
1005	Cm	1	Sil	Cm	1005	-0.3499999940395355	12.011
1006	Cm	1	Sil	Cm	1006	-0.3499999940395355	12.011
1007	Cm	1	Sil	Cm	1007	-0.3499999940395355	12.011
1008	Cm	1	Sil	Cm	1008	-0.3499999940395355	12.011
1009	Cm	1	Sil	Cm	1009	-0.3499999940395355	12.011
1010	Cm	1	Sil	Cm	1010	-0.3499999940395355	12.011
1011	Cm	1	Sil	Cm	1011	-0.3499999940395355	12.011
1012	Cm	1	Sil	Cm	1012	-0.3499999940395355	12.011
1013	Cm	1	Sil	Cm	1013	-0.3499999940395355	12.011
1014	Cm	1	Sil	Cm	1014	-0.3499999940395355	12.011
1015	Cm	1	Sil	Cm	1015	-0.3499999940395355	12.011
1016	Cm	1	Sil	Cm	1016	-0.3499999940395355	12.011
1017	Cm	1	Sil	Cm	1017	-0.3499999940395355	12.011
1018	Cm	1	Sil	Cm	1018	-0.3499999940395355	12.011
1019	Cm	1	Sil	Cm	1019	-0.3499999940395355	12.011
1020	Cm	1	Sil	Cm	1020	-0.3499999940395355	12.011
1021	Cm	1	Sil	Cm	1021	-0.3499999940395355	12.011
1022	Cm	1	Sil	Cm	1022	-0.3499999940395355	12.011
1023	Cm	1	Sil	Cm	1023	-0.3499999940395355	12.011
1024	Cm	1	Sil	Cm	1024	-0.3499999940395355	12.011
1025	Cm	1	Sil	Cm	1025	-0.3499999940395355	12.011
1026	Cm	1	Sil	Cm	1026	-0.3499999940395355	12.011
1027	Cm	1	Sil	Cm	1027	-0.3499999940395355	12.011
1028	Cm	1	Sil	Cm	1028	-0.3499999940395355	12.011
1029	Cm	1	Sil	Cm	1029	-0.3499999940395355	12.011
1030	Cm	1	Sil	Cm	1030	-0.3499999940395355	12.011
1031	Cm	1	Sil	Cm	1031	-0.3499999940395355	12.011
1032	Cm	1	Sil	Cm	1032	-0.3499999940395355	12.011
1033	Cm	1	Sil	Cm	1033	-0.3499999940395355	12.011
1034	Cm	1	Sil	Cm	1034	-0.3499999940395355	12.011
1035	Cm	1	Sil	Cm	1035	-0.3499999940395355	12.011
1036	Cm	1	Sil	Cm	1036	-0.3499999940395355	12.011
1037	Cm	1	Sil	Cm	1037	-0.3499999940395355	12.011
1038	Cm	1	Sil	Cm	1038	-0.3499999940395355	12.011
1039	Cm	1	Sil	Cm	1039	-0.3499999940395355	12.011
1040	Cm	1	Sil	Cm	1040	-0.3499999940395355	12.011
1041	Cm	1	Sil	Cm	1041	-0.3499999940395355	12.011
1042	Cm	1	Sil	Cm	1042	-0.3499999940395355	12.011
1043	Cm	1	Sil	Cm	1043	-0.3499999940395355	12.011
1044	Cm	1	Sil	Cm	1044	-0.3499999940395355	12.011
1045	Cm	1	Sil	Cm	1045	-0.3499999940395355	12.011
1046	Cm	1	Sil	Cm	1046	-0.3499999940395355	12.011
1047	Cm	1	Sil	Cm	1047	-0.3499999940395355	12.011
1048	Cm	1	Sil	Cm	1048	-0.3499999940395355	12.011
1049	Cm	1	Sil	Cm	1049	-0.3499999940395355	12.011
1050	Cm	1	Sil	Cm	1050	-0.3499999940395355	12.011
1051	Cm	1	Sil	Cm	1051	-0.3499999940395355	12.011
1052	Cm	1	Sil	Cm	1052	-0.3499999940395355	12.011
1053	Cm	1	Sil	Cm	1053	-0.3499999940395355	12.011
1054	Cm	1	Sil	Cm	1054	-0.3499999940395355	12.011
1055	Cm	1	Sil	Cm	1055	-0.3499999940395355	12.011
1056	Cm	1	Sil	Cm	1056	-0.3499999940395355	12.011
1057	Cm	1	Sil	Cm	1057	-0.3499999940395355	12.011
1058	Cm	1	Sil	Cm	1058	-0.3499999940395355	12.011
1059	Cm	1	Sil	Cm	1059	-0.3499999940395355	12.011
1060	Cm	1	Sil	Cm	1060	-0.3499999940395355	12.011
1061	Cm	1	Sil	Cm	1061	-0.3499999940395355	12.011
1062	Cm	1	Sil	Cm	1062	-0.3499999940395355	12.011
1063	Cm	1	Sil	Cm	1063	-0.3499999940395355	12.011
1064	Cm	1	Sil	Cm	1064	-0.3499999940395355	12.011
1065	Cm	1	Sil	Cm	1065	-0.3499999940395355	12.011
1066	Cm	1	Sil	Cm	1066	-0.3499999940395355	12.011
1067	Cm	1	Sil	Cm	1067	-0.3499999940395355	12.011
1068	Cm	1	Sil	Cm	1068	-0.3499999940395355	12.011
1069	Cm	1	Sil	Cm	1069	-0.3499999940395355	12.011
1070	Cm	1	Sil	Cm	1070	-0.3499999940395355	12.011
1071	Cm	1	Sil	Cm	1071	-0.3499999940395355	12.011
1072	Cm	1	Sil	Cm	1072	-0.3499999940395355	12.011
1073	Cm	1	Sil	Cm	1073	-0.3499999940395355	12.011
1074	Cm	1	Sil	Cm	1074	-0.3499999940395355	12.011
1075	Cm	1	Sil	Cm	1075	-0.3499999940395355	12.011
1076	Cm	1	Sil	Cm	1076	-0.3499999940395355	12.011
1077	Cm	1	Sil	Cm	1077	-0.3499999940395355	12.011
1078	Cm	1	Sil	Cm	1078	-0.3499999940395355	12.011
1079	Cm	1	Sil	Cm	1079	-0.3499999940395355	12.011
1080	Cm	1	Sil	Cm	1080	-0.3499999940395355	12.011
1081	Cm	1	Sil	Cm	1081	-0.3499999940395355	12.011
1082	Cm	1	Sil	Cm	1082	-0.3499999940395355	12.011
1083	Cm	1	Sil	Cm	1083	-0.3499999940395355	12.011
1084	Cm	1	Sil	Cm	1084	-0.3499999940395355	12.011
1085	Cm	1	Sil	Cm	1085	-0.3499999940395355	12.011
1086	Cm	1	Sil	Cm	1086	-0.3499999940395355	12.011
1087	Cm	1	Sil	Cm	1087	-0.3499999940395355	12.011
1088	Cm	1	Sil	Cm	1088	-0.3499999940395355	12.011
1089	Cm	1	Sil	Cm	1089	-0.3499999940395355	12.011
1090	Cm	1	Sil	Cm	1090	-0.3499999940395355	12.011
1091	Cm	1	Sil	Cm	1091	-0.3499999940395355	12.011
1092	Cm	1	Sil	Cm	1092	-0.3499999940395355	12.011
1093	Cm	1	Sil	Cm	1093	-0.3499999940395355	12.011
1094	Cm	1	Sil	Cm	1094	-0.3499999940395355	12.011
1095	Cm	1	Sil	Cm	1095	-0.3499999940395355	12.011
1096	Cm	1	Sil	Cm	1096	-0.3499999940395355	12.011
1097	Cm	1	Sil	Cm	1097	-0.3499999940395355	12.011
1098	Cm	1	Sil	Cm	1098	-0.3499999940395355	12.011
1099	Cm	1	Sil	Cm	1099	-0.3499999940395355	12.011
1100	Cm	1	Sil	Cm	1100	-0.3499999940395355	12.011
1101	Cm	1	Sil	Cm	1101	-0.3499999940395355	12.011
1102	Cm	1	Sil	Cm	1102	-0.3499999940395355	12.011
1103	Cm	1	Sil	Cm	1103	-0.3499999940395355	12.011
1104	Cm	1	Sil	Cm	1104	-0.3499999940395355	12.011
1105	Cm	1	Sil	Cm	1105	-0.3499999940395355	12.011
1106	Cm	1	Sil	Cm	1106	-0.3499999940395355	12.011
1107	Cm	1	Sil	Cm	1107	-0.3499999940395355	12.011
1108	Cm	1	Sil	Cm	1108	-0.3499999940395355	12.011
1109	Cm	1	Sil	Cm	1109	-0.3499999940395355	12.011
1110	Cm	1	Sil	Cm	1110	-0.3499999940395355	12.011
1111	Cm	1	Sil	Cm	1111	-0.3499999940395355	12.011
1112	Cm	1	Sil	Cm	1112	-0.3499999940395355	12.011
1113	Cm	1	Sil	Cm	1113	-0.3499999940395355	12.011
1114	Cm	1	Sil	Cm	1114	-0.3499999940395355	12.011
1115	Cm	1	Sil	Cm	1115	-0.3499999940395355	12.011
1116	Cm	1	Sil	Cm	1116	-0.3499999940395355	12.011
1117	Cm	1	Sil	Cm	1117	-0.3499999940395355	12.011
1118	Cm	1	Sil	Cm	1118	-0.3499999940395355	12.011
1119	Cm	1	Sil	Cm	1119	-0.3499999940395355	12.011
1120	Cm	1	Sil	Cm	1120	-0.3499999940395355	12.011
1121	Sib	1	Sil	Sib	1121	1.100000023841858	28.0855
1122	Sib	1	Sil	Sib	1122	1.100000023841858	28.0855
1123	Sim	1	Sil	Sim	1123	0.722000002861023	28.0855
1124	Sib	1	Sil	Sib	1124	1.100000023841858	28.0855
1125	Sib	1	Sil	Sib	1125	1.100000023841858	28.0855
1126	Sim	1	Sil	Sim	1126	0.722000002861023	28.0855
1127	Sib	1	Sil	Sib	1127	1.100000023841858	28.0855
1128	Sib	1	Sil	Sib	1128	1.100000023841858	28.0855
1129	Sim	1	Sil	Sim	1129	0.722000002861023	28.0855
1130	Sib	1	Sil	Sib	1130	1.100000023841858	28.0855
1131	Sib	1	Sil	Sib	1131	1.100000023841858	28.0855
1132	Sim	1	Sil	Sim	1132	0.722000002861023	28.0855
1133	Sib	1	Sil	Sib	1133	1.100000023841858	28.0855
1134	Sib	1	Sil	Sib	1134	1.100000023841858	28.0855
1135	Sim	1	Sil	Sim	1135	0.722000002861023	28.0855
1136	Sib	1	Sil	Sib	1136	1.100000023841858	28.0855
1137	Sib	1	Sil	Sib	1137	1.100000023841858	28.0855
1138	Sim	1	Sil	Sim	1138	0.722000002861023	28.0855
1139	Sib	1	Sil	Sib	1139	1.100000023841858	28.0855
1140	Sib	1	Sil	Sib	1140	1.100000023841858	28.0855
1141	Sim	1	Sil	Sim	1141	0.722000002861023	28.0855
1142	Sib	1	Sil	Sib	1142	1.100000023841858	28.0855
1143	Sib	1	Sil	Sib	1143	1.100000023841858	28.0855
1144	Sim	1	Sil	Sim	1144	0.722000002861023	28.0855
1145	Sib	1	Sil	Sib	1145	1.100000023841858	28.0855
1146	Sib	1	Sil	Sib	1146	1.100000023841858	28.0855
1147	Sim	1	Sil	Sim	1147	0.722000002861023	28.0855
1148	Sib	1	Sil	Sib	1148	1.100000023841858	28.0855
1149	Sib	1	Sil	Sib	1149	1.100000023841858	28.0855
1150	Sim	1	Sil	Sim	1150	0.722000002861023	28.0855
1151	Sib	1	Sil	Sib	1151	1.100000023841858	28.0855
1152	Sib	1	Sil	Sib	1152	1.100000023841858	28.0855
1153	Sim	1	Sil	Sim	1153	0.722000002861023	28.0855
1154	Sib	1	Sil	Sib	1154	1.100000023841858	28.0855
1155	Sib	1	Sil	Sib	1155	1.100000023841858	28.0855
1156	Sim	1	Sil	Sim	1156	0.722000002861023	28.0855
1157	Sib	1	Sil	Sib	1157	1.100000023841858	28.0855
1158	Sib	1	Sil	Sib	1158	1.100000023841858	28.0855
1159	Sim	1	Sil	Sim	1159	0.722000002861023	28.0855
1160	Sib	1	Sil	Sib	1160	1.100000023841858	28.0855
1161	Sib	1	Sil	Sib	1161	1.100000023841858	28.0855
1162	Sim	1	Sil	Sim	1162	0.722000002861023	28.0855
1163	Sib	1	Sil	Sib	1163	1.100000023841858	28.0855
1164	Sib	1	Sil	Sib	1164	1.100000023841858	28.0855
1165	Sim	1	Sil	Sim	1165	0.722000002861023	28.0855
1166	Sib	1	Sil	Sib	1166	1.100000023841858	28.0855
1167	Sib	1	Sil	Sib	1167	1.100000023841858	28.0855
1168	Sim	1	Sil	Sim	1168	0.722000002861023	28.0855
1169	Sib	1	Sil	Sib	1169	1.100000023841858	28.0855
1170	Sib	1	Sil	Sib	1170	1.100000023841858	28.0855
1171	Sim	1	Sil	Sim	1171	0.722000002861023	28.0855
1172	Sib	1	Sil	Sib	1172	1.100000023841858	28.0855
1173	Sib	1	Sil	Sib	1173	1.100000023841858	28.0855
1174	Sim	1	Sil	Sim	1174	0.722000002861023	28.0855
1175	Sib	1	Sil	Sib	1175	1.100000023841858	28.0855
1176	Sib	1	Sil	Sib	1176	1.100000023841858	28.0855
1177	Sim	1	Sil	Sim	1177	0.722000002861023	28.0855
1178	Sib	1	Sil	Sib	1178	1.100000023841858	28.0855
1179	Sib	1	Sil	Sib	1179	1.100000023841858	28.0855
1180	Sim	1	Sil	Sim	1180	0.722000002861023	28.0855
1181	Sib	1	Sil	Sib	1181	1.100000023841858	28.0855
1182	Sib	1	Sil	Sib	1182	1.100000023841858	28.0855
1183	Sim	1	Sil	Sim	1183	0.722000002861023	28.0855
1184	Sib	1	Sil	Sib	1184	1.100000023841858	28.0855
1185	Sib	1	Sil	Sib	1185	1.100000023841858	28.0855
1186	Sim	1	Sil	Sim	1186	0.722000002861023	28.0855
1187	Sib	1	Sil	Sib	1187	1.100000023841858	28.0855
1188	Sib	1	Sil	Sib	1188	1.100000023841858	28.0855
1189	Sim	1	Sil	Sim	1189	0.722000002861023	28.0855
1190	Sib	1	Sil	Sib	1190	1.100000023841858	28.0855
1191	Sib	1	Sil	Sib	1191	1.100000023841858	28.0855
1192	Sim	1	Sil	Sim	1192	0.722000002861023	28.0855
1193	Sib	1	Sil	Sib	1193	1.100000023841858	28.0855
1194	Sib	1	Sil	Sib	1194	1.100000023841858	28.0855
1195	Sim	1	Sil	Sim	1195	0.722000002861023	28.0855
1196	Sib	1	Sil	Sib	1196	1.100000023841858	28.0855
1197	Sib	1	Sil	Sib	1197	1.100000023841858	28.0855
1198	Sim	1	Sil	Sim	1198	0.722000002861023	28.0855
1199	Sib	1	Sil	Sib	1199	1.100000023841858	28.0855
1200	Sib	1	Sil	Sib	1200	1.100000023841858	28.0855
1201	Sim	1	Sil	Sim	1201	0.722000002861023	28.0855
1202	Sib	1	Sil	Sib	1202	1.100000023841858	28.0855
1203	Sib	1	Sil	Sib	1203	1.100000023841858	28.0855
1204	Sim	1	Sil	Sim	1204	0.722000002861023	28.0855
1205	Sib	1	Sil	Sib	1205	1.100000023841858	28.0855
1206	Sib	1	Sil	Sib	1206	1.100000023841858	28.0855
1207	Sib	1	Sil	Sib	1207	1.100000023841858	28.0855
1208	Sib	1	Sil	Sib	1208	1.100000023841858	28.0855
1209	Sib	1	Sil	Sib	1209	1.100000023841858	28.0855
1210	Sib	1	Sil	Sib	1210	1.100000023841858	28.0855
1211	Sib	1	Sil	Sib	1211	1.100000023841858	28.0855
1212	Sib	1	Sil	Sib	1212	1.100000023841858	28.0855
1213	Sib	1	Sil	Sib	1213	1.100000023841858	28.0855
1214	Sib	1	Sil	Sib	1214	1.100000023841858	28.0855
1215	Sib	1	Sil	Sib	1215	1.100000023841858	28.0855
1216	Sib	1	Sil	Sib	1216	1.100000023841858	28.0855
1217	Sib	1	Sil	Sib	1217	1.100000023841858	28.0855
1218	Sib	1	Sil	Sib	1218	1.100000023841858	28.0855
1219	Sib	1	Sil	Sib	1219	1.100000023841858	28.0855
1220	Sib	1	Sil	Sib	1220	1.100000023841858	28.0855
1221	Sib	1	Sil	Sib	1221	1.100000023841858	28.0855
1222	Sib	1	Sil	Sib	1222	1.100000023841858	28.0855
1223	Sib	1	Sil	Sib	1223	1.100000023841858	28.0855
1224	Sib	1	Sil	Sib	1224	1.100000023841858	28.0855
1225	Sib	1	Sil	Sib	1225	1.100000023841858	28.0855
1226	Sib	1	Sil	Sib	1226	1.100000023841858	28.0855
1227	Sib	1	Sil	Sib	1227	1.100000023841858	28.0855
1228	Sib	1	Sil	Sib	1228	1.100000023841858	28.0855
1229	Sib	1	Sil	Sib	1229	1.100000023841858	28.0855
1230	Sib	1	Sil	Sib	1230	1.100000023841858	28.0855
1231	Sib	1	Sil	Sib	1231	1.100000023841858	28.0855
1232	Sib	1	Sil	Sib	1232	1.100000023841858	28.0855
1233	Sib	1	Sil	Sib	1233	1.100000023841858	28.0855
1234	Sib	1	Sil	Sib	1234	1.100000023841858	28.0855
1235	Sib	1	Sil	Sib	1235	1.100000023841858	28.0855
1236	Sib	1	Sil	Sib	1236	1.100000023841858	28.0855
1237	Sib	1	Sil	Sib	1237	1.100000023841858	28.0855
1238	Sib	1	Sil	Sib	1238	1.100000023841858	28.0855
1239	Sib	1	Sil	Sib	1239	1.100000023841858	28.0855
1240	Sib	1	Sil	Sib	1240	1.100000023841858	28.0855
1241	Sib	1	Sil	Sib	1241	1.100000023841858	28.0855
1242	Sib	1	Sil	Sib	1242	1.100000023841858	28.0855
1243	Sib	1	Sil	Sib	1243	1.100000023841858	28.0855
1244	Sib	1	Sil	Sib	1244	1.100000023841858	28.0855
1245	Sib	1	Sil	Sib	1245	1.100000023841858	28.0855
1246	Sib	1	Sil	Sib	1246	1.100000023841858	28.0855
1247	Sib	1	Sil	Sib	1247	1.100000023841858	28.0855
1248	Sib	1	Sil	Sib	1248	1.100000023841858	28.0855
1249	Sib	1	Sil	Sib	1249	1.100000023841858	28.0855
1250	Sib	1	Sil	Sib	1250	1.100000023841858	28.0855
1251	Sib	1	Sil	Sib	1251	1.100000023841858	28.0855
1252	Sib	1	Sil	Sib	1252	1.100000023841858	28.0855
1253	Sib	1	Sil	Sib	1253	1.100000023841858	28.0855
1254	Sib	1	Sil	Sib	1254	1.100000023841858	28.0855
1255	Sib	1	Sil	Sib	1255	1.100000023841858	28.0855
1256	Sib	1	Sil	Sib	1256	1.100000023841858	28.0855
1257	Sib	1	Sil	Sib	1257	1.100000023841858	28.0855
1258	Sib	1	Sil	Sib	1258	1.100000023841858	28.0855
1259	Sib	1	Sil	Sib	1259	1.100000023841858	28.0855
1260	Sib	1	Sil	Sib	1260	1.100000023841858	28.0855
1261	Sib	1	Sil	Sib	1261	1.100000023841858	28.0855
1262	Sib	1	Sil	Sib	1262	1.100000023841858	28.0855
1263	Sib	1	Sil	Sib	1263	1.100000023841858	28.0855
1264	Sib	1	Sil	Sib	1264	1.100000023841858	28.0855
1265	Sib	1	Sil	Sib	1265	1.100000023841858	28.0855
1266	Sib	1	Sil	Sib	1266	1.100000023841858	28.0855
1267	Sib	1	Sil	Sib	1267	1.100000023841858	28.0855
1268	Sib	1	Sil	Sib	1268	1.100000023841858	28.0855
1269	Sib	1	Sil	Sib	1269	1.100000023841858	28.0855
1270	Sib	1	Sil	Sib	1270	1.100000023841858	28.0855
1271	Sib	1	Sil	Sib	1271	1.100000023841858	28.0855
1272	Sib	1	Sil	Sib	1272	1.100000023841858	28.0855
1273	Sib	1	Sil	Sib	1273	1.100000023841858	28.0855
1274	Sib	1	Sil	Sib	1274	1.100000023841858	28.0855
1275	Sib	1	Sil	Sib	1275	1.100000023841858	28.0855
1276	Sib	1	Sil	Sib	1276	1.100000023841858	28.0855
1277	Sib	1	Sil	Sib	1277	1.100000023841858	28.0855
1278	Sib	1	Sil	Sib	1278	1.100000023841858	28.0855
1279	Sib	1	Sil	Sib	1279	1.100000023841858	28.0855
1280	Sib	1	Sil	Sib	1280	1.100000023841858	28.0855
1281	Sib	1	Sil	Sib	1281	1.100000023841858	28.0855
1282	Sib	1	Sil	Sib	1282	1.100000023841858	28.0855
1283	Sib	1	Sil	Sib	1283	1.100000023841858	28.0855
1284	Sib	1	Sil	Sib	1284	1.100000023841858	28.0855
1285	Sib	1	Sil	Sib	1285	1.100000023841858	28.0855
1286	Sib	1	Sil	Sib	1286	1.100000023841858	28.0855
1287	Sib	1	Sil	Sib	1287	1.100000023841858	28.0855
1288	Sib	1	Sil	Sib	1288	1.100000023841858	28.0855
1289	Sib	1	Sil	Sib	1289	1.100000023841858	28.0855
1290	Sim	1	Sil	Sim	1290	0.722000002861023	28.0855
1291	Sib	1	Sil	Sib	1291	1.100000023841858	28.0855
1292	Sib	1	Sil	Sib	1292	1.100000023841858	28.0855
1293	Sim	1	Sil	Sim	1293	0.722000002861023	28.0855
1294	Sib	1	Sil	Sib	1294	1.100000023841858	28.0855
1295	Sib	1	Sil	Sib	1295	1.100000023841858	28.0855
1296	Sim	1	Sil	Sim	1296	0.722000002861023	28.0855
1297	Sib	1	Sil	Sib	1297	1.100000023841858	28.0855
1298	Sib	1	Sil	Sib	1298	1.100000023841858	28.0855
1299	Sim	1	Sil	Sim	1299	0.722000002861023	28.0855
1300	Sib	1	Sil	Sib	1300	1.100000023841858	28.0855
1301	Sib	1	Sil	Sib	1301	1.100000023841858	28.0855
1302	Sim	1	Sil	Sim	1302	0.722000002861023	28.0855
1303	Sib	1	Sil	Sib	1303	1.100000023841858	28.0855
1304	Sib	1	Sil	Sib	1304	1.100000023841858	28.0855
1305	Sim	1	Sil	Sim	1305	0.722000002861023	28.0855
1306	Sib	1	Sil	Sib	1306	1.100000023841858	28.0855
1307	Sib	1	Sil	Sib	1307	1.100000023841858	28.0855
1308	Sim	1	Sil	Sim	1308	0.722000002861023	28.0855
1309	Sib	1	Sil	Sib	1309	1.100000023841858	28.0855
1310	Sib	1	Sil	Sib	1310	1.100000023841858	28.0855
1311	Sim	1	Sil	Sim	1311	0.722000002861023	28.0855
1312	Sib	1	Sil	Sib	1312	1.100000023841858	28.0855
1313	Sib	1	Sil	Sib	1313	1.100000023841858	28.0855
1314	Sim	1	Sil	Sim	1314	0.722000002861023	28.0855
1315	Sib	1	Sil	Sib	1315	1.100000023841858	28.0855
1316	Sib	1	Sil	Sib	1316	1.100000023841858	28.0855
1317	Sim	1	Sil	Sim	1317	0.722000002861023	28.0855
1318	Sib	1	Sil	Sib	1318	1.100000023841858	28.0855
1319	Sib	1	Sil	Sib	1319	1.100000023841858	28.0855
1320	Sim	1	Sil	Sim	1320	0.722000002861023	28.0855
1321	Sib	1	Sil	Sib	1321	1.100000023841858	28.0855
1322	Sib	1	Sil	Sib	1322	1.100000023841858	28.0855
1323	Sim	1	Sil	Sim	1323	0.722000002861023	28.0855
1324	Sib	1	Sil	Sib	1324	1.100000023841858	28.0855
1325	Sib	1	Sil	Sib	1325	1.100000023841858	28.0855
1326	Sim	1	Sil	Sim	1326	0.722000002861023	28.0855
1327	Sib	1	Sil	Sib	1327	1.100000023841858	28.0855
1328	Sib	1	Sil	Sib	1328	1.100000023841858	28.0855
1329	Sim	1	Sil	Sim	1329	0.722000002861023	28.0855
1330	Sib	1	Sil	Sib	1330	1.100000023841858	28.0855
1331	Sib	1	Sil	Sib	1331	1.100000023841858	28.0855
1332	Sim	1	Sil	Sim	1332	0.722000002861023	28.0855
1333	Sib	1	Sil	Sib	1333	1.100000023841858	28.0855
1334	Sib	1	Sil	Sib	1334	1.100000023841858	28.0855
1335	Sim	1	Sil	Sim	1335	0.722000002861023	28.0855
1336	Sib	1	Sil	Sib	1336	1.100000023841858	28.0855
1337	Sib	1	Sil	Sib	1337	1.100000023841858	28.0855
1338	Sim	1	Sil	Sim	1338	0.722000002861023	28.0855
1339	Sib	1	Sil	Sib	1339	1.100000023841858	28.0855
1340	Sib	1	Sil	Sib	1340	1.100000023841858	28.0855
1341	Sim	1	Sil	Sim	1341	0.722000002861023	28.0855
1342	Sib	1	Sil	Sib	1342	1.100000023841858	28.0855
1343	Sib	1	Sil	Sib	1343	1.100000023841858	28.0855
1344	Sim	1	Sil	Sim	1344	0.722000002861023	28.0855
1345	Sib	1	Sil	Sib	1345	1.100000023841858	28.0855
1346	Sib	1	Sil	Sib	1346	1.100000023841858	28.0855
1347	Sim	1	Sil	Sim	1347	0.722000002861023	28.0855
1348	Sib	1	Sil	Sib	1348	1.100000023841858	28.0855
1349	Sib	1	Sil	Sib	1349	1.100000023841858	28.0855
1350	Sim	1	Sil	Sim	1350	0.722000002861023	28.0855
1351	Sib	1	Sil	Sib	1351	1.100000023841858	28.0855
1352	Sib	1	Sil	Sib	1352	1.100000023841858	28.0855
1353	Sim	1	Sil	Sim	1353	0.722000002861023	28.0855
1354	Sib	1	Sil	Sib	1354	1.100000023841858	28.0855
1355	Sib	1	Sil	Sib	1355	1.100000023841858	28.0855
1356	Sim	1	Sil	Sim	1356	0.722000002861023	28.0855
1357	Sib	1	Sil	Sib	1357	1.100000023841858	28.0855
1358	Sib	1	Sil	Sib	1358	1.100000023841858	28.0855
1359	Sim	1	Sil	Sim	1359	0.722000002861023	28.0855
1360	Sib	1	Sil	Sib	1360	1.100000023841858	28.0855
1361	Sib	1	Sil	Sib	1361	1.100000023841858	28.0855
1362	Sim	1	Sil	Sim	1362	0.722000002861023	28.0855
1363	Sib	1	Sil	Sib	1363	1.100000023841858	28.0855
1364	Sib	1	Sil	Sib	1364	1.100000023841858	28.0855
1365	Sim	1	Sil	Sim	1365	0.722000002861023	28.0855
1366	Sib	1	Sil	Sib	1366	1.100000023841858	28.0855
1367	Sib	1	Sil	Sib	1367	1.100000023841858	28.0855
1368	Sim	1	Sil	Sim	1368	0.722000002861023	28.0855
1369	Sib	1	Sil	Sib	1369	1.100000023841858	28.0855
1370	Sib	1	Sil	Sib	1370	1.100000023841858	28.0855
1371	Sim	1	Sil	Sim	1371	0.722000002861023	28.0855
1372	Sib	1	Sil	Sib	1372	1.100000023841858	28.0855
1373	Sib	1	Sil	Sib	1373	1.100000023841858	28.0855
1374	Sib	1	Sil	Sib	1374	1.100000023841858	28.0855
1375	Sim	1	Sil	Sim	1375	0.722000002861023	28.0855
1376	Sib	1	Sil	Sib	1376	1.100000023841858	28.0855
1377	Sib	1	Sil	Sib	1377	1.100000023841858	28.0855
1378	Sim	1	Sil	Sim	1378	0.722000002861023	28.0855
1379	Sib	1	Sil	Sib	1379	1.100000023841858	28.0855
1380	Sib	1	Sil	Sib	1380	1.100000023841858	28.0855
1381	Sim	1	Sil	Sim	1381	0.722000002861023	28.0855
1382	Sib	1	Sil	Sib	1382	1.100000023841858	28.0855
1383	Sib	1	Sil	Sib	1383	1.100000023841858	28.0855
1384	Sim	1	Sil	Sim	1384	0.722000002861023	28.0855
1385	Sib	1	Sil	Sib	1385	1.100000023841858	28.0855
1386	Sib	1	Sil	Sib	1386	1.100000023841858	28.0855
1387	Sim	1	Sil	Sim	1387	0.722000002861023	28.0855
1388	Sib	1	Sil	Sib	1388	1.100000023841858	28.0855
1389	Sib	1	Sil	Sib	1389	1.100000023841858	28.0855
1390	Sim	1	Sil	Sim	1390	0.722000002861023	28.0855
1391	Sib	1	Sil	Sib	1391	1.100000023841858	28.0855
1392	Sib	1	Sil	Sib	1392	1.100000023841858	28.0855
1393	Sim	1	Sil	Sim	1393	0.722000002861023	28.0855
1394	Sib	1	Sil	Sib	1394	1.100000023841858	28.0855
1395	Sib	1	Sil	Sib	1395	1.100000023841858	28.0855
1396	Sim	1	Sil	Sim	1396	0.722000002861023	28.0855
1397	Sib	1	Sil	Sib	1397	1.100000023841858	28.0855
1398	Sib	1	Sil	Sib	1398	1.100000023841858	28.0855
1399	Sim	1	Sil	Sim	1399	0.722000002861023	28.0855
1400	Sib	1	Sil	Sib	1400	1.100000023841858	28.0855
1401	Sib	1	Sil	Sib	1401	1.100000023841858	28.0855
1402	Sim	1	Sil	Sim	1402	0.722000002861023	28.0855
1403	Sib	1	Sil	Sib	1403	1.100000023841858	28.0855
1404	Sib	1	Sil	Sib	1404	1.100000023841858	28.0855
1405	Sim	1	Sil	Sim	1405	0.722000002861023	28.0855
1406	Sib	1	Sil	Sib	1406	1.100000023841858	28.0855
1407	Sib	1	Sil	Sib	1407	1.100000023841858	28.0855
1408	Sim	1	Sil	Sim	1408	0.722000002861023	28.0855
1409	Sib	1	Sil	Sib	1409	1.100000023841858	28.0855
1410	Sib	1	Sil	Sib	1410	1.100000023841858	28.0855
1411	Sim	1	Sil	Sim	1411	0.722000002861023	28.0855
1412	Sib	1	Sil	Sib	1412	1.100000023841858	28.0855
1413	Sib	1	Sil	Sib	1413	1.100000023841858	28.0855
1414	Sim	1	Sil	Sim	1414	0.722000002861023	28.0855
1415	Sib	1	Sil	Sib	1415	1.100000023841858	28.0855
1416	Sib	1	Sil	Sib	1416	1.100000023841858	28.0855
1417	Sim	1	Sil	Sim	1417	0.722000002861023	28.0855
1418	Sib	1	Sil	Sib	1418	1.100000023841858	28.0855
1419	Sib	1	Sil	Sib	1419	1.100000023841858	28.0855
1420	Sim	1	Sil	Sim	1420	0.722000002861023	28.0855
1421	Sib	1	Sil	Sib	1421	1.100000023841858	28.0855
1422	Sib	1	Sil	Sib	1422	1.100000023841858	28.0855
1423	Sim	1	Sil	Sim	1423	0.722000002861023	28.0855
1424	Sib	1	Sil	Sib	1424	1.100000023841858	28.0855
1425	Sib	1	Sil	Sib	1425	1.100000023841858	28.0855
1426	Sim	1	Sil	Sim	1426	0.722000002861023	28.0855
1427	Sib	1	Sil	Sib	1427	1.100000023841858	28.0855
1428	Sib	1	Sil	Sib	1428	1.100000023841858	28.0855
1429	Sim	1	Sil	Sim	1429	0.722000002861023	28.0855
1430	Sib	1	Sil	Sib	1430	1.100000023841858	28.0855
1431	Sib	1	Sil	Sib	1431	1.100000023841858	28.0855
1432	Sim	1	Sil	Sim	1432	0.722000002861023	28.0855
1433	Sib	1	Sil	Sib	1433	1.100000023841858	28.0855
1434	Sib	1	Sil	Sib	1434	1.100000023841858	28.0855
1435	Sim	1	Sil	Sim	1435	0.722000002861023	28.0855
1436	Sib	1	Sil	Sib	1436	1.100000023841858	28.0855
1437	Sib	1	Sil	Sib	1437	1.100000023841858	28.0855
1438	Sim	1	Sil	Sim	1438	0.722000002861023	28.0855
1439	Sib	1	Sil	Sib	1439	1.100000023841858	28.0855
1440	Sib	1	Sil	Sib	1440	1.100000023841858	28.0855
1441	Sim	1	Sil	Sim	1441	0.722000002861023	28.0855
1442	Sib	1	Sil	Sib	1442	1.100000023841858	28.0855
1443	Sib	1	Sil	Sib	1443	1.100000023841858	28.0855
1444	Sim	1	Sil	Sim	1444	0.722000002861023	28.0855
1445	Sib	1	Sil	Sib	1445	1.100000023841858	28.0855
1446	Sib	1	Sil	Sib	1446	1.100000023841858	28.0855
1447	Sim	1	Sil	Sim	1447	0.722000002861023	28.0855
1448	Sib	1	Sil	Sib	1448	1.100000023841858	28.0855
1449	Sib	1	Sil	Sib	1449	1.100000023841858	28.0855
1450	Sim	1	Sil	Sim	1450	0.722000002861023	28.0855
1451	Sib	1	Sil	Sib	1451	1.100000023841858	28.0855
1452	Sib	1	Sil	Sib	1452	1.100000023841858	28.0855
1453	Sim	1	Sil	Sim	1453	0.722000002861023	28.0855
1454	Sib	1	Sil	Sib	1454	1.100000023841858	28.0855
1455	Sib	1	Sil	Sib	1455	1.100000023841858	28.0855
1456	Sim	1	Sil	Sim	1456	0.722000002861023	28.0855
1457	Sib	1	Sil	Sib	1457	1.100000023841858	28.0855
1458	Sib	1	Sil	Sib	1458	1.100000023841858	28.0855
1459	Sib	1	Sil	Sib	1459	1.100000023841858	28.0855
1460	Sib	1	Sil	Sib	1460	1.100000023841858	28.0855
1461	Sib	1	Sil	Sib	1461	1.100000023841858	28.0855
1462	Sib	1	Sil	Sib	1462	1.100000023841858	28.0855
1463	Sib	1	Sil	Sib	1463	1.100000023841858	28.0855
1464	Sib	1	Sil	Sib	1464	1.100000023841858	28.0855
1465	Sib	1	Sil	Sib	1465	1.100000023841858	28.0855
1466	Sib	1	Sil	Sib	1466	1.100000023841858	28.0855
1467	Sib	1	Sil	Sib	1467	1.100000023841858	28.0855
1468	Sib	1	Sil	Sib	1468	1.100000023841858	28.0855
1469	Sib	1	Sil	Sib	1469	1.100000023841858	28.0855
1470	Sib	1	Sil	Sib	1470	1.100000023841858	28.0855
1471	Sib	1	Sil	Sib	1471	1.100000023841858	28.0855
1472	Sib	1	Sil	Sib	1472	1.100000023841858	28.0855
1473	Sib	1	Sil	Sib	1473	1.100000023841858	28.0855
1474	Sib	1	Sil	Sib	1474	1.100000023841858	28.0855
1475	Sib	1	Sil	Sib	1475	1.100000023841858	28.0855
1476	Sib	1	Sil	Sib	1476	1.100000023841858	28.0855
1477	Sib	1	Sil	Sib	1477	1.100000023841858	28.0855
1478	Sib	1	Sil	Sib	1478	1.100000023841858	28.0855
1479	Sib	1	Sil	Sib	1479	1.100000023841858	28.0855
1480	Sib	1	Sil	Sib	1480	1.100000023841858	28.0855
1481	Sib	1	Sil	Sib	1481	1.100000023841858	28.0855
1482	Sib	1	Sil	Sib	1482	1.100000023841858	28.0855
1483	Sib	1	Sil	Sib	1483	1.100000023841858	28.0855
1484	Sib	1	Sil	Sib	1484	1.100000023841858	28.0855
1485	Sib	1	Sil	Sib	1485	1.100000023841858	28.0855
1486	Sib	1	Sil	Sib	1486	1.100000023841858	28.0855
1487	Sib	1	Sil	Sib	1487	1.100000023841858	28.0855
1488	Sib	1	Sil	Sib	1488	1.100000023841858	28.0855
1489	Sib	1	Sil	Sib	1489	1.100000023841858	28.0855
1490	Sib	1	Sil	Sib	1490	1.100000023841858	28.0855
1491	Sib	1	Sil	Sib	1491	1.100000023841858	28.0855
1492	Sib	1	Sil	Sib	1492	1.100000023841858	28.0855
1493	Sib	1	Sil	Sib	1493	1.100000023841858	28.0855
1494	Sib	1	Sil	Sib	1494	1.100000023841858	28.0855
1495	Sib	1	Sil	Sib	1495	1.100000023841858	28.0855
1496	Sib	1	Sil	Sib	1496	1.100000023841858	28.0855
1497	Sib	1	Sil	Sib	1497	1.100000023841858	28.0855
1498	Sib	1	Sil	Sib	1498	1.100000023841858	28.0855
1499	Sib	1	Sil	Sib	1499	1.100000023841858	28.0855
1500	Sib	1	Sil	Sib	1500	1.100000023841858	28.0855
1501	Sib	1	Sil	Sib	1501	1.100000023841858	28.0855
1502	Sib	1	Sil	Sib	1502	1.100000023841858	28.0855
1503	Sib	1	Sil	Sib	1503	1.100000023841858	28.0855
1504	Sib	1	Sil	Sib	1504	1.100000023841858	28.0855
1505	Sib	1	Sil	Sib	1505	1.100000023841858	28.0855
1506	Sib	1	Sil	Sib	1506	1.100000023841858	28.0855
1507	Sib	1	Sil	Sib	1507	1.100000023841858	28.0855
1508	Sib	1	Sil	Sib	1508	1.100000023841858	28.0855
1509	Sib	1	Sil	Sib	1509	1.100000023841858	28.0855
1510	Sib	1	Sil	Sib	1510	1.100000023841858	28.0855
1511	Sib	1	Sil	Sib	1511	1.100000023841858	28.0855
1512	Sib	1	Sil	Sib	1512	1.100000023841858	28.0855
1513	Sib	1	Sil	Sib	1513	1.100000023841858	28.0855
1514	Sib	1	Sil	Sib	1514	1.100000023841858	28.0855
1515	Sib	1	Sil	Sib	1515	1.100000023841858	28.0855
1516	Sib	1	Sil	Sib	1516	1.100000023841858	28.0855
1517	Sib	1	Sil	Sib	1517	1.100000023841858	28.0855
1518	Sib	1	Sil	Sib	1518	1.100000023841858	28.0855
1519	Sib	1	Sil	Sib	1519	1.100000023841858	28.0855
1520	Sib	1	Sil	Sib	1520	1.100000023841858	28.0855
1521	Sib	1	Sil	Sib	1521	1.100000023841858	28.0855
1522	Sib	1	Sil	Sib	1522	1.100000023841858	28.0855
1523	Sib	1	Sil	Sib	1523	1.100000023841858	28.0855
1524	Sib	1	Sil	Sib	1524	1.100000023841858	28.0855
1525	Sib	1	Sil	Sib	1525	1.100000023841858	28.0855
1526	Sib	1	Sil	Sib	1526	1.100000023841858	28.0855
1527	Sib	1	Sil	Sib	1527	1.100000023841858	28.0855
1528	Sib	1	Sil	Sib	1528	1.100000023841858	28.0855
1529	Sib	1	Sil	Sib	1529	1.100000023841858	28.0855
1530	Sib	1	Sil	Sib	1530	1.100000023841858	28.0855
1531	Sib	1	Sil	Sib	1531	1.100000023841858	28.0855
1532	Sib	1	Sil	Sib	1532	1.100000023841858	28.0855
1533	Sib	1	Sil	Sib	1533	1.100000023841858	28.0855
1534	Sib	1	Sil	Sib	1534	1.100000023841858	28.0855
1535	Sib	1	Sil	Sib	1535	1.100000023841858	28.0855
1536	Sib	1	Sil	Sib	1536	1.100000023841858	28.0855
1537	Sib	1	Sil	Sib	1537	1.100000023841858	28.0855
1538	Sib	1	Sil	Sib	1538	1.100000023841858	28.0855
1539	Sib	1	Sil	Sib	1539	1.100000023841858	28.0855
1540	Sib	1	Sil	Sib	1540	1.100000023841858	28.0855
1541	Sib	1	Sil	Sib	1541	1.100000023841858	28.0855
1542	Sim	1	Sil	Sim	1542	0.722000002861023	28.0855
1543	Sib	1	Sil	Sib	1543	1.100000023841858	28.0855
1544	Sib	1	Sil	Sib	1544	1.100000023841858	28.0855
1545	Sim	1	Sil	Sim	1545	0.722000002861023	28.0855
1546	Sib	1	Sil	Sib	1546	1.100000023841858	28.0855
1547	Sib	1	Sil	Sib	1547	1.100000023841858	28.0855
1548	Sim	1	Sil	Sim	1548	0.722000002861023	28.0855
1549	Sib	1	Sil	Sib	1549	1.100000023841858	28.0855
1550	Sib	1	Sil	Sib	1550	1.100000023841858	28.0855
1551	Sim	1	Sil	Sim	1551	0.722000002861023	28.0855
1552	Sib	1	Sil	Sib	1552	1.100000023841858	28.0855
1553	Sib	1	Sil	Sib	1553	1.100000023841858	28.0855
1554	Sim	1	Sil	Sim	1554	0.722000002861023	28.0855
1555	Sib	1	Sil	Sib	1555	1.100000023841858	28.0855
1556	Sib	1	Sil	Sib	1556	1.100000023841858	28.0855
1557	Sim	1	Sil	Sim	1557	0.722000002861023	28.0855
1558	Sib	1	Sil	Sib	1558	1.100000023841858	28.0855
1559	Sib	1	Sil	Sib	1559	1.100000023841858	28.0855
1560	Sim	1	Sil	Sim	1560	0.722000002861023	28.0855
1561	Sib	1	Sil	Sib	1561	1.100000023841858	28.0855
1562	Sib	1	Sil	Sib	1562	1.100000023841858	28.0855
1563	Sim	1	Sil	Sim	1563	0.722000002861023	28.0855
1564	Sib	1	Sil	Sib	1564	1.100000023841858	28.0855
1565	Sib	1	Sil	Sib	1565	1.100000023841858	28.0855
1566	Sim	1	Sil	Sim	1566	0.722000002861023	28.0855
1567	Sib	1	Sil	Sib	1567	1.100000023841858	28.0855
1568	Sib	1	Sil	Sib	1568	1.100000023841858	28.0855
1569	Sim	1	Sil	Sim	1569	0.722000002861023	28.0855
1570	Sib	1	Sil	Sib	1570	1.100000023841858	28.0855
1571	Sib	1	Sil	Sib	1571	1.100000023841858	28.0855
1572	Sim	1	Sil	Sim	1572	0.722000002861023	28.0855
1573	Sib	1	Sil	Sib	1573	1.100000023841858	28.0855
1574	Sib	1	Sil	Sib	1574	1.100000023841858	28.0855
1575	Sim	1	Sil	Sim	1575	0.722000002861023	28.0855
1576	Sib	1	Sil	Sib	1576	1.100000023841858	28.0855
1577	Sib	1	Sil	Sib	1577	1.100000023841858	28.0855
1578	Sim	1	Sil	Sim	1578	0.722000002861023	28.0855
1579	Sib	1	Sil	Sib	1579	1.100000023841858	28.0855
1580	Sib	1	Sil	Sib	1580	1.100000023841858	28.0855
1581	Sim	1	Sil	Sim	1581	0.722000002861023	28.0855
1582	Sib	1	Sil	Sib	1582	1.100000023841858	28.0855
1583	Sib	1	Sil	Sib	1583	1.100000023841858	28.0855
1584	Sim	1	Sil	Sim	1584	0.722000002861023	28.0855
1585	Sib	1	Sil	Sib	1585	1.100000023841858	28.0855
1586	Sib	1	Sil	Sib	1586	1.100000023841858	28.0855
1587	Sim	1	Sil	Sim	1587	0.722000002861023	28.0855
1588	Sib	1	Sil	Sib	1588	1.100000023841858	28.0855
1589	Sib	1	Sil	Sib	1589	1.100000023841858	28.0855
1590	Sim	1	Sil	Sim	1590	0.722000002861023	28.0855
1591	Sib	1	Sil	Sib	1591	1.100000023841858	28.0855
1592	Sib	1	Sil	Sib	1592	1.100000023841858	28.0855
1593	Sim	1	Sil	Sim	1593	0.722000002861023	28.0855
1594	Sib	1	Sil	Sib	1594	1.100000023841858	28.0855
1595	Sib	1	Sil	Sib	1595	1.100000023841858	28.0855
1596	Sim	1	Sil	Sim	1596	0.722000002861023	28.0855
1597	Sib	1	Sil	Sib	1597	1.100000023841858	28.0855
1598	Sib	1	Sil	Sib	1598	1.100000023841858	28.0855
1599	Sim	1	Sil	Sim	1599	0.722000002861023	28.0855
1600	Sib	1	Sil	Sib	1600	1.100000023841858	28.0855
1601	Sib	1	Sil	Sib	1601	1.100000023841858	28.0855
1602	Sim	1	Sil	Sim	1602	0.722000002861023	28.0855
1603	Sib	1	Sil	Sib	1603	1.100000023841858	28.0855
1604	Sib	1	Sil	Sib	1604	1.100000023841858	28.0855
1605	Sim	1	Sil	Sim	1605	0.722000002861023	28.0855
1606	Sib	1	Sil	Sib	1606	1.100000023841858	28.0855
1607	Sib	1	Sil	Sib	1607	1.100000023841858	28.0855
1608	Sim	1	Sil	Sim	1608	0.722000002861023	28.0855
1609	Sib	1	Sil	Sib	1609	1.100000023841858	28.0855
1610	Sib	1	Sil	Sib	1610	1.100000023841858	28.0855
1611	Sim	1	Sil	Sim	1611	0.722000002861023	28.0855
1612	Sib	1	Sil	Sib	1612	1.100000023841858	28.0855
1613	Sib	1	Sil	Sib	1613	1.100000023841858	28.0855
1614	Sim	1	Sil	Sim	1614	0.722000002861023	28.0855
1615	Sib	1	Sil	Sib	1615	1.100000023841858	28.0855
1616	Sib	1	Sil	Sib	1616	1.100000023841858	28.0855
1617	Sim	1	Sil	Sim	1617	0.722000002861023	28.0855
1618	Sib	1	Sil	Sib	1618	1.100000023841858	28.0855
1619	Sib	1	Sil	Sib	1619	1.100000023841858	28.0855
1620	Sim	1	Sil	Sim	1620	0.722000002861023	28.0855
1621	Sib	1	Sil	Sib	1621	1.100000023841858	28.0855
1622	Sib	1	Sil	Sib	1622	1.100000023841858	28.0855
1623	Sim	1	Sil	Sim	1623	0.722000002861023	28.0855
1624	Sib	1	Sil	Sib	1624	1.100000023841858	28.0855
1625	Hm	1	Sil	Hm	1625	0.08799999952316284	1.00784
1626	Hm	1	Sil	Hm	1626	0.08799999952316284	1.00784
1627	Hm	1	Sil	Hm	1627	0.08799999952316284	1.00784
1628	Hm	1	Sil	Hm	1628	0.08799999952316284	1.00784
1629	Hm	1	Sil	Hm	1629	0.08799999952316284	1.00784
1630	Hm	1	Sil	Hm	1630	0.08799999952316284	1.00784
1631	Hm	1	Sil	Hm	1631	0.08799999952316284	1.00784
1632	Hm	1	Sil	Hm	1632	0.08799999952316284	1.00784
1633	Hm	1	Sil	Hm	1633	0.08799999952316284	1.00784
1634	Hm	1	Sil	Hm	1634	0.08799999952316284	1.00784
1635	Hm	1	Sil	Hm	1635	0.08799999952316284	1.00784
1636	Hm	1	Sil	Hm	1636	0.08799999952316284	1.00784
1637	Hm	1	Sil	Hm	1637	0.08799999952316284	1.00784
1638	Hm	1	Sil	Hm	1638	0.08799999952316284	1.00784
1639	Hm	1	Sil	Hm	1639	0.08799999952316284	1.00784
1640	Hm	1	Sil	Hm	1640	0.08799999952316284	1.00784
1641	Hm	1	Sil	Hm	1641	0.08799999952316284	1.00784
1642	Hm	1	Sil	Hm	1642	0.08799999952316284	1.00784
1643	Hm	1	Sil	Hm	1643	0.08799999952316284	1.00784
1644	Hm	1	Sil	Hm	1644	0.08799999952316284	1.00784
1645	Hm	1	Sil	Hm	1645	0.08799999952316284	1.00784
1646	Hm	1	Sil	Hm	1646	0.08799999952316284	1.00784
1647	Hm	1	Sil	Hm	1647	0.08799999952316284	1.00784
1648	Hm	1	Sil	Hm	1648	0.08799999952316284	1.00784
1649	Hm	1	Sil	Hm	1649	0.08799999952316284	1.00784
1650	Hm	1	Sil	Hm	1650	0.08799999952316284	1.00784
1651	Hm	1	Sil	Hm	1651	0.08799999952316284	1.00784
1652	Hm	1	Sil	Hm	1652	0.08799999952316284	1.00784
1653	Hm	1	Sil	Hm	1653	0.08799999952316284	1.00784
1654	Hm	1	Sil	Hm	1654	0.08799999952316284	1.00784
1655	Hm	1	Sil	Hm	1655	0.08799999952316284	1.00784
1656	Hm	1	Sil	Hm	1656	0.08799999952316284	1.00784
1657	Hm	1	Sil	Hm	1657	0.08799999952316284	1.00784
1658	Hm	1	Sil	Hm	1658	0.08799999952316284	1.00784
1659	Hm	1	Sil	Hm	1659	0.08799999952316284	1.00784
1660	Hm	1	Sil	Hm	1660	0.08799999952316284	1.00784
1661	Hm	1	Sil	Hm	1661	0.08799999952316284	1.00784
1662	Hm	1	Sil	Hm	1662	0.08799999952316284	1.00784
1663	Hm	1	Sil	Hm	1663	0.08799999952316284	1.00784
1664	Hm	1	Sil	Hm	1664	0.08799999952316284	1.00784
1665	Hm	1	Sil	Hm	1665	0.08799999952316284	1.00784
1666	Hm	1	Sil	Hm	1666	0.08799999952316284	1.00784
1667	Hm	1	Sil	Hm	1667	0.08799999952316284	1.00784
1668	Hm	1	Sil	Hm	1668	0.08799999952316284	1.00784
1669	Hm	1	Sil	Hm	1669	0.08799999952316284	1.00784
1670	Hm	1	Sil	Hm	1670	0.08799999952316284	1.00784
1671	Hm	1	Sil	Hm	1671	0.08799999952316284	1.00784
1672	Hm	1	Sil	Hm	1672	0.08799999952316284	1.00784
1673	Hm	1	Sil	Hm	1673	0.08799999952316284	1.00784
1674	Hm	1	Sil	Hm	1674	0.08799999952316284	1.00784
1675	Hm	1	Sil	Hm	1675	0.08799999952316284	1.00784
1676	Hm	1	Sil	Hm	1676	0.08799999952316284	1.00784
1677	Hm	1	Sil	Hm	1677	0.08799999952316284	1.00784
1678	Hm	1	Sil	Hm	1678	0.08799999952316284	1.00784
1679	Hm	1	Sil	Hm	1679	0.08799999952316284	1.00784
1680	Hm	1	Sil	Hm	1680	0.08799999952316284	1.00784
1681	Hm	1	Sil	Hm	1681	0.08799999952316284	1.00784
1682	Hm	1	Sil	Hm	1682	0.08799999952316284	1.00784
1683	Hm	1	Sil	Hm	1683	0.08799999952316284	1.00784
1684	Hm	1	Sil	Hm	1684	0.08799999952316284	1.00784
1685	Hm	1	Sil	Hm	1685	0.08799999952316284	1.00784
1686	Hm	1	Sil	Hm	1686	0.08799999952316284	1.00784
1687	Hm	1	Sil	Hm	1687	0.08799999952316284	1.00784
1688	Hm	1	Sil	Hm	1688	0.08799999952316284	1.00784
1689	Hm	1	Sil	Hm	1689	0.08799999952316284	1.00784
1690	Hm	1	Sil	Hm	1690	0.08799999952316284	1.00784
1691	Hm	1	Sil	Hm	1691	0.08799999952316284	1.00784
1692	Hm	1	Sil	Hm	1692	0.08799999952316284	1.00784
1693	Hm	1	Sil	Hm	1693	0.08799999952316284	1.00784
1694	Hm	1	Sil	Hm	1694	0.08799999952316284	1.00784
1695	Hm	1	Sil	Hm	1695	0.08799999952316284	1.00784
1696	Hm	1	Sil	Hm	1696	0.08799999952316284	1.00784
1697	Hm	1	Sil	Hm	1697	0.08799999952316284	1.00784
1698	Hm	1	Sil	Hm	1698	0.08799999952316284	1.00784
1699	Hm	1	Sil	Hm	1699	0.08799999952316284	1.00784
1700	Hm	1	Sil	Hm	1700	0.08799999952316284	1.00784
1701	Hm	1	Sil	Hm	1701	0.08799999952316284	1.00784
1702	Hm	1	Sil	Hm	1702	0.08799999952316284	1.00784
1703	Hm	1	Sil	Hm	1703	0.08799999952316284	1.00784
1704	Hm	1	Sil	Hm	1704	0.08799999952316284	1.00784
1705	Hm	1	Sil	Hm	1705	0.08799999952316284	1.00784
1706	Hm	1	Sil	Hm	1706	0.08799999952316284	1.00784
1707	Hm	1	Sil	Hm	1707	0.08799999952316284	1.00784
1708	Hm	1	Sil	Hm	1708	0.08799999952316284	1.00784
1709	Hm	1	Sil	Hm	1709	0.08799999952316284	1.00784
1710	Hm	1	Sil	Hm	1710	0.08799999952316284	1.00784
1711	Hm	1	Sil	Hm	1711	0.08799999952316284	1.00784
1712	Hm	1	Sil	Hm	1712	0.08799999952316284	1.00784
1713	Hm	1	Sil	Hm	1713	0.08799999952316284	1.00784
1714	Hm	1	Sil	Hm	1714	0.08799999952316284	1.00784
1715	Hm	1	Sil	Hm	1715	0.08799999952316284	1.00784
1716	Hm	1	Sil	Hm	1716	0.08799999952316284	1.00784
1717	Hm	1	Sil	Hm	1717	0.08799999952316284	1.00784
1718	Hm	1	Sil	Hm	1718	0.08799999952316284	1.00784
1719	Hm	1	Sil	Hm	1719	0.08799999952316284	1.00784
1720	Hm	1	Sil	Hm	1720	0.08799999952316284	1.00784
1721	Hm	1	Sil	Hm	1721	0.08799999952316284	1.00784
1722	Hm	1	Sil	Hm	1722	0.08799999952316284	1.00784
1723	Hm	1	Sil	Hm	1723	0.08799999952316284	1.00784
1724	Hm	1	Sil	Hm	1724	0.08799999952316284	1.00784
1725	Hm	1	Sil	Hm	1725	0.08799999952316284	1.00784
1726	Hm	1	Sil	Hm	1726	0.08799999952316284	1.00784
1727	Hm	1	Sil	Hm	1727	0.08799999952316284	1.00784
1728	Hm	1	Sil	Hm	1728	0.08799999952316284	1.00784
1729	Hm	1	Sil	Hm	1729	0.08799999952316284	1.00784
1730	Hm	1	Sil	Hm	1730	0.08799999952316284	1.00784
1731	Hm	1	Sil	Hm	1731	0.08799999952316284	1.00784
1732	Hm	1	Sil	Hm	1732	0.08799999952316284	1.00784
1733	Hm	1	Sil	Hm	1733	0.08799999952316284	1.00784
1734	Hm	1	Sil	Hm	1734	0.08799999952316284	1.00784
1735	Hm	1	Sil	Hm	1735	0.08799999952316284	1.00784
1736	Hm	1	Sil	Hm	1736	0.08799999952316284	1.00784
1737	Hm	1	Sil	Hm	1737	0.08799999952316284	1.00784
1738	Hm	1	Sil	Hm	1738	0.08799999952316284	1.00784
1739	Hm	1	Sil	Hm	1739	0.08799999952316284	1.00784
1740	Hm	1	Sil	Hm	1740	0.08799999952316284	1.00784
1741	Hm	1	Sil	Hm	1741	0.08799999952316284	1.00784
1742	Hm	1	Sil	Hm	1742	0.08799999952316284	1.00784
1743	Hm	1	Sil	Hm	1743	0.08799999952316284	1.00784
1744	Hm	1	Sil	Hm	1744	0.08799999952316284	1.00784
1745	Hm	1	Sil	Hm	1745	0.08799999952316284	1.00784
1746	Hm	1	Sil	Hm	1746	0.08799999952316284	1.00784
1747	Hm	1	Sil	Hm	1747	0.08799999952316284	1.00784
1748	Hm	1	Sil	Hm	1748	0.08799999952316284	1.00784
1749	Hm	1	Sil	Hm	1749	0.08799999952316284	1.00784
1750	Hm	1	Sil	Hm	1750	0.08799999952316284	1.00784
1751	Hm	1	Sil	Hm	1751	0.08799999952316284	1.00784
1752	Hm	1	Sil	Hm	1752	0.08799999952316284	1.00784
1753	Hm	1	Sil	Hm	1753	0.08799999952316284	1.00784
1754	Hm	1	Sil	Hm	1754	0.08799999952316284	1.00784
1755	Hm	1	Sil	Hm	1755	0.08799999952316284	1.00784
1756	Hm	1	Sil	Hm	1756	0.08799999952316284	1.00784
1757	Hm	1	Sil	Hm	1757	0.08799999952316284	1.00784
1758	Hm	1	Sil	Hm	1758	0.08799999952316284	1.00784
1759	Hm	1	Sil	Hm	1759	0.08799999952316284	1.00784
1760	Hm	1	Sil	Hm	1760	0.08799999952316284	1.00784
1761	Hm	1	Sil	Hm	1761	0.08799999952316284	1.00784
1762	Hm	1	Sil	Hm	1762	0.08799999952316284	1.00784
1763	Hm	1	Sil	Hm	1763	0.08799999952316284	1.00784
1764	Hm	1	Sil	Hm	1764	0.08799999952316284	1.00784
1765	Hm	1	Sil	Hm	1765	0.08799999952316284	1.00784
1766	Hm	1	Sil	Hm	1766	0.08799999952316284	1.00784
1767	Hm	1	Sil	Hm	1767	0.08799999952316284	1.00784
1768	Hm	1	Sil	Hm	1768	0.08799999952316284	1.00784
1769	Hm	1	Sil	Hm	1769	0.08799999952316284	1.00784
1770	Hm	1	Sil	Hm	1770	0.08799999952316284	1.00784
1771	Hm	1	Sil	Hm	1771	0.08799999952316284	1.00784
1772	Hm	1	Sil	Hm	1772	0.08799999952316284	1.00784
1773	Hm	1	Sil	Hm	1773	0.08799999952316284	1.00784
1774	Hm	1	Sil	Hm	1774	0.08799999952316284	1.00784
1775	Hm	1	Sil	Hm	1775	0.08799999952316284	1.00784
1776	Hm	1	Sil	Hm	1776	0.08799999952316284	1.00784
1777	Hm	1	Sil	Hm	1777	0.08799999952316284	1.00784
1778	Hm	1	Sil	Hm	1778	0.08799999952316284	1.00784
1779	Hm	1	Sil	Hm	1779	0.08799999952316284	1.00784
1780	Hm	1	Sil	Hm	1780	0.08799999952316284	1.00784
1781	Hm	1	Sil	Hm	1781	0.08799999952316284	1.00784
1782	Hm	1	Sil	Hm	1782	0.08799999952316284	1.00784
1783	Hm	1	Sil	Hm	1783	0.08799999952316284	1.00784
1784	Hm	1	Sil	Hm	1784	0.08799999952316284	1.00784
1785	Hm	1	Sil	Hm	1785	0.08799999952316284	1.00784
1786	Hm	1	Sil	Hm	1786	0.08799999952316284	1.00784
1787	Hm	1	Sil	Hm	1787	0.08799999952316284	1.00784
1788	Hm	1	Sil	Hm	1788	0.08799999952316284	1.00784
1789	Hm	1	Sil	Hm	1789	0.08799999952316284	1.00784
1790	Hm	1	Sil	Hm	1790	0.08799999952316284	1.00784
1791	Hm	1	Sil	Hm	1791	0.08799999952316284	1.00784
1792	Hm	1	Sil	Hm	1792	0.08799999952316284	1.00784
1793	Hm	1	Sil	Hm	1793	0.08799999952316284	1.00784
1794	Hm	1	Sil	Hm	1794	0.08799999952316284	1.00784
1795	Hm	1	Sil	Hm	1795	0.08799999952316284	1.00784
1796	Hm	1	Sil	Hm	1796	0.08799999952316284	1.00784
1797	Hm	1	Sil	Hm	1797	0.08799999952316284	1.00784
1798	Hm	1	Sil	Hm	1798	0.08799999952316284	1.00784
1799	Hm	1	Sil	Hm	1799	0.08799999952316284	1.00784
1800	Hm	1	Sil	Hm	1800	0.08799999952316284	1.00784
1801	Hm	1	Sil	Hm	1801	0.08799999952316284	1.00784
1802	Hm	1	Sil	Hm	1802	0.08799999952316284	1.00784
1803	Hm	1	Sil	Hm	1803	0.08799999952316284	1.00784
1804	Hm	1	Sil	Hm	1804	0.08799999952316284	1.00784
1805	Hm	1	Sil	Hm	1805	0.08799999952316284	1.00784
1806	Hm	1	Sil	Hm	1806	0.08799999952316284	1.00784
1807	Hm	1	Sil	Hm	1807	0.08799999952316284	1.00784
1808	Hm	1	Sil	Hm	1808	0.08799999952316284	1.00784
1809	Hm	1	Sil	Hm	1809	0.08799999952316284	1.00784
1810	Hm	1	Sil	Hm	1810	0.08799999952316284	1.00784
1811	Hm	1	Sil	Hm	1811	0.08799999952316284	1.00784
1812	Hm	1	Sil	Hm	1812	0.08799999952316284	1.00784
1813	Hm	1	Sil	Hm	1813	0.08799999952316284	1.00784
1814	Hm	1	Sil	Hm	1814	0.08799999952316284	1.00784
1815	Hm	1	Sil	Hm	1815	0.08799999952316284	1.00784
1816	Hm	1	Sil	Hm	1816	0.08799999952316284	1.00784
1817	Hm	1	Sil	Hm	1817	0.08799999952316284	1.00784
1818	Hm	1	Sil	Hm	1818	0.08799999952316284	1.00784
1819	Hm	1	Sil	Hm	1819	0.08799999952316284	1.00784
1820	Hm	1	Sil	Hm	1820	0.08799999952316284	1.00784
1821	Hm	1	Sil	Hm	1821	0.08799999952316284	1.00784
1822	Hm	1	Sil	Hm	1822	0.08799999952316284	1.00784
1823	Hm	1	Sil	Hm	1823	0.08799999952316284	1.00784
1824	Hm	1	Sil	Hm	1824	0.08799999952316284	1.00784
1825	Hm	1	Sil	Hm	1825	0.08799999952316284	1.00784
1826	Hm	1	Sil	Hm	1826	0.08799999952316284	1.00784
1827	Hm	1	Sil	Hm	1827	0.08799999952316284	1.00784
1828	Hm	1	Sil	Hm	1828	0.08799999952316284	1.00784
1829	Hm	1	Sil	Hm	1829	0.08799999952316284	1.00784
1830	Hm	1	Sil	Hm	1830	0.08799999952316284	1.00784
1831	Hm	1	Sil	Hm	1831	0.08799999952316284	1.00784
1832	Hm	1	Sil	Hm	1832	0.08799999952316284	1.00784
1833	Hm	1	Sil	Hm	1833	0.08799999952316284	1.00784
1834	Hm	1	Sil	Hm	1834	0.08799999952316284	1.00784
1835	Hm	1	Sil	Hm	1835	0.08799999952316284	1.00784
1836	Hm	1	Sil	Hm	1836	0.08799999952316284	1.00784
1837	Hm	1	Sil	Hm	1837	0.08799999952316284	1.00784
1838	Hm	1	Sil	Hm	1838	0.08799999952316284	1.00784
1839	Hm	1	Sil	Hm	1839	0.08799999952316284	1.00784
1840	Hm	1	Sil	Hm	1840	0.08799999952316284	1.00784
1841	Hm	1	Sil	Hm	1841	0.08799999952316284	1.00784
1842	Hm	1	Sil	Hm	1842	0.08799999952316284	1.00784
1843	Hm	1	Sil	Hm	1843	0.08799999952316284	1.00784
1844	Hm	1	Sil	Hm	1844	0.08799999952316284	1.00784
1845	Hm	1	Sil	Hm	1845	0.08799999952316284	1.00784
1846	Hm	1	Sil	Hm	1846	0.08799999952316284	1.00784
1847	Hm	1	Sil	Hm	1847	0.08799999952316284	1.00784
1848	Hm	1	Sil	Hm	1848	0.08799999952316284	1.00784
1849	Hm	1	Sil	Hm	1849	0.08799999952316284	1.00784
1850	Hm	1	Sil	Hm	1850	0.08799999952316284	1.00784
1851	Hm	1	Sil	Hm	1851	0.08799999952316284	1.00784
1852	Hm	1	Sil	Hm	1852	0.08799999952316284	1.00784
1853	Hm	1	Sil	Hm	1853	0.08799999952316284	1.00784
1854	Hm	1	Sil	Hm	1854	0.08799999952316284	1.00784
1855	Hm	1	Sil	Hm	1855	0.08799999952316284	1.00784
1856	Hm	1	Sil	Hm	1856	0.08799999952316284	1.00784
1857	Hm	1	Sil	Hm	1857	0.08799999952316284	1.00784
1858	Hm	1	Sil	Hm	1858	0.08799999952316284	1.00784
1859	Hm	1	Sil	Hm	1859	0.08799999952316284	1.00784
1860	Hm	1	Sil	Hm	1860	0.08799999952316284	1.00784
1861	Hm	1	Sil	Hm	1861	0.08799999952316284	1.00784
1862	Hm	1	Sil	Hm	1862	0.08799999952316284	1.00784
1863	Hm	1	Sil	Hm	1863	0.08799999952316284	1.00784
1864	Hm	1	Sil	Hm	1864	0.08799999952316284	1.00784
1865	Hm	1	Sil	Hm	1865	0.08799999952316284	1.00784
1866	Hm	1	Sil	Hm	1866	0.08799999952316284	1.00784
1867	Hm	1	Sil	Hm	1867	0.08799999952316284	1.00784
1868	Hm	1	Sil	Hm	1868	0.08799999952316284	1.00784
1869	Hm	1	Sil	Hm	1869	0.08799999952316284	1.00784
1870	Hm	1	Sil	Hm	1870	0.08799999952316284	1.00784
1871	Hm	1	Sil	Hm	1871	0.08799999952316284	1.00784
1872	Hm	1	Sil	Hm	1872	0.08799999952316284	1.00784
1873	Hm	1	Sil	Hm	1873	0.08799999952316284	1.00784
1874	Hm	1	Sil	Hm	1874	0.08799999952316284	1.00784
1875	Hm	1	Sil	Hm	1875	0.08799999952316284	1.00784
1876	Hm	1	Sil	Hm	1876	0.08799999952316284	1.00784
1877	Hm	1	Sil	Hm	1877	0.08799999952316284	1.00784
1878	Hm	1	Sil	Hm	1878	0.08799999952316284	1.00784
1879	Hm	1	Sil	Hm	1879	0.08799999952316284	1.00784
1880	Hm	1	Sil	Hm	1880	0.08799999952316284	1.00784
1881	Hm	1	Sil	Hm	1881	0.08799999952316284	1.00784
1882	Hm	1	Sil	Hm	1882	0.08799999952316284	1.00784
1883	Hm	1	Sil	Hm	1883	0.08799999952316284	1.00784
1884	Hm	1	Sil	Hm	1884	0.08799999952316284	1.00784
1885	Hm	1	Sil	Hm	1885	0.08799999952316284	1.00784
1886	Hm	1	Sil	Hm	1886	0.08799999952316284	1.00784
1887	Hm	1	Sil	Hm	1887	0.08799999952316284	1.00784
1888	Hm	1	Sil	Hm	1888	0.08799999952316284	1.00784
1889	Hm	1	Sil	Hm	1889	0.08799999952316284	1.00784
1890	Hm	1	Sil	Hm	1890	0.08799999952316284	1.00784
1891	Hm	1	Sil	Hm	1891	0.08799999952316284	1.00784
1892	Hm	1	Sil	Hm	1892	0.08799999952316284	1.00784
1893	Hm	1	Sil	Hm	1893	0.08799999952316284	1.00784
1894	Hm	1	Sil	Hm	1894	0.08799999952316284	1.00784
1895	Hm	1	Sil	Hm	1895	0.08799999952316284	1.00784
1896	Hm	1	Sil	Hm	1896	0.08799999952316284	1.00784
1897	Hm	1	Sil	Hm	1897	0.08799999952316284	1.00784
1898	Hm	1	Sil	Hm	1898	0.08799999952316284	1.00784
1899	Hm	1	Sil	Hm	1899	0.08799999952316284	1.00784
1900	Hm	1	Sil	Hm	1900	0.08799999952316284	1.00784
1901	Hm	1	Sil	Hm	1901	0.08799999952316284	1.00784
1902	Hm	1	Sil	Hm	1902	0.08799999952316284	1.00784
1903	Hm	1	Sil	Hm	1903	0.08799999952316284	1.00784
1904	Hm	1	Sil	Hm	1904	0.08799999952316284	1.00784
1905	Hm	1	Sil	Hm	1905	0.08799999952316284	1.00784
1906	Hm	1	Sil	Hm	1906	0.08799999952316284	1.00784
1907	Hm	1	Sil	Hm	1907	0.08799999952316284	1.00784
1908	Hm	1	Sil	Hm	1908	0.08799999952316284	1.00784
1909	Hm	1	Sil	Hm	1909	0.08799999952316284	1.00784
1910	Hm	1	Sil	Hm	1910	0.08799999952316284	1.00784
1911	Hm	1	Sil	Hm	1911	0.08799999952316284	1.00784
1912	Hm	1	Sil	Hm	1912	0.08799999952316284	1.00784
1913	Hm	1	Sil	Hm	1913	0.08799999952316284	1.00784
1914	Hm	1	Sil	Hm	1914	0.08799999952316284	1.00784
1915	Hm	1	Sil	Hm	1915	0.08799999952316284	1.00784
1916	Hm	1	Sil	Hm	1916	0.08799999952316284	1.00784
1917	Hm	1	Sil	Hm	1917	0.08799999952316284	1.00784
1918	Hm	1	Sil	Hm	1918	0.08799999952316284	1.00784
1919	Hm	1	Sil	Hm	1919	0.08799999952316284	1.00784
1920	Hm	1	Sil	Hm	1920	0.08799999952316284	1.00784
1921	Hm	1	Sil	Hm	1921	0.08799999952316284	1.00784
1922	Hm	1	Sil	Hm	1922	0.08799999952316284	1.00784
1923	Hm	1	Sil	Hm	1923	0.08799999952316284	1.00784
1924	Hm	1	Sil	Hm	1924	0.08799999952316284	1.00784
1925	Hm	1	Sil	Hm	1925	0.08799999952316284	1.00784
1926	Hm	1	Sil	Hm	1926	0.08799999952316284	1.00784
1927	Hm	1	Sil	Hm	1927	0.08799999952316284	1.00784
1928	Hm	1	Sil	Hm	1928	0.08799999952316284	1.00784
1929	Hm	1	Sil	Hm	1929	0.08799999952316284	1.00784
1930	Hm	1	Sil	Hm	1930	0.08799999952316284	1.00784
1931	Hm	1	Sil	Hm	1931	0.08799999952316284	1.00784
1932	Hm	1	Sil	Hm	1932	0.08799999952316284	1.00784
1933	Hm	1	Sil	Hm	1933	0.08799999952316284	1.00784
1934	Hm	1	Sil	Hm	1934	0.08799999952316284	1.00784
1935	Hm	1	Sil	Hm	1935	0.08799999952316284	1.00784
1936	Hm	1	Sil	Hm	1936	0.08799999952316284	1.00784
1937	Hm	1	Sil	Hm	1937	0.08799999952316284	1.00784
1938	Hm	1	Sil	Hm	1938	0.08799999952316284	1.00784
1939	Hm	1	Sil	Hm	1939	0.08799999952316284	1.00784
1940	Hm	1	Sil	Hm	1940	0.08799999952316284	1.00784
1941	Hm	1	Sil	Hm	1941	0.08799999952316284	1.00784
1942	Hm	1	Sil	Hm	1942	0.08799999952316284	1.00784
1943	Hm	1	Sil	Hm	1943	0.08799999952316284	1.00784
1944	Hm	1	Sil	Hm	1944	0.08799999952316284	1.00784
1945	Hm	1	Sil	Hm	1945	0.08799999952316284	1.00784
1946	Hm	1	Sil	Hm	1946	0.08799999952316284	1.00784
1947	Hm	1	Sil	Hm	1947	0.08799999952316284	1.00784
1948	Hm	1	Sil	Hm	1948	0.08799999952316284	1.00784
1949	Hm	1	Sil	Hm	1949	0.08799999952316284	1.00784
1950	Hm	1	Sil	Hm	1950	0.08799999952316284	1.00784
1951	Hm	1	Sil	Hm	1951	0.08799999952316284	1.00784
1952	Hm	1	Sil	Hm	1952	0.08799999952316284	1.00784
1953	Hm	1	Sil	Hm	1953	0.08799999952316284	1.00784
1954	Hm	1	Sil	Hm	1954	0.08799999952316284	1.00784
1955	Hm	1	Sil	Hm	1955	0.08799999952316284	1.00784
1956	Hm	1	Sil	Hm	1956	0.08799999952316284	1.00784
1957	Hm	1	Sil	Hm	1957	0.08799999952316284	1.00784
1958	Hm	1	Sil	Hm	1958	0.08799999952316284	1.00784
1959	Hm	1	Sil	Hm	1959	0.08799999952316284	1.00784
1960	Hm	1	Sil	Hm	1960	0.08799999952316284	1.00784
1961	Hm	1	Sil	Hm	1961	0.08799999952316284	1.00784
1962	Hm	1	Sil	Hm	1962	0.08799999952316284	1.00784
1963	Hm	1	Sil	Hm	1963	0.08799999952316284	1.00784
1964	Hm	1	Sil	Hm	1964	0.08799999952316284	1.00784
1965	Hm	1	Sil	Hm	1965	0.08799999952316284	1.00784
1966	Hm	1	Sil	Hm	1966	0.08799999952316284	1.00784
1967	Hm	1	Sil	Hm	1967	0.08799999952316284	1.00784
1968	Hm	1	Sil	Hm	1968	0.08799999952316284	1.00784
1969	Hm	1	Sil	Hm	1969	0.08799999952316284	1.00784
1970	Hm	1	Sil	Hm	1970	0.08799999952316284	1.00784
1971	Hm	1	Sil	Hm	1971	0.08799999952316284	1.00784
1972	Hm	1	Sil	Hm	1972	0.08799999952316284	1.00784
1973	Hm	1	Sil	Hm	1973	0.08799999952316284	1.00784
1974	Hm	1	Sil	Hm	1974	0.08799999952316284	1.00784
1975	Hm	1	Sil	Hm	1975	0.08799999952316284	1.00784
1976	Hm	1	Sil	Hm	1976	0.08799999952316284	1.00784
1977	Hm	1	Sil	Hm	1977	0.08799999952316284	1.00784
1978	Hm	1	Sil	Hm	1978	0.08799999952316284	1.00784
1979	Hm	1	Sil	Hm	1979	0.08799999952316284	1.00784
1980	Hm	1	Sil	Hm	1980	0.08799999952316284	1.00784
1981	Hm	1	Sil	Hm	1981	0.08799999952316284	1.00784
1982	Hm	1	Sil	Hm	1982	0.08799999952316284	1.00784
1983	Hm	1	Sil	Hm	1983	0.08799999952316284	1.00784
1984	Hm	1	Sil	Hm	1984	0.08799999952316284	1.00784
1985	Hm	1	Sil	Hm	1985	0.08799999952316284	1.00784
1986	Hm	1	Sil	Hm	1986	0.08799999952316284	1.00784
1987	Hm	1	Sil	Hm	1987	0.08799999952316284	1.00784
1988	Hm	1	Sil	Hm	1988	0.08799999952316284	1.00784
1989	Hm	1	Sil	Hm	1989	0.08799999952316284	1.00784
1990	Hm	1	Sil	Hm	1990	0.08799999952316284	1.00784
1991	Hm	1	Sil	Hm	1991	0.08799999952316284	1.00784
1992	Hm	1	Sil	Hm	1992	0.08799999952316284	1.00784
1993	Hm	1	Sil	Hm	1993	0.08799999952316284	1.00784
1994	Hm	1	Sil	Hm	1994	0.08799999952316284	1.00784
1995	Hm	1	Sil	Hm	1995	0.08799999952316284	1.00784
1996	Hm	1	Sil	Hm	1996	0.08799999952316284	1.00784
1997	Hm	1	Sil	Hm	1997	0.08799999952316284	1.00784
1998	Hm	1	Sil	Hm	1998	0.08799999952316284	1.00784
1999	Hm	1	Sil	Hm	1999	0.08799999952316284	1.00784
2000	Hm	1	Sil	Hm	2000	0.08799999952316284	1.00784
2001	Hm	1	Sil	Hm	2001	0.08799999952316284	1.00784
2002	Hm	1	Sil	Hm	2002	0.08799999952316284	1.00784
2003	Hm	1	Sil	Hm	2003	0.08799999952316284	1.00784
2004	Hm	1	Sil	Hm	2004	0.08799999952316284	1.00784
2005	Hm	1	Sil	Hm	2005	0.08799999952316284	1.00784
2006	Hm	1	Sil	Hm	2006	0.08799999952316284	1.00784
2007	Hm	1	Sil	Hm	2007	0.08799999952316284	1.00784
2008	Hm	1	Sil	Hm	2008	0.08799999952316284	1.00784
2009	Hm	1	Sil	Hm	2009	0.08799999952316284	1.00784
2010	Hm	1	Sil	Hm	2010	0.08799999952316284	1.00784
2011	Hm	1	Sil	Hm	2011	0.08799999952316284	1.00784
2012	Hm	1	Sil	Hm	2012	0.08799999952316284	1.00784
2013	Hm	1	Sil	Hm	2013	0.08799999952316284	1.00784
2014	Hm	1	Sil	Hm	2014	0.08799999952316284	1.00784
2015	Hm	1	Sil	Hm	2015	0.08799999952316284	1.00784
2016	Hm	1	Sil	Hm	2016	0.08799999952316284	1.00784
2017	Hm	1	Sil	Hm	2017	0.08799999952316284	1.00784
2018	Hm	1	Sil	Hm	2018	0.08799999952316284	1.00784
2019	Hm	1	Sil	Hm	2019	0.08799999952316284	1.00784
2020	Hm	1	Sil	Hm	2020	0.08799999952316284	1.00784
2021	Hm	1	Sil	Hm	2021	0.08799999952316284	1.00784
2022	Hm	1	Sil	Hm	2022	0.08799999952316284	1.00784
2023	Hm	1	Sil	Hm	2023	0.08799999952316284	1.00784
2024	Hm	1	Sil	Hm	2024	0.08799999952316284	1.00784
2025	Hm	1	Sil	Hm	2025	0.08799999952316284	1.00784
2026	Hm	1	Sil	Hm	2026	0.08799999952316284	1.00784
2027	Hm	1	Sil	Hm	2027	0.08799999952316284	1.00784
2028	Hm	1	Sil	Hm	2028	0.08799999952316284	1.00784
2029	Hm	1	Sil	Hm	2029	0.08799999952316284	1.00784
2030	Hm	1	Sil	Hm	2030	0.08799999952316284	1.00784
2031	Hm	1	Sil	Hm	2031	0.08799999952316284	1.00784
2032	Hm	1	Sil	Hm	2032	0.08799999952316284	1.00784
2033	Hm	1	Sil	Hm	2033	0.08799999952316284	1.00784
2034	Hm	1	Sil	Hm	2034	0.08799999952316284	1.00784
2035	Hm	1	Sil	Hm	2035	0.08799999952316284	1.00784
2036	Hm	1	Sil	Hm	2036	0.08799999952316284	1.00784
2037	Hm	1	Sil	Hm	2037	0.08799999952316284	1.00784
2038	Hm	1	Sil	Hm	2038	0.08799999952316284	1.00784
2039	Hm	1	Sil	Hm	2039	0.08799999952316284	1.00784
2040	Hm	1	Sil	Hm	2040	0.08799999952316284	1.00784
2041	Hm	1	Sil	Hm	2041	0.08799999952316284	1.00784
2042	Hm	1	Sil	Hm	2042	0.08799999952316284	1.00784
2043	Hm	1	Sil	Hm	2043	0.08799999952316284	1.00784
2044	Hm	1	Sil	Hm	2044	0.08799999952316284	1.00784
2045	Hm	1	Sil	Hm	2045	0.08799999952316284	1.00784
2046	Hm	1	Sil	Hm	2046	0.08799999952316284	1.00784
2047	Hm	1	Sil	Hm	2047	0.08799999952316284	1.00784
2048	Hm	1	Sil	Hm	2048	0.08799999952316284	1.00784
2049	Hm	1	Sil	Hm	2049	0.08799999952316284	1.00784
2050	Hm	1	Sil	Hm	2050	0.08799999952316284	1.00784
2051	Hm	1	Sil	Hm	2051	0.08799999952316284	1.00784
2052	Hm	1	Sil	Hm	2052	0.08799999952316284	1.00784
2053	Hm	1	Sil	Hm	2053	0.08799999952316284	1.00784
2054	Hm	1	Sil	Hm	2054	0.08799999952316284	1.00784
2055	Hm	1	Sil	Hm	2055	0.08799999952316284	1.00784
2056	Hm	1	Sil	Hm	2056	0.08799999952316284	1.00784
2057	Hm	1	Sil	Hm	2057	0.08799999952316284	1.00784
2058	Hm	1	Sil	Hm	2058	0.08799999952316284	1.00784
2059	Hm	1	Sil	Hm	2059	0.08799999952316284	1.00784
2060	Hm	1	Sil	Hm	2060	0.08799999952316284	1.00784
2061	Hm	1	Sil	Hm	2061	0.08799999952316284	1.00784
2062	Hm	1	Sil	Hm	2062	0.08799999952316284	1.00784
2063	Hm	1	Sil	Hm	2063	0.08799999952316284	1.00784
2064	Hm	1	Sil	Hm	2064	0.08799999952316284	1.00784
2065	Hm	1	Sil	Hm	2065	0.08799999952316284	1.00784
2066	Hm	1	Sil	Hm	2066	0.08799999952316284	1.00784
2067	Hm	1	Sil	Hm	2067	0.08799999952316284	1.00784
2068	Hm	1	Sil	Hm	2068	0.08799999952316284	1.00784
2069	Hm	1	Sil	Hm	2069	0.08799999952316284	1.00784
2070	Hm	1	Sil	Hm	2070	0.08799999952316284	1.00784
2071	Hm	1	Sil	Hm	2071	0.08799999952316284	1.00784
2072	Hm	1	Sil	Hm	2072	0.08799999952316284	1.00784
2073	Hm	1	Sil	Hm	2073	0.08799999952316284	1.00784
2074	Hm	1	Sil	Hm	2074	0.08799999952316284	1.00784
2075	Hm	1	Sil	Hm	2075	0.08799999952316284	1.00784
2076	Hm	1	Sil	Hm	2076	0.08799999952316284	1.00784
2077	Hm	1	Sil	Hm	2077	0.08799999952316284	1.00784
2078	Hm	1	Sil	Hm	2078	0.08799999952316284	1.00784
2079	Hm	1	Sil	Hm	2079	0.08799999952316284	1.00784
2080	Hm	1	Sil	Hm	2080	0.08799999952316284	1.00784
2081	Hm	1	Sil	Hm	2081	0.08799999952316284	1.00784
2082	Hm	1	Sil	Hm	2082	0.08799999952316284	1.00784
2083	Hm	1	Sil	Hm	2083	0.08799999952316284	1.00784
2084	Hm	1	Sil	Hm	2084	0.08799999952316284	1.00784
2085	Hm	1	Sil	Hm	2085	0.08799999952316284	1.00784
2086	Hm	1	Sil	Hm	2086	0.08799999952316284	1.00784
2087	Hm	1	Sil	Hm	2087	0.08799999952316284	1.00784
2088	Hm	1	Sil	Hm	2088	0.08799999952316284	1.00784
2089	Hm	1	Sil	Hm	2089	0.08799999952316284	1.00784
2090	Hm	1	Sil	Hm	2090	0.08799999952316284	1.00784
2091	Hm	1	Sil	Hm	2091	0.08799999952316284	1.00784
2092	Hm	1	Sil	Hm	2092	0.08799999952316284	1.00784
2093	Hm	1	Sil	Hm	2093	0.08799999952316284	1.00784
2094	Hm	1	Sil	Hm	2094	0.08799999952316284	1.00784
2095	Hm	1	Sil	Hm	2095	0.08799999952316284	1.00784
2096	Hm	1	Sil	Hm	2096	0.08799999952316284	1.00784
2097	Hm	1	Sil	Hm	2097	0.08799999952316284	1.00784
2098	Hm	1	Sil	Hm	2098	0.08799999952316284	1.00784
2099	Hm	1	Sil	Hm	2099	0.08799999952316284	1.00784
2100	Hm	1	Sil	Hm	2100	0.08799999952316284	1.00784
2101	Hm	1	Sil	Hm	2101	0.08799999952316284	1.00784
2102	Hm	1	Sil	Hm	2102	0.08799999952316284	1.00784
2103	Hm	1	Sil	Hm	2103	0.08799999952316284	1.00784
2104	Hm	1	Sil	Hm	2104	0.08799999952316284	1.00784
2105	Hm	1	Sil	Hm	2105	0.08799999952316284	1.00784
2106	Hm	1	Sil	Hm	2106	0.08799999952316284	1.00784
2107	Hm	1	Sil	Hm	2107	0.08799999952316284	1.00784
2108	Hm	1	Sil	Hm	2108	0.08799999952316284	1.00784
2109	Hm	1	Sil	Hm	2109	0.08799999952316284	1.00784
2110	Hm	1	Sil	Hm	2110	0.08799999952316284	1.00784
2111	Hm	1	Sil	Hm	2111	0.08799999952316284	1.00784
2112	Hm	1	Sil	Hm	2112	0.08799999952316284	1.00784
2113	Hm	1	Sil	Hm	2113	0.08799999952316284	1.00784
2114	Hm	1	Sil	Hm	2114	0.08799999952316284	1.00784
2115	Hm	1	Sil	Hm	2115	0.08799999952316284	1.00784
2116	Hm	1	Sil	Hm	2116	0.08799999952316284	1.00784
2117	Hm	1	Sil	Hm	2117	0.08799999952316284	1.00784
2118	Hm	1	Sil	Hm	2118	0.08799999952316284	1.00784
2119	Hm	1	Sil	Hm	2119	0.08799999952316284	1.00784
2120	Hm	1	Sil	Hm	2120	0.08799999952316284	1.00784
2121	Hm	1	Sil	Hm	2121	0.08799999952316284	1.00784
2122	Hm	1	Sil	Hm	2122	0.08799999952316284	1.00784
2123	Hm	1	Sil	Hm	2123	0.08799999952316284	1.00784
2124	Hm	1	Sil	Hm	2124	0.08799999952316284	1.00784
2125	Hm	1	Sil	Hm	2125	0.08799999952316284	1.00784
2126	Hm	1	Sil	Hm	2126	0.08799999952316284	1.00784
2127	Hm	1	Sil	Hm	2127	0.08799999952316284	1.00784
2128	Hm	1	Sil	Hm	2128	0.08799999952316284	1.00784
2129	Hm	1	Sil	Hm	2129	0.08799999952316284	1.00784
2130	Hm	1	Sil	Hm	2130	0.08799999952316284	1.00784
2131	Hm	1	Sil	Hm	2131	0.08799999952316284	1.00784
2132	Hm	1	Sil	Hm	2132	0.08799999952316284	1.00784
2133	Hm	1	Sil	Hm	2133	0.08799999952316284	1.00784
2134	Hm	1	Sil	Hm	2134	0.08799999952316284	1.00784
2135	Hm	1	Sil	Hm	2135	0.08799999952316284	1.00784
2136	Hm	1	Sil	Hm	2136	0.08799999952316284	1.00784
2137	Hm	1	Sil	Hm	2137	0.08799999952316284	1.00784
2138	Hm	1	Sil	Hm	2138	0.08799999952316284	1.00784
2139	Hm	1	Sil	Hm	2139	0.08799999952316284	1.00784
2140	Hm	1	Sil	Hm	2140	0.08799999952316284	1.00784
2141	Hm	1	Sil	Hm	2141	0.08799999952316284	1.00784
2142	Hm	1	Sil	Hm	2142	0.08799999952316284	1.00784
2143	Hm	1	Sil	Hm	2143	0.08799999952316284	1.00784
2144	Hm	1	Sil	Hm	2144	0.08799999952316284	1.00784
2145	Hm	1	Sil	Hm	2145	0.08799999952316284	1.00784
2146	Hm	1	Sil	Hm	2146	0.08799999952316284	1.00784
2147	Hm	1	Sil	Hm	2147	0.08799999952316284	1.00784
2148	Hm	1	Sil	Hm	2148	0.08799999952316284	1.00784
2149	Hm	1	Sil	Hm	2149	0.08799999952316284	1.00784
2150	Hm	1	Sil	Hm	2150	0.08799999952316284	1.00784
2151	Hm	1	Sil	Hm	2151	0.08799999952316284	1.00784
2152	Hm	1	Sil	Hm	2152	0.08799999952316284	1.00784
2153	Hm	1	Sil	Hm	2153	0.08799999952316284	1.00784
2154	Hm	1	Sil	Hm	2154	0.08799999952316284	1.00784
2155	Hm	1	Sil	Hm	2155	0.08799999952316284	1.00784
2156	Hm	1	Sil	Hm	2156	0.08799999952316284	1.00784
2157	Hm	1	Sil	Hm	2157	0.08799999952316284	1.00784
2158	Hm	1	Sil	Hm	2158	0.08799999952316284	1.00784
2159	Hm	1	Sil	Hm	2159	0.08799999952316284	1.00784
2160	Hm	1	Sil	Hm	2160	0.08799999952316284	1.00784
2161	Hm	1	Sil	Hm	2161	0.08799999952316284	1.00784
2162	Hm	1	Sil	Hm	2162	0.08799999952316284	1.00784
2163	Hm	1	Sil	Hm	2163	0.08799999952316284	1.00784
2164	Hm	1	Sil	Hm	2164	0.08799999952316284	1.00784
2165	Hm	1	Sil	Hm	2165	0.08799999952316284	1.00784
2166	Hm	1	Sil	Hm	2166	0.08799999952316284	1.00784
2167	Hm	1	Sil	Hm	2167	0.08799999952316284	1.00784
2168	Hm	1	Sil	Hm	2168	0.08799999952316284	1.00784
2169	Hm	1	Sil	Hm	2169	0.08799999952316284	1.00784
2170	Hm	1	Sil	Hm	2170	0.08799999952316284	1.00784
2171	Hm	1	Sil	Hm	2171	0.08799999952316284	1.00784
2172	Hm	1	Sil	Hm	2172	0.08799999952316284	1.00784
2173	Hm	1	Sil	Hm	2173	0.08799999952316284	1.00784
2174	Hm	1	Sil	Hm	2174	0.08799999952316284	1.00784
2175	Hm	1	Sil	Hm	2175	0.08799999952316284	1.00784
2176	Hm	1	Sil	Hm	2176	0.08799999952316284	1.00784
2177	Hm	1	Sil	Hm	2177	0.08799999952316284	1.00784
2178	Hm	1	Sil	Hm	2178	0.08799999952316284	1.00784
2179	Hm	1	Sil	Hm	2179	0.08799999952316284	1.00784
2180	Hm	1	Sil	Hm	2180	0.08799999952316284	1.00784
2181	Hm	1	Sil	Hm	2181	0.08799999952316284	1.00784
2182	Hm	1	Sil	Hm	2182	0.08799999952316284	1.00784
2183	Hm	1	Sil	Hm	2183	0.08799999952316284	1.00784
2184	Hm	1	Sil	Hm	2184	0.08799999952316284	1.00784
2185	Hm	1	Sil	Hm	2185	0.08799999952316284	1.00784
2186	Hm	1	Sil	Hm	2186	0.08799999952316284	1.00784
2187	Hm	1	Sil	Hm	2187	0.08799999952316284	1.00784
2188	Hm	1	Sil	Hm	2188	0.08799999952316284	1.00784
2189	Hm	1	Sil	Hm	2189	0.08799999952316284	1.00784
2190	Hm	1	Sil	Hm	2190	0.08799999952316284	1.00784
2191	Hm	1	Sil	Hm	2191	0.08799999952316284	1.00784
2192	Hm	1	Sil	Hm	2192	0.08799999952316284	1.00784
2193	Hm	1	Sil	Hm	2193	0.08799999952316284	1.00784
2194	Hm	1	Sil	Hm	2194	0.08799999952316284	1.00784
2195	Hm	1	Sil	Hm	2195	0.08799999952316284	1.00784
2196	Hm	1	Sil	Hm	2196	0.08799999952316284	1.00784
2197	Hm	1	Sil	Hm	2197	0.08799999952316284	1.00784
2198	Hm	1	Sil	Hm	2198	0.08799999952316284	1.00784
2199	Hm	1	Sil	Hm	2199	0.08799999952316284	1.00784
2200	Hm	1	Sil	Hm	2200	0.08799999952316284	1.00784
2201	Hm	1	Sil	Hm	2201	0.08799999952316284	1.00784
2202	Hm	1	Sil	Hm	2202	0.08799999952316284	1.00784
2203	Hm	1	Sil	Hm	2203	0.08799999952316284	1.00784
2204	Hm	1	Sil	Hm	2204	0.08799999952316284	1.00784
2205	Hm	1	Sil	Hm	2205	0.08799999952316284	1.00784
2206	Hm	1	Sil	Hm	2206	0.08799999952316284	1.00784
2207	Hm	1	Sil	Hm	2207	0.08799999952316284	1.00784
2208	Hm	1	Sil	Hm	2208	0.08799999952316284	1.00784
2209	Hm	1	Sil	Hm	2209	0.08799999952316284	1.00784
2210	Hm	1	Sil	Hm	2210	0.08799999952316284	1.00784
2211	Hm	1	Sil	Hm	2211	0.08799999952316284	1.00784
2212	Hm	1	Sil	Hm	2212	0.08799999952316284	1.00784
2213	Hm	1	Sil	Hm	2213	0.08799999952316284	1.00784
2214	Hm	1	Sil	Hm	2214	0.08799999952316284	1.00784
2215	Hm	1	Sil	Hm	2215	0.08799999952316284	1.00784
2216	Hm	1	Sil	Hm	2216	0.08799999952316284	1.00784
2217	Hm	1	Sil	Hm	2217	0.08799999952316284	1.00784
2218	Hm	1	Sil	Hm	2218	0.08799999952316284	1.00784
2219	Hm	1	Sil	Hm	2219	0.08799999952316284	1.00784
2220	Hm	1	Sil	Hm	2220	0.08799999952316284	1.00784
2221	Hm	1	Sil	Hm	2221	0.08799999952316284	1.00784
2222	Hm	1	Sil	Hm	2222	0.08799999952316284	1.00784
2223	Hm	1	Sil	Hm	2223	0.08799999952316284	1.00784
2224	Hm	1	Sil	Hm	2224	0.08799999952316284	1.00784
2225	Hm	1	Sil	Hm	2225	0.08799999952316284	1.00784
2226	Hm	1	Sil	Hm	2226	0.08799999952316284	1.00784
2227	Hm	1	Sil	Hm	2227	0.08799999952316284	1.00784
2228	Hm	1	Sil	Hm	2228	0.08799999952316284	1.00784
2229	Hm	1	Sil	Hm	2229	0.08799999952316284	1.00784
2230	Hm	1	Sil	Hm	2230	0.08799999952316284	1.00784
2231	Hm	1	Sil	Hm	2231	0.08799999952316284	1.00784
2232	Hm	1	Sil	Hm	2232	0.08799999952316284	1.00784
2233	Hm	1	Sil	Hm	2233	0.08799999952316284	1.00784
2234	Hm	1	Sil	Hm	2234	0.08799999952316284	1.00784
2235	Hm	1	Sil	Hm	2235	0.08799999952316284	1.00784
2236	Hm	1	Sil	Hm	2236	0.08799999952316284	1.00784
2237	Hm	1	Sil	Hm	2237	0.08799999952316284	1.00784
2238	Hm	1	Sil	Hm	2238	0.08799999952316284	1.00784
2239	Hm	1	Sil	Hm	2239	0.08799999952316284	1.00784
2240	Hm	1	Sil	Hm	2240	0.08799999952316284	1.00784
2241	Hm	1	Sil	Hm	2241	0.08799999952316284	1.00784
2242	Hm	1	Sil	Hm	2242	0.08799999952316284	1.00784
2243	Hm	1	Sil	Hm	2243	0.08799999952316284	1.00784
2244	Hm	1	Sil	Hm	2244	0.08799999952316284	1.00784
2245	Hm	1	Sil	Hm	2245	0.08799999952316284	1.00784
2246	Hm	1	Sil	Hm	2246	0.08799999952316284	1.00784
2247	Hm	1	Sil	Hm	2247	0.08799999952316284	1.00784
2248	Hm	1	Sil	Hm	2248	0.08799999952316284	1.00784
2249	Hm	1	Sil	Hm	2249	0.08799999952316284	1.00784
2250	Hm	1	Sil	Hm	2250	0.08799999952316284	1.00784
2251	Hm	1	Sil	Hm	2251	0.08799999952316284	1.00784
2252	Hm	1	Sil	Hm	2252	0.08799999952316284	1.00784
2253	Hm	1	Sil	Hm	2253	0.08799999952316284	1.00784
2254	Hm	1	Sil	Hm	2254	0.08799999952316284	1.00784
2255	Hm	1	Sil	Hm	2255	0.08799999952316284	1.00784
2256	Hm	1	Sil	Hm	2256	0.08799999952316284	1.00784
2257	Hm	1	Sil	Hm	2257	0.08799999952316284	1.00784
2258	Hm	1	Sil	Hm	2258	0.08799999952316284	1.00784
2259	Hm	1	Sil	Hm	2259	0.08799999952316284	1.00784
2260	Hm	1	Sil	Hm	2260	0.08799999952316284	1.00784
2261	Hm	1	Sil	Hm	2261	0.08799999952316284	1.00784
2262	Hm	1	Sil	Hm	2262	0.08799999952316284	1.00784
2263	Hm	1	Sil	Hm	2263	0.08799999952316284	1.00784
2264	Hm	1	Sil	Hm	2264	0.08799999952316284	1.00784
2265	Hm	1	Sil	Hm	2265	0.08799999952316284	1.00784
2266	Hm	1	Sil	Hm	2266	0.08799999952316284	1.00784
2267	Hm	1	Sil	Hm	2267	0.08799999952316284	1.00784
2268	Hm	1	Sil	Hm	2268	0.08799999952316284	1.00784
2269	Hm	1	Sil	Hm	2269	0.08799999952316284	1.00784
2270	Hm	1	Sil	Hm	2270	0.08799999952316284	1.00784
2271	Hm	1	Sil	Hm	2271	0.08799999952316284	1.00784
2272	Hm	1	Sil	Hm	2272	0.08799999952316284	1.00784
2273	Hm	1	Sil	Hm	2273	0.08799999952316284	1.00784
2274	Hm	1	Sil	Hm	2274	0.08799999952316284	1.00784
2275	Hm	1	Sil	Hm	2275	0.08799999952316284	1.00784
2276	Hm	1	Sil	Hm	2276	0.08799999952316284	1.00784
2277	Hm	1	Sil	Hm	2277	0.08799999952316284	1.00784
2278	Hm	1	Sil	Hm	2278	0.08799999952316284	1.00784
2279	Hm	1	Sil	Hm	2279	0.08799999952316284	1.00784
2280	Hm	1	Sil	Hm	2280	0.08799999952316284	1.00784
2281	Hm	1	Sil	Hm	2281	0.08799999952316284	1.00784
2282	Hm	1	Sil	Hm	2282	0.08799999952316284	1.00784
2283	Hm	1	Sil	Hm	2283	0.08799999952316284	1.00784
2284	Hm	1	Sil	Hm	2284	0.08799999952316284	1.00784
2285	Hm	1	Sil	Hm	2285	0.08799999952316284	1.00784
2286	Hm	1	Sil	Hm	2286	0.08799999952316284	1.00784
2287	Hm	1	Sil	Hm	2287	0.08799999952316284	1.00784
2288	Hm	1	Sil	Hm	2288	0.08799999952316284	1.00784
2289	Hm	1	Sil	Hm	2289	0.08799999952316284	1.00784
2290	Hm	1	Sil	Hm	2290	0.08799999952316284	1.00784
2291	Hm	1	Sil	Hm	2291	0.08799999952316284	1.00784
2292	Hm	1	Sil	Hm	2292	0.08799999952316284	1.00784
2293	Hm	1	Sil	Hm	2293	0.08799999952316284	1.00784
2294	Hm	1	Sil	Hm	2294	0.08799999952316284	1.00784
2295	Hm	1	Sil	Hm	2295	0.08799999952316284	1.00784
2296	Hm	1	Sil	Hm	2296	0.08799999952316284	1.00784

[ bonds ]
;  ai   aj  funct   c0         c1
1	1121	1	0.165	238488.0
1	1123	1	0.165	238488.0
2	1121	1	0.165	238488.0
2	1122	1	0.165	238488.0
3	1122	1	0.165	238488.0
3	1207	1	0.165	238488.0
4	1194	1	0.165	238488.0
4	1207	1	0.165	238488.0
5	1122	1	0.165	238488.0
5	1373	1	0.165	238488.0
6	1123	1	0.165	238488.0
6	1445	1	0.165	238488.0
7	1124	1	0.165	238488.0
7	1126	1	0.165	238488.0
8	1124	1	0.165	238488.0
8	1125	1	0.165	238488.0
9	1125	1	0.165	238488.0
9	1210	1	0.165	238488.0
10	1197	1	0.165	238488.0
10	1210	1	0.165	238488.0
11	1125	1	0.165	238488.0
11	1376	1	0.165	238488.0
12	1126	1	0.165	238488.0
12	1448	1	0.165	238488.0
13	1127	1	0.165	238488.0
13	1129	1	0.165	238488.0
14	1127	1	0.165	238488.0
14	1128	1	0.165	238488.0
15	1128	1	0.165	238488.0
15	1213	1	0.165	238488.0
16	1200	1	0.165	238488.0
16	1213	1	0.165	238488.0
17	1128	1	0.165	238488.0
17	1379	1	0.165	238488.0
18	1129	1	0.165	238488.0
18	1451	1	0.165	238488.0
19	1130	1	0.165	238488.0
19	1132	1	0.165	238488.0
20	1130	1	0.165	238488.0
20	1131	1	0.165	238488.0
21	1131	1	0.165	238488.0
21	1216	1	0.165	238488.0
22	1203	1	0.165	238488.0
22	1216	1	0.165	238488.0
23	1131	1	0.165	238488.0
23	1382	1	0.165	238488.0
24	1132	1	0.165	238488.0
24	1454	1	0.165	238488.0
25	1133	1	0.165	238488.0
25	1135	1	0.165	238488.0
26	1133	1	0.165	238488.0
26	1134	1	0.165	238488.0
27	1134	1	0.165	238488.0
27	1219	1	0.165	238488.0
28	1122	1	0.165	238488.0
28	1219	1	0.165	238488.0
29	1134	1	0.165	238488.0
29	1385	1	0.165	238488.0
30	1135	1	0.165	238488.0
30	1373	1	0.165	238488.0
31	1136	1	0.165	238488.0
31	1138	1	0.165	238488.0
32	1136	1	0.165	238488.0
32	1137	1	0.165	238488.0
33	1137	1	0.165	238488.0
33	1222	1	0.165	238488.0
34	1125	1	0.165	238488.0
34	1222	1	0.165	238488.0
35	1137	1	0.165	238488.0
35	1388	1	0.165	238488.0
36	1138	1	0.165	238488.0
36	1376	1	0.165	238488.0
37	1139	1	0.165	238488.0
37	1141	1	0.165	238488.0
38	1139	1	0.165	238488.0
38	1140	1	0.165	238488.0
39	1140	1	0.165	238488.0
39	1225	1	0.165	238488.0
40	1128	1	0.165	238488.0
40	1225	1	0.165	238488.0
41	1140	1	0.165	238488.0
41	1391	1	0.165	238488.0
42	1141	1	0.165	238488.0
42	1379	1	0.165	238488.0
43	1142	1	0.165	238488.0
43	1144	1	0.165	238488.0
44	1142	1	0.165	238488.0
44	1143	1	0.165	238488.0
45	1143	1	0.165	238488.0
45	1228	1	0.165	238488.0
46	1131	1	0.165	238488.0
46	1228	1	0.165	238488.0
47	1143	1	0.165	238488.0
47	1394	1	0.165	238488.0
48	1144	1	0.165	238488.0
48	1382	1	0.165	238488.0
49	1145	1	0.165	238488.0
49	1147	1	0.165	238488.0
50	1145	1	0.165	238488.0
50	1146	1	0.165	238488.0
51	1146	1	0.165	238488.0
51	1231	1	0.165	238488.0
52	1134	1	0.165	238488.0
52	1231	1	0.165	238488.0
53	1146	1	0.165	238488.0
53	1397	1	0.165	238488.0
54	1147	1	0.165	238488.0
54	1385	1	0.165	238488.0
55	1148	1	0.165	238488.0
55	1150	1	0.165	238488.0
56	1148	1	0.165	238488.0
56	1149	1	0.165	238488.0
57	1149	1	0.165	238488.0
57	1234	1	0.165	238488.0
58	1137	1	0.165	238488.0
58	1234	1	0.165	238488.0
59	1149	1	0.165	238488.0
59	1400	1	0.165	238488.0
60	1150	1	0.165	238488.0
60	1388	1	0.165	238488.0
61	1151	1	0.165	238488.0
61	1153	1	0.165	238488.0
62	1151	1	0.165	238488.0
62	1152	1	0.165	238488.0
63	1152	1	0.165	238488.0
63	1237	1	0.165	238488.0
64	1140	1	0.165	238488.0
64	1237	1	0.165	238488.0
65	1152	1	0.165	238488.0
65	1403	1	0.165	238488.0
66	1153	1	0.165	238488.0
66	1391	1	0.165	238488.0
67	1154	1	0.165	238488.0
67	1156	1	0.165	238488.0
68	1154	1	0.165	238488.0
68	1155	1	0.165	238488.0
69	1155	1	0.165	238488.0
69	1240	1	0.165	238488.0
70	1143	1	0.165	238488.0
70	1240	1	0.165	238488.0
71	1155	1	0.165	238488.0
71	1406	1	0.165	238488.0
72	1156	1	0.165	238488.0
72	1394	1	0.165	238488.0
73	1157	1	0.165	238488.0
73	1159	1	0.165	238488.0
74	1157	1	0.165	238488.0
74	1158	1	0.165	238488.0
75	1158	1	0.165	238488.0
75	1243	1	0.165	238488.0
76	1146	1	0.165	238488.0
76	1243	1	0.165	238488.0
77	1158	1	0.165	238488.0
77	1409	1	0.165	238488.0
78	1159	1	0.165	238488.0
78	1397	1	0.165	238488.0
79	1160	1	0.165	238488.0
79	1162	1	0.165	238488.0
80	1160	1	0.165	238488.0
80	1161	1	0.165	238488.0
81	1161	1	0.165	238488.0
81	1246	1	0.165	238488.0
82	1149	1	0.165	238488.0
82	1246	1	0.165	238488.0
83	1161	1	0.165	238488.0
83	1412	1	0.165	238488.0
84	1162	1	0.165	238488.0
84	1400	1	0.165	238488.0
85	1163	1	0.165	238488.0
85	1165	1	0.165	238488.0
86	1163	1	0.165	238488.0
86	1164	1	0.165	238488.0
87	1164	1	0.165	238488.0
87	1249	1	0.165	238488.0
88	1152	1	0.165	238488.0
88	1249	1	0.165	238488.0
89	1164	1	0.165	238488.0
89	1415	1	0.165	238488.0
90	1165	1	0.165	238488.0
90	1403	1	0.165	238488.0
91	1166	1	0.165	238488.0
91	1168	1	0.165	238488.0
92	1166	1	0.165	238488.0
92	1167	1	0.165	238488.0
93	1167	1	0.165	238488.0
93	1252	1	0.165	238488.0
94	1155	1	0.165	238488.0
94	1252	1	0.165	238488.0
95	1167	1	0.165	238488.0
95	1418	1	0.165	238488.0
96	1168	1	0.165	238488.0
96	1406	1	0.165	238488.0
97	1169	1	0.165	238488.0
97	1171	1	0.165	238488.0
98	1169	1	0.165	238488.0
98	1170	1	0.165	238488.0
99	1170	1	0.165	238488.0
99	1255	1	0.165	238488.0
100	1158	1	0.165	238488.0
100	1255	1	0.165	238488.0
101	1170	1	0.165	238488.0
101	1421	1	0.165	238488.0
102	1171	1	0.165	238488.0
102	1409	1	0.165	238488.0
103	1172	1	0.165	238488.0
103	1174	1	0.165	238488.0
104	1172	1	0.165	238488.0
104	1173	1	0.165	238488.0
105	1173	1	0.165	238488.0
105	1258	1	0.165	238488.0
106	1161	1	0.165	238488.0
106	1258	1	0.165	238488.0
107	1173	1	0.165	238488.0
107	1424	1	0.165	238488.0
108	1174	1	0.165	238488.0
108	1412	1	0.165	238488.0
109	1175	1	0.165	238488.0
109	1177	1	0.165	238488.0
110	1175	1	0.165	238488.0
110	1176	1	0.165	238488.0
111	1176	1	0.165	238488.0
111	1261	1	0.165	238488.0
112	1164	1	0.165	238488.0
112	1261	1	0.165	238488.0
113	1176	1	0.165	238488.0
113	1427	1	0.165	238488.0
114	1177	1	0.165	238488.0
114	1415	1	0.165	238488.0
115	1178	1	0.165	238488.0
115	1180	1	0.165	238488.0
116	1178	1	0.165	238488.0
116	1179	1	0.165	238488.0
117	1179	1	0.165	238488.0
117	1264	1	0.165	238488.0
118	1167	1	0.165	238488.0
118	1264	1	0.165	238488.0
119	1179	1	0.165	238488.0
119	1430	1	0.165	238488.0
120	1180	1	0.165	238488.0
120	1418	1	0.165	238488.0
121	1181	1	0.165	238488.0
121	1183	1	0.165	238488.0
122	1181	1	0.165	238488.0
122	1182	1	0.165	238488.0
123	1182	1	0.165	238488.0
123	1267	1	0.165	238488.0
124	1170	1	0.165	238488.0
124	1267	1	0.165	238488.0
125	1182	1	0.165	238488.0
125	1433	1	0.165	238488.0
126	1183	1	0.165	238488.0
126	1421	1	0.165	238488.0
127	1184	1	0.165	238488.0
127	1186	1	0.165	238488.0
128	1184	1	0.165	238488.0
128	1185	1	0.165	238488.0
129	1185	1	0.165	238488.0
129	1270	1	0.165	238488.0
130	1173	1	0.165	238488.0
130	1270	1	0.165	238488.0
131	1185	1	0.165	238488.0
131	1436	1	0.165	238488.0
132	1186	1	0.165	238488.0
132	1424	1	0.165	238488.0
133	1187	1	0.165	238488.0
133	1189	1	0.165	238488.0
134	1187	1	0.165	238488.0
134	1188	1	0.165	238488.0
135	1188	1	0.165	238488.0
135	1273	1	0.165	238488.0
136	1176	1	0.165	238488.0
136	1273	1	0.165	238488.0
137	1188	1	0.165	238488.0
137	1439	1	0.165	238488.0
138	1189	1	0.165	238488.0
138	1427	1	0.165	238488.0
139	1190	1	0.165	238488.0
139	1192	1	0.165	238488.0
140	1190	1	0.165	238488.0
140	1191	1	0.165	238488.0
141	1191	1	0.165	238488.0
141	1276	1	0.165	238488.0
142	1179	1	0.165	238488.0
142	1276	1	0.165	238488.0
143	1191	1	0.165	238488.0
143	1442	1	0.165	238488.0
144	1192	1	0.165	238488.0
144	1430	1	0.165	238488.0
145	1193	1	0.165	238488.0
145	1195	1	0.165	238488.0
146	1193	1	0.165	238488.0
146	1194	1	0.165	238488.0
147	1194	1	0.165	238488.0
147	1279	1	0.165	238488.0
148	1182	1	0.165	238488.0
148	1279	1	0.165	238488.0
149	1194	1	0.165	238488.0
149	1445	1	0.165	238488.0
150	1195	1	0.165	238488.0
150	1433	1	0.165	238488.0
151	1196	1	0.165	238488.0
151	1198	1	0.165	238488.0
152	1196	1	0.165	238488.0
152	1197	1	0.165	238488.0
153	1197	1	0.165	238488.0
153	1282	1	0.165	238488.0
154	1185	1	0.165	238488.0
154	1282	1	0.165	238488.0
155	1197	1	0.165	238488.0
155	1448	1	0.165	238488.0
156	1198	1	0.165	238488.0
156	1436	1	0.165	238488.0
157	1199	1	0.165	238488.0
157	1201	1	0.165	238488.0
158	1199	1	0.165	238488.0
158	1200	1	0.165	238488.0
159	1200	1	0.165	238488.0
159	1285	1	0.165	238488.0
160	1188	1	0.165	238488.0
160	1285	1	0.165	238488.0
161	1200	1	0.165	238488.0
161	1451	1	0.165	238488.0
162	1201	1	0.165	238488.0
162	1439	1	0.165	238488.0
163	1202	1	0.165	238488.0
163	1204	1	0.165	238488.0
164	1202	1	0.165	238488.0
164	1203	1	0.165	238488.0
165	1203	1	0.165	238488.0
165	1288	1	0.165	238488.0
166	1191	1	0.165	238488.0
166	1288	1	0.165	238488.0
167	1203	1	0.165	238488.0
167	1454	1	0.165	238488.0
168	1204	1	0.165	238488.0
168	1442	1	0.165	238488.0
169	1205	1	0.165	238488.0
169	1207	1	0.165	238488.0
170	1205	1	0.165	238488.0
170	1206	1	0.165	238488.0
171	1206	1	0.165	238488.0
171	1291	1	0.165	238488.0
172	1278	1	0.165	238488.0
172	1291	1	0.165	238488.0
173	1206	1	0.165	238488.0
173	1457	1	0.165	238488.0
174	1207	1	0.165	238488.0
174	1529	1	0.165	238488.0
175	1208	1	0.165	238488.0
175	1210	1	0.165	238488.0
176	1208	1	0.165	238488.0
176	1209	1	0.165	238488.0
177	1209	1	0.165	238488.0
177	1294	1	0.165	238488.0
178	1281	1	0.165	238488.0
178	1294	1	0.165	238488.0
179	1209	1	0.165	238488.0
179	1460	1	0.165	238488.0
180	1210	1	0.165	238488.0
180	1532	1	0.165	238488.0
181	1211	1	0.165	238488.0
181	1213	1	0.165	238488.0
182	1211	1	0.165	238488.0
182	1212	1	0.165	238488.0
183	1212	1	0.165	238488.0
183	1297	1	0.165	238488.0
184	1284	1	0.165	238488.0
184	1297	1	0.165	238488.0
185	1212	1	0.165	238488.0
185	1463	1	0.165	238488.0
186	1213	1	0.165	238488.0
186	1535	1	0.165	238488.0
187	1214	1	0.165	238488.0
187	1216	1	0.165	238488.0
188	1214	1	0.165	238488.0
188	1215	1	0.165	238488.0
189	1215	1	0.165	238488.0
189	1300	1	0.165	238488.0
190	1287	1	0.165	238488.0
190	1300	1	0.165	238488.0
191	1215	1	0.165	238488.0
191	1466	1	0.165	238488.0
192	1216	1	0.165	238488.0
192	1538	1	0.165	238488.0
193	1217	1	0.165	238488.0
193	1219	1	0.165	238488.0
194	1217	1	0.165	238488.0
194	1218	1	0.165	238488.0
195	1218	1	0.165	238488.0
195	1303	1	0.165	238488.0
196	1206	1	0.165	238488.0
196	1303	1	0.165	238488.0
197	1218	1	0.165	238488.0
197	1469	1	0.165	238488.0
198	1219	1	0.165	238488.0
198	1457	1	0.165	238488.0
199	1220	1	0.165	238488.0
199	1222	1	0.165	238488.0
200	1220	1	0.165	238488.0
200	1221	1	0.165	238488.0
201	1221	1	0.165	238488.0
201	1306	1	0.165	238488.0
202	1209	1	0.165	238488.0
202	1306	1	0.165	238488.0
203	1221	1	0.165	238488.0
203	1472	1	0.165	238488.0
204	1222	1	0.165	238488.0
204	1460	1	0.165	238488.0
205	1223	1	0.165	238488.0
205	1225	1	0.165	238488.0
206	1223	1	0.165	238488.0
206	1224	1	0.165	238488.0
207	1224	1	0.165	238488.0
207	1309	1	0.165	238488.0
208	1212	1	0.165	238488.0
208	1309	1	0.165	238488.0
209	1224	1	0.165	238488.0
209	1475	1	0.165	238488.0
210	1225	1	0.165	238488.0
210	1463	1	0.165	238488.0
211	1226	1	0.165	238488.0
211	1228	1	0.165	238488.0
212	1226	1	0.165	238488.0
212	1227	1	0.165	238488.0
213	1227	1	0.165	238488.0
213	1312	1	0.165	238488.0
214	1215	1	0.165	238488.0
214	1312	1	0.165	238488.0
215	1227	1	0.165	238488.0
215	1478	1	0.165	238488.0
216	1228	1	0.165	238488.0
216	1466	1	0.165	238488.0
217	1229	1	0.165	238488.0
217	1231	1	0.165	238488.0
218	1229	1	0.165	238488.0
218	1230	1	0.165	238488.0
219	1230	1	0.165	238488.0
219	1315	1	0.165	238488.0
220	1218	1	0.165	238488.0
220	1315	1	0.165	238488.0
221	1230	1	0.165	238488.0
221	1481	1	0.165	238488.0
222	1231	1	0.165	238488.0
222	1469	1	0.165	238488.0
223	1232	1	0.165	238488.0
223	1234	1	0.165	238488.0
224	1232	1	0.165	238488.0
224	1233	1	0.165	238488.0
225	1233	1	0.165	238488.0
225	1318	1	0.165	238488.0
226	1221	1	0.165	238488.0
226	1318	1	0.165	238488.0
227	1233	1	0.165	238488.0
227	1484	1	0.165	238488.0
228	1234	1	0.165	238488.0
228	1472	1	0.165	238488.0
229	1235	1	0.165	238488.0
229	1237	1	0.165	238488.0
230	1235	1	0.165	238488.0
230	1236	1	0.165	238488.0
231	1236	1	0.165	238488.0
231	1321	1	0.165	238488.0
232	1224	1	0.165	238488.0
232	1321	1	0.165	238488.0
233	1236	1	0.165	238488.0
233	1487	1	0.165	238488.0
234	1237	1	0.165	238488.0
234	1475	1	0.165	238488.0
235	1238	1	0.165	238488.0
235	1240	1	0.165	238488.0
236	1238	1	0.165	238488.0
236	1239	1	0.165	238488.0
237	1239	1	0.165	238488.0
237	1324	1	0.165	238488.0
238	1227	1	0.165	238488.0
238	1324	1	0.165	238488.0
239	1239	1	0.165	238488.0
239	1490	1	0.165	238488.0
240	1240	1	0.165	238488.0
240	1478	1	0.165	238488.0
241	1241	1	0.165	238488.0
241	1243	1	0.165	238488.0
242	1241	1	0.165	238488.0
242	1242	1	0.165	238488.0
243	1242	1	0.165	238488.0
243	1327	1	0.165	238488.0
244	1230	1	0.165	238488.0
244	1327	1	0.165	238488.0
245	1242	1	0.165	238488.0
245	1493	1	0.165	238488.0
246	1243	1	0.165	238488.0
246	1481	1	0.165	238488.0
247	1244	1	0.165	238488.0
247	1246	1	0.165	238488.0
248	1244	1	0.165	238488.0
248	1245	1	0.165	238488.0
249	1245	1	0.165	238488.0
249	1330	1	0.165	238488.0
250	1233	1	0.165	238488.0
250	1330	1	0.165	238488.0
251	1245	1	0.165	238488.0
251	1496	1	0.165	238488.0
252	1246	1	0.165	238488.0
252	1484	1	0.165	238488.0
253	1247	1	0.165	238488.0
253	1249	1	0.165	238488.0
254	1247	1	0.165	238488.0
254	1248	1	0.165	238488.0
255	1248	1	0.165	238488.0
255	1333	1	0.165	238488.0
256	1236	1	0.165	238488.0
256	1333	1	0.165	238488.0
257	1248	1	0.165	238488.0
257	1499	1	0.165	238488.0
258	1249	1	0.165	238488.0
258	1487	1	0.165	238488.0
259	1250	1	0.165	238488.0
259	1252	1	0.165	238488.0
260	1250	1	0.165	238488.0
260	1251	1	0.165	238488.0
261	1251	1	0.165	238488.0
261	1336	1	0.165	238488.0
262	1239	1	0.165	238488.0
262	1336	1	0.165	238488.0
263	1251	1	0.165	238488.0
263	1502	1	0.165	238488.0
264	1252	1	0.165	238488.0
264	1490	1	0.165	238488.0
265	1253	1	0.165	238488.0
265	1255	1	0.165	238488.0
266	1253	1	0.165	238488.0
266	1254	1	0.165	238488.0
267	1254	1	0.165	238488.0
267	1339	1	0.165	238488.0
268	1242	1	0.165	238488.0
268	1339	1	0.165	238488.0
269	1254	1	0.165	238488.0
269	1505	1	0.165	238488.0
270	1255	1	0.165	238488.0
270	1493	1	0.165	238488.0
271	1256	1	0.165	238488.0
271	1258	1	0.165	238488.0
272	1256	1	0.165	238488.0
272	1257	1	0.165	238488.0
273	1257	1	0.165	238488.0
273	1342	1	0.165	238488.0
274	1245	1	0.165	238488.0
274	1342	1	0.165	238488.0
275	1257	1	0.165	238488.0
275	1508	1	0.165	238488.0
276	1258	1	0.165	238488.0
276	1496	1	0.165	238488.0
277	1259	1	0.165	238488.0
277	1261	1	0.165	238488.0
278	1259	1	0.165	238488.0
278	1260	1	0.165	238488.0
279	1260	1	0.165	238488.0
279	1345	1	0.165	238488.0
280	1248	1	0.165	238488.0
280	1345	1	0.165	238488.0
281	1260	1	0.165	238488.0
281	1511	1	0.165	238488.0
282	1261	1	0.165	238488.0
282	1499	1	0.165	238488.0
283	1262	1	0.165	238488.0
283	1264	1	0.165	238488.0
284	1262	1	0.165	238488.0
284	1263	1	0.165	238488.0
285	1263	1	0.165	238488.0
285	1348	1	0.165	238488.0
286	1251	1	0.165	238488.0
286	1348	1	0.165	238488.0
287	1263	1	0.165	238488.0
287	1514	1	0.165	238488.0
288	1264	1	0.165	238488.0
288	1502	1	0.165	238488.0
289	1265	1	0.165	238488.0
289	1267	1	0.165	238488.0
290	1265	1	0.165	238488.0
290	1266	1	0.165	238488.0
291	1266	1	0.165	238488.0
291	1351	1	0.165	238488.0
292	1254	1	0.165	238488.0
292	1351	1	0.165	238488.0
293	1266	1	0.165	238488.0
293	1517	1	0.165	238488.0
294	1267	1	0.165	238488.0
294	1505	1	0.165	238488.0
295	1268	1	0.165	238488.0
295	1270	1	0.165	238488.0
296	1268	1	0.165	238488.0
296	1269	1	0.165	238488.0
297	1269	1	0.165	238488.0
297	1354	1	0.165	238488.0
298	1257	1	0.165	238488.0
298	1354	1	0.165	238488.0
299	1269	1	0.165	238488.0
299	1520	1	0.165	238488.0
300	1270	1	0.165	238488.0
300	1508	1	0.165	238488.0
301	1271	1	0.165	238488.0
301	1273	1	0.165	238488.0
302	1271	1	0.165	238488.0
302	1272	1	0.165	238488.0
303	1272	1	0.165	238488.0
303	1357	1	0.165	238488.0
304	1260	1	0.165	238488.0
304	1357	1	0.165	238488.0
305	1272	1	0.165	238488.0
305	1523	1	0.165	238488.0
306	1273	1	0.165	238488.0
306	1511	1	0.165	238488.0
307	1274	1	0.165	238488.0
307	1276	1	0.165	238488.0
308	1274	1	0.165	238488.0
308	1275	1	0.165	238488.0
309	1275	1	0.165	238488.0
309	1360	1	0.165	238488.0
310	1263	1	0.165	238488.0
310	1360	1	0.165	238488.0
311	1275	1	0.165	238488.0
311	1526	1	0.165	238488.0
312	1276	1	0.165	238488.0
312	1514	1	0.165	238488.0
313	1277	1	0.165	238488.0
313	1279	1	0.165	238488.0
314	1277	1	0.165	238488.0
314	1278	1	0.165	238488.0
315	1278	1	0.165	238488.0
315	1363	1	0.165	238488.0
316	1266	1	0.165	238488.0
316	1363	1	0.165	238488.0
317	1278	1	0.165	238488.0
317	1529	1	0.165	238488.0
318	1279	1	0.165	238488.0
318	1517	1	0.165	238488.0
319	1280	1	0.165	238488.0
319	1282	1	0.165	238488.0
320	1280	1	0.165	238488.0
320	1281	1	0.165	238488.0
321	1281	1	0.165	238488.0
321	1366	1	0.165	238488.0
322	1269	1	0.165	238488.0
322	1366	1	0.165	238488.0
323	1281	1	0.165	238488.0
323	1532	1	0.165	238488.0
324	1282	1	0.165	238488.0
324	1520	1	0.165	238488.0
325	1283	1	0.165	238488.0
325	1285	1	0.165	238488.0
326	1283	1	0.165	238488.0
326	1284	1	0.165	238488.0
327	1284	1	0.165	238488.0
327	1369	1	0.165	238488.0
328	1272	1	0.165	238488.0
328	1369	1	0.165	238488.0
329	1284	1	0.165	238488.0
329	1535	1	0.165	238488.0
330	1285	1	0.165	238488.0
330	1523	1	0.165	238488.0
331	1286	1	0.165	238488.0
331	1288	1	0.165	238488.0
332	1286	1	0.165	238488.0
332	1287	1	0.165	238488.0
333	1287	1	0.165	238488.0
333	1372	1	0.165	238488.0
334	1275	1	0.165	238488.0
334	1372	1	0.165	238488.0
335	1287	1	0.165	238488.0
335	1538	1	0.165	238488.0
336	1288	1	0.165	238488.0
336	1526	1	0.165	238488.0
337	1289	1	0.165	238488.0
337	1291	1	0.165	238488.0
338	1289	1	0.165	238488.0
338	1290	1	0.165	238488.0
339	1290	1	0.165	238488.0
339	1541	1	0.165	238488.0
340	1291	1	0.165	238488.0
340	1613	1	0.165	238488.0
341	1292	1	0.165	238488.0
341	1294	1	0.165	238488.0
342	1292	1	0.165	238488.0
342	1293	1	0.165	238488.0
343	1293	1	0.165	238488.0
343	1544	1	0.165	238488.0
344	1294	1	0.165	238488.0
344	1616	1	0.165	238488.0
345	1295	1	0.165	238488.0
345	1297	1	0.165	238488.0
346	1295	1	0.165	238488.0
346	1296	1	0.165	238488.0
347	1296	1	0.165	238488.0
347	1547	1	0.165	238488.0
348	1297	1	0.165	238488.0
348	1619	1	0.165	238488.0
349	1298	1	0.165	238488.0
349	1300	1	0.165	238488.0
350	1298	1	0.165	238488.0
350	1299	1	0.165	238488.0
351	1299	1	0.165	238488.0
351	1550	1	0.165	238488.0
352	1300	1	0.165	238488.0
352	1622	1	0.165	238488.0
353	1301	1	0.165	238488.0
353	1303	1	0.165	238488.0
354	1301	1	0.165	238488.0
354	1302	1	0.165	238488.0
355	1302	1	0.165	238488.0
355	1553	1	0.165	238488.0
356	1303	1	0.165	238488.0
356	1541	1	0.165	238488.0
357	1304	1	0.165	238488.0
357	1306	1	0.165	238488.0
358	1304	1	0.165	238488.0
358	1305	1	0.165	238488.0
359	1305	1	0.165	238488.0
359	1556	1	0.165	238488.0
360	1306	1	0.165	238488.0
360	1544	1	0.165	238488.0
361	1307	1	0.165	238488.0
361	1309	1	0.165	238488.0
362	1307	1	0.165	238488.0
362	1308	1	0.165	238488.0
363	1308	1	0.165	238488.0
363	1559	1	0.165	238488.0
364	1309	1	0.165	238488.0
364	1547	1	0.165	238488.0
365	1310	1	0.165	238488.0
365	1312	1	0.165	238488.0
366	1310	1	0.165	238488.0
366	1311	1	0.165	238488.0
367	1311	1	0.165	238488.0
367	1562	1	0.165	238488.0
368	1312	1	0.165	238488.0
368	1550	1	0.165	238488.0
369	1313	1	0.165	238488.0
369	1315	1	0.165	238488.0
370	1313	1	0.165	238488.0
370	1314	1	0.165	238488.0
371	1314	1	0.165	238488.0
371	1565	1	0.165	238488.0
372	1315	1	0.165	238488.0
372	1553	1	0.165	238488.0
373	1316	1	0.165	238488.0
373	1318	1	0.165	238488.0
374	1316	1	0.165	238488.0
374	1317	1	0.165	238488.0
375	1317	1	0.165	238488.0
375	1568	1	0.165	238488.0
376	1318	1	0.165	238488.0
376	1556	1	0.165	238488.0
377	1319	1	0.165	238488.0
377	1321	1	0.165	238488.0
378	1319	1	0.165	238488.0
378	1320	1	0.165	238488.0
379	1320	1	0.165	238488.0
379	1571	1	0.165	238488.0
380	1321	1	0.165	238488.0
380	1559	1	0.165	238488.0
381	1322	1	0.165	238488.0
381	1324	1	0.165	238488.0
382	1322	1	0.165	238488.0
382	1323	1	0.165	238488.0
383	1323	1	0.165	238488.0
383	1574	1	0.165	238488.0
384	1324	1	0.165	238488.0
384	1562	1	0.165	238488.0
385	1325	1	0.165	238488.0
385	1327	1	0.165	238488.0
386	1325	1	0.165	238488.0
386	1326	1	0.165	238488.0
387	1326	1	0.165	238488.0
387	1577	1	0.165	238488.0
388	1327	1	0.165	238488.0
388	1565	1	0.165	238488.0
389	1328	1	0.165	238488.0
389	1330	1	0.165	238488.0
390	1328	1	0.165	238488.0
390	1329	1	0.165	238488.0
391	1329	1	0.165	238488.0
391	1580	1	0.165	238488.0
392	1330	1	0.165	238488.0
392	1568	1	0.165	238488.0
393	1331	1	0.165	238488.0
393	1333	1	0.165	238488.0
394	1331	1	0.165	238488.0
394	1332	1	0.165	238488.0
395	1332	1	0.165	238488.0
395	1583	1	0.165	238488.0
396	1333	1	0.165	238488.0
396	1571	1	0.165	238488.0
397	1334	1	0.165	238488.0
397	1336	1	0.165	238488.0
398	1334	1	0.165	238488.0
398	1335	1	0.165	238488.0
399	1335	1	0.165	238488.0
399	1586	1	0.165	238488.0
400	1336	1	0.165	238488.0
400	1574	1	0.165	238488.0
401	1337	1	0.165	238488.0
401	1339	1	0.165	238488.0
402	1337	1	0.165	238488.0
402	1338	1	0.165	238488.0
403	1338	1	0.165	238488.0
403	1589	1	0.165	238488.0
404	1339	1	0.165	238488.0
404	1577	1	0.165	238488.0
405	1340	1	0.165	238488.0
405	1342	1	0.165	238488.0
406	1340	1	0.165	238488.0
406	1341	1	0.165	238488.0
407	1341	1	0.165	238488.0
407	1592	1	0.165	238488.0
408	1342	1	0.165	238488.0
408	1580	1	0.165	238488.0
409	1343	1	0.165	238488.0
409	1345	1	0.165	238488.0
410	1343	1	0.165	238488.0
410	1344	1	0.165	238488.0
411	1344	1	0.165	238488.0
411	1595	1	0.165	238488.0
412	1345	1	0.165	238488.0
412	1583	1	0.165	238488.0
413	1346	1	0.165	238488.0
413	1348	1	0.165	238488.0
414	1346	1	0.165	238488.0
414	1347	1	0.165	238488.0
415	1347	1	0.165	238488.0
415	1598	1	0.165	238488.0
416	1348	1	0.165	238488.0
416	1586	1	0.165	238488.0
417	1349	1	0.165	238488.0
417	1351	1	0.165	238488.0
418	1349	1	0.165	238488.0
418	1350	1	0.165	238488.0
419	1350	1	0.165	238488.0
419	1601	1	0.165	238488.0
420	1351	1	0.165	238488.0
420	1589	1	0.165	238488.0
421	1352	1	0.165	238488.0
421	1354	1	0.165	238488.0
422	1352	1	0.165	238488.0
422	1353	1	0.165	238488.0
423	1353	1	0.165	238488.0
423	1604	1	0.165	238488.0
424	1354	1	0.165	238488.0
424	1592	1	0.165	238488.0
425	1355	1	0.165	238488.0
425	1357	1	0.165	238488.0
426	1355	1	0.165	238488.0
426	1356	1	0.165	238488.0
427	1356	1	0.165	238488.0
427	1607	1	0.165	238488.0
428	1357	1	0.165	238488.0
428	1595	1	0.165	238488.0
429	1358	1	0.165	238488.0
429	1360	1	0.165	238488.0
430	1358	1	0.165	238488.0
430	1359	1	0.165	238488.0
431	1359	1	0.165	238488.0
431	1610	1	0.165	238488.0
432	1360	1	0.165	238488.0
432	1598	1	0.165	238488.0
433	1361	1	0.165	238488.0
433	1363	1	0.165	238488.0
434	1361	1	0.165	238488.0
434	1362	1	0.165	238488.0
435	1362	1	0.165	238488.0
435	1613	1	0.165	238488.0
436	1363	1	0.165	238488.0
436	1601	1	0.165	238488.0
437	1364	1	0.165	238488.0
437	1366	1	0.165	238488.0
438	1364	1	0.165	238488.0
438	1365	1	0.165	238488.0
439	1365	1	0.165	238488.0
439	1616	1	0.165	238488.0
440	1366	1	0.165	238488.0
440	1604	1	0.165	238488.0
441	1367	1	0.165	238488.0
441	1369	1	0.165	238488.0
442	1367	1	0.165	238488.0
442	1368	1	0.165	238488.0
443	1368	1	0.165	238488.0
443	1619	1	0.165	238488.0
444	1369	1	0.165	238488.0
444	1607	1	0.165	238488.0
445	1370	1	0.165	238488.0
445	1372	1	0.165	238488.0
446	1370	1	0.165	238488.0
446	1371	1	0.165	238488.0
447	1371	1	0.165	238488.0
447	1622	1	0.165	238488.0
448	1372	1	0.165	238488.0
448	1610	1	0.165	238488.0
449	1373	1	0.165	238488.0
449	1375	1	0.165	238488.0
450	1374	1	0.165	238488.0
450	1445	1	0.165	238488.0
451	1374	1	0.165	238488.0
451	1531	1	0.165	238488.0
452	1374	1	0.165	238488.0
452	1459	1	0.165	238488.0
453	1124	1	0.165	238488.0
453	1374	1	0.165	238488.0
454	1124	1	0.165	238488.0
454	1375	1	0.165	238488.0
455	1376	1	0.165	238488.0
455	1378	1	0.165	238488.0
456	1377	1	0.165	238488.0
456	1448	1	0.165	238488.0
457	1377	1	0.165	238488.0
457	1534	1	0.165	238488.0
458	1377	1	0.165	238488.0
458	1462	1	0.165	238488.0
459	1127	1	0.165	238488.0
459	1377	1	0.165	238488.0
460	1127	1	0.165	238488.0
460	1378	1	0.165	238488.0
461	1379	1	0.165	238488.0
461	1381	1	0.165	238488.0
462	1380	1	0.165	238488.0
462	1451	1	0.165	238488.0
463	1380	1	0.165	238488.0
463	1537	1	0.165	238488.0
464	1380	1	0.165	238488.0
464	1465	1	0.165	238488.0
465	1130	1	0.165	238488.0
465	1380	1	0.165	238488.0
466	1130	1	0.165	238488.0
466	1381	1	0.165	238488.0
467	1382	1	0.165	238488.0
467	1384	1	0.165	238488.0
468	1383	1	0.165	238488.0
468	1454	1	0.165	238488.0
469	1383	1	0.165	238488.0
469	1540	1	0.165	238488.0
470	1383	1	0.165	238488.0
470	1468	1	0.165	238488.0
471	1121	1	0.165	238488.0
471	1383	1	0.165	238488.0
472	1121	1	0.165	238488.0
472	1384	1	0.165	238488.0
473	1385	1	0.165	238488.0
473	1387	1	0.165	238488.0
474	1373	1	0.165	238488.0
474	1386	1	0.165	238488.0
475	1386	1	0.165	238488.0
475	1459	1	0.165	238488.0
476	1386	1	0.165	238488.0
476	1471	1	0.165	238488.0
477	1136	1	0.165	238488.0
477	1386	1	0.165	238488.0
478	1136	1	0.165	238488.0
478	1387	1	0.165	238488.0
479	1388	1	0.165	238488.0
479	1390	1	0.165	238488.0
480	1376	1	0.165	238488.0
480	1389	1	0.165	238488.0
481	1389	1	0.165	238488.0
481	1462	1	0.165	238488.0
482	1389	1	0.165	238488.0
482	1474	1	0.165	238488.0
483	1139	1	0.165	238488.0
483	1389	1	0.165	238488.0
484	1139	1	0.165	238488.0
484	1390	1	0.165	238488.0
485	1391	1	0.165	238488.0
485	1393	1	0.165	238488.0
486	1379	1	0.165	238488.0
486	1392	1	0.165	238488.0
487	1392	1	0.165	238488.0
487	1465	1	0.165	238488.0
488	1392	1	0.165	238488.0
488	1477	1	0.165	238488.0
489	1142	1	0.165	238488.0
489	1392	1	0.165	238488.0
490	1142	1	0.165	238488.0
490	1393	1	0.165	238488.0
491	1394	1	0.165	238488.0
491	1396	1	0.165	238488.0
492	1382	1	0.165	238488.0
492	1395	1	0.165	238488.0
493	1395	1	0.165	238488.0
493	1468	1	0.165	238488.0
494	1395	1	0.165	238488.0
494	1480	1	0.165	238488.0
495	1133	1	0.165	238488.0
495	1395	1	0.165	238488.0
496	1133	1	0.165	238488.0
496	1396	1	0.165	238488.0
497	1397	1	0.165	238488.0
497	1399	1	0.165	238488.0
498	1385	1	0.165	238488.0
498	1398	1	0.165	238488.0
499	1398	1	0.165	238488.0
499	1471	1	0.165	238488.0
500	1398	1	0.165	238488.0
500	1483	1	0.165	238488.0
501	1148	1	0.165	238488.0
501	1398	1	0.165	238488.0
502	1148	1	0.165	238488.0
502	1399	1	0.165	238488.0
503	1400	1	0.165	238488.0
503	1402	1	0.165	238488.0
504	1388	1	0.165	238488.0
504	1401	1	0.165	238488.0
505	1401	1	0.165	238488.0
505	1474	1	0.165	238488.0
506	1401	1	0.165	238488.0
506	1486	1	0.165	238488.0
507	1151	1	0.165	238488.0
507	1401	1	0.165	238488.0
508	1151	1	0.165	238488.0
508	1402	1	0.165	238488.0
509	1403	1	0.165	238488.0
509	1405	1	0.165	238488.0
510	1391	1	0.165	238488.0
510	1404	1	0.165	238488.0
511	1404	1	0.165	238488.0
511	1477	1	0.165	238488.0
512	1404	1	0.165	238488.0
512	1489	1	0.165	238488.0
513	1154	1	0.165	238488.0
513	1404	1	0.165	238488.0
514	1154	1	0.165	238488.0
514	1405	1	0.165	238488.0
515	1406	1	0.165	238488.0
515	1408	1	0.165	238488.0
516	1394	1	0.165	238488.0
516	1407	1	0.165	238488.0
517	1407	1	0.165	238488.0
517	1480	1	0.165	238488.0
518	1407	1	0.165	238488.0
518	1492	1	0.165	238488.0
519	1145	1	0.165	238488.0
519	1407	1	0.165	238488.0
520	1145	1	0.165	238488.0
520	1408	1	0.165	238488.0
521	1409	1	0.165	238488.0
521	1411	1	0.165	238488.0
522	1397	1	0.165	238488.0
522	1410	1	0.165	238488.0
523	1410	1	0.165	238488.0
523	1483	1	0.165	238488.0
524	1410	1	0.165	238488.0
524	1495	1	0.165	238488.0
525	1160	1	0.165	238488.0
525	1410	1	0.165	238488.0
526	1160	1	0.165	238488.0
526	1411	1	0.165	238488.0
527	1412	1	0.165	238488.0
527	1414	1	0.165	238488.0
528	1400	1	0.165	238488.0
528	1413	1	0.165	238488.0
529	1413	1	0.165	238488.0
529	1486	1	0.165	238488.0
530	1413	1	0.165	238488.0
530	1498	1	0.165	238488.0
531	1163	1	0.165	238488.0
531	1413	1	0.165	238488.0
532	1163	1	0.165	238488.0
532	1414	1	0.165	238488.0
533	1415	1	0.165	238488.0
533	1417	1	0.165	238488.0
534	1403	1	0.165	238488.0
534	1416	1	0.165	238488.0
535	1416	1	0.165	238488.0
535	1489	1	0.165	238488.0
536	1416	1	0.165	238488.0
536	1501	1	0.165	238488.0
537	1166	1	0.165	238488.0
537	1416	1	0.165	238488.0
538	1166	1	0.165	238488.0
538	1417	1	0.165	238488.0
539	1418	1	0.165	238488.0
539	1420	1	0.165	238488.0
540	1406	1	0.165	238488.0
540	1419	1	0.165	238488.0
541	1419	1	0.165	238488.0
541	1492	1	0.165	238488.0
542	1419	1	0.165	238488.0
542	1504	1	0.165	238488.0
543	1157	1	0.165	238488.0
543	1419	1	0.165	238488.0
544	1157	1	0.165	238488.0
544	1420	1	0.165	238488.0
545	1421	1	0.165	238488.0
545	1423	1	0.165	238488.0
546	1409	1	0.165	238488.0
546	1422	1	0.165	238488.0
547	1422	1	0.165	238488.0
547	1495	1	0.165	238488.0
548	1422	1	0.165	238488.0
548	1507	1	0.165	238488.0
549	1172	1	0.165	238488.0
549	1422	1	0.165	238488.0
550	1172	1	0.165	238488.0
550	1423	1	0.165	238488.0
551	1424	1	0.165	238488.0
551	1426	1	0.165	238488.0
552	1412	1	0.165	238488.0
552	1425	1	0.165	238488.0
553	1425	1	0.165	238488.0
553	1498	1	0.165	238488.0
554	1425	1	0.165	238488.0
554	1510	1	0.165	238488.0
555	1175	1	0.165	238488.0
555	1425	1	0.165	238488.0
556	1175	1	0.165	238488.0
556	1426	1	0.165	238488.0
557	1427	1	0.165	238488.0
557	1429	1	0.165	238488.0
558	1415	1	0.165	238488.0
558	1428	1	0.165	238488.0
559	1428	1	0.165	238488.0
559	1501	1	0.165	238488.0
560	1428	1	0.165	238488.0
560	1513	1	0.165	238488.0
561	1178	1	0.165	238488.0
561	1428	1	0.165	238488.0
562	1178	1	0.165	238488.0
562	1429	1	0.165	238488.0
563	1430	1	0.165	238488.0
563	1432	1	0.165	238488.0
564	1418	1	0.165	238488.0
564	1431	1	0.165	238488.0
565	1431	1	0.165	238488.0
565	1504	1	0.165	238488.0
566	1431	1	0.165	238488.0
566	1516	1	0.165	238488.0
567	1169	1	0.165	238488.0
567	1431	1	0.165	238488.0
568	1169	1	0.165	238488.0
568	1432	1	0.165	238488.0
569	1433	1	0.165	238488.0
569	1435	1	0.165	238488.0
570	1421	1	0.165	238488.0
570	1434	1	0.165	238488.0
571	1434	1	0.165	238488.0
571	1507	1	0.165	238488.0
572	1434	1	0.165	238488.0
572	1519	1	0.165	238488.0
573	1184	1	0.165	238488.0
573	1434	1	0.165	238488.0
574	1184	1	0.165	238488.0
574	1435	1	0.165	238488.0
575	1436	1	0.165	238488.0
575	1438	1	0.165	238488.0
576	1424	1	0.165	238488.0
576	1437	1	0.165	238488.0
577	1437	1	0.165	238488.0
577	1510	1	0.165	238488.0
578	1437	1	0.165	238488.0
578	1522	1	0.165	238488.0
579	1187	1	0.165	238488.0
579	1437	1	0.165	238488.0
580	1187	1	0.165	238488.0
580	1438	1	0.165	238488.0
581	1439	1	0.165	238488.0
581	1441	1	0.165	238488.0
582	1427	1	0.165	238488.0
582	1440	1	0.165	238488.0
583	1440	1	0.165	238488.0
583	1513	1	0.165	238488.0
584	1440	1	0.165	238488.0
584	1525	1	0.165	238488.0
585	1190	1	0.165	238488.0
585	1440	1	0.165	238488.0
586	1190	1	0.165	238488.0
586	1441	1	0.165	238488.0
587	1442	1	0.165	238488.0
587	1444	1	0.165	238488.0
588	1430	1	0.165	238488.0
588	1443	1	0.165	238488.0
589	1443	1	0.165	238488.0
589	1516	1	0.165	238488.0
590	1443	1	0.165	238488.0
590	1528	1	0.165	238488.0
591	1181	1	0.165	238488.0
591	1443	1	0.165	238488.0
592	1181	1	0.165	238488.0
592	1444	1	0.165	238488.0
593	1445	1	0.165	238488.0
593	1447	1	0.165	238488.0
594	1433	1	0.165	238488.0
594	1446	1	0.165	238488.0
595	1446	1	0.165	238488.0
595	1519	1	0.165	238488.0
596	1446	1	0.165	238488.0
596	1531	1	0.165	238488.0
597	1196	1	0.165	238488.0
597	1446	1	0.165	238488.0
598	1196	1	0.165	238488.0
598	1447	1	0.165	238488.0
599	1448	1	0.165	238488.0
599	1450	1	0.165	238488.0
600	1436	1	0.165	238488.0
600	1449	1	0.165	238488.0
601	1449	1	0.165	238488.0
601	1522	1	0.165	238488.0
602	1449	1	0.165	238488.0
602	1534	1	0.165	238488.0
603	1199	1	0.165	238488.0
603	1449	1	0.165	238488.0
604	1199	1	0.165	238488.0
604	1450	1	0.165	238488.0
605	1451	1	0.165	238488.0
605	1453	1	0.165	238488.0
606	1439	1	0.165	238488.0
606	1452	1	0.165	238488.0
607	1452	1	0.165	238488.0
607	1525	1	0.165	238488.0
608	1452	1	0.165	238488.0
608	1537	1	0.165	238488.0
609	1202	1	0.165	238488.0
609	1452	1	0.165	238488.0
610	1202	1	0.165	238488.0
610	1453	1	0.165	238488.0
611	1454	1	0.165	238488.0
611	1456	1	0.165	238488.0
612	1442	1	0.165	238488.0
612	1455	1	0.165	238488.0
613	1455	1	0.165	238488.0
613	1528	1	0.165	238488.0
614	1455	1	0.165	238488.0
614	1540	1	0.165	238488.0
615	1193	1	0.165	238488.0
615	1455	1	0.165	238488.0
616	1193	1	0.165	238488.0
616	1456	1	0.165	238488.0
617	1457	1	0.165	238488.0
617	1459	1	0.165	238488.0
618	1458	1	0.165	238488.0
618	1529	1	0.165	238488.0
619	1458	1	0.165	238488.0
619	1615	1	0.165	238488.0
620	1458	1	0.165	238488.0
620	1543	1	0.165	238488.0
621	1208	1	0.165	238488.0
621	1458	1	0.165	238488.0
622	1208	1	0.165	238488.0
622	1459	1	0.165	238488.0
623	1460	1	0.165	238488.0
623	1462	1	0.165	238488.0
624	1461	1	0.165	238488.0
624	1532	1	0.165	238488.0
625	1461	1	0.165	238488.0
625	1618	1	0.165	238488.0
626	1461	1	0.165	238488.0
626	1546	1	0.165	238488.0
627	1211	1	0.165	238488.0
627	1461	1	0.165	238488.0
628	1211	1	0.165	238488.0
628	1462	1	0.165	238488.0
629	1463	1	0.165	238488.0
629	1465	1	0.165	238488.0
630	1464	1	0.165	238488.0
630	1535	1	0.165	238488.0
631	1464	1	0.165	238488.0
631	1621	1	0.165	238488.0
632	1464	1	0.165	238488.0
632	1549	1	0.165	238488.0
633	1214	1	0.165	238488.0
633	1464	1	0.165	238488.0
634	1214	1	0.165	238488.0
634	1465	1	0.165	238488.0
635	1466	1	0.165	238488.0
635	1468	1	0.165	238488.0
636	1467	1	0.165	238488.0
636	1538	1	0.165	238488.0
637	1467	1	0.165	238488.0
637	1624	1	0.165	238488.0
638	1467	1	0.165	238488.0
638	1552	1	0.165	238488.0
639	1205	1	0.165	238488.0
639	1467	1	0.165	238488.0
640	1205	1	0.165	238488.0
640	1468	1	0.165	238488.0
641	1469	1	0.165	238488.0
641	1471	1	0.165	238488.0
642	1457	1	0.165	238488.0
642	1470	1	0.165	238488.0
643	1470	1	0.165	238488.0
643	1543	1	0.165	238488.0
644	1470	1	0.165	238488.0
644	1555	1	0.165	238488.0
645	1220	1	0.165	238488.0
645	1470	1	0.165	238488.0
646	1220	1	0.165	238488.0
646	1471	1	0.165	238488.0
647	1472	1	0.165	238488.0
647	1474	1	0.165	238488.0
648	1460	1	0.165	238488.0
648	1473	1	0.165	238488.0
649	1473	1	0.165	238488.0
649	1546	1	0.165	238488.0
650	1473	1	0.165	238488.0
650	1558	1	0.165	238488.0
651	1223	1	0.165	238488.0
651	1473	1	0.165	238488.0
652	1223	1	0.165	238488.0
652	1474	1	0.165	238488.0
653	1475	1	0.165	238488.0
653	1477	1	0.165	238488.0
654	1463	1	0.165	238488.0
654	1476	1	0.165	238488.0
655	1476	1	0.165	238488.0
655	1549	1	0.165	238488.0
656	1476	1	0.165	238488.0
656	1561	1	0.165	238488.0
657	1226	1	0.165	238488.0
657	1476	1	0.165	238488.0
658	1226	1	0.165	238488.0
658	1477	1	0.165	238488.0
659	1478	1	0.165	238488.0
659	1480	1	0.165	238488.0
660	1466	1	0.165	238488.0
660	1479	1	0.165	238488.0
661	1479	1	0.165	238488.0
661	1552	1	0.165	238488.0
662	1479	1	0.165	238488.0
662	1564	1	0.165	238488.0
663	1217	1	0.165	238488.0
663	1479	1	0.165	238488.0
664	1217	1	0.165	238488.0
664	1480	1	0.165	238488.0
665	1481	1	0.165	238488.0
665	1483	1	0.165	238488.0
666	1469	1	0.165	238488.0
666	1482	1	0.165	238488.0
667	1482	1	0.165	238488.0
667	1555	1	0.165	238488.0
668	1482	1	0.165	238488.0
668	1567	1	0.165	238488.0
669	1232	1	0.165	238488.0
669	1482	1	0.165	238488.0
670	1232	1	0.165	238488.0
670	1483	1	0.165	238488.0
671	1484	1	0.165	238488.0
671	1486	1	0.165	238488.0
672	1472	1	0.165	238488.0
672	1485	1	0.165	238488.0
673	1485	1	0.165	238488.0
673	1558	1	0.165	238488.0
674	1485	1	0.165	238488.0
674	1570	1	0.165	238488.0
675	1235	1	0.165	238488.0
675	1485	1	0.165	238488.0
676	1235	1	0.165	238488.0
676	1486	1	0.165	238488.0
677	1487	1	0.165	238488.0
677	1489	1	0.165	238488.0
678	1475	1	0.165	238488.0
678	1488	1	0.165	238488.0
679	1488	1	0.165	238488.0
679	1561	1	0.165	238488.0
680	1488	1	0.165	238488.0
680	1573	1	0.165	238488.0
681	1238	1	0.165	238488.0
681	1488	1	0.165	238488.0
682	1238	1	0.165	238488.0
682	1489	1	0.165	238488.0
683	1490	1	0.165	238488.0
683	1492	1	0.165	238488.0
684	1478	1	0.165	238488.0
684	1491	1	0.165	238488.0
685	1491	1	0.165	238488.0
685	1564	1	0.165	238488.0
686	1491	1	0.165	238488.0
686	1576	1	0.165	238488.0
687	1229	1	0.165	238488.0
687	1491	1	0.165	238488.0
688	1229	1	0.165	238488.0
688	1492	1	0.165	238488.0
689	1493	1	0.165	238488.0
689	1495	1	0.165	238488.0
690	1481	1	0.165	238488.0
690	1494	1	0.165	238488.0
691	1494	1	0.165	238488.0
691	1567	1	0.165	238488.0
692	1494	1	0.165	238488.0
692	1579	1	0.165	238488.0
693	1244	1	0.165	238488.0
693	1494	1	0.165	238488.0
694	1244	1	0.165	238488.0
694	1495	1	0.165	238488.0
695	1496	1	0.165	238488.0
695	1498	1	0.165	238488.0
696	1484	1	0.165	238488.0
696	1497	1	0.165	238488.0
697	1497	1	0.165	238488.0
697	1570	1	0.165	238488.0
698	1497	1	0.165	238488.0
698	1582	1	0.165	238488.0
699	1247	1	0.165	238488.0
699	1497	1	0.165	238488.0
700	1247	1	0.165	238488.0
700	1498	1	0.165	238488.0
701	1499	1	0.165	238488.0
701	1501	1	0.165	238488.0
702	1487	1	0.165	238488.0
702	1500	1	0.165	238488.0
703	1500	1	0.165	238488.0
703	1573	1	0.165	238488.0
704	1500	1	0.165	238488.0
704	1585	1	0.165	238488.0
705	1250	1	0.165	238488.0
705	1500	1	0.165	238488.0
706	1250	1	0.165	238488.0
706	1501	1	0.165	238488.0
707	1502	1	0.165	238488.0
707	1504	1	0.165	238488.0
708	1490	1	0.165	238488.0
708	1503	1	0.165	238488.0
709	1503	1	0.165	238488.0
709	1576	1	0.165	238488.0
710	1503	1	0.165	238488.0
710	1588	1	0.165	238488.0
711	1241	1	0.165	238488.0
711	1503	1	0.165	238488.0
712	1241	1	0.165	238488.0
712	1504	1	0.165	238488.0
713	1505	1	0.165	238488.0
713	1507	1	0.165	238488.0
714	1493	1	0.165	238488.0
714	1506	1	0.165	238488.0
715	1506	1	0.165	238488.0
715	1579	1	0.165	238488.0
716	1506	1	0.165	238488.0
716	1591	1	0.165	238488.0
717	1256	1	0.165	238488.0
717	1506	1	0.165	238488.0
718	1256	1	0.165	238488.0
718	1507	1	0.165	238488.0
719	1508	1	0.165	238488.0
719	1510	1	0.165	238488.0
720	1496	1	0.165	238488.0
720	1509	1	0.165	238488.0
721	1509	1	0.165	238488.0
721	1582	1	0.165	238488.0
722	1509	1	0.165	238488.0
722	1594	1	0.165	238488.0
723	1259	1	0.165	238488.0
723	1509	1	0.165	238488.0
724	1259	1	0.165	238488.0
724	1510	1	0.165	238488.0
725	1511	1	0.165	238488.0
725	1513	1	0.165	238488.0
726	1499	1	0.165	238488.0
726	1512	1	0.165	238488.0
727	1512	1	0.165	238488.0
727	1585	1	0.165	238488.0
728	1512	1	0.165	238488.0
728	1597	1	0.165	238488.0
729	1262	1	0.165	238488.0
729	1512	1	0.165	238488.0
730	1262	1	0.165	238488.0
730	1513	1	0.165	238488.0
731	1514	1	0.165	238488.0
731	1516	1	0.165	238488.0
732	1502	1	0.165	238488.0
732	1515	1	0.165	238488.0
733	1515	1	0.165	238488.0
733	1588	1	0.165	238488.0
734	1515	1	0.165	238488.0
734	1600	1	0.165	238488.0
735	1253	1	0.165	238488.0
735	1515	1	0.165	238488.0
736	1253	1	0.165	238488.0
736	1516	1	0.165	238488.0
737	1517	1	0.165	238488.0
737	1519	1	0.165	238488.0
738	1505	1	0.165	238488.0
738	1518	1	0.165	238488.0
739	1518	1	0.165	238488.0
739	1591	1	0.165	238488.0
740	1518	1	0.165	238488.0
740	1603	1	0.165	238488.0
741	1268	1	0.165	238488.0
741	1518	1	0.165	238488.0
742	1268	1	0.165	238488.0
742	1519	1	0.165	238488.0
743	1520	1	0.165	238488.0
743	1522	1	0.165	238488.0
744	1508	1	0.165	238488.0
744	1521	1	0.165	238488.0
745	1521	1	0.165	238488.0
745	1594	1	0.165	238488.0
746	1521	1	0.165	238488.0
746	1606	1	0.165	238488.0
747	1271	1	0.165	238488.0
747	1521	1	0.165	238488.0
748	1271	1	0.165	238488.0
748	1522	1	0.165	238488.0
749	1523	1	0.165	238488.0
749	1525	1	0.165	238488.0
750	1511	1	0.165	238488.0
750	1524	1	0.165	238488.0
751	1524	1	0.165	238488.0
751	1597	1	0.165	238488.0
752	1524	1	0.165	238488.0
752	1609	1	0.165	238488.0
753	1274	1	0.165	238488.0
753	1524	1	0.165	238488.0
754	1274	1	0.165	238488.0
754	1525	1	0.165	238488.0
755	1526	1	0.165	238488.0
755	1528	1	0.165	238488.0
756	1514	1	0.165	238488.0
756	1527	1	0.165	238488.0
757	1527	1	0.165	238488.0
757	1600	1	0.165	238488.0
758	1527	1	0.165	238488.0
758	1612	1	0.165	238488.0
759	1265	1	0.165	238488.0
759	1527	1	0.165	238488.0
760	1265	1	0.165	238488.0
760	1528	1	0.165	238488.0
761	1529	1	0.165	238488.0
761	1531	1	0.165	238488.0
762	1517	1	0.165	238488.0
762	1530	1	0.165	238488.0
763	1530	1	0.165	238488.0
763	1603	1	0.165	238488.0
764	1530	1	0.165	238488.0
764	1615	1	0.165	238488.0
765	1280	1	0.165	238488.0
765	1530	1	0.165	238488.0
766	1280	1	0.165	238488.0
766	1531	1	0.165	238488.0
767	1532	1	0.165	238488.0
767	1534	1	0.165	238488.0
768	1520	1	0.165	238488.0
768	1533	1	0.165	238488.0
769	1533	1	0.165	238488.0
769	1606	1	0.165	238488.0
770	1533	1	0.165	238488.0
770	1618	1	0.165	238488.0
771	1283	1	0.165	238488.0
771	1533	1	0.165	238488.0
772	1283	1	0.165	238488.0
772	1534	1	0.165	238488.0
773	1535	1	0.165	238488.0
773	1537	1	0.165	238488.0
774	1523	1	0.165	238488.0
774	1536	1	0.165	238488.0
775	1536	1	0.165	238488.0
775	1609	1	0.165	238488.0
776	1536	1	0.165	238488.0
776	1621	1	0.165	238488.0
777	1286	1	0.165	238488.0
777	1536	1	0.165	238488.0
778	1286	1	0.165	238488.0
778	1537	1	0.165	238488.0
779	1538	1	0.165	238488.0
779	1540	1	0.165	238488.0
780	1526	1	0.165	238488.0
780	1539	1	0.165	238488.0
781	1539	1	0.165	238488.0
781	1612	1	0.165	238488.0
782	1539	1	0.165	238488.0
782	1624	1	0.165	238488.0
783	1277	1	0.165	238488.0
783	1539	1	0.165	238488.0
784	1277	1	0.165	238488.0
784	1540	1	0.165	238488.0
785	1541	1	0.165	238488.0
785	1543	1	0.165	238488.0
786	1542	1	0.165	238488.0
786	1613	1	0.165	238488.0
787	1292	1	0.165	238488.0
787	1542	1	0.165	238488.0
788	1292	1	0.165	238488.0
788	1543	1	0.165	238488.0
789	1544	1	0.165	238488.0
789	1546	1	0.165	238488.0
790	1545	1	0.165	238488.0
790	1616	1	0.165	238488.0
791	1295	1	0.165	238488.0
791	1545	1	0.165	238488.0
792	1295	1	0.165	238488.0
792	1546	1	0.165	238488.0
793	1547	1	0.165	238488.0
793	1549	1	0.165	238488.0
794	1548	1	0.165	238488.0
794	1619	1	0.165	238488.0
795	1298	1	0.165	238488.0
795	1548	1	0.165	238488.0
796	1298	1	0.165	238488.0
796	1549	1	0.165	238488.0
797	1550	1	0.165	238488.0
797	1552	1	0.165	238488.0
798	1551	1	0.165	238488.0
798	1622	1	0.165	238488.0
799	1289	1	0.165	238488.0
799	1551	1	0.165	238488.0
800	1289	1	0.165	238488.0
800	1552	1	0.165	238488.0
801	1553	1	0.165	238488.0
801	1555	1	0.165	238488.0
802	1541	1	0.165	238488.0
802	1554	1	0.165	238488.0
803	1304	1	0.165	238488.0
803	1554	1	0.165	238488.0
804	1304	1	0.165	238488.0
804	1555	1	0.165	238488.0
805	1556	1	0.165	238488.0
805	1558	1	0.165	238488.0
806	1544	1	0.165	238488.0
806	1557	1	0.165	238488.0
807	1307	1	0.165	238488.0
807	1557	1	0.165	238488.0
808	1307	1	0.165	238488.0
808	1558	1	0.165	238488.0
809	1559	1	0.165	238488.0
809	1561	1	0.165	238488.0
810	1547	1	0.165	238488.0
810	1560	1	0.165	238488.0
811	1310	1	0.165	238488.0
811	1560	1	0.165	238488.0
812	1310	1	0.165	238488.0
812	1561	1	0.165	238488.0
813	1562	1	0.165	238488.0
813	1564	1	0.165	238488.0
814	1550	1	0.165	238488.0
814	1563	1	0.165	238488.0
815	1301	1	0.165	238488.0
815	1563	1	0.165	238488.0
816	1301	1	0.165	238488.0
816	1564	1	0.165	238488.0
817	1565	1	0.165	238488.0
817	1567	1	0.165	238488.0
818	1553	1	0.165	238488.0
818	1566	1	0.165	238488.0
819	1316	1	0.165	238488.0
819	1566	1	0.165	238488.0
820	1316	1	0.165	238488.0
820	1567	1	0.165	238488.0
821	1568	1	0.165	238488.0
821	1570	1	0.165	238488.0
822	1556	1	0.165	238488.0
822	1569	1	0.165	238488.0
823	1319	1	0.165	238488.0
823	1569	1	0.165	238488.0
824	1319	1	0.165	238488.0
824	1570	1	0.165	238488.0
825	1571	1	0.165	238488.0
825	1573	1	0.165	238488.0
826	1559	1	0.165	238488.0
826	1572	1	0.165	238488.0
827	1322	1	0.165	238488.0
827	1572	1	0.165	238488.0
828	1322	1	0.165	238488.0
828	1573	1	0.165	238488.0
829	1574	1	0.165	238488.0
829	1576	1	0.165	238488.0
830	1562	1	0.165	238488.0
830	1575	1	0.165	238488.0
831	1313	1	0.165	238488.0
831	1575	1	0.165	238488.0
832	1313	1	0.165	238488.0
832	1576	1	0.165	238488.0
833	1577	1	0.165	238488.0
833	1579	1	0.165	238488.0
834	1565	1	0.165	238488.0
834	1578	1	0.165	238488.0
835	1328	1	0.165	238488.0
835	1578	1	0.165	238488.0
836	1328	1	0.165	238488.0
836	1579	1	0.165	238488.0
837	1580	1	0.165	238488.0
837	1582	1	0.165	238488.0
838	1568	1	0.165	238488.0
838	1581	1	0.165	238488.0
839	1331	1	0.165	238488.0
839	1581	1	0.165	238488.0
840	1331	1	0.165	238488.0
840	1582	1	0.165	238488.0
841	1583	1	0.165	238488.0
841	1585	1	0.165	238488.0
842	1571	1	0.165	238488.0
842	1584	1	0.165	238488.0
843	1334	1	0.165	238488.0
843	1584	1	0.165	238488.0
844	1334	1	0.165	238488.0
844	1585	1	0.165	238488.0
845	1586	1	0.165	238488.0
845	1588	1	0.165	238488.0
846	1574	1	0.165	238488.0
846	1587	1	0.165	238488.0
847	1325	1	0.165	238488.0
847	1587	1	0.165	238488.0
848	1325	1	0.165	238488.0
848	1588	1	0.165	238488.0
849	1589	1	0.165	238488.0
849	1591	1	0.165	238488.0
850	1577	1	0.165	238488.0
850	1590	1	0.165	238488.0
851	1340	1	0.165	238488.0
851	1590	1	0.165	238488.0
852	1340	1	0.165	238488.0
852	1591	1	0.165	238488.0
853	1592	1	0.165	238488.0
853	1594	1	0.165	238488.0
854	1580	1	0.165	238488.0
854	1593	1	0.165	238488.0
855	1343	1	0.165	238488.0
855	1593	1	0.165	238488.0
856	1343	1	0.165	238488.0
856	1594	1	0.165	238488.0
857	1595	1	0.165	238488.0
857	1597	1	0.165	238488.0
858	1583	1	0.165	238488.0
858	1596	1	0.165	238488.0
859	1346	1	0.165	238488.0
859	1596	1	0.165	238488.0
860	1346	1	0.165	238488.0
860	1597	1	0.165	238488.0
861	1598	1	0.165	238488.0
861	1600	1	0.165	238488.0
862	1586	1	0.165	238488.0
862	1599	1	0.165	238488.0
863	1337	1	0.165	238488.0
863	1599	1	0.165	238488.0
864	1337	1	0.165	238488.0
864	1600	1	0.165	238488.0
865	1601	1	0.165	238488.0
865	1603	1	0.165	238488.0
866	1589	1	0.165	238488.0
866	1602	1	0.165	238488.0
867	1352	1	0.165	238488.0
867	1602	1	0.165	238488.0
868	1352	1	0.165	238488.0
868	1603	1	0.165	238488.0
869	1604	1	0.165	238488.0
869	1606	1	0.165	238488.0
870	1592	1	0.165	238488.0
870	1605	1	0.165	238488.0
871	1355	1	0.165	238488.0
871	1605	1	0.165	238488.0
872	1355	1	0.165	238488.0
872	1606	1	0.165	238488.0
873	1607	1	0.165	238488.0
873	1609	1	0.165	238488.0
874	1595	1	0.165	238488.0
874	1608	1	0.165	238488.0
875	1358	1	0.165	238488.0
875	1608	1	0.165	238488.0
876	1358	1	0.165	238488.0
876	1609	1	0.165	238488.0
877	1610	1	0.165	238488.0
877	1612	1	0.165	238488.0
878	1598	1	0.165	238488.0
878	1611	1	0.165	238488.0
879	1349	1	0.165	238488.0
879	1611	1	0.165	238488.0
880	1349	1	0.165	238488.0
880	1612	1	0.165	238488.0
881	1613	1	0.165	238488.0
881	1615	1	0.165	238488.0
882	1601	1	0.165	238488.0
882	1614	1	0.165	238488.0
883	1364	1	0.165	238488.0
883	1614	1	0.165	238488.0
884	1364	1	0.165	238488.0
884	1615	1	0.165	238488.0
885	1616	1	0.165	238488.0
885	1618	1	0.165	238488.0
886	1604	1	0.165	238488.0
886	1617	1	0.165	238488.0
887	1367	1	0.165	238488.0
887	1617	1	0.165	238488.0
888	1367	1	0.165	238488.0
888	1618	1	0.165	238488.0
889	1619	1	0.165	238488.0
889	1621	1	0.165	238488.0
890	1607	1	0.165	238488.0
890	1620	1	0.165	238488.0
891	1370	1	0.165	238488.0
891	1620	1	0.165	238488.0
892	1370	1	0.165	238488.0
892	1621	1	0.165	238488.0
893	1622	1	0.165	238488.0
893	1624	1	0.165	238488.0
894	1610	1	0.165	238488.0
894	1623	1	0.165	238488.0
895	1361	1	0.165	238488.0
895	1623	1	0.165	238488.0
896	1361	1	0.165	238488.0
896	1624	1	0.165	238488.0
897	1123	1	0.187	29999.278
897	1625	1	0.109	292272.472
897	1626	1	0.109	292272.472
897	1627	1	0.109	292272.472
898	1123	1	0.187	29999.278
898	1628	1	0.109	292272.472
898	1629	1	0.109	292272.472
898	1630	1	0.109	292272.472
899	1126	1	0.187	29999.278
899	1631	1	0.109	292272.472
899	1632	1	0.109	292272.472
899	1633	1	0.109	292272.472
900	1126	1	0.187	29999.278
900	1634	1	0.109	292272.472
900	1635	1	0.109	292272.472
900	1636	1	0.109	292272.472
901	1129	1	0.187	29999.278
901	1637	1	0.109	292272.472
901	1638	1	0.109	292272.472
901	1639	1	0.109	292272.472
902	1129	1	0.187	29999.278
902	1640	1	0.109	292272.472
902	1641	1	0.109	292272.472
902	1642	1	0.109	292272.472
903	1132	1	0.187	29999.278
903	1643	1	0.109	292272.472
903	1644	1	0.109	292272.472
903	1645	1	0.109	292272.472
904	1132	1	0.187	29999.278
904	1646	1	0.109	292272.472
904	1647	1	0.109	292272.472
904	1648	1	0.109	292272.472
905	1135	1	0.187	29999.278
905	1649	1	0.109	292272.472
905	1650	1	0.109	292272.472
905	1651	1	0.109	292272.472
906	1135	1	0.187	29999.278
906	1652	1	0.109	292272.472
906	1653	1	0.109	292272.472
906	1654	1	0.109	292272.472
907	1138	1	0.187	29999.278
907	1655	1	0.109	292272.472
907	1656	1	0.109	292272.472
907	1657	1	0.109	292272.472
908	1138	1	0.187	29999.278
908	1658	1	0.109	292272.472
908	1659	1	0.109	292272.472
908	1660	1	0.109	292272.472
909	1141	1	0.187	29999.278
909	1661	1	0.109	292272.472
909	1662	1	0.109	292272.472
909	1663	1	0.109	292272.472
910	1141	1	0.187	29999.278
910	1664	1	0.109	292272.472
910	1665	1	0.109	292272.472
910	1666	1	0.109	292272.472
911	1144	1	0.187	29999.278
911	1667	1	0.109	292272.472
911	1668	1	0.109	292272.472
911	1669	1	0.109	292272.472
912	1144	1	0.187	29999.278
912	1670	1	0.109	292272.472
912	1671	1	0.109	292272.472
912	1672	1	0.109	292272.472
913	1147	1	0.187	29999.278
913	1673	1	0.109	292272.472
913	1674	1	0.109	292272.472
913	1675	1	0.109	292272.472
914	1147	1	0.187	29999.278
914	1676	1	0.109	292272.472
914	1677	1	0.109	292272.472
914	1678	1	0.109	292272.472
915	1150	1	0.187	29999.278
915	1679	1	0.109	292272.472
915	1680	1	0.109	292272.472
915	1681	1	0.109	292272.472
916	1150	1	0.187	29999.278
916	1682	1	0.109	292272.472
916	1683	1	0.109	292272.472
916	1684	1	0.109	292272.472
917	1153	1	0.187	29999.278
917	1685	1	0.109	292272.472
917	1686	1	0.109	292272.472
917	1687	1	0.109	292272.472
918	1153	1	0.187	29999.278
918	1688	1	0.109	292272.472
918	1689	1	0.109	292272.472
918	1690	1	0.109	292272.472
919	1156	1	0.187	29999.278
919	1691	1	0.109	292272.472
919	1692	1	0.109	292272.472
919	1693	1	0.109	292272.472
920	1156	1	0.187	29999.278
920	1694	1	0.109	292272.472
920	1695	1	0.109	292272.472
920	1696	1	0.109	292272.472
921	1159	1	0.187	29999.278
921	1697	1	0.109	292272.472
921	1698	1	0.109	292272.472
921	1699	1	0.109	292272.472
922	1159	1	0.187	29999.278
922	1700	1	0.109	292272.472
922	1701	1	0.109	292272.472
922	1702	1	0.109	292272.472
923	1162	1	0.187	29999.278
923	1703	1	0.109	292272.472
923	1704	1	0.109	292272.472
923	1705	1	0.109	292272.472
924	1162	1	0.187	29999.278
924	1706	1	0.109	292272.472
924	1707	1	0.109	292272.472
924	1708	1	0.109	292272.472
925	1165	1	0.187	29999.278
925	1709	1	0.109	292272.472
925	1710	1	0.109	292272.472
925	1711	1	0.109	292272.472
926	1165	1	0.187	29999.278
926	1712	1	0.109	292272.472
926	1713	1	0.109	292272.472
926	1714	1	0.109	292272.472
927	1168	1	0.187	29999.278
927	1715	1	0.109	292272.472
927	1716	1	0.109	292272.472
927	1717	1	0.109	292272.472
928	1168	1	0.187	29999.278
928	1718	1	0.109	292272.472
928	1719	1	0.109	292272.472
928	1720	1	0.109	292272.472
929	1171	1	0.187	29999.278
929	1721	1	0.109	292272.472
929	1722	1	0.109	292272.472
929	1723	1	0.109	292272.472
930	1171	1	0.187	29999.278
930	1724	1	0.109	292272.472
930	1725	1	0.109	292272.472
930	1726	1	0.109	292272.472
931	1174	1	0.187	29999.278
931	1727	1	0.109	292272.472
931	1728	1	0.109	292272.472
931	1729	1	0.109	292272.472
932	1174	1	0.187	29999.278
932	1730	1	0.109	292272.472
932	1731	1	0.109	292272.472
932	1732	1	0.109	292272.472
933	1177	1	0.187	29999.278
933	1733	1	0.109	292272.472
933	1734	1	0.109	292272.472
933	1735	1	0.109	292272.472
934	1177	1	0.187	29999.278
934	1736	1	0.109	292272.472
934	1737	1	0.109	292272.472
934	1738	1	0.109	292272.472
935	1180	1	0.187	29999.278
935	1739	1	0.109	292272.472
935	1740	1	0.109	292272.472
935	1741	1	0.109	292272.472
936	1180	1	0.187	29999.278
936	1742	1	0.109	292272.472
936	1743	1	0.109	292272.472
936	1744	1	0.109	292272.472
937	1183	1	0.187	29999.278
937	1745	1	0.109	292272.472
937	1746	1	0.109	292272.472
937	1747	1	0.109	292272.472
938	1183	1	0.187	29999.278
938	1748	1	0.109	292272.472
938	1749	1	0.109	292272.472
938	1750	1	0.109	292272.472
939	1186	1	0.187	29999.278
939	1751	1	0.109	292272.472
939	1752	1	0.109	292272.472
939	1753	1	0.109	292272.472
940	1186	1	0.187	29999.278
940	1754	1	0.109	292272.472
940	1755	1	0.109	292272.472
940	1756	1	0.109	292272.472
941	1189	1	0.187	29999.278
941	1757	1	0.109	292272.472
941	1758	1	0.109	292272.472
941	1759	1	0.109	292272.472
942	1189	1	0.187	29999.278
942	1760	1	0.109	292272.472
942	1761	1	0.109	292272.472
942	1762	1	0.109	292272.472
943	1192	1	0.187	29999.278
943	1763	1	0.109	292272.472
943	1764	1	0.109	292272.472
943	1765	1	0.109	292272.472
944	1192	1	0.187	29999.278
944	1766	1	0.109	292272.472
944	1767	1	0.109	292272.472
944	1768	1	0.109	292272.472
945	1195	1	0.187	29999.278
945	1769	1	0.109	292272.472
945	1770	1	0.109	292272.472
945	1771	1	0.109	292272.472
946	1195	1	0.187	29999.278
946	1772	1	0.109	292272.472
946	1773	1	0.109	292272.472
946	1774	1	0.109	292272.472
947	1198	1	0.187	29999.278
947	1775	1	0.109	292272.472
947	1776	1	0.109	292272.472
947	1777	1	0.109	292272.472
948	1198	1	0.187	29999.278
948	1778	1	0.109	292272.472
948	1779	1	0.109	292272.472
948	1780	1	0.109	292272.472
949	1201	1	0.187	29999.278
949	1781	1	0.109	292272.472
949	1782	1	0.109	292272.472
949	1783	1	0.109	292272.472
950	1201	1	0.187	29999.278
950	1784	1	0.109	292272.472
950	1785	1	0.109	292272.472
950	1786	1	0.109	292272.472
951	1204	1	0.187	29999.278
951	1787	1	0.109	292272.472
951	1788	1	0.109	292272.472
951	1789	1	0.109	292272.472
952	1204	1	0.187	29999.278
952	1790	1	0.109	292272.472
952	1791	1	0.109	292272.472
952	1792	1	0.109	292272.472
953	1290	1	0.187	29999.278
953	1793	1	0.109	292272.472
953	1794	1	0.109	292272.472
953	1795	1	0.109	292272.472
954	1290	1	0.187	29999.278
954	1796	1	0.109	292272.472
954	1797	1	0.109	292272.472
954	1798	1	0.109	292272.472
955	1293	1	0.187	29999.278
955	1799	1	0.109	292272.472
955	1800	1	0.109	292272.472
955	1801	1	0.109	292272.472
956	1293	1	0.187	29999.278
956	1802	1	0.109	292272.472
956	1803	1	0.109	292272.472
956	1804	1	0.109	292272.472
957	1296	1	0.187	29999.278
957	1805	1	0.109	292272.472
957	1806	1	0.109	292272.472
957	1807	1	0.109	292272.472
958	1296	1	0.187	29999.278
958	1808	1	0.109	292272.472
958	1809	1	0.109	292272.472
958	1810	1	0.109	292272.472
959	1299	1	0.187	29999.278
959	1811	1	0.109	292272.472
959	1812	1	0.109	292272.472
959	1813	1	0.109	292272.472
960	1299	1	0.187	29999.278
960	1814	1	0.109	292272.472
960	1815	1	0.109	292272.472
960	1816	1	0.109	292272.472
961	1302	1	0.187	29999.278
961	1817	1	0.109	292272.472
961	1818	1	0.109	292272.472
961	1819	1	0.109	292272.472
962	1302	1	0.187	29999.278
962	1820	1	0.109	292272.472
962	1821	1	0.109	292272.472
962	1822	1	0.109	292272.472
963	1305	1	0.187	29999.278
963	1823	1	0.109	292272.472
963	1824	1	0.109	292272.472
963	1825	1	0.109	292272.472
964	1305	1	0.187	29999.278
964	1826	1	0.109	292272.472
964	1827	1	0.109	292272.472
964	1828	1	0.109	292272.472
965	1308	1	0.187	29999.278
965	1829	1	0.109	292272.472
965	1830	1	0.109	292272.472
965	1831	1	0.109	292272.472
966	1308	1	0.187	29999.278
966	1832	1	0.109	292272.472
966	1833	1	0.109	292272.472
966	1834	1	0.109	292272.472
967	1311	1	0.187	29999.278
967	1835	1	0.109	292272.472
967	1836	1	0.109	292272.472
967	1837	1	0.109	292272.472
968	1311	1	0.187	29999.278
968	1838	1	0.109	292272.472
968	1839	1	0.109	292272.472
968	1840	1	0.109	292272.472
969	1314	1	0.187	29999.278
969	1841	1	0.109	292272.472
969	1842	1	0.109	292272.472
969	1843	1	0.109	292272.472
970	1314	1	0.187	29999.278
970	1844	1	0.109	292272.472
970	1845	1	0.109	292272.472
970	1846	1	0.109	292272.472
971	1317	1	0.187	29999.278
971	1847	1	0.109	292272.472
971	1848	1	0.109	292272.472
971	1849	1	0.109	292272.472
972	1317	1	0.187	29999.278
972	1850	1	0.109	292272.472
972	1851	1	0.109	292272.472
972	1852	1	0.109	292272.472
973	1320	1	0.187	29999.278
973	1853	1	0.109	292272.472
973	1854	1	0.109	292272.472
973	1855	1	0.109	292272.472
974	1320	1	0.187	29999.278
974	1856	1	0.109	292272.472
974	1857	1	0.109	292272.472
974	1858	1	0.109	292272.472
975	1323	1	0.187	29999.278
975	1859	1	0.109	292272.472
975	1860	1	0.109	292272.472
975	1861	1	0.109	292272.472
976	1323	1	0.187	29999.278
976	1862	1	0.109	292272.472
976	1863	1	0.109	292272.472
976	1864	1	0.109	292272.472
977	1326	1	0.187	29999.278
977	1865	1	0.109	292272.472
977	1866	1	0.109	292272.472
977	1867	1	0.109	292272.472
978	1326	1	0.187	29999.278
978	1868	1	0.109	292272.472
978	1869	1	0.109	292272.472
978	1870	1	0.109	292272.472
979	1329	1	0.187	29999.278
979	1871	1	0.109	292272.472
979	1872	1	0.109	292272.472
979	1873	1	0.109	292272.472
980	1329	1	0.187	29999.278
980	1874	1	0.109	292272.472
980	1875	1	0.109	292272.472
980	1876	1	0.109	292272.472
981	1332	1	0.187	29999.278
981	1877	1	0.109	292272.472
981	1878	1	0.109	292272.472
981	1879	1	0.109	292272.472
982	1332	1	0.187	29999.278
982	1880	1	0.109	292272.472
982	1881	1	0.109	292272.472
982	1882	1	0.109	292272.472
983	1335	1	0.187	29999.278
983	1883	1	0.109	292272.472
983	1884	1	0.109	292272.472
983	1885	1	0.109	292272.472
984	1335	1	0.187	29999.278
984	1886	1	0.109	292272.472
984	1887	1	0.109	292272.472
984	1888	1	0.109	292272.472
985	1338	1	0.187	29999.278
985	1889	1	0.109	292272.472
985	1890	1	0.109	292272.472
985	1891	1	0.109	292272.472
986	1338	1	0.187	29999.278
986	1892	1	0.109	292272.472
986	1893	1	0.109	292272.472
986	1894	1	0.109	292272.472
987	1341	1	0.187	29999.278
987	1895	1	0.109	292272.472
987	1896	1	0.109	292272.472
987	1897	1	0.109	292272.472
988	1341	1	0.187	29999.278
988	1898	1	0.109	292272.472
988	1899	1	0.109	292272.472
988	1900	1	0.109	292272.472
989	1344	1	0.187	29999.278
989	1901	1	0.109	292272.472
989	1902	1	0.109	292272.472
989	1903	1	0.109	292272.472
990	1344	1	0.187	29999.278
990	1904	1	0.109	292272.472
990	1905	1	0.109	292272.472
990	1906	1	0.109	292272.472
991	1347	1	0.187	29999.278
991	1907	1	0.109	292272.472
991	1908	1	0.109	292272.472
991	1909	1	0.109	292272.472
992	1347	1	0.187	29999.278
992	1910	1	0.109	292272.472
992	1911	1	0.109	292272.472
992	1912	1	0.109	292272.472
993	1350	1	0.187	29999.278
993	1913	1	0.109	292272.472
993	1914	1	0.109	292272.472
993	1915	1	0.109	292272.472
994	1350	1	0.187	29999.278
994	1916	1	0.109	292272.472
994	1917	1	0.109	292272.472
994	1918	1	0.109	292272.472
995	1353	1	0.187	29999.278
995	1919	1	0.109	292272.472
995	1920	1	0.109	292272.472
995	1921	1	0.109	292272.472
996	1353	1	0.187	29999.278
996	1922	1	0.109	292272.472
996	1923	1	0.109	292272.472
996	1924	1	0.109	292272.472
997	1356	1	0.187	29999.278
997	1925	1	0.109	292272.472
997	1926	1	0.109	292272.472
997	1927	1	0.109	292272.472
998	1356	1	0.187	29999.278
998	1928	1	0.109	292272.472
998	1929	1	0.109	292272.472
998	1930	1	0.109	292272.472
999	1359	1	0.187	29999.278
999	1931	1	0.109	292272.472
999	1932	1	0.109	292272.472
999	1933	1	0.109	292272.472
1000	1359	1	0.187	29999.278
1000	1934	1	0.109	292272.472
1000	1935	1	0.109	292272.472
1000	1936	1	0.109	292272.472
1001	1362	1	0.187	29999.278
1001	1937	1	0.109	292272.472
1001	1938	1	0.109	292272.472
1001	1939	1	0.109	292272.472
1002	1365	1	0.187	29999.278
1002	1940	1	0.109	292272.472
1002	1941	1	0.109	292272.472
1002	1942	1	0.109	292272.472
1003	1368	1	0.187	29999.278
1003	1943	1	0.109	292272.472
1003	1944	1	0.109	292272.472
1003	1945	1	0.109	292272.472
1004	1371	1	0.187	29999.278
1004	1946	1	0.109	292272.472
1004	1947	1	0.109	292272.472
1004	1948	1	0.109	292272.472
1005	1362	1	0.187	29999.278
1005	1949	1	0.109	292272.472
1005	1950	1	0.109	292272.472
1005	1951	1	0.109	292272.472
1006	1365	1	0.187	29999.278
1006	1952	1	0.109	292272.472
1006	1953	1	0.109	292272.472
1006	1954	1	0.109	292272.472
1007	1368	1	0.187	29999.278
1007	1955	1	0.109	292272.472
1007	1956	1	0.109	292272.472
1007	1957	1	0.109	292272.472
1008	1371	1	0.187	29999.278
1008	1958	1	0.109	292272.472
1008	1959	1	0.109	292272.472
1008	1960	1	0.109	292272.472
1009	1375	1	0.187	29999.278
1009	1961	1	0.109	292272.472
1009	1962	1	0.109	292272.472
1009	1963	1	0.109	292272.472
1010	1375	1	0.187	29999.278
1010	1964	1	0.109	292272.472
1010	1965	1	0.109	292272.472
1010	1966	1	0.109	292272.472
1011	1378	1	0.187	29999.278
1011	1967	1	0.109	292272.472
1011	1968	1	0.109	292272.472
1011	1969	1	0.109	292272.472
1012	1378	1	0.187	29999.278
1012	1970	1	0.109	292272.472
1012	1971	1	0.109	292272.472
1012	1972	1	0.109	292272.472
1013	1381	1	0.187	29999.278
1013	1973	1	0.109	292272.472
1013	1974	1	0.109	292272.472
1013	1975	1	0.109	292272.472
1014	1381	1	0.187	29999.278
1014	1976	1	0.109	292272.472
1014	1977	1	0.109	292272.472
1014	1978	1	0.109	292272.472
1015	1384	1	0.187	29999.278
1015	1979	1	0.109	292272.472
1015	1980	1	0.109	292272.472
1015	1981	1	0.109	292272.472
1016	1384	1	0.187	29999.278
1016	1982	1	0.109	292272.472
1016	1983	1	0.109	292272.472
1016	1984	1	0.109	292272.472
1017	1387	1	0.187	29999.278
1017	1985	1	0.109	292272.472
1017	1986	1	0.109	292272.472
1017	1987	1	0.109	292272.472
1018	1387	1	0.187	29999.278
1018	1988	1	0.109	292272.472
1018	1989	1	0.109	292272.472
1018	1990	1	0.109	292272.472
1019	1390	1	0.187	29999.278
1019	1991	1	0.109	292272.472
1019	1992	1	0.109	292272.472
1019	1993	1	0.109	292272.472
1020	1390	1	0.187	29999.278
1020	1994	1	0.109	292272.472
1020	1995	1	0.109	292272.472
1020	1996	1	0.109	292272.472
1021	1393	1	0.187	29999.278
1021	1997	1	0.109	292272.472
1021	1998	1	0.109	292272.472
1021	1999	1	0.109	292272.472
1022	1393	1	0.187	29999.278
1022	2000	1	0.109	292272.472
1022	2001	1	0.109	292272.472
1022	2002	1	0.109	292272.472
1023	1396	1	0.187	29999.278
1023	2003	1	0.109	292272.472
1023	2004	1	0.109	292272.472
1023	2005	1	0.109	292272.472
1024	1396	1	0.187	29999.278
1024	2006	1	0.109	292272.472
1024	2007	1	0.109	292272.472
1024	2008	1	0.109	292272.472
1025	1399	1	0.187	29999.278
1025	2009	1	0.109	292272.472
1025	2010	1	0.109	292272.472
1025	2011	1	0.109	292272.472
1026	1399	1	0.187	29999.278
1026	2012	1	0.109	292272.472
1026	2013	1	0.109	292272.472
1026	2014	1	0.109	292272.472
1027	1402	1	0.187	29999.278
1027	2015	1	0.109	292272.472
1027	2016	1	0.109	292272.472
1027	2017	1	0.109	292272.472
1028	1402	1	0.187	29999.278
1028	2018	1	0.109	292272.472
1028	2019	1	0.109	292272.472
1028	2020	1	0.109	292272.472
1029	1405	1	0.187	29999.278
1029	2021	1	0.109	292272.472
1029	2022	1	0.109	292272.472
1029	2023	1	0.109	292272.472
1030	1405	1	0.187	29999.278
1030	2024	1	0.109	292272.472
1030	2025	1	0.109	292272.472
1030	2026	1	0.109	292272.472
1031	1408	1	0.187	29999.278
1031	2027	1	0.109	292272.472
1031	2028	1	0.109	292272.472
1031	2029	1	0.109	292272.472
1032	1408	1	0.187	29999.278
1032	2030	1	0.109	292272.472
1032	2031	1	0.109	292272.472
1032	2032	1	0.109	292272.472
1033	1411	1	0.187	29999.278
1033	2033	1	0.109	292272.472
1033	2034	1	0.109	292272.472
1033	2035	1	0.109	292272.472
1034	1411	1	0.187	29999.278
1034	2036	1	0.109	292272.472
1034	2037	1	0.109	292272.472
1034	2038	1	0.109	292272.472
1035	1414	1	0.187	29999.278
1035	2039	1	0.109	292272.472
1035	2040	1	0.109	292272.472
1035	2041	1	0.109	292272.472
1036	1414	1	0.187	29999.278
1036	2042	1	0.109	292272.472
1036	2043	1	0.109	292272.472
1036	2044	1	0.109	292272.472
1037	1417	1	0.187	29999.278
1037	2045	1	0.109	292272.472
1037	2046	1	0.109	292272.472
1037	2047	1	0.109	292272.472
1038	1417	1	0.187	29999.278
1038	2048	1	0.109	292272.472
1038	2049	1	0.109	292272.472
1038	2050	1	0.109	292272.472
1039	1420	1	0.187	29999.278
1039	2051	1	0.109	292272.472
1039	2052	1	0.109	292272.472
1039	2053	1	0.109	292272.472
1040	1420	1	0.187	29999.278
1040	2054	1	0.109	292272.472
1040	2055	1	0.109	292272.472
1040	2056	1	0.109	292272.472
1041	1423	1	0.187	29999.278
1041	2057	1	0.109	292272.472
1041	2058	1	0.109	292272.472
1041	2059	1	0.109	292272.472
1042	1423	1	0.187	29999.278
1042	2060	1	0.109	292272.472
1042	2061	1	0.109	292272.472
1042	2062	1	0.109	292272.472
1043	1426	1	0.187	29999.278
1043	2063	1	0.109	292272.472
1043	2064	1	0.109	292272.472
1043	2065	1	0.109	292272.472
1044	1426	1	0.187	29999.278
1044	2066	1	0.109	292272.472
1044	2067	1	0.109	292272.472
1044	2068	1	0.109	292272.472
1045	1429	1	0.187	29999.278
1045	2069	1	0.109	292272.472
1045	2070	1	0.109	292272.472
1045	2071	1	0.109	292272.472
1046	1429	1	0.187	29999.278
1046	2072	1	0.109	292272.472
1046	2073	1	0.109	292272.472
1046	2074	1	0.109	292272.472
1047	1432	1	0.187	29999.278
1047	2075	1	0.109	292272.472
1047	2076	1	0.109	292272.472
1047	2077	1	0.109	292272.472
1048	1432	1	0.187	29999.278
1048	2078	1	0.109	292272.472
1048	2079	1	0.109	292272.472
1048	2080	1	0.109	292272.472
1049	1435	1	0.187	29999.278
1049	2081	1	0.109	292272.472
1049	2082	1	0.109	292272.472
1049	2083	1	0.109	292272.472
1050	1435	1	0.187	29999.278
1050	2084	1	0.109	292272.472
1050	2085	1	0.109	292272.472
1050	2086	1	0.109	292272.472
1051	1438	1	0.187	29999.278
1051	2087	1	0.109	292272.472
1051	2088	1	0.109	292272.472
1051	2089	1	0.109	292272.472
1052	1438	1	0.187	29999.278
1052	2090	1	0.109	292272.472
1052	2091	1	0.109	292272.472
1052	2092	1	0.109	292272.472
1053	1441	1	0.187	29999.278
1053	2093	1	0.109	292272.472
1053	2094	1	0.109	292272.472
1053	2095	1	0.109	292272.472
1054	1441	1	0.187	29999.278
1054	2096	1	0.109	292272.472
1054	2097	1	0.109	292272.472
1054	2098	1	0.109	292272.472
1055	1444	1	0.187	29999.278
1055	2099	1	0.109	292272.472
1055	2100	1	0.109	292272.472
1055	2101	1	0.109	292272.472
1056	1444	1	0.187	29999.278
1056	2102	1	0.109	292272.472
1056	2103	1	0.109	292272.472
1056	2104	1	0.109	292272.472
1057	1447	1	0.187	29999.278
1057	2105	1	0.109	292272.472
1057	2106	1	0.109	292272.472
1057	2107	1	0.109	292272.472
1058	1450	1	0.187	29999.278
1058	2108	1	0.109	292272.472
1058	2109	1	0.109	292272.472
1058	2110	1	0.109	292272.472
1059	1453	1	0.187	29999.278
1059	2111	1	0.109	292272.472
1059	2112	1	0.109	292272.472
1059	2113	1	0.109	292272.472
1060	1456	1	0.187	29999.278
1060	2114	1	0.109	292272.472
1060	2115	1	0.109	292272.472
1060	2116	1	0.109	292272.472
1061	1447	1	0.187	29999.278
1061	2117	1	0.109	292272.472
1061	2118	1	0.109	292272.472
1061	2119	1	0.109	292272.472
1062	1450	1	0.187	29999.278
1062	2120	1	0.109	292272.472
1062	2121	1	0.109	292272.472
1062	2122	1	0.109	292272.472
1063	1453	1	0.187	29999.278
1063	2123	1	0.109	292272.472
1063	2124	1	0.109	292272.472
1063	2125	1	0.109	292272.472
1064	1456	1	0.187	29999.278
1064	2126	1	0.109	292272.472
1064	2127	1	0.109	292272.472
1064	2128	1	0.109	292272.472
1065	1542	1	0.187	29999.278
1065	2129	1	0.109	292272.472
1065	2130	1	0.109	292272.472
1065	2131	1	0.109	292272.472
1066	1542	1	0.187	29999.278
1066	2132	1	0.109	292272.472
1066	2133	1	0.109	292272.472
1066	2134	1	0.109	292272.472
1067	1545	1	0.187	29999.278
1067	2135	1	0.109	292272.472
1067	2136	1	0.109	292272.472
1067	2137	1	0.109	292272.472
1068	1545	1	0.187	29999.278
1068	2138	1	0.109	292272.472
1068	2139	1	0.109	292272.472
1068	2140	1	0.109	292272.472
1069	1548	1	0.187	29999.278
1069	2141	1	0.109	292272.472
1069	2142	1	0.109	292272.472
1069	2143	1	0.109	292272.472
1070	1548	1	0.187	29999.278
1070	2144	1	0.109	292272.472
1070	2145	1	0.109	292272.472
1070	2146	1	0.109	292272.472
1071	1551	1	0.187	29999.278
1071	2147	1	0.109	292272.472
1071	2148	1	0.109	292272.472
1071	2149	1	0.109	292272.472
1072	1551	1	0.187	29999.278
1072	2150	1	0.109	292272.472
1072	2151	1	0.109	292272.472
1072	2152	1	0.109	292272.472
1073	1554	1	0.187	29999.278
1073	2153	1	0.109	292272.472
1073	2154	1	0.109	292272.472
1073	2155	1	0.109	292272.472
1074	1554	1	0.187	29999.278
1074	2156	1	0.109	292272.472
1074	2157	1	0.109	292272.472
1074	2158	1	0.109	292272.472
1075	1557	1	0.187	29999.278
1075	2159	1	0.109	292272.472
1075	2160	1	0.109	292272.472
1075	2161	1	0.109	292272.472
1076	1557	1	0.187	29999.278
1076	2162	1	0.109	292272.472
1076	2163	1	0.109	292272.472
1076	2164	1	0.109	292272.472
1077	1560	1	0.187	29999.278
1077	2165	1	0.109	292272.472
1077	2166	1	0.109	292272.472
1077	2167	1	0.109	292272.472
1078	1560	1	0.187	29999.278
1078	2168	1	0.109	292272.472
1078	2169	1	0.109	292272.472
1078	2170	1	0.109	292272.472
1079	1563	1	0.187	29999.278
1079	2171	1	0.109	292272.472
1079	2172	1	0.109	292272.472
1079	2173	1	0.109	292272.472
1080	1563	1	0.187	29999.278
1080	2174	1	0.109	292272.472
1080	2175	1	0.109	292272.472
1080	2176	1	0.109	292272.472
1081	1566	1	0.187	29999.278
1081	2177	1	0.109	292272.472
1081	2178	1	0.109	292272.472
1081	2179	1	0.109	292272.472
1082	1566	1	0.187	29999.278
1082	2180	1	0.109	292272.472
1082	2181	1	0.109	292272.472
1082	2182	1	0.109	292272.472
1083	1569	1	0.187	29999.278
1083	2183	1	0.109	292272.472
1083	2184	1	0.109	292272.472
1083	2185	1	0.109	292272.472
1084	1569	1	0.187	29999.278
1084	2186	1	0.109	292272.472
1084	2187	1	0.109	292272.472
1084	2188	1	0.109	292272.472
1085	1572	1	0.187	29999.278
1085	2189	1	0.109	292272.472
1085	2190	1	0.109	292272.472
1085	2191	1	0.109	292272.472
1086	1572	1	0.187	29999.278
1086	2192	1	0.109	292272.472
1086	2193	1	0.109	292272.472
1086	2194	1	0.109	292272.472
1087	1575	1	0.187	29999.278
1087	2195	1	0.109	292272.472
1087	2196	1	0.109	292272.472
1087	2197	1	0.109	292272.472
1088	1575	1	0.187	29999.278
1088	2198	1	0.109	292272.472
1088	2199	1	0.109	292272.472
1088	2200	1	0.109	292272.472
1089	1578	1	0.187	29999.278
1089	2201	1	0.109	292272.472
1089	2202	1	0.109	292272.472
1089	2203	1	0.109	292272.472
1090	1578	1	0.187	29999.278
1090	2204	1	0.109	292272.472
1090	2205	1	0.109	292272.472
1090	2206	1	0.109	292272.472
1091	1581	1	0.187	29999.278
1091	2207	1	0.109	292272.472
1091	2208	1	0.109	292272.472
1091	2209	1	0.109	292272.472
1092	1581	1	0.187	29999.278
1092	2210	1	0.109	292272.472
1092	2211	1	0.109	292272.472
1092	2212	1	0.109	292272.472
1093	1584	1	0.187	29999.278
1093	2213	1	0.109	292272.472
1093	2214	1	0.109	292272.472
1093	2215	1	0.109	292272.472
1094	1584	1	0.187	29999.278
1094	2216	1	0.109	292272.472
1094	2217	1	0.109	292272.472
1094	2218	1	0.109	292272.472
1095	1587	1	0.187	29999.278
1095	2219	1	0.109	292272.472
1095	2220	1	0.109	292272.472
1095	2221	1	0.109	292272.472
1096	1587	1	0.187	29999.278
1096	2222	1	0.109	292272.472
1096	2223	1	0.109	292272.472
1096	2224	1	0.109	292272.472
1097	1590	1	0.187	29999.278
1097	2225	1	0.109	292272.472
1097	2226	1	0.109	292272.472
1097	2227	1	0.109	292272.472
1098	1590	1	0.187	29999.278
1098	2228	1	0.109	292272.472
1098	2229	1	0.109	292272.472
1098	2230	1	0.109	292272.472
1099	1593	1	0.187	29999.278
1099	2231	1	0.109	292272.472
1099	2232	1	0.109	292272.472
1099	2233	1	0.109	292272.472
1100	1593	1	0.187	29999.278
1100	2234	1	0.109	292272.472
1100	2235	1	0.109	292272.472
1100	2236	1	0.109	292272.472
1101	1596	1	0.187	29999.278
1101	2237	1	0.109	292272.472
1101	2238	1	0.109	292272.472
1101	2239	1	0.109	292272.472
1102	1596	1	0.187	29999.278
1102	2240	1	0.109	292272.472
1102	2241	1	0.109	292272.472
1102	2242	1	0.109	292272.472
1103	1599	1	0.187	29999.278
1103	2243	1	0.109	292272.472
1103	2244	1	0.109	292272.472
1103	2245	1	0.109	292272.472
1104	1599	1	0.187	29999.278
1104	2246	1	0.109	292272.472
1104	2247	1	0.109	292272.472
1104	2248	1	0.109	292272.472
1105	1602	1	0.187	29999.278
1105	2249	1	0.109	292272.472
1105	2250	1	0.109	292272.472
1105	2251	1	0.109	292272.472
1106	1602	1	0.187	29999.278
1106	2252	1	0.109	292272.472
1106	2253	1	0.109	292272.472
1106	2254	1	0.109	292272.472
1107	1605	1	0.187	29999.278
1107	2255	1	0.109	292272.472
1107	2256	1	0.109	292272.472
1107	2257	1	0.109	292272.472
1108	1605	1	0.187	29999.278
1108	2258	1	0.109	292272.472
1108	2259	1	0.109	292272.472
1108	2260	1	0.109	292272.472
1109	1608	1	0.187	29999.278
1109	2261	1	0.109	292272.472
1109	2262	1	0.109	292272.472
1109	2263	1	0.109	292272.472
1110	1608	1	0.187	29999.278
1110	2264	1	0.109	292272.472
1110	2265	1	0.109	292272.472
1110	2266	1	0.109	292272.472
1111	1611	1	0.187	29999.278
1111	2267	1	0.109	292272.472
1111	2268	1	0.109	292272.472
1111	2269	1	0.109	292272.472
1112	1611	1	0.187	29999.278
1112	2270	1	0.109	292272.472
1112	2271	1	0.109	292272.472
1112	2272	1	0.109	292272.472
1113	1614	1	0.187	29999.278
1113	2273	1	0.109	292272.472
1113	2274	1	0.109	292272.472
1113	2275	1	0.109	292272.472
1114	1614	1	0.187	29999.278
1114	2276	1	0.109	292272.472
1114	2277	1	0.109	292272.472
1114	2278	1	0.109	292272.472
1115	1617	1	0.187	29999.278
1115	2279	1	0.109	292272.472
1115	2280	1	0.109	292272.472
1115	2281	1	0.109	292272.472
1116	1617	1	0.187	29999.278
1116	2282	1	0.109	292272.472
1116	2283	1	0.109	292272.472
1116	2284	1	0.109	292272.472
1117	1620	1	0.187	29999.278
1117	2285	1	0.109	292272.472
1117	2286	1	0.109	292272.472
1117	2287	1	0.109	292272.472
1118	1620	1	0.187	29999.278
1118	2288	1	0.109	292272.472
1118	2289	1	0.109	292272.472
1118	2290	1	0.109	292272.472
1119	1623	1	0.187	29999.278
1119	2291	1	0.109	292272.472
1119	2292	1	0.109	292272.472
1119	2293	1	0.109	292272.472
1120	1623	1	0.187	29999.278
1120	2294	1	0.109	292272.472
1120	2295	1	0.109	292272.472
1120	2296	1	0.109	292272.472

[ angles ]
;  ai   aj   ak  funct   angle     fc
1	1121	2	1	109.5	836.8
1	1121	471	1	109.5	836.8
1	1121	472	1	109.5	836.8
1	1123	6	1	109.5	836.8
1	1123	897	1	109.5	836.8
1	1123	898	1	109.5	836.8
2	1121	471	1	109.5	836.8
2	1121	472	1	109.5	836.8
2	1122	3	1	109.5	836.8
2	1122	5	1	109.5	836.8
2	1122	28	1	109.5	836.8
3	1122	5	1	109.5	836.8
3	1122	28	1	109.5	836.8
3	1207	4	1	109.5	836.8
3	1207	169	1	109.5	836.8
3	1207	174	1	109.5	836.8
4	1194	146	1	109.5	836.8
4	1194	147	1	109.5	836.8
4	1194	149	1	109.5	836.8
4	1207	169	1	109.5	836.8
4	1207	174	1	109.5	836.8
5	1122	28	1	109.5	836.8
5	1373	30	1	109.5	836.8
5	1373	449	1	109.5	836.8
5	1373	474	1	109.5	836.8
6	1123	897	1	109.5	836.8
6	1123	898	1	109.5	836.8
6	1445	149	1	109.5	836.8
6	1445	450	1	109.5	836.8
6	1445	593	1	109.5	836.8
7	1124	8	1	109.5	836.8
7	1124	453	1	109.5	836.8
7	1124	454	1	109.5	836.8
7	1126	12	1	109.5	836.8
7	1126	899	1	109.5	836.8
7	1126	900	1	109.5	836.8
8	1124	453	1	109.5	836.8
8	1124	454	1	109.5	836.8
8	1125	9	1	109.5	836.8
8	1125	11	1	109.5	836.8
8	1125	34	1	109.5	836.8
9	1125	11	1	109.5	836.8
9	1125	34	1	109.5	836.8
9	1210	10	1	109.5	836.8
9	1210	175	1	109.5	836.8
9	1210	180	1	109.5	836.8
10	1197	152	1	109.5	836.8
10	1197	153	1	109.5	836.8
10	1197	155	1	109.5	836.8
10	1210	175	1	109.5	836.8
10	1210	180	1	109.5	836.8
11	1125	34	1	109.5	836.8
11	1376	36	1	109.5	836.8
11	1376	455	1	109.5	836.8
11	1376	480	1	109.5	836.8
12	1126	899	1	109.5	836.8
12	1126	900	1	109.5	836.8
12	1448	155	1	109.5	836.8
12	1448	456	1	109.5	836.8
12	1448	599	1	109.5	836.8
13	1127	14	1	109.5	836.8
13	1127	459	1	109.5	836.8
13	1127	460	1	109.5	836.8
13	1129	18	1	109.5	836.8
13	1129	901	1	109.5	836.8
13	1129	902	1	109.5	836.8
14	1127	459	1	109.5	836.8
14	1127	460	1	109.5	836.8
14	1128	15	1	109.5	836.8
14	1128	17	1	109.5	836.8
14	1128	40	1	109.5	836.8
15	1128	17	1	109.5	836.8
15	1128	40	1	109.5	836.8
15	1213	16	1	109.5	836.8
15	1213	181	1	109.5	836.8
15	1213	186	1	109.5	836.8
16	1200	158	1	109.5	836.8
16	1200	159	1	109.5	836.8
16	1200	161	1	109.5	836.8
16	1213	181	1	109.5	836.8
16	1213	186	1	109.5	836.8
17	1128	40	1	109.5	836.8
17	1379	42	1	109.5	836.8
17	1379	461	1	109.5	836.8
17	1379	486	1	109.5	836.8
18	1129	901	1	109.5	836.8
18	1129	902	1	109.5	836.8
18	1451	161	1	109.5	836.8
18	1451	462	1	109.5	836.8
18	1451	605	1	109.5	836.8
19	1130	20	1	109.5	836.8
19	1130	465	1	109.5	836.8
19	1130	466	1	109.5	836.8
19	1132	24	1	109.5	836.8
19	1132	903	1	109.5	836.8
19	1132	904	1	109.5	836.8
20	1130	465	1	109.5	836.8
20	1130	466	1	109.5	836.8
20	1131	21	1	109.5	836.8
20	1131	23	1	109.5	836.8
20	1131	46	1	109.5	836.8
21	1131	23	1	109.5	836.8
21	1131	46	1	109.5	836.8
21	1216	22	1	109.5	836.8
21	1216	187	1	109.5	836.8
21	1216	192	1	109.5	836.8
22	1203	164	1	109.5	836.8
22	1203	165	1	109.5	836.8
22	1203	167	1	109.5	836.8
22	1216	187	1	109.5	836.8
22	1216	192	1	109.5	836.8
23	1131	46	1	109.5	836.8
23	1382	48	1	109.5	836.8
23	1382	467	1	109.5	836.8
23	1382	492	1	109.5	836.8
24	1132	903	1	109.5	836.8
24	1132	904	1	109.5	836.8
24	1454	167	1	109.5	836.8
24	1454	468	1	109.5	836.8
24	1454	611	1	109.5	836.8
25	1133	26	1	109.5	836.8
25	1133	495	1	109.5	836.8
25	1133	496	1	109.5	836.8
25	1135	30	1	109.5	836.8
25	1135	905	1	109.5	836.8
25	1135	906	1	109.5	836.8
26	1133	495	1	109.5	836.8
26	1133	496	1	109.5	836.8
26	1134	27	1	109.5	836.8
26	1134	29	1	109.5	836.8
26	1134	52	1	109.5	836.8
27	1134	29	1	109.5	836.8
27	1134	52	1	109.5	836.8
27	1219	28	1	109.5	836.8
27	1219	193	1	109.5	836.8
27	1219	198	1	109.5	836.8
28	1219	193	1	109.5	836.8
28	1219	198	1	109.5	836.8
29	1134	52	1	109.5	836.8
29	1385	54	1	109.5	836.8
29	1385	473	1	109.5	836.8
29	1385	498	1	109.5	836.8
30	1135	905	1	109.5	836.8
30	1135	906	1	109.5	836.8
30	1373	449	1	109.5	836.8
30	1373	474	1	109.5	836.8
31	1136	32	1	109.5	836.8
31	1136	477	1	109.5	836.8
31	1136	478	1	109.5	836.8
31	1138	36	1	109.5	836.8
31	1138	907	1	109.5	836.8
31	1138	908	1	109.5	836.8
32	1136	477	1	109.5	836.8
32	1136	478	1	109.5	836.8
32	1137	33	1	109.5	836.8
32	1137	35	1	109.5	836.8
32	1137	58	1	109.5	836.8
33	1137	35	1	109.5	836.8
33	1137	58	1	109.5	836.8
33	1222	34	1	109.5	836.8
33	1222	199	1	109.5	836.8
33	1222	204	1	109.5	836.8
34	1222	199	1	109.5	836.8
34	1222	204	1	109.5	836.8
35	1137	58	1	109.5	836.8
35	1388	60	1	109.5	836.8
35	1388	479	1	109.5	836.8
35	1388	504	1	109.5	836.8
36	1138	907	1	109.5	836.8
36	1138	908	1	109.5	836.8
36	1376	455	1	109.5	836.8
36	1376	480	1	109.5	836.8
37	1139	38	1	109.5	836.8
37	1139	483	1	109.5	836.8
37	1139	484	1	109.5	836.8
37	1141	42	1	109.5	836.8
37	1141	909	1	109.5	836.8
37	1141	910	1	109.5	836.8
38	1139	483	1	109.5	836.8
38	1139	484	1	109.5	836.8
38	1140	39	1	109.5	836.8
38	1140	41	1	109.5	836.8
38	1140	64	1	109.5	836.8
39	1140	41	1	109.5	836.8
39	1140	64	1	109.5	836.8
39	1225	40	1	109.5	836.8
39	1225	205	1	109.5	836.8
39	1225	210	1	109.5	836.8
40	1225	205	1	109.5	836.8
40	1225	210	1	109.5	836.8
41	1140	64	1	109.5	836.8
41	1391	66	1	109.5	836.8
41	1391	485	1	109.5	836.8
41	1391	510	1	109.5	836.8
42	1141	909	1	109.5	836.8
42	1141	910	1	109.5	836.8
42	1379	461	1	109.5	836.8
42	1379	486	1	109.5	836.8
43	1142	44	1	109.5	836.8
43	1142	489	1	109.5	836.8
43	1142	490	1	109.5	836.8
43	1144	48	1	109.5	836.8
43	1144	911	1	109.5	836.8
43	1144	912	1	109.5	836.8
44	1142	489	1	109.5	836.8
44	1142	490	1	109.5	836.8
44	1143	45	1	109.5	836.8
44	1143	47	1	109.5	836.8
44	1143	70	1	109.5	836.8
45	1143	47	1	109.5	836.8
45	1143	70	1	109.5	836.8
45	1228	46	1	109.5	836.8
45	1228	211	1	109.5	836.8
45	1228	216	1	109.5	836.8
46	1228	211	1	109.5	836.8
46	1228	216	1	109.5	836.8
47	1143	70	1	109.5	836.8
47	1394	72	1	109.5	836.8
47	1394	491	1	109.5	836.8
47	1394	516	1	109.5	836.8
48	1144	911	1	109.5	836.8
48	1144	912	1	109.5	836.8
48	1382	467	1	109.5	836.8
48	1382	492	1	109.5	836.8
49	1145	50	1	109.5	836.8
49	1145	519	1	109.5	836.8
49	1145	520	1	109.5	836.8
49	1147	54	1	109.5	836.8
49	1147	913	1	109.5	836.8
49	1147	914	1	109.5	836.8
50	1145	519	1	109.5	836.8
50	1145	520	1	109.5	836.8
50	1146	51	1	109.5	836.8
50	1146	53	1	109.5	836.8
50	1146	76	1	109.5	836.8
51	1146	53	1	109.5	836.8
51	1146	76	1	109.5	836.8
51	1231	52	1	109.5	836.8
51	1231	217	1	109.5	836.8
51	1231	222	1	109.5	836.8
52	1231	217	1	109.5	836.8
52	1231	222	1	109.5	836.8
53	1146	76	1	109.5	836.8
53	1397	78	1	109.5	836.8
53	1397	497	1	109.5	836.8
53	1397	522	1	109.5	836.8
54	1147	913	1	109.5	836.8
54	1147	914	1	109.5	836.8
54	1385	473	1	109.5	836.8
54	1385	498	1	109.5	836.8
55	1148	56	1	109.5	836.8
55	1148	501	1	109.5	836.8
55	1148	502	1	109.5	836.8
55	1150	60	1	109.5	836.8
55	1150	915	1	109.5	836.8
55	1150	916	1	109.5	836.8
56	1148	501	1	109.5	836.8
56	1148	502	1	109.5	836.8
56	1149	57	1	109.5	836.8
56	1149	59	1	109.5	836.8
56	1149	82	1	109.5	836.8
57	1149	59	1	109.5	836.8
57	1149	82	1	109.5	836.8
57	1234	58	1	109.5	836.8
57	1234	223	1	109.5	836.8
57	1234	228	1	109.5	836.8
58	1234	223	1	109.5	836.8
58	1234	228	1	109.5	836.8
59	1149	82	1	109.5	836.8
59	1400	84	1	109.5	836.8
59	1400	503	1	109.5	836.8
59	1400	528	1	109.5	836.8
60	1150	915	1	109.5	836.8
60	1150	916	1	109.5	836.8
60	1388	479	1	109.5	836.8
60	1388	504	1	109.5	836.8
61	1151	62	1	109.5	836.8
61	1151	507	1	109.5	836.8
61	1151	508	1	109.5	836.8
61	1153	66	1	109.5	836.8
61	1153	917	1	109.5	836.8
61	1153	918	1	109.5	836.8
62	1151	507	1	109.5	836.8
62	1151	508	1	109.5	836.8
62	1152	63	1	109.5	836.8
62	1152	65	1	109.5	836.8
62	1152	88	1	109.5	836.8
63	1152	65	1	109.5	836.8
63	1152	88	1	109.5	836.8
63	1237	64	1	109.5	836.8
63	1237	229	1	109.5	836.8
63	1237	234	1	109.5	836.8
64	1237	229	1	109.5	836.8
64	1237	234	1	109.5	836.8
65	1152	88	1	109.5	836.8
65	1403	90	1	109.5	836.8
65	1403	509	1	109.5	836.8
65	1403	534	1	109.5	836.8
66	1153	917	1	109.5	836.8
66	1153	918	1	109.5	836.8
66	1391	485	1	109.5	836.8
66	1391	510	1	109.5	836.8
67	1154	68	1	109.5	836.8
67	1154	513	1	109.5	836.8
67	1154	514	1	109.5	836.8
67	1156	72	1	109.5	836.8
67	1156	919	1	109.5	836.8
67	1156	920	1	109.5	836.8
68	1154	513	1	109.5	836.8
68	1154	514	1	109.5	836.8
68	1155	69	1	109.5	836.8
68	1155	71	1	109.5	836.8
68	1155	94	1	109.5	836.8
69	1155	71	1	109.5	836.8
69	1155	94	1	109.5	836.8
69	1240	70	1	109.5	836.8
69	1240	235	1	109.5	836.8
69	1240	240	1	109.5	836.8
70	1240	235	1	109.5	836.8
70	1240	240	1	109.5	836.8
71	1155	94	1	109.5	836.8
71	1406	96	1	109.5	836.8
71	1406	515	1	109.5	836.8
71	1406	540	1	109.5	836.8
72	1156	919	1	109.5	836.8
72	1156	920	1	109.5	836.8
72	1394	491	1	109.5	836.8
72	1394	516	1	109.5	836.8
73	1157	74	1	109.5	836.8
73	1157	543	1	109.5	836.8
73	1157	544	1	109.5	836.8
73	1159	78	1	109.5	836.8
73	1159	921	1	109.5	836.8
73	1159	922	1	109.5	836.8
74	1157	543	1	109.5	836.8
74	1157	544	1	109.5	836.8
74	1158	75	1	109.5	836.8
74	1158	77	1	109.5	836.8
74	1158	100	1	109.5	836.8
75	1158	77	1	109.5	836.8
75	1158	100	1	109.5	836.8
75	1243	76	1	109.5	836.8
75	1243	241	1	109.5	836.8
75	1243	246	1	109.5	836.8
76	1243	241	1	109.5	836.8
76	1243	246	1	109.5	836.8
77	1158	100	1	109.5	836.8
77	1409	102	1	109.5	836.8
77	1409	521	1	109.5	836.8
77	1409	546	1	109.5	836.8
78	1159	921	1	109.5	836.8
78	1159	922	1	109.5	836.8
78	1397	497	1	109.5	836.8
78	1397	522	1	109.5	836.8
79	1160	80	1	109.5	836.8
79	1160	525	1	109.5	836.8
79	1160	526	1	109.5	836.8
79	1162	84	1	109.5	836.8
79	1162	923	1	109.5	836.8
79	1162	924	1	109.5	836.8
80	1160	525	1	109.5	836.8
80	1160	526	1	109.5	836.8
80	1161	81	1	109.5	836.8
80	1161	83	1	109.5	836.8
80	1161	106	1	109.5	836.8
81	1161	83	1	109.5	836.8
81	1161	106	1	109.5	836.8
81	1246	82	1	109.5	836.8
81	1246	247	1	109.5	836.8
81	1246	252	1	109.5	836.8
82	1246	247	1	109.5	836.8
82	1246	252	1	109.5	836.8
83	1161	106	1	109.5	836.8
83	1412	108	1	109.5	836.8
83	1412	527	1	109.5	836.8
83	1412	552	1	109.5	836.8
84	1162	923	1	109.5	836.8
84	1162	924	1	109.5	836.8
84	1400	503	1	109.5	836.8
84	1400	528	1	109.5	836.8
85	1163	86	1	109.5	836.8
85	1163	531	1	109.5	836.8
85	1163	532	1	109.5	836.8
85	1165	90	1	109.5	836.8
85	1165	925	1	109.5	836.8
85	1165	926	1	109.5	836.8
86	1163	531	1	109.5	836.8
86	1163	532	1	109.5	836.8
86	1164	87	1	109.5	836.8
86	1164	89	1	109.5	836.8
86	1164	112	1	109.5	836.8
87	1164	89	1	109.5	836.8
87	1164	112	1	109.5	836.8
87	1249	88	1	109.5	836.8
87	1249	253	1	109.5	836.8
87	1249	258	1	109.5	836.8
88	1249	253	1	109.5	836.8
88	1249	258	1	109.5	836.8
89	1164	112	1	109.5	836.8
89	1415	114	1	109.5	836.8
89	1415	533	1	109.5	836.8
89	1415	558	1	109.5	836.8
90	1165	925	1	109.5	836.8
90	1165	926	1	109.5	836.8
90	1403	509	1	109.5	836.8
90	1403	534	1	109.5	836.8
91	1166	92	1	109.5	836.8
91	1166	537	1	109.5	836.8
91	1166	538	1	109.5	836.8
91	1168	96	1	109.5	836.8
91	1168	927	1	109.5	836.8
91	1168	928	1	109.5	836.8
92	1166	537	1	109.5	836.8
92	1166	538	1	109.5	836.8
92	1167	93	1	109.5	836.8
92	1167	95	1	109.5	836.8
92	1167	118	1	109.5	836.8
93	1167	95	1	109.5	836.8
93	1167	118	1	109.5	836.8
93	1252	94	1	109.5	836.8
93	1252	259	1	109.5	836.8
93	1252	264	1	109.5	836.8
94	1252	259	1	109.5	836.8
94	1252	264	1	109.5	836.8
95	1167	118	1	109.5	836.8
95	1418	120	1	109.5	836.8
95	1418	539	1	109.5	836.8
95	1418	564	1	109.5	836.8
96	1168	927	1	109.5	836.8
96	1168	928	1	109.5	836.8
96	1406	515	1	109.5	836.8
96	1406	540	1	109.5	836.8
97	1169	98	1	109.5	836.8
97	1169	567	1	109.5	836.8
97	1169	568	1	109.5	836.8
97	1171	102	1	109.5	836.8
97	1171	929	1	109.5	836.8
97	1171	930	1	109.5	836.8
98	1169	567	1	109.5	836.8
98	1169	568	1	109.5	836.8
98	1170	99	1	109.5	836.8
98	1170	101	1	109.5	836.8
98	1170	124	1	109.5	836.8
99	1170	101	1	109.5	836.8
99	1170	124	1	109.5	836.8
99	1255	100	1	109.5	836.8
99	1255	265	1	109.5	836.8
99	1255	270	1	109.5	836.8
100	1255	265	1	109.5	836.8
100	1255	270	1	109.5	836.8
101	1170	124	1	109.5	836.8
101	1421	126	1	109.5	836.8
101	1421	545	1	109.5	836.8
101	1421	570	1	109.5	836.8
102	1171	929	1	109.5	836.8
102	1171	930	1	109.5	836.8
102	1409	521	1	109.5	836.8
102	1409	546	1	109.5	836.8
103	1172	104	1	109.5	836.8
103	1172	549	1	109.5	836.8
103	1172	550	1	109.5	836.8
103	1174	108	1	109.5	836.8
103	1174	931	1	109.5	836.8
103	1174	932	1	109.5	836.8
104	1172	549	1	109.5	836.8
104	1172	550	1	109.5	836.8
104	1173	105	1	109.5	836.8
104	1173	107	1	109.5	836.8
104	1173	130	1	109.5	836.8
105	1173	107	1	109.5	836.8
105	1173	130	1	109.5	836.8
105	1258	106	1	109.5	836.8
105	1258	271	1	109.5	836.8
105	1258	276	1	109.5	836.8
106	1258	271	1	109.5	836.8
106	1258	276	1	109.5	836.8
107	1173	130	1	109.5	836.8
107	1424	132	1	109.5	836.8
107	1424	551	1	109.5	836.8
107	1424	576	1	109.5	836.8
108	1174	931	1	109.5	836.8
108	1174	932	1	109.5	836.8
108	1412	527	1	109.5	836.8
108	1412	552	1	109.5	836.8
109	1175	110	1	109.5	836.8
109	1175	555	1	109.5	836.8
109	1175	556	1	109.5	836.8
109	1177	114	1	109.5	836.8
109	1177	933	1	109.5	836.8
109	1177	934	1	109.5	836.8
110	1175	555	1	109.5	836.8
110	1175	556	1	109.5	836.8
110	1176	111	1	109.5	836.8
110	1176	113	1	109.5	836.8
110	1176	136	1	109.5	836.8
111	1176	113	1	109.5	836.8
111	1176	136	1	109.5	836.8
111	1261	112	1	109.5	836.8
111	1261	277	1	109.5	836.8
111	1261	282	1	109.5	836.8
112	1261	277	1	109.5	836.8
112	1261	282	1	109.5	836.8
113	1176	136	1	109.5	836.8
113	1427	138	1	109.5	836.8
113	1427	557	1	109.5	836.8
113	1427	582	1	109.5	836.8
114	1177	933	1	109.5	836.8
114	1177	934	1	109.5	836.8
114	1415	533	1	109.5	836.8
114	1415	558	1	109.5	836.8
115	1178	116	1	109.5	836.8
115	1178	561	1	109.5	836.8
115	1178	562	1	109.5	836.8
115	1180	120	1	109.5	836.8
115	1180	935	1	109.5	836.8
115	1180	936	1	109.5	836.8
116	1178	561	1	109.5	836.8
116	1178	562	1	109.5	836.8
116	1179	117	1	109.5	836.8
116	1179	119	1	109.5	836.8
116	1179	142	1	109.5	836.8
117	1179	119	1	109.5	836.8
117	1179	142	1	109.5	836.8
117	1264	118	1	109.5	836.8
117	1264	283	1	109.5	836.8
117	1264	288	1	109.5	836.8
118	1264	283	1	109.5	836.8
118	1264	288	1	109.5	836.8
119	1179	142	1	109.5	836.8
119	1430	144	1	109.5	836.8
119	1430	563	1	109.5	836.8
119	1430	588	1	109.5	836.8
120	1180	935	1	109.5	836.8
120	1180	936	1	109.5	836.8
120	1418	539	1	109.5	836.8
120	1418	564	1	109.5	836.8
121	1181	122	1	109.5	836.8
121	1181	591	1	109.5	836.8
121	1181	592	1	109.5	836.8
121	1183	126	1	109.5	836.8
121	1183	937	1	109.5	836.8
121	1183	938	1	109.5	836.8
122	1181	591	1	109.5	836.8
122	1181	592	1	109.5	836.8
122	1182	123	1	109.5	836.8
122	1182	125	1	109.5	836.8
122	1182	148	1	109.5	836.8
123	1182	125	1	109.5	836.8
123	1182	148	1	109.5	836.8
123	1267	124	1	109.5	836.8
123	1267	289	1	109.5	836.8
123	1267	294	1	109.5	836.8
124	1267	289	1	109.5	836.8
124	1267	294	1	109.5	836.8
125	1182	148	1	109.5	836.8
125	1433	150	1	109.5	836.8
125	1433	569	1	109.5	836.8
125	1433	594	1	109.5	836.8
126	1183	937	1	109.5	836.8
126	1183	938	1	109.5	836.8
126	1421	545	1	109.5	836.8
126	1421	570	1	109.5	836.8
127	1184	128	1	109.5	836.8
127	1184	573	1	109.5	836.8
127	1184	574	1	109.5	836.8
127	1186	132	1	109.5	836.8
127	1186	939	1	109.5	836.8
127	1186	940	1	109.5	836.8
128	1184	573	1	109.5	836.8
128	1184	574	1	109.5	836.8
128	1185	129	1	109.5	836.8
128	1185	131	1	109.5	836.8
128	1185	154	1	109.5	836.8
129	1185	131	1	109.5	836.8
129	1185	154	1	109.5	836.8
129	1270	130	1	109.5	836.8
129	1270	295	1	109.5	836.8
129	1270	300	1	109.5	836.8
130	1270	295	1	109.5	836.8
130	1270	300	1	109.5	836.8
131	1185	154	1	109.5	836.8
131	1436	156	1	109.5	836.8
131	1436	575	1	109.5	836.8
131	1436	600	1	109.5	836.8
132	1186	939	1	109.5	836.8
132	1186	940	1	109.5	836.8
132	1424	551	1	109.5	836.8
132	1424	576	1	109.5	836.8
133	1187	134	1	109.5	836.8
133	1187	579	1	109.5	836.8
133	1187	580	1	109.5	836.8
133	1189	138	1	109.5	836.8
133	1189	941	1	109.5	836.8
133	1189	942	1	109.5	836.8
134	1187	579	1	109.5	836.8
134	1187	580	1	109.5	836.8
134	1188	135	1	109.5	836.8
134	1188	137	1	109.5	836.8
134	1188	160	1	109.5	836.8
135	1188	137	1	109.5	836.8
135	1188	160	1	109.5	836.8
135	1273	136	1	109.5	836.8
135	1273	301	1	109.5	836.8
135	1273	306	1	109.5	836.8
136	1273	301	1	109.5	836.8
136	1273	306	1	109.5	836.8
137	1188	160	1	109.5	836.8
137	1439	162	1	109.5	836.8
137	1439	581	1	109.5	836.8
137	1439	606	1	109.5	836.8
138	1189	941	1	109.5	836.8
138	1189	942	1	109.5	836.8
138	1427	557	1	109.5	836.8
138	1427	582	1	109.5	836.8
139	1190	140	1	109.5	836.8
139	1190	585	1	109.5	836.8
139	1190	586	1	109.5	836.8
139	1192	144	1	109.5	836.8
139	1192	943	1	109.5	836.8
139	1192	944	1	109.5	836.8
140	1190	585	1	109.5	836.8
140	1190	586	1	109.5	836.8
140	1191	141	1	109.5	836.8
140	1191	143	1	109.5	836.8
140	1191	166	1	109.5	836.8
141	1191	143	1	109.5	836.8
141	1191	166	1	109.5	836.8
141	1276	142	1	109.5	836.8
141	1276	307	1	109.5	836.8
141	1276	312	1	109.5	836.8
142	1276	307	1	109.5	836.8
142	1276	312	1	109.5	836.8
143	1191	166	1	109.5	836.8
143	1442	168	1	109.5	836.8
143	1442	587	1	109.5	836.8
143	1442	612	1	109.5	836.8
144	1192	943	1	109.5	836.8
144	1192	944	1	109.5	836.8
144	1430	563	1	109.5	836.8
144	1430	588	1	109.5	836.8
145	1193	146	1	109.5	836.8
145	1193	615	1	109.5	836.8
145	1193	616	1	109.5	836.8
145	1195	150	1	109.5	836.8
145	1195	945	1	109.5	836.8
145	1195	946	1	109.5	836.8
146	1193	615	1	109.5	836.8
146	1193	616	1	109.5	836.8
146	1194	147	1	109.5	836.8
146	1194	149	1	109.5	836.8
147	1194	149	1	109.5	836.8
147	1279	148	1	109.5	836.8
147	1279	313	1	109.5	836.8
147	1279	318	1	109.5	836.8
148	1279	313	1	109.5	836.8
148	1279	318	1	109.5	836.8
149	1445	450	1	109.5	836.8
149	1445	593	1	109.5	836.8
150	1195	945	1	109.5	836.8
150	1195	946	1	109.5	836.8
150	1433	569	1	109.5	836.8
150	1433	594	1	109.5	836.8
151	1196	152	1	109.5	836.8
151	1196	597	1	109.5	836.8
151	1196	598	1	109.5	836.8
151	1198	156	1	109.5	836.8
151	1198	947	1	109.5	836.8
151	1198	948	1	109.5	836.8
152	1196	597	1	109.5	836.8
152	1196	598	1	109.5	836.8
152	1197	153	1	109.5	836.8
152	1197	155	1	109.5	836.8
153	1197	155	1	109.5	836.8
153	1282	154	1	109.5	836.8
153	1282	319	1	109.5	836.8
153	1282	324	1	109.5	836.8
154	1282	319	1	109.5	836.8
154	1282	324	1	109.5	836.8
155	1448	456	1	109.5	836.8
155	1448	599	1	109.5	836.8
156	1198	947	1	109.5	836.8
156	1198	948	1	109.5	836.8
156	1436	575	1	109.5	836.8
156	1436	600	1	109.5	836.8
157	1199	158	1	109.5	836.8
157	1199	603	1	109.5	836.8
157	1199	604	1	109.5	836.8
157	1201	162	1	109.5	836.8
157	1201	949	1	109.5	836.8
157	1201	950	1	109.5	836.8
158	1199	603	1	109.5	836.8
158	1199	604	1	109.5	836.8
158	1200	159	1	109.5	836.8
158	1200	161	1	109.5	836.8
159	1200	161	1	109.5	836.8
159	1285	160	1	109.5	836.8
159	1285	325	1	109.5	836.8
159	1285	330	1	109.5	836.8
160	1285	325	1	109.5	836.8
160	1285	330	1	109.5	836.8
161	1451	462	1	109.5	836.8
161	1451	605	1	109.5	836.8
162	1201	949	1	109.5	836.8
162	1201	950	1	109.5	836.8
162	1439	581	1	109.5	836.8
162	1439	606	1	109.5	836.8
163	1202	164	1	109.5	836.8
163	1202	609	1	109.5	836.8
163	1202	610	1	109.5	836.8
163	1204	168	1	109.5	836.8
163	1204	951	1	109.5	836.8
163	1204	952	1	109.5	836.8
164	1202	609	1	109.5	836.8
164	1202	610	1	109.5	836.8
164	1203	165	1	109.5	836.8
164	1203	167	1	109.5	836.8
165	1203	167	1	109.5	836.8
165	1288	166	1	109.5	836.8
165	1288	331	1	109.5	836.8
165	1288	336	1	109.5	836.8
166	1288	331	1	109.5	836.8
166	1288	336	1	109.5	836.8
167	1454	468	1	109.5	836.8
167	1454	611	1	109.5	836.8
168	1204	951	1	109.5	836.8
168	1204	952	1	109.5	836.8
168	1442	587	1	109.5	836.8
168	1442	612	1	109.5	836.8
169	1205	170	1	109.5	836.8
169	1205	639	1	109.5	836.8
169	1205	640	1	109.5	836.8
169	1207	174	1	109.5	836.8
170	1205	639	1	109.5	836.8
170	1205	640	1	109.5	836.8
170	1206	171	1	109.5	836.8
170	1206	173	1	109.5	836.8
170	1206	196	1	109.5	836.8
171	1206	173	1	109.5	836.8
171	1206	196	1	109.5	836.8
171	1291	172	1	109.5	836.8
171	1291	337	1	109.5	836.8
171	1291	340	1	109.5	836.8
172	1278	314	1	109.5	836.8
172	1278	315	1	109.5	836.8
172	1278	317	1	109.5	836.8
172	1291	337	1	109.5	836.8
172	1291	340	1	109.5	836.8
173	1206	196	1	109.5	836.8
173	1457	198	1	109.5	836.8
173	1457	617	1	109.5	836.8
173	1457	642	1	109.5	836.8
174	1529	317	1	109.5	836.8
174	1529	618	1	109.5	836.8
174	1529	761	1	109.5	836.8
175	1208	176	1	109.5	836.8
175	1208	621	1	109.5	836.8
175	1208	622	1	109.5	836.8
175	1210	180	1	109.5	836.8
176	1208	621	1	109.5	836.8
176	1208	622	1	109.5	836.8
176	1209	177	1	109.5	836.8
176	1209	179	1	109.5	836.8
176	1209	202	1	109.5	836.8
177	1209	179	1	109.5	836.8
177	1209	202	1	109.5	836.8
177	1294	178	1	109.5	836.8
177	1294	341	1	109.5	836.8
177	1294	344	1	109.5	836.8
178	1281	320	1	109.5	836.8
178	1281	321	1	109.5	836.8
178	1281	323	1	109.5	836.8
178	1294	341	1	109.5	836.8
178	1294	344	1	109.5	836.8
179	1209	202	1	109.5	836.8
179	1460	204	1	109.5	836.8
179	1460	623	1	109.5	836.8
179	1460	648	1	109.5	836.8
180	1532	323	1	109.5	836.8
180	1532	624	1	109.5	836.8
180	1532	767	1	109.5	836.8
181	1211	182	1	109.5	836.8
181	1211	627	1	109.5	836.8
181	1211	628	1	109.5	836.8
181	1213	186	1	109.5	836.8
182	1211	627	1	109.5	836.8
182	1211	628	1	109.5	836.8
182	1212	183	1	109.5	836.8
182	1212	185	1	109.5	836.8
182	1212	208	1	109.5	836.8
183	1212	185	1	109.5	836.8
183	1212	208	1	109.5	836.8
183	1297	184	1	109.5	836.8
183	1297	345	1	109.5	836.8
183	1297	348	1	109.5	836.8
184	1284	326	1	109.5	836.8
184	1284	327	1	109.5	836.8
184	1284	329	1	109.5	836.8
184	1297	345	1	109.5	836.8
184	1297	348	1	109.5	836.8
185	1212	208	1	109.5	836.8
185	1463	210	1	109.5	836.8
185	1463	629	1	109.5	836.8
185	1463	654	1	109.5	836.8
186	1535	329	1	109.5	836.8
186	1535	630	1	109.5	836.8
186	1535	773	1	109.5	836.8
187	1214	188	1	109.5	836.8
187	1214	633	1	109.5	836.8
187	1214	634	1	109.5	836.8
187	1216	192	1	109.5	836.8
188	1214	633	1	109.5	836.8
188	1214	634	1	109.5	836.8
188	1215	189	1	109.5	836.8
188	1215	191	1	109.5	836.8
188	1215	214	1	109.5	836.8
189	1215	191	1	109.5	836.8
189	1215	214	1	109.5	836.8
189	1300	190	1	109.5	836.8
189	1300	349	1	109.5	836.8
189	1300	352	1	109.5	836.8
190	1287	332	1	109.5	836.8
190	1287	333	1	109.5	836.8
190	1287	335	1	109.5	836.8
190	1300	349	1	109.5	836.8
190	1300	352	1	109.5	836.8
191	1215	214	1	109.5	836.8
191	1466	216	1	109.5	836.8
191	1466	635	1	109.5	836.8
191	1466	660	1	109.5	836.8
192	1538	335	1	109.5	836.8
192	1538	636	1	109.5	836.8
192	1538	779	1	109.5	836.8
193	1217	194	1	109.5	836.8
193	1217	663	1	109.5	836.8
193	1217	664	1	109.5	836.8
193	1219	198	1	109.5	836.8
194	1217	663	1	109.5	836.8
194	1217	664	1	109.5	836.8
194	1218	195	1	109.5	836.8
194	1218	197	1	109.5	836.8
194	1218	220	1	109.5	836.8
195	1218	197	1	109.5	836.8
195	1218	220	1	109.5	836.8
195	1303	196	1	109.5	836.8
195	1303	353	1	109.5	836.8
195	1303	356	1	109.5	836.8
196	1303	353	1	109.5	836.8
196	1303	356	1	109.5	836.8
197	1218	220	1	109.5	836.8
197	1469	222	1	109.5	836.8
197	1469	641	1	109.5	836.8
197	1469	666	1	109.5	836.8
198	1457	617	1	109.5	836.8
198	1457	642	1	109.5	836.8
199	1220	200	1	109.5	836.8
199	1220	645	1	109.5	836.8
199	1220	646	1	109.5	836.8
199	1222	204	1	109.5	836.8
200	1220	645	1	109.5	836.8
200	1220	646	1	109.5	836.8
200	1221	201	1	109.5	836.8
200	1221	203	1	109.5	836.8
200	1221	226	1	109.5	836.8
201	1221	203	1	109.5	836.8
201	1221	226	1	109.5	836.8
201	1306	202	1	109.5	836.8
201	1306	357	1	109.5	836.8
201	1306	360	1	109.5	836.8
202	1306	357	1	109.5	836.8
202	1306	360	1	109.5	836.8
203	1221	226	1	109.5	836.8
203	1472	228	1	109.5	836.8
203	1472	647	1	109.5	836.8
203	1472	672	1	109.5	836.8
204	1460	623	1	109.5	836.8
204	1460	648	1	109.5	836.8
205	1223	206	1	109.5	836.8
205	1223	651	1	109.5	836.8
205	1223	652	1	109.5	836.8
205	1225	210	1	109.5	836.8
206	1223	651	1	109.5	836.8
206	1223	652	1	109.5	836.8
206	1224	207	1	109.5	836.8
206	1224	209	1	109.5	836.8
206	1224	232	1	109.5	836.8
207	1224	209	1	109.5	836.8
207	1224	232	1	109.5	836.8
207	1309	208	1	109.5	836.8
207	1309	361	1	109.5	836.8
207	1309	364	1	109.5	836.8
208	1309	361	1	109.5	836.8
208	1309	364	1	109.5	836.8
209	1224	232	1	109.5	836.8
209	1475	234	1	109.5	836.8
209	1475	653	1	109.5	836.8
209	1475	678	1	109.5	836.8
210	1463	629	1	109.5	836.8
210	1463	654	1	109.5	836.8
211	1226	212	1	109.5	836.8
211	1226	657	1	109.5	836.8
211	1226	658	1	109.5	836.8
211	1228	216	1	109.5	836.8
212	1226	657	1	109.5	836.8
212	1226	658	1	109.5	836.8
212	1227	213	1	109.5	836.8
212	1227	215	1	109.5	836.8
212	1227	238	1	109.5	836.8
213	1227	215	1	109.5	836.8
213	1227	238	1	109.5	836.8
213	1312	214	1	109.5	836.8
213	1312	365	1	109.5	836.8
213	1312	368	1	109.5	836.8
214	1312	365	1	109.5	836.8
214	1312	368	1	109.5	836.8
215	1227	238	1	109.5	836.8
215	1478	240	1	109.5	836.8
215	1478	659	1	109.5	836.8
215	1478	684	1	109.5	836.8
216	1466	635	1	109.5	836.8
216	1466	660	1	109.5	836.8
217	1229	218	1	109.5	836.8
217	1229	687	1	109.5	836.8
217	1229	688	1	109.5	836.8
217	1231	222	1	109.5	836.8
218	1229	687	1	109.5	836.8
218	1229	688	1	109.5	836.8
218	1230	219	1	109.5	836.8
218	1230	221	1	109.5	836.8
218	1230	244	1	109.5	836.8
219	1230	221	1	109.5	836.8
219	1230	244	1	109.5	836.8
219	1315	220	1	109.5	836.8
219	1315	369	1	109.5	836.8
219	1315	372	1	109.5	836.8
220	1315	369	1	109.5	836.8
220	1315	372	1	109.5	836.8
221	1230	244	1	109.5	836.8
221	1481	246	1	109.5	836.8
221	1481	665	1	109.5	836.8
221	1481	690	1	109.5	836.8
222	1469	641	1	109.5	836.8
222	1469	666	1	109.5	836.8
223	1232	224	1	109.5	836.8
223	1232	669	1	109.5	836.8
223	1232	670	1	109.5	836.8
223	1234	228	1	109.5	836.8
224	1232	669	1	109.5	836.8
224	1232	670	1	109.5	836.8
224	1233	225	1	109.5	836.8
224	1233	227	1	109.5	836.8
224	1233	250	1	109.5	836.8
225	1233	227	1	109.5	836.8
225	1233	250	1	109.5	836.8
225	1318	226	1	109.5	836.8
225	1318	373	1	109.5	836.8
225	1318	376	1	109.5	836.8
226	1318	373	1	109.5	836.8
226	1318	376	1	109.5	836.8
227	1233	250	1	109.5	836.8
227	1484	252	1	109.5	836.8
227	1484	671	1	109.5	836.8
227	1484	696	1	109.5	836.8
228	1472	647	1	109.5	836.8
228	1472	672	1	109.5	836.8
229	1235	230	1	109.5	836.8
229	1235	675	1	109.5	836.8
229	1235	676	1	109.5	836.8
229	1237	234	1	109.5	836.8
230	1235	675	1	109.5	836.8
230	1235	676	1	109.5	836.8
230	1236	231	1	109.5	836.8
230	1236	233	1	109.5	836.8
230	1236	256	1	109.5	836.8
231	1236	233	1	109.5	836.8
231	1236	256	1	109.5	836.8
231	1321	232	1	109.5	836.8
231	1321	377	1	109.5	836.8
231	1321	380	1	109.5	836.8
232	1321	377	1	109.5	836.8
232	1321	380	1	109.5	836.8
233	1236	256	1	109.5	836.8
233	1487	258	1	109.5	836.8
233	1487	677	1	109.5	836.8
233	1487	702	1	109.5	836.8
234	1475	653	1	109.5	836.8
234	1475	678	1	109.5	836.8
235	1238	236	1	109.5	836.8
235	1238	681	1	109.5	836.8
235	1238	682	1	109.5	836.8
235	1240	240	1	109.5	836.8
236	1238	681	1	109.5	836.8
236	1238	682	1	109.5	836.8
236	1239	237	1	109.5	836.8
236	1239	239	1	109.5	836.8
236	1239	262	1	109.5	836.8
237	1239	239	1	109.5	836.8
237	1239	262	1	109.5	836.8
237	1324	238	1	109.5	836.8
237	1324	381	1	109.5	836.8
237	1324	384	1	109.5	836.8
238	1324	381	1	109.5	836.8
238	1324	384	1	109.5	836.8
239	1239	262	1	109.5	836.8
239	1490	264	1	109.5	836.8
239	1490	683	1	109.5	836.8
239	1490	708	1	109.5	836.8
240	1478	659	1	109.5	836.8
240	1478	684	1	109.5	836.8
241	1241	242	1	109.5	836.8
241	1241	711	1	109.5	836.8
241	1241	712	1	109.5	836.8
241	1243	246	1	109.5	836.8
242	1241	711	1	109.5	836.8
242	1241	712	1	109.5	836.8
242	1242	243	1	109.5	836.8
242	1242	245	1	109.5	836.8
242	1242	268	1	109.5	836.8
243	1242	245	1	109.5	836.8
243	1242	268	1	109.5	836.8
243	1327	244	1	109.5	836.8
243	1327	385	1	109.5	836.8
243	1327	388	1	109.5	836.8
244	1327	385	1	109.5	836.8
244	1327	388	1	109.5	836.8
245	1242	268	1	109.5	836.8
245	1493	270	1	109.5	836.8
245	1493	689	1	109.5	836.8
245	1493	714	1	109.5	836.8
246	1481	665	1	109.5	836.8
246	1481	690	1	109.5	836.8
247	1244	248	1	109.5	836.8
247	1244	693	1	109.5	836.8
247	1244	694	1	109.5	836.8
247	1246	252	1	109.5	836.8
248	1244	693	1	109.5	836.8
248	1244	694	1	109.5	836.8
248	1245	249	1	109.5	836.8
248	1245	251	1	109.5	836.8
248	1245	274	1	109.5	836.8
249	1245	251	1	109.5	836.8
249	1245	274	1	109.5	836.8
249	1330	250	1	109.5	836.8
249	1330	389	1	109.5	836.8
249	1330	392	1	109.5	836.8
250	1330	389	1	109.5	836.8
250	1330	392	1	109.5	836.8
251	1245	274	1	109.5	836.8
251	1496	276	1	109.5	836.8
251	1496	695	1	109.5	836.8
251	1496	720	1	109.5	836.8
252	1484	671	1	109.5	836.8
252	1484	696	1	109.5	836.8
253	1247	254	1	109.5	836.8
253	1247	699	1	109.5	836.8
253	1247	700	1	109.5	836.8
253	1249	258	1	109.5	836.8
254	1247	699	1	109.5	836.8
254	1247	700	1	109.5	836.8
254	1248	255	1	109.5	836.8
254	1248	257	1	109.5	836.8
254	1248	280	1	109.5	836.8
255	1248	257	1	109.5	836.8
255	1248	280	1	109.5	836.8
255	1333	256	1	109.5	836.8
255	1333	393	1	109.5	836.8
255	1333	396	1	109.5	836.8
256	1333	393	1	109.5	836.8
256	1333	396	1	109.5	836.8
257	1248	280	1	109.5	836.8
257	1499	282	1	109.5	836.8
257	1499	701	1	109.5	836.8
257	1499	726	1	109.5	836.8
258	1487	677	1	109.5	836.8
258	1487	702	1	109.5	836.8
259	1250	260	1	109.5	836.8
259	1250	705	1	109.5	836.8
259	1250	706	1	109.5	836.8
259	1252	264	1	109.5	836.8
260	1250	705	1	109.5	836.8
260	1250	706	1	109.5	836.8
260	1251	261	1	109.5	836.8
260	1251	263	1	109.5	836.8
260	1251	286	1	109.5	836.8
261	1251	263	1	109.5	836.8
261	1251	286	1	109.5	836.8
261	1336	262	1	109.5	836.8
261	1336	397	1	109.5	836.8
261	1336	400	1	109.5	836.8
262	1336	397	1	109.5	836.8
262	1336	400	1	109.5	836.8
263	1251	286	1	109.5	836.8
263	1502	288	1	109.5	836.8
263	1502	707	1	109.5	836.8
263	1502	732	1	109.5	836.8
264	1490	683	1	109.5	836.8
264	1490	708	1	109.5	836.8
265	1253	266	1	109.5	836.8
265	1253	735	1	109.5	836.8
265	1253	736	1	109.5	836.8
265	1255	270	1	109.5	836.8
266	1253	735	1	109.5	836.8
266	1253	736	1	109.5	836.8
266	1254	267	1	109.5	836.8
266	1254	269	1	109.5	836.8
266	1254	292	1	109.5	836.8
267	1254	269	1	109.5	836.8
267	1254	292	1	109.5	836.8
267	1339	268	1	109.5	836.8
267	1339	401	1	109.5	836.8
267	1339	404	1	109.5	836.8
268	1339	401	1	109.5	836.8
268	1339	404	1	109.5	836.8
269	1254	292	1	109.5	836.8
269	1505	294	1	109.5	836.8
269	1505	713	1	109.5	836.8
269	1505	738	1	109.5	836.8
270	1493	689	1	109.5	836.8
270	1493	714	1	109.5	836.8
271	1256	272	1	109.5	836.8
271	1256	717	1	109.5	836.8
271	1256	718	1	109.5	836.8
271	1258	276	1	109.5	836.8
272	1256	717	1	109.5	836.8
272	1256	718	1	109.5	836.8
272	1257	273	1	109.5	836.8
272	1257	275	1	109.5	836.8
272	1257	298	1	109.5	836.8
273	1257	275	1	109.5	836.8
273	1257	298	1	109.5	836.8
273	1342	274	1	109.5	836.8
273	1342	405	1	109.5	836.8
273	1342	408	1	109.5	836.8
274	1342	405	1	109.5	836.8
274	1342	408	1	109.5	836.8
275	1257	298	1	109.5	836.8
275	1508	300	1	109.5	836.8
275	1508	719	1	109.5	836.8
275	1508	744	1	109.5	836.8
276	1496	695	1	109.5	836.8
276	1496	720	1	109.5	836.8
277	1259	278	1	109.5	836.8
277	1259	723	1	109.5	836.8
277	1259	724	1	109.5	836.8
277	1261	282	1	109.5	836.8
278	1259	723	1	109.5	836.8
278	1259	724	1	109.5	836.8
278	1260	279	1	109.5	836.8
278	1260	281	1	109.5	836.8
278	1260	304	1	109.5	836.8
279	1260	281	1	109.5	836.8
279	1260	304	1	109.5	836.8
279	1345	280	1	109.5	836.8
279	1345	409	1	109.5	836.8
279	1345	412	1	109.5	836.8
280	1345	409	1	109.5	836.8
280	1345	412	1	109.5	836.8
281	1260	304	1	109.5	836.8
281	1511	306	1	109.5	836.8
281	1511	725	1	109.5	836.8
281	1511	750	1	109.5	836.8
282	1499	701	1	109.5	836.8
282	1499	726	1	109.5	836.8
283	1262	284	1	109.5	836.8
283	1262	729	1	109.5	836.8
283	1262	730	1	109.5	836.8
283	1264	288	1	109.5	836.8
284	1262	729	1	109.5	836.8
284	1262	730	1	109.5	836.8
284	1263	285	1	109.5	836.8
284	1263	287	1	109.5	836.8
284	1263	310	1	109.5	836.8
285	1263	287	1	109.5	836.8
285	1263	310	1	109.5	836.8
285	1348	286	1	109.5	836.8
285	1348	413	1	109.5	836.8
285	1348	416	1	109.5	836.8
286	1348	413	1	109.5	836.8
286	1348	416	1	109.5	836.8
287	1263	310	1	109.5	836.8
287	1514	312	1	109.5	836.8
287	1514	731	1	109.5	836.8
287	1514	756	1	109.5	836.8
288	1502	707	1	109.5	836.8
288	1502	732	1	109.5	836.8
289	1265	290	1	109.5	836.8
289	1265	759	1	109.5	836.8
289	1265	760	1	109.5	836.8
289	1267	294	1	109.5	836.8
290	1265	759	1	109.5	836.8
290	1265	760	1	109.5	836.8
290	1266	291	1	109.5	836.8
290	1266	293	1	109.5	836.8
290	1266	316	1	109.5	836.8
291	1266	293	1	109.5	836.8
291	1266	316	1	109.5	836.8
291	1351	292	1	109.5	836.8
291	1351	417	1	109.5	836.8
291	1351	420	1	109.5	836.8
292	1351	417	1	109.5	836.8
292	1351	420	1	109.5	836.8
293	1266	316	1	109.5	836.8
293	1517	318	1	109.5	836.8
293	1517	737	1	109.5	836.8
293	1517	762	1	109.5	836.8
294	1505	713	1	109.5	836.8
294	1505	738	1	109.5	836.8
295	1268	296	1	109.5	836.8
295	1268	741	1	109.5	836.8
295	1268	742	1	109.5	836.8
295	1270	300	1	109.5	836.8
296	1268	741	1	109.5	836.8
296	1268	742	1	109.5	836.8
296	1269	297	1	109.5	836.8
296	1269	299	1	109.5	836.8
296	1269	322	1	109.5	836.8
297	1269	299	1	109.5	836.8
297	1269	322	1	109.5	836.8
297	1354	298	1	109.5	836.8
297	1354	421	1	109.5	836.8
297	1354	424	1	109.5	836.8
298	1354	421	1	109.5	836.8
298	1354	424	1	109.5	836.8
299	1269	322	1	109.5	836.8
299	1520	324	1	109.5	836.8
299	1520	743	1	109.5	836.8
299	1520	768	1	109.5	836.8
300	1508	719	1	109.5	836.8
300	1508	744	1	109.5	836.8
301	1271	302	1	109.5	836.8
301	1271	747	1	109.5	836.8
301	1271	748	1	109.5	836.8
301	1273	306	1	109.5	836.8
302	1271	747	1	109.5	836.8
302	1271	748	1	109.5	836.8
302	1272	303	1	109.5	836.8
302	1272	305	1	109.5	836.8
302	1272	328	1	109.5	836.8
303	1272	305	1	109.5	836.8
303	1272	328	1	109.5	836.8
303	1357	304	1	109.5	836.8
303	1357	425	1	109.5	836.8
303	1357	428	1	109.5	836.8
304	1357	425	1	109.5	836.8
304	1357	428	1	109.5	836.8
305	1272	328	1	109.5	836.8
305	1523	330	1	109.5	836.8
305	1523	749	1	109.5	836.8
305	1523	774	1	109.5	836.8
306	1511	725	1	109.5	836.8
306	1511	750	1	109.5	836.8
307	1274	308	1	109.5	836.8
307	1274	753	1	109.5	836.8
307	1274	754	1	109.5	836.8
307	1276	312	1	109.5	836.8
308	1274	753	1	109.5	836.8
308	1274	754	1	109.5	836.8
308	1275	309	1	109.5	836.8
308	1275	311	1	109.5	836.8
308	1275	334	1	109.5	836.8
309	1275	311	1	109.5	836.8
309	1275	334	1	109.5	836.8
309	1360	310	1	109.5	836.8
309	1360	429	1	109.5	836.8
309	1360	432	1	109.5	836.8
310	1360	429	1	109.5	836.8
310	1360	432	1	109.5	836.8
311	1275	334	1	109.5	836.8
311	1526	336	1	109.5	836.8
311	1526	755	1	109.5	836.8
311	1526	780	1	109.5	836.8
312	1514	731	1	109.5	836.8
312	1514	756	1	109.5	836.8
313	1277	314	1	109.5	836.8
313	1277	783	1	109.5	836.8
313	1277	784	1	109.5	836.8
313	1279	318	1	109.5	836.8
314	1277	783	1	109.5	836.8
314	1277	784	1	109.5	836.8
314	1278	315	1	109.5	836.8
314	1278	317	1	109.5	836.8
315	1278	317	1	109.5	836.8
315	1363	316	1	109.5	836.8
315	1363	433	1	109.5	836.8
315	1363	436	1	109.5	836.8
316	1363	433	1	109.5	836.8
316	1363	436	1	109.5	836.8
317	1529	618	1	109.5	836.8
317	1529	761	1	109.5	836.8
318	1517	737	1	109.5	836.8
318	1517	762	1	109.5	836.8
319	1280	320	1	109.5	836.8
319	1280	765	1	109.5	836.8
319	1280	766	1	109.5	836.8
319	1282	324	1	109.5	836.8
320	1280	765	1	109.5	836.8
320	1280	766	1	109.5	836.8
320	1281	321	1	109.5	836.8
320	1281	323	1	109.5	836.8
321	1281	323	1	109.5	836.8
321	1366	322	1	109.5	836.8
321	1366	437	1	109.5	836.8
321	1366	440	1	109.5	836.8
322	1366	437	1	109.5	836.8
322	1366	440	1	109.5	836.8
323	1532	624	1	109.5	836.8
323	1532	767	1	109.5	836.8
324	1520	743	1	109.5	836.8
324	1520	768	1	109.5	836.8
325	1283	326	1	109.5	836.8
325	1283	771	1	109.5	836.8
325	1283	772	1	109.5	836.8
325	1285	330	1	109.5	836.8
326	1283	771	1	109.5	836.8
326	1283	772	1	109.5	836.8
326	1284	327	1	109.5	836.8
326	1284	329	1	109.5	836.8
327	1284	329	1	109.5	836.8
327	1369	328	1	109.5	836.8
327	1369	441	1	109.5	836.8
327	1369	444	1	109.5	836.8
328	1369	441	1	109.5	836.8
328	1369	444	1	109.5	836.8
329	1535	630	1	109.5	836.8
329	1535	773	1	109.5	836.8
330	1523	749	1	109.5	836.8
330	1523	774	1	109.5	836.8
331	1286	332	1	109.5	836.8
331	1286	777	1	109.5	836.8
331	1286	778	1	109.5	836.8
331	1288	336	1	109.5	836.8
332	1286	777	1	109.5	836.8
332	1286	778	1	109.5	836.8
332	1287	333	1	109.5	836.8
332	1287	335	1	109.5	836.8
333	1287	335	1	109.5	836.8
333	1372	334	1	109.5	836.8
333	1372	445	1	109.5	836.8
333	1372	448	1	109.5	836.8
334	1372	445	1	109.5	836.8
334	1372	448	1	109.5	836.8
335	1538	636	1	109.5	836.8
335	1538	779	1	109.5	836.8
336	1526	755	1	109.5	836.8
336	1526	780	1	109.5	836.8
337	1289	338	1	109.5	836.8
337	1289	799	1	109.5	836.8
337	1289	800	1	109.5	836.8
337	1291	340	1	109.5	836.8
338	1289	799	1	109.5	836.8
338	1289	800	1	109.5	836.8
338	1290	339	1	109.5	836.8
338	1290	953	1	109.5	836.8
338	1290	954	1	109.5	836.8
339	1290	953	1	109.5	836.8
339	1290	954	1	109.5	836.8
339	1541	356	1	109.5	836.8
339	1541	785	1	109.5	836.8
339	1541	802	1	109.5	836.8
340	1613	435	1	109.5	836.8
340	1613	786	1	109.5	836.8
340	1613	881	1	109.5	836.8
341	1292	342	1	109.5	836.8
341	1292	787	1	109.5	836.8
341	1292	788	1	109.5	836.8
341	1294	344	1	109.5	836.8
342	1292	787	1	109.5	836.8
342	1292	788	1	109.5	836.8
342	1293	343	1	109.5	836.8
342	1293	955	1	109.5	836.8
342	1293	956	1	109.5	836.8
343	1293	955	1	109.5	836.8
343	1293	956	1	109.5	836.8
343	1544	360	1	109.5	836.8
343	1544	789	1	109.5	836.8
343	1544	806	1	109.5	836.8
344	1616	439	1	109.5	836.8
344	1616	790	1	109.5	836.8
344	1616	885	1	109.5	836.8
345	1295	346	1	109.5	836.8
345	1295	791	1	109.5	836.8
345	1295	792	1	109.5	836.8
345	1297	348	1	109.5	836.8
346	1295	791	1	109.5	836.8
346	1295	792	1	109.5	836.8
346	1296	347	1	109.5	836.8
346	1296	957	1	109.5	836.8
346	1296	958	1	109.5	836.8
347	1296	957	1	109.5	836.8
347	1296	958	1	109.5	836.8
347	1547	364	1	109.5	836.8
347	1547	793	1	109.5	836.8
347	1547	810	1	109.5	836.8
348	1619	443	1	109.5	836.8
348	1619	794	1	109.5	836.8
348	1619	889	1	109.5	836.8
349	1298	350	1	109.5	836.8
349	1298	795	1	109.5	836.8
349	1298	796	1	109.5	836.8
349	1300	352	1	109.5	836.8
350	1298	795	1	109.5	836.8
350	1298	796	1	109.5	836.8
350	1299	351	1	109.5	836.8
350	1299	959	1	109.5	836.8
350	1299	960	1	109.5	836.8
351	1299	959	1	109.5	836.8
351	1299	960	1	109.5	836.8
351	1550	368	1	109.5	836.8
351	1550	797	1	109.5	836.8
351	1550	814	1	109.5	836.8
352	1622	447	1	109.5	836.8
352	1622	798	1	109.5	836.8
352	1622	893	1	109.5	836.8
353	1301	354	1	109.5	836.8
353	1301	815	1	109.5	836.8
353	1301	816	1	109.5	836.8
353	1303	356	1	109.5	836.8
354	1301	815	1	109.5	836.8
354	1301	816	1	109.5	836.8
354	1302	355	1	109.5	836.8
354	1302	961	1	109.5	836.8
354	1302	962	1	109.5	836.8
355	1302	961	1	109.5	836.8
355	1302	962	1	109.5	836.8
355	1553	372	1	109.5	836.8
355	1553	801	1	109.5	836.8
355	1553	818	1	109.5	836.8
356	1541	785	1	109.5	836.8
356	1541	802	1	109.5	836.8
357	1304	358	1	109.5	836.8
357	1304	803	1	109.5	836.8
357	1304	804	1	109.5	836.8
357	1306	360	1	109.5	836.8
358	1304	803	1	109.5	836.8
358	1304	804	1	109.5	836.8
358	1305	359	1	109.5	836.8
358	1305	963	1	109.5	836.8
358	1305	964	1	109.5	836.8
359	1305	963	1	109.5	836.8
359	1305	964	1	109.5	836.8
359	1556	376	1	109.5	836.8
359	1556	805	1	109.5	836.8
359	1556	822	1	109.5	836.8
360	1544	789	1	109.5	836.8
360	1544	806	1	109.5	836.8
361	1307	362	1	109.5	836.8
361	1307	807	1	109.5	836.8
361	1307	808	1	109.5	836.8
361	1309	364	1	109.5	836.8
362	1307	807	1	109.5	836.8
362	1307	808	1	109.5	836.8
362	1308	363	1	109.5	836.8
362	1308	965	1	109.5	836.8
362	1308	966	1	109.5	836.8
363	1308	965	1	109.5	836.8
363	1308	966	1	109.5	836.8
363	1559	380	1	109.5	836.8
363	1559	809	1	109.5	836.8
363	1559	826	1	109.5	836.8
364	1547	793	1	109.5	836.8
364	1547	810	1	109.5	836.8
365	1310	366	1	109.5	836.8
365	1310	811	1	109.5	836.8
365	1310	812	1	109.5	836.8
365	1312	368	1	109.5	836.8
366	1310	811	1	109.5	836.8
366	1310	812	1	109.5	836.8
366	1311	367	1	109.5	836.8
366	1311	967	1	109.5	836.8
366	1311	968	1	109.5	836.8
367	1311	967	1	109.5	836.8
367	1311	968	1	109.5	836.8
367	1562	384	1	109.5	836.8
367	1562	813	1	109.5	836.8
367	1562	830	1	109.5	836.8
368	1550	797	1	109.5	836.8
368	1550	814	1	109.5	836.8
369	1313	370	1	109.5	836.8
369	1313	831	1	109.5	836.8
369	1313	832	1	109.5	836.8
369	1315	372	1	109.5	836.8
370	1313	831	1	109.5	836.8
370	1313	832	1	109.5	836.8
370	1314	371	1	109.5	836.8
370	1314	969	1	109.5	836.8
370	1314	970	1	109.5	836.8
371	1314	969	1	109.5	836.8
371	1314	970	1	109.5	836.8
371	1565	388	1	109.5	836.8
371	1565	817	1	109.5	836.8
371	1565	834	1	109.5	836.8
372	1553	801	1	109.5	836.8
372	1553	818	1	109.5	836.8
373	1316	374	1	109.5	836.8
373	1316	819	1	109.5	836.8
373	1316	820	1	109.5	836.8
373	1318	376	1	109.5	836.8
374	1316	819	1	109.5	836.8
374	1316	820	1	109.5	836.8
374	1317	375	1	109.5	836.8
374	1317	971	1	109.5	836.8
374	1317	972	1	109.5	836.8
375	1317	971	1	109.5	836.8
375	1317	972	1	109.5	836.8
375	1568	392	1	109.5	836.8
375	1568	821	1	109.5	836.8
375	1568	838	1	109.5	836.8
376	1556	805	1	109.5	836.8
376	1556	822	1	109.5	836.8
377	1319	378	1	109.5	836.8
377	1319	823	1	109.5	836.8
377	1319	824	1	109.5	836.8
377	1321	380	1	109.5	836.8
378	1319	823	1	109.5	836.8
378	1319	824	1	109.5	836.8
378	1320	379	1	109.5	836.8
378	1320	973	1	109.5	836.8
378	1320	974	1	109.5	836.8
379	1320	973	1	109.5	836.8
379	1320	974	1	109.5	836.8
379	1571	396	1	109.5	836.8
379	1571	825	1	109.5	836.8
379	1571	842	1	109.5	836.8
380	1559	809	1	109.5	836.8
380	1559	826	1	109.5	836.8
381	1322	382	1	109.5	836.8
381	1322	827	1	109.5	836.8
381	1322	828	1	109.5	836.8
381	1324	384	1	109.5	836.8
382	1322	827	1	109.5	836.8
382	1322	828	1	109.5	836.8
382	1323	383	1	109.5	836.8
382	1323	975	1	109.5	836.8
382	1323	976	1	109.5	836.8
383	1323	975	1	109.5	836.8
383	1323	976	1	109.5	836.8
383	1574	400	1	109.5	836.8
383	1574	829	1	109.5	836.8
383	1574	846	1	109.5	836.8
384	1562	813	1	109.5	836.8
384	1562	830	1	109.5	836.8
385	1325	386	1	109.5	836.8
385	1325	847	1	109.5	836.8
385	1325	848	1	109.5	836.8
385	1327	388	1	109.5	836.8
386	1325	847	1	109.5	836.8
386	1325	848	1	109.5	836.8
386	1326	387	1	109.5	836.8
386	1326	977	1	109.5	836.8
386	1326	978	1	109.5	836.8
387	1326	977	1	109.5	836.8
387	1326	978	1	109.5	836.8
387	1577	404	1	109.5	836.8
387	1577	833	1	109.5	836.8
387	1577	850	1	109.5	836.8
388	1565	817	1	109.5	836.8
388	1565	834	1	109.5	836.8
389	1328	390	1	109.5	836.8
389	1328	835	1	109.5	836.8
389	1328	836	1	109.5	836.8
389	1330	392	1	109.5	836.8
390	1328	835	1	109.5	836.8
390	1328	836	1	109.5	836.8
390	1329	391	1	109.5	836.8
390	1329	979	1	109.5	836.8
390	1329	980	1	109.5	836.8
391	1329	979	1	109.5	836.8
391	1329	980	1	109.5	836.8
391	1580	408	1	109.5	836.8
391	1580	837	1	109.5	836.8
391	1580	854	1	109.5	836.8
392	1568	821	1	109.5	836.8
392	1568	838	1	109.5	836.8
393	1331	394	1	109.5	836.8
393	1331	839	1	109.5	836.8
393	1331	840	1	109.5	836.8
393	1333	396	1	109.5	836.8
394	1331	839	1	109.5	836.8
394	1331	840	1	109.5	836.8
394	1332	395	1	109.5	836.8
394	1332	981	1	109.5	836.8
394	1332	982	1	109.5	836.8
395	1332	981	1	109.5	836.8
395	1332	982	1	109.5	836.8
395	1583	412	1	109.5	836.8
395	1583	841	1	109.5	836.8
395	1583	858	1	109.5	836.8
396	1571	825	1	109.5	836.8
396	1571	842	1	109.5	836.8
397	1334	398	1	109.5	836.8
397	1334	843	1	109.5	836.8
397	1334	844	1	109.5	836.8
397	1336	400	1	109.5	836.8
398	1334	843	1	109.5	836.8
398	1334	844	1	109.5	836.8
398	1335	399	1	109.5	836.8
398	1335	983	1	109.5	836.8
398	1335	984	1	109.5	836.8
399	1335	983	1	109.5	836.8
399	1335	984	1	109.5	836.8
399	1586	416	1	109.5	836.8
399	1586	845	1	109.5	836.8
399	1586	862	1	109.5	836.8
400	1574	829	1	109.5	836.8
400	1574	846	1	109.5	836.8
401	1337	402	1	109.5	836.8
401	1337	863	1	109.5	836.8
401	1337	864	1	109.5	836.8
401	1339	404	1	109.5	836.8
402	1337	863	1	109.5	836.8
402	1337	864	1	109.5	836.8
402	1338	403	1	109.5	836.8
402	1338	985	1	109.5	836.8
402	1338	986	1	109.5	836.8
403	1338	985	1	109.5	836.8
403	1338	986	1	109.5	836.8
403	1589	420	1	109.5	836.8
403	1589	849	1	109.5	836.8
403	1589	866	1	109.5	836.8
404	1577	833	1	109.5	836.8
404	1577	850	1	109.5	836.8
405	1340	406	1	109.5	836.8
405	1340	851	1	109.5	836.8
405	1340	852	1	109.5	836.8
405	1342	408	1	109.5	836.8
406	1340	851	1	109.5	836.8
406	1340	852	1	109.5	836.8
406	1341	407	1	109.5	836.8
406	1341	987	1	109.5	836.8
406	1341	988	1	109.5	836.8
407	1341	987	1	109.5	836.8
407	1341	988	1	109.5	836.8
407	1592	424	1	109.5	836.8
407	1592	853	1	109.5	836.8
407	1592	870	1	109.5	836.8
408	1580	837	1	109.5	836.8
408	1580	854	1	109.5	836.8
409	1343	410	1	109.5	836.8
409	1343	855	1	109.5	836.8
409	1343	856	1	109.5	836.8
409	1345	412	1	109.5	836.8
410	1343	855	1	109.5	836.8
410	1343	856	1	109.5	836.8
410	1344	411	1	109.5	836.8
410	1344	989	1	109.5	836.8
410	1344	990	1	109.5	836.8
411	1344	989	1	109.5	836.8
411	1344	990	1	109.5	836.8
411	1595	428	1	109.5	836.8
411	1595	857	1	109.5	836.8
411	1595	874	1	109.5	836.8
412	1583	841	1	109.5	836.8
412	1583	858	1	109.5	836.8
413	1346	414	1	109.5	836.8
413	1346	859	1	109.5	836.8
413	1346	860	1	109.5	836.8
413	1348	416	1	109.5	836.8
414	1346	859	1	109.5	836.8
414	1346	860	1	109.5	836.8
414	1347	415	1	109.5	836.8
414	1347	991	1	109.5	836.8
414	1347	992	1	109.5	836.8
415	1347	991	1	109.5	836.8
415	1347	992	1	109.5	836.8
415	1598	432	1	109.5	836.8
415	1598	861	1	109.5	836.8
415	1598	878	1	109.5	836.8
416	1586	845	1	109.5	836.8
416	1586	862	1	109.5	836.8
417	1349	418	1	109.5	836.8
417	1349	879	1	109.5	836.8
417	1349	880	1	109.5	836.8
417	1351	420	1	109.5	836.8
418	1349	879	1	109.5	836.8
418	1349	880	1	109.5	836.8
418	1350	419	1	109.5	836.8
418	1350	993	1	109.5	836.8
418	1350	994	1	109.5	836.8
419	1350	993	1	109.5	836.8
419	1350	994	1	109.5	836.8
419	1601	436	1	109.5	836.8
419	1601	865	1	109.5	836.8
419	1601	882	1	109.5	836.8
420	1589	849	1	109.5	836.8
420	1589	866	1	109.5	836.8
421	1352	422	1	109.5	836.8
421	1352	867	1	109.5	836.8
421	1352	868	1	109.5	836.8
421	1354	424	1	109.5	836.8
422	1352	867	1	109.5	836.8
422	1352	868	1	109.5	836.8
422	1353	423	1	109.5	836.8
422	1353	995	1	109.5	836.8
422	1353	996	1	109.5	836.8
423	1353	995	1	109.5	836.8
423	1353	996	1	109.5	836.8
423	1604	440	1	109.5	836.8
423	1604	869	1	109.5	836.8
423	1604	886	1	109.5	836.8
424	1592	853	1	109.5	836.8
424	1592	870	1	109.5	836.8
425	1355	426	1	109.5	836.8
425	1355	871	1	109.5	836.8
425	1355	872	1	109.5	836.8
425	1357	428	1	109.5	836.8
426	1355	871	1	109.5	836.8
426	1355	872	1	109.5	836.8
426	1356	427	1	109.5	836.8
426	1356	997	1	109.5	836.8
426	1356	998	1	109.5	836.8
427	1356	997	1	109.5	836.8
427	1356	998	1	109.5	836.8
427	1607	444	1	109.5	836.8
427	1607	873	1	109.5	836.8
427	1607	890	1	109.5	836.8
428	1595	857	1	109.5	836.8
428	1595	874	1	109.5	836.8
429	1358	430	1	109.5	836.8
429	1358	875	1	109.5	836.8
429	1358	876	1	109.5	836.8
429	1360	432	1	109.5	836.8
430	1358	875	1	109.5	836.8
430	1358	876	1	109.5	836.8
430	1359	431	1	109.5	836.8
430	1359	999	1	109.5	836.8
430	1359	1000	1	109.5	836.8
431	1359	999	1	109.5	836.8
431	1359	1000	1	109.5	836.8
431	1610	448	1	109.5	836.8
431	1610	877	1	109.5	836.8
431	1610	894	1	109.5	836.8
432	1598	861	1	109.5	836.8
432	1598	878	1	109.5	836.8
433	1361	434	1	109.5	836.8
433	1361	895	1	109.5	836.8
433	1361	896	1	109.5	836.8
433	1363	436	1	109.5	836.8
434	1361	895	1	109.5	836.8
434	1361	896	1	109.5	836.8
434	1362	435	1	109.5	836.8
434	1362	1001	1	109.5	836.8
434	1362	1005	1	109.5	836.8
435	1362	1001	1	109.5	836.8
435	1362	1005	1	109.5	836.8
435	1613	786	1	109.5	836.8
435	1613	881	1	109.5	836.8
436	1601	865	1	109.5	836.8
436	1601	882	1	109.5	836.8
437	1364	438	1	109.5	836.8
437	1364	883	1	109.5	836.8
437	1364	884	1	109.5	836.8
437	1366	440	1	109.5	836.8
438	1364	883	1	109.5	836.8
438	1364	884	1	109.5	836.8
438	1365	439	1	109.5	836.8
438	1365	1002	1	109.5	836.8
438	1365	1006	1	109.5	836.8
439	1365	1002	1	109.5	836.8
439	1365	1006	1	109.5	836.8
439	1616	790	1	109.5	836.8
439	1616	885	1	109.5	836.8
440	1604	869	1	109.5	836.8
440	1604	886	1	109.5	836.8
441	1367	442	1	109.5	836.8
441	1367	887	1	109.5	836.8
441	1367	888	1	109.5	836.8
441	1369	444	1	109.5	836.8
442	1367	887	1	109.5	836.8
442	1367	888	1	109.5	836.8
442	1368	443	1	109.5	836.8
442	1368	1003	1	109.5	836.8
442	1368	1007	1	109.5	836.8
443	1368	1003	1	109.5	836.8
443	1368	1007	1	109.5	836.8
443	1619	794	1	109.5	836.8
443	1619	889	1	109.5	836.8
444	1607	873	1	109.5	836.8
444	1607	890	1	109.5	836.8
445	1370	446	1	109.5	836.8
445	1370	891	1	109.5	836.8
445	1370	892	1	109.5	836.8
445	1372	448	1	109.5	836.8
446	1370	891	1	109.5	836.8
446	1370	892	1	109.5	836.8
446	1371	447	1	109.5	836.8
446	1371	1004	1	109.5	836.8
446	1371	1008	1	109.5	836.8
447	1371	1004	1	109.5	836.8
447	1371	1008	1	109.5	836.8
447	1622	798	1	109.5	836.8
447	1622	893	1	109.5	836.8
448	1610	877	1	109.5	836.8
448	1610	894	1	109.5	836.8
449	1373	474	1	109.5	836.8
449	1375	454	1	109.5	836.8
449	1375	1009	1	109.5	836.8
449	1375	1010	1	109.5	836.8
450	1374	451	1	109.5	836.8
450	1374	452	1	109.5	836.8
450	1374	453	1	109.5	836.8
450	1445	593	1	109.5	836.8
451	1374	452	1	109.5	836.8
451	1374	453	1	109.5	836.8
451	1531	596	1	109.5	836.8
451	1531	761	1	109.5	836.8
451	1531	766	1	109.5	836.8
452	1374	453	1	109.5	836.8
452	1459	475	1	109.5	836.8
452	1459	617	1	109.5	836.8
452	1459	622	1	109.5	836.8
453	1124	454	1	109.5	836.8
454	1375	1009	1	109.5	836.8
454	1375	1010	1	109.5	836.8
455	1376	480	1	109.5	836.8
455	1378	460	1	109.5	836.8
455	1378	1011	1	109.5	836.8
455	1378	1012	1	109.5	836.8
456	1377	457	1	109.5	836.8
456	1377	458	1	109.5	836.8
456	1377	459	1	109.5	836.8
456	1448	599	1	109.5	836.8
457	1377	458	1	109.5	836.8
457	1377	459	1	109.5	836.8
457	1534	602	1	109.5	836.8
457	1534	767	1	109.5	836.8
457	1534	772	1	109.5	836.8
458	1377	459	1	109.5	836.8
458	1462	481	1	109.5	836.8
458	1462	623	1	109.5	836.8
458	1462	628	1	109.5	836.8
459	1127	460	1	109.5	836.8
460	1378	1011	1	109.5	836.8
460	1378	1012	1	109.5	836.8
461	1379	486	1	109.5	836.8
461	1381	466	1	109.5	836.8
461	1381	1013	1	109.5	836.8
461	1381	1014	1	109.5	836.8
462	1380	463	1	109.5	836.8
462	1380	464	1	109.5	836.8
462	1380	465	1	109.5	836.8
462	1451	605	1	109.5	836.8
463	1380	464	1	109.5	836.8
463	1380	465	1	109.5	836.8
463	1537	608	1	109.5	836.8
463	1537	773	1	109.5	836.8
463	1537	778	1	109.5	836.8
464	1380	465	1	109.5	836.8
464	1465	487	1	109.5	836.8
464	1465	629	1	109.5	836.8
464	1465	634	1	109.5	836.8
465	1130	466	1	109.5	836.8
466	1381	1013	1	109.5	836.8
466	1381	1014	1	109.5	836.8
467	1382	492	1	109.5	836.8
467	1384	472	1	109.5	836.8
467	1384	1015	1	109.5	836.8
467	1384	1016	1	109.5	836.8
468	1383	469	1	109.5	836.8
468	1383	470	1	109.5	836.8
468	1383	471	1	109.5	836.8
468	1454	611	1	109.5	836.8
469	1383	470	1	109.5	836.8
469	1383	471	1	109.5	836.8
469	1540	614	1	109.5	836.8
469	1540	779	1	109.5	836.8
469	1540	784	1	109.5	836.8
470	1383	471	1	109.5	836.8
470	1468	493	1	109.5	836.8
470	1468	635	1	109.5	836.8
470	1468	640	1	109.5	836.8
471	1121	472	1	109.5	836.8
472	1384	1015	1	109.5	836.8
472	1384	1016	1	109.5	836.8
473	1385	498	1	109.5	836.8
473	1387	478	1	109.5	836.8
473	1387	1017	1	109.5	836.8
473	1387	1018	1	109.5	836.8
474	1386	475	1	109.5	836.8
474	1386	476	1	109.5	836.8
474	1386	477	1	109.5	836.8
475	1386	476	1	109.5	836.8
475	1386	477	1	109.5	836.8
475	1459	617	1	109.5	836.8
475	1459	622	1	109.5	836.8
476	1386	477	1	109.5	836.8
476	1471	499	1	109.5	836.8
476	1471	641	1	109.5	836.8
476	1471	646	1	109.5	836.8
477	1136	478	1	109.5	836.8
478	1387	1017	1	109.5	836.8
478	1387	1018	1	109.5	836.8
479	1388	504	1	109.5	836.8
479	1390	484	1	109.5	836.8
479	1390	1019	1	109.5	836.8
479	1390	1020	1	109.5	836.8
480	1389	481	1	109.5	836.8
480	1389	482	1	109.5	836.8
480	1389	483	1	109.5	836.8
481	1389	482	1	109.5	836.8
481	1389	483	1	109.5	836.8
481	1462	623	1	109.5	836.8
481	1462	628	1	109.5	836.8
482	1389	483	1	109.5	836.8
482	1474	505	1	109.5	836.8
482	1474	647	1	109.5	836.8
482	1474	652	1	109.5	836.8
483	1139	484	1	109.5	836.8
484	1390	1019	1	109.5	836.8
484	1390	1020	1	109.5	836.8
485	1391	510	1	109.5	836.8
485	1393	490	1	109.5	836.8
485	1393	1021	1	109.5	836.8
485	1393	1022	1	109.5	836.8
486	1392	487	1	109.5	836.8
486	1392	488	1	109.5	836.8
486	1392	489	1	109.5	836.8
487	1392	488	1	109.5	836.8
487	1392	489	1	109.5	836.8
487	1465	629	1	109.5	836.8
487	1465	634	1	109.5	836.8
488	1392	489	1	109.5	836.8
488	1477	511	1	109.5	836.8
488	1477	653	1	109.5	836.8
488	1477	658	1	109.5	836.8
489	1142	490	1	109.5	836.8
490	1393	1021	1	109.5	836.8
490	1393	1022	1	109.5	836.8
491	1394	516	1	109.5	836.8
491	1396	496	1	109.5	836.8
491	1396	1023	1	109.5	836.8
491	1396	1024	1	109.5	836.8
492	1395	493	1	109.5	836.8
492	1395	494	1	109.5	836.8
492	1395	495	1	109.5	836.8
493	1395	494	1	109.5	836.8
493	1395	495	1	109.5	836.8
493	1468	635	1	109.5	836.8
493	1468	640	1	109.5	836.8
494	1395	495	1	109.5	836.8
494	1480	517	1	109.5	836.8
494	1480	659	1	109.5	836.8
494	1480	664	1	109.5	836.8
495	1133	496	1	109.5	836.8
496	1396	1023	1	109.5	836.8
496	1396	1024	1	109.5	836.8
497	1397	522	1	109.5	836.8
497	1399	502	1	109.5	836.8
497	1399	1025	1	109.5	836.8
497	1399	1026	1	109.5	836.8
498	1398	499	1	109.5	836.8
498	1398	500	1	109.5	836.8
498	1398	501	1	109.5	836.8
499	1398	500	1	109.5	836.8
499	1398	501	1	109.5	836.8
499	1471	641	1	109.5	836.8
499	1471	646	1	109.5	836.8
500	1398	501	1	109.5	836.8
500	1483	523	1	109.5	836.8
500	1483	665	1	109.5	836.8
500	1483	670	1	109.5	836.8
501	1148	502	1	109.5	836.8
502	1399	1025	1	109.5	836.8
502	1399	1026	1	109.5	836.8
503	1400	528	1	109.5	836.8
503	1402	508	1	109.5	836.8
503	1402	1027	1	109.5	836.8
503	1402	1028	1	109.5	836.8
504	1401	505	1	109.5	836.8
504	1401	506	1	109.5	836.8
504	1401	507	1	109.5	836.8
505	1401	506	1	109.5	836.8
505	1401	507	1	109.5	836.8
505	1474	647	1	109.5	836.8
505	1474	652	1	109.5	836.8
506	1401	507	1	109.5	836.8
506	1486	529	1	109.5	836.8
506	1486	671	1	109.5	836.8
506	1486	676	1	109.5	836.8
507	1151	508	1	109.5	836.8
508	1402	1027	1	109.5	836.8
508	1402	1028	1	109.5	836.8
509	1403	534	1	109.5	836.8
509	1405	514	1	109.5	836.8
509	1405	1029	1	109.5	836.8
509	1405	1030	1	109.5	836.8
510	1404	511	1	109.5	836.8
510	1404	512	1	109.5	836.8
510	1404	513	1	109.5	836.8
511	1404	512	1	109.5	836.8
511	1404	513	1	109.5	836.8
511	1477	653	1	109.5	836.8
511	1477	658	1	109.5	836.8
512	1404	513	1	109.5	836.8
512	1489	535	1	109.5	836.8
512	1489	677	1	109.5	836.8
512	1489	682	1	109.5	836.8
513	1154	514	1	109.5	836.8
514	1405	1029	1	109.5	836.8
514	1405	1030	1	109.5	836.8
515	1406	540	1	109.5	836.8
515	1408	520	1	109.5	836.8
515	1408	1031	1	109.5	836.8
515	1408	1032	1	109.5	836.8
516	1407	517	1	109.5	836.8
516	1407	518	1	109.5	836.8
516	1407	519	1	109.5	836.8
517	1407	518	1	109.5	836.8
517	1407	519	1	109.5	836.8
517	1480	659	1	109.5	836.8
517	1480	664	1	109.5	836.8
518	1407	519	1	109.5	836.8
518	1492	541	1	109.5	836.8
518	1492	683	1	109.5	836.8
518	1492	688	1	109.5	836.8
519	1145	520	1	109.5	836.8
520	1408	1031	1	109.5	836.8
520	1408	1032	1	109.5	836.8
521	1409	546	1	109.5	836.8
521	1411	526	1	109.5	836.8
521	1411	1033	1	109.5	836.8
521	1411	1034	1	109.5	836.8
522	1410	523	1	109.5	836.8
522	1410	524	1	109.5	836.8
522	1410	525	1	109.5	836.8
523	1410	524	1	109.5	836.8
523	1410	525	1	109.5	836.8
523	1483	665	1	109.5	836.8
523	1483	670	1	109.5	836.8
524	1410	525	1	109.5	836.8
524	1495	547	1	109.5	836.8
524	1495	689	1	109.5	836.8
524	1495	694	1	109.5	836.8
525	1160	526	1	109.5	836.8
526	1411	1033	1	109.5	836.8
526	1411	1034	1	109.5	836.8
527	1412	552	1	109.5	836.8
527	1414	532	1	109.5	836.8
527	1414	1035	1	109.5	836.8
527	1414	1036	1	109.5	836.8
528	1413	529	1	109.5	836.8
528	1413	530	1	109.5	836.8
528	1413	531	1	109.5	836.8
529	1413	530	1	109.5	836.8
529	1413	531	1	109.5	836.8
529	1486	671	1	109.5	836.8
529	1486	676	1	109.5	836.8
530	1413	531	1	109.5	836.8
530	1498	553	1	109.5	836.8
530	1498	695	1	109.5	836.8
530	1498	700	1	109.5	836.8
531	1163	532	1	109.5	836.8
532	1414	1035	1	109.5	836.8
532	1414	1036	1	109.5	836.8
533	1415	558	1	109.5	836.8
533	1417	538	1	109.5	836.8
533	1417	1037	1	109.5	836.8
533	1417	1038	1	109.5	836.8
534	1416	535	1	109.5	836.8
534	1416	536	1	109.5	836.8
534	1416	537	1	109.5	836.8
535	1416	536	1	109.5	836.8
535	1416	537	1	109.5	836.8
535	1489	677	1	109.5	836.8
535	1489	682	1	109.5	836.8
536	1416	537	1	109.5	836.8
536	1501	559	1	109.5	836.8
536	1501	701	1	109.5	836.8
536	1501	706	1	109.5	836.8
537	1166	538	1	109.5	836.8
538	1417	1037	1	109.5	836.8
538	1417	1038	1	109.5	836.8
539	1418	564	1	109.5	836.8
539	1420	544	1	109.5	836.8
539	1420	1039	1	109.5	836.8
539	1420	1040	1	109.5	836.8
540	1419	541	1	109.5	836.8
540	1419	542	1	109.5	836.8
540	1419	543	1	109.5	836.8
541	1419	542	1	109.5	836.8
541	1419	543	1	109.5	836.8
541	1492	683	1	109.5	836.8
541	1492	688	1	109.5	836.8
542	1419	543	1	109.5	836.8
542	1504	565	1	109.5	836.8
542	1504	707	1	109.5	836.8
542	1504	712	1	109.5	836.8
543	1157	544	1	109.5	836.8
544	1420	1039	1	109.5	836.8
544	1420	1040	1	109.5	836.8
545	1421	570	1	109.5	836.8
545	1423	550	1	109.5	836.8
545	1423	1041	1	109.5	836.8
545	1423	1042	1	109.5	836.8
546	1422	547	1	109.5	836.8
546	1422	548	1	109.5	836.8
546	1422	549	1	109.5	836.8
547	1422	548	1	109.5	836.8
547	1422	549	1	109.5	836.8
547	1495	689	1	109.5	836.8
547	1495	694	1	109.5	836.8
548	1422	549	1	109.5	836.8
548	1507	571	1	109.5	836.8
548	1507	713	1	109.5	836.8
548	1507	718	1	109.5	836.8
549	1172	550	1	109.5	836.8
550	1423	1041	1	109.5	836.8
550	1423	1042	1	109.5	836.8
551	1424	576	1	109.5	836.8
551	1426	556	1	109.5	836.8
551	1426	1043	1	109.5	836.8
551	1426	1044	1	109.5	836.8
552	1425	553	1	109.5	836.8
552	1425	554	1	109.5	836.8
552	1425	555	1	109.5	836.8
553	1425	554	1	109.5	836.8
553	1425	555	1	109.5	836.8
553	1498	695	1	109.5	836.8
553	1498	700	1	109.5	836.8
554	1425	555	1	109.5	836.8
554	1510	577	1	109.5	836.8
554	1510	719	1	109.5	836.8
554	1510	724	1	109.5	836.8
555	1175	556	1	109.5	836.8
556	1426	1043	1	109.5	836.8
556	1426	1044	1	109.5	836.8
557	1427	582	1	109.5	836.8
557	1429	562	1	109.5	836.8
557	1429	1045	1	109.5	836.8
557	1429	1046	1	109.5	836.8
558	1428	559	1	109.5	836.8
558	1428	560	1	109.5	836.8
558	1428	561	1	109.5	836.8
559	1428	560	1	109.5	836.8
559	1428	561	1	109.5	836.8
559	1501	701	1	109.5	836.8
559	1501	706	1	109.5	836.8
560	1428	561	1	109.5	836.8
560	1513	583	1	109.5	836.8
560	1513	725	1	109.5	836.8
560	1513	730	1	109.5	836.8
561	1178	562	1	109.5	836.8
562	1429	1045	1	109.5	836.8
562	1429	1046	1	109.5	836.8
563	1430	588	1	109.5	836.8
563	1432	568	1	109.5	836.8
563	1432	1047	1	109.5	836.8
563	1432	1048	1	109.5	836.8
564	1431	565	1	109.5	836.8
564	1431	566	1	109.5	836.8
564	1431	567	1	109.5	836.8
565	1431	566	1	109.5	836.8
565	1431	567	1	109.5	836.8
565	1504	707	1	109.5	836.8
565	1504	712	1	109.5	836.8
566	1431	567	1	109.5	836.8
566	1516	589	1	109.5	836.8
566	1516	731	1	109.5	836.8
566	1516	736	1	109.5	836.8
567	1169	568	1	109.5	836.8
568	1432	1047	1	109.5	836.8
568	1432	1048	1	109.5	836.8
569	1433	594	1	109.5	836.8
569	1435	574	1	109.5	836.8
569	1435	1049	1	109.5	836.8
569	1435	1050	1	109.5	836.8
570	1434	571	1	109.5	836.8
570	1434	572	1	109.5	836.8
570	1434	573	1	109.5	836.8
571	1434	572	1	109.5	836.8
571	1434	573	1	109.5	836.8
571	1507	713	1	109.5	836.8
571	1507	718	1	109.5	836.8
572	1434	573	1	109.5	836.8
572	1519	595	1	109.5	836.8
572	1519	737	1	109.5	836.8
572	1519	742	1	109.5	836.8
573	1184	574	1	109.5	836.8
574	1435	1049	1	109.5	836.8
574	1435	1050	1	109.5	836.8
575	1436	600	1	109.5	836.8
575	1438	580	1	109.5	836.8
575	1438	1051	1	109.5	836.8
575	1438	1052	1	109.5	836.8
576	1437	577	1	109.5	836.8
576	1437	578	1	109.5	836.8
576	1437	579	1	109.5	836.8
577	1437	578	1	109.5	836.8
577	1437	579	1	109.5	836.8
577	1510	719	1	109.5	836.8
577	1510	724	1	109.5	836.8
578	1437	579	1	109.5	836.8
578	1522	601	1	109.5	836.8
578	1522	743	1	109.5	836.8
578	1522	748	1	109.5	836.8
579	1187	580	1	109.5	836.8
580	1438	1051	1	109.5	836.8
580	1438	1052	1	109.5	836.8
581	1439	606	1	109.5	836.8
581	1441	586	1	109.5	836.8
581	1441	1053	1	109.5	836.8
581	1441	1054	1	109.5	836.8
582	1440	583	1	109.5	836.8
582	1440	584	1	109.5	836.8
582	1440	585	1	109.5	836.8
583	1440	584	1	109.5	836.8
583	1440	585	1	109.5	836.8
583	1513	725	1	109.5	836.8
583	1513	730	1	109.5	836.8
584	1440	585	1	109.5	836.8
584	1525	607	1	109.5	836.8
584	1525	749	1	109.5	836.8
584	1525	754	1	109.5	836.8
585	1190	586	1	109.5	836.8
586	1441	1053	1	109.5	836.8
586	1441	1054	1	109.5	836.8
587	1442	612	1	109.5	836.8
587	1444	592	1	109.5	836.8
587	1444	1055	1	109.5	836.8
587	1444	1056	1	109.5	836.8
588	1443	589	1	109.5	836.8
588	1443	590	1	109.5	836.8
588	1443	591	1	109.5	836.8
589	1443	590	1	109.5	836.8
589	1443	591	1	109.5	836.8
589	1516	731	1	109.5	836.8
589	1516	736	1	109.5	836.8
590	1443	591	1	109.5	836.8
590	1528	613	1	109.5	836.8
590	1528	755	1	109.5	836.8
590	1528	760	1	109.5	836.8
591	1181	592	1	109.5	836.8
592	1444	1055	1	109.5	836.8
592	1444	1056	1	109.5	836.8
593	1447	598	1	109.5	836.8
593	1447	1057	1	109.5	836.8
593	1447	1061	1	109.5	836.8
594	1446	595	1	109.5	836.8
594	1446	596	1	109.5	836.8
594	1446	597	1	109.5	836.8
595	1446	596	1	109.5	836.8
595	1446	597	1	109.5	836.8
595	1519	737	1	109.5	836.8
595	1519	742	1	109.5	836.8
596	1446	597	1	109.5	836.8
596	1531	761	1	109.5	836.8
596	1531	766	1	109.5	836.8
597	1196	598	1	109.5	836.8
598	1447	1057	1	109.5	836.8
598	1447	1061	1	109.5	836.8
599	1450	604	1	109.5	836.8
599	1450	1058	1	109.5	836.8
599	1450	1062	1	109.5	836.8
600	1449	601	1	109.5	836.8
600	1449	602	1	109.5	836.8
600	1449	603	1	109.5	836.8
601	1449	602	1	109.5	836.8
601	1449	603	1	109.5	836.8
601	1522	743	1	109.5	836.8
601	1522	748	1	109.5	836.8
602	1449	603	1	109.5	836.8
602	1534	767	1	109.5	836.8
602	1534	772	1	109.5	836.8
603	1199	604	1	109.5	836.8
604	1450	1058	1	109.5	836.8
604	1450	1062	1	109.5	836.8
605	1453	610	1	109.5	836.8
605	1453	1059	1	109.5	836.8
605	1453	1063	1	109.5	836.8
606	1452	607	1	109.5	836.8
606	1452	608	1	109.5	836.8
606	1452	609	1	109.5	836.8
607	1452	608	1	109.5	836.8
607	1452	609	1	109.5	836.8
607	1525	749	1	109.5	836.8
607	1525	754	1	109.5	836.8
608	1452	609	1	109.5	836.8
608	1537	773	1	109.5	836.8
608	1537	778	1	109.5	836.8
609	1202	610	1	109.5	836.8
610	1453	1059	1	109.5	836.8
610	1453	1063	1	109.5	836.8
611	1456	616	1	109.5	836.8
611	1456	1060	1	109.5	836.8
611	1456	1064	1	109.5	836.8
612	1455	613	1	109.5	836.8
612	1455	614	1	109.5	836.8
612	1455	615	1	109.5	836.8
613	1455	614	1	109.5	836.8
613	1455	615	1	109.5	836.8
613	1528	755	1	109.5	836.8
613	1528	760	1	109.5	836.8
614	1455	615	1	109.5	836.8
614	1540	779	1	109.5	836.8
614	1540	784	1	109.5	836.8
615	1193	616	1	109.5	836.8
616	1456	1060	1	109.5	836.8
616	1456	1064	1	109.5	836.8
617	1457	642	1	109.5	836.8
617	1459	622	1	109.5	836.8
618	1458	619	1	109.5	836.8
618	1458	620	1	109.5	836.8
618	1458	621	1	109.5	836.8
618	1529	761	1	109.5	836.8
619	1458	620	1	109.5	836.8
619	1458	621	1	109.5	836.8
619	1615	764	1	109.5	836.8
619	1615	881	1	109.5	836.8
619	1615	884	1	109.5	836.8
620	1458	621	1	109.5	836.8
620	1543	643	1	109.5	836.8
620	1543	785	1	109.5	836.8
620	1543	788	1	109.5	836.8
621	1208	622	1	109.5	836.8
623	1460	648	1	109.5	836.8
623	1462	628	1	109.5	836.8
624	1461	625	1	109.5	836.8
624	1461	626	1	109.5	836.8
624	1461	627	1	109.5	836.8
624	1532	767	1	109.5	836.8
625	1461	626	1	109.5	836.8
625	1461	627	1	109.5	836.8
625	1618	770	1	109.5	836.8
625	1618	885	1	109.5	836.8
625	1618	888	1	109.5	836.8
626	1461	627	1	109.5	836.8
626	1546	649	1	109.5	836.8
626	1546	789	1	109.5	836.8
626	1546	792	1	109.5	836.8
627	1211	628	1	109.5	836.8
629	1463	654	1	109.5	836.8
629	1465	634	1	109.5	836.8
630	1464	631	1	109.5	836.8
630	1464	632	1	109.5	836.8
630	1464	633	1	109.5	836.8
630	1535	773	1	109.5	836.8
631	1464	632	1	109.5	836.8
631	1464	633	1	109.5	836.8
631	1621	776	1	109.5	836.8
631	1621	889	1	109.5	836.8
631	1621	892	1	109.5	836.8
632	1464	633	1	109.5	836.8
632	1549	655	1	109.5	836.8
632	1549	793	1	109.5	836.8
632	1549	796	1	109.5	836.8
633	1214	634	1	109.5	836.8
635	1466	660	1	109.5	836.8
635	1468	640	1	109.5	836.8
636	1467	637	1	109.5	836.8
636	1467	638	1	109.5	836.8
636	1467	639	1	109.5	836.8
636	1538	779	1	109.5	836.8
637	1467	638	1	109.5	836.8
637	1467	639	1	109.5	836.8
637	1624	782	1	109.5	836.8
637	1624	893	1	109.5	836.8
637	1624	896	1	109.5	836.8
638	1467	639	1	109.5	836.8
638	1552	661	1	109.5	836.8
638	1552	797	1	109.5	836.8
638	1552	800	1	109.5	836.8
639	1205	640	1	109.5	836.8
641	1469	666	1	109.5	836.8
641	1471	646	1	109.5	836.8
642	1470	643	1	109.5	836.8
642	1470	644	1	109.5	836.8
642	1470	645	1	109.5	836.8
643	1470	644	1	109.5	836.8
643	1470	645	1	109.5	836.8
643	1543	785	1	109.5	836.8
643	1543	788	1	109.5	836.8
644	1470	645	1	109.5	836.8
644	1555	667	1	109.5	836.8
644	1555	801	1	109.5	836.8
644	1555	804	1	109.5	836.8
645	1220	646	1	109.5	836.8
647	1472	672	1	109.5	836.8
647	1474	652	1	109.5	836.8
648	1473	649	1	109.5	836.8
648	1473	650	1	109.5	836.8
648	1473	651	1	109.5	836.8
649	1473	650	1	109.5	836.8
649	1473	651	1	109.5	836.8
649	1546	789	1	109.5	836.8
649	1546	792	1	109.5	836.8
650	1473	651	1	109.5	836.8
650	1558	673	1	109.5	836.8
650	1558	805	1	109.5	836.8
650	1558	808	1	109.5	836.8
651	1223	652	1	109.5	836.8
653	1475	678	1	109.5	836.8
653	1477	658	1	109.5	836.8
654	1476	655	1	109.5	836.8
654	1476	656	1	109.5	836.8
654	1476	657	1	109.5	836.8
655	1476	656	1	109.5	836.8
655	1476	657	1	109.5	836.8
655	1549	793	1	109.5	836.8
655	1549	796	1	109.5	836.8
656	1476	657	1	109.5	836.8
656	1561	679	1	109.5	836.8
656	1561	809	1	109.5	836.8
656	1561	812	1	109.5	836.8
657	1226	658	1	109.5	836.8
659	1478	684	1	109.5	836.8
659	1480	664	1	109.5	836.8
660	1479	661	1	109.5	836.8
660	1479	662	1	109.5	836.8
660	1479	663	1	109.5	836.8
661	1479	662	1	109.5	836.8
661	1479	663	1	109.5	836.8
661	1552	797	1	109.5	836.8
661	1552	800	1	109.5	836.8
662	1479	663	1	109.5	836.8
662	1564	685	1	109.5	836.8
662	1564	813	1	109.5	836.8
662	1564	816	1	109.5	836.8
663	1217	664	1	109.5	836.8
665	1481	690	1	109.5	836.8
665	1483	670	1	109.5	836.8
666	1482	667	1	109.5	836.8
666	1482	668	1	109.5	836.8
666	1482	669	1	109.5	836.8
667	1482	668	1	109.5	836.8
667	1482	669	1	109.5	836.8
667	1555	801	1	109.5	836.8
667	1555	804	1	109.5	836.8
668	1482	669	1	109.5	836.8
668	1567	691	1	109.5	836.8
668	1567	817	1	109.5	836.8
668	1567	820	1	109.5	836.8
669	1232	670	1	109.5	836.8
671	1484	696	1	109.5	836.8
671	1486	676	1	109.5	836.8
672	1485	673	1	109.5	836.8
672	1485	674	1	109.5	836.8
672	1485	675	1	109.5	836.8
673	1485	674	1	109.5	836.8
673	1485	675	1	109.5	836.8
673	1558	805	1	109.5	836.8
673	1558	808	1	109.5	836.8
674	1485	675	1	109.5	836.8
674	1570	697	1	109.5	836.8
674	1570	821	1	109.5	836.8
674	1570	824	1	109.5	836.8
675	1235	676	1	109.5	836.8
677	1487	702	1	109.5	836.8
677	1489	682	1	109.5	836.8
678	1488	679	1	109.5	836.8
678	1488	680	1	109.5	836.8
678	1488	681	1	109.5	836.8
679	1488	680	1	109.5	836.8
679	1488	681	1	109.5	836.8
679	1561	809	1	109.5	836.8
679	1561	812	1	109.5	836.8
680	1488	681	1	109.5	836.8
680	1573	703	1	109.5	836.8
680	1573	825	1	109.5	836.8
680	1573	828	1	109.5	836.8
681	1238	682	1	109.5	836.8
683	1490	708	1	109.5	836.8
683	1492	688	1	109.5	836.8
684	1491	685	1	109.5	836.8
684	1491	686	1	109.5	836.8
684	1491	687	1	109.5	836.8
685	1491	686	1	109.5	836.8
685	1491	687	1	109.5	836.8
685	1564	813	1	109.5	836.8
685	1564	816	1	109.5	836.8
686	1491	687	1	109.5	836.8
686	1576	709	1	109.5	836.8
686	1576	829	1	109.5	836.8
686	1576	832	1	109.5	836.8
687	1229	688	1	109.5	836.8
689	1493	714	1	109.5	836.8
689	1495	694	1	109.5	836.8
690	1494	691	1	109.5	836.8
690	1494	692	1	109.5	836.8
690	1494	693	1	109.5	836.8
691	1494	692	1	109.5	836.8
691	1494	693	1	109.5	836.8
691	1567	817	1	109.5	836.8
691	1567	820	1	109.5	836.8
692	1494	693	1	109.5	836.8
692	1579	715	1	109.5	836.8
692	1579	833	1	109.5	836.8
692	1579	836	1	109.5	836.8
693	1244	694	1	109.5	836.8
695	1496	720	1	109.5	836.8
695	1498	700	1	109.5	836.8
696	1497	697	1	109.5	836.8
696	1497	698	1	109.5	836.8
696	1497	699	1	109.5	836.8
697	1497	698	1	109.5	836.8
697	1497	699	1	109.5	836.8
697	1570	821	1	109.5	836.8
697	1570	824	1	109.5	836.8
698	1497	699	1	109.5	836.8
698	1582	721	1	109.5	836.8
698	1582	837	1	109.5	836.8
698	1582	840	1	109.5	836.8
699	1247	700	1	109.5	836.8
701	1499	726	1	109.5	836.8
701	1501	706	1	109.5	836.8
702	1500	703	1	109.5	836.8
702	1500	704	1	109.5	836.8
702	1500	705	1	109.5	836.8
703	1500	704	1	109.5	836.8
703	1500	705	1	109.5	836.8
703	1573	825	1	109.5	836.8
703	1573	828	1	109.5	836.8
704	1500	705	1	109.5	836.8
704	1585	727	1	109.5	836.8
704	1585	841	1	109.5	836.8
704	1585	844	1	109.5	836.8
705	1250	706	1	109.5	836.8
707	1502	732	1	109.5	836.8
707	1504	712	1	109.5	836.8
708	1503	709	1	109.5	836.8
708	1503	710	1	109.5	836.8
708	1503	711	1	109.5	836.8
709	1503	710	1	109.5	836.8
709	1503	711	1	109.5	836.8
709	1576	829	1	109.5	836.8
709	1576	832	1	109.5	836.8
710	1503	711	1	109.5	836.8
710	1588	733	1	109.5	836.8
710	1588	845	1	109.5	836.8
710	1588	848	1	109.5	836.8
711	1241	712	1	109.5	836.8
713	1505	738	1	109.5	836.8
713	1507	718	1	109.5	836.8
714	1506	715	1	109.5	836.8
714	1506	716	1	109.5	836.8
714	1506	717	1	109.5	836.8
715	1506	716	1	109.5	836.8
715	1506	717	1	109.5	836.8
715	1579	833	1	109.5	836.8
715	1579	836	1	109.5	836.8
716	1506	717	1	109.5	836.8
716	1591	739	1	109.5	836.8
716	1591	849	1	109.5	836.8
716	1591	852	1	109.5	836.8
717	1256	718	1	109.5	836.8
719	1508	744	1	109.5	836.8
719	1510	724	1	109.5	836.8
720	1509	721	1	109.5	836.8
720	1509	722	1	109.5	836.8
720	1509	723	1	109.5	836.8
721	1509	722	1	109.5	836.8
721	1509	723	1	109.5	836.8
721	1582	837	1	109.5	836.8
721	1582	840	1	109.5	836.8
722	1509	723	1	109.5	836.8
722	1594	745	1	109.5	836.8
722	1594	853	1	109.5	836.8
722	1594	856	1	109.5	836.8
723	1259	724	1	109.5	836.8
725	1511	750	1	109.5	836.8
725	1513	730	1	109.5	836.8
726	1512	727	1	109.5	836.8
726	1512	728	1	109.5	836.8
726	1512	729	1	109.5	836.8
727	1512	728	1	109.5	836.8
727	1512	729	1	109.5	836.8
727	1585	841	1	109.5	836.8
727	1585	844	1	109.5	836.8
728	1512	729	1	109.5	836.8
728	1597	751	1	109.5	836.8
728	1597	857	1	109.5	836.8
728	1597	860	1	109.5	836.8
729	1262	730	1	109.5	836.8
731	1514	756	1	109.5	836.8
731	1516	736	1	109.5	836.8
732	1515	733	1	109.5	836.8
732	1515	734	1	109.5	836.8
732	1515	735	1	109.5	836.8
733	1515	734	1	109.5	836.8
733	1515	735	1	109.5	836.8
733	1588	845	1	109.5	836.8
733	1588	848	1	109.5	836.8
734	1515	735	1	109.5	836.8
734	1600	757	1	109.5	836.8
734	1600	861	1	109.5	836.8
734	1600	864	1	109.5	836.8
735	1253	736	1	109.5	836.8
737	1517	762	1	109.5	836.8
737	1519	742	1	109.5	836.8
738	1518	739	1	109.5	836.8
738	1518	740	1	109.5	836.8
738	1518	741	1	109.5	836.8
739	1518	740	1	109.5	836.8
739	1518	741	1	109.5	836.8
739	1591	849	1	109.5	836.8
739	1591	852	1	109.5	836.8
740	1518	741	1	109.5	836.8
740	1603	763	1	109.5	836.8
740	1603	865	1	109.5	836.8
740	1603	868	1	109.5	836.8
741	1268	742	1	109.5	836.8
743	1520	768	1	109.5	836.8
743	1522	748	1	109.5	836.8
744	1521	745	1	109.5	836.8
744	1521	746	1	109.5	836.8
744	1521	747	1	109.5	836.8
745	1521	746	1	109.5	836.8
745	1521	747	1	109.5	836.8
745	1594	853	1	109.5	836.8
745	1594	856	1	109.5	836.8
746	1521	747	1	109.5	836.8
746	1606	769	1	109.5	836.8
746	1606	869	1	109.5	836.8
746	1606	872	1	109.5	836.8
747	1271	748	1	109.5	836.8
749	1523	774	1	109.5	836.8
749	1525	754	1	109.5	836.8
750	1524	751	1	109.5	836.8
750	1524	752	1	109.5	836.8
750	1524	753	1	109.5	836.8
751	1524	752	1	109.5	836.8
751	1524	753	1	109.5	836.8
751	1597	857	1	109.5	836.8
751	1597	860	1	109.5	836.8
752	1524	753	1	109.5	836.8
752	1609	775	1	109.5	836.8
752	1609	873	1	109.5	836.8
752	1609	876	1	109.5	836.8
753	1274	754	1	109.5	836.8
755	1526	780	1	109.5	836.8
755	1528	760	1	109.5	836.8
756	1527	757	1	109.5	836.8
756	1527	758	1	109.5	836.8
756	1527	759	1	109.5	836.8
757	1527	758	1	109.5	836.8
757	1527	759	1	109.5	836.8
757	1600	861	1	109.5	836.8
757	1600	864	1	109.5	836.8
758	1527	759	1	109.5	836.8
758	1612	781	1	109.5	836.8
758	1612	877	1	109.5	836.8
758	1612	880	1	109.5	836.8
759	1265	760	1	109.5	836.8
761	1531	766	1	109.5	836.8
762	1530	763	1	109.5	836.8
762	1530	764	1	109.5	836.8
762	1530	765	1	109.5	836.8
763	1530	764	1	109.5	836.8
763	1530	765	1	109.5	836.8
763	1603	865	1	109.5	836.8
763	1603	868	1	109.5	836.8
764	1530	765	1	109.5	836.8
764	1615	881	1	109.5	836.8
764	1615	884	1	109.5	836.8
765	1280	766	1	109.5	836.8
767	1534	772	1	109.5	836.8
768	1533	769	1	109.5	836.8
768	1533	770	1	109.5	836.8
768	1533	771	1	109.5	836.8
769	1533	770	1	109.5	836.8
769	1533	771	1	109.5	836.8
769	1606	869	1	109.5	836.8
769	1606	872	1	109.5	836.8
770	1533	771	1	109.5	836.8
770	1618	885	1	109.5	836.8
770	1618	888	1	109.5	836.8
771	1283	772	1	109.5	836.8
773	1537	778	1	109.5	836.8
774	1536	775	1	109.5	836.8
774	1536	776	1	109.5	836.8
774	1536	777	1	109.5	836.8
775	1536	776	1	109.5	836.8
775	1536	777	1	109.5	836.8
775	1609	873	1	109.5	836.8
775	1609	876	1	109.5	836.8
776	1536	777	1	109.5	836.8
776	1621	889	1	109.5	836.8
776	1621	892	1	109.5	836.8
777	1286	778	1	109.5	836.8
779	1540	784	1	109.5	836.8
780	1539	781	1	109.5	836.8
780	1539	782	1	109.5	836.8
780	1539	783	1	109.5	836.8
781	1539	782	1	109.5	836.8
781	1539	783	1	109.5	836.8
781	1612	877	1	109.5	836.8
781	1612	880	1	109.5	836.8
782	1539	783	1	109.5	836.8
782	1624	893	1	109.5	836.8
782	1624	896	1	109.5	836.8
783	1277	784	1	109.5	836.8
785	1541	802	1	109.5	836.8
785	1543	788	1	109.5	836.8
786	1542	787	1	109.5	836.8
786	1542	1065	1	109.5	836.8
786	1542	1066	1	109.5	836.8
786	1613	881	1	109.5	836.8
787	1292	788	1	109.5	836.8
787	1542	1065	1	109.5	836.8
787	1542	1066	1	109.5	836.8
789	1544	806	1	109.5	836.8
789	1546	792	1	109.5	836.8
790	1545	791	1	109.5	836.8
790	1545	1067	1	109.5	836.8
790	1545	1068	1	109.5	836.8
790	1616	885	1	109.5	836.8
791	1295	792	1	109.5	836.8
791	1545	1067	1	109.5	836.8
791	1545	1068	1	109.5	836.8
793	1547	810	1	109.5	836.8
793	1549	796	1	109.5	836.8
794	1548	795	1	109.5	836.8
794	1548	1069	1	109.5	836.8
794	1548	1070	1	109.5	836.8
794	1619	889	1	109.5	836.8
795	1298	796	1	109.5	836.8
795	1548	1069	1	109.5	836.8
795	1548	1070	1	109.5	836.8
797	1550	814	1	109.5	836.8
797	1552	800	1	109.5	836.8
798	1551	799	1	109.5	836.8
798	1551	1071	1	109.5	836.8
798	1551	1072	1	109.5	836.8
798	1622	893	1	109.5	836.8
799	1289	800	1	109.5	836.8
799	1551	1071	1	109.5	836.8
799	1551	1072	1	109.5	836.8
801	1553	818	1	109.5	836.8
801	1555	804	1	109.5	836.8
802	1554	803	1	109.5	836.8
802	1554	1073	1	109.5	836.8
802	1554	1074	1	109.5	836.8
803	1304	804	1	109.5	836.8
803	1554	1073	1	109.5	836.8
803	1554	1074	1	109.5	836.8
805	1556	822	1	109.5	836.8
805	1558	808	1	109.5	836.8
806	1557	807	1	109.5	836.8
806	1557	1075	1	109.5	836.8
806	1557	1076	1	109.5	836.8
807	1307	808	1	109.5	836.8
807	1557	1075	1	109.5	836.8
807	1557	1076	1	109.5	836.8
809	1559	826	1	109.5	836.8
809	1561	812	1	109.5	836.8
810	1560	811	1	109.5	836.8
810	1560	1077	1	109.5	836.8
810	1560	1078	1	109.5	836.8
811	1310	812	1	109.5	836.8
811	1560	1077	1	109.5	836.8
811	1560	1078	1	109.5	836.8
813	1562	830	1	109.5	836.8
813	1564	816	1	109.5	836.8
814	1563	815	1	109.5	836.8
814	1563	1079	1	109.5	836.8
814	1563	1080	1	109.5	836.8
815	1301	816	1	109.5	836.8
815	1563	1079	1	109.5	836.8
815	1563	1080	1	109.5	836.8
817	1565	834	1	109.5	836.8
817	1567	820	1	109.5	836.8
818	1566	819	1	109.5	836.8
818	1566	1081	1	109.5	836.8
818	1566	1082	1	109.5	836.8
819	1316	820	1	109.5	836.8
819	1566	1081	1	109.5	836.8
819	1566	1082	1	109.5	836.8
821	1568	838	1	109.5	836.8
821	1570	824	1	109.5	836.8
822	1569	823	1	109.5	836.8
822	1569	1083	1	109.5	836.8
822	1569	1084	1	109.5	836.8
823	1319	824	1	109.5	836.8
823	1569	1083	1	109.5	836.8
823	1569	1084	1	109.5	836.8
825	1571	842	1	109.5	836.8
825	1573	828	1	109.5	836.8
826	1572	827	1	109.5	836.8
826	1572	1085	1	109.5	836.8
826	1572	1086	1	109.5	836.8
827	1322	828	1	109.5	836.8
827	1572	1085	1	109.5	836.8
827	1572	1086	1	109.5	836.8
829	1574	846	1	109.5	836.8
829	1576	832	1	109.5	836.8
830	1575	831	1	109.5	836.8
830	1575	1087	1	109.5	836.8
830	1575	1088	1	109.5	836.8
831	1313	832	1	109.5	836.8
831	1575	1087	1	109.5	836.8
831	1575	1088	1	109.5	836.8
833	1577	850	1	109.5	836.8
833	1579	836	1	109.5	836.8
834	1578	835	1	109.5	836.8
834	1578	1089	1	109.5	836.8
834	1578	1090	1	109.5	836.8
835	1328	836	1	109.5	836.8
835	1578	1089	1	109.5	836.8
835	1578	1090	1	109.5	836.8
837	1580	854	1	109.5	836.8
837	1582	840	1	109.5	836.8
838	1581	839	1	109.5	836.8
838	1581	1091	1	109.5	836.8
838	1581	1092	1	109.5	836.8
839	1331	840	1	109.5	836.8
839	1581	1091	1	109.5	836.8
839	1581	1092	1	109.5	836.8
841	1583	858	1	109.5	836.8
841	1585	844	1	109.5	836.8
842	1584	843	1	109.5	836.8
842	1584	1093	1	109.5	836.8
842	1584	1094	1	109.5	836.8
843	1334	844	1	109.5	836.8
843	1584	1093	1	109.5	836.8
843	1584	1094	1	109.5	836.8
845	1586	862	1	109.5	836.8
845	1588	848	1	109.5	836.8
846	1587	847	1	109.5	836.8
846	1587	1095	1	109.5	836.8
846	1587	1096	1	109.5	836.8
847	1325	848	1	109.5	836.8
847	1587	1095	1	109.5	836.8
847	1587	1096	1	109.5	836.8
849	1589	866	1	109.5	836.8
849	1591	852	1	109.5	836.8
850	1590	851	1	109.5	836.8
850	1590	1097	1	109.5	836.8
850	1590	1098	1	109.5	836.8
851	1340	852	1	109.5	836.8
851	1590	1097	1	109.5	836.8
851	1590	1098	1	109.5	836.8
853	1592	870	1	109.5	836.8
853	1594	856	1	109.5	836.8
854	1593	855	1	109.5	836.8
854	1593	1099	1	109.5	836.8
854	1593	1100	1	109.5	836.8
855	1343	856	1	109.5	836.8
855	1593	1099	1	109.5	836.8
855	1593	1100	1	109.5	836.8
857	1595	874	1	109.5	836.8
857	1597	860	1	109.5	836.8
858	1596	859	1	109.5	836.8
858	1596	1101	1	109.5	836.8
858	1596	1102	1	109.5	836.8
859	1346	860	1	109.5	836.8
859	1596	1101	1	109.5	836.8
859	1596	1102	1	109.5	836.8
861	1598	878	1	109.5	836.8
861	1600	864	1	109.5	836.8
862	1599	863	1	109.5	836.8
862	1599	1103	1	109.5	836.8
862	1599	1104	1	109.5	836.8
863	1337	864	1	109.5	836.8
863	1599	1103	1	109.5	836.8
863	1599	1104	1	109.5	836.8
865	1601	882	1	109.5	836.8
865	1603	868	1	109.5	836.8
866	1602	867	1	109.5	836.8
866	1602	1105	1	109.5	836.8
866	1602	1106	1	109.5	836.8
867	1352	868	1	109.5	836.8
867	1602	1105	1	109.5	836.8
867	1602	1106	1	109.5	836.8
869	1604	886	1	109.5	836.8
869	1606	872	1	109.5	836.8
870	1605	871	1	109.5	836.8
870	1605	1107	1	109.5	836.8
870	1605	1108	1	109.5	836.8
871	1355	872	1	109.5	836.8
871	1605	1107	1	109.5	836.8
871	1605	1108	1	109.5	836.8
873	1607	890	1	109.5	836.8
873	1609	876	1	109.5	836.8
874	1608	875	1	109.5	836.8
874	1608	1109	1	109.5	836.8
874	1608	1110	1	109.5	836.8
875	1358	876	1	109.5	836.8
875	1608	1109	1	109.5	836.8
875	1608	1110	1	109.5	836.8
877	1610	894	1	109.5	836.8
877	1612	880	1	109.5	836.8
878	1611	879	1	109.5	836.8
878	1611	1111	1	109.5	836.8
878	1611	1112	1	109.5	836.8
879	1349	880	1	109.5	836.8
879	1611	1111	1	109.5	836.8
879	1611	1112	1	109.5	836.8
881	1615	884	1	109.5	836.8
882	1614	883	1	109.5	836.8
882	1614	1113	1	109.5	836.8
882	1614	1114	1	109.5	836.8
883	1364	884	1	109.5	836.8
883	1614	1113	1	109.5	836.8
883	1614	1114	1	109.5	836.8
885	1618	888	1	109.5	836.8
886	1617	887	1	109.5	836.8
886	1617	1115	1	109.5	836.8
886	1617	1116	1	109.5	836.8
887	1367	888	1	109.5	836.8
887	1617	1115	1	109.5	836.8
887	1617	1116	1	109.5	836.8
889	1621	892	1	109.5	836.8
890	1620	891	1	109.5	836.8
890	1620	1117	1	109.5	836.8
890	1620	1118	1	109.5	836.8
891	1370	892	1	109.5	836.8
891	1620	1117	1	109.5	836.8
891	1620	1118	1	109.5	836.8
893	1624	896	1	109.5	836.8
894	1623	895	1	109.5	836.8
894	1623	1119	1	109.5	836.8
894	1623	1120	1	109.5	836.8
895	1361	896	1	109.5	836.8
895	1623	1119	1	109.5	836.8
895	1623	1120	1	109.5	836.8
897	1123	898	1	109.5	836.8
899	1126	900	1	109.5	836.8
901	1129	902	1	109.5	836.8
903	1132	904	1	109.5	836.8
905	1135	906	1	109.5	836.8
907	1138	908	1	109.5	836.8
909	1141	910	1	109.5	836.8
911	1144	912	1	109.5	836.8
913	1147	914	1	109.5	836.8
915	1150	916	1	109.5	836.8
917	1153	918	1	109.5	836.8
919	1156	920	1	109.5	836.8
921	1159	922	1	109.5	836.8
923	1162	924	1	109.5	836.8
925	1165	926	1	109.5	836.8
927	1168	928	1	109.5	836.8
929	1171	930	1	109.5	836.8
931	1174	932	1	109.5	836.8
933	1177	934	1	109.5	836.8
935	1180	936	1	109.5	836.8
937	1183	938	1	109.5	836.8
939	1186	940	1	109.5	836.8
941	1189	942	1	109.5	836.8
943	1192	944	1	109.5	836.8
945	1195	946	1	109.5	836.8
947	1198	948	1	109.5	836.8
949	1201	950	1	109.5	836.8
951	1204	952	1	109.5	836.8
953	1290	954	1	109.5	836.8
955	1293	956	1	109.5	836.8
957	1296	958	1	109.5	836.8
959	1299	960	1	109.5	836.8
961	1302	962	1	109.5	836.8
963	1305	964	1	109.5	836.8
965	1308	966	1	109.5	836.8
967	1311	968	1	109.5	836.8
969	1314	970	1	109.5	836.8
971	1317	972	1	109.5	836.8
973	1320	974	1	109.5	836.8
975	1323	976	1	109.5	836.8
977	1326	978	1	109.5	836.8
979	1329	980	1	109.5	836.8
981	1332	982	1	109.5	836.8
983	1335	984	1	109.5	836.8
985	1338	986	1	109.5	836.8
987	1341	988	1	109.5	836.8
989	1344	990	1	109.5	836.8
991	1347	992	1	109.5	836.8
993	1350	994	1	109.5	836.8
995	1353	996	1	109.5	836.8
997	1356	998	1	109.5	836.8
999	1359	1000	1	109.5	836.8
1001	1362	1005	1	109.5	836.8
1002	1365	1006	1	109.5	836.8
1003	1368	1007	1	109.5	836.8
1004	1371	1008	1	109.5	836.8
1009	1375	1010	1	109.5	836.8
1011	1378	1012	1	109.5	836.8
1013	1381	1014	1	109.5	836.8
1015	1384	1016	1	109.5	836.8
1017	1387	1018	1	109.5	836.8
1019	1390	1020	1	109.5	836.8
1021	1393	1022	1	109.5	836.8
1023	1396	1024	1	109.5	836.8
1025	1399	1026	1	109.5	836.8
1027	1402	1028	1	109.5	836.8
1029	1405	1030	1	109.5	836.8
1031	1408	1032	1	109.5	836.8
1033	1411	1034	1	109.5	836.8
1035	1414	1036	1	109.5	836.8
1037	1417	1038	1	109.5	836.8
1039	1420	1040	1	109.5	836.8
1041	1423	1042	1	109.5	836.8
1043	1426	1044	1	109.5	836.8
1045	1429	1046	1	109.5	836.8
1047	1432	1048	1	109.5	836.8
1049	1435	1050	1	109.5	836.8
1051	1438	1052	1	109.5	836.8
1053	1441	1054	1	109.5	836.8
1055	1444	1056	1	109.5	836.8
1057	1447	1061	1	109.5	836.8
1058	1450	1062	1	109.5	836.8
1059	1453	1063	1	109.5	836.8
1060	1456	1064	1	109.5	836.8
1065	1542	1066	1	109.5	836.8
1067	1545	1068	1	109.5	836.8
1069	1548	1070	1	109.5	836.8
1071	1551	1072	1	109.5	836.8
1073	1554	1074	1	109.5	836.8
1075	1557	1076	1	109.5	836.8
1077	1560	1078	1	109.5	836.8
1079	1563	1080	1	109.5	836.8
1081	1566	1082	1	109.5	836.8
1083	1569	1084	1	109.5	836.8
1085	1572	1086	1	109.5	836.8
1087	1575	1088	1	109.5	836.8
1089	1578	1090	1	109.5	836.8
1091	1581	1092	1	109.5	836.8
1093	1584	1094	1	109.5	836.8
1095	1587	1096	1	109.5	836.8
1097	1590	1098	1	109.5	836.8
1099	1593	1100	1	109.5	836.8
1101	1596	1102	1	109.5	836.8
1103	1599	1104	1	109.5	836.8
1105	1602	1106	1	109.5	836.8
1107	1605	1108	1	109.5	836.8
1109	1608	1110	1	109.5	836.8
1111	1611	1112	1	109.5	836.8
1113	1614	1114	1	109.5	836.8
1115	1617	1116	1	109.5	836.8
1117	1620	1118	1	109.5	836.8
1119	1623	1120	1	109.5	836.8
1121	1	1123	1	149.0	836.8
1121	2	1122	1	149.0	836.8
1121	471	1383	1	149.0	836.8
1121	472	1384	1	149.0	836.8
1122	3	1207	1	149.0	836.8
1122	5	1373	1	149.0	836.8
1122	28	1219	1	149.0	836.8
1123	6	1445	1	149.0	836.8
1123	897	1625	1	111.0	461.16
1123	897	1626	1	111.0	461.16
1123	897	1627	1	111.0	461.16
1123	898	1628	1	111.0	461.16
1123	898	1629	1	111.0	461.16
1123	898	1630	1	111.0	461.16
1124	7	1126	1	149.0	836.8
1124	8	1125	1	149.0	836.8
1124	453	1374	1	149.0	836.8
1124	454	1375	1	149.0	836.8
1125	9	1210	1	149.0	836.8
1125	11	1376	1	149.0	836.8
1125	34	1222	1	149.0	836.8
1126	12	1448	1	149.0	836.8
1126	899	1631	1	111.0	461.16
1126	899	1632	1	111.0	461.16
1126	899	1633	1	111.0	461.16
1126	900	1634	1	111.0	461.16
1126	900	1635	1	111.0	461.16
1126	900	1636	1	111.0	461.16
1127	13	1129	1	149.0	836.8
1127	14	1128	1	149.0	836.8
1127	459	1377	1	149.0	836.8
1127	460	1378	1	149.0	836.8
1128	15	1213	1	149.0	836.8
1128	17	1379	1	149.0	836.8
1128	40	1225	1	149.0	836.8
1129	18	1451	1	149.0	836.8
1129	901	1637	1	111.0	461.16
1129	901	1638	1	111.0	461.16
1129	901	1639	1	111.0	461.16
1129	902	1640	1	111.0	461.16
1129	902	1641	1	111.0	461.16
1129	902	1642	1	111.0	461.16
1130	19	1132	1	149.0	836.8
1130	20	1131	1	149.0	836.8
1130	465	1380	1	149.0	836.8
1130	466	1381	1	149.0	836.8
1131	21	1216	1	149.0	836.8
1131	23	1382	1	149.0	836.8
1131	46	1228	1	149.0	836.8
1132	24	1454	1	149.0	836.8
1132	903	1643	1	111.0	461.16
1132	903	1644	1	111.0	461.16
1132	903	1645	1	111.0	461.16
1132	904	1646	1	111.0	461.16
1132	904	1647	1	111.0	461.16
1132	904	1648	1	111.0	461.16
1133	25	1135	1	149.0	836.8
1133	26	1134	1	149.0	836.8
1133	495	1395	1	149.0	836.8
1133	496	1396	1	149.0	836.8
1134	27	1219	1	149.0	836.8
1134	29	1385	1	149.0	836.8
1134	52	1231	1	149.0	836.8
1135	30	1373	1	149.0	836.8
1135	905	1649	1	111.0	461.16
1135	905	1650	1	111.0	461.16
1135	905	1651	1	111.0	461.16
1135	906	1652	1	111.0	461.16
1135	906	1653	1	111.0	461.16
1135	906	1654	1	111.0	461.16
1136	31	1138	1	149.0	836.8
1136	32	1137	1	149.0	836.8
1136	477	1386	1	149.0	836.8
1136	478	1387	1	149.0	836.8
1137	33	1222	1	149.0	836.8
1137	35	1388	1	149.0	836.8
1137	58	1234	1	149.0	836.8
1138	36	1376	1	149.0	836.8
1138	907	1655	1	111.0	461.16
1138	907	1656	1	111.0	461.16
1138	907	1657	1	111.0	461.16
1138	908	1658	1	111.0	461.16
1138	908	1659	1	111.0	461.16
1138	908	1660	1	111.0	461.16
1139	37	1141	1	149.0	836.8
1139	38	1140	1	149.0	836.8
1139	483	1389	1	149.0	836.8
1139	484	1390	1	149.0	836.8
1140	39	1225	1	149.0	836.8
1140	41	1391	1	149.0	836.8
1140	64	1237	1	149.0	836.8
1141	42	1379	1	149.0	836.8
1141	909	1661	1	111.0	461.16
1141	909	1662	1	111.0	461.16
1141	909	1663	1	111.0	461.16
1141	910	1664	1	111.0	461.16
1141	910	1665	1	111.0	461.16
1141	910	1666	1	111.0	461.16
1142	43	1144	1	149.0	836.8
1142	44	1143	1	149.0	836.8
1142	489	1392	1	149.0	836.8
1142	490	1393	1	149.0	836.8
1143	45	1228	1	149.0	836.8
1143	47	1394	1	149.0	836.8
1143	70	1240	1	149.0	836.8
1144	48	1382	1	149.0	836.8
1144	911	1667	1	111.0	461.16
1144	911	1668	1	111.0	461.16
1144	911	1669	1	111.0	461.16
1144	912	1670	1	111.0	461.16
1144	912	1671	1	111.0	461.16
1144	912	1672	1	111.0	461.16
1145	49	1147	1	149.0	836.8
1145	50	1146	1	149.0	836.8
1145	519	1407	1	149.0	836.8
1145	520	1408	1	149.0	836.8
1146	51	1231	1	149.0	836.8
1146	53	1397	1	149.0	836.8
1146	76	1243	1	149.0	836.8
1147	54	1385	1	149.0	836.8
1147	913	1673	1	111.0	461.16
1147	913	1674	1	111.0	461.16
1147	913	1675	1	111.0	461.16
1147	914	1676	1	111.0	461.16
1147	914	1677	1	111.0	461.16
1147	914	1678	1	111.0	461.16
1148	55	1150	1	149.0	836.8
1148	56	1149	1	149.0	836.8
1148	501	1398	1	149.0	836.8
1148	502	1399	1	149.0	836.8
1149	57	1234	1	149.0	836.8
1149	59	1400	1	149.0	836.8
1149	82	1246	1	149.0	836.8
1150	60	1388	1	149.0	836.8
1150	915	1679	1	111.0	461.16
1150	915	1680	1	111.0	461.16
1150	915	1681	1	111.0	461.16
1150	916	1682	1	111.0	461.16
1150	916	1683	1	111.0	461.16
1150	916	1684	1	111.0	461.16
1151	61	1153	1	149.0	836.8
1151	62	1152	1	149.0	836.8
1151	507	1401	1	149.0	836.8
1151	508	1402	1	149.0	836.8
1152	63	1237	1	149.0	836.8
1152	65	1403	1	149.0	836.8
1152	88	1249	1	149.0	836.8
1153	66	1391	1	149.0	836.8
1153	917	1685	1	111.0	461.16
1153	917	1686	1	111.0	461.16
1153	917	1687	1	111.0	461.16
1153	918	1688	1	111.0	461.16
1153	918	1689	1	111.0	461.16
1153	918	1690	1	111.0	461.16
1154	67	1156	1	149.0	836.8
1154	68	1155	1	149.0	836.8
1154	513	1404	1	149.0	836.8
1154	514	1405	1	149.0	836.8
1155	69	1240	1	149.0	836.8
1155	71	1406	1	149.0	836.8
1155	94	1252	1	149.0	836.8
1156	72	1394	1	149.0	836.8
1156	919	1691	1	111.0	461.16
1156	919	1692	1	111.0	461.16
1156	919	1693	1	111.0	461.16
1156	920	1694	1	111.0	461.16
1156	920	1695	1	111.0	461.16
1156	920	1696	1	111.0	461.16
1157	73	1159	1	149.0	836.8
1157	74	1158	1	149.0	836.8
1157	543	1419	1	149.0	836.8
1157	544	1420	1	149.0	836.8
1158	75	1243	1	149.0	836.8
1158	77	1409	1	149.0	836.8
1158	100	1255	1	149.0	836.8
1159	78	1397	1	149.0	836.8
1159	921	1697	1	111.0	461.16
1159	921	1698	1	111.0	461.16
1159	921	1699	1	111.0	461.16
1159	922	1700	1	111.0	461.16
1159	922	1701	1	111.0	461.16
1159	922	1702	1	111.0	461.16
1160	79	1162	1	149.0	836.8
1160	80	1161	1	149.0	836.8
1160	525	1410	1	149.0	836.8
1160	526	1411	1	149.0	836.8
1161	81	1246	1	149.0	836.8
1161	83	1412	1	149.0	836.8
1161	106	1258	1	149.0	836.8
1162	84	1400	1	149.0	836.8
1162	923	1703	1	111.0	461.16
1162	923	1704	1	111.0	461.16
1162	923	1705	1	111.0	461.16
1162	924	1706	1	111.0	461.16
1162	924	1707	1	111.0	461.16
1162	924	1708	1	111.0	461.16
1163	85	1165	1	149.0	836.8
1163	86	1164	1	149.0	836.8
1163	531	1413	1	149.0	836.8
1163	532	1414	1	149.0	836.8
1164	87	1249	1	149.0	836.8
1164	89	1415	1	149.0	836.8
1164	112	1261	1	149.0	836.8
1165	90	1403	1	149.0	836.8
1165	925	1709	1	111.0	461.16
1165	925	1710	1	111.0	461.16
1165	925	1711	1	111.0	461.16
1165	926	1712	1	111.0	461.16
1165	926	1713	1	111.0	461.16
1165	926	1714	1	111.0	461.16
1166	91	1168	1	149.0	836.8
1166	92	1167	1	149.0	836.8
1166	537	1416	1	149.0	836.8
1166	538	1417	1	149.0	836.8
1167	93	1252	1	149.0	836.8
1167	95	1418	1	149.0	836.8
1167	118	1264	1	149.0	836.8
1168	96	1406	1	149.0	836.8
1168	927	1715	1	111.0	461.16
1168	927	1716	1	111.0	461.16
1168	927	1717	1	111.0	461.16
1168	928	1718	1	111.0	461.16
1168	928	1719	1	111.0	461.16
1168	928	1720	1	111.0	461.16
1169	97	1171	1	149.0	836.8
1169	98	1170	1	149.0	836.8
1169	567	1431	1	149.0	836.8
1169	568	1432	1	149.0	836.8
1170	99	1255	1	149.0	836.8
1170	101	1421	1	149.0	836.8
1170	124	1267	1	149.0	836.8
1171	102	1409	1	149.0	836.8
1171	929	1721	1	111.0	461.16
1171	929	1722	1	111.0	461.16
1171	929	1723	1	111.0	461.16
1171	930	1724	1	111.0	461.16
1171	930	1725	1	111.0	461.16
1171	930	1726	1	111.0	461.16
1172	103	1174	1	149.0	836.8
1172	104	1173	1	149.0	836.8
1172	549	1422	1	149.0	836.8
1172	550	1423	1	149.0	836.8
1173	105	1258	1	149.0	836.8
1173	107	1424	1	149.0	836.8
1173	130	1270	1	149.0	836.8
1174	108	1412	1	149.0	836.8
1174	931	1727	1	111.0	461.16
1174	931	1728	1	111.0	461.16
1174	931	1729	1	111.0	461.16
1174	932	1730	1	111.0	461.16
1174	932	1731	1	111.0	461.16
1174	932	1732	1	111.0	461.16
1175	109	1177	1	149.0	836.8
1175	110	1176	1	149.0	836.8
1175	555	1425	1	149.0	836.8
1175	556	1426	1	149.0	836.8
1176	111	1261	1	149.0	836.8
1176	113	1427	1	149.0	836.8
1176	136	1273	1	149.0	836.8
1177	114	1415	1	149.0	836.8
1177	933	1733	1	111.0	461.16
1177	933	1734	1	111.0	461.16
1177	933	1735	1	111.0	461.16
1177	934	1736	1	111.0	461.16
1177	934	1737	1	111.0	461.16
1177	934	1738	1	111.0	461.16
1178	115	1180	1	149.0	836.8
1178	116	1179	1	149.0	836.8
1178	561	1428	1	149.0	836.8
1178	562	1429	1	149.0	836.8
1179	117	1264	1	149.0	836.8
1179	119	1430	1	149.0	836.8
1179	142	1276	1	149.0	836.8
1180	120	1418	1	149.0	836.8
1180	935	1739	1	111.0	461.16
1180	935	1740	1	111.0	461.16
1180	935	1741	1	111.0	461.16
1180	936	1742	1	111.0	461.16
1180	936	1743	1	111.0	461.16
1180	936	1744	1	111.0	461.16
1181	121	1183	1	149.0	836.8
1181	122	1182	1	149.0	836.8
1181	591	1443	1	149.0	836.8
1181	592	1444	1	149.0	836.8
1182	123	1267	1	149.0	836.8
1182	125	1433	1	149.0	836.8
1182	148	1279	1	149.0	836.8
1183	126	1421	1	149.0	836.8
1183	937	1745	1	111.0	461.16
1183	937	1746	1	111.0	461.16
1183	937	1747	1	111.0	461.16
1183	938	1748	1	111.0	461.16
1183	938	1749	1	111.0	461.16
1183	938	1750	1	111.0	461.16
1184	127	1186	1	149.0	836.8
1184	128	1185	1	149.0	836.8
1184	573	1434	1	149.0	836.8
1184	574	1435	1	149.0	836.8
1185	129	1270	1	149.0	836.8
1185	131	1436	1	149.0	836.8
1185	154	1282	1	149.0	836.8
1186	132	1424	1	149.0	836.8
1186	939	1751	1	111.0	461.16
1186	939	1752	1	111.0	461.16
1186	939	1753	1	111.0	461.16
1186	940	1754	1	111.0	461.16
1186	940	1755	1	111.0	461.16
1186	940	1756	1	111.0	461.16
1187	133	1189	1	149.0	836.8
1187	134	1188	1	149.0	836.8
1187	579	1437	1	149.0	836.8
1187	580	1438	1	149.0	836.8
1188	135	1273	1	149.0	836.8
1188	137	1439	1	149.0	836.8
1188	160	1285	1	149.0	836.8
1189	138	1427	1	149.0	836.8
1189	941	1757	1	111.0	461.16
1189	941	1758	1	111.0	461.16
1189	941	1759	1	111.0	461.16
1189	942	1760	1	111.0	461.16
1189	942	1761	1	111.0	461.16
1189	942	1762	1	111.0	461.16
1190	139	1192	1	149.0	836.8
1190	140	1191	1	149.0	836.8
1190	585	1440	1	149.0	836.8
1190	586	1441	1	149.0	836.8
1191	141	1276	1	149.0	836.8
1191	143	1442	1	149.0	836.8
1191	166	1288	1	149.0	836.8
1192	144	1430	1	149.0	836.8
1192	943	1763	1	111.0	461.16
1192	943	1764	1	111.0	461.16
1192	943	1765	1	111.0	461.16
1192	944	1766	1	111.0	461.16
1192	944	1767	1	111.0	461.16
1192	944	1768	1	111.0	461.16
1193	145	1195	1	149.0	836.8
1193	146	1194	1	149.0	836.8
1193	615	1455	1	149.0	836.8
1193	616	1456	1	149.0	836.8
1194	4	1207	1	149.0	836.8
1194	147	1279	1	149.0	836.8
1194	149	1445	1	149.0	836.8
1195	150	1433	1	149.0	836.8
1195	945	1769	1	111.0	461.16
1195	945	1770	1	111.0	461.16
1195	945	1771	1	111.0	461.16
1195	946	1772	1	111.0	461.16
1195	946	1773	1	111.0	461.16
1195	946	1774	1	111.0	461.16
1196	151	1198	1	149.0	836.8
1196	152	1197	1	149.0	836.8
1196	597	1446	1	149.0	836.8
1196	598	1447	1	149.0	836.8
1197	10	1210	1	149.0	836.8
1197	153	1282	1	149.0	836.8
1197	155	1448	1	149.0	836.8
1198	156	1436	1	149.0	836.8
1198	947	1775	1	111.0	461.16
1198	947	1776	1	111.0	461.16
1198	947	1777	1	111.0	461.16
1198	948	1778	1	111.0	461.16
1198	948	1779	1	111.0	461.16
1198	948	1780	1	111.0	461.16
1199	157	1201	1	149.0	836.8
1199	158	1200	1	149.0	836.8
1199	603	1449	1	149.0	836.8
1199	604	1450	1	149.0	836.8
1200	16	1213	1	149.0	836.8
1200	159	1285	1	149.0	836.8
1200	161	1451	1	149.0	836.8
1201	162	1439	1	149.0	836.8
1201	949	1781	1	111.0	461.16
1201	949	1782	1	111.0	461.16
1201	949	1783	1	111.0	461.16
1201	950	1784	1	111.0	461.16
1201	950	1785	1	111.0	461.16
1201	950	1786	1	111.0	461.16
1202	163	1204	1	149.0	836.8
1202	164	1203	1	149.0	836.8
1202	609	1452	1	149.0	836.8
1202	610	1453	1	149.0	836.8
1203	22	1216	1	149.0	836.8
1203	165	1288	1	149.0	836.8
1203	167	1454	1	149.0	836.8
1204	168	1442	1	149.0	836.8
1204	951	1787	1	111.0	461.16
1204	951	1788	1	111.0	461.16
1204	951	1789	1	111.0	461.16
1204	952	1790	1	111.0	461.16
1204	952	1791	1	111.0	461.16
1204	952	1792	1	111.0	461.16
1205	169	1207	1	149.0	836.8
1205	170	1206	1	149.0	836.8
1205	639	1467	1	149.0	836.8
1205	640	1468	1	149.0	836.8
1206	171	1291	1	149.0	836.8
1206	173	1457	1	149.0	836.8
1206	196	1303	1	149.0	836.8
1207	174	1529	1	149.0	836.8
1208	175	1210	1	149.0	836.8
1208	176	1209	1	149.0	836.8
1208	621	1458	1	149.0	836.8
1208	622	1459	1	149.0	836.8
1209	177	1294	1	149.0	836.8
1209	179	1460	1	149.0	836.8
1209	202	1306	1	149.0	836.8
1210	180	1532	1	149.0	836.8
1211	181	1213	1	149.0	836.8
1211	182	1212	1	149.0	836.8
1211	627	1461	1	149.0	836.8
1211	628	1462	1	149.0	836.8
1212	183	1297	1	149.0	836.8
1212	185	1463	1	149.0	836.8
1212	208	1309	1	149.0	836.8
1213	186	1535	1	149.0	836.8
1214	187	1216	1	149.0	836.8
1214	188	1215	1	149.0	836.8
1214	633	1464	1	149.0	836.8
1214	634	1465	1	149.0	836.8
1215	189	1300	1	149.0	836.8
1215	191	1466	1	149.0	836.8
1215	214	1312	1	149.0	836.8
1216	192	1538	1	149.0	836.8
1217	193	1219	1	149.0	836.8
1217	194	1218	1	149.0	836.8
1217	663	1479	1	149.0	836.8
1217	664	1480	1	149.0	836.8
1218	195	1303	1	149.0	836.8
1218	197	1469	1	149.0	836.8
1218	220	1315	1	149.0	836.8
1219	198	1457	1	149.0	836.8
1220	199	1222	1	149.0	836.8
1220	200	1221	1	149.0	836.8
1220	645	1470	1	149.0	836.8
1220	646	1471	1	149.0	836.8
1221	201	1306	1	149.0	836.8
1221	203	1472	1	149.0	836.8
1221	226	1318	1	149.0	836.8
1222	204	1460	1	149.0	836.8
1223	205	1225	1	149.0	836.8
1223	206	1224	1	149.0	836.8
1223	651	1473	1	149.0	836.8
1223	652	1474	1	149.0	836.8
1224	207	1309	1	149.0	836.8
1224	209	1475	1	149.0	836.8
1224	232	1321	1	149.0	836.8
1225	210	1463	1	149.0	836.8
1226	211	1228	1	149.0	836.8
1226	212	1227	1	149.0	836.8
1226	657	1476	1	149.0	836.8
1226	658	1477	1	149.0	836.8
1227	213	1312	1	149.0	836.8
1227	215	1478	1	149.0	836.8
1227	238	1324	1	149.0	836.8
1228	216	1466	1	149.0	836.8
1229	217	1231	1	149.0	836.8
1229	218	1230	1	149.0	836.8
1229	687	1491	1	149.0	836.8
1229	688	1492	1	149.0	836.8
1230	219	1315	1	149.0	836.8
1230	221	1481	1	149.0	836.8
1230	244	1327	1	149.0	836.8
1231	222	1469	1	149.0	836.8
1232	223	1234	1	149.0	836.8
1232	224	1233	1	149.0	836.8
1232	669	1482	1	149.0	836.8
1232	670	1483	1	149.0	836.8
1233	225	1318	1	149.0	836.8
1233	227	1484	1	149.0	836.8
1233	250	1330	1	149.0	836.8
1234	228	1472	1	149.0	836.8
1235	229	1237	1	149.0	836.8
1235	230	1236	1	149.0	836.8
1235	675	1485	1	149.0	836.8
1235	676	1486	1	149.0	836.8
1236	231	1321	1	149.0	836.8
1236	233	1487	1	149.0	836.8
1236	256	1333	1	149.0	836.8
1237	234	1475	1	149.0	836.8
1238	235	1240	1	149.0	836.8
1238	236	1239	1	149.0	836.8
1238	681	1488	1	149.0	836.8
1238	682	1489	1	149.0	836.8
1239	237	1324	1	149.0	836.8
1239	239	1490	1	149.0	836.8
1239	262	1336	1	149.0	836.8
1240	240	1478	1	149.0	836.8
1241	241	1243	1	149.0	836.8
1241	242	1242	1	149.0	836.8
1241	711	1503	1	149.0	836.8
1241	712	1504	1	149.0	836.8
1242	243	1327	1	149.0	836.8
1242	245	1493	1	149.0	836.8
1242	268	1339	1	149.0	836.8
1243	246	1481	1	149.0	836.8
1244	247	1246	1	149.0	836.8
1244	248	1245	1	149.0	836.8
1244	693	1494	1	149.0	836.8
1244	694	1495	1	149.0	836.8
1245	249	1330	1	149.0	836.8
1245	251	1496	1	149.0	836.8
1245	274	1342	1	149.0	836.8
1246	252	1484	1	149.0	836.8
1247	253	1249	1	149.0	836.8
1247	254	1248	1	149.0	836.8
1247	699	1497	1	149.0	836.8
1247	700	1498	1	149.0	836.8
1248	255	1333	1	149.0	836.8
1248	257	1499	1	149.0	836.8
1248	280	1345	1	149.0	836.8
1249	258	1487	1	149.0	836.8
1250	259	1252	1	149.0	836.8
1250	260	1251	1	149.0	836.8
1250	705	1500	1	149.0	836.8
1250	706	1501	1	149.0	836.8
1251	261	1336	1	149.0	836.8
1251	263	1502	1	149.0	836.8
1251	286	1348	1	149.0	836.8
1252	264	1490	1	149.0	836.8
1253	265	1255	1	149.0	836.8
1253	266	1254	1	149.0	836.8
1253	735	1515	1	149.0	836.8
1253	736	1516	1	149.0	836.8
1254	267	1339	1	149.0	836.8
1254	269	1505	1	149.0	836.8
1254	292	1351	1	149.0	836.8
1255	270	1493	1	149.0	836.8
1256	271	1258	1	149.0	836.8
1256	272	1257	1	149.0	836.8
1256	717	1506	1	149.0	836.8
1256	718	1507	1	149.0	836.8
1257	273	1342	1	149.0	836.8
1257	275	1508	1	149.0	836.8
1257	298	1354	1	149.0	836.8
1258	276	1496	1	149.0	836.8
1259	277	1261	1	149.0	836.8
1259	278	1260	1	149.0	836.8
1259	723	1509	1	149.0	836.8
1259	724	1510	1	149.0	836.8
1260	279	1345	1	149.0	836.8
1260	281	1511	1	149.0	836.8
1260	304	1357	1	149.0	836.8
1261	282	1499	1	149.0	836.8
1262	283	1264	1	149.0	836.8
1262	284	1263	1	149.0	836.8
1262	729	1512	1	149.0	836.8
1262	730	1513	1	149.0	836.8
1263	285	1348	1	149.0	836.8
1263	287	1514	1	149.0	836.8
1263	310	1360	1	149.0	836.8
1264	288	1502	1	149.0	836.8
1265	289	1267	1	149.0	836.8
1265	290	1266	1	149.0	836.8
1265	759	1527	1	149.0	836.8
1265	760	1528	1	149.0	836.8
1266	291	1351	1	149.0	836.8
1266	293	1517	1	149.0	836.8
1266	316	1363	1	149.0	836.8
1267	294	1505	1	149.0	836.8
1268	295	1270	1	149.0	836.8
1268	296	1269	1	149.0	836.8
1268	741	1518	1	149.0	836.8
1268	742	1519	1	149.0	836.8
1269	297	1354	1	149.0	836.8
1269	299	1520	1	149.0	836.8
1269	322	1366	1	149.0	836.8
1270	300	1508	1	149.0	836.8
1271	301	1273	1	149.0	836.8
1271	302	1272	1	149.0	836.8
1271	747	1521	1	149.0	836.8
1271	748	1522	1	149.0	836.8
1272	303	1357	1	149.0	836.8
1272	305	1523	1	149.0	836.8
1272	328	1369	1	149.0	836.8
1273	306	1511	1	149.0	836.8
1274	307	1276	1	149.0	836.8
1274	308	1275	1	149.0	836.8
1274	753	1524	1	149.0	836.8
1274	754	1525	1	149.0	836.8
1275	309	1360	1	149.0	836.8
1275	311	1526	1	149.0	836.8
1275	334	1372	1	149.0	836.8
1276	312	1514	1	149.0	836.8
1277	313	1279	1	149.0	836.8
1277	314	1278	1	149.0	836.8
1277	783	1539	1	149.0	836.8
1277	784	1540	1	149.0	836.8
1278	172	1291	1	149.0	836.8
1278	315	1363	1	149.0	836.8
1278	317	1529	1	149.0	836.8
1279	318	1517	1	149.0	836.8
1280	319	1282	1	149.0	836.8
1280	320	1281	1	149.0	836.8
1280	765	1530	1	149.0	836.8
1280	766	1531	1	149.0	836.8
1281	178	1294	1	149.0	836.8
1281	321	1366	1	149.0	836.8
1281	323	1532	1	149.0	836.8
1282	324	1520	1	149.0	836.8
1283	325	1285	1	149.0	836.8
1283	326	1284	1	149.0	836.8
1283	771	1533	1	149.0	836.8
1283	772	1534	1	149.0	836.8
1284	184	1297	1	149.0	836.8
1284	327	1369	1	149.0	836.8
1284	329	1535	1	149.0	836.8
1285	330	1523	1	149.0	836.8
1286	331	1288	1	149.0	836.8
1286	332	1287	1	149.0	836.8
1286	777	1536	1	149.0	836.8
1286	778	1537	1	149.0	836.8
1287	190	1300	1	149.0	836.8
1287	333	1372	1	149.0	836.8
1287	335	1538	1	149.0	836.8
1288	336	1526	1	149.0	836.8
1289	337	1291	1	149.0	836.8
1289	338	1290	1	149.0	836.8
1289	799	1551	1	149.0	836.8
1289	800	1552	1	149.0	836.8
1290	339	1541	1	149.0	836.8
1290	953	1793	1	111.0	461.16
1290	953	1794	1	111.0	461.16
1290	953	1795	1	111.0	461.16
1290	954	1796	1	111.0	461.16
1290	954	1797	1	111.0	461.16
1290	954	1798	1	111.0	461.16
1291	340	1613	1	149.0	836.8
1292	341	1294	1	149.0	836.8
1292	342	1293	1	149.0	836.8
1292	787	1542	1	149.0	836.8
1292	788	1543	1	149.0	836.8
1293	343	1544	1	149.0	836.8
1293	955	1799	1	111.0	461.16
1293	955	1800	1	111.0	461.16
1293	955	1801	1	111.0	461.16
1293	956	1802	1	111.0	461.16
1293	956	1803	1	111.0	461.16
1293	956	1804	1	111.0	461.16
1294	344	1616	1	149.0	836.8
1295	345	1297	1	149.0	836.8
1295	346	1296	1	149.0	836.8
1295	791	1545	1	149.0	836.8
1295	792	1546	1	149.0	836.8
1296	347	1547	1	149.0	836.8
1296	957	1805	1	111.0	461.16
1296	957	1806	1	111.0	461.16
1296	957	1807	1	111.0	461.16
1296	958	1808	1	111.0	461.16
1296	958	1809	1	111.0	461.16
1296	958	1810	1	111.0	461.16
1297	348	1619	1	149.0	836.8
1298	349	1300	1	149.0	836.8
1298	350	1299	1	149.0	836.8
1298	795	1548	1	149.0	836.8
1298	796	1549	1	149.0	836.8
1299	351	1550	1	149.0	836.8
1299	959	1811	1	111.0	461.16
1299	959	1812	1	111.0	461.16
1299	959	1813	1	111.0	461.16
1299	960	1814	1	111.0	461.16
1299	960	1815	1	111.0	461.16
1299	960	1816	1	111.0	461.16
1300	352	1622	1	149.0	836.8
1301	353	1303	1	149.0	836.8
1301	354	1302	1	149.0	836.8
1301	815	1563	1	149.0	836.8
1301	816	1564	1	149.0	836.8
1302	355	1553	1	149.0	836.8
1302	961	1817	1	111.0	461.16
1302	961	1818	1	111.0	461.16
1302	961	1819	1	111.0	461.16
1302	962	1820	1	111.0	461.16
1302	962	1821	1	111.0	461.16
1302	962	1822	1	111.0	461.16
1303	356	1541	1	149.0	836.8
1304	357	1306	1	149.0	836.8
1304	358	1305	1	149.0	836.8
1304	803	1554	1	149.0	836.8
1304	804	1555	1	149.0	836.8
1305	359	1556	1	149.0	836.8
1305	963	1823	1	111.0	461.16
1305	963	1824	1	111.0	461.16
1305	963	1825	1	111.0	461.16
1305	964	1826	1	111.0	461.16
1305	964	1827	1	111.0	461.16
1305	964	1828	1	111.0	461.16
1306	360	1544	1	149.0	836.8
1307	361	1309	1	149.0	836.8
1307	362	1308	1	149.0	836.8
1307	807	1557	1	149.0	836.8
1307	808	1558	1	149.0	836.8
1308	363	1559	1	149.0	836.8
1308	965	1829	1	111.0	461.16
1308	965	1830	1	111.0	461.16
1308	965	1831	1	111.0	461.16
1308	966	1832	1	111.0	461.16
1308	966	1833	1	111.0	461.16
1308	966	1834	1	111.0	461.16
1309	364	1547	1	149.0	836.8
1310	365	1312	1	149.0	836.8
1310	366	1311	1	149.0	836.8
1310	811	1560	1	149.0	836.8
1310	812	1561	1	149.0	836.8
1311	367	1562	1	149.0	836.8
1311	967	1835	1	111.0	461.16
1311	967	1836	1	111.0	461.16
1311	967	1837	1	111.0	461.16
1311	968	1838	1	111.0	461.16
1311	968	1839	1	111.0	461.16
1311	968	1840	1	111.0	461.16
1312	368	1550	1	149.0	836.8
1313	369	1315	1	149.0	836.8
1313	370	1314	1	149.0	836.8
1313	831	1575	1	149.0	836.8
1313	832	1576	1	149.0	836.8
1314	371	1565	1	149.0	836.8
1314	969	1841	1	111.0	461.16
1314	969	1842	1	111.0	461.16
1314	969	1843	1	111.0	461.16
1314	970	1844	1	111.0	461.16
1314	970	1845	1	111.0	461.16
1314	970	1846	1	111.0	461.16
1315	372	1553	1	149.0	836.8
1316	373	1318	1	149.0	836.8
1316	374	1317	1	149.0	836.8
1316	819	1566	1	149.0	836.8
1316	820	1567	1	149.0	836.8
1317	375	1568	1	149.0	836.8
1317	971	1847	1	111.0	461.16
1317	971	1848	1	111.0	461.16
1317	971	1849	1	111.0	461.16
1317	972	1850	1	111.0	461.16
1317	972	1851	1	111.0	461.16
1317	972	1852	1	111.0	461.16
1318	376	1556	1	149.0	836.8
1319	377	1321	1	149.0	836.8
1319	378	1320	1	149.0	836.8
1319	823	1569	1	149.0	836.8
1319	824	1570	1	149.0	836.8
1320	379	1571	1	149.0	836.8
1320	973	1853	1	111.0	461.16
1320	973	1854	1	111.0	461.16
1320	973	1855	1	111.0	461.16
1320	974	1856	1	111.0	461.16
1320	974	1857	1	111.0	461.16
1320	974	1858	1	111.0	461.16
1321	380	1559	1	149.0	836.8
1322	381	1324	1	149.0	836.8
1322	382	1323	1	149.0	836.8
1322	827	1572	1	149.0	836.8
1322	828	1573	1	149.0	836.8
1323	383	1574	1	149.0	836.8
1323	975	1859	1	111.0	461.16
1323	975	1860	1	111.0	461.16
1323	975	1861	1	111.0	461.16
1323	976	1862	1	111.0	461.16
1323	976	1863	1	111.0	461.16
1323	976	1864	1	111.0	461.16
1324	384	1562	1	149.0	836.8
1325	385	1327	1	149.0	836.8
1325	386	1326	1	149.0	836.8
1325	847	1587	1	149.0	836.8
1325	848	1588	1	149.0	836.8
1326	387	1577	1	149.0	836.8
1326	977	1865	1	111.0	461.16
1326	977	1866	1	111.0	461.16
1326	977	1867	1	111.0	461.16
1326	978	1868	1	111.0	461.16
1326	978	1869	1	111.0	461.16
1326	978	1870	1	111.0	461.16
1327	388	1565	1	149.0	836.8
1328	389	1330	1	149.0	836.8
1328	390	1329	1	149.0	836.8
1328	835	1578	1	149.0	836.8
1328	836	1579	1	149.0	836.8
1329	391	1580	1	149.0	836.8
1329	979	1871	1	111.0	461.16
1329	979	1872	1	111.0	461.16
1329	979	1873	1	111.0	461.16
1329	980	1874	1	111.0	461.16
1329	980	1875	1	111.0	461.16
1329	980	1876	1	111.0	461.16
1330	392	1568	1	149.0	836.8
1331	393	1333	1	149.0	836.8
1331	394	1332	1	149.0	836.8
1331	839	1581	1	149.0	836.8
1331	840	1582	1	149.0	836.8
1332	395	1583	1	149.0	836.8
1332	981	1877	1	111.0	461.16
1332	981	1878	1	111.0	461.16
1332	981	1879	1	111.0	461.16
1332	982	1880	1	111.0	461.16
1332	982	1881	1	111.0	461.16
1332	982	1882	1	111.0	461.16
1333	396	1571	1	149.0	836.8
1334	397	1336	1	149.0	836.8
1334	398	1335	1	149.0	836.8
1334	843	1584	1	149.0	836.8
1334	844	1585	1	149.0	836.8
1335	399	1586	1	149.0	836.8
1335	983	1883	1	111.0	461.16
1335	983	1884	1	111.0	461.16
1335	983	1885	1	111.0	461.16
1335	984	1886	1	111.0	461.16
1335	984	1887	1	111.0	461.16
1335	984	1888	1	111.0	461.16
1336	400	1574	1	149.0	836.8
1337	401	1339	1	149.0	836.8
1337	402	1338	1	149.0	836.8
1337	863	1599	1	149.0	836.8
1337	864	1600	1	149.0	836.8
1338	403	1589	1	149.0	836.8
1338	985	1889	1	111.0	461.16
1338	985	1890	1	111.0	461.16
1338	985	1891	1	111.0	461.16
1338	986	1892	1	111.0	461.16
1338	986	1893	1	111.0	461.16
1338	986	1894	1	111.0	461.16
1339	404	1577	1	149.0	836.8
1340	405	1342	1	149.0	836.8
1340	406	1341	1	149.0	836.8
1340	851	1590	1	149.0	836.8
1340	852	1591	1	149.0	836.8
1341	407	1592	1	149.0	836.8
1341	987	1895	1	111.0	461.16
1341	987	1896	1	111.0	461.16
1341	987	1897	1	111.0	461.16
1341	988	1898	1	111.0	461.16
1341	988	1899	1	111.0	461.16
1341	988	1900	1	111.0	461.16
1342	408	1580	1	149.0	836.8
1343	409	1345	1	149.0	836.8
1343	410	1344	1	149.0	836.8
1343	855	1593	1	149.0	836.8
1343	856	1594	1	149.0	836.8
1344	411	1595	1	149.0	836.8
1344	989	1901	1	111.0	461.16
1344	989	1902	1	111.0	461.16
1344	989	1903	1	111.0	461.16
1344	990	1904	1	111.0	461.16
1344	990	1905	1	111.0	461.16
1344	990	1906	1	111.0	461.16
1345	412	1583	1	149.0	836.8
1346	413	1348	1	149.0	836.8
1346	414	1347	1	149.0	836.8
1346	859	1596	1	149.0	836.8
1346	860	1597	1	149.0	836.8
1347	415	1598	1	149.0	836.8
1347	991	1907	1	111.0	461.16
1347	991	1908	1	111.0	461.16
1347	991	1909	1	111.0	461.16
1347	992	1910	1	111.0	461.16
1347	992	1911	1	111.0	461.16
1347	992	1912	1	111.0	461.16
1348	416	1586	1	149.0	836.8
1349	417	1351	1	149.0	836.8
1349	418	1350	1	149.0	836.8
1349	879	1611	1	149.0	836.8
1349	880	1612	1	149.0	836.8
1350	419	1601	1	149.0	836.8
1350	993	1913	1	111.0	461.16
1350	993	1914	1	111.0	461.16
1350	993	1915	1	111.0	461.16
1350	994	1916	1	111.0	461.16
1350	994	1917	1	111.0	461.16
1350	994	1918	1	111.0	461.16
1351	420	1589	1	149.0	836.8
1352	421	1354	1	149.0	836.8
1352	422	1353	1	149.0	836.8
1352	867	1602	1	149.0	836.8
1352	868	1603	1	149.0	836.8
1353	423	1604	1	149.0	836.8
1353	995	1919	1	111.0	461.16
1353	995	1920	1	111.0	461.16
1353	995	1921	1	111.0	461.16
1353	996	1922	1	111.0	461.16
1353	996	1923	1	111.0	461.16
1353	996	1924	1	111.0	461.16
1354	424	1592	1	149.0	836.8
1355	425	1357	1	149.0	836.8
1355	426	1356	1	149.0	836.8
1355	871	1605	1	149.0	836.8
1355	872	1606	1	149.0	836.8
1356	427	1607	1	149.0	836.8
1356	997	1925	1	111.0	461.16
1356	997	1926	1	111.0	461.16
1356	997	1927	1	111.0	461.16
1356	998	1928	1	111.0	461.16
1356	998	1929	1	111.0	461.16
1356	998	1930	1	111.0	461.16
1357	428	1595	1	149.0	836.8
1358	429	1360	1	149.0	836.8
1358	430	1359	1	149.0	836.8
1358	875	1608	1	149.0	836.8
1358	876	1609	1	149.0	836.8
1359	431	1610	1	149.0	836.8
1359	999	1931	1	111.0	461.16
1359	999	1932	1	111.0	461.16
1359	999	1933	1	111.0	461.16
1359	1000	1934	1	111.0	461.16
1359	1000	1935	1	111.0	461.16
1359	1000	1936	1	111.0	461.16
1360	432	1598	1	149.0	836.8
1361	433	1363	1	149.0	836.8
1361	434	1362	1	149.0	836.8
1361	895	1623	1	149.0	836.8
1361	896	1624	1	149.0	836.8
1362	435	1613	1	149.0	836.8
1362	1001	1937	1	111.0	461.16
1362	1001	1938	1	111.0	461.16
1362	1001	1939	1	111.0	461.16
1362	1005	1949	1	111.0	461.16
1362	1005	1950	1	111.0	461.16
1362	1005	1951	1	111.0	461.16
1363	436	1601	1	149.0	836.8
1364	437	1366	1	149.0	836.8
1364	438	1365	1	149.0	836.8
1364	883	1614	1	149.0	836.8
1364	884	1615	1	149.0	836.8
1365	439	1616	1	149.0	836.8
1365	1002	1940	1	111.0	461.16
1365	1002	1941	1	111.0	461.16
1365	1002	1942	1	111.0	461.16
1365	1006	1952	1	111.0	461.16
1365	1006	1953	1	111.0	461.16
1365	1006	1954	1	111.0	461.16
1366	440	1604	1	149.0	836.8
1367	441	1369	1	149.0	836.8
1367	442	1368	1	149.0	836.8
1367	887	1617	1	149.0	836.8
1367	888	1618	1	149.0	836.8
1368	443	1619	1	149.0	836.8
1368	1003	1943	1	111.0	461.16
1368	1003	1944	1	111.0	461.16
1368	1003	1945	1	111.0	461.16
1368	1007	1955	1	111.0	461.16
1368	1007	1956	1	111.0	461.16
1368	1007	1957	1	111.0	461.16
1369	444	1607	1	149.0	836.8
1370	445	1372	1	149.0	836.8
1370	446	1371	1	149.0	836.8
1370	891	1620	1	149.0	836.8
1370	892	1621	1	149.0	836.8
1371	447	1622	1	149.0	836.8
1371	1004	1946	1	111.0	461.16
1371	1004	1947	1	111.0	461.16
1371	1004	1948	1	111.0	461.16
1371	1008	1958	1	111.0	461.16
1371	1008	1959	1	111.0	461.16
1371	1008	1960	1	111.0	461.16
1372	448	1610	1	149.0	836.8
1373	449	1375	1	149.0	836.8
1373	474	1386	1	149.0	836.8
1374	450	1445	1	149.0	836.8
1374	451	1531	1	149.0	836.8
1374	452	1459	1	149.0	836.8
1375	1009	1961	1	111.0	461.16
1375	1009	1962	1	111.0	461.16
1375	1009	1963	1	111.0	461.16
1375	1010	1964	1	111.0	461.16
1375	1010	1965	1	111.0	461.16
1375	1010	1966	1	111.0	461.16
1376	455	1378	1	149.0	836.8
1376	480	1389	1	149.0	836.8
1377	456	1448	1	149.0	836.8
1377	457	1534	1	149.0	836.8
1377	458	1462	1	149.0	836.8
1378	1011	1967	1	111.0	461.16
1378	1011	1968	1	111.0	461.16
1378	1011	1969	1	111.0	461.16
1378	1012	1970	1	111.0	461.16
1378	1012	1971	1	111.0	461.16
1378	1012	1972	1	111.0	461.16
1379	461	1381	1	149.0	836.8
1379	486	1392	1	149.0	836.8
1380	462	1451	1	149.0	836.8
1380	463	1537	1	149.0	836.8
1380	464	1465	1	149.0	836.8
1381	1013	1973	1	111.0	461.16
1381	1013	1974	1	111.0	461.16
1381	1013	1975	1	111.0	461.16
1381	1014	1976	1	111.0	461.16
1381	1014	1977	1	111.0	461.16
1381	1014	1978	1	111.0	461.16
1382	467	1384	1	149.0	836.8
1382	492	1395	1	149.0	836.8
1383	468	1454	1	149.0	836.8
1383	469	1540	1	149.0	836.8
1383	470	1468	1	149.0	836.8
1384	1015	1979	1	111.0	461.16
1384	1015	1980	1	111.0	461.16
1384	1015	1981	1	111.0	461.16
1384	1016	1982	1	111.0	461.16
1384	1016	1983	1	111.0	461.16
1384	1016	1984	1	111.0	461.16
1385	473	1387	1	149.0	836.8
1385	498	1398	1	149.0	836.8
1386	475	1459	1	149.0	836.8
1386	476	1471	1	149.0	836.8
1387	1017	1985	1	111.0	461.16
1387	1017	1986	1	111.0	461.16
1387	1017	1987	1	111.0	461.16
1387	1018	1988	1	111.0	461.16
1387	1018	1989	1	111.0	461.16
1387	1018	1990	1	111.0	461.16
1388	479	1390	1	149.0	836.8
1388	504	1401	1	149.0	836.8
1389	481	1462	1	149.0	836.8
1389	482	1474	1	149.0	836.8
1390	1019	1991	1	111.0	461.16
1390	1019	1992	1	111.0	461.16
1390	1019	1993	1	111.0	461.16
1390	1020	1994	1	111.0	461.16
1390	1020	1995	1	111.0	461.16
1390	1020	1996	1	111.0	461.16
1391	485	1393	1	149.0	836.8
1391	510	1404	1	149.0	836.8
1392	487	1465	1	149.0	836.8
1392	488	1477	1	149.0	836.8
1393	1021	1997	1	111.0	461.16
1393	1021	1998	1	111.0	461.16
1393	1021	1999	1	111.0	461.16
1393	1022	2000	1	111.0	461.16
1393	1022	2001	1	111.0	461.16
1393	1022	2002	1	111.0	461.16
1394	491	1396	1	149.0	836.8
1394	516	1407	1	149.0	836.8
1395	493	1468	1	149.0	836.8
1395	494	1480	1	149.0	836.8
1396	1023	2003	1	111.0	461.16
1396	1023	2004	1	111.0	461.16
1396	1023	2005	1	111.0	461.16
1396	1024	2006	1	111.0	461.16
1396	1024	2007	1	111.0	461.16
1396	1024	2008	1	111.0	461.16
1397	497	1399	1	149.0	836.8
1397	522	1410	1	149.0	836.8
1398	499	1471	1	149.0	836.8
1398	500	1483	1	149.0	836.8
1399	1025	2009	1	111.0	461.16
1399	1025	2010	1	111.0	461.16
1399	1025	2011	1	111.0	461.16
1399	1026	2012	1	111.0	461.16
1399	1026	2013	1	111.0	461.16
1399	1026	2014	1	111.0	461.16
1400	503	1402	1	149.0	836.8
1400	528	1413	1	149.0	836.8
1401	505	1474	1	149.0	836.8
1401	506	1486	1	149.0	836.8
1402	1027	2015	1	111.0	461.16
1402	1027	2016	1	111.0	461.16
1402	1027	2017	1	111.0	461.16
1402	1028	2018	1	111.0	461.16
1402	1028	2019	1	111.0	461.16
1402	1028	2020	1	111.0	461.16
1403	509	1405	1	149.0	836.8
1403	534	1416	1	149.0	836.8
1404	511	1477	1	149.0	836.8
1404	512	1489	1	149.0	836.8
1405	1029	2021	1	111.0	461.16
1405	1029	2022	1	111.0	461.16
1405	1029	2023	1	111.0	461.16
1405	1030	2024	1	111.0	461.16
1405	1030	2025	1	111.0	461.16
1405	1030	2026	1	111.0	461.16
1406	515	1408	1	149.0	836.8
1406	540	1419	1	149.0	836.8
1407	517	1480	1	149.0	836.8
1407	518	1492	1	149.0	836.8
1408	1031	2027	1	111.0	461.16
1408	1031	2028	1	111.0	461.16
1408	1031	2029	1	111.0	461.16
1408	1032	2030	1	111.0	461.16
1408	1032	2031	1	111.0	461.16
1408	1032	2032	1	111.0	461.16
1409	521	1411	1	149.0	836.8
1409	546	1422	1	149.0	836.8
1410	523	1483	1	149.0	836.8
1410	524	1495	1	149.0	836.8
1411	1033	2033	1	111.0	461.16
1411	1033	2034	1	111.0	461.16
1411	1033	2035	1	111.0	461.16
1411	1034	2036	1	111.0	461.16
1411	1034	2037	1	111.0	461.16
1411	1034	2038	1	111.0	461.16
1412	527	1414	1	149.0	836.8
1412	552	1425	1	149.0	836.8
1413	529	1486	1	149.0	836.8
1413	530	1498	1	149.0	836.8
1414	1035	2039	1	111.0	461.16
1414	1035	2040	1	111.0	461.16
1414	1035	2041	1	111.0	461.16
1414	1036	2042	1	111.0	461.16
1414	1036	2043	1	111.0	461.16
1414	1036	2044	1	111.0	461.16
1415	533	1417	1	149.0	836.8
1415	558	1428	1	149.0	836.8
1416	535	1489	1	149.0	836.8
1416	536	1501	1	149.0	836.8
1417	1037	2045	1	111.0	461.16
1417	1037	2046	1	111.0	461.16
1417	1037	2047	1	111.0	461.16
1417	1038	2048	1	111.0	461.16
1417	1038	2049	1	111.0	461.16
1417	1038	2050	1	111.0	461.16
1418	539	1420	1	149.0	836.8
1418	564	1431	1	149.0	836.8
1419	541	1492	1	149.0	836.8
1419	542	1504	1	149.0	836.8
1420	1039	2051	1	111.0	461.16
1420	1039	2052	1	111.0	461.16
1420	1039	2053	1	111.0	461.16
1420	1040	2054	1	111.0	461.16
1420	1040	2055	1	111.0	461.16
1420	1040	2056	1	111.0	461.16
1421	545	1423	1	149.0	836.8
1421	570	1434	1	149.0	836.8
1422	547	1495	1	149.0	836.8
1422	548	1507	1	149.0	836.8
1423	1041	2057	1	111.0	461.16
1423	1041	2058	1	111.0	461.16
1423	1041	2059	1	111.0	461.16
1423	1042	2060	1	111.0	461.16
1423	1042	2061	1	111.0	461.16
1423	1042	2062	1	111.0	461.16
1424	551	1426	1	149.0	836.8
1424	576	1437	1	149.0	836.8
1425	553	1498	1	149.0	836.8
1425	554	1510	1	149.0	836.8
1426	1043	2063	1	111.0	461.16
1426	1043	2064	1	111.0	461.16
1426	1043	2065	1	111.0	461.16
1426	1044	2066	1	111.0	461.16
1426	1044	2067	1	111.0	461.16
1426	1044	2068	1	111.0	461.16
1427	557	1429	1	149.0	836.8
1427	582	1440	1	149.0	836.8
1428	559	1501	1	149.0	836.8
1428	560	1513	1	149.0	836.8
1429	1045	2069	1	111.0	461.16
1429	1045	2070	1	111.0	461.16
1429	1045	2071	1	111.0	461.16
1429	1046	2072	1	111.0	461.16
1429	1046	2073	1	111.0	461.16
1429	1046	2074	1	111.0	461.16
1430	563	1432	1	149.0	836.8
1430	588	1443	1	149.0	836.8
1431	565	1504	1	149.0	836.8
1431	566	1516	1	149.0	836.8
1432	1047	2075	1	111.0	461.16
1432	1047	2076	1	111.0	461.16
1432	1047	2077	1	111.0	461.16
1432	1048	2078	1	111.0	461.16
1432	1048	2079	1	111.0	461.16
1432	1048	2080	1	111.0	461.16
1433	569	1435	1	149.0	836.8
1433	594	1446	1	149.0	836.8
1434	571	1507	1	149.0	836.8
1434	572	1519	1	149.0	836.8
1435	1049	2081	1	111.0	461.16
1435	1049	2082	1	111.0	461.16
1435	1049	2083	1	111.0	461.16
1435	1050	2084	1	111.0	461.16
1435	1050	2085	1	111.0	461.16
1435	1050	2086	1	111.0	461.16
1436	575	1438	1	149.0	836.8
1436	600	1449	1	149.0	836.8
1437	577	1510	1	149.0	836.8
1437	578	1522	1	149.0	836.8
1438	1051	2087	1	111.0	461.16
1438	1051	2088	1	111.0	461.16
1438	1051	2089	1	111.0	461.16
1438	1052	2090	1	111.0	461.16
1438	1052	2091	1	111.0	461.16
1438	1052	2092	1	111.0	461.16
1439	581	1441	1	149.0	836.8
1439	606	1452	1	149.0	836.8
1440	583	1513	1	149.0	836.8
1440	584	1525	1	149.0	836.8
1441	1053	2093	1	111.0	461.16
1441	1053	2094	1	111.0	461.16
1441	1053	2095	1	111.0	461.16
1441	1054	2096	1	111.0	461.16
1441	1054	2097	1	111.0	461.16
1441	1054	2098	1	111.0	461.16
1442	587	1444	1	149.0	836.8
1442	612	1455	1	149.0	836.8
1443	589	1516	1	149.0	836.8
1443	590	1528	1	149.0	836.8
1444	1055	2099	1	111.0	461.16
1444	1055	2100	1	111.0	461.16
1444	1055	2101	1	111.0	461.16
1444	1056	2102	1	111.0	461.16
1444	1056	2103	1	111.0	461.16
1444	1056	2104	1	111.0	461.16
1445	593	1447	1	149.0	836.8
1446	595	1519	1	149.0	836.8
1446	596	1531	1	149.0	836.8
1447	1057	2105	1	111.0	461.16
1447	1057	2106	1	111.0	461.16
1447	1057	2107	1	111.0	461.16
1447	1061	2117	1	111.0	461.16
1447	1061	2118	1	111.0	461.16
1447	1061	2119	1	111.0	461.16
1448	599	1450	1	149.0	836.8
1449	601	1522	1	149.0	836.8
1449	602	1534	1	149.0	836.8
1450	1058	2108	1	111.0	461.16
1450	1058	2109	1	111.0	461.16
1450	1058	2110	1	111.0	461.16
1450	1062	2120	1	111.0	461.16
1450	1062	2121	1	111.0	461.16
1450	1062	2122	1	111.0	461.16
1451	605	1453	1	149.0	836.8
1452	607	1525	1	149.0	836.8
1452	608	1537	1	149.0	836.8
1453	1059	2111	1	111.0	461.16
1453	1059	2112	1	111.0	461.16
1453	1059	2113	1	111.0	461.16
1453	1063	2123	1	111.0	461.16
1453	1063	2124	1	111.0	461.16
1453	1063	2125	1	111.0	461.16
1454	611	1456	1	149.0	836.8
1455	613	1528	1	149.0	836.8
1455	614	1540	1	149.0	836.8
1456	1060	2114	1	111.0	461.16
1456	1060	2115	1	111.0	461.16
1456	1060	2116	1	111.0	461.16
1456	1064	2126	1	111.0	461.16
1456	1064	2127	1	111.0	461.16
1456	1064	2128	1	111.0	461.16
1457	617	1459	1	149.0	836.8
1457	642	1470	1	149.0	836.8
1458	618	1529	1	149.0	836.8
1458	619	1615	1	149.0	836.8
1458	620	1543	1	149.0	836.8
1460	623	1462	1	149.0	836.8
1460	648	1473	1	149.0	836.8
1461	624	1532	1	149.0	836.8
1461	625	1618	1	149.0	836.8
1461	626	1546	1	149.0	836.8
1463	629	1465	1	149.0	836.8
1463	654	1476	1	149.0	836.8
1464	630	1535	1	149.0	836.8
1464	631	1621	1	149.0	836.8
1464	632	1549	1	149.0	836.8
1466	635	1468	1	149.0	836.8
1466	660	1479	1	149.0	836.8
1467	636	1538	1	149.0	836.8
1467	637	1624	1	149.0	836.8
1467	638	1552	1	149.0	836.8
1469	641	1471	1	149.0	836.8
1469	666	1482	1	149.0	836.8
1470	643	1543	1	149.0	836.8
1470	644	1555	1	149.0	836.8
1472	647	1474	1	149.0	836.8
1472	672	1485	1	149.0	836.8
1473	649	1546	1	149.0	836.8
1473	650	1558	1	149.0	836.8
1475	653	1477	1	149.0	836.8
1475	678	1488	1	149.0	836.8
1476	655	1549	1	149.0	836.8
1476	656	1561	1	149.0	836.8
1478	659	1480	1	149.0	836.8
1478	684	1491	1	149.0	836.8
1479	661	1552	1	149.0	836.8
1479	662	1564	1	149.0	836.8
1481	665	1483	1	149.0	836.8
1481	690	1494	1	149.0	836.8
1482	667	1555	1	149.0	836.8
1482	668	1567	1	149.0	836.8
1484	671	1486	1	149.0	836.8
1484	696	1497	1	149.0	836.8
1485	673	1558	1	149.0	836.8
1485	674	1570	1	149.0	836.8
1487	677	1489	1	149.0	836.8
1487	702	1500	1	149.0	836.8
1488	679	1561	1	149.0	836.8
1488	680	1573	1	149.0	836.8
1490	683	1492	1	149.0	836.8
1490	708	1503	1	149.0	836.8
1491	685	1564	1	149.0	836.8
1491	686	1576	1	149.0	836.8
1493	689	1495	1	149.0	836.8
1493	714	1506	1	149.0	836.8
1494	691	1567	1	149.0	836.8
1494	692	1579	1	149.0	836.8
1496	695	1498	1	149.0	836.8
1496	720	1509	1	149.0	836.8
1497	697	1570	1	149.0	836.8
1497	698	1582	1	149.0	836.8
1499	701	1501	1	149.0	836.8
1499	726	1512	1	149.0	836.8
1500	703	1573	1	149.0	836.8
1500	704	1585	1	149.0	836.8
1502	707	1504	1	149.0	836.8
1502	732	1515	1	149.0	836.8
1503	709	1576	1	149.0	836.8
1503	710	1588	1	149.0	836.8
1505	713	1507	1	149.0	836.8
1505	738	1518	1	149.0	836.8
1506	715	1579	1	149.0	836.8
1506	716	1591	1	149.0	836.8
1508	719	1510	1	149.0	836.8
1508	744	1521	1	149.0	836.8
1509	721	1582	1	149.0	836.8
1509	722	1594	1	149.0	836.8
1511	725	1513	1	149.0	836.8
1511	750	1524	1	149.0	836.8
1512	727	1585	1	149.0	836.8
1512	728	1597	1	149.0	836.8
1514	731	1516	1	149.0	836.8
1514	756	1527	1	149.0	836.8
1515	733	1588	1	149.0	836.8
1515	734	1600	1	149.0	836.8
1517	737	1519	1	149.0	836.8
1517	762	1530	1	149.0	836.8
1518	739	1591	1	149.0	836.8
1518	740	1603	1	149.0	836.8
1520	743	1522	1	149.0	836.8
1520	768	1533	1	149.0	836.8
1521	745	1594	1	149.0	836.8
1521	746	1606	1	149.0	836.8
1523	749	1525	1	149.0	836.8
1523	774	1536	1	149.0	836.8
1524	751	1597	1	149.0	836.8
1524	752	1609	1	149.0	836.8
1526	755	1528	1	149.0	836.8
1526	780	1539	1	149.0	836.8
1527	757	1600	1	149.0	836.8
1527	758	1612	1	149.0	836.8
1529	761	1531	1	149.0	836.8
1530	763	1603	1	149.0	836.8
1530	764	1615	1	149.0	836.8
1532	767	1534	1	149.0	836.8
1533	769	1606	1	149.0	836.8
1533	770	1618	1	149.0	836.8
1535	773	1537	1	149.0	836.8
1536	775	1609	1	149.0	836.8
1536	776	1621	1	149.0	836.8
1538	779	1540	1	149.0	836.8
1539	781	1612	1	149.0	836.8
1539	782	1624	1	149.0	836.8
1541	785	1543	1	149.0	836.8
1541	802	1554	1	149.0	836.8
1542	786	1613	1	149.0	836.8
1542	1065	2129	1	111.0	461.16
1542	1065	2130	1	111.0	461.16
1542	1065	2131	1	111.0	461.16
1542	1066	2132	1	111.0	461.16
1542	1066	2133	1	111.0	461.16
1542	1066	2134	1	111.0	461.16
1544	789	1546	1	149.0	836.8
1544	806	1557	1	149.0	836.8
1545	790	1616	1	149.0	836.8
1545	1067	2135	1	111.0	461.16
1545	1067	2136	1	111.0	461.16
1545	1067	2137	1	111.0	461.16
1545	1068	2138	1	111.0	461.16
1545	1068	2139	1	111.0	461.16
1545	1068	2140	1	111.0	461.16
1547	793	1549	1	149.0	836.8
1547	810	1560	1	149.0	836.8
1548	794	1619	1	149.0	836.8
1548	1069	2141	1	111.0	461.16
1548	1069	2142	1	111.0	461.16
1548	1069	2143	1	111.0	461.16
1548	1070	2144	1	111.0	461.16
1548	1070	2145	1	111.0	461.16
1548	1070	2146	1	111.0	461.16
1550	797	1552	1	149.0	836.8
1550	814	1563	1	149.0	836.8
1551	798	1622	1	149.0	836.8
1551	1071	2147	1	111.0	461.16
1551	1071	2148	1	111.0	461.16
1551	1071	2149	1	111.0	461.16
1551	1072	2150	1	111.0	461.16
1551	1072	2151	1	111.0	461.16
1551	1072	2152	1	111.0	461.16
1553	801	1555	1	149.0	836.8
1553	818	1566	1	149.0	836.8
1554	1073	2153	1	111.0	461.16
1554	1073	2154	1	111.0	461.16
1554	1073	2155	1	111.0	461.16
1554	1074	2156	1	111.0	461.16
1554	1074	2157	1	111.0	461.16
1554	1074	2158	1	111.0	461.16
1556	805	1558	1	149.0	836.8
1556	822	1569	1	149.0	836.8
1557	1075	2159	1	111.0	461.16
1557	1075	2160	1	111.0	461.16
1557	1075	2161	1	111.0	461.16
1557	1076	2162	1	111.0	461.16
1557	1076	2163	1	111.0	461.16
1557	1076	2164	1	111.0	461.16
1559	809	1561	1	149.0	836.8
1559	826	1572	1	149.0	836.8
1560	1077	2165	1	111.0	461.16
1560	1077	2166	1	111.0	461.16
1560	1077	2167	1	111.0	461.16
1560	1078	2168	1	111.0	461.16
1560	1078	2169	1	111.0	461.16
1560	1078	2170	1	111.0	461.16
1562	813	1564	1	149.0	836.8
1562	830	1575	1	149.0	836.8
1563	1079	2171	1	111.0	461.16
1563	1079	2172	1	111.0	461.16
1563	1079	2173	1	111.0	461.16
1563	1080	2174	1	111.0	461.16
1563	1080	2175	1	111.0	461.16
1563	1080	2176	1	111.0	461.16
1565	817	1567	1	149.0	836.8
1565	834	1578	1	149.0	836.8
1566	1081	2177	1	111.0	461.16
1566	1081	2178	1	111.0	461.16
1566	1081	2179	1	111.0	461.16
1566	1082	2180	1	111.0	461.16
1566	1082	2181	1	111.0	461.16
1566	1082	2182	1	111.0	461.16
1568	821	1570	1	149.0	836.8
1568	838	1581	1	149.0	836.8
1569	1083	2183	1	111.0	461.16
1569	1083	2184	1	111.0	461.16
1569	1083	2185	1	111.0	461.16
1569	1084	2186	1	111.0	461.16
1569	1084	2187	1	111.0	461.16
1569	1084	2188	1	111.0	461.16
1571	825	1573	1	149.0	836.8
1571	842	1584	1	149.0	836.8
1572	1085	2189	1	111.0	461.16
1572	1085	2190	1	111.0	461.16
1572	1085	2191	1	111.0	461.16
1572	1086	2192	1	111.0	461.16
1572	1086	2193	1	111.0	461.16
1572	1086	2194	1	111.0	461.16
1574	829	1576	1	149.0	836.8
1574	846	1587	1	149.0	836.8
1575	1087	2195	1	111.0	461.16
1575	1087	2196	1	111.0	461.16
1575	1087	2197	1	111.0	461.16
1575	1088	2198	1	111.0	461.16
1575	1088	2199	1	111.0	461.16
1575	1088	2200	1	111.0	461.16
1577	833	1579	1	149.0	836.8
1577	850	1590	1	149.0	836.8
1578	1089	2201	1	111.0	461.16
1578	1089	2202	1	111.0	461.16
1578	1089	2203	1	111.0	461.16
1578	1090	2204	1	111.0	461.16
1578	1090	2205	1	111.0	461.16
1578	1090	2206	1	111.0	461.16
1580	837	1582	1	149.0	836.8
1580	854	1593	1	149.0	836.8
1581	1091	2207	1	111.0	461.16
1581	1091	2208	1	111.0	461.16
1581	1091	2209	1	111.0	461.16
1581	1092	2210	1	111.0	461.16
1581	1092	2211	1	111.0	461.16
1581	1092	2212	1	111.0	461.16
1583	841	1585	1	149.0	836.8
1583	858	1596	1	149.0	836.8
1584	1093	2213	1	111.0	461.16
1584	1093	2214	1	111.0	461.16
1584	1093	2215	1	111.0	461.16
1584	1094	2216	1	111.0	461.16
1584	1094	2217	1	111.0	461.16
1584	1094	2218	1	111.0	461.16
1586	845	1588	1	149.0	836.8
1586	862	1599	1	149.0	836.8
1587	1095	2219	1	111.0	461.16
1587	1095	2220	1	111.0	461.16
1587	1095	2221	1	111.0	461.16
1587	1096	2222	1	111.0	461.16
1587	1096	2223	1	111.0	461.16
1587	1096	2224	1	111.0	461.16
1589	849	1591	1	149.0	836.8
1589	866	1602	1	149.0	836.8
1590	1097	2225	1	111.0	461.16
1590	1097	2226	1	111.0	461.16
1590	1097	2227	1	111.0	461.16
1590	1098	2228	1	111.0	461.16
1590	1098	2229	1	111.0	461.16
1590	1098	2230	1	111.0	461.16
1592	853	1594	1	149.0	836.8
1592	870	1605	1	149.0	836.8
1593	1099	2231	1	111.0	461.16
1593	1099	2232	1	111.0	461.16
1593	1099	2233	1	111.0	461.16
1593	1100	2234	1	111.0	461.16
1593	1100	2235	1	111.0	461.16
1593	1100	2236	1	111.0	461.16
1595	857	1597	1	149.0	836.8
1595	874	1608	1	149.0	836.8
1596	1101	2237	1	111.0	461.16
1596	1101	2238	1	111.0	461.16
1596	1101	2239	1	111.0	461.16
1596	1102	2240	1	111.0	461.16
1596	1102	2241	1	111.0	461.16
1596	1102	2242	1	111.0	461.16
1598	861	1600	1	149.0	836.8
1598	878	1611	1	149.0	836.8
1599	1103	2243	1	111.0	461.16
1599	1103	2244	1	111.0	461.16
1599	1103	2245	1	111.0	461.16
1599	1104	2246	1	111.0	461.16
1599	1104	2247	1	111.0	461.16
1599	1104	2248	1	111.0	461.16
1601	865	1603	1	149.0	836.8
1601	882	1614	1	149.0	836.8
1602	1105	2249	1	111.0	461.16
1602	1105	2250	1	111.0	461.16
1602	1105	2251	1	111.0	461.16
1602	1106	2252	1	111.0	461.16
1602	1106	2253	1	111.0	461.16
1602	1106	2254	1	111.0	461.16
1604	869	1606	1	149.0	836.8
1604	886	1617	1	149.0	836.8
1605	1107	2255	1	111.0	461.16
1605	1107	2256	1	111.0	461.16
1605	1107	2257	1	111.0	461.16
1605	1108	2258	1	111.0	461.16
1605	1108	2259	1	111.0	461.16
1605	1108	2260	1	111.0	461.16
1607	873	1609	1	149.0	836.8
1607	890	1620	1	149.0	836.8
1608	1109	2261	1	111.0	461.16
1608	1109	2262	1	111.0	461.16
1608	1109	2263	1	111.0	461.16
1608	1110	2264	1	111.0	461.16
1608	1110	2265	1	111.0	461.16
1608	1110	2266	1	111.0	461.16
1610	877	1612	1	149.0	836.8
1610	894	1623	1	149.0	836.8
1611	1111	2267	1	111.0	461.16
1611	1111	2268	1	111.0	461.16
1611	1111	2269	1	111.0	461.16
1611	1112	2270	1	111.0	461.16
1611	1112	2271	1	111.0	461.16
1611	1112	2272	1	111.0	461.16
1613	881	1615	1	149.0	836.8
1614	1113	2273	1	111.0	461.16
1614	1113	2274	1	111.0	461.16
1614	1113	2275	1	111.0	461.16
1614	1114	2276	1	111.0	461.16
1614	1114	2277	1	111.0	461.16
1614	1114	2278	1	111.0	461.16
1616	885	1618	1	149.0	836.8
1617	1115	2279	1	111.0	461.16
1617	1115	2280	1	111.0	461.16
1617	1115	2281	1	111.0	461.16
1617	1116	2282	1	111.0	461.16
1617	1116	2283	1	111.0	461.16
1617	1116	2284	1	111.0	461.16
1619	889	1621	1	149.0	836.8
1620	1117	2285	1	111.0	461.16
1620	1117	2286	1	111.0	461.16
1620	1117	2287	1	111.0	461.16
1620	1118	2288	1	111.0	461.16
1620	1118	2289	1	111.0	461.16
1620	1118	2290	1	111.0	461.16
1622	893	1624	1	149.0	836.8
1623	1119	2291	1	111.0	461.16
1623	1119	2292	1	111.0	461.16
1623	1119	2293	1	111.0	461.16
1623	1120	2294	1	111.0	461.16
1623	1120	2295	1	111.0	461.16
1623	1120	2296	1	111.0	461.16
1625	897	1626	1	108.0	419.83
1625	897	1627	1	108.0	419.83
1626	897	1627	1	108.0	419.83
1628	898	1629	1	108.0	419.83
1628	898	1630	1	108.0	419.83
1629	898	1630	1	108.0	419.83
1631	899	1632	1	108.0	419.83
1631	899	1633	1	108.0	419.83
1632	899	1633	1	108.0	419.83
1634	900	1635	1	108.0	419.83
1634	900	1636	1	108.0	419.83
1635	900	1636	1	108.0	419.83
1637	901	1638	1	108.0	419.83
1637	901	1639	1	108.0	419.83
1638	901	1639	1	108.0	419.83
1640	902	1641	1	108.0	419.83
1640	902	1642	1	108.0	419.83
1641	902	1642	1	108.0	419.83
1643	903	1644	1	108.0	419.83
1643	903	1645	1	108.0	419.83
1644	903	1645	1	108.0	419.83
1646	904	1647	1	108.0	419.83
1646	904	1648	1	108.0	419.83
1647	904	1648	1	108.0	419.83
1649	905	1650	1	108.0	419.83
1649	905	1651	1	108.0	419.83
1650	905	1651	1	108.0	419.83
1652	906	1653	1	108.0	419.83
1652	906	1654	1	108.0	419.83
1653	906	1654	1	108.0	419.83
1655	907	1656	1	108.0	419.83
1655	907	1657	1	108.0	419.83
1656	907	1657	1	108.0	419.83
1658	908	1659	1	108.0	419.83
1658	908	1660	1	108.0	419.83
1659	908	1660	1	108.0	419.83
1661	909	1662	1	108.0	419.83
1661	909	1663	1	108.0	419.83
1662	909	1663	1	108.0	419.83
1664	910	1665	1	108.0	419.83
1664	910	1666	1	108.0	419.83
1665	910	1666	1	108.0	419.83
1667	911	1668	1	108.0	419.83
1667	911	1669	1	108.0	419.83
1668	911	1669	1	108.0	419.83
1670	912	1671	1	108.0	419.83
1670	912	1672	1	108.0	419.83
1671	912	1672	1	108.0	419.83
1673	913	1674	1	108.0	419.83
1673	913	1675	1	108.0	419.83
1674	913	1675	1	108.0	419.83
1676	914	1677	1	108.0	419.83
1676	914	1678	1	108.0	419.83
1677	914	1678	1	108.0	419.83
1679	915	1680	1	108.0	419.83
1679	915	1681	1	108.0	419.83
1680	915	1681	1	108.0	419.83
1682	916	1683	1	108.0	419.83
1682	916	1684	1	108.0	419.83
1683	916	1684	1	108.0	419.83
1685	917	1686	1	108.0	419.83
1685	917	1687	1	108.0	419.83
1686	917	1687	1	108.0	419.83
1688	918	1689	1	108.0	419.83
1688	918	1690	1	108.0	419.83
1689	918	1690	1	108.0	419.83
1691	919	1692	1	108.0	419.83
1691	919	1693	1	108.0	419.83
1692	919	1693	1	108.0	419.83
1694	920	1695	1	108.0	419.83
1694	920	1696	1	108.0	419.83
1695	920	1696	1	108.0	419.83
1697	921	1698	1	108.0	419.83
1697	921	1699	1	108.0	419.83
1698	921	1699	1	108.0	419.83
1700	922	1701	1	108.0	419.83
1700	922	1702	1	108.0	419.83
1701	922	1702	1	108.0	419.83
1703	923	1704	1	108.0	419.83
1703	923	1705	1	108.0	419.83
1704	923	1705	1	108.0	419.83
1706	924	1707	1	108.0	419.83
1706	924	1708	1	108.0	419.83
1707	924	1708	1	108.0	419.83
1709	925	1710	1	108.0	419.83
1709	925	1711	1	108.0	419.83
1710	925	1711	1	108.0	419.83
1712	926	1713	1	108.0	419.83
1712	926	1714	1	108.0	419.83
1713	926	1714	1	108.0	419.83
1715	927	1716	1	108.0	419.83
1715	927	1717	1	108.0	419.83
1716	927	1717	1	108.0	419.83
1718	928	1719	1	108.0	419.83
1718	928	1720	1	108.0	419.83
1719	928	1720	1	108.0	419.83
1721	929	1722	1	108.0	419.83
1721	929	1723	1	108.0	419.83
1722	929	1723	1	108.0	419.83
1724	930	1725	1	108.0	419.83
1724	930	1726	1	108.0	419.83
1725	930	1726	1	108.0	419.83
1727	931	1728	1	108.0	419.83
1727	931	1729	1	108.0	419.83
1728	931	1729	1	108.0	419.83
1730	932	1731	1	108.0	419.83
1730	932	1732	1	108.0	419.83
1731	932	1732	1	108.0	419.83
1733	933	1734	1	108.0	419.83
1733	933	1735	1	108.0	419.83
1734	933	1735	1	108.0	419.83
1736	934	1737	1	108.0	419.83
1736	934	1738	1	108.0	419.83
1737	934	1738	1	108.0	419.83
1739	935	1740	1	108.0	419.83
1739	935	1741	1	108.0	419.83
1740	935	1741	1	108.0	419.83
1742	936	1743	1	108.0	419.83
1742	936	1744	1	108.0	419.83
1743	936	1744	1	108.0	419.83
1745	937	1746	1	108.0	419.83
1745	937	1747	1	108.0	419.83
1746	937	1747	1	108.0	419.83
1748	938	1749	1	108.0	419.83
1748	938	1750	1	108.0	419.83
1749	938	1750	1	108.0	419.83
1751	939	1752	1	108.0	419.83
1751	939	1753	1	108.0	419.83
1752	939	1753	1	108.0	419.83
1754	940	1755	1	108.0	419.83
1754	940	1756	1	108.0	419.83
1755	940	1756	1	108.0	419.83
1757	941	1758	1	108.0	419.83
1757	941	1759	1	108.0	419.83
1758	941	1759	1	108.0	419.83
1760	942	1761	1	108.0	419.83
1760	942	1762	1	108.0	419.83
1761	942	1762	1	108.0	419.83
1763	943	1764	1	108.0	419.83
1763	943	1765	1	108.0	419.83
1764	943	1765	1	108.0	419.83
1766	944	1767	1	108.0	419.83
1766	944	1768	1	108.0	419.83
1767	944	1768	1	108.0	419.83
1769	945	1770	1	108.0	419.83
1769	945	1771	1	108.0	419.83
1770	945	1771	1	108.0	419.83
1772	946	1773	1	108.0	419.83
1772	946	1774	1	108.0	419.83
1773	946	1774	1	108.0	419.83
1775	947	1776	1	108.0	419.83
1775	947	1777	1	108.0	419.83
1776	947	1777	1	108.0	419.83
1778	948	1779	1	108.0	419.83
1778	948	1780	1	108.0	419.83
1779	948	1780	1	108.0	419.83
1781	949	1782	1	108.0	419.83
1781	949	1783	1	108.0	419.83
1782	949	1783	1	108.0	419.83
1784	950	1785	1	108.0	419.83
1784	950	1786	1	108.0	419.83
1785	950	1786	1	108.0	419.83
1787	951	1788	1	108.0	419.83
1787	951	1789	1	108.0	419.83
1788	951	1789	1	108.0	419.83
1790	952	1791	1	108.0	419.83
1790	952	1792	1	108.0	419.83
1791	952	1792	1	108.0	419.83
1793	953	1794	1	108.0	419.83
1793	953	1795	1	108.0	419.83
1794	953	1795	1	108.0	419.83
1796	954	1797	1	108.0	419.83
1796	954	1798	1	108.0	419.83
1797	954	1798	1	108.0	419.83
1799	955	1800	1	108.0	419.83
1799	955	1801	1	108.0	419.83
1800	955	1801	1	108.0	419.83
1802	956	1803	1	108.0	419.83
1802	956	1804	1	108.0	419.83
1803	956	1804	1	108.0	419.83
1805	957	1806	1	108.0	419.83
1805	957	1807	1	108.0	419.83
1806	957	1807	1	108.0	419.83
1808	958	1809	1	108.0	419.83
1808	958	1810	1	108.0	419.83
1809	958	1810	1	108.0	419.83
1811	959	1812	1	108.0	419.83
1811	959	1813	1	108.0	419.83
1812	959	1813	1	108.0	419.83
1814	960	1815	1	108.0	419.83
1814	960	1816	1	108.0	419.83
1815	960	1816	1	108.0	419.83
1817	961	1818	1	108.0	419.83
1817	961	1819	1	108.0	419.83
1818	961	1819	1	108.0	419.83
1820	962	1821	1	108.0	419.83
1820	962	1822	1	108.0	419.83
1821	962	1822	1	108.0	419.83
1823	963	1824	1	108.0	419.83
1823	963	1825	1	108.0	419.83
1824	963	1825	1	108.0	419.83
1826	964	1827	1	108.0	419.83
1826	964	1828	1	108.0	419.83
1827	964	1828	1	108.0	419.83
1829	965	1830	1	108.0	419.83
1829	965	1831	1	108.0	419.83
1830	965	1831	1	108.0	419.83
1832	966	1833	1	108.0	419.83
1832	966	1834	1	108.0	419.83
1833	966	1834	1	108.0	419.83
1835	967	1836	1	108.0	419.83
1835	967	1837	1	108.0	419.83
1836	967	1837	1	108.0	419.83
1838	968	1839	1	108.0	419.83
1838	968	1840	1	108.0	419.83
1839	968	1840	1	108.0	419.83
1841	969	1842	1	108.0	419.83
1841	969	1843	1	108.0	419.83
1842	969	1843	1	108.0	419.83
1844	970	1845	1	108.0	419.83
1844	970	1846	1	108.0	419.83
1845	970	1846	1	108.0	419.83
1847	971	1848	1	108.0	419.83
1847	971	1849	1	108.0	419.83
1848	971	1849	1	108.0	419.83
1850	972	1851	1	108.0	419.83
1850	972	1852	1	108.0	419.83
1851	972	1852	1	108.0	419.83
1853	973	1854	1	108.0	419.83
1853	973	1855	1	108.0	419.83
1854	973	1855	1	108.0	419.83
1856	974	1857	1	108.0	419.83
1856	974	1858	1	108.0	419.83
1857	974	1858	1	108.0	419.83
1859	975	1860	1	108.0	419.83
1859	975	1861	1	108.0	419.83
1860	975	1861	1	108.0	419.83
1862	976	1863	1	108.0	419.83
1862	976	1864	1	108.0	419.83
1863	976	1864	1	108.0	419.83
1865	977	1866	1	108.0	419.83
1865	977	1867	1	108.0	419.83
1866	977	1867	1	108.0	419.83
1868	978	1869	1	108.0	419.83
1868	978	1870	1	108.0	419.83
1869	978	1870	1	108.0	419.83
1871	979	1872	1	108.0	419.83
1871	979	1873	1	108.0	419.83
1872	979	1873	1	108.0	419.83
1874	980	1875	1	108.0	419.83
1874	980	1876	1	108.0	419.83
1875	980	1876	1	108.0	419.83
1877	981	1878	1	108.0	419.83
1877	981	1879	1	108.0	419.83
1878	981	1879	1	108.0	419.83
1880	982	1881	1	108.0	419.83
1880	982	1882	1	108.0	419.83
1881	982	1882	1	108.0	419.83
1883	983	1884	1	108.0	419.83
1883	983	1885	1	108.0	419.83
1884	983	1885	1	108.0	419.83
1886	984	1887	1	108.0	419.83
1886	984	1888	1	108.0	419.83
1887	984	1888	1	108.0	419.83
1889	985	1890	1	108.0	419.83
1889	985	1891	1	108.0	419.83
1890	985	1891	1	108.0	419.83
1892	986	1893	1	108.0	419.83
1892	986	1894	1	108.0	419.83
1893	986	1894	1	108.0	419.83
1895	987	1896	1	108.0	419.83
1895	987	1897	1	108.0	419.83
1896	987	1897	1	108.0	419.83
1898	988	1899	1	108.0	419.83
1898	988	1900	1	108.0	419.83
1899	988	1900	1	108.0	419.83
1901	989	1902	1	108.0	419.83
1901	989	1903	1	108.0	419.83
1902	989	1903	1	108.0	419.83
1904	990	1905	1	108.0	419.83
1904	990	1906	1	108.0	419.83
1905	990	1906	1	108.0	419.83
1907	991	1908	1	108.0	419.83
1907	991	1909	1	108.0	419.83
1908	991	1909	1	108.0	419.83
1910	992	1911	1	108.0	419.83
1910	992	1912	1	108.0	419.83
1911	992	1912	1	108.0	419.83
1913	993	1914	1	108.0	419.83
1913	993	1915	1	108.0	419.83
1914	993	1915	1	108.0	419.83
1916	994	1917	1	108.0	419.83
1916	994	1918	1	108.0	419.83
1917	994	1918	1	108.0	419.83
1919	995	1920	1	108.0	419.83
1919	995	1921	1	108.0	419.83
1920	995	1921	1	108.0	419.83
1922	996	1923	1	108.0	419.83
1922	996	1924	1	108.0	419.83
1923	996	1924	1	108.0	419.83
1925	997	1926	1	108.0	419.83
1925	997	1927	1	108.0	419.83
1926	997	1927	1	108.0	419.83
1928	998	1929	1	108.0	419.83
1928	998	1930	1	108.0	419.83
1929	998	1930	1	108.0	419.83
1931	999	1932	1	108.0	419.83
1931	999	1933	1	108.0	419.83
1932	999	1933	1	108.0	419.83
1934	1000	1935	1	108.0	419.83
1934	1000	1936	1	108.0	419.83
1935	1000	1936	1	108.0	419.83
1937	1001	1938	1	108.0	419.83
1937	1001	1939	1	108.0	419.83
1938	1001	1939	1	108.0	419.83
1940	1002	1941	1	108.0	419.83
1940	1002	1942	1	108.0	419.83
1941	1002	1942	1	108.0	419.83
1943	1003	1944	1	108.0	419.83
1943	1003	1945	1	108.0	419.83
1944	1003	1945	1	108.0	419.83
1946	1004	1947	1	108.0	419.83
1946	1004	1948	1	108.0	419.83
1947	1004	1948	1	108.0	419.83
1949	1005	1950	1	108.0	419.83
1949	1005	1951	1	108.0	419.83
1950	1005	1951	1	108.0	419.83
1952	1006	1953	1	108.0	419.83
1952	1006	1954	1	108.0	419.83
1953	1006	1954	1	108.0	419.83
1955	1007	1956	1	108.0	419.83
1955	1007	1957	1	108.0	419.83
1956	1007	1957	1	108.0	419.83
1958	1008	1959	1	108.0	419.83
1958	1008	1960	1	108.0	419.83
1959	1008	1960	1	108.0	419.83
1961	1009	1962	1	108.0	419.83
1961	1009	1963	1	108.0	419.83
1962	1009	1963	1	108.0	419.83
1964	1010	1965	1	108.0	419.83
1964	1010	1966	1	108.0	419.83
1965	1010	1966	1	108.0	419.83
1967	1011	1968	1	108.0	419.83
1967	1011	1969	1	108.0	419.83
1968	1011	1969	1	108.0	419.83
1970	1012	1971	1	108.0	419.83
1970	1012	1972	1	108.0	419.83
1971	1012	1972	1	108.0	419.83
1973	1013	1974	1	108.0	419.83
1973	1013	1975	1	108.0	419.83
1974	1013	1975	1	108.0	419.83
1976	1014	1977	1	108.0	419.83
1976	1014	1978	1	108.0	419.83
1977	1014	1978	1	108.0	419.83
1979	1015	1980	1	108.0	419.83
1979	1015	1981	1	108.0	419.83
1980	1015	1981	1	108.0	419.83
1982	1016	1983	1	108.0	419.83
1982	1016	1984	1	108.0	419.83
1983	1016	1984	1	108.0	419.83
1985	1017	1986	1	108.0	419.83
1985	1017	1987	1	108.0	419.83
1986	1017	1987	1	108.0	419.83
1988	1018	1989	1	108.0	419.83
1988	1018	1990	1	108.0	419.83
1989	1018	1990	1	108.0	419.83
1991	1019	1992	1	108.0	419.83
1991	1019	1993	1	108.0	419.83
1992	1019	1993	1	108.0	419.83
1994	1020	1995	1	108.0	419.83
1994	1020	1996	1	108.0	419.83
1995	1020	1996	1	108.0	419.83
1997	1021	1998	1	108.0	419.83
1997	1021	1999	1	108.0	419.83
1998	1021	1999	1	108.0	419.83
2000	1022	2001	1	108.0	419.83
2000	1022	2002	1	108.0	419.83
2001	1022	2002	1	108.0	419.83
2003	1023	2004	1	108.0	419.83
2003	1023	2005	1	108.0	419.83
2004	1023	2005	1	108.0	419.83
2006	1024	2007	1	108.0	419.83
2006	1024	2008	1	108.0	419.83
2007	1024	2008	1	108.0	419.83
2009	1025	2010	1	108.0	419.83
2009	1025	2011	1	108.0	419.83
2010	1025	2011	1	108.0	419.83
2012	1026	2013	1	108.0	419.83
2012	1026	2014	1	108.0	419.83
2013	1026	2014	1	108.0	419.83
2015	1027	2016	1	108.0	419.83
2015	1027	2017	1	108.0	419.83
2016	1027	2017	1	108.0	419.83
2018	1028	2019	1	108.0	419.83
2018	1028	2020	1	108.0	419.83
2019	1028	2020	1	108.0	419.83
2021	1029	2022	1	108.0	419.83
2021	1029	2023	1	108.0	419.83
2022	1029	2023	1	108.0	419.83
2024	1030	2025	1	108.0	419.83
2024	1030	2026	1	108.0	419.83
2025	1030	2026	1	108.0	419.83
2027	1031	2028	1	108.0	419.83
2027	1031	2029	1	108.0	419.83
2028	1031	2029	1	108.0	419.83
2030	1032	2031	1	108.0	419.83
2030	1032	2032	1	108.0	419.83
2031	1032	2032	1	108.0	419.83
2033	1033	2034	1	108.0	419.83
2033	1033	2035	1	108.0	419.83
2034	1033	2035	1	108.0	419.83
2036	1034	2037	1	108.0	419.83
2036	1034	2038	1	108.0	419.83
2037	1034	2038	1	108.0	419.83
2039	1035	2040	1	108.0	419.83
2039	1035	2041	1	108.0	419.83
2040	1035	2041	1	108.0	419.83
2042	1036	2043	1	108.0	419.83
2042	1036	2044	1	108.0	419.83
2043	1036	2044	1	108.0	419.83
2045	1037	2046	1	108.0	419.83
2045	1037	2047	1	108.0	419.83
2046	1037	2047	1	108.0	419.83
2048	1038	2049	1	108.0	419.83
2048	1038	2050	1	108.0	419.83
2049	1038	2050	1	108.0	419.83
2051	1039	2052	1	108.0	419.83
2051	1039	2053	1	108.0	419.83
2052	1039	2053	1	108.0	419.83
2054	1040	2055	1	108.0	419.83
2054	1040	2056	1	108.0	419.83
2055	1040	2056	1	108.0	419.83
2057	1041	2058	1	108.0	419.83
2057	1041	2059	1	108.0	419.83
2058	1041	2059	1	108.0	419.83
2060	1042	2061	1	108.0	419.83
2060	1042	2062	1	108.0	419.83
2061	1042	2062	1	108.0	419.83
2063	1043	2064	1	108.0	419.83
2063	1043	2065	1	108.0	419.83
2064	1043	2065	1	108.0	419.83
2066	1044	2067	1	108.0	419.83
2066	1044	2068	1	108.0	419.83
2067	1044	2068	1	108.0	419.83
2069	1045	2070	1	108.0	419.83
2069	1045	2071	1	108.0	419.83
2070	1045	2071	1	108.0	419.83
2072	1046	2073	1	108.0	419.83
2072	1046	2074	1	108.0	419.83
2073	1046	2074	1	108.0	419.83
2075	1047	2076	1	108.0	419.83
2075	1047	2077	1	108.0	419.83
2076	1047	2077	1	108.0	419.83
2078	1048	2079	1	108.0	419.83
2078	1048	2080	1	108.0	419.83
2079	1048	2080	1	108.0	419.83
2081	1049	2082	1	108.0	419.83
2081	1049	2083	1	108.0	419.83
2082	1049	2083	1	108.0	419.83
2084	1050	2085	1	108.0	419.83
2084	1050	2086	1	108.0	419.83
2085	1050	2086	1	108.0	419.83
2087	1051	2088	1	108.0	419.83
2087	1051	2089	1	108.0	419.83
2088	1051	2089	1	108.0	419.83
2090	1052	2091	1	108.0	419.83
2090	1052	2092	1	108.0	419.83
2091	1052	2092	1	108.0	419.83
2093	1053	2094	1	108.0	419.83
2093	1053	2095	1	108.0	419.83
2094	1053	2095	1	108.0	419.83
2096	1054	2097	1	108.0	419.83
2096	1054	2098	1	108.0	419.83
2097	1054	2098	1	108.0	419.83
2099	1055	2100	1	108.0	419.83
2099	1055	2101	1	108.0	419.83
2100	1055	2101	1	108.0	419.83
2102	1056	2103	1	108.0	419.83
2102	1056	2104	1	108.0	419.83
2103	1056	2104	1	108.0	419.83
2105	1057	2106	1	108.0	419.83
2105	1057	2107	1	108.0	419.83
2106	1057	2107	1	108.0	419.83
2108	1058	2109	1	108.0	419.83
2108	1058	2110	1	108.0	419.83
2109	1058	2110	1	108.0	419.83
2111	1059	2112	1	108.0	419.83
2111	1059	2113	1	108.0	419.83
2112	1059	2113	1	108.0	419.83
2114	1060	2115	1	108.0	419.83
2114	1060	2116	1	108.0	419.83
2115	1060	2116	1	108.0	419.83
2117	1061	2118	1	108.0	419.83
2117	1061	2119	1	108.0	419.83
2118	1061	2119	1	108.0	419.83
2120	1062	2121	1	108.0	419.83
2120	1062	2122	1	108.0	419.83
2121	1062	2122	1	108.0	419.83
2123	1063	2124	1	108.0	419.83
2123	1063	2125	1	108.0	419.83
2124	1063	2125	1	108.0	419.83
2126	1064	2127	1	108.0	419.83
2126	1064	2128	1	108.0	419.83
2127	1064	2128	1	108.0	419.83
2129	1065	2130	1	108.0	419.83
2129	1065	2131	1	108.0	419.83
2130	1065	2131	1	108.0	419.83
2132	1066	2133	1	108.0	419.83
2132	1066	2134	1	108.0	419.83
2133	1066	2134	1	108.0	419.83
2135	1067	2136	1	108.0	419.83
2135	1067	2137	1	108.0	419.83
2136	1067	2137	1	108.0	419.83
2138	1068	2139	1	108.0	419.83
2138	1068	2140	1	108.0	419.83
2139	1068	2140	1	108.0	419.83
2141	1069	2142	1	108.0	419.83
2141	1069	2143	1	108.0	419.83
2142	1069	2143	1	108.0	419.83
2144	1070	2145	1	108.0	419.83
2144	1070	2146	1	108.0	419.83
2145	1070	2146	1	108.0	419.83
2147	1071	2148	1	108.0	419.83
2147	1071	2149	1	108.0	419.83
2148	1071	2149	1	108.0	419.83
2150	1072	2151	1	108.0	419.83
2150	1072	2152	1	108.0	419.83
2151	1072	2152	1	108.0	419.83
2153	1073	2154	1	108.0	419.83
2153	1073	2155	1	108.0	419.83
2154	1073	2155	1	108.0	419.83
2156	1074	2157	1	108.0	419.83
2156	1074	2158	1	108.0	419.83
2157	1074	2158	1	108.0	419.83
2159	1075	2160	1	108.0	419.83
2159	1075	2161	1	108.0	419.83
2160	1075	2161	1	108.0	419.83
2162	1076	2163	1	108.0	419.83
2162	1076	2164	1	108.0	419.83
2163	1076	2164	1	108.0	419.83
2165	1077	2166	1	108.0	419.83
2165	1077	2167	1	108.0	419.83
2166	1077	2167	1	108.0	419.83
2168	1078	2169	1	108.0	419.83
2168	1078	2170	1	108.0	419.83
2169	1078	2170	1	108.0	419.83
2171	1079	2172	1	108.0	419.83
2171	1079	2173	1	108.0	419.83
2172	1079	2173	1	108.0	419.83
2174	1080	2175	1	108.0	419.83
2174	1080	2176	1	108.0	419.83
2175	1080	2176	1	108.0	419.83
2177	1081	2178	1	108.0	419.83
2177	1081	2179	1	108.0	419.83
2178	1081	2179	1	108.0	419.83
2180	1082	2181	1	108.0	419.83
2180	1082	2182	1	108.0	419.83
2181	1082	2182	1	108.0	419.83
2183	1083	2184	1	108.0	419.83
2183	1083	2185	1	108.0	419.83
2184	1083	2185	1	108.0	419.83
2186	1084	2187	1	108.0	419.83
2186	1084	2188	1	108.0	419.83
2187	1084	2188	1	108.0	419.83
2189	1085	2190	1	108.0	419.83
2189	1085	2191	1	108.0	419.83
2190	1085	2191	1	108.0	419.83
2192	1086	2193	1	108.0	419.83
2192	1086	2194	1	108.0	419.83
2193	1086	2194	1	108.0	419.83
2195	1087	2196	1	108.0	419.83
2195	1087	2197	1	108.0	419.83
2196	1087	2197	1	108.0	419.83
2198	1088	2199	1	108.0	419.83
2198	1088	2200	1	108.0	419.83
2199	1088	2200	1	108.0	419.83
2201	1089	2202	1	108.0	419.83
2201	1089	2203	1	108.0	419.83
2202	1089	2203	1	108.0	419.83
2204	1090	2205	1	108.0	419.83
2204	1090	2206	1	108.0	419.83
2205	1090	2206	1	108.0	419.83
2207	1091	2208	1	108.0	419.83
2207	1091	2209	1	108.0	419.83
2208	1091	2209	1	108.0	419.83
2210	1092	2211	1	108.0	419.83
2210	1092	2212	1	108.0	419.83
2211	1092	2212	1	108.0	419.83
2213	1093	2214	1	108.0	419.83
2213	1093	2215	1	108.0	419.83
2214	1093	2215	1	108.0	419.83
2216	1094	2217	1	108.0	419.83
2216	1094	2218	1	108.0	419.83
2217	1094	2218	1	108.0	419.83
2219	1095	2220	1	108.0	419.83
2219	1095	2221	1	108.0	419.83
2220	1095	2221	1	108.0	419.83
2222	1096	2223	1	108.0	419.83
2222	1096	2224	1	108.0	419.83
2223	1096	2224	1	108.0	419.83
2225	1097	2226	1	108.0	419.83
2225	1097	2227	1	108.0	419.83
2226	1097	2227	1	108.0	419.83
2228	1098	2229	1	108.0	419.83
2228	1098	2230	1	108.0	419.83
2229	1098	2230	1	108.0	419.83
2231	1099	2232	1	108.0	419.83
2231	1099	2233	1	108.0	419.83
2232	1099	2233	1	108.0	419.83
2234	1100	2235	1	108.0	419.83
2234	1100	2236	1	108.0	419.83
2235	1100	2236	1	108.0	419.83
2237	1101	2238	1	108.0	419.83
2237	1101	2239	1	108.0	419.83
2238	1101	2239	1	108.0	419.83
2240	1102	2241	1	108.0	419.83
2240	1102	2242	1	108.0	419.83
2241	1102	2242	1	108.0	419.83
2243	1103	2244	1	108.0	419.83
2243	1103	2245	1	108.0	419.83
2244	1103	2245	1	108.0	419.83
2246	1104	2247	1	108.0	419.83
2246	1104	2248	1	108.0	419.83
2247	1104	2248	1	108.0	419.83
2249	1105	2250	1	108.0	419.83
2249	1105	2251	1	108.0	419.83
2250	1105	2251	1	108.0	419.83
2252	1106	2253	1	108.0	419.83
2252	1106	2254	1	108.0	419.83
2253	1106	2254	1	108.0	419.83
2255	1107	2256	1	108.0	419.83
2255	1107	2257	1	108.0	419.83
2256	1107	2257	1	108.0	419.83
2258	1108	2259	1	108.0	419.83
2258	1108	2260	1	108.0	419.83
2259	1108	2260	1	108.0	419.83
2261	1109	2262	1	108.0	419.83
2261	1109	2263	1	108.0	419.83
2262	1109	2263	1	108.0	419.83
2264	1110	2265	1	108.0	419.83
2264	1110	2266	1	108.0	419.83
2265	1110	2266	1	108.0	419.83
2267	1111	2268	1	108.0	419.83
2267	1111	2269	1	108.0	419.83
2268	1111	2269	1	108.0	419.83
2270	1112	2271	1	108.0	419.83
2270	1112	2272	1	108.0	419.83
2271	1112	2272	1	108.0	419.83
2273	1113	2274	1	108.0	419.83
2273	1113	2275	1	108.0	419.83
2274	1113	2275	1	108.0	419.83
2276	1114	2277	1	108.0	419.83
2276	1114	2278	1	108.0	419.83
2277	1114	2278	1	108.0	419.83
2279	1115	2280	1	108.0	419.83
2279	1115	2281	1	108.0	419.83
2280	1115	2281	1	108.0	419.83
2282	1116	2283	1	108.0	419.83
2282	1116	2284	1	108.0	419.83
2283	1116	2284	1	108.0	419.83
2285	1117	2286	1	108.0	419.83
2285	1117	2287	1	108.0	419.83
2286	1117	2287	1	108.0	419.83
2288	1118	2289	1	108.0	419.83
2288	1118	2290	1	108.0	419.83
2289	1118	2290	1	108.0	419.83
2291	1119	2292	1	108.0	419.83
2291	1119	2293	1	108.0	419.83
2292	1119	2293	1	108.0	419.83
2294	1120	2295	1	108.0	419.83
2294	1120	2296	1	108.0	419.83
2295	1120	2296	1	108.0	419.83
