Water-ethanol mixture in organosilica
15326
    1Sil     Ob    1   0.838   1.920  11.278  0.2773 -0.1474 -0.4363
    1Sil     Ob    2   1.457   1.921  10.479 -0.1747  0.3365  0.1938
    1Sil     Ob    3   1.131   1.915  10.902  0.2108 -0.8121  0.2232
    1Sil     Ob    4   0.713   2.313  10.891  0.0145 -0.5207 -0.4398
    1Sil     Ob    5   1.255   2.313  11.279  0.7674 -0.4587  0.1548
    1Sil     Ob    6   1.016   2.307  10.494  0.4096  0.1482  0.9143
    1Sil     Ob    7   1.014   2.209  11.312 -0.1530  0.0688  0.8355
    1Sil     Ob    8   0.776   2.204  10.513  0.4799  0.3101 -0.5718
    1Sil     Ob    9   1.323   2.244  10.916 -0.6866  0.0365  0.4605
    1Sil     Ob   10   0.807   2.005  11.026  0.4860  0.3054 -0.7368
    1Sil     Ob   11   1.133   1.973  10.654  0.2010  0.2446 -0.0327
    1Sil     Ob   12   0.775   2.164  11.225  0.2071  0.2743 -0.0722
    1Sil     Ob   13   1.089   2.163  10.831 -0.1459 -0.0636  0.3790
    1Sil     Ob   14   0.675   2.070  10.812 -0.3502 -0.6337 -0.0916
    1Sil     Ob   15   1.210   2.062  11.222 -0.0950  0.1460  0.1272
    1Sil     Ob   16   0.972   2.043  10.461  0.1775  0.0335  0.4590
    1Sil     Ob   17   1.218   1.961  10.400  0.6489 -0.6074 -0.4196
    1Sil     Ob   18   0.606   1.977  11.183 -0.7501 -0.2954  0.0423
    1Sil     Ob   19   0.911   1.987  10.799  0.8477  0.1320 -0.0120
    1Sil     Ob   20   0.585   2.261  10.659 -0.3363 -0.4396  0.3354
    1Sil     Ob   21   1.110   2.253  11.071 -0.1911 -0.2991 -0.1474
    1Sil     Ob   22   0.740   1.893  12.505 -0.4772 -0.4158 -0.3907
    1Sil     Ob   23   1.374   1.907  11.672  0.1062 -0.1567  0.1173
    1Sil     Ob   24   1.095   1.920  12.055 -0.2789  0.0022  0.4214
    1Sil     Ob   25   0.665   2.318  12.078  0.2347  0.2907  0.0669
    1Sil     Ob   26   1.207   2.322  12.440 -0.3083  0.1014  0.0217
    1Sil     Ob   27   0.961   2.310  11.667 -0.0406  0.1642  0.5217
    1Sil     Ob   28   0.708   2.230  11.705  0.4400  0.0691  0.0569
    1Sil     Ob   29   1.288   2.243  11.948 -0.3276 -0.1419  0.4860
    1Sil     Ob   30   0.637   1.969  12.266  0.7153  0.4852 -0.1306
    1Sil     Ob   31   1.233   1.968  11.462 -0.6749  0.2510  0.4150
    1Sil     Ob   32   0.932   1.967  11.869 -0.8216  0.0219 -0.0731
    1Sil     Ob   33   0.713   2.146  12.454 -0.0540  0.0624  0.0525
    1Sil     Ob   34   1.035   2.165  12.002 -0.2297 -0.7513  0.2967
    1Sil     Ob   35   0.610   2.076  12.028  0.3585  0.1173  0.1329
    1Sil     Ob   36   1.162   2.070  12.355 -0.3328 -0.4131 -0.2085
    1Sil     Ob   37   0.884   2.063  11.637  0.2898 -0.3855  1.1829
    1Sil     Ob   38   1.132   2.004  11.701  0.3090  0.9796 -0.2454
    1Sil     Ob   39   0.509   2.001  12.503 -0.1050  0.1725  0.2507
    1Sil     Ob   40   0.851   2.001  12.113 -0.2974  0.3771  0.1095
    1Sil     Ob   41   0.510   2.251  11.870  1.1195 -0.3344  0.1542
    1Sil     Ob   42   1.200   2.250  12.186 -0.2089 -0.0712 -0.2412
    1Sil     Ob   43   0.808   2.237  11.464 -0.1334  0.0050 -0.3680
    1Sil     Ob   44   0.840   2.409  11.274 -0.2917 -0.5266 -0.4342
    1Sil     Ob   45   1.468   2.404  10.440 -0.4297 -0.1211 -0.2743
    1Sil     Ob   46   1.129   2.414  10.881 -0.0589 -0.2343  0.9645
    1Sil     Ob   47   0.728   2.822  10.870  0.1100  0.6320 -0.6274
    1Sil     Ob   48   1.267   2.798  11.269 -0.1252 -0.2790 -0.2369
    1Sil     Ob   49   1.044   2.814  10.458  0.0067 -0.1222  0.1210
    1Sil     Ob   50   1.034   2.729  11.175 -0.4540  0.0766  0.2497
    1Sil     Ob   51   0.805   2.774  10.422 -0.0661  0.1855 -0.4304
    1Sil     Ob   52   1.318   2.733  10.778  0.2986  0.9960 -0.0773
    1Sil     Ob   53   0.689   2.475  11.082  0.3840 -0.1132 -0.5025
    1Sil     Ob   54   0.979   2.488  10.682  0.1537 -1.0018  0.2934
    1Sil     Ob   55   0.794   2.657  11.224  0.3491 -0.0789  0.6911
    1Sil     Ob   56   1.072   2.664  10.840 -0.6003 -0.0987  0.2572
    1Sil     Ob   57   0.653   2.569  10.844 -0.0472 -0.2541 -0.2328
    1Sil     Ob   58   1.213   2.555  11.201 -0.1327 -0.2369  0.0415
    1Sil     Ob   59   0.954   2.565  10.434 -0.3641 -0.4498 -0.0939
    1Sil     Ob   60   0.598   2.505  11.317 -0.4166  0.0881 -0.1127
    1Sil     Ob   61   0.891   2.495  10.914  0.2226 -0.1742  0.2280
    1Sil     Ob   62   0.673   2.702  10.629 -0.2724 -0.3209 -0.4948
    1Sil     Ob   63   1.240   2.735  11.021  0.2240  0.6799 -0.0702
    1Sil     Ob   64   0.757   2.407  12.490 -0.0336 -0.2953  0.8097
    1Sil     Ob   65   1.408   2.412  11.638 -0.1358 -0.1608 -0.1092
    1Sil     Ob   66   1.101   2.417  12.030  0.4461  0.1150 -0.1284
    1Sil     Ob   67   0.679   2.818  12.034  0.2150 -0.0516 -0.1645
    1Sil     Ob   68   1.180   2.804  12.455 -0.5910 -0.4239  0.4591
    1Sil     Ob   69   0.960   2.807  11.668 -0.3743 -0.0719  0.1253
    1Sil     Ob   70   0.945   2.727  12.504 -0.1595  1.1785 -0.1775
    1Sil     Ob   71   0.733   2.731  11.566  0.2366  0.0590 -0.2706
    1Sil     Ob   72   1.254   2.708  12.107  0.8711 -0.4508  0.2408
    1Sil     Ob   73   0.746   2.489  12.243  0.3187  0.0355 -0.4469
    1Sil     Ob   74   1.360   2.516  11.414  0.0182  0.3601 -0.1464
    1Sil     Ob   75   1.039   2.520  11.808  0.3242 -0.3590 -0.5864
    1Sil     Ob   76   0.702   2.661  12.429 -0.2060  0.4473 -0.0277
    1Sil     Ob   77   1.016   2.654  12.019 -0.0907 -0.2556 -0.1657
    1Sil     Ob   78   0.609   2.572  12.025 -0.0496  1.0349  0.2178
    1Sil     Ob   79   1.117   2.562  12.420  0.0600  0.0187  0.5601
    1Sil     Ob   80   0.924   2.558  11.592  0.1168  0.1032  0.4413
    1Sil     Ob   81   1.165   2.460  11.576  0.1253 -0.0805 -0.2532
    1Sil     Ob   82   0.531   2.481  12.380  0.2092 -0.1043 -0.3592
    1Sil     Ob   83   0.845   2.466  11.985 -0.8426 -0.6638  0.0558
    1Sil     Ob   84   0.640   2.712  11.800 -0.6665 -0.2479  0.0104
    1Sil     Ob   85   1.041   2.749  12.250 -0.2753  0.2535  0.0214
    1Sil     Ob   86   0.945   2.738  11.418  0.0725  0.1952  0.0843
    1Sil     Ob   87   0.859   2.899  11.241  0.4767  0.5439 -0.2231
    1Sil     Ob   88   1.426   2.901  10.461  0.3812  0.3186  0.0730
    1Sil     Ob   89   1.143   2.909  10.870  0.1452  0.3813  0.3359
    1Sil     Ob   90   0.711   3.314  10.858 -0.5450 -0.2504  0.2550
    1Sil     Ob   91   1.267   3.294  11.251  0.5410 -0.0130 -0.0018
    1Sil     Ob   92   1.014   3.310  10.482 -0.4696 -0.1095  0.0201
    1Sil     Ob   93   1.027   3.227  11.308  0.1781 -0.3158  0.1854
    1Sil     Ob   94   0.780   3.201  10.508 -0.0511  0.0014 -0.0406
    1Sil     Ob   95   1.320   3.236  10.904  0.1292  0.1658 -1.2637
    1Sil     Ob   96   0.804   3.012  11.019  0.4148 -0.2030 -0.2807
    1Sil     Ob   97   1.127   3.000  10.631  0.3845 -0.2531 -0.0488
    1Sil     Ob   98   0.781   3.154  11.228 -0.7399 -0.1231 -1.0596
    1Sil     Ob   99   1.087   3.162  10.826 -0.4019 -0.1574 -0.6685
    1Sil     Ob  100   0.660   3.064  10.815  0.1257 -0.0993 -0.1253
    1Sil     Ob  101   1.194   3.045  11.243  0.0868  0.1241  0.9593
    1Sil     Ob  102   0.970   3.052  10.438 -0.3380  0.3710 -0.3914
    1Sil     Ob  103   1.209   3.007  10.386  0.1942  0.3706 -0.2136
    1Sil     Ob  104   0.613   2.968  11.183  0.2021 -0.0643 -0.5769
    1Sil     Ob  105   0.907   2.981  10.779  0.0021  0.1832  0.2891
    1Sil     Ob  106   0.571   3.256  10.654  0.6775 -0.0348 -0.2466
    1Sil     Ob  107   1.109   3.211  11.066  0.2629  0.3334  0.3582
    1Sil     Ob  108   0.774   2.908  12.464 -0.5945 -0.8596 -0.2705
    1Sil     Ob  109   1.392   2.903  11.672  0.1230 -0.0461 -0.4014
    1Sil     Ob  110   1.080   2.900  12.042  0.0334 -0.0486 -0.7027
    1Sil     Ob  111   0.682   3.320  12.077  0.4904 -0.4747 -0.1879
    1Sil     Ob  112   1.210   3.303  12.442 -0.3008  0.0595 -0.0070
    1Sil     Ob  113   0.972   3.301  11.658 -0.1314  0.7486  0.2200
    1Sil     Ob  114   0.974   3.210  12.478 -0.8365 -0.4121  0.1400
    1Sil     Ob  115   0.731   3.215  11.702 -0.5470  0.0338 -0.1422
    1Sil     Ob  116   1.264   3.215  12.097  0.3461  0.3174  0.2645
    1Sil     Ob  117   0.637   2.965  12.253 -1.1520 -0.1952 -0.0937
    1Sil     Ob  118   1.237   2.968  11.478 -0.3189  0.0368 -0.3623
    1Sil     Ob  119   0.926   2.978  11.848 -0.1941  0.2549  0.0683
    1Sil     Ob  120   0.749   3.142  12.401  0.0456 -0.2910  0.3216
    1Sil     Ob  121   1.027   3.152  12.013 -0.2131  0.0362  0.1509
    1Sil     Ob  122   0.608   3.072  12.020 -0.2021 -0.8438 -0.0217
    1Sil     Ob  123   1.158   3.058  12.381 -0.4543 -0.0855  0.0933
    1Sil     Ob  124   0.925   3.057  11.607  0.6331 -0.0395 -0.0173
    1Sil     Ob  125   1.150   2.981  11.714 -0.7410 -0.2560 -0.1150
    1Sil     Ob  126   0.540   3.012  12.480 -0.1994  0.0805 -0.0856
    1Sil     Ob  127   0.850   2.995  12.095  0.1061 -0.5567 -0.2249
    1Sil     Ob  128   0.538   3.268  11.857  0.4177  0.2651 -0.6469
    1Sil     Ob  129   1.062   3.260  12.244  0.2462 -0.6044  0.0612
    1Sil     Ob  130   0.822   3.238  11.458  0.5526 -0.6663 -0.2004
    1Sil     Ob  131   0.843   3.403  11.273  0.0624  0.5232  0.0509
    1Sil     Ob  132   1.469   3.401  10.434  0.1775  0.0978  0.3348
    1Sil     Ob  133   1.122   3.409  10.913 -0.6595  0.1167  0.6188
    1Sil     Ob  134   0.699   3.813  10.873 -0.2810 -0.6744  0.2257
    1Sil     Ob  135   1.252   3.802  11.256 -0.2209  0.2492  0.1893
    1Sil     Ob  136   1.041   3.809  10.479 -0.3159  0.5959  0.2146
    1Sil     Ob  137   1.024   3.718  11.165  0.0753  0.0945 -0.2390
    1Sil     Ob  138   0.796   3.778  10.404 -0.1192  0.3671 -0.4106
    1Sil     Ob  139   1.331   3.731  10.776  0.4129 -0.4121  0.1761
    1Sil     Ob  140   0.689   3.448  11.073 -0.3967  0.4091 -0.1496
    1Sil     Ob  141   0.989   3.457  10.697  0.2536  0.0233  0.1523
    1Sil     Ob  142   0.778   3.643  11.212  0.0662 -0.4837 -0.4874
    1Sil     Ob  143   1.084   3.655  10.818  0.3937  0.8517  0.0949
    1Sil     Ob  144   0.629   3.565  10.845  0.0348 -0.2798  0.3426
    1Sil     Ob  145   1.205   3.548  11.236 -0.6565 -0.2484  0.2277
    1Sil     Ob  146   0.948   3.562  10.454  0.0612 -0.5606 -0.6761
    1Sil     Ob  147   0.604   3.490  11.317  0.2067 -0.5762 -0.1165
    1Sil     Ob  148   0.883   3.511  10.923 -0.4385 -0.3459 -0.4075
    1Sil     Ob  149   0.680   3.706  10.628  0.5615 -0.0833 -0.0613
    1Sil     Ob  150   1.232   3.701  11.022  0.1069  0.2380 -0.4086
    1Sil     Ob  151   0.800   3.407  12.457  0.2362 -0.0181 -0.1870
    1Sil     Ob  152   1.383   3.394  11.672  0.2000 -0.1987  0.5971
    1Sil     Ob  153   1.098   3.407  12.049 -0.5369  0.4569 -0.2842
    1Sil     Ob  154   0.662   3.811  12.062 -0.1748  1.0390 -0.1662
    1Sil     Ob  155   1.212   3.809  12.441  0.4085 -0.2784 -0.0498
    1Sil     Ob  156   0.948   3.807  11.668  0.1429 -0.0152 -0.4768
    1Sil     Ob  157   0.725   3.721  11.569  0.0365  0.5979  0.0939
    1Sil     Ob  158   1.295   3.745  11.950 -0.2969 -0.2687 -0.2032
    1Sil     Ob  159   0.768   3.516  12.224 -0.0637  0.1575 -0.0528
    1Sil     Ob  160   1.364   3.455  11.427  0.2276  0.0253  0.7335
    1Sil     Ob  161   1.065   3.486  11.807 -0.1827 -0.4179  0.0418
    1Sil     Ob  162   0.710   3.654  12.449 -0.0482 -0.1648 -0.0036
    1Sil     Ob  163   1.053   3.656  11.998  0.9022  0.0249  0.0404
    1Sil     Ob  164   0.614   3.560  12.013  0.2407 -0.1180 -0.1611
    1Sil     Ob  165   1.174   3.557  12.379 -0.2935 -0.0994 -0.3398
    1Sil     Ob  166   0.900   3.547  11.613 -0.1959  0.4797 -0.9515
    1Sil     Ob  167   1.148   3.451  11.568  0.5409 -0.4016  0.7658
    1Sil     Ob  168   0.563   3.459  12.373  0.0931 -0.3216  0.2263
    1Sil     Ob  169   0.859   3.481  11.977 -0.3727 -0.6834  0.0528
    1Sil     Ob  170   0.651   3.716  11.812 -0.2474  0.1420 -0.5697
    1Sil     Ob  171   1.216   3.735  12.193  0.4684 -0.1951  0.4233
    1Sil     Ob  172   0.935   3.705  11.413  0.5790 -0.7543 -0.0879
    1Sil     Ob  173   0.841   3.885  11.264  0.1034  0.0689  0.2729
    1Sil     Ob  174   1.447   3.886  10.455  0.9205 -0.2694 -0.4105
    1Sil     Ob  175   1.153   3.906  10.869 -0.2058  0.4438 -0.3416
    1Sil     Ob  176   0.719   4.307  10.856  0.2799  0.1716 -0.3613
    1Sil     Ob  177   1.252   4.297  11.263 -0.1101  0.1597 -0.0812
    1Sil     Ob  178   1.004   4.299  10.488  0.3447 -0.2006  0.2086
    1Sil     Ob  179   1.011   4.216  11.310  0.1116  0.1418  0.2585
    1Sil     Ob  180   0.770   4.189  10.511 -0.2233 -0.3220 -0.0932
    1Sil     Ob  181   1.302   4.214  10.899  0.3771 -0.1506  0.2908
    1Sil     Ob  182   0.796   4.001  11.029 -0.3286  0.1815 -0.7865
    1Sil     Ob  183   1.119   3.995  10.632  0.1965  0.1615 -0.5241
    1Sil     Ob  184   0.778   4.150  11.229  0.1326 -0.4854 -0.1427
    1Sil     Ob  185   1.074   4.152  10.832 -0.3632 -0.1902  0.3338
    1Sil     Ob  186   0.663   4.052  10.816  0.2817 -0.0310  0.1403
    1Sil     Ob  187   1.195   4.051  11.226 -0.4149 -0.1799  0.2335
    1Sil     Ob  188   0.970   4.045  10.448 -0.4795 -0.2970  0.2608
    1Sil     Ob  189   1.210   3.976  10.391  0.4902  0.2568 -0.3800
    1Sil     Ob  190   0.595   3.961  11.184  0.1850  0.2880  0.3278
    1Sil     Ob  191   0.905   3.951  10.794 -0.1871 -0.6062 -0.3212
    1Sil     Ob  192   0.570   4.239  10.659 -0.7125 -0.1690 -0.4133
    1Sil     Ob  193   1.096   4.230  11.068 -0.0004  0.1805 -0.0239
    1Sil     Ob  194   0.770   3.895  12.498 -0.2035 -0.3453  0.7978
    1Sil     Ob  195   1.391   3.886  11.650 -0.4330  0.3346 -0.3266
    1Sil     Ob  196   1.114   3.901  12.033  0.4779 -1.3042 -0.2247
    1Sil     Ob  197   0.667   4.301  12.044  0.0169 -0.2957  0.2132
    1Sil     Ob  198   1.204   4.287  12.437  0.1338  0.1057  0.2159
    1Sil     Ob  199   0.963   4.292  11.665 -0.1889 -0.1151 -0.1081
    1Sil     Ob  200   0.981   4.199  12.490  0.2090 -0.0699  0.3910
    1Sil     Ob  201   0.705   4.198  11.699  0.2083 -0.1381 -0.0224
    1Sil     Ob  202   1.262   4.225  12.089  0.7281  0.1801  0.2584
    1Sil     Ob  203   0.771   3.977  12.233  0.4380  0.5704 -0.6297
    1Sil     Ob  204   1.350   3.982  11.417  0.3948  0.0451 -0.1806
    1Sil     Ob  205   1.059   3.974  11.813 -0.2382  0.0971  0.1948
    1Sil     Ob  206   0.737   4.151  12.433  0.0801 -0.2759  0.3558
    1Sil     Ob  207   1.025   4.152  11.998 -1.0265  0.8667 -0.3291
    1Sil     Ob  208   0.621   4.051  12.030 -0.0359  0.3078 -0.1916
    1Sil     Ob  209   1.158   4.047  12.376 -0.4344  0.3791  0.4027
    1Sil     Ob  210   0.914   4.049  11.604 -0.4033 -0.1630 -0.1683
    1Sil     Ob  211   1.151   3.932  11.578  0.4203 -0.1461  0.0229
    1Sil     Ob  212   0.553   3.975  12.381  0.5160  0.1995 -0.5041
    1Sil     Ob  213   0.854   3.949  11.978 -0.0529  0.1300  0.1024
    1Sil     Ob  214   0.505   4.226  11.859 -0.1027 -0.0348 -0.2482
    1Sil     Ob  215   1.044   4.232  12.231 -0.2416  0.2736  0.1735
    1Sil     Ob  216   0.814   4.240  11.470  0.4299 -0.2284 -0.6835
    1Sil     Ob  217   0.833   4.390  11.258  0.0963  0.1414 -0.7144
    1Sil     Ob  218   1.486   4.387  10.427  0.0057 -0.1862  0.2404
    1Sil     Ob  219   1.126   4.400  10.863 -0.3969  0.6730 -0.1230
    1Sil     Ob  220   0.717   4.793  10.864 -0.4573  0.4671  0.2240
    1Sil     Ob  221   1.272   4.794  11.271  0.1826 -0.0132 -0.2023
    1Sil     Ob  222   1.048   4.808  10.468  0.5137 -0.1949  0.8470
    1Sil     Ob  223   1.031   4.736  11.188  0.0389 -0.3636 -0.5134
    1Sil     Ob  224   0.808   4.768  10.411 -0.5268  0.1168  0.3935
    1Sil     Ob  225   1.317   4.717  10.777  0.4705 -0.4359 -0.0965
    1Sil     Ob  226   0.682   4.456  11.067  0.1732 -0.2177 -0.0929
    1Sil     Ob  227   0.972   4.473  10.685 -0.1010 -0.2033  0.2428
    1Sil     Ob  228   0.780   4.638  11.224 -0.0241 -0.4426 -0.2928
    1Sil     Ob  229   1.068   4.651  10.848  0.1600 -0.1810  0.1586
    1Sil     Ob  230   0.646   4.544  10.834 -0.0080  0.2028 -0.0459
    1Sil     Ob  231   1.205   4.552  11.226  0.2740  0.1968 -0.2593
    1Sil     Ob  232   0.959   4.558  10.439  0.2417 -0.3529 -0.0109
    1Sil     Ob  233   0.597   4.468  11.310  0.3031  0.7170 -0.2543
    1Sil     Ob  234   0.891   4.493  10.920  0.0555  0.1258 -0.0001
    1Sil     Ob  235   0.688   4.686  10.629  0.1645 -0.2346  0.4357
    1Sil     Ob  236   1.236   4.708  11.032  0.2738 -0.3455 -0.4580
    1Sil     Ob  237   0.800   4.391  12.448 -0.5421  0.6024 -0.3252
    1Sil     Ob  238   1.390   4.379  11.669  0.1306  0.5328 -0.1156
    1Sil     Ob  239   1.070   4.400  12.037 -0.5267 -0.1032  0.4151
    1Sil     Ob  240   0.683   4.794  12.055 -0.3344 -0.7913 -0.3938
    1Sil     Ob  241   1.192   4.779  12.473 -0.5726  0.5615  0.2633
    1Sil     Ob  242   0.955   4.786  11.658 -0.1253 -0.1282  0.4881
    1Sil     Ob  243   0.950   4.697  12.491  0.0128  0.2693 -0.3457
    1Sil     Ob  244   0.724   4.702  11.573  0.6935  0.9305 -0.9147
    1Sil     Ob  245   1.263   4.714  12.108  0.2051  0.2879  0.8315
    1Sil     Ob  246   0.640   4.442  12.253 -0.0013  0.1503  0.2905
    1Sil     Ob  247   1.238   4.456  11.470  0.6095  0.0910  0.3124
    1Sil     Ob  248   0.930   4.471  11.847  0.0982  0.3315 -0.2695
    1Sil     Ob  249   0.709   4.631  12.409 -0.1569 -0.1009  0.5113
    1Sil     Ob  250   1.031   4.654  12.008  0.0063 -0.0270  0.0140
    1Sil     Ob  251   0.596   4.552  12.019  0.2631  0.2740  0.3321
    1Sil     Ob  252   1.132   4.534  12.408 -0.3263 -0.0031 -0.3444
    1Sil     Ob  253   0.923   4.534  11.595 -0.2318 -0.4778 -0.1631
    1Sil     Ob  254   1.144   4.470  11.703 -0.3919  0.9392  0.0846
    1Sil     Ob  255   0.552   4.447  12.494  0.6004  0.2379  0.1751
    1Sil     Ob  256   0.835   4.494  12.088 -0.2122 -0.6339 -0.3287
    1Sil     Ob  257   0.644   4.693  11.817 -0.3596 -0.1898 -0.0552
    1Sil     Ob  258   1.059   4.741  12.260 -0.0907  0.6913  0.3422
    1Sil     Ob  259   0.936   4.701  11.413  0.5538  1.1068  0.3172
    1Sil     Ob  260   0.840   4.887  11.260 -0.0564  0.1151 -0.1865
    1Sil     Ob  261   1.420   4.879  10.463  0.3106 -0.1700 -0.5662
    1Sil     Ob  262   1.152   4.885  10.875  0.5062  0.2505  0.4739
    1Sil     Ob  263   0.714   1.819  10.870  0.5235  0.0794  0.1094
    1Sil     Ob  264   1.249   1.807  11.278 -0.2686 -0.1169 -0.1635
    1Sil     Ob  265   1.028   1.808  10.497  0.5166 -0.1162  0.7841
    1Sil     Ob  266   1.014   1.736  11.311  0.8423  0.7195 -0.3052
    1Sil     Ob  267   0.788   1.733  10.521 -0.5862 -0.0250  0.0105
    1Sil     Ob  268   1.319   1.737  10.926 -0.1837  0.4251 -0.3363
    1Sil     Ob  269   0.809   4.982  11.019 -0.4582  0.3052  0.0138
    1Sil     Ob  270   1.123   4.975  10.635  0.1733  0.1396 -0.4546
    1Sil     Ob  271   0.780   5.143  11.216 -0.2859 -0.0110 -0.6975
    1Sil     Ob  272   1.084   5.132  10.829  0.0039  0.2293  0.0225
    1Sil     Ob  273   0.685   1.566  10.804 -0.1204  0.2493 -0.2934
    1Sil     Ob  274   1.191   1.558  11.244  0.4251 -0.2301  0.4926
    1Sil     Ob  275   0.963   1.570  10.451 -0.2877  0.2084  0.1135
    1Sil     Ob  276   1.194   4.989  10.382  0.6853  0.3338  0.1560
    1Sil     Ob  277   0.599   4.952  11.180 -0.0922 -0.2735  0.3312
    1Sil     Ob  278   0.909   4.936  10.784 -0.2607 -0.4830  0.4693
    1Sil     Ob  279   0.576   1.756  10.660 -0.5080 -0.2742 -0.1029
    1Sil     Ob  280   1.108   1.737  11.079 -0.0727  0.0067 -0.5146
    1Sil     Ob  281   0.767   4.880  12.480  0.0893  0.2708  0.1279
    1Sil     Ob  282   1.385   4.883  11.669 -0.2445 -0.1763 -0.0561
    1Sil     Ob  283   1.096   4.902  12.064 -0.5983 -0.6993 -0.3206
    1Sil     Ob  284   0.674   1.825  12.056 -0.0644 -0.1048  0.3994
    1Sil     Ob  285   1.167   1.812  12.437 -0.4625 -0.4847  0.2328
    1Sil     Ob  286   0.960   1.818  11.658 -0.2331  0.0430  0.0768
    1Sil     Ob  287   0.728   1.729  11.702  0.4816  0.1469 -0.1413
    1Sil     Ob  288   1.291   1.774  11.964  0.6845 -0.4449 -0.3845
    1Sil     Ob  289   0.760   4.970  12.242 -0.0700 -0.1164  0.4774
    1Sil     Ob  290   1.357   4.968  11.431 -0.0918  0.2021 -0.3366
    1Sil     Ob  291   1.057   4.972  11.818  0.4139 -0.6861  0.3240
    1Sil     Ob  292   0.693   5.123  12.453 -0.3198 -0.5007 -0.4566
    1Sil     Ob  293   1.045   5.148  12.001  0.2288 -0.4268 -0.0508
    1Sil     Ob  294   0.609   1.569  12.038 -0.3156 -0.0635  0.2221
    1Sil     Ob  295   1.151   1.557  12.389 -0.0460 -0.3233 -0.6077
    1Sil     Ob  296   0.903   1.566  11.616  0.0768  0.3905 -0.1419
    1Sil     Ob  297   1.150   4.947  11.576 -0.5531 -0.1115 -0.2856
    1Sil     Ob  298   0.529   4.935  12.381 -0.6070 -0.0057 -0.4592
    1Sil     Ob  299   0.857   4.976  11.991 -0.4228 -0.0111 -0.2586
    1Sil     Ob  300   0.521   1.743  11.862 -0.4529  0.9452 -0.4795
    1Sil     Ob  301   1.191   1.739  12.196  0.7984 -0.4822  0.5857
    1Sil     Ob  302   0.809   1.747  11.461  0.0775 -0.1402  0.1299
    1Sil     Ob  303   1.689   1.913  11.263 -0.3400  0.4468  0.4830
    1Sil     Ob  304   2.317   1.920  10.425  0.3050 -0.6105 -0.3492
    1Sil     Ob  305   1.978   1.915  10.889 -0.0979  0.0542 -0.4921
    1Sil     Ob  306   1.560   2.316  10.862  0.2255 -0.2548  0.0275
    1Sil     Ob  307   2.083   2.313  11.270  0.1880 -0.4555  0.3556
    1Sil     Ob  308   1.864   2.308  10.472  1.1702 -0.3515  0.3153
    1Sil     Ob  309   1.862   2.234  11.182  0.3625 -0.4011 -0.0858
    1Sil     Ob  310   1.626   2.216  10.512  0.3843  0.0386  0.0125
    1Sil     Ob  311   2.164   2.239  10.792 -0.6931  0.0142  0.8397
    1Sil     Ob  312   1.531   1.981  11.066 -0.0899  0.0998 -0.0492
    1Sil     Ob  313   1.826   1.977  10.690 -0.0876 -0.4182  0.0446
    1Sil     Ob  314   1.614   2.157  11.250  0.4795  0.7133 -0.2920
    1Sil     Ob  315   1.396   2.155  10.422  0.2885  0.4445 -0.0578
    1Sil     Ob  316   1.924   2.159  10.842 -0.7245  0.6184  0.2243
    1Sil     Ob  317   1.499   2.071  10.832  0.6597  0.1696  0.1808
    1Sil     Ob  318   2.055   2.071  11.214 -0.1720  0.2638 -0.1357
    1Sil     Ob  319   1.820   2.060  10.441 -0.1873  0.1818 -0.0182
    1Sil     Ob  320   1.434   1.984  11.311  0.2378  0.2634 -0.1351
    1Sil     Ob  321   1.739   2.004  10.922 -0.0567  0.2590 -0.7467
    1Sil     Ob  322   1.416   2.247  10.664  0.2637  0.1766  0.6427
    1Sil     Ob  323   2.081   2.237  11.030 -0.1387 -0.3693  0.4925
    1Sil     Ob  324   1.595   1.896  12.483  0.4219 -0.1284  0.4356
    1Sil     Ob  325   2.247   1.903  11.636 -0.0024 -0.0155  0.0925
    1Sil     Ob  326   1.932   1.911  12.029  0.0973  0.1719  0.5121
    1Sil     Ob  327   1.530   2.314  12.040  0.1980 -0.2756  0.0708
    1Sil     Ob  328   2.069   2.300  12.434  0.2381  0.3515  0.0639
    1Sil     Ob  329   1.804   2.299  11.672  0.1123  0.7659  1.4046
    1Sil     Ob  330   1.577   2.225  11.564  0.3198  0.2839 -0.2947
    1Sil     Ob  331   2.131   2.264  11.957  0.4435  0.8500  0.3289
    1Sil     Ob  332   1.601   1.995  12.234 -0.2735  0.4306 -0.4390
    1Sil     Ob  333   2.197   2.020  11.412 -0.8512  0.3201 -0.0044
    1Sil     Ob  334   1.900   2.003  11.798 -0.3961 -0.0050 -0.0077
    1Sil     Ob  335   1.537   2.136  12.447  0.3633 -0.2597  0.4193
    1Sil     Ob  336   1.327   2.154  11.611  0.1272  0.1352  0.0563
    1Sil     Ob  337   1.886   2.165  11.989  0.5918 -0.3800  0.1627
    1Sil     Ob  338   1.467   2.069  12.017 -0.6980 -0.7492  0.3865
    1Sil     Ob  339   1.999   2.056  12.391 -0.0995  0.0756  0.2344
    1Sil     Ob  340   1.774   2.063  11.585 -0.0772 -0.3909 -0.4763
    1Sil     Ob  341   2.001   1.954  11.571 -0.3390  0.6923  0.0249
    1Sil     Ob  342   1.382   1.945  12.367 -0.4005 -0.2317  0.0509
    1Sil     Ob  343   1.693   1.992  11.967 -0.3626 -0.3291 -0.1346
    1Sil     Ob  344   1.493   2.217  11.800 -0.6768  0.0463  0.1207
    1Sil     Ob  345   2.037   2.214  12.195 -0.2542  1.0727 -0.1929
    1Sil     Ob  346   1.783   2.234  11.418  0.2293  0.7942 -0.4559
    1Sil     Ob  347   1.691   2.407  11.257  0.3741  0.2266 -0.1951
    1Sil     Ob  348   2.274   2.402  10.481  0.2811 -0.4605  0.0239
    1Sil     Ob  349   1.993   2.413  10.870 -0.6037  0.3340  0.3279
    1Sil     Ob  350   1.547   2.816  10.861 -0.2126  1.0440 -0.3003
    1Sil     Ob  351   2.076   2.826  11.281  0.4898 -0.3602  0.2119
    1Sil     Ob  352   1.886   2.811  10.472 -0.1867 -0.0184 -0.3769
    1Sil     Ob  353   1.858   2.707  11.307 -0.3547  0.4129 -0.6081
    1Sil     Ob  354   1.639   2.772  10.384  0.3344 -0.2973  0.1645
    1Sil     Ob  355   2.158   2.747  10.920 -0.4382 -0.4568  0.3287
    1Sil     Ob  356   1.646   2.513  11.018 -0.1477  0.6553 -0.5731
    1Sil     Ob  357   1.946   2.507  10.634 -0.2092  0.2910 -1.0490
    1Sil     Ob  358   1.617   2.646  11.234 -0.1302  0.4745  0.3869
    1Sil     Ob  359   1.417   2.646  10.389  0.2780 -0.0909  0.1633
    1Sil     Ob  360   1.929   2.670  10.830  0.4314  0.8155 -0.4861
    1Sil     Ob  361   1.503   2.567  10.815 -0.6567  0.0742 -0.1620
    1Sil     Ob  362   2.055   2.570  11.214 -0.0070 -0.2607  0.3284
    1Sil     Ob  363   1.799   2.569  10.427 -0.3089 -0.0330  0.3421
    1Sil     Ob  364   2.044   2.473  10.391 -0.5377  0.0766  0.2571
    1Sil     Ob  365   1.444   2.463  11.179 -0.1581  0.2455 -0.3409
    1Sil     Ob  366   1.749   2.486  10.788  0.0408  0.0017 -0.4684
    1Sil     Ob  367   1.525   2.720  10.616  0.6500  0.1875 -0.3448
    1Sil     Ob  368   1.952   2.745  11.071 -0.4468  0.3303  0.4589
    1Sil     Ob  369   1.579   2.379  12.508 -0.4981  0.3547  0.4254
    1Sil     Ob  370   2.239   2.400  11.635 -0.5505  0.4432 -0.1300
    1Sil     Ob  371   1.944   2.409  12.067  0.1590  0.1018  0.3989
    1Sil     Ob  372   1.497   2.801  12.078  0.4268 -0.4676  0.4792
    1Sil     Ob  373   2.054   2.821  12.460  0.8258  0.2977  0.5441
    1Sil     Ob  374   1.811   2.803  11.681 -0.7504  0.4759 -0.1463
    1Sil     Ob  375   1.821   2.694  12.503  0.6091  0.5082 -0.4862
    1Sil     Ob  376   1.571   2.714  11.710 -0.2456 -0.1577 -0.3039
    1Sil     Ob  377   2.111   2.744  12.105 -0.5189 -0.2634 -0.1045
    1Sil     Ob  378   1.490   2.441  12.261 -0.0744 -0.4606  0.0458
    1Sil     Ob  379   2.072   2.483  11.455 -0.0346  0.3795 -0.2893
    1Sil     Ob  380   1.790   2.464  11.871 -0.9071  0.1285 -0.6342
    1Sil     Ob  381   1.585   2.627  12.420 -0.0784 -0.0192 -0.0017
    1Sil     Ob  382   1.335   2.662  11.619  0.7512  0.4861 -0.1338
    1Sil     Ob  383   1.890   2.658  12.020  0.5365 -0.0458 -0.1429
    1Sil     Ob  384   1.448   2.555  12.031 -0.3694  0.1600 -0.2086
    1Sil     Ob  385   2.021   2.558  12.407 -0.5841  0.0445  0.2885
    1Sil     Ob  386   1.760   2.555  11.622  0.0875 -0.4836  0.0363
    1Sil     Ob  387   1.993   2.468  11.708 -0.2938 -0.0765  0.4072
    1Sil     Ob  388   1.366   2.524  12.477  0.1786 -0.1428  0.6210
    1Sil     Ob  389   1.697   2.508  12.100  0.2180  0.1804  0.0609
    1Sil     Ob  390   1.363   2.736  11.860 -0.2180 -0.3455  0.2577
    1Sil     Ob  391   1.906   2.739  12.264 -0.0818  0.2098 -0.3078
    1Sil     Ob  392   1.663   2.741  11.470  0.3846 -0.1877 -0.5646
    1Sil     Ob  393   1.670   2.890  11.262 -0.1576 -0.3688 -0.2176
    1Sil     Ob  394   2.322   2.900  10.457  0.2709 -0.0953 -0.0655
    1Sil     Ob  395   1.966   2.917  10.885  0.0609  0.5669 -0.4257
    1Sil     Ob  396   1.558   3.303  10.864 -0.2669 -0.1667 -0.3106
    1Sil     Ob  397   2.097   3.303  11.279 -0.6563 -0.5557  0.2459
    1Sil     Ob  398   1.869   3.314  10.480 -0.0734 -0.5189 -0.5351
    1Sil     Ob  399   1.861   3.200  11.298  0.0977 -0.0912 -0.0693
    1Sil     Ob  400   1.635   3.220  10.504 -0.3417 -0.0319 -0.2833
    1Sil     Ob  401   2.164   3.213  10.895  0.1602  0.1476  0.3959
    1Sil     Ob  402   1.515   2.980  11.064  0.7328  0.4097 -0.4341
    1Sil     Ob  403   1.820   2.970  10.686  0.3336  0.5195  0.3429
    1Sil     Ob  404   1.624   3.149  11.225 -0.1502  0.4396 -0.2031
    1Sil     Ob  405   1.407   3.160  10.408 -0.3604 -0.2068 -0.5709
    1Sil     Ob  406   1.912   3.161  10.832 -0.5293  0.1353  0.4788
    1Sil     Ob  407   1.490   3.063  10.819 -0.0419 -0.3201  0.2975
    1Sil     Ob  408   2.070   3.071  11.197  0.1075  0.0772 -0.0821
    1Sil     Ob  409   1.828   3.060  10.446 -0.2180  0.0713  0.5082
    1Sil     Ob  410   1.434   2.991  11.315  0.2121  0.0491 -0.4750
    1Sil     Ob  411   1.727   2.986  10.922  0.2149  0.4091  0.4631
    1Sil     Ob  412   1.412   3.248  10.653  0.4298  0.5290  0.0535
    1Sil     Ob  413   1.975   3.259  11.068  1.1988  0.6427  0.5015
    1Sil     Ob  414   1.641   2.884  12.456 -0.5011  0.2261 -0.1899
    1Sil     Ob  415   2.228   2.894  11.646 -0.2675 -0.3840 -0.0023
    1Sil     Ob  416   1.928   2.905  12.065  0.5417  0.0625  0.2988
    1Sil     Ob  417   1.512   3.314  12.072  0.0104 -0.1348  0.1842
    1Sil     Ob  418   2.031   3.298  12.471 -0.0062 -0.4655  0.3838
    1Sil     Ob  419   1.808   3.301  11.672  0.4336 -0.0801 -0.2467
    1Sil     Ob  420   1.795   3.207  12.490  0.0768 -0.4610 -0.0375
    1Sil     Ob  421   1.568   3.209  11.694  0.0537 -0.0974 -0.0326
    1Sil     Ob  422   2.093   3.219  12.100  0.4871  0.4996  0.4303
    1Sil     Ob  423   1.595   2.992  12.232 -0.4838  0.3547 -0.1179
    1Sil     Ob  424   2.188   3.007  11.418 -0.7094  0.4470 -0.1880
    1Sil     Ob  425   1.890   2.997  11.821  0.2314 -0.2646 -0.1516
    1Sil     Ob  426   1.549   3.126  12.444 -0.2282 -0.1641 -0.5251
    1Sil     Ob  427   1.325   3.152  11.625  0.6865 -0.1865 -0.2311
    1Sil     Ob  428   1.859   3.154  12.022  0.2362  0.4785 -0.1658
    1Sil     Ob  429   1.457   3.060  12.012  0.3132  0.1079 -0.2086
    1Sil     Ob  430   1.977   3.057  12.407  0.1419  0.1799  0.6502
    1Sil     Ob  431   1.761   3.054  11.614  0.0934  0.1377 -0.1822
    1Sil     Ob  432   1.990   2.961  11.589  0.0453 -1.1043  0.6923
    1Sil     Ob  433   1.388   2.933  12.380 -0.9232  0.6117 -0.2789
    1Sil     Ob  434   1.693   2.959  11.996 -0.3851 -0.3278 -0.0136
    1Sil     Ob  435   1.367   3.247  11.863  0.6068 -0.0889 -0.8403
    1Sil     Ob  436   1.896   3.249  12.251 -0.1246  0.0424 -0.4622
    1Sil     Ob  437   1.666   3.243  11.461 -0.5959 -0.7680  0.1599
    1Sil     Ob  438   1.688   3.390  11.261  0.2707  0.0479 -0.6698
    1Sil     Ob  439   2.304   3.400  10.453  0.1264  0.3725  0.6711
    1Sil     Ob  440   1.990   3.409  10.855 -0.2393  0.1130 -0.5006
    1Sil     Ob  441   1.564   3.803  10.848  0.4367 -0.0030  0.1211
    1Sil     Ob  442   2.108   3.801  11.257 -0.2940  0.6496  0.7075
    1Sil     Ob  443   1.877   3.800  10.461  0.5992  0.0235  0.4922
    1Sil     Ob  444   1.870   3.730  11.174  0.9465  0.0774 -0.1166
    1Sil     Ob  445   1.646   3.756  10.379 -1.0951  0.3429 -0.7436
    1Sil     Ob  446   2.164   3.739  10.786  0.1126 -0.5055 -0.1054
    1Sil     Ob  447   1.651   3.484  11.026  1.0422 -0.5338 -0.7579
    1Sil     Ob  448   1.952   3.502  10.630  0.3170  0.1356  0.6629
    1Sil     Ob  449   1.628   3.636  11.232  0.5108  0.4653  0.3121
    1Sil     Ob  450   1.415   3.639  10.364 -0.0463 -0.6878  0.6237
    1Sil     Ob  451   1.918   3.650  10.828  0.3363 -0.7444  0.0322
    1Sil     Ob  452   1.507   3.563  10.836 -0.2775  0.3592 -0.1996
    1Sil     Ob  453   2.049   3.544  11.219 -0.2451  0.8809  0.4034
    1Sil     Ob  454   1.818   3.556  10.414 -0.1272  0.0710 -0.4116
    1Sil     Ob  455   2.054   3.457  10.400  0.3226 -0.4875  0.1723
    1Sil     Ob  456   1.441   3.461  11.182 -0.0717 -0.8814 -0.3508
    1Sil     Ob  457   1.749   3.459  10.788  0.2441 -0.1136  0.1667
    1Sil     Ob  458   1.521   3.689  10.604 -0.5332  0.2327 -0.5918
    1Sil     Ob  459   2.078   3.715  11.027  0.0230 -0.9127  0.1148
    1Sil     Ob  460   1.620   3.381  12.427 -0.1200 -0.4348  0.3468
    1Sil     Ob  461   2.222   3.401  11.664 -0.0654  1.0463  0.6332
    1Sil     Ob  462   1.926   3.410  12.047 -0.2009  0.6765 -0.2396
    1Sil     Ob  463   1.539   3.797  12.046 -0.3130  0.6478 -0.5400
    1Sil     Ob  464   2.056   3.799  12.429 -0.6412 -0.1925  0.4648
    1Sil     Ob  465   1.796   3.792  11.648  0.2854  0.5075 -0.6015
    1Sil     Ob  466   1.565   3.720  11.553 -0.0106 -0.3842 -0.1270
    1Sil     Ob  467   2.117   3.761  11.970  0.1070 -0.2217 -0.2649
    1Sil     Ob  468   1.492   3.509  12.254 -0.1026 -0.2168 -0.2912
    1Sil     Ob  469   2.069   3.473  11.464 -0.2758  0.2293  0.4936
    1Sil     Ob  470   1.763   3.478  11.843 -0.8802 -0.0279 -0.2917
    1Sil     Ob  471   1.592   3.635  12.465 -0.0154  0.4280  0.4667
    1Sil     Ob  472   1.334   3.634  11.615  0.3207 -0.0930  0.2068
    1Sil     Ob  473   1.868   3.655  11.992  0.2210  0.2549 -0.5900
    1Sil     Ob  474   1.473   3.556  12.000 -0.1808  0.3749 -0.0105
    1Sil     Ob  475   2.013   3.548  12.394 -0.1682 -0.1158 -0.2728
    1Sil     Ob  476   1.741   3.544  11.593 -0.7539 -0.6080  0.1192
    1Sil     Ob  477   1.976   3.494  11.699 -0.3444  0.0720 -0.3749
    1Sil     Ob  478   1.393   3.469  12.496 -0.0300  0.0650  0.0547
    1Sil     Ob  479   1.693   3.492  12.096 -0.2367 -0.1875  0.0994
    1Sil     Ob  480   1.508   3.710  11.797 -0.3660 -0.5324 -0.2112
    1Sil     Ob  481   2.022   3.708  12.192 -0.1756  0.8360  0.5181
    1Sil     Ob  482   1.776   3.714  11.411  0.0545 -0.0197  0.2543
    1Sil     Ob  483   1.677   3.891  11.258  0.1002 -0.1462 -0.0734
    1Sil     Ob  484   2.268   3.900  10.464  0.2638 -0.4463 -0.2679
    1Sil     Ob  485   1.967   3.895  10.877 -0.0317 -0.2660 -0.3232
    1Sil     Ob  486   1.547   4.304  10.872  0.2120 -0.1434  0.2386
    1Sil     Ob  487   2.098   4.286  11.273  0.2330 -0.2651  0.0739
    1Sil     Ob  488   1.855   4.294  10.484  0.3486  0.5552  0.2468
    1Sil     Ob  489   1.854   4.199  11.306 -0.6465 -0.3720 -0.3132
    1Sil     Ob  490   1.625   4.192  10.515 -0.0136 -0.0848 -0.1108
    1Sil     Ob  491   2.145   4.207  10.905  0.3634  0.0796  0.1850
    1Sil     Ob  492   1.636   3.971  11.017  0.8332 -0.0575 -0.2636
    1Sil     Ob  493   1.950   3.987  10.620 -0.2484  0.8233 -0.5710
    1Sil     Ob  494   1.616   4.141  11.211 -0.5532  0.0626  0.3795
    1Sil     Ob  495   1.401   4.144  10.407  0.8956  0.6055 -0.3188
    1Sil     Ob  496   1.910   4.141  10.826 -0.2153 -0.7179 -0.2844
    1Sil     Ob  497   1.490   4.053  10.809  0.9758 -0.1779  0.6451
    1Sil     Ob  498   2.039   4.042  11.214 -0.1543  0.4047 -0.3536
    1Sil     Ob  499   1.808   4.042  10.420  0.0008 -0.1077  0.2746
    1Sil     Ob  500   2.045   3.980  10.371  0.0411 -0.2360  0.6479
    1Sil     Ob  501   1.431   3.965  11.179 -0.7014 -0.0425  0.1005
    1Sil     Ob  502   1.733   3.981  10.773 -0.3298 -0.4913  0.4626
    1Sil     Ob  503   1.415   4.246  10.649 -0.8150 -0.0012  0.2229
    1Sil     Ob  504   1.943   4.231  11.071  0.2984 -0.3358 -0.2845
    1Sil     Ob  505   1.597   3.891  12.499  0.0081  0.1478  0.2511
    1Sil     Ob  506   2.221   3.888  11.658  0.2487 -0.4385  0.0622
    1Sil     Ob  507   1.914   3.900  12.055  0.2914  0.9902  0.2878
    1Sil     Ob  508   1.495   4.304  12.042 -0.0091  0.2557  0.1594
    1Sil     Ob  509   2.038   4.284  12.434 -0.0936  0.3823 -0.4758
    1Sil     Ob  510   1.797   4.282  11.650 -0.3449 -0.4722  0.2113
    1Sil     Ob  511   1.796   4.227  12.488 -0.1100  0.9101  0.1448
    1Sil     Ob  512   1.565   4.196  11.691  0.3144 -0.1136  0.3180
    1Sil     Ob  513   2.103   4.228  12.102  0.3661 -0.0906 -0.3290
    1Sil     Ob  514   1.604   3.966  12.237 -0.0745  0.4930 -0.1036
    1Sil     Ob  515   2.195   3.985  11.422  0.4171  0.1575  0.4401
    1Sil     Ob  516   1.888   3.976  11.807  0.0242 -0.7908 -0.4053
    1Sil     Ob  517   1.562   4.140  12.418 -0.3910  0.3209 -0.3171
    1Sil     Ob  518   1.319   4.138  11.611  0.3136  0.0959  0.0344
    1Sil     Ob  519   1.883   4.149  11.998  0.2075 -0.5591 -0.0130
    1Sil     Ob  520   1.445   4.046  12.045 -0.1201 -1.0817  0.1035
    1Sil     Ob  521   1.961   4.041  12.400  0.0673 -0.0985  0.3888
    1Sil     Ob  522   1.737   4.045  11.605 -0.1291 -0.1839  0.3783
    1Sil     Ob  523   1.987   3.949  11.569  0.2560 -0.0239 -0.2485
    1Sil     Ob  524   1.390   3.965  12.374  0.2316  0.2125  0.1249
    1Sil     Ob  525   1.688   4.002  11.979 -0.5483 -0.3478 -0.0621
    1Sil     Ob  526   1.364   4.201  11.850 -0.5332  0.0959  0.5358
    1Sil     Ob  527   1.886   4.224  12.235 -0.5504 -0.2287  0.1610
    1Sil     Ob  528   1.644   4.221  11.449 -0.3772  0.4326  0.3330
    1Sil     Ob  529   1.678   4.379  11.258 -0.0637 -0.0555 -0.2742
    1Sil     Ob  530   2.308   4.399  10.443 -0.1842  0.1178 -0.4583
    1Sil     Ob  531   1.962   4.386  10.869  0.1288  0.5991  0.1720
    1Sil     Ob  532   1.554   4.793  10.848  0.2546 -0.0591 -0.1059
    1Sil     Ob  533   2.101   4.787  11.259 -0.5092 -0.4304 -0.2252
    1Sil     Ob  534   1.890   4.798  10.460 -0.2537 -0.2081  0.1628
    1Sil     Ob  535   1.854   4.719  11.308 -0.2194 -0.0972 -0.2324
    1Sil     Ob  536   1.647   4.748  10.402  0.3249 -0.1961 -0.2519
    1Sil     Ob  537   2.159   4.716  10.905  0.0957 -0.8010 -0.1344
    1Sil     Ob  538   1.525   4.460  11.071  0.5613 -0.1415 -0.2684
    1Sil     Ob  539   1.815   4.463  10.679 -0.0782 -0.4843  0.6644
    1Sil     Ob  540   1.632   4.633  11.217 -0.8001  0.5178  0.0809
    1Sil     Ob  541   1.422   4.631  10.363  0.2787 -0.0842  0.4441
    1Sil     Ob  542   1.925   4.642  10.828  0.1581  0.1138  0.8255
    1Sil     Ob  543   1.502   4.539  10.826  0.4293 -0.2919  0.0857
    1Sil     Ob  544   2.033   4.532  11.239  0.8817 -0.5980  0.2342
    1Sil     Ob  545   1.810   4.544  10.429  0.9656 -0.1874  0.4345
    1Sil     Ob  546   1.445   4.480  11.313 -0.6584  0.6490 -0.1420
    1Sil     Ob  547   1.734   4.485  10.918  0.0263 -0.2061  0.1599
    1Sil     Ob  548   1.510   4.680  10.609 -0.1838  0.0728 -0.4207
    1Sil     Ob  549   1.950   4.700  11.059 -0.6105 -0.6443 -0.5536
    1Sil     Ob  550   1.602   4.381  12.476  0.2619 -0.0908 -0.5887
    1Sil     Ob  551   2.227   4.385  11.665  0.3332 -0.9677  0.0742
    1Sil     Ob  552   1.917   4.393  12.052 -0.3879 -0.2288  0.2506
    1Sil     Ob  553   1.511   4.796  12.075  0.1802 -0.1517  0.4094
    1Sil     Ob  554   2.020   4.794  12.469  0.0183 -0.1245 -0.2275
    1Sil     Ob  555   1.812   4.775  11.635  0.2871  0.1554  0.9013
    1Sil     Ob  556   1.797   4.669  12.504 -0.4178  0.0183  0.2208
    1Sil     Ob  557   1.563   4.697  11.699 -0.3168 -0.3834 -0.0760
    1Sil     Ob  558   2.107   4.702  12.110 -0.5312 -0.2253 -0.1301
    1Sil     Ob  559   1.474   4.437  12.255 -0.3935  0.1006  0.2463
    1Sil     Ob  560   2.073   4.430  11.472 -0.2533  0.8110  0.4222
    1Sil     Ob  561   1.767   4.449  11.854  0.8465 -0.3796 -0.0780
    1Sil     Ob  562   1.559   4.625  12.419  0.3930 -0.9089  0.0643
    1Sil     Ob  563   1.323   4.639  11.630 -0.1188 -0.4422 -0.0754
    1Sil     Ob  564   1.873   4.636  12.007  0.1797  0.0716  0.5835
    1Sil     Ob  565   1.444   4.553  12.029  0.3037  0.4857 -0.5181
    1Sil     Ob  566   2.008   4.539  12.420 -0.4731 -0.1745 -0.4505
    1Sil     Ob  567   1.750   4.528  11.599 -0.1851 -0.1152 -0.4313
    1Sil     Ob  568   1.977   4.461  11.707 -0.6826  0.5970 -0.5703
    1Sil     Ob  569   1.369   4.463  12.491 -0.5523 -0.3622 -0.1772
    1Sil     Ob  570   1.680   4.478  12.099  0.4499 -0.1288  0.0589
    1Sil     Ob  571   1.361   4.734  11.870  0.1448 -0.3292  0.1363
    1Sil     Ob  572   1.887   4.715  12.259  0.5533 -0.5930  0.1627
    1Sil     Ob  573   1.645   4.723  11.454  0.2499 -0.0371 -0.0080
    1Sil     Ob  574   1.665   4.892  11.261 -0.1826 -0.0796  0.3644
    1Sil     Ob  575   2.285   4.904  10.462  0.0264 -0.3147  0.3943
    1Sil     Ob  576   1.964   4.889  10.900  0.5516  0.1283  0.5057
    1Sil     Ob  577   1.555   1.827  10.869 -0.1145  0.4045 -0.4386
    1Sil     Ob  578   2.115   1.829  11.263  0.3230  0.3748  0.1277
    1Sil     Ob  579   1.862   1.820  10.490 -0.6687  0.0332  0.2337
    1Sil     Ob  580   1.883   1.760  11.181 -0.3447  0.0455  0.4606
    1Sil     Ob  581   1.618   1.736  10.524  0.4166 -0.1013  0.1976
    1Sil     Ob  582   2.164   1.768  10.789  0.3844 -0.1456  0.1042
    1Sil     Ob  583   1.638   4.969  11.025 -1.0343  0.0976  0.1967
    1Sil     Ob  584   1.949   4.963  10.647  0.0433  0.0754 -0.0036
    1Sil     Ob  585   1.638   5.142  11.205  0.4608 -0.3881 -0.1130
    1Sil     Ob  586   1.390   5.142  10.425 -0.0731  0.0139 -0.0538
    1Sil     Ob  587   1.925   5.140  10.826  0.2129  0.0342  0.4141
    1Sil     Ob  588   1.492   1.574  10.827 -0.6455  0.1443  0.4966
    1Sil     Ob  589   2.047   1.579  11.240  0.1566  0.2273 -0.2442
    1Sil     Ob  590   1.794   1.571  10.451  0.5277 -0.0027  0.3521
    1Sil     Ob  591   2.039   4.998  10.409  0.4859  0.3519  0.2887
    1Sil     Ob  592   1.434   4.967  11.185 -0.0270 -0.1887  0.1654
    1Sil     Ob  593   1.740   4.960  10.794 -0.4775  0.5252  0.3310
    1Sil     Ob  594   1.404   1.747  10.670  0.4903 -0.1513  0.1718
    1Sil     Ob  595   2.082   1.725  11.028 -0.0688  0.6118 -0.0186
    1Sil     Ob  596   1.636   4.863  12.461  0.3962 -0.0049  0.3408
    1Sil     Ob  597   2.213   4.880  11.667 -0.5477 -0.0953  0.9081
    1Sil     Ob  598   1.926   4.893  12.070  0.2843  0.2932 -0.0380
    1Sil     Ob  599   1.516   1.821  12.058 -0.5386  0.0394  0.3811
    1Sil     Ob  600   2.041   1.806  12.418 -0.1323 -0.2129  0.0624
    1Sil     Ob  601   1.796   1.819  11.659  0.2311 -0.2129  0.6877
    1Sil     Ob  602   1.565   1.749  11.577  0.0764  0.1909  0.2916
    1Sil     Ob  603   2.124   1.766  11.949 -0.0370 -0.2829 -0.2913
    1Sil     Ob  604   1.589   4.984  12.237  0.3751  0.3968 -0.3879
    1Sil     Ob  605   2.194   4.962  11.426 -0.2175  0.1548 -0.1651
    1Sil     Ob  606   1.891   4.950  11.819 -0.1288 -0.1720 -0.4921
    1Sil     Ob  607   1.534   5.118  12.465  0.0360  0.6191  0.8262
    1Sil     Ob  608   1.325   5.125  11.637  0.7357  0.5236  0.2466
    1Sil     Ob  609   1.876   5.137  11.990 -0.5667 -0.4148  0.3492
    1Sil     Ob  610   1.447   1.572  12.023 -0.5824 -0.0751 -0.0149
    1Sil     Ob  611   1.963   1.570  12.378 -0.0149 -0.1435 -0.9653
    1Sil     Ob  612   1.736   1.564  11.628 -0.1202 -0.1487  0.2751
    1Sil     Ob  613   1.980   4.950  11.581 -0.2492  0.1773 -0.3416
    1Sil     Ob  614   1.388   4.919  12.394 -0.2291  0.5821  0.6682
    1Sil     Ob  615   1.682   4.954  11.986 -0.3050 -0.4714 -0.6074
    1Sil     Ob  616   1.495   1.728  11.818  0.6331 -0.3322 -0.4981
    1Sil     Ob  617   2.029   1.729  12.172 -0.2868  0.2937  0.4579
    1Sil     Ob  618   1.771   1.722  11.417  1.1827  0.1214  0.1367
    1Sil     Ob  619   2.528   1.905  11.260  0.3865 -0.5886  0.8320
    1Sil     Ob  620   3.119   1.907  10.458 -0.4481 -0.3094  0.3723
    1Sil     Ob  621   2.828   1.915  10.873 -0.5031  0.6321  0.0889
    1Sil     Ob  622   2.403   2.314  10.872 -0.2534  0.7042 -0.4490
    1Sil     Ob  623   2.959   2.307  11.254 -0.4692  0.4460 -0.3192
    1Sil     Ob  624   2.706   2.315  10.499 -0.0198 -0.4944 -0.0972
    1Sil     Ob  625   2.716   2.251  11.179 -0.0237 -0.2268  0.1560
    1Sil     Ob  626   2.485   2.279  10.411 -0.4041 -0.3240  0.5659
    1Sil     Ob  627   3.019   2.276  10.791  0.2247  0.4013 -0.2133
    1Sil     Ob  628   2.502   1.995  11.026 -0.0337 -0.0423  0.3919
    1Sil     Ob  629   2.791   2.004  10.632  0.3213 -0.0212 -0.1984
    1Sil     Ob  630   2.478   2.164  11.224 -0.5845  0.5110  0.0542
    1Sil     Ob  631   2.269   2.165  10.389 -0.1498  0.6898  0.2372
    1Sil     Ob  632   2.779   2.170  10.814 -0.2389 -0.1985 -0.0088
    1Sil     Ob  633   2.346   2.070  10.843  0.3997 -0.1469  0.3141
    1Sil     Ob  634   2.885   2.069  11.231 -0.4984  0.3466  0.6950
    1Sil     Ob  635   2.648   2.075  10.442 -0.0254 -0.4389 -0.3208
    1Sil     Ob  636   2.883   1.988  10.388  0.8429 -0.1909  0.1950
    1Sil     Ob  637   2.299   1.983  11.173  0.5721  0.0302 -0.4444
    1Sil     Ob  638   2.588   1.998  10.796  0.1412  0.0460  0.2146
    1Sil     Ob  639   2.360   2.202  10.629  0.1245 -0.1912  0.2071
    1Sil     Ob  640   2.916   2.218  11.023 -0.6628  0.7429  0.1369
    1Sil     Ob  641   2.481   1.908  12.438  0.5574 -0.2687  0.1142
    1Sil     Ob  642   3.081   1.904  11.668  0.0719  0.3943 -0.2678
    1Sil     Ob  643   2.773   1.926  12.059  0.1508 -0.6247 -0.2522
    1Sil     Ob  644   2.366   2.331  12.045  0.3122  0.0152  0.3107
    1Sil     Ob  645   2.878   2.315  12.465 -0.4069  0.2757 -0.1222
    1Sil     Ob  646   2.649   2.310  11.666 -0.5957 -0.5959 -0.6943
    1Sil     Ob  647   2.648   2.188  12.477  0.8632 -0.2875 -0.3800
    1Sil     Ob  648   2.418   2.226  11.562  0.5347  0.0874 -0.6065
    1Sil     Ob  649   2.948   2.237  12.092  0.3730  0.0970 -0.2942
    1Sil     Ob  650   2.442   2.003  12.205  0.0232  0.2018  0.5349
    1Sil     Ob  651   3.055   1.996  11.419 -0.8066  0.3891 -0.2556
    1Sil     Ob  652   2.750   1.987  11.810  0.3162 -0.0466 -0.5234
    1Sil     Ob  653   2.395   2.140  12.427  0.1441 -0.5262 -0.5642
    1Sil     Ob  654   2.174   2.150  11.631 -0.4242  0.3029 -0.0348
    1Sil     Ob  655   2.713   2.169  11.991  0.2032 -0.1784  0.3109
    1Sil     Ob  656   2.313   2.084  11.995  0.0991 -0.1358 -0.5944
    1Sil     Ob  657   2.843   2.061  12.396  0.2974 -0.3094 -0.1016
    1Sil     Ob  658   2.604   2.062  11.616  0.6322  0.2643  0.2384
    1Sil     Ob  659   2.847   1.970  11.570  0.0063 -0.3528 -0.4793
    1Sil     Ob  660   2.237   1.953  12.363 -0.3537  0.0761  0.3083
    1Sil     Ob  661   2.541   1.977  11.961  0.0058  0.3414  0.3679
    1Sil     Ob  662   2.346   2.238  11.809  0.4661 -0.3696 -0.7356
    1Sil     Ob  663   2.744   2.248  12.239  0.4907  0.0036  0.0185
    1Sil     Ob  664   2.626   2.221  11.423 -0.0029 -0.0878  0.2536
    1Sil     Ob  665   2.535   2.407  11.272  0.1540  0.1077  0.4793
    1Sil     Ob  666   3.131   2.418  10.425 -0.4497 -0.3884  0.2608
    1Sil     Ob  667   2.812   2.415  10.896  0.1558  0.2270 -0.2952
    1Sil     Ob  668   2.406   2.809  10.874  0.8230 -0.2073  0.2826
    1Sil     Ob  669   2.949   2.812  11.275 -0.2183 -0.1610  0.4011
    1Sil     Ob  670   2.699   2.814  10.495 -0.7541 -0.0265  0.0629
    1Sil     Ob  671   2.709   2.719  11.306  0.5048 -0.2788  0.2374
    1Sil     Ob  672   2.470   2.701  10.525 -0.0746 -0.3609  0.2457
    1Sil     Ob  673   3.010   2.716  10.902  0.4257 -0.4369 -0.5386
    1Sil     Ob  674   2.376   2.452  11.082 -0.0218 -0.3064  0.8365
    1Sil     Ob  675   2.666   2.477  10.698  0.3494  0.4879  0.1506
    1Sil     Ob  676   2.468   2.645  11.226 -0.1002 -0.8656 -0.1492
    1Sil     Ob  677   2.227   2.650  10.430  0.0323  0.0298  0.5119
    1Sil     Ob  678   2.754   2.667  10.837  0.5160  0.3941 -0.4632
    1Sil     Ob  679   2.334   2.564  10.847  0.1063 -0.2982 -0.0707
    1Sil     Ob  680   2.903   2.567  11.226  0.6218 -0.1147  0.0074
    1Sil     Ob  681   2.674   2.567  10.456 -0.9941  0.0879 -0.3640
    1Sil     Ob  682   2.282   2.483  11.309 -0.3107  0.5591 -0.4044
    1Sil     Ob  683   2.567   2.511  10.924 -0.5007 -0.4788  0.8696
    1Sil     Ob  684   2.258   2.746  10.673 -0.2793  0.0340 -0.1330
    1Sil     Ob  685   2.801   2.748  11.071 -0.0187  0.5688  0.5153
    1Sil     Ob  686   2.480   2.381  12.420  0.1085 -0.1009 -0.5587
    1Sil     Ob  687   3.081   2.402  11.656  0.2972 -0.1512 -0.7201
    1Sil     Ob  688   2.770   2.419  12.052  0.1283 -0.1178 -0.2290
    1Sil     Ob  689   2.356   2.813  12.045 -0.4191 -0.2970  0.3307
    1Sil     Ob  690   2.918   2.825  12.429  0.5618 -0.6516 -0.3234
    1Sil     Ob  691   2.627   2.812  11.681  0.5040 -0.1685  0.0171
    1Sil     Ob  692   2.392   2.700  11.700 -0.7458 -0.0488  0.2333
    1Sil     Ob  693   2.978   2.746  11.969  0.0861 -0.1945 -0.3304
    1Sil     Ob  694   2.328   2.487  12.246 -0.6889 -0.5545  0.1335
    1Sil     Ob  695   2.923   2.462  11.459  0.8615 -0.7315 -0.3173
    1Sil     Ob  696   2.627   2.478  11.855  0.5308  0.1307 -0.0419
    1Sil     Ob  697   2.432   2.633  12.443 -0.0118 -0.0714  0.0281
    1Sil     Ob  698   2.152   2.650  11.632  0.4115  0.4230 -0.5861
    1Sil     Ob  699   2.735   2.665  11.999  0.1352  0.4484 -0.2723
    1Sil     Ob  700   2.291   2.581  12.011  0.2536  0.4812  0.2456
    1Sil     Ob  701   2.837   2.572  12.419 -0.1464 -0.0730  0.5442
    1Sil     Ob  702   2.597   2.560  11.621 -0.2794 -0.2961  0.4864
    1Sil     Ob  703   2.829   2.502  11.701 -0.8783  0.0477  0.0045
    1Sil     Ob  704   2.252   2.465  12.492  0.8654 -0.9200 -0.0454
    1Sil     Ob  705   2.533   2.530  12.090 -0.1286  0.1893  0.1934
    1Sil     Ob  706   2.196   2.755  11.859  0.2185 -0.5355 -0.2687
    1Sil     Ob  707   2.885   2.701  12.196 -0.2939  0.2320  0.1090
    1Sil     Ob  708   2.506   2.740  11.464  0.0991 -0.2312 -0.0756
    1Sil     Ob  709   2.537   2.899  11.252 -0.7283 -0.4520 -0.0132
    1Sil     Ob  710   3.127   2.912  10.459  0.8176 -0.5196  0.1420
    1Sil     Ob  711   2.839   2.921  10.870  0.6635 -0.3882  0.4110
    1Sil     Ob  712   2.398   3.315  10.853 -0.8091 -0.0638 -0.7619
    1Sil     Ob  713   2.940   3.300  11.267 -0.3470  0.2073  0.7002
    1Sil     Ob  714   2.709   3.314  10.495  0.5421  0.2972  0.1020
    1Sil     Ob  715   2.698   3.212  11.307 -0.4413  0.1148 -0.3130
    1Sil     Ob  716   2.478   3.224  10.516 -0.3224  0.1079  0.2190
    1Sil     Ob  717   2.995   3.219  10.918  0.0176 -0.3701 -0.1170
    1Sil     Ob  718   2.497   2.992  11.026 -0.0777  0.6273 -0.4252
    1Sil     Ob  719   2.798   3.004  10.631 -0.6671 -0.1130 -0.4852
    1Sil     Ob  720   2.451   3.149  11.227  0.6403 -0.2457 -0.0530
    1Sil     Ob  721   2.270   3.147  10.392 -0.1143 -0.0930 -0.2234
    1Sil     Ob  722   2.754   3.160  10.829 -0.4445 -0.0698 -0.5898
    1Sil     Ob  723   2.356   3.059  10.811 -0.4939  0.2550 -0.1490
    1Sil     Ob  724   2.878   3.048  11.218  0.3252  0.1154  0.3169
    1Sil     Ob  725   2.659   3.063  10.418 -0.2377  0.0174 -0.4944
    1Sil     Ob  726   2.895   2.965  10.383 -0.4464  0.4142  0.6412
    1Sil     Ob  727   2.290   2.944  11.176  1.1481  0.3679  0.2746
    1Sil     Ob  728   2.594   2.962  10.787 -0.7189  0.0604  0.5431
    1Sil     Ob  729   2.253   3.235  10.653 -0.4157  0.1897  0.2119
    1Sil     Ob  730   2.790   3.242  11.071 -0.2165 -0.6788  0.2504
    1Sil     Ob  731   2.432   2.888  12.487 -0.3039  0.6188  0.3736
    1Sil     Ob  732   3.075   2.903  11.649  0.0649 -0.0305 -0.2013
    1Sil     Ob  733   2.791   2.916  12.057  0.4915  0.3183 -0.5824
    1Sil     Ob  734   2.342   3.313  12.078  0.2117  0.2224 -0.5374
    1Sil     Ob  735   2.881   3.305  12.471  0.4841  0.5048  0.2110
    1Sil     Ob  736   2.651   3.309  11.669 -0.1933  0.6605  0.1590
    1Sil     Ob  737   2.637   3.207  12.491  0.3636 -0.3173 -0.1819
    1Sil     Ob  738   2.403   3.221  11.710 -0.8076 -0.8464  0.2514
    1Sil     Ob  739   2.956   3.234  12.115  0.0607  0.4046 -0.1364
    1Sil     Ob  740   2.438   2.968  12.225  0.4076 -0.0067 -0.0749
    1Sil     Ob  741   3.034   3.006  11.419 -0.3941 -0.0997  0.4580
    1Sil     Ob  742   2.741   2.999  11.812 -0.2551  0.0823 -0.3955
    1Sil     Ob  743   2.411   3.141  12.411  0.4573  0.2545 -0.0356
    1Sil     Ob  744   2.162   3.150  11.631 -0.4967 -0.3628 -0.5906
    1Sil     Ob  745   2.724   3.162  12.014 -0.2455  0.7216  0.1707
    1Sil     Ob  746   2.294   3.063  12.024  0.6653 -0.2360 -0.4192
    1Sil     Ob  747   2.824   3.063  12.395 -0.2135 -0.0732  0.3283
    1Sil     Ob  748   2.597   3.063  11.610  0.1808  0.0411  0.0721
    1Sil     Ob  749   2.834   2.954  11.578 -0.0593 -0.5320 -0.5233
    1Sil     Ob  750   2.220   2.990  12.373  0.1041 -0.3101  0.6197
    1Sil     Ob  751   2.543   2.980  11.975  0.3454  0.1268 -0.0422
    1Sil     Ob  752   2.197   3.247  11.868  0.1085  0.3428 -0.0185
    1Sil     Ob  753   2.743   3.265  12.248  0.4216 -0.9635  0.0554
    1Sil     Ob  754   2.500   3.247  11.462 -0.3092 -0.0782  0.2198
    1Sil     Ob  755   2.514   3.385  11.240 -0.0740 -0.7840 -0.4433
    1Sil     Ob  756   3.154   3.388  10.452 -0.5144 -0.6850  0.3062
    1Sil     Ob  757   2.812   3.406  10.883 -0.1655  0.6996 -0.7851
    1Sil     Ob  758   2.403   3.824  10.864 -0.2313 -0.2190  0.0714
    1Sil     Ob  759   2.945   3.808  11.260  0.4399  0.1665  0.1557
    1Sil     Ob  760   2.716   3.799  10.466  0.7269  0.4227 -0.5286
    1Sil     Ob  761   2.707   3.723  11.176 -0.2140 -0.2127 -0.6018
    1Sil     Ob  762   2.467   3.743  10.395 -0.1911 -0.8197  0.4031
    1Sil     Ob  763   2.990   3.738  10.771 -0.2545  0.1656  0.4666
    1Sil     Ob  764   2.357   3.471  11.063 -0.0335  0.0627 -0.2335
    1Sil     Ob  765   2.651   3.483  10.690  0.1179 -0.2386 -0.4190
    1Sil     Ob  766   2.461   3.640  11.230 -0.2769  0.4582 -0.2712
    1Sil     Ob  767   2.225   3.645  10.444 -0.4290  0.2376 -0.1498
    1Sil     Ob  768   2.752   3.653  10.843  0.0808 -0.2455 -0.5752
    1Sil     Ob  769   2.347   3.566  10.819 -0.0405 -0.2732 -0.1776
    1Sil     Ob  770   2.901   3.549  11.206  0.5290 -0.5519  0.0628
    1Sil     Ob  771   2.635   3.555  10.434 -0.3490  0.0526  0.4468
    1Sil     Ob  772   2.280   3.488  11.312 -0.2290  0.1424 -0.6156
    1Sil     Ob  773   2.567   3.483  10.927 -0.0313  0.1332  0.5949
    1Sil     Ob  774   2.372   3.728  10.630 -0.1028 -0.4424  0.5314
    1Sil     Ob  775   2.911   3.729  11.023 -0.1779  0.7201  0.5081
    1Sil     Ob  776   2.466   3.386  12.452 -0.8017  0.7608 -0.1764
    1Sil     Ob  777   3.062   3.393  11.647  0.1790  0.3797  0.1727
    1Sil     Ob  778   2.771   3.406  12.053  0.1254 -0.3167  0.0436
    1Sil     Ob  779   2.358   3.798  12.050 -0.7769  0.2376 -0.2711
    1Sil     Ob  780   2.867   3.794  12.440  0.1489 -0.2245  0.1465
    1Sil     Ob  781   2.645   3.797  11.656  0.4697 -0.3528  1.3113
    1Sil     Ob  782   2.409   3.725  11.575 -0.0864 -0.5543 -0.0523
    1Sil     Ob  783   2.952   3.742  11.960 -0.2486 -0.2939  0.2412
    1Sil     Ob  784   2.317   3.494  12.266  0.4026  0.1038 -0.3853
    1Sil     Ob  785   2.903   3.478  11.456 -0.4986 -0.3411  0.7034
    1Sil     Ob  786   2.617   3.462  11.864 -0.5868 -0.1068  0.0131
    1Sil     Ob  787   2.413   3.627  12.477  0.3054 -0.1670  0.2012
    1Sil     Ob  788   2.168   3.653  11.622 -0.1486  0.4031 -0.4949
    1Sil     Ob  789   2.717   3.649  12.004 -0.0370 -0.2321  0.4043
    1Sil     Ob  790   2.289   3.558  12.016  1.1891 -0.2109  0.0156
    1Sil     Ob  791   2.876   3.536  12.384  0.0347 -0.3055 -0.1134
    1Sil     Ob  792   2.590   3.551  11.617 -0.1147 -0.6175  0.6340
    1Sil     Ob  793   2.829   3.481  11.710  0.1117  0.1675 -0.2562
    1Sil     Ob  794   2.230   3.454  12.512  0.5554 -0.4080  0.6498
    1Sil     Ob  795   2.526   3.505  12.110  0.3541  0.4068 -0.4908
    1Sil     Ob  796   2.320   3.704  11.815 -0.0210 -0.4021  0.0465
    1Sil     Ob  797   2.873   3.715  12.199  0.5478 -0.3673  0.0694
    1Sil     Ob  798   2.619   3.718  11.419 -0.1736 -0.3657  0.2240
    1Sil     Ob  799   2.520   3.891  11.260  0.1981  0.0508  0.6805
    1Sil     Ob  800   3.111   3.897  10.462 -0.3147  0.1696 -0.0418
    1Sil     Ob  801   2.810   3.905  10.862  0.1176 -0.2282 -0.2987
    1Sil     Ob  802   2.375   4.300  10.874  0.0325 -0.5144 -0.2135
    1Sil     Ob  803   2.932   4.300  11.257 -0.4164  0.8984  0.4601
    1Sil     Ob  804   2.681   4.293  10.487 -0.1171 -0.0891  0.4933
    1Sil     Ob  805   2.701   4.209  11.305 -0.3986 -0.1414 -0.2213
    1Sil     Ob  806   2.456   4.193  10.507 -0.5547 -0.2358  0.1564
    1Sil     Ob  807   2.999   4.220  10.904  0.4853  1.1542  0.0617
    1Sil     Ob  808   2.494   4.009  11.012 -0.0187 -0.5855  0.3833
    1Sil     Ob  809   2.795   3.981  10.626 -0.1112  0.0898 -0.3110
    1Sil     Ob  810   2.465   4.142  11.223 -0.6235  0.0236  0.8704
    1Sil     Ob  811   2.232   4.149  10.405  0.5935  0.5178  0.3710
    1Sil     Ob  812   2.762   4.156  10.815 -0.0099  0.2037  0.1092
    1Sil     Ob  813   2.340   4.057  10.811  0.7167 -0.1223  0.3462
    1Sil     Ob  814   2.877   4.057  11.223 -0.2228 -0.2749 -0.2467
    1Sil     Ob  815   2.638   4.034  10.438 -0.1521  0.9095 -0.3553
    1Sil     Ob  816   2.884   3.985  10.384  0.0184 -0.5460  0.0473
    1Sil     Ob  817   2.291   3.967  11.180 -0.2067  0.3898 -0.0429
    1Sil     Ob  818   2.583   3.969  10.773  0.1029  0.3514 -0.5827
    1Sil     Ob  819   2.249   4.239  10.662  0.1951  0.1098  0.2742
    1Sil     Ob  820   2.784   4.222  11.057 -0.9730 -0.2160 -0.5965
    1Sil     Ob  821   2.429   3.884  12.486 -0.2506  0.1223 -0.6260
    1Sil     Ob  822   3.063   3.883  11.670  0.1308  0.4199 -0.1250
    1Sil     Ob  823   2.766   3.900  12.051 -0.1286  0.4911  0.1291
    1Sil     Ob  824   2.356   4.301  12.062 -0.1412  0.5873  1.1102
    1Sil     Ob  825   2.878   4.291  12.450 -0.2417 -0.2272  0.1476
    1Sil     Ob  826   2.642   4.278  11.669 -0.0369 -0.1603 -0.0528
    1Sil     Ob  827   2.647   4.194  12.504 -0.5623  0.5376  0.1341
    1Sil     Ob  828   2.399   4.190  11.701 -0.0047  0.1027 -0.5780
    1Sil     Ob  829   2.955   4.212  12.105 -0.3673  0.2396  0.6051
    1Sil     Ob  830   2.433   3.954  12.234  0.5298 -0.1372  0.3226
    1Sil     Ob  831   3.044   3.993  11.426  0.1777 -0.0399  0.2526
    1Sil     Ob  832   2.731   3.985  11.817  0.5129 -0.5030  0.4598
    1Sil     Ob  833   2.417   4.136  12.418  0.4159 -0.1140 -0.5775
    1Sil     Ob  834   2.153   4.135  11.628 -0.1738  0.5105  0.4057
    1Sil     Ob  835   2.725   4.144  12.003  0.0836  0.0051  0.5775
    1Sil     Ob  836   2.283   4.050  12.043  0.0540  0.4120 -0.3286
    1Sil     Ob  837   2.823   4.041  12.402  0.0972 -0.3667  0.2265
    1Sil     Ob  838   2.598   4.047  11.595  0.2232  0.6009  0.1592
    1Sil     Ob  839   2.833   3.960  11.578  0.1792  0.6130  0.2044
    1Sil     Ob  840   2.216   3.985  12.371  0.2103 -0.6757  0.3248
    1Sil     Ob  841   2.526   3.980  11.983  0.1965 -0.9122  0.1396
    1Sil     Ob  842   2.199   4.230  11.860  0.8024  0.5209 -0.2819
    1Sil     Ob  843   2.737   4.234  12.244  0.3695 -0.1973  0.5724
    1Sil     Ob  844   2.492   4.227  11.455 -0.1843  0.4157 -0.5621
    1Sil     Ob  845   2.508   4.378  11.248  0.1296 -0.2455 -0.0155
    1Sil     Ob  846   3.158   4.393  10.452  0.0606  0.0256 -0.4206
    1Sil     Ob  847   2.806   4.401  10.880 -0.4160  0.0864  0.2060
    1Sil     Ob  848   2.396   4.785  10.855  0.3022 -0.0627 -0.0445
    1Sil     Ob  849   2.937   4.788  11.256 -0.3564  0.4215  0.1417
    1Sil     Ob  850   2.711   4.795  10.484 -0.2298 -0.1993  0.0464
    1Sil     Ob  851   2.695   4.711  11.309  0.8591 -0.2877 -0.8986
    1Sil     Ob  852   2.471   4.735  10.495 -0.3849  0.0736 -0.0677
    1Sil     Ob  853   2.991   4.700  10.906  0.3546  0.2776 -0.5211
    1Sil     Ob  854   2.352   4.470  11.067 -0.5086 -0.7969  0.5829
    1Sil     Ob  855   2.649   4.455  10.692  0.3962  0.5865  0.5090
    1Sil     Ob  856   2.458   4.635  11.227 -0.0796 -0.5938  0.3437
    1Sil     Ob  857   2.255   4.651  10.378  0.4985  0.0030  0.2572
    1Sil     Ob  858   2.743   4.644  10.837  0.2739 -0.0892  0.0900
    1Sil     Ob  859   2.330   4.549  10.821  0.5150  0.0653 -0.1290
    1Sil     Ob  860   2.870   4.540  11.222  0.1824  0.6127  0.2260
    1Sil     Ob  861   2.638   4.547  10.444 -0.0068  0.0831 -0.1946
    1Sil     Ob  862   2.272   4.474  11.313  0.2097 -0.0564  0.1237
    1Sil     Ob  863   2.557   4.478  10.924 -0.3119  0.2779  0.3647
    1Sil     Ob  864   2.249   4.726  10.649 -0.4861  0.5480  0.3797
    1Sil     Ob  865   2.781   4.727  11.067  0.1446 -0.0455  0.2824
    1Sil     Ob  866   2.468   4.380  12.467  0.4967 -0.1961  0.0901
    1Sil     Ob  867   3.066   4.383  11.661  0.2275  0.4281  0.0118
    1Sil     Ob  868   2.773   4.392  12.059  0.3082  0.1196  0.4974
    1Sil     Ob  869   2.350   4.795  12.065 -0.5603  0.3838 -0.3088
    1Sil     Ob  870   2.881   4.790  12.441  0.5456  0.7640  1.0809
    1Sil     Ob  871   2.644   4.783  11.657 -0.5146  0.4798 -0.7885
    1Sil     Ob  872   2.403   4.713  11.701 -0.1142 -0.3949 -0.2188
    1Sil     Ob  873   2.978   4.723  11.957 -0.2365  0.5049  0.5165
    1Sil     Ob  874   2.328   4.472  12.262 -0.2383 -0.0348  0.1652
    1Sil     Ob  875   2.912   4.458  11.460  0.1102  0.3529 -0.4678
    1Sil     Ob  876   2.620   4.448  11.862  0.4089 -0.1029 -0.3642
    1Sil     Ob  877   2.388   4.636  12.451 -0.1931 -0.3049 -0.2776
    1Sil     Ob  878   2.158   4.630  11.626 -0.0571  0.5544  0.1941
    1Sil     Ob  879   2.723   4.637  12.006  0.6749 -0.3428 -0.5279
    1Sil     Ob  880   2.306   4.551  12.014  0.2035 -0.4902 -0.0602
    1Sil     Ob  881   2.844   4.536  12.388  0.0088  0.1888  0.3094
    1Sil     Ob  882   2.571   4.535  11.625  0.1484 -0.6432  0.2380
    1Sil     Ob  883   2.818   4.475  11.705 -0.9874  0.0109  0.9272
    1Sil     Ob  884   2.237   4.444  12.496 -0.0294 -0.0098 -0.0262
    1Sil     Ob  885   2.541   4.489  12.109  0.4114  0.3285  0.2129
    1Sil     Ob  886   2.202   4.720  11.863  0.2650  0.7205  0.4067
    1Sil     Ob  887   2.892   4.709  12.196 -0.2460  0.1853  0.1220
    1Sil     Ob  888   2.491   4.732  11.467  0.4356 -0.1305 -0.2908
    1Sil     Ob  889   2.504   4.886  11.272 -0.0871 -0.6073 -0.4498
    1Sil     Ob  890   3.136   4.889  10.464  0.7534  0.3200  1.0265
    1Sil     Ob  891   2.813   4.888  10.878  0.1681  0.0856 -0.2032
    1Sil     Ob  892   2.398   1.820  10.875 -0.1884 -0.0841  0.4271
    1Sil     Ob  893   2.950   1.819  11.263  0.3389  0.8754 -0.0697
    1Sil     Ob  894   2.708   1.824  10.475 -0.7194 -0.0373  0.9732
    1Sil     Ob  895   2.704   1.742  11.178 -0.5107  0.3058  0.8629
    1Sil     Ob  896   2.487   1.739  10.376 -0.8105  0.0418 -0.6893
    1Sil     Ob  897   3.007   1.752  10.784 -0.6268  0.9252  0.1086
    1Sil     Ob  898   2.489   4.963  11.015  0.0197 -0.6363 -0.6249
    1Sil     Ob  899   2.809   4.960  10.633 -0.3040 -0.2575  0.3201
    1Sil     Ob  900   2.462   5.129  11.211 -0.4117  0.0193  0.5448
    1Sil     Ob  901   2.242   5.153  10.405 -0.1573 -0.0182 -0.1401
    1Sil     Ob  902   2.771   5.129  10.826  0.3177  0.2609  0.9748
    1Sil     Ob  903   2.340   1.571  10.816 -0.0892 -0.5268  0.0532
    1Sil     Ob  904   2.889   1.568  11.217  0.3803  0.0743  0.1093
    1Sil     Ob  905   2.663   1.576  10.441 -0.2748  0.3185  0.5858
    1Sil     Ob  906   2.896   4.956  10.389  0.0329  0.1506  0.1619
    1Sil     Ob  907   2.279   4.957  11.183  0.0837  0.2189 -0.0903
    1Sil     Ob  908   2.584   4.943  10.774  0.2817  0.2336 -0.3355
    1Sil     Ob  909   2.381   1.755  10.616  1.2630 -0.4107 -0.5716
    1Sil     Ob  910   2.914   1.730  11.025 -0.3470  0.0456  0.1924
    1Sil     Ob  911   2.433   4.888  12.504 -0.2396  0.3152  0.1760
    1Sil     Ob  912   3.062   4.882  11.643  1.1764  0.3861 -0.2406
    1Sil     Ob  913   2.786   4.887  12.042  0.1000  0.1078  0.2208
    1Sil     Ob  914   2.351   1.829  12.034  0.8313  0.2318  0.2560
    1Sil     Ob  915   2.872   1.813  12.454 -0.0889 -0.2432  0.2361
    1Sil     Ob  916   2.652   1.810  11.653 -0.4968  0.2430 -0.1286
    1Sil     Ob  917   2.638   1.719  12.490 -0.7892  0.2281  0.1246
    1Sil     Ob  918   2.414   1.734  11.571  0.4987 -0.3231  0.2951
    1Sil     Ob  919   2.960   1.763  12.096 -0.4635 -0.1720  0.0437
    1Sil     Ob  920   2.427   4.967  12.242 -0.6166  0.3873  0.3370
    1Sil     Ob  921   3.038   4.969  11.413 -0.0505  0.8791 -0.1489
    1Sil     Ob  922   2.744   4.964  11.814  0.1427  0.5912 -0.1290
    1Sil     Ob  923   2.390   5.133  12.437 -0.4745  0.0485 -0.4814
    1Sil     Ob  924   2.165   5.131  11.614  0.0578 -0.0899  0.2050
    1Sil     Ob  925   2.732   5.141  11.996  0.1160 -0.0826  0.1452
    1Sil     Ob  926   2.304   1.583  12.016  0.3889  0.0138 -0.7414
    1Sil     Ob  927   2.822   1.567  12.400  0.6097 -0.6132 -0.3850
    1Sil     Ob  928   2.594   1.565  11.614  0.3738 -0.4482  0.3743
    1Sil     Ob  929   2.832   4.937  11.575  0.3353 -0.1776 -0.2097
    1Sil     Ob  930   2.208   4.960  12.375  0.4971 -0.1029 -0.1978
    1Sil     Ob  931   2.540   4.944  11.991 -0.1820 -0.2774  0.4600
    1Sil     Ob  932   2.320   1.735  11.803 -0.1873  0.0442 -0.1985
    1Sil     Ob  933   2.737   1.766  12.247 -0.2686  0.7276 -0.2694
    1Sil     Ob  934   2.617   1.721  11.405  0.1536  0.2783 -0.0567
    1Sil     Ob  935   3.384   1.923  11.247  0.3273  0.2842 -0.1016
    1Sil     Ob  936   0.314   1.914  10.849 -0.4024  0.6987 -0.0776
    1Sil     Ob  937   3.265   2.318  10.858  0.2453 -0.1488 -0.6536
    1Sil     Ob  938   3.790   2.317  11.246  0.2917  0.4141  0.2979
    1Sil     Ob  939   3.522   2.317  10.489  0.1181 -0.3424 -0.2432
    1Sil     Ob  940   3.560   2.228  11.304  0.5300 -0.4286  0.0140
    1Sil     Ob  941   3.307   2.240  10.373 -0.2461  0.2000  0.4499
    1Sil     Ob  942   0.464   2.200  10.894  0.1295 -0.3291  0.1557
    1Sil     Ob  943   3.341   2.006  11.021 -1.0255 -0.2098  1.0931
    1Sil     Ob  944   0.264   2.014  10.622 -0.5221  0.0365  0.3093
    1Sil     Ob  945   3.315   2.165  11.212  0.3890 -0.3271  0.1779
    1Sil     Ob  946   3.062   2.158  10.409  1.0948 -0.0267 -0.2981
    1Sil     Ob  947   0.227   2.162  10.817  0.3931  0.0043  0.6640
    1Sil     Ob  948   3.192   2.069  10.811 -0.1201  0.2730  0.6214
    1Sil     Ob  949   3.739   2.064  11.221  0.0608  0.6461 -0.7987
    1Sil     Ob  950   3.504   2.081  10.405  0.6295  0.5327  0.5930
    1Sil     Ob  951   0.365   1.970  10.386  0.1140  0.6480  0.4973
    1Sil     Ob  952   3.127   1.984  11.173 -0.2157 -0.0141 -0.1518
    1Sil     Ob  953   0.064   1.968  10.775 -0.6000 -0.3489  0.4714
    1Sil     Ob  954   3.212   2.257  10.617  0.5267  0.1271 -0.4320
    1Sil     Ob  955   3.629   2.222  11.060  0.2270 -0.3197  0.3130
    1Sil     Ob  956   3.310   1.904  12.459  0.3262 -0.1264 -0.4060
    1Sil     Ob  957   0.231   1.909  12.072 -0.1850  0.1605  0.0455
    1Sil     Ob  958   3.199   2.318  12.059  0.1986  0.6894  0.6739
    1Sil     Ob  959   3.713   2.329  12.460  0.2938  0.1021  0.2789
    1Sil     Ob  960   3.482   2.317  11.668  0.7694 -0.1516  0.2337
    1Sil     Ob  961   3.479   2.229  12.485  0.1494  0.0981  0.8203
    1Sil     Ob  962   3.253   2.231  11.700 -0.4760  0.2306  0.0233
    1Sil     Ob  963   0.423   2.227  12.103 -0.4715 -0.3229 -0.0922
    1Sil     Ob  964   3.292   1.979  12.210  0.6899 -0.3648 -0.0531
    1Sil     Ob  965   0.218   1.994  11.818  0.0228 -0.5434 -0.1924
    1Sil     Ob  966   3.254   2.154  12.393 -0.1396 -0.3931 -0.3372
    1Sil     Ob  967   3.022   2.158  11.609  0.2006  0.2167 -0.2936
    1Sil     Ob  968   0.192   2.158  12.005  0.1450  0.0118  0.1459
    1Sil     Ob  969   3.130   2.062  12.020 -0.4993  0.4375  0.6081
    1Sil     Ob  970   3.652   2.068  12.404  0.1279  0.2762 -0.2484
    1Sil     Ob  971   3.432   2.065  11.618  0.2726  0.2319  0.3604
    1Sil     Ob  972   0.308   1.972  11.572  0.3740  0.4751 -0.4367
    1Sil     Ob  973   3.077   1.953  12.364 -0.0319  0.1831  0.0631
    1Sil     Ob  974   0.008   1.990  11.958 -0.2670  0.0221  0.0223
    1Sil     Ob  975   3.045   2.249  11.860  0.5000 -0.0056  0.2747
    1Sil     Ob  976   3.577   2.251  12.244 -0.1396  0.2147 -0.5783
    1Sil     Ob  977   3.344   2.243  11.455 -0.0657  0.0031  0.7188
    1Sil     Ob  978   3.368   2.401  11.246  0.1117 -0.0152  0.0621
    1Sil     Ob  979   0.298   2.408  10.877  0.0110 -0.4313  0.5469
    1Sil     Ob  980   3.245   2.808  10.852 -0.1750 -0.1738  0.3662
    1Sil     Ob  981   3.787   2.815  11.273 -0.0348  0.6464 -0.2112
    1Sil     Ob  982   3.561   2.811  10.501  1.1057 -0.2797 -0.3519
    1Sil     Ob  983   3.554   2.750  11.184  0.2125 -0.3228  0.0078
    1Sil     Ob  984   3.311   2.745  10.522 -0.5838  0.2026 -0.3905
    1Sil     Ob  985   0.486   2.763  10.797  0.1941 -0.2290  0.1135
    1Sil     Ob  986   3.219   2.461  11.059  0.5054 -0.2344  0.5233
    1Sil     Ob  987   0.147   2.462  10.694 -0.3907  0.4163 -0.3826
    1Sil     Ob  988   3.316   2.645  11.207  0.7354  0.1931  0.3528
    1Sil     Ob  989   3.096   2.667  10.388  0.0079  0.7242  0.8786
    1Sil     Ob  990   0.250   2.653  10.829 -0.6415 -0.2913  0.0364
    1Sil     Ob  991   3.196   2.563  10.815 -0.7373 -0.1552  0.1705
    1Sil     Ob  992   3.730   2.559  11.224 -0.1608  0.2721 -0.3626
    1Sil     Ob  993   3.496   2.569  10.454  0.4431 -0.0619  0.4647
    1Sil     Ob  994   3.133   2.486  11.299 -0.6491 -0.1212  0.6341
    1Sil     Ob  995   0.059   2.504  10.927  0.1155 -0.5058  0.4692
    1Sil     Ob  996   3.091   2.726  10.653 -0.5921 -0.4265  0.0960
    1Sil     Ob  997   3.761   2.731  11.034 -0.2572  0.3449  0.0949
    1Sil     Ob  998   3.304   2.403  12.438  0.0608  0.3733 -0.5463
    1Sil     Ob  999   0.243   2.403  12.039  0.2711 -0.2733 -0.1633
    1Sil     Ob 1000   3.211   2.817  12.050  0.1905  0.2605  0.3118
    1Sil     Ob 1001   0.386   2.823  12.417 -0.1738 -0.3709  0.3804
    1Sil     Ob 1002   3.490   2.799  11.652 -0.5783 -1.1751  0.0750
    1Sil     Ob 1003   3.253   2.749  11.561 -0.1780 -0.1078  0.1132
    1Sil     Ob 1004   0.433   2.748  11.952 -0.1589 -0.1701  0.8306
    1Sil     Ob 1005   3.162   2.501  12.244 -0.2721 -0.4348  0.4597
    1Sil     Ob 1006   0.086   2.486  11.862 -0.2990  0.0120 -0.0136
    1Sil     Ob 1007   3.251   2.653  12.437  0.4790 -0.2793 -0.5091
    1Sil     Ob 1008   3.022   2.661  11.607  0.5129  0.0697 -0.0933
    1Sil     Ob 1009   0.203   2.660  11.993 -0.3810 -0.2413 -0.2574
    1Sil     Ob 1010   3.153   2.561  11.994 -0.2438 -0.5102  0.6525
    1Sil     Ob 1011   0.304   2.577  12.404  0.2171 -0.1078 -1.0935
    1Sil     Ob 1012   3.419   2.564  11.620 -0.3987 -0.4628  0.0395
    1Sil     Ob 1013   0.294   2.508  11.694 -0.1818  0.8541  0.5431
    1Sil     Ob 1014   3.076   2.473  12.488  0.5450  0.0798  0.4418
    1Sil     Ob 1015   0.009   2.503  12.097 -0.5064 -0.0070  0.3087
    1Sil     Ob 1016   3.173   2.736  11.812  0.1379 -0.0272 -0.1381
    1Sil     Ob 1017   0.346   2.728  12.193 -0.0166 -0.1694  0.1572
    1Sil     Ob 1018   3.457   2.718  11.425  0.3125  0.0268 -0.1051
    1Sil     Ob 1019   3.352   2.887  11.258 -0.2050 -0.3269 -0.5144
    1Sil     Ob 1020   0.295   2.909  10.887  0.5140  0.1047 -0.0817
    1Sil     Ob 1021   3.237   3.310  10.885 -0.7911 -0.3109  0.0643
    1Sil     Ob 1022   3.786   3.311  11.306 -0.5168  0.4794  0.0780
    1Sil     Ob 1023   3.525   3.296  10.477 -0.0569 -0.3080  0.6586
    1Sil     Ob 1024   3.548   3.198  11.311  0.5712  0.1273  0.0555
    1Sil     Ob 1025   3.305   3.185  10.521  0.4933 -0.1999  0.8692
    1Sil     Ob 1026   0.473   3.227  10.912  0.1935 -0.1636 -0.2778
    1Sil     Ob 1027   3.325   2.995  11.024 -0.5895  0.4231  0.3746
    1Sil     Ob 1028   0.278   3.016  10.650 -0.7246  0.0493  0.4649
    1Sil     Ob 1029   3.301   3.135  11.245 -0.2685  0.1833 -0.3598
    1Sil     Ob 1030   3.066   3.153  10.421 -0.0234 -0.1010  0.4080
    1Sil     Ob 1031   0.222   3.158  10.872  0.5258 -0.1119 -0.7198
    1Sil     Ob 1032   3.180   3.059  10.831  0.0569 -0.4112 -0.4968
    1Sil     Ob 1033   3.746   3.060  11.207 -0.1633 -0.2654 -0.4115
    1Sil     Ob 1034   3.500   3.046  10.452  0.3948  0.1335  0.0068
    1Sil     Ob 1035   0.374   2.980  10.398 -0.7394 -0.0693 -0.3898
    1Sil     Ob 1036   3.119   2.970  11.173 -0.3340  0.0490 -0.4272
    1Sil     Ob 1037   0.056   2.987  10.786  0.0052 -0.3885  0.4852
    1Sil     Ob 1038   3.088   3.238  10.678 -0.3983  0.1373  0.4146
    1Sil     Ob 1039   3.652   3.277  11.090  0.5276 -0.0055 -0.4411
    1Sil     Ob 1040   3.272   2.911  12.497  0.3806 -0.2875  0.3653
    1Sil     Ob 1041   0.251   2.910  12.048 -0.2007  0.5318  0.3952
    1Sil     Ob 1042   3.203   3.313  12.083  0.1835  0.3069  0.1834
    1Sil     Ob 1043   3.753   3.292  12.418 -0.5394 -0.8169 -0.7019
    1Sil     Ob 1044   3.489   3.299  11.673 -0.1953  0.2666 -0.6051
    1Sil     Ob 1045   3.504   3.239  12.495 -0.2316  0.2349  0.7742
    1Sil     Ob 1046   3.245   3.201  11.698  0.5654 -0.4501 -0.4300
    1Sil     Ob 1047   0.434   3.238  12.101 -0.2391  0.7234 -0.1862
    1Sil     Ob 1048   3.289   2.985  12.224 -0.4076  0.1223  0.7491
    1Sil     Ob 1049   0.213   2.991  11.804  0.6748  0.4940 -0.0981
    1Sil     Ob 1050   3.274   3.156  12.409 -0.1706 -0.5819 -0.0062
    1Sil     Ob 1051   2.997   3.145  11.639  0.7276 -0.1835 -0.8579
    1Sil     Ob 1052   0.215   3.156  11.986  0.1915 -0.3884 -0.1244
    1Sil     Ob 1053   3.136   3.056  12.017  0.6708 -0.3262  0.0889
    1Sil     Ob 1054   3.664   3.058  12.418 -0.1395  0.3877 -0.1130
    1Sil     Ob 1055   3.438   3.057  11.611 -0.0201  0.2953 -0.2785
    1Sil     Ob 1056   0.311   2.965  11.566 -0.0409 -0.1708 -0.1641
    1Sil     Ob 1057   3.070   3.019  12.371 -0.0203  0.1802  0.0445
    1Sil     Ob 1058   0.010   2.985  11.974 -0.1300  0.1555 -0.1822
    1Sil     Ob 1059   3.047   3.257  11.864  0.0078  0.2831  0.6276
    1Sil     Ob 1060   3.586   3.212  12.236 -0.1523 -0.5618 -0.3287
    1Sil     Ob 1061   3.341   3.230  11.463  0.0507  0.3723  0.1271
    1Sil     Ob 1062   3.364   3.388  11.264  0.3660  0.2099 -0.6271
    1Sil     Ob 1063   0.288   3.414  10.882 -0.3542 -0.1652 -0.4609
    1Sil     Ob 1064   3.238   3.812  10.845 -0.3189 -0.1588 -0.1370
    1Sil     Ob 1065   3.783   3.796  11.260 -0.2269 -0.1239 -0.1045
    1Sil     Ob 1066   3.566   3.803  10.484  0.3506 -0.3162 -0.0401
    1Sil     Ob 1067   3.540   3.731  11.184 -0.1378 -0.0705  0.0888
    1Sil     Ob 1068   3.323   3.751  10.388  0.0085  0.4234 -0.2466
    1Sil     Ob 1069   0.471   3.750  10.786  0.1684 -0.3332  0.6412
    1Sil     Ob 1070   3.203   3.466  11.079  0.8912  0.0446 -0.0512
    1Sil     Ob 1071   0.130   3.470  10.687  0.3810 -0.0542 -0.1116
    1Sil     Ob 1072   3.295   3.641  11.240 -0.0724  0.1538 -0.1541
    1Sil     Ob 1073   3.098   3.632  10.382 -0.5493 -0.4581 -0.0014
    1Sil     Ob 1074   0.229   3.660  10.824 -0.7219  0.4294  0.1462
    1Sil     Ob 1075   3.170   3.560  10.826 -0.7758  0.7402 -0.0097
    1Sil     Ob 1076   3.726   3.554  11.236 -0.2566 -0.7663  0.2479
    1Sil     Ob 1077   3.493   3.551  10.438 -0.5178 -0.5666  0.2472
    1Sil     Ob 1078   3.121   3.477  11.320 -0.5451 -0.3479  0.2973
    1Sil     Ob 1079   0.040   3.506  10.917  0.2978 -0.2643 -0.1513
    1Sil     Ob 1080   3.200   3.704  10.612 -0.2509 -0.4032  0.3576
    1Sil     Ob 1081   3.745   3.711  11.017  0.4033 -0.2446 -0.4312
    1Sil     Ob 1082   3.315   3.400  12.465  0.5328 -0.2355 -0.4346
    1Sil     Ob 1083   0.242   3.409  12.064  0.6663  0.7442  0.4926
    1Sil     Ob 1084   3.181   3.802  12.064  0.2959  0.4706 -0.1793
    1Sil     Ob 1085   0.369   3.800  12.451 -0.5447  0.2331  0.3274
    1Sil     Ob 1086   3.470   3.804  11.667 -0.3770  0.5113 -0.1332
    1Sil     Ob 1087   3.253   3.719  11.575 -0.3447  0.1897 -0.2737
    1Sil     Ob 1088   0.440   3.735  11.950  0.0348 -0.6823  1.0094
    1Sil     Ob 1089   3.166   3.493  12.273 -0.1963  0.3395 -0.3555
    1Sil     Ob 1090   0.093   3.468  11.860 -0.7092  0.2860  0.1297
    1Sil     Ob 1091   3.237   3.651  12.467 -0.2695 -0.0620  0.5040
    1Sil     Ob 1092   3.009   3.639  11.621 -0.2067  0.1862  1.2666
    1Sil     Ob 1093   0.194   3.656  12.000 -0.6933 -0.1532  0.3870
    1Sil     Ob 1094   3.126   3.562  12.006  0.3525 -0.3365 -0.4650
    1Sil     Ob 1095   0.337   3.546  12.397 -0.5218  0.1643 -0.0004
    1Sil     Ob 1096   3.441   3.547  11.622 -0.0945 -0.4020 -0.4542
    1Sil     Ob 1097   0.308   3.472  11.704  0.1971 -0.3409 -0.1919
    1Sil     Ob 1098   3.073   3.450  12.511 -0.1809 -0.5658  0.4922
    1Sil     Ob 1099   0.003   3.513  12.099 -0.2189  0.7838 -0.4661
    1Sil     Ob 1100   3.158   3.712  11.818  0.5665  0.3161  0.1221
    1Sil     Ob 1101   0.354   3.716  12.196  0.0411 -0.2557 -0.0877
    1Sil     Ob 1102   3.450   3.717  11.431 -0.2800 -0.1906  0.4295
    1Sil     Ob 1103   3.362   3.900  11.263 -0.0772  0.2629 -0.1158
    1Sil     Ob 1104   0.282   3.902  10.876 -0.1221 -0.0863 -0.4514
    1Sil     Ob 1105   3.236   4.301  10.861 -0.2235  0.6613  0.4390
    1Sil     Ob 1106   3.780   4.291  11.273 -0.5485  0.0637  0.9306
    1Sil     Ob 1107   3.530   4.303  10.458  0.1081  0.3106 -0.7492
    1Sil     Ob 1108   3.534   4.209  11.304 -0.5401  0.5732 -0.0471
    1Sil     Ob 1109   3.304   4.200  10.502 -0.0351  0.1805 -0.3451
    1Sil     Ob 1110   0.476   4.215  10.905 -0.7423  0.5131 -0.7362
    1Sil     Ob 1111   3.325   3.982  11.016 -0.3728 -0.3098 -0.2115
    1Sil     Ob 1112   0.259   4.003  10.640 -0.4876  0.4847 -0.4592
    1Sil     Ob 1113   3.305   4.147  11.211  0.1485 -0.1703  0.3149
    1Sil     Ob 1114   3.072   4.152  10.420  0.0313  0.3761  0.2983
    1Sil     Ob 1115   0.225   4.154  10.837 -0.0802 -0.1721  0.4288
    1Sil     Ob 1116   3.166   4.051  10.820 -0.1860  0.6476 -0.1276
    1Sil     Ob 1117   3.720   4.040  11.227 -0.1407 -0.5035  0.7771
    1Sil     Ob 1118   3.480   4.038  10.447 -0.1875  0.1143 -0.1400
    1Sil     Ob 1119   0.345   3.985  10.397 -0.1548 -0.0466  0.1246
    1Sil     Ob 1120   3.121   3.976  11.178  0.3394 -0.1339  0.0381
    1Sil     Ob 1121   0.042   3.978  10.775 -0.2710  0.6168  0.5467
    1Sil     Ob 1122   3.095   4.236  10.659  0.1768 -0.6265 -0.2404
    1Sil     Ob 1123   3.637   4.240  11.067 -0.4155 -0.3732 -0.1088
    1Sil     Ob 1124   3.279   3.900  12.513  0.0531 -0.6527 -0.5609
    1Sil     Ob 1125   0.263   3.904  12.040  0.0175 -0.3208 -0.1092
    1Sil     Ob 1126   3.192   4.311  12.083  0.1855 -0.7206 -0.0023
    1Sil     Ob 1127   3.722   4.281  12.466  0.5674  0.2164 -0.0735
    1Sil     Ob 1128   3.502   4.298  11.648  0.0780  0.4323 -0.5904
    1Sil     Ob 1129   3.482   4.206  12.484 -0.0780 -0.0414  0.0352
    1Sil     Ob 1130   3.256   4.210  11.704 -0.5200 -0.0043  0.1654
    1Sil     Ob 1131   0.425   4.207  12.112 -0.2443  0.2921  0.3236
    1Sil     Ob 1132   3.284   3.962  12.243  0.3739  0.0780  0.2266
    1Sil     Ob 1133   0.197   3.998  11.816 -0.1784  0.0606  0.5548
    1Sil     Ob 1134   3.238   4.143  12.423  0.4477 -0.3163  0.0469
    1Sil     Ob 1135   3.008   4.135  11.644  0.3721 -0.6930 -0.1445
    1Sil     Ob 1136   0.177   4.149  12.027 -0.4337 -0.0802 -0.3432
    1Sil     Ob 1137   3.147   4.061  12.029 -0.1860  0.1497  0.4801
    1Sil     Ob 1138   3.666   4.038  12.391 -0.4359  0.2803  0.0324
    1Sil     Ob 1139   3.444   4.046  11.596  0.1239  0.1729  0.2674
    1Sil     Ob 1140   0.304   3.941  11.586 -0.1686 -0.2635  0.0010
    1Sil     Ob 1141   3.060   3.962  12.382 -0.0658  0.3724  0.5607
    1Sil     Ob 1142   0.013   3.949  11.996 -0.1312 -0.2525  0.5293
    1Sil     Ob 1143   3.056   4.236  11.870  0.4819  0.8932  0.2316
    1Sil     Ob 1144   3.588   4.255  12.251 -0.1775  0.4416 -0.9318
    1Sil     Ob 1145   3.335   4.235  11.455  0.0258  0.3016  0.0496
    1Sil     Ob 1146   3.358   4.393  11.261 -0.2455  0.1708 -1.0411
    1Sil     Ob 1147   0.288   4.393  10.858 -0.2554 -0.3144  0.5002
    1Sil     Ob 1148   3.233   4.794  10.865 -0.3198 -0.2608 -0.0095
    1Sil     Ob 1149   3.783   4.779  11.261 -0.5467 -0.1309  0.1186
    1Sil     Ob 1150   3.554   4.802  10.500 -0.1749  0.2946 -0.0253
    1Sil     Ob 1151   3.547   4.718  11.174  0.1442  0.2328 -0.2972
    1Sil     Ob 1152   3.314   4.732  10.510 -0.1963  0.6315  0.4515
    1Sil     Ob 1153   0.477   4.729  10.771 -0.1180  0.3921  0.0811
    1Sil     Ob 1154   3.201   4.457  11.062  0.4485 -1.0257 -0.3244
    1Sil     Ob 1155   0.130   4.447  10.674 -0.4521  0.2129 -0.2335
    1Sil     Ob 1156   3.298   4.640  11.224  0.9104  0.2249 -0.4138
    1Sil     Ob 1157   3.108   4.639  10.392 -0.0792  0.3901 -0.1497
    1Sil     Ob 1158   0.225   4.641  10.813  0.0142  0.7855 -0.5616
    1Sil     Ob 1159   3.182   4.546  10.828  0.7671 -0.4136 -0.2429
    1Sil     Ob 1160   3.726   4.530  11.210  0.1700 -1.0322  0.0997
    1Sil     Ob 1161   3.492   4.563  10.432 -0.1134 -0.1437 -0.1514
    1Sil     Ob 1162   3.119   4.469  11.299  0.0268  0.2586 -0.6423
    1Sil     Ob 1163   0.047   4.480  10.916 -0.1693 -0.0661  0.2009
    1Sil     Ob 1164   3.098   4.708  10.656 -0.4798 -0.0280  0.0131
    1Sil     Ob 1165   3.754   4.687  11.022 -0.3769 -0.2830 -0.0674
    1Sil     Ob 1166   3.310   4.389  12.443 -0.0799  0.0785 -0.3662
    1Sil     Ob 1167   0.252   4.394  12.044  0.4743  0.9119  0.2240
    1Sil     Ob 1168   3.194   4.790  12.054  0.5478 -0.0291  0.0370
    1Sil     Ob 1169   0.340   4.771  12.440  0.0773 -0.0985 -0.3830
    1Sil     Ob 1170   3.492   4.798  11.648  0.3397  0.2970 -0.0450
    1Sil     Ob 1171   3.261   4.731  11.560 -0.1737 -0.3422  0.2603
    1Sil     Ob 1172   0.442   4.747  11.961  0.2557 -0.2751  0.0858
    1Sil     Ob 1173   3.174   4.507  12.243 -0.6844  0.1712  0.3243
    1Sil     Ob 1174   0.101   4.454  11.842 -0.0173 -0.0521 -0.3980
    1Sil     Ob 1175   3.249   4.644  12.456 -0.1397  0.0331  0.6845
    1Sil     Ob 1176   3.008   4.638  11.610  0.7106  0.1786  0.1706
    1Sil     Ob 1177   0.195   4.649  11.990 -0.4641  0.4830  0.7617
    1Sil     Ob 1178   3.156   4.545  11.990 -0.3764  0.8215 -0.0541
    1Sil     Ob 1179   0.335   4.522  12.374 -0.1844 -0.1916  0.2746
    1Sil     Ob 1180   3.431   4.545  11.616 -0.1513 -0.2584 -0.2699
    1Sil     Ob 1181   0.311   4.481  11.696  0.6787 -0.3154 -0.0741
    1Sil     Ob 1182   3.069   4.453  12.481  0.0381  0.8092 -0.3622
    1Sil     Ob 1183   0.013   4.488  12.088 -0.3237 -0.9165 -0.0380
    1Sil     Ob 1184   3.184   4.708  11.801  0.2718 -0.0823 -0.4195
    1Sil     Ob 1185   0.341   4.709  12.192  0.1484 -0.0894  0.4247
    1Sil     Ob 1186   3.471   4.700  11.414  0.3594 -0.3408 -0.3032
    1Sil     Ob 1187   3.375   4.883  11.261  0.2421 -0.5119 -0.0228
    1Sil     Ob 1188   0.294   4.887  10.865 -0.1544  0.1732  0.1134
    1Sil     Ob 1189   3.246   1.822  10.868  0.0083 -0.0578 -0.3033
    1Sil     Ob 1190   0.417   1.818  11.285 -0.7611  0.0081 -0.1614
    1Sil     Ob 1191   0.151   1.824  10.479  0.0050  0.6155 -0.0079
    1Sil     Ob 1192   0.183   1.736  11.305 -0.3438  0.2479  0.1534
    1Sil     Ob 1193  -0.072   1.738  10.392 -0.2478 -0.0584 -0.1723
    1Sil     Ob 1194   0.481   1.711  10.903 -0.0458 -0.1180  0.0777
    1Sil     Ob 1195   3.335   4.977  11.028 -0.2125 -0.2203 -0.2188
    1Sil     Ob 1196   0.256   5.004  10.641  0.1569 -0.3720  0.1101
    1Sil     Ob 1197   3.317   5.137  11.218 -0.1387 -0.6543  0.4577
    1Sil     Ob 1198   3.069   5.126  10.438 -0.0302 -0.0732 -0.0507
    1Sil     Ob 1199   0.225   5.130  10.858 -0.0043 -0.2112  0.4400
    1Sil     Ob 1200   3.188   1.571  10.826 -0.5626 -0.6527  0.1664
    1Sil     Ob 1201   0.354   1.565  11.219  0.1686  0.3624 -0.4383
    1Sil     Ob 1202   0.118   1.571  10.433  0.2836 -0.0682  0.7313
    1Sil     Ob 1203   0.366   4.969  10.408 -0.0248  0.5488 -0.4733
    1Sil     Ob 1204   3.132   4.942  11.174 -0.2287 -0.0266 -0.2317
    1Sil     Ob 1205   0.055   4.952  10.794 -0.3132  0.3192  0.0248
    1Sil     Ob 1206   3.215   1.741  10.633 -0.0730  0.6902 -0.3443
    1Sil     Ob 1207   0.290   1.784  11.069  0.0183 -0.0520 -0.1634
    1Sil     Ob 1208   3.276   4.888  12.505 -0.0787  0.3940  0.0630
    1Sil     Ob 1209   0.243   4.892  12.042 -0.6282 -0.0025 -0.7361
    1Sil     Ob 1210   3.207   1.812  12.034  1.0309 -0.1266 -0.2582
    1Sil     Ob 1211   0.351   1.817  12.434 -0.3290 -0.2177  0.0594
    1Sil     Ob 1212   0.114   1.816  11.669 -0.0262  0.2552  0.2030
    1Sil     Ob 1213   0.118   1.718  12.502  0.2646 -0.0023  0.2948
    1Sil     Ob 1214  -0.115   1.711  11.690 -0.0117 -0.1331  0.8223
    1Sil     Ob 1215   0.423   1.742  12.103 -0.2158 -0.0058 -0.2020
    1Sil     Ob 1216   3.284   4.957  12.235  0.1643 -0.0743 -0.3275
    1Sil     Ob 1217   0.215   4.985  11.807 -0.1937  0.2011  0.1596
    1Sil     Ob 1218   3.251   5.128  12.423 -0.0143  0.1850  0.4012
    1Sil     Ob 1219   3.015   5.131  11.607 -0.0311 -0.7774 -1.4658
    1Sil     Ob 1220   0.181   5.133  12.015 -0.7789 -0.1219  0.5155
    1Sil     Ob 1221   3.123   1.565  12.041 -0.1931  0.5075  0.7096
    1Sil     Ob 1222   0.292   1.553  12.407  0.4005 -0.2520 -0.6141
    1Sil     Ob 1223   0.073   1.576  11.594  0.8432  0.0610  0.4752
    1Sil     Ob 1224   0.309   4.949  11.569  0.5106  0.4461  0.5744
    1Sil     Ob 1225   3.063   4.959  12.376 -0.4507  0.6606 -0.0952
    1Sil     Ob 1226   0.008   4.955  11.976  0.0541  0.6070  0.5884
    1Sil     Ob 1227   3.049   1.718  11.842 -0.0148  0.8420  0.2949
    1Sil     Ob 1228   0.204   1.733  12.251 -0.5878 -0.9297 -0.1812
    1Sil     Ob 1229   3.353   1.771  11.451 -0.6721 -0.1608  0.0476
    1Sil     Ob 1230   0.611   1.916  10.462  0.2704  0.2166  0.6088
    1Sil     Ob 1231   0.542   1.914  11.676 -0.2273  0.2761 -0.5065
    1Sil     Ob 1232   0.517   1.999  11.424  0.1491  0.3165 -0.0700
    1Sil     Ob 1233   0.620   2.397  10.430 -0.9155 -0.1539 -0.8132
    1Sil     Ob 1234   0.524   2.418  11.664 -0.0649 -0.1305 -0.2309
    1Sil     Ob 1235   0.387   2.456  11.461  0.3203 -0.0047  0.3701
    1Sil     Ob 1236   0.598   2.904  10.472  0.0411  0.2221  0.0032
    1Sil     Ob 1237   0.545   2.894  11.655 -0.1972  0.3845 -0.5594
    1Sil     Ob 1238   0.515   3.001  11.420  0.0498 -0.2560  0.2190
    1Sil     Ob 1239   0.630   3.405  10.439  0.1146 -0.2776 -0.0680
    1Sil     Ob 1240   0.549   3.394  11.652  0.5109 -0.6385 -0.5059
    1Sil     Ob 1241   0.399   3.491  11.467 -0.5968 -0.2048 -0.0822
    1Sil     Ob 1242   0.569   3.894  10.476 -0.3728  0.1966 -0.2040
    1Sil     Ob 1243   0.549   3.901  11.655 -0.3385  0.0263 -0.4501
    1Sil     Ob 1244   0.498   3.987  11.423  0.0166 -0.0155 -0.2203
    1Sil     Ob 1245   0.628   4.388  10.436  0.3343 -0.1997  0.0820
    1Sil     Ob 1246   0.541   4.389  11.664 -0.3114 -0.2383 -0.0287
    1Sil     Ob 1247   0.393   4.458  11.458  0.1987  0.2048 -0.1629
    1Sil     Ob 1248   0.599   4.885  10.482 -0.6008  0.3129  0.0447
    1Sil     Ob 1249   0.540   4.877  11.665 -0.2902  0.0406  0.1650
    1Sil     Ob 1250   0.512   4.967  11.424 -0.7801 -0.4344 -0.0741
    1Sil     Ob 1251   0.543   2.153  10.419  0.0298 -0.2815 -0.4456
    1Sil     Ob 1252   0.475   2.163  11.620  0.1560  0.0541 -0.1765
    1Sil     Ob 1253   0.596   2.646  10.388 -0.1688  0.5883 -0.1248
    1Sil     Ob 1254   0.476   2.653  11.599  0.8269 -0.9300 -0.4425
    1Sil     Ob 1255   0.552   3.148  10.419 -0.3910  0.0694  0.6362
    1Sil     Ob 1256   0.482   3.149  11.640 -0.1577  0.5916  0.1074
    1Sil     Ob 1257   0.578   3.643  10.395 -0.8455  0.3604  0.3293
    1Sil     Ob 1258   0.485   3.652  11.639  0.0055 -0.0619  0.2143
    1Sil     Ob 1259   0.539   4.151  10.417 -0.0186  0.2707 -0.2241
    1Sil     Ob 1260   0.474   4.146  11.620 -0.4497  0.4315  0.7264
    1Sil     Ob 1261   0.592   4.635  10.387  0.0900 -0.1470  0.1565
    1Sil     Ob 1262   0.485   4.635  11.616  0.0508 -0.6487  0.0545
    1Sil     Ob 1263   0.551   1.672  10.415  0.1474 -0.2158  0.6008
    1Sil     Ob 1264   0.490   1.656  11.628  0.6225 -0.1232 -0.0924
    1Sil     Cm 1265   1.411   1.974  10.216 -0.6503  0.0999  0.0243
    1Sil     Cm 1266   0.911   2.200  10.263 -0.0815  0.7529 -0.7283
    1Sil     Cm 1267   0.894   2.225  12.620  0.8009  0.4738 -1.3110
    1Sil     Cm 1268   1.280   2.456  10.238  0.2767 -0.0629  0.7756
    1Sil     Cm 1269   1.261   3.431  10.229  0.6719 -0.0469  0.8160
    1Sil     Cm 1270   0.908   3.701  12.639  0.4909 -0.2111  0.1070
    1Sil     Cm 1271   1.281   4.423  10.224  0.1592 -0.1729  0.4625
    1Sil     Cm 1272   0.890   1.706  12.638 -0.7384 -0.6239 -0.4049
    1Sil     Cm 1273   2.139   2.004  10.223 -0.2965 -0.0400 -0.3647
    1Sil     Cm 1274   1.735   2.196  12.628  0.0371  0.0607  0.4648
    1Sil     Cm 1275   2.130   2.952  10.252 -0.2846 -0.1394  0.0091
    1Sil     Cm 1276   1.727   3.747  12.694  0.6701  0.3733  0.1035
    1Sil     Cm 1277   2.110   4.468  10.234  0.1057  0.6094 -0.1786
    1Sil     Cm 1278   1.750   1.730  12.619 -0.2817  0.5313  0.3002
    1Sil     Cm 1279   2.957   2.504  10.236  0.0192 -0.4932 -0.1943
    1Sil     Cm 1280   2.573   2.729  12.654 -0.2800 -0.4188  0.3866
    1Sil     Cm 1281   2.936   3.418  10.263  0.5391 -0.0858 -0.4511
    1Sil     Cm 1282   2.547   3.740  12.700  0.1969  0.7484 -0.2272
    1Sil     Cm 1283   2.955   4.425  10.251  0.0760 -0.2367  0.3297
    1Sil     Cm 1284   2.586   4.693  12.662 -0.0586  0.0587  0.0030
    1Sil     Cm 1285   0.444   2.487  10.220  0.1895 -0.0993 -0.1148
    1Sil     Cm 1286   3.403   2.715  12.649  0.1652 -0.7287 -0.1930
    1Sil     Cm 1287   0.450   3.448  10.245  0.0999  0.1552 -0.3697
    1Sil     Cm 1288   3.441   3.712  12.652  0.2844  0.8708 -0.7049
    1Sil     Cm 1289   0.434   4.454  10.238 -0.8370 -0.1419 -0.5823
    1Sil     Cm 1290   3.447   4.714  12.646 -0.4976 -0.1299 -0.7238
    1Sil     Cm 1291   0.984   2.243  12.320  0.4632  0.3113  0.1184
    1Sil     Cm 1292   1.246   2.010  12.612  0.4989  0.4184 -0.5261
    1Sil     Cm 1293   0.645   2.260  12.686  0.0621 -0.4836 -0.1850
    1Sil     Cm 1294   1.176   2.486  12.658 -0.5185  0.2212 -0.5289
    1Sil     Cm 1295   0.745   2.743  12.672  0.0683 -0.1906  0.0361
    1Sil     Cm 1296   1.274   3.011  12.622 -0.2750 -0.0772  0.0282
    1Sil     Cm 1297   0.778   3.219  12.663  0.3897  0.4057  0.2298
    1Sil     Cm 1298   1.172   3.474  12.633  0.6317 -0.4161  0.8539
    1Sil     Cm 1299   0.648   3.754  12.678 -0.2792  0.3945  0.1559
    1Sil     Cm 1300   1.265   4.017  12.628 -0.6032  0.1777  0.2923
    1Sil     Cm 1301   0.778   4.263  12.675  0.8971  0.7647  0.1195
    1Sil     Cm 1302   1.145   4.425  12.660 -0.6089  0.6794  0.4629
    1Sil     Cm 1303   0.751   4.682  12.668 -0.0646 -0.2489  0.3622
    1Sil     Cm 1304   1.271   4.974  12.637  0.2725  0.0652  0.0183
    1Sil     Cm 1305   0.607   1.751  12.694  0.2715 -0.0967 -0.4085
    1Sil     Cm 1306   2.109   1.984  12.606 -0.4063 -0.3462  0.2416
    1Sil     Cm 1307   1.472   2.243  12.688 -0.2990  0.1867  0.7510
    1Sil     Cm 1308   2.047   2.454  12.661  0.5976 -0.1516 -0.0640
    1Sil     Cm 1309   1.615   2.718  12.659 -0.3623  0.2115  1.0996
    1Sil     Cm 1310   2.121   3.023  12.634  0.1880 -0.0949  0.0675
    1Sil     Cm 1311   1.603   3.265  12.660 -0.2686  0.1797  0.2733
    1Sil     Cm 1312   2.011   3.486  12.668  0.2242  0.1987  0.0504
    1Sil     Cm 1313   1.473   3.734  12.666 -0.3639 -0.3674  0.5372
    1Sil     Cm 1314   2.105   3.990  12.620  0.4589 -0.5570 -0.3296
    1Sil     Cm 1315   1.603   4.203  12.677  0.2480 -0.2831 -0.1540
    1Sil     Cm 1316   2.014   4.422  12.674 -0.3226  0.2010  0.9534
    1Sil     Cm 1317   1.612   4.707  12.677  0.2770  0.2090  0.5877
    1Sil     Cm 1318   2.087   5.024  12.605 -0.6883  0.7452  0.1004
    1Sil     Cm 1319   1.487   1.783  12.710  0.0520  0.8837 -0.6099
    1Sil     Cm 1320   2.987   1.988  12.612 -0.3901 -0.0358  0.3979
    1Sil     Cm 1321   2.458   2.245  12.668  0.3017  0.6042 -0.0412
    1Sil     Cm 1322   2.874   2.489  12.658  0.2229  0.4108 -0.3957
    1Sil     Cm 1323   2.299   2.723  12.670  0.6235 -0.7527 -0.1525
    1Sil     Cm 1324   2.962   3.015  12.631  0.3163 -0.0555  0.3461
    1Sil     Cm 1325   2.446   3.219  12.670 -0.1821 -0.0688 -0.9304
    1Sil     Cm 1326   2.847   3.498  12.660 -0.8793  0.1216  0.1074
    1Sil     Cm 1327   2.272   3.742  12.678 -0.1248 -0.3663 -0.1990
    1Sil     Cm 1328   2.944   3.982  12.624 -0.0627  0.7959  0.5311
    1Sil     Cm 1329   2.437   4.206  12.688 -0.2049  0.3488  0.2269
    1Sil     Cm 1330   2.861   4.471  12.650 -0.2738 -0.3366  0.6309
    1Sil     Cm 1331   2.306   4.733  12.685 -0.8514  0.3810  0.0096
    1Sil     Cm 1332   2.956   4.977  12.622 -1.0151 -0.0779 -0.0944
    1Sil     Cm 1333   2.440   1.777  12.684 -0.4878  1.6043  0.5789
    1Sil     Cm 1334   3.270   2.240  12.658  0.3353 -0.3126  0.1049
    1Sil     Cm 1335   3.137   2.753  12.676  0.4890 -0.0472 -0.1302
    1Sil     Cm 1336   3.300   3.232  12.673 -0.5733  0.0825  0.2039
    1Sil     Cm 1337   3.164   3.732  12.704  0.7053 -0.0406 -0.6362
    1Sil     Cm 1338   3.290   4.233  12.656 -0.8552  0.7838  0.4105
    1Sil     Cm 1339   3.160   4.723  12.699 -0.6991 -0.5096 -0.5573
    1Sil     Cm 1340   3.281   1.747  12.674  0.6522 -0.6215 -0.2825
    1Sil     Cm 1341   0.300   1.977  12.660 -0.3044 -0.2977 -0.3026
    1Sil     Cm 1342   0.437   2.521  12.630 -0.0603  0.1939  0.6618
    1Sil     Cm 1343   0.353   2.935  12.655  0.3337 -0.1494  0.4345
    1Sil     Cm 1344   0.462   3.453  12.631 -0.1852 -0.6162 -0.0428
    1Sil     Cm 1345   0.430   4.013  12.616 -0.1319  0.0219  0.4838
    1Sil     Cm 1346   0.338   4.490  12.642  0.6021  0.3101 -0.0709
    1Sil     Cm 1347   0.411   4.945  12.634  0.5170  0.4674 -0.1651
    1Sil     Cm 1348   1.560   2.526  10.190 -0.5940  0.8496  1.0041
    1Sil     Cm 1349   1.174   2.501  10.539  0.1796  0.1000  0.1745
    1Sil     Cm 1350   0.975   2.721  10.207 -0.4626  0.7286  0.2559
    1Sil     Cm 1351   1.402   2.984  10.206 -0.4384 -0.7085  0.0443
    1Sil     Cm 1352   0.877   3.232  10.263 -0.0996  0.2455  0.2048
    1Sil     Cm 1353   1.557   3.496  10.199 -0.6020 -0.1799 -0.0375
    1Sil     Cm 1354   1.187   3.508  10.539  0.0934  0.5459  0.0264
    1Sil     Cm 1355   0.990   3.719  10.221 -0.4871 -0.1866 -0.1593
    1Sil     Cm 1356   0.993   3.726  12.327  0.0748  0.0481  0.5166
    1Sil     Cm 1357   1.409   3.976  10.194  1.0272 -0.3790 -0.1158
    1Sil     Cm 1358   0.883   4.219  10.262  0.1487  0.5455  0.3141
    1Sil     Cm 1359   1.550   4.487  10.184  0.1328 -0.3403  0.9716
    1Sil     Cm 1360   1.191   4.466  10.539 -0.7103 -0.4055 -0.2930
    1Sil     Cm 1361   0.987   4.725  10.217 -0.4094  0.5816  1.0977
    1Sil     Cm 1362   1.393   4.982  10.209  0.3124  0.7001  0.9613
    1Sil     Cm 1363   0.894   1.753  10.268  0.1158 -0.5949 -0.1641
    1Sil     Cm 1364   0.966   1.730  12.317 -0.8336 -0.1375 -0.5864
    1Sil     Cm 1365   2.409   2.032  10.199  0.1182 -0.2013 -0.0455
    1Sil     Cm 1366   2.042   1.997  10.548  0.4776  0.3780 -0.1817
    1Sil     Cm 1367   1.716   2.228  10.264 -0.3618 -0.0980 -0.2288
    1Sil     Cm 1368   1.821   2.257  12.333  0.1690 -0.0529  0.0422
    1Sil     Cm 1369   2.268   2.477  10.214 -0.4309 -0.1648 -0.9137
    1Sil     Cm 1370   1.842   2.728  10.212 -0.1894  0.4709 -0.9341
    1Sil     Cm 1371   2.414   3.000  10.195  0.5015 -0.5213 -0.4827
    1Sil     Cm 1372   2.036   3.004  10.554 -0.2622 -0.2800 -0.5249
    1Sil     Cm 1373   1.746   3.230  10.237  0.3465 -0.6548  0.0714
    1Sil     Cm 1374   2.248   3.516  10.224  0.0193 -0.2850 -0.0805
    1Sil     Cm 1375   1.842   3.716  10.207  0.9927 -0.4045 -0.2419
    1Sil     Cm 1376   1.845   3.708  12.360  0.8558 -0.8478 -0.3829
    1Sil     Cm 1377   2.256   3.985  10.199 -0.7485  0.2302  0.0120
    1Sil     Cm 1378   1.720   4.221  10.262  0.3722  0.4178 -0.3614
    1Sil     Cm 1379   2.388   4.504  10.196  0.4872  0.3198  0.0156
    1Sil     Cm 1380   2.033   4.471  10.539 -0.8223 -0.5878  0.2536
    1Sil     Cm 1381   1.840   4.709  10.217  0.5482  0.2090  0.1410
    1Sil     Cm 1382   2.218   4.991  10.197  0.2013  0.4323 -0.3458
    1Sil     Cm 1383   1.725   1.749  10.257  0.1798  0.1153  0.2715
    1Sil     Cm 1384   1.817   1.766  12.312 -0.2206  0.3976  0.1493
    1Sil     Cm 1385   3.070   2.009  10.209  0.2540  0.0541 -0.2731
    1Sil     Cm 1386   2.684   2.252  10.239  0.1566  0.0301  0.0590
    1Sil     Cm 1387   3.220   2.515  10.170  0.0904 -0.6625 -0.3643
    1Sil     Cm 1388   2.885   2.485  10.559 -0.0058  0.0296 -0.0385
    1Sil     Cm 1389   2.588   2.724  10.241  0.0346 -0.1047 -0.4143
    1Sil     Cm 1390   2.690   2.773  12.344 -0.4678 -0.2855  0.5232
    1Sil     Cm 1391   3.104   2.982  10.206 -0.5060 -0.8068 -0.8848
    1Sil     Cm 1392   2.576   3.293  10.269 -0.0787  0.0286  0.4248
    1Sil     Cm 1393   3.217   3.483  10.187 -0.0634  0.1172  0.2190
    1Sil     Cm 1394   2.865   3.505  10.559 -0.4386  0.5211  0.1595
    1Sil     Cm 1395   2.663   3.695  10.221  0.1082  0.1954  0.3980
    1Sil     Cm 1396   2.679   3.678  12.341 -0.4377  0.2147 -0.2748
    1Sil     Cm 1397   3.077   3.977  10.199 -0.8066  0.1394 -0.4414
    1Sil     Cm 1398   2.545   4.208  10.260 -0.1388  0.1684 -0.4799
    1Sil     Cm 1399   3.228   4.503  10.212  0.4414 -0.1129  0.2874
    1Sil     Cm 1400   2.858   4.472  10.547  0.9161 -0.0669  0.0675
    1Sil     Cm 1401   2.592   4.751  10.263  0.0920  0.4265 -0.5606
    1Sil     Cm 1402   2.675   4.702  12.335  0.1664 -0.3399 -0.1234
    1Sil     Cm 1403   3.094   4.985  10.221 -0.5465  1.0098  0.1672
    1Sil     Cm 1404   2.707   1.722  10.235 -0.3184 -0.1830 -0.0984
    1Sil     Cm 1405   3.521   2.288  10.219  0.1092  0.5475 -0.1328
    1Sil     Cm 1406   3.721   2.475  10.548  0.5102 -0.6280 -0.6956
    1Sil     Cm 1407   3.437   2.774  10.266  0.2811 -0.2607 -0.0537
    1Sil     Cm 1408   0.148   2.766  12.332 -0.2445 -0.8783 -0.2871
    1Sil     Cm 1409   3.377   3.199  10.258  0.4810 -0.0893 -0.2844
    1Sil     Cm 1410   3.719   3.459  10.538  0.7974  0.1060 -0.0837
    1Sil     Cm 1411   3.544   3.721  10.231  0.2244 -0.2655  0.0812
    1Sil     Cm 1412   0.154   3.721  12.338  0.6319 -0.1168  0.4395
    1Sil     Cm 1413   3.389   4.198  10.253 -0.2571 -0.4807 -0.1596
    1Sil     Cm 1414   3.710   4.473  10.550 -0.8340 -0.1982 -0.5375
    1Sil     Cm 1415   3.420   4.770  10.269 -0.4237 -0.1064  0.8202
    1Sil     Cm 1416   0.131   4.678  12.310  0.4609 -0.2941 -0.4675
    1Sil     Cm 1417   0.139   1.742  10.234 -0.3453  0.0515  0.0956
    1Sil     Cm 1418   0.563   1.990  10.211 -0.4463 -1.1651  0.3712
    1Sil     Cm 1419   0.734   2.484  10.198  0.1038 -0.8022 -0.2429
    1Sil     Cm 1420   0.570   2.969  10.205  0.1089 -0.0853  0.0097
    1Sil     Cm 1421   0.711   3.515  10.200 -0.2856  0.3316  0.5408
    1Sil     Cm 1422   0.536   3.985  10.222 -0.0159  0.5975 -0.3754
    1Sil     Cm 1423   0.714   4.489  10.201 -0.7342  0.1863  0.8308
    1Sil     Cm 1424   0.562   4.958  10.228 -0.1604  0.2733  0.1183
    1Sil    Sim 1425   1.371   2.003  10.384  0.2875 -0.1540  0.4914
    1Sil    Sib 1426   0.756   2.017  11.177 -0.1523 -0.5378  0.4363
    1Sil    Sib 1427   1.066   2.009  10.799  0.2314 -0.4105  0.1469
    1Sil    Sib 1428   0.610   2.211  10.816 -0.0379  0.1633  0.3008
    1Sil    Sib 1429   1.146   2.209  11.218 -0.3628 -0.2063 -0.2981
    1Sil    Sim 1430   0.920   2.193  10.441  0.2017 -0.4359  0.4390
    1Sil    Sib 1431   0.858   2.255  11.315 -0.2640  0.1234 -0.5243
    1Sil    Sib 1432   0.626   2.253  10.504  0.0281 -0.0031 -0.0894
    1Sil    Sib 1433   1.162   2.266  10.921 -0.3611  0.2668 -0.2419
    1Sil    Sib 1434   0.774   1.967  10.874 -0.1020 -0.1340  0.1599
    1Sil    Sib 1435   1.281   1.958  11.311 -0.1738  0.2992  0.4500
    1Sil    Sib 1436   1.093   1.950  10.504  0.0431  0.0046 -0.6053
    1Sil    Sib 1437   1.269   2.006  11.611  0.3052 -0.0034 -0.5173
    1Sil    Sib 1438   0.648   2.000  12.425 -0.1158 -0.0562 -0.8665
    1Sil    Sib 1439   0.977   2.015  12.010  0.4434 -0.1219 -0.3672
    1Sil    Sib 1440   0.552   2.222  12.015  0.0019 -0.2117 -0.1649
    1Sil    Sim 1441   1.139   2.225  12.328  0.0792  0.3484 -0.1732
    1Sil    Sib 1442   0.840   2.212  11.616  0.1419 -0.2991  0.2072
    1Sil    Sim 1443   0.751   2.259  12.562  0.0990  0.1791 -0.3499
    1Sil    Sib 1444   0.556   2.267  11.717  0.1453  0.4003 -0.3005
    1Sil    Sib 1445   1.159   2.265  12.036 -0.0033  0.3071  0.0506
    1Sil    Sib 1446   0.693   1.975  12.118  0.0854 -0.4787 -0.0227
    1Sil    Sim 1447   1.239   1.955  12.438  0.0460 -0.2905 -0.0461
    1Sil    Sib 1448   0.981   1.967  11.717  0.2560  0.5425  0.3898
    1Sil    Sim 1449   1.424   2.506  10.315  0.3339 -0.5053 -0.3830
    1Sil    Sib 1450   0.730   2.516  11.225  0.0865 -0.1146 -0.3071
    1Sil    Sib 1451   1.020   2.509  10.830 -0.2064 -0.6560 -0.3155
    1Sil    Sib 1452   0.636   2.717  10.784  0.0151  0.0766  0.1695
    1Sil    Sib 1453   1.188   2.707  11.171 -0.4374 -0.4290  0.0791
    1Sil    Sim 1454   0.946   2.717  10.382  0.0406  0.4797 -0.1380
    1Sil    Sib 1455   0.908   2.756  11.264 -0.0430  0.3152  0.3256
    1Sil    Sib 1456   0.662   2.757  10.488  0.0520 -0.2024 -0.4016
    1Sil    Sib 1457   1.192   2.757  10.873 -0.0795  0.0482 -0.0330
    1Sil    Sib 1458   0.734   2.462  10.932 -0.0488 -0.2582 -0.5170
    1Sil    Sib 1459   1.313   2.459  11.268  0.1622 -0.0493  0.4513
    1Sil    Sim 1460   1.028   2.465  10.532 -0.0666 -0.0918 -0.0674
    1Sil    Sib 1461   1.317   2.512  11.563 -0.1396 -0.0838 -0.0817
    1Sil    Sib 1462   0.683   2.510  12.387  0.0405 -0.3795  0.0480
    1Sil    Sib 1463   0.997   2.513  11.960 -0.2101  0.0723 -0.0068
    1Sil    Sib 1464   0.589   2.711  11.950  0.1655 -0.1348 -0.1356
    1Sil    Sib 1465   1.068   2.707  12.404 -0.1088 -0.6959  0.1079
    1Sil    Sib 1466   0.890   2.708  11.561  0.1688 -0.5075  0.0203
    1Sil    Sim 1467   0.788   2.757  12.517 -0.3271  0.2618  0.2261
    1Sil    Sib 1468   0.597   2.747  11.652 -0.2523  0.2354  0.2208
    1Sil    Sib 1469   1.102   2.754  12.104  0.0488 -0.2791 -0.3859
    1Sil    Sib 1470   0.716   2.470  12.086  0.4497 -0.1032  0.2029
    1Sil    Sim 1471   1.220   2.472  12.498  0.3440 -0.0727  0.0217
    1Sil    Sib 1472   1.026   2.455  11.662  0.6352  0.3717 -0.2368
    1Sil    Sim 1473   1.366   3.015  10.365 -0.3342 -0.0288  0.2648
    1Sil    Sib 1474   0.763   3.004  11.170  0.2208  0.2173  0.5825
    1Sil    Sib 1475   1.067   3.013  10.776  0.4526 -0.0765  0.0712
    1Sil    Sib 1476   0.599   3.217  10.807 -0.1985 -0.0852 -0.6275
    1Sil    Sib 1477   1.148   3.196  11.217  0.2191  0.3582  0.0368
    1Sil    Sim 1478   0.913   3.200  10.426 -0.2946 -0.5438 -0.5309
    1Sil    Sib 1479   0.872   3.256  11.312  0.2367  0.3101 -0.0150
    1Sil    Sib 1480   0.634   3.256  10.507 -0.5526 -0.2698  0.2012
    1Sil    Sib 1481   1.163   3.259  10.925 -0.1545 -0.1655  0.1872
    1Sil    Sib 1482   0.776   2.971  10.871 -0.3732 -0.3739  0.3655
    1Sil    Sib 1483   1.280   2.947  11.325 -0.1396 -0.3869  0.0539
    1Sil    Sib 1484   1.088   2.965  10.481  0.6995  0.2838  0.2741
    1Sil    Sib 1485   1.279   3.001  11.621  0.1609  0.1782  0.3699
    1Sil    Sib 1486   0.673   3.004  12.400 -0.5302  0.0080  0.5081
    1Sil    Sib 1487   0.972   3.006  11.997  0.2672 -0.0521 -0.1431
    1Sil    Sib 1488   0.567   3.229  12.016  0.2133  0.6263 -0.3316
    1Sil    Sib 1489   1.101   3.209  12.381  0.1663 -0.0333  0.3521
    1Sil    Sib 1490   0.865   3.202  11.607 -0.4917 -0.1704  0.3132
    1Sil    Sim 1491   0.822   3.253  12.496  0.1094 -0.1615  0.1428
    1Sil    Sib 1492   0.581   3.250  11.711  0.2171  0.1397 -0.1769
    1Sil    Sib 1493   1.112   3.253  12.098  0.4669 -0.1120  0.2370
    1Sil    Sib 1494   0.690   2.962  12.100 -0.2436 -0.1122 -0.0164
    1Sil    Sim 1495   1.245   2.945  12.458  0.0660  0.1180  0.1647
    1Sil    Sib 1496   0.992   2.956  11.707  0.4013 -0.3492 -0.0332
    1Sil    Sim 1497   1.427   3.493  10.311  0.1361  0.1416 -0.2977
    1Sil    Sib 1498   0.727   3.499  11.219 -0.1682  0.4854  0.3453
    1Sil    Sib 1499   1.018   3.508  10.845  0.4538 -0.4891  0.2241
    1Sil    Sib 1500   0.626   3.708  10.779 -0.0142  0.1204  0.0384
    1Sil    Sib 1501   1.181   3.692  11.167 -0.0339  0.1283 -0.0222
    1Sil    Sim 1502   0.939   3.711  10.392 -0.2412 -0.3713 -0.3742
    1Sil    Sib 1503   0.899   3.739  11.259 -0.3238  0.1135 -0.4554
    1Sil    Sib 1504   0.660   3.761  10.481 -0.5019 -0.0695 -0.0046
    1Sil    Sib 1505   1.201   3.750  10.874  0.8763 -0.1458  0.4037
    1Sil    Sib 1506   0.726   3.459  10.924  0.2858 -0.0649 -0.2604
    1Sil    Sib 1507   1.314   3.442  11.276  0.1876 -0.0568 -0.2805
    1Sil    Sim 1508   1.035   3.458  10.543  0.4541  0.2200 -0.1099
    1Sil    Sib 1509   1.307   3.481  11.570  0.2167  0.3607 -0.0820
    1Sil    Sib 1510   0.712   3.510  12.376 -0.3150  0.3212  0.2975
    1Sil    Sib 1511   1.018   3.509  11.956 -0.2427 -0.2555 -0.4877
    1Sil    Sib 1512   0.592   3.705  11.957 -0.2549 -0.2745  0.3029
    1Sil    Sim 1513   1.148   3.705  12.332  0.3581  0.2559  0.1671
    1Sil    Sib 1514   0.880   3.696  11.564  0.2618 -0.0311 -0.7786
    1Sil    Sim 1515   0.759   3.752  12.568 -0.0580  0.2481  0.0197
    1Sil    Sib 1516   0.607   3.750  11.669  0.1183 -0.0981  0.0077
    1Sil    Sib 1517   1.170   3.756  12.044 -0.1302  0.4163  0.0011
    1Sil    Sib 1518   0.732   3.471  12.073 -0.0588  0.4065 -0.1655
    1Sil    Sim 1519   1.239   3.456  12.482  0.3152 -0.0792  0.0528
    1Sil    Sib 1520   1.017   3.446  11.659  0.2665  0.0784  0.2859
    1Sil    Sim 1521   1.363   3.995  10.366  0.0973 -0.0493 -0.2204
    1Sil    Sib 1522   0.752   3.999  11.185 -0.3009  0.0535  0.1563
    1Sil    Sib 1523   1.061   4.001  10.783  0.3115  0.0043 -0.1206
    1Sil    Sib 1524   0.603   4.202  10.811 -0.2819  0.0551  0.2367
    1Sil    Sib 1525   1.136   4.199  11.219  0.2792 -0.2273 -0.0182
    1Sil    Sim 1526   0.907   4.189  10.431 -0.5728  0.2738  0.2976
    1Sil    Sib 1527   0.860   4.249  11.320  0.2008  0.1300  0.3000
    1Sil    Sib 1528   0.626   4.242  10.512 -0.1954 -0.3334  0.2246
    1Sil    Sib 1529   1.154   4.257  10.921 -0.2112 -0.2911  0.4415
    1Sil    Sib 1530   0.771   3.952  10.881  0.5253  0.4387  0.4459
    1Sil    Sib 1531   1.310   3.951  11.274 -0.6187  0.1978  0.6086
    1Sil    Sib 1532   1.088   3.955  10.491  0.4572  0.0614  0.4859
    1Sil    Sib 1533   1.303   3.985  11.568  0.2087  0.1871  0.3419
    1Sil    Sib 1534   0.709   3.999  12.384 -0.2726  0.1634  0.5052
    1Sil    Sib 1535   1.007   3.997  11.959  0.3855  0.1798 -0.0229
    1Sil    Sib 1536   0.557   4.198  12.009 -0.2498  0.1637 -0.0796
    1Sil    Sib 1537   1.094   4.191  12.381 -0.2444 -0.2315  0.2020
    1Sil    Sib 1538   0.848   4.199  11.614  0.1064  0.2758 -0.2832
    1Sil    Sim 1539   0.829   4.248  12.510 -0.1115 -0.2749  0.0549
    1Sil    Sib 1540   0.553   4.240  11.710  0.2406  0.1190 -0.2108
    1Sil    Sib 1541   1.097   4.253  12.086  0.1075  0.2092 -0.4362
    1Sil    Sib 1542   0.730   3.952  12.077  0.4867 -0.2701  0.0505
    1Sil    Sim 1543   1.256   3.955  12.457 -0.2155 -0.0441  0.0816
    1Sil    Sib 1544   1.018   3.940  11.667 -0.0515 -0.2330 -0.0584
    1Sil    Sim 1545   1.437   4.481  10.306  0.0635  0.1586 -0.0062
    1Sil    Sib 1546   0.720   4.493  11.216 -0.2700 -0.3763  0.4854
    1Sil    Sib 1547   1.017   4.506  10.829 -0.4123 -0.0141 -0.1029
    1Sil    Sib 1548   0.632   4.685  10.771 -0.2019 -0.2631 -0.8575
    1Sil    Sib 1549   1.187   4.699  11.178  0.0633 -0.1241  0.0817
    1Sil    Sim 1550   0.955   4.712  10.387  0.0531  0.1347 -0.5465
    1Sil    Sib 1551   0.895   4.734  11.267  0.1501 -0.0947  0.1710
    1Sil    Sib 1552   0.672   4.741  10.479  0.3839  0.3648 -0.2270
    1Sil    Sib 1553   1.198   4.739  10.886  0.4285  0.0909  0.3148
    1Sil    Sib 1554   0.737   4.448  10.919 -0.2806 -0.6695 -0.7054
    1Sil    Sib 1555   1.286   4.449  11.321  0.3084 -0.1068  0.0938
    1Sil    Sim 1556   1.023   4.446  10.536  0.4779  0.0761  0.3806
    1Sil    Sib 1557   1.278   4.487  11.622  0.6038 -0.1090 -0.1397
    1Sil    Sib 1558   0.677   4.480  12.401  0.0278  0.3178  0.2096
    1Sil    Sib 1559   0.963   4.509  11.995 -0.0841  0.2162 -0.1461
    1Sil    Sib 1560   0.593   4.697  11.966 -0.2509 -0.4487  0.2764
    1Sil    Sib 1561   1.086   4.688  12.407  0.0205  0.2709  0.1503
    1Sil    Sib 1562   0.884   4.677  11.565 -0.4033 -0.5293 -0.0856
    1Sil    Sim 1563   0.796   4.726  12.505 -0.3150  0.0277 -0.5996
    1Sil    Sib 1564   0.600   4.727  11.667 -0.7962  0.5993 -0.0383
    1Sil    Sib 1565   1.109   4.750  12.107 -0.1816  0.0165  0.5683
    1Sil    Sib 1566   0.685   4.450  12.101 -0.1566  0.3550 -0.1074
    1Sil    Sim 1567   1.214   4.428  12.499  0.1323 -0.0683  0.1063
    1Sil    Sib 1568   0.991   4.440  11.699 -0.5769  0.0232  0.4369
    1Sil    Sim 1569   1.350   4.997  10.376  0.1375 -0.3411  0.5869
    1Sil    Sib 1570   0.754   4.989  11.169 -0.1390 -0.3960  0.0431
    1Sil    Sib 1571   1.063   4.986  10.782  0.0964  0.1944  0.0707
    1Sil    Sib 1572   0.614   1.712  10.808 -0.2434 -0.2405  0.6725
    1Sil    Sib 1573   1.141   1.706  11.230 -0.0296 -0.0739  0.0877
    1Sil    Sim 1574   0.922   1.711  10.436  0.2514  0.2071 -0.6490
    1Sil    Sib 1575   0.858   1.767  11.314 -0.0562  0.5926  0.2598
    1Sil    Sib 1576   0.635   1.766  10.513 -0.5694 -0.1423  0.0971
    1Sil    Sib 1577   1.162   1.761  10.934  0.1282 -0.1730  0.0554
    1Sil    Sib 1578   0.779   4.939  10.872 -0.1441  0.0462  0.0925
    1Sil    Sib 1579   1.315   4.942  11.287 -0.2565  0.0328  0.1288
    1Sil    Sib 1580   1.082   4.957  10.486  0.6224 -0.0173 -0.0286
    1Sil    Sib 1581   1.305   4.983  11.578 -0.1134  0.1482  0.1308
    1Sil    Sib 1582   0.683   4.980  12.388  0.4417 -0.0432 -0.3938
    1Sil    Sib 1583   1.010   5.005  11.970 -0.7161 -0.0324 -0.0796
    1Sil    Sib 1584   0.561   1.720  12.019 -0.2415 -0.1861 -0.4946
    1Sil    Sim 1585   1.118   1.708  12.333  0.1251  0.3506 -0.2644
    1Sil    Sib 1586   0.849   1.715  11.608  0.1459 -0.0869 -0.0860
    1Sil    Sim 1587   0.736   1.753  12.573 -0.2447  0.5259  0.1095
    1Sil    Sib 1588   0.576   1.757  11.716 -0.1329  0.2417 -0.2034
    1Sil    Sib 1589   1.158   1.777  12.049  0.2297 -0.2418  0.1104
    1Sil    Sib 1590   0.733   4.947  12.082  0.1755 -0.3738  0.3455
    1Sil    Sim 1591   1.247   4.925  12.472 -0.1226  0.0192  0.2002
    1Sil    Sib 1592   1.017   4.937  11.666  0.3836  0.6899 -0.1013
    1Sil    Sim 1593   2.278   2.026  10.312 -0.1705  0.5445  0.0998
    1Sil    Sib 1594   1.565   2.008  11.227 -0.0482 -0.3969  0.5760
    1Sil    Sib 1595   1.869   2.013  10.836 -0.5982  0.0736 -0.2521
    1Sil    Sib 1596   1.448   2.218  10.818 -0.4948 -0.0760 -0.0545
    1Sil    Sib 1597   2.016   2.208  11.171 -0.1661  0.0403 -0.2756
    1Sil    Sim 1598   1.757   2.203  10.427  0.2518  0.5132  0.4235
    1Sil    Sib 1599   1.740   2.255  11.276  0.0836 -0.1522  0.0975
    1Sil    Sib 1600   1.474   2.261  10.511  0.3401  0.0816 -0.0798
    1Sil    Sib 1601   2.041   2.260  10.879  0.1348 -0.3003  0.2468
    1Sil    Sib 1602   1.580   1.976  10.920  0.1569  0.4147  0.1485
    1Sil    Sib 1603   2.168   1.974  11.263 -0.0920  0.3016  0.2237
    1Sil    Sim 1604   1.882   1.969  10.545 -0.1046  0.1138  0.7643
    1Sil    Sib 1605   2.146   2.007  11.561 -0.1567  0.0451 -0.0342
    1Sil    Sib 1606   1.530   1.995  12.379  0.0845 -0.0194  0.4192
    1Sil    Sib 1607   1.850   2.015  11.947 -0.3603 -0.6196 -0.1178
    1Sil    Sib 1608   1.448   2.211  11.950 -0.2602  0.0372  0.4632
    1Sil    Sim 1609   1.978   2.206  12.338 -0.1976 -0.1884 -0.0823
    1Sil    Sib 1610   1.734   2.207  11.561 -0.1408  0.0878  0.0300
    1Sil    Sim 1611   1.585   2.235  12.567 -0.2753 -0.0482  0.1127
    1Sil    Sib 1612   1.445   2.253  11.652 -0.2125 -0.0010  0.2793
    1Sil    Sib 1613   2.002   2.266  12.046 -0.1268  0.4922 -0.3800
    1Sil    Sib 1614   1.573   1.967  12.071 -0.3284 -0.3615  0.1509
    1Sil    Sim 1615   2.099   1.949  12.443 -0.3460  0.0450 -0.1312
    1Sil    Sib 1616   1.868   1.957  11.653  0.0207 -0.2591 -0.2259
    1Sil    Sim 1617   2.200   2.503  10.384 -0.4831 -0.0520  0.3389
    1Sil    Sib 1618   1.599   2.502  11.173  0.3297 -0.3898  0.5116
    1Sil    Sib 1619   1.902   2.515  10.783  0.1851  0.2030 -0.4569
    1Sil    Sib 1620   1.471   2.717  10.770 -0.3712 -0.4720  0.1608
    1Sil    Sib 1621   1.987   2.711  11.222 -0.2570  0.0842 -0.1334
    1Sil    Sim 1622   1.789   2.717  10.379 -0.0749 -0.5755  0.2209
    1Sil    Sib 1623   1.704   2.748  11.322  0.3268 -0.3752  0.3589
    1Sil    Sib 1624   1.502   2.761  10.464 -0.0740 -0.3892 -0.1349
    1Sil    Sib 1625   2.003   2.771  10.923 -0.2464  0.3732 -0.1949
    1Sil    Sib 1626   1.618   2.471  10.868 -0.0779  0.2022 -0.3961
    1Sil    Sib 1627   2.128   2.464  11.308 -0.1869 -0.1212  0.2342
    1Sil    Sib 1628   1.910   2.460  10.482  0.4960 -0.2596  0.1443
    1Sil    Sib 1629   2.109   2.500  11.609  0.2610 -0.5745  0.1031
    1Sil    Sib 1630   1.508   2.488  12.416 -0.0966 -0.2155  0.2099
    1Sil    Sib 1631   1.834   2.509  12.019  0.3051  0.0545  0.2330
    1Sil    Sib 1632   1.389   2.704  12.022  0.5314 -0.0494  0.5982
    1Sil    Sib 1633   1.952   2.704  12.410  0.2047 -0.1237 -0.1105
    1Sil    Sib 1634   1.703   2.705  11.621 -0.4340  0.0713  0.1469
    1Sil    Sim 1635   1.665   2.729  12.508 -0.3318 -0.2013 -0.2129
    1Sil    Sib 1636   1.420   2.755  11.715  0.0207  0.1230  0.3481
    1Sil    Sib 1637   1.955   2.764  12.118 -0.3571  0.3323  0.3318
    1Sil    Sib 1638   1.540   2.456  12.110 -0.0317 -0.0530 -0.0470
    1Sil    Sim 1639   2.095   2.447  12.492  0.2805 -0.0181 -0.0322
    1Sil    Sib 1640   1.836   2.444  11.717  0.1799 -0.2406  0.2922
    1Sil    Sim 1641   2.282   2.998  10.330 -0.2032  0.1355  0.2665
    1Sil    Sib 1642   1.558   2.998  11.215 -0.0465 -0.0892  0.8287
    1Sil    Sib 1643   1.850   3.012  10.836  0.4598  0.3711 -0.0564
    1Sil    Sib 1644   1.438   3.213  10.809  0.0758 -0.1324  0.2338
    1Sil    Sib 1645   1.998   3.208  11.211 -0.0482 -0.3131  0.5077
    1Sil    Sim 1646   1.767   3.205  10.424  0.2879  0.0927  0.0197
    1Sil    Sib 1647   1.710   3.246  11.310  0.2725  0.1664  0.1138
    1Sil    Sib 1648   1.485   3.254  10.505 -0.1119  0.1533  0.4579
    1Sil    Sib 1649   2.011   3.262  10.913 -0.0221  0.2001 -0.1139
    1Sil    Sib 1650   1.567   2.964  10.916  0.3348 -0.3123  0.0275
    1Sil    Sib 1651   2.154   2.961  11.266  0.0169 -0.2068  0.1676
    1Sil    Sim 1652   1.892   2.956  10.549 -0.0588  0.0830  0.1602
    1Sil    Sib 1653   2.138   2.999  11.572 -0.2905 -0.0395  0.1752
    1Sil    Sib 1654   1.541   2.983  12.382  0.1582  0.2193 -0.3399
    1Sil    Sib 1655   1.844   3.001  11.972 -0.0228  0.1691  0.0942
    1Sil    Sib 1656   1.403   3.205  12.011 -0.1350  0.2201  0.0129
    1Sil    Sib 1657   1.922   3.202  12.401 -0.1412  0.1217 -0.1330
    1Sil    Sib 1658   1.699   3.199  11.606  0.1228 -0.1240  0.0069
    1Sil    Sim 1659   1.638   3.242  12.503 -0.1801  0.0702  0.3009
    1Sil    Sib 1660   1.412   3.247  11.714 -0.0163 -0.2894  0.0073
    1Sil    Sib 1661   1.946   3.260  12.104  0.3230 -0.5851  0.6381
    1Sil    Sib 1662   1.555   2.953  12.079  0.5224  0.2482 -0.0426
    1Sil    Sim 1663   2.091   2.971  12.464 -0.0756 -0.2557 -0.3574
    1Sil    Sib 1664   1.862   2.952  11.676  0.3610 -0.2802 -0.0708
    1Sil    Sim 1665   2.206   3.504  10.385 -0.2459  0.4023 -0.1849
    1Sil    Sib 1666   1.598   3.492  11.179 -0.0007 -0.0057 -0.3423
    1Sil    Sib 1667   1.897   3.504  10.775  0.4088  0.0039 -0.4325
    1Sil    Sib 1668   1.481   3.694  10.763  0.0826  0.4369  0.2946
    1Sil    Sib 1669   2.023   3.695  11.175 -0.1391  0.1240 -0.7065
    1Sil    Sim 1670   1.794   3.706  10.367  0.1372 -0.1751 -0.3937
    1Sil    Sib 1671   1.741   3.742  11.268 -0.3291 -0.0376 -0.3361
    1Sil    Sib 1672   1.504   3.741  10.454 -0.3739  0.1283  0.5382
    1Sil    Sib 1673   2.033   3.750  10.879 -0.2886  0.1466  0.2423
    1Sil    Sib 1674   1.615   3.454  10.882  0.1745  0.2499 -0.0558
    1Sil    Sib 1675   2.124   3.451  11.320 -0.0931  0.7037  0.1292
    1Sil    Sib 1676   1.921   3.454  10.484 -0.1909  0.0031  0.5314
    1Sil    Sib 1677   2.112   3.504  11.612 -0.1153  0.1887 -0.6774
    1Sil    Sib 1678   1.524   3.499  12.413  0.3925  0.5501 -0.5768
    1Sil    Sib 1679   1.812   3.503  11.994  0.1259  0.0230  0.0134
    1Sil    Sib 1680   1.453   3.702  11.948 -0.1721 -0.4256  0.5149
    1Sil    Sim 1681   1.980   3.693  12.343 -0.2259  0.0480 -0.2165
    1Sil    Sib 1682   1.720   3.696  11.557 -0.4931  0.1317  0.4512
    1Sil    Sim 1683   1.595   3.744  12.576  0.0620 -0.3361 -0.0955
    1Sil    Sib 1684   1.450   3.738  11.652 -0.1890 -0.4476 -0.0147
    1Sil    Sib 1685   1.981   3.755  12.050 -0.1015  0.2943  0.2853
    1Sil    Sib 1686   1.541   3.467  12.107 -0.1491  0.7120 -0.0101
    1Sil    Sim 1687   2.070   3.448  12.512 -0.2258  0.3316  0.4484
    1Sil    Sib 1688   1.821   3.456  11.703  0.1071 -0.0286  0.0924
    1Sil    Sim 1689   2.199   4.000  10.366  0.0753 -0.9185 -0.2454
    1Sil    Sib 1690   1.585   3.991  11.169  0.1805  0.1317  0.2656
    1Sil    Sib 1691   1.892   3.997  10.770 -0.2130  0.1224 -0.0674
    1Sil    Sib 1692   1.436   4.209  10.807 -0.2426  0.0448 -0.2413
    1Sil    Sib 1693   1.981   4.190  11.217 -0.1334 -0.0003  0.5375
    1Sil    Sim 1694   1.751   4.192  10.422  0.2718 -0.1718  0.1386
    1Sil    Sib 1695   1.701   4.234  11.303  0.5001  0.0060 -0.2318
    1Sil    Sib 1696   1.478   4.240  10.504  0.0504  0.2565  0.2489
    1Sil    Sib 1697   1.988   4.238  10.922 -0.2413 -0.1619 -0.2380
    1Sil    Sib 1698   1.601   3.952  10.865 -0.3547  0.0539 -0.0255
    1Sil    Sib 1699   2.159   3.948  11.269  0.3379  0.2178 -0.5417
    1Sil    Sib 1700   1.921   3.951  10.471 -0.1583  0.1192 -0.1803
    1Sil    Sib 1701   2.136   3.987  11.568 -0.0276 -0.4360  0.0348
    1Sil    Sib 1702   1.539   3.991  12.382  0.2747  0.1622  0.3258
    1Sil    Sib 1703   1.845   4.006  11.964  0.1701  0.1158 -0.1294
    1Sil    Sib 1704   1.392   4.196  12.009  0.0624  0.6644 -0.5547
    1Sil    Sib 1705   1.914   4.194  12.389  0.1858 -0.1959 -0.0353
    1Sil    Sib 1706   1.684   4.190  11.597 -0.3202  0.1494  0.5831
    1Sil    Sim 1707   1.640   4.239  12.510 -0.1297 -0.1024 -0.2499
    1Sil    Sib 1708   1.413   4.231  11.706  0.6363  0.1040 -0.0967
    1Sil    Sib 1709   1.951   4.248  12.095 -0.2085  0.3496 -0.3357
    1Sil    Sib 1710   1.572   3.951  12.079 -0.2031 -0.2314 -0.4145
    1Sil    Sim 1711   2.085   3.953  12.450 -0.2618  0.0676  0.3010
    1Sil    Sib 1712   1.851   3.942  11.658 -0.3807  0.1187  0.2166
    1Sil    Sim 1713   2.270   4.501  10.318  0.2013 -0.1968  0.1525
    1Sil    Sib 1714   1.567   4.489  11.217 -0.0646  0.0549 -0.0460
    1Sil    Sib 1715   1.858   4.496  10.828  0.6451 -0.4594 -0.3167
    1Sil    Sib 1716   1.468   4.687  10.765 -0.3977 -0.2030  0.1601
    1Sil    Sib 1717   1.988   4.685  11.215  0.6695  0.0832 -0.6915
    1Sil    Sim 1718   1.795   4.698  10.381 -0.0058 -0.3181  0.5357
    1Sil    Sib 1719   1.699   4.740  11.304  0.4014 -0.2018  0.2231
    1Sil    Sib 1720   1.491   4.738  10.464 -0.2395  0.0109  0.0476
    1Sil    Sib 1721   2.003   4.736  10.922  0.3807  0.1604 -0.1610
    1Sil    Sib 1722   1.582   4.444  10.924  0.0030 -0.1903 -0.3029
    1Sil    Sib 1723   2.124   4.432  11.326  0.0775  0.2840 -0.2421
    1Sil    Sim 1724   1.877   4.444  10.532 -0.2026 -0.2133 -0.0303
    1Sil    Sib 1725   2.110   4.478  11.617 -0.0944 -0.2333  0.6643
    1Sil    Sib 1726   1.493   4.481  12.407 -0.6108 -0.2845  0.0190
    1Sil    Sib 1727   1.809   4.487  12.000  0.2829 -0.1791  0.3237
    1Sil    Sib 1728   1.397   4.702  12.018 -0.2471  0.1394 -0.0017
    1Sil    Sib 1729   1.925   4.679  12.412 -0.1048  0.1059 -0.4482
    1Sil    Sib 1730   1.688   4.680  11.595 -0.0763 -0.2621  0.1643
    1Sil    Sim 1731   1.647   4.716  12.514 -0.0773  0.0288 -0.1699
    1Sil    Sib 1732   1.405   4.736  11.720 -0.2000  0.0548  0.0562
    1Sil    Sib 1733   1.949   4.738  12.108  0.4043  0.3646 -0.2699
    1Sil    Sib 1734   1.528   4.442  12.103 -0.4679 -0.3831  0.0437
    1Sil    Sim 1735   2.080   4.419  12.506  0.3012 -0.2932  0.1753
    1Sil    Sib 1736   1.821   4.430  11.701  0.1786 -0.0316 -0.0212
    1Sil    Sim 1737   2.195   5.004  10.375  0.3863 -0.0645 -0.0533
    1Sil    Sib 1738   1.593   4.997  11.168 -0.0571  0.2717  0.3058
    1Sil    Sib 1739   1.893   4.988  10.797 -0.2288 -0.3754  0.0237
    1Sil    Sib 1740   1.443   1.723  10.822 -0.1142  0.0757  0.0002
    1Sil    Sib 1741   2.030   1.720  11.179  0.2088 -0.1358  0.2582
    1Sil    Sim 1742   1.748   1.719  10.434  0.1149  0.1347  0.1542
    1Sil    Sib 1743   1.750   1.769  11.262  0.2470 -0.1416  0.2579
    1Sil    Sib 1744   1.464   1.767  10.527 -0.5689 -0.1381 -0.0573
    1Sil    Sib 1745   2.036   1.768  10.882 -0.1295  0.1900 -0.5614
    1Sil    Sib 1746   1.602   4.942  10.871 -0.0032  0.0116 -0.2850
    1Sil    Sib 1747   2.155   4.936  11.279 -0.1850 -0.1527 -0.1238
    1Sil    Sib 1748   1.916   4.949  10.496  0.0500  0.2282 -0.4094
    1Sil    Sib 1749   2.140   4.981  11.572 -0.1419 -0.1583 -0.2365
    1Sil    Sib 1750   1.540   4.974  12.388  0.3828 -0.2741  0.1948
    1Sil    Sib 1751   1.840   4.983  11.973  0.2608 -0.2476  0.5891
    1Sil    Sib 1752   1.439   1.720  11.966  0.0545 -0.0593  0.4637
    1Sil    Sim 1753   1.957   1.721  12.315  0.3627  0.3829 -0.0629
    1Sil    Sib 1754   1.719   1.712  11.567  0.0392 -0.1087  0.2016
    1Sil    Sim 1755   1.593   1.761  12.565  0.2516  0.0034 -0.2495
    1Sil    Sib 1756   1.439   1.758  11.674  0.0095 -0.2419 -0.0572
    1Sil    Sib 1757   1.993   1.767  12.029 -0.1816  0.2333  0.1202
    1Sil    Sib 1758   1.556   4.945  12.085 -0.2100 -0.0577 -0.0093
    1Sil    Sim 1759   2.072   4.949  12.454 -0.1532 -0.3648 -0.0902
    1Sil    Sib 1760   1.852   4.925  11.667 -0.0898 -0.4037  0.4103
    1Sil    Sim 1761   3.038   2.010  10.371 -0.0091  0.6362 -0.2645
    1Sil    Sib 1762   2.455   2.013  11.177  0.5798 -0.0860 -0.0245
    1Sil    Sib 1763   2.745   2.018  10.782 -0.6305  0.0647 -0.2557
    1Sil    Sib 1764   2.321   2.211  10.787 -0.0567 -0.1419 -0.2883
    1Sil    Sib 1765   2.869   2.210  11.173  0.3128  0.1332  0.5640
    1Sil    Sim 1766   2.633   2.229  10.399 -0.0530  0.2285  0.3394
    1Sil    Sib 1767   2.590   2.261  11.278  0.2784 -0.1069  0.5260
    1Sil    Sib 1768   2.349   2.262  10.481 -0.2086  0.1819 -0.4050
    1Sil    Sib 1769   2.881   2.271  10.878  0.3260  0.4044 -0.0085
    1Sil    Sib 1770   2.464   1.969  10.881  0.6103  0.0303  0.1108
    1Sil    Sib 1771   2.999   1.966  11.273  0.3982 -0.0547  0.4211
    1Sil    Sib 1772   2.758   1.971  10.485  0.0436 -0.0278  0.2085
    1Sil    Sib 1773   3.006   2.006  11.573  0.4747 -0.1987 -0.2766
    1Sil    Sib 1774   2.389   2.002  12.355  0.4989 -0.1613  0.0122
    1Sil    Sib 1775   2.693   2.017  11.954  0.2226  0.3266 -0.4135
    1Sil    Sib 1776   2.289   2.230  11.950 -0.1467 -0.0630 -0.5810
    1Sil    Sib 1777   2.780   2.207  12.393 -0.1749  0.2520  0.2035
    1Sil    Sib 1778   2.573   2.210  11.569 -0.0241  0.0864 -0.0149
    1Sil    Sim 1779   2.498   2.239  12.491 -0.0195  0.2191 -0.1283
    1Sil    Sib 1780   2.292   2.251  11.657  0.2215  0.2737 -0.0016
    1Sil    Sib 1781   2.797   2.266  12.090  0.4090  0.1209  0.3089
    1Sil    Sib 1782   2.408   1.976  12.049 -0.0064 -0.7007  0.0254
    1Sil    Sim 1783   2.943   1.953  12.451 -0.1537 -0.1184 -0.0309
    1Sil    Sib 1784   2.715   1.957  11.662  0.0737 -0.0732 -0.0950
    1Sil    Sim 1785   3.101   2.527  10.308 -0.3376 -0.1292  0.1439
    1Sil    Sib 1786   2.416   2.499  11.228 -0.8263 -0.2012  0.3488
    1Sil    Sib 1787   2.697   2.517  10.842 -0.0965 -0.4415 -0.2256
    1Sil    Sib 1788   2.287   2.713  10.830  0.3329  0.3481  0.2215
    1Sil    Sib 1789   2.841   2.712  11.221 -0.5781 -0.2108 -0.0441
    1Sil    Sim 1790   2.603   2.704  10.438  0.0066  0.0586 -0.0234
    1Sil    Sib 1791   2.555   2.749  11.312 -0.3491  0.0608 -0.9356
    1Sil    Sib 1792   2.317   2.753  10.525  0.1761  0.3509  0.0675
    1Sil    Sib 1793   2.853   2.763  10.920  0.0098  0.1515  0.6299
    1Sil    Sib 1794   2.416   2.462  10.931 -0.1354  0.6663  0.2812
    1Sil    Sib 1795   2.980   2.459  11.310 -0.1174 -0.1628 -0.2156
    1Sil    Sim 1796   2.735   2.460  10.556  0.0925 -0.4863 -0.1260
    1Sil    Sib 1797   2.962   2.509  11.607  0.4661 -0.2976  0.1190
    1Sil    Sib 1798   2.375   2.498  12.401  0.2986 -0.4411  0.1821
    1Sil    Sib 1799   2.668   2.526  12.002  0.0476 -0.0087 -0.1810
    1Sil    Sib 1800   2.237   2.724  12.005 -0.0266 -0.0209  0.0148
    1Sil    Sim 1801   2.840   2.713  12.346  0.2838 -0.1348  0.0785
    1Sil    Sib 1802   2.529   2.703  11.616  0.1418 -0.0566  0.1125
    1Sil    Sim 1803   2.432   2.743  12.561 -0.0003  0.4568 -0.2021
    1Sil    Sib 1804   2.242   2.747  11.709 -0.1423 -0.1688 -0.1429
    1Sil    Sib 1805   2.849   2.761  12.056  0.2582  0.1948 -0.2806
    1Sil    Sib 1806   2.380   2.481  12.093 -0.2682 -0.5466 -0.1230
    1Sil    Sim 1807   2.918   2.464  12.506 -0.4327  0.2383 -0.1210
    1Sil    Sib 1808   2.676   2.463  11.709  0.0040 -0.0217 -0.1475
    1Sil    Sim 1809   3.045   3.008  10.364 -0.2102 -0.0075 -0.5872
    1Sil    Sib 1810   2.440   2.999  11.169  0.2726  0.4397 -0.3836
    1Sil    Sib 1811   2.745   3.012  10.777 -0.0198  0.0680 -0.7661
    1Sil    Sib 1812   2.294   3.207  10.804 -0.1688 -0.2737  0.2132
    1Sil    Sib 1813   2.826   3.201  11.215  0.0068  0.2479  0.2747
    1Sil    Sim 1814   2.605   3.214  10.426  0.3782 -0.0587  0.6327
    1Sil    Sib 1815   2.544   3.247  11.306  0.3071  0.2166 -0.1761
    1Sil    Sib 1816   2.323   3.253  10.505  0.7927  0.2045  0.0765
    1Sil    Sib 1817   2.838   3.256  10.925 -0.1643  0.0022 -0.1234
    1Sil    Sib 1818   2.464   2.957  10.875 -0.0538  0.3069 -0.2511
    1Sil    Sib 1819   2.998   2.963  11.271  0.0543 -0.0832 -0.5363
    1Sil    Sib 1820   2.767   2.962  10.479 -0.1755  0.2647  0.3992
    1Sil    Sib 1821   2.986   3.003  11.573 -0.0693  0.1746 -0.2915
    1Sil    Sib 1822   2.375   2.991  12.374 -0.2056  0.0069  0.1967
    1Sil    Sib 1823   2.697   3.009  11.963 -0.1022 -0.1307 -0.1912
    1Sil    Sib 1824   2.233   3.211  12.016 -0.3945 -0.0750  0.0038
    1Sil    Sib 1825   2.770   3.213  12.396 -0.6119 -0.0106  0.2393
    1Sil    Sib 1826   2.540   3.210  11.611  0.0208 -0.1848  0.4705
    1Sil    Sim 1827   2.488   3.236  12.502  0.0697  0.0978  0.1746
    1Sil    Sib 1828   2.249   3.256  11.717  0.2266 -0.1562 -0.2438
    1Sil    Sib 1829   2.798   3.264  12.108 -0.0814 -0.1920  0.1482
    1Sil    Sib 1830   2.415   2.957  12.067  0.4404 -0.4639 -0.0905
    1Sil    Sim 1831   2.938   2.980  12.455  0.1469  0.0971  0.4225
    1Sil    Sib 1832   2.700   2.960  11.665  0.5444  0.0272 -0.5343
    1Sil    Sim 1833   3.105   3.485  10.325 -0.1951 -0.1967  0.1673
    1Sil    Sib 1834   2.407   3.496  11.212  0.0080  0.0694 -0.3541
    1Sil    Sib 1835   2.696   3.507  10.839  0.2186 -0.2447  0.0705
    1Sil    Sib 1836   2.319   3.717  10.777  0.1630  0.1071 -0.2056
    1Sil    Sib 1837   2.863   3.704  11.169  0.2152 -0.4817 -0.3330
    1Sil    Sim 1838   2.616   3.704  10.383 -0.3861 -0.1747  0.1760
    1Sil    Sib 1839   2.575   3.742  11.269  0.0386 -0.1917 -0.4019
    1Sil    Sib 1840   2.334   3.753  10.484  0.0103 -0.6769 -0.0458
    1Sil    Sib 1841   2.866   3.759  10.877 -0.0898  0.4890 -0.0251
    1Sil    Sib 1842   2.415   3.460  10.919 -0.0711 -0.1987  0.1833
    1Sil    Sib 1843   2.967   3.450  11.311 -0.5190  0.2502  0.2532
    1Sil    Sim 1844   2.715   3.464  10.543 -0.1900 -0.8188  0.2320
    1Sil    Sib 1845   2.951   3.495  11.607  0.0616 -0.0680  0.0250
    1Sil    Sib 1846   2.357   3.496  12.429  0.3092  0.0607 -0.1968
    1Sil    Sib 1847   2.655   3.501  12.011 -0.2128 -0.0515  0.6265
    1Sil    Sib 1848   2.270   3.707  11.963 -0.4012 -0.4470  0.4026
    1Sil    Sim 1849   2.821   3.682  12.341  0.6134  0.2763  0.1511
    1Sil    Sib 1850   2.563   3.700  11.569  0.1988 -0.0511 -0.0586
    1Sil    Sim 1851   2.410   3.749  12.582  0.1210  0.2307  0.0686
    1Sil    Sib 1852   2.283   3.740  11.668 -0.1385 -0.1620  0.1806
    1Sil    Sib 1853   2.826   3.754  12.050 -0.5337 -0.3167  0.0374
    1Sil    Sib 1854   2.370   3.466  12.118 -0.0592 -0.1128 -0.0517
    1Sil    Sim 1855   2.923   3.456  12.511 -0.1051  0.1194  0.4192
    1Sil    Sib 1856   2.669   3.453  11.715  0.0932  0.1327 -0.0170
    1Sil    Sim 1857   3.040   4.005  10.368  0.0664 -0.2609 -0.6153
    1Sil    Sib 1858   2.446   4.001  11.168 -0.7509 -0.0471 -0.1628
    1Sil    Sib 1859   2.739   4.004  10.767  0.2195  0.4254  0.0724
    1Sil    Sib 1860   2.276   4.201  10.811  0.1758  0.2461 -0.0154
    1Sil    Sib 1861   2.823   4.201  11.211  0.0147  0.3771 -0.1945
    1Sil    Sim 1862   2.586   4.181  10.420  0.1001  0.3663  0.4989
    1Sil    Sib 1863   2.544   4.236  11.312  0.2378 -0.0125  0.3106
    1Sil    Sib 1864   2.307   4.247  10.508  0.4682  0.0426  0.2867
    1Sil    Sib 1865   2.840   4.253  10.915 -0.0865  0.6386 -0.0136
    1Sil    Sib 1866   2.461   3.968  10.865 -0.0499 -0.0371  0.1557
    1Sil    Sib 1867   2.996   3.959  11.275 -0.1824 -0.3758 -0.0286
    1Sil    Sib 1868   2.759   3.945  10.482  0.1862  0.3054  0.3734
    1Sil    Sib 1869   2.990   3.990  11.581 -0.0097 -0.2033 -0.5075
    1Sil    Sib 1870   2.375   3.990  12.380  0.2071  0.1560  0.1327
    1Sil    Sib 1871   2.687   3.999  11.966  0.4328  0.3431  0.5132
    1Sil    Sib 1872   2.234   4.201  12.016 -0.2868  0.0827  0.1622
    1Sil    Sib 1873   2.768   4.188  12.399 -0.2028 -0.0311  0.1737
    1Sil    Sib 1874   2.531   4.186  11.604 -0.3911 -0.4273  0.3588
    1Sil    Sim 1875   2.492   4.233  12.519  0.5229  0.3513 -0.0542
    1Sil    Sib 1876   2.248   4.236  11.716  0.1431  0.1035 -0.3499
    1Sil    Sib 1877   2.800   4.242  12.102 -0.3046  0.3581  0.3736
    1Sil    Sib 1878   2.399   3.948  12.081 -0.1835 -0.7518 -0.1751
    1Sil    Sim 1879   2.924   3.942  12.458 -0.1173  0.2945 -0.1478
    1Sil    Sib 1880   2.702   3.946  11.663 -0.3998  0.1779 -0.6879
    1Sil    Sim 1881   3.119   4.489  10.331  0.1684 -0.1385  0.1183
    1Sil    Sib 1882   2.397   4.491  11.218  0.4246 -0.2028 -0.2557
    1Sil    Sib 1883   2.689   4.496  10.838  0.0327  0.3665 -0.1302
    1Sil    Sib 1884   2.283   4.695  10.800  0.0261 -0.1612 -0.1822
    1Sil    Sib 1885   2.821   4.690  11.214 -0.8013 -0.5811  0.0140
    1Sil    Sim 1886   2.599   4.705  10.419 -0.2405 -0.0811  0.2875
    1Sil    Sib 1887   2.539   4.737  11.314 -0.2229  0.0275 -0.2393
    1Sil    Sib 1888   2.312   4.755  10.495  0.0938  0.3082  0.1655
    1Sil    Sib 1889   2.833   4.745  10.918  0.1413 -0.1508  0.2061
    1Sil    Sib 1890   2.403   4.448  10.922  0.2194  0.2145 -0.1545
    1Sil    Sib 1891   2.962   4.446  11.309  0.1131  0.0670  0.0486
    1Sil    Sim 1892   2.700   4.440  10.544 -0.3386  0.1463 -0.4626
    1Sil    Sib 1893   2.950   4.486  11.612 -0.1738 -0.1160  0.0106
    1Sil    Sib 1894   2.364   4.484  12.419 -0.2134 -0.4739 -0.2234
    1Sil    Sib 1895   2.659   4.488  12.006  0.0049  0.3596  0.1841
    1Sil    Sib 1896   2.238   4.694  12.014 -0.3147 -0.0291 -0.2426
    1Sil    Sim 1897   2.828   4.682  12.338  0.3722 -0.4478 -0.2224
    1Sil    Sib 1898   2.529   4.688  11.616 -0.1586  0.0436 -0.0509
    1Sil    Sim 1899   2.425   4.744  12.572  0.0392 -0.2419 -0.0156
    1Sil    Sib 1900   2.244   4.736  11.710  0.3036 -0.1416  0.0097
    1Sil    Sib 1901   2.845   4.739  12.047  0.1664 -0.4290  0.4022
    1Sil    Sib 1902   2.383   4.450  12.110  0.6185  0.0235  0.3415
    1Sil    Sim 1903   2.909   4.439  12.492 -0.0489 -0.8458 -0.2414
    1Sil    Sib 1904   2.661   4.435  11.711 -0.3776  0.3203  0.0068
    1Sil    Sim 1905   3.046   4.983  10.377 -0.0877 -0.0998  0.0120
    1Sil    Sib 1906   2.432   4.981  11.172 -0.1210 -0.3458 -0.4066
    1Sil    Sib 1907   2.741   4.984  10.774  0.4184  0.1114 -0.0336
    1Sil    Sib 1908   2.319   1.729  10.770 -0.3560  0.2107  0.1017
    1Sil    Sib 1909   2.856   1.718  11.174 -0.0706  0.9066 -0.5884
    1Sil    Sim 1910   2.643   1.717  10.381  0.5803 -0.0299 -0.3527
    1Sil    Sib 1911   2.576   1.756  11.259 -0.2469 -0.4501 -0.0055
    1Sil    Sib 1912   2.358   5.244  10.458 -0.3541  0.2107 -0.0465
    1Sil    Sib 1913   2.881   1.762  10.874 -0.3720  0.7031  0.3984
    1Sil    Sib 1914   2.452   4.933  10.860  0.0855  0.5697 -0.1286
    1Sil    Sib 1915   2.999   4.932  11.263 -0.3397  0.2958  0.0234
    1Sil    Sib 1916   2.770   4.938  10.488 -0.3940  0.0192  0.0522
    1Sil    Sib 1917   2.984   4.984  11.561  0.1057 -0.4750  0.4136
    1Sil    Sib 1918   2.363   4.985  12.389 -0.1176  0.0448 -0.4194
    1Sil    Sib 1919   2.698   4.988  11.959 -0.2911  0.3309  0.0144
    1Sil    Sib 1920   2.279   1.727  11.949  0.0327  0.3723 -0.2533
    1Sil    Sib 1921   2.765   1.716  12.394  0.4640  0.2392  0.0961
    1Sil    Sib 1922   2.571   1.706  11.558 -0.2097 -0.4675 -0.0389
    1Sil    Sim 1923   2.488   1.763  12.506  0.2383 -0.2002  0.6414
    1Sil    Sib 1924   2.282   1.760  11.655  0.1392 -0.0374  0.0392
    1Sil    Sib 1925   2.796   1.779  12.097  0.2410 -0.0318  0.2508
    1Sil    Sib 1926   2.404   4.946  12.087 -0.3999 -0.2253  0.1714
    1Sil    Sim 1927   2.931   4.941  12.455  0.2164  0.1366 -0.6043
    1Sil    Sib 1928   2.702   4.931  11.669  0.3912  0.2242  0.0457
    1Sil    Sim 1929   0.520   2.011  10.372 -0.2945 -0.0406  0.3146
    1Sil    Sib 1930   3.290   2.017  11.161 -0.2723  0.0418  0.3484
    1Sil    Sib 1931   0.214   2.014  10.770 -0.1316  0.7301 -0.2960
    1Sil    Sib 1932   3.171   2.228  10.769  0.2316 -0.0834 -0.0125
    1Sil    Sib 1933   3.684   2.207  11.209 -0.3831  0.4005  0.2316
    1Sil    Sim 1934   3.462   2.229  10.373 -0.0761  0.1090 -0.0798
    1Sil    Sib 1935   3.400   2.258  11.303 -0.1969 -0.2305 -0.0962
    1Sil    Sib 1936   3.175   2.263  10.458 -0.0159  0.1320  0.3667
    1Sil    Sib 1937   0.313   2.252  10.915 -0.0765  0.0162 -0.0656
    1Sil    Sib 1938   3.299   1.967  10.871 -0.3682 -0.7039 -0.1796
    1Sil    Sib 1939   0.477   1.966  11.279 -0.2963  0.1070 -0.1116
    1Sil    Sib 1940   0.228   1.974  10.473 -0.1226 -0.0315  0.0821
    1Sil    Sib 1941   0.460   2.014  11.575 -0.0345  0.2308 -0.1969
    1Sil    Sib 1942   3.233   1.993  12.360  0.8714 -0.2177 -0.0486
    1Sil    Sib 1943   0.166   2.010  11.962  0.2834  0.1562  0.1850
    1Sil    Sib 1944   3.085   2.217  12.010 -0.3074 -0.3551 -0.0370
    1Sil    Sib 1945   3.606   2.220  12.395 -0.0587  0.3439 -0.0651
    1Sil    Sib 1946   3.381   2.214  11.608  0.5468  0.2499  0.0957
    1Sil    Sim 1947   3.323   2.254  12.489 -0.2253 -0.3375 -0.0412
    1Sil    Sib 1948   3.100   2.258  11.705  0.4722  0.2105  0.0967
    1Sil    Sib 1949   0.262   2.257  12.101 -0.1968 -0.1061 -0.2874
    1Sil    Sib 1950   3.251   1.961  12.060 -0.1741 -0.1069  0.1834
    1Sil    Sim 1951   0.362   1.966  12.486 -0.0423 -0.2499 -0.3232
    1Sil    Sib 1952   0.177   1.967  11.667  0.2625 -0.4674  0.2773
    1Sil    Sim 1953   0.603   2.503  10.309 -0.4859 -0.3036 -0.0664
    1Sil    Sib 1954   3.257   2.501  11.204  0.0792  0.4095  0.3548
    1Sil    Sib 1955   0.188   2.512  10.837 -0.0207 -0.1472 -0.2596
    1Sil    Sib 1956   3.133   2.705  10.806 -0.0897  0.2561 -0.3320
    1Sil    Sib 1957   3.706   2.712  11.181 -0.5304  0.7693  0.4570
    1Sil    Sim 1958   3.445   2.718  10.441 -0.7124  0.1739 -0.2905
    1Sil    Sib 1959   3.420   2.742  11.268 -0.2217 -0.1291 -0.1050
    1Sil    Sib 1960   3.156   2.764  10.505  0.5038  0.1150 -0.0502
    1Sil    Sib 1961   0.356   2.763  10.885  0.0117 -0.4885 -0.1727
    1Sil    Sib 1962   3.277   2.462  10.912 -0.5187  0.1202 -0.0652
    1Sil    Sib 1963   0.443   2.460  11.312  0.1930 -0.2154  0.0982
    1Sil    Sim 1964   3.561   2.461  10.543 -0.5461  0.4515 -0.1194
    1Sil    Sib 1965   0.420   2.513  11.604 -0.1944  0.4785 -0.0795
    1Sil    Sib 1966   3.197   2.510  12.397 -0.3421 -0.0689  0.2256
    1Sil    Sib 1967   0.138   2.512  12.003 -0.1906  0.2865 -0.3118
    1Sil    Sib 1968   3.129   2.714  11.957  0.1162 -0.1742 -0.0924
    1Sil    Sim 1969   0.297   2.719  12.338  0.2145 -0.1907  0.5416
    1Sil    Sib 1970   3.404   2.712  11.564 -0.0756  0.1812  0.0330
    1Sil    Sim 1971   3.264   2.762  12.561  0.2331  0.4104  0.5358
    1Sil    Sib 1972   3.132   2.761  11.658 -0.2094 -0.0990  0.3670
    1Sil    Sib 1973   0.309   2.762  12.048 -0.6136 -0.2555  0.1707
    1Sil    Sib 1974   3.223   2.468  12.099 -0.0990 -0.5166  0.2953
    1Sil    Sim 1975   0.404   2.470  12.463  0.4248  0.5005  0.0367
    1Sil    Sib 1976   3.507   2.467  11.713  0.4230 -0.1556  0.5916
    1Sil    Sim 1977   0.524   2.996  10.377 -0.2015  0.1237 -0.5738
    1Sil    Sib 1978   3.280   2.997  11.173  0.2589  0.3865 -0.1976
    1Sil    Sib 1979   0.214   3.015  10.799 -0.2149 -0.3275 -0.0056
    1Sil    Sib 1980   3.127   3.206  10.830  0.3361  0.2078  0.4063
    1Sil    Sib 1981   3.684   3.212  11.232 -0.0308 -0.2845  0.1430
    1Sil    Sim 1982   3.426   3.185  10.431  0.1179 -0.3171 -0.3187
    1Sil    Sib 1983   3.390   3.239  11.318 -0.0660  0.2534  0.2632
    1Sil    Sib 1984   3.151   3.239  10.522 -0.3675 -0.4046 -0.2860
    1Sil    Sib 1985   0.320   3.264  10.938 -0.5037  0.3679 -0.0110
    1Sil    Sib 1986   3.292   2.959  10.875 -0.1659  0.1513 -0.2567
    1Sil    Sib 1987   0.484   2.958  11.270 -0.3458  0.0789  0.0129
    1Sil    Sib 1988   3.617   2.963  10.502  0.4198  0.2743 -0.0597
    1Sil    Sib 1989   0.464   3.006  11.571  0.2104  0.0237  0.1839
    1Sil    Sib 1990   3.224   3.013  12.375  0.6459  0.2484  0.5069
    1Sil    Sib 1991   0.169   3.011  11.953  0.7627 -0.2146 -0.0151
    1Sil    Sib 1992   3.090   3.215  12.022 -0.0117 -0.1710 -0.1281
    1Sil    Sib 1993   3.621   3.205  12.393 -0.2561 -0.2705  0.1589
    1Sil    Sib 1994   3.379   3.201  11.610 -0.4477 -0.3576  0.4769
    1Sil    Sim 1995   3.351   3.251  12.513  0.2407 -0.2050  0.3954
    1Sil    Sib 1996   3.095   3.249  11.711  0.1410 -0.0411  0.2946
    1Sil    Sib 1997   0.278   3.251  12.094 -0.4991 -0.0774  0.3330
    1Sil    Sib 1998   3.257   2.967  12.064  0.1024 -0.0173 -0.2762
    1Sil    Sim 1999   0.395   2.952  12.492  0.3647  0.3634 -0.1491
    1Sil    Sib 2000   3.551   2.951  11.663  0.3310  0.0336  0.3600
    1Sil    Sim 2001   0.593   3.503  10.319 -0.2123  0.1365 -0.4052
    1Sil    Sib 2002   3.249   3.488  11.227 -0.0204 -0.0977 -0.0898
    1Sil    Sib 2003   0.169   3.511  10.832  0.1001 -0.1904  0.3437
    1Sil    Sib 2004   3.147   3.706  10.764  0.1871 -0.2576  0.4151
    1Sil    Sib 2005   3.695   3.692  11.174 -0.1454  0.1725  0.2251
    1Sil    Sim 2006   3.481   3.706  10.392 -0.0628 -0.3297 -0.1555
    1Sil    Sib 2007   3.415   3.748  11.280  0.7855  0.4671 -0.0839
    1Sil    Sib 2008   3.183   3.749  10.463  0.1088  0.0067 -0.3736
    1Sil    Sib 2009   0.338   3.755  10.874  0.4512 -0.0961 -0.2638
    1Sil    Sib 2010   3.256   3.466  10.929  0.2025  0.0765  0.1814
    1Sil    Sib 2011   0.442   3.460  11.331 -0.0356 -0.0650 -0.0718
    1Sil    Sim 2012   3.559   3.444  10.539 -0.1975 -0.5896  0.3286
    1Sil    Sib 2013   0.433   3.502  11.617 -0.5204 -0.3728 -0.1530
    1Sil    Sib 2014   3.198   3.497  12.426  0.2011 -0.0260  0.2843
    1Sil    Sib 2015   0.134   3.514  12.007 -0.1564  0.3357  0.2748
    1Sil    Sib 2016   3.104   3.705  11.963  0.0845 -0.1684  0.0278
    1Sil    Sim 2017   0.299   3.698  12.346 -0.2920  0.4598 -0.1184
    1Sil    Sib 2018   3.404   3.694  11.575 -0.0331  0.4340  0.0826
    1Sil    Sim 2019   3.278   3.755  12.588  0.7654  0.4813 -0.2760
    1Sil    Sib 2020   3.122   3.731  11.668 -0.1617 -0.0227  0.1971
    1Sil    Sib 2021   0.311   3.754  12.046 -0.0445  0.0382  0.0145
    1Sil    Sib 2022   3.215   3.471  12.113 -0.0943  0.1951 -0.4693
    1Sil    Sim 2023   0.435   3.437  12.452 -0.0703 -0.5075 -0.0447
    1Sil    Sib 2024   3.521   3.449  11.715  0.1339  0.1848  0.1741
    1Sil    Sim 2025   0.499   4.003  10.380 -0.6460 -0.6224 -0.5256
    1Sil    Sib 2026   3.281   3.997  11.171 -0.0561  0.3865 -0.0925
    1Sil    Sib 2027   0.201   4.013  10.788  0.1959  0.7030  0.2700
    1Sil    Sib 2028   3.123   4.202  10.808  0.0788 -0.2459 -0.0558
    1Sil    Sib 2029   3.670   4.191  11.220 -0.3327  0.0848 -0.0622
    1Sil    Sim 2030   3.427   4.187  10.416  0.3480 -0.2628  0.2771
    1Sil    Sib 2031   3.381   4.245  11.305 -0.0370  0.2706  0.8180
    1Sil    Sib 2032   3.156   4.249  10.513 -0.1551 -0.1130 -0.1854
    1Sil    Sib 2033   0.319   4.249  10.917 -0.1517 -0.2714 -0.0201
    1Sil    Sib 2034   3.283   3.955  10.859 -0.1169 -0.2240 -0.1350
    1Sil    Sib 2035   0.468   3.946  11.270 -0.0286  0.1417 -0.3471
    1Sil    Sib 2036   3.596   3.956  10.498 -0.1982  0.0086  0.1293
    1Sil    Sib 2037   0.452   3.992  11.575  0.0059  0.1454 -0.0467
    1Sil    Sib 2038   3.220   3.988  12.386 -0.0321  0.0821  0.4745
    1Sil    Sib 2039   0.161   4.004  11.969  0.3776 -0.3034  0.4251
    1Sil    Sib 2040   3.092   4.207  12.022 -0.3858 -0.1076 -0.3273
    1Sil    Sib 2041   3.611   4.191  12.394  0.6631 -0.0053  0.2913
    1Sil    Sib 2042   3.385   4.198  11.604  0.3605  0.0778  0.4152
    1Sil    Sim 2043   3.333   4.244  12.498 -0.1060  0.1780  0.1489
    1Sil    Sib 2044   3.100   4.238  11.722  0.0842  0.0354 -0.1073
    1Sil    Sib 2045   0.272   4.248  12.101  0.2570 -0.3930  0.4849
    1Sil    Sib 2046   3.249   3.947  12.085  0.3074  0.5499 -0.0092
    1Sil    Sim 2047   0.412   3.957  12.455 -0.2244 -0.0689 -0.0864
    1Sil    Sib 2048   3.537   3.947  11.667 -0.2806 -0.0573  0.0116
    1Sil    Sim 2049   0.593   4.489  10.318 -0.2951  0.1649  0.0230
    1Sil    Sib 2050   3.244   4.488  11.209  0.0291 -0.1021  0.3460
    1Sil    Sib 2051   0.171   4.490  10.817 -0.4129  0.5862  0.1206
    1Sil    Sib 2052   3.125   4.692  10.815  0.1949 -0.2015 -0.2084
    1Sil    Sib 2053   3.707   4.687  11.167  0.0481 -0.1471 -0.4341
    1Sil    Sim 2054   3.446   4.716  10.431 -0.0094 -0.6222  0.1132
    1Sil    Sib 2055   3.423   4.731  11.269  0.1209 -0.0400 -0.0141
    1Sil    Sib 2056   3.159   4.739  10.510  0.3245 -0.2681  0.0267
    1Sil    Sib 2057   0.345   4.734  10.867 -0.0286 -0.6758 -0.3845
    1Sil    Sib 2058   3.257   4.444  10.918  0.2017 -0.1956  0.2063
    1Sil    Sib 2059   0.437   4.433  11.312 -0.2743 -0.9065  0.2931
    1Sil    Sim 2060   3.549   4.445  10.528 -0.4377 -0.2220  0.1295
    1Sil    Sib 2061   0.437   4.494  11.607  0.3283 -0.0028 -0.0411
    1Sil    Sib 2062   3.200   4.496  12.402  0.0504  0.0741 -0.0296
    1Sil    Sib 2063   0.140   4.496  11.990  0.1790  0.4785 -0.0056
    1Sil    Sib 2064   3.133   4.692  11.947 -0.4644  0.0283 -0.4005
    1Sil    Sim 2065   0.285   4.671  12.331  0.1077  0.3030 -0.0033
    1Sil    Sib 2066   3.411   4.694  11.556 -0.1269 -0.0381 -0.0353
    1Sil    Sim 2067   3.276   4.741  12.576 -0.1502 -0.0920  0.2193
    1Sil    Sib 2068   3.133   4.742  11.655 -0.2448  0.3446 -0.1316
    1Sil    Sib 2069   0.302   4.749  12.042  0.0463 -0.0660  0.6317
    1Sil    Sib 2070   3.226   4.461  12.102 -0.0909 -0.1246 -0.3808
    1Sil    Sim 2071   0.394   4.433  12.496 -0.0282  0.4469 -0.0526
    1Sil    Sib 2072   3.527   4.443  11.699  0.1675  0.0409  0.4091
    1Sil    Sim 2073   0.519   4.989  10.391  0.5911 -0.1178 -0.4518
    1Sil    Sib 2074   3.289   4.986  11.176  0.1030  0.5186  0.2854
    1Sil    Sib 2075   0.205   4.992  10.793 -0.0334  0.0644  0.4781
    1Sil    Sib 2076   3.162   1.721  10.778 -0.1597 -0.0432 -0.2356
    1Sil    Sib 2077   0.310   1.724  11.218  0.2037  0.2089 -0.2434
    1Sil    Sim 2078   0.087   1.715  10.386  0.2731 -0.2460 -0.0104
    1Sil    Sib 2079   3.400   1.773  11.302  0.4059  0.3934  0.1038
    1Sil    Sib 2080   3.171   1.762  10.484 -0.0475  0.4366  0.0625
    1Sil    Sib 2081   0.332   1.767  10.916  0.1728  0.0884 -0.1492
    1Sil    Sib 2082   3.295   4.941  10.878  0.0326 -0.0357  0.5464
    1Sil    Sib 2083   0.470   4.932  11.274  0.5891  0.4112  0.3470
    1Sil    Sib 2084   3.601   4.951  10.498 -0.3689  0.2673  0.1204
    1Sil    Sib 2085   0.464   4.978  11.570 -0.1896  0.2318  0.2834
    1Sil    Sib 2086   3.220   4.980  12.378  0.0208 -0.1784  0.2134
    1Sil    Sib 2087   0.164   4.991  11.959  0.3657 -0.0488 -0.2974
    1Sil    Sib 2088   3.080   1.713  12.002 -0.2887 -0.5657 -0.1119
    1Sil    Sib 2089   0.244   1.703  12.399  0.0397  0.3281  0.5543
    1Sil    Sib 2090   0.009   1.719  11.603  0.3516  0.9151  0.1926
    1Sil    Sim 2091   3.335   1.760  12.509  0.5666 -0.0807  0.1777
    1Sil    Sib 2092   3.099   1.752  11.702 -0.3646  0.0527 -0.1763
    1Sil    Sib 2093   0.261   1.758  12.105 -0.2456 -0.3297  0.0486
    1Sil    Sib 2094   3.249   4.936  12.077 -0.4694  0.0219  0.3341
    1Sil    Sim 2095   0.389   4.917  12.464  0.4373 -0.1618  0.1104
    1Sil    Sib 2096   3.547   4.943  11.658 -0.4424  0.0736  0.0517
    1Sil     Hm 2097   1.458   2.057  10.164  1.6620 -2.5298 -2.2496
    1Sil     Hm 2098   1.486   1.896  10.205 -0.7222 -0.1893  1.4345
    1Sil     Hm 2099   1.325   1.936  10.161 -0.8601  0.0935  0.3530
    1Sil     Hm 2100   0.912   2.098  10.225 -0.4444 -0.3395  2.1196
    1Sil     Hm 2101   0.816   2.247  10.237 -0.1862  0.8531 -0.1782
    1Sil     Hm 2102   0.995   2.250  10.214  0.7780  0.2022  0.1722
    1Sil     Hm 2103   0.898   2.239  12.728  0.5087 -0.9687 -1.0945
    1Sil     Hm 2104   0.926   2.124  12.596 -0.8435 -0.5045  0.4517
    1Sil     Hm 2105   0.969   2.294  12.583 -1.4616  2.2752 -2.6851
    1Sil     Hm 2106   1.190   2.510  10.267  0.2768 -0.1978  1.0262
    1Sil     Hm 2107   1.292   2.472  10.131 -2.5648  0.8641  0.5575
    1Sil     Hm 2108   1.266   2.349  10.253  0.9663 -0.6060 -2.0224
    1Sil     Hm 2109   1.285   3.368  10.143 -2.8751 -1.4050  0.7574
    1Sil     Hm 2110   1.210   3.365  10.300  0.7997 -1.6066 -0.5083
    1Sil     Hm 2111   1.192   3.511  10.202 -1.0655 -1.5331  0.7854
    1Sil     Hm 2112   0.887   3.659  12.737 -1.3676  0.6743  0.1149
    1Sil     Hm 2113   0.949   3.623  12.576 -1.2319 -0.1295 -1.1471
    1Sil     Hm 2114   0.979   3.784  12.646 -0.5643  0.5634  2.0400
    1Sil     Hm 2115   1.221   4.361  10.291  1.5981 -0.4963  1.4769
    1Sil     Hm 2116   1.215   4.499  10.183  1.0854 -1.0836 -2.8453
    1Sil     Hm 2117   1.306   4.359  10.139 -2.5830  1.8193 -1.9127
    1Sil     Hm 2118   0.903   1.723  12.745 -2.8140  0.4028 -0.2838
    1Sil     Hm 2119   0.918   1.603  12.614  0.4788 -0.0780 -1.3844
    1Sil     Hm 2120   0.964   1.770  12.590 -0.7755  2.0336  2.9531
    1Sil     Hm 2121   2.155   2.039  10.121  0.1086  0.8708  0.0089
    1Sil     Hm 2122   2.123   1.896  10.219  0.6780 -0.1469 -1.5841
    1Sil     Hm 2123   2.053   2.062  10.257 -1.1807 -0.4467 -1.8773
    1Sil     Hm 2124   1.771   2.102  12.585 -1.6541 -0.2423 -0.3050
    1Sil     Hm 2125   1.801   2.278  12.600 -0.3190  0.0916 -0.2990
    1Sil     Hm 2126   1.734   2.191  12.737  3.8697  2.5682  0.7282
    1Sil     Hm 2127   2.056   3.032  10.256 -0.8620 -0.4988 -2.7418
    1Sil     Hm 2128   2.149   2.933  10.147  0.2227  3.4939 -0.6298
    1Sil     Hm 2129   2.090   2.861  10.296 -2.0645  0.8901  0.6185
    1Sil     Hm 2130   1.722   3.834  12.760  0.2400 -1.4253  2.4874
    1Sil     Hm 2131   1.710   3.664  12.762  1.2166 -1.5048 -2.0062
    1Sil     Hm 2132   1.827   3.737  12.652  0.5251  0.1263 -0.1883
    1Sil     Hm 2133   2.127   4.479  10.127 -1.2705 -1.0040 -0.5894
    1Sil     Hm 2134   2.068   4.369  10.251  0.3623  0.3774 -0.8891
    1Sil     Hm 2135   2.035   4.541  10.265 -0.0788  0.4997 -0.3655
    1Sil     Hm 2136   1.823   1.803  12.585  1.9741 -0.6147  2.5776
    1Sil     Hm 2137   1.749   1.732  12.728  2.9141 -0.0573  0.3865
    1Sil     Hm 2138   1.780   1.627  12.602  1.4161  0.7655  1.8095
    1Sil     Hm 2139   2.965   2.425  10.161  0.7300  1.1805 -1.9324
    1Sil     Hm 2140   2.871   2.506  10.303  0.3682  0.0429  0.2451
    1Sil     Hm 2141   2.937   2.587  10.169  0.4909 -2.1306 -2.4279
    1Sil     Hm 2142   2.559   2.699  12.758 -1.2471 -0.6020  0.2051
    1Sil     Hm 2143   2.646   2.661  12.611 -0.3743 -0.2985  0.0395
    1Sil     Hm 2144   2.613   2.830  12.657  0.1708 -0.5727 -0.2541
    1Sil     Hm 2145   2.856   3.490  10.277  0.0504 -0.4989 -1.0809
    1Sil     Hm 2146   2.926   3.393  10.158  0.3794  3.0048 -1.2032
    1Sil     Hm 2147   2.905   3.320  10.300  0.3065 -0.5561 -1.8645
    1Sil     Hm 2148   2.620   3.815  12.671  1.7385 -0.1863  1.2084
    1Sil     Hm 2149   2.522   3.755  12.805  2.4335 -0.9119  0.5652
    1Sil     Hm 2150   2.603   3.649  12.682  0.4438  1.1181 -1.4178
    1Sil     Hm 2151   2.972   4.420  10.144 -0.1821 -0.2846  0.2917
    1Sil     Hm 2152   2.925   4.325  10.284  2.0560 -0.8374  0.3994
    1Sil     Hm 2153   2.876   4.493  10.283 -0.4728 -0.8271  0.2274
    1Sil     Hm 2154   2.667   4.758  12.631  0.0988 -0.4770 -0.7206
    1Sil     Hm 2155   2.584   4.709  12.770  0.8081  1.6047 -0.2025
    1Sil     Hm 2156   2.617   4.591  12.639 -0.1883 -0.2668  1.2420
    1Sil     Hm 2157   0.410   2.387  10.191  0.9733 -0.3349 -0.2436
    1Sil     Hm 2158   0.364   2.528  10.281 -0.2042  1.0248 -1.3666
    1Sil     Hm 2159   0.445   2.560  10.138 -0.6289  0.6060  0.4962
    1Sil     Hm 2160   3.371   2.636  12.716  1.1934 -1.6054 -0.7044
    1Sil     Hm 2161   3.482   2.670  12.588  0.8984 -2.1125  1.7455
    1Sil     Hm 2162   3.438   2.803  12.703 -1.5018 -0.5837  0.6840
    1Sil     Hm 2163   0.442   3.343  10.272 -1.7280  0.5734  0.8638
    1Sil     Hm 2164   0.358   3.496  10.278 -0.3747 -0.4542 -0.8017
    1Sil     Hm 2165   0.440   3.468  10.139  1.8328  2.4998 -0.1629
    1Sil     Hm 2166   3.471   3.617  12.609 -0.3085  1.4249 -2.4081
    1Sil     Hm 2167   3.517   3.780  12.614  0.8802  1.9722  2.3235
    1Sil     Hm 2168   3.441   3.701  12.760 -0.4624  2.1244 -0.5691
    1Sil     Hm 2169   0.387   4.375  10.296  1.4083  0.5293  2.2573
    1Sil     Hm 2170   0.379   4.547  10.221 -0.4453 -0.1357 -1.9048
    1Sil     Hm 2171   0.453   4.403  10.143 -0.8026 -1.6266  0.2157
    1Sil     Hm 2172   3.451   4.654  12.737  0.5312  0.4984 -0.3457
    1Sil     Hm 2173   3.511   4.658  12.578  2.0383  0.8427  0.7706
    1Sil     Hm 2174   3.503   4.805  12.665  0.8581 -0.9018 -0.8716
    1Sil     Hm 2175   0.956   2.336  12.371 -2.0845 -0.9216  1.0475
    1Sil     Hm 2176   0.949   2.254  12.217  1.7785 -1.2597 -0.5131
    1Sil     Hm 2177   0.934   2.157  12.363  1.5797 -0.9117 -0.9860
    1Sil     Hm 2178   1.196   1.937  12.677 -1.8075  2.7579  0.4275
    1Sil     Hm 2179   1.350   2.017  12.642  0.6888 -1.6556 -0.6187
    1Sil     Hm 2180   1.192   2.103  12.630 -1.9719 -1.0152 -0.2715
    1Sil     Hm 2181   0.670   2.185  12.761  1.2977 -0.7939 -0.8876
    1Sil     Hm 2182   0.661   2.358  12.731  1.5447 -0.0756 -1.5401
    1Sil     Hm 2183   0.540   2.253  12.658 -0.0448  2.0643 -0.5284
    1Sil     Hm 2184   1.067   2.480  12.665 -0.3844 -1.2924  0.2911
    1Sil     Hm 2185   1.220   2.405  12.716  1.5704  0.6657 -1.4738
    1Sil     Hm 2186   1.215   2.572  12.712  0.3092  0.5064 -1.5638
    1Sil     Hm 2187   0.805   2.816  12.728 -0.5812 -0.6155  1.3084
    1Sil     Hm 2188   0.639   2.769  12.680 -0.3014 -1.3181 -1.1524
    1Sil     Hm 2189   0.771   2.648  12.717 -2.0657 -0.9901 -0.3682
    1Sil     Hm 2190   1.301   3.117  12.624  1.4503 -0.5168  1.3292
    1Sil     Hm 2191   1.176   3.005  12.669  0.6684 -0.9217  1.9349
    1Sil     Hm 2192   1.349   2.956  12.679  0.8519  1.0319 -0.3753
    1Sil     Hm 2193   0.719   3.302  12.703  2.2076  2.4126 -1.1630
    1Sil     Hm 2194   0.734   3.122  12.687  2.8736 -1.0646 -1.0446
    1Sil     Hm 2195   0.871   3.223  12.719  0.6732 -2.0388 -0.0486
    1Sil     Hm 2196   1.227   3.411  12.703 -0.8152 -2.3271  0.3390
    1Sil     Hm 2197   1.178   3.579  12.662 -0.5443 -0.1492  0.1449
    1Sil     Hm 2198   1.067   3.444  12.627  1.0122 -1.1750 -3.2401
    1Sil     Hm 2199   0.550   3.738  12.634 -0.3796 -1.5189  0.9961
    1Sil     Hm 2200   0.654   3.682  12.760  1.8335 -0.3481 -0.6000
    1Sil     Hm 2201   0.649   3.854  12.721  1.1304 -0.5608  2.4529
    1Sil     Hm 2202   1.168   4.050  12.663 -0.7674 -0.1406  0.1355
    1Sil     Hm 2203   1.289   3.930  12.689  2.1139  0.6666  0.0038
    1Sil     Hm 2204   1.341   4.095  12.635  1.4452 -1.7497  0.4228
    1Sil     Hm 2205   0.675   4.297  12.687  0.4884  0.2392 -1.8124
    1Sil     Hm 2206   0.786   4.167  12.727  1.2590  1.8387  2.0820
    1Sil     Hm 2207   0.838   4.332  12.733  0.7083  0.1335  1.0868
    1Sil     Hm 2208   1.040   4.444  12.639 -1.1874 -2.9450 -0.2926
    1Sil     Hm 2209   1.158   4.327  12.706 -1.7774  0.6435  0.7175
    1Sil     Hm 2210   1.183   4.499  12.730 -0.0674  0.9217 -0.0771
    1Sil     Hm 2211   0.739   4.575  12.684 -3.8367  0.1187  0.6127
    1Sil     Hm 2212   0.827   4.722  12.734  1.3018 -1.4977 -0.4150
    1Sil     Hm 2213   0.658   4.735  12.688 -1.3805 -1.4039 -2.3380
    1Sil     Hm 2214   1.255   5.082  12.636  0.2285  0.0592  0.0688
    1Sil     Hm 2215   1.207   4.924  12.710 -0.7026 -0.5626 -1.2325
    1Sil     Hm 2216   1.373   4.959  12.670  0.3239  1.2843  0.4460
    1Sil     Hm 2217   0.613   1.840  12.757  1.2146 -0.2084 -0.3276
    1Sil     Hm 2218   0.505   1.747  12.655  0.0267 -1.9337  0.3686
    1Sil     Hm 2219   0.621   1.667  12.762 -2.2168 -0.6818 -0.5829
    1Sil     Hm 2220   2.122   2.090  12.627 -0.7482 -0.5337  1.4514
    1Sil     Hm 2221   2.026   1.941  12.662 -0.2885  1.1609  1.6110
    1Sil     Hm 2222   2.196   1.928  12.640 -1.0370 -1.7128 -0.3386
    1Sil     Hm 2223   1.472   2.153  12.749 -2.3802  1.0039  2.0122
    1Sil     Hm 2224   1.498   2.324  12.756  1.6546 -0.5398  0.8837
    1Sil     Hm 2225   1.367   2.254  12.661 -0.8045 -1.1625  2.0809
    1Sil     Hm 2226   1.943   2.426  12.678  0.8011  0.5847  2.5021
    1Sil     Hm 2227   2.114   2.387  12.714  0.0289 -1.3431 -0.8089
    1Sil     Hm 2228   2.064   2.553  12.701  2.5246 -1.0678  1.4501
    1Sil     Hm 2229   1.620   2.616  12.697  1.5087 -0.2644 -0.3560
    1Sil     Hm 2230   1.681   2.775  12.726  0.1156  0.5934  0.3102
    1Sil     Hm 2231   1.515   2.760  12.664  0.7140  3.0088 -0.0256
    1Sil     Hm 2232   2.041   2.996  12.703 -0.5535  1.4759 -0.1590
    1Sil     Hm 2233   2.214   2.974  12.663 -0.7181 -2.2209 -0.5500
    1Sil     Hm 2234   2.142   3.130  12.635  0.4336 -0.1439  0.3508
    1Sil     Hm 2235   1.585   3.372  12.669  1.1208  0.4199  0.2377
    1Sil     Hm 2236   1.689   3.242  12.723  1.3960  2.2276 -1.1603
    1Sil     Hm 2237   1.511   3.217  12.693 -2.0918  2.6131 -1.0885
    1Sil     Hm 2238   1.902   3.493  12.665  0.2983  1.0560 -1.8707
    1Sil     Hm 2239   2.043   3.410  12.739  0.7307 -3.0367 -3.4922
    1Sil     Hm 2240   2.047   3.584  12.700 -0.1838  0.4036 -0.1176
    1Sil     Hm 2241   1.476   3.812  12.743 -1.1805  0.0156  0.1827
    1Sil     Hm 2242   1.474   3.640  12.721  0.6134 -0.5146  0.2770
    1Sil     Hm 2243   1.378   3.738  12.615 -0.8575 -0.9178  1.3952
    1Sil     Hm 2244   2.087   3.907  12.687 -2.9525 -1.0350 -1.7449
    1Sil     Hm 2245   2.202   4.036  12.639 -0.6985  0.3632  3.9085
    1Sil     Hm 2246   2.033   4.066  12.650  1.9176  1.2795 -1.3563
    1Sil     Hm 2247   1.622   4.096  12.688  0.4527 -0.1478  0.8453
    1Sil     Hm 2248   1.670   4.265  12.736 -0.5582  1.8542 -1.4231
    1Sil     Hm 2249   1.500   4.233  12.700 -0.2340 -2.5123  0.7256
    1Sil     Hm 2250   2.091   4.451  12.746  0.2945  0.0347  0.3718
    1Sil     Hm 2251   1.972   4.324  12.696  0.9170  0.1029  3.0767
    1Sil     Hm 2252   1.929   4.489  12.673  0.2754  0.9529  0.1357
    1Sil     Hm 2253   1.532   4.777  12.700 -1.2721 -0.9421 -1.0915
    1Sil     Hm 2254   1.581   4.606  12.705  2.1857 -0.2482  1.1401
    1Sil     Hm 2255   1.701   4.731  12.735  1.6607 -0.6228 -1.1402
    1Sil     Hm 2256   2.160   4.976  12.670 -0.7698  1.9297  1.0827
    1Sil     Hm 2257   2.128   5.124  12.595  1.8791 -0.4029 -1.4928
    1Sil     Hm 2258   1.987   5.024  12.647 -0.2297 -0.7883  1.2573
    1Sil     Hm 2259   1.507   1.869  12.774 -3.6571  1.2600  0.1906
    1Sil     Hm 2260   1.383   1.787  12.678 -0.4236 -1.6181  0.4889
    1Sil     Hm 2261   1.493   1.699  12.779  0.1494  3.7845  3.0940
    1Sil     Hm 2262   2.924   1.940  12.687 -0.0569  1.6300  1.7821
    1Sil     Hm 2263   2.982   2.096  12.625  3.3243  0.3409 -0.7215
    1Sil     Hm 2264   3.088   1.963  12.645 -0.1274  0.4846 -0.0127
    1Sil     Hm 2265   2.544   2.199  12.717 -0.3683  0.5434  1.0780
    1Sil     Hm 2266   2.447   2.344  12.712 -0.4430  0.2615  0.5510
    1Sil     Hm 2267   2.369   2.191  12.698  0.9695  0.9541  2.6335
    1Sil     Hm 2268   2.771   2.455  12.663 -0.1151  0.8190 -3.3875
    1Sil     Hm 2269   2.939   2.441  12.731 -0.2714 -1.7636 -1.3415
    1Sil     Hm 2270   2.877   2.596  12.681  2.7471  0.0765  0.9827
    1Sil     Hm 2271   2.286   2.801  12.745  1.0172 -0.2522 -0.6055
    1Sil     Hm 2272   2.205   2.708  12.617  0.3273  0.2009  0.0950
    1Sil     Hm 2273   2.318   2.628  12.721  1.8776 -0.3684  0.1113
    1Sil     Hm 2274   2.904   3.098  12.672 -1.4401 -1.6579  1.1583
    1Sil     Hm 2275   2.916   2.936  12.690 -2.9509  1.1144 -0.5271
    1Sil     Hm 2276   3.065   3.033  12.660  1.2714  0.2424 -3.0510
    1Sil     Hm 2277   2.531   3.260  12.725  0.2936 -1.4913 -0.5757
    1Sil     Hm 2278   2.352   3.266  12.697 -1.1992 -1.0989 -2.5822
    1Sil     Hm 2279   2.437   3.112  12.689 -3.6689  0.0434 -1.6379
    1Sil     Hm 2280   2.882   3.591  12.706  2.4749 -0.1834 -1.6665
    1Sil     Hm 2281   2.738   3.503  12.657 -0.8222  0.4678 -3.3782
    1Sil     Hm 2282   2.877   3.419  12.730 -0.2315 -1.7308 -2.1997
    1Sil     Hm 2283   2.284   3.648  12.732  1.2073  0.3897  0.8692
    1Sil     Hm 2284   2.271   3.820  12.755 -0.4116 -0.3698 -0.1994
    1Sil     Hm 2285   2.186   3.730  12.614 -0.5519 -0.4450  0.3857
    1Sil     Hm 2286   2.879   4.063  12.655  1.2859  0.6460  3.8638
    1Sil     Hm 2287   2.911   3.898  12.685  0.5972  0.2034  0.0963
    1Sil     Hm 2288   3.046   4.001  12.656  1.1078 -1.4667 -1.6086
    1Sil     Hm 2289   2.328   4.214  12.678  0.1427  4.5472 -0.9830
    1Sil     Hm 2290   2.462   4.104  12.718 -0.8488  0.3823  0.8874
    1Sil     Hm 2291   2.483   4.275  12.758 -1.2954  0.8007  0.5141
    1Sil     Hm 2292   2.765   4.427  12.675 -1.2419  1.3055 -0.0584
    1Sil     Hm 2293   2.939   4.437  12.717  0.1149 -1.1327 -0.2187
    1Sil     Hm 2294   2.850   4.579  12.665  0.7218 -0.2535  0.7636
    1Sil     Hm 2295   2.330   4.800  12.767  1.8962  0.8435 -1.1009
    1Sil     Hm 2296   2.210   4.756  12.641 -0.4826  0.3530 -0.8264
    1Sil     Hm 2297   2.295   4.629  12.716 -1.3168  0.6648  0.8002
    1Sil     Hm 2298   2.903   4.915  12.694 -0.8802 -2.0474 -1.6231
    1Sil     Hm 2299   3.062   4.960  12.639 -0.9470  1.6726  1.3640
    1Sil     Hm 2300   2.944   5.082  12.647 -1.8110  0.2316 -1.6585
    1Sil     Hm 2301   2.351   1.717  12.705  1.4661 -2.1476 -1.4781
    1Sil     Hm 2302   2.434   1.882  12.713  0.3531  1.3096  1.8535
    1Sil     Hm 2303   2.516   1.729  12.746 -0.6015  2.4464  1.3880
    1Sil     Hm 2304   3.338   2.180  12.718  0.1827  1.6100  2.2946
    1Sil     Hm 2305   3.251   2.340  12.698  0.0672  0.7593 -2.5864
    1Sil     Hm 2306   3.175   2.187  12.666 -0.4384  1.1351  0.8711
    1Sil     Hm 2307   3.127   2.844  12.735  0.1363  1.5705 -2.6064
    1Sil     Hm 2308   3.045   2.726  12.625 -0.2696 -0.6534  1.5185
    1Sil     Hm 2309   3.162   2.673  12.746 -1.1993  0.3465  0.9413
    1Sil     Hm 2310   3.274   3.130  12.700  3.4064 -1.4472 -1.4061
    1Sil     Hm 2311   3.383   3.260  12.738 -0.8470 -0.2341  0.6943
    1Sil     Hm 2312   3.211   3.292  12.690 -0.7661  0.3458 -1.6454
    1Sil     Hm 2313   3.180   3.808  12.781 -0.6955  0.0202 -0.4027
    1Sil     Hm 2314   3.061   3.738  12.671  0.3342 -0.7335  0.3614
    1Sil     Hm 2315   3.174   3.632  12.746  3.4022 -0.4100 -2.0209
    1Sil     Hm 2316   3.199   4.288  12.679 -1.7347  0.1293 -1.4033
    1Sil     Hm 2317   3.271   4.129  12.681 -2.9867  1.4430  1.7034
    1Sil     Hm 2318   3.366   4.276  12.721 -1.3443  1.1171  0.7667
    1Sil     Hm 2319   3.055   4.745  12.680 -1.1227  0.8607  2.9590
    1Sil     Hm 2320   3.156   4.620  12.737  2.3827 -0.8554 -1.0233
    1Sil     Hm 2321   3.194   4.793  12.776 -0.3657 -0.7857 -0.4493
    1Sil     Hm 2322   3.323   1.658  12.719  2.0995 -0.2500 -0.8694
    1Sil     Hm 2323   3.289   1.840  12.731  0.5059  0.0071 -1.2722
    1Sil     Hm 2324   3.174   1.731  12.686  0.6430  0.5642  1.5329
    1Sil     Hm 2325   0.191   1.974  12.661 -0.3740  1.4738  0.8252
    1Sil     Hm 2326   0.334   1.896  12.724  1.7550  0.7522 -0.0398
    1Sil     Hm 2327   0.320   2.067  12.719  1.4320 -0.4125 -0.7067
    1Sil     Hm 2328   0.394   2.456  12.706 -2.5179  2.0348  0.9153
    1Sil     Hm 2329   0.543   2.538  12.653  0.5093 -2.5383  0.2980
    1Sil     Hm 2330   0.374   2.608  12.647  0.6620  0.3867  2.4316
    1Sil     Hm 2331   0.294   2.843  12.661 -0.7051  0.5111  0.4387
    1Sil     Hm 2332   0.443   2.926  12.716  0.2578 -1.9503  0.3121
    1Sil     Hm 2333   0.285   3.014  12.686  0.6116  0.2724 -0.0417
    1Sil     Hm 2334   0.434   3.366  12.690 -0.1814  0.0245  0.9220
    1Sil     Hm 2335   0.566   3.484  12.644  0.6042 -2.6444 -1.2958
    1Sil     Hm 2336   0.404   3.541  12.659  0.1438 -0.8811  1.4893
    1Sil     Hm 2337   0.498   4.098  12.620 -0.7968  0.5406  0.7484
    1Sil     Hm 2338   0.336   4.049  12.657 -0.9411 -2.3678  0.7930
    1Sil     Hm 2339   0.468   3.932  12.678  0.3605  0.9698  1.4375
    1Sil     Hm 2340   0.236   4.452  12.645  0.0647  1.7069 -0.2065
    1Sil     Hm 2341   0.392   4.447  12.727  0.7270  2.3851  0.9238
    1Sil     Hm 2342   0.337   4.599  12.649  1.5531  0.2468  1.2928
    1Sil     Hm 2343   0.513   4.958  12.667  0.3892 -0.4305  0.5880
    1Sil     Hm 2344   0.354   5.034  12.662 -1.8600 -1.1835  0.3884
    1Sil     Hm 2345   0.362   4.860  12.681  0.9803 -0.7431 -1.8302
    1Sil     Hm 2346   1.545   2.451  10.113  2.9275 -0.8674  1.8716
    1Sil     Hm 2347   1.555   2.625  10.144 -1.1456  0.2623 -0.1974
    1Sil     Hm 2348   1.658   2.505  10.233 -0.3817  0.5658  0.3738
    1Sil     Hm 2349   1.225   2.500  10.635  0.9002 -1.7867 -0.2055
    1Sil     Hm 2350   1.227   2.420  10.489 -1.1674 -0.9335  0.3749
    1Sil     Hm 2351   1.201   2.592  10.487  2.4706  1.2474  3.2094
    1Sil     Hm 2352   1.003   2.620  10.174 -2.0770  0.2806  0.2195
    1Sil     Hm 2353   0.883   2.753  10.160 -0.9501 -0.6133  0.2553
    1Sil     Hm 2354   1.060   2.786  10.183  1.3096 -1.1323  1.2830
    1Sil     Hm 2355   1.459   3.071  10.171  0.1269 -1.0254  0.1589
    1Sil     Hm 2356   1.308   2.969  10.154 -0.3971  1.6756 -0.7763
    1Sil     Hm 2357   1.455   2.889  10.196 -1.4331 -1.2083 -0.6107
    1Sil     Hm 2358   0.899   3.145  10.202 -0.9290  0.2865 -0.1557
    1Sil     Hm 2359   0.772   3.254  10.243 -0.4203 -1.3762  0.0238
    1Sil     Hm 2360   0.931   3.318  10.224  1.2901 -0.7561 -0.1000
    1Sil     Hm 2361   1.650   3.492  10.256  0.6077  1.1298 -1.8371
    1Sil     Hm 2362   1.558   3.400  10.146  0.6987  0.7081 -1.6877
    1Sil     Hm 2363   1.570   3.566  10.116  1.0480 -0.0531  0.3024
    1Sil     Hm 2364   1.204   3.598  10.598  0.2162 -0.5138  1.6394
    1Sil     Hm 2365   1.253   3.431  10.580 -1.6980 -1.0142  0.0529
    1Sil     Hm 2366   1.203   3.538  10.436 -1.1728  0.3585 -0.2305
    1Sil     Hm 2367   0.988   3.613  10.195 -2.4716 -0.2050  0.0409
    1Sil     Hm 2368   0.919   3.764  10.152 -0.9068 -1.2851 -0.4477
    1Sil     Hm 2369   1.085   3.770  10.205  0.4036 -0.9532  2.4004
    1Sil     Hm 2370   0.958   3.718  12.223  2.6929  1.1503 -0.4815
    1Sil     Hm 2371   0.941   3.649  12.384 -0.4099 -0.1656 -0.1939
    1Sil     Hm 2372   0.976   3.829  12.358 -0.9819 -0.1563  0.6251
    1Sil     Hm 2373   1.516   3.984  10.173  1.6183  1.9655  3.4714
    1Sil     Hm 2374   1.357   4.060  10.147  2.1624 -0.4908 -1.6234
    1Sil     Hm 2375   1.369   3.880  10.162  0.9868  0.4753 -2.7315
    1Sil     Hm 2376   0.909   4.133  10.201 -2.0631 -1.0168  1.5273
    1Sil     Hm 2377   0.778   4.231  10.237 -0.0368  1.0444  1.3227
    1Sil     Hm 2378   0.937   4.308  10.229 -0.6114  0.1488 -2.0952
    1Sil     Hm 2379   1.558   4.389  10.137 -0.3000 -0.6498  1.5383
    1Sil     Hm 2380   1.531   4.564  10.109  1.3813 -0.6723  0.2923
    1Sil     Hm 2381   1.647   4.505  10.231 -0.2389  0.9056  1.2814
    1Sil     Hm 2382   1.232   4.469  10.640 -1.5973 -0.9011  0.0881
    1Sil     Hm 2383   1.225   4.377  10.486 -2.2785 -1.1459 -0.0890
    1Sil     Hm 2384   1.213   4.554  10.479  0.1206 -1.1687 -1.1154
    1Sil     Hm 2385   1.070   4.793  10.198  0.4590 -0.9408 -0.6747
    1Sil     Hm 2386   1.022   4.631  10.174  0.0027  0.5703  1.4550
    1Sil     Hm 2387   0.892   4.755  10.174  0.2567  1.0357 -0.0723
    1Sil     Hm 2388   1.498   5.002  10.191  0.5171 -0.1435  1.1684
    1Sil     Hm 2389   1.351   4.889  10.171 -1.4950  1.9038 -0.0709
    1Sil     Hm 2390   1.340   5.058  10.151  1.0475  0.5905  0.1235
    1Sil     Hm 2391   0.993   1.739  10.223 -0.4483  0.1139 -1.6804
    1Sil     Hm 2392   0.818   1.689  10.223  0.2594  0.3158 -1.7409
    1Sil     Hm 2393   0.852   1.851  10.244  3.2523  0.7523 -0.3994
    1Sil     Hm 2394   0.920   1.656  12.383  0.3547 -0.1176  0.2791
    1Sil     Hm 2395   0.927   1.830  12.335 -0.9441 -0.0718 -1.1645
    1Sil     Hm 2396   0.932   1.712  12.215 -2.1220  1.9241 -0.5432
    1Sil     Hm 2397   2.416   2.135  10.166 -0.5810 -0.0312  0.3403
    1Sil     Hm 2398   2.498   1.987  10.244  0.1199  0.0468  0.2002
    1Sil     Hm 2399   2.373   1.968  10.118  1.1251 -0.0180 -0.6433
    1Sil     Hm 2400   2.050   2.102  10.517 -0.7170 -0.0287 -1.9700
    1Sil     Hm 2401   2.091   1.983  10.644  0.5498  0.3450 -0.2237
    1Sil     Hm 2402   2.084   1.931  10.472 -2.2182 -0.7012 -0.7643
    1Sil     Hm 2403   1.622   2.281  10.253 -0.1629  0.1789 -0.6336
    1Sil     Hm 2404   1.797   2.279  10.211  1.3581 -2.0020  0.4756
    1Sil     Hm 2405   1.708   2.131  10.214 -0.8209  0.7213 -1.7746
    1Sil     Hm 2406   1.806   2.339  12.404  1.0181 -0.3680  0.5888
    1Sil     Hm 2407   1.772   2.165  12.361  0.4377 -0.2080  0.0072
    1Sil     Hm 2408   1.776   2.280  12.236 -3.2582  1.2729  1.8843
    1Sil     Hm 2409   2.355   2.541  10.201  0.6781 -1.5454 -0.3305
    1Sil     Hm 2410   2.300   2.376  10.188  0.7455 -0.0039 -0.0993
    1Sil     Hm 2411   2.185   2.505  10.148 -0.3190 -0.3617 -1.1374
    1Sil     Hm 2412   1.812   2.821  10.163 -3.1263 -0.9019 -1.8651
    1Sil     Hm 2413   1.802   2.644  10.155 -0.3234 -2.1864  2.8760
    1Sil     Hm 2414   1.948   2.706  10.210 -0.2699  0.0921 -1.2832
    1Sil     Hm 2415   2.389   3.078  10.124 -1.7871  1.7264  2.6369
    1Sil     Hm 2416   2.517   3.029  10.217  0.3178  0.5359 -1.0128
    1Sil     Hm 2417   2.406   2.904  10.144 -0.0677 -1.2277  0.8975
    1Sil     Hm 2418   2.064   3.048  10.650  0.4364 -0.5453 -0.6060
    1Sil     Hm 2419   2.098   2.918  10.528  0.4165 -0.8119  2.5694
    1Sil     Hm 2420   2.061   3.084  10.484 -1.9865  1.2366  0.5579
    1Sil     Hm 2421   1.799   3.148  10.187 -0.7011 -1.5977  0.4843
    1Sil     Hm 2422   1.644   3.213  10.202  0.1105 -0.2098  0.5477
    1Sil     Hm 2423   1.791   3.323  10.204  0.5582 -0.9184 -0.3971
    1Sil     Hm 2424   2.239   3.620  10.192  0.5704 -0.3526 -0.4522
    1Sil     Hm 2425   2.348   3.478  10.208 -0.4852 -1.9199  0.5812
    1Sil     Hm 2426   2.182   3.457  10.160  0.9144  0.2425 -1.5260
    1Sil     Hm 2427   1.787   3.640  10.152  0.9946 -0.9242  0.4667
    1Sil     Hm 2428   1.824   3.817  10.170  3.2092 -0.0861 -0.5083
    1Sil     Hm 2429   1.942   3.676  10.190  1.2771  1.5680 -3.6431
    1Sil     Hm 2430   1.786   3.644  12.294 -2.1728 -0.0220  1.3870
    1Sil     Hm 2431   1.823   3.677  12.462 -0.2301 -1.5703 -0.8320
    1Sil     Hm 2432   1.806   3.809  12.347 -0.9130 -1.1515  2.3026
    1Sil     Hm 2433   2.174   3.959  10.131 -2.4076 -0.0192  2.0518
    1Sil     Hm 2434   2.299   4.077  10.162 -2.8285  0.4976 -1.8768
    1Sil     Hm 2435   2.330   3.905  10.198  0.6318  1.5091 -0.5294
    1Sil     Hm 2436   1.621   4.185  10.236  1.0685 -1.2702 -0.7557
    1Sil     Hm 2437   1.742   4.326  10.244  1.0316 -0.0425 -2.4296
    1Sil     Hm 2438   1.798   4.170  10.205  1.0458  0.3806  0.5895
    1Sil     Hm 2439   2.483   4.476  10.241  0.5188  0.6247  0.1419
    1Sil     Hm 2440   2.365   4.435  10.115  1.0537 -1.5029  1.3817
    1Sil     Hm 2441   2.391   4.606  10.156 -1.8359  1.2216  1.9951
    1Sil     Hm 2442   2.086   4.449  10.632 -0.2370  0.3479  0.1579
    1Sil     Hm 2443   2.073   4.398  10.469  1.4083  0.1440  0.7224
    1Sil     Hm 2444   2.060   4.570  10.502  0.5149 -1.4856 -1.2520
    1Sil     Hm 2445   1.765   4.773  10.170 -0.1808 -0.7656 -0.0384
    1Sil     Hm 2446   1.934   4.763  10.205  1.4867 -1.8984 -2.3231
    1Sil     Hm 2447   1.846   4.608  10.177  1.7518 -0.4961  2.0555
    1Sil     Hm 2448   2.319   4.954  10.183  1.0916  1.5190  2.8382
    1Sil     Hm 2449   2.148   4.917  10.157  1.2043 -0.7912  0.1145
    1Sil     Hm 2450   2.207   5.083  10.140 -1.7552 -1.5846 -3.4356
    1Sil     Hm 2451   1.636   1.696  10.221 -0.6563  1.8082 -0.2137
    1Sil     Hm 2452   1.717   1.856  10.242  1.1364  0.0033 -1.1625
    1Sil     Hm 2453   1.817   1.711  10.213  1.0059 -0.2017  2.2535
    1Sil     Hm 2454   1.744   1.695  12.350 -1.8934  1.5588 -0.8102
    1Sil     Hm 2455   1.803   1.858  12.368  1.3596  1.3928 -1.0179
    1Sil     Hm 2456   1.796   1.795  12.209  1.6356 -0.8724 -0.6093
    1Sil     Hm 2457   3.077   1.906  10.175 -1.0918  0.3736 -1.5751
    1Sil     Hm 2458   2.998   2.064  10.149  0.4007  1.7186  1.0207
    1Sil     Hm 2459   3.164   2.056  10.178 -0.4280  2.2019  0.7571
    1Sil     Hm 2460   2.786   2.214  10.231 -0.2740 -1.3268  0.7380
    1Sil     Hm 2461   2.621   2.207  10.162 -0.8741  2.2391 -0.4220
    1Sil     Hm 2462   2.682   2.360  10.229  0.8810 -0.0479 -0.9971
    1Sil     Hm 2463   3.209   2.422  10.113 -0.4033 -0.6909 -0.2214
    1Sil     Hm 2464   3.210   2.600  10.103  2.3404  1.6989  2.1822
    1Sil     Hm 2465   3.319   2.517  10.215 -0.5222  0.1795  0.9831
    1Sil     Hm 2466   2.932   2.403  10.504 -0.1536 -0.5841  0.7320
    1Sil     Hm 2467   2.912   2.580  10.514  0.2850  0.2813  0.6518
    1Sil     Hm 2468   2.931   2.468  10.657  1.7933 -2.6526 -1.2683
    1Sil     Hm 2469   2.669   2.672  10.190 -0.9024 -2.1512  0.1348
    1Sil     Hm 2470   2.592   2.832  10.235 -1.2351 -0.0293 -0.1268
    1Sil     Hm 2471   2.495   2.679  10.206 -2.0814  2.0992  2.0883
    1Sil     Hm 2472   2.672   2.847  12.267 -1.1203 -2.5457 -1.5700
    1Sil     Hm 2473   2.618   2.697  12.314 -1.0926 -0.0734  1.4671
    1Sil     Hm 2474   2.674   2.818  12.442  2.2824  2.9478 -0.4244
    1Sil     Hm 2475   3.083   2.880  10.174 -1.7408 -0.4942 -1.0915
    1Sil     Hm 2476   3.064   3.057  10.137 -1.3229  0.0817  0.5142
    1Sil     Hm 2477   3.212   2.989  10.211 -0.5043 -0.1976 -1.7533
    1Sil     Hm 2478   2.633   3.386  10.267 -0.6382  0.3677  0.3920
    1Sil     Hm 2479   2.596   3.223  10.188  2.8098  1.9890 -0.6485
    1Sil     Hm 2480   2.471   3.318  10.257  0.2515  1.4565  0.4823
    1Sil     Hm 2481   3.201   3.573  10.127  0.8434 -0.4373 -0.8621
    1Sil     Hm 2482   3.319   3.489  10.224  0.3258 -0.4495 -0.7561
    1Sil     Hm 2483   3.195   3.398  10.123 -1.7246 -1.1254  2.3526
    1Sil     Hm 2484   2.932   3.421  10.543  1.6096  1.1172  4.7118
    1Sil     Hm 2485   2.896   3.592  10.501  1.1131  0.5965  1.0900
    1Sil     Hm 2486   2.890   3.538  10.660  0.6991  2.7297 -0.8092
    1Sil     Hm 2487   2.759   3.747  10.209 -0.5400  1.8080  1.9745
    1Sil     Hm 2488   2.677   3.590  10.195 -0.0396 -0.0698  1.3870
    1Sil     Hm 2489   2.588   3.751  10.166  1.4534 -0.1903 -1.9053
    1Sil     Hm 2490   2.649   3.575  12.322  2.4960 -0.5476 -0.9822
    1Sil     Hm 2491   2.634   3.717  12.432 -1.1613 -0.2385 -0.4280
    1Sil     Hm 2492   2.631   3.734  12.261  1.2731  0.5606 -1.0654
    1Sil     Hm 2493   3.185   3.992  10.187 -0.3305 -1.4976  1.5654
    1Sil     Hm 2494   3.065   3.872  10.173 -0.1340 -0.2825  0.9279
    1Sil     Hm 2495   3.020   4.033  10.125 -2.0450  0.9011  1.0564
    1Sil     Hm 2496   2.600   4.291  10.216 -2.2555  1.9607  0.2072
    1Sil     Hm 2497   2.567   4.125  10.193  1.4333  0.1647  0.0165
    1Sil     Hm 2498   2.439   4.227  10.245 -0.3799  0.2982  1.2231
    1Sil     Hm 2499   3.211   4.588  10.147  1.0167  0.2854  0.6538
    1Sil     Hm 2500   3.331   4.516  10.245  0.6043 -1.9381  0.6024
    1Sil     Hm 2501   3.225   4.412  10.151 -0.8549 -2.3136  3.4758
    1Sil     Hm 2502   2.894   4.514  10.641  2.1592 -2.3489  0.6300
    1Sil     Hm 2503   2.918   4.385  10.520  1.2327  0.1171  0.1746
    1Sil     Hm 2504   2.878   4.549  10.472 -0.4386  0.2864  0.0442
    1Sil     Hm 2505   2.494   4.785  10.231 -0.6158  0.3741  1.4701
    1Sil     Hm 2506   2.672   4.818  10.231 -1.2452  0.3229 -4.3639
    1Sil     Hm 2507   2.623   4.658  10.215 -0.8353  0.0273 -0.3851
    1Sil     Hm 2508   2.642   4.745  12.240  1.3087  0.6648 -0.0849
    1Sil     Hm 2509   2.615   4.612  12.342  0.5505 -0.6712 -1.0907
    1Sil     Hm 2510   2.640   4.768  12.414  0.7187  1.4322 -1.3193
    1Sil     Hm 2511   3.188   5.041  10.212 -0.9928  1.4979 -1.7097
    1Sil     Hm 2512   3.110   4.880  10.194 -0.4747  1.2188 -0.5990
    1Sil     Hm 2513   3.013   5.021  10.157 -0.9079  0.3600  0.2570
    1Sil     Hm 2514   2.690   1.631  10.178  0.8211 -1.5328  1.6603
    1Sil     Hm 2515   2.656   1.803  10.183 -1.5580  1.1042  3.0031
    1Sil     Hm 2516   2.814   1.744  10.239 -0.1419 -1.1640  0.5954
    1Sil     Hm 2517   3.591   2.368  10.244  1.4891 -0.6022 -0.2331
    1Sil     Hm 2518   3.580   2.209  10.172 -0.9128 -0.5573  0.3987
    1Sil     Hm 2519   3.444   2.328  10.153 -1.1218  0.1987  1.0582
    1Sil     Hm 2520   3.754   2.556  10.483 -0.7146 -0.7027 -1.4190
    1Sil     Hm 2521   3.758   2.496  10.648 -0.9886  0.1252 -0.2807
    1Sil     Hm 2522   3.754   2.375  10.519  0.8896  0.3389 -3.8102
    1Sil     Hm 2523   3.414   2.686  10.206  2.5079 -1.9136  1.4129
    1Sil     Hm 2524   3.358   2.849  10.257  0.3553 -0.4364 -2.3282
    1Sil     Hm 2525   3.530   2.814  10.228 -0.1152 -0.2264 -0.9978
    1Sil     Hm 2526   0.110   2.807  12.426 -0.5138 -0.9119 -0.3813
    1Sil     Hm 2527   0.143   2.848  12.260 -0.4112  0.9103  1.6921
    1Sil     Hm 2528   0.080   2.686  12.304 -0.3851 -0.9065  0.1358
    1Sil     Hm 2529   3.449   3.260  10.202 -0.8309  2.9205  1.2272
    1Sil     Hm 2530   3.379   3.099  10.214  3.8754  1.3251 -3.6332
    1Sil     Hm 2531   3.279   3.241  10.234  0.4174 -0.6841 -1.1013
    1Sil     Hm 2532   3.761   3.368  10.495  0.4232  0.0254 -0.2847
    1Sil     Hm 2533   3.746   3.551  10.486  0.3827  0.7403  0.7980
    1Sil     Hm 2534   3.758   3.471  10.639  1.9824  0.0448 -0.5281
    1Sil     Hm 2535   3.636   3.779  10.218 -1.0706  2.2111  1.5920
    1Sil     Hm 2536   3.543   3.626  10.178 -0.7579  0.0969 -0.5618
    1Sil     Hm 2537   3.467   3.779  10.181  0.7489  0.0503 -0.3755
    1Sil     Hm 2538   0.103   3.691  12.247  0.6956  0.4219  0.2213
    1Sil     Hm 2539   0.102   3.652  12.404  1.0719 -0.6772  0.2018
    1Sil     Hm 2540   0.132   3.827  12.356 -0.2999 -0.4423  1.2303
    1Sil     Hm 2541   3.284   4.226  10.238 -0.8869 -2.2790  0.7340
    1Sil     Hm 2542   3.447   4.269  10.195 -4.2051  2.7784 -0.3643
    1Sil     Hm 2543   3.393   4.100  10.205  1.6085  0.1192 -1.2581
    1Sil     Hm 2544   3.748   4.488  10.651 -1.1500  0.9914 -0.5914
    1Sil     Hm 2545   3.730   4.566  10.497  0.2535  0.2740  0.7012
    1Sil     Hm 2546   3.764   4.391  10.502 -0.7965 -0.6753  0.3272
    1Sil     Hm 2547   3.452   4.874  10.256 -0.5823 -0.1496  0.0752
    1Sil     Hm 2548   3.471   4.705  10.197 -0.2828 -0.6470  1.4071
    1Sil     Hm 2549   3.315   4.764  10.241 -0.6074  0.9992  1.2561
    1Sil     Hm 2550   0.094   4.690  12.208 -1.2583 -0.0707  0.1612
    1Sil     Hm 2551   0.088   4.587  12.353 -0.2582  0.6601  0.8840
    1Sil     Hm 2552   0.097   4.768  12.363  1.7366 -0.5265  0.7662
    1Sil     Hm 2553   0.107   1.838  10.193  0.8702 -0.3442 -1.8913
    1Sil     Hm 2554   0.247   1.732  10.241 -0.3629 -0.3101 -0.1036
    1Sil     Hm 2555   0.089   1.666  10.173 -0.4558  0.2752 -0.0947
    1Sil     Hm 2556   0.652   2.046  10.184 -0.9748 -1.1931 -1.4691
    1Sil     Hm 2557   0.594   1.885  10.203  1.5156 -0.4750 -1.5018
    1Sil     Hm 2558   0.485   2.010  10.138 -2.2522 -1.7197  2.0824
    1Sil     Hm 2559   0.716   2.408  10.122  0.2862 -0.2626 -0.8263
    1Sil     Hm 2560   0.755   2.576  10.143  0.9984 -1.1543 -0.4940
    1Sil     Hm 2561   0.822   2.459  10.256 -0.3233 -0.1874  0.6876
    1Sil     Hm 2562   0.480   2.957  10.146 -0.9668 -3.0826  2.1424
    1Sil     Hm 2563   0.628   3.055  10.173  2.6690 -2.5598 -2.3954
    1Sil     Hm 2564   0.638   2.883  10.194  0.9461  0.1817  2.7570
    1Sil     Hm 2565   0.707   3.423  10.143 -1.3617 -0.0454  1.2051
    1Sil     Hm 2566   0.703   3.596  10.128 -1.8324 -0.5554 -0.3067
    1Sil     Hm 2567   0.811   3.510  10.244 -0.9181 -1.6457  1.8452
    1Sil     Hm 2568   0.515   3.881  10.195  1.2610  0.0095  0.7969
    1Sil     Hm 2569   0.639   4.002  10.188 -1.0434  1.4046 -3.2600
    1Sil     Hm 2570   0.480   4.055  10.160  0.4770  1.3599  0.0351
    1Sil     Hm 2571   0.708   4.411  10.125  2.3882  1.3670 -0.7010
    1Sil     Hm 2572   0.714   4.583  10.146  1.3407 -0.3126 -0.0520
    1Sil     Hm 2573   0.810   4.468  10.248  0.3014 -1.9306 -2.0421
    1Sil     Hm 2574   0.666   4.925  10.222 -0.7852 -1.6122 -0.4051
    1Sil     Hm 2575   0.500   4.876  10.193  1.8410 -0.9416 -0.6799
    1Sil     Hm 2576   0.547   5.046  10.165  0.6485  0.9223  0.8102
    2Eth     Ho 2577   0.744   0.745   7.100 -0.4424 -0.4832  0.3440
    2Eth     Oh 2578   0.738   0.784   7.185 -0.4668 -0.0442  0.1440
    2Eth     Co 2579   0.636   0.705   7.244 -0.5249 -0.1121 -0.2558
    2Eth    Hco 2580   0.659   0.599   7.242 -3.2394 -0.7309 -1.7950
    2Eth    Hco 2581   0.539   0.734   7.203 -1.3698 -1.6416  0.6015
    2Eth     Ch 2582   0.633   0.742   7.398  0.4079 -0.6819 -0.1963
    2Eth    Hcc 2583   0.556   0.672   7.433  0.3159 -0.5395 -0.1126
    2Eth    Hcc 2584   0.609   0.846   7.418 -0.6192 -0.9293 -0.0938
    2Eth    Hcc 2585   0.730   0.711   7.437  0.4503  0.1240  0.3487
    3Eth     Ho 2586   0.798   1.016   7.966 -0.1674  0.8299  0.2132
    3Eth     Oh 2587   0.739   0.977   7.903 -0.7634  1.2948  0.4768
    3Eth     Co 2588   0.828   0.888   7.836  0.8127  0.0115  0.0157
    3Eth    Hco 2589   0.883   0.826   7.907  0.4096 -3.7195 -2.7480
    3Eth    Hco 2590   0.902   0.955   7.793 -0.4345  1.3849 -0.0279
    3Eth     Ch 2591   0.763   0.813   7.720 -0.6982  0.3537  0.0789
    3Eth    Hcc 2592   0.688   0.740   7.750 -0.6324  0.7652  1.2812
    3Eth    Hcc 2593   0.836   0.755   7.663 -0.3404  1.2290 -0.3496
    3Eth    Hcc 2594   0.708   0.885   7.659 -1.1574 -0.4823 -0.5160
    4Eth     Ho 2595   1.557   2.616   8.382  1.6862 -1.9841  0.9123
    4Eth     Oh 2596   1.546   2.554   8.312 -0.0802 -1.0250  0.3197
    4Eth     Co 2597   1.664   2.568   8.237  0.9339  0.1113  0.4791
    4Eth    Hco 2598   1.750   2.580   8.303  0.9682 -0.9368  0.6343
    4Eth    Hco 2599   1.646   2.661   8.184 -0.2675  0.2069  1.0373
    4Eth     Ch 2600   1.680   2.449   8.138  0.7090  0.7342 -0.2014
    4Eth    Hcc 2601   1.592   2.430   8.076  0.5576  0.1960  0.1761
    4Eth    Hcc 2602   1.708   2.356   8.186  2.3275  0.8487 -0.9011
    4Eth    Hcc 2603   1.763   2.469   8.070  0.1509 -0.1267 -1.1549
    5Eth     Ho 2604   1.353   2.628   9.723  1.2796 -0.6279  0.6379
    5Eth     Oh 2605   1.361   2.684   9.797  0.6341  0.4703 -0.1058
    5Eth     Co 2606   1.231   2.734   9.800 -0.4272  0.0039  0.3137
    5Eth    Hco 2607   1.163   2.648   9.793  0.4118 -0.5574 -1.2631
    5Eth    Hco 2608   1.217   2.808   9.721  2.7141  0.4495  0.0992
    5Eth     Ch 2609   1.197   2.801   9.935 -0.6323  0.2991  0.2603
    5Eth    Hcc 2610   1.105   2.859   9.946  0.0223  1.6154 -1.0264
    5Eth    Hcc 2611   1.276   2.871   9.961 -0.3665  0.4771 -0.9961
    5Eth    Hcc 2612   1.187   2.721  10.008 -0.8592 -0.9048 -1.0506
    6Eth     Ho 2613   0.145   0.973   2.754  0.5790 -0.8146  0.9179
    6Eth     Oh 2614   0.216   0.959   2.695 -0.2489 -0.3718 -0.1885
    6Eth     Co 2615   0.242   0.828   2.710  0.1922 -0.7524  0.1684
    6Eth    Hco 2616   0.149   0.771   2.700  0.3801 -1.1068  0.4237
    6Eth    Hco 2617   0.279   0.809   2.810 -0.3830 -2.7079  0.0381
    6Eth     Ch 2618   0.334   0.772   2.594 -0.2362 -0.2559  0.4414
    6Eth    Hcc 2619   0.286   0.796   2.499  0.1680 -1.0117  0.0385
    6Eth    Hcc 2620   0.328   0.663   2.599 -0.3831 -0.2005  1.5477
    6Eth    Hcc 2621   0.434   0.815   2.597 -1.1352  1.9849 -0.3303
    7Eth     Ho 2622   0.259   0.774   5.086  1.0836  1.3086  1.8208
    7Eth     Oh 2623   0.333   0.725   5.118  0.8727 -0.4683 -0.2564
    7Eth     Co 2624   0.424   0.833   5.146  0.5308  0.4720  0.0243
    7Eth    Hco 2625   0.380   0.886   5.230  0.6693  0.4222  0.1293
    7Eth    Hco 2626   0.441   0.904   5.065 -0.5484 -0.1009 -0.6973
    7Eth     Ch 2627   0.552   0.779   5.216 -0.4797  0.2586 -0.2436
    7Eth    Hcc 2628   0.611   0.848   5.276 -0.4329 -1.7837  2.1230
    7Eth    Hcc 2629   0.621   0.720   5.156  1.3671  0.4891  1.6072
    7Eth    Hcc 2630   0.531   0.701   5.289  0.2041 -1.1584 -1.5490
    8Eth     Ho 2631   3.128   3.316   1.817  0.9160  2.6005  1.0157
    8Eth     Oh 2632   3.046   3.355   1.793 -0.0929  0.0556  0.1812
    8Eth     Co 2633   3.089   3.451   1.703  0.0977 -0.1596  0.2441
    8Eth    Hco 2634   3.000   3.489   1.653  0.0950 -0.5595 -0.0524
    8Eth    Hco 2635   3.156   3.424   1.621  0.7201  0.9978  0.3558
    8Eth     Ch 2636   3.139   3.576   1.781  0.0768  0.1955 -0.0122
    8Eth    Hcc 2637   3.176   3.658   1.719  0.7011 -1.3586 -1.7523
    8Eth    Hcc 2638   3.220   3.545   1.848  0.5905 -0.4179 -0.9052
    8Eth    Hcc 2639   3.056   3.610   1.843 -0.8117 -0.2303 -0.9685
    9Eth     Ho 2640   1.382   2.651   1.808 -0.4211 -1.6715 -0.7440
    9Eth     Oh 2641   1.294   2.685   1.808  0.1007 -0.2675 -0.2071
    9Eth     Co 2642   1.233   2.622   1.693 -0.2392  0.8006 -0.5348
    9Eth    Hco 2643   1.225   2.520   1.729  2.5594  0.4257 -0.8349
    9Eth    Hco 2644   1.314   2.628   1.620  1.2810  1.3151  1.1383
    9Eth     Ch 2645   1.103   2.678   1.649  0.1023 -0.4975  0.1298
    9Eth    Hcc 2646   1.037   2.706   1.731  1.2081 -0.5651  1.0624
    9Eth    Hcc 2647   1.048   2.603   1.593  1.4108 -1.1200 -0.3593
    9Eth    Hcc 2648   1.119   2.764   1.584  1.8758  0.3130  1.5721
   10Eth     Ho 2649   1.631   0.960   9.793 -0.6172  1.7866  1.0114
   10Eth     Oh 2650   1.553   0.912   9.814 -0.1080  0.4363 -0.1010
   10Eth     Co 2651   1.588   0.782   9.849  0.0463  0.0118 -0.2695
   10Eth    Hco 2652   1.655   0.804   9.933  0.5877 -0.4080 -0.5895
   10Eth    Hco 2653   1.652   0.726   9.780 -1.3110 -1.4945 -0.3354
   10Eth     Ch 2654   1.464   0.701   9.887  0.8322  0.2833  0.2051
   10Eth    Hcc 2655   1.502   0.609   9.933 -2.1832 -1.4916 -0.7273
   10Eth    Hcc 2656   1.406   0.676   9.798  2.8607  0.0565 -1.1127
   10Eth    Hcc 2657   1.401   0.758   9.955 -0.0543 -0.2530 -0.1607
   11Eth     Ho 2658   0.572   2.140   4.230  1.3973 -1.1149  0.8448
   11Eth     Oh 2659   0.561   2.169   4.319 -0.2425 -0.1632  0.3473
   11Eth     Co 2660   0.424   2.205   4.338 -0.3889 -0.1470  0.3391
   11Eth    Hco 2661   0.348   2.127   4.336  2.7826 -3.3870 -0.0530
   11Eth    Hco 2662   0.390   2.270   4.257 -0.2385 -0.6445 -0.1318
   11Eth     Ch 2663   0.414   2.288   4.469 -0.8628 -0.1207  0.8930
   11Eth    Hcc 2664   0.450   2.239   4.559 -1.6513  1.9064  2.3370
   11Eth    Hcc 2665   0.309   2.297   4.496 -1.0281 -0.2791  0.3026
   11Eth    Hcc 2666   0.471   2.381   4.464  0.0956 -0.7072  0.7326
   12Eth     Ho 2667   1.540   2.029   9.871  0.2756  0.1493  0.3722
   12Eth     Oh 2668   1.462   2.081   9.874 -0.3914 -0.7720 -0.8916
   12Eth     Co 2669   1.496   2.220   9.848  0.1982  0.5232  0.1766
   12Eth    Hco 2670   1.539   2.207   9.748 -0.5617  0.1219 -0.1025
   12Eth    Hco 2671   1.563   2.253   9.928  0.1572  1.2878 -0.0929
   12Eth     Ch 2672   1.366   2.302   9.854  0.2411  0.6217  0.7788
   12Eth    Hcc 2673   1.378   2.403   9.815  3.3798 -0.6801 -1.8349
   12Eth    Hcc 2674   1.328   2.314   9.955 -2.9664 -0.6850 -0.1932
   12Eth    Hcc 2675   1.287   2.250   9.799  0.3332 -0.1649  1.3859
   13Eth     Ho 2676   1.435   0.800   1.972  2.7325  1.0396  0.5723
   13Eth     Oh 2677   1.462   0.813   1.883  0.2218 -0.2746 -0.4339
   13Eth     Co 2678   1.492   0.690   1.824  0.4419 -0.0330  0.4068
   13Eth    Hco 2679   1.435   0.610   1.871 -2.8617  1.1042 -1.5150
   13Eth    Hco 2680   1.598   0.674   1.845  0.4916 -0.3699 -0.1018
   13Eth     Ch 2681   1.465   0.693   1.676 -0.3270 -0.2579  0.6800
   13Eth    Hcc 2682   1.362   0.716   1.649 -0.2621  1.2930  1.6925
   13Eth    Hcc 2683   1.493   0.594   1.640  1.0202  1.1738 -2.3673
   13Eth    Hcc 2684   1.536   0.764   1.636 -1.4087  0.5966  0.2482
   14Eth     Ho 2685   0.460   3.397   3.663  1.4262  0.7849  0.0194
   14Eth     Oh 2686   0.421   3.437   3.587 -0.2298 -0.3927  0.2253
   14Eth     Co 2687   0.281   3.395   3.580 -0.0419 -0.3212 -0.0489
   14Eth    Hco 2688   0.242   3.338   3.665  0.0033  0.0917  0.2481
   14Eth    Hco 2689   0.275   3.334   3.490  1.6594  0.6233 -0.8187
   14Eth     Ch 2690   0.183   3.505   3.562  0.2026  0.1067  0.1416
   14Eth    Hcc 2691   0.078   3.478   3.573 -0.0242  0.4373 -1.1908
   14Eth    Hcc 2692   0.170   3.538   3.459 -0.3422 -1.3785 -0.2782
   14Eth    Hcc 2693   0.205   3.584   3.634  2.2557 -1.8054  1.6773
   15Eth     Ho 2694   1.030   0.497   6.609 -0.0121  0.7738  0.4102
   15Eth     Oh 2695   1.122   0.495   6.626  0.0427 -0.3107  0.0303
   15Eth     Co 2696   1.181   0.474   6.497 -0.4718 -0.4940 -0.0323
   15Eth    Hco 2697   1.098   0.471   6.426  1.1173 -2.5614 -1.8814
   15Eth    Hco 2698   1.243   0.384   6.502 -1.4839 -1.5043 -3.7769
   15Eth     Ch 2699   1.261   0.601   6.462  0.2223  0.1481 -0.0946
   15Eth    Hcc 2700   1.335   0.622   6.539  0.6081 -1.1655 -0.0911
   15Eth    Hcc 2701   1.193   0.687   6.467  0.8710  0.6195  0.6625
   15Eth    Hcc 2702   1.310   0.593   6.365  0.3415  2.5535 -0.2615
   16Eth     Ho 2703   2.957   0.195   9.650  1.7772 -0.3212  0.5165
   16Eth     Oh 2704   2.980   0.277   9.690  0.0902  0.1190  0.6352
   16Eth     Co 2705   3.116   0.253   9.728 -0.1473 -0.4072 -0.3130
   16Eth    Hco 2706   3.173   0.246   9.635  1.0359  4.1151 -0.0208
   16Eth    Hco 2707   3.120   0.151   9.768 -0.4523 -0.7868 -1.2371
   16Eth     Ch 2708   3.172   0.362   9.830 -0.1844  0.0517  0.0507
   16Eth    Hcc 2709   3.164   0.464   9.793  0.2025  0.7558  1.8498
   16Eth    Hcc 2710   3.275   0.344   9.861  0.5016 -0.1206 -2.2705
   16Eth    Hcc 2711   3.113   0.366   9.922  1.2595 -3.1759  1.2039
   17Eth     Ho 2712   1.249   0.367   8.791 -0.5900 -0.6559  0.2140
   17Eth     Oh 2713   1.298   0.420   8.851 -0.3485  0.1024 -0.6441
   17Eth     Co 2714   1.220   0.536   8.894 -0.0880 -0.1221 -0.5840
   17Eth    Hco 2715   1.136   0.491   8.947 -0.3181  0.0390 -0.8136
   17Eth    Hco 2716   1.185   0.596   8.811 -1.5265  0.0823  0.1547
   17Eth     Ch 2717   1.296   0.623   8.997 -0.9407  0.4901 -0.2116
   17Eth    Hcc 2718   1.337   0.553   9.069 -1.1154  0.1833 -0.4096
   17Eth    Hcc 2719   1.240   0.699   9.051 -0.9003  0.7120 -0.4753
   17Eth    Hcc 2720   1.385   0.668   8.952  0.0563 -0.0069  1.2397
   18Eth     Ho 2721   0.400   2.800   5.650  1.2722 -0.2914 -1.0706
   18Eth     Oh 2722   0.339   2.810   5.579  0.0292  0.3675  0.0834
   18Eth     Co 2723   0.379   2.709   5.490 -0.6812  0.1468  0.1331
   18Eth    Hco 2724   0.395   2.620   5.551  0.1464 -0.4046 -0.8824
   18Eth    Hco 2725   0.472   2.735   5.440 -0.4867 -1.2906 -0.2740
   18Eth     Ch 2726   0.267   2.684   5.383 -0.3631 -0.8104 -0.1040
   18Eth    Hcc 2727   0.240   2.762   5.311 -1.4268 -1.7908 -0.8032
   18Eth    Hcc 2728   0.177   2.642   5.427 -2.3386  2.5071 -0.7788
   18Eth    Hcc 2729   0.300   2.609   5.311  0.0470 -1.8316  1.1454
   19Eth     Ho 2730   0.006   2.639   8.281  1.0030  0.0220  0.8433
   19Eth     Oh 2731   0.093   2.640   8.245  0.6560  0.2782  0.0068
   19Eth     Co 2732   0.081   2.662   8.105  0.1426 -0.2634 -0.2671
   19Eth    Hco 2733  -0.007   2.727   8.108 -0.8852 -1.6771  2.8354
   19Eth    Hco 2734   0.049   2.578   8.042  0.7473 -1.1841  0.6343
   19Eth     Ch 2735   0.192   2.750   8.047 -0.2044 -0.1590 -0.8261
   19Eth    Hcc 2736   0.210   2.831   8.118 -3.1199  1.1964 -1.5393
   19Eth    Hcc 2737   0.173   2.801   7.953 -0.2135 -0.7612 -1.1461
   19Eth    Hcc 2738   0.276   2.685   8.025  0.8126  0.5464  0.8702
   20Eth     Ho 2739   2.373   0.810   2.138  0.1164  0.7833 -0.9126
   20Eth     Oh 2740   2.395   0.869   2.208 -0.0113 -0.3094  0.0560
   20Eth     Co 2741   2.494   0.960   2.171 -0.1114  0.5388 -0.4261
   20Eth    Hco 2742   2.483   1.067   2.189  0.3663  0.6466 -0.7634
   20Eth    Hco 2743   2.507   0.946   2.064 -2.1287 -2.4160 -0.3342
   20Eth     Ch 2744   2.629   0.920   2.230  0.0233 -0.1513  0.5139
   20Eth    Hcc 2745   2.629   0.916   2.339  1.6712 -1.1662  0.4911
   20Eth    Hcc 2746   2.711   0.984   2.196 -0.9287  2.0830  2.2638
   20Eth    Hcc 2747   2.657   0.819   2.201  0.7482  0.2770 -0.3069
   21Eth     Ho 2748   0.312   0.303   9.948 -0.1736 -0.0308  0.1767
   21Eth     Oh 2749   0.338   0.340   9.866  0.1738  0.1063  0.3470
   21Eth     Co 2750   0.427   0.239   9.835 -0.1842  0.2228  0.3671
   21Eth    Hco 2751   0.477   0.267   9.742 -1.7056 -0.3061 -0.6165
   21Eth    Hco 2752   0.385   0.139   9.825 -1.2494  0.9491 -2.9227
   21Eth     Ch 2753   0.545   0.250   9.937 -0.1778  0.2354 -0.2413
   21Eth    Hcc 2754   0.577   0.354   9.936  0.2920  0.0916 -1.2276
   21Eth    Hcc 2755   0.637   0.195   9.915 -1.5610 -1.2588 -2.4068
   21Eth    Hcc 2756   0.506   0.234  10.037 -3.3359 -0.0607 -1.4822
   22Eth     Ho 2757   0.284   2.396   4.918  0.2106 -2.2153 -0.2288
   22Eth     Oh 2758   0.259   2.399   4.828 -0.0399 -0.0622 -0.1061
   22Eth     Co 2759   0.363   2.482   4.778 -0.3034  0.4566 -0.1918
   22Eth    Hco 2760   0.453   2.427   4.749  0.5960  0.6024  2.2084
   22Eth    Hco 2761   0.383   2.549   4.862 -0.1525  0.2692 -0.0805
   22Eth     Ch 2762   0.319   2.566   4.660  0.0958  1.0900  1.0520
   22Eth    Hcc 2763   0.397   2.606   4.595 -0.7246  1.4345  0.2595
   22Eth    Hcc 2764   0.259   2.653   4.688 -0.9142  0.9520 -0.6093
   22Eth    Hcc 2765   0.256   2.498   4.603  4.0603 -1.5047 -0.4386
   23Eth     Ho 2766   2.943   0.661   4.146 -0.3281  3.4213  0.2826
   23Eth     Oh 2767   2.918   0.673   4.056  0.1983 -0.2224 -0.4314
   23Eth     Co 2768   3.035   0.724   3.993  0.3377  0.3986 -0.4486
   23Eth    Hco 2769   3.125   0.697   4.047  0.2595  2.1495  0.5867
   23Eth    Hco 2770   3.028   0.833   3.991 -0.2040  0.3857  0.2383
   23Eth     Ch 2771   3.048   0.656   3.854  0.1090  1.1800 -0.1643
   23Eth    Hcc 2772   3.144   0.677   3.807 -0.5220  1.3276 -1.3947
   23Eth    Hcc 2773   2.966   0.682   3.787 -0.0943  0.6798 -0.1134
   23Eth    Hcc 2774   3.065   0.549   3.864  0.6229  1.3408  0.7132
   24Eth     Ho 2775   2.844   0.368   1.916  1.5307 -0.0525  1.7306
   24Eth     Oh 2776   2.882   0.442   1.871  0.2392 -0.2537  0.2730
   24Eth     Co 2777   2.887   0.408   1.732  0.9438 -0.2268 -0.6247
   24Eth    Hco 2778   2.794   0.358   1.708 -0.0304  0.5381  1.5162
   24Eth    Hco 2779   2.964   0.332   1.716 -0.6289 -2.2690  1.3116
   24Eth     Ch 2780   2.894   0.524   1.633  0.1443 -0.4314  0.6543
   24Eth    Hcc 2781   2.878   0.480   1.534 -0.4670 -1.3187  1.1365
   24Eth    Hcc 2782   2.994   0.565   1.634 -0.7550  1.8716 -0.3878
   24Eth    Hcc 2783   2.829   0.609   1.653 -1.2556 -1.0397 -1.1351
   25Eth     Ho 2784   0.290   2.858   9.891 -1.4690  0.9665 -0.2291
   25Eth     Oh 2785   0.344   2.929   9.921  0.3413 -0.3238 -0.3389
   25Eth     Co 2786   0.258   3.016   9.995 -0.0262 -0.5087  0.0771
   25Eth    Hco 2787   0.264   3.011  10.104  2.2670  0.0530  0.0055
   25Eth    Hco 2788   0.152   3.016   9.970  0.6694  1.5329 -3.1589
   25Eth     Ch 2789   0.311   3.159   9.965  0.2092 -0.3420  0.1631
   25Eth    Hcc 2790   0.400   3.186  10.022 -0.0902  2.1683 -0.4876
   25Eth    Hcc 2791   0.234   3.235   9.981 -0.1044 -0.6542  0.1286
   25Eth    Hcc 2792   0.351   3.175   9.865  1.0640  0.8045  0.6686
   26Eth     Ho 2793   2.166   2.182   8.967 -1.6277 -2.9053  1.4026
   26Eth     Oh 2794   2.106   2.173   8.895  0.4279 -0.6034 -0.7314
   26Eth     Co 2795   2.052   2.302   8.875  0.2199 -0.4357 -0.3892
   26Eth    Hco 2796   2.124   2.378   8.843  1.2298 -0.9629  0.5882
   26Eth    Hco 2797   2.010   2.337   8.969 -1.0235 -0.3720 -0.9534
   26Eth     Ch 2798   1.934   2.287   8.774  0.7924 -0.1941  0.0939
   26Eth    Hcc 2799   1.863   2.370   8.763  0.1440 -1.0422 -2.2901
   26Eth    Hcc 2800   1.871   2.201   8.797 -0.8705  0.1772 -2.8717
   26Eth    Hcc 2801   1.969   2.264   8.674 -0.9720 -3.5697  0.1855
   27Eth     Ho 2802   1.712   1.438   8.548 -0.0356  0.1070  0.5707
   27Eth     Oh 2803   1.772   1.368   8.532 -0.2905  0.0172 -0.0113
   27Eth     Co 2804   1.893   1.434   8.518 -0.2987  0.3670 -0.0574
   27Eth    Hco 2805   1.904   1.503   8.602 -1.1308  0.1232  0.2502
   27Eth    Hco 2806   1.902   1.482   8.420  1.1700  0.8632  0.3025
   27Eth     Ch 2807   2.009   1.321   8.543 -0.0089  0.4369 -0.1979
   27Eth    Hcc 2808   2.001   1.230   8.483 -0.5001  0.2491  0.1502
   27Eth    Hcc 2809   2.010   1.299   8.650  0.3861 -1.0088 -0.4820
   27Eth    Hcc 2810   2.104   1.368   8.517  0.0544  0.1316 -0.5259
   28Eth     Ho 2811   0.694   2.351   9.738 -0.3316  1.1868 -2.4659
   28Eth     Oh 2812   0.600   2.347   9.739 -0.2764 -0.4253  0.1722
   28Eth     Co 2813   0.563   2.256   9.837  0.3143  0.5120 -0.2299
   28Eth    Hco 2814   0.611   2.275   9.933 -0.6265  0.2518  0.3045
   28Eth    Hco 2815   0.602   2.158   9.812 -0.9551  0.0491 -0.4283
   28Eth     Ch 2816   0.407   2.248   9.860 -0.4590 -0.2634 -0.0427
   28Eth    Hcc 2817   0.354   2.268   9.767  1.2621 -0.9635 -1.2061
   28Eth    Hcc 2818   0.382   2.320   9.937 -0.3119 -2.0925  1.7528
   28Eth    Hcc 2819   0.368   2.156   9.903  0.9335 -0.6838  0.3182
   29Eth     Ho 2820   0.077   1.792   3.820 -0.5948  0.6774 -0.2958
   29Eth     Oh 2821   0.115   1.780   3.905 -0.4218  0.1268 -0.4494
   29Eth     Co 2822   0.110   1.904   3.979  0.1121  0.1187  0.5717
   29Eth    Hco 2823   0.122   1.992   3.915  0.0251 -0.2444  0.0502
   29Eth    Hco 2824   0.198   1.912   4.042  0.2971 -3.1425  0.8065
   29Eth     Ch 2825  -0.022   1.907   4.045 -0.0656 -0.0810  0.6085
   29Eth    Hcc 2826  -0.044   1.817   4.103  0.8876  0.5582  2.0111
   29Eth    Hcc 2827  -0.107   1.930   3.982  0.0041  0.3885  0.6854
   29Eth    Hcc 2828  -0.018   1.996   4.108  0.6590  1.2599 -1.2895
   30Eth     Ho 2829   2.476   2.303   1.635 -0.9034 -0.3492  3.7998
   30Eth     Oh 2830   2.565   2.316   1.661  0.2528 -0.1565  0.0509
   30Eth     Co 2831   2.568   2.449   1.717 -0.3167 -1.0062  0.1599
   30Eth    Hco 2832   2.519   2.445   1.814 -1.5736 -0.2789 -0.4353
   30Eth    Hco 2833   2.503   2.513   1.657 -1.4109 -2.0894  0.1529
   30Eth     Ch 2834   2.712   2.504   1.723  0.5333  0.6868  0.2688
   30Eth    Hcc 2835   2.768   2.451   1.799  2.2015  2.1235  0.0774
   30Eth    Hcc 2836   2.719   2.611   1.746  2.4843  0.7617 -0.5546
   30Eth    Hcc 2837   2.751   2.490   1.623 -0.7833 -0.7474 -0.0561
   31Eth     Ho 2838   3.360   2.305   1.630  1.1095 -1.0457 -0.5286
   31Eth     Oh 2839   3.391   2.392   1.611  0.3811 -0.6128  0.2007
   31Eth     Co 2840   3.529   2.385   1.627  0.0209 -0.3501 -0.5415
   31Eth    Hco 2841   3.568   2.310   1.558  0.0276 -1.0056  0.1748
   31Eth    Hco 2842   3.552   2.374   1.733 -0.3345 -0.0862 -0.4365
   31Eth     Ch 2843   3.575   2.524   1.595 -0.5826  0.1422  0.3394
   31Eth    Hcc 2844   3.523   2.605   1.646  2.2126  0.3622  2.9753
   31Eth    Hcc 2845   3.572   2.532   1.486  0.8669 -0.5635  0.2383
   31Eth    Hcc 2846   3.680   2.522   1.623 -0.4264 -0.2306 -0.2640
   32Eth     Ho 2847   1.530   0.180   1.871  0.5451 -2.5621  0.3746
   32Eth     Oh 2848   1.460   0.158   1.812 -0.1595  0.1268  0.1285
   32Eth     Co 2849   1.432   0.269   1.728 -0.1277  0.7461  0.0405
   32Eth    Hco 2850   1.527   0.289   1.677  0.4360  1.0691  1.2040
   32Eth    Hco 2851   1.402   0.361   1.779 -0.4274  0.4082  0.4774
   32Eth     Ch 2852   1.323   0.231   1.624 -0.6077  0.7273  0.0043
   32Eth    Hcc 2853   1.348   0.154   1.552 -3.4572 -0.3049  0.0478
   32Eth    Hcc 2854   1.291   0.319   1.568 -0.8120  0.4637 -0.2936
   32Eth    Hcc 2855   1.231   0.204   1.676 -0.6425 -1.0530 -0.9678
   33Eth     Ho 2856   0.008   1.924   5.553  1.3671 -1.4511  0.2016
   33Eth     Oh 2857   0.071   1.972   5.604  0.0126  0.1267  0.4452
   33Eth     Co 2858   0.002   2.069   5.682  0.4029 -0.6499 -0.3658
   33Eth    Hco 2859  -0.048   2.004   5.754 -0.0644  0.6868  0.5301
   33Eth    Hco 2860  -0.077   2.109   5.618 -0.4724 -2.9317 -0.7451
   33Eth     Ch 2861   0.100   2.177   5.744 -0.5213 -0.1849  1.0658
   33Eth    Hcc 2862   0.040   2.244   5.805  1.4527  1.1783  1.5461
   33Eth    Hcc 2863   0.142   2.229   5.659  1.0264 -2.8439  0.1634
   33Eth    Hcc 2864   0.180   2.138   5.807  0.3399  1.2456  0.8628
   34Eth     Ho 2865   0.965   0.077   9.700  0.2397 -0.2057 -0.7322
   34Eth     Oh 2866   0.988   0.009   9.761  0.2436  0.3743 -0.0813
   34Eth     Co 2867   0.861  -0.023   9.818 -0.3405  0.3483  0.2836
   34Eth    Hco 2868   0.793  -0.059   9.740  0.0163 -1.6407  0.8619
   34Eth    Hco 2869   0.820   0.065   9.868  1.9352  2.0991 -0.8200
   34Eth     Ch 2870   0.879  -0.138   9.919 -0.7103 -0.0552  0.7047
   34Eth    Hcc 2871   0.916  -0.229   9.872  0.4132  0.5302  0.4252
   34Eth    Hcc 2872   0.785  -0.164   9.967 -0.5712  0.8791  1.5017
   34Eth    Hcc 2873   0.949  -0.118  10.001 -1.0381  0.5996  0.8320
   35Eth     Ho 2874   3.336   2.858   3.819  0.4596 -0.1734  0.7102
   35Eth     Oh 2875   3.331   2.951   3.809  0.0651 -0.2500  0.1444
   35Eth     Co 2876   3.376   3.021   3.922  0.4780  0.3835  0.4435
   35Eth    Hco 2877   3.485   3.010   3.924  0.6107  1.0796 -1.5030
   35Eth    Hco 2878   3.327   2.973   4.006  0.4510  1.2986  0.9551
   35Eth     Ch 2879   3.345   3.168   3.922  0.3483 -0.0427  0.8542
   35Eth    Hcc 2880   3.356   3.222   3.828 -2.2736  2.1254  1.7177
   35Eth    Hcc 2881   3.418   3.211   3.990  3.7583  0.7726 -3.1711
   35Eth    Hcc 2882   3.246   3.185   3.966  0.3678  1.7257  0.2551
   36Eth     Ho 2883   2.373   2.417   5.842  0.4103  0.2390 -1.1810
   36Eth     Oh 2884   2.456   2.385   5.872  0.1352  0.3651 -0.2690
   36Eth     Co 2885   2.450   2.356   6.008  0.3030  0.0755  0.1946
   36Eth    Hco 2886   2.353   2.317   6.041  0.3003  1.0311  1.3608
   36Eth    Hco 2887   2.443   2.459   6.045 -1.8816  0.0316 -0.0450
   36Eth     Ch 2888   2.570   2.273   6.060 -0.2589 -0.1594  0.0378
   36Eth    Hcc 2889   2.670   2.314   6.044 -1.4930  1.9297 -2.6528
   36Eth    Hcc 2890   2.564   2.173   6.017 -2.3021  1.1057 -2.7311
   36Eth    Hcc 2891   2.556   2.267   6.168 -0.8727 -0.0229 -0.0333
   37Eth     Ho 2892   1.788   0.389   9.822  2.3113  0.9167 -1.5464
   37Eth     Oh 2893   1.827   0.320   9.873 -0.4494  0.6499  0.2750
   37Eth     Co 2894   1.767   0.204   9.823 -0.4918  0.3638 -0.7952
   37Eth    Hco 2895   1.774   0.196   9.715  0.3268 -1.1393 -0.6445
   37Eth    Hco 2896   1.662   0.209   9.850 -0.3676  4.8073 -0.6923
   37Eth     Ch 2897   1.822   0.068   9.871  0.3529  0.1107  0.5401
   37Eth    Hcc 2898   1.804   0.062   9.979 -1.0630  3.8780  0.5779
   37Eth    Hcc 2899   1.930   0.068   9.859  0.2035  2.8292 -1.3034
   37Eth    Hcc 2900   1.769  -0.011   9.818  1.4138 -0.8920  0.9492
   38Eth     Ho 2901   0.766   1.475   9.685 -1.9192  0.4402 -1.6406
   38Eth     Oh 2902   0.735   1.387   9.693  0.3480 -0.2080  0.6652
   38Eth     Co 2903   0.815   1.311   9.788 -0.0571 -0.0046  0.0428
   38Eth    Hco 2904   0.802   1.352   9.889  0.3352  0.2612 -0.0163
   38Eth    Hco 2905   0.919   1.332   9.767 -0.2827 -1.5062 -2.7255
   38Eth     Ch 2906   0.774   1.163   9.772  0.2520 -0.0015 -0.9607
   38Eth    Hcc 2907   0.670   1.144   9.799  0.3230  1.6668  0.5950
   38Eth    Hcc 2908   0.829   1.097   9.839  0.6524  0.8959 -0.3924
   38Eth    Hcc 2909   0.796   1.136   9.669  0.5488 -0.1021 -0.8694
   39Eth     Ho 2910   2.222   1.124   4.029  1.5691  0.6424 -0.4642
   39Eth     Oh 2911   2.246   1.105   4.118 -0.1049  0.2526 -0.0831
   39Eth     Co 2912   2.249   1.229   4.178 -0.3893  0.0702 -0.2074
   39Eth    Hco 2913   2.158   1.286   4.158  1.2003  2.8918  0.3789
   39Eth    Hco 2914   2.326   1.271   4.113  0.1405  2.3100  1.7702
   39Eth     Ch 2915   2.304   1.229   4.325  0.6382 -0.0810 -0.1973
   39Eth    Hcc 2916   2.232   1.192   4.398  0.6164 -1.3161 -0.8314
   39Eth    Hcc 2917   2.330   1.333   4.344  0.3668 -0.1973  0.8585
   39Eth    Hcc 2918   2.396   1.171   4.332  2.6841  3.0651  0.1658
   40Eth     Ho 2919   0.354   3.374   1.667  1.2858  0.0442  1.5774
   40Eth     Oh 2920   0.279   3.413   1.707  0.0469 -0.2866 -0.3319
   40Eth     Co 2921   0.220   3.511   1.617 -0.3431  0.1753  0.1497
   40Eth    Hco 2922   0.240   3.482   1.514 -0.8402 -1.3537  0.4797
   40Eth    Hco 2923   0.265   3.610   1.625  0.4151 -0.0118 -1.6594
   40Eth     Ch 2924   0.072   3.507   1.621 -0.3628  0.0428 -0.3186
   40Eth    Hcc 2925   0.024   3.536   1.528 -0.5532 -0.0288 -0.2441
   40Eth    Hcc 2926   0.041   3.582   1.695  1.5870  2.0858 -1.5196
   40Eth    Hcc 2927   0.028   3.411   1.647 -2.5379  1.0809 -0.0262
   41Eth     Ho 2928   2.017   3.040   9.751  0.7548 -0.6001  1.0733
   41Eth     Oh 2929   1.951   3.098   9.785  0.3358  0.0061 -0.7111
   41Eth     Co 2930   1.961   3.090   9.928  0.0526 -0.2297  1.1609
   41Eth    Hco 2931   1.999   2.997   9.970  3.0046  0.3235 -0.1702
   41Eth    Hco 2932   1.857   3.098   9.959  0.1304  2.4746  0.8571
   41Eth     Ch 2933   2.030   3.210   9.994  0.3454 -0.2210  0.2271
   41Eth    Hcc 2934   1.987   3.308   9.977 -1.5272 -0.8824  1.0367
   41Eth    Hcc 2935   2.134   3.204   9.961  0.1713 -1.2353 -0.1500
   41Eth    Hcc 2936   2.025   3.194  10.102  0.1554 -0.3975  0.1937
   42Eth     Ho 2937   3.287   3.379   7.754 -1.8902 -0.6782  0.1834
   42Eth     Oh 2938   3.248   3.448   7.805 -0.5975  0.3391 -0.1727
   42Eth     Co 2939   3.199   3.379   7.913 -0.1374  0.5676  0.4742
   42Eth    Hco 2940   3.280   3.340   7.974 -1.1523 -1.5894  0.5122
   42Eth    Hco 2941   3.137   3.298   7.873  0.9427  0.8281 -1.8111
   42Eth     Ch 2942   3.115   3.468   8.005  0.2500 -0.4474  0.4111
   42Eth    Hcc 2943   3.012   3.489   7.977  1.6031  2.5462 -2.6239
   42Eth    Hcc 2944   3.174   3.559   8.012  0.7159 -0.8634  2.4846
   42Eth    Hcc 2945   3.105   3.417   8.101  0.6625  0.4687  0.9409
   43Eth     Ho 2946   2.328   2.556   9.619  1.1557  0.9273 -1.2708
   43Eth     Oh 2947   2.391   2.544   9.688 -0.3242  0.1468 -0.0475
   43Eth     Co 2948   2.366   2.447   9.783  0.4326 -0.1566 -1.1934
   43Eth    Hco 2949   2.416   2.477   9.875  0.3523  0.0025 -1.2010
   43Eth    Hco 2950   2.407   2.353   9.747 -0.9587 -2.1269  2.1462
   43Eth     Ch 2951   2.217   2.438   9.830  0.5436 -0.0267 -0.0506
   43Eth    Hcc 2952   2.191   2.534   9.875 -4.4742 -0.9556 -0.6740
   43Eth    Hcc 2953   2.197   2.356   9.899 -0.9890 -1.2619 -1.9045
   43Eth    Hcc 2954   2.154   2.425   9.742 -0.0362 -1.9213  0.6231
   44Eth     Ho 2955   3.329   1.710   5.581  0.2196 -1.2799  0.0354
   44Eth     Oh 2956   3.295   1.758   5.508  0.0861 -0.1867  0.8097
   44Eth     Co 2957   3.159   1.744   5.530  0.2974 -0.2242 -0.9153
   44Eth    Hco 2958   3.125   1.828   5.590  0.8172 -0.0931 -0.7988
   44Eth    Hco 2959   3.136   1.650   5.581  1.0107  0.0419 -0.0950
   44Eth     Ch 2960   3.072   1.748   5.399  0.4509  0.1894  0.4076
   44Eth    Hcc 2961   3.080   1.657   5.338  1.6021 -0.1595  1.0589
   44Eth    Hcc 2962   3.083   1.833   5.333  1.4899 -0.9891 -0.9802
   44Eth    Hcc 2963   2.965   1.749   5.420  0.5020 -1.6241  0.8876
   45Eth     Ho 2964   2.899   1.603   8.328  3.1704  2.2724  1.6537
   45Eth     Oh 2965   2.955   1.537   8.293  0.1606  0.4616  0.0341
   45Eth     Co 2966   3.053   1.523   8.404 -0.1551  0.4668  0.3161
   45Eth    Hco 2967   2.994   1.526   8.495  1.4969 -1.9004  1.5127
   45Eth    Hco 2968   3.115   1.613   8.403  1.7116 -0.7441 -2.5215
   45Eth     Ch 2969   3.125   1.392   8.403  0.4471 -0.6614  0.2430
   45Eth    Hcc 2970   3.063   1.318   8.355 -3.1712  2.3450  0.0629
   45Eth    Hcc 2971   3.129   1.353   8.505 -2.1380 -1.7587 -0.0417
   45Eth    Hcc 2972   3.223   1.397   8.355  0.7410 -0.7027  0.8239
   46Eth     Ho 2973   0.631   0.977   4.817 -1.3071  0.0313 -1.3827
   46Eth     Oh 2974   0.694   0.921   4.776 -0.1723 -0.4012  0.8804
   46Eth     Co 2975   0.753   0.849   4.887  0.0884 -0.1942 -0.1544
   46Eth    Hco 2976   0.683   0.809   4.960 -1.7874  3.0184 -0.0863
   46Eth    Hco 2977   0.818   0.913   4.947  0.4115 -3.5623  3.2840
   46Eth     Ch 2978   0.821   0.724   4.818 -0.6136  0.0610  0.7641
   46Eth    Hcc 2979   0.759   0.670   4.746  0.6172 -0.0733 -0.2072
   46Eth    Hcc 2980   0.868   0.658   4.890  0.0927 -1.1081 -0.7508
   46Eth    Hcc 2981   0.904   0.765   4.761  0.0615  1.0429  2.4247
   47Eth     Ho 2982   0.897   2.343   9.627 -0.4502  2.4865 -0.6686
   47Eth     Oh 2983   0.876   2.358   9.718 -0.9358 -0.2751 -0.3033
   47Eth     Co 2984   0.973   2.307   9.798 -0.3808 -0.8799 -0.5834
   47Eth    Hco 2985   1.063   2.369   9.795  0.5421 -2.2096 -1.1732
   47Eth    Hco 2986   0.996   2.205   9.767 -2.0961 -1.7013  0.7948
   47Eth     Ch 2987   0.926   2.320   9.948  0.3044 -0.9210  0.1122
   47Eth    Hcc 2988   0.894   2.423   9.967  1.4682 -0.4535 -0.3646
   47Eth    Hcc 2989   1.012   2.299  10.011  0.1402  0.6383  0.8979
   47Eth    Hcc 2990   0.863   2.240   9.986  0.1050 -1.9991 -2.4442
   48Eth     Ho 2991   2.707   0.922   6.249 -0.0832 -0.5612 -1.2919
   48Eth     Oh 2992   2.663   0.977   6.186 -0.3010  0.5390 -0.2053
   48Eth     Co 2993   2.751   1.021   6.087 -0.1290 -0.0488 -0.3178
   48Eth    Hco 2994   2.825   1.081   6.139 -0.1473  1.2500 -1.7506
   48Eth    Hco 2995   2.695   1.081   6.015 -0.1033 -0.7863 -0.9654
   48Eth     Ch 2996   2.813   0.919   5.997  0.8836 -0.5220 -0.5892
   48Eth    Hcc 2997   2.885   0.855   6.049  2.4068 -0.6674 -2.8221
   48Eth    Hcc 2998   2.874   0.969   5.922  0.4827 -1.4850 -1.5758
   48Eth    Hcc 2999   2.731   0.872   5.942 -1.1484  0.6791  1.3316
   49Eth     Ho 3000   1.747   3.368   2.105 -1.8110  0.6583  1.2223
   49Eth     Oh 3001   1.734   3.292   2.051  0.3046  0.6706  0.6559
   49Eth     Co 3002   1.621   3.331   1.979  0.4121 -0.2666  0.3478
   49Eth    Hco 3003   1.643   3.415   1.913  0.0270 -0.1889  0.3193
   49Eth    Hco 3004   1.551   3.373   2.051 -0.9907  0.0904 -1.1832
   49Eth     Ch 3005   1.555   3.205   1.920 -0.7986 -0.0806 -0.6336
   49Eth    Hcc 3006   1.509   3.149   2.002  0.5797 -0.9494 -0.4382
   49Eth    Hcc 3007   1.613   3.123   1.877  0.1419  0.4449 -0.3808
   49Eth    Hcc 3008   1.475   3.220   1.848 -2.2473 -0.0788  0.9406
   50Eth     Ho 3009   2.974   1.181   4.882  1.7484  2.4269  1.6046
   50Eth     Oh 3010   2.980   1.125   4.957  0.3415  0.5590  0.3537
   50Eth     Co 3011   3.054   1.015   4.932  0.4306  0.1404  0.1295
   50Eth    Hco 3012   3.111   1.039   4.842 -0.4598  0.6325 -0.3178
   50Eth    Hco 3013   2.989   0.930   4.911  1.1800 -0.7102  1.2232
   50Eth     Ch 3014   3.146   0.973   5.048 -0.2962  0.4405  0.3783
   50Eth    Hcc 3015   3.099   0.944   5.142 -0.6444  1.2822  0.4730
   50Eth    Hcc 3016   3.209   1.058   5.074  1.3235 -0.8880  0.8509
   50Eth    Hcc 3017   3.196   0.888   5.003  0.2086  2.0482 -2.2436
   51Eth     Ho 3018   2.634   0.139   7.879 -1.0886  0.4316  0.4216
   51Eth     Oh 3019   2.685   0.218   7.875 -0.9202  0.3548  0.9556
   51Eth     Co 3020   2.592   0.310   7.815 -0.1415 -0.0370  0.5353
   51Eth    Hco 3021   2.505   0.316   7.879 -1.3641  0.1452 -1.1214
   51Eth    Hco 3022   2.557   0.275   7.718 -0.1468 -3.4732  1.7014
   51Eth     Ch 3023   2.652   0.444   7.796  0.7919 -0.6658 -1.0243
   51Eth    Hcc 3024   2.573   0.502   7.748  0.1132 -1.6404 -1.1040
   51Eth    Hcc 3025   2.743   0.450   7.737  0.1339  1.2976 -1.8873
   51Eth    Hcc 3026   2.668   0.488   7.894  1.7514 -4.2154  0.4846
   52Eth     Ho 3027   1.226   3.015   4.284 -2.9502 -1.6783 -0.8898
   52Eth     Oh 3028   1.274   2.939   4.310  0.0047  0.3719 -0.1156
   52Eth     Co 3029   1.361   2.921   4.206  0.1919  0.3777  0.5372
   52Eth    Hco 3030   1.424   3.010   4.204  0.7238  0.0031  0.5339
   52Eth    Hco 3031   1.303   2.915   4.114 -1.1661 -0.7444  1.4398
   52Eth     Ch 3032   1.446   2.791   4.226  0.0051 -0.7088  0.2168
   52Eth    Hcc 3033   1.491   2.798   4.325  1.3082 -0.5259 -0.3699
   52Eth    Hcc 3034   1.529   2.763   4.160 -0.1819 -0.5042 -0.1040
   52Eth    Hcc 3035   1.387   2.700   4.227  0.8310 -1.2663 -0.6989
   53Eth     Ho 3036   1.052   0.919   6.148  0.1494 -1.7205  1.6166
   53Eth     Oh 3037   1.126   0.902   6.091 -0.5823  0.0309  0.0903
   53Eth     Co 3038   1.137   0.760   6.085 -0.1480 -0.2175 -0.0896
   53Eth    Hco 3039   1.096   0.721   6.178  2.5270  0.7582  1.5385
   53Eth    Hco 3040   1.239   0.722   6.080 -0.7941 -1.9366 -0.8069
   53Eth     Ch 3041   1.060   0.695   5.973 -0.5176 -0.3705 -0.1836
   53Eth    Hcc 3042   1.119   0.710   5.883  0.3203 -0.6163  0.3183
   53Eth    Hcc 3043   0.961   0.740   5.965 -1.1518 -1.1896  2.6245
   53Eth    Hcc 3044   1.027   0.592   5.986  0.1419 -0.2843  2.5955
   54Eth     Ho 3045   1.807   0.283   2.909 -0.1850 -0.5789  1.3832
   54Eth     Oh 3046   1.770   0.367   2.928 -0.3894 -0.3081 -0.1565
   54Eth     Co 3047   1.673   0.390   2.827  0.1138 -0.2872  0.4648
   54Eth    Hco 3048   1.702   0.362   2.726  0.2691  0.3005  0.3475
   54Eth    Hco 3049   1.654   0.495   2.806  1.6148 -0.2967 -1.0678
   54Eth     Ch 3050   1.539   0.316   2.862  0.1196  0.3132 -0.3659
   54Eth    Hcc 3051   1.473   0.380   2.921 -0.0875  0.1920 -0.4644
   54Eth    Hcc 3052   1.558   0.231   2.926  0.9076 -0.1689 -1.2229
   54Eth    Hcc 3053   1.484   0.286   2.772  0.4257 -2.4883  0.3544
   55Eth     Ho 3054   3.171   1.488   8.041 -1.5012 -1.8228 -0.6970
   55Eth     Oh 3055   3.163   1.533   7.959  0.0955 -0.2285 -0.0008
   55Eth     Co 3056   3.278   1.585   7.904  0.0231 -0.0188 -0.5344
   55Eth    Hco 3057   3.370   1.533   7.932  0.3572  1.2251  0.7734
   55Eth    Hco 3058   3.299   1.688   7.934 -0.9592  0.5413 -1.7216
   55Eth     Ch 3059   3.257   1.588   7.747  0.1112 -0.1060  0.0365
   55Eth    Hcc 3060   3.170   1.650   7.724 -1.1480 -1.9910 -0.4589
   55Eth    Hcc 3061   3.251   1.489   7.702 -2.0658 -0.1571  0.3732
   55Eth    Hcc 3062   3.339   1.629   7.688  1.9934 -1.7188  1.4676
   56Eth     Ho 3063   0.625   0.857   1.855  0.0872  0.5343  0.3653
   56Eth     Oh 3064   0.581   0.918   1.799  0.1955 -0.0673 -0.3681
   56Eth     Co 3065   0.668   0.910   1.685 -0.2862  0.0065 -0.3770
   56Eth    Hco 3066   0.638   0.833   1.614  0.4515  0.4895 -1.2261
   56Eth    Hco 3067   0.764   0.877   1.724 -0.3646 -2.3178 -2.0477
   56Eth     Ch 3068   0.672   1.054   1.615 -0.0933  0.2223 -0.0812
   56Eth    Hcc 3069   0.659   1.137   1.684 -0.8084  0.2823 -0.2948
   56Eth    Hcc 3070   0.591   1.060   1.543 -0.3042  0.2280  0.1552
   56Eth    Hcc 3071   0.763   1.058   1.555  1.4888 -1.5860  2.0698
   57Eth     Ho 3072   2.134   1.484   1.664  3.6350 -2.6693  2.3406
   57Eth     Oh 3073   2.130   1.423   1.593 -0.3505  0.2438 -0.1606
   57Eth     Co 3074   2.011   1.345   1.631 -0.4565 -0.4390  0.6797
   57Eth    Hco 3075   1.928   1.415   1.631  0.6971  1.0132 -2.1389
   57Eth    Hco 3076   2.015   1.299   1.729 -1.1129 -1.2065  0.3545
   57Eth     Ch 3077   1.994   1.255   1.505 -0.0008 -0.3538 -0.0639
   57Eth    Hcc 3078   2.014   1.331   1.430 -1.4631  0.2741  0.1476
   57Eth    Hcc 3079   1.890   1.232   1.482 -0.0952  1.4222 -1.5052
   57Eth    Hcc 3080   2.054   1.166   1.488 -0.3944 -0.3392 -1.5667
   58Eth     Ho 3081   2.533   1.533   2.568  2.9466  0.5044  0.7178
   58Eth     Oh 3082   2.553   1.471   2.500 -0.0723  0.7434 -0.4741
   58Eth     Co 3083   2.521   1.343   2.553  0.3377 -0.0878  0.3504
   58Eth    Hco 3084   2.431   1.363   2.611  1.5525  0.0766  2.2368
   58Eth    Hco 3085   2.587   1.311   2.634  1.1326  2.8715  0.9519
   58Eth     Ch 3086   2.522   1.239   2.438 -0.5548  0.0558 -0.2836
   58Eth    Hcc 3087   2.619   1.242   2.389 -0.5413  0.0778 -0.2560
   58Eth    Hcc 3088   2.437   1.236   2.371 -1.2179 -0.8682  0.5877
   58Eth    Hcc 3089   2.524   1.145   2.493  3.3190 -0.3840 -1.0044
   59Eth     Ho 3090   3.085   1.389   6.628 -0.4544 -0.0029  0.0369
   59Eth     Oh 3091   3.035   1.437   6.565  0.3053  0.2999 -0.3470
   59Eth     Co 3092   2.959   1.360   6.472  0.5186  0.4788  0.5547
   59Eth    Hco 3093   2.892   1.300   6.533  0.2132  1.3430  1.0767
   59Eth    Hco 3094   3.033   1.305   6.413 -0.5580 -0.4939  0.0921
   59Eth     Ch 3095   2.874   1.460   6.398  0.1586  0.3329 -0.0486
   59Eth    Hcc 3096   2.808   1.408   6.329 -0.6544  1.2576  0.0241
   59Eth    Hcc 3097   2.945   1.527   6.350 -1.1256  1.1920 -0.7887
   59Eth    Hcc 3098   2.826   1.521   6.475  0.8362 -2.1526  2.4134
   60Eth     Ho 3099   1.499   2.454   5.650  2.9114  0.9306 -0.6101
   60Eth     Oh 3100   1.460   2.459   5.564  0.0678 -0.0487  0.5657
   60Eth     Co 3101   1.348   2.379   5.564  0.7195 -0.4616  0.3689
   60Eth    Hco 3102   1.285   2.402   5.650  1.9114 -1.3911  1.4948
   60Eth    Hco 3103   1.386   2.277   5.566  2.3625  0.1454  0.1751
   60Eth     Ch 3104   1.267   2.400   5.435 -0.0253  0.2247 -0.3688
   60Eth    Hcc 3105   1.241   2.505   5.422 -0.7649 -0.0374 -1.0583
   60Eth    Hcc 3106   1.173   2.345   5.433  0.3619 -0.4412 -0.9769
   60Eth    Hcc 3107   1.313   2.356   5.346  0.3388 -1.6602  0.7154
   61Eth     Ho 3108   1.781   0.003   9.323  0.8828 -0.3602 -0.8421
   61Eth     Oh 3109   1.706   0.036   9.277  0.3513 -0.2103  0.1021
   61Eth     Co 3110   1.591  -0.049   9.302 -0.5527 -0.8195 -0.3030
   61Eth    Hco 3111   1.622  -0.153   9.288 -0.1498 -0.7314 -0.0680
   61Eth    Hco 3112   1.517  -0.025   9.226  0.3902  1.2192 -0.6053
   61Eth     Ch 3113   1.516  -0.032   9.431  0.0880 -0.6790  0.0013
   61Eth    Hcc 3114   1.485   0.073   9.429  1.4276 -0.2680  0.4185
   61Eth    Hcc 3115   1.585  -0.058   9.511  0.9410 -0.9167 -0.8073
   61Eth    Hcc 3116   1.431  -0.099   9.445 -1.3023  1.0352 -0.0174
   62Eth     Ho 3117   1.924   0.596   1.722 -1.4597  0.5872  0.2504
   62Eth     Oh 3118   1.937   0.689   1.721  0.3281  0.3587  0.2420
   62Eth     Co 3119   1.864   0.749   1.613  0.2172  1.1385 -0.1679
   62Eth    Hco 3120   1.788   0.674   1.589 -0.5024  2.1442 -1.0742
   62Eth    Hco 3121   1.923   0.763   1.522  0.9976  0.2946  0.1887
   62Eth     Ch 3122   1.809   0.887   1.644  0.6871 -0.1842  0.8430
   62Eth    Hcc 3123   1.742   0.920   1.565  1.2008  1.4216  1.0689
   62Eth    Hcc 3124   1.888   0.961   1.655  1.9121 -1.1582 -1.0576
   62Eth    Hcc 3125   1.749   0.893   1.735  2.3954  0.2269  1.9632
   63Eth     Ho 3126   1.442   1.270   9.628 -0.9506 -0.2777  0.1193
   63Eth     Oh 3127   1.465   1.309   9.710  0.3027 -0.0050 -0.3548
   63Eth     Co 3128   1.351   1.324   9.791  0.0489  0.4188  0.5041
   63Eth    Hco 3129   1.262   1.296   9.735  1.7177  0.7624 -2.3762
   63Eth    Hco 3130   1.336   1.428   9.821 -0.3889 -0.3763  3.2295
   63Eth     Ch 3131   1.350   1.241   9.920 -0.0039 -0.2881  0.1636
   63Eth    Hcc 3132   1.264   1.248   9.986  0.4138  0.7680  0.6067
   63Eth    Hcc 3133   1.441   1.271   9.973  2.1655  0.0875 -3.5660
   63Eth    Hcc 3134   1.368   1.136   9.896 -0.7171 -0.5526  0.7922
   64Eth     Ho 3135   0.887   0.304   2.501 -0.8474 -1.0288  1.0535
   64Eth     Oh 3136   0.799   0.313   2.470 -0.5435 -0.2487  0.3774
   64Eth     Co 3137   0.750   0.403   2.556  0.6160 -0.1151  0.5661
   64Eth    Hco 3138   0.830   0.463   2.600 -0.7457  2.2235 -0.1143
   64Eth    Hco 3139   0.719   0.344   2.642 -0.9914  1.1016  0.8440
   64Eth     Ch 3140   0.644   0.496   2.491  0.8017  0.0924  0.6709
   64Eth    Hcc 3141   0.588   0.550   2.568 -0.8801 -2.9535  1.6660
   64Eth    Hcc 3142   0.580   0.440   2.424  0.4411  0.2472  0.8837
   64Eth    Hcc 3143   0.703   0.560   2.425 -0.7746  1.2368  0.3351
   65Eth     Ho 3144   0.580   2.729   9.778  0.6805  0.1831  2.2120
   65Eth     Oh 3145   0.670   2.751   9.793  0.8099  0.9795  0.3531
   65Eth     Co 3146   0.688   2.833   9.897 -0.5175  0.0011 -0.0533
   65Eth    Hco 3147   0.653   2.780   9.985  0.6141  2.4576  1.9549
   65Eth    Hco 3148   0.619   2.916   9.880 -1.5424 -0.9009 -0.3275
   65Eth     Ch 3149   0.835   2.869   9.912  0.0642 -0.2564  0.0610
   65Eth    Hcc 3150   0.873   2.907   9.817 -1.2628  0.5925 -0.1418
   65Eth    Hcc 3151   0.898   2.780   9.922  1.0433  0.2531 -1.2927
   65Eth    Hcc 3152   0.849   2.950   9.982 -2.2589  1.4468 -1.3596
   66Eth     Ho 3153   0.112   2.741   1.816 -1.6965 -2.0073  1.8278
   66Eth     Oh 3154   0.042   2.799   1.793  0.2181 -0.2212  0.3386
   66Eth     Co 3155   0.101   2.896   1.707 -0.3178  0.6729  0.6533
   66Eth    Hco 3156   0.154   2.845   1.627 -3.5742 -0.6561 -0.7663
   66Eth    Hco 3157   0.169   2.955   1.768  2.0471 -0.5658 -0.7299
   66Eth     Ch 3158  -0.015   2.982   1.646 -0.4534  0.5520  0.3501
   66Eth    Hcc 3159   0.031   3.054   1.578  0.5684 -0.6226 -0.2294
   66Eth    Hcc 3160  -0.068   3.049   1.714  0.2830 -0.7338  2.2286
   66Eth    Hcc 3161  -0.090   2.917   1.602  1.1186 -1.5517  0.6866
   67Eth     Ho 3162   2.418   0.851   8.252 -0.2567  0.5007  0.5329
   67Eth     Oh 3163   2.449   0.925   8.202 -0.0267  0.3549  0.4570
   67Eth     Co 3164   2.395   1.041   8.262  0.7138 -0.2789 -0.5018
   67Eth    Hco 3165   2.432   1.044   8.364  1.0901 -2.3120 -0.5717
   67Eth    Hco 3166   2.287   1.034   8.265  0.3842  2.6808 -2.2597
   67Eth     Ch 3167   2.442   1.160   8.184  0.4100 -0.1308 -0.8277
   67Eth    Hcc 3168   2.546   1.184   8.208  0.3613 -0.9618  0.2402
   67Eth    Hcc 3169   2.384   1.243   8.224  0.6061 -0.8669  1.0148
   67Eth    Hcc 3170   2.427   1.153   8.076 -0.3676  0.4227 -0.7574
   68Eth     Ho 3171   1.284   3.301   5.436  0.2997  0.4842 -0.3302
   68Eth     Oh 3172   1.296   3.354   5.513  0.0354  0.0935 -0.0195
   68Eth     Co 3173   1.215   3.473   5.501 -0.0997  0.0376 -0.0675
   68Eth    Hco 3174   1.227   3.522   5.597  2.0309 -2.9242  1.2345
   68Eth    Hco 3175   1.109   3.451   5.496 -0.3583  0.4475  2.9237
   68Eth     Ch 3176   1.258   3.553   5.373 -0.3049  0.0032  0.7785
   68Eth    Hcc 3177   1.180   3.624   5.346  0.9868  1.6513  1.2842
   68Eth    Hcc 3178   1.271   3.492   5.284 -1.8194  3.4478 -1.9344
   68Eth    Hcc 3179   1.351   3.608   5.388 -0.9932  1.2398  0.6087
   69Eth     Ho 3180   1.789   0.310   7.278 -1.2144 -1.8656 -0.6757
   69Eth     Oh 3181   1.853   0.277   7.218  0.7469  0.0567  0.2776
   69Eth     Co 3182   1.969   0.352   7.241  0.0387 -0.1413  0.2320
   69Eth    Hco 3183   1.953   0.409   7.333  1.0202 -0.5272  0.6540
   69Eth    Hco 3184   1.992   0.422   7.160 -0.5558 -1.4171 -1.0469
   69Eth     Ch 3185   2.092   0.264   7.271  0.2734 -0.9495  0.1545
   69Eth    Hcc 3186   2.056   0.213   7.360 -3.0213  2.1242  0.6879
   69Eth    Hcc 3187   2.185   0.318   7.289 -1.3792  1.5776  1.4749
   69Eth    Hcc 3188   2.111   0.196   7.189  1.2869  1.1097 -1.3607
   70Eth     Ho 3189   0.963   3.309   2.265  0.0706 -1.0931  1.0627
   70Eth     Oh 3190   1.016   3.254   2.209  0.4807  0.4268 -0.0879
   70Eth     Co 3191   1.119   3.331   2.152 -0.6260 -0.0586  0.6876
   70Eth    Hco 3192   1.164   3.381   2.237 -3.2272  0.4163  1.8219
   70Eth    Hco 3193   1.064   3.413   2.106 -2.6575 -0.7494  1.8399
   70Eth     Ch 3194   1.233   3.264   2.081 -0.4416  0.5307  0.3526
   70Eth    Hcc 3195   1.280   3.191   2.148 -2.8154 -1.1146  0.2660
   70Eth    Hcc 3196   1.303   3.344   2.058 -0.1018 -0.1728 -1.0803
   70Eth    Hcc 3197   1.201   3.213   1.990  0.9394 -2.5909  1.5289
   71Eth     Ho 3198   1.015   2.233   1.647  0.3670 -0.4211 -1.5199
   71Eth     Oh 3199   0.955   2.161   1.637 -0.3523 -0.0492 -0.0517
   71Eth     Co 3200   1.023   2.040   1.625 -0.3302 -0.3334  0.0060
   71Eth    Hco 3201   1.112   2.046   1.689 -1.0064 -1.3131  1.0534
   71Eth    Hco 3202   1.055   2.029   1.522 -0.5726  3.0262 -0.4865
   71Eth     Ch 3203   0.928   1.928   1.659 -0.7139 -0.1281 -0.3693
   71Eth    Hcc 3204   0.979   1.832   1.661  2.6330  1.5322 -1.8538
   71Eth    Hcc 3205   0.850   1.919   1.582 -1.3931 -0.8467  0.3976
   71Eth    Hcc 3206   0.874   1.941   1.752 -0.4624 -1.3786 -0.0435
   72Eth     Ho 3207   3.178   2.460   9.496  0.2741  0.2713 -0.3169
   72Eth     Oh 3208   3.224   2.382   9.469 -0.3868 -0.2144 -0.0601
   72Eth     Co 3209   3.334   2.420   9.400  0.3884 -0.2870  0.6030
   72Eth    Hco 3210   3.320   2.523   9.369  3.6781  0.0992  0.2773
   72Eth    Hco 3211   3.337   2.351   9.315 -4.0313  1.1413 -0.8293
   72Eth     Ch 3212   3.453   2.389   9.487  0.1668 -0.0402 -0.1725
   72Eth    Hcc 3213   3.465   2.283   9.509 -1.8895 -0.0414  1.0367
   72Eth    Hcc 3214   3.439   2.421   9.590 -1.8218 -2.0596  0.2052
   72Eth    Hcc 3215   3.544   2.437   9.449  1.3842 -1.9972  0.1695
   73Eth     Ho 3216   2.731   2.331   9.796  0.7751 -1.6101 -0.4150
   73Eth     Oh 3217   2.799   2.394   9.781 -0.4253 -0.1084  0.2913
   73Eth     Co 3218   2.763   2.515   9.850 -0.0015  0.1943 -0.1116
   73Eth    Hco 3219   2.714   2.478   9.940 -2.6922  2.9051 -0.4018
   73Eth    Hco 3220   2.674   2.557   9.804 -0.6689  1.1336  2.0019
   73Eth     Ch 3221   2.888   2.609   9.861 -0.7667 -0.5625 -0.4862
   73Eth    Hcc 3222   2.840   2.699   9.900 -2.8950 -1.3390 -1.2148
   73Eth    Hcc 3223   2.934   2.627   9.764  1.8570 -0.6808  0.7197
   73Eth    Hcc 3224   2.965   2.574   9.929 -0.8278  0.5103  0.1450
   74Eth     Ho 3225   0.121   1.617   5.784  0.3323  2.5609 -0.8505
   74Eth     Oh 3226   0.050   1.595   5.727 -0.1426  0.5723  0.4240
   74Eth     Co 3227   0.026   1.451   5.732 -0.3103 -0.5909 -0.6285
   74Eth    Hco 3228   0.021   1.423   5.837  1.0493  1.6122  0.0518
   74Eth    Hco 3229   0.114   1.399   5.695  0.6236  0.3327  0.2630
   74Eth     Ch 3230  -0.094   1.410   5.648  0.7084 -1.3430  0.3376
   74Eth    Hcc 3231  -0.086   1.446   5.546 -1.1231 -0.9988  0.3102
   74Eth    Hcc 3232  -0.185   1.449   5.694  2.2738  1.7952  0.8720
   74Eth    Hcc 3233  -0.108   1.304   5.627  0.5560 -1.7648  2.3995
   75Eth     Ho 3234   1.121   3.242   1.737  1.5372  1.8710 -1.2195
   75Eth     Oh 3235   1.091   3.204   1.657  0.5611 -0.2870  0.1280
   75Eth     Co 3236   1.203   3.220   1.575 -0.0514 -0.2450 -0.4826
   75Eth    Hco 3237   1.169   3.210   1.472  0.3699 -1.7637 -0.4913
   75Eth    Hco 3238   1.266   3.132   1.590 -1.3376 -1.2043 -0.5985
   75Eth     Ch 3239   1.275   3.348   1.616 -0.8189 -0.2377  0.4254
   75Eth    Hcc 3240   1.210   3.435   1.606 -0.5531 -0.1475 -0.5355
   75Eth    Hcc 3241   1.363   3.365   1.553 -1.6518  0.3243 -0.5891
   75Eth    Hcc 3242   1.310   3.349   1.720 -0.4045 -0.1441  0.2884
   76Eth     Ho 3243   2.018   2.022   9.692 -0.7742 -0.1529 -0.8996
   76Eth     Oh 3244   1.978   2.027   9.777  0.2678  0.3250 -0.4277
   76Eth     Co 3245   2.077   1.959   9.854  0.1265 -0.2908 -0.3698
   76Eth    Hco 3246   2.112   1.871   9.800 -0.5290  0.7699 -2.5798
   76Eth    Hco 3247   2.036   1.936   9.953  1.5390  0.6551  0.4534
   76Eth     Ch 3248   2.212   2.034   9.862 -0.0211  0.0560 -0.1901
   76Eth    Hcc 3249   2.251   2.043   9.761 -0.9397 -1.6044 -0.7166
   76Eth    Hcc 3250   2.286   1.972   9.913  0.5695  1.1447  0.2890
   76Eth    Hcc 3251   2.198   2.122   9.925  0.6649  0.1466 -0.1656
   77Eth     Ho 3252   3.231   0.604   1.802  0.6267  0.8049  0.7231
   77Eth     Oh 3253   3.317   0.587   1.770  0.4535  0.7063  0.3059
   77Eth     Co 3254   3.303   0.582   1.625  0.4192 -0.6662 -0.3392
   77Eth    Hco 3255   3.312   0.684   1.588  0.0903  0.1414  1.7219
   77Eth    Hco 3256   3.204   0.537   1.610  0.5357 -1.0090 -0.0829
   77Eth     Ch 3257   3.405   0.492   1.563  0.2996 -0.4782  0.1568
   77Eth    Hcc 3258   3.503   0.528   1.594  0.0210  0.2860  0.1453
   77Eth    Hcc 3259   3.405   0.498   1.454 -1.2047 -0.2856  0.1651
   77Eth    Hcc 3260   3.395   0.389   1.597 -1.9246 -0.9588 -1.7963
   78Eth     Ho 3261   0.808   2.192   1.732  1.3642  1.3811  0.3368
   78Eth     Oh 3262   0.737   2.212   1.791  0.5722  0.2538 -0.2218
   78Eth     Co 3263   0.614   2.167   1.738 -0.0024 -0.3645 -0.5227
   78Eth    Hco 3264   0.615   2.059   1.724  1.5217 -0.3343 -0.7075
   78Eth    Hco 3265   0.603   2.218   1.642  1.5780 -0.4673 -0.7702
   78Eth     Ch 3266   0.505   2.209   1.848  0.1465  0.1669 -0.3171
   78Eth    Hcc 3267   0.506   2.317   1.865  1.1143  0.3670 -1.5905
   78Eth    Hcc 3268   0.519   2.158   1.943 -1.6810 -1.9329 -1.1293
   78Eth    Hcc 3269   0.408   2.165   1.827  0.4990 -1.1731  0.8219
   79Eth     Ho 3270   1.362   1.497   2.090  0.9816 -1.3419  1.7435
   79Eth     Oh 3271   1.377   1.457   2.006 -0.0320  0.9877  0.4211
   79Eth     Co 3272   1.495   1.512   1.956  0.6529 -0.2402  0.5790
   79Eth    Hco 3273   1.578   1.530   2.024  1.9758  0.1649 -1.1133
   79Eth    Hco 3274   1.468   1.602   1.901 -0.0033 -0.9235 -0.2363
   79Eth     Ch 3275   1.569   1.424   1.859  0.1211 -0.5032 -0.3386
   79Eth    Hcc 3276   1.671   1.458   1.839 -0.3063  0.3244 -1.1476
   79Eth    Hcc 3277   1.502   1.422   1.773 -0.9315  1.4533  0.4096
   79Eth    Hcc 3278   1.562   1.321   1.893 -2.1062  0.5739  2.7315
   80Eth     Ho 3279   2.106   1.883   6.679 -0.2182 -1.3434 -3.1475
   80Eth     Oh 3280   2.108   1.796   6.713 -0.6155  0.0456  0.6078
   80Eth     Co 3281   2.223   1.774   6.799 -0.4599  0.0568 -0.1740
   80Eth    Hco 3282   2.215   1.854   6.873 -0.2682  1.0470 -1.2224
   80Eth    Hco 3283   2.317   1.792   6.748 -0.9387  2.2073 -0.3345
   80Eth     Ch 3284   2.227   1.648   6.886 -0.1904 -0.2882 -0.1679
   80Eth    Hcc 3285   2.144   1.656   6.956 -0.6456  0.9443 -0.8338
   80Eth    Hcc 3286   2.322   1.645   6.939  0.3695  2.0314 -0.9497
   80Eth    Hcc 3287   2.220   1.552   6.836  1.6588 -0.5509  0.0393
   81Eth     Ho 3288   1.544   2.732   9.906  0.9777 -1.0047  0.0479
   81Eth     Oh 3289   1.623   2.780   9.921  0.4454 -0.2256  0.4190
   81Eth     Co 3290   1.706   2.693   9.838  0.5551  0.7779 -0.3813
   81Eth    Hco 3291   1.668   2.692   9.735  0.3380  3.2346 -0.3557
   81Eth    Hco 3292   1.689   2.591   9.871  0.0768  0.3808 -1.8393
   81Eth     Ch 3293   1.851   2.746   9.835  0.5559 -0.1464 -0.1557
   81Eth    Hcc 3294   1.927   2.673   9.807  0.4998 -0.5249  0.6450
   81Eth    Hcc 3295   1.871   2.782   9.936  1.7831 -1.0051 -0.0799
   81Eth    Hcc 3296   1.852   2.834   9.771 -0.6906  1.7239  2.3096
   82Eth     Ho 3297   1.193   1.263   1.707 -1.7385 -0.5147  3.3640
   82Eth     Oh 3298   1.206   1.171   1.697 -0.6414 -0.0353 -0.3224
   82Eth     Co 3299   1.306   1.164   1.598 -0.1998  0.9369 -0.7794
   82Eth    Hco 3300   1.384   1.234   1.628  0.3814  0.1174 -0.3611
   82Eth    Hco 3301   1.264   1.203   1.505 -2.9270 -0.5979 -0.2628
   82Eth     Ch 3302   1.358   1.019   1.577 -0.2903 -0.5713  0.0910
   82Eth    Hcc 3303   1.424   0.993   1.660 -0.1819  1.0922  0.5388
   82Eth    Hcc 3304   1.412   1.033   1.483  1.5502 -1.9234  0.9036
   82Eth    Hcc 3305   1.278   0.947   1.566  0.0939 -1.2920  1.9616
   83Eth     Ho 3306   2.099   1.693   1.862 -0.0396 -0.1934  0.2183
   83Eth     Oh 3307   2.069   1.685   1.773  0.3436  0.3712  0.0357
   83Eth     Co 3308   2.012   1.794   1.724  0.4060  0.1277 -0.5111
   83Eth    Hco 3309   2.080   1.879   1.732  0.2010  0.1707  0.7398
   83Eth    Hco 3310   1.921   1.820   1.778  0.6011 -1.6333  0.7023
   83Eth     Ch 3311   1.960   1.767   1.589  0.3311 -0.5783  0.1148
   83Eth    Hcc 3312   1.933   1.867   1.554  0.5663  0.1002  1.8478
   83Eth    Hcc 3313   1.864   1.715   1.589  0.0923 -0.1440  0.5375
   83Eth    Hcc 3314   2.040   1.734   1.523 -1.9453 -2.1638 -1.9650
   84Eth     Ho 3315   0.404   1.299   9.719 -1.5632  0.2174 -1.1014
   84Eth     Oh 3316   0.351   1.315   9.795 -0.0777  0.4260 -0.0764
   84Eth     Co 3317   0.390   1.434   9.860  0.2522 -0.1188 -0.6937
   84Eth    Hco 3318   0.402   1.521   9.795 -0.0172  1.8193  1.7566
   84Eth    Hco 3319   0.493   1.419   9.893  0.4050  1.2790 -0.5148
   84Eth     Ch 3320   0.284   1.469   9.967  0.3584 -0.1468  0.4076
   84Eth    Hcc 3321   0.245   1.378  10.014  1.0964 -0.2312  0.8750
   84Eth    Hcc 3322   0.203   1.520   9.915  0.9164 -0.6834 -0.9910
   84Eth    Hcc 3323   0.337   1.530  10.041 -0.1883 -2.0692  2.4468
   85Eth     Ho 3324   2.614   2.712   5.658 -0.3699  0.5201 -0.3729
   85Eth     Oh 3325   2.551   2.696   5.590  0.0888  0.0674 -0.6964
   85Eth     Co 3326   2.547   2.560   5.560  0.3055  0.0711  0.2812
   85Eth    Hco 3327   2.522   2.512   5.655  2.6780 -1.3375  0.2430
   85Eth    Hco 3328   2.643   2.514   5.535  0.5242 -0.2547  1.6721
   85Eth     Ch 3329   2.438   2.533   5.452 -0.2786  0.1958 -0.2052
   85Eth    Hcc 3330   2.478   2.589   5.368  1.3805  1.2739  1.2567
   85Eth    Hcc 3331   2.334   2.551   5.476 -0.0850  0.6306  0.3070
   85Eth    Hcc 3332   2.449   2.431   5.414 -1.4934  0.1412 -0.4131
   86Eth     Ho 3333   2.951   2.161   9.751  1.4106  1.9292 -1.9400
   86Eth     Oh 3334   3.030   2.147   9.801 -0.0633  0.8533  0.1469
   86Eth     Co 3335   3.096   2.272   9.797 -0.1476 -0.0220  0.3505
   86Eth    Hco 3336   3.049   2.347   9.861  0.1163 -0.4952  1.0964
   86Eth    Hco 3337   3.092   2.297   9.691  0.1520  0.0685  0.3594
   86Eth     Ch 3338   3.247   2.244   9.846  0.7410  0.3986  0.6414
   86Eth    Hcc 3339   3.302   2.158   9.809  1.9162  2.0291 -1.4938
   86Eth    Hcc 3340   3.242   2.231   9.954 -1.6842 -0.8007  0.4304
   86Eth    Hcc 3341   3.304   2.334   9.827 -0.8103  1.1292 -0.7159
   87Eth     Ho 3342   1.502   0.272   7.237 -0.3845  0.9216 -0.4679
   87Eth     Oh 3343   1.464   0.230   7.162  0.1484 -0.3770 -0.0311
   87Eth     Co 3344   1.572   0.219   7.078 -0.6388 -1.0573  0.3746
   87Eth    Hco 3345   1.651   0.166   7.131  1.8155  1.5462 -0.5363
   87Eth    Hco 3346   1.603   0.320   7.051  0.4041 -0.8233  2.3306
   87Eth     Ch 3347   1.541   0.136   6.948 -0.8531 -1.0548  0.7791
   87Eth    Hcc 3348   1.628   0.132   6.882  0.7223  0.7656  2.6706
   87Eth    Hcc 3349   1.461   0.190   6.898 -0.0485 -0.9430 -0.4005
   87Eth    Hcc 3350   1.497   0.037   6.965  2.5791 -2.7844  0.0674
   88Eth     Ho 3351   2.525   2.276   7.755 -0.6865 -1.8485  1.9572
   88Eth     Oh 3352   2.575   2.219   7.700 -0.2866 -0.2565  0.6266
   88Eth     Co 3353   2.482   2.150   7.619 -0.1422 -0.0330 -0.1686
   88Eth    Hco 3354   2.429   2.215   7.550 -1.5111 -1.3673 -0.4210
   88Eth    Hco 3355   2.405   2.105   7.682  1.5696 -3.1807 -0.1931
   88Eth     Ch 3356   2.561   2.028   7.563  0.3007 -0.2385 -0.7551
   88Eth    Hcc 3357   2.616   2.059   7.474 -0.7245 -1.1600 -1.7377
   88Eth    Hcc 3358   2.494   1.945   7.539 -1.8157  1.5288 -1.1448
   88Eth    Hcc 3359   2.640   2.004   7.634 -0.5560 -0.7776  0.0209
   89Eth     Ho 3360   0.330   2.350   3.224  1.9945 -1.7812 -2.0233
   89Eth     Oh 3361   0.287   2.270   3.248 -0.3064 -0.0133  0.0159
   89Eth     Co 3362   0.165   2.256   3.171  0.2460 -0.0940 -0.7663
   89Eth    Hco 3363   0.134   2.152   3.171  0.8818 -0.2847 -0.1798
   89Eth    Hco 3364   0.177   2.283   3.066  0.0256 -0.4502 -0.8845
   89Eth     Ch 3365   0.049   2.342   3.229 -0.6605  0.2063 -0.3622
   89Eth    Hcc 3366  -0.050   2.307   3.201 -0.3415 -0.6466 -0.4366
   89Eth    Hcc 3367   0.080   2.447   3.222 -0.9279  0.3874  1.0693
   89Eth    Hcc 3368   0.057   2.331   3.337 -2.5708  2.3831  0.0394
   90Eth     Ho 3369   2.126   1.588   7.805  2.3951  0.6825  0.0728
   90Eth     Oh 3370   2.164   1.502   7.807  0.4538 -0.2020  0.1401
   90Eth     Co 3371   2.308   1.511   7.836 -0.1436 -0.6579  0.1559
   90Eth    Hco 3372   2.344   1.603   7.881 -2.4239 -0.9076  2.6057
   90Eth    Hco 3373   2.371   1.497   7.748 -0.4405 -2.9509  0.2924
   90Eth     Ch 3374   2.347   1.404   7.930 -0.1952 -0.6703  0.3189
   90Eth    Hcc 3375   2.292   1.419   8.023  0.2502  0.5842  0.3937
   90Eth    Hcc 3376   2.455   1.406   7.946 -0.1186  1.3846 -0.3528
   90Eth    Hcc 3377   2.320   1.306   7.890  1.8007 -1.0082 -0.2685
   91Eth     Ho 3378   2.204   1.829   3.126 -1.6467 -0.1510 -0.8821
   91Eth     Oh 3379   2.233   1.879   3.053  0.6794  0.1661  0.2296
   91Eth     Co 3380   2.360   1.923   3.081  0.3501 -0.9763  0.0920
   91Eth    Hco 3381   2.417   1.832   3.097  0.2926 -0.7739  1.5310
   91Eth    Hco 3382   2.355   1.981   3.174 -1.3426  1.1417 -1.2532
   91Eth     Ch 3383   2.422   1.991   2.963  0.2373 -0.3940  0.6025
   91Eth    Hcc 3384   2.371   2.085   2.942 -0.3037 -0.1944  2.7823
   91Eth    Hcc 3385   2.412   1.916   2.884 -1.9149 -1.1932  1.6090
   91Eth    Hcc 3386   2.529   2.004   2.978  0.2710 -1.0245  0.9215
   92Eth     Ho 3387   3.259   1.224   7.775 -0.9556 -1.2368  0.3901
   92Eth     Oh 3388   3.196   1.205   7.708 -0.6862  0.3718 -0.3448
   92Eth     Co 3389   3.064   1.179   7.766 -0.5524 -0.2588 -0.3433
   92Eth    Hco 3390   3.040   1.259   7.835  1.1177  1.4974 -1.7324
   92Eth    Hco 3391   3.065   1.090   7.829 -0.6690 -0.1521 -0.1893
   92Eth     Ch 3392   2.976   1.162   7.647  0.5077  0.7213  1.2106
   92Eth    Hcc 3393   3.001   1.069   7.596 -0.0799 -0.8359  3.7087
   92Eth    Hcc 3394   2.983   1.243   7.574  1.3755 -0.6806 -0.2822
   92Eth    Hcc 3395   2.871   1.159   7.677  0.1308  0.8236 -0.0245
   93Eth     Ho 3396   0.587   3.148   4.329 -1.3420  0.3251 -0.8838
   93Eth     Oh 3397   0.547   3.077   4.375 -0.0666 -0.0783 -0.3900
   93Eth     Co 3398   0.453   3.132   4.459 -0.1123 -0.1542 -0.2607
   93Eth    Hco 3399   0.394   3.203   4.401  0.1236 -0.0738 -0.4010
   93Eth    Hco 3400   0.513   3.187   4.532  0.5851 -1.0896 -0.1203
   93Eth     Ch 3401   0.365   3.030   4.521  0.4902 -0.0065  0.2772
   93Eth    Hcc 3402   0.288   3.077   4.582  0.5470 -1.7725  1.7907
   93Eth    Hcc 3403   0.428   2.969   4.587 -0.4366 -0.0987  1.0877
   93Eth    Hcc 3404   0.309   2.958   4.460  0.1878 -0.1466  0.7125
   94Eth     Ho 3405   2.479   2.966   9.655  1.6139 -0.7659  1.5736
   94Eth     Oh 3406   2.406   2.950   9.712  0.0874  0.4304 -0.0039
   94Eth     Co 3407   2.429   2.847   9.804 -0.0914 -0.6481 -0.3783
   94Eth    Hco 3408   2.485   2.891   9.887 -0.0066 -3.8011  1.2943
   94Eth    Hco 3409   2.473   2.760   9.757  0.8681 -0.6945  0.5843
   94Eth     Ch 3410   2.291   2.812   9.867 -0.0289 -0.2662  0.4360
   94Eth    Hcc 3411   2.236   2.904   9.886 -0.5125 -0.5407  0.3646
   94Eth    Hcc 3412   2.302   2.753   9.958  1.1303  0.7962  0.9935
   94Eth    Hcc 3413   2.230   2.754   9.798  0.6157 -1.9638  1.2817
   95Eth     Ho 3414   2.080   1.109   9.854 -0.7090  1.0890 -1.2357
   95Eth     Oh 3415   2.126   1.176   9.902 -0.7013 -0.0096  0.2916
   95Eth     Co 3416   2.240   1.215   9.832 -0.7644  0.0509  0.5649
   95Eth    Hco 3417   2.207   1.262   9.739  0.0008  0.3165  0.4197
   95Eth    Hco 3418   2.298   1.127   9.804 -0.1409  0.9198 -0.9752
   95Eth     Ch 3419   2.320   1.313   9.922 -0.2846  0.6038  0.0872
   95Eth    Hcc 3420   2.245   1.368   9.978  0.9189  0.0483  2.2889
   95Eth    Hcc 3421   2.381   1.386   9.868 -0.8915  1.2849  0.3195
   95Eth    Hcc 3422   2.384   1.259   9.992 -1.3483  0.6986  1.1332
   96Eth     Ho 3423   2.622   2.457   7.213  1.2846 -0.5492  1.1641
   96Eth     Oh 3424   2.673   2.534   7.198 -0.1617  0.1905 -0.2045
   96Eth     Co 3425   2.676   2.603   7.327 -0.1357  0.1924 -0.5797
   96Eth    Hco 3426   2.593   2.582   7.395 -0.4233 -2.5568 -1.6967
   96Eth    Hco 3427   2.668   2.711   7.315 -0.3886 -0.0644 -2.9683
   96Eth     Ch 3428   2.795   2.562   7.413 -0.3840 -0.3248  0.0697
   96Eth    Hcc 3429   2.889   2.572   7.359 -0.4943  2.3966  0.2949
   96Eth    Hcc 3430   2.790   2.458   7.445 -1.2789 -0.7898 -1.5092
   96Eth    Hcc 3431   2.805   2.611   7.510  0.0549 -0.2378 -0.0147
   97Eth     Ho 3432   1.190   1.669   2.123 -1.8425 -0.6031  1.3052
   97Eth     Oh 3433   1.240   1.621   2.186 -0.6386 -0.4414  0.4905
   97Eth     Co 3434   1.152   1.561   2.273 -0.3785  0.1906 -0.3171
   97Eth    Hco 3435   1.108   1.481   2.214  2.9320 -1.0536 -1.2001
   97Eth    Hco 3436   1.069   1.627   2.298 -1.2776 -1.3796  0.8812
   97Eth     Ch 3437   1.228   1.505   2.397 -0.5577  0.1018 -0.5542
   97Eth    Hcc 3438   1.329   1.470   2.373  1.2778  3.8199  1.3971
   97Eth    Hcc 3439   1.170   1.428   2.448 -2.2481  1.7020 -0.0180
   97Eth    Hcc 3440   1.239   1.587   2.467 -1.0884  0.2654 -0.6611
   98Eth     Ho 3441   2.162   2.999   1.724 -0.3434 -0.7584 -0.9618
   98Eth     Oh 3442   2.134   3.046   1.647 -0.2614  0.2825 -0.3583
   98Eth     Co 3443   2.015   3.114   1.690 -0.5815 -0.1156  0.0863
   98Eth    Hco 3444   2.052   3.200   1.746  0.9458  0.8199 -2.3128
   98Eth    Hco 3445   1.946   3.060   1.755 -0.3753 -0.5744 -0.0710
   98Eth     Ch 3446   1.944   3.156   1.567  0.3143  0.0638  0.5263
   98Eth    Hcc 3447   1.849   3.203   1.593  0.5174 -0.0706  1.5561
   98Eth    Hcc 3448   1.922   3.063   1.514  1.2073 -0.2696  0.7402
   98Eth    Hcc 3449   1.993   3.229   1.504  1.1923 -0.9160  0.0630
   99Eth     Ho 3450   0.358   2.654   9.750  0.1669  0.1391 -0.0223
   99Eth     Oh 3451   0.295   2.694   9.807  0.1660 -0.5339  0.4534
   99Eth     Co 3452   0.171   2.638   9.793  0.4462  0.2118 -0.7171
   99Eth    Hco 3453   0.176   2.532   9.767 -0.6025  0.8149 -3.5738
   99Eth    Hco 3454   0.122   2.675   9.702 -2.5259  0.0671  0.7623
   99Eth     Ch 3455   0.080   2.651   9.920 -0.2364  0.7251  0.7645
   99Eth    Hcc 3456  -0.022   2.617   9.902  0.0698  0.9672 -1.5338
   99Eth    Hcc 3457   0.066   2.757   9.944 -0.0947  0.7208  0.8700
   99Eth    Hcc 3458   0.131   2.607  10.006 -1.9805  0.8227  1.8924
  100Eth     Ho 3459   3.300   1.261   9.659  0.7626  0.3038  0.5396
  100Eth     Oh 3460   3.260   1.316   9.724 -0.1897  0.3858 -0.1023
  100Eth     Co 3461   3.343   1.386   9.813 -0.9381 -0.5293 -0.1059
  100Eth    Hco 3462   3.392   1.470   9.763  1.0305 -1.4219  0.2679
  100Eth    Hco 3463   3.429   1.325   9.843  0.6903  1.8244  0.1773
  100Eth     Ch 3464   3.270   1.444   9.936 -0.2182  0.6315  0.5260
  100Eth    Hcc 3465   3.345   1.494   9.997 -1.7844  0.7645  2.3740
  100Eth    Hcc 3466   3.233   1.364  10.000 -1.2275  0.3259 -0.4300
  100Eth    Hcc 3467   3.178   1.501   9.928 -0.9486 -0.8209 -2.3753
  101Eth     Ho 3468   3.329   1.888   9.767 -0.2129 -0.0647  0.7603
  101Eth     Oh 3469   3.418   1.861   9.752 -0.2011  0.1989  0.3177
  101Eth     Co 3470   3.485   1.861   9.873 -0.1964 -0.6612 -0.5010
  101Eth    Hco 3471   3.438   1.802   9.952  1.9142 -1.1227  0.4593
  101Eth    Hco 3472   3.478   1.966   9.902  0.8966 -0.6985 -0.0749
  101Eth     Ch 3473   3.634   1.817   9.841  0.6356  0.5965  0.2454
  101Eth    Hcc 3474   3.679   1.864   9.753  1.7818  1.1019  1.0848
  101Eth    Hcc 3475   3.628   1.711   9.817  2.2142  0.7733 -1.0644
  101Eth    Hcc 3476   3.687   1.841   9.933  0.4499  2.2741 -0.0569
  102Eth     Ho 3477   2.269   0.587   6.982 -1.0404  0.2332 -2.0641
  102Eth     Oh 3478   2.238   0.674   7.004 -0.5583 -0.0027 -0.3714
  102Eth     Co 3479   2.266   0.690   7.137  0.4532  0.2521  0.4740
  102Eth    Hco 3480   2.374   0.679   7.148  0.3305 -0.1145  1.3699
  102Eth    Hco 3481   2.221   0.611   7.197 -0.9765  0.6290 -0.1021
  102Eth     Ch 3482   2.204   0.816   7.191  0.6869 -0.1318  0.2395
  102Eth    Hcc 3483   2.100   0.790   7.213  0.3912  1.4098  0.7207
  102Eth    Hcc 3484   2.212   0.898   7.121  1.0894  0.7569  1.3140
  102Eth    Hcc 3485   2.254   0.842   7.284  0.4846  2.1075 -0.2641
  103Eth     Ho 3486   0.594   3.349   1.634 -0.4298  0.2437  0.5693
  103Eth     Oh 3487   0.511   3.310   1.612 -0.1356  0.0841 -0.2952
  103Eth     Co 3488   0.535   3.172   1.583  0.3726  0.7448 -0.3765
  103Eth    Hco 3489   0.602   3.117   1.649  1.0924  4.7137  2.3276
  103Eth    Hco 3490   0.550   3.155   1.476  0.4484 -1.3213 -0.0548
  103Eth     Ch 3491   0.394   3.126   1.601 -0.1322  0.7587 -0.1286
  103Eth    Hcc 3492   0.404   3.018   1.585  1.6753  1.2212 -2.3488
  103Eth    Hcc 3493   0.341   3.175   1.520 -3.1310 -0.1147  1.2391
  103Eth    Hcc 3494   0.369   3.160   1.701 -2.0936 -3.2285  0.8366
  104Eth     Ho 3495   1.418   0.416   9.768  1.9781 -1.7698 -0.5180
  104Eth     Oh 3496   1.348   0.374   9.815  0.3245  0.4969 -0.8456
  104Eth     Co 3497   1.389   0.245   9.854  0.2769  0.0917  0.1325
  104Eth    Hco 3498   1.465   0.248   9.932  0.9029 -0.2785 -0.4641
  104Eth    Hco 3499   1.434   0.183   9.777 -1.7518 -0.5525 -0.5829
  104Eth     Ch 3500   1.272   0.164   9.916  0.0275 -0.0587  0.0610
  104Eth    Hcc 3501   1.245   0.194  10.017  0.2079 -1.9251  0.6977
  104Eth    Hcc 3502   1.306   0.061   9.927  1.2296 -0.2142 -3.9746
  104Eth    Hcc 3503   1.178   0.168   9.861 -1.3405  1.2604  2.4597
  105Eth     Ho 3504   3.252   2.462   1.745 -0.7814 -1.4669 -0.1220
  105Eth     Oh 3505   3.168   2.503   1.758 -0.0211  0.2081 -0.4297
  105Eth     Co 3506   3.138   2.580   1.643 -0.0490  0.7553 -1.3046
  105Eth    Hco 3507   3.087   2.513   1.574  0.3569 -0.4662 -0.4238
  105Eth    Hco 3508   3.232   2.608   1.597  0.7427 -0.2389 -0.3263
  105Eth     Ch 3509   3.043   2.696   1.677 -1.0759 -0.1592 -0.1822
  105Eth    Hcc 3510   3.021   2.749   1.585 -0.4185  2.0371  0.9128
  105Eth    Hcc 3511   3.090   2.771   1.740 -0.1421 -1.8193  1.1568
  105Eth    Hcc 3512   2.952   2.653   1.721 -2.3713 -0.7289 -3.3102
  106Eth     Ho 3513   0.017   0.974   2.968  1.2845  0.9567  0.1588
  106Eth     Oh 3514   0.006   0.979   2.874  0.1973  0.3710  0.2462
  106Eth     Co 3515  -0.096   1.077   2.848  0.1281  0.1169 -0.0134
  106Eth    Hco 3516  -0.063   1.171   2.892  3.7925 -1.4331  0.7026
  106Eth    Hco 3517  -0.193   1.043   2.884  0.4644 -0.9961 -0.1372
  106Eth     Ch 3518  -0.109   1.086   2.701 -0.2165 -0.6271 -0.7568
  106Eth    Hcc 3519  -0.021   1.135   2.660  0.6401  0.0543  1.7831
  106Eth    Hcc 3520  -0.188   1.159   2.683 -0.4037 -0.9688 -1.3212
  106Eth    Hcc 3521  -0.142   0.999   2.646  0.9571 -1.9968  0.6500
  107Eth     Ho 3522   2.115   2.748   1.804 -0.9437 -2.3619  0.6893
  107Eth     Oh 3523   2.032   2.783   1.775  0.4069  0.4902  0.0839
  107Eth     Co 3524   1.971   2.679   1.703  0.3952 -0.1065 -0.1312
  107Eth    Hco 3525   1.945   2.599   1.772  1.2850 -0.6447 -0.4190
  107Eth    Hco 3526   2.053   2.649   1.638  0.1230  1.5451 -1.2863
  107Eth     Ch 3527   1.840   2.735   1.648 -0.3763 -0.6301  0.3238
  107Eth    Hcc 3528   1.790   2.683   1.566 -0.1229 -1.3860  0.6471
  107Eth    Hcc 3529   1.874   2.829   1.605 -0.3161 -1.1017 -0.6939
  107Eth    Hcc 3530   1.768   2.757   1.726  1.5240  1.1823  1.6241
  108Eth     Ho 3531   1.591   2.965   9.826 -0.9012 -0.3973  0.7915
  108Eth     Oh 3532   1.574   3.049   9.788 -0.4035 -0.3745  0.6218
  108Eth     Co 3533   1.502   3.122   9.882 -0.3825 -0.5076 -0.7794
  108Eth    Hco 3534   1.563   3.123   9.972 -1.8508  0.3108  0.2217
  108Eth    Hco 3535   1.406   3.071   9.889 -0.6885 -0.2870 -2.8963
  108Eth     Ch 3536   1.481   3.262   9.818 -0.1818  1.1740 -0.2836
  108Eth    Hcc 3537   1.573   3.306   9.779  0.8714  0.1682  1.0248
  108Eth    Hcc 3538   1.440   3.328   9.895  1.1630  0.7008  0.8564
  108Eth    Hcc 3539   1.407   3.252   9.738 -0.7608  1.1504  0.2462
  109Eth     Ho 3540   0.682   3.270   8.823 -1.4038 -1.3601 -0.3183
  109Eth     Oh 3541   0.687   3.223   8.904  0.5125 -0.7388 -0.0663
  109Eth     Co 3542   0.705   3.088   8.868 -0.5070 -0.3059  0.1576
  109Eth    Hco 3543   0.788   3.094   8.797 -0.9001  2.2938 -0.1080
  109Eth    Hco 3544   0.621   3.047   8.812 -1.2470  0.1480  0.9411
  109Eth     Ch 3545   0.743   2.995   8.983 -0.4360  0.7357  0.4858
  109Eth    Hcc 3546   0.661   2.987   9.054  0.1179  2.5214  1.3443
  109Eth    Hcc 3547   0.829   3.032   9.039 -0.0902  0.2220  0.3026
  109Eth    Hcc 3548   0.775   2.894   8.957 -2.1584  0.0858  0.8878
  110Eth     Ho 3549   2.730   0.654   9.840 -1.7546 -0.7867 -1.3819
  110Eth     Oh 3550   2.692   0.739   9.830  0.2157  0.3360  0.1128
  110Eth     Co 3551   2.776   0.816   9.913 -0.1785 -0.1765  0.4732
  110Eth    Hco 3552   2.880   0.783   9.912 -0.5509 -1.3640 -0.9648
  110Eth    Hco 3553   2.739   0.800  10.014  0.3107  0.9172  0.8346
  110Eth     Ch 3554   2.758   0.969   9.881 -0.3721 -0.0640  0.9384
  110Eth    Hcc 3555   2.834   1.018   9.943 -0.6762 -0.5238  1.6809
  110Eth    Hcc 3556   2.664   1.017   9.911  0.6666  0.8464  2.8505
  110Eth    Hcc 3557   2.774   1.001   9.778  1.4401 -0.3434  1.1204
  111Eth     Ho 3558   2.422   2.918   6.260 -1.5030  1.3304 -2.7799
  111Eth     Oh 3559   2.347   2.896   6.312  0.2637  0.1134 -0.6130
  111Eth     Co 3560   2.277   3.015   6.318 -0.2156 -0.2740  0.5556
  111Eth    Hco 3561   2.331   3.088   6.257 -1.5741  1.3023  1.1946
  111Eth    Hco 3562   2.272   3.040   6.424  1.8004 -3.1257  1.4004
  111Eth     Ch 3563   2.143   2.997   6.264  0.5872 -0.1061  0.5889
  111Eth    Hcc 3564   2.089   2.915   6.313 -1.1343 -0.2779 -1.5319
  111Eth    Hcc 3565   2.139   2.977   6.157 -1.8804  0.6871  0.4888
  111Eth    Hcc 3566   2.075   3.081   6.280 -1.9798 -1.2171 -3.6456
  112Eth     Ho 3567   0.388   1.169   2.271  0.1110 -1.0560  0.9795
  112Eth     Oh 3568   0.401   1.123   2.190 -0.2492  0.2620  0.1660
  112Eth     Co 3569   0.311   1.017   2.203 -0.1931 -0.1446  0.0279
  112Eth    Hco 3570   0.297   0.987   2.307  2.4459 -1.1438  0.1363
  112Eth    Hco 3571   0.351   0.929   2.152  1.2469 -0.5503  1.8116
  112Eth     Ch 3572   0.175   1.068   2.139 -0.4575  0.2380 -0.2346
  112Eth    Hcc 3573   0.101   0.993   2.167 -0.0269  0.8756  2.7427
  112Eth    Hcc 3574   0.177   1.064   2.030  1.5313 -0.7089 -0.1958
  112Eth    Hcc 3575   0.129   1.164   2.159 -0.1241  1.0155 -2.9155
  113Eth     Ho 3576   0.781   2.937   1.737 -1.0562  0.5564  2.3293
  113Eth     Oh 3577   0.703   2.889   1.715 -0.4393  0.3370  0.5336
  113Eth     Co 3578   0.730   2.760   1.662  0.2791 -0.3543 -0.8151
  113Eth    Hco 3579   0.770   2.699   1.743 -2.3450 -1.6460 -0.4306
  113Eth    Hco 3580   0.810   2.763   1.588  0.9438 -0.4211 -0.0920
  113Eth     Ch 3581   0.604   2.685   1.621  0.4137  0.2531 -0.2999
  113Eth    Hcc 3582   0.537   2.657   1.702 -0.8610  2.4339 -0.5650
  113Eth    Hcc 3583   0.634   2.590   1.576  0.3119 -0.4800  1.1585
  113Eth    Hcc 3584   0.554   2.751   1.550  2.6479  0.4322 -1.7638
  114Eth     Ho 3585   0.395   2.086   7.829  1.2269  0.9958 -1.6672
  114Eth     Oh 3586   0.449   2.011   7.812  0.2515  0.0245 -0.5511
  114Eth     Co 3587   0.381   1.946   7.705 -0.4063  0.4026  0.6029
  114Eth    Hco 3588   0.364   2.016   7.623 -0.0773 -1.2076 -0.8937
  114Eth    Hco 3589   0.285   1.923   7.752 -0.2846 -2.0152 -0.2426
  114Eth     Ch 3590   0.448   1.816   7.659 -0.5804  0.6177 -0.0509
  114Eth    Hcc 3591   0.443   1.731   7.728  1.2196  0.3837 -0.1854
  114Eth    Hcc 3592   0.551   1.839   7.634  1.0174 -2.8139  2.8876
  114Eth    Hcc 3593   0.391   1.780   7.573  0.9839 -1.1096 -0.3959
  115Eth     Ho 3594   1.068   0.793   9.587 -0.3169 -0.5709 -1.6255
  115Eth     Oh 3595   1.002   0.757   9.642  0.8391 -0.1740  0.0494
  115Eth     Co 3596   1.012   0.824   9.770 -0.1514 -0.0455  0.4451
  115Eth    Hco 3597   0.979   0.927   9.755  0.3405 -0.0307 -0.5811
  115Eth    Hco 3598   1.115   0.821   9.806 -0.7385  1.7124  2.3810
  115Eth     Ch 3599   0.920   0.769   9.883  1.1222  0.4026  0.3279
  115Eth    Hcc 3600   0.815   0.765   9.852  1.7800 -2.7574 -1.8098
  115Eth    Hcc 3601   0.940   0.830   9.970  0.5839 -0.4484  1.0641
  115Eth    Hcc 3602   0.953   0.666   9.900  0.7643  0.1262 -0.6038
  116Eth     Ho 3603   1.019   3.035   4.365 -0.0910  1.9095  0.8728
  116Eth     Oh 3604   1.025   3.056   4.273 -0.1000 -0.0879  0.3981
  116Eth     Co 3605   0.941   3.165   4.247 -0.4183  0.3491 -0.4829
  116Eth    Hco 3606   0.980   3.245   4.310  0.6798 -1.3850  1.0529
  116Eth    Hco 3607   0.841   3.139   4.282 -1.1715 -0.0265 -2.8225
  116Eth     Ch 3608   0.940   3.213   4.106 -0.0628 -0.5813  1.3637
  116Eth    Hcc 3609   0.904   3.316   4.105  1.5455  0.0257 -2.5160
  116Eth    Hcc 3610   0.866   3.172   4.038  0.1602  2.9600 -1.0926
  116Eth    Hcc 3611   1.030   3.206   4.044 -0.9468 -0.6283  0.0702
  117Eth     Ho 3612   2.834   3.287  10.002  0.0763  0.2897  0.7536
  117Eth     Oh 3613   2.873   3.207   9.972  0.4069  0.3452  1.0257
  117Eth     Co 3614   2.792   3.100  10.026  0.4867  0.0064 -0.6200
  117Eth    Hco 3615   2.689   3.124  10.000  0.0357 -0.1293  0.9437
  117Eth    Hco 3616   2.803   3.087  10.134 -0.2283  1.6858 -0.3400
  117Eth     Ch 3617   2.830   2.958   9.966  0.7042  0.1870  0.1624
  117Eth    Hcc 3618   2.814   2.952   9.858 -1.5804  0.1437  0.4830
  117Eth    Hcc 3619   2.757   2.889  10.008 -0.3318  1.1579 -0.0036
  117Eth    Hcc 3620   2.934   2.934   9.987  0.6282  0.2810  0.6332
  118Eth     Ho 3621   2.453   1.015   1.554  0.2997 -1.6313  1.5281
  118Eth     Oh 3622   2.370   1.008   1.598 -0.7439  0.1024 -0.0967
  118Eth     Co 3623   2.397   0.906   1.698  0.1472 -0.6120 -0.0082
  118Eth    Hco 3624   2.489   0.927   1.752  0.3471  1.3143 -1.0578
  118Eth    Hco 3625   2.401   0.811   1.645  0.8685 -0.2608 -0.5834
  118Eth     Ch 3626   2.290   0.915   1.801 -0.0539 -0.7760 -0.1704
  118Eth    Hcc 3627   2.321   0.860   1.890 -0.9843  0.2654  0.8223
  118Eth    Hcc 3628   2.200   0.877   1.754 -0.0084 -0.8286 -0.2132
  118Eth    Hcc 3629   2.275   1.020   1.827  0.8273 -0.7401  0.2281
  119Eth     Ho 3630   2.433   1.029   2.972 -0.9256 -2.8596  1.5003
  119Eth     Oh 3631   2.419   1.076   3.052 -0.5934  0.2763 -0.2118
  119Eth     Co 3632   2.287   1.133   3.034 -0.2577  0.5915  0.1381
  119Eth    Hco 3633   2.294   1.219   2.967  1.4043 -0.3947 -0.9708
  119Eth    Hco 3634   2.248   1.183   3.123 -1.9164 -0.7002  0.1702
  119Eth     Ch 3635   2.195   1.022   2.971  0.5907 -0.1340  0.1600
  119Eth    Hcc 3636   2.180   0.931   3.030  0.1991  0.5543  1.1363
  119Eth    Hcc 3637   2.231   0.989   2.874 -0.4881 -1.0611  0.0576
  119Eth    Hcc 3638   2.101   1.075   2.955 -1.4444 -2.0438  4.6845
  120Eth     Ho 3639   0.102   2.723   8.706 -0.2286 -0.5606 -3.1651
  120Eth     Oh 3640   0.013   2.696   8.719  0.1431 -0.2999  0.3632
  120Eth     Co 3641  -0.019   2.622   8.602 -0.1924  0.0580  0.0445
  120Eth    Hco 3642   0.039   2.670   8.523  1.8461 -1.1186  0.7835
  120Eth    Hco 3643  -0.125   2.624   8.578 -0.4525 -1.5509  0.9267
  120Eth     Ch 3644   0.021   2.480   8.610 -0.1233  0.2465 -0.4918
  120Eth    Hcc 3645   0.117   2.471   8.662 -0.8204 -2.7976  0.4192
  120Eth    Hcc 3646   0.017   2.427   8.515  0.8454  0.8247 -0.8580
  120Eth    Hcc 3647  -0.039   2.430   8.687  0.1102  0.9225  0.1370
  121Eth     Ho 3648   1.338   2.850   1.747  1.0193 -1.6155 -1.1618
  121Eth     Oh 3649   1.399   2.919   1.727 -0.6822  0.0923 -0.5932
  121Eth     Co 3650   1.464   2.877   1.616  0.4291  0.3937  0.1288
  121Eth    Hco 3651   1.387   2.882   1.540  1.4463  2.2791 -0.8283
  121Eth    Hco 3652   1.516   2.783   1.633  2.5100  1.2511 -1.3176
  121Eth     Ch 3653   1.575   2.980   1.600 -0.0264  0.1057  0.0155
  121Eth    Hcc 3654   1.539   3.070   1.550  1.3916  0.5193 -0.3002
  121Eth    Hcc 3655   1.660   2.930   1.554 -0.4808  0.5413 -1.3159
  121Eth    Hcc 3656   1.615   3.026   1.690 -0.2180 -1.6129  1.0003
  122Eth     Ho 3657   2.799   1.128   1.608  1.4980 -1.3652 -1.5782
  122Eth     Oh 3658   2.752   1.056   1.645  0.5753  0.0556  0.0785
  122Eth     Co 3659   2.838   1.007   1.745 -0.8952 -0.0673 -0.3405
  122Eth    Hco 3660   2.873   1.094   1.802 -0.5159 -0.6087  0.2561
  122Eth    Hco 3661   2.924   0.968   1.691 -1.6155 -1.5048 -0.4757
  122Eth     Ch 3662   2.768   0.897   1.827 -0.2638  0.1574 -0.4183
  122Eth    Hcc 3663   2.723   0.816   1.769  1.1831 -1.9880  1.3559
  122Eth    Hcc 3664   2.695   0.931   1.900 -0.5752 -0.5639 -0.3901
  122Eth    Hcc 3665   2.846   0.849   1.887 -0.1389  1.1813  0.2658
  123Eth     Ho 3666   1.693   0.139   1.652 -0.1463 -0.1624 -3.3299
  123Eth     Oh 3667   1.783   0.158   1.668 -0.6592 -0.0491 -0.2257
  123Eth     Co 3668   1.860   0.040   1.651  0.2289  0.5236  0.1095
  123Eth    Hco 3669   1.846   0.008   1.548  0.4856  2.1126 -0.4305
  123Eth    Hco 3670   1.823  -0.037   1.718 -0.4539  0.9816  0.2634
  123Eth     Ch 3671   2.012   0.072   1.671 -0.3177  0.0332 -0.5323
  123Eth    Hcc 3672   2.067  -0.023   1.672 -0.1984  0.0958 -1.0078
  123Eth    Hcc 3673   2.025   0.113   1.771 -2.3284 -0.4084 -0.0780
  123Eth    Hcc 3674   2.057   0.131   1.591 -0.2148 -0.6280 -0.9669
  124Eth     Ho 3675   2.497   1.864   9.843 -1.8086  3.7548  0.4422
  124Eth     Oh 3676   2.561   1.882   9.909 -0.4131 -0.1607  0.2725
  124Eth     Co 3677   2.695   1.848   9.858 -0.4127  0.0517  0.0600
  124Eth    Hco 3678   2.700   1.888   9.757 -2.4482  2.2263  0.7559
  124Eth    Hco 3679   2.724   1.744   9.855 -0.5183  0.0369 -0.4227
  124Eth     Ch 3680   2.792   1.933   9.933 -0.2772  0.7889  0.6956
  124Eth    Hcc 3681   2.789   2.042   9.922 -1.1249  0.7236  0.2432
  124Eth    Hcc 3682   2.889   1.912   9.889 -0.7554  1.0419 -0.5088
  124Eth    Hcc 3683   2.797   1.910  10.039  1.0593  0.4859  0.5754
  125Eth     Ho 3684   1.798   2.008   4.447  2.0420 -1.4753 -1.3497
  125Eth     Oh 3685   1.849   2.005   4.527 -0.1368  0.2099  0.1594
  125Eth     Co 3686   1.813   1.895   4.600 -0.0789  0.4524 -0.1769
  125Eth    Hco 3687   1.707   1.877   4.583 -0.2691  0.3385  1.1523
  125Eth    Hco 3688   1.817   1.919   4.706 -1.6891  0.9794 -0.2236
  125Eth     Ch 3689   1.900   1.774   4.581  0.6126 -0.0855 -0.0234
  125Eth    Hcc 3690   2.007   1.791   4.577  0.7959 -0.9631  0.8148
  125Eth    Hcc 3691   1.866   1.726   4.489  1.5628 -0.0738 -0.3845
  125Eth    Hcc 3692   1.884   1.701   4.661  1.3467 -0.1992  0.0206
  126Eth     Ho 3693   2.231   2.758   5.385 -0.3540  2.1955  1.0924
  126Eth     Oh 3694   2.156   2.717   5.424  0.0606  0.1631 -0.1459
  126Eth     Co 3695   2.097   2.801   5.517  0.1860 -0.2281  0.0895
  126Eth    Hco 3696   2.167   2.880   5.544 -0.5356  0.8317 -1.0845
  126Eth    Hco 3697   2.072   2.738   5.603  0.7526 -2.8962 -1.6599
  126Eth     Ch 3698   1.983   2.889   5.459  0.1698  0.0606  0.4539
  126Eth    Hcc 3699   1.901   2.911   5.527 -1.3945 -1.8765 -0.7315
  126Eth    Hcc 3700   1.924   2.830   5.390  0.1872  0.8830 -0.2663
  126Eth    Hcc 3701   2.017   2.986   5.423  0.2171 -0.3849 -0.6981
  127Eth     Ho 3702   2.485   1.933   6.153 -0.2362  0.7819 -1.9362
  127Eth     Oh 3703   2.514   1.861   6.100  0.0268 -0.0755 -0.6475
  127Eth     Co 3704   2.454   1.871   5.977 -0.5239  0.1774  0.2611
  127Eth    Hco 3705   2.381   1.950   5.968 -1.1930 -0.3458  1.0346
  127Eth    Hco 3706   2.404   1.779   5.947  2.5227 -1.1206 -1.0358
  127Eth     Ch 3707   2.557   1.903   5.868  0.1659  0.3426 -0.1343
  127Eth    Hcc 3708   2.622   1.816   5.859 -0.6098 -0.0350 -2.2147
  127Eth    Hcc 3709   2.601   2.002   5.880 -1.2669  0.7574  2.1367
  127Eth    Hcc 3710   2.512   1.907   5.769  1.3238 -0.8057 -0.7116
  128Eth     Ho 3711   2.512   0.425   1.721  0.5419 -0.0732  0.4806
  128Eth     Oh 3712   2.483   0.514   1.714  0.3152 -0.1394  0.5665
  128Eth     Co 3713   2.380   0.516   1.624 -0.5286 -0.0976 -0.0388
  128Eth    Hco 3714   2.417   0.464   1.536  0.6236  0.4387  0.1315
  128Eth    Hco 3715   2.354   0.615   1.586  0.5765  0.0823 -0.3437
  128Eth     Ch 3716   2.252   0.450   1.679  0.3913 -0.8308  0.4516
  128Eth    Hcc 3717   2.202   0.507   1.756 -0.2093 -0.5726 -0.1215
  128Eth    Hcc 3718   2.273   0.356   1.730  0.9512 -1.1803 -0.4056
  128Eth    Hcc 3719   2.192   0.419   1.593 -0.7158  0.1386  0.8569
  129Eth     Ho 3720   3.360   1.846   1.637  0.2908 -0.0483  1.6239
  129Eth     Oh 3721   3.444   1.818   1.606 -0.0700  0.6419 -0.0225
  129Eth     Co 3722   3.454   1.681   1.629 -0.5173 -0.4958  0.0907
  129Eth    Hco 3723   3.360   1.628   1.613 -0.6132 -0.0124 -1.0010
  129Eth    Hco 3724   3.472   1.680   1.736  0.8323  1.3331 -0.0993
  129Eth     Ch 3725   3.558   1.614   1.546 -0.0501  0.4185  0.0652
  129Eth    Hcc 3726   3.518   1.624   1.445  1.7389 -1.9083 -0.9117
  129Eth    Hcc 3727   3.556   1.509   1.573 -0.5117  0.4440  0.1292
  129Eth    Hcc 3728   3.659   1.655   1.553  0.6449 -0.6839 -2.9794
  130Eth     Ho 3729   2.709   3.223   1.685  0.8155  0.6106  0.8538
  130Eth     Oh 3730   2.747   3.139   1.703  0.3000  0.3339  0.6847
  130Eth     Co 3731   2.692   3.052   1.598 -0.8963  0.2874 -0.5067
  130Eth    Hco 3732   2.745   3.079   1.507  3.4329 -0.1971  1.7249
  130Eth    Hco 3733   2.588   3.073   1.572 -1.1614 -0.3971 -0.0414
  130Eth     Ch 3734   2.702   2.902   1.639 -0.1389 -0.6196 -0.8258
  130Eth    Hcc 3735   2.629   2.848   1.580  1.7118 -1.8826 -2.0268
  130Eth    Hcc 3736   2.686   2.903   1.747 -1.5563 -0.4670 -1.0321
  130Eth    Hcc 3737   2.806   2.870   1.628 -0.0825 -0.6027 -0.3692
  131Eth     Ho 3738   2.885   2.571   8.117  1.1620 -0.4208 -2.7706
  131Eth     Oh 3739   2.923   2.502   8.168 -0.3922  0.1623 -0.7636
  131Eth     Co 3740   2.851   2.376   8.170  0.5093 -0.0708  0.2006
  131Eth    Hco 3741   2.818   2.327   8.079 -3.3376  0.3153  1.2953
  131Eth    Hco 3742   2.757   2.390   8.223 -0.2562 -1.9057 -0.6490
  131Eth     Ch 3743   2.934   2.277   8.246  0.3435 -0.1819  0.5981
  131Eth    Hcc 3744   2.885   2.181   8.263 -1.7627  1.4115  4.2023
  131Eth    Hcc 3745   2.972   2.323   8.337  0.2516 -0.8847  0.9935
  131Eth    Hcc 3746   3.027   2.249   8.196  1.3758  1.6729  1.4326
  132Eth     Ho 3747   0.297   2.357   8.443  0.1514 -2.4445  2.2641
  132Eth     Oh 3748   0.249   2.298   8.388  0.0769 -0.3272 -0.0236
  132Eth     Co 3749   0.334   2.259   8.284 -0.9436  0.4509 -0.1228
  132Eth    Hco 3750   0.436   2.245   8.321 -0.3215  0.7846 -1.6699
  132Eth    Hco 3751   0.341   2.329   8.201 -0.2749 -1.2751 -1.5644
  132Eth     Ch 3752   0.287   2.123   8.236  0.6642 -0.4630  0.0070
  132Eth    Hcc 3753   0.281   2.053   8.320 -2.7925 -1.1242 -0.7092
  132Eth    Hcc 3754   0.356   2.080   8.163 -1.4129 -2.2362 -0.9659
  132Eth    Hcc 3755   0.184   2.113   8.202  0.6757 -1.0874  0.1554
  133Eth     Ho 3756   0.473   1.698   3.517  1.1725  0.4570  0.3067
  133Eth     Oh 3757   0.449   1.681   3.606  0.1240 -0.0238 -0.0685
  133Eth     Co 3758   0.425   1.810   3.656  0.2414  0.1046  0.2324
  133Eth    Hco 3759   0.323   1.842   3.637  0.0754  0.8415  2.2723
  133Eth    Hco 3760   0.496   1.877   3.607 -0.9561  0.3684 -1.1620
  133Eth     Ch 3761   0.442   1.804   3.803  0.0803 -0.3469  0.7015
  133Eth    Hcc 3762   0.545   1.783   3.832  0.7474  0.9672 -0.6427
  133Eth    Hcc 3763   0.385   1.721   3.843 -0.1641 -1.6816 -2.2324
  133Eth    Hcc 3764   0.420   1.901   3.847  0.6543  1.2296 -2.3367
  134Eth     Ho 3765   2.872   1.450   9.674 -0.0231  2.0808  0.0976
  134Eth     Oh 3766   2.820   1.475   9.748 -0.5121 -0.3283  0.6124
  134Eth     Co 3767   2.897   1.459   9.860  0.2995  0.3302 -0.2562
  134Eth    Hco 3768   2.957   1.547   9.883 -0.0567  0.4522  0.2168
  134Eth    Hco 3769   2.963   1.373   9.845  1.9318  0.8769  3.2061
  134Eth     Ch 3770   2.797   1.438   9.975  0.1196  0.5125  0.2666
  134Eth    Hcc 3771   2.735   1.525   9.999 -0.8495  0.1124 -0.7598
  134Eth    Hcc 3772   2.852   1.405  10.063 -1.2495 -0.3147  0.8201
  134Eth    Hcc 3773   2.736   1.351   9.953  1.4154 -0.0343 -1.2145
  135Eth     Ho 3774   3.277   1.144   1.912 -0.4531 -1.3246  0.0033
  135Eth     Oh 3775   3.302   1.123   1.823 -0.0593  0.0541 -0.2147
  135Eth     Co 3776   3.204   1.038   1.764 -0.0671  0.3561 -0.0498
  135Eth    Hco 3777   3.139   1.105   1.708 -1.8676 -1.8085 -0.6117
  135Eth    Hco 3778   3.148   0.990   1.844  0.1657  0.8389  0.4099
  135Eth     Ch 3779   3.257   0.939   1.660 -0.0605  0.8483 -0.2930
  135Eth    Hcc 3780   3.342   0.883   1.699  1.0084  0.8339 -2.5766
  135Eth    Hcc 3781   3.278   0.992   1.568 -0.9129  2.5831  0.4899
  135Eth    Hcc 3782   3.179   0.870   1.628  1.3140 -0.5938 -0.6058
  136Eth     Ho 3783   2.006   0.595   9.730  2.8341 -0.1255  0.3655
  136Eth     Oh 3784   2.014   0.681   9.767  0.6868  0.0790  0.4029
  136Eth     Co 3785   1.972   0.669   9.901 -0.5456  0.1330 -0.6660
  136Eth    Hco 3786   2.027   0.589   9.950 -0.9903 -0.3964 -1.0178
  136Eth    Hco 3787   1.871   0.631   9.885 -0.4953 -1.0130  1.5264
  136Eth     Ch 3788   1.974   0.802   9.967  0.0544  0.3013  0.5240
  136Eth    Hcc 3789   2.072   0.849   9.962  0.8068 -1.3884 -2.0878
  136Eth    Hcc 3790   1.947   0.776  10.069  0.6252  0.9461  0.8421
  136Eth    Hcc 3791   1.898   0.869   9.927 -1.8795 -2.0927  0.0474
  137Eth     Ho 3792   1.786   1.968   9.801 -0.6132 -1.3684 -1.9321
  137Eth     Oh 3793   1.697   1.941   9.813 -0.6513 -0.2574  0.6242
  137Eth     Co 3794   1.691   1.824   9.890  0.5900 -0.2817 -0.2407
  137Eth    Hco 3795   1.727   1.842   9.991 -2.3368  2.1041  0.4531
  137Eth    Hco 3796   1.758   1.753   9.841 -0.6573 -0.0669 -2.3455
  137Eth     Ch 3797   1.555   1.751   9.903  0.1476  0.5402 -0.2711
  137Eth    Hcc 3798   1.570   1.665   9.969  1.0757  0.7398 -0.2284
  137Eth    Hcc 3799   1.533   1.718   9.802  2.1274 -2.9061  0.3322
  137Eth    Hcc 3800   1.469   1.813   9.931 -0.5396 -0.0537 -1.0331
  138Eth     Ho 3801   0.965   2.009  10.026  0.4618  0.8088 -0.1917
  138Eth     Oh 3802   0.988   1.980   9.940 -0.5009 -0.1248 -0.1368
  138Eth     Co 3803   0.917   1.870   9.902 -0.2046 -0.6074 -0.4083
  138Eth    Hco 3804   0.812   1.902   9.902 -0.0389 -0.0637 -0.5937
  138Eth    Hco 3805   0.940   1.792   9.975 -2.0680 -0.7919  0.0249
  138Eth     Ch 3806   0.939   1.820   9.758  0.2867 -0.1518 -0.3540
  138Eth    Hcc 3807   0.915   1.898   9.686 -2.4403 -1.2150 -0.6586
  138Eth    Hcc 3808   0.870   1.737   9.742 -0.5665  0.2397  1.2262
  138Eth    Hcc 3809   1.040   1.779   9.745  1.2308  1.6504  1.0015
  139Eth     Ho 3810   2.699   1.072   6.640  0.3347  1.3802  0.0011
  139Eth     Oh 3811   2.779   1.093   6.685  0.3790  0.2893  0.4291
  139Eth     Co 3812   2.756   1.180   6.792 -0.7950 -0.3696  0.1327
  139Eth    Hco 3813   2.662   1.162   6.843 -1.4238 -0.1728 -0.9354
  139Eth    Hco 3814   2.755   1.284   6.758 -2.9817 -0.9054 -1.5825
  139Eth     Ch 3815   2.870   1.152   6.894  0.9146 -0.5643  0.9865
  139Eth    Hcc 3816   2.855   1.050   6.931  1.6216 -0.1231  2.5510
  139Eth    Hcc 3817   2.859   1.225   6.974  1.4320  1.1390 -0.4682
  139Eth    Hcc 3818   2.967   1.165   6.847  1.3427 -1.1168  1.7026
  140Eth     Ho 3819   2.672   2.635   8.110 -0.0095  2.7985  0.7054
  140Eth     Oh 3820   2.590   2.659   8.073 -0.4981  0.0737 -0.1423
  140Eth     Co 3821   2.536   2.751   8.167 -0.5120 -0.4733 -0.2526
  140Eth    Hco 3822   2.444   2.803   8.140 -0.0950  0.3962 -0.0134
  140Eth    Hco 3823   2.607   2.829   8.195 -0.8107 -0.4110  0.3602
  140Eth     Ch 3824   2.510   2.675   8.295 -0.0426 -0.1862 -0.5903
  140Eth    Hcc 3825   2.431   2.718   8.356 -0.0794 -1.3884  0.2238
  140Eth    Hcc 3826   2.597   2.666   8.360  0.2813  0.7520 -0.8944
  140Eth    Hcc 3827   2.478   2.576   8.260  0.2232 -0.8482  1.0182
  141Eth     Ho 3828   2.801   0.188   2.777 -0.0767 -0.6116  0.0112
  141Eth     Oh 3829   2.812   0.124   2.709 -0.3611 -0.3704 -0.2664
  141Eth     Co 3830   2.749   0.185   2.605  0.1175 -0.2443  1.0265
  141Eth    Hco 3831   2.787   0.285   2.584  0.3746 -0.4535  0.4974
  141Eth    Hco 3832   2.650   0.200   2.647 -0.4047 -1.1245  0.1205
  141Eth     Ch 3833   2.739   0.101   2.477 -0.2887  0.2025 -0.2589
  141Eth    Hcc 3834   2.668   0.151   2.411 -2.5159 -1.7229  0.6089
  141Eth    Hcc 3835   2.702   0.001   2.495  1.1930 -0.0119  1.6964
  141Eth    Hcc 3836   2.836   0.088   2.428  0.0208 -1.7274  0.8219
  142Eth     Ho 3837   2.815   1.619   2.227 -2.7917  0.3497  0.9086
  142Eth     Oh 3838   2.851   1.628   2.314 -0.8188  0.0573  0.1439
  142Eth     Co 3839   2.959   1.722   2.298  0.4246 -0.0351  0.3129
  142Eth    Hco 3840   2.934   1.808   2.236 -0.7088 -1.1173 -0.7625
  142Eth    Hco 3841   3.014   1.651   2.235 -2.1241 -2.1093  0.3157
  142Eth     Ch 3842   3.020   1.756   2.431  0.3358 -0.3243  0.0592
  142Eth    Hcc 3843   2.941   1.780   2.502  1.1358  1.3112  0.4117
  142Eth    Hcc 3844   3.087   1.840   2.414  2.7848 -2.0735  0.7535
  142Eth    Hcc 3845   3.076   1.677   2.482  0.2516 -1.1386 -1.0929
  143Eth     Ho 3846   0.936   0.782   4.517  1.0601 -1.0353  0.1125
  143Eth     Oh 3847   0.886   0.736   4.453  0.2953  0.0304 -0.0711
  143Eth     Co 3848   0.929   0.604   4.430 -0.2337 -0.0369  0.6997
  143Eth    Hco 3849   0.899   0.538   4.512  1.0318 -0.3190  0.9461
  143Eth    Hco 3850   1.037   0.613   4.439 -0.3262 -0.2016  2.1869
  143Eth     Ch 3851   0.893   0.543   4.298 -0.1918 -0.3525  0.3336
  143Eth    Hcc 3852   0.950   0.597   4.221  0.3161  0.7390  1.4517
  143Eth    Hcc 3853   0.786   0.537   4.281 -0.8211  1.0504  3.4928
  143Eth    Hcc 3854   0.928   0.440   4.292 -1.9174 -0.8669 -1.2794
  144Eth     Ho 3855   2.429   2.606   3.292  0.1464  0.0970 -0.4588
  144Eth     Oh 3856   2.482   2.683   3.303  0.4887 -0.1488 -0.3394
  144Eth     Co 3857   2.576   2.676   3.195  0.2862 -0.1843  0.0053
  144Eth    Hco 3858   2.527   2.698   3.100  1.3528  1.6032 -0.1670
  144Eth    Hco 3859   2.603   2.571   3.183 -0.3620 -0.3056 -0.4067
  144Eth     Ch 3860   2.693   2.770   3.224 -0.1938  0.0556 -0.0367
  144Eth    Hcc 3861   2.735   2.768   3.324  0.3078 -0.3644 -0.2575
  144Eth    Hcc 3862   2.674   2.872   3.190  0.2425 -0.0161 -0.4993
  144Eth    Hcc 3863   2.774   2.747   3.155 -0.2909 -2.4781  0.6551
  145Eth     Ho 3864   0.294   1.262   1.924  1.3710 -0.2914 -0.7862
  145Eth     Oh 3865   0.244   1.292   1.850  0.7531  0.1242 -0.2050
  145Eth     Co 3866   0.263   1.214   1.731  0.2981  0.2138  0.0603
  145Eth    Hco 3867   0.360   1.243   1.690  0.2459 -1.6174 -1.4523
  145Eth    Hco 3868   0.176   1.244   1.673 -1.4538 -1.8542  1.5398
  145Eth     Ch 3869   0.261   1.069   1.763  0.2380  0.3447  0.0945
  145Eth    Hcc 3870   0.268   1.011   1.671 -0.0720 -1.1549  1.0011
  145Eth    Hcc 3871   0.164   1.044   1.805  1.1991  0.1278  2.2817
  145Eth    Hcc 3872   0.336   1.027   1.830  2.4069 -3.5972 -4.5068
  146Eth     Ho 3873   0.545   1.664   1.802  0.7771  2.1743 -1.2087
  146Eth     Oh 3874   0.605   1.595   1.781 -0.7162  0.3987  0.2222
  146Eth     Co 3875   0.531   1.501   1.705 -0.1202 -0.3816 -0.4436
  146Eth    Hco 3876   0.455   1.556   1.651 -1.4420 -1.5448  0.2133
  146Eth    Hco 3877   0.476   1.436   1.773 -0.4503  0.1674 -0.1817
  146Eth     Ch 3878   0.621   1.410   1.624 -0.2927 -1.0402 -0.5375
  146Eth    Hcc 3879   0.661   1.475   1.547 -0.9225 -2.2432 -1.9024
  146Eth    Hcc 3880   0.572   1.324   1.579 -1.1211 -0.5150 -0.6534
  146Eth    Hcc 3881   0.703   1.371   1.684 -0.6697 -0.9853  0.0233
  147Eth     Ho 3882   2.253   1.752   4.534 -0.0098  0.8868  2.1776
  147Eth     Oh 3883   2.295   1.675   4.568 -0.2916  0.0691  0.6900
  147Eth     Co 3884   2.404   1.659   4.489  0.2776  0.4544  0.0846
  147Eth    Hco 3885   2.475   1.742   4.488  1.1283 -0.2718 -1.8097
  147Eth    Hco 3886   2.370   1.670   4.386  1.3757 -0.5421 -0.3948
  147Eth     Ch 3887   2.461   1.523   4.513  0.4045  0.2688 -0.3952
  147Eth    Hcc 3888   2.530   1.475   4.443 -0.3170 -0.6814 -0.4530
  147Eth    Hcc 3889   2.385   1.445   4.521 -1.6763  2.0181 -2.2358
  147Eth    Hcc 3890   2.507   1.517   4.611 -3.5886  1.3294  1.6797
  148Eth     Ho 3891   2.393   3.149   9.754  0.0885  3.2839 -3.0549
  148Eth     Oh 3892   2.364   3.215   9.814 -0.3259  0.1821  0.2798
  148Eth     Co 3893   2.478   3.309   9.804 -0.0204 -0.0479 -0.0339
  148Eth    Hco 3894   2.480   3.329   9.697 -0.1401 -1.4737 -0.3168
  148Eth    Hco 3895   2.574   3.261   9.824 -0.4716 -0.0770  2.1506
  148Eth     Ch 3896   2.438   3.440   9.887  0.4333 -0.6396 -0.0587
  148Eth    Hcc 3897   2.343   3.487   9.861  0.9477  0.9250  0.7999
  148Eth    Hcc 3898   2.499   3.528   9.866  1.7293 -1.5315 -0.0860
  148Eth    Hcc 3899   2.448   3.427   9.995  0.7394 -3.7087 -0.4091
  149Eth     Ho 3900   1.838   2.245   9.746 -0.4400  1.0347 -1.0738
  149Eth     Oh 3901   1.791   2.285   9.818  0.4023  0.0993  0.0194
  149Eth     Co 3902   1.883   2.287   9.927 -0.2031 -0.2927 -0.2666
  149Eth    Hco 3903   1.987   2.272   9.898  0.1825  0.9680  0.3954
  149Eth    Hco 3904   1.873   2.210  10.004 -2.5981  0.0248 -0.2121
  149Eth     Ch 3905   1.876   2.423   9.996  0.2073  0.1605  0.0224
  149Eth    Hcc 3906   1.919   2.493   9.925 -1.6015  0.0692 -1.2118
  149Eth    Hcc 3907   1.944   2.421  10.081 -0.7451  0.8943  0.8120
  149Eth    Hcc 3908   1.779   2.458  10.031  0.3044 -0.4768  0.9364
  150Eth     Ho 3909   1.391   2.271   1.751 -1.5703  0.3234 -0.9398
  150Eth     Oh 3910   1.463   2.299   1.698 -0.2482 -0.4114  0.4490
  150Eth     Co 3911   1.549   2.187   1.686 -0.3144 -0.0456 -0.5410
  150Eth    Hco 3912   1.525   2.131   1.596  2.8256  0.8942 -2.0475
  150Eth    Hco 3913   1.541   2.124   1.774 -0.9924 -0.1740 -0.6956
  150Eth     Ch 3914   1.693   2.240   1.686  0.7773 -0.7733 -0.5750
  150Eth    Hcc 3915   1.687   2.329   1.623  0.6569 -0.4439 -0.1047
  150Eth    Hcc 3916   1.760   2.169   1.637  2.1004  0.8384 -1.1607
  150Eth    Hcc 3917   1.726   2.266   1.787 -0.0890  0.8662 -0.6993
  151Eth     Ho 3918   0.177   1.970   6.053 -1.2616 -1.6746  1.4855
  151Eth     Oh 3919   0.135   2.051   6.076 -0.0147 -0.7108  0.3998
  151Eth     Co 3920   0.171   2.078   6.214  0.7826 -0.3468  0.3153
  151Eth    Hco 3921   0.138   2.181   6.222 -3.1890 -1.4200 -1.0287
  151Eth    Hco 3922   0.279   2.076   6.229  0.7806 -0.9853  0.2828
  151Eth     Ch 3923   0.088   1.989   6.307 -0.2482 -0.5446  0.5016
  151Eth    Hcc 3924  -0.011   1.964   6.268 -0.0379 -0.5948 -0.0031
  151Eth    Hcc 3925   0.067   2.052   6.394 -0.0424  0.5607 -0.2321
  151Eth    Hcc 3926   0.134   1.897   6.342 -0.1020 -0.2741  1.0325
  152Sol     OW 3927   0.953   1.211   5.729 -0.0598 -0.6336  0.0219
  152Sol     HW 3928   0.993   1.127   5.754 -0.5327 -0.3022  1.9142
  152Sol     HW 3929   0.874   1.217   5.782 -0.6089  0.5252 -0.9000
  152Sol     MW 3930   0.950   1.204   5.736  0.4520  0.0011 -1.0364
  153Sol     OW 3931   2.205   2.820   7.664  0.4960 -0.0491 -0.2247
  153Sol     HW 3932   2.267   2.752   7.637 -0.3149 -0.4684 -1.0689
  153Sol     HW 3933   2.127   2.804   7.611 -0.2870  0.5650  0.7202
  153Sol     MW 3934   2.204   2.813   7.657 -0.2615 -0.2116  0.2773
  154Sol     OW 3935   3.128   3.103   8.585 -0.1410 -0.2508  0.5637
  154Sol     HW 3936   3.160   3.187   8.553  0.4101  0.1226  2.0445
  154Sol     HW 3937   3.035   3.103   8.563  0.2319 -0.0674 -1.1127
  154Sol     MW 3938   3.123   3.111   8.580 -0.0204 -0.2083 -0.3760
  155Sol     OW 3939   1.116   2.382   2.970  0.3046  0.2904  0.3642
  155Sol     HW 3940   1.178   2.372   3.043  0.6988  0.9181  0.1187
  155Sol     HW 3941   1.114   2.296   2.929 -0.0553 -0.1175  1.2219
  155Sol     MW 3942   1.121   2.373   2.973  0.1446 -0.1329 -0.2404
  156Sol     OW 3943   0.976   2.745   6.109 -0.1710 -0.3627 -0.4340
  156Sol     HW 3944   0.893   2.792   6.111  0.5299  0.8419  1.4409
  156Sol     HW 3945   0.966   2.676   6.175  0.4060 -0.0409 -0.0058
  156Sol     MW 3946   0.968   2.743   6.115  0.4238 -0.6965  0.0486
  157Sol     OW 3947   0.924   1.558   7.926  0.4035 -0.1833 -0.1513
  157Sol     HW 3948   0.913   1.574   8.020 -1.2101  1.2562 -0.5487
  157Sol     HW 3949   0.835   1.566   7.890  0.8085 -1.9562 -1.6292
  157Sol     MW 3950   0.915   1.560   7.931 -1.0613  0.4145 -0.2408
  158Sol     OW 3951   3.198   2.979   2.570  0.0366 -0.1974  0.6207
  158Sol     HW 3952   3.200   2.897   2.619 -0.0328  0.8187  2.3242
  158Sol     HW 3953   3.163   3.044   2.631 -0.2124  1.0481 -0.8118
  158Sol     MW 3954   3.195   2.977   2.579 -0.2575 -0.3041 -0.0543
  159Sol     OW 3955   2.269   0.441   8.120 -0.3687 -0.3403 -0.2096
  159Sol     HW 3956   2.268   0.365   8.179 -1.0545 -1.1007 -1.1608
  159Sol     HW 3957   2.277   0.516   8.178  1.1964 -1.1762  0.7043
  159Sol     MW 3958   2.269   0.441   8.130 -0.8135 -0.2047  0.4926
  160Sol     OW 3959   0.066   2.989   7.076 -0.2753  0.0834  0.6542
  160Sol     HW 3960   0.062   2.914   7.135 -1.4025  0.0134  0.5094
  160Sol     HW 3961   0.046   2.953   6.990  0.0862  0.3989  0.4359
  160Sol     MW 3962   0.064   2.979   7.074  0.1365 -0.1597  0.0807
  161Sol     OW 3963   0.225   1.563   3.281  0.1258  0.0201  0.1615
  161Sol     HW 3964   0.278   1.640   3.299  0.1723  0.0027  0.0997
  161Sol     HW 3965   0.239   1.545   3.188 -0.6329  0.5026 -0.0543
  161Sol     MW 3966   0.231   1.568   3.274  0.8911 -0.1238  0.2101
  162Sol     OW 3967   1.623   1.421   4.608  0.4069 -0.2901 -0.2085
  162Sol     HW 3968   1.620   1.394   4.516 -1.4155 -1.6775  0.2402
  162Sol     HW 3969   1.702   1.379   4.643  0.6692 -0.4153 -0.9495
  162Sol     MW 3970   1.630   1.415   4.603  0.5335  0.0400  0.6328
  163Sol     OW 3971   1.278   2.277   9.387  0.1593 -0.0425  0.6302
  163Sol     HW 3972   1.340   2.223   9.339  0.1006 -0.2230  0.7554
  163Sol     HW 3973   1.192   2.240   9.366  0.1089  0.0869  0.6079
  163Sol     MW 3974   1.276   2.269   9.381  0.3313  0.3835 -0.6288
  164Sol     OW 3975   2.219   1.640   8.880 -0.2664  0.4108 -0.3368
  164Sol     HW 3976   2.278   1.582   8.831 -2.2805 -0.2761 -2.0252
  164Sol     HW 3977   2.233   1.727   8.841 -0.9421  0.1012 -1.2762
  164Sol     MW 3978   2.226   1.643   8.872  0.3869  0.1396  0.2546
  165Sol     OW 3979   1.520   2.770   7.850 -0.1610  0.5883  0.0652
  165Sol     HW 3980   1.443   2.752   7.903 -0.0022  0.7324  0.3439
  165Sol     HW 3981   1.573   2.830   7.903 -1.3717  3.0788 -1.4562
  165Sol     MW 3982   1.518   2.774   7.859 -0.1313  0.4182  0.3244
  166Sol     OW 3983   0.443   0.301   6.816  0.1052 -0.0243 -0.3275
  166Sol     HW 3984   0.496   0.372   6.853 -1.2167  0.2300  1.1140
  166Sol     HW 3985   0.387   0.272   6.888 -0.7527 -1.2181 -1.4458
  166Sol     MW 3986   0.443   0.305   6.826 -0.1318  0.4820  0.9534
  167Sol     OW 3987   2.839   1.782   1.910 -0.4727  0.0192  0.3135
  167Sol     HW 3988   2.783   1.853   1.939 -1.3358 -0.4488 -0.2025
  167Sol     HW 3989   2.804   1.704   1.953 -1.4318 -0.5982 -1.5417
  167Sol     MW 3990   2.831   1.781   1.916  0.2801 -0.4405  0.7153
  168Sol     OW 3991   2.706   0.245   1.909 -0.3252  0.6081  0.1396
  168Sol     HW 3992   2.740   0.156   1.894 -1.4018 -0.1856  2.2169
  168Sol     HW 3993   2.696   0.251   2.004 -1.1754  2.6302 -0.0619
  168Sol     MW 3994   2.708   0.237   1.916  0.3091  0.2079 -0.5707
  169Sol     OW 3995   1.040   0.165   7.292  0.3834 -0.5631  0.2639
  169Sol     HW 3996   1.002   0.235   7.345  1.9831  0.6254 -0.1222
  169Sol     HW 3997   0.972   0.146   7.227 -0.3269  0.1728  0.7681
  169Sol     MW 3998   1.030   0.170   7.291  0.8413  0.0235  0.4571
  170Sol     OW 3999   0.047   2.455   3.610  0.4388  0.1405 -0.0263
  170Sol     HW 4000   0.061   2.386   3.674  0.0073  0.0526 -0.0271
  170Sol     HW 4001   0.135   2.479   3.580  0.7253  0.9921  1.4587
  170Sol     MW 4002   0.056   2.451   3.613  0.3289 -0.3336  0.6707
  171Sol     OW 4003   2.092   1.069   5.340 -0.0909  0.6472  0.5994
  171Sol     HW 4004   2.005   1.105   5.358  0.1614  1.2337  0.6464
  171Sol     HW 4005   2.114   1.103   5.253 -0.6090 -0.8462 -0.1534
  171Sol     MW 4006   2.086   1.075   5.334 -0.5046  0.2253  0.7727
  172Sol     OW 4007   2.478   0.776   4.467 -0.2892 -0.2073  0.1023
  172Sol     HW 4008   2.534   0.777   4.390 -1.2157 -2.1856 -0.6370
  172Sol     HW 4009   2.389   0.766   4.432 -0.9906  1.3248  1.3277
  172Sol     MW 4010   2.475   0.776   4.457 -0.0712  0.7381  0.5170
  173Sol     OW 4011   2.716   2.228   4.481 -0.7465  0.3293  0.0166
  173Sol     HW 4012   2.780   2.246   4.412 -1.2314  0.8159 -0.3111
  173Sol     HW 4013   2.758   2.259   4.561 -0.8467  1.2856 -0.2965
  173Sol     MW 4014   2.726   2.233   4.482 -0.0983 -0.1154  0.1182
  174Sol     OW 4015   0.642   1.663   8.154  0.0424 -0.5405 -0.3877
  174Sol     HW 4016   0.662   1.718   8.078  1.7592 -1.1365 -0.3871
  174Sol     HW 4017   0.689   1.704   8.226 -0.9526 -0.4279  0.2046
  174Sol     MW 4018   0.648   1.672   8.153 -0.6620 -0.4233  0.1039
  175Sol     OW 4019   1.659   3.128   8.935 -0.0943  0.3261 -0.1966
  175Sol     HW 4020   1.712   3.088   8.866  0.0803  1.0757 -0.5067
  175Sol     HW 4021   1.576   3.150   8.892 -0.9588 -1.5152  0.4661
  175Sol     MW 4022   1.656   3.127   8.925 -0.4738 -0.3055 -0.0424
  176Sol     OW 4023   2.914   2.480   5.585  0.7340 -0.0629  0.0721
  176Sol     HW 4024   2.965   2.410   5.543  1.8392 -0.2137  1.6187
  176Sol     HW 4025   2.855   2.434   5.645  0.2674  0.2374 -0.1543
  176Sol     MW 4026   2.914   2.469   5.587  0.1148 -0.8090  0.7984
  177Sol     OW 4027   1.373   1.691   7.266  1.0095  0.2160 -0.1521
  177Sol     HW 4028   1.415   1.606   7.256 -0.0611 -0.1739 -1.3687
  177Sol     HW 4029   1.376   1.731   7.179 -0.4143  0.5118 -0.0819
  177Sol     MW 4030   1.377   1.687   7.258  0.3622 -0.2418  0.6240
  178Sol     OW 4031   1.764   0.425   6.064  0.1878  0.6846 -0.7883
  178Sol     HW 4032   1.685   0.373   6.048  0.1864  0.6311 -0.6087
  178Sol     HW 4033   1.796   0.394   6.149 -0.1697  1.4245 -0.3736
  178Sol     MW 4034   1.760   0.417   6.071  0.8306 -1.0780  0.5696
  179Sol     OW 4035   2.988   2.413   3.861 -0.1622 -0.0112 -0.2353
  179Sol     HW 4036   3.064   2.355   3.865 -0.3395 -0.3563 -1.5445
  179Sol     HW 4037   2.967   2.418   3.767 -0.5580  1.6282 -0.0703
  179Sol     MW 4038   2.993   2.408   3.853  0.2466  0.1319 -0.0838
  180Sol     OW 4039   1.369   1.265   5.714  0.0273  0.5708  0.2459
  180Sol     HW 4040   1.433   1.334   5.731  1.0753  0.2572 -2.1608
  180Sol     HW 4041   1.287   1.311   5.697 -0.4220  0.9791  3.2220
  180Sol     MW 4042   1.368   1.275   5.714  0.1680 -0.1750 -0.0181
  181Sol     OW 4043   3.110   2.602   2.005  0.1163  0.1851  0.2693
  181Sol     HW 4044   3.127   2.552   1.926 -0.2754  1.0495 -0.3673
  181Sol     HW 4045   3.160   2.682   1.995  0.4466  0.0964  1.1194
  181Sol     MW 4046   3.116   2.604   1.997  0.1095 -1.0410 -0.7505
  182Sol     OW 4047   2.072   0.215   8.312 -0.5686 -0.4301  0.1059
  182Sol     HW 4048   2.048   0.267   8.389  1.5769  0.8082 -0.0325
  182Sol     HW 4049   2.116   0.138   8.348  0.6482  0.2660  0.1172
  182Sol     MW 4050   2.074   0.213   8.322 -0.5785 -0.1417  0.4352
  183Sol     OW 4051   0.002   2.493   5.765  0.7472 -0.0640 -0.3082
  183Sol     HW 4052   0.093   2.484   5.737  0.5439  0.4189 -1.1343
  183Sol     HW 4053  -0.005   2.438   5.843  1.2030 -1.7945 -1.4615
  183Sol     MW 4054   0.010   2.487   5.769 -0.5140  0.0009  0.8210
  184Sol     OW 4055   1.960   2.211   3.856 -0.2420 -0.3510  0.4495
  184Sol     HW 4056   1.986   2.181   3.769  0.1661  0.1435  0.3995
  184Sol     HW 4057   2.029   2.179   3.914 -0.4738 -0.6146  0.5812
  184Sol     MW 4058   1.969   2.206   3.853  0.0195  0.0541  0.2712
  185Sol     OW 4059   1.703   2.983   4.303  0.1332  0.5780  0.2382
  185Sol     HW 4060   1.718   2.929   4.381 -1.4727 -0.0961  0.0978
  185Sol     HW 4061   1.779   3.042   4.300  1.0236 -0.4728  1.3922
  185Sol     MW 4062   1.711   2.983   4.310  0.3460  0.1851  0.2929
  186Sol     OW 4063   1.663   1.002   7.471 -0.2894  0.7282  0.9105
  186Sol     HW 4064   1.728   1.025   7.405 -0.3580  0.3360  0.7075
  186Sol     HW 4065   1.678   1.066   7.542  0.3847  0.5736  0.9127
  186Sol     MW 4066   1.671   1.010   7.472 -0.0727 -0.0090 -0.1998
  187Sol     OW 4067   2.904   0.400   4.624 -0.3885 -0.2811 -0.2819
  187Sol     HW 4068   2.844   0.447   4.682  0.2112  0.2200 -0.0741
  187Sol     HW 4069   2.847   0.340   4.576 -0.8368 -1.0558  1.1709
  187Sol     MW 4070   2.893   0.399   4.625 -0.4727  0.1283  1.2414
  188Sol     OW 4071   0.001   0.944   7.249 -0.3002  0.2865 -0.0535
  188Sol     HW 4072  -0.048   0.983   7.321 -0.4769 -1.4862  0.8080
  188Sol     HW 4073  -0.038   0.982   7.170 -2.2649 -0.2059  0.6688
  188Sol     MW 4074  -0.007   0.951   7.248  0.3262  0.2033  0.2778
  189Sol     OW 4075   1.570   2.283   5.179  0.2346  0.2350 -0.0970
  189Sol     HW 4076   1.653   2.321   5.149  1.3342 -1.2121  1.0338
  189Sol     HW 4077   1.579   2.277   5.274 -0.2703 -1.9900 -0.1693
  189Sol     MW 4078   1.578   2.286   5.185 -0.4759 -0.2191 -0.4740
  190Sol     OW 4079   1.659   1.681   4.803 -0.0651 -0.9527  0.6881
  190Sol     HW 4080   1.645   1.647   4.715 -0.9976  2.2271 -0.4448
  190Sol     HW 4081   1.577   1.663   4.849 -1.2219  1.2824 -0.4432
  190Sol     MW 4082   1.650   1.676   4.799 -0.1162 -0.4652  0.4228
  191Sol     OW 4083   2.941   2.878   1.985 -0.4096 -0.0112  0.1750
  191Sol     HW 4084   2.950   2.916   1.898  0.9447  0.0984  0.3481
  191Sol     HW 4085   3.031   2.857   2.011 -0.6930  0.9715  1.9946
  191Sol     MW 4086   2.950   2.880   1.980  0.4949  0.4756  0.4400
  192Sol     OW 4087   0.544   1.223   2.547 -0.2731  0.0102 -0.2584
  192Sol     HW 4088   0.465   1.182   2.511 -0.1944  0.5043 -1.0138
  192Sol     HW 4089   0.604   1.150   2.563 -0.8172 -0.3464  0.1325
  192Sol     MW 4090   0.542   1.213   2.545 -0.1742 -0.2720  0.3536
  193Sol     OW 4091   0.859   2.834   4.200 -0.2761 -0.0608 -0.1115
  193Sol     HW 4092   0.845   2.783   4.279  1.1309 -0.0918  0.1308
  193Sol     HW 4093   0.894   2.918   4.230  1.5607 -0.5681 -0.7543
  193Sol     MW 4094   0.861   2.837   4.209 -0.4487 -0.3634 -0.4006
  194Sol     OW 4095   2.020   1.890   8.636 -0.9787 -0.3026  0.0589
  194Sol     HW 4096   2.040   1.943   8.558 -2.1462 -1.4329 -1.0299
  194Sol     HW 4097   2.087   1.915   8.699  0.5691 -0.0281 -1.6386
  194Sol     MW 4098   2.028   1.897   8.635 -0.0958 -0.1317 -0.2777
  195Sol     OW 4099   2.130   1.259   9.447  0.5358 -0.5488 -0.0888
  195Sol     HW 4100   2.195   1.304   9.501 -1.1712 -1.2102  2.6199
  195Sol     HW 4101   2.087   1.329   9.398 -1.1080  0.7062  2.9956
  195Sol     MW 4102   2.132   1.269   9.447 -0.3664  0.3841  0.1192
  196Sol     OW 4103   2.504   1.880   4.171 -0.1727  0.5693 -0.0511
  196Sol     HW 4104   2.457   1.870   4.088  1.2580  2.4897 -1.1452
  196Sol     HW 4105   2.441   1.921   4.230 -0.7456  0.5478 -0.6466
  196Sol     MW 4106   2.494   1.883   4.169 -0.5253  0.3749 -0.2776
  197Sol     OW 4107   0.587   0.459   6.281  0.3399 -0.2143  0.0325
  197Sol     HW 4108   0.505   0.456   6.330  0.3956 -0.8173  0.0925
  197Sol     HW 4109   0.645   0.516   6.332  0.3564 -0.7427  0.5965
  197Sol     MW 4110   0.585   0.464   6.290 -0.2321  0.1132 -0.3437
  198Sol     OW 4111   2.073   0.254   2.029  0.3332  0.0102  0.3740
  198Sol     HW 4112   2.138   0.223   1.966  1.9111 -0.6063  2.2708
  198Sol     HW 4113   2.064   0.183   2.092 -2.3652 -0.0079  0.0545
  198Sol     MW 4114   2.078   0.245   2.029 -0.6235  0.1159 -0.1529
  199Sol     OW 4115   3.137   0.237   9.125 -0.1129  0.2525  0.7168
  199Sol     HW 4116   3.189   0.162   9.154 -0.1840  0.3534  1.1012
  199Sol     HW 4117   3.047   0.213   9.144 -0.3226 -0.4284 -1.0618
  199Sol     MW 4118   3.134   0.228   9.129  0.2927 -0.4847 -0.7718
  200Sol     OW 4119   1.670   3.164   3.475 -0.0004  0.1778 -0.0080
  200Sol     HW 4120   1.699   3.255   3.483  0.7396 -0.1412  1.1701
  200Sol     HW 4121   1.721   3.129   3.403 -0.4299  0.7436 -0.5984
  200Sol     MW 4122   1.677   3.169   3.469 -0.4539  0.4320  0.3940
  201Sol     OW 4123   2.955   2.836   6.612 -0.0853  0.3964  0.3041
  201Sol     HW 4124   2.996   2.904   6.559 -0.5319  0.6877  0.3358
  201Sol     HW 4125   2.903   2.785   6.550 -0.5029  0.6572  0.4382
  201Sol     MW 4126   2.954   2.837   6.601  0.1241  0.8244  0.0386
  202Sol     OW 4127   1.522   2.325   3.548 -0.1612 -0.3182 -0.0589
  202Sol     HW 4128   1.493   2.238   3.522 -0.9623 -0.3811  0.9776
  202Sol     HW 4129   1.452   2.356   3.607  1.0470  0.2386  1.1025
  202Sol     MW 4130   1.513   2.320   3.551  0.5851 -0.3448 -0.2410
  203Sol     OW 4131   2.932   2.390   3.591 -0.1559 -0.0319 -0.4362
  203Sol     HW 4132   2.872   2.355   3.525  0.5406  0.1951 -1.1995
  203Sol     HW 4133   3.017   2.393   3.546  0.4857 -0.6364  0.7315
  203Sol     MW 4134   2.934   2.387   3.581 -0.0060  0.0414 -0.0184
  204Sol     OW 4135   2.621   0.270   3.537  0.3145 -0.2668 -0.0871
  204Sol     HW 4136   2.571   0.330   3.593 -0.2471 -0.5942 -0.2295
  204Sol     HW 4137   2.640   0.195   3.594  2.2409  0.6597  0.5051
  204Sol     MW 4138   2.618   0.268   3.547  0.7501 -1.3578  0.4295
  205Sol     OW 4139   3.204   2.987   9.263  0.0532 -0.6815  0.2179
  205Sol     HW 4140   3.263   2.963   9.334 -0.5298 -0.3120  0.8242
  205Sol     HW 4141   3.206   2.912   9.203  1.2291 -0.6226  0.1745
  205Sol     MW 4142   3.210   2.978   9.264 -0.3684  0.5357  0.6156
  206Sol     OW 4143   1.958   0.320   3.528 -0.0882  0.4546 -0.5214
  206Sol     HW 4144   1.969   0.343   3.436 -1.1143 -1.0274 -1.0444
  206Sol     HW 4145   1.982   0.228   3.533  0.4116  0.6394  0.7912
  206Sol     MW 4146   1.961   0.314   3.521 -0.7463 -0.1744 -0.0944
  207Sol     OW 4147   1.521   1.447   7.597 -0.3556  0.2921  0.6501
  207Sol     HW 4148   1.598   1.504   7.607 -0.2683  0.0044  1.6340
  207Sol     HW 4149   1.535   1.404   7.513  0.2264  0.7512  0.5026
  207Sol     MW 4150   1.529   1.449   7.591 -0.1952  0.4783  0.7268
  208Sol     OW 4151   1.272   2.443   8.003 -0.0730  0.1481  0.3534
  208Sol     HW 4152   1.200   2.500   8.029 -0.0549  1.2291 -1.8155
  208Sol     HW 4153   1.313   2.416   8.086 -0.0866  3.2992  1.4629
  208Sol     MW 4154   1.270   2.446   8.013 -1.0260 -0.9536 -0.2757
  209Sol     OW 4155   2.371   1.834   8.535  0.4942  0.6237 -0.3512
  209Sol     HW 4156   2.339   1.796   8.453  1.2766  0.2691 -0.5019
  209Sol     HW 4157   2.457   1.869   8.513  1.4570 -0.9773  0.6995
  209Sol     MW 4158   2.376   1.834   8.526  0.4529 -0.2002 -0.2315
  210Sol     OW 4159   2.825   3.347   8.620 -0.0441  0.2780  0.0420
  210Sol     HW 4160   2.891   3.342   8.551  0.5796  1.3005  0.5556
  210Sol     HW 4161   2.869   3.390   8.693 -1.1673  0.6333  0.5302
  210Sol     MW 4162   2.834   3.350   8.620 -0.3266  0.8701  0.2117
  211Sol     OW 4163   0.381   0.455   6.601 -0.3400  0.0259 -0.1363
  211Sol     HW 4164   0.318   0.500   6.658  0.4126  1.0624 -0.0973
  211Sol     HW 4165   0.401   0.373   6.647 -0.1527  0.6043  0.8288
  211Sol     MW 4166   0.378   0.452   6.610  0.0487  1.0033  0.4044
  212Sol     OW 4167   3.172   1.271   6.740 -0.2637  0.4496 -0.3601
  212Sol     HW 4168   3.257   1.272   6.697 -0.8762  1.7214 -1.5862
  212Sol     HW 4169   3.136   1.184   6.721  0.5656  0.0762 -0.2205
  212Sol     MW 4170   3.176   1.263   6.734 -0.1545 -0.2367  0.6591
  213Sol     OW 4171   0.021   0.339   5.365 -0.0023 -0.4477  0.4927
  213Sol     HW 4172   0.098   0.392   5.346 -0.0261 -1.3334 -2.2804
  213Sol     HW 4173   0.055   0.250   5.372 -0.4192 -0.5021  1.9465
  213Sol     MW 4174   0.031   0.336   5.364  0.2475  0.2937  0.0450
  214Sol     OW 4175   0.772   1.127   3.604 -0.1053 -0.1640 -0.9697
  214Sol     HW 4176   0.752   1.082   3.522 -1.3252  1.8473 -1.8018
  214Sol     HW 4177   0.714   1.203   3.605 -1.1081 -0.8954  2.4267
  214Sol     MW 4178   0.765   1.130   3.596  0.2867  0.8225  0.0060
  215Sol     OW 4179   0.324   0.694   8.211 -0.1093 -0.3045 -0.0283
  215Sol     HW 4180   0.285   0.773   8.248 -1.2209 -1.3821  1.1687
  215Sol     HW 4181   0.407   0.683   8.258 -0.1158 -0.0387  0.0444
  215Sol     MW 4182   0.328   0.700   8.219  0.2476  0.1873 -1.4413
  216Sol     OW 4183   2.722   1.927   6.334  0.1214  0.2697  0.6967
  216Sol     HW 4184   2.647   1.880   6.298  0.2360  0.0749  0.7139
  216Sol     HW 4185   2.754   1.981   6.261 -0.5272  0.9591  0.9153
  216Sol     MW 4186   2.718   1.928   6.324  0.4214 -0.4714 -0.3638
  217Sol     OW 4187   1.790   1.393   7.851 -0.3082 -0.2020  0.0647
  217Sol     HW 4188   1.815   1.446   7.775  0.1245  1.6203  1.4381
  217Sol     HW 4189   1.716   1.439   7.890  0.5228 -0.1823  1.6871
  217Sol     MW 4190   1.786   1.402   7.848 -0.0059  0.3955  0.5950
  218Sol     OW 4191   3.211   3.179   1.942 -0.2642 -0.3113  0.1393
  218Sol     HW 4192   3.303   3.184   1.968  0.1235  2.4289 -1.4805
  218Sol     HW 4193   3.162   3.200   2.021  0.7106  2.9181 -0.0429
  218Sol     MW 4194   3.215   3.181   1.951  0.2869  0.4373 -0.9631
  219Sol     OW 4195   2.907   1.546   7.848 -0.5487  0.0286 -0.3085
  219Sol     HW 4196   2.999   1.570   7.852 -0.6626  0.5521 -0.7312
  219Sol     HW 4197   2.879   1.542   7.939  0.1406 -1.1341 -0.1379
  219Sol     MW 4198   2.912   1.548   7.856 -0.2560  0.7319  0.0748
  220Sol     OW 4199   1.525   1.008   4.666 -0.0073  0.1414 -0.4142
  220Sol     HW 4200   1.432   1.029   4.665  0.7319  3.5328 -1.0902
  220Sol     HW 4201   1.554   1.021   4.576  1.4135  0.5264  0.0881
  220Sol     MW 4202   1.519   1.011   4.658  0.5408  0.6500 -0.4119
  221Sol     OW 4203   1.510   3.412   4.691  0.2751  0.3986 -0.4254
  221Sol     HW 4204   1.415   3.405   4.680  0.0699  0.5302  1.0769
  221Sol     HW 4205   1.526   3.505   4.707  0.6122  0.3174 -0.2820
  221Sol     MW 4206   1.503   3.420   4.692  0.0371  0.0060 -0.2731
  222Sol     OW 4207   1.645   1.518   6.246 -0.3824 -0.3081 -0.3686
  222Sol     HW 4208   1.602   1.443   6.204  0.7070 -1.1538 -0.0022
  222Sol     HW 4209   1.599   1.529   6.329 -2.2445  1.0821 -1.5523
  222Sol     MW 4210   1.637   1.512   6.250  0.4498 -0.4258  0.7127
  223Sol     OW 4211   0.396   2.993   6.830 -0.2302 -0.6041 -0.1558
  223Sol     HW 4212   0.367   2.947   6.909  0.1413 -1.0186 -0.2585
  223Sol     HW 4213   0.376   3.085   6.847 -0.4918 -0.7366  0.2689
  223Sol     MW 4214   0.391   2.997   6.838 -0.4794 -0.0456  0.1058
  224Sol     OW 4215   3.114   1.603   7.268 -0.3085 -0.0457 -0.1321
  224Sol     HW 4216   3.025   1.631   7.292 -0.1223 -0.5738  1.2516
  224Sol     HW 4217   3.128   1.522   7.319  0.5700 -0.5473 -1.1507
  224Sol     MW 4218   3.107   1.598   7.275  0.3773  0.2807  0.1658
  225Sol     OW 4219   3.043   1.054   6.628  0.2859 -0.0022 -0.0372
  225Sol     HW 4220   3.044   1.006   6.546  0.3338  0.0264 -0.0535
  225Sol     HW 4221   2.951   1.059   6.653  0.2849 -0.1435 -0.0111
  225Sol     MW 4222   3.035   1.050   6.623  0.6714  0.0188  0.4088
  226Sol     OW 4223   2.201   2.336   4.430 -0.0892 -0.0302  0.4309
  226Sol     HW 4224   2.295   2.353   4.416  0.1230 -1.1457  0.4608
  226Sol     HW 4225   2.192   2.327   4.524 -0.2211  0.0281  0.4234
  226Sol     MW 4226   2.209   2.337   4.437  0.3813 -0.1349  0.9598
  227Sol     OW 4227   0.669   2.557   5.583  0.1032 -0.1383  0.0887
  227Sol     HW 4228   0.611   2.621   5.623  0.4244  0.2210 -0.0132
  227Sol     HW 4229   0.692   2.496   5.653 -0.1780 -0.1241  0.1914
  227Sol     MW 4230   0.666   2.557   5.593 -0.5657 -0.0200  0.0156
  228Sol     OW 4231   1.322   1.247   6.479  0.4628 -0.3310 -0.0125
  228Sol     HW 4232   1.245   1.200   6.447  0.5835 -0.6559  0.1754
  228Sol     HW 4233   1.294   1.283   6.564  0.8560 -1.3480  0.5582
  228Sol     MW 4234   1.313   1.246   6.484 -0.1211  0.3469  0.7394
  229Sol     OW 4235   0.568   0.490   5.995  0.2037 -0.3885  0.3527
  229Sol     HW 4236   0.520   0.407   5.999  1.9038 -1.3635  0.7053
  229Sol     HW 4237   0.588   0.510   6.087  0.5446 -0.0210  0.1968
  229Sol     MW 4238   0.565   0.484   6.004  0.6935 -0.0522 -0.1019
  230Sol     OW 4239   0.387   2.759   7.268  0.2177  0.3647  0.3374
  230Sol     HW 4240   0.314   2.743   7.328 -1.6367  1.0309 -1.6677
  230Sol     HW 4241   0.415   2.849   7.288  1.6969 -0.5013  2.3140
  230Sol     MW 4242   0.383   2.766   7.276 -0.7003  1.0277 -1.0310
  231Sol     OW 4243   0.493   2.355   5.494 -0.0157  0.2082  0.0452
  231Sol     HW 4244   0.546   2.320   5.422 -0.2377  2.8711 -1.4791
  231Sol     HW 4245   0.553   2.412   5.542 -0.5696  0.4918  0.4019
  231Sol     MW 4246   0.503   2.357   5.492 -0.6531  0.4202  0.8009
  232Sol     OW 4247   2.663   3.076   5.313 -0.8566 -0.1602  0.0707
  232Sol     HW 4248   2.659   3.057   5.407 -1.9417  0.5221  0.1666
  232Sol     HW 4249   2.740   3.131   5.304 -0.1988 -1.0050  0.4190
  232Sol     MW 4250   2.670   3.079   5.321 -0.4897  0.4446  0.3848
  233Sol     OW 4251   2.698   0.216   9.062  0.7369  0.0079 -0.3877
  233Sol     HW 4252   2.721   0.303   9.028 -0.1554 -0.4741 -2.2867
  233Sol     HW 4253   2.682   0.163   8.984 -0.5469 -1.3744  0.7760
  233Sol     MW 4254   2.699   0.219   9.052 -0.0998  0.4713 -0.2216
  234Sol     OW 4255   1.965   2.636   4.278 -0.9935  0.3072  0.1424
  234Sol     HW 4256   1.970   2.542   4.290  0.1276  0.1438 -1.4241
  234Sol     HW 4257   1.872   2.657   4.286 -1.0869 -0.7324  1.8168
  234Sol     MW 4258   1.957   2.630   4.280 -0.1779  0.4992  0.0853
  235Sol     OW 4259   0.633   3.362   5.488 -0.3377  0.1257 -0.2104
  235Sol     HW 4260   0.706   3.301   5.483 -1.0150 -0.6081 -1.4671
  235Sol     HW 4261   0.562   3.318   5.442 -1.2519  1.2818  0.0689
  235Sol     MW 4262   0.633   3.353   5.484 -0.5467 -0.8753 -0.7579
  236Sol     OW 4263   2.610   0.815   6.785 -0.4703 -0.6019 -0.2601
  236Sol     HW 4264   2.543   0.798   6.718  0.0943 -0.0753 -0.9665
  236Sol     HW 4265   2.597   0.906   6.810 -0.9450 -0.9148  0.6563
  236Sol     MW 4266   2.603   0.821   6.781  0.6931 -0.3546  0.0735
  237Sol     OW 4267   1.319   1.886   9.555  0.0612 -0.1295  0.3519
  237Sol     HW 4268   1.332   1.895   9.649  1.8866  0.9276  0.0071
  237Sol     HW 4269   1.313   1.792   9.540  1.4475 -0.3739  1.3057
  237Sol     MW 4270   1.319   1.878   9.562 -0.4841  0.4562  0.2470
  238Sol     OW 4271   0.571   3.083   5.778 -0.3408  0.3514 -0.3275
  238Sol     HW 4272   0.601   3.134   5.853  0.1267  3.4913 -2.5737
  238Sol     HW 4273   0.483   3.054   5.802  0.2402  0.2983  1.8742
  238Sol     MW 4274   0.566   3.085   5.787  0.1712 -0.4985 -0.3855
  239Sol     OW 4275   2.384   2.818   4.446  0.0127  0.1375  0.4179
  239Sol     HW 4276   2.439   2.740   4.452  1.3619  0.9691 -0.8449
  239Sol     HW 4277   2.358   2.822   4.354 -0.4674  0.9137  0.5801
  239Sol     MW 4278   2.386   2.812   4.438  0.2681  0.2380 -0.0648
  240Sol     OW 4279   1.433   1.216   5.438 -0.5989 -0.0779 -0.8333
  240Sol     HW 4280   1.404   1.236   5.527 -1.6393  1.1062 -1.4216
  240Sol     HW 4281   1.444   1.302   5.396  1.0370 -0.5963 -1.4804
  240Sol     MW 4282   1.431   1.226   5.442 -0.3801 -0.0546  0.0482
  241Sol     OW 4283   0.261   0.303   2.399  0.0980 -0.3652  0.5968
  241Sol     HW 4284   0.185   0.245   2.386  0.2105 -0.2123 -0.7739
  241Sol     HW 4285   0.324   0.275   2.333  0.1451  1.3487 -0.0905
  241Sol     MW 4286   0.260   0.295   2.392 -0.0873 -0.2831 -1.2142
  242Sol     OW 4287   0.555   1.428   6.941  0.2379 -0.3592 -0.3210
  242Sol     HW 4288   0.637   1.450   6.897  0.8422 -0.4499  0.7261
  242Sol     HW 4289   0.560   1.333   6.955  0.8254 -0.0863  1.4299
  242Sol     MW 4290   0.563   1.421   6.939 -0.0810  0.0859  0.2452
  243Sol     OW 4291   1.284   0.043   7.282  0.0185 -0.1438 -0.2196
  243Sol     HW 4292   1.194   0.075   7.288 -0.3147 -0.9657 -0.7443
  243Sol     HW 4293   1.327   0.103   7.221 -0.5209 -0.4965 -0.9558
  243Sol     MW 4294   1.280   0.051   7.277 -0.1626  0.4510 -0.0072
  244Sol     OW 4295   1.603   1.784   4.211 -0.1432 -0.3546 -0.1690
  244Sol     HW 4296   1.514   1.800   4.243 -0.1271  0.8929 -0.7031
  244Sol     HW 4297   1.653   1.860   4.242  0.5930 -0.7405 -0.4027
  244Sol     MW 4298   1.600   1.793   4.217 -0.5766  0.3352  0.2156
  245Sol     OW 4299   2.378   2.136   2.263  0.2888 -0.0708  0.0906
  245Sol     HW 4300   2.472   2.131   2.277  0.4684  1.9713 -0.1986
  245Sol     HW 4301   2.367   2.202   2.194 -1.4813  1.7020  1.9892
  245Sol     MW 4302   2.385   2.142   2.258  0.0244  0.2032 -0.2651
  246Sol     OW 4303   1.783   1.010   3.640  0.1705 -0.4416  0.4306
  246Sol     HW 4304   1.866   1.003   3.592 -0.7615 -3.3837 -0.8719
  246Sol     HW 4305   1.809   1.007   3.732  1.5523 -0.9164  0.0398
  246Sol     MW 4306   1.793   1.009   3.644 -0.4543 -0.6828  0.3676
  247Sol     OW 4307   2.683   0.442   7.277  0.0881 -0.1132  0.5183
  247Sol     HW 4308   2.685   0.447   7.182  0.0062  0.7319  0.5578
  247Sol     HW 4309   2.719   0.356   7.297  0.1036 -0.2968 -0.2747
  247Sol     MW 4310   2.686   0.435   7.270 -0.4441  0.1367  0.2704
  248Sol     OW 4311   0.606   3.161   2.067  0.1080  0.3367 -0.3495
  248Sol     HW 4312   0.627   3.068   2.054 -0.3288  0.1017  0.6064
  248Sol     HW 4313   0.671   3.208   2.015  0.9470 -0.4747 -0.0355
  248Sol     MW 4314   0.613   3.157   2.061  0.6794  0.5692  0.2054
  249Sol     OW 4315   1.591   3.183   4.043  0.3253  0.3126 -0.1565
  249Sol     HW 4316   1.673   3.175   4.091  0.5517  0.6807 -0.4857
  249Sol     HW 4317   1.580   3.099   3.998  1.0203  0.6248 -0.9148
  249Sol     MW 4318   1.597   3.175   4.043 -0.0644  0.2463 -0.2538
  250Sol     OW 4319   0.049   1.326   4.719 -0.1675  0.3508  0.1322
  250Sol     HW 4320   0.010   1.276   4.648  0.8320  0.0665 -0.2362
  250Sol     HW 4321   0.019   1.283   4.799  1.4301 -1.4554 -0.1931
  250Sol     MW 4322   0.043   1.318   4.720 -0.2221  0.1569  0.6415
  251Sol     OW 4323   1.652   0.284   9.420 -0.0457 -0.0314  0.1897
  251Sol     HW 4324   1.669   0.192   9.403  1.5959 -0.0725  1.8191
  251Sol     HW 4325   1.668   0.328   9.337  1.6746 -0.9113  0.0486
  251Sol     MW 4326   1.655   0.280   9.411 -0.1657  0.1222 -0.6501
  252Sol     OW 4327   2.005   0.072   5.082  0.4919 -0.2587  0.2497
  252Sol     HW 4328   1.998  -0.023   5.082 -1.1015 -0.1523 -0.7876
  252Sol     HW 4329   2.096   0.089   5.059  0.9070 -1.5272  0.9005
  252Sol     MW 4330   2.013   0.065   5.080 -0.0339  0.2585  0.2246
  253Sol     OW 4331   1.604   1.405   9.403  0.0623  0.2820  0.0520
  253Sol     HW 4332   1.607   1.341   9.474 -1.6573 -1.2259 -1.1705
  253Sol     HW 4333   1.528   1.460   9.423  0.4764  0.8088  0.1737
  253Sol     MW 4334   1.597   1.404   9.411  0.1989 -0.4037 -0.4439
  254Sol     OW 4335   0.143   1.573   2.179  0.3661 -0.1675 -0.2808
  254Sol     HW 4336   0.238   1.561   2.169  0.1946 -0.0965 -2.1542
  254Sol     HW 4337   0.129   1.666   2.160 -0.1505 -0.3102 -0.6016
  254Sol     MW 4338   0.151   1.581   2.176 -0.1491 -0.1026 -0.1608
  255Sol     OW 4339   0.291   2.848   8.779  0.3064 -0.3071  0.4297
  255Sol     HW 4340   0.241   2.919   8.739  1.3437  0.6378  0.8021
  255Sol     HW 4341   0.277   2.859   8.874  0.8631 -0.3144  0.5107
  255Sol     MW 4342   0.285   2.855   8.784 -0.2467  1.0366 -0.3048
  256Sol     OW 4343   1.085   2.003   8.010 -0.0544  0.2951  1.0628
  256Sol     HW 4344   1.172   2.028   7.980 -1.4749  1.6678 -2.0860
  256Sol     HW 4345   1.064   1.924   7.959 -0.7560  0.1310  1.5981
  256Sol     MW 4346   1.091   1.998   8.003  0.9147 -0.0702 -0.2872
  257Sol     OW 4347   0.516   0.697   4.619  0.5251 -0.4225  0.5577
  257Sol     HW 4348   0.471   0.695   4.535  0.4025  1.2418  0.5595
  257Sol     HW 4349   0.597   0.649   4.604 -0.4898 -2.0333  0.1086
  257Sol     MW 4350   0.519   0.693   4.610  0.2360 -0.7249  0.1606
  258Sol     OW 4351   0.076   2.941   6.496 -0.3285  0.1761  0.3257
  258Sol     HW 4352   0.084   2.932   6.590  1.5314 -1.8716 -0.0065
  258Sol     HW 4353  -0.010   2.903   6.475 -1.0925  1.3442  1.2400
  258Sol     MW 4354   0.069   2.937   6.502 -0.0238 -0.1309 -0.4589
  259Sol     OW 4355   2.302   2.042   2.017  0.5762 -0.8171 -0.1159
  259Sol     HW 4356   2.329   1.964   1.968  3.5952  1.2927 -1.9442
  259Sol     HW 4357   2.323   2.021   2.108  0.2286 -2.5620 -0.4150
  259Sol     MW 4358   2.306   2.033   2.021 -0.3729  0.3695  0.1669
  260Sol     OW 4359   3.149   1.088   3.882  0.5010  0.3963  0.7504
  260Sol     HW 4360   3.061   1.116   3.910 -0.1894 -1.0419  0.0703
  260Sol     HW 4361   3.177   1.026   3.950  0.1881 -0.5929 -0.0087
  260Sol     MW 4362   3.143   1.085   3.891 -0.8160 -0.1809  0.1523
  261Sol     OW 4363   3.283   1.003   8.566  0.5238  0.1696  0.3331
  261Sol     HW 4364   3.194   0.987   8.595 -0.5230  1.1097 -2.2206
  261Sol     HW 4365   3.337   0.987   8.643 -1.9431  0.6661  2.2117
  261Sol     MW 4366   3.280   1.000   8.575  0.2818 -0.3177  0.1315
  262Sol     OW 4367   2.239   1.234   3.726  0.7410 -0.0278  0.0883
  262Sol     HW 4368   2.264   1.197   3.641  0.9601  0.6569 -0.1517
  262Sol     HW 4369   2.321   1.265   3.763  0.1460  3.4534 -1.2923
  262Sol     MW 4370   2.248   1.234   3.722 -0.0822  0.3034 -0.0144
  263Sol     OW 4371   1.058   3.160   3.707  0.1169 -0.3096 -0.3307
  263Sol     HW 4372   0.963   3.144   3.709 -0.1027  0.9303 -0.1326
  263Sol     HW 4373   1.083   3.143   3.616 -0.4099 -0.0515 -0.5296
  263Sol     MW 4374   1.052   3.157   3.699  0.1520  0.2660 -0.1330
  264Sol     OW 4375   0.105   1.042   4.973  0.2818 -0.0474 -0.9608
  264Sol     HW 4376   0.049   1.115   4.945  0.4458  1.1496  1.7025
  264Sol     HW 4377   0.174   1.039   4.908  1.2819  3.3981 -0.1526
  264Sol     MW 4378   0.106   1.048   4.965 -0.0869 -0.0589 -0.0503
  265Sol     OW 4379   3.358   1.249   6.178  0.0068  0.2594 -0.5010
  265Sol     HW 4380   3.278   1.198   6.179 -0.1496  0.4063 -2.4879
  265Sol     HW 4381   3.420   1.196   6.127  0.7138  0.7967 -0.2226
  265Sol     MW 4382   3.357   1.240   6.173 -0.6444  0.0308 -0.3424
  266Sol     OW 4383   3.219   0.427   8.276  0.2651  0.4524 -0.3819
  266Sol     HW 4384   3.234   0.346   8.228 -1.7664 -0.1035 -0.1277
  266Sol     HW 4385   3.279   0.423   8.350 -1.0038 -1.6353  0.5583
  266Sol     MW 4386   3.226   0.420   8.278 -0.0014  0.2124 -0.3982
  267Sol     OW 4387   0.861   2.562   7.519 -0.3587 -0.1317  0.0873
  267Sol     HW 4388   0.766   2.574   7.525 -0.4571 -1.3863  1.2083
  267Sol     HW 4389   0.872   2.468   7.504  0.6567  0.2362 -1.6792
  267Sol     MW 4390   0.853   2.554   7.518 -0.2015 -0.6166 -0.1430
  268Sol     OW 4391   0.752   0.769   8.642  0.0008 -0.1665  0.4762
  268Sol     HW 4392   0.755   0.786   8.548 -0.2604 -2.3557  0.0579
  268Sol     HW 4393   0.659   0.759   8.661  0.1640 -1.2910  0.6840
  268Sol     MW 4394   0.744   0.770   8.635  0.2010  0.1316  0.2438
  269Sol     OW 4395   1.958   0.774   8.777  0.1132  0.3635 -0.2586
  269Sol     HW 4396   2.001   0.689   8.775  0.5592  0.5808  0.3253
  269Sol     HW 4397   1.884   0.762   8.837  0.5227  0.5619  0.2787
  269Sol     MW 4398   1.955   0.765   8.782 -0.1567  0.3872  0.6273
  270Sol     OW 4399   1.953   1.797   8.937  0.3442  0.0321  0.1831
  270Sol     HW 4400   2.021   1.739   8.904 -1.1777 -1.5817 -0.2279
  270Sol     HW 4401   1.905   1.826   8.859 -1.3660 -1.3649  0.6752
  270Sol     MW 4402   1.955   1.794   8.927 -0.3380 -0.3829 -0.2695
  271Sol     OW 4403   1.900   2.278   6.386  0.1103 -0.0265 -0.1744
  271Sol     HW 4404   1.846   2.291   6.308  0.1912 -0.8713 -0.3794
  271Sol     HW 4405   1.896   2.362   6.432  0.0359  0.4697 -1.0670
  271Sol     MW 4406   1.894   2.286   6.383  0.2712  0.1470 -0.1349
  272Sol     OW 4407   2.748   0.056   4.748 -0.0206  0.2236 -0.2320
  272Sol     HW 4408   2.704  -0.024   4.776 -0.6563  0.9468  0.9025
  272Sol     HW 4409   2.827   0.027   4.705 -0.8765 -1.0594 -0.9556
  272Sol     MW 4410   2.751   0.047   4.747 -0.2679  0.1802  0.1217
  273Sol     OW 4411   0.019   2.536   5.082 -0.0480 -0.3174 -0.1057
  273Sol     HW 4412  -0.069   2.521   5.117 -0.1921  0.2743 -0.2056
  273Sol     HW 4413   0.029   2.631   5.084  0.5258 -0.3767 -0.2555
  273Sol     MW 4414   0.012   2.543   5.085 -0.1086 -0.5974 -0.2712
  274Sol     OW 4415   2.922   2.318   9.178 -0.6541  0.4618 -0.2427
  274Sol     HW 4416   3.016   2.334   9.180 -0.5259 -0.2091 -0.6228
  274Sol     HW 4417   2.910   2.250   9.111 -1.3449  0.1657  0.1680
  274Sol     MW 4418   2.929   2.313   9.172  0.8509 -0.0803 -1.0942
  275Sol     OW 4419   1.563   3.396   2.350  0.0562 -0.0971 -0.4638
  275Sol     HW 4420   1.509   3.464   2.390  0.0356  0.7956 -1.9689
  275Sol     HW 4421   1.638   3.387   2.409 -0.2944  0.7382  0.1153
  275Sol     MW 4422   1.565   3.401   2.359  0.0626  0.0945 -0.1586
  276Sol     OW 4423   0.796   1.506   6.855 -0.2142 -0.6126  0.6072
  276Sol     HW 4424   0.849   1.468   6.924  1.3281  0.4108  0.0177
  276Sol     HW 4425   0.821   1.458   6.776 -0.5461 -0.4901  0.4239
  276Sol     MW 4426   0.803   1.499   6.854 -0.1958  0.1954 -0.0778
  277Sol     OW 4427   2.326   2.106   4.865  0.0483 -0.0571 -0.5991
  277Sol     HW 4428   2.239   2.084   4.897 -1.2542  2.1064 -2.5501
  277Sol     HW 4429   2.365   2.021   4.843 -1.9713 -0.9646 -0.7930
  277Sol     MW 4430   2.322   2.096   4.866  0.6657  0.0558  0.2596
  278Sol     OW 4431   0.259   1.410   2.581  0.5260 -0.3802 -0.0870
  278Sol     HW 4432   0.169   1.413   2.551  0.7664 -0.2502 -0.8046
  278Sol     HW 4433   0.307   1.465   2.519  0.7392  1.3796  1.6071
  278Sol     MW 4434   0.256   1.415   2.573 -0.1093 -0.6194 -0.0373
  279Sol     OW 4435   0.708   1.328   7.335 -0.7427 -0.2515 -0.2590
  279Sol     HW 4436   0.721   1.406   7.388 -0.0552 -0.6135  0.1052
  279Sol     HW 4437   0.636   1.282   7.378  0.0949 -0.7599  0.6165
  279Sol     MW 4438   0.703   1.331   7.343 -0.1391 -0.8508  0.2887
  280Sol     OW 4439   0.490   1.477   3.783  0.1021  0.0806  0.3009
  280Sol     HW 4440   0.480   1.556   3.730 -1.0408  0.9116  1.7443
  280Sol     HW 4441   0.402   1.459   3.816  0.9153 -0.0380  2.4762
  280Sol     MW 4442   0.481   1.482   3.781 -0.5519  0.1245  0.2826
  281Sol     OW 4443   2.147   2.451   2.481 -0.3708  0.4300  0.1814
  281Sol     HW 4444   2.067   2.401   2.498  0.6360 -1.4062 -0.3774
  281Sol     HW 4445   2.218   2.397   2.516  1.0989 -0.3031 -3.6738
  281Sol     MW 4446   2.146   2.442   2.485 -0.1544 -0.3433 -0.4604
  282Sol     OW 4447   1.996   1.432   4.362  0.4005 -0.0532  0.0511
  282Sol     HW 4448   2.016   1.467   4.449  1.9139  1.3960 -0.8407
  282Sol     HW 4449   1.966   1.343   4.378  1.1099  0.0362  2.0257
  282Sol     MW 4450   1.995   1.427   4.371  0.4878 -0.7701 -0.6287
  283Sol     OW 4451   3.275   3.140   2.314 -0.0866  0.8482  0.2786
  283Sol     HW 4452   3.222   3.182   2.381  0.2649 -1.0925  1.7842
  283Sol     HW 4453   3.228   3.158   2.232 -0.9666  2.4858  1.1205
  283Sol     MW 4454   3.266   3.146   2.312 -0.0843 -0.4313 -0.5022
  284Sol     OW 4455   0.602   2.612   7.511 -0.1829 -0.2002  0.0226
  284Sol     HW 4456   0.541   2.541   7.529 -0.9248  0.4270  0.0163
  284Sol     HW 4457   0.600   2.666   7.590 -1.6483  1.2592 -0.9647
  284Sol     MW 4458   0.596   2.610   7.520  0.5365  0.8663 -0.2805
  285Sol     OW 4459   3.062   3.373   4.853  0.0300  0.2682 -0.1896
  285Sol     HW 4460   3.086   3.282   4.832  1.8660  0.7323 -0.1639
  285Sol     HW 4461   3.013   3.366   4.935 -1.6093 -0.9090 -1.2537
  285Sol     MW 4462   3.060   3.364   4.859 -0.1020  0.4031 -0.0072
  286Sol     OW 4463   2.703   0.025   8.856 -0.1495  0.0217  0.1312
  286Sol     HW 4464   2.795   0.050   8.859 -0.6655  2.0872 -0.2740
  286Sol     HW 4465   2.703  -0.069   8.872  1.9521  0.1428  1.0059
  286Sol     MW 4466   2.711   0.019   8.857  0.3173 -0.4240 -0.2028
  287Sol     OW 4467   2.916   3.093   7.837 -0.3156  0.1467 -0.5560
  287Sol     HW 4468   2.834   3.044   7.847 -0.0814 -0.6236 -2.3149
  287Sol     HW 4469   2.956   3.057   7.758  0.1567  2.7489 -1.5471
  287Sol     MW 4470   2.912   3.086   7.831 -0.3033  0.1099 -0.9039
  288Sol     OW 4471   2.166   1.837   6.290 -0.0570 -0.1919  0.1257
  288Sol     HW 4472   2.143   1.794   6.373 -0.7521 -0.7474 -0.3500
  288Sol     HW 4473   2.085   1.837   6.240  0.7123 -1.1350 -1.1344
  288Sol     MW 4474   2.157   1.833   6.293 -0.5733  0.5270  0.4818
  289Sol     OW 4475   2.670   0.771   8.716  0.5461  0.1025  0.0050
  289Sol     HW 4476   2.721   0.713   8.659 -0.6404 -0.3683 -0.5789
  289Sol     HW 4477   2.671   0.856   8.670  0.7062  0.0699 -0.0550
  289Sol     MW 4478   2.675   0.774   8.707  0.0355 -0.5598 -0.1946
  290Sol     OW 4479   2.063   1.410   8.885  0.6266  0.1599 -0.6395
  290Sol     HW 4480   1.980   1.449   8.913 -0.0358  0.1779 -2.5612
  290Sol     HW 4481   2.129   1.477   8.903 -0.0095  0.7740 -0.5812
  290Sol     MW 4482   2.061   1.419   8.889  0.1427 -0.3570 -0.5876
  291Sol     OW 4483   2.259   1.971   7.428 -0.2164  0.2172 -0.2587
  291Sol     HW 4484   2.300   1.977   7.342  1.3910 -2.0014  0.2983
  291Sol     HW 4485   2.302   1.896   7.470 -0.4140  1.7196  2.7706
  291Sol     MW 4486   2.267   1.965   7.424  0.4934  0.6775  0.4655
  292Sol     OW 4487   0.304   1.888   5.265 -0.4728  0.2328  0.7394
  292Sol     HW 4488   0.339   1.867   5.179  0.9964 -1.8264  1.8002
  292Sol     HW 4489   0.351   1.967   5.292  1.5997 -1.0807  1.0917
  292Sol     MW 4490   0.311   1.893   5.260 -0.0971 -0.1699  0.0354
  293Sol     OW 4491   1.114   1.363   8.173 -0.3211 -0.1551 -0.2457
  293Sol     HW 4492   1.200   1.406   8.181 -0.9210  1.1481 -0.6429
  293Sol     HW 4493   1.125   1.302   8.100 -0.1883  1.1694 -1.3542
  293Sol     MW 4494   1.123   1.362   8.167  0.7017  0.1316  0.2278
  294Sol     OW 4495   3.320   0.411   9.473  0.4566 -0.2061 -0.2691
  294Sol     HW 4496   3.383   0.457   9.529 -0.8665 -0.8180  1.8006
  294Sol     HW 4497   3.257   0.478   9.447 -0.7482 -0.5184  1.6927
  294Sol     MW 4498   3.320   0.421   9.476 -0.2058 -0.4997 -0.1943
  295Sol     OW 4499   0.791   0.386   2.909 -0.1965  0.5659  0.0875
  295Sol     HW 4500   0.828   0.310   2.864 -0.5088 -2.3672  4.4923
  295Sol     HW 4501   0.867   0.428   2.950 -0.6925 -0.9212  2.6246
  295Sol     MW 4502   0.801   0.383   2.909  0.0025 -0.0957 -0.0596
  296Sol     OW 4503   2.479   0.352   6.158  0.5982 -0.9878  0.2147
  296Sol     HW 4504   2.461   0.285   6.093  2.5173 -1.7830  0.4687
  296Sol     HW 4505   2.422   0.330   6.232  0.6749 -1.8972  0.0009
  296Sol     MW 4506   2.473   0.344   6.159  0.2538 -0.3847  0.0231
  297Sol     OW 4507   0.602   0.473   3.938 -0.3783 -0.3473  0.1273
  297Sol     HW 4508   0.553   0.501   4.016 -1.7825 -0.9421 -0.5355
  297Sol     HW 4509   0.549   0.403   3.900 -0.1068  0.4592 -1.8017
  297Sol     MW 4510   0.593   0.469   3.942 -0.6226 -0.6402 -0.1516
  298Sol     OW 4511   0.325   0.680   2.092 -0.2375  0.1971 -0.4335
  298Sol     HW 4512   0.264   0.710   2.159  0.7918  2.1039 -0.3350
  298Sol     HW 4513   0.281   0.701   2.009 -0.0664  0.8424 -0.3616
  298Sol     MW 4514   0.315   0.685   2.091 -0.3120 -0.3216  0.3727
  299Sol     OW 4515   1.933   0.326   9.099  0.3244  0.5490 -0.2634
  299Sol     HW 4516   1.928   0.253   9.160 -0.6463  1.1777  0.4219
  299Sol     HW 4517   1.915   0.404   9.152  2.3351  1.4036 -0.7630
  299Sol     MW 4518   1.931   0.327   9.109 -0.2532  0.3151 -0.3543
  300Sol     OW 4519   1.355   0.159   4.992  0.0220  0.0753 -0.9130
  300Sol     HW 4520   1.280   0.175   5.050 -0.4181 -0.5234 -1.3084
  300Sol     HW 4521   1.315   0.142   4.907  0.4845 -2.7309 -0.6098
  300Sol     MW 4522   1.344   0.159   4.989  0.3812 -0.6798 -0.0467
  301Sol     OW 4523   2.191   2.645   8.867 -0.2809  0.2276  0.5933
  301Sol     HW 4524   2.260   2.710   8.855 -0.4919  0.3094 -0.2629
  301Sol     HW 4525   2.208   2.607   8.953  0.8537  0.2168  0.3751
  301Sol     MW 4526   2.199   2.647   8.873 -0.7509  0.1102 -0.0541
  302Sol     OW 4527   0.287   2.008   2.910  0.5960 -0.1878 -0.5032
  302Sol     HW 4528   0.372   2.046   2.934  0.1348  0.1259  0.6358
  302Sol     HW 4529   0.240   2.079   2.866  0.9340 -0.3706 -1.1635
  302Sol     MW 4530   0.291   2.018   2.908 -0.9616 -0.0953  0.4109
  303Sol     OW 4531   1.695   2.124   6.482 -0.3196 -0.1031  0.3242
  303Sol     HW 4532   1.704   2.031   6.462  0.3260 -0.1999  1.0056
  303Sol     HW 4533   1.765   2.166   6.433 -0.3358 -0.0290  0.3651
  303Sol     MW 4534   1.702   2.119   6.476  0.2288  0.9485  0.1182
  304Sol     OW 4535   0.279   0.075   3.954  0.5898  0.2096 -0.1769
  304Sol     HW 4536   0.188   0.103   3.961 -0.4234 -2.7830 -0.3877
  304Sol     HW 4537   0.311   0.076   4.044  0.3390  1.2869 -0.1007
  304Sol     MW 4538   0.274   0.077   3.963  0.4246  0.0592 -0.1339
  305Sol     OW 4539   3.086   2.470   6.539  0.1354 -0.4578  0.3406
  305Sol     HW 4540   3.083   2.494   6.446  1.5718 -0.1681  0.3675
  305Sol     HW 4541   3.114   2.550   6.584  1.6937 -1.2324  0.7746
  305Sol     MW 4542   3.088   2.480   6.535 -0.8612 -0.1116  0.4486
  306Sol     OW 4543   0.186   3.061   3.659 -0.2458  0.1782  0.3834
  306Sol     HW 4544   0.132   3.027   3.730 -0.3179  0.5191  0.4939
  306Sol     HW 4545   0.179   2.996   3.589 -0.1466 -0.1726  0.7003
  306Sol     MW 4546   0.181   3.052   3.659  0.4191 -0.1871 -0.3937
  307Sol     OW 4547   3.265   1.438   8.790  0.1070  0.1216 -0.0337
  307Sol     HW 4548   3.265   1.343   8.795  0.0804  0.0794 -0.7893
  307Sol     HW 4549   3.335   1.465   8.848 -0.5603 -0.3125  0.9885
  307Sol     MW 4550   3.271   1.432   8.795  0.0560  0.2358 -0.0474
  308Sol     OW 4551   1.577   1.620   8.926 -0.2037 -0.0183 -0.5925
  308Sol     HW 4552   1.596   1.639   9.018  0.7967 -0.9068 -0.6105
  308Sol     HW 4553   1.486   1.589   8.927  0.3555 -1.7409  0.3620
  308Sol     MW 4554   1.570   1.619   8.935 -0.6866 -0.1555  1.0111
  309Sol     OW 4555   1.166   2.047   7.597  0.5567 -0.2891  0.5961
  309Sol     HW 4556   1.085   2.003   7.623 -0.5400  0.8975 -0.7259
  309Sol     HW 4557   1.140   2.107   7.527  2.7441 -0.5592 -0.5116
  309Sol     MW 4558   1.157   2.049   7.593  0.6698 -0.4087  0.2452
  310Sol     OW 4559   2.763   2.315   9.426  0.3911 -0.0910 -0.0570
  310Sol     HW 4560   2.823   2.318   9.351 -0.1865 -0.1843 -0.5340
  310Sol     HW 4561   2.677   2.296   9.386 -0.0333  0.5030  0.5648
  310Sol     MW 4562   2.760   2.314   9.415  0.2554 -0.1574 -0.0718
  311Sol     OW 4563   1.742   2.642   6.218  0.0262 -0.1894 -0.2148
  311Sol     HW 4564   1.694   2.561   6.201  1.4431 -1.3337  1.0343
  311Sol     HW 4565   1.826   2.629   6.174  0.8770 -0.1013  1.3314
  311Sol     MW 4566   1.745   2.633   6.213  0.4091 -0.5284  0.2017
  312Sol     OW 4567   0.044   0.203   4.006  0.1231 -0.2544  0.3473
  312Sol     HW 4568  -0.015   0.234   3.937  0.6373  1.1549  0.5361
  312Sol     HW 4569  -0.011   0.199   4.085 -0.5489 -2.1927 -0.2024
  312Sol     MW 4570   0.034   0.205   4.007  0.1062  0.2143 -0.0474
  313Sol     OW 4571   1.897   3.365   2.303 -0.2440  0.1192 -0.0414
  313Sol     HW 4572   1.918   3.324   2.387  1.6565 -0.6240 -0.8502
  313Sol     HW 4573   1.982   3.388   2.266 -1.2122  4.7259  0.3017
  313Sol     MW 4574   1.907   3.363   2.308 -0.3653 -0.0974 -0.1195
  314Sol     OW 4575   1.916   2.236   4.665 -0.2643  0.2239  0.0069
  314Sol     HW 4576   1.860   2.246   4.743  1.4546 -0.5055  1.3755
  314Sol     HW 4577   1.871   2.170   4.612 -1.4347  0.6879  0.3992
  314Sol     MW 4578   1.907   2.231   4.667 -0.5285 -0.2399  0.3279
  315Sol     OW 4579   1.368   0.267   8.372 -0.1480  0.0767 -0.3267
  315Sol     HW 4580   1.442   0.233   8.422  0.0797 -0.6698 -1.1690
  315Sol     HW 4581   1.367   0.361   8.393  0.3397 -0.1058  0.5596
  315Sol     MW 4582   1.374   0.272   8.379  0.6656  0.3382 -0.1667
  316Sol     OW 4583   1.887   1.441   6.782 -0.2172 -0.0935 -0.7162
  316Sol     HW 4584   1.898   1.451   6.687  0.1122 -0.0169 -0.6707
  316Sol     HW 4585   1.889   1.531   6.815 -0.2064 -0.1274 -0.6258
  316Sol     MW 4586   1.889   1.450   6.776 -0.4738 -0.5881  0.1254
  317Sol     OW 4587   1.034   1.296   6.190  0.1786 -0.2102 -0.2236
  317Sol     HW 4588   1.107   1.317   6.132  0.2949  1.8489  0.6230
  317Sol     HW 4589   1.069   1.232   6.251  0.5628 -1.0560 -1.3204
  317Sol     MW 4590   1.043   1.292   6.190  0.4054  0.2310  0.9468
  318Sol     OW 4591   3.110   0.327   2.086 -0.0716  0.2872 -0.0666
  318Sol     HW 4592   3.188   0.289   2.046  0.3342  1.7030 -0.6468
  318Sol     HW 4593   3.131   0.334   2.179 -0.2091 -1.0433  0.0669
  318Sol     MW 4594   3.119   0.324   2.091 -0.2191  0.4586 -0.1049
  319Sol     OW 4595   0.127   1.782   9.517 -0.3883 -0.2706  0.0076
  319Sol     HW 4596   0.117   1.832   9.598 -1.3374 -0.9854  0.3404
  319Sol     HW 4597   0.073   1.704   9.530 -2.0523  0.5007 -2.0382
  319Sol     MW 4598   0.121   1.779   9.525  0.5066  0.4429 -0.2452
  320Sol     OW 4599   0.653   3.040   2.548  0.0391  0.3760 -0.0093
  320Sol     HW 4600   0.629   3.067   2.637  1.0951  1.0334  0.0919
  320Sol     HW 4601   0.734   2.990   2.560 -0.1333 -0.0309 -0.5433
  320Sol     MW 4602   0.659   3.038   2.557 -0.1420  0.1456  0.7880
  321Sol     OW 4603   1.849   2.406   7.535 -0.0089  0.5678 -0.2544
  321Sol     HW 4604   1.942   2.402   7.555 -0.2383 -0.6398  0.6368
  321Sol     HW 4605   1.843   2.461   7.457  1.3125  1.7829  0.4885
  321Sol     MW 4606   1.856   2.411   7.530  0.3195  0.2991  0.9195
  322Sol     OW 4607   2.155   0.620   8.343 -0.0243  0.4774  0.2174
  322Sol     HW 4608   2.126   0.576   8.423  1.2848  2.3999  1.7923
  322Sol     HW 4609   2.125   0.711   8.354  1.8993  1.2262 -0.5414
  322Sol     MW 4610   2.149   0.625   8.351 -0.2811 -0.8692  0.7898
  323Sol     OW 4611   0.316   2.230   7.897 -0.4148 -0.0907 -0.1238
  323Sol     HW 4612   0.272   2.247   7.814 -0.2703  0.4057 -0.1068
  323Sol     HW 4613   0.246   2.216   7.960 -0.5037 -2.1603 -0.6619
  323Sol     MW 4614   0.306   2.231   7.895 -0.1370 -0.1870 -0.5389
  324Sol     OW 4615   3.221   1.501   6.151 -0.7071 -0.5415 -0.3021
  324Sol     HW 4616   3.196   1.505   6.243 -0.8216 -1.4509 -0.2891
  324Sol     HW 4617   3.293   1.438   6.149  0.0954  0.3739 -0.6605
  324Sol     MW 4618   3.226   1.496   6.159  0.4864 -0.0259  0.9265
  325Sol     OW 4619   0.115   1.838   2.097 -0.0208 -0.2474 -0.1390
  325Sol     HW 4620   0.142   1.852   2.006 -2.3031 -0.8681 -0.9289
  325Sol     HW 4621   0.054   1.910   2.115  0.0541 -0.4039  0.7515
  325Sol     MW 4622   0.112   1.846   2.090  0.1453  0.0422 -0.4889
  326Sol     OW 4623   2.421   1.376   6.694 -0.2345  0.6291 -0.1245
  326Sol     HW 4624   2.442   1.391   6.786  1.4958  0.4821 -0.4749
  326Sol     HW 4625   2.427   1.462   6.653 -0.2963  0.5794 -0.2390
  326Sol     MW 4626   2.423   1.385   6.699  0.3066 -0.1586 -0.3842
  327Sol     OW 4627   1.876   0.135   4.515  0.5349  0.0020  0.0787
  327Sol     HW 4628   1.820   0.059   4.498  1.5403 -1.2480  2.1676
  327Sol     HW 4629   1.816   0.203   4.545 -0.2253 -0.3761 -0.5704
  327Sol     MW 4630   1.865   0.134   4.516 -0.1718  0.3739 -0.5513
  328Sol     OW 4631   0.457   2.511   3.186 -0.2079 -0.7092 -0.0131
  328Sol     HW 4632   0.478   2.585   3.129 -3.4681 -1.5026 -2.3631
  328Sol     HW 4633   0.500   2.436   3.145 -0.1147 -0.7776  0.2105
  328Sol     MW 4634   0.463   2.511   3.177 -0.6635  0.7141  0.0842
  329Sol     OW 4635   0.931   0.220   5.605  0.0695 -0.7040  0.5247
  329Sol     HW 4636   0.928   0.213   5.510  0.8283  1.3277  0.3284
  329Sol     HW 4637   0.994   0.289   5.622 -2.2151  0.9930  2.4129
  329Sol     MW 4638   0.936   0.225   5.598  0.0936  0.4209 -0.5488
  330Sol     OW 4639   0.890   1.738   4.764  0.2670 -0.0840 -0.3254
  330Sol     HW 4640   0.968   1.759   4.815  1.3364 -0.5094 -1.7505
  330Sol     HW 4641   0.922   1.730   4.674 -1.6966  1.4477 -1.1941
  330Sol     MW 4642   0.900   1.739   4.761  0.0838 -0.7933  0.0524
  331Sol     OW 4643   0.570   0.943   3.972  0.1123  0.2512 -0.5727
  331Sol     HW 4644   0.505   0.877   3.948  2.3577 -2.4152  0.4208
  331Sol     HW 4645   0.593   0.922   4.063  2.1051  1.3158 -0.8013
  331Sol     MW 4646   0.566   0.935   3.978 -0.1444  0.5879 -0.4725
  332Sol     OW 4647   1.219   2.749   3.481 -0.0699  0.1271 -0.2472
  332Sol     HW 4648   1.222   2.659   3.449  0.8432  0.2196 -0.4250
  332Sol     HW 4649   1.178   2.743   3.567  0.4336 -0.5189 -0.0523
  332Sol     MW 4650   1.215   2.741   3.485 -0.2083  0.1746 -0.1935
  333Sol     OW 4651   1.623   1.812   6.758  0.2210 -0.9760  0.2999
  333Sol     HW 4652   1.605   1.892   6.807  0.2304 -1.0932  0.4953
  333Sol     HW 4653   1.584   1.827   6.672  0.8817 -0.4581  0.0842
  333Sol     MW 4654   1.618   1.820   6.755 -0.3090 -0.0338 -0.0002
  334Sol     OW 4655   2.310   0.595   6.695 -0.0887 -0.0500 -0.4267
  334Sol     HW 4656   2.251   0.665   6.723  1.1400  0.4976  0.8678
  334Sol     HW 4657   2.254   0.518   6.687 -0.8656  0.2894  1.4290
  334Sol     MW 4658   2.300   0.595   6.696  0.3478  0.5811  0.1162
  335Sol     OW 4659   0.162   0.824   7.985 -0.0241 -0.3624  0.3926
  335Sol     HW 4660   0.234   0.887   7.992  0.2810 -0.5093 -1.3132
  335Sol     HW 4661   0.204   0.738   7.988 -0.3234 -0.4813  1.4119
  335Sol     MW 4662   0.172   0.822   7.986  0.1243  0.1312 -0.5834
  336Sol     OW 4663   2.004   1.189   9.049  0.4655 -0.5861 -0.1689
  336Sol     HW 4664   1.929   1.208   9.106 -1.7991 -2.5929 -2.3650
  336Sol     HW 4665   2.028   1.274   9.012 -1.7444 -0.1340 -0.6198
  336Sol     MW 4666   1.999   1.198   9.050  1.1022 -0.4506 -0.8516
  337Sol     OW 4667   3.067   3.264   3.675  0.2812  0.7685 -0.1511
  337Sol     HW 4668   3.126   3.203   3.631  1.3195  1.3295  0.4726
  337Sol     HW 4669   3.085   3.349   3.633  0.2659  1.0326  0.3811
  337Sol     MW 4670   3.074   3.266   3.667 -0.7012  0.0179 -0.0792
  338Sol     OW 4671   2.948   1.243   4.723  0.5023  0.0772 -0.2421
  338Sol     HW 4672   3.000   1.322   4.739 -0.0523  0.7694 -1.7003
  338Sol     HW 4673   2.974   1.216   4.635 -0.7511 -0.2315 -0.5226
  338Sol     MW 4674   2.955   1.248   4.716 -0.2235  0.0544 -0.1969
  339Sol     OW 4675   0.228   2.610   4.333 -0.4543 -0.0622  0.0795
  339Sol     HW 4676   0.208   2.567   4.250 -0.4042 -0.4875  0.2863
  339Sol     HW 4677   0.323   2.602   4.341 -0.6312 -1.4047  0.9293
  339Sol     MW 4678   0.235   2.606   4.326 -0.1199 -1.2386 -0.3435
  340Sol     OW 4679   1.238   3.116   2.911 -0.1719  0.3367  0.1710
  340Sol     HW 4680   1.162   3.124   2.854  0.7299 -1.1733 -1.3162
  340Sol     HW 4681   1.244   3.022   2.930 -0.8233  0.8989  3.3087
  340Sol     MW 4682   1.232   3.108   2.907 -0.2026 -0.3105  0.4632
  341Sol     OW 4683   2.289   2.810   4.195  0.3123 -0.0656  0.1938
  341Sol     HW 4684   2.333   2.853   4.121 -0.0326  1.4687  0.8556
  341Sol     HW 4685   2.199   2.845   4.192 -0.4051 -1.8748 -0.1229
  341Sol     MW 4686   2.285   2.817   4.188 -0.7462 -0.5924 -0.1679
  342Sol     OW 4687   1.499   0.466   3.403 -0.2478  0.5922 -1.0705
  342Sol     HW 4688   1.533   0.457   3.314 -1.7343 -2.5553 -1.4019
  342Sol     HW 4689   1.550   0.404   3.455 -1.4476  0.1788 -0.3623
  342Sol     MW 4690   1.506   0.460   3.400  0.2232 -0.3918  0.8849
  343Sol     OW 4691   1.099   0.061   5.082 -0.1068  0.4884 -0.0582
  343Sol     HW 4692   1.112  -0.016   5.027  1.1686  0.5232  0.2004
  343Sol     HW 4693   1.067   0.026   5.166 -1.3364  0.3861 -0.5526
  343Sol     MW 4694   1.097   0.051   5.085 -0.0985 -0.5575  0.1760
  344Sol     OW 4695   1.133   0.966   2.065  0.4438  0.0887 -0.5763
  344Sol     HW 4696   1.223   0.986   2.092  0.3603  0.9563 -0.9313
  344Sol     HW 4697   1.122   0.872   2.085  1.2840  0.0783 -0.1488
  344Sol     MW 4698   1.140   0.959   2.069 -0.1000 -0.2696  0.1666
  345Sol     OW 4699   1.708   2.452   5.963  0.1584 -0.6297 -0.4398
  345Sol     HW 4700   1.625   2.441   5.916  0.5128  1.3664 -1.5683
  345Sol     HW 4701   1.753   2.523   5.917  1.8905 -0.7473  1.0173
  345Sol     MW 4702   1.704   2.457   5.955  0.4735 -0.1505 -0.1494
  346Sol     OW 4703   2.242   0.060   5.653 -0.1333 -0.6306 -0.1001
  346Sol     HW 4704   2.172  -0.004   5.641  0.6486 -1.5423  0.1924
  346Sol     HW 4705   2.206   0.124   5.715 -0.4538 -1.4730  0.5886
  346Sol     MW 4706   2.232   0.060   5.657 -0.0568  0.1018 -0.2222
  347Sol     OW 4707   1.132   2.448   4.271 -0.3244  0.4877 -0.3458
  347Sol     HW 4708   1.223   2.447   4.303 -0.4460 -0.1842 -0.0040
  347Sol     HW 4709   1.131   2.515   4.203  0.4678  0.3846 -0.4629
  347Sol     MW 4710   1.140   2.454   4.268 -0.6491  1.0271 -1.0144
  348Sol     OW 4711   2.386   0.085   5.961  0.1280 -0.4891 -0.0024
  348Sol     HW 4712   2.318   0.128   6.013 -0.0096  0.5774 -1.0517
  348Sol     HW 4713   2.338   0.029   5.900  0.1415  0.8982 -1.3078
  348Sol     MW 4714   2.376   0.084   5.960  0.6582 -0.2821  0.5778
  349Sol     OW 4715   0.108   0.904   3.603  0.1300 -0.0166  0.4758
  349Sol     HW 4716   0.118   0.999   3.599 -1.9539  0.1786 -0.8566
  349Sol     HW 4717   0.167   0.871   3.534 -1.8921  0.5740 -1.5916
  349Sol     MW 4718   0.114   0.909   3.596 -0.3781  0.2095 -0.8452
  350Sol     OW 4719   3.070   3.332   3.091  0.7743  0.0579 -1.0043
  350Sol     HW 4720   3.143   3.270   3.087  0.7086 -0.2554  1.6485
  350Sol     HW 4721   3.106   3.407   3.138 -1.2069 -1.0603  2.4782
  350Sol     MW 4722   3.080   3.333   3.095  0.2883 -0.4143 -0.2184
  351Sol     OW 4723   1.399   3.112   3.561 -0.3936 -0.1088  0.8111
  351Sol     HW 4724   1.492   3.108   3.535 -0.0878 -0.9009  1.9916
  351Sol     HW 4725   1.382   3.205   3.574 -0.4717  0.2950 -1.8688
  351Sol     MW 4726   1.406   3.120   3.560 -0.0225  0.0133 -0.5143
  352Sol     OW 4727   2.575   3.375   1.689 -0.0962  0.2441 -0.0346
  352Sol     HW 4728   2.549   3.370   1.780 -0.7800 -0.8843 -0.2830
  352Sol     HW 4729   2.499   3.344   1.640  1.0907 -1.4228 -0.8622
  352Sol     MW 4730   2.566   3.372   1.692 -0.1614  0.1890 -0.3853
  353Sol     OW 4731   2.986   2.585   8.560 -0.1128 -0.3855  0.2365
  353Sol     HW 4732   3.008   2.659   8.617 -0.3547 -0.5032  0.4846
  353Sol     HW 4733   3.025   2.608   8.475  2.0423 -1.1605  0.9831
  353Sol     MW 4734   2.991   2.594   8.557  0.0424 -0.6834 -0.2942
  354Sol     OW 4735   0.586   0.580   9.376  1.1871  0.5846  0.2357
  354Sol     HW 4736   0.517   0.611   9.435  0.0474 -1.3427 -0.0633
  354Sol     HW 4737   0.571   0.628   9.294  0.1271  0.0685  0.1263
  354Sol     MW 4738   0.578   0.587   9.374 -0.5841  0.6457  0.6253
  355Sol     OW 4739   2.490   2.870   6.038  0.2876  0.2746 -0.1696
  355Sol     HW 4740   2.424   2.842   5.974  3.0872 -0.2495 -2.9645
  355Sol     HW 4741   2.530   2.789   6.067  0.8555  0.6997  0.2330
  355Sol     MW 4742   2.487   2.860   6.035 -0.1148 -0.4380 -0.1130
  356Sol     OW 4743   2.932   1.771   7.560 -0.4098 -0.0961  0.0973
  356Sol     HW 4744   2.977   1.687   7.576 -1.6559 -0.6596  0.6951
  356Sol     HW 4745   2.873   1.781   7.634 -1.6421  0.3970 -0.9368
  356Sol     MW 4746   2.931   1.764   7.568 -0.6978  0.1339  0.2641
  357Sol     OW 4747   2.654   0.202   4.991 -0.7622 -0.6654  0.1607
  357Sol     HW 4748   2.682   0.160   4.910 -0.6146 -1.1797  0.4699
  357Sol     HW 4749   2.699   0.152   5.060  0.0918  0.5505  0.4936
  357Sol     MW 4750   2.661   0.193   4.990 -0.1543  0.0164  0.5816
  358Sol     OW 4751   0.932   1.213   7.229  0.2442  0.2503  0.2624
  358Sol     HW 4752   0.965   1.273   7.162 -1.1337  0.6624 -0.0650
  358Sol     HW 4753   0.849   1.253   7.257  0.5464 -0.2050  1.8188
  358Sol     MW 4754   0.927   1.222   7.225 -0.3679 -0.0869 -0.0580
  359Sol     OW 4755   1.516   2.573   7.480 -0.0807  0.1157  0.3506
  359Sol     HW 4756   1.426   2.595   7.503  0.1911  0.0361  1.4860
  359Sol     HW 4757   1.523   2.595   7.387 -1.5054 -0.6047  0.0620
  359Sol     MW 4758   1.509   2.577   7.474  0.0984 -0.8117 -0.5543
  360Sol     OW 4759   2.430   2.262   3.113 -0.1259 -0.6122  0.2153
  360Sol     HW 4760   2.403   2.324   3.181 -3.0516 -0.4054 -1.0848
  360Sol     HW 4761   2.496   2.207   3.157  0.7800  1.8337  2.0914
  360Sol     MW 4762   2.434   2.263   3.123  0.7892  0.4008 -0.0015
  361Sol     OW 4763   1.281   1.429   3.282  0.6659  0.0489  0.2481
  361Sol     HW 4764   1.222   1.358   3.307 -0.8109  0.5082 -1.8068
  361Sol     HW 4765   1.301   1.474   3.365 -1.4250 -0.4530  1.0498
  361Sol     MW 4766   1.278   1.426   3.292  0.9243  0.2368 -0.4198
  362Sol     OW 4767   1.255   3.437   2.793 -0.5040 -0.1876  0.5479
  362Sol     HW 4768   1.268   3.355   2.840  1.1243 -1.3137 -1.7980
  362Sol     HW 4769   1.228   3.411   2.705  1.3570  1.7384 -0.6308
  362Sol     MW 4770   1.254   3.427   2.789 -0.4640 -0.6826 -0.4725
  363Sol     OW 4771   2.112   2.661   3.162 -0.4475 -0.4983  0.4298
  363Sol     HW 4772   2.121   2.714   3.241 -2.1305  0.6129 -0.0923
  363Sol     HW 4773   2.161   2.709   3.094 -1.1851 -0.0881  0.1825
  363Sol     MW 4774   2.117   2.670   3.163 -0.1962 -0.3555  0.0179
  364Sol     OW 4775   1.959   1.052   8.770 -0.2244 -0.0358  0.0676
  364Sol     HW 4776   1.921   1.078   8.854  0.1019  0.5429  0.0330
  364Sol     HW 4777   1.960   0.956   8.774 -1.0296 -0.0390  0.3622
  364Sol     MW 4778   1.955   1.046   8.778 -0.0162 -0.2912  0.4677
  365Sol     OW 4779   3.153   0.919   4.324  0.4096 -0.1401  0.8311
  365Sol     HW 4780   3.132   1.013   4.322  0.7863 -0.0652 -0.1571
  365Sol     HW 4781   3.174   0.901   4.415 -1.1090  0.4181  1.3115
  365Sol     MW 4782   3.153   0.926   4.332  0.2041 -0.4076  0.0605
  366Sol     OW 4783   2.796   2.670   2.090 -0.1927  0.0194  0.1139
  366Sol     HW 4784   2.820   2.671   2.183  0.7439  3.2833 -0.1015
  366Sol     HW 4785   2.848   2.741   2.052 -2.1143  0.0492 -2.5148
  366Sol     MW 4786   2.803   2.676   2.095 -1.0857  0.3289 -0.1510
  367Sol     OW 4787   2.445   0.779   3.635  0.2411 -0.4811  0.1714
  367Sol     HW 4788   2.516   0.718   3.616  0.5890 -0.4021  1.1564
  367Sol     HW 4789   2.445   0.786   3.731  0.1119  0.9374  0.0842
  367Sol     MW 4790   2.451   0.774   3.642 -0.0774 -0.1739 -0.6247
  368Sol     OW 4791   0.289   2.984   3.304  0.6272 -0.1912 -0.4524
  368Sol     HW 4792   0.212   2.927   3.305  0.8537 -0.5426 -1.7472
  368Sol     HW 4793   0.317   2.985   3.212  1.5062  0.8242 -0.1897
  368Sol     MW 4794   0.285   2.979   3.296 -0.9567  0.3108 -0.6614
  369Sol     OW 4795   1.850   2.710   7.903 -0.1019 -0.1204 -0.5752
  369Sol     HW 4796   1.827   2.620   7.880  1.7423 -0.7836  0.0356
  369Sol     HW 4797   1.777   2.741   7.956 -0.5630 -1.4192 -0.4327
  369Sol     MW 4798   1.842   2.705   7.906 -0.8659  0.2309 -0.5432
  370Sol     OW 4799   2.118   3.408   8.944 -0.4205 -0.0776 -0.6181
  370Sol     HW 4800   2.209   3.400   8.972 -0.7968  0.2820  0.7432
  370Sol     HW 4801   2.067   3.384   9.021 -1.4842  0.3305 -1.1855
  370Sol     MW 4802   2.121   3.405   8.953  0.4812  0.2388  0.0187
  371Sol     OW 4803   0.134   0.160   8.405 -0.1434 -0.3532  0.1938
  371Sol     HW 4804   0.185   0.235   8.435  0.2682 -1.8218  3.3261
  371Sol     HW 4805   0.194   0.086   8.410 -0.9506 -1.1459 -1.4966
  371Sol     MW 4806   0.144   0.160   8.408  0.6016 -0.2927  0.1217
  372Sol     OW 4807   0.719   2.481   1.924 -0.1091 -0.5280  0.4476
  372Sol     HW 4808   0.806   2.504   1.957  0.1218  0.0729 -0.5575
  372Sol     HW 4809   0.731   2.396   1.882  0.5531  0.7142 -1.9082
  372Sol     MW 4810   0.728   2.475   1.923  0.8189  1.0537 -0.1133
  373Sol     OW 4811   2.545   2.898   3.723 -0.0956  0.5525  0.0032
  373Sol     HW 4812   2.533   2.824   3.663 -1.6858 -0.4354  1.5110
  373Sol     HW 4813   2.538   2.976   3.668 -1.1527 -0.3542 -1.1446
  373Sol     MW 4814   2.544   2.898   3.713 -0.1418 -0.4375 -0.3892
  374Sol     OW 4815   2.806   2.094   8.527  0.1870  0.0274  0.2124
  374Sol     HW 4816   2.880   2.035   8.541 -0.1521 -0.5120 -0.2540
  374Sol     HW 4817   2.824   2.169   8.584  0.7709 -0.3887  0.5809
  374Sol     MW 4818   2.814   2.095   8.533  0.7613 -0.2261 -0.2724
  375Sol     OW 4819   2.933   0.948   3.215 -0.7970  0.0139 -0.1358
  375Sol     HW 4820   2.878   0.869   3.222 -1.0698  0.1921 -0.2495
  375Sol     HW 4821   2.901   0.992   3.136 -0.8101  0.3655  0.0661
  375Sol     MW 4822   2.925   0.944   3.208 -0.6314  0.1680 -0.4095
  376Sol     OW 4823   2.617   0.381   3.890  0.2470 -0.1647 -0.0698
  376Sol     HW 4824   2.546   0.399   3.828  0.1118 -2.0594 -0.4977
  376Sol     HW 4825   2.638   0.466   3.928 -3.8670  0.0920  1.8132
  376Sol     MW 4826   2.613   0.391   3.887  0.1645 -0.5472 -0.3049
  377Sol     OW 4827   0.312   1.974   2.251 -0.1275  0.1815 -0.0332
  377Sol     HW 4828   0.396   1.960   2.208  0.7273 -0.5298  1.8097
  377Sol     HW 4829   0.249   1.928   2.196  0.6601  0.7839 -1.4672
  377Sol     MW 4830   0.314   1.969   2.242  0.0897 -0.4547 -0.7582
  378Sol     OW 4831   1.680   0.598   4.780  0.2645  0.1960  0.2740
  378Sol     HW 4832   1.634   0.656   4.719  2.3210  0.9254 -0.6351
  378Sol     HW 4833   1.750   0.653   4.816 -0.6158 -0.3878  2.9056
  378Sol     MW 4834   1.683   0.608   4.777  0.5978 -0.1943 -0.6494
  379Sol     OW 4835   2.773   3.100   3.959  0.1801 -0.9767 -0.1433
  379Sol     HW 4836   2.702   3.102   4.023 -0.0655  0.7983 -0.4413
  379Sol     HW 4837   2.851   3.119   4.010  0.3125 -1.9203  0.0144
  379Sol     MW 4838   2.774   3.102   3.969 -0.5779 -0.6924  0.3405
  380Sol     OW 4839   1.475   1.690   3.313 -1.0843 -0.1453  0.0508
  380Sol     HW 4840   1.432   1.657   3.234  0.9418 -2.1127 -0.2635
  380Sol     HW 4841   1.569   1.678   3.297 -0.5512  0.9669  2.0979
  380Sol     MW 4842   1.480   1.686   3.304  0.1762 -0.2013 -0.9284
  381Sol     OW 4843   1.116   0.811   3.019  0.1738  0.2080  0.5240
  381Sol     HW 4844   1.167   0.849   3.091  1.4154 -0.1207 -0.1528
  381Sol     HW 4845   1.135   0.867   2.944 -2.0583  1.2549  0.7045
  381Sol     MW 4846   1.123   0.819   3.019  0.7899  0.5271 -0.0976
  382Sol     OW 4847   3.253   2.723   9.150  0.0870 -0.2408  0.3005
  382Sol     HW 4848   3.192   2.681   9.211  1.2926  0.2131  1.8613
  382Sol     HW 4849   3.279   2.653   9.090 -0.8834 -0.7739  0.4959
  382Sol     MW 4850   3.250   2.713   9.150  0.2983 -0.2450  0.1848
  383Sol     OW 4851   0.301   0.215   2.017 -0.0278 -0.7950 -0.1224
  383Sol     HW 4852   0.214   0.178   2.030  0.5208 -1.3661  2.1810
  383Sol     HW 4853   0.357   0.138   2.001  0.2362 -0.5264 -0.4865
  383Sol     MW 4854   0.298   0.204   2.017 -0.3146 -0.2060 -0.6843
  384Sol     OW 4855   2.382   0.055   2.300  0.2244 -0.0105 -0.0550
  384Sol     HW 4856   2.419   0.130   2.254 -1.7080  0.4326 -0.9258
  384Sol     HW 4857   2.326   0.093   2.367 -1.1180 -0.6522 -0.7924
  384Sol     MW 4858   2.380   0.065   2.301  0.3229 -0.4306  0.0784
  385Sol     OW 4859   2.944   2.084   7.875 -0.2319 -0.5723  0.2235
  385Sol     HW 4860   2.898   2.161   7.841  0.4669  1.7237  4.2369
  385Sol     HW 4861   2.874   2.025   7.902 -0.8134  0.3867  0.8580
  385Sol     MW 4862   2.934   2.086   7.874  0.4011  0.1035 -0.4426
  386Sol     OW 4863   0.697   1.487   6.425 -0.7430 -0.4149 -0.0664
  386Sol     HW 4864   0.722   1.448   6.509 -1.2435  0.6126  0.5793
  386Sol     HW 4865   0.601   1.491   6.428 -0.6708  2.3337  0.6053
  386Sol     MW 4866   0.691   1.484   6.433  0.1435 -0.0265 -0.5517
  387Sol     OW 4867   0.177   1.364   7.755  0.2138 -0.6494 -0.2382
  387Sol     HW 4868   0.101   1.317   7.788 -1.7297  2.4203 -0.1772
  387Sol     HW 4869   0.148   1.404   7.674  2.3738 -0.9967 -1.2323
  387Sol     MW 4870   0.168   1.364   7.751  0.2428 -0.0860 -0.1320
  388Sol     OW 4871   0.618   2.924   5.242 -0.5421  0.1698  0.0289
  388Sol     HW 4872   0.670   2.965   5.172 -2.7544  1.8493 -0.6985
  388Sol     HW 4873   0.562   2.861   5.197 -0.6964 -0.0366  0.5071
  388Sol     MW 4874   0.617   2.922   5.232 -0.8715 -0.3669  0.3615
  389Sol     OW 4875   0.421   2.878   7.840 -0.2761 -0.4624 -0.2595
  389Sol     HW 4876   0.409   2.931   7.918 -1.0146 -2.3243  0.9145
  389Sol     HW 4877   0.510   2.899   7.810 -0.0317  0.3241  1.0099
  389Sol     MW 4878   0.428   2.884   7.844 -0.2249  0.2538 -0.3146
  390Sol     OW 4879   3.162   0.402   5.497 -0.6669 -0.2678  0.0192
  390Sol     HW 4880   3.239   0.370   5.450 -2.3152 -2.2760 -1.3874
  390Sol     HW 4881   3.157   0.347   5.576  0.1065  0.8045  0.8423
  390Sol     MW 4882   3.169   0.394   5.500  0.3230 -0.0804  0.1243
  391Sol     OW 4883   3.369   2.125   1.813  0.5362 -0.2372 -0.0679
  391Sol     HW 4884   3.448   2.071   1.807 -0.7966 -2.0617 -2.2280
  391Sol     HW 4885   3.299   2.069   1.779 -1.5569  1.6211  1.0417
  391Sol     MW 4886   3.370   2.115   1.809  0.1552  0.0028 -0.2092
  392Sol     OW 4887   0.472   1.717   6.228  0.3327  0.0263 -0.0181
  392Sol     HW 4888   0.460   1.789   6.167 -0.0294  0.6612  0.7889
  392Sol     HW 4889   0.392   1.665   6.221 -0.0237  0.5041  0.4361
  392Sol     MW 4890   0.464   1.719   6.222  1.0119 -0.1128  0.1382
  393Sol     OW 4891   2.860   0.639   2.601  0.5810  0.1260 -0.2655
  393Sol     HW 4892   2.901   0.647   2.515  0.7722  0.8974 -0.1087
  393Sol     HW 4893   2.858   0.729   2.635  0.4420 -0.1632  0.5022
  393Sol     MW 4894   2.863   0.648   2.596 -0.6696  0.2635  0.2932
  394Sol     OW 4895   3.050   2.064   3.776  0.1233  0.4760  0.0760
  394Sol     HW 4896   2.972   2.087   3.725 -2.4948  0.1231  3.7054
  394Sol     HW 4897   3.038   1.972   3.797 -0.1166  1.1835  3.2889
  394Sol     MW 4898   3.042   2.058   3.773 -0.4616  0.9038 -0.5100
  395Sol     OW 4899   3.248   3.223   5.953 -0.0782  0.1889 -0.0620
  395Sol     HW 4900   3.318   3.210   6.017  0.8584 -1.3447 -1.3620
  395Sol     HW 4901   3.230   3.317   5.955  2.0751  0.6097  0.2433
  395Sol     MW 4902   3.252   3.230   5.959  0.2084 -0.1601 -0.0085
  396Sol     OW 4903   0.498   2.672   4.333  0.0971 -0.2325 -0.0089
  396Sol     HW 4904   0.460   2.751   4.295  1.8768  1.0468  0.7960
  396Sol     HW 4905   0.536   2.625   4.259  0.1400  0.3122 -0.3309
  396Sol     MW 4906   0.498   2.675   4.323 -0.5887  0.2747  0.1051
  397Sol     OW 4907   1.502   2.365   8.755 -0.0601 -0.2967  0.0981
  397Sol     HW 4908   1.571   2.410   8.804  0.1264 -0.5872  0.1053
  397Sol     HW 4909   1.460   2.308   8.820  0.3693 -0.8900 -0.1358
  397Sol     MW 4910   1.504   2.363   8.765  0.0961  0.1820  0.7404
  398Sol     OW 4911   0.762   2.815   6.502 -0.2907  0.3358  0.1218
  398Sol     HW 4912   0.714   2.829   6.583 -0.5580  0.6105 -0.0862
  398Sol     HW 4913   0.770   2.720   6.495  1.9878  0.3528  1.7996
  398Sol     MW 4914   0.759   2.807   6.509  0.2519  0.1548  0.3597
  399Sol     OW 4915   3.173   2.242   6.280 -0.6638  0.0912 -0.0184
  399Sol     HW 4916   3.170   2.242   6.184 -0.9710  0.6694 -0.0136
  399Sol     HW 4917   3.100   2.185   6.306 -0.5025 -0.1651 -0.1307
  399Sol     MW 4918   3.166   2.237   6.274 -0.4050  0.3094  0.0147
  400Sol     OW 4919   1.823   0.730   9.568  0.2226 -0.2573  1.0180
  400Sol     HW 4920   1.875   0.724   9.648  0.8138 -2.0278  0.5161
  400Sol     HW 4921   1.760   0.659   9.575 -1.8330  1.5444  1.3706
  400Sol     MW 4922   1.822   0.723   9.576  0.1044  0.7653  0.5900
  401Sol     OW 4923   2.987   0.730   5.252  0.5997 -0.5166 -0.2364
  401Sol     HW 4924   2.977   0.673   5.329  0.8089 -0.0871  0.1101
  401Sol     HW 4925   2.961   0.817   5.283  0.5264 -0.3708 -0.6984
  401Sol     MW 4926   2.984   0.732   5.262  0.1888 -0.0964 -0.2076
  402Sol     OW 4927   3.001   0.871   7.328  0.1042  0.1170 -0.0502
  402Sol     HW 4928   2.976   0.815   7.254  1.2989  1.0970 -1.2283
  402Sol     HW 4929   2.942   0.846   7.399  0.0166 -1.9912 -0.8344
  402Sol     MW 4930   2.994   0.864   7.328  0.0338  0.7235  0.0534
  403Sol     OW 4931   1.910   3.315   3.913 -0.1959  0.0871 -0.4871
  403Sol     HW 4932   1.958   3.335   3.833  0.4640  0.4330 -0.0100
  403Sol     HW 4933   1.928   3.222   3.929 -0.9254 -0.1782 -1.1276
  403Sol     MW 4934   1.916   3.308   3.907 -0.3193  0.0935 -0.2544
  404Sol     OW 4935   0.907   0.133   4.200 -0.4363 -0.4253 -0.2551
  404Sol     HW 4936   0.834   0.154   4.143  0.1793  0.1283 -0.8467
  404Sol     HW 4937   0.868   0.083   4.272 -1.3902 -0.1052 -0.5480
  404Sol     MW 4938   0.897   0.130   4.201 -0.8711  0.5178  0.3308
  405Sol     OW 4939   1.409   1.225   2.146 -0.0965  0.4576 -0.1392
  405Sol     HW 4940   1.415   1.153   2.083  1.0296  0.6383 -0.2609
  405Sol     HW 4941   1.370   1.297   2.096 -0.6643  0.1159 -0.1877
  405Sol     MW 4942   1.406   1.225   2.136  0.4968  0.1331 -0.6892
  406Sol     OW 4943   0.025   1.925   7.934 -0.0138  0.2325 -0.6066
  406Sol     HW 4944  -0.001   1.934   7.842 -1.0066  0.0943 -0.3443
  406Sol     HW 4945  -0.033   1.984   7.981  0.2405  0.0196 -0.0196
  406Sol     MW 4946   0.018   1.931   7.930  0.2304 -0.0890 -0.2114
  407Sol     OW 4947   0.675   1.406   3.574  0.6306 -0.7259 -0.1268
  407Sol     HW 4948   0.717   1.482   3.535  1.8247 -1.3212  0.0009
  407Sol     HW 4949   0.617   1.442   3.641  0.6072  0.1177 -0.6001
  407Sol     MW 4950   0.673   1.416   3.576  0.6883 -0.4557 -0.3594
  408Sol     OW 4951   3.336   1.682   5.190 -0.8498 -0.7241 -0.5413
  408Sol     HW 4952   3.304   1.734   5.264  0.4698 -2.1990  1.0986
  408Sol     HW 4953   3.269   1.693   5.123 -2.5129 -0.0731  1.1808
  408Sol     MW 4954   3.327   1.688   5.191  0.0652 -0.2534 -0.4834
  409Sol     OW 4955   1.152   0.328   4.512  0.6932 -0.1938  1.0013
  409Sol     HW 4956   1.068   0.299   4.550 -0.8613  0.9122 -1.4421
  409Sol     HW 4957   1.193   0.247   4.482 -0.9713 -0.5174 -0.5536
  409Sol     MW 4958   1.148   0.318   4.512  0.2130 -1.2848  0.0768
  410Sol     OW 4959   1.773   3.135   2.999  0.1480 -0.4059 -0.0618
  410Sol     HW 4960   1.742   3.224   2.987  0.7696 -0.3867 -1.6787
  410Sol     HW 4961   1.868   3.141   2.992  0.2666 -1.0105  1.0407
  410Sol     MW 4962   1.779   3.143   2.997  0.4882 -0.0450  0.0013
  411Sol     OW 4963   1.123   1.860   5.803  0.5269  0.7002  1.3616
  411Sol     HW 4964   1.040   1.904   5.788  1.1076  1.6975  0.9918
  411Sol     HW 4965   1.158   1.844   5.715  0.7585  0.3506  1.5139
  411Sol     MW 4966   1.119   1.862   5.794 -0.0552  0.4254  0.1150
  412Sol     OW 4967   0.797   1.953   6.998 -0.1777 -0.1404  0.1659
  412Sol     HW 4968   0.710   1.969   7.035 -0.3284 -0.7200  0.0627
  412Sol     HW 4969   0.781   1.900   6.920  0.2596 -0.1656  0.0910
  412Sol     MW 4970   0.788   1.950   6.994  0.7008 -0.3933  0.0093
  413Sol     OW 4971   0.109   1.097   5.982  0.6286 -0.2301  0.5272
  413Sol     HW 4972   0.180   1.037   5.960  0.5550 -0.2459  0.3327
  413Sol     HW 4973   0.045   1.086   5.912  0.7283  0.2505  0.3561
  413Sol     MW 4974   0.110   1.091   5.974  0.6087 -0.7455 -0.8933
  414Sol     OW 4975   2.618   3.059   4.188 -0.6194 -0.2537 -0.2346
  414Sol     HW 4976   2.649   2.992   4.249 -3.1518  1.1864  2.7648
  414Sol     HW 4977   2.643   3.142   4.228 -1.3011  0.7124 -1.7670
  414Sol     MW 4978   2.623   3.060   4.197  0.6276 -0.5434  0.5289
  415Sol     OW 4979   1.253   3.258   4.417  0.5651  0.2177 -0.0497
  415Sol     HW 4980   1.342   3.224   4.427 -0.1246 -1.4630  0.5738
  415Sol     HW 4981   1.201   3.208   4.480 -0.8687  0.9936 -0.6018
  415Sol     MW 4982   1.257   3.251   4.423 -0.2218 -0.4212  0.2700
  416Sol     OW 4983   1.565   2.716   7.230 -0.4357 -0.0078  0.5066
  416Sol     HW 4984   1.622   2.739   7.156 -0.7025  1.0370  0.6185
  416Sol     HW 4985   1.502   2.788   7.235 -0.8615 -0.4292  1.3080
  416Sol     MW 4986   1.565   2.724   7.224  0.5133  0.1304 -0.4633
  417Sol     OW 4987   1.392   2.505   7.720 -0.0126 -0.7179 -0.0687
  417Sol     HW 4988   1.486   2.522   7.722 -0.1813  0.1816  1.6494
  417Sol     HW 4989   1.366   2.506   7.812 -2.0474  1.1895 -0.6200
  417Sol     MW 4990   1.398   2.507   7.728 -0.3400 -0.0731  0.2546
  418Sol     OW 4991   0.301   1.064   4.797  0.3560 -0.6750  0.2002
  418Sol     HW 4992   0.256   1.101   4.722 -2.4976  2.0983  3.0982
  418Sol     HW 4993   0.382   1.115   4.804 -0.3679  0.5008  0.2068
  418Sol     MW 4994   0.304   1.072   4.791  0.2122  0.3767  0.8760
  419Sol     OW 4995   3.244   2.227   6.818  0.1805 -0.0154  0.1508
  419Sol     HW 4996   3.338   2.211   6.808 -0.0768 -1.4195 -0.1373
  419Sol     HW 4997   3.239   2.311   6.864  1.5754  0.1158  0.0869
  419Sol     MW 4998   3.252   2.233   6.822 -0.4692 -0.3673 -0.9109
  420Sol     OW 4999   1.865   1.357   5.609  0.1139 -0.3133  0.2266
  420Sol     HW 5000   1.905   1.400   5.685  0.9041 -0.5134 -0.0703
  420Sol     HW 5001   1.771   1.362   5.625  0.2366  0.7561  0.6087
  420Sol     MW 5002   1.860   1.361   5.617 -0.1145  0.2656  1.0369
  421Sol     OW 5003   2.229   1.074   9.256  0.0503 -0.2905 -0.3879
  421Sol     HW 5004   2.193   1.121   9.331  1.0748 -0.5158  0.2545
  421Sol     HW 5005   2.154   1.061   9.198 -0.9268 -0.8926  0.9814
  421Sol     MW 5006   2.219   1.077   9.258  0.0688 -0.1099 -0.6375
  422Sol     OW 5007   1.833   0.641   2.128 -0.2058  0.6792 -0.4421
  422Sol     HW 5008   1.834   0.552   2.095 -0.1078  0.4922  0.0520
  422Sol     HW 5009   1.876   0.635   2.213  0.1078  1.2567 -0.5589
  422Sol     MW 5010   1.837   0.633   2.133  0.0362  0.2029 -0.3842
  423Sol     OW 5011   0.065   0.110   2.333 -0.0373  0.4629 -0.4715
  423Sol     HW 5012   0.089   0.018   2.336 -2.3288 -0.1322  0.7016
  423Sol     HW 5013  -0.017   0.115   2.382  0.5930  3.2922  0.3872
  423Sol     MW 5014   0.060   0.102   2.338 -0.2478 -0.0914 -0.3158
  424Sol     OW 5015   3.057   0.032   3.508 -0.1707 -0.3348 -0.0861
  424Sol     HW 5016   2.975   0.007   3.466 -0.3626  0.4462 -0.1776
  424Sol     HW 5017   3.031   0.087   3.581  0.3598  1.5290 -1.2646
  424Sol     MW 5018   3.047   0.035   3.511 -1.3599 -0.0156  0.6755
  425Sol     OW 5019   0.691   1.422   2.458  0.3242  0.0952 -0.1287
  425Sol     HW 5020   0.716   1.391   2.371  1.7550 -1.7851  0.9149
  425Sol     HW 5021   0.638   1.351   2.494 -0.1309  0.7917  0.5876
  425Sol     MW 5022   0.689   1.413   2.454 -0.4358  0.0992 -0.7116
  426Sol     OW 5023   1.120   2.432   2.328 -0.4801  0.4074  0.3919
  426Sol     HW 5024   1.039   2.381   2.327  0.0240 -0.3991  0.2767
  426Sol     HW 5025   1.091   2.523   2.339 -1.3865  0.1051  0.5469
  426Sol     MW 5026   1.110   2.435   2.329  0.5601  0.5326  0.2322
  427Sol     OW 5027   0.542   2.904   3.377 -0.5413  0.0162 -0.2697
  427Sol     HW 5028   0.448   2.904   3.360 -0.7113 -0.5357  0.6178
  427Sol     HW 5029   0.561   2.815   3.405  0.3019  0.0497 -0.7206
  427Sol     MW 5030   0.536   2.896   3.378 -0.2026 -0.7585 -0.0565
  428Sol     OW 5031   0.771   0.128   7.657  0.1047  0.1698  0.1690
  428Sol     HW 5032   0.758   0.223   7.656  2.3286  0.5065  1.3252
  428Sol     HW 5033   0.852   0.114   7.608  0.5726 -0.9956  1.2431
  428Sol     MW 5034   0.777   0.135   7.652 -0.5282 -0.5527  0.8381
  429Sol     OW 5035   0.801   1.830   8.300 -1.0955 -0.2530 -0.3360
  429Sol     HW 5036   0.720   1.860   8.342 -0.9041 -0.6540  0.3484
  429Sol     HW 5037   0.840   1.908   8.262 -1.0496  0.2088  0.6416
  429Sol     MW 5038   0.797   1.839   8.301 -0.4695  0.1358  0.4004
  430Sol     OW 5039   1.199   2.985   6.457  0.5338  0.0162 -0.4614
  430Sol     HW 5040   1.233   2.939   6.533  2.3376 -1.0428 -1.8579
  430Sol     HW 5041   1.127   3.038   6.491  0.6953 -1.1485  1.7918
  430Sol     MW 5042   1.195   2.986   6.467 -0.2640  0.1247  0.0220
  431Sol     OW 5043   0.413   0.461   1.709 -0.2970  0.1138  0.1532
  431Sol     HW 5044   0.331   0.413   1.719  0.3071 -0.8298  0.6495
  431Sol     HW 5045   0.387   0.553   1.711 -1.2898 -0.1703  0.7251
  431Sol     MW 5046   0.403   0.465   1.710 -0.5682  0.1835  0.1266
  432Sol     OW 5047   1.594   0.074   5.084  0.1043 -0.5612  0.0445
  432Sol     HW 5048   1.508   0.116   5.078  0.4577 -0.1053 -2.7616
  432Sol     HW 5049   1.579  -0.015   5.053  0.3727 -0.9539  1.0156
  432Sol     MW 5050   1.585   0.070   5.081 -0.8039 -0.1991  0.2370
  433Sol     OW 5051   1.910   3.178   4.683  0.1400 -0.5602 -0.2399
  433Sol     HW 5052   1.952   3.140   4.606 -1.2529  1.1986 -1.9293
  433Sol     HW 5053   1.967   3.251   4.708  0.4403 -0.9511  0.2111
  433Sol     MW 5054   1.919   3.182   4.678 -0.3517 -0.2295  0.0260
  434Sol     OW 5055   0.637   2.548   4.102  0.2372 -0.0527  0.1107
  434Sol     HW 5056   0.585   2.493   4.043 -0.0187 -0.0599  0.3394
  434Sol     HW 5057   0.728   2.521   4.087  0.2086  0.2272 -0.5666
  434Sol     MW 5058   0.641   2.541   4.096  0.1368 -0.0494 -0.4979
  435Sol     OW 5059   2.819   1.950   2.641 -0.0344 -0.4815 -0.3719
  435Sol     HW 5060   2.807   2.045   2.633 -0.4582 -0.5268 -0.3139
  435Sol     HW 5061   2.734   1.913   2.616  0.2345 -0.8614 -0.7286
  435Sol     MW 5062   2.810   1.955   2.638  0.5531 -0.1221 -0.2054
  436Sol     OW 5063   0.372   1.879   7.349 -0.3181 -0.2350  1.1608
  436Sol     HW 5064   0.455   1.906   7.388  0.8376 -0.8357 -0.7911
  436Sol     HW 5065   0.336   1.960   7.313  0.4939 -0.3262  0.1119
  436Sol     MW 5066   0.376   1.889   7.349  0.0858 -0.1454  0.0621
  437Sol     OW 5067   1.406   0.084   2.589 -0.4763  0.3699 -0.4164
  437Sol     HW 5068   1.392   0.173   2.555  2.7995  0.9013 -0.5785
  437Sol     HW 5069   1.373   0.088   2.679 -0.0974  1.8572 -0.3231
  437Sol     MW 5070   1.402   0.093   2.594 -0.1173  1.0761  0.8142
  438Sol     OW 5071   1.497   2.468   9.272  0.1082 -0.1962  0.0182
  438Sol     HW 5072   1.426   2.427   9.322 -0.1397  0.2113  0.0094
  438Sol     HW 5073   1.575   2.419   9.296 -0.2765 -1.0563 -0.4532
  438Sol     MW 5074   1.497   2.460   9.278 -0.3431 -0.2100  0.0723
  439Sol     OW 5075   3.369   0.446   3.541 -0.0312 -0.1405 -0.1464
  439Sol     HW 5076   3.280   0.439   3.507 -0.0789 -0.4675  0.0468
  439Sol     HW 5077   3.365   0.517   3.605 -0.5720 -1.3860  1.2163
  439Sol     MW 5078   3.361   0.452   3.544  0.3802  0.0711 -0.8982
  440Sol     OW 5079   1.184   1.790   2.790 -0.4449  0.2768  0.2629
  440Sol     HW 5080   1.246   1.836   2.846 -0.0062  1.2834 -1.0523
  440Sol     HW 5081   1.178   1.843   2.711 -0.1439 -1.7573 -1.1694
  440Sol     MW 5082   1.189   1.799   2.788  0.2877  0.6115  0.5219
  441Sol     OW 5083   0.709   1.600   5.775 -0.3802  0.8409  0.3628
  441Sol     HW 5084   0.802   1.605   5.798 -0.1704  1.3548 -0.5663
  441Sol     HW 5085   0.664   1.592   5.859  0.4333  1.7416  0.8960
  441Sol     MW 5086   0.713   1.600   5.784  0.4849 -0.4078 -0.2179
  442Sol     OW 5087   2.422   2.749   5.167  0.0608 -1.0509  0.0323
  442Sol     HW 5088   2.353   2.811   5.143  0.9713  0.4382  1.1900
  442Sol     HW 5089   2.445   2.773   5.257  0.5360 -2.9772  0.4444
  442Sol     MW 5090   2.417   2.756   5.173 -0.1472  0.6123 -0.8736
  443Sol     OW 5091   2.026   1.291   7.618  0.2280 -0.2760  0.5586
  443Sol     HW 5092   1.961   1.361   7.609  0.7101  0.0221 -0.6743
  443Sol     HW 5093   2.046   1.289   7.712 -1.8439 -0.6461  1.0270
  443Sol     MW 5094   2.022   1.297   7.626  0.1122  0.6903  0.1854
  444Sol     OW 5095   2.586   3.212   9.153  0.7124 -0.3546 -0.2691
  444Sol     HW 5096   2.557   3.142   9.212  1.6668 -1.2278 -0.8075
  444Sol     HW 5097   2.651   3.261   9.204  0.2870 -0.0633 -0.0062
  444Sol     MW 5098   2.590   3.210   9.163 -0.5655 -0.4335  0.5896
  445Sol     OW 5099   0.459   0.262   2.234  0.0301 -0.2441 -0.3682
  445Sol     HW 5100   0.408   0.254   2.154 -1.2084 -1.0443  0.4734
  445Sol     HW 5101   0.489   0.352   2.235 -2.7068  0.6996 -0.1116
  445Sol     MW 5102   0.457   0.269   2.227 -0.1489 -0.1815  0.1952
  446Sol     OW 5103   0.372   2.941   8.313 -0.5271 -0.0855 -0.7428
  446Sol     HW 5104   0.352   2.847   8.315  0.9424 -0.4143  3.0755
  446Sol     HW 5105   0.297   2.982   8.356  0.2338  0.1384  0.3978
  446Sol     MW 5106   0.363   2.936   8.317 -0.0651  0.1926  0.0492
  447Sol     OW 5107   0.734   3.262   6.449  0.0368  0.0011  0.0915
  447Sol     HW 5108   0.746   3.344   6.498 -2.0319  1.4150 -1.6741
  447Sol     HW 5109   0.644   3.236   6.468  0.7331 -1.9896  0.7722
  447Sol     MW 5110   0.727   3.267   6.455 -0.1937  0.1819 -0.0313
  448Sol     OW 5111   1.598   1.074   6.657 -0.1771 -0.3690  0.2094
  448Sol     HW 5112   1.687   1.045   6.639  0.3130  1.0972  0.2211
  448Sol     HW 5113   1.606   1.132   6.732 -0.7789  1.7371 -1.3156
  448Sol     MW 5114   1.606   1.076   6.662 -0.2014 -0.8507  0.4579
  449Sol     OW 5115   0.152   2.732   3.995  0.1344  0.1170 -0.0810
  449Sol     HW 5116   0.134   2.760   4.084  0.2426 -0.4152  0.1094
  449Sol     HW 5117   0.069   2.696   3.964 -0.6009  2.4852 -1.0396
  449Sol     MW 5118   0.143   2.732   4.000 -0.0079 -0.1679  0.4734
  450Sol     OW 5119   2.105   0.665   7.526  0.2432 -0.4178 -0.2185
  450Sol     HW 5120   2.146   0.580   7.538 -0.2319 -0.6243 -0.0442
  450Sol     HW 5121   2.176   0.722   7.496  0.7404 -0.6716  0.4620
  450Sol     MW 5122   2.115   0.663   7.524  0.3307  0.1584  0.2817
  451Sol     OW 5123   1.673   1.273   3.614  0.1845 -0.0361  0.1338
  451Sol     HW 5124   1.680   1.336   3.686  0.3408  0.6212 -0.4463
  451Sol     HW 5125   1.712   1.193   3.648  2.0971  0.8449  0.1145
  451Sol     MW 5126   1.677   1.272   3.623 -0.3104 -0.0883  0.5063
  452Sol     OW 5127   2.971   2.311   8.664 -0.3987 -0.4357  0.0453
  452Sol     HW 5128   3.057   2.272   8.645  0.5343  1.1092  1.0409
  452Sol     HW 5129   2.975   2.398   8.627 -1.3918 -0.2030  0.4649
  452Sol     MW 5130   2.979   2.315   8.659 -0.2229 -0.0796 -0.6831
  453Sol     OW 5131   3.200   3.014   4.266  0.1311  0.0705 -0.0706
  453Sol     HW 5132   3.165   2.963   4.193  0.0385 -0.2485  0.1944
  453Sol     HW 5133   3.127   3.019   4.328  0.4287 -0.2487  0.3038
  453Sol     MW 5134   3.190   3.010   4.265  0.8358 -0.2054 -0.0464
  454Sol     OW 5135   3.090   2.649   6.031 -0.2160 -0.2736 -0.2465
  454Sol     HW 5136   2.999   2.619   6.032 -1.1306  2.3139 -1.2851
  454Sol     HW 5137   3.088   2.732   6.078  1.8241 -0.6601  0.5744
  454Sol     MW 5138   3.082   2.653   6.035  0.1715  0.0341  0.3471
  455Sol     OW 5139   2.441   1.540   5.774  0.2586  0.4544  0.0385
  455Sol     HW 5140   2.463   1.591   5.695 -2.8466  0.8925 -0.6053
  455Sol     HW 5141   2.403   1.459   5.740  0.0430  0.1101  1.1010
  455Sol     MW 5142   2.439   1.538   5.764 -0.2121  0.1561  0.0913
  456Sol     OW 5143   0.460   1.855   4.169  0.7091 -0.1486  0.4393
  456Sol     HW 5144   0.385   1.846   4.228 -0.1542 -0.4617 -0.6938
  456Sol     HW 5145   0.477   1.767   4.137  0.0379  0.2654 -1.1342
  456Sol     MW 5146   0.455   1.847   4.171 -0.0321 -0.0580 -0.0612
  457Sol     OW 5147   1.972   2.111   1.881  0.3931  0.0030 -0.3859
  457Sol     HW 5148   1.883   2.127   1.912  0.7951  0.5917  0.4754
  457Sol     HW 5149   1.995   2.024   1.915 -0.1403 -0.5089 -1.2980
  457Sol     MW 5150   1.966   2.104   1.887 -0.3871  0.2444  0.7042
  458Sol     OW 5151   2.528   1.286   3.208  0.3195  0.2829 -0.0619
  458Sol     HW 5152   2.490   1.218   3.151 -0.2181  0.5801 -0.0579
  458Sol     HW 5153   2.606   1.315   3.161  0.8300 -0.6797  0.1646
  458Sol     MW 5154   2.531   1.282   3.199 -0.0741 -0.0132 -0.1805
  459Sol     OW 5155   0.499   2.518   2.115 -0.2036 -0.2455 -0.0506
  459Sol     HW 5156   0.568   2.498   2.051 -0.9519 -0.4616 -0.7949
  459Sol     HW 5157   0.462   2.601   2.084  0.3160  0.3346  0.8564
  459Sol     MW 5158   0.502   2.524   2.106 -0.1445 -0.8791 -0.6720
  460Sol     OW 5159   2.883   3.285   6.066  0.2538  0.1151 -0.3328
  460Sol     HW 5160   2.816   3.354   6.057  0.2574 -0.0382 -1.7452
  460Sol     HW 5161   2.870   3.230   5.989  1.0770 -0.7511  0.1429
  460Sol     MW 5162   2.876   3.286   6.058  0.1063  0.3835  0.0745
  461Sol     OW 5163   1.984   2.831   5.918 -0.0775  0.4481  0.1029
  461Sol     HW 5164   2.067   2.875   5.902  0.0878  0.1722  0.1972
  461Sol     HW 5165   2.002   2.772   5.992 -0.6532  1.2280  0.8698
  461Sol     MW 5166   1.993   2.829   5.923  0.3146 -0.4563  0.0126
  462Sol     OW 5167   2.592   2.018   3.250 -0.5834  0.4806 -0.0136
  462Sol     HW 5168   2.663   2.021   3.187 -0.6553  1.3159 -0.0635
  462Sol     HW 5169   2.591   1.927   3.281 -1.1239 -0.1768 -1.8664
  462Sol     MW 5170   2.598   2.010   3.247 -0.1994  0.1506  0.2208
  463Sol     OW 5171   3.286   0.473   4.843 -0.4989  0.2415  0.1269
  463Sol     HW 5172   3.373   0.508   4.825  0.7776 -3.0003 -0.2618
  463Sol     HW 5173   3.254   0.442   4.758 -1.6830  0.5482  0.4397
  463Sol     MW 5174   3.291   0.474   4.834 -0.1580 -0.0964 -0.1383
  464Sol     OW 5175   3.155   0.161   6.734 -0.5307 -0.0497  0.4090
  464Sol     HW 5176   3.115   0.184   6.818 -2.1059  0.2285 -0.4115
  464Sol     HW 5177   3.245   0.194   6.741 -0.7446  0.2752  1.8472
  464Sol     MW 5178   3.160   0.166   6.742 -0.2769 -0.4287  0.1913
  465Sol     OW 5179   2.122   1.093   7.459  0.0472  0.5535  0.1259
  465Sol     HW 5180   2.074   1.155   7.514  0.1227  2.8754 -2.3123
  465Sol     HW 5181   2.206   1.136   7.442  1.0071 -1.2430  0.2075
  465Sol     MW 5182   2.125   1.103   7.463  0.6123 -0.2623  0.1817
  466Sol     OW 5183   2.518   1.213   3.461 -0.3986 -0.7880 -0.7437
  466Sol     HW 5184   2.531   1.241   3.370  1.3780 -1.1730 -0.6277
  466Sol     HW 5185   2.597   1.243   3.507 -2.2636  1.3563  1.1727
  466Sol     MW 5186   2.526   1.218   3.457  0.1858  0.2592  0.1778
  467Sol     OW 5187   1.673   1.932   5.612  0.5349  0.0950  0.1308
  467Sol     HW 5188   1.634   2.010   5.651  3.2888  1.3750  0.4675
  467Sol     HW 5189   1.664   1.946   5.517 -2.8316 -1.2742  0.1797
  467Sol     MW 5190   1.669   1.941   5.607 -0.1377  0.5157  0.3363
  468Sol     OW 5191   2.666   0.952   4.631  0.0123  0.2338  0.0216
  468Sol     HW 5192   2.743   0.900   4.608 -0.7095 -0.0649 -1.8179
  468Sol     HW 5193   2.592   0.898   4.604 -0.7610  1.8326 -1.1101
  468Sol     MW 5194   2.667   0.943   4.626  0.4685  0.3414 -0.3757
  469Sol     OW 5195   1.632   2.595   8.618  1.1768 -0.0808  0.0253
  469Sol     HW 5196   1.725   2.577   8.606  0.7859 -2.1900  0.0707
  469Sol     HW 5197   1.594   2.511   8.644 -0.2198  1.3924  3.0617
  469Sol     MW 5198   1.637   2.586   8.620  0.0962 -0.1136 -0.1895
  470Sol     OW 5199   0.970   0.610   2.201  0.1953 -0.4234  0.6831
  470Sol     HW 5200   0.992   0.644   2.114  4.3055 -0.3841  1.6330
  470Sol     HW 5201   0.996   0.518   2.198 -1.3075 -0.8841  1.3443
  470Sol     MW 5202   0.975   0.605   2.193 -0.5463 -0.1809  0.3633
  471Sol     OW 5203   0.667   0.455   1.626  0.3815 -0.4721 -0.9557
  471Sol     HW 5204   0.672   0.549   1.608  0.4504 -0.7123 -2.2102
  471Sol     HW 5205   0.576   0.439   1.650  0.1881 -0.2220 -1.5232
  471Sol     MW 5206   0.660   0.462   1.627  0.1771  0.3233 -0.2629
  472Sol     OW 5207   2.051   2.562   5.019  0.4226 -0.2400  0.1487
  472Sol     HW 5208   2.026   2.651   5.045 -0.7043 -0.1231 -1.3330
  472Sol     HW 5209   2.098   2.574   4.937 -0.6277 -1.1194 -0.5797
  472Sol     MW 5210   2.053   2.571   5.014 -0.3505  0.2925  0.2934
  473Sol     OW 5211   0.547   1.154   9.129 -0.0397 -0.1202  0.5983
  473Sol     HW 5212   0.509   1.187   9.048  2.8192 -2.4323 -1.7679
  473Sol     HW 5213   0.475   1.108   9.172 -1.1149 -0.4984 -1.5358
  473Sol     MW 5214   0.537   1.153   9.126  0.0411  0.3631 -0.0070
  474Sol     OW 5215   1.374   1.181   9.441  0.5363  0.0390 -0.0651
  474Sol     HW 5216   1.288   1.172   9.482  1.4394  0.3425  1.9546
  474Sol     HW 5217   1.358   1.234   9.362 -1.2763 -0.8087 -0.2989
  474Sol     MW 5218   1.365   1.185   9.437 -0.3827 -0.3671  0.5398
  475Sol     OW 5219   1.576   2.537   6.696  0.2154  0.1359  0.3983
  475Sol     HW 5220   1.501   2.522   6.753 -0.0374  0.4306  0.1459
  475Sol     HW 5221   1.645   2.482   6.733 -0.3534 -0.7567  0.1557
  475Sol     MW 5222   1.575   2.531   6.704 -0.4156 -0.3953 -0.2309
  476Sol     OW 5223   2.672   1.013   8.573  0.2978 -0.2314 -0.4703
  476Sol     HW 5224   2.704   1.027   8.484  0.9928  3.2991  0.2460
  476Sol     HW 5225   2.584   1.049   8.573 -0.0808 -1.1432  0.0312
  476Sol     MW 5226   2.667   1.017   8.565 -0.0973 -0.1986  0.3218
  477Sol     OW 5227   0.105   3.002   9.615  0.1432  0.0561  0.0975
  477Sol     HW 5228   0.196   3.000   9.643 -0.3983  0.8681  1.9520
  477Sol     HW 5229   0.095   3.085   9.570 -0.2669  1.0498  1.9821
  477Sol     MW 5230   0.112   3.009   9.613  0.1834 -0.4225 -0.0331
  478Sol     OW 5231   0.973   1.333   4.948 -0.2459 -0.4457 -0.2435
  478Sol     HW 5232   1.003   1.386   5.022 -1.2026  0.6220 -0.5956
  478Sol     HW 5233   1.020   1.368   4.872  1.2767 -2.0117 -0.0519
  478Sol     MW 5234   0.980   1.341   4.947 -0.2562 -0.0606  0.1686
  479Sol     OW 5235   2.979   1.149   3.427  0.2492  0.1691  0.5543
  479Sol     HW 5236   2.967   1.057   3.402 -0.7012  0.2063  0.8661
  479Sol     HW 5237   3.074   1.160   3.433  0.3533 -0.8888  0.8738
  479Sol     MW 5238   2.987   1.142   3.425  0.0950 -0.6795  0.1050
  480Sol     OW 5239   1.151   2.717   7.300 -0.2686  0.1104  0.0640
  480Sol     HW 5240   1.166   2.702   7.393 -1.0817 -1.4954 -0.0530
  480Sol     HW 5241   1.066   2.761   7.296 -1.7458 -2.6299 -0.0751
  480Sol     MW 5242   1.145   2.720   7.308  0.1425  0.0920  0.3499
  481Sol     OW 5243   0.682   3.209   7.354  0.3090  0.1979 -0.3536
  481Sol     HW 5244   0.658   3.297   7.325 -1.8339 -0.6011 -1.1145
  481Sol     HW 5245   0.697   3.217   7.448  1.3481  1.6095 -0.6283
  481Sol     MW 5246   0.681   3.217   7.360  0.5757  1.4361  0.4332
  482Sol     OW 5247   1.893   0.125   2.879  0.2818  0.0944  0.0303
  482Sol     HW 5248   1.826   0.058   2.864  1.9165 -1.6250  0.3600
  482Sol     HW 5249   1.961   0.107   2.815  1.3885  0.5709  1.0384
  482Sol     MW 5250   1.893   0.118   2.872  0.6757  0.2669 -0.1776
  483Sol     OW 5251   2.844   3.215   9.567  0.2204  0.0042 -0.0987
  483Sol     HW 5252   2.769   3.156   9.567 -1.2166  1.8079  0.0248
  483Sol     HW 5253   2.845   3.252   9.479  0.6332  0.4106  0.0740
  483Sol     MW 5254   2.838   3.213   9.559  0.6210 -0.5699 -0.4495
  484Sol     OW 5255   3.175   2.025   2.164 -0.4478  0.0419  0.0594
  484Sol     HW 5256   3.104   2.049   2.105 -1.5701 -1.8592  0.5928
  484Sol     HW 5257   3.131   1.994   2.243  0.9002 -3.0981 -0.3418
  484Sol     MW 5258   3.165   2.024   2.166 -0.2542  0.3604 -0.1307
  485Sol     OW 5259   1.905   1.336   2.933 -0.3489 -0.0118  0.3502
  485Sol     HW 5260   1.928   1.263   2.876  0.7709 -0.5782  1.5120
  485Sol     HW 5261   1.976   1.399   2.921  0.0023 -0.2278  1.2754
  485Sol     MW 5262   1.913   1.336   2.927 -0.4947 -0.3914  0.4487
  486Sol     OW 5263   0.831   0.833   9.053  0.1126  0.5121  0.3386
  486Sol     HW 5264   0.864   0.805   9.138  1.2506  1.0528  0.0855
  486Sol     HW 5265   0.808   0.925   9.066 -1.6365  0.0642  0.5966
  486Sol     MW 5266   0.831   0.839   9.062  0.1849  0.2085 -0.8406
  487Sol     OW 5267   2.538   1.079   4.103 -0.3567 -0.3284  0.1887
  487Sol     HW 5268   2.442   1.082   4.105 -0.3056  1.6239  0.4584
  487Sol     HW 5269   2.566   1.129   4.179  0.8892 -0.3531 -0.2386
  487Sol     MW 5270   2.532   1.084   4.110  0.1181  0.0865 -0.1770
  488Sol     OW 5271   2.004   1.175   7.210 -0.4298  0.3672 -0.1736
  488Sol     HW 5272   2.070   1.169   7.279  0.1182  2.0289 -0.5221
  488Sol     HW 5273   1.954   1.094   7.217  2.1070 -1.2824 -0.3586
  488Sol     MW 5274   2.005   1.167   7.217 -0.2786 -0.7282 -0.3853
  489Sol     OW 5275   1.849   1.633   8.159  0.1890 -0.0921 -0.4404
  489Sol     HW 5276   1.892   1.560   8.115  0.2913 -0.6515  0.5735
  489Sol     HW 5277   1.770   1.594   8.198 -0.7054  0.7065 -1.4052
  489Sol     MW 5278   1.846   1.623   8.158  0.8234 -0.1770  0.7229
  490Sol     OW 5279   3.098   1.461   4.448  0.2756 -0.3661  0.1711
  490Sol     HW 5280   3.136   1.453   4.535 -1.7845 -1.1020  1.0545
  490Sol     HW 5281   3.003   1.460   4.463 -0.1388  2.3419 -1.8390
  490Sol     MW 5282   3.093   1.460   4.457  0.6441  0.3353  0.3615
  491Sol     OW 5283   2.766   2.424   5.085 -0.2983 -0.2817 -0.0780
  491Sol     HW 5284   2.738   2.501   5.036 -2.0906  0.5734  2.2097
  491Sol     HW 5285   2.710   2.353   5.054  1.6174 -0.8091 -2.4734
  491Sol     MW 5286   2.759   2.425   5.078  0.0647 -0.0798  0.2559
  492Sol     OW 5287   1.764   1.277   8.281  0.0932 -0.8070  0.0520
  492Sol     HW 5288   1.814   1.218   8.337  1.9914  1.0595  0.4121
  492Sol     HW 5289   1.737   1.348   8.340 -1.9505 -1.1547 -0.4204
  492Sol     MW 5290   1.766   1.278   8.292  0.2710 -0.0836 -0.0457
  493Sol     OW 5291   2.485   0.203   5.409 -0.0287  0.4737  0.0153
  493Sol     HW 5292   2.550   0.133   5.415  0.1440  0.5078 -1.3078
  493Sol     HW 5293   2.535   0.279   5.378 -0.5659  0.6956 -0.3012
  493Sol     MW 5294   2.496   0.204   5.407  0.0949  0.0080 -1.0898
  494Sol     OW 5295   2.035   1.832   7.300 -0.1813  0.1056 -0.6131
  494Sol     HW 5296   2.087   1.761   7.262  0.0053 -0.7031  1.0774
  494Sol     HW 5297   2.099   1.885   7.348 -0.5604  0.4617 -0.4991
  494Sol     MW 5298   2.045   1.831   7.301 -0.0526  0.4741  0.3534
  495Sol     OW 5299   1.712   0.408   4.346 -0.0550 -0.0641  0.8632
  495Sol     HW 5300   1.717   0.344   4.275 -0.4731 -0.2092  0.9663
  495Sol     HW 5301   1.634   0.459   4.327 -1.5062 -1.6086  2.4753
  495Sol     MW 5302   1.706   0.407   4.338 -0.1875  0.7077  0.0679
  496Sol     OW 5303   3.347   2.609   4.479  0.0599 -0.1423  0.0438
  496Sol     HW 5304   3.359   2.568   4.564 -1.7586  0.4093  0.6101
  496Sol     HW 5305   3.427   2.591   4.431  0.4798 -1.7880  1.3285
  496Sol     MW 5306   3.355   2.604   4.482  0.0860 -0.1376  0.6544
  497Sol     OW 5307   1.703   1.765   7.508  0.2408 -0.8603 -0.1601
  497Sol     HW 5308   1.610   1.789   7.507  1.0307  2.3542  0.6137
  497Sol     HW 5309   1.710   1.697   7.440 -2.5053 -0.5595 -0.8122
  497Sol     MW 5310   1.695   1.761   7.502  0.2867 -0.8849 -0.0183
  498Sol     OW 5311   3.289   1.398   3.066 -0.1369 -0.0404  0.2554
  498Sol     HW 5312   3.255   1.421   3.152  0.2697 -0.3153  0.4904
  498Sol     HW 5313   3.355   1.330   3.083 -1.3288 -1.3851 -0.4259
  498Sol     MW 5314   3.292   1.394   3.075  0.1054 -0.1338  0.4637
  499Sol     OW 5315   1.167   0.657   4.674  0.1501 -0.6200 -0.7928
  499Sol     HW 5316   1.149   0.678   4.766  0.8147 -1.4406 -0.4733
  499Sol     HW 5317   1.221   0.578   4.677  0.1309 -0.6838 -1.8927
  499Sol     MW 5318   1.170   0.652   4.683  0.4887  0.1121 -0.8284
  500Sol     OW 5319   3.273   2.434   6.024  0.4587 -0.2214  1.1268
  500Sol     HW 5320   3.330   2.461   6.096 -0.7879  1.8678  1.3571
  500Sol     HW 5321   3.221   2.511   6.004 -1.4886 -1.7445  0.1348
  500Sol     MW 5322   3.274   2.443   6.029  0.4458 -0.2631 -0.1409
  501Sol     OW 5323   0.706   0.137   2.292  0.1359  0.0084 -0.3686
  501Sol     HW 5324   0.739   0.214   2.338 -2.5262 -1.0003  3.4372
  501Sol     HW 5325   0.617   0.160   2.267  0.1987 -0.9101 -1.4973
  501Sol     MW 5326   0.701   0.146   2.294 -0.7288  0.1412  0.3118
  502Sol     OW 5327   3.329   2.661   3.807  0.1743 -0.2407 -0.4196
  502Sol     HW 5328   3.234   2.648   3.815 -0.1030  1.4186 -0.8129
  502Sol     HW 5329   3.359   2.585   3.759 -0.9023 -0.9956  0.0713
  502Sol     MW 5330   3.323   2.653   3.804 -0.5012 -0.3219  0.5970
  503Sol     OW 5331   0.290   2.550   3.544  0.0555 -0.0341  0.1626
  503Sol     HW 5332   0.342   2.471   3.525  0.2590  0.7147 -2.6736
  503Sol     HW 5333   0.320   2.578   3.630  0.1966 -2.8849  1.0777
  503Sol     MW 5334   0.298   2.546   3.550 -0.1555  0.3576  0.4419
  504Sol     OW 5335   0.361   3.265   6.917 -0.2698  0.0934  0.1569
  504Sol     HW 5336   0.271   3.297   6.910 -0.0111  0.5231 -1.3605
  504Sol     HW 5337   0.414   3.335   6.880  0.4815 -1.2226 -1.3295
  504Sol     MW 5338   0.358   3.274   6.913  0.1707  0.0653  0.2692
  505Sol     OW 5339   1.204   2.497   3.391  0.2130  0.0974  0.1036
  505Sol     HW 5340   1.188   2.435   3.320 -0.2542 -0.1735  0.4405
  505Sol     HW 5341   1.172   2.452   3.470 -2.7397  1.8827 -0.0446
  505Sol     MW 5342   1.200   2.487   3.392 -0.3150 -0.2061  0.5217
  506Sol     OW 5343   1.370   3.235   3.129  0.2468  0.1522 -0.2147
  506Sol     HW 5344   1.419   3.157   3.156 -0.7505 -0.0160  1.1356
  506Sol     HW 5345   1.321   3.207   3.052  2.4951  0.4136 -1.8071
  506Sol     MW 5346   1.370   3.225   3.124 -0.1637 -0.1838 -0.3521
  507Sol     OW 5347   2.199   0.230   6.128  0.3109  0.6185  0.6566
  507Sol     HW 5348   2.143   0.288   6.077  2.5799  0.3984 -2.2872
  507Sol     HW 5349   2.146   0.152   6.144 -1.1406  1.5549  0.4026
  507Sol     MW 5350   2.190   0.228   6.125 -0.3056  0.7412 -0.3461
  508Sol     OW 5351   1.794   1.547   9.626 -0.8466 -0.3243  0.0391
  508Sol     HW 5352   1.736   1.508   9.560 -0.7355 -2.8379  1.3592
  508Sol     HW 5353   1.800   1.481   9.695  1.2694  1.0925  1.2842
  508Sol     MW 5354   1.790   1.537   9.626 -0.3307 -0.5164  0.7445
  509Sol     OW 5355   0.906   0.997   4.631 -0.0283 -0.3513 -0.5452
  509Sol     HW 5356   0.947   1.020   4.714  0.8473  1.1807 -1.3904
  509Sol     HW 5357   0.820   0.964   4.656 -0.4439  1.6940  0.8984
  509Sol     MW 5358   0.902   0.996   4.640  1.0306  0.4251 -0.6699
  510Sol     OW 5359   1.583   3.150   7.344 -0.4852  0.6755  0.0688
  510Sol     HW 5360   1.499   3.184   7.374 -1.3299 -1.4817  0.2472
  510Sol     HW 5361   1.623   3.113   7.422 -0.0775  0.2848 -0.3226
  510Sol     MW 5362   1.579   3.150   7.354  0.2288 -0.3743  0.1897
  511Sol     OW 5363   3.105   1.076   9.006  0.3630  0.3674 -0.2180
  511Sol     HW 5364   3.028   1.063   8.952 -1.7404 -0.3788  2.8054
  511Sol     HW 5365   3.152   0.993   9.002  0.6707  0.6002 -1.5525
  511Sol     MW 5366   3.102   1.068   9.001 -0.1116  0.6223  0.8066
  512Sol     OW 5367   1.498   2.285   7.570  0.1391 -0.6108 -0.1111
  512Sol     HW 5368   1.508   2.377   7.546 -2.3319  0.1262  1.3983
  512Sol     HW 5369   1.460   2.244   7.493  3.1686 -0.8542 -1.5286
  512Sol     MW 5370   1.495   2.290   7.561 -0.1847  0.1191 -0.4836
  513Sol     OW 5371   3.272   1.187   3.424  0.7155  0.4585  0.0630
  513Sol     HW 5372   3.338   1.154   3.485  1.0931 -0.5281 -0.8691
  513Sol     HW 5373   3.322   1.212   3.346  0.0944  0.5601 -0.3019
  513Sol     MW 5374   3.282   1.187   3.422 -0.4822  0.5975 -0.8156
  514Sol     OW 5375   0.855   3.326   6.192  0.1945 -0.3393  0.1407
  514Sol     HW 5376   0.804   3.397   6.151  0.6160 -0.3527 -0.4077
  514Sol     HW 5377   0.808   3.308   6.274  0.3285  0.8763  0.5017
  514Sol     MW 5378   0.846   3.331   6.196 -0.1307 -0.4565 -0.6146
  515Sol     OW 5379   2.476   2.320   8.375  0.4451 -0.4954 -0.1460
  515Sol     HW 5380   2.540   2.370   8.426  2.4340 -1.3714 -1.6796
  515Sol     HW 5381   2.443   2.254   8.436  0.5594  0.3478  0.8357
  515Sol     MW 5382   2.479   2.318   8.385  0.1443 -0.0033 -0.1261
  516Sol     OW 5383   0.675   0.137   3.969 -1.1018 -0.6435 -0.1628
  516Sol     HW 5384   0.596   0.183   3.940 -0.5993  1.4260  1.6062
  516Sol     HW 5385   0.746   0.175   3.917 -0.9299 -0.6983  0.0276
  516Sol     MW 5386   0.674   0.145   3.962  0.2876 -0.5662 -0.4227
  517Sol     OW 5387   2.468   1.343   3.841  0.6641  0.3358  0.2812
  517Sol     HW 5388   2.470   1.376   3.931  0.7545  0.8768  0.0841
  517Sol     HW 5389   2.491   1.419   3.787 -0.3897  0.2793 -0.2645
  517Sol     MW 5390   2.470   1.353   3.844  0.1965  0.1385 -1.1469
  518Sol     OW 5391   2.511   2.416   2.352 -0.1808  0.4853  0.1882
  518Sol     HW 5392   2.594   2.425   2.399  0.4275  0.0678 -0.7916
  518Sol     HW 5393   2.453   2.372   2.414  0.7202 -0.3488  0.4427
  518Sol     MW 5394   2.513   2.413   2.362  0.2770  0.8119  0.6315
  519Sol     OW 5395   1.770   0.709   2.569 -0.0996  0.3509 -0.0780
  519Sol     HW 5396   1.843   0.758   2.531  2.1278 -2.1668  0.7197
  519Sol     HW 5397   1.792   0.703   2.662 -0.3389 -2.0280 -0.1459
  519Sol     MW 5398   1.779   0.713   2.574  0.0758 -0.0698 -0.3260
  520Sol     OW 5399   0.280   1.293   6.036 -0.0345  0.6713  0.0771
  520Sol     HW 5400   0.354   1.235   6.054  0.4578  1.1321 -0.4381
  520Sol     HW 5401   0.214   1.236   5.998  0.5759  0.4948 -0.7452
  520Sol     MW 5402   0.281   1.283   6.034 -0.7302 -0.0577 -0.6769
  521Sol     OW 5403   2.360   2.946   3.295 -0.2416  0.1130  0.0864
  521Sol     HW 5404   2.400   2.859   3.295 -1.8261 -0.6290  0.4529
  521Sol     HW 5405   2.273   2.933   3.257  0.1726  1.8735 -1.5473
  521Sol     MW 5406   2.356   2.937   3.292  0.3312 -0.7397 -0.3723
  522Sol     OW 5407   2.346   0.405   6.472  0.3225 -0.6346 -0.0718
  522Sol     HW 5408   2.416   0.469   6.483  1.1573 -1.4374 -0.6427
  522Sol     HW 5409   2.267   0.458   6.461  1.1873  0.3543 -1.8364
  522Sol     MW 5410   2.345   0.416   6.472  0.5557 -0.2422 -0.0344
  523Sol     OW 5411   3.176   2.174   3.390 -0.3717 -0.1856  0.4574
  523Sol     HW 5412   3.094   2.139   3.425  0.1869 -1.3385  0.6318
  523Sol     HW 5413   3.172   2.267   3.410 -1.7806 -0.1689  0.1826
  523Sol     MW 5414   3.168   2.179   3.395 -0.1455  0.1219  0.3280
  524Sol     OW 5415   1.371   2.047   5.866 -0.0498 -0.0944 -0.1062
  524Sol     HW 5416   1.400   1.958   5.881  1.1674  0.0449 -1.5650
  524Sol     HW 5417   1.336   2.076   5.951  0.6303 -1.5299  0.6682
  524Sol     MW 5418   1.370   2.042   5.875 -0.0351 -0.2135 -0.2217
  525Sol     OW 5419   1.367   2.563   3.901 -0.2665  0.5362  0.0346
  525Sol     HW 5420   1.443   2.616   3.925 -1.9123  2.4055  1.3057
  525Sol     HW 5421   1.297   2.626   3.884 -1.1077 -1.0616 -2.8601
  525Sol     MW 5422   1.367   2.573   3.902  0.4359  0.0189  0.4364
  526Sol     OW 5423   1.967   0.320   4.984 -0.3883 -0.2449  0.0878
  526Sol     HW 5424   1.969   0.283   4.895 -1.4403  1.3158 -0.6090
  526Sol     HW 5425   1.970   0.243   5.041  0.8360 -1.2662 -1.2738
  526Sol     MW 5426   1.968   0.309   4.981 -0.0324  0.3360  0.1954
  527Sol     OW 5427   0.288   1.390   8.118  0.7077 -0.0215 -0.2825
  527Sol     HW 5428   0.194   1.400   8.131  0.8054  0.1899  0.2820
  527Sol     HW 5429   0.327   1.425   8.198  1.1730 -1.9920  0.3933
  527Sol     MW 5430   0.283   1.394   8.126  0.1008  0.3304 -0.5684
  528Sol     OW 5431   0.655   3.183   6.839  0.7423  0.2142  0.2566
  528Sol     HW 5432   0.679   3.092   6.821  0.4078  0.3633 -1.0193
  528Sol     HW 5433   0.638   3.220   6.752 -0.7013  1.0570  0.8906
  528Sol     MW 5434   0.656   3.178   6.829  0.3035 -0.4365 -0.0389
  529Sol     OW 5435   1.958   1.992   7.059 -0.8869  0.2627 -0.4396
  529Sol     HW 5436   1.969   1.997   7.154 -0.0225  0.7231 -0.5632
  529Sol     HW 5437   1.888   1.928   7.046  0.1160 -1.0267  0.4446
  529Sol     MW 5438   1.953   1.986   7.066  0.1808 -0.7147  0.3114
  530Sol     OW 5439   1.330   2.051   4.495 -0.2943 -0.5829 -0.1891
  530Sol     HW 5440   1.238   2.038   4.519 -0.3145 -0.3769 -0.1514
  530Sol     HW 5441   1.327   2.103   4.415 -0.2275 -1.3781 -0.7194
  530Sol     MW 5442   1.321   2.054   4.490  0.1393  0.4601 -0.1995
  531Sol     OW 5443   3.016   2.553   3.177  0.0320 -0.3155 -0.0275
  531Sol     HW 5444   3.106   2.572   3.151  0.4032 -0.0194  1.4478
  531Sol     HW 5445   3.017   2.557   3.272 -0.5731 -4.6072  0.2675
  531Sol     MW 5446   3.024   2.555   3.183  0.2856 -0.2196  0.4507
  532Sol     OW 5447   2.445   0.239   9.625  0.2981  0.0203 -0.2630
  532Sol     HW 5448   2.527   0.199   9.596  0.1156 -0.0021 -0.7672
  532Sol     HW 5449   2.460   0.333   9.619  1.0640  0.0536  1.8917
  532Sol     MW 5450   2.453   0.244   9.622 -0.2553  0.5603  0.3069
  533Sol     OW 5451   0.951   2.336   5.524  0.1360 -0.4172 -0.3898
  533Sol     HW 5452   0.970   2.387   5.602  2.4548 -0.5073 -0.8573
  533Sol     HW 5453   0.948   2.401   5.453 -3.8982 -0.0603 -0.0382
  533Sol     MW 5454   0.952   2.346   5.524 -0.3806 -0.3388 -0.1589
  534Sol     OW 5455   0.013   3.294   8.245 -0.4538 -0.3857 -0.2631
  534Sol     HW 5456  -0.026   3.238   8.177  0.5148 -1.0576 -0.2623
  534Sol     HW 5457   0.094   3.327   8.205 -0.2046 -0.2755  0.3355
  534Sol     MW 5458   0.017   3.292   8.235  0.2670 -0.7326  0.6060
  535Sol     OW 5459   0.135   0.110   5.435 -0.0652 -0.1770  0.2662
  535Sol     HW 5460   0.104   0.082   5.521  1.1215 -3.9022 -0.4025
  535Sol     HW 5461   0.218   0.155   5.453 -1.1911  1.5247  1.2686
  535Sol     MW 5462   0.140   0.111   5.444 -0.1777 -0.0527  0.2072
  536Sol     OW 5463   0.291   1.069   9.548  0.5294  0.3543 -0.1375
  536Sol     HW 5464   0.309   0.992   9.494  2.0716  0.2428  0.4924
  536Sol     HW 5465   0.372   1.120   9.544  0.2804  0.8705  1.1952
  536Sol     MW 5466   0.300   1.067   9.543 -0.8243  0.2788  1.0049
  537Sol     OW 5467   1.689   0.457   9.207 -0.0903  0.0034 -0.5519
  537Sol     HW 5468   1.622   0.522   9.229 -1.1211 -1.1809 -0.1356
  537Sol     HW 5469   1.772   0.499   9.229 -0.8104  0.7645  0.7783
  537Sol     MW 5470   1.691   0.466   9.211 -0.3832  0.2648 -0.7632
  538Sol     OW 5471   2.674   0.041   3.710 -0.2750 -0.5628 -0.5891
  538Sol     HW 5472   2.723   0.076   3.785 -2.8674  1.4121  0.2459
  538Sol     HW 5473   2.720  -0.040   3.688  1.4270 -0.4406  2.2003
  538Sol     MW 5474   2.683   0.037   3.715  0.4801 -0.0910 -0.2873
  539Sol     OW 5475   0.000   0.520   7.483  0.6985  0.1754  0.0432
  539Sol     HW 5476   0.055   0.575   7.540  1.0989 -0.4389  0.2515
  539Sol     HW 5477  -0.062   0.582   7.444  1.7486  0.9290 -0.4564
  539Sol     MW 5478  -0.000   0.531   7.485  0.1233  0.2447  0.4108
  540Sol     OW 5479   1.803   0.811   4.441 -0.0191  0.0861  0.7077
  540Sol     HW 5480   1.846   0.767   4.368  0.1432  2.1235 -0.4433
  540Sol     HW 5481   1.725   0.852   4.402  1.2987  3.1407  1.1877
  540Sol     MW 5482   1.800   0.811   4.431  0.0643  0.2450 -0.4469
  541Sol     OW 5483   1.090   2.984   6.185  0.0228  0.1866  0.0211
  541Sol     HW 5484   1.041   2.907   6.157  3.2358 -1.3422 -1.6465
  541Sol     HW 5485   1.131   2.958   6.267  2.5041 -0.5387 -1.4114
  541Sol     MW 5486   1.089   2.975   6.190 -0.5912 -0.2231  0.5801
  542Sol     OW 5487   1.286   1.501   8.488 -0.2209  0.0467 -0.4932
  542Sol     HW 5488   1.197   1.504   8.525  0.3371 -0.1667  0.8830
  542Sol     HW 5489   1.317   1.592   8.493 -0.2483  0.0696 -0.7181
  542Sol     MW 5490   1.281   1.510   8.492 -0.1579 -0.0105 -0.4671
  543Sol     OW 5491   2.270   3.163   5.344  0.1131 -0.4081 -0.3336
  543Sol     HW 5492   2.341   3.221   5.319 -0.3171  0.4325  0.3717
  543Sol     HW 5493   2.191   3.207   5.313 -0.0352 -2.0576 -2.4915
  543Sol     MW 5494   2.269   3.172   5.339 -0.2981 -0.2433  0.3440
  544Sol     OW 5495   1.637   2.667   3.902 -1.0899 -0.2171 -0.2824
  544Sol     HW 5496   1.710   2.704   3.952 -1.2633  0.5811 -0.6079
  544Sol     HW 5497   1.679   2.611   3.836 -0.8091 -0.3365 -0.0063
  544Sol     MW 5498   1.647   2.665   3.900  0.3105 -0.8759  0.1794
  545Sol     OW 5499   1.350   0.028   5.958  0.0114 -0.1415 -0.3490
  545Sol     HW 5500   1.327  -0.004   5.871 -1.7365  0.7150 -0.2414
  545Sol     HW 5501   1.416   0.095   5.943  0.0671 -0.3349 -0.9730
  545Sol     MW 5502   1.353   0.031   5.949  0.5339  0.2318 -0.7735
  546Sol     OW 5503   3.001   1.139   7.289 -0.3214 -0.0504  0.2098
  546Sol     HW 5504   2.907   1.146   7.306 -0.6482 -0.3097 -1.3543
  546Sol     HW 5505   3.024   1.051   7.319 -0.5296  0.1155  0.8460
  546Sol     MW 5506   2.994   1.132   7.293  0.3065 -0.1452 -0.2987
  547Sol     OW 5507   0.358   0.781   6.609 -0.0161 -0.4349  0.6516
  547Sol     HW 5508   0.285   0.776   6.671 -0.7077 -0.7911 -0.1820
  547Sol     HW 5509   0.359   0.695   6.567  1.4736 -0.7510  1.3108
  547Sol     MW 5510   0.351   0.773   6.611 -0.0013 -0.0871 -0.0168
  548Sol     OW 5511   0.947   3.462   4.604  0.2775  0.9917 -0.0759
  548Sol     HW 5512   0.945   3.551   4.639 -1.5544  0.9286  0.0516
  548Sol     HW 5513   0.905   3.470   4.518  0.4673  0.3111 -0.2314
  548Sol     MW 5514   0.943   3.471   4.600 -0.4793 -0.1545  0.1931
  549Sol     OW 5515   1.114   2.763   6.949 -0.6429 -0.2563 -0.3206
  549Sol     HW 5516   1.101   2.848   6.906  0.8345 -0.5839 -1.4699
  549Sol     HW 5517   1.071   2.772   7.033 -0.8635  1.5092 -0.5982
  549Sol     MW 5518   1.109   2.772   6.953 -0.4175  0.3242  0.1884
  550Sol     OW 5519   0.753   1.708   2.237 -0.0936 -0.0010  0.1016
  550Sol     HW 5520   0.800   1.695   2.154  2.4847  1.6261  1.2309
  550Sol     HW 5521   0.749   1.621   2.276 -1.0527 -0.7342 -1.5584
  550Sol     MW 5522   0.757   1.699   2.233  0.0664  0.7394  0.1724
  551Sol     OW 5523   1.229   0.092   4.761 -0.1535 -0.0890  0.1840
  551Sol     HW 5524   1.209   0.083   4.668  0.0087  1.8499 -0.0484
  551Sol     HW 5525   1.179   0.021   4.803 -0.9177 -0.4278 -1.2702
  551Sol     MW 5526   1.223   0.085   4.757 -0.3760 -0.3287  0.4284
  552Sol     OW 5527   0.324   0.733  10.004  0.5737 -0.4859 -0.0930
  552Sol     HW 5528   0.308   0.692  10.089  0.3147 -2.1654 -0.9100
  552Sol     HW 5529   0.237   0.757   9.973  0.8126  1.6178  0.8132
  552Sol     MW 5530   0.315   0.731  10.009 -0.7360  0.0707  0.2263
  553Sol     OW 5531   1.771   0.789   8.229  0.6228  0.5097 -0.1701
  553Sol     HW 5532   1.781   0.788   8.325 -2.7332 -1.2025  0.2217
  553Sol     HW 5533   1.844   0.737   8.197  0.6224 -0.6668  1.6267
  553Sol     MW 5534   1.778   0.785   8.235 -0.0295  0.1868  0.0976
  554Sol     OW 5535   3.325   1.164   2.363  0.1475 -0.1967 -0.4633
  554Sol     HW 5536   3.366   1.248   2.382 -0.4777 -0.2204  1.0207
  554Sol     HW 5537   3.234   1.174   2.390  0.3820 -1.7715  0.9699
  554Sol     MW 5538   3.321   1.172   2.367  0.3712  0.0132  0.0485
  555Sol     OW 5539   2.770   2.231   3.358  0.1325 -0.0065 -0.5493
  555Sol     HW 5540   2.797   2.265   3.272  0.8479 -0.1004 -0.3625
  555Sol     HW 5541   2.701   2.167   3.338 -0.1038  0.3855 -1.0112
  555Sol     MW 5542   2.766   2.228   3.348  0.4626 -0.1912 -0.1675
  556Sol     OW 5543   0.852   1.177   1.955  0.8550  0.2305  0.2539
  556Sol     HW 5544   0.906   1.107   1.918  1.0536  1.1372 -1.1921
  556Sol     HW 5545   0.766   1.136   1.969  1.3997 -0.7129  0.8559
  556Sol     MW 5546   0.849   1.167   1.953 -0.1217  0.0322  0.4768
  557Sol     OW 5547   2.986   0.238   6.038  0.2214 -0.0904 -0.2611
  557Sol     HW 5548   3.057   0.250   6.102  1.1585 -2.4969 -0.7954
  557Sol     HW 5549   2.906   0.238   6.091  0.9036 -0.9170  0.7975
  557Sol     MW 5550   2.986   0.239   6.049 -0.2557  0.3368  0.5021
  558Sol     OW 5551   0.182   0.348   5.002  0.1458  0.3657  0.0349
  558Sol     HW 5552   0.163   0.432   4.960 -2.0472  1.0310  2.2601
  558Sol     HW 5553   0.276   0.352   5.022 -0.1036  2.6465  0.8833
  558Sol     MW 5554   0.189   0.355   5.000  0.0592 -0.0841 -0.1052
  559Sol     OW 5555   3.036   0.965   6.351 -0.1960 -0.4611 -0.3026
  559Sol     HW 5556   2.947   0.931   6.338  0.0331 -1.2244  0.0781
  559Sol     HW 5557   3.045   1.034   6.286 -1.9088  1.2362  1.1967
  559Sol     MW 5558   3.029   0.968   6.344  0.2488 -1.0063 -0.1666
  560Sol     OW 5559   1.724   1.892   8.649 -0.2768 -0.0075  0.3492
  560Sol     HW 5560   1.717   1.797   8.650  0.2597 -0.1170 -2.7082
  560Sol     HW 5561   1.818   1.909   8.637 -0.4348  0.9069  0.3898
  560Sol     MW 5562   1.732   1.885   8.648  0.2627  0.4015  0.2945
  561Sol     OW 5563   0.078   3.406   1.938 -0.1094  0.5790  0.4938
  561Sol     HW 5564   0.076   3.312   1.956  1.5731  0.3968 -0.1630
  561Sol     HW 5565   0.132   3.414   1.859 -1.2370  1.9919 -0.1489
  561Sol     MW 5566   0.083   3.398   1.933 -0.3285  0.7483 -0.1340
  562Sol     OW 5567   2.247   0.681   2.063 -0.0433 -0.8359  0.4700
  562Sol     HW 5568   2.169   0.694   2.010  0.9630 -0.0019 -0.8606
  562Sol     HW 5569   2.217   0.636   2.141 -1.6303 -1.6947 -0.6266
  562Sol     MW 5570   2.238   0.678   2.065 -0.9792 -0.0329 -0.2691
  563Sol     OW 5571   1.831   3.284   6.766 -0.5049  0.2637 -0.1164
  563Sol     HW 5572   1.859   3.376   6.772 -0.2341  0.3328 -1.9209
  563Sol     HW 5573   1.736   3.289   6.756 -0.4090  0.4024 -1.0138
  563Sol     MW 5574   1.825   3.293   6.765  0.4177  0.2553  0.9874
  564Sol     OW 5575   0.804   0.834   3.615  0.0567 -0.1831  0.3602
  564Sol     HW 5576   0.745   0.781   3.668  0.1097 -0.4440  0.1614
  564Sol     HW 5577   0.808   0.919   3.660  0.6090 -0.6085  1.1252
  564Sol     MW 5578   0.799   0.837   3.624 -0.2990 -0.9739 -0.1572
  565Sol     OW 5579   1.349   1.947   6.777  0.6254  0.0831  0.1333
  565Sol     HW 5580   1.361   2.038   6.805 -3.0524  0.7408 -0.0686
  565Sol     HW 5581   1.395   1.941   6.693  1.8384  1.4446  0.6926
  565Sol     MW 5582   1.354   1.955   6.772 -0.1305  0.5213  0.4445
  566Sol     OW 5583   0.834   0.905   3.204 -0.4599 -0.3623 -0.8726
  566Sol     HW 5584   0.861   0.960   3.131  1.5661  3.3883  2.5126
  566Sol     HW 5585   0.765   0.955   3.248  0.6701 -0.9515  1.6649
  566Sol     MW 5586   0.830   0.914   3.202  0.4426  0.9564  0.3070
  567Sol     OW 5587   0.740   3.028   5.457 -0.3539 -0.6918  0.4167
  567Sol     HW 5588   0.695   2.990   5.381 -0.7903 -1.5724  1.1094
  567Sol     HW 5589   0.722   2.968   5.528 -0.0432  0.1999  1.2604
  567Sol     MW 5590   0.735   3.019   5.456 -0.1996  0.6451 -0.5110
  568Sol     OW 5591   3.166   0.044   2.204 -0.0792  0.1432 -0.2344
  568Sol     HW 5592   3.180   0.081   2.118  0.7760  0.7451  0.1619
  568Sol     HW 5593   3.136  -0.046   2.187 -0.0287  0.2990 -1.1494
  568Sol     MW 5594   3.164   0.039   2.195  0.3890  0.0655 -0.0288
  569Sol     OW 5595   2.294   0.839   5.139  0.2276  0.0134  0.3884
  569Sol     HW 5596   2.330   0.927   5.149 -0.6154  0.5560 -1.2131
  569Sol     HW 5597   2.351   0.797   5.076 -0.7884  0.2245 -0.6795
  569Sol     MW 5598   2.303   0.843   5.135 -0.1053  0.3656 -0.4735
  570Sol     OW 5599   1.090   2.772   3.189 -0.2147 -0.2889 -0.1075
  570Sol     HW 5600   1.141   2.802   3.264 -0.8359 -1.7447  0.9282
  570Sol     HW 5601   1.041   2.849   3.160  0.3289  0.3811  0.7449
  570Sol     MW 5602   1.090   2.782   3.193 -0.2882  0.4158 -0.9632
  571Sol     OW 5603   1.095   2.714   8.353 -0.2305  0.0709  0.8531
  571Sol     HW 5604   1.008   2.694   8.321 -0.0163 -1.4912  1.2262
  571Sol     HW 5605   1.112   2.804   8.323 -0.8353 -0.6287 -1.6368
  571Sol     MW 5606   1.089   2.720   8.348  0.5964 -0.2844 -0.5570
  572Sol     OW 5607   0.781   2.971   3.627 -0.5296  0.7581  0.1731
  572Sol     HW 5608   0.742   3.049   3.587 -0.4680  0.3155 -0.7674
  572Sol     HW 5609   0.706   2.918   3.655 -0.5740  1.0594  0.6156
  572Sol     MW 5610   0.771   2.973   3.626 -0.5888 -0.3550  0.7578
  573Sol     OW 5611   2.148   2.280   6.257  0.2704  0.3783 -0.7525
  573Sol     HW 5612   2.176   2.340   6.326  0.7518  0.5514 -1.0944
  573Sol     HW 5613   2.057   2.260   6.278  0.5180  0.1552  0.1288
  573Sol     MW 5614   2.142   2.283   6.265  0.3458 -0.1564  0.2966
  574Sol     OW 5615   0.033   1.443   1.925  0.4359 -0.8053  0.1800
  574Sol     HW 5616   0.046   1.481   2.011  0.5716  0.9671 -0.6005
  574Sol     HW 5617   0.120   1.409   1.900  1.0456  1.0931 -0.3678
  574Sol     MW 5618   0.042   1.443   1.930  0.5917  0.3308 -0.1968
  575Sol     OW 5619   0.616   0.115   9.037  0.4303  0.0066 -0.0005
  575Sol     HW 5620   0.572   0.124   9.122  2.1257  1.2403  0.7611
  575Sol     HW 5621   0.690   0.057   9.054  1.4700  1.1984 -0.3383
  575Sol     MW 5622   0.618   0.111   9.046 -0.3242  0.1798 -0.1910
  576Sol     OW 5623   2.107   1.742   8.239 -0.0735 -0.1740 -0.3630
  576Sol     HW 5624   2.030   1.700   8.200 -1.1766  2.0505 -0.6648
  576Sol     HW 5625   2.142   1.798   8.170  1.3169 -0.4956  0.0597
  576Sol     MW 5626   2.103   1.743   8.229 -0.3760  0.2521  0.7384
  577Sol     OW 5627   0.430   0.339   8.228  0.4529 -0.0812 -0.7532
  577Sol     HW 5628   0.415   0.246   8.213 -0.5811  0.1888 -1.4604
  577Sol     HW 5629   0.346   0.380   8.210  1.3291  1.1789 -2.1170
  577Sol     MW 5630   0.421   0.335   8.225 -0.0848  0.7551  0.7862
  578Sol     OW 5631   2.820   3.362   7.829  0.2548  0.0037 -0.6008
  578Sol     HW 5632   2.871   3.281   7.826  0.5029  0.2130 -3.4798
  578Sol     HW 5633   2.874   3.426   7.782 -1.5667  0.8548 -1.5984
  578Sol     MW 5634   2.830   3.360   7.824 -0.7277 -0.3307 -0.4992
  579Sol     OW 5635   3.291   3.125   6.815 -0.0297 -0.1244  0.3952
  579Sol     HW 5636   3.358   3.057   6.809 -0.3421 -0.3971 -0.0248
  579Sol     HW 5637   3.340   3.205   6.834  0.3716 -0.4056  0.5536
  579Sol     MW 5638   3.302   3.126   6.816  0.2945  0.1071 -0.3440
  580Sol     OW 5639   0.749   1.919   3.438 -0.2644  0.1598  0.1515
  580Sol     HW 5640   0.765   1.825   3.450  1.1665  0.0474 -2.3788
  580Sol     HW 5641   0.827   1.961   3.475 -1.1046  0.4065  1.6907
  580Sol     MW 5642   0.758   1.914   3.443  0.0756 -0.2049 -0.7491
  581Sol     OW 5643   1.226   0.376   3.590  0.6245 -0.5502  0.6531
  581Sol     HW 5644   1.298   0.331   3.547  0.7238 -1.0730  1.3509
  581Sol     HW 5645   1.152   0.315   3.583  0.1923  0.0898 -0.2764
  581Sol     MW 5646   1.225   0.366   3.586  0.5548 -0.7849 -0.1416
  582Sol     OW 5647   1.803   0.120   2.185  0.3738  0.5526  0.0926
  582Sol     HW 5648   1.839   0.040   2.225 -0.7018 -0.0240 -0.0929
  582Sol     HW 5649   1.825   0.189   2.248  1.5658  0.1723  0.1240
  582Sol     MW 5650   1.808   0.119   2.194 -0.2903 -0.5038  0.5273
  583Sol     OW 5651   2.138   1.298   5.931  0.0911 -0.3391 -0.0678
  583Sol     HW 5652   2.155   1.217   5.882  0.8325  0.8449 -1.8251
  583Sol     HW 5653   2.082   1.350   5.873  0.4483  0.8203  0.6175
  583Sol     MW 5654   2.135   1.295   5.922 -0.3186 -0.8506  0.0917
  584Sol     OW 5655   1.780   1.252   5.972 -0.4313 -0.3267  0.2549
  584Sol     HW 5656   1.833   1.195   5.917 -1.5472 -1.7419  0.6165
  584Sol     HW 5657   1.773   1.333   5.922 -0.9086 -1.3626 -1.3978
  584Sol     MW 5658   1.784   1.254   5.963  0.1314 -0.3479 -0.7018
  585Sol     OW 5659   2.195   0.450   2.209 -0.0650 -0.0468 -0.1035
  585Sol     HW 5660   2.133   0.399   2.156 -2.2677  0.6145  1.7706
  585Sol     HW 5661   2.143   0.482   2.283  2.0155  2.3446  0.3904
  585Sol     MW 5662   2.185   0.448   2.211  0.2941  0.0682 -0.6536
  586Sol     OW 5663   1.585   0.481   8.804 -0.5682 -0.0906  0.1271
  586Sol     HW 5664   1.491   0.469   8.818 -0.5638  0.7068  0.8257
  586Sol     HW 5665   1.592   0.507   8.712 -1.3205  2.9766  0.8806
  586Sol     MW 5666   1.577   0.482   8.797  0.3187  0.4193  0.0042
  587Sol     OW 5667   1.963   1.427   6.479 -0.4805 -0.3400  0.0862
  587Sol     HW 5668   1.893   1.365   6.458 -2.0532  0.8615  1.6108
  587Sol     HW 5669   2.029   1.374   6.524 -1.7710 -0.9510  1.3048
  587Sol     MW 5670   1.962   1.417   6.481 -0.7226 -0.1669  0.0184
  588Sol     OW 5671   1.821   1.482   8.986  0.5128 -0.1986  1.0117
  588Sol     HW 5672   1.794   1.422   9.056 -0.4773 -0.7193  0.1950
  588Sol     HW 5673   1.738   1.513   8.949  0.9809 -2.4565 -2.0886
  588Sol     MW 5674   1.811   1.480   8.989 -0.8023  0.1886 -0.8052
  589Sol     OW 5675   0.796   1.628   3.430  0.1030 -0.2668 -0.1851
  589Sol     HW 5676   0.891   1.622   3.435  0.2775  2.4710  0.1944
  589Sol     HW 5677   0.774   1.581   3.349  1.7530 -0.9834 -0.2386
  589Sol     MW 5678   0.802   1.623   3.423 -0.4785  0.1957  0.5749
  590Sol     OW 5679   1.525   3.062   5.579  0.3648  0.6558 -0.4550
  590Sol     HW 5680   1.441   3.108   5.580 -0.2186 -0.3828  1.7298
  590Sol     HW 5681   1.521   3.005   5.502 -1.1902  0.1215  0.0252
  590Sol     MW 5682   1.517   3.061   5.572 -1.0340 -0.3876  0.6676
  591Sol     OW 5683   0.168   1.126   4.243 -0.3906  0.0711 -0.1031
  591Sol     HW 5684   0.241   1.189   4.244 -0.5470  0.3255  3.2077
  591Sol     HW 5685   0.210   1.040   4.245 -0.1675  0.1783 -0.1607
  591Sol     MW 5686   0.178   1.124   4.244 -0.2963 -0.6098 -0.0322
  592Sol     OW 5687   2.595   2.174   9.797 -0.1879  0.2851 -0.6746
  592Sol     HW 5688   2.564   2.098   9.845 -2.3228  1.6973  0.2511
  592Sol     HW 5689   2.682   2.149   9.765  1.0224 -0.9431  3.3318
  592Sol     MW 5690   2.600   2.165   9.798  0.0861  0.4511 -0.2950
  593Sol     OW 5691   2.835   0.276   2.159  0.0669  0.1622  0.2367
  593Sol     HW 5692   2.928   0.299   2.164  0.2842 -0.8054  0.8842
  593Sol     HW 5693   2.794   0.331   2.226  0.0362  1.2256 -0.6504
  593Sol     MW 5694   2.840   0.283   2.166  0.0974 -0.3263 -0.8000
  594Sol     OW 5695   2.921   2.789   5.152  0.2565 -0.0612  0.0789
  594Sol     HW 5696   2.901   2.757   5.240  0.1269  2.1621  0.8754
  594Sol     HW 5697   2.896   2.881   5.153  0.8634  0.1620 -2.0971
  594Sol     MW 5698   2.917   2.794   5.160 -0.2118 -0.4372  0.0880
  595Sol     OW 5699   1.916   0.075   6.824 -0.5109 -0.0043 -0.1760
  595Sol     HW 5700   1.910   0.063   6.919 -0.9518  1.0102 -0.0714
  595Sol     HW 5701   2.007   0.053   6.803 -0.6256 -1.0174  0.3627
  595Sol     MW 5702   1.924   0.072   6.831 -0.1409  0.0847 -0.0261
  596Sol     OW 5703   1.285   2.064   3.773  0.0434 -0.3120  0.3339
  596Sol     HW 5704   1.288   2.158   3.756 -0.8068 -0.2849  0.2884
  596Sol     HW 5705   1.365   2.045   3.822  0.4258  0.3591 -0.0352
  596Sol     MW 5706   1.292   2.071   3.776 -0.2792 -0.0860  0.4702
  597Sol     OW 5707   0.850   0.921   8.436  0.1313  0.4216 -0.4766
  597Sol     HW 5708   0.923   0.919   8.499 -0.0175 -1.9581 -0.3341
  597Sol     HW 5709   0.889   0.893   8.353 -0.0043  2.0290 -1.0887
  597Sol     MW 5710   0.860   0.918   8.434 -0.7265  0.6660 -0.0105
  598Sol     OW 5711   2.146   2.514   2.200  0.4220  0.3681  0.5137
  598Sol     HW 5712   2.123   2.607   2.191 -0.0238  0.3139  1.0926
  598Sol     HW 5713   2.127   2.493   2.291 -2.0279 -0.9830 -0.2601
  598Sol     MW 5714   2.142   2.521   2.207 -0.3399  0.0134  0.3089
  599Sol     OW 5715   0.505   1.542   3.051 -0.3532  0.1500 -0.1466
  599Sol     HW 5716   0.593   1.515   3.023 -0.1458  1.8426 -1.2443
  599Sol     HW 5717   0.459   1.561   2.969 -0.8871  1.7686  0.5080
  599Sol     MW 5718   0.509   1.541   3.041  0.0592  0.4516  0.6193
  600Sol     OW 5719   2.706   1.697   4.699 -0.0672  0.2449 -0.0947
  600Sol     HW 5720   2.701   1.787   4.666 -0.1063 -0.6556 -2.7112
  600Sol     HW 5721   2.629   1.687   4.754 -0.5292  1.5608 -0.4929
  600Sol     MW 5722   2.699   1.704   4.701  0.0813 -0.0938  0.0224
  601Sol     OW 5723   3.280   2.263   2.053  0.3509  0.1072 -0.1851
  601Sol     HW 5724   3.307   2.223   1.970 -0.8550  2.3355 -1.6877
  601Sol     HW 5725   3.250   2.189   2.106 -0.3662 -1.1937 -2.3121
  601Sol     MW 5726   3.280   2.252   2.050  0.0866  0.0647  0.5572
  602Sol     OW 5727   0.524   2.019   5.170 -0.2168  0.1032  0.8577
  602Sol     HW 5728   0.503   2.042   5.079  1.9290  1.5041  0.6776
  602Sol     HW 5729   0.565   1.933   5.164 -1.2958 -0.4088  0.6659
  602Sol     MW 5730   0.525   2.013   5.161 -0.8756  0.2115  0.0337
  603Sol     OW 5731   2.991   2.990   7.590  0.3686  0.6515 -0.0923
  603Sol     HW 5732   2.901   3.000   7.558 -0.0925 -0.4027  0.8500
  603Sol     HW 5733   3.046   3.001   7.512 -0.7539 -2.2598 -1.3611
  603Sol     MW 5734   2.988   2.992   7.580  0.2373  0.0352  0.4405
  604Sol     OW 5735   2.180   2.521   3.521  0.6989 -0.1489 -0.2988
  604Sol     HW 5736   2.098   2.475   3.504 -0.2524  1.8511 -1.2262
  604Sol     HW 5737   2.239   2.452   3.552 -0.5892 -2.0327 -1.8875
  604Sol     MW 5738   2.178   2.510   3.523  0.2691 -0.3036  0.2974
  605Sol     OW 5739   0.490   1.296   6.693  0.4647  0.1559 -0.4067
  605Sol     HW 5740   0.419   1.316   6.755  0.3240  0.0569 -0.5347
  605Sol     HW 5741   0.450   1.309   6.607  1.0640  1.6745 -0.4685
  605Sol     MW 5742   0.480   1.299   6.691 -0.3523  0.1910 -0.2388
  606Sol     OW 5743   0.142   3.220   9.029  0.4884  0.3133  0.3072
  606Sol     HW 5744   0.197   3.143   9.046 -0.8292 -0.5782  0.5766
  606Sol     HW 5745   0.176   3.255   8.947  2.0347  0.2894  0.9109
  606Sol     MW 5746   0.150   3.216   9.024  0.5184  0.1363  0.1649
  607Sol     OW 5747   1.950   1.468   9.891 -0.1128 -0.0382 -0.3062
  607Sol     HW 5748   2.002   1.395   9.925 -0.0749 -0.2892 -0.9113
  607Sol     HW 5749   1.859   1.438   9.899 -0.1551  0.2625  0.4205
  607Sol     MW 5750   1.946   1.459   9.895  0.1615  0.6504 -0.0427
  608Sol     OW 5751   2.298   2.125   8.451 -0.1507  0.1959 -0.1319
  608Sol     HW 5752   2.354   2.070   8.396  0.0450 -1.4995  1.7007
  608Sol     HW 5753   2.214   2.079   8.453 -0.2428  0.4018  0.7519
  608Sol     MW 5754   2.296   2.116   8.446 -0.0734  0.7282 -0.5529
  609Sol     OW 5755   0.449   2.930   4.879  0.6068 -0.2466  1.0269
  609Sol     HW 5756   0.456   3.014   4.833 -0.0192 -1.0303 -0.5444
  609Sol     HW 5757   0.374   2.941   4.937  0.4861  0.2671  0.7787
  609Sol     MW 5758   0.443   2.938   4.880  0.0881  0.2287  0.1567
  610Sol     OW 5759   2.011   0.693   3.677  0.5597 -0.1370  0.4409
  610Sol     HW 5760   2.084   0.669   3.620  0.8185 -0.1610  0.7794
  610Sol     HW 5761   2.050   0.751   3.743  0.6138 -1.4119  1.5747
  610Sol     MW 5762   2.021   0.696   3.678 -0.4479 -0.0677 -0.0143
  611Sol     OW 5763   0.095   0.717   7.697  0.0838 -0.0484  0.0765
  611Sol     HW 5764   0.099   0.672   7.781  0.0034  0.4544  0.3477
  611Sol     HW 5765   0.002   0.734   7.683  0.3072  2.3469  1.2043
  611Sol     MW 5766   0.087   0.714   7.703  0.4087  0.2316  0.7100
  612Sol     OW 5767   2.803   2.019   6.820 -0.1912 -0.2318 -0.2767
  612Sol     HW 5768   2.723   1.972   6.797  0.1896 -0.1692 -1.7319
  612Sol     HW 5769   2.866   1.995   6.753  0.8665  0.1446  0.5540
  612Sol     MW 5770   2.801   2.013   6.812 -0.6916 -0.9100 -0.5957
  613Sol     OW 5771   1.060   1.114   3.660 -0.3098  0.1112 -0.7644
  613Sol     HW 5772   1.044   1.139   3.751 -1.1082 -0.8499 -0.6311
  613Sol     HW 5773   0.972   1.109   3.621 -0.2578 -3.2032 -0.5804
  613Sol     MW 5774   1.051   1.116   3.664  0.8864  0.3414  0.2991
  614Sol     OW 5775   0.240   1.768   7.973 -0.3975 -0.6356  0.4797
  614Sol     HW 5776   0.190   1.841   7.935 -0.1781 -1.4564 -1.4228
  614Sol     HW 5777   0.231   1.697   7.910  0.3581 -1.8974  1.7660
  614Sol     MW 5778   0.235   1.769   7.964  0.4882  0.0071 -0.5973
  615Sol     OW 5779   2.034   0.581   5.005 -1.0139 -0.3029 -0.0199
  615Sol     HW 5780   2.021   0.490   4.979 -0.9086 -0.6932  1.2484
  615Sol     HW 5781   2.018   0.581   5.100 -2.6400  1.2983 -0.2672
  615Sol     MW 5782   2.031   0.573   5.011  0.3223 -0.4892  0.3164
  616Sol     OW 5783   0.851   0.942   3.904 -0.1586  0.2311  0.4307
  616Sol     HW 5784   0.758   0.919   3.897 -0.2190  1.2029 -2.6263
  616Sol     HW 5785   0.897   0.858   3.900 -0.7819 -0.0507 -1.0562
  616Sol     MW 5786   0.847   0.932   3.903 -0.5733 -0.1369 -0.5104
  617Sol     OW 5787   3.032   2.351   2.726  0.5454 -0.5693  0.4066
  617Sol     HW 5788   3.015   2.443   2.746 -1.8284 -1.4222  2.5000
  617Sol     HW 5789   3.114   2.331   2.772  1.1612  0.5255 -0.2073
  617Sol     MW 5790   3.038   2.357   2.732  0.2727 -0.5654  0.2683
  618Sol     OW 5791   0.145   2.459   2.325 -0.6125 -0.0101 -0.3376
  618Sol     HW 5792   0.129   2.366   2.340  0.4385 -0.2308 -0.5972
  618Sol     HW 5793   0.240   2.467   2.320 -0.6470  1.2895  1.0161
  618Sol     MW 5794   0.152   2.451   2.326 -0.4467 -0.0506 -0.0801
  619Sol     OW 5795   1.114   1.729   7.433  0.3027  0.5805 -0.3605
  619Sol     HW 5796   1.141   1.679   7.510  0.3914  1.9364  0.4979
  619Sol     HW 5797   1.183   1.712   7.369 -0.2691 -1.3380 -0.5110
  619Sol     MW 5798   1.123   1.723   7.434  0.1493  0.7106 -0.3146
  620Sol     OW 5799   2.546   0.605   2.973  0.1694 -0.2816  0.1831
  620Sol     HW 5800   2.502   0.526   2.943 -2.5877  1.2277  0.0550
  620Sol     HW 5801   2.583   0.581   3.058 -1.8334 -1.3535  0.7926
  620Sol     MW 5802   2.545   0.596   2.978  0.0009  0.1924 -0.1378
  621Sol     OW 5803   2.057   1.220   6.930 -0.3523  0.2675 -0.5566
  621Sol     HW 5804   2.052   1.219   7.026 -2.1568  0.3609 -0.6400
  621Sol     HW 5805   2.026   1.307   6.905  1.3875  0.7348 -1.1875
  621Sol     MW 5806   2.054   1.228   6.937  0.7173  0.9725  0.3148
  622Sol     OW 5807   2.340   1.256   1.719  0.4318  0.4693 -0.6724
  622Sol     HW 5808   2.333   1.169   1.680 -1.8917  0.3136 -0.0163
  622Sol     HW 5809   2.268   1.305   1.681 -1.1704  0.6718  2.4100
  622Sol     MW 5810   2.333   1.252   1.712 -0.2577 -0.3547 -0.2197
  623Sol     OW 5811   0.496   3.394   5.764 -0.5526 -0.2576  0.6100
  623Sol     HW 5812   0.527   3.471   5.716  1.0903  0.1476  2.3059
  623Sol     HW 5813   0.532   3.320   5.715  1.3339  0.1603  1.3264
  623Sol     MW 5814   0.502   3.394   5.755  0.0907 -0.0841 -0.2090
  624Sol     OW 5815   2.808   3.414   1.896 -0.1225 -0.0045 -0.6409
  624Sol     HW 5816   2.891   3.389   1.855  0.0959 -0.6027  0.1739
  624Sol     HW 5817   2.741   3.376   1.839  0.1907 -1.3393 -0.1243
  624Sol     MW 5818   2.809   3.408   1.887  0.3261 -0.4628  0.4994
  625Sol     OW 5819   3.147   2.579   7.478  0.0382 -0.4484 -0.0715
  625Sol     HW 5820   3.201   2.500   7.489 -0.0729 -0.6700 -1.1471
  625Sol     HW 5821   3.209   2.646   7.450 -0.1042 -0.4960 -0.4981
  625Sol     MW 5822   3.157   2.578   7.477  0.4821  0.1576  0.3431
  626Sol     OW 5823   1.236   2.937   5.167  0.2445  0.1254  0.0986
  626Sol     HW 5824   1.276   2.963   5.084  0.7231 -0.2695  0.2012
  626Sol     HW 5825   1.142   2.949   5.153  0.1730 -1.5353 -1.0800
  626Sol     MW 5826   1.231   2.940   5.158  0.1595  0.9837 -0.1866
  627Sol     OW 5827   3.275   1.165   4.544  0.5506  0.2873 -0.1455
  627Sol     HW 5828   3.270   1.211   4.460 -1.2004  2.4582  1.0730
  627Sol     HW 5829   3.195   1.113   4.547  0.2983  0.7003  0.4197
  627Sol     MW 5830   3.267   1.165   4.537  0.7295  0.2321  0.1031
  628Sol     OW 5831   1.641   2.076   7.685 -0.0542 -0.0028  0.2374
  628Sol     HW 5832   1.717   2.049   7.634  0.2798  1.1138  0.1432
  628Sol     HW 5833   1.601   2.146   7.633 -0.2054  0.5460  1.0948
  628Sol     MW 5834   1.644   2.080   7.676  0.2869 -0.2999 -0.0407
  629Sol     OW 5835   2.662   1.646   8.882 -0.4530  0.0110  0.0525
  629Sol     HW 5836   2.585   1.598   8.853 -1.1311  1.5576 -0.7279
  629Sol     HW 5837   2.681   1.609   8.969 -0.3881 -2.2996 -0.9120
  629Sol     MW 5838   2.657   1.639   8.887 -0.2053 -0.6374  0.0801
  630Sol     OW 5839   2.370   0.696   4.117  0.0180  0.3475  0.1914
  630Sol     HW 5840   2.317   0.711   4.196 -0.3701  1.2357 -0.2383
  630Sol     HW 5841   2.450   0.656   4.150 -1.0254 -1.2945  0.8251
  630Sol     MW 5842   2.372   0.693   4.127 -0.3111  0.0738 -0.2184
  631Sol     OW 5843   0.065   0.927   2.466  0.0256 -0.2922 -0.2898
  631Sol     HW 5844   0.140   0.936   2.524 -1.3291  1.4902  1.2723
  631Sol     HW 5845   0.052   1.015   2.430 -1.1381 -0.6284 -0.7369
  631Sol     MW 5846   0.070   0.936   2.468 -0.1393 -0.1066  0.4319
  632Sol     OW 5847   2.692   0.969   8.065 -0.1740  0.3961  0.4073
  632Sol     HW 5848   2.608   0.934   8.093  0.0038 -0.1549  0.2546
  632Sol     HW 5849   2.727   0.904   8.004 -0.0473  1.0553 -0.2267
  632Sol     MW 5850   2.688   0.960   8.062 -0.1851  0.2812 -0.2363
  633Sol     OW 5851   3.061   3.364   6.802 -0.2920 -0.0556 -0.1915
  633Sol     HW 5852   3.092   3.451   6.777  2.1977 -1.2623 -1.5361
  633Sol     HW 5853   2.966   3.369   6.792 -0.1148  2.2132 -1.2087
  633Sol     MW 5854   3.055   3.372   6.799 -0.4748 -0.2537 -0.4622
  634Sol     OW 5855   3.037   0.777   9.113  0.1055  0.0809 -0.6985
  634Sol     HW 5856   3.013   0.705   9.055 -1.4609 -1.1938  1.4672
  634Sol     HW 5857   2.956   0.826   9.124  0.3594  0.2189  0.5518
  634Sol     MW 5858   3.028   0.775   9.109  0.1808 -0.2101 -0.1759
  635Sol     OW 5859   0.524   0.603   3.237 -0.1682  0.1160  0.3984
  635Sol     HW 5860   0.616   0.610   3.211  0.5100  0.6626  2.8586
  635Sol     HW 5861   0.494   0.524   3.193  1.9480 -1.0059  0.8702
  635Sol     MW 5862   0.530   0.597   3.231 -0.3009 -1.0101  0.8026
  636Sol     OW 5863   2.619   1.636   6.241 -0.3720  0.0298  0.5607
  636Sol     HW 5864   2.566   1.686   6.179  1.0598  0.3053 -0.4587
  636Sol     HW 5865   2.710   1.654   6.216  0.1925 -1.8548  1.1342
  636Sol     MW 5866   2.622   1.642   6.233 -0.3007 -0.1564 -1.0881
  637Sol     OW 5867   2.958   2.155   2.966 -0.6615 -0.0956 -0.0939
  637Sol     HW 5868   3.035   2.138   3.021  0.6444 -0.5291 -2.0180
  637Sol     HW 5869   2.912   2.226   3.011  1.1679  0.5720  0.7835
  637Sol     MW 5870   2.961   2.160   2.975 -0.1101 -0.3258  0.3395
  638Sol     OW 5871   2.708   1.490   5.886  0.1891  0.3701  0.0973
  638Sol     HW 5872   2.771   1.490   5.814  0.2605 -1.0354  0.1401
  638Sol     HW 5873   2.626   1.518   5.847 -0.1017 -1.7258 -0.8426
  638Sol     MW 5874   2.706   1.492   5.876 -0.3862 -0.3054  0.0356
  639Sol     OW 5875   1.380   0.793   3.944  0.0671 -0.0695  0.3803
  639Sol     HW 5876   1.285   0.793   3.959 -0.3962 -2.1328 -2.1599
  639Sol     HW 5877   1.398   0.709   3.903  2.6770  1.2132 -1.2416
  639Sol     MW 5878   1.373   0.786   3.942 -0.5607 -0.2509  0.2317
  640Sol     OW 5879   1.574   2.454   4.090  0.0417  0.2700  0.9052
  640Sol     HW 5880   1.613   2.398   4.023 -1.4562 -1.9001  1.7706
  640Sol     HW 5881   1.494   2.489   4.049 -0.1236  0.0847  1.0666
  640Sol     MW 5882   1.570   2.452   4.081 -0.2615 -0.5732 -0.1817
  641Sol     OW 5883   0.445   1.265   3.463  0.6644 -0.2511 -0.2635
  641Sol     HW 5884   0.470   1.298   3.377  0.5748 -0.5832 -0.4177
  641Sol     HW 5885   0.505   1.307   3.524  0.6199  0.1121 -0.4705
  641Sol     MW 5886   0.452   1.271   3.461 -0.0233 -0.0521  0.1682
  642Sol     OW 5887   0.375   0.409   9.042 -0.1005  0.3693  0.0323
  642Sol     HW 5888   0.357   0.464   8.966 -1.7757  0.8011  0.7344
  642Sol     HW 5889   0.470   0.393   9.037  0.2027  2.2570 -0.8812
  642Sol     MW 5890   0.382   0.413   9.034 -0.0710 -0.0273 -0.0426
  643Sol     OW 5891   3.174   2.705   6.669 -0.2762  0.6465  0.1805
  643Sol     HW 5892   3.088   2.745   6.657 -1.4717 -2.0986 -0.9769
  643Sol     HW 5893   3.215   2.709   6.583 -0.3759 -0.4710  0.0668
  643Sol     MW 5894   3.170   2.709   6.660 -0.7112 -0.1530 -0.6553
  644Sol     OW 5895   0.181   1.241   6.387  1.0513 -0.6566  0.4337
  644Sol     HW 5896   0.115   1.242   6.317 -0.4125  2.3209  1.7762
  644Sol     HW 5897   0.181   1.150   6.418 -0.8720 -1.1904 -1.0338
  644Sol     MW 5898   0.175   1.233   6.384  0.2110 -0.5962 -0.1659
  645Sol     OW 5899   1.422   0.365   2.486 -0.2682  0.1500 -0.5505
  645Sol     HW 5900   1.516   0.384   2.492 -0.2933  1.5320 -3.7880
  645Sol     HW 5901   1.380   0.447   2.512 -0.5670  0.1399 -1.0136
  645Sol     MW 5902   1.427   0.374   2.489  0.3432  0.6921 -0.1446
  646Sol     OW 5903   0.557   1.432   5.428 -0.6147  0.4251 -0.2463
  646Sol     HW 5904   0.638   1.469   5.462 -0.8711 -1.0046  1.9792
  646Sol     HW 5905   0.487   1.483   5.469 -0.8824  1.2119 -1.6392
  646Sol     MW 5906   0.558   1.440   5.434 -0.2217 -0.3820 -0.7682
  647Sol     OW 5907   2.696   0.268   2.944 -0.1127  0.1439  0.1764
  647Sol     HW 5908   2.731   0.226   3.023  1.9039  0.1098 -0.6921
  647Sol     HW 5909   2.629   0.208   2.913  2.1874 -2.1340 -0.6156
  647Sol     MW 5910   2.693   0.259   2.948 -0.2099 -0.2166 -0.2651
  648Sol     OW 5911   3.259   2.967   7.724  0.3288  0.1077 -0.4534
  648Sol     HW 5912   3.229   2.927   7.806  0.5478 -0.5255 -0.6832
  648Sol     HW 5913   3.180   2.971   7.670 -0.0771  1.6130  0.2159
  648Sol     MW 5914   3.249   2.964   7.726  0.8270  0.0166 -0.9626
  649Sol     OW 5915   3.303   0.565   3.038  0.1403  0.2298  0.2121
  649Sol     HW 5916   3.242   0.549   3.109  1.9411  1.8340  2.1857
  649Sol     HW 5917   3.255   0.620   2.976 -0.2002  2.0832  2.0977
  649Sol     MW 5918   3.293   0.568   3.039 -0.6836 -0.0983  0.5876
  650Sol     OW 5919   2.014   0.949   4.222  0.0070 -0.2842  0.4757
  650Sol     HW 5920   2.049   0.948   4.312  2.8528 -0.7571 -0.5721
  650Sol     HW 5921   2.067   1.015   4.177 -1.7666  0.3283 -0.7219
  650Sol     MW 5922   2.022   0.955   4.226  0.1392  1.2380  1.0284
  651Sol     OW 5923   2.724   2.712   8.608  0.6895  0.4065 -0.3496
  651Sol     HW 5924   2.812   2.674   8.616  0.3551 -0.6406 -1.5590
  651Sol     HW 5925   2.737   2.790   8.553  1.2426  1.6632  1.4919
  651Sol     MW 5926   2.733   2.716   8.604 -0.0951  0.2385 -0.5933
  652Sol     OW 5927   1.874   1.326   4.680  0.3693  0.5981 -0.4655
  652Sol     HW 5928   1.877   1.249   4.623 -2.1781  0.1815 -0.0987
  652Sol     HW 5929   1.966   1.349   4.694  1.1194 -1.2849 -2.0375
  652Sol     MW 5930   1.882   1.321   4.676 -0.1477 -0.5325  0.6716
  653Sol     OW 5931   0.192   1.552   7.520  0.3234  0.2992 -0.2627
  653Sol     HW 5932   0.288   1.557   7.516  0.5735 -0.7106  2.9060
  653Sol     HW 5933   0.164   1.644   7.522  1.3585  0.6184  0.4693
  653Sol     MW 5934   0.198   1.561   7.520 -0.1280  0.6263 -0.0926
  654Sol     OW 5935   1.617   1.028   5.499  0.2400  0.1754  0.1337
  654Sol     HW 5936   1.638   1.010   5.590  1.2819 -1.0412 -0.3427
  654Sol     HW 5937   1.541   1.087   5.503 -0.4376 -0.7892  1.7596
  654Sol     MW 5938   1.612   1.032   5.507  0.4083 -0.0882 -0.3542
  655Sol     OW 5939   0.095   0.717   4.486  0.3015  0.3502  0.0696
  655Sol     HW 5940   0.163   0.751   4.544  0.0148 -0.3889  0.8434
  655Sol     HW 5941   0.123   0.745   4.398  2.0973 -0.7262  0.2731
  655Sol     MW 5942   0.104   0.723   4.483 -0.1154 -0.0570  0.2555
  656Sol     OW 5943   1.568   1.544   6.782  0.1496 -0.2236 -0.0118
  656Sol     HW 5944   1.583   1.634   6.752 -0.9196 -0.1171 -0.2370
  656Sol     HW 5945   1.588   1.490   6.705  1.4455 -0.2400  0.3167
  656Sol     MW 5946   1.571   1.547   6.772 -0.0819 -0.0661 -0.1219
  657Sol     OW 5947   2.059   2.036   2.899  0.2921 -0.0661 -0.3727
  657Sol     HW 5948   2.115   1.966   2.932  1.4390  0.9951 -0.0163
  657Sol     HW 5949   2.098   2.116   2.935 -0.3443  0.8449 -1.6805
  657Sol     MW 5950   2.067   2.037   2.906 -0.1297  0.0540  0.1922
  658Sol     OW 5951   1.889   2.175   6.018 -0.6936 -0.4103 -0.2179
  658Sol     HW 5952   1.815   2.233   6.035  0.0541  1.0208 -1.6515
  658Sol     HW 5953   1.884   2.155   5.924  2.2944  2.0378 -0.9968
  658Sol     MW 5954   1.882   2.178   6.011  0.3822 -0.7958 -0.3679
  659Sol     OW 5955   3.197   0.988   5.499 -0.3479  0.2200 -0.7603
  659Sol     HW 5956   3.107   0.984   5.466  0.2528 -0.1079 -2.4195
  659Sol     HW 5957   3.230   0.898   5.491  1.5277  1.1066 -4.3625
  659Sol     MW 5958   3.192   0.980   5.495  0.2382  0.3554 -0.5324
  660Sol     OW 5959   2.574   1.351   9.403 -0.1873  0.2541  0.1309
  660Sol     HW 5960   2.484   1.363   9.434 -0.9691 -0.9738 -1.6220
  660Sol     HW 5961   2.568   1.357   9.308  1.7331  1.0225  0.0337
  660Sol     MW 5962   2.566   1.353   9.397  0.3965 -0.0717 -0.0781
  661Sol     OW 5963   1.860   3.231   4.294  0.2497 -0.3144 -0.0724
  661Sol     HW 5964   1.851   3.286   4.372 -1.5146  0.2513 -0.6387
  661Sol     HW 5965   1.866   3.293   4.221 -0.1959 -0.8460 -0.5706
  661Sol     MW 5966   1.859   3.241   4.294 -0.0211 -0.3068 -0.2716
  662Sol     OW 5967   1.023   0.008   8.786  0.3555  0.0860  0.0725
  662Sol     HW 5968   1.067  -0.066   8.828 -0.4782  0.0217  0.8415
  662Sol     HW 5969   0.938  -0.027   8.760 -0.1502  0.8498  0.6948
  662Sol     MW 5970   1.019  -0.002   8.788  0.5094 -0.3353 -0.0349
  663Sol     OW 5971   2.754   1.745   5.577  0.6083 -0.4244 -0.5399
  663Sol     HW 5972   2.660   1.741   5.559  0.2193 -2.0891  1.5340
  663Sol     HW 5973   2.772   1.837   5.595 -0.9055 -0.2638  0.2184
  663Sol     MW 5974   2.747   1.753   5.577  0.4253  0.2350  0.8330
  664Sol     OW 5975   1.753   2.510   2.367 -0.1474 -0.0118  0.1127
  664Sol     HW 5976   1.747   2.489   2.460 -0.8898  0.2746  0.1339
  664Sol     HW 5977   1.728   2.602   2.361 -2.0637 -0.5669 -0.6032
  664Sol     MW 5978   1.750   2.516   2.375  0.3679  0.3368 -1.0650
  665Sol     OW 5979   0.673   0.740   6.873  0.1265 -0.1752 -0.5321
  665Sol     HW 5980   0.636   0.653   6.887 -0.3977  0.4159  1.8760
  665Sol     HW 5981   0.767   0.725   6.864 -0.0817 -1.0972 -1.3502
  665Sol     MW 5982   0.678   0.731   6.873  0.4339  0.2934 -0.0537
  666Sol     OW 5983   0.991   0.291   4.921 -0.2613 -0.4744  0.5158
  666Sol     HW 5984   1.036   0.372   4.945 -1.3259  0.2069  0.2160
  666Sol     HW 5985   1.026   0.226   4.983 -1.0781  0.7064  2.2725
  666Sol     MW 5986   0.998   0.292   4.929 -0.4730 -0.6089  0.8762
  667Sol     OW 5987   1.940   0.579   9.258  0.4649  0.3124 -0.2105
  667Sol     HW 5988   1.936   0.670   9.232 -0.3585  0.4050  0.2185
  667Sol     HW 5989   2.023   0.570   9.305  1.1634  0.5261 -1.3818
  667Sol     MW 5990   1.947   0.586   9.260  0.0021 -0.6167  0.2419
  668Sol     OW 5991   2.463   2.104   4.560  0.0741  0.4990  0.3339
  668Sol     HW 5992   2.536   2.149   4.518  0.4543  0.5302  1.0239
  668Sol     HW 5993   2.420   2.171   4.613  0.9890 -0.0707  1.8201
  668Sol     MW 5994   2.465   2.114   4.561  0.5583  0.5851  0.6741
  669Sol     OW 5995   2.509   0.520   9.615 -0.0375 -0.0313 -0.6751
  669Sol     HW 5996   2.500   0.614   9.631  0.0290  0.0259 -0.9730
  669Sol     HW 5997   2.477   0.507   9.525 -0.4693 -0.3625 -0.4788
  669Sol     MW 5998   2.505   0.527   9.608 -0.0605  0.7773  0.2472
  670Sol     OW 5999   1.599   0.199   9.078  0.1935 -0.2903  0.2835
  670Sol     HW 6000   1.634   0.148   9.151  2.9608 -1.3429 -1.6799
  670Sol     HW 6001   1.636   0.287   9.090  1.2401 -0.6521 -0.2093
  670Sol     MW 6002   1.606   0.202   9.085 -0.3870 -0.1649  0.0421
  671Sol     OW 6003   1.304   1.693   7.806  0.4814 -0.4161  0.0572
  671Sol     HW 6004   1.340   1.614   7.846  1.5385  0.6279  1.2216
  671Sol     HW 6005   1.381   1.741   7.774 -0.0416  0.7298  0.4939
  671Sol     MW 6006   1.314   1.690   7.807  0.7472  0.0389 -0.4705
  672Sol     OW 6007   1.749   1.095   8.603  0.1771 -0.4004  0.0511
  672Sol     HW 6008   1.818   1.079   8.668 -0.1064 -0.4603  0.3414
  672Sol     HW 6009   1.762   1.186   8.577  0.3503 -0.4032  0.1231
  672Sol     MW 6010   1.757   1.102   8.607 -0.6172 -0.4248  0.1372
  673Sol     OW 6011   2.729   2.384   5.783 -0.4277  0.0088  0.0274
  673Sol     HW 6012   2.650   2.391   5.837 -0.0789  0.1869  0.5202
  673Sol     HW 6013   2.702   2.332   5.707 -1.1759  0.5687 -0.1012
  673Sol     MW 6014   2.720   2.380   5.781 -0.5067 -0.3825 -0.2807
  674Sol     OW 6015   0.854   0.957   2.355 -0.4621  0.2769  0.0119
  674Sol     HW 6016   0.806   0.996   2.428  0.5342  1.9527 -0.1998
  674Sol     HW 6017   0.911   1.028   2.324  1.1524 -1.2658 -0.5945
  674Sol     MW 6018   0.855   0.967   2.359 -0.1431 -0.3601 -0.5943
  675Sol     OW 6019   0.095   1.170   3.627  0.2176 -0.0361  0.2328
  675Sol     HW 6020   0.070   1.195   3.716  1.6844 -0.2453  0.7317
  675Sol     HW 6021   0.142   1.247   3.593  0.8954 -0.4796  0.1606
  675Sol     MW 6022   0.097   1.180   3.632 -0.0442 -0.4829 -0.5788
  676Sol     OW 6023   2.692   2.141   8.986  0.4050  0.6494  0.1365
  676Sol     HW 6024   2.694   2.220   8.932 -0.5719  0.2262 -0.5266
  676Sol     HW 6025   2.761   2.085   8.949 -0.3338  0.3148 -0.7470
  676Sol     MW 6026   2.699   2.144   8.978  0.0542 -0.1402 -0.4014
  677Sol     OW 6027   0.928   0.446   6.899 -0.0901  0.3071  0.0879
  677Sol     HW 6028   0.868   0.384   6.940 -0.1755  1.0565  1.1059
  677Sol     HW 6029   1.012   0.401   6.896 -0.3578 -0.1872  0.0167
  677Sol     MW 6030   0.930   0.436   6.902  0.4414  0.5694  0.3764
  678Sol     OW 6031   0.915   0.095   5.856  0.0775  0.3512  0.2732
  678Sol     HW 6032   0.918   0.123   5.765  2.7916  1.2486  0.6017
  678Sol     HW 6033   0.965   0.013   5.858  0.7268  0.7625  1.1009
  678Sol     MW 6034   0.920   0.090   5.848  0.0863 -0.0465  0.2701
  679Sol     OW 6035   3.143   2.540   6.272  0.4432  0.4338  0.3921
  679Sol     HW 6036   3.187   2.455   6.269  2.1977  1.3598 -1.1224
  679Sol     HW 6037   3.137   2.567   6.180  0.3263  2.1440  0.8807
  679Sol     MW 6038   3.146   2.535   6.263 -0.3757 -0.2129 -0.5711
  680Sol     OW 6039   0.545   1.145   6.949 -0.4872 -0.1696  0.1151
  680Sol     HW 6040   0.546   1.096   6.867  1.1429  0.6865 -0.4098
  680Sol     HW 6041   0.625   1.118   6.994 -1.5993 -0.9922  1.6676
  680Sol     MW 6042   0.552   1.138   6.946 -0.5397  0.2596 -0.0774
  681Sol     OW 6043   0.908   2.336   9.449 -0.0350  0.4519 -0.0817
  681Sol     HW 6044   0.978   2.352   9.386  0.2697  3.4276  0.9112
  681Sol     HW 6045   0.854   2.415   9.445 -2.0285 -0.8308  0.8285
  681Sol     MW 6046   0.909   2.345   9.443  0.0806 -0.3935  0.1093
  682Sol     OW 6047   1.334   1.542   9.041 -0.0808 -0.1265  0.3706
  682Sol     HW 6048   1.316   1.454   9.075 -0.2502 -0.1815  0.1387
  682Sol     HW 6049   1.263   1.559   8.980 -1.0934  0.9329  1.8237
  682Sol     MW 6050   1.326   1.536   9.038  0.0085  0.1732 -0.2617
  683Sol     OW 6051   0.949   0.540   5.674 -0.2677  0.3530 -0.5094
  683Sol     HW 6052   1.021   0.488   5.710 -0.6063  1.5285  1.9699
  683Sol     HW 6053   0.989   0.624   5.653 -0.3277  0.0591 -1.8473
  683Sol     MW 6054   0.959   0.543   5.675  0.1102 -0.1157  0.5572
  684Sol     OW 6055   1.908   3.060   7.985  0.1525 -0.1414  0.5671
  684Sol     HW 6056   1.931   3.136   8.039  1.4345  1.5402 -2.2645
  684Sol     HW 6057   1.987   3.040   7.936 -0.9769 -1.6697 -0.6822
  684Sol     MW 6058   1.917   3.065   7.986 -0.4463 -0.1221 -0.1940
  685Sol     OW 6059   0.989   2.476   5.776 -0.2126  0.2358 -0.2928
  685Sol     HW 6060   1.012   2.564   5.749  0.7798  0.3973  1.0443
  685Sol     HW 6061   0.910   2.487   5.830  1.4433  0.6493  2.1401
  685Sol     MW 6062   0.984   2.484   5.779 -0.7465  0.2377  0.7639
  686Sol     OW 6063   1.393   3.430   8.267 -0.2246  1.2265 -0.5389
  686Sol     HW 6064   1.468   3.483   8.292  0.5329 -0.9681  2.0207
  686Sol     HW 6065   1.326   3.450   8.332  0.0903 -0.9263  0.5007
  686Sol     MW 6066   1.393   3.436   8.275  0.0439  0.1633 -0.0717
  687Sol     OW 6067   0.684   2.686   7.200  0.1946  0.4627  0.1359
  687Sol     HW 6068   0.597   2.722   7.187  0.1185  0.5508  0.9077
  687Sol     HW 6069   0.676   2.630   7.277  0.8771  0.6693  0.3593
  687Sol     MW 6070   0.676   2.684   7.205 -0.3948 -0.0881  0.0920
  688Sol     OW 6071   2.406   2.299   6.630 -0.3572  0.2090  0.0472
  688Sol     HW 6072   2.443   2.229   6.684 -1.9284  0.3114  1.2652
  688Sol     HW 6073   2.390   2.371   6.691  0.2829  1.2781 -1.0163
  688Sol     MW 6074   2.408   2.300   6.640  0.2758 -0.0529  0.0621
  689Sol     OW 6075   0.411   0.417   7.167  0.3529 -0.7226 -0.0510
  689Sol     HW 6076   0.440   0.373   7.248 -0.7265 -1.7863 -0.2253
  689Sol     HW 6077   0.347   0.481   7.196  0.0684 -1.0082 -0.0473
  689Sol     MW 6078   0.408   0.418   7.177 -0.3843 -0.0139 -0.3791
  690Sol     OW 6079   0.801   2.669   5.141  0.6608 -0.0980 -0.4146
  690Sol     HW 6080   0.811   2.617   5.221  0.3219  0.0331 -0.2873
  690Sol     HW 6081   0.708   2.691   5.139 -0.0281 -2.9285 -2.5859
  690Sol     MW 6082   0.794   2.666   5.148 -0.1041  0.0508 -0.2413
  691Sol     OW 6083   3.149   1.865   9.786 -0.2758 -0.0234  0.7102
  691Sol     HW 6084   3.102   1.803   9.730  0.4665  0.9594 -1.0630
  691Sol     HW 6085   3.102   1.948   9.775  0.2172  0.3115  1.0843
  691Sol     MW 6086   3.141   1.867   9.780 -0.4745 -0.9079  0.2415
  692Sol     OW 6087   0.315   2.055   3.409  0.2283  0.5005 -0.9394
  692Sol     HW 6088   0.308   2.130   3.352  0.7995  0.1277 -1.5027
  692Sol     HW 6089   0.238   2.060   3.466 -0.4404  0.7559 -1.8728
  692Sol     MW 6090   0.307   2.062   3.409 -0.0429  0.4152  0.1681
  693Sol     OW 6091   0.353   2.661   8.343 -0.0825 -0.3066 -0.1632
  693Sol     HW 6092   0.380   2.627   8.428  0.2535  0.5630  0.0778
  693Sol     HW 6093   0.260   2.639   8.338 -0.6281  1.5513  1.3763
  693Sol     MW 6094   0.347   2.656   8.350  0.0365  0.3472  0.0202
  694Sol     OW 6095   2.901   2.659   2.343 -0.0560  0.0061 -0.0563
  694Sol     HW 6096   2.913   2.740   2.391 -0.2912  0.0201 -0.0182
  694Sol     HW 6097   2.989   2.626   2.328  0.0351  0.2257  0.0018
  694Sol     MW 6098   2.910   2.663   2.346  0.2578 -0.5374  0.1609
  695Sol     OW 6099   1.376   1.592   9.423  0.0609  0.5789 -0.0739
  695Sol     HW 6100   1.289   1.569   9.389  0.6251  0.1458 -1.2305
  695Sol     HW 6101   1.363   1.595   9.518 -1.1938  0.3896 -0.2213
  695Sol     MW 6102   1.367   1.590   9.429  0.1129  0.1031  0.3535
  696Sol     OW 6103   1.637   1.572   8.304 -0.1928  0.4040 -0.0928
  696Sol     HW 6104   1.640   1.651   8.358 -0.7959 -0.9517  1.9741
  696Sol     HW 6105   1.543   1.558   8.287 -0.0252  0.6725 -1.2982
  696Sol     MW 6106   1.629   1.578   8.307 -0.8872 -0.2578  0.8507
  697Sol     OW 6107   1.297   0.394   6.988  0.0887 -0.0529  0.4161
  697Sol     HW 6108   1.258   0.464   7.039  0.3682  0.5226 -0.1532
  697Sol     HW 6109   1.339   0.337   7.052  4.3974  3.0597  0.5811
  697Sol     MW 6110   1.297   0.395   6.998 -0.5920  0.0350  0.1679
  698Sol     OW 6111   0.811   2.077   2.031  0.3392 -0.0467  0.1898
  698Sol     HW 6112   0.777   2.134   1.962  0.2689 -0.3495 -0.0238
  698Sol     HW 6113   0.901   2.060   2.006  1.1026  1.8840  1.4682
  698Sol     MW 6114   0.816   2.081   2.023  0.0777 -0.6623 -0.2315
  699Sol     OW 6115   2.898   2.702   6.356 -0.0208  0.5436 -0.0026
  699Sol     HW 6116   2.933   2.763   6.291 -0.0617  0.6237  0.0506
  699Sol     HW 6117   2.895   2.618   6.311 -0.8739  0.7776 -0.3903
  699Sol     MW 6118   2.900   2.700   6.346 -0.7222 -0.2932  0.4256
  700Sol     OW 6119   0.755   1.818   5.157 -0.8141  0.1843  0.2908
  700Sol     HW 6120   0.761   1.723   5.159  3.2955  0.3612 -0.3168
  700Sol     HW 6121   0.727   1.839   5.068  1.1347 -0.3698 -0.4660
  700Sol     MW 6122   0.753   1.811   5.149  0.3764  0.2185  0.2224
  701Sol     OW 6123   2.512   2.527   3.791 -0.4805 -0.2969  0.1640
  701Sol     HW 6124   2.436   2.512   3.848 -0.5930 -0.9252 -0.1472
  701Sol     HW 6125   2.555   2.442   3.787  0.2766  0.0751  0.3857
  701Sol     MW 6126   2.509   2.518   3.796 -0.4330  0.6477 -0.6406
  702Sol     OW 6127   1.379   2.913   6.699  0.0010 -0.0527 -0.3794
  702Sol     HW 6128   1.459   2.864   6.718  0.7494  0.9678 -0.8529
  702Sol     HW 6129   1.353   2.950   6.783 -0.8173 -1.5900  0.0761
  702Sol     MW 6130   1.384   2.912   6.708 -0.1859  0.2409 -0.1015
  703Sol     OW 6131   2.446   1.328   5.339  0.3484  0.3504  0.3448
  703Sol     HW 6132   2.441   1.242   5.296  0.3649 -0.2473  1.4990
  703Sol     HW 6133   2.380   1.381   5.295  0.4475 -0.2020 -0.4930
  703Sol     MW 6134   2.440   1.325   5.331  0.4620 -0.3219 -0.1941
  704Sol     OW 6135   1.352   2.873   7.223  0.2561  0.8607  0.4766
  704Sol     HW 6136   1.271   2.822   7.224  0.1662  1.0170  1.3760
  704Sol     HW 6137   1.335   2.946   7.283  0.0842  2.4105 -1.4127
  704Sol     MW 6138   1.343   2.875   7.229  0.4832  0.0257  0.0594
  705Sol     OW 6139   2.804   3.033   2.148 -0.1960  0.1579 -0.7133
  705Sol     HW 6140   2.852   3.050   2.229 -1.0918 -0.2776 -0.0737
  705Sol     HW 6141   2.866   2.988   2.092  0.0975 -0.5380  0.1625
  705Sol     MW 6142   2.814   3.031   2.151 -0.8398 -0.3544  0.0262
  706Sol     OW 6143   0.446   2.549   9.632  0.3525 -0.0192 -0.4142
  706Sol     HW 6144   0.418   2.507   9.551 -0.3563  0.4632 -0.4316
  706Sol     HW 6145   0.496   2.482   9.678 -0.9948 -0.9832 -0.3218
  706Sol     MW 6146   0.448   2.539   9.629 -0.1855 -0.4328  0.0216
  707Sol     OW 6147   3.010   1.233   2.415  0.0505  0.1672  0.6274
  707Sol     HW 6148   2.993   1.224   2.322  0.0037 -1.6355  0.7849
  707Sol     HW 6149   2.953   1.304   2.444 -1.8487 -0.9520 -0.2471
  707Sol     MW 6150   3.003   1.238   2.409 -0.2071  0.1209 -0.4515
  708Sol     OW 6151   3.126   1.737   3.544 -0.3680 -0.1872  0.2953
  708Sol     HW 6152   3.053   1.774   3.494 -0.7038  0.4001  1.2096
  708Sol     HW 6153   3.086   1.667   3.596 -0.2748  0.1202  0.7816
  708Sol     MW 6154   3.115   1.734   3.544  0.5841  0.3213  0.1539
  709Sol     OW 6155   0.236   3.135   4.141  0.2251  0.1745  0.3907
  709Sol     HW 6156   0.297   3.065   4.163 -0.8389 -1.0223 -0.4426
  709Sol     HW 6157   0.270   3.172   4.059  1.6630  1.6947  1.6261
  709Sol     MW 6158   0.245   3.132   4.136 -0.0538  0.2822  0.4337
  710Sol     OW 6159   0.856   1.840   3.723 -0.0800 -0.1630 -0.3269
  710Sol     HW 6160   0.888   1.770   3.780  0.4066 -0.7931 -1.3625
  710Sol     HW 6161   0.814   1.902   3.782  0.6654 -0.6752  0.7436
  710Sol     MW 6162   0.855   1.839   3.733 -0.5250 -0.4262 -0.3258
  711Sol     OW 6163   1.727   1.160   7.690 -0.3054  0.4023  0.1456
  711Sol     HW 6164   1.804   1.103   7.697 -0.1964  0.4591 -0.5630
  711Sol     HW 6165   1.747   1.235   7.745  0.7929  1.1344 -1.2406
  711Sol     MW 6166   1.735   1.161   7.695 -0.0175  0.4706  0.4577
  712Sol     OW 6167   2.050   3.249   5.158 -0.0215 -0.4196  0.4363
  712Sol     HW 6168   1.964   3.260   5.198  0.1983  2.1842  0.2358
  712Sol     HW 6169   2.033   3.193   5.082 -1.7091  0.7838 -0.1089
  712Sol     MW 6170   2.041   3.245   5.154 -0.1114 -0.5544 -0.2607
  713Sol     OW 6171   1.178   0.759   4.265  0.2325  0.2034  0.2784
  713Sol     HW 6172   1.226   0.676   4.266  0.5400  0.3885  1.3954
  713Sol     HW 6173   1.218   0.811   4.335  0.1015  1.3325 -0.4782
  713Sol     MW 6174   1.186   0.756   4.271  0.1210  0.2117  0.9413
  714Sol     OW 6175   0.267   0.799   4.693 -0.3397  0.0330 -0.6946
  714Sol     HW 6176   0.359   0.776   4.702 -0.1606  1.4673  1.6403
  714Sol     HW 6177   0.264   0.893   4.709 -2.0632  0.2316 -2.0012
  714Sol     MW 6178   0.275   0.805   4.696 -0.2721 -0.6763  0.1424
  715Sol     OW 6179   0.799   1.991   9.170  0.3123 -0.3071 -0.5136
  715Sol     HW 6180   0.868   2.015   9.107  0.4481  1.7862  0.4076
  715Sol     HW 6181   0.759   2.074   9.194  0.0981 -1.1078  1.9945
  715Sol     MW 6182   0.802   2.001   9.166  0.3431  0.5479  0.3097
  716Sol     OW 6183   2.284   0.710   9.141  0.0011  0.2733  0.0457
  716Sol     HW 6184   2.254   0.627   9.104  1.5743 -0.1771 -0.2632
  716Sol     HW 6185   2.305   0.688   9.232  0.0247  0.4302  0.0778
  716Sol     MW 6186   2.283   0.700   9.146 -0.0263  0.1830 -0.6741
  717Sol     OW 6187   2.633   3.146   7.373 -0.1659  0.0021  0.8837
  717Sol     HW 6188   2.587   3.228   7.390  0.0750  0.8827 -2.4822
  717Sol     HW 6189   2.565   3.086   7.344  0.2034  0.1606 -0.3408
  717Sol     MW 6190   2.623   3.148   7.372 -0.2537 -0.2151 -0.1761
  718Sol     OW 6191   1.242   0.537   3.813  0.0802  0.5012 -0.2027
  718Sol     HW 6192   1.240   0.478   3.737 -1.3836 -1.2736  1.1647
  718Sol     HW 6193   1.160   0.584   3.809 -1.5051 -1.9265  2.0037
  718Sol     MW 6194   1.235   0.536   3.805 -0.0738  0.2423 -0.4290
  719Sol     OW 6195   0.188   2.981   3.012  0.0478 -0.0324  0.0118
  719Sol     HW 6196   0.144   3.041   2.953  1.4726 -2.0666 -3.2965
  719Sol     HW 6197   0.123   2.912   3.030  0.5712 -1.0190 -1.7487
  719Sol     MW 6198   0.178   2.980   3.009 -0.1193 -0.9966 -0.3336
  720Sol     OW 6199   1.679   0.108   3.269  0.0597 -0.0179 -0.1649
  720Sol     HW 6200   1.752   0.063   3.227 -2.4591 -1.4099 -3.2840
  720Sol     HW 6201   1.677   0.194   3.227 -0.8499 -0.4663 -1.0812
  720Sol     MW 6202   1.685   0.111   3.261  0.4679 -0.1256  0.0372
  721Sol     OW 6203   3.289   1.260   4.965  0.1994  1.2077 -1.0195
  721Sol     HW 6204   3.319   1.314   5.038 -0.0028  0.4803 -0.3937
  721Sol     HW 6205   3.197   1.241   4.984  0.7267 -0.7811 -0.3460
  721Sol     MW 6206   3.284   1.263   4.973 -0.8477  0.2957 -0.0663
  722Sol     OW 6207   2.183   2.828   7.219 -0.5051 -0.2469 -0.1857
  722Sol     HW 6208   2.203   2.835   7.126  0.4474  0.6907  0.0818
  722Sol     HW 6209   2.131   2.748   7.227 -0.6255 -0.3042 -1.5239
  722Sol     MW 6210   2.180   2.822   7.212  0.5316  0.2427  0.6410
  723Sol     OW 6211   1.386   1.615   6.489  0.1530 -0.5680  0.4598
  723Sol     HW 6212   1.428   1.529   6.492 -0.9706 -1.1621 -0.5057
  723Sol     HW 6213   1.295   1.597   6.512 -0.0503  0.3930  0.4032
  723Sol     MW 6214   1.382   1.605   6.492  0.4424  0.2590  0.1478
  724Sol     OW 6215   2.687   2.250   5.293  0.6220  0.2469  0.5961
  724Sol     HW 6216   2.633   2.186   5.246 -2.4567  1.7509  1.8868
  724Sol     HW 6217   2.692   2.326   5.234 -0.1616  0.7508  1.1608
  724Sol     MW 6218   2.682   2.251   5.284 -0.4249  0.2273  0.0335
  725Sol     OW 6219   0.330   0.287   3.298 -0.7802 -0.0162 -0.3547
  725Sol     HW 6220   0.363   0.304   3.209 -1.5554  1.2410 -0.4145
  725Sol     HW 6221   0.261   0.222   3.286 -0.1759 -0.6293 -0.5457
  725Sol     MW 6222   0.327   0.283   3.289  0.2964  0.1257  0.4386
  726Sol     OW 6223   0.188   0.981   8.311  0.7002 -0.4092 -0.1503
  726Sol     HW 6224   0.247   0.990   8.385 -0.2335  0.6470  0.4932
  726Sol     HW 6225   0.237   1.014   8.236  0.1577  2.6883  0.7825
  726Sol     MW 6226   0.197   0.985   8.311 -0.4006  0.4581 -0.2796
  727Sol     OW 6227   2.396   0.279   7.501  0.3978  0.0457  0.0914
  727Sol     HW 6228   2.374   0.332   7.424  1.0267  3.3927  2.1096
  727Sol     HW 6229   2.486   0.251   7.486  0.7979  1.3685 -0.0598
  727Sol     MW 6230   2.402   0.281   7.493 -0.8281 -0.1311 -0.3257
  728Sol     OW 6231   1.535   2.951   5.332  0.2706 -0.0346 -0.0020
  728Sol     HW 6232   1.490   3.001   5.263 -2.6345 -0.9457  1.1768
  728Sol     HW 6233   1.551   2.865   5.293 -2.2768 -0.8820  0.7344
  728Sol     MW 6234   1.532   2.948   5.322  0.4804 -0.1847  0.1217
  729Sol     OW 6235   2.349   2.128   3.890  0.0677 -0.0980 -0.3386
  729Sol     HW 6236   2.334   2.040   3.856  0.6747  0.1155 -1.1952
  729Sol     HW 6237   2.292   2.135   3.967 -1.1397 -0.6923 -1.1631
  729Sol     MW 6238   2.343   2.121   3.894  0.8064  0.1715 -0.1141
  730Sol     OW 6239   0.831   0.005   7.134 -0.5330 -0.0935 -0.5470
  730Sol     HW 6240   0.895  -0.065   7.148  0.3234  0.4596 -1.6472
  730Sol     HW 6241   0.760  -0.016   7.195 -0.3282 -1.9680 -0.9088
  730Sol     MW 6242   0.830  -0.003   7.141  0.0535  0.3873 -0.6264
  731Sol     OW 6243   2.792   1.281   3.563 -0.3651  0.4666  0.1755
  731Sol     HW 6244   2.857   1.225   3.519 -0.1768 -1.2196  2.4818
  731Sol     HW 6245   2.841   1.360   3.586  1.0397 -0.9215  2.1864
  731Sol     MW 6246   2.802   1.283   3.561 -0.5142  0.3960 -1.0073
  732Sol     OW 6247   1.313   2.317   3.163 -0.1076  0.1149  0.8077
  732Sol     HW 6248   1.319   2.268   3.245 -0.7528 -0.4556  0.5181
  732Sol     HW 6249   1.352   2.260   3.098  0.6833  0.6949  0.7644
  732Sol     MW 6250   1.317   2.308   3.165  0.4739 -0.0460 -0.3369
  733Sol     OW 6251   2.999   2.644   9.243 -0.2845  0.1629  0.2984
  733Sol     HW 6252   2.982   2.648   9.337 -1.2551 -0.2685  0.1454
  733Sol     HW 6253   2.919   2.608   9.205  0.1538  0.1935 -0.6808
  733Sol     MW 6254   2.990   2.641   9.248 -0.0287  0.0736  0.3644
  734Sol     OW 6255   0.675   0.137   9.602 -0.1009 -0.3854 -0.1543
  734Sol     HW 6256   0.641   0.209   9.548  0.8310  1.0982  1.2245
  734Sol     HW 6257   0.764   0.162   9.623 -0.9435 -0.1430  3.4320
  734Sol     MW 6258   0.680   0.146   9.599 -0.1223 -0.0985  0.4346
  735Sol     OW 6259   0.949   2.911   5.128 -0.4126  0.3035  0.5352
  735Sol     HW 6260   0.904   2.844   5.179 -0.5082 -0.0051  0.0543
  735Sol     HW 6261   0.879   2.956   5.080 -0.0545 -1.5571 -1.8447
  735Sol     MW 6262   0.939   2.909   5.128 -0.9622  0.0838  0.4078
  736Sol     OW 6263   0.765   2.914   6.063  0.1369  0.0850  0.0148
  736Sol     HW 6264   0.780   2.997   6.018  0.0832  0.6410  0.9944
  736Sol     HW 6265   0.701   2.935   6.131  1.2029 -0.4265  1.1978
  736Sol     MW 6266   0.761   2.923   6.065 -0.3486  0.3839 -0.5618
  737Sol     OW 6267   0.843   2.314   6.183  0.5448  0.3155 -0.6161
  737Sol     HW 6268   0.804   2.355   6.106  1.4279  1.1503 -0.6337
  737Sol     HW 6269   0.909   2.377   6.213  0.2827 -0.0402  0.7606
  737Sol     MW 6270   0.846   2.324   6.179  0.0545  0.6270  0.6751
  738Sol     OW 6271   2.188   2.293   4.714  0.7222  0.1173 -0.0005
  738Sol     HW 6272   2.220   2.217   4.763  1.4799 -0.7026 -1.7166
  738Sol     HW 6273   2.097   2.272   4.695  1.0728 -0.6294 -0.9247
  738Sol     MW 6274   2.183   2.284   4.717 -0.2757  0.0552  0.1904
  739Sol     OW 6275   1.424   1.803   3.893 -0.3547 -0.2742 -0.5975
  739Sol     HW 6276   1.338   1.791   3.934  0.2048  2.1137  1.4048
  739Sol     HW 6277   1.405   1.809   3.800 -2.1678 -1.5199 -0.3357
  739Sol     MW 6278   1.415   1.803   3.889 -0.3578  0.2616  0.0016
  740Sol     OW 6279   2.050   0.432   5.989 -0.3607  0.0831 -0.5012
  740Sol     HW 6280   1.957   0.446   6.007 -0.6001 -1.4226 -0.4900
  740Sol     HW 6281   2.092   0.514   6.014 -1.7514  0.9745 -1.0101
  740Sol     MW 6282   2.045   0.441   5.993  0.2008 -0.0427  0.1634
  741Sol     OW 6283   0.851   0.583   5.263 -0.0812 -0.2051 -0.3194
  741Sol     HW 6284   0.880   0.658   5.315 -0.0852 -0.1374 -0.4146
  741Sol     HW 6285   0.930   0.553   5.217 -0.1533 -0.0466 -0.5477
  741Sol     MW 6286   0.861   0.587   5.263 -0.7166 -0.1297 -0.5959
  742Sol     OW 6287   3.240   0.704   9.255  0.4954  0.7102  0.0349
  742Sol     HW 6288   3.248   0.768   9.326 -0.7733  1.0521 -0.1312
  742Sol     HW 6289   3.167   0.735   9.202  2.1197  1.0717 -2.0641
  742Sol     MW 6290   3.235   0.712   9.257  0.1800 -0.0856 -0.4000
  743Sol     OW 6291   1.852   2.328   5.127  0.3981 -0.6401  0.3644
  743Sol     HW 6292   1.918   2.396   5.111 -1.7852  1.5348  0.2673
  743Sol     HW 6293   1.826   2.299   5.040  1.9030 -2.2556  0.4108
  743Sol     MW 6294   1.856   2.332   5.118  0.0105  0.1221 -0.0443
  744Sol     OW 6295   3.233   3.425   4.585  0.3229  0.9256  0.6540
  744Sol     HW 6296   3.280   3.487   4.529 -0.6666  1.1111  0.0203
  744Sol     HW 6297   3.300   3.363   4.613  0.8232  0.8165 -0.7521
  744Sol     MW 6298   3.243   3.425   4.583  0.1692 -0.4088  0.7756
  745Sol     OW 6299   2.239   0.740   4.361 -0.4308 -0.0577  0.7216
  745Sol     HW 6300   2.209   0.657   4.399 -1.9700  0.7584  1.3164
  745Sol     HW 6301   2.194   0.807   4.413  1.9502  1.1891  1.2025
  745Sol     MW 6302   2.232   0.738   4.369 -0.3703 -0.2327  0.2443
  746Sol     OW 6303   3.079   0.486   7.292 -0.0341  0.0025  0.1689
  746Sol     HW 6304   3.145   0.554   7.304 -1.2928  1.0965  0.9365
  746Sol     HW 6305   3.015   0.501   7.362 -1.4028 -0.6727 -0.9073
  746Sol     MW 6306   3.079   0.493   7.299  0.5448  0.8548 -0.3936
  747Sol     OW 6307   2.448   0.709   4.964  0.1984  0.3680 -0.0865
  747Sol     HW 6308   2.537   0.732   4.990 -0.3737  2.1071  0.4573
  747Sol     HW 6309   2.449   0.614   4.954  1.8614  0.2619  0.8738
  747Sol     MW 6310   2.456   0.703   4.966 -0.6394 -0.4849  0.0565
  748Sol     OW 6311   0.279   1.719   6.620 -0.0610 -0.4266  0.2183
  748Sol     HW 6312   0.322   1.670   6.691  1.1605 -1.9753 -1.5548
  748Sol     HW 6313   0.351   1.745   6.563 -1.1284  0.1418 -0.8724
  748Sol     MW 6314   0.290   1.717   6.622  0.0875 -0.0506 -0.2856
  749Sol     OW 6315   1.984   2.551   9.231  0.3096  0.0078 -0.6776
  749Sol     HW 6316   1.913   2.566   9.169 -0.0532  2.3806  0.2791
  749Sol     HW 6317   1.999   2.636   9.272  1.8013 -1.1016  1.1596
  749Sol     MW 6318   1.979   2.560   9.229  0.3472 -0.3948  0.3920
  750Sol     OW 6319   0.641   1.406   5.082 -0.5526 -0.2723  0.3022
  750Sol     HW 6320   0.672   1.483   5.034 -0.7031  0.5970  1.5653
  750Sol     HW 6321   0.550   1.426   5.104 -0.3005 -0.3755  1.4890
  750Sol     MW 6322   0.635   1.415   5.080 -0.4330 -0.2081 -0.5229
  751Sol     OW 6323   1.675   0.279   3.587  0.2634 -0.0171  0.0871
  751Sol     HW 6324   1.653   0.270   3.680  0.6029  1.3069  0.3047
  751Sol     HW 6325   1.756   0.330   3.586 -0.3826  1.0178 -0.9803
  751Sol     MW 6326   1.680   0.283   3.595 -0.2539  0.3888 -0.7171
  752Sol     OW 6327   0.938   2.093   8.951 -0.1649  0.0858  0.2133
  752Sol     HW 6328   0.861   2.047   8.920 -0.0160  0.4913 -0.7604
  752Sol     HW 6329   0.948   2.167   8.892  0.1051  0.8860  1.2327
  752Sol     MW 6330   0.932   2.095   8.943  0.0308 -0.0809 -0.1880
  753Sol     OW 6331   1.905   0.036   7.091  0.2858 -0.1091 -0.2312
  753Sol     HW 6332   1.854  -0.033   7.133 -1.8081  1.1274 -0.6179
  753Sol     HW 6333   1.895   0.111   7.150  0.2236  0.6281 -1.1743
  753Sol     MW 6334   1.899   0.037   7.100 -0.3673  0.1787 -0.0378
  754Sol     OW 6335   3.242   3.021   5.272  0.3987 -0.3306 -0.2423
  754Sol     HW 6336   3.167   2.992   5.325 -0.0296  1.0708 -0.0571
  754Sol     HW 6337   3.281   3.091   5.324  0.5052  0.4593 -1.3871
  754Sol     MW 6338   3.239   3.024   5.282  0.2870  0.4590 -0.0894
  755Sol     OW 6339   3.007   1.973   9.293 -0.5428  0.6568  0.7239
  755Sol     HW 6340   2.926   1.984   9.342 -0.2868  0.8380  1.1136
  755Sol     HW 6341   3.071   2.029   9.339 -0.7001  2.1332 -0.7916
  755Sol     MW 6342   3.006   1.979   9.302  0.1766 -0.3330  0.9964
  756Sol     OW 6343   1.738   2.200   2.032 -0.2815  0.1374 -0.1522
  756Sol     HW 6344   1.794   2.219   2.107  0.2289  2.0631 -0.9920
  756Sol     HW 6345   1.687   2.280   2.018 -0.4755 -0.2296 -1.7612
  756Sol     MW 6346   1.738   2.209   2.037 -0.9044  0.2378 -0.0050
  757Sol     OW 6347   0.880   2.232   3.809  0.1810  0.2257  0.0161
  757Sol     HW 6348   0.875   2.288   3.887 -1.3336  0.4790 -0.2452
  757Sol     HW 6349   0.880   2.142   3.844 -0.2559  0.3432  0.3245
  757Sol     MW 6350   0.879   2.229   3.819  0.0753  0.0447  0.0423
  758Sol     OW 6351   0.170   0.187   2.772 -0.0800  0.0353 -0.5720
  758Sol     HW 6352   0.180   0.142   2.856 -1.8170  1.2926  0.3501
  758Sol     HW 6353   0.100   0.138   2.727 -0.4160  0.4610 -0.5119
  758Sol     MW 6354   0.164   0.178   2.776  0.5433 -0.3232 -0.1068
  759Sol     OW 6355   2.558   1.185   7.601 -0.7992 -0.1543 -0.5683
  759Sol     HW 6356   2.607   1.252   7.648 -2.1504  0.6440 -0.2658
  759Sol     HW 6357   2.578   1.103   7.646  0.8615  0.0219 -0.9372
  759Sol     MW 6358   2.564   1.183   7.609 -0.3894  0.0299  0.0113
  760Sol     OW 6359   0.212   1.644   4.547 -0.6048 -0.3436 -0.1178
  760Sol     HW 6360   0.287   1.673   4.598 -1.2210 -0.4472  0.8668
  760Sol     HW 6361   0.153   1.605   4.612 -0.9932 -1.2970 -1.0400
  760Sol     MW 6362   0.213   1.643   4.558  0.2771 -0.4080 -0.1781
  761Sol     OW 6363   2.441   3.334   8.334  0.1182  0.2588  0.0976
  761Sol     HW 6364   2.456   3.240   8.348 -1.7705 -0.1452 -0.4077
  761Sol     HW 6365   2.444   3.345   8.238 -1.0841  0.4406  0.0716
  761Sol     MW 6366   2.443   3.326   8.326  0.6324 -0.0205 -0.8908
  762Sol     OW 6367   1.394   0.499   5.974 -0.0001 -0.2162 -0.4652
  762Sol     HW 6368   1.379   0.563   5.904  1.5772 -0.6610 -1.2528
  762Sol     HW 6369   1.310   0.455   5.985 -0.9597  1.5966 -0.3111
  762Sol     MW 6370   1.386   0.501   5.969 -0.1339 -0.0368 -0.5527
  763Sol     OW 6371   1.736   3.200   9.616 -0.2577  0.0231  0.1935
  763Sol     HW 6372   1.669   3.172   9.679  0.8651 -0.8592  1.0131
  763Sol     HW 6373   1.818   3.197   9.665  0.3119  1.7572 -0.6121
  763Sol     MW 6374   1.737   3.197   9.626  0.3353  0.5143  0.2904
  764Sol     OW 6375   2.902   2.736   7.998  0.2712 -0.1319 -0.1113
  764Sol     HW 6376   2.904   2.657   7.944 -1.9661  0.3427 -0.9764
  764Sol     HW 6377   2.859   2.801   7.942 -0.3180  0.9307  1.5440
  764Sol     MW 6378   2.898   2.735   7.988  0.1962  0.0207 -0.0700
  765Sol     OW 6379   0.710   1.154   6.393 -0.2436 -0.6670 -0.1911
  765Sol     HW 6380   0.716   1.196   6.479  1.8111 -0.7677 -0.2634
  765Sol     HW 6381   0.687   1.063   6.412  0.0595 -0.6535  0.2455
  765Sol     MW 6382   0.708   1.149   6.403  0.1342  0.0313 -0.5749
  766Sol     OW 6383   1.108   3.030   9.630  0.0223 -0.1027  0.7816
  766Sol     HW 6384   1.078   2.955   9.578 -0.9996  0.6478  0.2905
  766Sol     HW 6385   1.204   3.022   9.628 -0.0122 -0.3481 -0.8319
  766Sol     MW 6386   1.114   3.022   9.625 -0.5346 -0.4133 -0.2749
  767Sol     OW 6387   2.160   2.424   7.635  0.4463  0.5062 -0.5083
  767Sol     HW 6388   2.123   2.479   7.704  0.2778  1.3579 -1.2761
  767Sol     HW 6389   2.237   2.384   7.676 -0.6669 -0.3991  0.7406
  767Sol     MW 6390   2.164   2.425   7.645 -0.1842 -0.2038 -0.0923
  768Sol     OW 6391   0.011   2.099   2.543 -0.8923 -0.0846  0.3697
  768Sol     HW 6392  -0.044   2.162   2.497 -1.2101 -1.5902 -1.3315
  768Sol     HW 6393   0.095   2.103   2.497 -0.7439 -0.5043  0.6034
  768Sol     MW 6394   0.014   2.105   2.535  0.7099 -0.2894 -0.5964
  769Sol     OW 6395   2.195   3.455   2.956  0.4224  0.4450  0.5199
  769Sol     HW 6396   2.253   3.421   3.023 -0.5323  0.7155  1.5091
  769Sol     HW 6397   2.147   3.525   3.000  0.1781  0.9910 -0.6064
  769Sol     MW 6398   2.196   3.458   2.966  0.5717  0.1670  0.7698
  770Sol     OW 6399   1.591   2.024   6.978 -0.0113 -0.0880 -0.0347
  770Sol     HW 6400   1.522   2.071   7.025  1.4138  0.1677  1.8422
  770Sol     HW 6401   1.616   1.953   7.037  0.4009 -1.0010 -1.2852
  770Sol     MW 6402   1.587   2.022   6.987  0.1468  0.0979  0.7715
  771Sol     OW 6403   1.133   1.559   6.618  0.2677  0.5285  0.0335
  771Sol     HW 6404   1.074   1.551   6.544  1.6570 -0.3754 -1.0052
  771Sol     HW 6405   1.122   1.649   6.649 -1.4738  0.4215 -0.2772
  771Sol     MW 6406   1.127   1.567   6.614  0.3499  0.2603  0.0348
  772Sol     OW 6407   0.423   3.370   7.683 -0.2272 -0.4432 -0.1454
  772Sol     HW 6408   0.341   3.322   7.697 -0.1526 -0.4047  0.4134
  772Sol     HW 6409   0.408   3.418   7.601 -1.1306  0.3445  0.4754
  772Sol     MW 6410   0.414   3.370   7.677  0.5950 -0.1330 -0.7019
  773Sol     OW 6411   2.552   2.950   4.793 -0.0786 -0.3166 -0.1933
  773Sol     HW 6412   2.632   2.898   4.795  1.1590  1.5790  0.5000
  773Sol     HW 6413   2.543   2.984   4.882  1.0594  3.4706 -1.4394
  773Sol     MW 6414   2.558   2.948   4.801  0.2715  0.6220  0.0940
  774Sol     OW 6415   0.095   0.743   5.897 -0.1433  0.1314 -0.1495
  774Sol     HW 6416   0.185   0.714   5.909  0.2687  1.3440 -0.1768
  774Sol     HW 6417   0.053   0.674   5.846  1.6517  1.0000 -2.9319
  774Sol     MW 6418   0.099   0.734   5.893  0.1743  1.1758  0.7444
  775Sol     OW 6419   2.780   0.488   6.665 -0.4724 -0.0588 -0.6227
  775Sol     HW 6420   2.718   0.457   6.730  1.5741  1.9161  2.4143
  775Sol     HW 6421   2.847   0.420   6.661 -0.0648  0.3020  0.1029
  775Sol     MW 6422   2.780   0.479   6.670 -0.5880  1.0430  0.2115
  776Sol     OW 6423   1.592   3.413   8.523 -0.1108 -0.3524  0.0463
  776Sol     HW 6424   1.544   3.336   8.492 -0.7100 -1.2010  2.9780
  776Sol     HW 6425   1.678   3.380   8.549  0.7725  0.5385 -1.5902
  776Sol     MW 6426   1.596   3.403   8.523 -0.3894  0.5948  0.4720
  777Sol     OW 6427   2.102   3.065   9.399 -0.0370  0.0356 -0.1323
  777Sol     HW 6428   2.097   3.027   9.487  2.0941 -2.8541 -1.1572
  777Sol     HW 6429   2.188   3.107   9.396  0.0658 -0.2161 -0.9247
  777Sol     MW 6430   2.109   3.065   9.406 -0.0201  0.1806 -0.4057
  778Sol     OW 6431   0.433   2.699   2.468  0.0781  0.1553 -0.3323
  778Sol     HW 6432   0.430   2.785   2.426 -1.3455 -0.1629 -0.8933
  778Sol     HW 6433   0.430   2.636   2.397  2.8776 -0.3792 -0.0137
  778Sol     MW 6434   0.432   2.701   2.458  0.0685  0.0769 -0.5424
  779Sol     OW 6435   2.040   0.131   9.307  0.4598  0.3539 -1.0864
  779Sol     HW 6436   2.132   0.149   9.287 -0.0405  1.5344 -2.4202
  779Sol     HW 6437   2.036   0.125   9.402  1.6867  1.5636 -0.9609
  779Sol     MW 6438   2.048   0.132   9.314  0.3311  0.2541  0.1417
  780Sol     OW 6439   2.910   2.147   5.377 -0.3938  0.5263  0.1373
  780Sol     HW 6440   2.834   2.201   5.357 -0.2587  0.7016  0.0954
  780Sol     HW 6441   2.905   2.075   5.313  0.7087  1.7421 -1.3727
  780Sol     MW 6442   2.903   2.145   5.369  0.3794 -0.1077 -0.0966
  781Sol     OW 6443   1.875   0.350   2.333  0.3249  0.1986  0.3978
  781Sol     HW 6444   1.795   0.400   2.351  0.1210 -0.3801  1.1114
  781Sol     HW 6445   1.937   0.378   2.401  0.3262 -0.2493  0.5842
  781Sol     MW 6446   1.873   0.357   2.341  0.0340  0.6206 -0.9344
  782Sol     OW 6447   2.066   0.655   3.031 -0.2415  0.0230  0.2768
  782Sol     HW 6448   2.157   0.674   3.054 -0.2642 -0.8029  1.0582
  782Sol     HW 6449   2.015   0.714   3.086 -0.1757  0.6790 -0.3571
  782Sol     MW 6450   2.070   0.662   3.038 -0.4821 -0.1193  0.2787
  783Sol     OW 6451   1.622   0.805   9.172 -0.1410 -0.0763 -0.0985
  783Sol     HW 6452   1.694   0.848   9.217 -2.2018  1.6788  1.6821
  783Sol     HW 6453   1.570   0.766   9.242 -2.2990  0.9205 -1.0700
  783Sol     MW 6454   1.623   0.805   9.182  0.4850  0.3133 -0.5653
  784Sol     OW 6455   3.066   2.672   3.433 -0.3667 -0.0003 -0.7826
  784Sol     HW 6456   3.059   2.751   3.380  1.1477  1.3515  0.9763
  784Sol     HW 6457   2.986   2.671   3.485  0.2449  1.1491  0.2023
  784Sol     MW 6458   3.058   2.679   3.433  0.4237  1.1025  0.1020
  785Sol     OW 6459   0.066   1.834   2.941  0.7379 -0.5391  0.1046
  785Sol     HW 6460   0.037   1.869   2.856  1.9119  0.2619  0.0182
  785Sol     HW 6461   0.151   1.876   2.956  1.2161 -1.8124  0.9881
  785Sol     MW 6462   0.071   1.841   2.935 -0.1278  0.8285 -0.0346
  786Sol     OW 6463   1.341   0.990   7.014  0.3373  0.3023  0.5943
  786Sol     HW 6464   1.353   0.950   6.928 -0.4299  1.3760 -0.0275
  786Sol     HW 6465   1.266   0.943   7.051 -0.3623  0.9123 -0.0079
  786Sol     MW 6466   1.335   0.982   7.010  0.0548  0.3955 -0.2401
  787Sol     OW 6467   3.188   1.085   2.096 -0.5682 -0.3588  0.3112
  787Sol     HW 6468   3.111   1.141   2.091  0.3562  0.9142  0.2938
  787Sol     HW 6469   3.226   1.103   2.182  0.8771  0.5709 -0.5023
  787Sol     MW 6470   3.184   1.091   2.103 -0.2096  0.4127  0.0983
  788Sol     OW 6471   1.975   1.646   2.254 -0.3777  0.0429 -0.1529
  788Sol     HW 6472   1.999   1.679   2.167 -1.4528  1.5996  0.1146
  788Sol     HW 6473   1.895   1.694   2.276  0.8657  1.0073  2.4707
  788Sol     MW 6474   1.970   1.653   2.248  0.1531 -0.4157  0.4358
  789Sol     OW 6475   0.736   1.946   8.833 -0.4398 -0.3243  0.4022
  789Sol     HW 6476   0.799   1.879   8.805 -3.2562 -2.7351 -0.4325
  789Sol     HW 6477   0.688   1.967   8.753 -1.9214  0.1101  1.3966
  789Sol     MW 6478   0.738   1.942   8.823  0.8357  0.0947  0.7383
  790Sol     OW 6479   1.948   1.832   5.847  0.2419  0.3600  0.2188
  790Sol     HW 6480   1.967   1.813   5.939  1.5165  2.8628  0.4925
  790Sol     HW 6481   2.033   1.824   5.803 -0.0016  1.1484 -0.3973
  790Sol     MW 6482   1.958   1.829   5.851  0.2787  0.0234  0.2445
  791Sol     OW 6483   1.407   3.172   8.836 -0.2881  0.5803 -0.1965
  791Sol     HW 6484   1.335   3.112   8.819  0.6327 -0.9351  1.0729
  791Sol     HW 6485   1.371   3.259   8.817 -1.4480 -0.3935 -2.6803
  791Sol     MW 6486   1.397   3.175   8.833 -0.1365  0.1238 -0.0688
  792Sol     OW 6487   1.188   1.107   3.056  0.3712  0.1145 -0.3691
  792Sol     HW 6488   1.162   1.154   3.135  1.0638 -0.1947  0.0467
  792Sol     HW 6489   1.106   1.080   3.016  0.0352 -2.7138  2.0485
  792Sol     MW 6490   1.178   1.109   3.059  0.0613  0.0601  0.6686
  793Sol     OW 6491   0.972   0.817   8.790  0.6143  0.3746 -0.2095
  793Sol     HW 6492   0.921   0.850   8.864 -0.3440 -0.0846 -0.6544
  793Sol     HW 6493   0.908   0.770   8.736  1.4826 -0.0778 -0.8553
  793Sol     MW 6494   0.962   0.816   8.792 -0.3421 -0.4337  0.1925
  794Sol     OW 6495   0.063   3.207   6.160 -0.0819  0.1323 -0.1727
  794Sol     HW 6496   0.057   3.246   6.247  2.9786 -0.8804  0.5917
  794Sol     HW 6497   0.094   3.118   6.176 -0.3326 -0.3600 -2.2380
  794Sol     MW 6498   0.066   3.202   6.169  0.0772 -0.6522 -0.0890
  795Sol     OW 6499   1.414   1.109   6.267 -0.6720 -0.3800 -0.1929
  795Sol     HW 6500   1.365   1.171   6.321 -0.0032 -0.4291  0.4742
  795Sol     HW 6501   1.429   1.033   6.324  0.1248 -0.3903 -0.4030
  795Sol     MW 6502   1.411   1.108   6.277 -0.2112  0.6944 -0.0442
  796Sol     OW 6503   1.656   0.370   3.184 -0.1793  0.1689 -0.3903
  796Sol     HW 6504   1.694   0.455   3.205  1.2099 -0.0778 -1.8329
  796Sol     HW 6505   1.683   0.353   3.094 -0.2872 -1.8833 -0.0587
  796Sol     MW 6506   1.661   0.376   3.178 -0.0767  0.7628  0.5537
  797Sol     OW 6507   1.948   2.007   2.239 -0.5731  0.1998  0.3411
  797Sol     HW 6508   1.940   2.097   2.269 -0.1632  0.2381  0.3325
  797Sol     HW 6509   1.893   1.957   2.299 -3.4925  0.8772 -1.6220
  797Sol     MW 6510   1.942   2.010   2.247 -0.3072 -0.1852 -0.1265
  798Sol     OW 6511   2.371   2.268   2.544 -0.4066  0.2055  0.6270
  798Sol     HW 6512   2.358   2.194   2.485 -1.6620  2.0866 -1.5012
  798Sol     HW 6513   2.422   2.231   2.617  1.8780 -1.9794 -1.9559
  798Sol     MW 6514   2.374   2.258   2.545 -0.1830 -0.7158  0.1328
  799Sol     OW 6515   1.683   1.731   3.598  0.1079 -0.0604 -0.7762
  799Sol     HW 6516   1.603   1.733   3.545  0.9728 -2.6673 -2.2803
  799Sol     HW 6517   1.676   1.650   3.648  0.6344  0.9893  1.0419
  799Sol     MW 6518   1.675   1.724   3.597  1.0779 -0.3757  0.3672
  800Sol     OW 6519   0.036   0.521   8.458 -0.2243 -0.0258 -0.1392
  800Sol     HW 6520   0.113   0.468   8.439 -0.8655 -1.7341  1.9295
  800Sol     HW 6521   0.051   0.603   8.410  1.4154 -1.5240 -2.2378
  800Sol     MW 6522   0.044   0.524   8.452 -0.9007 -0.2662  0.0404
  801Sol     OW 6523   0.419   2.352   7.003 -0.0946 -0.8373 -0.4039
  801Sol     HW 6524   0.455   2.359   6.915  0.6229  0.9460  0.0082
  801Sol     HW 6525   0.496   2.335   7.059  0.0454  1.9896  0.3507
  801Sol     MW 6526   0.429   2.351   7.000  0.4342 -0.1549  0.4614
  802Sol     OW 6527   1.796   2.729   3.521 -0.0698  0.1174 -0.5225
  802Sol     HW 6528   1.786   2.821   3.545 -1.0846  0.0825 -0.7848
  802Sol     HW 6529   1.730   2.683   3.573 -0.5871 -0.2694 -1.4925
  802Sol     MW 6530   1.789   2.733   3.528 -0.1007 -0.2845  0.5612
  803Sol     OW 6531   2.981   0.323   3.057  0.2691 -0.6202 -0.8132
  803Sol     HW 6532   2.958   0.341   2.966  2.2681 -0.3006 -1.2890
  803Sol     HW 6533   3.070   0.287   3.053  1.0264  0.9092  1.1425
  803Sol     MW 6534   2.987   0.321   3.049 -0.2551  0.5194  0.5010
  804Sol     OW 6535   1.732   2.490   7.770 -0.0067  0.0049  0.6776
  804Sol     HW 6536   1.776   2.452   7.693  0.3602  1.2479  0.2606
  804Sol     HW 6537   1.716   2.415   7.827 -0.0546 -0.9108 -0.4988
  804Sol     MW 6538   1.735   2.479   7.768 -0.2075  0.3504  0.2062
  805Sol     OW 6539   2.846   1.691   2.832 -0.1722  0.1899 -0.0399
  805Sol     HW 6540   2.856   1.786   2.822  0.3895  0.4430  2.6105
  805Sol     HW 6541   2.764   1.680   2.879 -0.2165 -0.6509 -0.2971
  805Sol     MW 6542   2.840   1.698   2.835  0.2122  0.0056  0.1194
  806Sol     OW 6543   1.543   0.866   2.513  0.2940  0.1884  0.3483
  806Sol     HW 6544   1.610   0.808   2.550 -0.0636  0.0749  0.8174
  806Sol     HW 6545   1.468   0.809   2.498 -0.0924  0.5447  0.9027
  806Sol     MW 6546   1.542   0.855   2.515 -0.1993  0.0061  0.1002
  807Sol     OW 6547   0.489   2.460   9.346 -0.6478  0.5895 -0.1562
  807Sol     HW 6548   0.583   2.475   9.358 -0.9751  2.2519  0.4164
  807Sol     HW 6549   0.479   2.365   9.346  0.9446  0.4215  0.4608
  807Sol     MW 6550   0.496   2.453   9.347 -0.3130 -0.2019  0.2641
  808Sol     OW 6551   0.175   1.092   4.553 -0.4497  0.0482  0.0846
  808Sol     HW 6552   0.193   1.067   4.462 -0.9573 -0.3137  0.0814
  808Sol     HW 6553   0.081   1.081   4.563 -0.4453  0.4352  0.5525
  808Sol     MW 6554   0.168   1.089   4.546 -0.0862  0.4718  0.0770
  809Sol     OW 6555   2.826   1.354   1.570 -0.4329  0.3691 -0.4066
  809Sol     HW 6556   2.902   1.379   1.622  0.2004 -0.5643 -0.8704
  809Sol     HW 6557   2.817   1.424   1.505 -0.8564  1.2204  0.5644
  809Sol     MW 6558   2.832   1.362   1.569 -0.0435 -0.0504 -0.2770
  810Sol     OW 6559   2.814   3.386   3.139 -0.9212  0.0395 -0.5567
  810Sol     HW 6560   2.900   3.354   3.114 -0.9008 -0.5396  0.2383
  810Sol     HW 6561   2.761   3.378   3.060  0.0637  1.5638 -1.4152
  810Sol     MW 6562   2.817   3.383   3.130 -0.2217 -0.5733  0.1558
  811Sol     OW 6563   1.489   3.152   2.710 -0.3017 -0.2980 -0.0446
  811Sol     HW 6564   1.432   3.148   2.787 -1.0975  0.1360 -0.6042
  811Sol     HW 6565   1.429   3.164   2.637  0.5517  0.8987 -0.5626
  811Sol     MW 6566   1.478   3.153   2.711  0.3853  0.0164  0.3961
  812Sol     OW 6567   1.055   3.310   5.856 -0.4215 -0.2984  0.3743
  812Sol     HW 6568   1.098   3.304   5.941  0.5335  1.1211  0.0002
  812Sol     HW 6569   1.102   3.248   5.801 -0.8247 -0.9733  0.7852
  812Sol     MW 6570   1.063   3.304   5.859 -0.5069 -0.1295 -0.0613
  813Sol     OW 6571   0.779   1.516   3.021  0.0760  0.1219  0.3208
  813Sol     HW 6572   0.820   1.527   3.107 -3.3686  0.3543  2.0217
  813Sol     HW 6573   0.803   1.596   2.973  0.5523  0.8175  1.6894
  813Sol     MW 6574   0.785   1.525   3.024 -0.0442  0.2402  0.2887
  814Sol     OW 6575   1.842   1.789   7.732 -0.0944  0.3152 -0.5094
  814Sol     HW 6576   1.767   1.794   7.673 -0.7297  2.8803  0.4256
  814Sol     HW 6577   1.803   1.781   7.819  0.5647  4.1620  0.2324
  814Sol     MW 6578   1.832   1.789   7.735 -0.2763 -0.3502 -0.1310
  815Sol     OW 6579   2.057   2.046   4.917 -0.2030 -0.2556  0.1300
  815Sol     HW 6580   2.018   1.963   4.943  0.1760  0.2794  2.4507
  815Sol     HW 6581   1.987   2.110   4.927  0.0064 -0.0068  0.0203
  815Sol     MW 6582   2.048   2.044   4.920 -0.0617  0.2895  0.0969
  816Sol     OW 6583   1.255   2.790   5.455 -0.3875  0.1054 -0.0224
  816Sol     HW 6584   1.340   2.758   5.426 -0.1038 -0.7372  1.6364
  816Sol     HW 6585   1.238   2.867   5.401  1.9773  0.9996  0.4353
  816Sol     MW 6586   1.261   2.794   5.448  0.2936  0.8088  0.5951
  817Sol     OW 6587   1.720   3.099   4.872 -0.1633  0.7820 -0.0753
  817Sol     HW 6588   1.749   3.013   4.900  1.0734  1.3319  0.3398
  817Sol     HW 6589   1.789   3.131   4.814 -0.8468  1.2919 -0.6246
  817Sol     MW 6590   1.728   3.095   4.869 -0.7810 -0.1789  0.2235
  818Sol     OW 6591   1.278   1.623   9.671  0.4618 -0.1619  0.6580
  818Sol     HW 6592   1.189   1.591   9.656  0.5370 -0.2072  0.3060
  818Sol     HW 6593   1.272   1.675   9.751  0.0061  0.3064  0.3218
  818Sol     MW 6594   1.269   1.624   9.677 -0.2560  0.5538 -0.3285
  819Sol     OW 6595   1.047   2.362   9.205  0.5772 -0.1968 -0.1498
  819Sol     HW 6596   1.108   2.419   9.158 -0.3228  0.1205 -0.9537
  819Sol     HW 6597   1.001   2.314   9.135 -0.9520  0.4658  0.3688
  819Sol     MW 6598   1.048   2.363   9.194  0.1837  0.0902  0.1474
  820Sol     OW 6599   3.315   0.110   9.444  0.6310 -0.3546  0.2124
  820Sol     HW 6600   3.320   0.201   9.474 -0.7552 -0.1822 -0.0838
  820Sol     HW 6601   3.290   0.060   9.522  0.8216 -0.4135  0.2381
  820Sol     MW 6602   3.314   0.113   9.454 -1.2467 -0.0863  0.1287
  821Sol     OW 6603   0.029   3.193   4.622 -0.0057 -0.3530  0.5669
  821Sol     HW 6604   0.066   3.204   4.534 -1.7077 -0.1796 -0.1555
  821Sol     HW 6605   0.085   3.245   4.679  1.2023 -0.5736 -0.3956
  821Sol     MW 6606   0.037   3.198   4.619 -0.5423  0.2053  0.4353
  822Sol     OW 6607   0.642   2.965   7.641 -0.4941 -0.5991 -0.9482
  822Sol     HW 6608   0.649   3.058   7.660 -0.0929 -0.4780 -1.6995
  822Sol     HW 6609   0.717   2.945   7.586  0.4773 -1.7575  0.7480
  822Sol     MW 6610   0.649   2.971   7.638  0.5401 -0.1030  0.5467
  823Sol     OW 6611   1.792   0.814   8.503 -0.7872  0.5520  0.3034
  823Sol     HW 6612   1.876   0.803   8.547 -0.7124  0.1750  0.0715
  823Sol     HW 6613   1.778   0.909   8.502 -0.0961  0.6589 -0.1492
  823Sol     MW 6614   1.798   0.822   8.507  0.2022 -0.0492 -0.0024
  824Sol     OW 6615   0.020   0.330   6.818  0.1617  0.1886 -0.3962
  824Sol     HW 6616   0.086   0.369   6.761  0.2822 -0.8986 -1.0129
  824Sol     HW 6617  -0.045   0.399   6.830 -0.1573  0.2474 -2.3231
  824Sol     MW 6618   0.020   0.340   6.814  0.1453  0.2153  0.1825
  825Sol     OW 6619   1.400   1.069   8.403 -0.0366  0.1136 -0.0883
  825Sol     HW 6620   1.330   1.128   8.432 -0.3816 -0.1804 -0.3137
  825Sol     HW 6621   1.443   1.042   8.484 -0.5085 -0.1028  0.0913
  825Sol     MW 6622   1.397   1.072   8.413 -0.5415 -0.3084 -0.6170
  826Sol     OW 6623   0.833   1.070   5.332 -0.2003 -0.7161 -0.4895
  826Sol     HW 6624   0.802   1.082   5.242 -0.9945 -1.9833 -0.3939
  826Sol     HW 6625   0.753   1.062   5.384  0.2440 -3.1640 -0.1251
  826Sol     MW 6626   0.823   1.071   5.329  0.4564  0.2209  0.2185
  827Sol     OW 6627   0.114   0.000   5.684  0.0592  1.0407 -0.8858
  827Sol     HW 6628   0.020  -0.014   5.677  0.4200 -2.2394  0.1149
  827Sol     HW 6629   0.145  -0.070   5.741  3.1462  1.9638 -1.3193
  827Sol     MW 6630   0.108  -0.007   5.689  0.4591  0.1185  0.4755
  828Sol     OW 6631   1.871   2.925   1.960 -0.1620 -0.2390 -0.4291
  828Sol     HW 6632   1.782   2.923   1.926  0.3483  1.5138 -1.9709
  828Sol     HW 6633   1.923   2.878   1.894 -0.0100 -1.6090  0.6626
  828Sol     MW 6634   1.868   2.921   1.951 -0.3099  0.1353  0.2733
  829Sol     OW 6635   3.160   1.301   3.644  0.8454  0.0369 -0.0259
  829Sol     HW 6636   3.218   1.280   3.570 -0.1944 -0.8791 -0.5870
  829Sol     HW 6637   3.152   1.219   3.692  0.4868  0.3199  0.3988
  829Sol     MW 6638   3.165   1.292   3.642 -0.5369  0.0402  0.2925
  830Sol     OW 6639   0.099   2.180   4.799  0.7294 -0.0877  0.0235
  830Sol     HW 6640   0.025   2.219   4.845  0.2751  1.1001 -1.6441
  830Sol     HW 6641   0.172   2.241   4.813  0.5211  0.4149 -1.0104
  830Sol     MW 6642   0.099   2.189   4.804  0.5907  0.3317  0.3311
  831Sol     OW 6643   2.572   0.304   9.284 -0.2005 -0.0962 -0.4280
  831Sol     HW 6644   2.620   0.258   9.353  1.0808 -0.1962 -1.3636
  831Sol     HW 6645   2.610   0.272   9.203 -1.2213  0.5355 -1.1678
  831Sol     MW 6646   2.580   0.297   9.283 -0.1680 -0.6561  0.5943
  832Sol     OW 6647   1.138   0.270   6.796 -0.5261  0.1597  0.3395
  832Sol     HW 6648   1.187   0.296   6.874  0.2098 -0.2450  0.0102
  832Sol     HW 6649   1.150   0.342   6.735  0.5784 -0.4234 -0.1499
  832Sol     MW 6650   1.143   0.279   6.797 -0.0106 -0.3857 -0.0365
  833Sol     OW 6651   3.306   2.958   8.412 -0.2076 -0.0383  0.3085
  833Sol     HW 6652   3.384   2.944   8.466  0.2079  0.0129 -0.2766
  833Sol     HW 6653   3.243   2.998   8.471  0.2961  0.1558  0.7190
  833Sol     MW 6654   3.307   2.960   8.422 -0.0176 -0.3161 -1.1130
  834Sol     OW 6655   0.737   1.220   5.878 -1.0768 -0.0917  0.1683
  834Sol     HW 6656   0.737   1.250   5.969  0.0109 -0.1870  0.2093
  834Sol     HW 6657   0.651   1.244   5.845 -1.2645  0.4829  1.0525
  834Sol     MW 6658   0.729   1.225   5.883 -0.0968 -0.0481  0.0138
  835Sol     OW 6659   1.326   3.420   3.614  0.7324  0.6423 -0.1931
  835Sol     HW 6660   1.238   3.450   3.638  0.6607  0.1575  0.1596
  835Sol     HW 6661   1.363   3.387   3.696  1.0478  0.3689 -0.4437
  835Sol     MW 6662   1.321   3.419   3.623  0.9250 -0.4039  0.1996
  836Sol     OW 6663   1.011   0.062   7.550  0.1546 -0.4061 -0.1897
  836Sol     HW 6664   1.038  -0.024   7.582  2.8179  0.7707  0.9418
  836Sol     HW 6665   1.050   0.068   7.463 -0.5084 -0.5659 -0.4980
  836Sol     MW 6666   1.017   0.055   7.545 -0.3530  0.0279  0.4014
  837Sol     OW 6667   2.799   2.225   6.477  0.5615 -0.5059 -0.0576
  837Sol     HW 6668   2.782   2.134   6.454 -0.4511 -0.6196  1.0904
  837Sol     HW 6669   2.855   2.221   6.554  0.2942 -0.1647  0.1581
  837Sol     MW 6670   2.803   2.217   6.482  0.3003  0.4109 -0.0734
  838Sol     OW 6671   0.534   3.180   2.337 -0.4088 -0.0511 -0.1663
  838Sol     HW 6672   0.579   3.185   2.253  0.1390 -1.4704  0.0343
  838Sol     HW 6673   0.598   3.141   2.397 -0.8534  0.8012  0.8651
  838Sol     MW 6674   0.543   3.177   2.335  0.9005  0.5789  0.6509
  839Sol     OW 6675   2.393   2.329   8.121 -0.5242  0.5124 -0.8410
  839Sol     HW 6676   2.427   2.330   8.211  1.2152  0.3627 -1.4980
  839Sol     HW 6677   2.302   2.360   8.131  0.0166  1.6808  0.8101
  839Sol     MW 6678   2.388   2.332   8.130 -0.4523  0.4943 -0.3556
  840Sol     OW 6679   1.083   3.006   7.948 -0.5958  0.3556 -0.3167
  840Sol     HW 6680   1.135   3.059   7.887  0.1281 -0.6355 -0.5692
  840Sol     HW 6681   1.002   3.056   7.959  0.3852  1.9273  0.0782
  840Sol     MW 6682   1.080   3.016   7.943  0.5561 -0.3099  0.1997
  841Sol     OW 6683   2.412   0.378   7.088 -0.5412 -0.4778  0.4519
  841Sol     HW 6684   2.445   0.291   7.109  0.3031 -0.6818 -1.6100
  841Sol     HW 6685   2.394   0.418   7.173  2.4184 -1.3837  1.5707
  841Sol     MW 6686   2.413   0.374   7.098  0.2138  0.0661 -0.0360
  842Sol     OW 6687   0.959   0.742   8.176 -0.2598  0.5344 -0.7288
  842Sol     HW 6688   1.023   0.776   8.114  1.0678 -0.4580  0.0637
  842Sol     HW 6689   0.968   0.646   8.171 -0.7501  0.4130  0.3340
  842Sol     MW 6690   0.965   0.736   8.170 -0.3744 -0.3857  0.5677
  843Sol     OW 6691   2.611   3.178   2.708  0.2203 -0.0690 -0.7648
  843Sol     HW 6692   2.567   3.110   2.759 -1.0538  0.8085 -0.6438
  843Sol     HW 6693   2.584   3.163   2.618 -0.3353  0.4469 -0.6953
  843Sol     MW 6694   2.605   3.171   2.705  0.2316  0.6232  0.8525
  844Sol     OW 6695   3.224   2.110   9.450 -0.0368 -0.0959  0.1990
  844Sol     HW 6696   3.228   2.205   9.437  1.2904  0.0116  1.3112
  844Sol     HW 6697   3.226   2.099   9.545 -0.0502 -1.2490  0.0677
  844Sol     MW 6698   3.225   2.117   9.457 -0.3576  0.3024  0.3322
  845Sol     OW 6699   2.109   0.883   8.425 -0.4740  0.4558  0.4159
  845Sol     HW 6700   2.088   0.972   8.398  2.3191  1.3271  0.8708
  845Sol     HW 6701   2.168   0.894   8.500  1.1325 -1.7196 -0.4514
  845Sol     MW 6702   2.113   0.892   8.430 -0.3810  0.1390 -0.3659
  846Sol     OW 6703   2.834   1.107   9.368 -0.2481  0.0486 -0.2271
  846Sol     HW 6704   2.812   1.088   9.277 -0.4007 -1.9241  0.1825
  846Sol     HW 6705   2.848   1.201   9.371  2.2523 -0.1833 -2.8087
  846Sol     MW 6706   2.833   1.114   9.360 -0.1248 -0.0463  1.1065
  847Sol     OW 6707   2.079   1.452   5.317 -0.1202 -0.0127  0.1960
  847Sol     HW 6708   2.074   1.377   5.376 -1.8471  0.3642  0.5720
  847Sol     HW 6709   1.990   1.463   5.284  0.2816  1.3684 -0.4837
  847Sol     MW 6710   2.071   1.447   5.320  0.3034  0.3425 -0.3637
  848Sol     OW 6711   2.521   2.812   7.030  0.2487 -0.2729  0.1373
  848Sol     HW 6712   2.526   2.801   7.125 -2.8466  0.5159  0.4568
  848Sol     HW 6713   2.587   2.879   7.011  1.1541 -0.6923  1.6719
  848Sol     MW 6714   2.527   2.817   7.037  0.4518 -0.0756  0.3051
  849Sol     OW 6715   0.143   3.043   8.648  0.1299  0.6486  0.7911
  849Sol     HW 6716   0.145   3.125   8.697  1.6726  0.9553  0.2236
  849Sol     HW 6717   0.192   3.061   8.568 -0.6560 -0.4419  0.0407
  849Sol     MW 6718   0.148   3.052   8.645  0.3765  0.9371 -0.3049
  850Sol     OW 6719   2.779   0.007   7.062  0.6260 -0.2647  0.2446
  850Sol     HW 6720   2.774   0.001   6.967  0.7605  0.6020  0.1769
  850Sol     HW 6721   2.791  -0.083   7.091  1.7652 -0.4146 -0.6361
  850Sol     MW 6722   2.780  -0.002   7.056 -1.0045 -0.5711 -0.6754
  851Sol     OW 6723   3.026   2.438   5.003  0.2989 -0.7431 -0.5580
  851Sol     HW 6724   2.936   2.412   5.020  0.0449 -0.5171 -1.5760
  851Sol     HW 6725   3.051   2.490   5.080 -1.0767  0.8424 -1.1626
  851Sol     MW 6726   3.020   2.440   5.012 -0.0976 -0.0908 -0.0875
  852Sol     OW 6727   2.147   1.579   2.721  0.3286  0.0709 -0.1709
  852Sol     HW 6728   2.171   1.486   2.726  1.5254  0.1976 -2.7046
  852Sol     HW 6729   2.130   1.594   2.628  0.1053  2.3782  0.2245
  852Sol     MW 6730   2.148   1.572   2.713 -0.4668 -0.3616 -0.1859
  853Sol     OW 6731   1.712   3.427   5.824 -0.2348  0.0580 -0.1533
  853Sol     HW 6732   1.625   3.416   5.787 -0.0832  1.3687 -0.9562
  853Sol     HW 6733   1.745   3.507   5.783  0.7301  0.4388  1.3243
  853Sol     MW 6734   1.707   3.434   5.817  0.0276 -0.3603 -0.2626
  854Sol     OW 6735   0.564   3.380   9.513 -0.3607 -0.0637  0.0637
  854Sol     HW 6736   0.531   3.419   9.432 -0.7552 -0.8443 -0.1562
  854Sol     HW 6737   0.626   3.444   9.547  0.8072 -0.3094 -1.5307
  854Sol     MW 6738   0.566   3.389   9.509 -0.4433  0.1158  0.3535
  855Sol     OW 6739   1.767   0.611   3.283  0.1096  0.4048  0.0487
  855Sol     HW 6740   1.800   0.678   3.222  1.9103 -0.7087 -0.2442
  855Sol     HW 6741   1.770   0.654   3.369 -1.8906  1.7892 -0.5296
  855Sol     MW 6742   1.771   0.621   3.285 -0.6677 -0.5862 -0.1887
  856Sol     OW 6743   0.181   0.363   1.831 -0.5286 -0.1103 -0.4240
  856Sol     HW 6744   0.115   0.411   1.881  0.0094 -0.1227  0.3128
  856Sol     HW 6745   0.227   0.310   1.897 -0.1595 -0.5329 -1.0133
  856Sol     MW 6746   0.179   0.362   1.841 -0.4506  0.2733  0.4021
  857Sol     OW 6747   1.500   0.510   4.215 -0.5697 -0.3544 -0.0599
  857Sol     HW 6748   1.497   0.450   4.140 -0.4965 -0.8656  0.3455
  857Sol     HW 6749   1.419   0.492   4.263 -0.7407  0.1575 -0.1580
  857Sol     MW 6750   1.492   0.503   4.212 -0.1373 -0.0819  0.1914
  858Sol     OW 6751   1.729   0.344   4.612 -0.2697  0.3197  0.3244
  858Sol     HW 6752   1.702   0.376   4.526  0.0842  2.0708  0.8492
  858Sol     HW 6753   1.718   0.419   4.670  0.0431 -0.6844  1.6962
  858Sol     MW 6754   1.726   0.353   4.609 -0.2686 -0.1131  0.4524
  859Sol     OW 6755   0.247   0.800   9.403 -0.1183 -0.0201  0.4239
  859Sol     HW 6756   0.186   0.788   9.476 -0.7183 -0.0806 -0.0814
  859Sol     HW 6757   0.258   0.713   9.367 -0.7860  0.1955 -0.3175
  859Sol     MW 6758   0.242   0.791   9.406  0.3645 -0.2517  0.0324
  860Sol     OW 6759   0.132   0.184   4.770  0.3701 -0.9367 -0.0333
  860Sol     HW 6760   0.038   0.171   4.776  0.2149 -1.0257 -2.2074
  860Sol     HW 6761   0.159   0.212   4.857 -1.7941 -0.1084  0.3755
  860Sol     MW 6762   0.126   0.185   4.778  0.2412  0.2060  0.4333
  861Sol     OW 6763   3.350   0.077   8.922  0.2253  0.1344 -0.0713
  861Sol     HW 6764   3.431   0.127   8.934  1.3971 -1.7326  0.1590
  861Sol     HW 6765   3.328   0.045   9.010  0.8815 -1.7663 -0.5731
  861Sol     MW 6766   3.355   0.079   8.931  0.3089 -0.3902  0.2478
  862Sol     OW 6767   1.825   2.443   3.767 -0.0872  0.1540  0.6672
  862Sol     HW 6768   1.857   2.360   3.801  2.1863  0.1583 -1.3366
  862Sol     HW 6769   1.896   2.505   3.782 -0.2939  0.8797 -1.1424
  862Sol     MW 6770   1.834   2.441   3.771 -0.1696 -0.0556  0.0967
  863Sol     OW 6771   2.824   1.486   4.495 -0.3354 -0.3041 -0.1653
  863Sol     HW 6772   2.796   1.525   4.578 -0.8699  1.0173 -0.9396
  863Sol     HW 6773   2.799   1.394   4.501 -2.8134  0.3565  0.0996
  863Sol     MW 6774   2.819   1.482   4.503  0.4043 -0.0371  0.0160
  864Sol     OW 6775   1.829   0.646   7.607 -0.5133 -0.3541 -0.3449
  864Sol     HW 6776   1.827   0.553   7.585  0.0006 -0.4691  0.1030
  864Sol     HW 6777   1.908   0.679   7.566 -0.2707 -0.2830  0.1829
  864Sol     MW 6778   1.836   0.640   7.601 -0.5465 -0.4934 -0.1930
  865Sol     OW 6779   3.064   1.931   4.591  0.1902  0.0871  0.3426
  865Sol     HW 6780   3.152   1.893   4.596 -0.2683 -0.8708  1.4560
  865Sol     HW 6781   3.076   2.023   4.612  1.0430  0.1192 -0.2890
  865Sol     MW 6782   3.073   1.936   4.593 -0.3842 -0.2163 -0.3510
  866Sol     OW 6783   3.140   2.687   9.600 -0.0128  0.0798  0.0577
  866Sol     HW 6784   3.106   2.759   9.652  0.9803  0.8245 -0.3023
  866Sol     HW 6785   3.064   2.632   9.581 -0.2290 -0.7230  3.0616
  866Sol     MW 6786   3.130   2.689   9.603 -0.1265  0.1450  0.1199
  867Sol     OW 6787   2.611   3.258   4.494 -0.1467 -0.3995 -0.1146
  867Sol     HW 6788   2.549   3.189   4.517  1.0601 -1.5855 -0.3484
  867Sol     HW 6789   2.564   3.312   4.430 -0.2579 -2.4590 -1.8503
  867Sol     MW 6790   2.602   3.257   4.490 -0.0348 -0.4157  0.3214
  868Sol     OW 6791   2.023   1.895   2.009  0.3918 -0.0861 -0.3722
  868Sol     HW 6792   1.985   1.931   2.090 -0.3668  0.4570 -0.9633
  868Sol     HW 6793   2.098   1.843   2.039  1.8055  2.3698  0.4686
  868Sol     MW 6794   2.026   1.894   2.019  0.1905 -0.2966  0.1341
  869Sol     OW 6795   0.255   2.225   3.998 -0.2597  0.4400  0.4525
  869Sol     HW 6796   0.204   2.240   3.918  1.4365  1.0327 -0.5437
  869Sol     HW 6797   0.327   2.288   3.993  2.3462 -2.4101  0.2806
  869Sol     MW 6798   0.257   2.232   3.990  0.2840 -0.0061 -0.0822
  870Sol     OW 6799   2.285   0.211   7.752 -0.4512  0.1007 -0.3359
  870Sol     HW 6800   2.315   0.213   7.661 -0.8343 -2.6301 -0.5620
  870Sol     HW 6801   2.190   0.211   7.745 -0.4803 -0.3628  0.0426
  870Sol     MW 6802   2.279   0.211   7.743 -0.4995 -0.2018 -0.3527
  871Sol     OW 6803   3.254   2.990   8.812 -0.4359 -0.0174 -0.0356
  871Sol     HW 6804   3.338   2.957   8.783 -0.5558 -1.2099  0.9173
  871Sol     HW 6805   3.202   2.999   8.732 -0.3775 -2.1338 -0.3467
  871Sol     MW 6806   3.257   2.988   8.802  0.3263 -0.4761  0.1894
  872Sol     OW 6807   2.912   0.864   5.674 -0.3959  0.9619  0.0735
  872Sol     HW 6808   2.966   0.786   5.689  1.6262  2.2792 -0.0738
  872Sol     HW 6809   2.823   0.836   5.691  0.2843 -1.4440 -0.1946
  872Sol     MW 6810   2.909   0.855   5.677 -0.3630 -0.0701 -0.4870
  873Sol     OW 6811   0.556   2.092   8.573  0.1331  0.5483  0.4033
  873Sol     HW 6812   0.468   2.088   8.610  0.3256  0.1420  0.8097
  873Sol     HW 6813   0.592   2.175   8.606 -0.8995  1.8377 -1.5649
  873Sol     MW 6814   0.551   2.099   8.579 -0.1056  0.2664  0.4742
  874Sol     OW 6815   0.348   2.965   5.912 -0.1966  0.2953 -0.1868
  874Sol     HW 6816   0.312   2.876   5.903  0.6442  0.1344 -2.3338
  874Sol     HW 6817   0.319   2.994   5.998 -1.1617 -1.7668  0.2204
  874Sol     MW 6818   0.342   2.959   5.919 -0.4143  0.0404 -0.4496
  875Sol     OW 6819   2.232   1.070   2.298 -0.4016  0.2282  0.8556
  875Sol     HW 6820   2.298   1.008   2.267  0.0245  1.4140 -0.6027
  875Sol     HW 6821   2.236   1.144   2.238 -3.2993  0.1824  0.5000
  875Sol     MW 6822   2.238   1.071   2.290  0.0372  0.3221  0.0029
  876Sol     OW 6823   1.005   2.054   3.418  0.3989 -0.1488  0.2370
  876Sol     HW 6824   1.051   1.979   3.456  1.5814  0.3601 -0.1687
  876Sol     HW 6825   1.008   2.039   3.324 -0.0269  0.0383  0.1911
  876Sol     MW 6826   1.009   2.046   3.413  0.4357 -1.0688 -0.0812
  877Sol     OW 6827   0.328   0.395   4.699  0.5467  0.0044 -0.3304
  877Sol     HW 6828   0.340   0.429   4.787 -0.2087 -0.3911 -0.0615
  877Sol     HW 6829   0.271   0.319   4.711  2.1097 -1.2861 -0.9188
  877Sol     MW 6830   0.324   0.391   4.708  0.1238  0.1162  0.4268
  878Sol     OW 6831   1.108   0.579   9.446 -0.2614  0.0014  0.0814
  878Sol     HW 6832   1.034   0.549   9.499 -1.8342  0.6441 -1.6915
  878Sol     HW 6833   1.136   0.501   9.398 -1.6037  0.3710 -1.3320
  878Sol     MW 6834   1.104   0.569   9.446  0.2732  0.0017  0.3567
  879Sol     OW 6835   2.478   1.624   6.489  0.2134  0.2079 -0.2682
  879Sol     HW 6836   2.403   1.604   6.432 -1.2817 -1.9396  2.3601
  879Sol     HW 6837   2.554   1.596   6.438 -1.1378 -2.2107 -1.0592
  879Sol     MW 6838   2.478   1.619   6.479  0.1508 -0.3401 -0.2643
  880Sol     OW 6839   2.823   0.489   9.770 -0.4503 -0.0681 -0.0691
  880Sol     HW 6840   2.893   0.432   9.739  0.1972  0.3505  0.5772
  880Sol     HW 6841   2.743   0.455   9.731 -0.2022 -1.9788  1.0428
  880Sol     MW 6842   2.822   0.481   9.764  0.0914  0.0644 -0.0542
  881Sol     OW 6843   0.986   1.843   2.384  0.3866  0.0973  0.0039
  881Sol     HW 6844   0.917   1.790   2.345  0.5602  0.6827 -1.1331
  881Sol     HW 6845   0.960   1.933   2.365  0.8005  0.3720  0.7095
  881Sol     MW 6846   0.977   1.847   2.379  0.1635  0.5042  0.2294
  882Sol     OW 6847   1.364   0.465   7.732  0.3705  0.2297  0.9562
  882Sol     HW 6848   1.388   0.517   7.656 -0.4566  0.2596  0.7114
  882Sol     HW 6849   1.433   0.398   7.738 -0.4111 -0.7598 -0.7549
  882Sol     MW 6850   1.373   0.464   7.726  0.7818 -0.4005  0.3166
  883Sol     OW 6851   0.387   1.278   4.200  0.0553 -0.4695 -0.0286
  883Sol     HW 6852   0.441   1.274   4.278  1.5025  0.5612 -0.9622
  883Sol     HW 6853   0.449   1.276   4.127 -1.1924  0.0185 -1.1232
  883Sol     MW 6854   0.397   1.278   4.200  0.3161  0.4166  0.4903
  884Sol     OW 6855   1.171   3.332   9.306  0.0836 -0.0649  0.4690
  884Sol     HW 6856   1.128   3.324   9.391  0.4100  0.2299  0.6644
  884Sol     HW 6857   1.251   3.281   9.315  0.1048 -0.0563  0.3286
  884Sol     MW 6858   1.174   3.326   9.315  0.3224  0.0576 -0.1524
  885Sol     OW 6859   0.593   1.989   9.521  0.7302  0.3348  0.6097
  885Sol     HW 6860   0.580   1.910   9.574  1.1535  0.5190  0.9820
  885Sol     HW 6861   0.679   1.976   9.480 -0.5157 -0.8207 -1.7576
  885Sol     MW 6862   0.599   1.980   9.522  0.2295 -0.0333 -0.3790
  886Sol     OW 6863   1.774   1.182   2.490  0.3910  0.2380 -0.0448
  886Sol     HW 6864   1.709   1.251   2.502 -0.7764 -0.2136 -3.2077
  886Sol     HW 6865   1.747   1.112   2.550 -0.4020  1.1677  0.6879
  886Sol     MW 6866   1.766   1.182   2.496  0.8272 -0.2422  0.4367
  887Sol     OW 6867   1.296   2.194   5.111  0.4757 -0.2886  0.6110
  887Sol     HW 6868   1.385   2.222   5.132  0.6997  0.9070 -1.8073
  887Sol     HW 6869   1.257   2.269   5.066 -1.8136 -0.7487  1.7258
  887Sol     MW 6870   1.300   2.203   5.109 -0.2495 -0.0595  0.2158
  888Sol     OW 6871   2.639   0.497   3.209 -0.5662  0.3251  0.0620
  888Sol     HW 6872   2.699   0.425   3.190 -1.2829 -0.1148 -0.5921
  888Sol     HW 6873   2.556   0.453   3.230 -0.7180  0.9311  0.7325
  888Sol     MW 6874   2.637   0.486   3.209 -0.8710  0.1897  0.0565
  889Sol     OW 6875   3.160   2.656   2.281 -0.6979  0.0047  0.0492
  889Sol     HW 6876   3.175   2.605   2.201 -1.5274 -0.8991  0.4717
  889Sol     HW 6877   3.246   2.659   2.324 -0.0455  1.2331 -1.3012
  889Sol     MW 6878   3.169   2.652   2.278  0.4303  0.1351 -0.8245
  890Sol     OW 6879   1.068   3.465   2.553 -0.1592 -0.1712  0.0931
  890Sol     HW 6880   1.098   3.556   2.557  0.6567 -0.3872 -0.7794
  890Sol     HW 6881   1.004   3.464   2.482 -0.6098 -0.1638  0.4957
  890Sol     MW 6882   1.065   3.473   2.547 -0.4598  0.4590 -0.3102
  891Sol     OW 6883   1.524   1.525   4.173 -0.1107 -0.4851  0.2520
  891Sol     HW 6884   1.525   1.619   4.190  2.1235  0.1343 -2.8060
  891Sol     HW 6885   1.434   1.506   4.147  0.0062  1.3534 -1.6203
  891Sol     MW 6886   1.516   1.532   4.172  0.9848  0.2597  0.0005
  892Sol     OW 6887   2.045   1.984   8.391 -0.7041  0.1378 -0.3976
  892Sol     HW 6888   2.012   2.044   8.324  0.4612  0.7033 -0.4837
  892Sol     HW 6889   2.058   1.901   8.344 -1.8630 -0.0607 -0.3859
  892Sol     MW 6890   2.044   1.982   8.381 -0.1108 -0.5656  0.4256
  893Sol     OW 6891   0.733   0.015   6.617 -0.7495  0.2403  0.0379
  893Sol     HW 6892   0.649   0.042   6.656 -1.2105 -1.1698  0.0477
  893Sol     HW 6893   0.796   0.024   6.688 -0.5082  3.1216 -0.4808
  893Sol     MW 6894   0.731   0.018   6.627 -0.0016  0.3008 -0.2975
  894Sol     OW 6895   0.054   3.254   9.521 -0.5850 -0.5034 -0.1695
  894Sol     HW 6896   0.039   3.244   9.427  0.8941 -1.8582 -0.2953
  894Sol     HW 6897   0.149   3.261   9.529 -0.7786  0.7770  1.1281
  894Sol     MW 6898   0.062   3.253   9.513 -0.2805 -0.8898  0.2331
  895Sol     OW 6899   0.446   0.750   4.374  0.6667  0.1228  0.4463
  895Sol     HW 6900   0.490   0.683   4.322  1.5218 -0.8299  2.3683
  895Sol     HW 6901   0.510   0.821   4.381  0.1441  0.7338 -0.6929
  895Sol     MW 6902   0.456   0.751   4.370 -0.3331 -0.1888 -0.8614
  896Sol     OW 6903   3.105   0.706   6.441  0.1562 -0.0641 -0.3351
  896Sol     HW 6904   3.094   0.796   6.409 -1.7107  0.2165  0.9738
  896Sol     HW 6905   3.028   0.692   6.497  0.2440 -2.6101 -0.8231
  896Sol     MW 6906   3.097   0.713   6.443  0.1278 -0.2880  0.0007
  897Sol     OW 6907   0.805   3.295   3.747  0.1004 -0.3925 -0.0456
  897Sol     HW 6908   0.769   3.325   3.664 -0.2057  2.4180  1.0632
  897Sol     HW 6909   0.892   3.334   3.751 -0.1906  0.1369  1.2958
  897Sol     MW 6910   0.809   3.301   3.740 -0.0254  0.2177  0.0741
  898Sol     OW 6911   0.116   1.547   2.948 -0.3037  0.1738  0.5702
  898Sol     HW 6912   0.046   1.486   2.971  0.1976 -1.3226 -1.7424
  898Sol     HW 6913   0.072   1.631   2.938 -1.3805 -0.2735  1.4549
  898Sol     MW 6914   0.106   1.549   2.949 -1.1859  0.3259 -0.0014
  899Sol     OW 6915   1.253   0.065   4.491 -0.2217  0.3348  0.3080
  899Sol     HW 6916   1.215  -0.020   4.472 -0.0993 -0.0322  1.6102
  899Sol     HW 6917   1.336   0.066   4.444  1.1756 -1.4792  2.6127
  899Sol     MW 6918   1.257   0.058   4.485 -0.0725 -0.2715  0.0739
  900Sol     OW 6919   1.193   2.235   7.389  0.2758  0.4620 -0.2893
  900Sol     HW 6920   1.172   2.180   7.314  0.6127 -0.4366  0.2635
  900Sol     HW 6921   1.171   2.324   7.361 -1.9145 -0.1556 -0.5832
  900Sol     MW 6922   1.190   2.238   7.380 -0.2065  0.4247  0.6310
  901Sol     OW 6923   3.360   1.181   8.363  0.9260  0.3625  0.0427
  901Sol     HW 6924   3.402   1.108   8.318 -0.4884  0.9437 -2.3068
  901Sol     HW 6925   3.313   1.142   8.436  2.8460 -0.6703  0.7522
  901Sol     MW 6926   3.360   1.171   8.365 -0.3793  0.1783 -0.0159
  902Sol     OW 6927   0.807   0.855   2.810 -0.6531  0.6985  0.2081
  902Sol     HW 6928   0.738   0.798   2.844  0.6689 -0.5789  0.7554
  902Sol     HW 6929   0.877   0.796   2.782 -0.0292  1.9533 -0.9394
  902Sol     MW 6930   0.807   0.845   2.811 -0.3989  0.4450  0.4257
  903Sol     OW 6931   2.683   0.229   4.535 -0.3649  0.1284 -0.0953
  903Sol     HW 6932   2.606   0.276   4.568  1.2323  2.1556  0.8215
  903Sol     HW 6933   2.697   0.159   4.600 -0.6781  0.5463  0.4297
  903Sol     MW 6934   2.677   0.227   4.544 -0.2899 -0.0259  0.1764
  904Sol     OW 6935   1.103   0.092   3.138  0.8942 -0.2956 -0.3379
  904Sol     HW 6936   1.127   0.003   3.162 -1.3336 -0.2870  2.1479
  904Sol     HW 6937   1.173   0.146   3.175  1.1459 -0.8438 -0.0037
  904Sol     MW 6938   1.112   0.089   3.143 -0.3705  0.3309 -0.5741
  905Sol     OW 6939   1.290   2.166   3.407  0.1665 -0.0760  0.2149
  905Sol     HW 6940   1.201   2.145   3.437  0.3259  0.8471  1.3492
  905Sol     HW 6941   1.336   2.082   3.408 -1.1366 -0.8541 -1.9384
  905Sol     MW 6942   1.286   2.157   3.410  0.0544  0.2898 -0.1825
  906Sol     OW 6943   1.613   2.127   2.394  0.1699  0.1843  0.0748
  906Sol     HW 6944   1.555   2.150   2.321 -2.1487  2.1540  2.4216
  906Sol     HW 6945   1.602   2.033   2.405  1.8389 -0.4344 -3.1451
  906Sol     MW 6946   1.607   2.121   2.388 -0.5013 -0.7498  0.7201
  907Sol     OW 6947   1.823   2.040   3.018  0.2802 -0.7142 -0.6129
  907Sol     HW 6948   1.832   2.102   3.090  0.2345 -1.5192  0.1073
  907Sol     HW 6949   1.908   2.040   2.975  0.6515 -1.0049  0.1063
  907Sol     MW 6950   1.832   2.045   3.021 -0.0246  0.0989 -0.0127
  908Sol     OW 6951   0.849   0.440   3.607 -0.4615 -0.5143 -0.2703
  908Sol     HW 6952   0.881   0.530   3.615 -0.9428 -0.2961 -0.7570
  908Sol     HW 6953   0.842   0.425   3.513 -3.2819  0.0012 -0.2020
  908Sol     MW 6954   0.851   0.446   3.600  0.2914 -0.1322 -0.2575
  909Sol     OW 6955   0.121   0.888   5.396  0.1707  0.4178  0.2000
  909Sol     HW 6956   0.040   0.851   5.360 -0.4479  0.8895  1.1149
  909Sol     HW 6957   0.150   0.950   5.329  0.5115 -0.7410 -0.7476
  909Sol     MW 6958   0.116   0.890   5.387 -0.7460  0.3245 -0.4159
  910Sol     OW 6959   0.543   2.735   3.032  0.4752  0.3722  0.9628
  910Sol     HW 6960   0.509   2.708   2.947 -0.0090 -1.2617  1.6572
  910Sol     HW 6961   0.518   2.827   3.040  0.5973  0.5595 -0.6909
  910Sol     MW 6962   0.538   2.741   3.025  0.5908  0.5014 -0.5772
  911Sol     OW 6963   2.666   3.419   6.354 -0.0713 -0.0440  0.4939
  911Sol     HW 6964   2.655   3.440   6.261  1.4537 -1.0527  0.0630
  911Sol     HW 6965   2.578   3.397   6.384 -0.7522  1.3185 -0.4390
  911Sol     MW 6966   2.657   3.419   6.348 -0.1540 -0.0018  0.0241
  912Sol     OW 6967   2.796   0.305   5.807  0.0275  0.2820 -0.1604
  912Sol     HW 6968   2.842   0.298   5.891  0.3811  0.9980 -0.2932
  912Sol     HW 6969   2.704   0.314   5.831  0.0956  0.2047  0.1395
  912Sol     MW 6970   2.792   0.305   5.817  0.0018 -0.0612  0.3210
  913Sol     OW 6971   2.617   2.154   4.131 -0.2145  0.1273 -0.1453
  913Sol     HW 6972   2.595   2.082   4.190 -0.3632  0.5676  0.3328
  913Sol     HW 6973   2.648   2.110   4.051  2.3816 -0.4853  1.1300
  913Sol     MW 6974   2.618   2.143   4.129 -0.5223 -0.7479  0.0269
  914Sol     OW 6975   1.256   1.904   9.836 -0.1860  0.1367  0.0996
  914Sol     HW 6976   1.168   1.936   9.858  1.5245  2.3343  4.1946
  914Sol     HW 6977   1.314   1.976   9.858  2.9205 -2.1608 -0.2600
  914Sol     MW 6978   1.253   1.913   9.840 -0.0914  0.1099 -0.0670
  915Sol     OW 6979   1.281   2.802   7.989  0.6171  0.6073 -0.3235
  915Sol     HW 6980   1.188   2.822   7.975  0.4673  0.7276  0.7917
  915Sol     HW 6981   1.298   2.829   8.079  0.4959 -3.8957  1.2112
  915Sol     MW 6982   1.274   2.806   7.996 -0.5542  0.1957  0.4253
  916Sol     OW 6983   1.743   2.169   3.626  0.2935 -0.0594  0.4187
  916Sol     HW 6984   1.704   2.170   3.713  1.8356  0.9523  1.1148
  916Sol     HW 6985   1.679   2.216   3.571 -1.5989 -2.3908  0.5531
  916Sol     MW 6986   1.734   2.173   3.629  0.9440  0.2507 -0.1714
  917Sol     OW 6987   1.801   0.365   7.588  0.0500 -0.5925 -0.1328
  917Sol     HW 6988   1.726   0.346   7.645  0.2120  3.3590  1.5712
  917Sol     HW 6989   1.768   0.349   7.499 -2.0837 -1.1117  0.7124
  917Sol     MW 6990   1.791   0.362   7.585  0.4870 -0.0641 -0.2704
  918Sol     OW 6991   1.604   3.378   2.663  0.3144  0.0973 -0.1111
  918Sol     HW 6992   1.534   3.442   2.649  0.4905 -0.2166 -2.5844
  918Sol     HW 6993   1.557   3.296   2.679  0.1221  0.4139  1.0692
  918Sol     MW 6994   1.593   3.376   2.663  0.1567 -0.2053 -0.3555
  919Sol     OW 6995   2.998   2.905   6.180  0.4099 -0.1413 -0.2005
  919Sol     HW 6996   2.919   2.942   6.140  0.6369  0.3851 -0.1638
  919Sol     HW 6997   3.070   2.939   6.128  0.6568 -0.0531  0.1927
  919Sol     MW 6998   2.997   2.912   6.172 -0.3586 -0.3262 -0.2961
  920Sol     OW 6999   1.738   2.243   4.889 -0.7172  0.1407  0.6224
  920Sol     HW 7000   1.657   2.277   4.851 -0.9594 -0.3069  0.7398
  920Sol     HW 7001   1.723   2.149   4.898  0.8533 -0.3960 -1.9788
  920Sol     MW 7002   1.730   2.238   4.887 -0.1441 -0.0620  0.0940
  921Sol     OW 7003   1.404   0.619   3.130 -0.0245  0.6129  0.0291
  921Sol     HW 7004   1.316   0.581   3.128  0.7140 -1.1576 -0.4925
  921Sol     HW 7005   1.436   0.599   3.218 -1.0941  3.6048  1.1579
  921Sol     MW 7006   1.399   0.614   3.137  0.1857  0.3091 -0.3098
  922Sol     OW 7007   1.041   2.780   7.778  0.3199  0.5428  0.2844
  922Sol     HW 7008   1.066   2.866   7.811  1.6833  0.4017 -0.3757
  922Sol     HW 7009   0.969   2.753   7.835 -0.5680  2.4058  0.0767
  922Sol     MW 7010   1.037   2.785   7.786 -0.7123  0.1790 -0.2400
  923Sol     OW 7011   3.216   3.299   7.406 -0.3689  0.1784  0.3441
  923Sol     HW 7012   3.285   3.305   7.341 -1.5070  0.2735 -0.8645
  923Sol     HW 7013   3.262   3.304   7.490  1.2039 -1.0001 -0.4275
  923Sol     MW 7014   3.226   3.300   7.408  0.1175 -0.5700 -0.3145
  924Sol     OW 7015   1.596   0.764   4.131 -0.0313  0.5006  0.0452
  924Sol     HW 7016   1.521   0.787   4.077 -0.3396  1.2608  0.7705
  924Sol     HW 7017   1.578   0.675   4.162 -0.0569  0.2327 -0.7478
  924Sol     MW 7018   1.588   0.758   4.129 -0.6338 -0.4584 -0.0728
  925Sol     OW 7019   1.814   1.775   3.039  0.0662  0.9319 -0.3106
  925Sol     HW 7020   1.813   1.871   3.034  0.6663  1.0371  1.2569
  925Sol     HW 7021   1.784   1.755   3.128 -0.2890 -0.3483 -0.7030
  925Sol     MW 7022   1.811   1.782   3.046  0.7128  0.2666 -0.2641
  926Sol     OW 7023   0.127   0.559   9.647 -0.1449 -0.0689  0.0998
  926Sol     HW 7024   0.203   0.572   9.705  0.5760 -0.9892 -0.6205
  926Sol     HW 7025   0.104   0.647   9.618  0.9219  0.1890 -0.0014
  926Sol     MW 7026   0.132   0.568   9.650 -0.3435 -0.7812 -0.0299
  927Sol     OW 7027   0.438   2.931   4.186 -0.4201 -0.1018  0.0907
  927Sol     HW 7028   0.511   2.923   4.124  0.6646 -1.5494  1.5270
  927Sol     HW 7029   0.475   2.976   4.262 -0.5381 -2.4353  1.5658
  927Sol     MW 7030   0.448   2.935   4.187 -0.0974  1.0273 -0.0675
  928Sol     OW 7031   1.823   0.699   6.087  0.5147  0.2907 -0.9851
  928Sol     HW 7032   1.769   0.747   6.025 -0.1351 -0.1308 -0.7468
  928Sol     HW 7033   1.783   0.613   6.093 -0.1542  0.7021  0.9181
  928Sol     MW 7034   1.815   0.696   6.082  0.3040 -0.4967 -0.5027
  929Sol     OW 7035   2.684   3.245   4.877 -0.3175  0.1417 -0.5170
  929Sol     HW 7036   2.723   3.245   4.789 -0.5789  0.7638 -0.6427
  929Sol     HW 7037   2.661   3.154   4.893 -0.7012  0.0926 -1.2982
  929Sol     MW 7038   2.685   3.237   4.870 -0.0470 -0.2948  0.7305
  930Sol     OW 7039   2.868   1.662   6.026 -0.3841  0.1598  0.2791
  930Sol     HW 7040   2.937   1.662   5.960 -0.4559  1.5061  0.1912
  930Sol     HW 7041   2.793   1.621   5.982 -0.4135  0.9996 -0.4695
  930Sol     MW 7042   2.867   1.658   6.016  0.4670 -0.6328 -0.0838
  931Sol     OW 7043   0.054   1.518   6.978 -0.1234 -0.1724 -0.0574
  931Sol     HW 7044   0.068   1.442   7.036 -0.3894  0.0942  0.3599
  931Sol     HW 7045  -0.041   1.529   6.978 -0.1089 -0.0629 -0.4106
  931Sol     MW 7046   0.047   1.512   6.984 -0.0953 -0.1236  0.5928
  932Sol     OW 7047   1.385   2.456   6.885  0.3056  1.0937 -0.2556
  932Sol     HW 7048   1.444   2.461   6.960 -0.8062  1.5239  0.6183
  932Sol     HW 7049   1.297   2.466   6.924 -0.4005 -0.4050 -1.3937
  932Sol     MW 7050   1.382   2.457   6.895  0.3390  0.5133  0.3096
  933Sol     OW 7051   1.679   0.654   5.233  0.1935 -0.5484  0.3963
  933Sol     HW 7052   1.629   0.627   5.156 -0.3372 -1.8901  1.1998
  933Sol     HW 7053   1.727   0.732   5.204  1.7047 -2.2763 -1.9499
  933Sol     MW 7054   1.679   0.658   5.224 -0.0407 -0.1198  0.3378
  934Sol     OW 7055   1.186   0.763   4.946 -0.1324  0.5655  0.0479
  934Sol     HW 7056   1.273   0.802   4.937  0.4644  0.0998  3.0669
  934Sol     HW 7057   1.141   0.821   5.008 -1.2106 -0.4155  0.1942
  934Sol     MW 7058   1.190   0.772   4.951  0.2333  0.3779 -0.4922
  935Sol     OW 7059   2.130   0.413   3.713  0.3614 -0.7486 -0.0824
  935Sol     HW 7060   2.067   0.395   3.643  0.3793  0.2066 -0.3487
  935Sol     HW 7061   2.077   0.449   3.784  0.4616 -0.9385  0.0903
  935Sol     MW 7062   2.120   0.415   3.713 -0.6305 -0.1149  0.2376
  936Sol     OW 7063   0.627   2.730   4.792  0.0641  0.4465 -0.3343
  936Sol     HW 7064   0.641   2.722   4.698 -0.7206  0.5574 -0.4625
  936Sol     HW 7065   0.571   2.807   4.802 -2.4700 -1.3648 -0.0257
  936Sol     MW 7066   0.623   2.736   4.785  0.4347  0.0488 -0.4480
  937Sol     OW 7067   2.008   3.405   5.601  0.1637 -0.2405  0.9284
  937Sol     HW 7068   1.939   3.338   5.603  0.1769 -0.3499 -1.1317
  937Sol     HW 7069   1.961   3.488   5.606 -0.3195 -0.2493 -2.2067
  937Sol     MW 7070   1.997   3.406   5.601 -0.3960  0.0152 -1.1564
  938Sol     OW 7071   2.771   1.667   9.450 -0.4079 -0.4198  0.1622
  938Sol     HW 7072   2.820   1.607   9.394 -1.3948 -1.1262  0.0463
  938Sol     HW 7073   2.679   1.651   9.428 -0.7288  0.3892  0.8848
  938Sol     MW 7074   2.767   1.660   9.443  0.6034  0.1957  0.0000
  939Sol     OW 7075   2.653   2.639   5.941 -0.4527 -0.4453  0.0398
  939Sol     HW 7076   2.615   2.611   6.024 -0.3049  0.6876  0.5118
  939Sol     HW 7077   2.744   2.610   5.946 -0.5193 -0.6384  0.1509
  939Sol     MW 7078   2.658   2.634   5.949  0.1085  0.1321 -0.1699
  940Sol     OW 7079   2.435   2.690   4.787  0.0369 -0.0063  0.0228
  940Sol     HW 7080   2.496   2.670   4.858 -3.0915  2.6546  3.6464
  940Sol     HW 7081   2.438   2.786   4.779 -2.3548  0.0182 -0.9149
  940Sol     MW 7082   2.441   2.697   4.793 -0.8520  0.3524  0.0085
  941Sol     OW 7083   1.916   0.115   6.409  0.2326  0.1055 -0.0843
  941Sol     HW 7084   1.940   0.084   6.323  0.4249 -0.4285  0.1629
  941Sol     HW 7085   1.996   0.108   6.462 -0.2721 -1.0273  0.5470
  941Sol     MW 7086   1.925   0.112   6.406 -0.2707 -0.0782 -0.0895
  942Sol     OW 7087   1.747   0.929   5.168 -0.0402 -0.0594  0.1239
  942Sol     HW 7088   1.761   0.970   5.254 -1.0688  3.1358 -1.1618
  942Sol     HW 7089   1.824   0.955   5.117 -0.7308  0.3206 -0.7282
  942Sol     MW 7090   1.755   0.935   5.171 -0.0889 -0.1220 -0.0123
  943Sol     OW 7091   0.849   3.063   7.001 -0.0253  0.1805 -0.2105
  943Sol     HW 7092   0.909   3.020   6.940 -1.5247  0.0562 -1.6490
  943Sol     HW 7093   0.797   3.121   6.946 -0.3524  1.2571  1.2096
  943Sol     MW 7094   0.850   3.065   6.991  0.5393 -0.3753 -0.1550
  944Sol     OW 7095   2.424   1.162   8.615 -0.1387  0.7494 -0.2995
  944Sol     HW 7096   2.359   1.186   8.681 -1.1249  0.6117 -1.2029
  944Sol     HW 7097   2.441   1.244   8.567 -1.1065  0.3675 -1.3142
  944Sol     MW 7098   2.420   1.172   8.617  0.3315 -0.0052 -0.6608
  945Sol     OW 7099   1.129   3.019   9.110 -0.2744  0.1739  0.9236
  945Sol     HW 7100   1.186   3.014   9.187  1.1441  1.2272 -0.0202
  945Sol     HW 7101   1.166   3.091   9.058 -2.3932  0.7781  0.2044
  945Sol     MW 7102   1.138   3.025   9.112  0.8215  0.0814 -0.0992
  946Sol     OW 7103   0.753   1.851   2.659 -0.2655 -0.6849  0.0376
  946Sol     HW 7104   0.810   1.829   2.585 -0.2200  2.2294 -0.8375
  946Sol     HW 7105   0.756   1.773   2.715  0.5637 -2.5227 -2.4593
  946Sol     MW 7106   0.758   1.842   2.657  0.2283  0.0045 -0.3530
  947Sol     OW 7107   1.334   2.097   2.981 -0.3657 -0.0673 -0.3609
  947Sol     HW 7108   1.315   2.126   2.892  0.5886  0.5991 -0.3592
  947Sol     HW 7109   1.350   2.003   2.973  0.4616  0.1262 -1.0182
  947Sol     MW 7110   1.334   2.091   2.972 -0.4022 -0.4730  0.1671
  948Sol     OW 7111   1.353   3.116   9.320  0.4009  0.1853  0.1911
  948Sol     HW 7112   1.350   3.079   9.409  0.0725 -1.1704 -0.3652
  948Sol     HW 7113   1.434   3.082   9.283  1.1201  1.7078  0.3719
  948Sol     MW 7114   1.360   3.109   9.325  0.4178 -0.4074 -0.2277
  949Sol     OW 7115   1.103   2.308   1.840  0.9963 -0.6144 -0.2537
  949Sol     HW 7116   1.193   2.335   1.856  0.2606  2.0501 -0.4421
  949Sol     HW 7117   1.052   2.350   1.909 -0.0903 -2.3253  0.0243
  949Sol     MW 7118   1.106   2.314   1.848  0.8088 -0.0543  0.1761
  950Sol     OW 7119   1.108   1.180   9.460  0.2896  0.7736 -0.4471
  950Sol     HW 7120   1.015   1.203   9.455 -0.2805 -1.2408  0.3608
  950Sol     HW 7121   1.115   1.100   9.409  1.3059  0.1657  0.6208
  950Sol     MW 7122   1.100   1.175   9.455 -0.7055 -0.2225  0.2275
  951Sol     OW 7123   2.859   2.534   7.810  0.0439  0.8472 -0.4663
  951Sol     HW 7124   2.846   2.452   7.764  0.2329  0.6704 -0.2064
  951Sol     HW 7125   2.891   2.595   7.744  0.3151  0.5943 -0.5668
  951Sol     MW 7126   2.861   2.532   7.800 -0.2324  0.6728  0.1069
  952Sol     OW 7127   2.436   3.428   4.350  0.3442  0.3229 -0.4147
  952Sol     HW 7128   2.356   3.456   4.396  0.8201  0.1808  0.5250
  952Sol     HW 7129   2.428   3.466   4.263 -0.3178  1.0881 -0.0360
  952Sol     MW 7130   2.428   3.434   4.347 -0.0795  0.1268 -0.7235
  953Sol     OW 7131   2.232   0.519   3.274 -0.2265  0.2124  0.0011
  953Sol     HW 7132   2.260   0.589   3.215 -0.5797 -0.0965 -0.5396
  953Sol     HW 7133   2.282   0.442   3.246  1.2279  0.5769  1.5136
  953Sol     MW 7134   2.239   0.518   3.266 -0.1999 -0.2520 -0.2560
  954Sol     OW 7135   3.184   3.385   8.789 -0.1947  0.2378  0.1353
  954Sol     HW 7136   3.194   3.312   8.849  1.6385 -0.3910 -0.8768
  954Sol     HW 7137   3.249   3.449   8.818  0.0221  0.3436 -0.5695
  954Sol     MW 7138   3.191   3.385   8.797 -0.0887 -0.8594  0.2599
  955Sol     OW 7139   1.278   2.849   2.958 -0.2310  0.4090 -0.3906
  955Sol     HW 7140   1.253   2.797   3.035  1.6064 -0.4346 -0.3227
  955Sol     HW 7141   1.302   2.784   2.892  1.7364  1.1411 -0.4350
  955Sol     MW 7142   1.278   2.838   2.959 -0.1108 -0.8323 -0.2778
  956Sol     OW 7143   2.833   0.146   8.274 -0.4041  0.6409 -0.3404
  956Sol     HW 7144   2.900   0.120   8.337 -0.5038  2.3423  0.4952
  956Sol     HW 7145   2.757   0.169   8.327  0.1304  3.9575 -0.9014
  956Sol     MW 7146   2.832   0.146   8.284 -0.8273  0.3436  0.1844
  957Sol     OW 7147   1.394   0.941   7.983 -0.1593 -0.0443  0.0236
  957Sol     HW 7148   1.378   0.899   7.898 -1.2535  0.7574 -0.1777
  957Sol     HW 7149   1.485   0.920   8.003 -0.1035 -0.8362 -1.0187
  957Sol     MW 7150   1.401   0.936   7.977 -0.9259 -0.1900 -0.2358
  958Sol     OW 7151   1.340   1.322   2.673 -0.5826  0.7848 -0.4224
  958Sol     HW 7152   1.281   1.394   2.695 -1.0690  0.5580 -0.9511
  958Sol     HW 7153   1.388   1.304   2.754 -2.2589  0.0480  0.4426
  958Sol     MW 7154   1.339   1.327   2.682 -0.5579 -0.2847 -0.5546
  959Sol     OW 7155   1.965   3.231   6.507 -0.0136  0.0386 -0.1245
  959Sol     HW 7156   1.895   3.259   6.448  2.6641  2.6561 -2.2470
  959Sol     HW 7157   1.930   3.243   6.595 -2.3876  0.8219 -1.1490
  959Sol     MW 7158   1.956   3.235   6.509  0.3206  1.0056  0.1406
  960Sol     OW 7159   3.198   2.237   4.947  0.4003 -0.2647 -0.0770
  960Sol     HW 7160   3.145   2.316   4.962  1.7020  0.5578  0.2653
  960Sol     HW 7161   3.191   2.187   5.028  0.9751  0.3342  0.3418
  960Sol     MW 7162   3.192   2.240   4.955  0.3055  0.2463  0.0685
  961Sol     OW 7163   0.344   3.440   7.419 -0.4922 -0.2422  1.0578
  961Sol     HW 7164   0.256   3.476   7.403  0.0827  0.4971 -0.5032
  961Sol     HW 7165   0.346   3.359   7.367  0.7644  1.2548 -1.2721
  961Sol     MW 7166   0.336   3.436   7.413  0.1308  0.6087  0.2518
  962Sol     OW 7167   1.580   1.305   4.360  0.3452  0.1115  0.2176
  962Sol     HW 7168   1.512   1.244   4.330  0.5188  0.7414 -1.5283
  962Sol     HW 7169   1.585   1.371   4.291  1.4845  1.0746  1.1893
  962Sol     MW 7170   1.574   1.306   4.351  0.1184 -0.7453 -0.3063
  963Sol     OW 7171   0.057   1.003   6.724  0.7792 -0.1029  0.9390
  963Sol     HW 7172   0.052   1.082   6.671  0.4837 -0.9783 -0.3462
  963Sol     HW 7173   0.043   1.034   6.814  2.5298  1.5580  0.6807
  963Sol     MW 7174   0.055   1.013   6.728 -0.4200  0.0439  0.2378
  964Sol     OW 7175   0.154   1.988   4.613  0.7988  0.2544  0.2617
  964Sol     HW 7176   0.121   2.039   4.687 -0.0996 -0.5530  0.4229
  964Sol     HW 7177   0.249   1.982   4.629  0.8779  1.6212  0.3855
  964Sol     MW 7178   0.160   1.992   4.621 -0.3237  0.1406 -0.3830
  965Sol     OW 7179   1.777   0.413   8.499 -0.2661 -0.2654  0.4636
  965Sol     HW 7180   1.789   0.404   8.405 -1.2448  0.7326  0.2394
  965Sol     HW 7181   1.725   0.336   8.524 -1.2010  0.1967 -0.0413
  965Sol     MW 7182   1.773   0.405   8.493  0.3278 -0.3206 -0.6588
  966Sol     OW 7183   2.529   0.590   6.025 -0.5345 -0.5816  0.5808
  966Sol     HW 7184   2.512   0.496   6.031  0.2137 -0.8548 -1.4165
  966Sol     HW 7185   2.623   0.597   6.011 -0.5020  0.5105  1.2541
  966Sol     MW 7186   2.536   0.582   6.025  0.4314  0.1394  0.0610
  967Sol     OW 7187   2.565   0.523   4.212 -0.0326 -0.0183 -0.3465
  967Sol     HW 7188   2.534   0.458   4.149 -0.2558 -0.0506 -0.2028
  967Sol     HW 7189   2.659   0.506   4.219  0.5508  1.8249 -2.8488
  967Sol     MW 7190   2.571   0.515   4.207  0.0526  0.0252 -0.0472
  968Sol     OW 7191   2.429   2.884   2.360 -0.1235 -0.4131 -0.2959
  968Sol     HW 7192   2.461   2.932   2.284 -0.5810 -0.3189 -0.4255
  968Sol     HW 7193   2.397   2.801   2.325  1.8473 -1.3758  0.0702
  968Sol     MW 7194   2.429   2.881   2.350  0.0442 -0.1644 -0.1793
  969Sol     OW 7195   0.827   0.011   3.158  0.0269 -0.3172 -0.2933
  969Sol     HW 7196   0.909   0.057   3.146  0.8896 -1.4616  0.9861
  969Sol     HW 7197   0.759   0.077   3.145  1.1597  0.7195 -0.9723
  969Sol     MW 7198   0.828   0.021   3.156  0.2750 -0.1439 -0.5920
  970Sol     OW 7199   1.481   1.211   7.088 -0.3622 -0.0174 -0.1070
  970Sol     HW 7200   1.558   1.200   7.032 -0.0715 -1.0520  0.4858
  970Sol     HW 7201   1.433   1.128   7.079 -1.5920  0.7534 -0.7496
  970Sol     MW 7202   1.483   1.202   7.082  0.7474  0.4006 -0.0623
  971Sol     OW 7203   0.637   3.323   3.977 -0.3015  0.4415 -0.0050
  971Sol     HW 7204   0.650   3.418   3.980  0.5308  0.3689 -1.2124
  971Sol     HW 7205   0.710   3.290   3.925  0.3189 -1.0432  1.7605
  971Sol     MW 7206   0.645   3.329   3.973 -0.4364  0.1105 -0.2674
  972Sol     OW 7207   2.419   0.401   4.921 -0.1929  0.7827  0.0751
  972Sol     HW 7208   2.352   0.400   4.990 -1.8576 -1.5774 -1.4999
  972Sol     HW 7209   2.480   0.333   4.947 -0.1949  0.6798 -0.1937
  972Sol     MW 7210   2.418   0.395   4.930  0.4502  0.0515  0.1035
  973Sol     OW 7211   0.090   3.151   2.019  0.0883  0.1803  0.6703
  973Sol     HW 7212   0.168   3.199   2.045  0.2646  0.8047 -0.9407
  973Sol     HW 7213   0.115   3.059   2.026  1.3309  0.3796 -0.8371
  973Sol     MW 7214   0.099   3.147   2.022  0.2880 -0.2210 -0.4386
  974Sol     OW 7215   2.543   1.462   4.134 -0.4999  0.4983  0.0099
  974Sol     HW 7216   2.462   1.503   4.165  0.4213  1.8784  0.6502
  974Sol     HW 7217   2.605   1.534   4.125  0.7262 -0.5647 -0.2758
  974Sol     MW 7218   2.541   1.472   4.136 -0.0286  0.1949  0.5175
  975Sol     OW 7219   0.388   3.154   9.262  0.1784  0.3077  0.4709
  975Sol     HW 7220   0.474   3.140   9.303  0.3774  0.2875  0.0497
  975Sol     HW 7221   0.331   3.178   9.335  0.5232  0.2455  0.7669
  975Sol     MW 7222   0.391   3.155   9.272 -0.0461 -0.2494  0.2951
  976Sol     OW 7223   0.228   2.312   5.396  0.1353  0.1505 -0.1759
  976Sol     HW 7224   0.315   2.333   5.362  0.2900 -0.2263 -0.0083
  976Sol     HW 7225   0.235   2.327   5.490 -0.9872  3.6327 -0.5642
  976Sol     MW 7226   0.237   2.315   5.401 -0.6600  0.2433 -0.1555
  977Sol     OW 7227   0.675   2.388   3.742  0.5625  0.2667  0.1645
  977Sol     HW 7228   0.731   2.463   3.720  0.6824  0.4741  1.1730
  977Sol     HW 7229   0.737   2.318   3.763  0.4551 -0.2633 -1.2389
  977Sol     MW 7230   0.686   2.388   3.742 -0.3718  0.5160 -0.8996
  978Sol     OW 7231   1.050   2.636   4.084 -0.0722 -0.4269  0.1117
  978Sol     HW 7232   1.095   2.681   4.012 -0.2151  0.3859  0.5161
  978Sol     HW 7233   0.985   2.700   4.114 -0.8350 -1.2231  0.1656
  978Sol     MW 7234   1.048   2.646   4.080 -0.7623  0.0154  0.2856
  979Sol     OW 7235   0.020   0.674   3.704  0.0907 -0.0460  0.2071
  979Sol     HW 7236   0.056   0.749   3.658  1.5413 -0.3550  0.8106
  979Sol     HW 7237   0.095   0.635   3.749 -0.8686 -1.1266  0.9040
  979Sol     MW 7238   0.030   0.677   3.704  0.5087  0.9352 -0.0441
  980Sol     OW 7239   2.982   1.720   1.675 -0.3485 -0.0685 -0.1088
  980Sol     HW 7240   2.982   1.628   1.646 -0.3011 -0.0470 -0.1769
  980Sol     HW 7241   2.943   1.717   1.763  2.0636 -0.5097  0.9902
  980Sol     MW 7242   2.978   1.711   1.681  0.0856  0.6003 -0.0110
  981Sol     OW 7243   1.669   0.945   2.275 -0.4811 -0.0414 -0.1254
  981Sol     HW 7244   1.641   0.944   2.366 -1.3934  0.6923 -0.3945
  981Sol     HW 7245   1.762   0.924   2.279 -0.5358 -0.1129  0.9696
  981Sol     MW 7246   1.675   0.943   2.284 -0.8618 -0.0423 -0.0213
  982Sol     OW 7247   2.821   0.765   9.565 -0.3108 -0.2779  0.2975
  982Sol     HW 7248   2.809   0.756   9.659  0.4573 -2.9183  0.2043
  982Sol     HW 7249   2.837   0.675   9.535 -0.6764  0.5033 -2.3611
  982Sol     MW 7250   2.821   0.756   9.570  0.4990 -0.1138 -0.0494
  983Sol     OW 7251   0.780   2.546   6.522 -0.3414  0.3135  0.0351
  983Sol     HW 7252   0.801   2.516   6.610 -0.4897  0.1360  0.0123
  983Sol     HW 7253   0.738   2.470   6.480 -1.4171  0.7885  0.2291
  983Sol     MW 7254   0.778   2.537   6.526 -0.2553  0.4357 -0.7123
  984Sol     OW 7255   2.531   3.407   3.950 -0.0587 -0.2362 -0.1081
  984Sol     HW 7256   2.529   3.487   4.002 -0.8002  0.2732 -0.9202
  984Sol     HW 7257   2.579   3.431   3.871  0.3178 -0.7799 -0.0484
  984Sol     MW 7258   2.535   3.416   3.948  0.6985 -0.2129 -0.7948
  985Sol     OW 7259   0.219   2.694   5.919 -0.2645 -0.0228 -0.2604
  985Sol     HW 7260   0.140   2.724   5.874  0.1838 -0.8645 -1.6288
  985Sol     HW 7261   0.247   2.616   5.870  1.4515  0.3074  0.1648
  985Sol     MW 7262   0.215   2.689   5.911  0.0258  0.0634 -0.0542
  986Sol     OW 7263   1.858   0.789   4.726  0.2046  0.5594 -0.4662
  986Sol     HW 7264   1.839   0.777   4.633  0.5623 -0.5444 -0.4114
  986Sol     HW 7265   1.950   0.764   4.735 -0.3232 -1.1272  0.4863
  986Sol     MW 7266   1.865   0.786   4.718  0.0698 -0.2645  0.2746
  987Sol     OW 7267   2.464   2.381   2.872 -0.1128  0.7654 -0.2212
  987Sol     HW 7268   2.488   2.306   2.818  0.6242  0.6875  0.2150
  987Sol     HW 7269   2.457   2.346   2.961 -0.8421  0.9933 -0.1801
  987Sol     MW 7270   2.465   2.372   2.875  0.3980  0.1726 -0.1417
  988Sol     OW 7271   1.718   1.990   3.366 -0.1743  0.3142  0.9664
  988Sol     HW 7272   1.731   2.009   3.459 -1.1422  2.1042  0.7650
  988Sol     HW 7273   1.623   1.984   3.356 -0.0413 -0.6154  0.2250
  988Sol     MW 7274   1.711   1.992   3.374  0.0154 -0.4428  0.0383
  989Sol     OW 7275   0.822   2.038   8.096  0.2021  0.0986 -1.3854
  989Sol     HW 7276   0.777   2.115   8.060  0.1157  1.4926  1.4975
  989Sol     HW 7277   0.914   2.052   8.073  0.1017  0.7961 -1.3955
  989Sol     MW 7278   0.827   2.046   8.091 -0.2433  0.2974 -0.5625
  990Sol     OW 7279   0.962   1.120   4.382  0.5369  0.2143 -0.5098
  990Sol     HW 7280   0.937   1.074   4.462 -0.0586  1.7977  0.2511
  990Sol     HW 7281   0.970   1.052   4.316  1.2814 -1.1512  0.9602
  990Sol     MW 7282   0.960   1.110   4.384  0.3254  0.5196 -0.5787
  991Sol     OW 7283   0.831   1.765   7.427 -0.1369  0.0373 -0.4477
  991Sol     HW 7284   0.813   1.685   7.476  0.3683  0.4697  0.4667
  991Sol     HW 7285   0.924   1.761   7.407 -0.0512  0.5224 -0.1547
  991Sol     MW 7286   0.838   1.758   7.430  0.0729  0.1056  0.4747
  992Sol     OW 7287   1.356   2.742   9.190  0.1726  0.3219 -0.5678
  992Sol     HW 7288   1.337   2.768   9.281 -0.0957  1.7541 -1.0148
  992Sol     HW 7289   1.439   2.696   9.195 -1.2631 -2.2519  0.8223
  992Sol     MW 7290   1.361   2.740   9.199  0.0233 -0.2518  0.5693
  993Sol     OW 7291   2.780   1.942   9.455  0.4887  0.8244 -0.1379
  993Sol     HW 7292   2.717   1.960   9.386  1.2313 -0.8279 -1.2981
  993Sol     HW 7293   2.764   1.851   9.479  2.7589  0.1674 -0.8840
  993Sol     MW 7294   2.773   1.935   9.451  0.1943 -0.1756  0.3206
  994Sol     OW 7295   0.826   2.618   8.245 -0.2387 -0.2082 -0.2482
  994Sol     HW 7296   0.867   2.532   8.230 -0.8536 -0.5805  0.1790
  994Sol     HW 7297   0.734   2.605   8.222 -0.1013  0.6466 -1.2622
  994Sol     MW 7298   0.822   2.609   8.242  0.6430  0.0508  0.3217
  995Sol     OW 7299   2.790   2.019   5.603 -0.0589 -0.0401  0.1917
  995Sol     HW 7300   2.728   2.091   5.610  1.9801  1.7076  0.5710
  995Sol     HW 7301   2.827   2.028   5.515  1.0017  0.0465  0.6423
  995Sol     MW 7302   2.788   2.026   5.596  0.3614 -0.5732 -1.1814
  996Sol     OW 7303   1.629   2.405   9.015 -0.0988 -0.1711  0.2851
  996Sol     HW 7304   1.632   2.310   8.999 -2.0879 -0.3233  0.6785
  996Sol     HW 7305   1.570   2.414   9.090  0.9452  1.3127  0.9421
  996Sol     MW 7306   1.624   2.397   9.020 -0.0002  0.3980 -0.5372
  997Sol     OW 7307   2.440   0.629   8.727  0.3245 -0.0592 -0.0957
  997Sol     HW 7308   2.517   0.686   8.730  1.1103 -1.1519  1.5947
  997Sol     HW 7309   2.472   0.548   8.687 -0.5890  0.3665 -1.7411
  997Sol     MW 7310   2.450   0.627   8.724 -0.2584 -0.2712 -0.0184
  998Sol     OW 7311   1.161   1.610   8.839  0.3965  0.3098  0.7661
  998Sol     HW 7312   1.114   1.550   8.780 -0.7404  1.6672  0.2498
  998Sol     HW 7313   1.158   1.694   8.794  0.6070  1.1034  2.2168
  998Sol     MW 7314   1.157   1.612   8.829  0.1254  0.6643 -0.0059
  999Sol     OW 7315   2.085   2.548   6.769  0.0539  0.1642  0.4951
  999Sol     HW 7316   2.032   2.619   6.804  1.5867  1.5230  0.1280
  999Sol     HW 7317   2.023   2.492   6.722 -1.2240  1.0756  1.0850
  999Sol     MW 7318   2.075   2.549   6.768  0.9544 -0.0008  0.1554
 1000Sol     OW 7319   0.119   1.235   9.095 -0.1412 -0.5113  0.3786
 1000Sol     HW 7320   0.086   1.299   9.158  1.8397  3.7290 -2.6098
 1000Sol     HW 7321   0.203   1.207   9.130 -0.0767  0.1273  0.7399
 1000Sol     MW 7322   0.124   1.238   9.104  0.1081  0.8438 -0.0866
 1001Sol     OW 7323   1.792   1.813   2.623 -0.4876  0.0641  0.4448
 1001Sol     HW 7324   1.868   1.870   2.608  0.1948 -0.9823 -0.0830
 1001Sol     HW 7325   1.732   1.867   2.674  0.2608  1.1824  0.1620
 1001Sol     MW 7326   1.794   1.823   2.626 -1.0571  0.2716 -0.0532
 1002Sol     OW 7327   0.027   2.088   3.549 -0.0187  0.2805  0.5403
 1002Sol     HW 7328  -0.045   2.115   3.491  0.1246 -1.1347 -0.3097
 1002Sol     HW 7329   0.010   1.996   3.567  0.6017  0.3990  1.8127
 1002Sol     MW 7330   0.019   2.083   3.545  0.6419 -0.0539 -0.9667
 1003Sol     OW 7331   0.213   2.749   9.308 -1.2061  0.2170  0.0903
 1003Sol     HW 7332   0.126   2.737   9.346 -0.2847 -0.5343  2.0445
 1003Sol     HW 7333   0.234   2.663   9.270 -0.1363 -0.5118  2.2327
 1003Sol     MW 7334   0.207   2.740   9.308  0.4844  0.2015  0.0545
 1004Sol     OW 7335   0.586   3.362   8.307 -0.2867 -0.1093 -0.0851
 1004Sol     HW 7336   0.504   3.397   8.272 -0.5318  0.0398  0.6326
 1004Sol     HW 7337   0.651   3.380   8.239 -1.0341 -1.1004 -1.0789
 1004Sol     MW 7338   0.585   3.367   8.298  0.4905 -0.4281  0.0883
 1005Sol     OW 7339   2.933   2.131   2.355 -0.5603 -0.4945  0.5001
 1005Sol     HW 7340   2.944   2.135   2.450  0.2566 -0.3228  0.3941
 1005Sol     HW 7341   2.989   2.201   2.320 -1.7421  0.2088 -0.0385
 1005Sol     MW 7342   2.939   2.138   2.360 -0.3168 -0.3074  0.1673
 1006Sol     OW 7343   2.706   2.945   6.694 -0.4991  0.0161  0.2594
 1006Sol     HW 7344   2.798   2.929   6.671 -0.6667  1.3103 -1.4114
 1006Sol     HW 7345   2.710   2.982   6.782  0.5743 -0.0470  0.2532
 1006Sol     MW 7346   2.715   2.947   6.700 -0.3085 -0.2455 -0.2614
 1007Sol     OW 7347   0.852   1.218   9.393 -0.3171 -0.4041  0.0525
 1007Sol     HW 7348   0.841   1.164   9.315 -2.0423 -0.2150  0.1427
 1007Sol     HW 7349   0.787   1.184   9.455 -0.6044  0.9933  0.5397
 1007Sol     MW 7350   0.845   1.210   9.392  0.8004 -0.3127 -0.5692
 1008Sol     OW 7351   0.746   2.477   5.957 -0.3639 -0.5005 -0.5647
 1008Sol     HW 7352   0.694   2.537   6.010 -1.0420 -2.1794  0.7105
 1008Sol     HW 7353   0.681   2.424   5.910  0.2076 -0.7327 -1.0992
 1008Sol     MW 7354   0.736   2.477   5.957  0.2840  0.8454 -0.0350
 1009Sol     OW 7355   1.026   3.040   3.215  0.0115  0.3030  0.0349
 1009Sol     HW 7356   0.934   3.042   3.241 -0.4173  0.4043 -1.4735
 1009Sol     HW 7357   1.073   3.017   3.296 -1.4505 -1.1315  0.5032
 1009Sol     MW 7358   1.022   3.038   3.225 -0.1499 -0.0719  0.7078
 1010Sol     OW 7359   1.630   0.346   7.374 -0.1808 -0.7826  0.1700
 1010Sol     HW 7360   1.609   0.257   7.404  0.1455 -0.3092  1.8964
 1010Sol     HW 7361   1.572   0.402   7.425  0.2491  0.0504 -0.2579
 1010Sol     MW 7362   1.623   0.343   7.382 -0.1023  0.0126 -0.0695
 1011Sol     OW 7363   3.009   1.941   5.797 -0.3474  0.5440  0.1502
 1011Sol     HW 7364   3.056   2.022   5.816  0.0476  0.5278 -0.7478
 1011Sol     HW 7365   2.933   1.968   5.746 -1.4234  0.5866  1.7310
 1011Sol     MW 7366   3.006   1.951   5.794 -0.4476 -0.0205 -0.5507
 1012Sol     OW 7367   2.394   0.609   5.295 -0.1977 -1.0109 -1.0378
 1012Sol     HW 7368   2.360   0.544   5.234  0.7811 -0.6656 -1.9582
 1012Sol     HW 7369   2.364   0.693   5.260 -0.7654 -0.9043 -0.3042
 1012Sol     MW 7370   2.388   0.611   5.287  0.2094  0.5040  0.0142
 1013Sol     OW 7371   1.484   1.762   6.188 -0.2548  0.0565  0.4457
 1013Sol     HW 7372   1.523   1.678   6.214  1.1943  0.4629 -0.3174
 1013Sol     HW 7373   1.490   1.762   6.092 -3.9811 -0.7071  0.1654
 1013Sol     MW 7374   1.488   1.754   6.181  0.2711  0.0853  0.1936
 1014Sol     OW 7375   0.310   1.833   5.534  0.1743  0.1331  0.4399
 1014Sol     HW 7376   0.290   1.835   5.441 -1.1781  0.6222  0.7418
 1014Sol     HW 7377   0.244   1.889   5.575  1.3259  0.6871  1.5899
 1014Sol     MW 7378   0.303   1.838   5.529  0.6337  0.1795 -0.4701
 1015Sol     OW 7379   3.002   0.217   3.705  0.0978 -0.1401 -0.5870
 1015Sol     HW 7380   2.944   0.284   3.671 -0.0946 -0.4232 -0.8162
 1015Sol     HW 7381   2.960   0.188   3.787  1.2250  1.4603  0.5824
 1015Sol     MW 7382   2.993   0.220   3.710 -1.0943  0.3428  0.0397
 1016Sol     OW 7383   0.426   1.898   6.013  0.7965 -0.2047  0.4224
 1016Sol     HW 7384   0.488   1.908   5.942  1.6432 -1.4499  0.9836
 1016Sol     HW 7385   0.354   1.848   5.975  2.0321 -2.3895  0.8891
 1016Sol     MW 7386   0.425   1.895   6.003 -0.2936  0.1381  0.3305
 1017Sol     OW 7387   1.112   1.786   3.071 -0.2613 -0.1910 -0.3029
 1017Sol     HW 7388   1.147   1.757   2.986 -1.8155 -0.8559 -0.7455
 1017Sol     HW 7389   1.081   1.706   3.112 -0.2410  0.2391  0.5537
 1017Sol     MW 7390   1.112   1.776   3.067  0.8998 -0.3499  0.6048
 1018Sol     OW 7391   1.074   1.541   5.188  0.0473  0.3400  0.3480
 1018Sol     HW 7392   0.979   1.546   5.202 -0.1864  0.9688 -1.2984
 1018Sol     HW 7393   1.091   1.604   5.118  1.5403 -0.4693 -0.0386
 1018Sol     MW 7394   1.067   1.547   5.183 -0.3994  0.2955  0.4706
 1019Sol     OW 7395   0.349   0.783   4.017  0.3784 -0.0591 -0.5295
 1019Sol     HW 7396   0.307   0.723   3.954  0.5506  0.2250 -0.9141
 1019Sol     HW 7397   0.285   0.854   4.028 -0.5285 -1.1040  1.1543
 1019Sol     MW 7398   0.339   0.784   4.012  0.3036  0.6538  0.1773
 1020Sol     OW 7399   1.256   1.183   2.410 -0.3431  0.5427  0.3992
 1020Sol     HW 7400   1.275   1.251   2.475 -0.6917  0.6258  0.4157
 1020Sol     HW 7401   1.312   1.204   2.336 -1.6560  1.8100 -0.2493
 1020Sol     MW 7402   1.263   1.191   2.409 -0.5148 -0.1835 -0.3439
 1021Sol     OW 7403   0.597   2.633   3.417  0.0050  0.3275 -0.2509
 1021Sol     HW 7404   0.569   2.560   3.471  1.0747 -0.6884 -1.0445
 1021Sol     HW 7405   0.554   2.619   3.333  0.8726  0.1343 -0.6734
 1021Sol     MW 7406   0.591   2.626   3.414  0.0482 -0.0742 -0.8514
 1022Sol     OW 7407   3.056   2.144   4.133 -0.5375 -0.9172  0.1012
 1022Sol     HW 7408   3.011   2.198   4.197 -1.3739 -2.0533  0.4972
 1022Sol     HW 7409   3.091   2.070   4.184  0.0898 -1.0497 -0.5125
 1022Sol     MW 7410   3.055   2.142   4.143  0.0021 -0.4363  0.5869
 1023Sol     OW 7411   1.023   0.226   2.009 -0.0800 -0.2128  0.3406
 1023Sol     HW 7412   1.105   0.188   1.979  1.4661  0.9940  2.7923
 1023Sol     HW 7413   0.976   0.154   2.051  0.6030 -0.5227  0.5822
 1023Sol     MW 7414   1.026   0.217   2.010 -0.0926 -0.3304 -0.3131
 1024Sol     OW 7415   1.491   1.874   6.541 -0.6795 -0.3131  0.5652
 1024Sol     HW 7416   1.580   1.863   6.506 -0.6357 -0.0638  0.6013
 1024Sol     HW 7417   1.448   1.791   6.521 -1.1477  0.4002 -1.5003
 1024Sol     MW 7418   1.496   1.865   6.536  0.1563 -0.1670  0.4443
 1025Sol     OW 7419   1.639   0.853   7.081 -0.4557  0.1199 -0.4559
 1025Sol     HW 7420   1.573   0.917   7.055  0.2387  0.5289 -1.2016
 1025Sol     HW 7421   1.665   0.810   6.999  1.5392  1.2217 -0.4133
 1025Sol     MW 7422   1.635   0.855   7.071 -0.0452 -0.5528 -0.1393
 1026Sol     OW 7423   0.910   2.247   3.079  0.5408 -0.0409  0.6644
 1026Sol     HW 7424   0.975   2.177   3.089  1.8421  0.7680 -1.5527
 1026Sol     HW 7425   0.958   2.317   3.034 -1.1351  1.6931  1.5017
 1026Sol     MW 7426   0.920   2.247   3.076 -0.3483 -0.3116  0.0515
 1027Sol     OW 7427   3.119   1.810   6.442  0.0459 -0.2450 -0.0598
 1027Sol     HW 7428   3.179   1.851   6.504 -0.1103  0.7602 -0.5569
 1027Sol     HW 7429   3.133   1.859   6.360 -0.4907 -0.8768 -0.5352
 1027Sol     MW 7430   3.126   1.818   6.440  0.0361  0.8200  0.2282
 1028Sol     OW 7431   0.858   0.434   9.422 -0.0141  0.3203  0.2186
 1028Sol     HW 7432   0.864   0.388   9.338  0.2815  0.9635 -0.1184
 1028Sol     HW 7433   0.773   0.477   9.420  0.1627  0.6671  0.0733
 1028Sol     MW 7434   0.851   0.434   9.414  0.4398 -0.1490  0.3701
 1029Sol     OW 7435   1.428   2.676   2.742  0.2301  0.0666  0.3810
 1029Sol     HW 7436   1.484   2.649   2.816  0.3318  0.1002  0.3167
 1029Sol     HW 7437   1.490   2.698   2.673  0.1102 -2.7772 -0.7179
 1029Sol     MW 7438   1.439   2.675   2.743  0.4492 -0.1592  0.3261
 1030Sol     OW 7439   1.013   0.693   2.716  0.0001 -0.3317 -0.2304
 1030Sol     HW 7440   1.003   0.689   2.621 -0.6500 -0.3234 -0.1640
 1030Sol     HW 7441   1.086   0.753   2.730  1.8597 -2.3961 -0.8112
 1030Sol     MW 7442   1.018   0.698   2.708 -0.5837 -0.1742 -0.5650
 1031Sol     OW 7443   3.130   2.729   8.334  0.5547  0.0986  0.0460
 1031Sol     HW 7444   3.060   2.756   8.275  0.0610  0.2494  0.7021
 1031Sol     HW 7445   3.167   2.811   8.367  1.0285  0.0205 -0.2816
 1031Sol     MW 7446   3.127   2.739   8.332  0.2387  0.0626 -0.4882
 1032Sol     OW 7447   1.003   1.665   9.071 -0.0348 -0.1580 -0.5968
 1032Sol     HW 7448   1.058   1.667   8.994  0.7840 -0.7305 -0.0402
 1032Sol     HW 7449   1.051   1.714   9.138 -0.3217 -0.4212 -0.1866
 1032Sol     MW 7450   1.012   1.669   9.070 -0.5384  0.1104  0.0671
 1033Sol     OW 7451   2.047   1.141   4.949  0.2517 -0.3889 -0.3847
 1033Sol     HW 7452   1.975   1.204   4.950  0.5834 -0.0084 -0.2859
 1033Sol     HW 7453   2.007   1.058   4.974  0.2163  0.2177  1.6453
 1033Sol     MW 7454   2.037   1.139   4.951 -0.5811 -0.2038  0.3513
 1034Sol     OW 7455   3.289   0.167   8.232 -0.2519 -0.0097  0.3586
 1034Sol     HW 7456   3.369   0.156   8.284  0.2484 -0.8273 -0.5594
 1034Sol     HW 7457   3.228   0.103   8.269  0.0048 -0.3797  0.1570
 1034Sol     MW 7458   3.291   0.160   8.240 -0.2635 -0.1756  0.0086
 1035Sol     OW 7459   2.370   2.545   6.753 -0.0204  0.2812 -0.1857
 1035Sol     HW 7460   2.397   2.613   6.690  0.9117  0.6588  0.6128
 1035Sol     HW 7461   2.276   2.560   6.765  0.4760  2.5062  1.2342
 1035Sol     MW 7462   2.364   2.553   6.748  0.2320  0.1377 -0.6070
 1036Sol     OW 7463   2.387   2.349   3.541  0.1834  0.1626 -0.4740
 1036Sol     HW 7464   2.373   2.255   3.533 -1.2158 -0.0759  3.3812
 1036Sol     HW 7465   2.456   2.357   3.608 -0.2701  1.8760 -0.1749
 1036Sol     MW 7466   2.392   2.341   3.547 -0.1059 -0.1384 -0.6222
 1037Sol     OW 7467   1.071   0.195   6.349  0.5054 -0.5202  0.4286
 1037Sol     HW 7468   1.091   0.102   6.338  0.9096 -0.4283  0.3842
 1037Sol     HW 7469   0.993   0.197   6.405 -0.0311 -0.9153 -0.2935
 1037Sol     MW 7470   1.066   0.187   6.353 -0.2440 -0.0077 -0.1236
 1038Sol     OW 7471   1.353   2.335   1.971  0.1892  0.2114  0.0177
 1038Sol     HW 7472   1.357   2.402   2.039 -0.4207  1.5803 -1.2710
 1038Sol     HW 7473   1.396   2.259   2.009  0.1365  1.0669  1.8141
 1038Sol     MW 7474   1.357   2.334   1.980 -0.2831 -0.3669  0.0358
 1039Sol     OW 7475   1.029   3.104   7.416 -0.0685 -0.2501 -0.8007
 1039Sol     HW 7476   1.112   3.066   7.443 -0.3583 -0.5032 -0.2520
 1039Sol     HW 7477   0.969   3.029   7.413 -0.3730 -0.0059 -0.7960
 1039Sol     MW 7478   1.031   3.094   7.418  0.5840  0.0959  0.5285
 1040Sol     OW 7479   3.167   0.842   7.695 -0.0178 -0.2970  0.4311
 1040Sol     HW 7480   3.131   0.917   7.741  0.8450 -0.1792  0.9364
 1040Sol     HW 7481   3.125   0.766   7.736 -0.4690 -0.1183  0.3006
 1040Sol     MW 7482   3.160   0.842   7.703  0.8696 -0.0109 -0.0450
 1041Sol     OW 7483   1.170   0.221   4.169  0.5218 -0.0059  0.2317
 1041Sol     HW 7484   1.083   0.198   4.201  0.9515 -1.3167  0.5102
 1041Sol     HW 7485   1.155   0.254   4.081 -0.1188 -1.8785 -0.4006
 1041Sol     MW 7486   1.161   0.222   4.164 -0.0835  0.2697 -0.0972
 1042Sol     OW 7487   1.804   0.023   6.095  0.0444 -0.2170 -0.3781
 1042Sol     HW 7488   1.763  -0.002   6.012 -0.3658 -0.7070 -0.0316
 1042Sol     HW 7489   1.767  -0.038   6.159 -0.5328  0.9164  0.3775
 1042Sol     MW 7490   1.797   0.015   6.093 -0.1956  0.3314 -0.0559
 1043Sol     OW 7491   0.697   2.636   6.921 -0.1200  0.8306  0.1369
 1043Sol     HW 7492   0.774   2.585   6.898  0.9780  2.9577 -1.0749
 1043Sol     HW 7493   0.707   2.653   7.015 -1.1963 -2.2265  0.8728
 1043Sol     MW 7494   0.705   2.633   6.927 -0.2515 -0.2553  0.0382
 1044Sol     OW 7495   2.536   1.495   3.610 -0.2947 -0.5263  0.3371
 1044Sol     HW 7496   2.472   1.562   3.583  1.5871  0.6683 -1.2821
 1044Sol     HW 7497   2.514   1.419   3.556  0.4308  0.3004 -1.1543
 1044Sol     MW 7498   2.528   1.494   3.602 -0.0845 -0.3323  0.3071
 1045Sol     OW 7499   1.819   1.202   4.432  0.7654  0.5281 -0.1664
 1045Sol     HW 7500   1.819   1.126   4.373  2.1473  1.8480 -1.8982
 1045Sol     HW 7501   1.732   1.241   4.422  0.1388 -0.6467  0.5395
 1045Sol     MW 7502   1.811   1.198   4.426 -0.3452  0.3954 -0.4706
 1046Sol     OW 7503   3.138   2.548   5.227 -0.1471 -0.1948  0.3150
 1046Sol     HW 7504   3.168   2.465   5.265  0.3591 -0.2919 -0.2943
 1046Sol     HW 7505   3.160   2.613   5.293 -0.6493 -0.5487  0.8494
 1046Sol     MW 7506   3.142   2.546   5.237 -0.0807  0.2431 -0.6061
 1047Sol     OW 7507   1.236   1.536   3.870  0.5230 -0.0391  0.2077
 1047Sol     HW 7508   1.272   1.527   3.781 -0.7654 -0.1174 -0.3156
 1047Sol     HW 7509   1.233   1.447   3.903  1.2812  0.0201  0.4472
 1047Sol     MW 7510   1.239   1.527   3.865  0.2211  0.1292 -0.1888
 1048Sol     OW 7511   2.150   1.436   4.628  0.1539  0.4947 -0.7321
 1048Sol     HW 7512   2.215   1.373   4.659  1.0447  1.2599 -1.0299
 1048Sol     HW 7513   2.201   1.508   4.592 -0.8588  1.1976 -0.7963
 1048Sol     MW 7514   2.160   1.437   4.628  0.2557  0.0855 -0.7593
 1049Sol     OW 7515   1.786   1.232   6.438 -0.5008  0.8150 -0.2771
 1049Sol     HW 7516   1.765   1.188   6.356 -0.3619  1.1169 -0.4740
 1049Sol     HW 7517   1.870   1.194   6.465 -0.9851  0.0605  0.1910
 1049Sol     MW 7518   1.792   1.224   6.433 -0.1576 -0.0878 -0.2508
 1050Sol     OW 7519   2.296   3.210   2.631 -0.3897  0.3644  0.5234
 1050Sol     HW 7520   2.213   3.237   2.593 -0.0361  0.8435  0.0813
 1050Sol     HW 7521   2.356   3.206   2.556 -0.2974 -1.1136  0.6603
 1050Sol     MW 7522   2.294   3.212   2.621  0.1190  0.0938 -0.4037
 1051Sol     OW 7523   1.634   0.229   6.278  0.0905 -0.0063  0.6277
 1051Sol     HW 7524   1.604   0.162   6.340 -0.8495  0.1162  0.3148
 1051Sol     HW 7525   1.729   0.223   6.281  0.0929  0.6289  2.7737
 1051Sol     MW 7526   1.640   0.222   6.284  0.4080  0.2324 -0.1436
 1052Sol     OW 7527   1.643   0.057   6.522 -0.0016 -0.2216  0.3231
 1052Sol     HW 7528   1.617   0.107   6.600 -0.7245  1.5954 -1.0368
 1052Sol     HW 7529   1.735   0.080   6.509  0.1343 -0.5669  0.6789
 1052Sol     MW 7530   1.649   0.064   6.528  0.9837 -0.3243  0.1955
 1053Sol     OW 7531   1.357   1.047   8.733 -0.2548 -0.0602  0.0407
 1053Sol     HW 7532   1.386   1.135   8.710  0.6497 -1.3482 -4.0393
 1053Sol     HW 7533   1.425   1.014   8.793  0.0708  1.5171  0.5605
 1053Sol     MW 7534   1.366   1.051   8.736 -0.3669 -0.4511 -0.1933
 1054Sol     OW 7535   2.991   1.181   4.420  0.5904 -0.7015 -0.1689
 1054Sol     HW 7536   2.999   1.266   4.376  2.1028 -0.9112 -0.3420
 1054Sol     HW 7537   2.910   1.144   4.386  0.4693  0.2152 -0.9087
 1054Sol     MW 7538   2.984   1.186   4.413 -0.0640  0.8182 -0.0730
 1055Sol     OW 7539   1.372   2.355   8.241  0.5124 -0.1919  0.1505
 1055Sol     HW 7540   1.296   2.331   8.295  0.3298 -0.8938 -0.4107
 1055Sol     HW 7541   1.402   2.439   8.278  0.9509 -1.0957  1.9214
 1055Sol     MW 7542   1.368   2.361   8.249 -0.1036  0.4287 -0.0552
 1056Sol     OW 7543   1.870   3.173   7.707 -0.0921  0.2347  0.0206
 1056Sol     HW 7544   1.886   3.139   7.795 -0.9718  1.2251  0.5718
 1056Sol     HW 7545   1.906   3.262   7.709 -0.7590  0.5176 -0.4032
 1056Sol     MW 7546   1.875   3.178   7.715  0.2752 -0.2208 -0.0582
 1057Sol     OW 7547   0.182   0.552   6.756 -0.1681  0.3583 -0.0745
 1057Sol     HW 7548   0.119   0.605   6.708 -0.7309  0.6636  0.9981
 1057Sol     HW 7549   0.140   0.534   6.840  0.3865 -1.0187 -0.0672
 1057Sol     MW 7550   0.173   0.555   6.759  0.1372 -0.8111  0.0433
 1058Sol     OW 7551   0.244   3.283   5.815  0.0468 -0.5433 -0.5797
 1058Sol     HW 7552   0.322   3.323   5.779  0.0576 -0.2807 -0.2667
 1058Sol     HW 7553   0.248   3.302   5.909  0.3341 -1.7413 -0.3431
 1058Sol     MW 7554   0.251   3.288   5.820  0.1761 -0.0469  0.0086
 1059Sol     OW 7555   1.657   0.903   7.991  0.1071  0.2212  0.0488
 1059Sol     HW 7556   1.694   0.832   7.938  1.4980  1.3462 -0.5381
 1059Sol     HW 7557   1.705   0.899   8.074 -0.8938 -0.4836  0.6012
 1059Sol     MW 7558   1.665   0.897   7.994 -0.6777 -0.5798 -0.6519
 1060Sol     OW 7559   2.597   0.077   8.501 -0.1944  0.1354 -0.0597
 1060Sol     HW 7560   2.666   0.012   8.515  0.7966  1.0629 -0.5274
 1060Sol     HW 7561   2.527   0.029   8.456 -0.2859 -1.0589  1.3279
 1060Sol     MW 7562   2.597   0.067   8.498 -0.2022  0.4679 -0.3290
 1061Sol     OW 7563   2.393   0.622   5.564  0.6484  0.2296  0.0863
 1061Sol     HW 7564   2.455   0.691   5.588  0.4978  0.8722 -1.3274
 1061Sol     HW 7565   2.374   0.638   5.472 -0.9954 -0.4535  0.2918
 1061Sol     MW 7566   2.397   0.630   5.558  0.2184  0.6250 -0.3334
 1062Sol     OW 7567   0.475   2.417   3.906 -0.1081 -0.2837 -0.2707
 1062Sol     HW 7568   0.555   2.409   3.853 -0.3452 -0.6322 -0.5768
 1062Sol     HW 7569   0.424   2.485   3.863 -0.8538 -1.4190 -1.2029
 1062Sol     MW 7570   0.478   2.423   3.898  0.7242 -0.1722  0.0776
 1063Sol     OW 7571   2.817   2.137   9.624 -0.0338 -0.0649 -0.1310
 1063Sol     HW 7572   2.816   2.213   9.566  1.0443  0.0396 -0.0254
 1063Sol     HW 7573   2.785   2.065   9.570 -1.2223  0.4950 -0.1823
 1063Sol     MW 7574   2.814   2.137   9.614  0.1623  0.0522 -0.1810
 1064Sol     OW 7575   0.567   0.272   3.611  0.1721  0.0332  0.1055
 1064Sol     HW 7576   0.658   0.298   3.600  0.8955 -1.4218  2.4022
 1064Sol     HW 7577   0.540   0.242   3.524  1.4725  1.6569 -0.8870
 1064Sol     MW 7578   0.573   0.271   3.602  0.3900 -0.0510  0.5211
 1065Sol     OW 7579   1.748   1.484   7.364  0.2061 -0.4135 -0.0227
 1065Sol     HW 7580   1.812   1.467   7.295 -0.1146  1.9808 -0.9796
 1065Sol     HW 7581   1.665   1.456   7.326 -0.0732  1.5253 -0.9444
 1065Sol     MW 7582   1.746   1.480   7.354  0.3104  0.2147 -0.0705
 1066Sol     OW 7583   0.303   3.427   8.502 -0.0910  0.1745  0.4855
 1066Sol     HW 7584   0.391   3.420   8.540  0.4130  2.4299 -0.2324
 1066Sol     HW 7585   0.249   3.459   8.574 -0.2490 -0.7904  0.8050
 1066Sol     MW 7586   0.306   3.429   8.512  0.0795 -0.2093 -0.3300
 1067Sol     OW 7587   0.535   2.738   5.748 -0.4858 -0.3418  0.1344
 1067Sol     HW 7588   0.608   2.796   5.729 -0.8517  0.2127  0.4330
 1067Sol     HW 7589   0.537   2.727   5.843 -0.8455 -0.2569  0.1522
 1067Sol     MW 7590   0.542   2.742   5.755  0.7593  0.1245 -0.1941
 1068Sol     OW 7591   2.701   0.140   9.509 -0.0526 -0.3913 -0.1781
 1068Sol     HW 7592   2.781   0.096   9.535  1.4428  1.6672 -1.1371
 1068Sol     HW 7593   2.639   0.069   9.492  1.5224 -2.0131  0.6613
 1068Sol     MW 7594   2.702   0.130   9.510  0.0897 -0.1937 -0.5835
 1069Sol     OW 7595   1.463   0.867   4.880  0.4671  0.1137 -0.3568
 1069Sol     HW 7596   1.492   0.916   4.957 -0.4635 -0.0656  0.1234
 1069Sol     HW 7597   1.496   0.918   4.805  2.5782 -0.4570  0.1500
 1069Sol     MW 7598   1.468   0.876   4.880 -0.7834 -0.1479 -0.1954
 1070Sol     OW 7599   2.943   2.879   8.227  0.3193  0.2044 -0.0098
 1070Sol     HW 7600   2.960   2.969   8.200 -1.1992  0.2973 -0.7517
 1070Sol     HW 7601   2.928   2.832   8.145 -1.6561 -0.1082  0.4922
 1070Sol     MW 7602   2.943   2.883   8.217 -0.0319  0.3043  0.2669
 1071Sol     OW 7603   0.750   3.051   5.008  0.5634 -0.3583 -0.5744
 1071Sol     HW 7604   0.745   3.030   4.915  0.8532 -0.5029 -0.5597
 1071Sol     HW 7605   0.688   3.123   5.020  0.2044 -0.6329 -0.7927
 1071Sol     MW 7606   0.744   3.056   5.001 -0.0717  0.5004 -0.3430
 1072Sol     OW 7607   0.943   0.749   9.304 -0.4935  0.1512  0.6855
 1072Sol     HW 7608   1.003   0.696   9.355 -1.0483 -0.8806  0.2710
 1072Sol     HW 7609   0.872   0.771   9.365  0.1237  1.0986  1.0788
 1072Sol     MW 7610   0.942   0.746   9.314 -0.4353 -0.1705 -0.3836
 1073Sol     OW 7611   2.166   0.485   4.505 -0.4806 -0.5211 -0.5086
 1073Sol     HW 7612   2.259   0.465   4.518 -0.1230  0.7666 -1.0198
 1073Sol     HW 7613   2.134   0.412   4.451  0.8006  0.1981 -2.3346
 1073Sol     MW 7614   2.172   0.476   4.501 -0.8248 -0.9336  0.2543
 1074Sol     OW 7615   0.501   1.253   5.733 -0.7746  0.1799 -0.5604
 1074Sol     HW 7616   0.522   1.339   5.697 -0.5234  0.6254  0.6278
 1074Sol     HW 7617   0.412   1.235   5.700 -0.6286  0.6550 -1.2388
 1074Sol     MW 7618   0.495   1.259   5.727 -0.1939 -0.9967  0.1536
 1075Sol     OW 7619   3.125   0.105   5.226 -0.5551  0.4913  0.3193
 1075Sol     HW 7620   3.200   0.130   5.172 -0.0927  0.2592  0.8477
 1075Sol     HW 7621   3.062   0.176   5.214 -0.3707  0.5478 -0.3529
 1075Sol     MW 7622   3.126   0.113   5.220 -0.1657  0.3153 -0.4848
 1076Sol     OW 7623   1.783   1.446   4.098 -0.0305 -1.0800 -0.2645
 1076Sol     HW 7624   1.694   1.478   4.113  0.5894  0.2566  0.6769
 1076Sol     HW 7625   1.806   1.399   4.178  0.4671 -0.5811 -0.1130
 1076Sol     MW 7626   1.777   1.445   4.106  0.0049 -0.1141 -0.5287
 1077Sol     OW 7627   2.845   1.740   4.355  0.0123  0.5119  0.2178
 1077Sol     HW 7628   2.805   1.794   4.423 -1.9369  0.6656 -1.0057
 1077Sol     HW 7629   2.838   1.650   4.389 -0.4605  0.6393  0.4690
 1077Sol     MW 7630   2.841   1.736   4.364  0.9915 -0.0199  0.2367
 1078Sol     OW 7631   0.203   0.122   9.341 -0.0713 -0.2572 -0.3603
 1078Sol     HW 7632   0.119   0.102   9.381 -0.9738 -0.8917 -2.4843
 1078Sol     HW 7633   0.227   0.208   9.375 -1.2235 -0.3929  0.8188
 1078Sol     MW 7634   0.198   0.128   9.347  0.4837 -0.4755  0.5372
 1079Sol     OW 7635   2.133   2.663   9.563 -0.1802  0.0016 -0.3211
 1079Sol     HW 7636   2.061   2.600   9.563 -1.1901  1.1231  0.9784
 1079Sol     HW 7637   2.122   2.713   9.482  0.3056 -1.1208 -1.0870
 1079Sol     MW 7638   2.126   2.662   9.556  0.5506  0.2502 -0.2808
 1080Sol     OW 7639   2.246   1.453   7.452  0.1217  0.5470  0.0787
 1080Sol     HW 7640   2.175   1.418   7.505 -1.4598  2.2482 -0.8871
 1080Sol     HW 7641   2.289   1.375   7.416 -1.6971 -0.4865  0.0780
 1080Sol     MW 7642   2.244   1.443   7.453 -0.1204 -0.5166 -0.4903
 1081Sol     OW 7643   2.209   2.451   5.795  0.0271 -0.1912  0.1226
 1081Sol     HW 7644   2.158   2.418   5.869  1.0994 -1.2315  0.4099
 1081Sol     HW 7645   2.177   2.402   5.720  0.2370 -0.4559  0.2086
 1081Sol     MW 7646   2.202   2.444   5.795  0.5036  0.4951  0.2423
 1082Sol     OW 7647   3.086   1.662   5.858 -0.5765 -0.2732 -0.1331
 1082Sol     HW 7648   3.079   1.756   5.843  1.1616 -0.0484  0.3490
 1082Sol     HW 7649   3.174   1.650   5.895 -0.9709 -2.0184  0.2918
 1082Sol     MW 7650   3.094   1.670   5.860  0.4160 -0.1326 -0.8148
 1083Sol     OW 7651   0.405   3.433   1.947 -0.4800  0.2073  0.0619
 1083Sol     HW 7652   0.499   3.441   1.929 -0.0586 -2.2369  0.9415
 1083Sol     HW 7653   0.366   3.420   1.860  0.1615 -0.1664 -0.1776
 1083Sol     MW 7654   0.410   3.432   1.937 -0.1104  0.0154  0.4638
 1084Sol     OW 7655   0.604   0.697   2.949 -0.0122 -0.5244 -0.3572
 1084Sol     HW 7656   0.562   0.626   2.900  1.0953  0.3784 -2.7196
 1084Sol     HW 7657   0.656   0.653   3.016 -1.0233 -1.8349 -0.4231
 1084Sol     MW 7658   0.605   0.687   2.950  0.6081  0.1098  0.0650
 1085Sol     OW 7659   2.706   1.390   7.705  0.6650  0.1011  0.5285
 1085Sol     HW 7660   2.781   1.411   7.761 -0.9037  0.6411  2.4654
 1085Sol     HW 7661   2.675   1.475   7.675  0.7352 -0.1151 -0.1648
 1085Sol     MW 7662   2.710   1.400   7.707 -0.0195 -0.0506 -0.1235
 1086Sol     OW 7663   0.924   2.220   5.202 -0.2250  0.3292 -0.0090
 1086Sol     HW 7664   0.995   2.284   5.207 -0.3010  0.3740  0.5651
 1086Sol     HW 7665   0.954   2.146   5.255 -0.4622  0.2139 -0.0334
 1086Sol     MW 7666   0.933   2.220   5.207 -0.0257  0.1422 -0.0702
 1087Sol     OW 7667   1.619   0.326   7.796 -0.2822 -0.0203 -0.2454
 1087Sol     HW 7668   1.613   0.394   7.863 -2.7496 -0.1550 -0.2561
 1087Sol     HW 7669   1.670   0.256   7.837  0.2259  0.8525  0.6367
 1087Sol     MW 7670   1.623   0.326   7.806 -0.4936  0.0022 -0.1648
 1088Sol     OW 7671   2.764   0.448   8.572  0.1331  0.1624  0.1780
 1088Sol     HW 7672   2.768   0.485   8.484  0.6934 -0.3748 -0.0343
 1088Sol     HW 7673   2.831   0.495   8.622 -0.3433  0.6259  0.3810
 1088Sol     MW 7674   2.771   0.455   8.569 -0.0961  0.1129  0.1012
 1089Sol     OW 7675   3.163   2.828   4.620  0.2205  0.4316  0.7725
 1089Sol     HW 7676   3.247   2.829   4.574  0.7671  0.3439  1.7475
 1089Sol     HW 7677   3.154   2.737   4.650 -1.8304 -0.4253 -2.1974
 1089Sol     MW 7678   3.169   2.820   4.619  0.0267  0.2920  0.9171
 1090Sol     OW 7679   0.683   1.238   8.556 -0.5281 -0.3731 -0.8226
 1090Sol     HW 7680   0.662   1.198   8.471  1.1857 -2.4382 -0.3456
 1090Sol     HW 7681   0.633   1.187   8.620  0.5612 -0.8741 -0.3417
 1090Sol     MW 7682   0.677   1.230   8.554 -0.0494 -0.6284  0.0783
 1091Sol     OW 7683   0.035   1.078   7.000  0.2155 -0.2594 -0.5346
 1091Sol     HW 7684  -0.028   1.147   7.023  0.2416 -0.1599 -0.7633
 1091Sol     HW 7685   0.120   1.115   7.023  0.0915 -0.9235  1.0872
 1091Sol     MW 7686   0.037   1.088   7.004 -0.6352 -0.4950 -0.0102
 1092Sol     OW 7687   1.705   3.032   7.545  0.2307 -0.0098 -0.8876
 1092Sol     HW 7688   1.774   3.068   7.601  1.0551  0.6576 -2.3048
 1092Sol     HW 7689   1.714   2.937   7.552  1.0539  0.0794 -0.7802
 1092Sol     MW 7690   1.712   3.027   7.550 -0.4592  0.0673  0.2745
 1093Sol     OW 7691   1.042   2.482   5.208  0.3653 -0.3027  0.0911
 1093Sol     HW 7692   1.120   2.536   5.217 -0.1567  0.4915 -0.1153
 1093Sol     HW 7693   0.974   2.530   5.254 -0.0882 -0.8217 -0.0307
 1093Sol     MW 7694   1.043   2.491   5.213  0.1541 -0.5052 -0.1131
 1094Sol     OW 7695   0.337   2.394   6.234  0.0127  0.1678 -0.3154
 1094Sol     HW 7696   0.353   2.327   6.300 -1.9622  0.3055  0.3169
 1094Sol     HW 7697   0.411   2.454   6.242  0.9477 -1.0372  0.2200
 1094Sol     MW 7698   0.345   2.394   6.240  0.5180 -0.0880  0.1547
 1095Sol     OW 7699   3.139   2.823   4.975  0.1062 -0.1760 -0.2661
 1095Sol     HW 7700   3.114   2.915   4.972 -1.4400 -0.5769  0.1011
 1095Sol     HW 7701   3.085   2.785   5.044  0.7634 -1.3566 -0.3850
 1095Sol     MW 7702   3.132   2.828   4.981  0.1391 -0.0212 -0.1459
 1096Sol     OW 7703   1.534   3.393   7.622  0.3140  0.1865 -0.3282
 1096Sol     HW 7704   1.483   3.405   7.702  0.3948  0.2006 -0.2782
 1096Sol     HW 7705   1.607   3.336   7.649  0.1618 -0.0751 -0.4649
 1096Sol     MW 7706   1.536   3.389   7.632 -0.1882  0.0658 -0.3555
 1097Sol     OW 7707   2.435   3.156   6.860 -0.0524  0.3650  0.2102
 1097Sol     HW 7708   2.447   3.245   6.827  0.4376  1.2292  2.6184
 1097Sol     HW 7709   2.353   3.158   6.909  0.3403 -0.3058  0.9190
 1097Sol     MW 7710   2.429   3.164   6.862  0.1550 -0.0363  0.3342
 1098Sol     OW 7711   3.219   1.830   3.113 -0.7703  0.7535  0.4514
 1098Sol     HW 7712   3.287   1.809   3.048 -0.3574  1.5948  0.6077
 1098Sol     HW 7713   3.256   1.798   3.196 -1.4246 -0.5921  0.2446
 1098Sol     MW 7714   3.229   1.825   3.114  0.1718 -0.0370  0.1691
 1099Sol     OW 7715   1.213   2.528   6.424 -0.3040  0.5673 -0.2258
 1099Sol     HW 7716   1.179   2.577   6.499  0.9881 -1.6431  1.8962
 1099Sol     HW 7717   1.308   2.532   6.433 -0.1528 -1.1537 -0.7587
 1099Sol     MW 7718   1.218   2.533   6.432  0.1550  0.3392 -0.0408
 1100Sol     OW 7719   1.511   0.339   6.544  0.4568 -0.6649 -0.7600
 1100Sol     HW 7720   1.477   0.278   6.479  0.7159 -1.5953 -0.0250
 1100Sol     HW 7721   1.585   0.293   6.584 -0.1128 -0.3648  0.6554
 1100Sol     MW 7722   1.515   0.330   6.542 -0.0845 -0.3558  0.1475
 1101Sol     OW 7723   1.201   0.077   7.828  0.1787 -0.1668  0.4966
 1101Sol     HW 7724   1.119   0.030   7.842 -0.3741 -0.0954 -2.1944
 1101Sol     HW 7725   1.194   0.153   7.886 -0.8894 -1.0498  1.5643
 1101Sol     MW 7726   1.193   0.080   7.834  0.2266  0.3749  0.6554
 1102Sol     OW 7727   2.007   0.896   5.014 -0.3163  0.5042 -0.8182
 1102Sol     HW 7728   2.098   0.880   5.038 -1.1438 -0.1442  2.1525
 1102Sol     HW 7729   1.978   0.813   4.975 -0.5685 -0.4646  1.3750
 1102Sol     MW 7730   2.013   0.887   5.013 -0.3184  0.3171 -0.2335
 1103Sol     OW 7731   3.212   2.945   5.983 -0.4661  0.5325  0.4214
 1103Sol     HW 7732   3.296   2.915   5.948 -0.5355  0.9111 -0.0690
 1103Sol     HW 7733   3.207   3.038   5.960 -0.2193  0.9509  2.0080
 1103Sol     MW 7734   3.219   2.950   5.978 -0.0318 -0.2937  0.2909
 1104Sol     OW 7735   2.784   0.109   6.562  0.4185  0.2477  0.4527
 1104Sol     HW 7736   2.858   0.161   6.532  1.6119 -1.7493 -0.1199
 1104Sol     HW 7737   2.747   0.071   6.483 -0.7040  0.5191  0.8294
 1104Sol     MW 7738   2.787   0.110   6.553  0.0404 -0.1190  0.1380
 1105Sol     OW 7739   3.189   0.838   6.760  0.0421 -0.0700 -0.1811
 1105Sol     HW 7740   3.273   0.883   6.747  0.5698 -1.0026 -0.0310
 1105Sol     HW 7741   3.126   0.892   6.714  0.7391  0.6095 -0.3520
 1105Sol     MW 7742   3.191   0.847   6.755 -0.1621  0.0242 -0.2883
 1106Sol     OW 7743   3.158   1.758   9.371  0.1037  0.1169  0.6094
 1106Sol     HW 7744   3.104   1.833   9.347  0.8388  0.6767  0.6929
 1106Sol     HW 7745   3.199   1.731   9.289  0.7916  0.5763  0.7917
 1106Sol     MW 7746   3.157   1.762   9.362  0.1899  0.0241 -0.6360
 1107Sol     OW 7747   3.007   1.372   6.050 -0.1133  0.2635  0.0241
 1107Sol     HW 7748   3.078   1.435   6.063 -0.2914  1.3374 -3.6317
 1107Sol     HW 7749   2.927   1.422   6.064 -0.2220  0.3415 -0.8626
 1107Sol     MW 7750   3.006   1.382   6.052  0.6002 -0.3278  0.1908
 1108Sol     OW 7751   1.755   0.845   6.324  0.0604 -0.3423 -0.3170
 1108Sol     HW 7752   1.758   0.767   6.268 -0.0565  0.1016 -0.9478
 1108Sol     HW 7753   1.778   0.917   6.266  1.2051 -0.0292  0.5030
 1108Sol     MW 7754   1.758   0.844   6.314  0.3496 -0.3352 -0.2956
 1109Sol     OW 7755   2.794   1.502   1.978  0.3994 -0.3851 -0.3965
 1109Sol     HW 7756   2.764   1.475   1.891  0.6732  0.0563 -0.6285
 1109Sol     HW 7757   2.768   1.430   2.035  1.7689 -1.4888 -1.1259
 1109Sol     MW 7758   2.789   1.493   1.975  0.2035 -0.8539 -0.0321
 1110Sol     OW 7759   2.914   1.442   3.328 -0.3849 -0.0579 -0.2501
 1110Sol     HW 7760   3.000   1.483   3.318  0.1496 -0.4273  2.4362
 1110Sol     HW 7761   2.932   1.362   3.378 -2.0665 -1.0903 -1.2545
 1110Sol     MW 7762   2.924   1.439   3.331 -0.2949 -0.6938 -0.0792
 1111Sol     OW 7763   0.813   1.570   5.239  0.0780  0.6109 -0.0411
 1111Sol     HW 7764   0.793   1.576   5.333 -0.6836  0.7400 -0.2147
 1111Sol     HW 7765   0.755   1.502   5.206 -1.2709  2.1424 -0.8695
 1111Sol     MW 7766   0.806   1.565   5.245  0.0367  0.1572  0.0495
 1112Sol     OW 7767   2.779   1.680   8.432 -0.1740 -0.2796 -0.1947
 1112Sol     HW 7768   2.817   1.675   8.520  1.2029  1.0048 -0.6993
 1112Sol     HW 7769   2.725   1.759   8.433  0.1515 -0.0502 -0.6190
 1112Sol     MW 7770   2.778   1.686   8.440 -0.6498  0.5435 -0.3331
 1113Sol     OW 7771   0.239   2.646   3.289  0.1777  0.4468 -0.2325
 1113Sol     HW 7772   0.258   2.608   3.375  0.8300  1.7564  0.2234
 1113Sol     HW 7773   0.308   2.612   3.232  2.1902  2.7661  0.7187
 1113Sol     MW 7774   0.247   2.640   3.291 -0.1159  0.4131 -0.0932
 1114Sol     OW 7775   0.836   2.141   7.274  0.4011  0.1831 -0.3371
 1114Sol     HW 7776   0.871   2.205   7.335 -1.2500  0.0692  0.7622
 1114Sol     HW 7777   0.908   2.123   7.214  1.9328  0.6030  1.3300
 1114Sol     MW 7778   0.845   2.145   7.274 -0.2212  0.1730  0.0223
 1115Sol     OW 7779   2.523   0.668   1.943  0.2530  0.1649 -0.6456
 1115Sol     HW 7780   2.431   0.665   1.970  0.5667  0.7589  0.5558
 1115Sol     HW 7781   2.527   0.613   1.865 -0.5387 -2.4387  1.0656
 1115Sol     MW 7782   2.515   0.662   1.939 -0.7203  0.4375 -0.7987
 1116Sol     OW 7783   2.366   2.636   2.274 -0.7012  0.1109 -0.1223
 1116Sol     HW 7784   2.426   2.565   2.298  0.4998 -0.0849 -3.4258
 1116Sol     HW 7785   2.289   2.593   2.239 -1.5093  0.4150  1.2506
 1116Sol     MW 7786   2.365   2.626   2.273  0.4092 -0.2461  0.2964
 1117Sol     OW 7787   1.199   1.293   5.179  0.0826  0.0003 -0.3132
 1117Sol     HW 7788   1.157   1.379   5.185  0.8458  0.3546 -0.0257
 1117Sol     HW 7789   1.177   1.250   5.261  0.6026  0.3364  0.0066
 1117Sol     MW 7790   1.193   1.297   5.187 -0.2764 -0.5709 -0.4515
 1118Sol     OW 7791   1.550   0.748   7.601  0.4426 -0.5295 -0.2139
 1118Sol     HW 7792   1.554   0.823   7.542 -0.8338 -0.2860  0.0143
 1118Sol     HW 7793   1.641   0.717   7.605  0.8120  0.4043 -1.0642
 1118Sol     MW 7794   1.559   0.752   7.596 -0.3558  0.8732  0.4811
 1119Sol     OW 7795   1.191   0.178   9.285 -0.0552  0.6538 -0.1812
 1119Sol     HW 7796   1.198   0.082   9.286 -1.4404  0.5549  1.8673
 1119Sol     HW 7797   1.245   0.204   9.210 -1.9042 -1.8921 -2.5466
 1119Sol     MW 7798   1.197   0.171   9.278  0.0758 -0.6888 -0.6994
 1120Sol     OW 7799   0.475   0.642   7.976 -0.0259 -0.4832  0.2362
 1120Sol     HW 7800   0.560   0.680   7.999 -1.5055  2.4037  1.2337
 1120Sol     HW 7801   0.421   0.654   8.055 -0.7030 -4.4762  0.4911
 1120Sol     MW 7802   0.478   0.647   7.986 -0.5401 -0.0014 -0.1303
 1121Sol     OW 7803   3.190   0.186   7.641 -0.1520 -0.4510 -0.0664
 1121Sol     HW 7804   3.212   0.126   7.712 -1.1442  2.7778  3.1339
 1121Sol     HW 7805   3.273   0.227   7.618  0.1942 -1.5886 -0.8742
 1121Sol     MW 7806   3.199   0.184   7.646  0.0738 -0.2511 -0.2182
 1122Sol     OW 7807   1.128   1.457   9.382 -0.1983  0.3022 -0.2640
 1122Sol     HW 7808   1.100   1.420   9.299  1.8928 -1.1005 -0.3753
 1122Sol     HW 7809   1.143   1.381   9.438  1.4855  1.1025  0.3840
 1122Sol     MW 7810   1.126   1.447   9.380  0.4322 -0.4681 -0.0061
 1123Sol     OW 7811   0.563   1.743   9.668 -0.6824  0.1096 -0.3735
 1123Sol     HW 7812   0.651   1.726   9.633 -0.7584  0.4155 -0.7139
 1123Sol     HW 7813   0.507   1.678   9.624 -0.6438 -0.0301 -0.2173
 1123Sol     MW 7814   0.566   1.735   9.661 -0.7784 -0.0706 -0.0578
 1124Sol     OW 7815   3.290   2.040   7.036  0.6622 -0.1256  0.4714
 1124Sol     HW 7816   3.370   1.997   7.003 -0.3144 -1.1641 -0.6088
 1124Sol     HW 7817   3.257   2.089   6.961  0.0819  0.0124  0.8164
 1124Sol     MW 7818   3.294   2.041   7.026 -0.4351 -0.3415 -0.2929
 1125Sol     OW 7819   2.533   2.251   9.300  0.3100  0.0084  0.2435
 1125Sol     HW 7820   2.495   2.294   9.223  3.3301  0.7419 -0.9104
 1125Sol     HW 7821   2.551   2.162   9.270  0.6512  0.0359  0.3614
 1125Sol     MW 7822   2.531   2.247   9.290  0.5608 -0.1891  0.5727
 1126Sol     OW 7823   1.813   3.027   2.212 -0.0157  0.2996  0.3368
 1126Sol     HW 7824   1.791   3.120   2.207  0.8368  0.4387 -1.2829
 1126Sol     HW 7825   1.834   3.003   2.121 -0.0527 -1.4244  0.7741
 1126Sol     MW 7826   1.813   3.034   2.203  0.5945 -0.3443  0.2402
 1127Sol     OW 7827   2.996   3.154   9.203  0.1158  0.4499  0.0086
 1127Sol     HW 7828   3.058   3.104   9.255 -0.1704  0.3979  0.3001
 1127Sol     HW 7829   3.050   3.205   9.143  0.4012 -0.5017 -0.5565
 1127Sol     MW 7830   3.006   3.154   9.202  0.2808 -0.7761 -0.3412
 1128Sol     OW 7831   1.101   0.906   7.556 -0.1722  0.1983 -0.1986
 1128Sol     HW 7832   1.083   0.820   7.595 -2.4193 -0.0642 -1.7054
 1128Sol     HW 7833   1.180   0.893   7.504  0.2087 -0.6527  0.5937
 1128Sol     MW 7834   1.106   0.897   7.555  0.1950  0.3546 -0.0243
 1129Sol     OW 7835   1.195   2.107   4.049 -0.1125  0.0202  0.3942
 1129Sol     HW 7836   1.212   2.115   3.955  1.6937 -0.1424  0.6827
 1129Sol     HW 7837   1.177   2.014   4.063 -1.4895  0.2317  0.0428
 1129Sol     MW 7838   1.195   2.100   4.042  0.1412  0.5789  0.5441
 1130Sol     OW 7839   0.254   0.571   3.846  0.3304  0.4663  0.5848
 1130Sol     HW 7840   0.316   0.544   3.778  0.0499  2.4755 -0.5062
 1130Sol     HW 7841   0.251   0.497   3.906  1.7437 -0.7420 -0.7829
 1130Sol     MW 7842   0.259   0.562   3.845  0.2563  0.6538 -0.3929
 1131Sol     OW 7843   2.377   0.726   7.478 -0.4172  0.0412  0.4953
 1131Sol     HW 7844   2.399   0.765   7.563 -2.6051  1.0036  0.6697
 1131Sol     HW 7845   2.415   0.786   7.414  0.1395 -0.0039  0.7742
 1131Sol     MW 7846   2.382   0.735   7.480 -0.5267 -0.1109  0.5142
 1132Sol     OW 7847   1.343   1.758   5.169  0.1716 -0.4746 -0.6824
 1132Sol     HW 7848   1.408   1.814   5.212 -1.5599  0.3890  0.8873
 1132Sol     HW 7849   1.294   1.719   5.242 -0.1152 -2.2970 -1.8089
 1132Sol     MW 7850   1.345   1.759   5.180 -0.1679 -0.7919  0.2292
 1133Sol     OW 7851   2.686   0.785   5.044 -0.2482 -0.0935 -0.6944
 1133Sol     HW 7852   2.774   0.750   5.029 -0.0634 -1.3740  2.8925
 1133Sol     HW 7853   2.688   0.872   5.005  2.0211 -0.8072 -2.2665
 1133Sol     MW 7854   2.694   0.790   5.039  0.6414 -0.0836  1.3212
 1134Sol     OW 7855   2.112   2.783   4.476 -0.1287  0.3716  0.1410
 1134Sol     HW 7856   2.207   2.789   4.477 -0.1170  0.2924 -0.6735
 1134Sol     HW 7857   2.092   2.730   4.399 -0.9188  1.7993 -0.6325
 1134Sol     MW 7858   2.119   2.779   4.470 -0.7490  0.1201  0.3641
 1135Sol     OW 7859   3.060   0.284   8.688  0.1841 -0.2405 -0.5172
 1135Sol     HW 7860   3.022   0.372   8.691  0.7782 -0.0281  0.9864
 1135Sol     HW 7861   3.154   0.297   8.696  0.1162 -1.1362  2.1961
 1135Sol     MW 7862   3.065   0.293   8.689  1.0350 -0.4204  0.7771
 1136Sol     OW 7863   2.478   0.819   5.870 -0.0344  0.0203 -0.2323
 1136Sol     HW 7864   2.476   0.757   5.943  1.4180  0.0316 -0.1759
 1136Sol     HW 7865   2.484   0.905   5.912  0.5662  0.0389 -0.3449
 1136Sol     MW 7866   2.478   0.821   5.880  0.4914 -0.7436 -0.0007
 1137Sol     OW 7867   1.100   0.893   7.101 -0.0408 -0.5066  0.3477
 1137Sol     HW 7868   1.019   0.872   7.054 -0.3162  2.7806 -0.7434
 1137Sol     HW 7869   1.073   0.907   7.191 -0.7565  0.9376 -0.0839
 1137Sol     MW 7870   1.090   0.892   7.105  0.2213  0.2475  0.7323
 1138Sol     OW 7871   3.238   0.928   9.414  0.2275  0.2709 -0.0933
 1138Sol     HW 7872   3.153   0.928   9.458 -0.6607 -0.9583 -1.7627
 1138Sol     HW 7873   3.236   1.005   9.357  0.1530  0.1238 -0.2886
 1138Sol     MW 7874   3.230   0.935   9.413  0.4042  0.0393 -0.5938
 1139Sol     OW 7875   0.741   0.743   2.197 -0.3587 -0.4823 -0.1236
 1139Sol     HW 7876   0.822   0.694   2.182 -0.2041 -0.2443 -0.0684
 1139Sol     HW 7877   0.768   0.820   2.246 -0.6558 -0.5263  0.1134
 1139Sol     MW 7878   0.751   0.745   2.200  0.3470 -0.1605  0.1078
 1140Sol     OW 7879   2.381   1.746   3.928  0.0961 -0.2009  0.6338
 1140Sol     HW 7880   2.317   1.780   3.865  0.6217 -0.3538  0.0072
 1140Sol     HW 7881   2.465   1.758   3.885  0.2220 -3.3997 -0.1539
 1140Sol     MW 7882   2.382   1.750   3.918 -0.0589 -0.3011 -0.0655
 1141Sol     OW 7883   3.192   2.029   8.303 -0.0987 -0.1760  0.2687
 1141Sol     HW 7884   3.245   1.950   8.315  0.2867  0.1065  0.4326
 1141Sol     HW 7885   3.253   2.101   8.320  0.4244  0.2637 -3.1700
 1141Sol     MW 7886   3.202   2.028   8.306  1.2227 -0.1750 -0.1557
 1142Sol     OW 7887   0.005   1.148   9.531 -0.0603  0.1447  0.0466
 1142Sol     HW 7888  -0.044   1.069   9.507 -1.1247  0.0937  2.2315
 1142Sol     HW 7889   0.088   1.115   9.565 -0.2026  0.0097  0.2636
 1142Sol     MW 7890   0.008   1.138   9.532  0.3997  0.0430  0.2845
 1143Sol     OW 7891   2.013   0.440   9.638 -0.5541  0.2463  0.1623
 1143Sol     HW 7892   2.056   0.468   9.558  0.1028  0.2643  0.5147
 1143Sol     HW 7893   2.071   0.373   9.674 -0.5175  0.6806  0.9353
 1143Sol     MW 7894   2.022   0.437   9.634 -0.1869 -0.2193  0.6205
 1144Sol     OW 7895   0.742   2.562   9.420  0.1303 -0.1007  0.3473
 1144Sol     HW 7896   0.782   2.625   9.360 -2.3557  1.1682 -0.0458
 1144Sol     HW 7897   0.754   2.601   9.507  0.3584 -0.0879  0.3129
 1144Sol     MW 7898   0.747   2.571   9.423  0.2548  0.4342 -0.5501
 1145Sol     OW 7899   0.036   1.441   2.447  0.0487  0.1946  0.3913
 1145Sol     HW 7900   0.085   1.497   2.387  0.8653  0.0046  0.8796
 1145Sol     HW 7901   0.011   1.499   2.519  0.9168 -0.0603  0.9095
 1145Sol     MW 7902   0.038   1.451   2.448 -0.1842 -0.2300 -0.1146
 1146Sol     OW 7903   1.109   1.756   1.995  0.1527  0.1133  0.2697
 1146Sol     HW 7904   1.109   1.851   2.008 -0.8192 -0.0828  1.7893
 1146Sol     HW 7905   1.017   1.733   1.985  0.4145 -0.6200 -0.4642
 1146Sol     MW 7906   1.101   1.762   1.996  0.1527 -0.1018 -0.1879
 1147Sol     OW 7907   1.766   1.537   2.687  0.1228 -0.3844 -0.4445
 1147Sol     HW 7908   1.776   1.629   2.661 -1.5810  0.3104  1.2108
 1147Sol     HW 7909   1.726   1.541   2.774 -0.8582 -2.7057 -0.7508
 1147Sol     MW 7910   1.763   1.546   2.693 -0.0396 -0.4028  0.7246
 1148Sol     OW 7911   3.253   3.064   3.301  0.3271  0.2588  0.3165
 1148Sol     HW 7912   3.320   3.001   3.327 -0.1726 -0.5744 -0.3665
 1148Sol     HW 7913   3.224   3.104   3.383  0.9375 -0.1086  0.7162
 1148Sol     MW 7914   3.256   3.062   3.311 -0.1437  0.1734  0.2964
 1149Sol     OW 7915   1.228   1.775   9.160  0.3133 -0.1991  0.4301
 1149Sol     HW 7916   1.263   1.847   9.107  0.2742  0.0225  0.7046
 1149Sol     HW 7917   1.280   1.699   9.134 -0.8363 -0.4762 -1.1843
 1149Sol     MW 7918   1.236   1.775   9.153 -0.0129  0.9951  0.2451
 1150Sol     OW 7919   0.476   0.053   6.725  0.3405  0.3838 -0.0099
 1150Sol     HW 7920   0.505   0.020   6.810  0.7567 -0.0335 -0.3116
 1150Sol     HW 7921   0.462   0.147   6.739 -0.6856  0.1099  0.8009
 1150Sol     MW 7922   0.478   0.059   6.734 -0.2889 -0.1200 -0.2497
 1151Sol     OW 7923   1.172   0.365   2.229 -0.5040 -0.0514  0.1274
 1151Sol     HW 7924   1.264   0.341   2.215 -0.2308 -0.0675  1.7820
 1151Sol     HW 7925   1.125   0.324   2.156  0.4834 -2.1478  0.6164
 1151Sol     MW 7926   1.176   0.359   2.221  0.3980  0.1959  0.5961
 1152Sol     OW 7927   1.745   0.461   9.638 -0.2994 -0.3041 -0.4794
 1152Sol     HW 7928   1.839   0.448   9.628 -0.2184 -0.7984  0.8261
 1152Sol     HW 7929   1.707   0.419   9.561  0.5462 -0.1865 -0.9633
 1152Sol     MW 7930   1.750   0.456   9.630  0.1204 -0.3073  0.2405
 1153Sol     OW 7931   1.781   2.325   4.406 -0.5040 -0.0616 -0.7166
 1153Sol     HW 7932   1.720   2.253   4.422 -1.5812  0.4697 -2.3719
 1153Sol     HW 7933   1.793   2.365   4.492  1.5376 -3.2789  0.5980
 1153Sol     MW 7934   1.777   2.322   4.415 -1.0092  0.1678  1.0888
 1154Sol     OW 7935   1.766   0.988   2.719  0.2496  0.3400  0.0277
 1154Sol     HW 7936   1.731   1.032   2.796  1.3430  0.6115  0.3735
 1154Sol     HW 7937   1.758   0.894   2.739 -0.3577  0.3944  0.0589
 1154Sol     MW 7938   1.762   0.983   2.727  0.9696 -0.4445  0.0816
 1155Sol     OW 7939   2.744   1.617   3.479  0.2256 -0.7228  0.0060
 1155Sol     HW 7940   2.789   1.553   3.423  0.7083 -0.0335 -0.3990
 1155Sol     HW 7941   2.668   1.570   3.512  0.8787 -1.6966  0.1626
 1155Sol     MW 7942   2.741   1.607   3.477  0.0156  0.0826 -0.3164
 1156Sol     OW 7943   2.496   3.160   5.986  0.2421 -0.2110 -0.6541
 1156Sol     HW 7944   2.489   3.208   6.069  1.3745 -0.9282 -0.1401
 1156Sol     HW 7945   2.484   3.068   6.011  1.0419 -0.4691 -1.2328
 1156Sol     MW 7946   2.494   3.156   5.996 -0.2033  0.3875  0.1456
 1157Sol     OW 7947   0.981   1.500   3.193 -0.0585 -0.2578  0.3911
 1157Sol     HW 7948   1.026   1.551   3.260  0.1076 -0.1816  0.2212
 1157Sol     HW 7949   1.051   1.471   3.134 -0.4118  1.0414 -0.6700
 1157Sol     MW 7950   0.991   1.502   3.193  0.0284  0.0238 -0.0243
 1158Sol     OW 7951   2.326   0.429   4.008 -0.3131  0.2879  0.1037
 1158Sol     HW 7952   2.317   0.519   4.041 -1.6365  0.2256 -0.0390
 1158Sol     HW 7953   2.292   0.433   3.918  0.6932 -0.1176 -0.2968
 1158Sol     MW 7954   2.322   0.437   4.003 -0.0687 -0.4106 -0.4819
 1159Sol     OW 7955   1.356   2.043   7.939  0.9765 -0.2775 -0.4470
 1159Sol     HW 7956   1.388   1.969   7.886  1.6642  0.3590 -0.9347
 1159Sol     HW 7957   1.358   2.118   7.879 -1.3949 -0.2026 -0.4588
 1159Sol     MW 7958   1.359   2.043   7.929 -0.0423  0.0166 -0.8088
 1160Sol     OW 7959   1.258   1.948   8.653  0.3724 -0.2885 -0.1867
 1160Sol     HW 7960   1.334   2.004   8.637 -0.6696  1.0082 -0.6503
 1160Sol     HW 7961   1.236   1.964   8.745  2.0388 -2.4092  0.6314
 1160Sol     MW 7962   1.263   1.955   8.660 -0.3336 -0.0655 -0.6868
 1161Sol     OW 7963   0.475   0.520   7.709 -0.8493 -0.2338  0.3040
 1161Sol     HW 7964   0.468   0.558   7.797 -0.1053 -0.5281  0.4929
 1161Sol     HW 7965   0.424   0.580   7.654 -0.1335  0.7489  0.6902
 1161Sol     MW 7966   0.470   0.529   7.712  0.4547 -0.5088 -1.0883
 1162Sol     OW 7967   3.008   3.210   4.076 -0.3866  0.4195 -0.2992
 1162Sol     HW 7968   3.069   3.244   4.141  1.0218 -0.5234 -1.1143
 1162Sol     HW 7969   3.056   3.213   3.994 -1.5177 -0.1221 -0.9976
 1162Sol     MW 7970   3.017   3.214   4.074 -0.0251  0.1370 -0.6977
 1163Sol     OW 7971   0.794   2.621   2.969  0.3952  0.7022  0.5576
 1163Sol     HW 7972   0.718   2.671   3.000 -1.2090 -0.9751 -0.5600
 1163Sol     HW 7973   0.840   2.595   3.049 -0.4938  1.2939  1.2683
 1163Sol     MW 7974   0.791   2.623   2.979 -0.4793 -0.2482 -1.0497
 1164Sol     OW 7975   1.623   2.367   3.188  0.3302 -0.1979 -0.0499
 1164Sol     HW 7976   1.596   2.409   3.107 -0.8900  1.3501  1.1115
 1164Sol     HW 7977   1.547   2.378   3.247  0.4035 -3.0448  0.6558
 1164Sol     MW 7978   1.614   2.372   3.186 -0.1858 -0.2214 -0.9926
 1165Sol     OW 7979   2.027   3.054   4.468 -0.1637  0.3710  0.3833
 1165Sol     HW 7980   2.050   2.961   4.469 -1.8211 -0.0581  2.7292
 1165Sol     HW 7981   1.986   3.067   4.383  2.4168 -0.4045 -1.0452
 1165Sol     MW 7982   2.026   3.046   4.460  0.0449 -0.6026  0.5205
 1166Sol     OW 7983   3.241   2.721   5.423  0.2931  0.3111  0.0279
 1166Sol     HW 7984   3.180   2.795   5.415 -1.6333 -1.3981 -1.3779
 1166Sol     HW 7985   3.220   2.682   5.508  1.4563  1.4664  0.8693
 1166Sol     MW 7986   3.234   2.724   5.430 -0.3885  0.5717 -0.4681
 1167Sol     OW 7987   1.607   2.222   2.666 -0.5179 -0.2836 -0.6793
 1167Sol     HW 7988   1.529   2.274   2.682  0.1643  0.7811 -0.7502
 1167Sol     HW 7989   1.599   2.193   2.576 -1.4892 -1.3188 -0.2623
 1167Sol     MW 7990   1.600   2.224   2.660 -0.0168 -0.4894  0.3578
 1168Sol     OW 7991   1.668   1.941   9.539 -0.0801 -0.2176 -0.2127
 1168Sol     HW 7992   1.657   1.933   9.634  2.8415 -0.1292  0.1662
 1168Sol     HW 7993   1.729   1.871   9.515  0.9411  1.1152 -1.6667
 1168Sol     MW 7994   1.673   1.934   9.545  0.1360 -0.5450 -0.7024
 1169Sol     OW 7995   0.992   1.267   7.849  0.1160  0.2835 -0.5837
 1169Sol     HW 7996   0.920   1.250   7.789 -0.8234  2.3450 -0.0690
 1169Sol     HW 7997   0.997   1.362   7.855  1.5026  0.1393  1.0367
 1169Sol     MW 7998   0.986   1.274   7.844 -0.0850 -0.1607 -0.6255
 1170Sol     OW 7999   0.821   1.892   5.410 -0.6264  0.4415  0.0826
 1170Sol     HW 8000   0.786   1.862   5.326 -0.2519 -0.7741  0.3526
 1170Sol     HW 8001   0.744   1.920   5.459 -1.0945 -1.0520  0.2125
 1170Sol     MW 8002   0.811   1.892   5.406 -0.2505  0.1108  0.1773
 1171Sol     OW 8003   1.954   1.302   3.229 -0.0111 -0.2176 -0.6363
 1171Sol     HW 8004   2.025   1.366   3.239  0.0676 -0.2394 -1.0546
 1171Sol     HW 8005   1.937   1.300   3.135  0.5424 -1.4176 -0.7243
 1171Sol     MW 8006   1.959   1.308   3.222 -0.2991 -0.0969 -0.2401
 1172Sol     OW 8007   0.984   0.348   9.194 -0.4552  0.2591  0.2832
 1172Sol     HW 8008   1.059   0.297   9.224 -0.3690  1.3546  1.9630
 1172Sol     HW 8009   0.951   0.300   9.118  1.6936 -0.4424 -0.2133
 1172Sol     MW 8010   0.987   0.339   9.190 -0.0209  0.7152 -0.3748
 1173Sol     OW 8011   0.196   3.140   7.486 -0.5583  0.0151 -0.5608
 1173Sol     HW 8012   0.238   3.063   7.524  0.0271  0.6762  0.1474
 1173Sol     HW 8013   0.220   3.137   7.393 -3.8592 -2.8430 -1.4114
 1173Sol     MW 8014   0.202   3.133   7.481 -0.6930 -0.9185 -1.2494
 1174Sol     OW 8015   0.410   2.806   9.497 -0.2474 -0.7408 -0.2703
 1174Sol     HW 8016   0.421   2.726   9.548 -0.5037 -0.1623  0.7073
 1174Sol     HW 8017   0.347   2.783   9.429  0.2796 -1.5862 -0.4705
 1174Sol     MW 8018   0.405   2.797   9.495 -0.5468 -0.1757 -0.0073
 1175Sol     OW 8019   1.456   1.938   3.396  0.0301 -0.1743  0.0654
 1175Sol     HW 8020   1.476   1.869   3.333 -2.3384 -0.5512 -0.2852
 1175Sol     HW 8021   1.436   1.891   3.477 -1.1050  0.1292 -0.0417
 1175Sol     MW 8022   1.456   1.927   3.398  0.3477 -0.0166 -0.4269
 1176Sol     OW 8023   2.844   2.050   7.247  0.0892 -0.1783  0.1813
 1176Sol     HW 8024   2.860   2.129   7.299 -0.4881 -0.4123  0.7104
 1176Sol     HW 8025   2.928   2.004   7.247  0.2301  0.0776  0.4779
 1176Sol     MW 8026   2.853   2.053   7.252 -0.2203  0.2599 -0.4790
 1177Sol     OW 8027   1.031   2.768   9.018  0.6218  0.4059 -0.3440
 1177Sol     HW 8028   1.032   2.759   8.923 -0.0332 -0.8623 -0.2427
 1177Sol     HW 8029   1.064   2.856   9.034 -2.7674  2.0501 -1.9220
 1177Sol     MW 8030   1.034   2.775   9.011 -0.0771 -0.3331  0.2035
 1178Sol     OW 8031   0.809   2.521   4.909  0.1272  0.4503 -0.5449
 1178Sol     HW 8032   0.758   2.578   4.852 -0.6795  0.4501  0.1744
 1178Sol     HW 8033   0.829   2.575   4.985 -0.1823 -0.0521 -0.1015
 1178Sol     MW 8034   0.806   2.531   4.911 -0.4952 -0.1828  0.3157
 1179Sol     OW 8035   1.896   2.073   9.085 -0.2295 -0.1011  0.1074
 1179Sol     HW 8036   1.892   1.985   9.048  2.6497 -0.3638  0.3611
 1179Sol     HW 8037   1.960   2.120   9.031 -1.3752  1.7192  0.2677
 1179Sol     MW 8038   1.901   2.070   9.077  0.1791  0.3919  0.1564
 1180Sol     OW 8039   2.921   3.324   5.603 -0.1726 -0.1404  0.1890
 1180Sol     HW 8040   2.865   3.357   5.674  0.7762 -2.0767  1.8986
 1180Sol     HW 8041   2.987   3.271   5.647  0.2835 -1.6377 -2.1755
 1180Sol     MW 8042   2.922   3.322   5.613  0.3186  0.3367 -0.0303
 1181Sol     OW 8043   0.515   1.840   8.428  0.1123  0.4175  0.5482
 1181Sol     HW 8044   0.447   1.832   8.361  2.7940  0.1574 -2.2466
 1181Sol     HW 8045   0.529   1.934   8.435 -0.3223  0.4571  0.9344
 1181Sol     MW 8046   0.510   1.848   8.423 -0.4037  0.1949 -0.7860
 1182Sol     OW 8047   2.098   2.985   3.243  0.4525 -0.2950  0.4961
 1182Sol     HW 8048   2.081   3.023   3.157  0.7134 -1.2247  0.0283
 1182Sol     HW 8049   2.012   2.958   3.274  0.6799 -2.3492 -0.6137
 1182Sol     MW 8050   2.089   2.986   3.238  0.3945  0.7094 -0.3654
 1183Sol     OW 8051   2.749   0.265   6.167  0.4753  0.4266  0.0860
 1183Sol     HW 8052   2.750   0.282   6.261  0.2990  0.1209  0.1432
 1183Sol     HW 8053   2.701   0.339   6.129  2.3735  1.6429  0.0170
 1183Sol     MW 8054   2.745   0.273   6.172 -0.1189 -0.0427 -0.3709
 1184Sol     OW 8055   1.805   3.002   5.190  0.4064 -0.1701 -0.5585
 1184Sol     HW 8056   1.789   3.072   5.254  2.0960 -0.2005 -0.0711
 1184Sol     HW 8057   1.730   3.006   5.131 -1.2116 -0.1582  1.4446
 1184Sol     MW 8058   1.797   3.009   5.191 -0.3168  0.0583 -0.0694
 1185Sol     OW 8059   0.634   0.010   7.305 -0.1567  0.3559  0.0455
 1185Sol     HW 8060   0.627   0.084   7.365  0.1168  1.0814 -0.8172
 1185Sol     HW 8061   0.547   0.003   7.265 -0.9924 -1.4584  2.0580
 1185Sol     MW 8062   0.626   0.016   7.307 -0.3967 -0.2411 -0.3610
 1186Sol     OW 8063   1.843   2.254   2.299 -0.3389  0.1691 -0.2685
 1186Sol     HW 8064   1.843   2.348   2.315 -1.2843  0.4069 -1.5461
 1186Sol     HW 8065   1.758   2.224   2.331  0.3955 -0.4494  1.1518
 1186Sol     MW 8066   1.835   2.259   2.303 -0.0251 -0.3376  0.3049
 1187Sol     OW 8067   1.486   2.538   6.442 -0.2447 -0.1234 -0.3210
 1187Sol     HW 8068   1.548   2.469   6.419  0.4622  1.1783 -2.4255
 1187Sol     HW 8069   1.494   2.546   6.537  1.0446 -1.6284 -0.2809
 1187Sol     MW 8070   1.492   2.533   6.449 -0.6625  0.0189 -0.2612
 1188Sol     OW 8071   1.262   1.463   4.201 -0.7541  0.2529  0.1767
 1188Sol     HW 8072   1.292   1.372   4.207  0.9146  0.5799 -2.5259
 1188Sol     HW 8073   1.167   1.457   4.198 -0.6225 -1.4491 -0.7952
 1188Sol     MW 8074   1.257   1.454   4.202 -0.0210 -0.5794  1.0098
 1189Sol     OW 8075   0.477   1.820   2.633  0.3350 -0.6640  0.4399
 1189Sol     HW 8076   0.433   1.806   2.717  0.7222 -0.7852  0.6268
 1189Sol     HW 8077   0.570   1.823   2.656  0.5155 -1.8215 -0.1423
 1189Sol     MW 8078   0.482   1.819   2.643  0.1781 -0.0782 -0.7504
 1190Sol     OW 8079   1.579   2.827   2.203  0.6002 -0.2558 -0.5840
 1190Sol     HW 8080   1.593   2.844   2.110 -0.7646  1.7355 -0.4468
 1190Sol     HW 8081   1.661   2.853   2.245  0.5215  0.7148 -1.0175
 1190Sol     MW 8082   1.587   2.831   2.199  0.3783  0.4993  0.0502
 1191Sol     OW 8083   3.173   1.911   1.758  0.1642  0.4327  0.0907
 1191Sol     HW 8084   3.137   1.988   1.802  0.6004  0.7253 -0.0648
 1191Sol     HW 8085   3.096   1.858   1.738  0.0359 -0.0494  1.8498
 1191Sol     MW 8086   3.162   1.914   1.760 -0.2606  0.0799  0.4384
 1192Sol     OW 8087   1.611   3.077   5.867 -0.5796 -0.2060  0.6289
 1192Sol     HW 8088   1.568   3.066   5.782 -0.0264  0.7220  0.2182
 1192Sol     HW 8089   1.549   3.129   5.918  0.6232  2.3832 -0.4491
 1192Sol     MW 8090   1.602   3.081   5.864 -0.0382 -0.2973  0.0197
 1193Sol     OW 8091   0.600   1.933   2.149 -0.2445  0.9910  0.8145
 1193Sol     HW 8092   0.667   1.981   2.100  0.2036  1.0682  1.4963
 1193Sol     HW 8093   0.649   1.866   2.196 -1.0273 -1.2013 -1.3663
 1193Sol     MW 8094   0.610   1.932   2.149  0.0565  0.2863  0.0298
 1194Sol     OW 8095   0.325   0.909   6.191 -0.3216 -0.0438  0.4585
 1194Sol     HW 8096   0.395   0.973   6.178 -1.1327  0.7468  0.0110
 1194Sol     HW 8097   0.291   0.928   6.279  1.6246 -1.9990  1.7141
 1194Sol     MW 8098   0.329   0.916   6.198  0.3252 -0.7137 -0.0240
 1195Sol     OW 8099   2.214   0.001   8.640 -0.4226  0.2165 -0.0863
 1195Sol     HW 8100   2.139   0.034   8.690  1.0440 -0.0906  2.3955
 1195Sol     HW 8101   2.289   0.049   8.675  0.9791 -1.7751 -0.2878
 1195Sol     MW 8102   2.214   0.009   8.648  0.1777 -0.4826 -0.4133
 1196Sol     OW 8103   1.971   1.089   6.621 -0.5630  0.1396 -0.0658
 1196Sol     HW 8104   1.945   1.059   6.708  0.5934  1.6188  0.8228
 1196Sol     HW 8105   2.050   1.141   6.637 -1.0694  1.4865 -1.8404
 1196Sol     MW 8106   1.975   1.091   6.631  0.0285  0.3790  0.0840
 1197Sol     OW 8107   0.627   0.648   8.369  0.1817 -0.3619 -0.8870
 1197Sol     HW 8108   0.673   0.603   8.299  2.3018 -0.4134  0.4778
 1197Sol     HW 8109   0.633   0.588   8.444 -1.5018 -0.0436 -0.4723
 1197Sol     MW 8110   0.632   0.639   8.370 -0.1409 -0.7335 -0.6204
 1198Sol     OW 8111   1.433   1.305   8.603  0.4914  0.3306  0.2137
 1198Sol     HW 8112   1.377   1.376   8.572 -0.2385  0.8463  2.6038
 1198Sol     HW 8113   1.517   1.347   8.621  0.1100  0.5733  1.4662
 1198Sol     MW 8114   1.436   1.315   8.602 -0.5261 -0.1187 -0.5963
 1199Sol     OW 8115   1.255   3.348   6.526  0.1221 -0.1714 -0.2124
 1199Sol     HW 8116   1.193   3.351   6.452  1.9608  0.1510 -1.7815
 1199Sol     HW 8117   1.322   3.286   6.498  1.3048  0.6326  0.8225
 1199Sol     MW 8118   1.255   3.343   6.517  0.7857  0.5099 -0.3127
 1200Sol     OW 8119   2.936   0.110   7.703 -0.5344  0.2769 -0.0145
 1200Sol     HW 8120   2.880   0.176   7.743 -3.3525 -1.0925 -1.5443
 1200Sol     HW 8121   3.016   0.157   7.680 -1.0510  2.3039  2.1704
 1200Sol     MW 8122   2.938   0.120   7.705 -0.1789  0.2377  0.3825
 1201Sol     OW 8123   0.238   1.640   9.106  0.7406 -0.2749  0.1877
 1201Sol     HW 8124   0.173   1.574   9.085 -0.1448  0.5150  0.3718
 1201Sol     HW 8125   0.286   1.604   9.181  0.9195 -1.1298 -0.3435
 1201Sol     MW 8126   0.236   1.631   9.111  0.1250  0.5281 -0.1153
 1202Sol     OW 8127   2.672   1.712   5.107 -0.0289 -0.1800  0.1959
 1202Sol     HW 8128   2.679   1.634   5.162 -0.1876  0.6668  1.4484
 1202Sol     HW 8129   2.587   1.749   5.130 -0.5508 -0.3678 -1.3877
 1202Sol     MW 8130   2.665   1.708   5.114 -0.0371  0.6710 -0.0647
 1203Sol     OW 8131   0.475   0.730   8.659 -0.6034  0.3428  0.1412
 1203Sol     HW 8132   0.434   0.766   8.580 -1.5693  0.4414  0.6747
 1203Sol     HW 8133   0.520   0.652   8.629 -1.2203  0.2085 -0.4644
 1203Sol     MW 8134   0.475   0.727   8.649 -0.3689  0.6770  0.1740
 1204Sol     OW 8135   0.030   3.221   6.448  0.2292 -0.1513  0.1683
 1204Sol     HW 8136   0.060   3.130   6.449 -2.0070 -1.1077 -4.5818
 1204Sol     HW 8137  -0.055   3.218   6.491 -0.4197 -0.5732 -1.1280
 1204Sol     MW 8138   0.025   3.212   6.452  0.1708  0.4520 -0.6722
 1205Sol     OW 8139   0.951   2.510   2.642 -0.0768 -0.1387 -0.2779
 1205Sol     HW 8140   0.961   2.567   2.565  0.7026 -0.4055 -0.3779
 1205Sol     HW 8141   0.987   2.562   2.714 -1.5954  0.4581  0.0764
 1205Sol     MW 8142   0.955   2.520   2.641 -0.4216 -0.2043 -0.4718
 1206Sol     OW 8143   1.645   2.433   9.611  0.0372  0.1187 -0.1661
 1206Sol     HW 8144   1.638   2.363   9.545 -1.4534  0.8004 -0.7542
 1206Sol     HW 8145   1.696   2.393   9.682 -0.7786 -1.5729 -0.4952
 1206Sol     MW 8146   1.649   2.423   9.611 -0.1005 -0.0870 -0.5469
 1207Sol     OW 8147   0.511   3.217   5.132 -0.8293  0.4522 -0.2699
 1207Sol     HW 8148   0.419   3.226   5.109 -0.9529 -0.7254 -0.2767
 1207Sol     HW 8149   0.512   3.153   5.204  0.0742 -0.5355 -1.1284
 1207Sol     MW 8150   0.503   3.212   5.137 -0.7920  0.2687 -0.5294
 1208Sol     OW 8151   2.573   1.713   6.934  0.4576 -0.0626  0.0861
 1208Sol     HW 8152   2.552   1.786   6.876  0.7502  1.7982  2.2561
 1208Sol     HW 8153   2.663   1.730   6.963  0.0368 -0.5226  1.6988
 1208Sol     MW 8154   2.579   1.721   6.931  0.0917 -0.1104 -0.0455
 1209Sol     OW 8155   0.884   2.759   9.264 -0.4909 -0.1129 -0.2280
 1209Sol     HW 8156   0.920   2.778   9.178 -0.1574  0.0027 -0.0639
 1209Sol     HW 8157   0.811   2.820   9.273  0.4344  0.9436  0.2063
 1209Sol     MW 8158   0.880   2.766   9.257 -0.8914  1.0733 -0.6654
 1210Sol     OW 8159   2.796   1.846   8.218 -0.0527 -0.3480  0.4827
 1210Sol     HW 8160   2.881   1.882   8.242 -0.1992 -0.9891  1.9989
 1210Sol     HW 8161   2.780   1.778   8.283 -0.9932 -1.3238 -0.7560
 1210Sol     MW 8162   2.803   1.843   8.226  0.0567  0.5814  0.0476
 1211Sol     OW 8163   1.600   0.375   5.328 -0.1402 -1.0187  0.1154
 1211Sol     HW 8164   1.614   0.367   5.234  2.1207 -1.7058  0.4814
 1211Sol     HW 8165   1.616   0.467   5.348 -1.3918 -0.7093 -0.2770
 1211Sol     MW 8166   1.603   0.383   5.322 -0.8435  0.3532  0.2160
 1212Sol     OW 8167   3.024   2.836   4.125 -0.9717 -0.3299 -0.6368
 1212Sol     HW 8168   3.082   2.770   4.163 -1.1407  0.5635  1.2487
 1212Sol     HW 8169   3.011   2.807   4.035  1.2446 -1.3208 -0.6811
 1212Sol     MW 8170   3.028   2.827   4.120  0.0936  0.7261 -0.0960
 1213Sol     OW 8171   2.117   1.620   9.472  0.6631 -0.2989  0.0391
 1213Sol     HW 8172   2.100   1.568   9.393  0.2198  1.6603 -1.2093
 1213Sol     HW 8173   2.036   1.669   9.486  1.4379  0.8677  0.5121
 1213Sol     MW 8174   2.108   1.620   9.466 -0.1408  0.2046 -0.8612
 1214Sol     OW 8175   2.454   3.386   4.970 -0.0741  0.1043 -0.4697
 1214Sol     HW 8176   2.549   3.373   4.965  0.2907  2.2228  0.4904
 1214Sol     HW 8177   2.430   3.357   5.057 -0.1627  0.3729 -0.4028
 1214Sol     MW 8178   2.461   3.382   4.977  0.3827  0.3914 -0.2401
 1215Sol     OW 8179   1.707   2.495   4.611  0.4999  0.0090 -0.1032
 1215Sol     HW 8180   1.768   2.568   4.622  0.1315  0.0422  1.8649
 1215Sol     HW 8181   1.634   2.516   4.669  0.2562 -1.7553  0.2497
 1215Sol     MW 8182   1.706   2.503   4.617 -0.2066  0.1089 -1.4268
 1216Sol     OW 8183   0.232   2.705   6.196  0.0171 -0.1026 -0.5798
 1216Sol     HW 8184   0.164   2.641   6.216  1.7228 -1.7369  0.1300
 1216Sol     HW 8185   0.244   2.699   6.101 -0.4544 -0.2120 -0.6295
 1216Sol     MW 8186   0.227   2.699   6.189  0.2952  1.3049 -0.1488
 1217Sol     OW 8187   0.761   1.330   6.643  0.2902  0.2867  0.2709
 1217Sol     HW 8188   0.793   1.250   6.684 -1.0457 -0.4860 -0.1767
 1217Sol     HW 8189   0.667   1.332   6.662  0.1116  1.2086 -0.6084
 1217Sol     MW 8190   0.755   1.323   6.649  0.3207 -0.8195  0.5159
 1218Sol     OW 8191   1.558   2.915   5.023 -1.0564 -0.2029 -0.2280
 1218Sol     HW 8192   1.584   2.879   4.938 -1.2563  0.5558 -0.6107
 1218Sol     HW 8193   1.596   2.854   5.086  0.5435  0.1497 -0.8213
 1218Sol     MW 8194   1.564   2.906   5.021 -0.1264  0.1079  0.0215
 1219Sol     OW 8195   0.847   2.577   5.382  0.7510 -0.6512 -0.2880
 1219Sol     HW 8196   0.774   2.562   5.442 -0.0380 -0.0202 -1.0697
 1219Sol     HW 8197   0.910   2.629   5.431 -0.4752  0.9900 -0.4253
 1219Sol     MW 8198   0.846   2.580   5.392 -0.3041 -0.2509  0.7424
 1220Sol     OW 8199   1.174   0.403   5.720 -0.3059 -0.1870 -0.2398
 1220Sol     HW 8200   1.237   0.475   5.726  1.2436 -1.5497 -0.0098
 1220Sol     HW 8201   1.170   0.367   5.808 -2.6708  0.9119  0.1437
 1220Sol     MW 8202   1.179   0.406   5.728 -0.4256 -0.6372  0.4438
 1221Sol     OW 8203   2.388   1.340   5.614  0.5452  0.1445  0.0389
 1221Sol     HW 8204   2.439   1.359   5.535  0.9311 -0.5037  0.1242
 1221Sol     HW 8205   2.299   1.327   5.583  0.9365 -1.4825 -0.4888
 1221Sol     MW 8206   2.385   1.340   5.604  0.2563  0.0383 -0.1769
 1222Sol     OW 8207   2.950   2.575   4.394  0.3494 -0.3949  0.2460
 1222Sol     HW 8208   2.898   2.629   4.334  0.6949  0.3351  0.5975
 1222Sol     HW 8209   3.040   2.606   4.381  0.2897  0.5190  1.9415
 1222Sol     MW 8210   2.953   2.583   4.387  0.0674 -0.1733 -0.0731
 1223Sol     OW 8211   2.070   0.303   9.972 -0.2023 -0.1660 -0.0340
 1223Sol     HW 8212   2.073   0.259  10.057 -1.8660  0.9324  0.6171
 1223Sol     HW 8213   1.976   0.311   9.952  0.1007  1.7743 -0.8178
 1223Sol     MW 8214   2.062   0.300   9.977  0.1953 -0.4431  0.0784
 1224Sol     OW 8215   1.912   2.574   8.545 -0.2664 -0.1033  0.0300
 1224Sol     HW 8216   1.954   2.628   8.477  1.3966 -0.2524  0.9207
 1224Sol     HW 8217   1.947   2.608   8.627 -0.8117 -1.1860  0.7088
 1224Sol     MW 8218   1.919   2.582   8.546  0.0251  1.1345  0.0734
 1225Sol     OW 8219   3.072   0.670   5.791  0.3402 -0.1053  0.3377
 1225Sol     HW 8220   3.135   0.632   5.851 -1.2347 -1.3284  1.2322
 1225Sol     HW 8221   3.111   0.658   5.704  0.7712 -1.9427  0.7807
 1225Sol     MW 8222   3.081   0.666   5.788  0.3010  0.0936  0.2863
 1226Sol     OW 8223   0.879   0.263   3.834 -0.4340 -0.0560  0.3144
 1226Sol     HW 8224   0.962   0.274   3.880 -0.3310 -0.8708  0.3389
 1226Sol     HW 8225   0.885   0.323   3.759  0.4425 -0.5592 -0.0345
 1226Sol     MW 8226   0.887   0.269   3.831  0.0970 -0.7018  0.0824
 1227Sol     OW 8227   0.269   0.369   8.495  0.0269  0.2381 -0.0227
 1227Sol     HW 8228   0.293   0.378   8.587 -0.6270 -0.0379  0.1821
 1227Sol     HW 8229   0.350   0.383   8.446 -0.0162  2.5750  0.4923
 1227Sol     MW 8230   0.278   0.371   8.499  0.2417 -0.3035 -0.9015
 1228Sol     OW 8231   0.461   2.986   3.019  0.3135  0.0320  0.2904
 1228Sol     HW 8232   0.506   3.040   2.954 -0.1122  1.1268  0.9044
 1228Sol     HW 8233   0.368   3.003   3.004  0.1577 -0.8411  0.2260
 1228Sol     MW 8234   0.457   2.992   3.012  0.4289 -0.4670  0.1949
 1229Sol     OW 8235   2.225   3.281   5.884  0.1214 -0.2947  0.2990
 1229Sol     HW 8236   2.131   3.299   5.888  0.2562  0.5911 -0.3648
 1229Sol     HW 8237   2.231   3.186   5.893 -0.8321 -0.3491  0.4594
 1229Sol     MW 8238   2.217   3.274   5.885  0.5406  0.2622  0.0064
 1230Sol     OW 8239   3.010   3.062   7.142 -0.2800 -0.1331 -0.3827
 1230Sol     HW 8240   3.020   3.005   7.066 -0.0891  0.8813 -1.1203
 1230Sol     HW 8241   3.075   3.131   7.129  1.8930 -1.5331  2.1708
 1230Sol     MW 8242   3.017   3.063   7.134 -0.0636  0.7152  0.3560
 1231Sol     OW 8243   2.134   1.626   9.742  0.3599 -0.3267  0.1732
 1231Sol     HW 8244   2.071   1.583   9.800 -0.3547 -1.1427 -1.1944
 1231Sol     HW 8245   2.088   1.638   9.659  1.9211 -0.7355 -0.7893
 1231Sol     MW 8246   2.125   1.623   9.740 -0.0685  0.1509 -0.5521
 1232Sol     OW 8247   0.812   1.487   5.519  0.2237 -0.2221 -0.0390
 1232Sol     HW 8248   0.859   1.405   5.506 -0.7861 -0.6791 -0.9461
 1232Sol     HW 8249   0.797   1.493   5.613 -0.4912 -1.5186 -0.0740
 1232Sol     MW 8250   0.815   1.481   5.526  0.2936 -0.2099  1.0186
 1233Sol     OW 8251   1.857   2.009   7.525 -0.3962  0.7398 -0.0831
 1233Sol     HW 8252   1.800   1.934   7.508  2.0226 -1.2631  0.3292
 1233Sol     HW 8253   1.863   2.054   7.440 -0.7097 -0.3617 -0.7007
 1233Sol     MW 8254   1.853   2.006   7.516  0.2634  0.2951 -0.1176
 1234Sol     OW 8255   3.177   3.252   7.020  0.2525 -0.0528 -0.2634
 1234Sol     HW 8256   3.129   3.302   6.953 -0.3608  0.0854  0.2762
 1234Sol     HW 8257   3.217   3.180   6.971 -0.2644 -0.0041 -0.7734
 1234Sol     MW 8258   3.176   3.250   7.009  0.7874 -0.2114 -0.0210
 1235Sol     OW 8259   2.147   3.048   7.823 -0.3354  0.4628  0.4879
 1235Sol     HW 8260   2.154   2.973   7.765  1.1451  0.9930 -0.0390
 1235Sol     HW 8261   2.224   3.041   7.880  0.3779  2.1527 -0.2560
 1235Sol     MW 8262   2.154   3.041   7.823 -0.4467 -0.0047  0.1535
 1236Sol     OW 8263   3.178   2.476   8.300 -0.3703 -0.2781 -0.1354
 1236Sol     HW 8264   3.108   2.450   8.240 -1.1471  0.4932  0.4352
 1236Sol     HW 8265   3.173   2.571   8.304  0.6335 -0.2242  0.0047
 1236Sol     MW 8266   3.171   2.482   8.295  0.7149  0.2513 -0.2513
 1237Sol     OW 8267   1.599   1.906   5.342 -0.0284  0.1657  0.3297
 1237Sol     HW 8268   1.647   1.940   5.267  0.4400 -0.5802  0.2852
 1237Sol     HW 8269   1.521   1.961   5.348 -0.0315  0.2770 -0.6618
 1237Sol     MW 8270   1.596   1.914   5.336 -0.1647 -0.1403 -0.2189
 1238Sol     OW 8271   0.724   2.255   7.912  0.3501 -0.1403  0.1993
 1238Sol     HW 8272   0.817   2.281   7.914  0.0401  0.9379  1.7928
 1238Sol     HW 8273   0.714   2.209   7.829  1.9925  0.9996 -0.6669
 1238Sol     MW 8274   0.732   2.254   7.904  0.2756  0.0844 -0.4985
 1239Sol     OW 8275   2.571   0.589   2.560  0.6835 -0.6000 -0.5384
 1239Sol     HW 8276   2.590   0.540   2.480  1.0833 -0.3857 -0.5751
 1239Sol     HW 8277   2.657   0.611   2.596  0.5810 -3.3201  1.5728
 1239Sol     MW 8278   2.581   0.587   2.556 -0.0258 -0.4229 -0.4752
 1240Sol     OW 8279   1.337   0.604   5.730 -0.2540 -0.1374  0.4168
 1240Sol     HW 8280   1.321   0.694   5.704  0.2868  0.0406  0.6906
 1240Sol     HW 8281   1.426   0.585   5.698 -0.4581 -0.6516  0.1411
 1240Sol     MW 8282   1.344   0.610   5.724  0.4697  0.3493 -0.3812
 1241Sol     OW 8283   0.630   1.959   4.492  0.0759 -0.0710 -0.5418
 1241Sol     HW 8284   0.719   1.984   4.516  0.3613 -1.1845 -0.4303
 1241Sol     HW 8285   0.597   2.034   4.441 -0.2220  1.9035  2.4258
 1241Sol     MW 8286   0.635   1.968   4.489 -0.5648  0.0900  0.1588
 1242Sol     OW 8287   1.306   0.510   7.986  0.2369  0.2081  0.5697
 1242Sol     HW 8288   1.336   0.504   7.895  0.5531 -2.8354  0.8275
 1242Sol     HW 8289   1.376   0.557   8.031  1.2920 -0.5195 -0.2706
 1242Sol     MW 8290   1.315   0.513   7.982  0.1250 -0.1350  0.1253
 1243Sol     OW 8291   2.639   1.024   4.920  0.0104  0.0444 -0.3794
 1243Sol     HW 8292   2.662   1.006   4.829  1.2394 -1.1752  0.1544
 1243Sol     HW 8293   2.575   1.095   4.915  1.4835  1.2847 -2.0787
 1243Sol     MW 8294   2.635   1.028   4.911  0.0128  0.2335  0.0452
 1244Sol     OW 8295   3.014   2.812   5.779 -0.2039  0.4609  0.1772
 1244Sol     HW 8296   3.052   2.733   5.741 -2.1175 -0.4091  0.0018
 1244Sol     HW 8297   3.082   2.845   5.837  1.2170 -0.4442 -0.9048
 1244Sol     MW 8298   3.024   2.808   5.780  0.3697  0.6654 -0.5436
 1245Sol     OW 8299   2.066   0.913   4.479 -0.4296  0.0218  0.0776
 1245Sol     HW 8300   2.106   0.931   4.564 -0.1508  0.3917 -0.1315
 1245Sol     HW 8301   1.972   0.904   4.497 -0.4736  0.9232  0.2916
 1245Sol     MW 8302   2.061   0.913   4.488  0.3568 -0.5576 -0.2015
 1246Sol     OW 8303   2.790   2.132   1.703 -0.0954 -0.2775 -0.0707
 1246Sol     HW 8304   2.864   2.189   1.723 -0.1392 -0.4884  0.7127
 1246Sol     HW 8305   2.719   2.192   1.682  0.2290 -0.0692 -0.5863
 1246Sol     MW 8306   2.791   2.143   1.703  0.2582  0.4114 -0.1744
 1247Sol     OW 8307   1.484   0.670   8.182  0.2496 -0.2070  0.0104
 1247Sol     HW 8308   1.569   0.700   8.215  0.6590 -2.1701  0.7845
 1247Sol     HW 8309   1.422   0.735   8.215  1.2054  0.2235  0.9975
 1247Sol     MW 8310   1.486   0.679   8.188  0.0137 -0.1880  0.5404
 1248Sol     OW 8311   1.256   3.157   7.787  0.3211  0.0290 -0.2351
 1248Sol     HW 8312   1.314   3.212   7.840  0.0663 -0.1046  0.1886
 1248Sol     HW 8313   1.314   3.090   7.751  0.3905 -0.2628  0.4075
 1248Sol     MW 8314   1.266   3.156   7.789  0.2708 -0.5098 -0.0714
 1249Sol     OW 8315   1.902   2.242   2.623 -0.4182  0.0342  0.6860
 1249Sol     HW 8316   1.827   2.210   2.674 -0.2784  0.3080  1.0651
 1249Sol     HW 8317   1.947   2.163   2.594 -0.0684 -0.1206  1.6277
 1249Sol     MW 8318   1.899   2.232   2.625 -0.3512  0.3432 -1.4432
 1250Sol     OW 8319   0.575   1.326   3.202 -0.0670  0.0451 -0.5581
 1250Sol     HW 8320   0.560   1.398   3.140 -1.0404  0.9642  0.7133
 1250Sol     HW 8321   0.508   1.261   3.180  0.7544 -0.4585 -1.6479
 1250Sol     MW 8322   0.567   1.327   3.194  0.4068 -0.1609  0.2004
 1251Sol     OW 8323   0.729   1.048   2.612  0.1435  0.0114 -0.2844
 1251Sol     HW 8324   0.802   1.099   2.647 -2.6885  3.3524  1.0483
 1251Sol     HW 8325   0.716   0.978   2.675 -0.3171  1.7775  1.6507
 1251Sol     MW 8326   0.734   1.047   2.621 -0.3647  0.5644 -0.3065
 1252Sol     OW 8327   0.080   0.554   7.024  0.2961 -0.0972  0.2291
 1252Sol     HW 8328   0.105   0.642   7.054  1.2430 -0.8763  1.7991
 1252Sol     HW 8329   0.003   0.568   6.969  0.1756  1.6728  0.8246
 1252Sol     MW 8330   0.075   0.563   7.022 -0.4346  0.2503 -0.1507
 1253Sol     OW 8331   2.764   1.303   8.420  0.0006 -0.5646  0.1950
 1253Sol     HW 8332   2.824   1.355   8.367  0.3510 -1.3169 -0.1658
 1253Sol     HW 8333   2.780   1.212   8.392 -0.2689 -0.9118  1.1281
 1253Sol     MW 8334   2.771   1.299   8.413  0.1013  0.5122 -0.6083
 1254Sol     OW 8335   0.096   1.617   8.316 -0.4134 -0.4561 -0.6539
 1254Sol     HW 8336   0.190   1.627   8.302 -0.1682 -0.0975  1.1090
 1254Sol     HW 8337   0.088   1.591   8.408 -2.0744  0.2252 -0.5861
 1254Sol     MW 8338   0.104   1.616   8.323  0.0390  0.2415  0.3218
 1255Sol     OW 8339   2.405   1.544   3.246 -0.6058 -0.0534 -0.1798
 1255Sol     HW 8340   2.369   1.574   3.162 -2.0873 -0.8906  0.1518
 1255Sol     HW 8341   2.418   1.450   3.235 -0.0318 -0.0352  0.2734
 1255Sol     MW 8342   2.403   1.538   3.237 -0.1712 -0.2465  0.2902
 1256Sol     OW 8343   0.644   0.946   4.230  0.0314 -0.4902  0.2985
 1256Sol     HW 8344   0.631   0.958   4.324  1.7952  1.3846  0.3347
 1256Sol     HW 8345   0.738   0.955   4.218 -0.1516 -1.0053 -1.6368
 1256Sol     MW 8346   0.651   0.948   4.237  0.6123 -0.4426 -0.2309
 1257Sol     OW 8347   1.395   2.167   4.256  0.1666  0.1851 -0.1632
 1257Sol     HW 8348   1.387   2.260   4.279 -2.3911 -0.0999  0.2711
 1257Sol     HW 8349   1.345   2.158   4.175  1.1943 -0.6296 -0.7105
 1257Sol     MW 8350   1.390   2.175   4.251  0.9240  0.2420 -0.2031
 1258Sol     OW 8351   0.078   2.855   4.287  0.3596 -0.3033  0.7619
 1258Sol     HW 8352   0.004   2.916   4.280  0.5180  0.1368  2.6716
 1258Sol     HW 8353   0.081   2.832   4.379  1.3855 -1.8877  0.3528
 1258Sol     MW 8354   0.072   2.858   4.294 -0.5925  0.5154  0.1432
 1259Sol     OW 8355   1.420   1.301   5.004  0.0660 -0.2106 -0.0309
 1259Sol     HW 8356   1.463   1.217   5.023  0.3169  0.1123  0.8936
 1259Sol     HW 8357   1.354   1.309   5.073  0.6896  0.7858  0.4630
 1259Sol     MW 8358   1.418   1.294   5.012 -0.7896  0.1796  0.2543
 1260Sol     OW 8359   2.374   1.744   9.746  0.0730 -0.4660  0.0381
 1260Sol     HW 8360   2.287   1.704   9.748  0.3350 -1.2475 -2.0569
 1260Sol     HW 8361   2.434   1.670   9.755  0.5202  0.0406  1.2297
 1260Sol     MW 8362   2.372   1.734   9.747  0.4058  0.1116 -0.6543
 1261Sol     OW 8363   2.048   2.089   7.714 -0.6051 -0.2325  0.2717
 1261Sol     HW 8364   1.978   2.067   7.652 -0.6395  2.5317 -0.7460
 1261Sol     HW 8365   2.082   2.005   7.743 -2.0368 -1.6042 -1.8884
 1261Sol     MW 8366   2.045   2.080   7.711 -0.2224  0.1567 -0.7243
 1262Sol     OW 8367   1.006   2.128   6.008  0.2676  0.6102  0.4719
 1262Sol     HW 8368   0.947   2.152   6.079  0.8179 -1.9475  1.8605
 1262Sol     HW 8369   1.080   2.086   6.052  1.4528  0.5632 -1.5020
 1262Sol     MW 8370   1.008   2.127   6.018 -0.3391 -0.7669 -0.3947
 1263Sol     OW 8371   1.016   0.667   3.670  0.0536 -0.1037 -0.1542
 1263Sol     HW 8372   0.953   0.739   3.665 -0.6056 -0.7986 -1.8283
 1263Sol     HW 8373   1.043   0.651   3.580  2.0147 -0.3847  0.4372
 1263Sol     MW 8374   1.013   0.672   3.662 -0.3802 -0.2103  0.0370
 1264Sol     OW 8375   2.619   2.299   2.139 -0.1498  0.3053  0.3014
 1264Sol     HW 8376   2.542   2.313   2.085  0.3815  2.5848  0.1010
 1264Sol     HW 8377   2.602   2.348   2.219  1.7622  2.2031 -0.4111
 1264Sol     MW 8378   2.611   2.304   2.141 -0.9906  0.8743 -0.2750
 1265Sol     OW 8379   2.414   1.801   9.157 -0.8732  0.0716 -0.1161
 1265Sol     HW 8380   2.433   1.815   9.064 -0.8209  1.7274  0.1362
 1265Sol     HW 8381   2.325   1.835   9.168 -0.9062 -0.1933  0.4231
 1265Sol     MW 8382   2.408   1.805   9.149  0.6056  0.4945  0.6769
 1266Sol     OW 8383   0.445   0.285   7.464  0.1982  0.3336  0.0667
 1266Sol     HW 8384   0.392   0.205   7.464 -0.4015  0.7337  0.4987
 1266Sol     HW 8385   0.451   0.309   7.557  0.5761  0.6621 -0.0430
 1266Sol     MW 8386   0.441   0.280   7.473  0.3869  0.2236 -0.2766
 1267Sol     OW 8387   0.955   1.418   1.909 -0.1436  0.5301 -0.3616
 1267Sol     HW 8388   1.038   1.412   1.863 -1.1069 -0.4744 -2.0378
 1267Sol     HW 8389   0.933   1.328   1.933 -0.7359  0.7787  0.0498
 1267Sol     MW 8390   0.960   1.410   1.907 -0.1535  0.1009 -0.4128
 1268Sol     OW 8391   1.259   2.665   5.140 -0.0513 -0.4650 -0.4972
 1268Sol     HW 8392   1.243   2.754   5.173 -1.4028 -0.6962 -0.5072
 1268Sol     HW 8393   1.323   2.629   5.201 -1.2004 -0.2672  0.8625
 1268Sol     MW 8394   1.263   2.670   5.149 -0.7261 -0.6226 -0.1265
 1269Sol     OW 8395   0.983   2.366   8.236  0.5318  0.2986 -0.7554
 1269Sol     HW 8396   0.957   2.286   8.280 -0.3310  1.1098  0.2085
 1269Sol     HW 8397   1.019   2.336   8.152 -0.5778 -1.0277 -0.7692
 1269Sol     MW 8398   0.984   2.356   8.232 -0.1062 -0.3354 -0.3817
 1270Sol     OW 8399   3.132   2.386   7.255  0.3537  0.3959  0.7198
 1270Sol     HW 8400   3.073   2.406   7.183  0.9430  0.1425  0.1670
 1270Sol     HW 8401   3.148   2.471   7.297 -1.0595  0.3529  1.3909
 1270Sol     MW 8402   3.128   2.395   7.252 -0.0156 -0.0308 -0.1901
 1271Sol     OW 8403   0.187   1.782   6.009  1.0348  0.1461  0.3185
 1271Sol     HW 8404   0.211   1.699   6.051  0.7381 -0.0119  0.1748
 1271Sol     HW 8405   0.094   1.793   6.030  0.9325  0.1569 -0.1471
 1271Sol     MW 8406   0.181   1.775   6.015 -0.6772 -0.0343 -0.5362
 1272Sol     OW 8407   2.512   1.380   8.487  0.8746  0.2604  0.0576
 1272Sol     HW 8408   2.590   1.334   8.457  0.9629  0.0223  0.6384
 1272Sol     HW 8409   2.479   1.425   8.409  0.4350 -1.2860 -0.6795
 1272Sol     MW 8410   2.516   1.380   8.477  0.6163 -0.0622  0.3043
 1273Sol     OW 8411   1.424   3.161   8.549  0.1658 -0.1018 -0.5049
 1273Sol     HW 8412   1.436   3.068   8.532  0.6813 -0.1166 -0.0854
 1273Sol     HW 8413   1.416   3.167   8.645 -1.1987  0.1382 -0.6321
 1273Sol     MW 8414   1.424   3.153   8.556 -0.0475  0.0196 -0.4393
 1274Sol     OW 8415   1.041   2.345   4.546 -0.0687 -0.2698 -0.0196
 1274Sol     HW 8416   1.118   2.396   4.519 -1.8135  1.9113 -0.9706
 1274Sol     HW 8417   1.030   2.367   4.639  1.7080 -2.2750  0.7040
 1274Sol     MW 8418   1.047   2.352   4.552  0.0539 -0.1976  1.0541
 1275Sol     OW 8419   2.282   1.557   9.121  0.6472  0.2662 -0.3132
 1275Sol     HW 8420   2.255   1.589   9.035  1.8882  0.9612 -0.4528
 1275Sol     HW 8421   2.317   1.634   9.166  0.6036 -0.2233  0.5890
 1275Sol     MW 8422   2.283   1.567   9.118  0.5827 -0.3867  0.2272
 1276Sol     OW 8423   0.885   2.408   4.048  0.0249  0.0844  0.2314
 1276Sol     HW 8424   0.941   2.485   4.063 -1.3227  1.3229 -0.9757
 1276Sol     HW 8425   0.908   2.348   4.120  0.7709  1.7817  1.4549
 1276Sol     MW 8426   0.892   2.410   4.056 -0.9299 -0.8311  0.5016
 1277Sol     OW 8427   1.539   3.040   6.293  0.1771 -0.6506  0.1158
 1277Sol     HW 8428   1.631   3.016   6.281  0.1216 -0.2136 -1.3023
 1277Sol     HW 8429   1.490   2.960   6.275  0.2294 -0.6282 -0.1285
 1277Sol     MW 8430   1.543   3.031   6.290 -0.1661  0.0647  0.9679
 1278Sol     OW 8431   1.276   0.776   8.308  0.0538 -0.2217 -0.4169
 1278Sol     HW 8432   1.212   0.817   8.250 -1.6258 -1.5571  0.4355
 1278Sol     HW 8433   1.305   0.847   8.365 -0.1846  0.5381 -1.2239
 1278Sol     MW 8434   1.273   0.786   8.308  0.0312 -0.4933  0.4381
 1279Sol     OW 8435   0.362   3.073   9.001  0.3397  0.3467 -0.4979
 1279Sol     HW 8436   0.376   3.095   9.093  1.1144 -1.2544 -0.2194
 1279Sol     HW 8437   0.368   3.156   8.955  1.0738  1.0018  0.7710
 1279Sol     MW 8438   0.364   3.082   9.005 -0.1159  0.3563  0.3993
 1280Sol     OW 8439   2.241   2.819   6.964 -0.1280  0.4483  0.6719
 1280Sol     HW 8440   2.323   2.770   6.978  0.5120  1.4937  0.6646
 1280Sol     HW 8441   2.257   2.870   6.884 -1.6328 -1.0578 -0.5994
 1280Sol     MW 8442   2.250   2.819   6.958 -0.2887  0.0248  0.4718
 1281Sol     OW 8443   0.245   0.504   5.310 -0.0686  0.0575  0.2809
 1281Sol     HW 8444   0.320   0.447   5.292 -0.8052 -0.8538  0.0927
 1281Sol     HW 8445   0.243   0.565   5.236  0.3928 -0.0094  0.2094
 1281Sol     MW 8446   0.252   0.504   5.302 -0.1391  0.0736 -0.3857
 1282Sol     OW 8447   2.608   1.218   4.566  0.5410  0.2335 -0.0582
 1282Sol     HW 8448   2.639   1.127   4.575  0.3968  0.2650  0.8134
 1282Sol     HW 8449   2.518   1.215   4.600 -0.0914  0.3452 -1.6575
 1282Sol     MW 8450   2.603   1.209   4.570  0.3825 -0.0650  0.3838
 1283Sol     OW 8451   2.427   2.080   3.476 -0.2710 -0.0433 -0.3295
 1283Sol     HW 8452   2.468   2.023   3.411  0.3180  0.4058 -0.3552
 1283Sol     HW 8453   2.367   2.023   3.524 -0.1097 -0.5536 -0.7337
 1283Sol     MW 8454   2.425   2.070   3.474 -0.1964  0.3690  0.4394
 1284Sol     OW 8455   1.542   2.163   8.127  0.3193 -0.3029 -0.3315
 1284Sol     HW 8456   1.478   2.108   8.082  0.6628 -1.4708  0.5909
 1284Sol     HW 8457   1.490   2.235   8.164 -0.5002 -1.2944  0.4973
 1284Sol     MW 8458   1.532   2.164   8.126  0.2869 -0.2017 -1.2029
 1285Sol     OW 8459   2.406   0.335   3.185  0.6576  0.3278  0.7225
 1285Sol     HW 8460   2.451   0.255   3.210  0.0525  0.1249  1.1869
 1285Sol     HW 8461   2.415   0.340   3.090  0.1297 -0.6454  0.6194
 1285Sol     MW 8462   2.411   0.328   3.179 -0.1672  0.4671  0.3694
 1286Sol     OW 8463   0.032   1.628   4.744  0.0968  0.1369  0.3671
 1286Sol     HW 8464   0.063   1.666   4.827  2.7190 -0.5980 -0.2454
 1286Sol     HW 8465   0.046   1.534   4.753 -0.0610 -0.0011 -0.7471
 1286Sol     MW 8466   0.036   1.623   4.753 -0.3866 -0.2612  0.4401
 1287Sol     OW 8467   3.139   0.809   3.540 -0.4118 -0.0078 -0.0371
 1287Sol     HW 8468   3.233   0.821   3.556 -0.4475  0.0882  0.1044
 1287Sol     HW 8469   3.132   0.797   3.445 -0.4178  1.5023 -0.2361
 1287Sol     MW 8470   3.147   0.809   3.533 -0.3150 -0.5058 -0.7173
 1288Sol     OW 8471   0.071   1.782   7.005  0.0386 -0.2217 -0.3367
 1288Sol     HW 8472   0.028   1.708   6.962 -0.2020 -1.3670  1.7956
 1288Sol     HW 8473   0.142   1.742   7.055  0.2197  1.0502  0.4234
 1288Sol     MW 8474   0.074   1.772   7.005  0.2178 -0.2048 -0.7698
 1289Sol     OW 8475   2.515   3.144   8.719  0.0778  0.2073  0.2572
 1289Sol     HW 8476   2.577   3.213   8.696 -0.3671  0.3485 -0.5432
 1289Sol     HW 8477   2.495   3.160   8.811  1.3335  0.0749  0.5709
 1289Sol     MW 8478   2.519   3.152   8.725  0.1422  0.5656 -0.0621
 1290Sol     OW 8479   0.773   3.339   2.691 -0.5361 -0.1730 -0.0003
 1290Sol     HW 8480   0.728   3.263   2.728 -0.4412  0.2400  0.9588
 1290Sol     HW 8481   0.710   3.410   2.697 -1.6133 -0.7630 -3.3620
 1290Sol     MW 8482   0.764   3.338   2.695  0.2112  0.2407 -0.1391
 1291Sol     OW 8483   0.025   0.491   9.168  0.2639 -0.0022 -0.7164
 1291Sol     HW 8484  -0.043   0.553   9.194  1.5301  1.2260 -0.2253
 1291Sol     HW 8485   0.013   0.416   9.227 -1.3348 -0.2729 -1.3701
 1291Sol     MW 8486   0.018   0.490   9.176  0.0314 -0.3311  0.4870
 1292Sol     OW 8487   2.870   1.110   3.011 -0.3756  0.0202  0.3555
 1292Sol     HW 8488   2.943   1.169   2.995 -0.0311 -0.3971  0.3647
 1292Sol     HW 8489   2.866   1.055   2.933  0.4274 -1.1000  1.0763
 1292Sol     MW 8490   2.876   1.110   3.003  0.0605  0.1576 -0.1748
 1293Sol     OW 8491   0.877   2.017   4.360 -0.5710 -0.0609 -0.6267
 1293Sol     HW 8492   0.816   1.970   4.304  0.1175 -0.8382 -0.7324
 1293Sol     HW 8493   0.915   2.083   4.303 -1.7741  0.8528 -0.3946
 1293Sol     MW 8494   0.875   2.019   4.350  0.1671 -0.2492  0.0054
 1294Sol     OW 8495   0.451   0.259   3.863  0.5892 -0.5014 -0.2445
 1294Sol     HW 8496   0.486   0.234   3.777 -0.8242  0.8894 -1.2481
 1294Sol     HW 8497   0.370   0.208   3.872  0.4582 -0.2473  0.0270
 1294Sol     MW 8498   0.447   0.252   3.856  0.2974 -0.0324  0.1426
 1295Sol     OW 8499   2.648   1.768   3.863  0.2320 -0.0134  0.2761
 1295Sol     HW 8500   2.659   1.725   3.947  0.0808 -1.4511 -0.4226
 1295Sol     HW 8501   2.722   1.737   3.810  1.4575  2.4022  0.4734
 1295Sol     MW 8502   2.656   1.762   3.866  0.4968 -0.7628 -0.9475
 1296Sol     OW 8503   1.589   0.810   2.991  0.2415  0.1428 -0.2443
 1296Sol     HW 8504   1.518   0.749   3.015 -1.1445  1.8463  0.0455
 1296Sol     HW 8505   1.576   0.886   3.047  0.6330  1.6370 -2.1346
 1296Sol     MW 8506   1.581   0.811   2.998  0.0748  0.4608  0.3193
 1297Sol     OW 8507   0.995   1.722   5.547 -0.0262  0.1918  0.4565
 1297Sol     HW 8508   0.953   1.636   5.544  1.7675 -0.6452 -4.0173
 1297Sol     HW 8509   0.937   1.780   5.497  0.9712  0.5102 -0.3527
 1297Sol     MW 8510   0.986   1.720   5.543  0.3272 -0.1920  0.4519
 1298Sol     OW 8511   2.254   2.827   2.970  0.5743  0.1072  0.3016
 1298Sol     HW 8512   2.250   2.758   2.904  1.4924 -1.4942  1.8732
 1298Sol     HW 8513   2.305   2.897   2.930  2.2501 -1.3844 -0.2185
 1298Sol     MW 8514   2.258   2.827   2.961  0.0024 -0.4604  0.0403
 1299Sol     OW 8515   1.735   1.069   4.825 -0.0273  0.8610  0.2067
 1299Sol     HW 8516   1.654   1.067   4.774  0.5401 -1.4741 -0.6899
 1299Sol     HW 8517   1.783   0.992   4.795  1.2984  0.6742  2.7358
 1299Sol     MW 8518   1.732   1.062   4.817 -0.2349  0.3298  0.3098
 1300Sol     OW 8519   3.130   0.913   7.035  0.4397 -0.9092 -0.5678
 1300Sol     HW 8520   3.135   1.008   7.037 -1.4705 -0.7906  0.0214
 1300Sol     HW 8521   3.157   0.889   6.946  0.2985  0.2298 -0.9213
 1300Sol     MW 8522   3.133   0.919   7.027  0.5120 -0.0892 -0.1260
 1301Sol     OW 8523   0.374   3.445   4.995  0.3428 -0.2787 -0.1967
 1301Sol     HW 8524   0.299   3.464   5.051  0.1301 -1.0525 -0.2142
 1301Sol     HW 8525   0.414   3.531   4.979 -0.1120  0.0522  0.4034
 1301Sol     MW 8526   0.371   3.455   4.999 -0.7622 -0.6288 -0.1143
 1302Sol     OW 8527   1.285   1.292   9.193 -0.0193  0.3577 -0.0585
 1302Sol     HW 8528   1.207   1.345   9.176  1.0929  1.5816 -1.4931
 1302Sol     HW 8529   1.269   1.210   9.147 -0.5283  0.5517 -0.2313
 1302Sol     MW 8530   1.276   1.289   9.187  0.4318 -0.2964 -0.3744
 1303Sol     OW 8531   1.496   1.905   9.347 -0.1220 -0.2132  0.8587
 1303Sol     HW 8532   1.552   1.903   9.425 -0.7571 -0.0314  1.3305
 1303Sol     HW 8533   1.411   1.874   9.378  0.2994 -2.7087 -0.3442
 1303Sol     MW 8534   1.494   1.902   9.357  0.0684  0.0212 -0.6760
 1304Sol     OW 8535   1.701   2.798   4.478 -0.2147  0.0977 -0.4044
 1304Sol     HW 8536   1.682   2.709   4.448  0.4833 -0.3882  0.5824
 1304Sol     HW 8537   1.689   2.794   4.573  1.9019  0.5173 -0.0983
 1304Sol     MW 8538   1.698   2.790   4.484 -0.0474  0.0265 -0.4321
 1305Sol     OW 8539   1.148   1.420   2.992  0.0178  0.0414 -0.1074
 1305Sol     HW 8540   1.156   1.448   2.901  1.6902 -0.0940 -0.0172
 1305Sol     HW 8541   1.194   1.337   2.996  0.2202  0.1982  0.9297
 1305Sol     MW 8542   1.153   1.415   2.984 -0.0117  0.2940 -0.3328
 1306Sol     OW 8543   0.349   0.650   5.903  0.1354  0.3506  0.0914
 1306Sol     HW 8544   0.389   0.734   5.926  0.0502  0.6537 -0.8687
 1306Sol     HW 8545   0.412   0.584   5.933  0.3279  0.7643  0.5911
 1306Sol     MW 8546   0.358   0.651   5.908  0.1743  0.5695  0.1024
 1307Sol     OW 8547   1.646   1.118   2.918  0.0566 -0.6654  0.0347
 1307Sol     HW 8548   1.679   1.100   3.006 -1.4477  1.0732  0.9875
 1307Sol     HW 8549   1.558   1.154   2.932  0.6497  1.7413 -2.0600
 1307Sol     MW 8550   1.641   1.119   2.927 -0.1062  0.5717 -0.0269
 1308Sol     OW 8551   2.303   0.933   8.617 -0.0624 -0.0317 -0.1257
 1308Sol     HW 8552   2.314   0.916   8.711  1.5428  0.0432 -0.2804
 1308Sol     HW 8553   2.351   1.015   8.603  0.0857 -0.2833 -1.0929
 1308Sol     MW 8554   2.308   0.939   8.624  0.7477 -0.3930  0.1540
 1309Sol     OW 8555   1.212   3.057   4.852 -0.3895 -0.4038  0.4859
 1309Sol     HW 8556   1.299   3.040   4.816 -0.3260  0.5987  0.1623
 1309Sol     HW 8557   1.175   2.970   4.867  1.2706 -0.8735  2.0789
 1309Sol     MW 8558   1.217   3.048   4.850  0.2167 -0.8547  0.1913
 1310Sol     OW 8559   2.527   1.465   2.237  1.1579  0.0507  0.2500
 1310Sol     HW 8560   2.435   1.477   2.217  1.4749 -0.4666 -1.6183
 1310Sol     HW 8561   2.533   1.472   2.332 -0.4234  2.5655  0.1724
 1310Sol     MW 8562   2.520   1.466   2.244 -0.0965 -0.2329 -0.5453
 1311Sol     OW 8563   0.534   1.301   4.427  0.2504 -0.3045  0.0704
 1311Sol     HW 8564   0.453   1.321   4.475 -0.4749 -1.8513 -0.4780
 1311Sol     HW 8565   0.603   1.308   4.493 -0.4476  0.0388  0.7785
 1311Sol     MW 8566   0.533   1.304   4.437  0.3689 -0.0648 -0.4526
 1312Sol     OW 8567   0.924   1.440   2.640  0.4284  0.8659  0.3194
 1312Sol     HW 8568   0.852   1.458   2.580  1.4432  0.7374 -0.9461
 1312Sol     HW 8569   0.881   1.405   2.718 -0.8477  0.3913 -0.5744
 1312Sol     MW 8570   0.914   1.439   2.642 -0.2454 -0.3747  0.0415
 1313Sol     OW 8571   2.261   0.110   4.983  0.6389 -0.1073 -0.3254
 1313Sol     HW 8572   2.343   0.063   4.992  0.9358  0.1659 -1.4877
 1313Sol     HW 8573   2.215   0.066   4.911 -0.0328  0.0172  0.0173
 1313Sol     MW 8574   2.264   0.102   4.977 -0.1952 -0.2861 -1.2449
 1314Sol     OW 8575   1.953   2.803   7.548  0.3804 -0.2564  0.3902
 1314Sol     HW 8576   1.861   2.803   7.575 -0.3179 -0.2571 -1.8859
 1314Sol     HW 8577   1.971   2.895   7.526  1.0831 -0.1630  1.3563
 1314Sol     MW 8578   1.946   2.811   7.548 -1.1439  0.3273 -0.2379
 1315Sol     OW 8579   2.444   2.366   6.990 -0.3888  0.1408 -0.8413
 1315Sol     HW 8580   2.446   2.452   6.946 -0.8439 -0.2252 -1.5773
 1315Sol     HW 8581   2.536   2.341   6.996 -0.3133  0.2352 -1.5166
 1315Sol     MW 8582   2.452   2.372   6.987 -0.0161  0.7151 -0.4340
 1316Sol     OW 8583   0.711   1.961   6.604  0.0985 -0.7871 -0.3884
 1316Sol     HW 8584   0.704   1.884   6.660 -2.2531  0.5176  1.2107
 1316Sol     HW 8585   0.695   2.035   6.663  1.3465  0.8669 -2.0663
 1316Sol     MW 8586   0.709   1.961   6.614 -0.5333  0.3096 -0.2633
 1317Sol     OW 8587   3.197   0.336   4.623 -0.4095 -0.7824  0.6591
 1317Sol     HW 8588   3.106   0.365   4.619 -0.5458 -1.2592  0.3675
 1317Sol     HW 8589   3.197   0.264   4.686 -0.0845 -0.2187  1.3100
 1317Sol     MW 8590   3.189   0.332   4.628  0.3375 -0.2695  0.3013
 1318Sol     OW 8591   3.351   1.877   8.794 -0.0164  0.6340  0.2702
 1318Sol     HW 8592   3.366   1.970   8.778 -0.2143  0.5767 -0.2461
 1318Sol     HW 8593   3.406   1.857   8.870 -0.1373  1.2180  0.5116
 1318Sol     MW 8594   3.357   1.884   8.799 -0.6726 -0.0555 -0.0226
 1319Sol     OW 8595   2.063   2.391   7.004 -0.0593 -0.0580 -0.5926
 1319Sol     HW 8596   2.053   2.449   6.929  1.2494  1.2146  0.1999
 1319Sol     HW 8597   2.073   2.304   6.966  1.2918  0.6608 -1.9312
 1319Sol     MW 8598   2.063   2.388   6.994 -0.0851 -0.5330 -0.1226
 1320Sol     OW 8599   3.180   1.162   9.270  0.0321 -0.0856 -0.3577
 1320Sol     HW 8600   3.240   1.226   9.233 -1.2278  0.8154 -0.8415
 1320Sol     HW 8601   3.138   1.121   9.195 -0.1532 -0.5419 -0.0114
 1320Sol     MW 8602   3.182   1.164   9.260 -0.3776  0.1887  0.0031
 1321Sol     OW 8603   2.392   0.078   3.694 -0.5958  0.4119  0.4438
 1321Sol     HW 8604   2.486   0.059   3.696 -0.6567  0.2150  1.4996
 1321Sol     HW 8605   2.353   0.006   3.645 -0.1629  0.6552 -0.2691
 1321Sol     MW 8606   2.397   0.070   3.690  0.0628 -0.5776 -0.2757
 1322Sol     OW 8607   2.358   1.215   7.382 -0.4601  0.5542 -0.2106
 1322Sol     HW 8608   2.436   1.188   7.430 -1.1591 -2.2834 -0.6388
 1322Sol     HW 8609   2.386   1.219   7.291 -0.7148 -0.0686 -0.3156
 1322Sol     MW 8610   2.367   1.213   7.379 -0.4246 -0.2866  0.2232
 1323Sol     OW 8611   0.852   0.458   6.631 -0.4490  0.6416  0.5424
 1323Sol     HW 8612   0.842   0.374   6.586  2.1644  1.9171 -2.6670
 1323Sol     HW 8613   0.874   0.434   6.721  0.6157 -2.1314 -0.3766
 1323Sol     MW 8614   0.853   0.448   6.635 -0.3775  0.1801  0.0972
 1324Sol     OW 8615   0.424   1.590   2.162 -0.2634 -0.0796  0.3352
 1324Sol     HW 8616   0.451   1.600   2.254  1.1043 -0.7675  0.0284
 1324Sol     HW 8617   0.472   1.513   2.132 -1.4066 -0.3876 -0.7066
 1324Sol     MW 8618   0.431   1.584   2.168  0.3905 -0.5855  0.3904
 1325Sol     OW 8619   1.650   2.265   9.400  0.3533  0.1319 -0.2535
 1325Sol     HW 8620   1.739   2.234   9.382  0.0584 -0.2390 -1.0504
 1325Sol     HW 8621   1.593   2.196   9.368 -0.2604  0.8425 -0.7014
 1325Sol     MW 8622   1.653   2.256   9.396 -0.2717  0.2620  0.4584
 1326Sol     OW 8623   0.262   1.352   4.517 -0.1286 -0.1321  0.1858
 1326Sol     HW 8624   0.207   1.291   4.567 -2.5346  0.6989 -1.3777
 1326Sol     HW 8625   0.224   1.438   4.535  0.7078  0.4727 -0.9057
 1326Sol     MW 8626   0.254   1.354   4.523 -0.1805 -0.4131  0.2080
 1327Sol     OW 8627   2.175   1.628   5.748  0.1049 -0.0543 -0.2724
 1327Sol     HW 8628   2.158   1.648   5.656  0.6644  2.4646  0.1399
 1327Sol     HW 8629   2.263   1.591   5.749  0.7060  1.3626 -0.5648
 1327Sol     MW 8630   2.181   1.626   5.740 -0.0402 -0.1848 -0.0916
 1328Sol     OW 8631   1.600   1.450   5.663 -0.2999  0.0348 -0.0194
 1328Sol     HW 8632   1.638   1.525   5.710 -2.0654 -0.6198  2.5889
 1328Sol     HW 8633   1.561   1.489   5.584 -1.1973  1.9221  1.2919
 1328Sol     MW 8634   1.600   1.461   5.660  0.2768 -0.4049 -0.2728
 1329Sol     OW 8635   0.651   3.247   7.659  0.0713 -0.2461 -0.1028
 1329Sol     HW 8636   0.700   3.312   7.710  0.9894 -0.0083 -1.2487
 1329Sol     HW 8637   0.560   3.276   7.662  0.1314 -0.1814  1.3002
 1329Sol     MW 8638   0.648   3.255   7.664 -0.0017  0.3114 -0.8770
 1330Sol     OW 8639   1.273   1.726   8.145  0.1363 -0.2276  0.8028
 1330Sol     HW 8640   1.315   1.645   8.175 -1.5472 -1.0479  1.0116
 1330Sol     HW 8641   1.264   1.715   8.050  0.3660 -0.0648  0.7612
 1330Sol     MW 8642   1.276   1.718   8.139  0.1694  0.2402 -0.4156
 1331Sol     OW 8643   1.199   0.411   2.719  0.6877  0.4092  0.0155
 1331Sol     HW 8644   1.222   0.493   2.763  1.5573  0.1758  0.0056
 1331Sol     HW 8645   1.180   0.350   2.790  0.5954  0.4553  0.0312
 1331Sol     MW 8646   1.199   0.413   2.729  0.0630 -0.5750 -1.4596
 1332Sol     OW 8647   2.991   1.489   8.773  0.6463 -0.5951 -0.4486
 1332Sol     HW 8648   3.085   1.490   8.793  0.1709  0.5357  1.8852
 1332Sol     HW 8649   2.973   1.575   8.736  0.5000 -0.7564 -0.7529
 1332Sol     MW 8650   2.998   1.497   8.772 -0.8732 -0.3708 -0.0354
 1333Sol     OW 8651   1.870   1.712   6.851  0.0250  0.2430 -0.4795
 1333Sol     HW 8652   1.926   1.775   6.807 -0.8553  0.2986 -1.5399
 1333Sol     HW 8653   1.783   1.726   6.813 -0.2295 -1.4396 -0.5765
 1333Sol     MW 8654   1.867   1.719   6.844  0.4096 -0.1084 -0.0041
 1334Sol     OW 8655   3.223   0.776   2.534  0.1860  0.6884  0.3700
 1334Sol     HW 8656   3.238   0.688   2.500 -0.9944  0.8585 -0.6307
 1334Sol     HW 8657   3.305   0.823   2.518 -0.1015  0.5531 -1.5881
 1334Sol     MW 8658   3.232   0.772   2.530 -0.5931 -0.0808  0.0177
 1335Sol     OW 8659   1.828   2.789   6.500 -0.3726  0.4915 -0.0296
 1335Sol     HW 8660   1.813   2.819   6.410 -0.8517  0.2408 -0.0332
 1335Sol     HW 8661   1.885   2.855   6.538 -0.7745  0.9879 -0.2880
 1335Sol     MW 8662   1.832   2.797   6.495  0.2516  0.0159 -0.3527
 1336Sol     OW 8663   1.086   2.333   8.837  0.1685 -0.0722 -0.5917
 1336Sol     HW 8664   1.125   2.377   8.762  1.7433 -0.2160  0.1106
 1336Sol     HW 8665   1.157   2.279   8.873 -1.1691 -1.7061 -0.3054
 1336Sol     MW 8666   1.096   2.332   8.834 -0.4667 -0.0384  0.8895
 1337Sol     OW 8667   1.807   2.757   3.167  0.1074  0.4504 -0.5328
 1337Sol     HW 8668   1.846   2.677   3.202 -2.0105 -0.0520  0.7634
 1337Sol     HW 8669   1.864   2.782   3.094  0.7028 -2.3176 -1.0536
 1337Sol     MW 8670   1.816   2.752   3.163 -1.0660 -0.3121 -0.6638
 1338Sol     OW 8671   2.013   0.712   4.080  0.0527  0.0723  0.1694
 1338Sol     HW 8672   2.035   0.793   4.126 -2.2283  1.1417 -0.5260
 1338Sol     HW 8673   1.980   0.654   4.148 -0.7649  0.6818  0.3007
 1338Sol     MW 8674   2.012   0.714   4.090  0.0516  0.0375 -0.8595
 1339Sol     OW 8675   2.491   3.401   1.955 -0.2485  0.1019  0.2595
 1339Sol     HW 8676   2.402   3.366   1.959 -0.5455  0.9082  0.7404
 1339Sol     HW 8677   2.528   3.385   2.042  0.2300 -0.6285 -0.0748
 1339Sol     MW 8678   2.487   3.396   1.963  0.8695 -0.5036 -0.0697
 1340Sol     OW 8679   1.090   1.209   3.285 -0.5008  0.1707 -1.0455
 1340Sol     HW 8680   0.997   1.226   3.301  0.0513  0.2434  2.5626
 1340Sol     HW 8681   1.099   1.115   3.297 -0.2278  0.0686 -2.0593
 1340Sol     MW 8682   1.082   1.202   3.288 -0.0372 -0.4847 -0.2967
 1341Sol     OW 8683   2.607   1.086   9.542  0.3744  0.1942  0.1504
 1341Sol     HW 8684   2.697   1.070   9.511  0.2111 -0.5151  0.0408
 1341Sol     HW 8685   2.591   1.178   9.519  0.6388 -0.0106 -0.9255
 1341Sol     MW 8686   2.614   1.093   9.537 -0.0640  0.3530 -0.1510
 1342Sol     OW 8687   0.372   0.585   9.777 -0.0463  0.0034 -0.8363
 1342Sol     HW 8688   0.377   0.496   9.810  0.6346  0.7819  1.2366
 1342Sol     HW 8689   0.335   0.636   9.849 -0.3006  1.4288 -1.9347
 1342Sol     MW 8690   0.369   0.582   9.786  0.4710  0.2823 -0.1560
 1343Sol     OW 8691   1.057   2.801   9.492  0.0901 -0.1557 -0.4009
 1343Sol     HW 8692   1.002   2.743   9.544 -0.8790  1.8528  0.8588
 1343Sol     HW 8693   1.025   2.790   9.402  0.5775 -2.2646 -0.3428
 1343Sol     MW 8694   1.049   2.795   9.488 -0.1520 -0.4800 -0.0285
 1344Sol     OW 8695   2.239   2.457   6.478  0.6229 -0.1218  0.4579
 1344Sol     HW 8696   2.303   2.411   6.533 -0.2934 -1.5493  0.3759
 1344Sol     HW 8697   2.170   2.483   6.540  0.1466 -0.6992  0.1709
 1344Sol     MW 8698   2.238   2.455   6.489  0.0928  0.1639  0.2801
 1345Sol     OW 8699   1.966   2.822   2.956 -0.1309  0.1351 -0.2092
 1345Sol     HW 8700   1.930   2.867   2.880 -0.8464 -0.7866 -0.4179
 1345Sol     HW 8701   2.061   2.836   2.950 -0.2826  0.9717 -0.6758
 1345Sol     MW 8702   1.971   2.827   2.949 -0.0838  0.2784  1.1004
 1346Sol     OW 8703   0.380   1.507   5.841  0.0603  0.3130 -0.4141
 1346Sol     HW 8704   0.327   1.433   5.872 -0.4561  0.2136 -1.4844
 1346Sol     HW 8705   0.414   1.548   5.920  1.2450 -1.7190  0.1627
 1346Sol     MW 8706   0.378   1.504   5.851 -0.4858 -0.4012  0.0116
 1347Sol     OW 8707   2.798   0.183   7.272 -0.0042  0.0537 -0.0983
 1347Sol     HW 8708   2.783   0.133   7.192  0.3476 -0.3485  0.0860
 1347Sol     HW 8709   2.890   0.165   7.295 -0.6491 -1.3582  1.4503
 1347Sol     MW 8710   2.805   0.177   7.267 -0.2114  0.4017  0.6956
 1348Sol     OW 8711   2.116   1.787   7.804  0.1581 -0.2944 -0.2392
 1348Sol     HW 8712   2.023   1.789   7.783 -0.0070 -2.7328  0.0911
 1348Sol     HW 8713   2.123   1.833   7.888 -0.9884 -1.4021  0.4815
 1348Sol     MW 8714   2.108   1.791   7.810  0.7967 -0.0494  0.3873
 1349Sol     OW 8715   2.052   0.668   7.952 -0.3300 -0.2950  0.0052
 1349Sol     HW 8716   2.090   0.753   7.928 -2.2473  0.3886 -0.7254
 1349Sol     HW 8717   2.096   0.605   7.895 -0.2690  0.4760 -0.8133
 1349Sol     MW 8718   2.059   0.670   7.945  0.0196  0.2959  0.1582
 1350Sol     OW 8719   2.279   3.158   4.910  0.1275  0.1652  0.2603
 1350Sol     HW 8720   2.356   3.213   4.894  0.4571 -0.6534 -1.1617
 1350Sol     HW 8721   2.205   3.209   4.877  0.2620  0.3026  0.1714
 1350Sol     MW 8722   2.279   3.167   4.905  0.2913  0.8025  0.5874
 1351Sol     OW 8723   1.022   2.752   8.751  0.2037 -0.3049  0.1795
 1351Sol     HW 8724   0.947   2.719   8.702  1.0833 -1.1347 -0.6426
 1351Sol     HW 8725   1.095   2.749   8.688  1.1334 -0.4461  1.2394
 1351Sol     MW 8726   1.022   2.749   8.741 -0.9993 -0.0249  0.9895
 1352Sol     OW 8727   1.654   1.471   2.275 -0.1807 -0.3421  0.5714
 1352Sol     HW 8728   1.684   1.388   2.238 -1.3574 -0.5501  0.0503
 1352Sol     HW 8729   1.631   1.449   2.366  1.5248 -0.1046  1.0780
 1352Sol     MW 8730   1.654   1.461   2.280 -0.5577 -0.1695  0.0555
 1353Sol     OW 8731   2.872   3.085   2.682  0.1365  0.1359  0.3164
 1353Sol     HW 8732   2.782   3.115   2.682  0.3091  0.7001 -2.0614
 1353Sol     HW 8733   2.919   3.149   2.736 -1.1248 -1.0715  2.9423
 1353Sol     MW 8734   2.868   3.093   2.687 -0.4871  0.6016 -0.0382
 1354Sol     OW 8735   1.478   1.495   5.419 -0.1066 -0.4770 -0.2048
 1354Sol     HW 8736   1.391   1.531   5.401  0.3737  0.6365 -0.2982
 1354Sol     HW 8737   1.537   1.546   5.364  1.0505  1.1842  2.4764
 1354Sol     MW 8738   1.475   1.503   5.413  0.2195  0.0808  0.1004
 1355Sol     OW 8739   1.073   2.405   7.702 -0.4063  0.3250 -0.4242
 1355Sol     HW 8740   1.154   2.364   7.733 -0.4419  1.8935  1.8314
 1355Sol     HW 8741   1.102   2.482   7.653 -0.4772 -0.1356 -1.1951
 1355Sol     MW 8742   1.083   2.408   7.700 -0.1667  0.4453  0.7426
 1356Sol     OW 8743   0.495   0.102   3.382 -0.2786 -0.3069 -0.0644
 1356Sol     HW 8744   0.444   0.182   3.370 -0.5545 -0.3617  0.7533
 1356Sol     HW 8745   0.452   0.056   3.454  0.9404 -0.3350  0.6639
 1356Sol     MW 8746   0.487   0.105   3.387 -0.0136  0.2067 -0.1914
 1357Sol     OW 8747   0.975   0.062   6.766  0.3628 -0.0958  0.3958
 1357Sol     HW 8748   1.026   0.139   6.790  1.6787 -0.8321  0.0169
 1357Sol     HW 8749   1.039  -0.009   6.761 -0.9361 -1.3808  1.4483
 1357Sol     MW 8750   0.985   0.062   6.768 -0.3121 -0.0312 -0.6634
 1358Sol     OW 8751   1.201   1.702   1.733 -0.0912 -0.0590  0.1538
 1358Sol     HW 8752   1.285   1.748   1.741 -1.4355  2.9541 -2.2768
 1358Sol     HW 8753   1.149   1.735   1.807  0.1146 -0.3253  0.4213
 1358Sol     MW 8754   1.204   1.709   1.741 -0.4386  0.2196 -0.4671
 1359Sol     OW 8755   2.539   2.059   5.130  0.3930  0.6988  0.1746
 1359Sol     HW 8756   2.516   2.149   5.105  1.0797  0.8532  0.1131
 1359Sol     HW 8757   2.579   2.022   5.051 -1.1817 -0.1180 -0.2621
 1359Sol     MW 8758   2.540   2.064   5.121  0.1004  0.8360  0.5797
 1360Sol     OW 8759   1.242   1.939   5.553  0.1076 -0.8415  1.1182
 1360Sol     HW 8760   1.241   1.997   5.630  0.1057 -0.1922  0.6288
 1360Sol     HW 8761   1.162   1.962   5.505  0.0751 -1.2973  0.9535
 1360Sol     MW 8762   1.235   1.946   5.556  0.1081 -0.3915 -0.4548
 1361Sol     OW 8763   0.077   2.125   8.897  0.3176 -0.6629 -0.4819
 1361Sol     HW 8764   0.112   2.052   8.948  0.9629  0.0288  0.0925
 1361Sol     HW 8765   0.113   2.203   8.940 -0.1665 -0.0198 -1.2273
 1361Sol     MW 8766   0.083   2.125   8.905 -0.8553  0.1370  0.1606
 1362Sol     OW 8767   1.333   0.866   7.733  0.1713  0.0838  0.3944
 1362Sol     HW 8768   1.241   0.856   7.709  0.0332 -1.7829  1.5720
 1362Sol     HW 8769   1.381   0.820   7.664  0.0377 -1.3748  1.2522
 1362Sol     MW 8770   1.329   0.861   7.725 -0.6096  0.0907  0.2483
 1363Sol     OW 8771   2.344   0.190   8.238  0.6190  0.2394 -0.1730
 1363Sol     HW 8772   2.265   0.146   8.270  0.4939  0.7871  0.2706
 1363Sol     HW 8773   2.386   0.125   8.181 -0.5596  0.2223 -1.0427
 1363Sol     MW 8774   2.341   0.180   8.236  0.1733 -0.1147  0.0120
 1364Sol     OW 8775   3.219   0.221   7.130  0.5114 -0.0820  0.3138
 1364Sol     HW 8776   3.285   0.287   7.152  0.4146 -0.4887  1.9226
 1364Sol     HW 8777   3.175   0.203   7.213 -0.5422 -0.9914 -0.4321
 1364Sol     MW 8778   3.221   0.225   7.140 -0.5358  0.0521 -0.3313
 1365Sol     OW 8779   0.945   2.554   6.306 -0.3794  0.2046 -0.0853
 1365Sol     HW 8780   0.892   2.556   6.386 -1.8727 -0.7866 -1.0052
 1365Sol     HW 8781   1.034   2.538   6.336 -0.6926  1.3112  1.4737
 1365Sol     MW 8782   0.948   2.553   6.316  0.1177 -0.7730 -0.5985
 1366Sol     OW 8783   0.383   1.437   8.400 -0.7515 -0.1377  0.0809
 1366Sol     HW 8784   0.309   1.383   8.426 -0.6346  0.5682  1.9302
 1366Sol     HW 8785   0.432   1.452   8.481  0.7327  0.4351 -0.8943
 1366Sol     MW 8786   0.381   1.433   8.409  0.1072  0.6587 -0.3608
 1367Sol     OW 8787   2.995   2.219   6.662 -0.1739  0.0988  0.1048
 1367Sol     HW 8788   3.045   2.299   6.645  0.4008 -0.0881  0.8898
 1367Sol     HW 8789   3.050   2.169   6.722  0.1165 -1.5476 -1.5162
 1367Sol     MW 8790   3.005   2.222   6.666  1.1433  0.1886  0.4802
 1368Sol     OW 8791   0.508   3.372   6.280  0.1944  0.2440  0.0822
 1368Sol     HW 8792   0.473   3.387   6.367 -0.9341  0.3040 -0.3759
 1368Sol     HW 8793   0.563   3.449   6.263  0.5316  0.1622  0.7926
 1368Sol     MW 8794   0.510   3.380   6.286  0.0169  0.1904  0.0364
 1369Sol     OW 8795   2.572   2.637   4.558 -0.1072  0.0669  0.1224
 1369Sol     HW 8796   2.516   2.575   4.513  0.3233 -0.3379  0.1363
 1369Sol     HW 8797   2.530   2.650   4.643 -1.2312  1.2778 -0.5889
 1369Sol     MW 8798   2.564   2.633   4.562 -0.3095  0.5331  0.0030
 1370Sol     OW 8799   1.523   1.656   4.550 -0.1806 -0.2683 -0.1091
 1370Sol     HW 8800   1.531   1.560   4.550  1.1105 -0.1631  0.0675
 1370Sol     HW 8801   1.481   1.676   4.466 -1.1659 -1.0403  0.1917
 1370Sol     MW 8802   1.520   1.649   4.542  0.8740  0.0595  0.1193
 1371Sol     OW 8803   1.891   2.114   5.735 -0.1440 -0.3855 -0.0179
 1371Sol     HW 8804   1.937   2.031   5.744  0.4381 -0.1633 -0.9021
 1371Sol     HW 8805   1.812   2.094   5.685 -0.3380 -0.5239  0.3421
 1371Sol     MW 8806   1.888   2.105   5.732  0.3205  0.5745  0.1908
 1372Sol     OW 8807   2.422   1.637   2.735  0.7817  0.8389  0.5131
 1372Sol     HW 8808   2.328   1.629   2.748  0.8258  0.3014  0.5479
 1372Sol     HW 8809   2.460   1.612   2.820  0.9314  1.8439  0.7456
 1372Sol     MW 8810   2.417   1.634   2.744 -0.3537 -0.2145 -0.0770
 1373Sol     OW 8811   0.342   0.977   7.525  0.3890 -0.2358 -0.1812
 1373Sol     HW 8812   0.273   1.006   7.465 -0.8234 -1.8463  0.4232
 1373Sol     HW 8813   0.306   0.992   7.612  1.9437  1.5926  0.1920
 1373Sol     MW 8814   0.333   0.981   7.527  0.2671 -0.0426  0.4856
 1374Sol     OW 8815   0.317   1.716   7.134 -0.3146  0.3960  0.2442
 1374Sol     HW 8816   0.330   1.625   7.161 -2.3697 -0.1972 -0.5927
 1374Sol     HW 8817   0.343   1.768   7.209  2.0368 -0.8188  0.3170
 1374Sol     MW 8818   0.320   1.712   7.143  0.0754  0.1324  0.0459
 1375Sol     OW 8819   1.982   0.394   3.270  0.0820 -0.1444 -0.1450
 1375Sol     HW 8820   1.921   0.465   3.253 -0.0657 -0.4247 -0.8093
 1375Sol     HW 8821   2.068   0.437   3.275  0.0082  0.0609 -0.6679
 1375Sol     MW 8822   1.984   0.404   3.269 -0.1082  0.8898  0.3719
 1376Sol     OW 8823   1.759   1.313   9.185 -0.4035 -0.3910  0.4993
 1376Sol     HW 8824   1.722   1.345   9.267 -0.7778 -1.1256  0.6178
 1376Sol     HW 8825   1.711   1.232   9.166  0.8580 -1.1385  0.4463
 1376Sol     MW 8826   1.751   1.308   9.190 -0.0936  0.1296 -0.5174
 1377Sol     OW 8827   1.786   1.060   9.708  0.1145 -0.0464 -0.7345
 1377Sol     HW 8828   1.881   1.071   9.700  0.0752  0.2803 -0.7639
 1377Sol     HW 8829   1.752   1.088   9.623  0.0806 -1.2506 -1.1300
 1377Sol     MW 8830   1.792   1.063   9.699  0.2311 -0.3879 -0.2085
 1378Sol     OW 8831   2.214   1.705   2.038  0.4236  0.1747 -0.2981
 1378Sol     HW 8832   2.304   1.736   2.030  0.9970 -1.8268 -2.2574
 1378Sol     HW 8833   2.222   1.619   2.081 -0.4655 -0.3078 -1.0624
 1378Sol     MW 8834   2.223   1.700   2.042  1.1200  0.4692  0.0925
 1379Sol     OW 8835   3.239   3.344   8.488 -0.4483  0.1579 -0.2418
 1379Sol     HW 8836   3.282   3.356   8.572 -1.4165  1.3712  0.0726
 1379Sol     HW 8837   3.311   3.322   8.428  0.6027  1.9836  0.3234
 1379Sol     MW 8838   3.250   3.343   8.490  0.0051  0.6432 -0.3504
 1380Sol     OW 8839   2.632   0.824   4.227  0.0512 -0.1182  0.8060
 1380Sol     HW 8840   2.658   0.767   4.155 -0.5373  1.0811 -0.3705
 1380Sol     HW 8841   2.602   0.905   4.185 -1.1926  0.2568  2.3334
 1380Sol     MW 8842   2.631   0.826   4.217 -0.0436  0.1084 -0.4471
 1381Sol     OW 8843   3.025   2.911   3.293 -0.8942  0.1403 -0.2745
 1381Sol     HW 8844   3.109   2.955   3.305 -0.2076 -0.9486 -0.9264
 1381Sol     HW 8845   2.993   2.945   3.209 -1.3045  0.8762  0.1834
 1381Sol     MW 8846   3.030   2.918   3.286  0.0774 -0.0538  0.7910
 1382Sol     OW 8847   2.010   0.049   9.576  0.7182 -0.4265  0.1655
 1382Sol     HW 8848   2.047  -0.031   9.612  0.6256 -0.0542  1.0902
 1382Sol     HW 8849   2.064   0.119   9.613 -0.9405  0.1350  1.6120
 1382Sol     MW 8850   2.019   0.048   9.582 -0.5289 -0.0062 -0.4932
 1383Sol     OW 8851   2.526   1.543   9.674 -0.3694  0.3721 -0.0381
 1383Sol     HW 8852   2.516   1.606   9.602  0.4944  0.5926  0.0260
 1383Sol     HW 8853   2.620   1.525   9.677 -0.4839 -0.1335  0.6142
 1383Sol     MW 8854   2.534   1.547   9.668 -0.1559 -0.6295  0.6175
 1384Sol     OW 8855   0.634   1.142   8.290 -0.0374 -0.0896 -0.0213
 1384Sol     HW 8856   0.707   1.103   8.243 -0.6849 -0.9093 -0.3694
 1384Sol     HW 8857   0.610   1.219   8.238  0.2428 -0.1108 -0.1850
 1384Sol     MW 8858   0.638   1.145   8.281  0.2672  0.5907  0.5326
 1385Sol     OW 8859   2.456   1.912   6.523  0.0629  0.0686  0.2537
 1385Sol     HW 8860   2.468   1.821   6.495 -0.3605  0.4016 -1.0172
 1385Sol     HW 8861   2.445   1.961   6.442  2.5015  1.6039  0.7877
 1385Sol     MW 8862   2.456   1.908   6.513  0.5849 -0.7434 -0.0672
 1386Sol     OW 8863   3.181   2.670   4.250 -0.3617 -0.0856 -0.2024
 1386Sol     HW 8864   3.247   2.697   4.314  0.1016  1.9160 -1.4844
 1386Sol     HW 8865   3.210   2.583   4.221  0.4448 -0.1998  0.9098
 1386Sol     MW 8866   3.189   2.664   4.253 -0.1460  0.3379  0.6176
 1387Sol     OW 8867   0.605   2.166   3.397 -0.2779 -0.1782  0.2826
 1387Sol     HW 8868   0.518   2.133   3.374 -1.4481  1.8220  1.6588
 1387Sol     HW 8869   0.652   2.088   3.427 -1.1576 -1.5015 -1.6646
 1387Sol     MW 8870   0.601   2.156   3.398  0.2637  0.4521 -0.0475
 1388Sol     OW 8871   1.552   0.763   5.470 -0.0295 -0.6075 -0.2440
 1388Sol     HW 8872   1.602   0.845   5.466 -0.5860 -0.2568 -0.0064
 1388Sol     HW 8873   1.585   0.711   5.397  1.2371 -0.6852  0.3630
 1388Sol     MW 8874   1.560   0.766   5.463 -0.5473  0.0266 -0.1188
 1389Sol     OW 8875   3.238   1.548   6.429 -0.3579  0.3543 -0.6437
 1389Sol     HW 8876   3.207   1.636   6.408 -0.3968  0.2805 -0.8871
 1389Sol     HW 8877   3.166   1.509   6.479  0.4085  1.1323  1.1293
 1389Sol     MW 8878   3.228   1.552   6.432 -0.5361  0.3670  0.2311
 1390Sol     OW 8879   2.208   1.307   1.961 -0.7546  0.8138 -0.2965
 1390Sol     HW 8880   2.158   1.228   1.980  1.3828  0.0426  2.5109
 1390Sol     HW 8881   2.262   1.283   1.885 -2.1363  0.5474 -1.2126
 1390Sol     MW 8882   2.209   1.297   1.956  1.0119  0.0598 -0.3874
 1391Sol     OW 8883   1.999   2.646   6.112  0.3520 -0.2965 -0.6374
 1391Sol     HW 8884   2.017   2.557   6.084 -1.2086 -0.7457 -0.2676
 1391Sol     HW 8885   2.071   2.668   6.170 -0.0542 -1.8822  0.5006
 1391Sol     MW 8886   2.007   2.640   6.114 -0.3576 -0.1144  0.1572
 1392Sol     OW 8887   1.404   1.842   2.957 -0.0476  0.0501 -0.0130
 1392Sol     HW 8888   1.408   1.750   2.980  1.2632 -0.1304 -0.9256
 1392Sol     HW 8889   1.491   1.863   2.923 -0.7191  1.2897 -1.0341
 1392Sol     MW 8890   1.412   1.836   2.956  0.2916  0.2584 -0.2120
 1393Sol     OW 8891   2.161   1.474   3.313 -0.2591 -0.4502  0.2565
 1393Sol     HW 8892   2.113   1.533   3.371  1.4712  0.7704  0.4651
 1393Sol     HW 8893   2.246   1.516   3.300 -0.2140 -1.2444 -2.3087
 1393Sol     MW 8894   2.164   1.483   3.317  0.2163 -0.1387  0.1323
 1394Sol     OW 8895   2.791   0.535   9.420 -0.6654 -0.5400  0.0781
 1394Sol     HW 8896   2.864   0.472   9.416 -0.7356 -0.5597 -1.0874
 1394Sol     HW 8897   2.753   0.532   9.332 -1.2363  0.4684  0.2941
 1394Sol     MW 8898   2.794   0.529   9.412 -0.0701 -0.0424  0.3393
 1395Sol     OW 8899   2.289   0.220   9.018 -0.0838 -0.0357  0.7268
 1395Sol     HW 8900   2.366   0.210   8.962 -0.4935  1.0106 -0.0514
 1395Sol     HW 8901   2.217   0.183   8.966 -0.1072 -1.0220  1.4569
 1395Sol     MW 8902   2.290   0.216   9.008 -0.2190  0.0257 -1.0086
 1396Sol     OW 8903   2.877   2.404   2.036 -0.4905  0.0469 -0.5798
 1396Sol     HW 8904   2.799   2.356   2.065  0.5623 -0.4521  1.4907
 1396Sol     HW 8905   2.855   2.496   2.052 -1.1698  0.0107 -1.2758
 1396Sol     MW 8906   2.868   2.408   2.040 -0.5469 -0.4120 -0.1206
 1397Sol     OW 8907   1.248   0.419   5.434  0.3180  0.2579  0.3405
 1397Sol     HW 8908   1.342   0.428   5.414  0.0558 -1.8514 -2.0277
 1397Sol     HW 8909   1.245   0.417   5.530  2.7658 -0.3252  0.4545
 1397Sol     MW 8910   1.256   0.420   5.441  0.2096  0.3350  0.8226
 1398Sol     OW 8911   0.763   0.280   8.461 -0.1459 -0.1339 -0.4256
 1398Sol     HW 8912   0.743   0.322   8.377  0.1498  3.9671  1.4191
 1398Sol     HW 8913   0.857   0.296   8.474  0.2721 -2.5479 -0.2221
 1398Sol     MW 8914   0.770   0.285   8.455 -0.8254 -0.0827 -0.2845
 1399Sol     OW 8915   1.349   0.006   8.677 -0.6821  0.4389  0.0542
 1399Sol     HW 8916   1.437  -0.018   8.646  0.1184  2.5227  0.6616
 1399Sol     HW 8917   1.359   0.016   8.771 -2.3764 -2.6510  0.6311
 1399Sol     MW 8918   1.358   0.005   8.682  0.3963 -0.1771  0.0106
 1400Sol     OW 8919   2.780   1.312   8.739 -0.3468  0.1397 -0.2581
 1400Sol     HW 8920   2.849   1.374   8.763  2.9708 -3.3406 -0.3250
 1400Sol     HW 8921   2.779   1.314   8.643  0.8892 -1.0078 -0.3141
 1400Sol     MW 8922   2.786   1.318   8.732 -0.0326 -0.4243  0.0366
 1401Sol     OW 8923   0.144   0.754   1.888 -0.3740  0.1369 -0.8603
 1401Sol     HW 8924   0.085   0.684   1.860 -2.1026  1.2263 -0.0630
 1401Sol     HW 8925   0.086   0.828   1.905  0.9839  0.5830  2.1419
 1401Sol     MW 8926   0.133   0.755   1.887  0.2829 -0.2353 -0.5114
 1402Sol     OW 8927   1.100   1.088   6.384  0.1400 -0.2872 -0.0435
 1402Sol     HW 8928   1.020   1.051   6.346  0.4881 -1.3150  0.1921
 1402Sol     HW 8929   1.115   1.036   6.463  1.2798 -0.4070 -0.3272
 1402Sol     MW 8930   1.094   1.080   6.387  1.0487  0.2231 -1.0218
 1403Sol     OW 8931   1.698   0.704   6.852 -0.1395  0.4222  0.1036
 1403Sol     HW 8932   1.707   0.758   6.773 -2.1292 -0.7997 -1.0168
 1403Sol     HW 8933   1.642   0.632   6.824 -0.9295  0.0093  2.6781
 1403Sol     MW 8934   1.693   0.703   6.842 -0.2567 -0.0560 -0.0641
 1404Sol     OW 8935   1.214   0.467   4.970  0.1964 -0.0366  0.4989
 1404Sol     HW 8936   1.310   0.458   4.971  0.2267  0.2993  1.8319
 1404Sol     HW 8937   1.199   0.560   4.954  0.1109  0.0719  1.1979
 1404Sol     MW 8938   1.222   0.475   4.969 -0.3358 -0.5608 -0.0632
 1405Sol     OW 8939   1.007   1.169   2.702  0.5016  0.5861  0.0382
 1405Sol     HW 8940   1.050   1.243   2.657 -1.2161  1.2703 -0.5301
 1405Sol     HW 8941   0.953   1.211   2.769 -0.6737 -0.1408 -0.4509
 1405Sol     MW 8942   1.006   1.180   2.704  0.1631 -0.1614  0.3057
 1406Sol     OW 8943   1.277   3.047   3.819  0.4674 -0.1543 -0.0223
 1406Sol     HW 8944   1.189   3.083   3.805  1.0814  0.9391 -1.1812
 1406Sol     HW 8945   1.315   3.043   3.732  0.7557 -2.7870  0.2039
 1406Sol     MW 8946   1.273   3.050   3.810  0.2965  0.2775 -0.5144
 1407Sol     OW 8947   0.087   2.911   2.336  0.8769  0.1508  0.1920
 1407Sol     HW 8948   0.051   2.849   2.399 -0.7264 -0.2538 -1.1037
 1407Sol     HW 8949   0.027   2.986   2.337 -1.3290 -1.4261 -3.5333
 1407Sol     MW 8950   0.078   2.913   2.341 -0.5906  0.0003 -0.0874
 1408Sol     OW 8951   2.520   3.300   5.269 -0.2667 -0.2944 -0.1955
 1408Sol     HW 8952   2.492   3.327   5.357 -1.7419  2.5174 -1.4747
 1408Sol     HW 8953   2.578   3.226   5.285 -1.0548 -0.2920  3.1217
 1408Sol     MW 8954   2.523   3.296   5.278  0.3796  0.1480  0.4082
 1409Sol     OW 8955   2.069   3.103   2.303 -0.2083  0.0993 -0.3282
 1409Sol     HW 8956   2.124   3.110   2.225 -1.1154 -0.3898 -1.0156
 1409Sol     HW 8957   1.988   3.062   2.272 -0.0236 -1.4199  1.1428
 1409Sol     MW 8958   2.067   3.100   2.293  0.4097 -0.0169 -0.0847
 1410Sol     OW 8959   0.217   1.944   1.847  0.0968  0.1822  1.0348
 1410Sol     HW 8960   0.283   1.900   1.901  1.4673  1.3723  0.3663
 1410Sol     HW 8961   0.219   1.897   1.764  0.5054  0.5680  0.8249
 1410Sol     MW 8962   0.223   1.936   1.844 -0.2575  0.9860  0.5925
 1411Sol     OW 8963   0.087   0.256   7.590 -0.5412 -0.0409  0.0779
 1411Sol     HW 8964   0.095   0.202   7.511 -0.3899 -0.0884  0.1254
 1411Sol     HW 8965   0.052   0.340   7.558 -1.4212 -0.3933  0.0948
 1411Sol     MW 8966   0.085   0.259   7.580 -0.1912 -0.1352 -0.6320
 1412Sol     OW 8967   2.111   2.267   1.696 -0.2446 -1.1209 -0.1558
 1412Sol     HW 8968   2.057   2.222   1.761 -0.2689 -1.3621 -0.3392
 1412Sol     HW 8969   2.190   2.213   1.690  1.1187  0.5708  1.9393
 1412Sol     MW 8970   2.114   2.258   1.701  0.6881  0.3244 -0.3991
 1413Sol     OW 8971   2.642   1.780   2.410 -0.3621  0.2728 -0.2673
 1413Sol     HW 8972   2.654   1.858   2.356 -2.0696  0.3253 -0.5933
 1413Sol     HW 8973   2.703   1.716   2.374 -1.0097  0.5196 -1.8491
 1413Sol     MW 8974   2.649   1.782   2.402 -0.3937 -0.2910 -0.3384
 1414Sol     OW 8975   0.229   2.994   6.184 -0.2028  0.1057 -0.1914
 1414Sol     HW 8976   0.208   2.911   6.227  0.8676 -0.1922 -0.2152
 1414Sol     HW 8977   0.308   3.024   6.229  0.5240  0.1451 -1.4534
 1414Sol     MW 8978   0.235   2.989   6.192 -0.5089  0.6489 -0.4030
 1415Sol     OW 8979   2.545   0.169   4.093 -0.3564  0.0874  0.1343
 1415Sol     HW 8980   2.611   0.204   4.154  0.1685 -0.9846  0.1863
 1415Sol     HW 8981   2.516   0.246   4.043 -0.8510  0.9974  1.7754
 1415Sol     MW 8982   2.549   0.179   4.094  0.3634  0.6423 -0.4729
 1416Sol     OW 8983   2.420   0.488   7.332 -0.2540  0.0316 -0.0266
 1416Sol     HW 8984   2.516   0.488   7.326 -0.1626  1.6224  1.1625
 1416Sol     HW 8985   2.400   0.561   7.390 -2.1449 -0.9316  0.5708
 1416Sol     MW 8986   2.427   0.494   7.337 -0.1742  1.1569 -0.2747
 1417Sol     OW 8987   0.708   3.377   3.500  0.3042 -0.1770 -0.0421
 1417Sol     HW 8988   0.658   3.297   3.485  2.4491 -1.4324 -0.7642
 1417Sol     HW 8989   0.655   3.446   3.461 -1.5607 -1.2273  0.5519
 1417Sol     MW 8990   0.699   3.376   3.495 -0.6293 -0.5574  0.4408
 1418Sol     OW 8991   2.160   1.970   4.568 -0.1064  0.2082  0.1766
 1418Sol     HW 8992   2.080   1.966   4.514 -0.5074 -0.4466  0.8058
 1418Sol     HW 8993   2.142   2.038   4.632 -0.7795 -0.9975  1.2847
 1418Sol     MW 8994   2.151   1.975   4.569  0.6640 -0.4317 -0.4632
 1419Sol     OW 8995   2.177   0.836   5.446 -0.0732 -0.0632 -0.2129
 1419Sol     HW 8996   2.150   0.910   5.391 -1.5080 -0.6080 -0.2689
 1419Sol     HW 8997   2.180   0.761   5.385 -1.4409 -0.6236  0.3995
 1419Sol     MW 8998   2.175   0.836   5.435 -0.2386  0.1123 -0.2770
 1420Sol     OW 8999   1.180   0.228   8.682 -0.0794 -0.0449 -0.1263
 1420Sol     HW 9000   1.122   0.187   8.747  1.1615 -1.1128  0.3279
 1420Sol     HW 9001   1.249   0.163   8.668 -0.3405  0.1466 -2.5532
 1420Sol     MW 9002   1.181   0.218   8.687  0.3865 -0.1625  0.2102
 1421Sol     OW 9003   1.541   0.929   4.397 -0.5688  0.5705 -0.3809
 1421Sol     HW 9004   1.521   0.836   4.404 -0.6406  0.7421  2.0175
 1421Sol     HW 9005   1.457   0.973   4.406 -0.3567  0.9130 -0.0326
 1421Sol     MW 9006   1.532   0.924   4.398 -0.0168  0.1887  0.0871
 1422Sol     OW 9007   0.890   0.805   5.404  0.2973  0.0634 -0.4614
 1422Sol     HW 9008   0.941   0.791   5.484  0.1817 -0.1334 -0.4217
 1422Sol     HW 9009   0.864   0.897   5.408  0.9511  0.2621 -0.6596
 1422Sol     MW 9010   0.892   0.812   5.412  0.4771 -0.3218  0.0846
 1423Sol     OW 9011   0.086   1.992   4.346  0.3648  0.0817 -0.1907
 1423Sol     HW 9012  -0.009   1.991   4.336  0.6045  0.1195 -2.8366
 1423Sol     HW 9013   0.100   2.001   4.440 -2.2522  0.6333  0.1904
 1423Sol     MW 9014   0.079   1.993   4.353  0.2209 -0.1188 -0.2710
 1424Sol     OW 9015   0.597   1.590   6.038 -0.2302  0.2006  0.2896
 1424Sol     HW 9016   0.542   1.622   6.109 -1.8412  0.1379 -0.9076
 1424Sol     HW 9017   0.653   1.524   6.079  0.5302  1.8420  1.9880
 1424Sol     MW 9018   0.597   1.587   6.048 -0.5069  0.1180 -0.1135
 1425Sol     OW 9019   2.591   1.629   7.608 -0.9121 -0.0332  0.0957
 1425Sol     HW 9020   2.619   1.652   7.520  1.2401 -2.5500  0.0221
 1425Sol     HW 9021   2.498   1.647   7.610 -1.0589 -0.2068 -2.8100
 1425Sol     MW 9022   2.586   1.632   7.601  0.5292  0.8156  0.3768
 1426Sol     OW 9023   2.626   0.728   9.328 -0.3491 -0.0433 -0.0182
 1426Sol     HW 9024   2.682   0.729   9.406 -0.2647 -0.2706 -0.0740
 1426Sol     HW 9025   2.571   0.805   9.336  0.4572  0.5767 -0.3130
 1426Sol     MW 9026   2.626   0.735   9.336 -0.3077  0.3837  0.4955
 1427Sol     OW 9027   2.960   1.354   9.321 -0.2184 -0.2642 -0.0240
 1427Sol     HW 9028   2.997   1.364   9.409  1.0013  1.3862 -0.7082
 1427Sol     HW 9029   3.013   1.286   9.281  0.5891  0.4591 -0.1975
 1427Sol     MW 9030   2.968   1.349   9.325  0.3808 -0.1047  0.9556
 1428Sol     OW 9031   0.756   3.433   1.686  0.1646 -0.3032 -0.3138
 1428Sol     HW 9032   0.708   3.497   1.738 -0.1258 -0.3964 -0.4610
 1428Sol     HW 9033   0.847   3.462   1.688  0.2275 -0.5599  0.6234
 1428Sol     MW 9034   0.759   3.441   1.691  0.6860  0.1171 -0.3339
 1429Sol     OW 9035   1.882   0.404   1.730  0.2686 -0.0031 -0.2731
 1429Sol     HW 9036   1.851   0.318   1.701  0.6771  0.5976 -2.5813
 1429Sol     HW 9037   1.873   0.402   1.825  0.7056 -2.7609 -0.2602
 1429Sol     MW 9038   1.878   0.396   1.736 -0.6038  0.2603 -0.0606
 1430Sol     OW 9039   1.744   1.998   8.198 -0.4420  0.0293  0.1180
 1430Sol     HW 9040   1.680   2.068   8.187  0.4002  0.7673 -0.1849
 1430Sol     HW 9041   1.828   2.044   8.204  0.2087 -1.0085 -0.8995
 1430Sol     MW 9042   1.746   2.009   8.198  0.1908  0.2311  0.4445
 1431Sol     OW 9043   0.035   2.506   2.055  0.3320 -0.2804 -0.1674
 1431Sol     HW 9044  -0.026   2.436   2.033 -0.5424  0.5845 -0.5568
 1431Sol     HW 9045   0.071   2.481   2.140 -0.6225 -0.7674  0.0994
 1431Sol     MW 9046   0.033   2.498   2.061  0.3725 -0.0455  0.0471
 1432Sol     OW 9047   2.718   2.926   8.453 -0.6252 -0.1734 -0.6707
 1432Sol     HW 9048   2.755   2.990   8.515 -1.9246  0.4714 -0.5393
 1432Sol     HW 9049   2.776   2.929   8.378  0.2072  0.0332 -0.0239
 1432Sol     MW 9050   2.726   2.932   8.452  0.4230 -0.7481 -0.3160
 1433Sol     OW 9051   3.190   0.561   4.292  0.4853 -0.3008  0.2341
 1433Sol     HW 9052   3.198   0.484   4.235  0.2428 -1.5674  1.8925
 1433Sol     HW 9053   3.279   0.576   4.324  0.2998 -0.7113  0.9553
 1433Sol     MW 9054   3.199   0.555   4.289 -0.4721  0.1631  0.2405
 1434Sol     OW 9055   3.361   2.384   6.489  0.1887 -0.0568  0.3635
 1434Sol     HW 9056   3.305   2.307   6.482  0.9264 -0.5666 -0.0349
 1434Sol     HW 9057   3.311   2.446   6.541 -0.8722 -0.3886 -0.2579
 1434Sol     MW 9058   3.352   2.382   6.493 -0.0742  0.5591  0.1435
 1435Sol     OW 9059   1.464   0.296   2.218 -0.0395  0.3073 -0.3371
 1435Sol     HW 9060   1.450   0.272   2.309 -0.6750  1.2761 -0.1754
 1435Sol     HW 9061   1.495   0.387   2.221  1.3716 -0.1305 -0.9974
 1435Sol     MW 9062   1.466   0.302   2.226  0.2734 -0.2996 -0.5849
 1436Sol     OW 9063   1.407   1.051   3.365  0.1565 -0.1779  0.1897
 1436Sol     HW 9064   1.315   1.038   3.343  0.0617 -0.3060  0.6492
 1436Sol     HW 9065   1.438   0.964   3.390  0.0116  0.1334  1.4789
 1436Sol     MW 9066   1.402   1.042   3.365 -0.1718  0.4531 -0.0264
 1437Sol     OW 9067   0.929   1.761   8.726 -0.5091  0.0871 -0.6117
 1437Sol     HW 9068   0.890   1.678   8.701  2.1180 -2.0986  2.0528
 1437Sol     HW 9069   0.972   1.793   8.647 -1.5870 -1.0539 -1.6658
 1437Sol     MW 9070   0.930   1.757   8.717 -0.2354  0.1260 -0.0494
 1438Sol     OW 9071   0.679   0.042   6.012  0.0530 -0.3781  0.2500
 1438Sol     HW 9072   0.603   0.029   5.955 -1.5370  1.0379  1.9966
 1438Sol     HW 9073   0.750   0.063   5.951 -0.9742 -1.4766 -1.3980
 1438Sol     MW 9074   0.679   0.043   6.001 -0.1057  0.2688  0.2108
 1439Sol     OW 9075   0.745   1.284   4.657 -0.4522 -0.2356  0.3148
 1439Sol     HW 9076   0.811   1.214   4.651  0.5529  0.9234 -3.3008
 1439Sol     HW 9077   0.773   1.348   4.593 -4.0744  1.2251  0.1143
 1439Sol     MW 9078   0.753   1.283   4.651  0.2900  0.1115  0.6760
 1440Sol     OW 9079   2.453   0.945   9.329  0.8572 -0.2754 -0.2836
 1440Sol     HW 9080   2.486   1.021   9.378  0.6765 -2.1244  2.8046
 1440Sol     HW 9081   2.371   0.977   9.289  1.8580  1.7599 -0.7927
 1440Sol     MW 9082   2.448   0.955   9.330 -0.0592 -0.2798  0.4426
 1441Sol     OW 9083   2.570   2.680   3.564  0.7038 -0.0065 -0.3310
 1441Sol     HW 9084   2.516   2.669   3.486 -1.6730 -0.8845  1.3872
 1441Sol     HW 9085   2.539   2.612   3.625  1.4672  1.6048  1.9395
 1441Sol     MW 9086   2.562   2.673   3.563 -0.4912  0.2937  0.1436
 1442Sol     OW 9087   1.144   3.298   3.237 -0.0493 -0.2993  0.7134
 1442Sol     HW 9088   1.100   3.214   3.238 -0.3099 -0.2830 -2.3200
 1442Sol     HW 9089   1.236   3.277   3.225 -0.0137 -0.1840  0.7864
 1442Sol     MW 9090   1.148   3.289   3.236  0.7785 -0.1688 -0.2187
 1443Sol     OW 9091   2.468   0.860   9.655 -0.0558 -0.3046 -0.1649
 1443Sol     HW 9092   2.525   0.850   9.731  2.0621 -2.9863 -1.9987
 1443Sol     HW 9093   2.506   0.932   9.606 -0.2098  0.0691  0.2579
 1443Sol     MW 9094   2.476   0.865   9.658 -0.5046 -0.5439 -0.5553
 1444Sol     OW 9095   1.472   0.695   4.499  0.1861  0.3188  0.0259
 1444Sol     HW 9096   1.438   0.607   4.511 -0.1056  0.4752  0.3760
 1444Sol     HW 9097   1.413   0.750   4.551 -0.4829  0.8961 -1.3199
 1444Sol     MW 9098   1.464   0.692   4.505 -0.1926 -0.1061  0.4154
 1445Sol     OW 9099   0.007   3.236   9.262 -0.2213  0.3539 -0.3150
 1445Sol     HW 9100  -0.056   3.171   9.231  1.7466 -1.9987  0.4593
 1445Sol     HW 9101   0.080   3.230   9.200 -0.5593  2.7884 -0.9992
 1445Sol     MW 9102   0.008   3.229   9.254 -0.0344 -0.2446 -0.4392
 1446Sol     OW 9103   0.694   2.449   2.756 -0.0893  0.3801 -0.0364
 1446Sol     HW 9104   0.740   2.493   2.685  1.0740  0.2652  0.6404
 1446Sol     HW 9105   0.717   2.499   2.834  0.5644 -0.9286  0.6177
 1446Sol     MW 9106   0.700   2.457   2.757  0.0976  0.0118 -0.6021
 1447Sol     OW 9107   3.019   3.167   9.761 -0.3810 -0.1585  0.1203
 1447Sol     HW 9108   2.957   3.182   9.690  0.1484  0.4675 -0.2169
 1447Sol     HW 9109   2.966   3.171   9.840 -0.6571  1.1555 -0.1118
 1447Sol     MW 9110   3.009   3.169   9.761  0.2727  0.1743 -0.2477
 1448Sol     OW 9111   0.049   3.176   2.555 -0.1954 -0.1261  0.5722
 1448Sol     HW 9112   0.018   3.094   2.517  0.9791  0.1820 -1.0824
 1448Sol     HW 9113   0.080   3.227   2.481 -1.3063  2.0197  1.5252
 1448Sol     MW 9114   0.049   3.174   2.545  0.0766 -0.3537 -0.1639
 1449Sol     OW 9115   0.422   2.412   2.342 -0.9312  0.5925  0.0946
 1449Sol     HW 9116   0.463   2.443   2.261 -1.3239 -1.1812 -0.8032
 1449Sol     HW 9117   0.495   2.374   2.392 -0.9871  0.1357 -0.1767
 1449Sol     MW 9118   0.433   2.412   2.339  0.0764  0.4145 -0.1674
 1450Sol     OW 9119   1.771   1.814   7.107  0.0912 -0.0269 -0.2653
 1450Sol     HW 9120   1.780   1.758   7.030  1.7575  0.1497 -0.2098
 1450Sol     HW 9121   1.833   1.779   7.170  0.6426  1.4468  0.0347
 1450Sol     MW 9122   1.777   1.806   7.106  0.2606  0.3171 -0.8474
 1451Sol     OW 9123   1.019   2.083   5.444 -0.1662 -0.3675  0.2972
 1451Sol     HW 9124   0.939   2.035   5.465 -0.6287 -0.5547 -1.8331
 1451Sol     HW 9125   1.006   2.170   5.481 -2.1026  0.1588 -1.5740
 1451Sol     MW 9126   1.011   2.086   5.449 -0.1559 -0.0527  0.2075
 1452Sol     OW 9127   3.074   0.501   8.984 -0.2461  0.1370 -0.1844
 1452Sol     HW 9128   3.063   0.504   8.889  2.1324 -0.0426 -0.4734
 1452Sol     HW 9129   3.090   0.408   9.003  1.1770  0.4533  0.1728
 1452Sol     MW 9130   3.074   0.493   8.977  0.1856  0.4117  0.3684
 1453Sol     OW 9131   3.029   1.504   7.556 -0.0153  0.2055 -0.2860
 1453Sol     HW 9132   3.080   1.428   7.527 -0.4944 -0.4683  0.5939
 1453Sol     HW 9133   2.956   1.467   7.605 -0.6429  1.2184 -0.4340
 1453Sol     MW 9134   3.027   1.494   7.558  0.0814 -0.2024  0.3631
 1454Sol     OW 9135   0.903   2.288   7.517 -0.1604  0.9994  0.7102
 1454Sol     HW 9136   0.984   2.318   7.557 -0.8471  2.2245  1.2146
 1454Sol     HW 9137   0.846   2.267   7.590  0.5697 -2.3742  0.3766
 1454Sol     MW 9138   0.905   2.289   7.527  0.0083  0.4255  0.4827
 1455Sol     OW 9139   0.818   1.113   9.130  0.2013 -0.5988 -0.1364
 1455Sol     HW 9140   0.853   1.183   9.074 -0.0496  0.1071  0.5829
 1455Sol     HW 9141   0.727   1.138   9.145  0.1582 -0.9997  0.2575
 1455Sol     MW 9142   0.813   1.122   9.126  0.3491 -0.1026 -0.8800
 1456Sol     OW 9143   2.312   1.863   1.617  0.2806  0.2990  0.5631
 1456Sol     HW 9144   2.245   1.798   1.636  1.9146 -1.4521  0.5570
 1456Sol     HW 9145   2.393   1.811   1.608  1.7133  2.3888  1.1070
 1456Sol     MW 9146   2.313   1.852   1.618  0.2438  0.2142  0.3202
 1457Sol     OW 9147   0.926   0.380   1.696 -0.0552 -0.2561 -0.1150
 1457Sol     HW 9148   0.945   0.419   1.781 -0.0656  0.5423 -0.4780
 1457Sol     HW 9149   0.835   0.402   1.679  0.2487  0.4988 -0.8131
 1457Sol     MW 9150   0.920   0.385   1.702  0.2989  0.5421  0.2382
 1458Sol     OW 9151   2.838   2.943   9.105 -0.2265 -0.1588 -0.0453
 1458Sol     HW 9152   2.901   3.004   9.143 -0.6413  0.0967  0.2347
 1458Sol     HW 9153   2.891   2.885   9.049  0.2748 -0.0561  0.3214
 1458Sol     MW 9154   2.849   2.943   9.103  0.0509 -0.3314  0.1224
 1459Sol     OW 9155   0.978   2.506   2.023 -0.1169 -0.1213  0.0395
 1459Sol     HW 9156   0.935   2.491   2.108  0.1315  1.2262  0.4169
 1459Sol     HW 9157   1.016   2.593   2.031  0.6183 -0.3264 -1.1743
 1459Sol     MW 9158   0.977   2.512   2.032 -0.0443 -0.0962 -0.5218
 1460Sol     OW 9159   2.840   1.717   7.317 -0.7477 -0.2790  0.0816
 1460Sol     HW 9160   2.858   1.764   7.236 -1.2495 -0.7459 -0.3000
 1460Sol     HW 9161   2.885   1.768   7.384 -2.5694  1.6264 -0.1059
 1460Sol     MW 9162   2.846   1.726   7.316 -0.5505  0.8400  0.4653
 1461Sol     OW 9163   0.161   1.310   8.514 -0.0724 -0.1809 -0.2905
 1461Sol     HW 9164   0.104   1.386   8.524  1.8093  1.1721  0.6397
 1461Sol     HW 9165   0.111   1.248   8.462 -1.9390  1.4048 -0.4213
 1461Sol     MW 9166   0.152   1.312   8.511 -0.2705  0.4295 -0.5293
 1462Sol     OW 9167   0.527   0.082   2.939  0.1547 -0.1089  0.1211
 1462Sol     HW 9168   0.545   0.090   2.845 -3.0035 -0.3005 -0.5301
 1462Sol     HW 9169   0.566  -0.002   2.963  1.0992 -0.0008 -0.9836
 1462Sol     MW 9170   0.532   0.075   2.933  0.3076  0.4193  0.0678
 1463Sol     OW 9171   1.139   2.178   2.462 -0.1440 -0.3203 -0.0150
 1463Sol     HW 9172   1.057   2.211   2.499  0.3179  0.6501  0.1461
 1463Sol     HW 9173   1.176   2.252   2.415  0.9885 -0.5427  0.4976
 1463Sol     MW 9174   1.135   2.187   2.461  0.3712 -0.4267  0.1614
 1464Sol     OW 9175   0.440   1.587   2.450 -0.5720 -0.3190  0.5926
 1464Sol     HW 9176   0.439   1.673   2.492 -0.2907 -0.0645  0.0845
 1464Sol     HW 9177   0.529   1.554   2.463  0.3757  0.9379 -2.1243
 1464Sol     MW 9178   0.448   1.592   2.455 -1.0286  0.1734  0.5059
 1465Sol     OW 9179   1.569   2.570   1.820  0.5727 -0.4626 -0.0795
 1465Sol     HW 9180   1.530   2.488   1.790  0.6907 -1.4744  2.4371
 1465Sol     HW 9181   1.632   2.544   1.887  1.5227  1.5877 -0.1405
 1465Sol     MW 9182   1.571   2.560   1.823 -0.2511  0.5261 -0.0728
 1466Sol     OW 9183   1.538   0.247   6.013 -0.9985 -0.0043  0.0246
 1466Sol     HW 9184   1.577   0.238   6.101 -1.3046 -2.4614 -0.0673
 1466Sol     HW 9185   1.474   0.317   6.023  0.0479  0.7957  1.3840
 1466Sol     MW 9186   1.536   0.252   6.022 -0.4931 -0.0759  0.3201
 1467Sol     OW 9187   0.497   1.187   2.863 -0.2606  0.5957  0.6870
 1467Sol     HW 9188   0.454   1.228   2.788 -1.1935  0.3718  1.0976
 1467Sol     HW 9189   0.466   1.097   2.862  0.3279  0.3874  0.8945
 1467Sol     MW 9190   0.490   1.183   2.856 -0.5413 -0.1136  0.1309
 1468Sol     OW 9191   3.102   1.947   7.254 -0.3649  0.0505 -0.0516
 1468Sol     HW 9192   3.150   1.949   7.172 -1.0001 -0.6030 -0.4481
 1468Sol     HW 9193   3.165   1.976   7.320  0.3931 -0.2161 -0.6513
 1468Sol     MW 9194   3.112   1.949   7.253 -0.0786  0.3628  0.6480
 1469Sol     OW 9195   2.838   1.434   2.491 -0.1340  0.1691 -0.6451
 1469Sol     HW 9196   2.745   1.424   2.473 -0.3663  2.3833 -0.9119
 1469Sol     HW 9197   2.869   1.493   2.422  1.5532 -0.8919 -0.8141
 1469Sol     MW 9198   2.833   1.439   2.483 -0.0368 -0.1304  0.0032
 1470Sol     OW 9199   0.722   2.158   5.620  0.0738  0.3210 -0.5913
 1470Sol     HW 9200   0.665   2.102   5.566 -0.4096  0.3965 -0.1599
 1470Sol     HW 9201   0.771   2.210   5.556 -0.5108  0.4273 -0.9574
 1470Sol     MW 9202   0.721   2.157   5.609 -0.5734  0.0031 -0.4882
 1471Sol     OW 9203   1.013   1.367   4.124 -1.0572 -0.0171  0.1666
 1471Sol     HW 9204   0.934   1.324   4.157  0.0625 -1.3848  1.1129
 1471Sol     HW 9205   1.045   1.309   4.055  0.0468 -0.3444  0.9351
 1471Sol     MW 9206   1.009   1.358   4.120 -0.5644  0.2429  0.3140
 1472Sol     OW 9207   1.859   1.709   9.200  0.3247 -0.0690 -0.0750
 1472Sol     HW 9208   1.764   1.710   9.201  0.2791  2.7140 -1.3647
 1472Sol     HW 9209   1.883   1.687   9.110  0.9632 -2.8407  0.7308
 1472Sol     MW 9210   1.853   1.707   9.192 -0.1707 -0.6225 -0.0157
 1473Sol     OW 9211   2.042   1.100   2.022  0.0171  0.5958  0.2197
 1473Sol     HW 9212   2.001   1.014   2.030 -0.5706  0.4592 -3.6190
 1473Sol     HW 9213   1.976   1.155   1.981  1.7136  1.8602 -0.9016
 1473Sol     MW 9214   2.032   1.097   2.019  0.1701  0.1065 -0.3265
 1474Sol     OW 9215   0.891   2.261   2.569 -0.3064  0.1045  0.5395
 1474Sol     HW 9216   0.920   2.345   2.603  1.1576  0.3751 -1.3009
 1474Sol     HW 9217   0.876   2.207   2.647  2.2003  0.9309  1.6339
 1474Sol     MW 9218   0.892   2.264   2.579  0.6676  0.3182 -0.1031
 1475Sol     OW 9219   3.208   0.002   5.661 -0.1295  0.3543 -0.1138
 1475Sol     HW 9220   3.171   0.011   5.748 -0.7256  0.1033 -0.3360
 1475Sol     HW 9221   3.132   0.006   5.602  0.2664  0.5428 -0.6183
 1475Sol     MW 9222   3.198   0.003   5.663  0.0124 -0.9184  0.2354
 1476Sol     OW 9223   1.473   3.442   6.212 -0.1054  0.2896  0.1951
 1476Sol     HW 9224   1.431   3.457   6.127 -0.4707  0.8284  0.4702
 1476Sol     HW 9225   1.427   3.500   6.272 -0.0936 -0.3608  0.8416
 1476Sol     MW 9226   1.465   3.448   6.210  0.6377  0.1488 -0.3229
 1477Sol     OW 9227   2.305   2.487   8.650 -0.5060 -0.5890 -0.1162
 1477Sol     HW 9228   2.250   2.539   8.709 -2.3579 -3.0693  0.4548
 1477Sol     HW 9229   2.243   2.449   8.587  1.0646 -0.4126 -1.7899
 1477Sol     MW 9230   2.294   2.488   8.650 -0.5892 -0.6470 -0.0490
 1478Sol     OW 9231   2.921   3.278   8.338 -0.1343 -0.0628  0.0761
 1478Sol     HW 9232   2.965   3.221   8.274  0.1439  0.4903 -0.2281
 1478Sol     HW 9233   2.865   3.334   8.285 -0.0357  0.2802  0.3385
 1478Sol     MW 9234   2.920   3.278   8.327  0.5665  0.8052  0.2403
 1479Sol     OW 9235   3.174   2.084   8.024  0.3584 -0.0863  0.2212
 1479Sol     HW 9236   3.085   2.064   7.994 -0.8320  1.0135  2.8361
 1479Sol     HW 9237   3.174   2.059   8.116  2.5762  0.5572  0.4263
 1479Sol     MW 9238   3.166   2.080   8.030  0.0326  0.5100 -1.0037
 1480Sol     OW 9239   0.532   2.112   2.936  0.2482 -0.1424 -0.6214
 1480Sol     HW 9240   0.516   2.172   2.863  0.6278  0.3830 -0.2772
 1480Sol     HW 9241   0.571   2.167   3.004  0.1163 -0.6759 -0.1097
 1480Sol     MW 9242   0.534   2.123   2.935 -0.1282  0.3807  0.0853
 1481Sol     OW 9243   3.303   2.457   6.987 -0.1893 -0.1649 -0.6964
 1481Sol     HW 9244   3.385   2.463   7.036 -0.2087  0.4491 -0.7343
 1481Sol     HW 9245   3.244   2.515   7.033 -0.6313 -0.6637 -0.6282
 1481Sol     MW 9246   3.305   2.462   6.995  0.2756 -0.3160 -0.8805
 1482Sol     OW 9247   2.533   1.574   8.252 -0.3670  0.3961 -0.4449
 1482Sol     HW 9248   2.582   1.560   8.171  1.6729 -1.5788  1.0479
 1482Sol     HW 9249   2.601   1.577   8.320 -2.1488  0.2945  1.3675
 1482Sol     MW 9250   2.544   1.573   8.251 -0.3395 -0.1118 -1.2188
 1483Sol     OW 9251   0.133   1.886   9.037  0.6660  0.6049  0.1196
 1483Sol     HW 9252   0.096   1.943   9.105 -1.5115  0.1800 -0.6454
 1483Sol     HW 9253   0.140   1.800   9.079  0.0304  0.5156  0.0581
 1483Sol     MW 9254   0.130   1.884   9.047 -0.0277  0.1364  0.0821
 1484Sol     OW 9255   1.366   3.331   4.156  0.1364 -0.4233 -0.8408
 1484Sol     HW 9256   1.435   3.269   4.129  0.6810  0.0042 -0.4484
 1484Sol     HW 9257   1.302   3.277   4.202  0.6933 -0.6773 -0.3537
 1484Sol     MW 9258   1.367   3.321   4.158 -0.8008  0.7065 -0.0904
 1485Sol     OW 9259   2.988   3.008   4.469  0.1461 -0.1389 -0.5668
 1485Sol     HW 9260   3.024   2.942   4.528  0.2789  1.4572  1.1855
 1485Sol     HW 9261   2.905   2.970   4.439 -0.1369 -0.8079  1.0068
 1485Sol     MW 9262   2.983   2.999   4.471 -0.5682  0.1131  0.1026
 1486Sol     OW 9263   3.224   2.598   8.906 -0.1085 -0.0439  0.4812
 1486Sol     HW 9264   3.292   2.614   8.841  0.5541  1.1707  1.4562
 1486Sol     HW 9265   3.167   2.675   8.901 -0.7317 -0.4894  0.5289
 1486Sol     MW 9266   3.225   2.606   8.900 -0.2026 -0.2812 -0.1164
 1487Sol     OW 9267   2.760   1.861   1.578 -0.0440  0.5456 -0.3248
 1487Sol     HW 9268   2.849   1.836   1.602 -0.5768  0.6522  1.8757
 1487Sol     HW 9269   2.761   1.956   1.575 -0.0517  0.5425 -0.4269
 1487Sol     MW 9270   2.768   1.867   1.580 -0.2670 -0.2361 -0.2036
 1488Sol     OW 9271   0.247   2.926   5.108  0.2807  0.0526  0.2196
 1488Sol     HW 9272   0.170   2.871   5.095 -0.9767  2.0588 -1.2885
 1488Sol     HW 9273   0.310   2.870   5.153 -0.9810 -2.5346 -1.1249
 1488Sol     MW 9274   0.246   2.916   5.111  0.0499 -0.7586 -0.1363
 1489Sol     OW 9275   2.933   3.003   3.057  0.4379  0.5944  0.4703
 1489Sol     HW 9276   2.877   3.063   3.107 -1.0023  0.2855 -0.7596
 1489Sol     HW 9277   3.006   3.058   3.027  0.1860  1.2617  1.0556
 1489Sol     MW 9278   2.935   3.013   3.059  0.2330 -0.1254 -0.6518
 1490Sol     OW 9279   2.544   2.166   2.711  0.2019 -0.5476  0.2174
 1490Sol     HW 9280   2.539   2.071   2.722 -0.9422  0.0244  6.7770
 1490Sol     HW 9281   2.638   2.185   2.708  0.4419 -1.8043 -0.5554
 1490Sol     MW 9282   2.552   2.159   2.712 -0.5164 -0.4241  0.0480
 1491Sol     OW 9283   2.038   1.605   2.962 -0.3171 -0.0804 -0.2374
 1491Sol     HW 9284   2.067   1.635   2.876 -0.2970  0.9658  0.1236
 1491Sol     HW 9285   1.969   1.667   2.986 -2.1045 -1.8909 -0.6118
 1491Sol     MW 9286   2.034   1.613   2.956 -0.5432 -0.5415 -0.1974
 1492Sol     OW 9287   2.248   0.222   6.933 -0.0385  0.8610 -0.0773
 1492Sol     HW 9288   2.290   0.270   7.005 -0.6383 -1.1209  1.6409
 1492Sol     HW 9289   2.208   0.290   6.879  0.6629  2.4048  1.2937
 1492Sol     MW 9290   2.248   0.232   6.934 -0.0095 -0.4759 -0.3130
 1493Sol     OW 9291   2.836   1.937   8.871  0.7591 -0.0273 -0.2230
 1493Sol     HW 9292   2.902   1.919   8.938 -0.4793  0.2443  1.1059
 1493Sol     HW 9293   2.874   2.007   8.819  2.1547 -0.8976 -0.4151
 1493Sol     MW 9294   2.845   1.942   8.873  0.0967  0.1447  0.3686
 1494Sol     OW 9295   1.974   2.441   9.472  0.4289 -0.8088 -0.5691
 1494Sol     HW 9296   1.968   2.350   9.443 -0.9633 -0.6887 -0.6948
 1494Sol     HW 9297   1.968   2.493   9.392 -2.1115 -0.5192 -0.2374
 1494Sol     MW 9298   1.973   2.438   9.463  0.1163 -0.0285  1.4721
 1495Sol     OW 9299   2.723   2.921   4.413 -0.2430  0.1895 -0.0033
 1495Sol     HW 9300   2.641   2.916   4.461  0.6201 -1.7347  1.3544
 1495Sol     HW 9301   2.725   2.840   4.361 -0.0345  1.0809 -1.3979
 1495Sol     MW 9302   2.716   2.913   4.413 -0.3825 -0.2301 -0.3045
 1496Sol     OW 9303   3.164   2.616   5.659 -0.3377  0.1535  0.4407
 1496Sol     HW 9304   3.095   2.559   5.625  0.7903  0.1315 -1.8920
 1496Sol     HW 9305   3.228   2.557   5.699  0.1296 -0.1050 -0.6912
 1496Sol     MW 9306   3.163   2.606   5.660  0.1226 -0.7249 -0.1052
 1497Sol     OW 9307   1.469   2.446   5.850  0.3556 -0.2458  0.1221
 1497Sol     HW 9308   1.390   2.394   5.847 -0.4180  0.8806  0.4608
 1497Sol     HW 9309   1.453   2.510   5.920  1.4165  0.1980 -0.0262
 1497Sol     MW 9310   1.461   2.447   5.856  0.2486  0.6380  0.2321
 1498Sol     OW 9311   2.078   3.290   7.422  0.1230 -0.5679 -0.2733
 1498Sol     HW 9312   2.159   3.307   7.469 -0.4543 -1.4158  1.0675
 1498Sol     HW 9313   2.068   3.195   7.425 -0.6134 -0.5220 -0.9461
 1498Sol     MW 9314   2.084   3.283   7.427 -0.1981  0.4518 -0.3242
 1499Sol     OW 9315   1.139   0.195   2.904 -0.6678  0.3899  0.1776
 1499Sol     HW 9316   1.186   0.122   2.863 -1.0916  0.4482 -0.4181
 1499Sol     HW 9317   1.107   0.159   2.987  0.4803  0.3705  0.6225
 1499Sol     MW 9318   1.140   0.185   2.908 -0.8251  0.0617  0.7310
 1500Sol     OW 9319   1.331   2.762   9.496 -0.4996  0.0120  0.2200
 1500Sol     HW 9320   1.343   2.669   9.515 -0.1030 -0.3433 -1.7025
 1500Sol     HW 9321   1.236   2.773   9.489 -0.5973 -0.0553  1.2483
 1500Sol     MW 9322   1.323   2.755   9.497  0.0302  0.6086 -0.7122
 1501Sol     OW 9323   1.593   1.517   7.973  0.7865  0.0186 -0.3693
 1501Sol     HW 9324   1.572   1.605   8.004  0.8667  0.7709 -2.3531
 1501Sol     HW 9325   1.511   1.485   7.935  0.4362 -1.2474  1.4099
 1501Sol     MW 9326   1.584   1.522   7.972 -0.3390 -0.1918  0.0133
 1502Sol     OW 9327   0.671   1.533   9.295  0.5192  0.2205 -0.5883
 1502Sol     HW 9328   0.670   1.588   9.217 -0.7742  0.1839 -0.6078
 1502Sol     HW 9329   0.742   1.470   9.279  0.2801  0.2292 -1.7327
 1502Sol     MW 9330   0.677   1.532   9.287 -0.3855 -0.2406  0.2492
 1503Sol     OW 9331   1.051   0.792   5.627  0.7707 -0.3139  0.7235
 1503Sol     HW 9332   1.052   0.853   5.700  0.4098 -0.6015  0.9727
 1503Sol     HW 9333   1.136   0.803   5.584  1.0131 -0.2010  1.2363
 1503Sol     MW 9334   1.059   0.798   5.629 -0.4175  0.0588 -0.2852
 1504Sol     OW 9335   3.170   1.958   4.321  0.4794  0.9841  0.4944
 1504Sol     HW 9336   3.131   1.957   4.408  3.0506  0.2273  1.7032
 1504Sol     HW 9337   3.127   1.885   4.275 -0.7650  1.2755  1.1773
 1504Sol     MW 9338   3.163   1.951   4.325 -0.2919 -0.1937  0.0220
 1505Sol     OW 9339   2.126   1.159   6.211 -0.1148  0.2051 -0.1234
 1505Sol     HW 9340   2.187   1.205   6.268 -0.7544 -0.8881  1.4772
 1505Sol     HW 9341   2.183   1.115   6.147  0.7535 -0.3007  0.9705
 1505Sol     MW 9342   2.137   1.159   6.210 -0.3836  0.0003 -0.7111
 1506Sol     OW 9343   0.352   2.635   3.786 -0.4500  0.1547  0.1050
 1506Sol     HW 9344   0.296   2.649   3.862 -1.0573  1.1017 -0.5099
 1506Sol     HW 9345   0.390   2.721   3.767  0.1271 -0.1896 -0.3298
 1506Sol     MW 9346   0.350   2.644   3.791 -0.0016 -0.2134  0.3368
 1507Sol     OW 9347   2.809   1.046   8.330  0.1494 -0.3315  0.1419
 1507Sol     HW 9348   2.773   1.020   8.245 -0.7613  2.3851 -0.3648
 1507Sol     HW 9349   2.896   1.007   8.333  0.7931  0.7956 -2.7301
 1507Sol     MW 9350   2.813   1.040   8.323  0.0116 -0.5776  0.0177
 1508Sol     OW 9351   1.742   1.047   4.205 -0.0290  0.0183 -0.0438
 1508Sol     HW 9352   1.694   0.973   4.242  1.2010 -1.7643 -1.9075
 1508Sol     HW 9353   1.833   1.016   4.200  0.3243  1.2877 -1.7825
 1508Sol     MW 9354   1.746   1.037   4.208  0.0599 -0.7735 -0.7696
 1509Sol     OW 9355   3.353   3.460   2.714  0.0242  0.1336  0.5411
 1509Sol     HW 9356   3.261   3.438   2.700  0.6941 -1.9648 -0.7322
 1509Sol     HW 9357   3.387   3.390   2.770  1.2901 -0.1312 -0.5357
 1509Sol     MW 9358   3.348   3.452   2.718 -0.2902  0.3536  0.0116
 1510Sol     OW 9359   1.188   0.434   3.203 -0.1768 -0.3850  0.0006
 1510Sol     HW 9360   1.130   0.386   3.263  0.9453  0.8597  2.1567
 1510Sol     HW 9361   1.257   0.371   3.180  0.1807 -0.4524  1.2106
 1510Sol     MW 9362   1.189   0.424   3.207 -0.0005 -0.7269 -0.5384
 1511Sol     OW 9363   0.786   1.692   9.482 -0.0125  0.4461  0.2266
 1511Sol     HW 9364   0.803   1.779   9.447  1.1878 -0.2773 -1.0163
 1511Sol     HW 9365   0.772   1.637   9.405 -2.2175 -0.1786  1.0364
 1511Sol     MW 9366   0.786   1.695   9.472  0.3565 -0.2993  0.2668
 1512Sol     OW 9367   2.045   1.735   5.019 -0.0271  0.0572 -0.0019
 1512Sol     HW 9368   2.093   1.692   4.949  0.7515 -1.5109  1.4936
 1512Sol     HW 9369   1.972   1.676   5.038 -0.1984  0.4536  0.5787
 1512Sol     MW 9370   2.042   1.726   5.014  0.6651 -0.8389  0.3941
 1513Sol     OW 9371   0.623   3.426   6.936  0.0827 -0.1390 -0.3308
 1513Sol     HW 9372   0.656   3.342   6.904 -1.5515 -1.2077  0.7167
 1513Sol     HW 9373   0.696   3.464   6.984  0.8319 -0.9526 -0.8179
 1513Sol     MW 9374   0.632   3.422   6.937 -0.0721 -0.8387 -0.8857
 1514Sol     OW 9375   2.858   0.292   5.431  0.7753  0.0029  0.3158
 1514Sol     HW 9376   2.896   0.323   5.349  0.0371 -0.5106 -0.2274
 1514Sol     HW 9377   2.777   0.342   5.441  0.3018 -0.7120  0.1609
 1514Sol     MW 9378   2.854   0.299   5.425 -0.2542  0.1464  0.1626
 1515Sol     OW 9379   0.750   0.299   7.087 -0.2139  0.2343 -0.1323
 1515Sol     HW 9380   0.730   0.305   7.180  1.1224 -0.3829  0.2224
 1515Sol     HW 9381   0.770   0.206   7.073  1.6588  0.6734 -0.5626
 1515Sol     MW 9382   0.750   0.291   7.094  0.8387  0.8355 -0.3050
 1516Sol     OW 9383   3.156   2.963   9.624  0.8825 -0.3662  0.0394
 1516Sol     HW 9384   3.245   2.999   9.627  1.0962 -0.7811 -1.0223
 1516Sol     HW 9385   3.101   3.030   9.663  1.3849  0.7731 -1.1739
 1516Sol     MW 9386   3.159   2.972   9.628  0.4584  0.3968 -0.2700
 1517Sol     OW 9387   2.066   2.361   6.025  0.2798 -0.6487  0.1842
 1517Sol     HW 9388   2.107   2.332   6.107  0.1274 -1.6356 -0.0767
 1517Sol     HW 9389   2.007   2.290   6.001  0.4200 -0.4318 -0.8560
 1517Sol     MW 9390   2.064   2.352   6.030  0.7745  0.4591  0.1014
 1518Sol     OW 9391   0.703   2.215   9.271 -0.5820  0.6452  0.2711
 1518Sol     HW 9392   0.621   2.209   9.320  0.0743 -1.8574  1.0967
 1518Sol     HW 9393   0.763   2.260   9.330 -0.5205 -0.1450  0.8213
 1518Sol     MW 9394   0.701   2.219   9.280  0.7891  0.2029 -0.4676
 1519Sol     OW 9395   1.212   1.906   2.529 -0.4431  0.0302 -0.4603
 1519Sol     HW 9396   1.206   2.002   2.535  0.5918  0.0596  0.2108
 1519Sol     HW 9397   1.135   1.881   2.478 -2.2460  0.9634  1.7291
 1519Sol     MW 9398   1.205   1.913   2.525 -0.0393 -0.4568 -0.3608
 1520Sol     OW 9399   2.104   0.388   2.922 -0.7917 -0.0893 -0.2832
 1520Sol     HW 9400   2.075   0.471   2.960  0.0620  0.9799 -1.9057
 1520Sol     HW 9401   2.073   0.322   2.983  0.8364  1.5813  2.4743
 1520Sol     MW 9402   2.099   0.390   2.931  0.2384  0.3421 -0.2504
 1521Sol     OW 9403   1.492   0.004   3.088  0.3920 -0.5436 -0.4209
 1521Sol     HW 9404   1.546   0.014   3.167 -1.3689 -0.5703  0.7953
 1521Sol     HW 9405   1.450  -0.081   3.099 -0.9536  0.0771 -0.7158
 1521Sol     MW 9406   1.493  -0.003   3.096 -0.2280 -0.5364 -1.1040
 1522Sol     OW 9407   0.197   2.451   7.393  0.4004  0.0780  0.0288
 1522Sol     HW 9408   0.221   2.538   7.425  0.2850 -0.6636  2.1662
 1522Sol     HW 9409   0.104   2.442   7.415  0.6767 -1.0087  0.7737
 1522Sol     MW 9410   0.191   2.458   7.398 -0.2623  0.2705  0.1932
 1523Sol     OW 9411   1.514   1.049   5.094 -0.5636  0.4334 -0.0505
 1523Sol     HW 9412   1.449   1.028   5.161 -0.4293  0.1056 -0.0223
 1523Sol     HW 9413   1.596   1.011   5.126 -1.0953 -2.3606 -1.7981
 1523Sol     MW 9414   1.516   1.044   5.102  0.7508  0.2823  0.1295
 1524Sol     OW 9415   2.332   1.419   9.517 -0.1119 -0.8350 -0.1348
 1524Sol     HW 9416   2.384   1.438   9.595 -1.8790 -0.3560  0.9493
 1524Sol     HW 9417   2.271   1.493   9.510 -1.8393 -2.2618 -0.3624
 1524Sol     MW 9418   2.332   1.428   9.523 -0.2402  0.1335 -0.1846
 1525Sol     OW 9419   1.157   0.731   6.738  0.2379 -0.5509  0.4980
 1525Sol     HW 9420   1.240   0.779   6.743  0.5819 -1.0611 -0.2962
 1525Sol     HW 9421   1.176   0.656   6.682  0.0878 -2.4442  2.9213
 1525Sol     MW 9422   1.166   0.729   6.733 -0.4734 -0.8318 -0.8311
 1526Sol     OW 9423   1.006   2.370   4.828  0.1600 -0.1254  0.3974
 1526Sol     HW 9424   1.014   2.290   4.879 -0.2205  0.4652  1.3997
 1526Sol     HW 9425   0.925   2.410   4.859  0.6933  0.9812  0.3852
 1526Sol     MW 9426   0.999   2.367   4.835  1.0793  0.2789 -0.1559
 1527Sol     OW 9427   2.043   3.260   2.532 -0.1954 -0.1411 -0.0247
 1527Sol     HW 9428   1.974   3.210   2.577 -0.2124  0.3418  0.4912
 1527Sol     HW 9429   2.063   3.208   2.454 -1.5248 -0.0228 -0.4674
 1527Sol     MW 9430   2.039   3.250   2.529  0.1029 -0.1836  0.2608
 1528Sol     OW 9431   2.743   2.940   6.083 -0.0381 -0.2284 -0.2948
 1528Sol     HW 9432   2.739   2.932   5.988 -0.6723  1.7185 -0.4503
 1528Sol     HW 9433   2.657   2.913   6.114  0.0153 -0.4075 -0.3010
 1528Sol     MW 9434   2.735   2.937   6.078  0.1249 -0.2416  0.1126
 1529Sol     OW 9435   3.142   2.625   4.797  1.1776 -0.3535  0.3195
 1529Sol     HW 9436   3.087   2.556   4.834  1.2646 -0.4085  0.3444
 1529Sol     HW 9437   3.138   2.696   4.862 -0.8399  0.6142 -0.7962
 1529Sol     MW 9438   3.136   2.625   4.806 -0.3452 -0.3563  0.6675
 1530Sol     OW 9439   2.163   2.285   2.997 -0.0764 -0.0699 -0.0736
 1530Sol     HW 9440   2.135   2.318   3.083 -0.4803  2.3863 -1.1053
 1530Sol     HW 9441   2.256   2.266   3.009 -0.0983  0.3553  0.8839
 1530Sol     MW 9442   2.169   2.286   3.006  0.1874  0.0062  0.0078
 1531Sol     OW 9443   2.018   3.002   3.556  0.2904  0.5801 -0.4607
 1531Sol     HW 9444   2.031   3.084   3.508  1.4034  0.4451 -0.4093
 1531Sol     HW 9445   2.028   2.933   3.490  0.0814  0.4641 -0.3714
 1531Sol     MW 9446   2.020   3.003   3.546 -0.7924  0.2455  0.1726
 1532Sol     OW 9447   1.078   2.058   4.572  0.0882  0.2378  0.5779
 1532Sol     HW 9448   1.006   2.040   4.511  0.8992 -0.8547 -0.0804
 1532Sol     HW 9449   1.068   2.151   4.594 -0.0728  0.7137 -1.4157
 1532Sol     MW 9450   1.071   2.065   4.569 -0.7514 -0.4559 -0.1965
 1533Sol     OW 9451   0.529   0.302   9.424  0.2172  0.3685  0.3892
 1533Sol     HW 9452   0.540   0.387   9.382 -0.7016  0.6724  0.7424
 1533Sol     HW 9453   0.440   0.304   9.459 -0.1333 -1.0729 -0.3626
 1533Sol     MW 9454   0.522   0.310   9.423 -0.4134 -0.4354  0.3255
 1534Sol     OW 9455   2.327   3.334   6.135  0.8376 -0.0731  0.0133
 1534Sol     HW 9456   2.324   3.262   6.071 -0.1008  0.1147 -0.1565
 1534Sol     HW 9457   2.333   3.413   6.081  1.1163  0.0215  0.1848
 1534Sol     MW 9458   2.327   3.335   6.124 -0.1504  0.4196 -0.3450
 1535Sol     OW 9459   2.074   2.757   2.132  0.4434 -0.0836 -0.4462
 1535Sol     HW 9460   2.007   2.825   2.122  1.5997  1.1767  0.2524
 1535Sol     HW 9461   2.150   2.792   2.086  2.2513  0.8125  3.1059
 1535Sol     MW 9462   2.075   2.766   2.127 -0.2347  0.9007 -0.3839
 1536Sol     OW 9463   0.091   0.133   3.186  0.0380 -0.0975 -0.4068
 1536Sol     HW 9464   0.131   0.080   3.117  0.5576 -0.5814  0.2593
 1536Sol     HW 9465   0.018   0.079   3.219 -0.3450  0.2244 -0.7221
 1536Sol     MW 9466   0.088   0.123   3.183  0.3830 -0.0329 -0.4766
 1537Sol     OW 9467   0.404   1.446   5.202  0.5021 -0.1321 -0.1579
 1537Sol     HW 9468   0.460   1.467   5.277 -0.5002 -1.3409  0.9414
 1537Sol     HW 9469   0.323   1.414   5.241 -0.1115 -0.5623 -1.7719
 1537Sol     MW 9470   0.402   1.445   5.212  0.1275  0.1125  1.1703
 1538Sol     OW 9471   1.483   1.778   5.904 -0.7843 -0.1173 -0.2301
 1538Sol     HW 9472   1.563   1.738   5.870 -0.3201  0.5189  0.1073
 1538Sol     HW 9473   1.412   1.733   5.858 -0.1751  0.4400 -1.7557
 1538Sol     MW 9474   1.483   1.771   5.897  0.0365  0.2261  0.1089
 1539Sol     OW 9475   2.588   2.220   5.577 -0.1627  0.0406  0.2968
 1539Sol     HW 9476   2.612   2.218   5.485  1.2765 -2.3276  0.6610
 1539Sol     HW 9477   2.498   2.187   5.580 -0.3962  0.6268 -0.3089
 1539Sol     MW 9478   2.583   2.217   5.569  0.7357 -0.2480  0.0490
 1540Sol     OW 9479   0.779   3.372   8.703 -0.1886 -0.0419 -0.2229
 1540Sol     HW 9480   0.750   3.445   8.649 -2.7708 -1.6883 -1.1592
 1540Sol     HW 9481   0.825   3.314   8.643  2.7322  1.2342  0.7139
 1540Sol     MW 9482   0.780   3.373   8.693  0.8910 -0.5209 -0.8727
 1541Sol     OW 9483   1.763   2.665   5.777 -0.2546  0.0487  0.1324
 1541Sol     HW 9484   1.689   2.711   5.816  0.3073  1.8451 -0.8426
 1541Sol     HW 9485   1.840   2.708   5.816  0.2774 -0.8972  0.1281
 1541Sol     MW 9486   1.763   2.673   5.784  0.3080 -0.7104 -0.1630
 1542Sol     OW 9487   3.163   1.071   9.812 -0.0416 -0.2475 -0.7527
 1542Sol     HW 9488   3.177   1.165   9.822  0.6280 -0.4644  0.5583
 1542Sol     HW 9489   3.134   1.060   9.722 -0.2737  1.2325 -0.8698
 1542Sol     MW 9490   3.162   1.079   9.805 -0.1412  0.3523 -0.4870
 1543Sol     OW 9491   2.669   0.743   5.691  0.1400 -0.1078  0.7201
 1543Sol     HW 9492   2.602   0.745   5.760  0.1497 -1.1266  0.7608
 1543Sol     HW 9493   2.640   0.808   5.627 -1.0004 -0.7020  0.6328
 1543Sol     MW 9494   2.660   0.749   5.692 -0.3963  0.3521 -0.4653
 1544Sol     OW 9495   0.533   2.702   5.095  0.0060 -0.0678 -0.6967
 1544Sol     HW 9496   0.524   2.713   5.001  1.1275 -0.8208 -0.8927
 1544Sol     HW 9497   0.500   2.614   5.113 -0.1138  0.0353 -0.3925
 1544Sol     MW 9498   0.529   2.695   5.088  0.2864  0.5364 -0.5543
 1545Sol     OW 9499   0.040   0.923   3.127  0.7232 -0.1063 -0.3436
 1545Sol     HW 9500   0.114   0.862   3.119 -0.6191 -1.5341 -2.4576
 1545Sol     HW 9501  -0.033   0.868   3.156  0.3046  1.1821  1.1281
 1545Sol     MW 9502   0.040   0.913   3.129 -0.1880 -0.0812 -0.0971
 1546Sol     OW 9503   2.593   0.924   7.738  0.2568 -0.3907  0.7157
 1546Sol     HW 9504   2.504   0.887   7.740  1.3297 -3.0751  1.2485
 1546Sol     HW 9505   2.640   0.876   7.806  2.4703  0.0713 -0.4657
 1546Sol     MW 9506   2.589   0.916   7.744 -0.2130 -0.0739  0.3826
 1547Sol     OW 9507   2.120   0.393   6.703  0.1185  0.3225  0.3383
 1547Sol     HW 9508   2.126   0.311   6.654  0.7148 -0.4934  1.7484
 1547Sol     HW 9509   2.043   0.438   6.666 -0.9970 -1.4590  0.4285
 1547Sol     MW 9510   2.113   0.390   6.695  0.1703 -0.1189 -0.3296
 1548Sol     OW 9511   2.355   0.930   5.650 -0.1435  0.4977 -0.2248
 1548Sol     HW 9512   2.389   0.867   5.714  1.9107  0.1296 -1.6164
 1548Sol     HW 9513   2.274   0.890   5.618  0.8261 -1.1696 -0.6607
 1548Sol     MW 9514   2.351   0.921   5.653 -0.1741 -0.4995 -0.0127
 1549Sol     OW 9515   0.554   2.635   7.798  0.0628  0.1329 -0.0554
 1549Sol     HW 9516   0.546   2.570   7.868 -0.4341  0.2668  0.0122
 1549Sol     HW 9517   0.483   2.697   7.815 -0.5304 -0.2420 -1.1184
 1549Sol     MW 9518   0.547   2.635   7.806  0.0189  0.6038 -0.6438
 1550Sol     OW 9519   2.656   0.749   7.076 -0.3230 -0.0356  0.1829
 1550Sol     HW 9520   2.630   0.753   6.984 -0.0541  1.2730  0.1514
 1550Sol     HW 9521   2.751   0.756   7.075 -0.4016  1.2847  0.6142
 1550Sol     MW 9522   2.662   0.750   7.068 -0.1634  0.2440 -0.0164
 1551Sol     OW 9523   1.406   2.455   4.379  0.9688  0.1144 -0.2684
 1551Sol     HW 9524   1.396   2.503   4.461  1.2308 -1.1279  0.5118
 1551Sol     HW 9525   1.484   2.492   4.338  1.4387  0.0328  0.5492
 1551Sol     MW 9526   1.412   2.462   4.383 -0.3345 -0.2279  0.8704
 1552Sol     OW 9527   1.188   3.210   6.061  0.1573 -0.2837 -0.3566
 1552Sol     HW 9528   1.284   3.210   6.066  0.1661  1.9057  0.2226
 1552Sol     HW 9529   1.162   3.139   6.120  1.3743  1.0140  1.8264
 1552Sol     MW 9530   1.195   3.203   6.067 -0.8400  0.4564  0.0330
 1553Sol     OW 9531   3.037   0.433   9.304  0.5739  0.0089 -0.7136
 1553Sol     HW 9532   3.010   0.492   9.234 -0.4160 -1.6681 -1.7777
 1553Sol     HW 9533   3.095   0.370   9.262 -1.8561 -2.4241 -0.5762
 1553Sol     MW 9534   3.040   0.432   9.294  0.5617 -0.3882  0.9364
 1554Sol     OW 9535   0.339   0.696   7.574  0.0312  0.5051 -0.9640
 1554Sol     HW 9536   0.363   0.787   7.558  1.5431  0.5686  1.4039
 1554Sol     HW 9537   0.255   0.700   7.619  0.6156  0.7687  0.0920
 1554Sol     MW 9538   0.334   0.704   7.576  0.4842 -0.0221 -0.1021
 1555Sol     OW 9539   1.231   0.932   2.334  0.7872 -0.2867 -0.0327
 1555Sol     HW 9540   1.254   1.017   2.371 -1.1477 -0.7962  2.5021
 1555Sol     HW 9541   1.151   0.907   2.379  0.3679 -2.6890 -1.9832
 1555Sol     MW 9542   1.226   0.938   2.341  0.4501 -0.1140 -0.3962
 1556Sol     OW 9543   1.562   2.564   2.955 -0.3000 -0.3145 -0.2044
 1556Sol     HW 9544   1.533   2.618   3.029 -0.5538  0.1065 -0.6066
 1556Sol     HW 9545   1.658   2.573   2.957 -0.4563  2.3503 -1.8751
 1556Sol     MW 9546   1.568   2.570   2.962  0.0465 -0.7672 -0.1100
 1557Sol     OW 9547   1.601   2.966   3.886  0.0882 -0.0294  0.2095
 1557Sol     HW 9548   1.668   2.964   3.818  1.5733  0.1722  1.6565
 1557Sol     HW 9549   1.568   2.876   3.890  1.2326 -0.4430  0.4431
 1557Sol     MW 9550   1.604   2.958   3.880 -0.1083 -0.4657 -0.6659
 1558Sol     OW 9551   1.007   1.566   9.610  0.4429 -0.2790  0.3135
 1558Sol     HW 9552   0.950   1.636   9.578  1.4301  0.9773  1.2585
 1558Sol     HW 9553   1.045   1.528   9.530 -0.2598  0.1201 -0.2152
 1558Sol     MW 9554   1.005   1.568   9.600 -0.2386 -0.0594  0.4067
 1559Sol     OW 9555   2.042   2.822   5.115  0.5139  0.2781 -0.1915
 1559Sol     HW 9556   1.976   2.878   5.156  0.2291 -0.4007  0.2864
 1559Sol     HW 9557   2.125   2.865   5.137  0.3856 -0.1967  1.3354
 1559Sol     MW 9558   2.044   2.831   5.121 -0.1877  0.2004  0.0779
 1560Sol     OW 9559   0.645   2.371   6.358  0.4533  0.5063 -0.3915
 1560Sol     HW 9560   0.709   2.334   6.298 -0.5597  0.8048 -1.6571
 1560Sol     HW 9561   0.592   2.296   6.387 -0.8685  0.7690 -2.0746
 1560Sol     MW 9562   0.646   2.361   6.356 -0.6532 -0.0826  0.6442
 1561Sol     OW 9563   2.749   2.817   5.757 -0.2110  0.1388 -0.2874
 1561Sol     HW 9564   2.714   2.757   5.824  0.7471  0.6352  0.6754
 1561Sol     HW 9565   2.844   2.807   5.764 -0.0784  0.9989 -0.8373
 1561Sol     MW 9566   2.754   2.810   5.764  0.0230 -0.8432  0.1713
 1562Sol     OW 9567   3.016   3.073   5.115  0.0412 -0.4857 -0.1106
 1562Sol     HW 9568   2.980   3.160   5.131 -1.7832 -1.6037  2.1939
 1562Sol     HW 9569   3.087   3.063   5.177 -1.3493 -1.5197  1.3718
 1562Sol     MW 9570   3.019   3.080   5.122  0.1015 -0.0280  0.5649
 1563Sol     OW 9571   2.661   3.034   6.946 -0.5603 -0.1898 -0.6299
 1563Sol     HW 9572   2.570   3.061   6.931 -0.7812 -0.6518 -0.1351
 1563Sol     HW 9573   2.699   3.107   6.996 -1.0824 -0.6657  0.4795
 1563Sol     MW 9574   2.656   3.043   6.949 -0.0088  0.3438 -0.5829
 1564Sol     OW 9575   2.739   0.819   7.491  0.4644  0.0151 -0.9380
 1564Sol     HW 9576   2.682   0.843   7.418 -0.6231 -1.3303 -0.5328
 1564Sol     HW 9577   2.710   0.874   7.563 -0.4623 -0.8209 -0.6716
 1564Sol     MW 9578   2.731   0.826   7.491 -0.2390 -0.3455  0.0251
 1565Sol     OW 9579   2.741   2.493   2.515  0.9212 -0.2034 -0.2686
 1565Sol     HW 9580   2.778   2.506   2.602 -0.3522  0.2449  0.2147
 1565Sol     HW 9581   2.784   2.559   2.461  2.2842 -0.9822 -0.1625
 1565Sol     MW 9582   2.748   2.500   2.518  0.4586 -0.3829 -0.7125
 1566Sol     OW 9583   3.095   1.136   6.146  0.5754 -0.1312  0.1582
 1566Sol     HW 9584   3.123   1.088   6.068 -1.6982 -0.1010 -0.7321
 1566Sol     HW 9585   3.057   1.217   6.112 -2.4070 -1.0677  1.1088
 1566Sol     MW 9586   3.094   1.139   6.136  0.2852  0.3550 -0.0988
 1567Sol     OW 9587   1.104   1.741   4.951  0.4778  0.3945 -0.0555
 1567Sol     HW 9588   1.150   1.711   4.873 -0.6798 -0.5833 -0.3935
 1567Sol     HW 9589   1.155   1.814   4.984  1.6217  0.0533 -1.0654
 1567Sol     MW 9590   1.112   1.745   4.947 -0.4306 -0.2073 -0.3075
 1568Sol     OW 9591   0.876   3.173   8.012  1.1565  0.6875  0.4169
 1568Sol     HW 9592   0.898   3.225   8.090  3.2794  0.2167  0.1783
 1568Sol     HW 9593   0.858   3.237   7.944  1.2966  1.1052  0.7729
 1568Sol     MW 9594   0.877   3.183   8.013  0.2767 -0.2804  0.0523
 1569Sol     OW 9595   2.205   3.353   6.564  0.3430 -0.1228 -0.0152
 1569Sol     HW 9596   2.208   3.353   6.660  0.4784 -1.0968 -0.0119
 1569Sol     HW 9597   2.125   3.305   6.543  0.7358 -0.6023 -0.3988
 1569Sol     MW 9598   2.198   3.349   6.571  0.2760  0.0950 -0.3947
 1570Sol     OW 9599   0.703   1.727   9.090 -0.0158 -0.9365 -0.0602
 1570Sol     HW 9600   0.785   1.697   9.052  0.5641 -1.1431  1.3115
 1570Sol     HW 9601   0.717   1.820   9.108 -1.3780 -0.0572 -3.1660
 1570Sol     MW 9602   0.711   1.733   9.088  0.7317 -0.0674 -0.0755
 1571Sol     OW 9603   1.102   0.334   7.724 -0.5506  0.0443 -0.3640
 1571Sol     HW 9604   1.121   0.252   7.679 -1.3210  0.5003 -1.5543
 1571Sol     HW 9605   1.184   0.383   7.721 -0.7381  0.2901 -1.7587
 1571Sol     MW 9606   1.111   0.331   7.719 -0.2795 -0.2881  0.4491
 1572Sol     OW 9607   2.725   2.904   7.492  0.3860  0.1329  0.0443
 1572Sol     HW 9608   2.675   2.915   7.573 -2.0004 -1.0168 -1.1960
 1572Sol     HW 9609   2.707   2.983   7.442  0.4535  0.0781 -0.0659
 1572Sol     MW 9610   2.719   2.912   7.495  0.4268  0.2867 -0.1293
 1573Sol     OW 9611   1.336   0.248   9.045  0.1295  0.3740  0.1142
 1573Sol     HW 9612   1.430   0.235   9.056  0.1455  0.1417 -0.2880
 1573Sol     HW 9613   1.329   0.314   8.977  0.0129  0.9984  0.7249
 1573Sol     MW 9614   1.344   0.253   9.040 -0.2244  0.5348  0.4599
 1574Sol     OW 9615   0.030   2.678   2.474 -0.6383 -0.4040  0.0191
 1574Sol     HW 9616   0.073   2.598   2.443 -0.6836 -0.1938 -0.5848
 1574Sol     HW 9617  -0.008   2.653   2.558 -0.7466 -1.0545 -0.2171
 1574Sol     MW 9618   0.030   2.668   2.479  0.0716 -0.0541 -0.5223
 1575Sol     OW 9619   1.606   0.216   8.558  0.3686  0.4359 -0.0669
 1575Sol     HW 9620   1.586   0.130   8.522  0.1097  0.5662 -0.2443
 1575Sol     HW 9621   1.605   0.204   8.652  2.0710 -0.1300 -0.1080
 1575Sol     MW 9622   1.604   0.207   8.563 -0.4335  0.8751  0.2185
 1576Sol     OW 9623   0.665   0.198   6.242  0.4162 -0.1415 -0.2669
 1576Sol     HW 9624   0.630   0.287   6.232  0.2875 -0.3695 -2.1031
 1576Sol     HW 9625   0.675   0.166   6.152 -0.4910 -2.3679  0.3896
 1576Sol     MW 9626   0.663   0.203   6.233 -0.0742  0.4368  0.1752
 1577Sol     OW 9627   2.844   2.276   7.691 -0.0303  0.1151 -0.1572
 1577Sol     HW 9628   2.763   2.227   7.683  0.3297 -0.6273  0.6780
 1577Sol     HW 9629   2.896   2.249   7.615 -0.1463 -0.2120 -0.1210
 1577Sol     MW 9630   2.842   2.269   7.684  0.3998 -0.4239  0.3265
 1578Sol     OW 9631   2.254   2.501   3.957  0.3632  0.0003 -0.9437
 1578Sol     HW 9632   2.204   2.514   4.038  1.1855 -1.2312 -0.2130
 1578Sol     HW 9633   2.199   2.538   3.888 -0.2861  1.2242  0.1994
 1578Sol     MW 9634   2.245   2.506   3.958  0.0950 -0.3264  0.1618
 1579Sol     OW 9635   0.975   0.359   7.474  0.6433 -0.3483  0.3591
 1579Sol     HW 9636   1.015   0.440   7.444 -1.6354  0.7933  0.3090
 1579Sol     HW 9637   0.991   0.357   7.568  1.4358 -0.2740  0.2268
 1579Sol     MW 9638   0.980   0.366   7.480  0.0254  0.3920  0.0737
 1580Sol     OW 9639   2.249   2.837   2.595  0.1204  0.4437 -0.0071
 1580Sol     HW 9640   2.273   2.753   2.633 -0.5392  0.4683  0.4772
 1580Sol     HW 9641   2.328   2.867   2.549  1.3132  0.9394  2.2949
 1580Sol     MW 9642   2.258   2.832   2.594  1.0729 -0.1046 -0.3054
 1581Sol     OW 9643   2.174   2.583   4.771  0.3791 -0.0746 -0.2467
 1581Sol     HW 9644   2.182   2.495   4.733  2.4017  0.7685 -1.9204
 1581Sol     HW 9645   2.263   2.618   4.769 -0.3448  1.9084  0.6723
 1581Sol     MW 9646   2.183   2.578   4.767 -0.0328  0.2576  0.0327
 1582Sol     OW 9647   1.544   2.081   8.773 -0.4729 -0.0028  0.3124
 1582Sol     HW 9648   1.520   2.120   8.689 -1.3940  0.7840  0.9214
 1582Sol     HW 9649   1.575   1.993   8.751  0.3990  0.6018 -0.9567
 1582Sol     MW 9650   1.545   2.077   8.763 -0.3177 -0.4288 -0.4161
 1583Sol     OW 9651   1.737   3.258   5.575  0.2159 -0.0437 -0.5121
 1583Sol     HW 9652   1.687   3.178   5.557  2.5610 -1.3349 -1.4252
 1583Sol     HW 9653   1.679   3.309   5.632 -1.2194 -2.5081  0.3456
 1583Sol     MW 9654   1.727   3.255   5.579  0.3990 -0.3969 -0.3874
 1584Sol     OW 9655   2.923   1.134   4.032  0.4031 -0.5205  0.1572
 1584Sol     HW 9656   2.843   1.131   3.979 -0.5002  1.6533  1.3147
 1584Sol     HW 9657   2.909   1.072   4.103 -0.1807 -0.3068  0.2292
 1584Sol     MW 9658   2.915   1.128   4.033 -0.4909 -0.0785  0.1313
 1585Sol     OW 9659   3.276   2.908   2.907  0.2914  0.0147  0.1574
 1585Sol     HW 9660   3.352   2.940   2.859 -0.1734  1.5747  0.4439
 1585Sol     HW 9661   3.227   2.857   2.843  1.7077 -1.2623  0.0443
 1585Sol     MW 9662   3.278   2.906   2.897 -0.7955 -0.1758 -0.6867
 1586Sol     OW 9663   0.958   0.004   3.459  0.1996 -0.5322  0.2426
 1586Sol     HW 9664   1.006  -0.067   3.416 -1.2187 -0.9839 -0.6345
 1586Sol     HW 9665   0.867  -0.026   3.461 -0.7023  1.8843 -1.5688
 1586Sol     MW 9666   0.954  -0.005   3.455  0.1812 -0.7532 -0.0194
 1587Sol     OW 9667   1.265   1.343   6.742  0.2815 -0.2087 -0.0293
 1587Sol     HW 9668   1.320   1.382   6.810  3.6838 -0.4593 -2.5011
 1587Sol     HW 9669   1.217   1.418   6.705  1.1633  0.4723  0.1927
 1587Sol     MW 9670   1.266   1.353   6.745  0.2799 -0.2654 -0.7002
 1588Sol     OW 9671   2.027   1.379   2.322  0.7809 -0.0510 -0.6714
 1588Sol     HW 9672   1.996   1.357   2.410  4.6027  1.4147  1.1684
 1588Sol     HW 9673   1.990   1.466   2.304 -0.9094 -0.8273 -1.0199
 1588Sol     MW 9674   2.021   1.385   2.328 -0.0495  0.2109 -0.4697
 1589Sol     OW 9675   2.680   0.013   5.742 -0.0380 -0.4858  0.5488
 1589Sol     HW 9676   2.720   0.095   5.771 -1.6821  0.1946  0.9299
 1589Sol     HW 9677   2.677   0.020   5.646  0.9113 -0.6248  0.5054
 1589Sol     MW 9678   2.683   0.021   5.736 -0.2260 -0.2795  0.0493
 1590Sol     OW 9679   1.213   1.086   9.009 -0.1846  0.3161 -0.0797
 1590Sol     HW 9680   1.208   1.142   8.931 -2.6743 -1.3533 -1.2061
 1590Sol     HW 9681   1.284   1.024   8.990 -0.5919  0.1009 -0.9258
 1590Sol     MW 9682   1.219   1.085   9.000 -0.2604 -0.3180 -0.0787
 1591Sol     OW 9683   0.445   2.097   2.544 -0.7153  0.3133  0.2576
 1591Sol     HW 9684   0.441   2.003   2.563 -1.5146 -0.1867 -2.1857
 1591Sol     HW 9685   0.356   2.119   2.515 -0.0141  1.3971 -1.0984
 1591Sol     MW 9686   0.436   2.091   2.543 -0.7783 -0.2534 -0.0889
 1592Sol     OW 9687   3.127   2.725   7.108  0.5301 -0.3118  0.5514
 1592Sol     HW 9688   3.056   2.664   7.090  0.8827 -0.2705 -1.0183
 1592Sol     HW 9689   3.110   2.801   7.052  2.3298 -0.7138 -0.6078
 1592Sol     MW 9690   3.119   2.727   7.102  0.5911 -0.9835  0.8188
 1593Sol     OW 9691   2.133   3.461   2.195  0.1476 -0.0845 -0.5583
 1593Sol     HW 9692   2.215   3.493   2.233  0.8814 -1.9431 -0.5054
 1593Sol     HW 9693   2.154   3.372   2.166 -0.9657  0.5242 -3.4002
 1593Sol     MW 9694   2.143   3.456   2.196 -0.2893  0.0198 -0.0122
 1594Sol     OW 9695   2.750   0.858   3.785 -0.3126  0.0383  0.3811
 1594Sol     HW 9696   2.844   0.868   3.769 -0.1409 -0.6963  0.9211
 1594Sol     HW 9697   2.713   0.944   3.764  0.2802 -0.0942 -1.2523
 1594Sol     MW 9698   2.756   0.867   3.782  0.4504  0.6915  0.0642
 1595Sol     OW 9699   3.015   3.027   1.750 -0.5940  0.1374  0.2004
 1595Sol     HW 9700   2.937   3.078   1.727 -1.6693 -1.3846  0.3900
 1595Sol     HW 9701   3.077   3.091   1.784 -2.6119  1.0551  2.2314
 1595Sol     MW 9702   3.013   3.037   1.751  0.2541  0.7077 -0.0851
 1596Sol     OW 9703   0.969   1.547   6.336 -0.1059  0.2398 -0.5680
 1596Sol     HW 9704   0.974   1.459   6.297 -1.5048 -0.3989  0.6365
 1596Sol     HW 9705   0.878   1.556   6.363  0.6187  1.0261  1.7230
 1596Sol     MW 9706   0.961   1.540   6.335  0.0301 -0.4018 -0.4048
 1597Sol     OW 9707   0.406   1.689   5.000  0.2068 -0.2462 -0.0170
 1597Sol     HW 9708   0.324   1.705   4.953  1.5714 -0.0702 -2.4116
 1597Sol     HW 9709   0.386   1.615   5.058 -1.8418  0.2820 -0.0225
 1597Sol     MW 9710   0.397   1.684   5.001 -0.8835  0.0807 -0.6003
 1598Sol     OW 9711   2.242   3.325   1.912  0.2398  0.0651  0.7086
 1598Sol     HW 9712   2.162   3.285   1.944  0.1769  0.9953  1.7251
 1598Sol     HW 9713   2.228   3.419   1.921  0.6517  0.3177 -1.0130
 1598Sol     MW 9714   2.234   3.330   1.915 -0.2940 -1.1780  0.6120
 1599Sol     OW 9715   0.450   2.200   6.414 -0.4445  0.1764 -0.3293
 1599Sol     HW 9716   0.403   2.229   6.492  2.0262  1.5809  0.7021
 1599Sol     HW 9717   0.433   2.106   6.409 -0.8636  0.1215  1.7387
 1599Sol     MW 9718   0.445   2.194   6.421  0.6502 -0.6740  0.0536
 1600Sol     OW 9719   2.284   0.865   6.269 -0.0736  0.3092  0.6228
 1600Sol     HW 9720   2.329   0.926   6.210  0.4331  0.8193  1.5362
 1600Sol     HW 9721   2.341   0.860   6.346  0.4550 -2.1618  0.1213
 1600Sol     MW 9722   2.293   0.870   6.271 -0.9089  0.2866 -0.9209
 1601Sol     OW 9723   1.747   1.867   6.446 -0.3795  0.0221  0.3862
 1601Sol     HW 9724   1.750   1.877   6.351 -0.4996 -0.1976  0.3578
 1601Sol     HW 9725   1.822   1.811   6.467  0.6901  1.5355  0.6208
 1601Sol     MW 9726   1.754   1.863   6.439  0.1220  0.4594 -0.3383
 1602Sol     OW 9727   0.295   3.372   6.093 -0.4386  0.3791 -0.0113
 1602Sol     HW 9728   0.241   3.298   6.122 -2.0004  2.1789  1.8814
 1602Sol     HW 9729   0.368   3.374   6.156  0.1472 -0.1577 -0.6725
 1602Sol     MW 9730   0.297   3.366   6.102 -0.0734 -0.0114 -0.0006
 1603Sol     OW 9731   2.140   0.543   9.425 -0.2494 -0.0647  0.1362
 1603Sol     HW 9732   2.230   0.522   9.398 -0.6149  0.0929 -1.2480
 1603Sol     HW 9733   2.147   0.628   9.468  0.3181 -0.2169  0.3546
 1603Sol     MW 9734   2.149   0.549   9.426  0.4499  0.6219  0.3352
 1604Sol     OW 9735   1.210   2.810   2.575  0.3936  0.0543 -0.0280
 1604Sol     HW 9736   1.255   2.772   2.651  2.1040  0.9574 -0.5801
 1604Sol     HW 9737   1.280   2.846   2.521 -1.0869  2.9658 -0.0998
 1604Sol     MW 9738   1.220   2.810   2.577  0.0449 -0.2111  0.7298
 1605Sol     OW 9739   2.858   1.713   8.705 -0.1888 -0.0531  1.0138
 1605Sol     HW 9740   2.902   1.793   8.736 -0.8926  1.3641 -1.4743
 1605Sol     HW 9741   2.788   1.698   8.767 -0.0419  1.2897  1.5193
 1605Sol     MW 9742   2.856   1.719   8.713  0.7050  0.8785 -0.0663
 1606Sol     OW 9743   0.690   0.448   5.102 -0.4249 -0.3458  0.5052
 1606Sol     HW 9744   0.730   0.365   5.075  0.2643  0.2988 -0.5136
 1606Sol     HW 9745   0.754   0.488   5.160  0.5700  0.8137 -1.3475
 1606Sol     MW 9746   0.699   0.444   5.104  0.3820  0.1328 -0.6022
 1607Sol     OW 9747   0.298   2.472   5.791  0.4036  0.1466 -0.6174
 1607Sol     HW 9748   0.306   2.403   5.856 -0.3167  0.4048 -0.2374
 1607Sol     HW 9749   0.383   2.477   5.749  1.0111  0.2689  0.6180
 1607Sol     MW 9750   0.306   2.467   5.793  0.5053 -0.1531  0.5071
 1608Sol     OW 9751   0.206   1.714   8.771 -0.2531  0.2869  0.1933
 1608Sol     HW 9752   0.158   1.797   8.769 -0.4536  0.1953  0.9233
 1608Sol     HW 9753   0.287   1.734   8.818 -0.0866  0.1803 -0.0491
 1608Sol     MW 9754   0.209   1.723   8.775 -0.5479 -0.0795 -0.0589
 1609Sol     OW 9755   1.036   2.666   2.438 -0.3497 -0.4644 -0.2882
 1609Sol     HW 9756   1.010   2.725   2.367 -1.7950 -0.6420  0.0762
 1609Sol     HW 9757   1.100   2.716   2.489 -0.8514  0.4342 -0.5348
 1609Sol     MW 9758   1.040   2.676   2.436  0.3423 -0.3159 -0.6111
 1610Sol     OW 9759   2.115   2.782   9.298 -0.1034 -0.0715  0.0728
 1610Sol     HW 9760   2.084   2.873   9.293  1.2698  0.4270  0.5565
 1610Sol     HW 9761   2.209   2.788   9.286  0.1491 -1.3190  1.3185
 1610Sol     MW 9762   2.120   2.791   9.296  0.5901  0.1099  0.2457
 1611Sol     OW 9763   2.986   0.629   7.743 -0.1265  0.5487 -0.3757
 1611Sol     HW 9764   3.019   0.547   7.780  0.0992  0.3662 -0.9786
 1611Sol     HW 9765   2.937   0.603   7.664 -2.1613  0.7612  0.7699
 1611Sol     MW 9766   2.984   0.619   7.739 -0.6626 -0.5312  0.1489
 1612Sol     OW 9767   1.049   3.275   9.537 -0.7710  0.1295  0.3061
 1612Sol     HW 9768   1.041   3.312   9.625 -2.2157 -0.9092  0.6204
 1612Sol     HW 9769   1.072   3.183   9.552 -0.5215  0.0719 -0.4175
 1612Sol     MW 9770   1.050   3.270   9.546  0.2247 -0.6880  0.4907
 1613Sol     OW 9771   3.173   1.215   7.075  0.0572 -0.0556  0.3309
 1613Sol     HW 9772   3.108   1.229   7.006  0.0767  2.5341  0.7771
 1613Sol     HW 9773   3.121   1.197   7.153  0.0089 -1.9519 -0.1148
 1613Sol     MW 9774   3.163   1.215   7.076  0.1806  1.2613  0.4064
 1614Sol     OW 9775   1.434   0.819   2.195  0.5831 -0.6165  0.0508
 1614Sol     HW 9776   1.507   0.877   2.215  1.0482 -0.6065 -1.6187
 1614Sol     HW 9777   1.362   0.852   2.250  0.8805  1.4627 -0.7412
 1614Sol     MW 9778   1.434   0.827   2.201 -0.3664  0.5034  0.0158
 1615Sol     OW 9779   0.823   3.273   1.918 -0.4141 -0.3841  0.0270
 1615Sol     HW 9780   0.874   3.195   1.895 -0.1270 -0.2878  0.3376
 1615Sol     HW 9781   0.803   3.313   1.833 -0.3045 -0.6308 -0.1178
 1615Sol     MW 9782   0.826   3.269   1.908 -0.4855 -0.3095 -0.2695
 1616Sol     OW 9783   2.347   2.006   7.168 -0.1535 -0.8741 -0.4479
 1616Sol     HW 9784   2.440   2.027   7.181  0.1007 -2.1806 -0.1474
 1616Sol     HW 9785   2.331   2.029   7.076  0.7133 -1.4960 -0.7715
 1616Sol     MW 9786   2.354   2.010   7.161 -0.0081 -0.2672  0.3092
 1617Sol     OW 9787   1.682   1.529   2.950 -0.7785 -0.1488 -0.7902
 1617Sol     HW 9788   1.723   1.610   2.981  1.2421 -0.2392 -3.0889
 1617Sol     HW 9789   1.751   1.462   2.959 -1.6887 -1.1428 -1.0769
 1617Sol     MW 9790   1.692   1.530   2.954 -0.7236  0.4347 -0.6925
 1618Sol     OW 9791   0.847   2.405   2.256 -0.2731 -1.2793 -0.2719
 1618Sol     HW 9792   0.788   2.380   2.326 -0.7060 -0.1962 -0.2460
 1618Sol     HW 9793   0.816   2.491   2.227 -0.7511 -2.1612 -2.5064
 1618Sol     MW 9794   0.839   2.410   2.260  0.5886  0.9277  0.4607
 1619Sol     OW 9795   1.312   1.838   7.031 -0.3495 -0.0243 -0.1986
 1619Sol     HW 9796   1.220   1.852   7.007 -0.9243 -3.3098 -0.2059
 1619Sol     HW 9797   1.361   1.855   6.951 -0.9893  1.3504 -0.3072
 1619Sol     MW 9798   1.308   1.841   7.022 -0.3661 -0.0329 -0.2629
 1620Sol     OW 9799   2.076   3.114   8.410 -0.1293  0.1202 -0.0052
 1620Sol     HW 9800   2.124   3.132   8.491 -1.5304 -1.1091  1.1070
 1620Sol     HW 9801   1.985   3.106   8.437 -0.8903  1.6829 -1.9992
 1620Sol     MW 9802   2.072   3.115   8.420 -0.4710 -0.1842  0.0549
 1621Sol     OW 9803   2.436   0.278   2.154 -0.1678  0.6829  0.8302
 1621Sol     HW 9804   2.409   0.252   2.066  0.3934  1.4290  0.4408
 1621Sol     HW 9805   2.367   0.337   2.183 -1.3652 -1.0594  1.6566
 1621Sol     MW 9806   2.427   0.281   2.149  0.1006  0.5050 -0.1276
 1622Sol     OW 9807   0.246   1.147   5.619 -0.1926 -0.1309  0.0003
 1622Sol     HW 9808   0.156   1.164   5.592 -0.0932 -0.7078 -0.7017
 1622Sol     HW 9809   0.298   1.156   5.539  0.3931  0.3239  0.4256
 1622Sol     MW 9810   0.243   1.149   5.609  0.3386  0.1241 -0.0172
 1623Sol     OW 9811   1.391   0.938   7.424 -0.5539  0.0504 -0.1967
 1623Sol     HW 9812   1.331   1.009   7.401  1.1636  0.4804 -3.7564
 1623Sol     HW 9813   1.478   0.977   7.418  0.2889 -1.6019  0.7789
 1623Sol     MW 9814   1.393   0.948   7.421  0.8499 -0.1404 -0.4701
 1624Sol     OW 9815   0.944   2.448   6.753 -0.2197  0.0648  0.0199
 1624Sol     HW 9816   1.006   2.445   6.825  2.2589 -0.9314 -2.0774
 1624Sol     HW 9817   0.961   2.368   6.703 -0.5310  1.6118 -2.7171
 1624Sol     MW 9818   0.951   2.440   6.755 -0.2701  0.4482 -0.1031
 1625Sol     OW 9819   1.867   1.022   3.318  0.0779  0.0735 -0.3482
 1625Sol     HW 9820   1.937   0.981   3.369 -0.3513  1.1531  1.1421
 1625Sol     HW 9821   1.897   1.112   3.305  0.8482 -0.5657 -3.2791
 1625Sol     MW 9822   1.876   1.026   3.322 -0.2403  0.1148  0.0352
 1626Sol     OW 9823   0.221   0.220   5.822 -0.0489 -0.5116 -0.0576
 1626Sol     HW 9824   0.178   0.144   5.784 -0.2738 -0.4716  0.1168
 1626Sol     HW 9825   0.237   0.279   5.748 -0.7299 -0.3145 -0.0489
 1626Sol     MW 9826   0.219   0.219   5.812  0.6645  0.7604  0.5143
 1627Sol     OW 9827   1.952   1.362   2.585 -0.6723  0.5927 -0.7643
 1627Sol     HW 9828   1.890   1.295   2.558 -0.6663 -0.8215  2.5543
 1627Sol     HW 9829   1.902   1.420   2.643  0.1120  1.6710 -1.1402
 1627Sol     MW 9830   1.942   1.361   2.588 -0.7384  0.2160 -0.2589
 1628Sol     OW 9831   2.071   2.594   3.773 -0.2942  0.2363 -0.6700
 1628Sol     HW 9832   2.081   2.689   3.774  1.3592  0.0730 -0.1707
 1628Sol     HW 9833   2.111   2.567   3.690 -0.0065 -0.1025 -0.4205
 1628Sol     MW 9834   2.075   2.600   3.765  0.2129  0.0920 -0.3400
 1629Sol     OW 9835   1.530   3.227   7.036 -0.8021  0.0729 -0.3403
 1629Sol     HW 9836   1.439   3.256   7.038 -0.4688  1.1353 -0.5302
 1629Sol     HW 9837   1.558   3.240   6.945 -0.8145 -1.3707 -0.5708
 1629Sol     MW 9838   1.525   3.231   7.028  0.0010  0.0291 -0.4838
 1630Sol     OW 9839   0.686   0.301   7.356 -0.0805 -1.1017  0.7168
 1630Sol     HW 9840   0.756   0.302   7.422  2.0485 -1.4647 -1.4649
 1630Sol     HW 9841   0.606   0.311   7.407  1.6315  0.8110  3.1789
 1630Sol     MW 9842   0.685   0.302   7.367  0.4039 -0.7313 -0.4527
 1631Sol     OW 9843   2.970   1.400   5.020 -0.0720 -0.3071  0.1774
 1631Sol     HW 9844   2.995   1.313   4.988 -0.4547 -0.5278  0.4660
 1631Sol     HW 9845   2.949   1.386   5.112  1.5908  0.4345  0.6772
 1631Sol     MW 9846   2.970   1.391   5.025  0.0546  0.1965 -0.2118
 1632Sol     OW 9847   2.201   3.448   8.374  0.1681 -0.9614  0.5483
 1632Sol     HW 9848   2.193   3.455   8.470  0.6510 -0.9745  0.5907
 1632Sol     HW 9849   2.264   3.378   8.360 -1.0860 -2.0262  0.1882
 1632Sol     MW 9850   2.206   3.443   8.382  0.8437 -0.2054  0.2714
 1633Sol     OW 9851   2.670   1.338   4.822  0.1265 -0.3038  0.5169
 1633Sol     HW 9852   2.752   1.293   4.803 -0.8316 -2.6476  1.7280
 1633Sol     HW 9853   2.620   1.332   4.740  0.7132  0.1560  0.1198
 1633Sol     MW 9854   2.673   1.333   4.813 -1.2201  0.0295  0.1973
 1634Sol     OW 9855   2.243   2.614   2.802 -0.5671 -0.1446 -0.0693
 1634Sol     HW 9856   2.166   2.569   2.767 -0.9570 -0.2718  0.9392
 1634Sol     HW 9857   2.300   2.544   2.833  0.7015 -0.1306 -2.3137
 1634Sol     MW 9858   2.241   2.604   2.802  0.1424 -0.6004  0.3122
 1635Sol     OW 9859   1.785   3.262   5.275  0.5642  0.2268  0.3005
 1635Sol     HW 9860   1.698   3.270   5.236  0.8337  2.2565  0.0509
 1635Sol     HW 9861   1.772   3.282   5.368  0.7578  0.6125  0.2487
 1635Sol     MW 9862   1.776   3.265   5.280 -0.6654  0.3849  0.1508
 1636Sol     OW 9863   3.003   1.702   9.603  0.3166  0.3773 -0.0748
 1636Sol     HW 9864   2.907   1.697   9.601  0.4140 -1.3733 -1.1930
 1636Sol     HW 9865   3.028   1.705   9.511  1.4163 -0.7979  0.1791
 1636Sol     MW 9866   2.997   1.702   9.594  0.0187  0.2213 -0.1733
 1637Sol     OW 9867   0.955   3.352   5.279  0.4833 -0.0352 -0.3696
 1637Sol     HW 9868   0.877   3.348   5.223  0.3367 -0.1566 -0.1570
 1637Sol     HW 9869   0.942   3.429   5.333  0.9751  0.5043 -1.0165
 1637Sol     MW 9870   0.947   3.358   5.279  0.0302 -0.0392  0.2949
 1638Sol     OW 9871   2.617   0.947   8.967 -0.1567 -0.5826 -0.3312
 1638Sol     HW 9872   2.537   0.997   8.984  1.0334  1.0954  0.4621
 1638Sol     HW 9873   2.589   0.856   8.971 -2.1406 -0.0079 -0.6253
 1638Sol     MW 9874   2.608   0.943   8.969 -0.0601 -0.2162 -0.1188
 1639Sol     OW 9875   0.412   1.974   4.663 -0.2179 -0.1359  0.0303
 1639Sol     HW 9876   0.391   1.884   4.690 -0.2608 -0.8487 -2.2822
 1639Sol     HW 9877   0.494   1.967   4.615  0.8054  1.3761  1.5019
 1639Sol     MW 9878   0.417   1.965   4.661  0.5091 -0.1847 -0.3314
 1640Sol     OW 9879   0.617   1.662   4.486  0.0284 -0.0731 -0.4328
 1640Sol     HW 9880   0.545   1.647   4.425  0.2971  0.0046 -0.7682
 1640Sol     HW 9881   0.640   1.753   4.473 -0.2757  0.0923  0.1786
 1640Sol     MW 9882   0.612   1.669   4.479 -0.3430 -0.1688 -0.0786
 1641Sol     OW 9883   0.802   3.386   9.069  0.5081  0.4275 -0.3814
 1641Sol     HW 9884   0.802   3.341   9.153 -1.3988  0.2823 -0.4525
 1641Sol     HW 9885   0.772   3.319   9.006  2.3856  0.3792 -1.2741
 1641Sol     MW 9886   0.800   3.376   9.071  0.0647 -0.1928  0.6754
 1642Sol     OW 9887   2.004   0.043   3.533  0.5920 -0.1938  0.0309
 1642Sol     HW 9888   1.912   0.016   3.534  0.7139 -0.6104  1.2421
 1642Sol     HW 9889   2.046  -0.015   3.596  1.5383  0.5229  0.0649
 1642Sol     MW 9890   1.999   0.035   3.539  0.6899  0.2793 -0.2201
 1643Sol     OW 9891   2.317   2.503   5.081  0.2390 -0.1467  0.5183
 1643Sol     HW 9892   2.369   2.583   5.084 -0.8307  0.6341 -1.3129
 1643Sol     HW 9893   2.227   2.531   5.098 -0.0984 -0.9959  0.1898
 1643Sol     MW 9894   2.314   2.513   5.083 -0.1837 -0.5130 -0.1370
 1644Sol     OW 9895   2.580   0.614   6.303 -0.0320  0.3306 -0.0104
 1644Sol     HW 9896   2.560   0.522   6.315  1.3004 -0.0854 -0.8368
 1644Sol     HW 9897   2.539   0.637   6.219 -0.0426  0.3892  0.0105
 1644Sol     MW 9898   2.575   0.608   6.296  0.0371 -0.8443  0.3875
 1645Sol     OW 9899   2.128   0.694   4.735 -0.0660  0.5874  0.1053
 1645Sol     HW 9900   2.139   0.617   4.790  0.6730  1.4727  1.2294
 1645Sol     HW 9901   2.209   0.700   4.684  0.4596  1.3783  1.0127
 1645Sol     MW 9902   2.136   0.688   4.735  0.9169  0.2036  0.2794
 1646Sol     OW 9903   0.042   0.801   9.600  0.5468  0.4793 -0.2122
 1646Sol     HW 9904   0.026   0.851   9.680  0.2063  1.4543 -0.8814
 1646Sol     HW 9905  -0.010   0.846   9.533 -2.5907 -2.7809 -0.1286
 1646Sol     MW 9906   0.036   0.809   9.601 -0.2531 -0.1032 -0.5018
 1647Sol     OW 9907   1.769   3.025   7.160  0.3056 -0.5049  0.4160
 1647Sol     HW 9908   1.700   3.066   7.214 -0.3194 -0.7383 -0.2004
 1647Sol     HW 9909   1.726   2.949   7.121  0.5657  0.0368 -0.9380
 1647Sol     MW 9910   1.759   3.022   7.162 -0.3372  0.2677 -1.1979
 1648Sol     OW 9911   2.540   0.286   5.877  0.1717  0.2213  0.1457
 1648Sol     HW 9912   2.480   0.339   5.825 -0.4625  1.4322  2.0364
 1648Sol     HW 9913   2.491   0.205   5.894  0.3448 -0.1419 -1.0211
 1648Sol     MW 9914   2.530   0.283   5.874  0.0958  0.2034  0.1919
 1649Sol     OW 9915   3.361   0.693   6.584 -0.1778  0.1756  0.6511
 1649Sol     HW 9916   3.371   0.684   6.489 -0.0940  0.6002  0.6162
 1649Sol     HW 9917   3.269   0.717   6.595 -0.5236 -1.1969  0.7800
 1649Sol     MW 9918   3.354   0.695   6.576  0.1769 -0.3096 -0.0426
 1650Sol     OW 9919   2.959   2.197   8.899 -0.6887  0.0071  0.3486
 1650Sol     HW 9920   3.048   2.197   8.933 -0.9790  1.1715  1.1423
 1650Sol     HW 9921   2.965   2.244   8.816 -0.7018  0.8980  0.8376
 1650Sol     MW 9922   2.967   2.201   8.895  0.0801  0.1262  0.1316
 1651Sol     OW 9923   2.698   2.642   6.680  0.2693  0.1428 -0.4861
 1651Sol     HW 9924   2.663   2.732   6.685  3.3869  1.3704  0.2202
 1651Sol     HW 9925   2.660   2.606   6.600 -1.7789  1.7539 -0.2907
 1651Sol     MW 9926   2.691   2.647   6.674 -0.3811  0.1436  0.7515
 1652Sol     OW 9927   3.190   0.811   3.251  0.4921  0.3679 -0.5238
 1652Sol     HW 9928   3.157   0.735   3.202 -0.2005 -0.6247  1.4273
 1652Sol     HW 9929   3.130   0.882   3.229 -0.8602 -0.5238  0.2478
 1652Sol     MW 9930   3.182   0.810   3.245  0.2266  0.3964  0.0446
 1653Sol     OW 9931   0.763   1.041   7.078  0.5131  0.5538 -0.3206
 1653Sol     HW 9932   0.759   0.962   7.132 -1.0874 -0.7215 -2.2422
 1653Sol     HW 9933   0.818   1.101   7.128  1.8631 -1.8101  1.1210
 1653Sol     MW 9934   0.767   1.040   7.087 -0.8121 -0.6526  0.0308
 1654Sol     OW 9935   0.737   2.295   8.607 -0.0078 -0.4468 -0.7112
 1654Sol     HW 9936   0.805   2.241   8.565 -0.9357 -2.3219  0.1459
 1654Sol     HW 9937   0.731   2.373   8.552  3.2014 -0.0104 -0.5359
 1654Sol     MW 9938   0.743   2.297   8.598  0.0108  0.0833  0.3195
 1655Sol     OW 9939   0.467   0.885   8.381  0.1893  0.0624  0.0391
 1655Sol     HW 9940   0.488   0.977   8.369 -0.0225  0.1538  0.3422
 1655Sol     HW 9941   0.550   0.839   8.371 -0.0614  0.0680 -2.2442
 1655Sol     MW 9942   0.476   0.889   8.379  0.1104  0.0404 -0.3987
 1656Sol     OW 9943   2.645   3.000   5.568  0.1119 -0.1179 -0.0725
 1656Sol     HW 9944   2.606   3.065   5.626  1.1072 -1.0609  1.6634
 1656Sol     HW 9945   2.686   2.936   5.626  0.9886 -1.1658 -1.7947
 1656Sol     MW 9946   2.645   3.000   5.578  0.5831  0.2852 -0.2711
 1657Sol     OW 9947   3.297   1.769   6.088 -0.1186 -0.8202  0.0912
 1657Sol     HW 9948   3.225   1.820   6.125  0.3435  0.5330 -0.8398
 1657Sol     HW 9949   3.275   1.678   6.110 -2.2606 -0.4633 -0.4190
 1657Sol     MW 9950   3.288   1.765   6.093 -0.8025  0.5236 -0.3910
 1658Sol     OW 9951   2.823   2.356   3.104  0.2490  0.2470 -0.4063
 1658Sol     HW 9952   2.772   2.417   3.052 -0.2082  0.7076  0.5657
 1658Sol     HW 9953   2.899   2.407   3.134 -0.2599  0.4298  0.6131
 1658Sol     MW 9954   2.825   2.366   3.102  0.0376  0.3305  0.7628
 1659Sol     OW 9955   0.658   0.271   8.822  0.1980  0.3116  0.0685
 1659Sol     HW 9956   0.666   0.219   8.902  0.5827 -1.3097 -1.0039
 1659Sol     HW 9957   0.746   0.271   8.785 -0.0989  0.6212 -0.6350
 1659Sol     MW 9958   0.667   0.266   8.826  0.8176 -0.4771 -0.2002
 1660Sol     OW 9959   1.590   1.399   2.536  0.0712  0.1262 -0.2431
 1660Sol     HW 9960   1.519   1.374   2.595  0.9829 -1.4866  0.2170
 1660Sol     HW 9961   1.640   1.465   2.585 -0.6741  0.7138 -0.2714
 1660Sol     MW 9962   1.588   1.403   2.546 -0.3081  0.0618 -0.4879
 1661Sol     OW 9963   2.178   2.234   7.406 -0.1799  0.0496 -0.0439
 1661Sol     HW 9964   2.153   2.270   7.492  0.5939 -0.6253  0.4758
 1661Sol     HW 9965   2.187   2.140   7.421 -1.8940 -0.3307 -1.3324
 1661Sol     MW 9966   2.177   2.229   7.415  0.0358 -0.2036  0.0604
 1662Sol     OW 9967   1.692   1.221   2.198 -0.3282 -0.6401 -0.3785
 1662Sol     HW 9968   1.716   1.143   2.247 -1.0582 -0.7665 -0.2137
 1662Sol     HW 9969   1.597   1.214   2.186 -0.4068  0.2323 -0.3334
 1662Sol     MW 9970   1.686   1.213   2.201  0.1904 -0.1055  0.2356
 1663Sol     OW 9971   1.840   2.600   7.350  0.3449  0.4890  0.2967
 1663Sol     HW 9972   1.860   2.693   7.364  0.4354  0.3732  0.9463
 1663Sol     HW 9973   1.757   2.601   7.303  0.1408  0.8898  0.6620
 1663Sol     MW 9974   1.835   2.609   7.347  0.1676  0.1703  0.8568
 1664Sol     OW 9975   0.779   1.518   8.518 -0.6631  0.0170  0.0116
 1664Sol     HW 9976   0.756   1.427   8.534 -0.3649 -0.1979 -0.7502
 1664Sol     HW 9977   0.788   1.524   8.423  2.0936  0.1691  0.2612
 1664Sol     MW 9978   0.777   1.511   8.511 -0.6420  0.3761  0.1696
 1665Sol     OW 9979   0.291   0.872   6.900  0.3254  0.4113 -0.0806
 1665Sol     HW 9980   0.253   0.931   6.835  0.5096 -0.0098 -0.5706
 1665Sol     HW 9981   0.385   0.890   6.896  0.0524  2.6597  2.3140
 1665Sol     MW 9982   0.296   0.879   6.894 -0.0693  0.0110  0.6010
 1666Sol     OW 9983   2.522   3.011   2.113  0.2855  0.1216 -0.4782
 1666Sol     HW 9984   2.528   2.921   2.082  2.5264  0.0366  0.1185
 1666Sol     HW 9985   2.613   3.042   2.117 -0.2925  1.7606  1.1874
 1666Sol     MW 9986   2.531   3.006   2.111 -1.0103 -0.5751  0.3084
 1667Sol     OW 9987   1.918   0.231   3.912  0.8549  0.6866 -0.9677
 1667Sol     HW 9988   1.917   0.325   3.930  1.3610  1.0711 -2.7879
 1667Sol     HW 9989   1.827   0.208   3.897  0.7987  1.0278 -1.1485
 1667Sol     MW 9990   1.910   0.238   3.912  0.4670 -0.4673 -0.3343
 1668Sol     OW 9991   2.806   2.810   9.600 -0.9130  0.0583 -0.2304
 1668Sol     HW 9992   2.790   2.716   9.592 -0.6680 -0.0831  0.8228
 1668Sol     HW 9993   2.876   2.828   9.537 -0.0699 -0.7148  0.4724
 1668Sol     MW 9994   2.811   2.804   9.594 -0.1828 -0.2599  0.1526
 1669Sol     OW 9995   1.057   0.745   4.022  0.1974  0.2992  0.9405
 1669Sol     HW 9996   0.988   0.681   4.004  1.2418 -0.3153 -0.9922
 1669Sol     HW 9997   1.092   0.719   4.107 -0.9964 -0.2368  1.2835
 1669Sol     MW 9998   1.054   0.737   4.028  0.2716  0.1366 -0.0517
 1670Sol     OW 9999   1.527   0.636   5.004 -0.2480 -0.8751 -0.0599
 1670Sol     HW10000   1.581   0.593   4.938 -0.9862  0.7800 -1.8005
 1670Sol     HW10001   1.503   0.720   4.964  2.0715  1.6937  3.6199
 1670Sol     MW10002   1.529   0.640   4.994 -0.4766  0.1131 -0.2503
 1671Sol     OW10003   1.449   0.926   2.766  0.2825 -0.0659 -0.3289
 1671Sol     HW10004   1.482   0.922   2.676  0.6263 -0.4915 -0.1846
 1671Sol     HW10005   1.528   0.940   2.819  0.2239 -0.9899  0.0114
 1671Sol     MW10006   1.459   0.927   2.762  0.2824 -0.2996  0.4833
 1672Sol     OW10007   0.551   1.220   3.997  0.4532 -0.3498 -0.0631
 1672Sol     HW10008   0.568   1.127   3.982 -3.6351 -0.9021 -2.0024
 1672Sol     HW10009   0.593   1.264   3.924  4.2012 -0.3699  1.9564
 1672Sol     MW10010   0.556   1.215   3.989 -0.1113 -1.1930 -0.3773
 1673Sol     OW10011   1.793   1.300   4.960 -0.1687 -0.5298  0.1291
 1673Sol     HW10012   1.804   1.309   4.866  0.8761 -0.4644  0.2581
 1673Sol     HW10013   1.729   1.229   4.970 -1.0888  0.1671 -0.6411
 1673Sol     MW10014   1.788   1.295   4.953  0.6731 -0.2146 -0.3373
 1674Sol     OW10015   0.947   2.203   6.958 -0.1712 -0.4743  0.4203
 1674Sol     HW10016   0.985   2.203   6.870  0.9601 -1.6134  0.9030
 1674Sol     HW10017   0.875   2.141   6.953 -0.3494 -0.2523  0.1990
 1674Sol     MW10018   0.944   2.198   6.950 -0.9475 -0.4737 -0.1805
 1675Sol     OW10019   1.286   3.240   2.553  0.5903 -0.0323 -0.7768
 1675Sol     HW10020   1.198   3.255   2.588 -0.1839 -0.3318 -2.5282
 1675Sol     HW10021   1.281   3.270   2.463  3.0907  2.5338 -0.1300
 1675Sol     MW10022   1.277   3.244   2.548  0.2583 -0.2003 -0.0145
 1676Sol     OW10023   1.135   1.759   6.298 -0.4299  0.2161 -0.5209
 1676Sol     HW10024   1.076   1.685   6.308 -1.2433  1.1487  1.9608
 1676Sol     HW10025   1.222   1.723   6.311 -0.7910 -0.3892  0.2353
 1676Sol     MW10026   1.137   1.749   6.300  0.3275 -0.2713 -0.4828
 1677Sol     OW10027   3.198   0.147   2.461  0.2561 -0.3396  0.1339
 1677Sol     HW10028   3.179   0.239   2.445 -0.4171 -0.3220  1.0298
 1677Sol     HW10029   3.178   0.104   2.378  2.0332  0.5223 -0.7706
 1677Sol     MW10030   3.195   0.151   2.452  0.5953  0.0452  0.2535
 1678Sol     OW10031   2.931   0.746   7.071 -0.1097 -0.6055  0.1224
 1678Sol     HW10032   2.958   0.655   7.056  0.7701 -0.4116  0.5236
 1678Sol     HW10033   3.010   0.797   7.058 -1.2902  0.4643 -3.3737
 1678Sol     MW10034   2.940   0.742   7.068 -0.9417  0.1311  0.3992
 1679Sol     OW10035   1.566   1.390   6.518  0.5315 -1.0005  0.0414
 1679Sol     HW10036   1.655   1.358   6.502  0.1935 -2.4170  0.8948
 1679Sol     HW10037   1.510   1.313   6.507 -0.5141 -0.2909  0.2666
 1679Sol     MW10038   1.569   1.380   6.516  0.1230  0.5869 -0.2271
 1680Sol     OW10039   3.061   0.848   2.134  0.3850 -0.5564  0.1035
 1680Sol     HW10040   3.072   0.940   2.110 -3.3080 -0.2261 -0.7110
 1680Sol     HW10041   3.018   0.852   2.220  1.6952 -1.5615  0.8123
 1680Sol     MW10042   3.058   0.857   2.140 -0.7592 -0.4503 -0.2581
 1681Sol     OW10043   1.257   2.493   8.650  0.1828 -0.0481  0.6654
 1681Sol     HW10044   1.340   2.469   8.692 -0.0454  0.4909  1.4363
 1681Sol     HW10045   1.264   2.588   8.637 -0.2978 -0.0057  0.7183
 1681Sol     MW10046   1.265   2.500   8.653  0.4639  0.7184 -1.1818
 1682Sol     OW10047   2.490   0.181   1.735 -0.3763  0.1349  0.7854
 1682Sol     HW10048   2.510   0.097   1.694 -1.9521  0.6731 -1.1738
 1682Sol     HW10049   2.567   0.201   1.788  0.2390 -2.2733  0.8380
 1682Sol     MW10050   2.498   0.176   1.736  0.4498 -0.1489  0.5253
 1683Sol     OW10051   2.821   1.521   9.176 -0.7300  0.0208 -0.1142
 1683Sol     HW10052   2.864   1.451   9.225  1.9564 -0.2775 -2.7247
 1683Sol     HW10053   2.740   1.481   9.144 -0.4576 -1.0940  0.5399
 1683Sol     MW10054   2.818   1.511   9.177  0.4071  0.6825 -0.3725
 1684Sol     OW10055   2.123   2.855   3.813 -0.0830 -0.3629  0.5017
 1684Sol     HW10056   2.208   2.870   3.854  0.0164  0.3221  0.0378
 1684Sol     HW10057   2.123   2.910   3.735 -0.7936 -0.6679  0.2797
 1684Sol     MW10058   2.131   2.861   3.810  0.3842 -0.1581  0.9202
 1685Sol     OW10059   1.248   1.077   4.690  0.2981 -0.7059 -0.0232
 1685Sol     HW10060   1.185   1.080   4.761 -0.9610 -0.5776 -1.1211
 1685Sol     HW10061   1.297   1.159   4.697  1.0332 -1.2424  1.4191
 1685Sol     MW10062   1.247   1.084   4.697  0.3779  0.0463  0.3761
 1686Sol     OW10063   3.368   0.515   5.744  0.3132 -0.2166 -0.1715
 1686Sol     HW10064   3.316   0.435   5.737 -1.0298  0.7369 -1.3333
 1686Sol     HW10065   3.455   0.490   5.714  0.0401 -1.3734 -0.0080
 1686Sol     MW10066   3.371   0.506   5.741 -0.1393 -0.0110  0.1750
 1687Sol     OW10067   0.458   1.988   8.923  0.0383  0.1384 -0.0781
 1687Sol     HW10068   0.483   1.896   8.929  0.5125  0.1683 -1.4136
 1687Sol     HW10069   0.538   2.034   8.897 -0.3897  0.8136 -0.2257
 1687Sol     MW10070   0.467   1.984   8.921  0.0291 -0.4610  0.5721
 1688Sol     OW10071   3.276   1.871   2.709 -0.0662  0.0595  0.1387
 1688Sol     HW10072   3.185   1.872   2.739 -0.6867 -1.5585 -1.5944
 1688Sol     HW10073   3.276   1.927   2.631  0.5381  0.4875  0.4446
 1688Sol     MW10074   3.267   1.876   2.704 -0.6216 -0.2243 -0.3627
 1689Sol     OW10075   2.622   2.647   4.978  0.3087  0.0971 -0.2225
 1689Sol     HW10076   2.682   2.704   4.930  0.7876  0.6197  0.9656
 1689Sol     HW10077   2.585   2.704   5.046 -0.6962 -0.5094 -0.2495
 1689Sol     MW10078   2.624   2.658   4.980  0.5236  0.6529 -0.1257
 1690Sol     OW10079   1.810   0.728   2.837 -0.1398  0.5960  0.2629
 1690Sol     HW10080   1.741   0.729   2.904 -1.3572 -1.2906 -0.8989
 1690Sol     HW10081   1.889   0.702   2.884 -0.4584  1.7166  1.4251
 1690Sol     MW10082   1.811   0.725   2.847  0.7750  0.0585  0.1026
 1691Sol     OW10083   0.455   1.542   7.462  0.6178 -0.4637  0.2812
 1691Sol     HW10084   0.461   1.528   7.367 -0.6429  0.2004  0.0898
 1691Sol     HW10085   0.540   1.514   7.496  1.4697  0.2695 -1.1788
 1691Sol     MW10086   0.463   1.539   7.456  0.7345  0.3190 -0.4346
 1692Sol     OW10087   0.080   2.468   6.228 -0.5521 -0.1976 -0.1998
 1692Sol     HW10088   0.060   2.446   6.318  0.8726  1.2335  0.4944
 1692Sol     HW10089   0.167   2.432   6.212 -0.8746 -0.6246 -1.0840
 1692Sol     MW10090   0.086   2.463   6.234 -0.1966  0.1036  0.2395
 1693Sol     OW10091   3.147   1.769   8.633  0.2467 -0.2482  0.1833
 1693Sol     HW10092   3.192   1.808   8.708  0.3713 -0.0701  0.0126
 1693Sol     HW10093   3.212   1.766   8.564 -0.9037  3.1361 -1.1556
 1693Sol     MW10094   3.157   1.772   8.634  0.4062 -0.2221  0.2624
 1694Sol     OW10095   3.174   1.345   7.361 -0.1478  0.8996 -0.4951
 1694Sol     HW10096   3.258   1.345   7.314 -1.0030  0.4445 -2.0742
 1694Sol     HW10097   3.115   1.297   7.303 -1.5074  1.2410  0.5930
 1694Sol     MW10098   3.176   1.341   7.351 -0.5189  0.2076 -0.1491
 1695Sol     OW10099   0.123   0.726   2.291 -0.3873  0.3712 -0.2156
 1695Sol     HW10100   0.042   0.727   2.240  0.6315 -0.9075 -1.8925
 1695Sol     HW10101   0.116   0.802   2.348 -1.5136  1.9062 -2.3426
 1695Sol     MW10102   0.115   0.733   2.292  0.6923  0.3888 -0.1253
 1696Sol     OW10103   1.918   1.363   3.867 -0.3308  0.2726 -0.3421
 1696Sol     HW10104   1.896   1.401   3.952 -1.8632 -1.4026  0.0392
 1696Sol     HW10105   1.931   1.270   3.884 -1.3782 -0.2178 -2.0278
 1696Sol     MW10106   1.917   1.358   3.876 -0.0895  0.2203 -0.1710
 1697Sol     OW10107   2.872   0.756   8.498  0.1667  0.6225  0.3821
 1697Sol     HW10108   2.913   0.680   8.456  0.5525  1.0310  0.0148
 1697Sol     HW10109   2.857   0.818   8.427 -3.4468 -0.5016  0.0608
 1697Sol     MW10110   2.875   0.755   8.488  0.0117 -0.2678 -0.1880
 1698Sol     OW10111   1.360   1.740   4.327  0.5127 -0.2400  0.2096
 1698Sol     HW10112   1.330   1.655   4.296  1.2265 -0.8042  1.0325
 1698Sol     HW10113   1.281   1.794   4.328  0.4961 -0.0981 -2.7989
 1698Sol     MW10114   1.350   1.737   4.324  0.1072 -0.7247 -0.0900
 1699Sol     OW10115   1.940   2.682   4.660 -0.2294  0.4833  0.2454
 1699Sol     HW10116   2.010   2.635   4.706 -0.0168 -0.1188 -0.6649
 1699Sol     HW10117   1.984   2.725   4.587 -0.6092  1.1624  0.4194
 1699Sol     MW10118   1.950   2.681   4.658 -0.0553 -0.3426 -0.6710
 1700Sol     OW10119   2.884   1.890   6.557 -0.6164  0.2169 -0.0527
 1700Sol     HW10120   2.977   1.884   6.536 -0.2200 -0.6357  1.8316
 1700Sol     HW10121   2.841   1.893   6.471  1.2164  2.5160 -0.9708
 1700Sol     MW10122   2.889   1.890   6.547  0.4491 -0.3177 -0.2576
 1701Sol     OW10123   0.420   1.715   4.711  0.0329 -0.4550 -0.3477
 1701Sol     HW10124   0.500   1.684   4.670 -0.1716 -1.1548 -0.2268
 1701Sol     HW10125   0.436   1.703   4.805  1.3886  3.2459 -0.0397
 1701Sol     MW10126   0.429   1.711   4.716  1.2143 -0.3408  0.9060
 1702Sol     OW10127   2.358   2.266   9.037  0.2582 -0.5877 -0.1393
 1702Sol     HW10128   2.336   2.358   9.051 -2.2858 -1.1735 -0.0311
 1702Sol     HW10129   2.404   2.265   8.953 -0.2377  0.7209 -0.4439
 1702Sol     MW10130   2.360   2.274   9.031  0.2572 -0.0468  0.1592
 1703Sol     OW10131   2.881   0.414   2.805 -0.5274  0.6134 -0.3967
 1703Sol     HW10132   2.793   0.389   2.831 -0.5140  2.8111  1.9334
 1703Sol     HW10133   2.869   0.463   2.723 -1.3228 -0.1386 -0.7366
 1703Sol     MW10134   2.872   0.416   2.800 -0.0079 -0.8128 -0.1066
 1704Sol     OW10135   1.802   2.427   6.791  1.0502 -0.3592  0.2914
 1704Sol     HW10136   1.808   2.438   6.886  0.7286 -2.0915  0.5252
 1704Sol     HW10137   1.780   2.335   6.779  0.8992 -0.1058 -1.4653
 1704Sol     MW10138   1.801   2.420   6.798  0.4872 -0.6078  0.1592
 1705Sol     OW10139   1.219   1.621   5.418  0.3526 -0.5064  0.1545
 1705Sol     HW10140   1.184   1.567   5.347  0.2016 -1.0583  0.6566
 1705Sol     HW10141   1.143   1.669   5.451  0.1930 -1.2071  0.8005
 1705Sol     MW10142   1.209   1.621   5.414  0.2228 -0.0530 -0.1186
 1706Sol     OW10143   1.504   0.677   9.396  0.0285  0.0029  0.3883
 1706Sol     HW10144   1.488   0.605   9.457 -0.7379 -0.2864 -0.1553
 1706Sol     HW10145   1.501   0.756   9.452 -0.1365 -0.3034  0.8165
 1706Sol     MW10146   1.502   0.678   9.407 -0.2379  0.2493  0.1451
 1707Sol     OW10147   2.009   2.420   2.807 -0.2066  0.0241  0.3918
 1707Sol     HW10148   2.055   2.351   2.854  0.0608 -0.1869 -0.1798
 1707Sol     HW10149   1.951   2.374   2.746 -0.0010  0.3051 -0.0155
 1707Sol     MW10150   2.008   2.410   2.806  0.0903 -0.1877 -0.0699
 1708Sol     OW10151   1.380   3.024   9.604 -0.2148  0.3091 -0.2299
 1708Sol     HW10152   1.380   2.930   9.586 -1.9047  0.2097  0.2025
 1708Sol     HW10153   1.461   3.039   9.654  1.2049 -0.4977 -2.2309
 1708Sol     MW10154   1.387   3.017   9.607 -0.1509 -0.0335  0.1730
 1709Sol     OW10155   0.121   2.836   9.029 -0.4575 -0.2169 -0.4371
 1709Sol     HW10156   0.177   2.848   9.106 -0.6293  0.4283 -0.4127
 1709Sol     HW10157   0.039   2.802   9.065 -1.2458  1.9686 -0.1053
 1709Sol     MW10158   0.119   2.834   9.039 -0.5803 -0.2179 -0.2168
 1710Sol     OW10159   1.593   0.494   5.694  0.3922  1.0370  0.3579
 1710Sol     HW10160   1.661   0.490   5.627  0.7123 -2.2729  0.8179
 1710Sol     HW10161   1.626   0.441   5.766 -2.4896 -0.3069  0.7441
 1710Sol     MW10162   1.602   0.489   5.694 -0.7574  0.6329  1.1279
 1711Sol     OW10163   3.114   2.202   4.688  0.0504  0.3156  0.4629
 1711Sol     HW10164   3.162   2.212   4.770 -0.1179  0.9159  0.4872
 1711Sol     HW10165   3.168   2.246   4.622 -1.1095  2.1682  0.7291
 1711Sol     MW10166   3.123   2.207   4.689  0.1989  0.1803 -0.7310
 1712Sol     OW10167   3.356   0.170   5.089 -0.0958 -0.2612  0.2611
 1712Sol     HW10168   3.417   0.233   5.050 -0.0508 -0.2284  0.3843
 1712Sol     HW10169   3.411   0.100   5.124  0.0838  1.0782  2.7979
 1712Sol     MW10170   3.366   0.170   5.089  0.3288  0.4429  0.8984
 1713Sol     OW10171   1.109   2.051   3.156  0.3008  0.1956  0.3393
 1713Sol     HW10172   1.189   2.080   3.111  1.1168  0.0792  1.6623
 1713Sol     HW10173   1.102   1.958   3.136  0.2609  0.3005 -0.1320
 1713Sol     MW10174   1.116   2.046   3.150 -0.1854  0.6677 -0.2893
 1714Sol     OW10175   2.769   1.936   4.565 -0.3381  0.6808 -0.8813
 1714Sol     HW10176   2.849   1.960   4.611 -1.2596 -0.6870  1.5508
 1714Sol     HW10177   2.741   2.016   4.521  1.7861  1.4443 -0.8715
 1714Sol     MW10178   2.773   1.945   4.565  0.7796  0.1937  0.4441
 1715Sol     OW10179   1.244   0.884   4.496 -0.2952 -0.3490 -0.6802
 1715Sol     HW10180   1.235   0.957   4.557 -0.7501  0.8281 -2.1411
 1715Sol     HW10181   1.212   0.808   4.546  0.9678  0.2727  1.1261
 1715Sol     MW10182   1.240   0.883   4.506 -0.0211  0.1049 -0.1313
 1716Sol     OW10183   2.794   2.381   4.055  0.4018 -0.1937  0.4994
 1716Sol     HW10184   2.746   2.298   4.059  0.5568 -0.2607  0.9400
 1716Sol     HW10185   2.848   2.373   3.976  0.6526 -0.6394  0.7141
 1716Sol     MW10186   2.794   2.373   4.048  0.2044  0.1628 -0.0715
 1717Sol     OW10187   0.387   0.189   5.456  0.6062  0.5749  0.0686
 1717Sol     HW10188   0.458   0.169   5.517  0.1872  1.1935  0.7673
 1717Sol     HW10189   0.412   0.272   5.416 -0.1635  1.2806  1.0148
 1717Sol     MW10190   0.395   0.195   5.458  0.6463 -0.3185  0.2758
 1718Sol     OW10191   2.609   0.448   5.321 -0.3171 -0.3293  0.4585
 1718Sol     HW10192   2.616   0.467   5.415 -0.4664 -0.0912  0.4230
 1718Sol     HW10193   2.550   0.516   5.288 -0.4241 -0.5328  0.2288
 1718Sol     MW10194   2.604   0.456   5.327  0.3208 -0.2685 -0.0344
 1719Sol     OW10195   1.402   1.751   8.530  0.0482 -0.2269  0.3083
 1719Sol     HW10196   1.467   1.800   8.479  0.9651 -1.6957  0.0203
 1719Sol     HW10197   1.346   1.818   8.569  0.7242  1.0030 -0.7953
 1719Sol     MW10198   1.403   1.761   8.529  0.7173  0.3609 -0.4759
 1720Sol     OW10199   0.407   0.402   3.056 -0.0808 -0.2365 -0.2428
 1720Sol     HW10200   0.473   0.408   2.986 -0.4499 -0.1289 -0.5843
 1720Sol     HW10201   0.328   0.440   3.018  0.0728  1.0546  0.6932
 1720Sol     MW10202   0.406   0.406   3.046  0.6995 -0.0410  0.2407
 1721Sol     OW10203   1.756   2.975   3.656 -0.3271 -0.0445 -1.0566
 1721Sol     HW10204   1.851   2.984   3.650 -0.3575  1.2757  0.1985
 1721Sol     HW10205   1.721   3.038   3.593 -0.3911  1.6738  0.6469
 1721Sol     MW10206   1.761   2.982   3.650  0.1167  0.2409 -0.4285
 1722Sol     OW10207   2.448   3.051   4.566  0.3819 -0.1968  0.2092
 1722Sol     HW10208   2.431   2.967   4.524  3.0384 -0.1193 -1.1461
 1722Sol     HW10209   2.477   3.028   4.654 -0.4142 -0.6216  0.3612
 1722Sol     MW10210   2.449   3.041   4.570  0.1517 -0.7257  0.2925
 1723Sol     OW10211   1.112   2.099   7.157 -0.1598  0.0511  0.1536
 1723Sol     HW10212   1.106   2.006   7.134 -2.7107 -0.1611  1.4542
 1723Sol     HW10213   1.081   2.145   7.080 -1.3882 -0.3123  0.4206
 1723Sol     MW10214   1.109   2.094   7.148 -0.9045  0.7744 -0.1418
 1724Sol     OW10215   0.717   1.517   7.567 -0.5348 -0.9901 -0.0391
 1724Sol     HW10216   0.784   1.448   7.573  1.5236  0.9154 -0.5480
 1724Sol     HW10217   0.701   1.542   7.658 -1.0527 -1.9115  0.1267
 1724Sol     MW10218   0.722   1.513   7.576 -0.3430 -0.4035 -0.1810
 1725Sol     OW10219   2.555   1.464   9.135 -0.0879 -0.2062  0.3816
 1725Sol     HW10220   2.476   1.514   9.151  0.9541  1.8532 -0.7620
 1725Sol     HW10221   2.536   1.414   9.056 -0.2051  0.3981  0.0257
 1725Sol     MW10222   2.547   1.464   9.129 -0.4670 -0.3635  0.0946
 1726Sol     OW10223   2.144   3.308   9.682  0.3952 -0.6560 -0.2217
 1726Sol     HW10224   2.206   3.327   9.753 -1.8540 -0.6386  1.7867
 1726Sol     HW10225   2.078   3.251   9.722 -1.8563  0.7564 -1.8104
 1726Sol     MW10226   2.144   3.304   9.692  0.9057  0.0275 -0.6830
 1727Sol     OW10227   1.435   2.145   9.202 -0.3807  1.1074 -0.1942
 1727Sol     HW10228   1.447   2.061   9.245 -0.9617  1.3597  0.4729
 1727Sol     HW10229   1.488   2.140   9.123  1.1464  0.8443  0.8367
 1727Sol     MW10230   1.441   2.137   9.199  0.3711 -0.5898  0.5908
 1728Sol     OW10231   2.067   0.775   6.562 -0.2385  0.4967  0.1597
 1728Sol     HW10232   2.125   0.833   6.612 -0.7986  0.8270  0.4358
 1728Sol     HW10233   2.022   0.833   6.501  0.6251  0.0540 -0.8998
 1728Sol     MW10234   2.068   0.785   6.561  0.6810 -0.9563  0.0476
 1729Sol     OW10235   1.522   3.244   5.216  0.3503 -0.4837 -0.1860
 1729Sol     HW10236   1.514   3.240   5.121  1.6554 -1.1895 -0.2744
 1729Sol     HW10237   1.432   3.238   5.249 -0.0477 -0.8180 -1.3457
 1729Sol     MW10238   1.513   3.243   5.211  0.1715 -0.4134  0.7242
 1730Sol     OW10239   1.796   3.385   8.925 -0.2662  0.5039  0.1417
 1730Sol     HW10240   1.722   3.325   8.933 -0.2826  0.6701  1.3050
 1730Sol     HW10241   1.834   3.388   9.013  1.3164  0.1832 -0.5326
 1730Sol     MW10242   1.793   3.380   8.934  0.3813 -0.1252  0.5648
 1731Sol     OW10243   1.821   1.135   5.359  0.3579  0.8609  0.2766
 1731Sol     HW10244   1.805   1.229   5.347 -0.9862  0.4650 -1.3601
 1731Sol     HW10245   1.742   1.103   5.402  0.5141  0.3651  0.1990
 1731Sol     MW10246   1.812   1.140   5.361 -0.3495 -0.3123  0.0231
 1732Sol     OW10247   1.772   2.206   7.352  0.1732 -0.0389 -0.0141
 1732Sol     HW10248   1.770   2.276   7.418  1.9803 -1.3986  1.5300
 1732Sol     HW10249   1.693   2.156   7.369  0.6033 -0.3630  1.1595
 1732Sol     MW10250   1.765   2.208   7.360  0.1377 -0.5258 -0.7039
 1733Sol     OW10251   1.707   1.314   9.805  0.0609  0.0531 -0.5507
 1733Sol     HW10252   1.712   1.219   9.795 -1.5605  0.0573 -1.4819
 1733Sol     HW10253   1.616   1.336   9.785  0.8492  2.0145 -2.1318
 1733Sol     MW10254   1.700   1.308   9.802  0.1975  0.8412  0.4540
 1734Sol     OW10255   0.492   3.256   4.831  0.7542 -0.0393  0.0552
 1734Sol     HW10256   0.467   3.294   4.915 -2.2979 -0.0582 -0.8030
 1734Sol     HW10257   0.495   3.329   4.770 -0.8101 -0.5513 -0.6463
 1734Sol     MW10258   0.490   3.266   4.833 -0.3081  0.5940 -0.1512
 1735Sol     OW10259   3.267   3.127   3.035 -0.4153  0.2150  0.4729
 1735Sol     HW10260   3.266   3.050   2.978  1.2123  0.9058 -0.5247
 1735Sol     HW10261   3.290   3.092   3.121 -0.3277 -0.4930  0.1722
 1735Sol     MW10262   3.269   3.117   3.038  0.3905 -0.1334  0.0649
 1736Sol     OW10263   0.021   0.366   6.063 -0.3813  0.2143 -0.0444
 1736Sol     HW10264   0.069   0.289   6.033 -1.1162 -0.0882 -0.4624
 1736Sol     HW10265   0.086   0.418   6.109  0.5001  0.1279 -1.1704
 1736Sol     MW10266   0.031   0.363   6.064 -0.1651  0.2700  0.3387
 1737Sol     OW10267   0.821   3.277   4.745  0.1413 -0.1933  0.0985
 1737Sol     HW10268   0.737   3.323   4.741  1.2094  1.7777  0.1647
 1737Sol     HW10269   0.875   3.318   4.678  1.4611 -0.6087  0.8802
 1737Sol     MW10270   0.818   3.285   4.739  0.5749  0.3370 -0.6265
 1738Sol     OW10271   1.655   1.625   5.281 -0.0575 -0.3036 -0.1524
 1738Sol     HW10272   1.688   1.630   5.191 -0.7714  0.2587 -0.3874
 1738Sol     HW10273   1.649   1.716   5.310  1.0836 -0.5287  0.8053
 1738Sol     MW10274   1.657   1.633   5.276 -0.3911 -0.6223  0.3043
 1739Sol     OW10275   1.477   1.682   2.266 -0.0971 -0.1276 -0.2195
 1739Sol     HW10276   1.519   1.597   2.250 -0.5190 -0.1694 -1.1686
 1739Sol     HW10277   1.384   1.665   2.250 -0.2972  0.2932  0.5045
 1739Sol     MW10278   1.472   1.673   2.263 -0.1949 -0.1627  1.0246
 1740Sol     OW10279   2.440   2.012   8.002 -0.0442 -0.5747 -0.0870
 1740Sol     HW10280   2.409   2.075   7.937  1.5250  0.3314  0.0171
 1740Sol     HW10281   2.534   2.006   7.988  0.1466 -1.2575  1.3298
 1740Sol     MW10282   2.446   2.017   7.995  0.1842  0.1197  0.2942
 1741Sol     OW10283   2.586   2.482   8.570 -0.2828 -0.2147 -0.2809
 1741Sol     HW10284   2.638   2.562   8.566 -0.2751 -0.1989  0.0919
 1741Sol     HW10285   2.502   2.510   8.607 -0.8255 -0.1070 -1.5781
 1741Sol     MW10286   2.583   2.491   8.573 -0.0725  0.6099  0.0025
 1742Sol     OW10287   1.512   1.859   7.805  0.1385 -0.1055  0.1941
 1742Sol     HW10288   1.583   1.824   7.859  0.4112 -0.2055 -0.2269
 1742Sol     HW10289   1.554   1.922   7.747  0.1201 -1.1913 -1.0182
 1742Sol     MW10290   1.522   1.861   7.805 -0.1754 -0.3967  0.0452
 1743Sol     OW10291   0.370   3.242   2.704 -0.1935 -0.0756 -0.1819
 1743Sol     HW10292   0.381   3.299   2.628  0.3028  0.0960  0.0139
 1743Sol     HW10293   0.300   3.282   2.755 -0.6001 -0.2525 -0.6082
 1743Sol     MW10294   0.365   3.251   2.702  0.7815 -0.0070 -0.0430
 1744Sol     OW10295   1.500   3.165   4.443  0.2045  0.0227 -0.2224
 1744Sol     HW10296   1.591   3.190   4.426  1.0126 -0.4672  2.9235
 1744Sol     HW10297   1.493   3.075   4.410  2.2922 -1.6564  3.5656
 1744Sol     MW10298   1.508   3.159   4.439  0.0509  0.0329 -0.1973
 1745Sol     OW10299   1.947   1.932   5.466 -0.1891 -0.3846 -0.6907
 1745Sol     HW10300   1.870   1.940   5.522 -0.1690 -0.2991 -0.6758
 1745Sol     HW10301   1.934   1.997   5.397  0.6818  0.8017  0.2472
 1745Sol     MW10302   1.939   1.938   5.465  0.3549 -0.7156 -0.1703
 1746Sol     OW10303   1.485   2.117   2.129 -0.0798 -0.0265  0.6085
 1746Sol     HW10304   1.566   2.146   2.089 -0.0193 -0.5066  0.3785
 1746Sol     HW10305   1.478   2.024   2.107 -0.7927  0.0550  0.4560
 1746Sol     MW10306   1.491   2.111   2.124 -0.3454 -0.6525 -0.3403
 1747Sol     OW10307   2.050   2.273   5.578 -0.2870  0.1374  0.2368
 1747Sol     HW10308   2.024   2.276   5.486  1.5255 -1.9152 -0.3646
 1747Sol     HW10309   1.995   2.205   5.616  1.1735 -1.2114 -0.0537
 1747Sol     MW10310   2.043   2.267   5.573 -0.6368 -0.7738  0.0010
 1748Sol     OW10311   2.981   0.594   5.504  0.6939  0.3011  0.3301
 1748Sol     HW10312   3.046   0.525   5.492 -0.1038 -0.5448  0.8213
 1748Sol     HW10313   2.910   0.552   5.551  1.1024  1.9977  2.5404
 1748Sol     MW10314   2.981   0.584   5.507  0.3911  0.1430  0.2417
 1749Sol     OW10315   1.772   2.129   4.041  0.2281 -0.0348 -0.1275
 1749Sol     HW10316   1.839   2.178   3.992 -0.4314  1.7840  0.7308
 1749Sol     HW10317   1.823   2.070   4.096  1.2565  2.4313  1.6832
 1749Sol     MW10318   1.783   2.128   4.041  0.4936  0.7035 -0.3009
 1750Sol     OW10319   2.874   2.310   4.710  0.1752  0.1454 -0.3512
 1750Sol     HW10320   2.964   2.282   4.694  0.1480  0.3101 -0.8063
 1750Sol     HW10321   2.877   2.406   4.706  0.1533  0.1927  0.5762
 1750Sol     MW10322   2.882   2.316   4.708 -0.1075 -0.2634 -0.6002
 1751Sol     OW10323   2.145   1.950   8.021  0.1024  0.0686 -0.5716
 1751Sol     HW10324   2.236   1.979   8.022 -0.1822  1.1416 -2.3820
 1751Sol     HW10325   2.098   2.018   8.070  0.3479 -0.7900  0.8687
 1751Sol     MW10326   2.149   1.959   8.025 -0.1149  0.0009 -0.4665
 1752Sol     OW10327   1.512   2.437   7.136  0.7666 -0.5072  0.0242
 1752Sol     HW10328   1.511   2.529   7.163 -0.0268 -1.0158  1.8032
 1752Sol     HW10329   1.605   2.420   7.117  1.0765  0.3894  0.6442
 1752Sol     MW10330   1.521   2.444   7.137 -0.5359  0.4349 -0.0714
 1753Sol     OW10331   3.311   1.288   4.275  0.0069 -0.0956  0.2186
 1753Sol     HW10332   3.396   1.246   4.260  1.1950  1.9660  0.9326
 1753Sol     HW10333   3.333   1.380   4.292 -2.4501  0.6714 -0.5677
 1753Sol     MW10334   3.321   1.293   4.275 -0.2912  0.1235  0.2718
 1754Sol     OW10335   0.978   1.977   6.529  0.0875 -0.7249  0.3544
 1754Sol     HW10336   0.883   1.976   6.533  0.1001  0.0285  1.0461
 1754Sol     HW10337   0.999   1.948   6.440 -0.8059 -0.0437 -0.0856
 1754Sol     MW10338   0.972   1.974   6.522 -0.1433 -0.1681 -0.3211
 1755Sol     OW10339   0.361   2.026   9.192  0.1515  0.2572 -0.4640
 1755Sol     HW10340   0.308   1.948   9.180  0.4107  0.1631 -1.0063
 1755Sol     HW10341   0.395   2.046   9.104  0.5115  0.6687 -0.2331
 1755Sol     MW10342   0.359   2.021   9.183 -0.3848  0.2504 -0.3115
 1756Sol     OW10343   1.428   2.086   4.741  0.0869  0.1718 -1.0050
 1756Sol     HW10344   1.387   2.072   4.655 -0.9709  0.8365 -0.6218
 1756Sol     HW10345   1.436   2.181   4.748  1.7870  0.0409 -1.1050
 1756Sol     MW10346   1.425   2.093   4.734 -0.8795  0.9586 -0.0375
 1757Sol     OW10347   2.623   2.845   6.391 -0.0108  0.1237  0.0933
 1757Sol     HW10348   2.627   2.932   6.353 -0.7641  0.3459  0.5161
 1757Sol     HW10349   2.713   2.826   6.418  0.2216  0.6133 -0.3335
 1757Sol     MW10350   2.631   2.851   6.390 -0.0411 -0.1145 -0.1479
 1758Sol     OW10351   0.001   2.784   5.796 -0.2098 -0.4080 -0.3190
 1758Sol     HW10352   0.009   2.836   5.716 -0.9260  0.0804 -0.0804
 1758Sol     HW10353  -0.075   2.728   5.781 -0.5141 -0.1213  0.1212
 1758Sol     MW10354  -0.005   2.784   5.788  0.0839  0.1762 -0.4554
 1759Sol     OW10355   2.249   1.058   2.570 -0.2020 -0.9689 -0.2197
 1759Sol     HW10356   2.224   1.071   2.479 -0.9673  0.7485  0.2039
 1759Sol     HW10357   2.305   0.981   2.569  0.2750 -0.6238 -2.2201
 1759Sol     MW10358   2.252   1.052   2.562  0.3203  0.8660  0.2137
 1760Sol     OW10359   3.353   2.459   4.697  0.5738 -0.0720  0.0390
 1760Sol     HW10360   3.434   2.456   4.749  1.5192  1.0708 -1.3255
 1760Sol     HW10361   3.290   2.505   4.752  0.1401 -2.9180  2.0273
 1760Sol     MW10362   3.355   2.463   4.706  0.0338  0.5268 -0.7695
 1761Sol     OW10363   2.586   0.975   5.231 -0.3301  0.4836  0.5066
 1761Sol     HW10364   2.583   0.943   5.322 -0.4079 -1.8120 -0.2827
 1761Sol     HW10365   2.601   0.897   5.178 -1.7990  1.5715 -1.5960
 1761Sol     MW10366   2.587   0.965   5.235  0.5257 -0.1049 -0.6408
 1762Sol     OW10367   2.355   1.472   6.035  0.1883  0.1251  0.1648
 1762Sol     HW10368   2.300   1.399   6.006 -0.1964  0.6969 -0.5638
 1762Sol     HW10369   2.400   1.502   5.956  0.5254  0.5196  0.5008
 1762Sol     MW10370   2.354   1.468   6.026 -0.0591 -0.9200 -0.5069
 1763Sol     OW10371   3.157   1.515   6.854 -0.2004 -0.2398  0.3225
 1763Sol     HW10372   3.128   1.579   6.789  1.3873 -0.5824 -0.7540
 1763Sol     HW10373   3.176   1.436   6.803  2.9629  0.0879  0.8806
 1763Sol     MW10374   3.156   1.514   6.844  0.4266 -0.2825 -0.2926
 1764Sol     OW10375   1.615   0.089   8.826  0.1484 -0.0093  0.6599
 1764Sol     HW10376   1.590   0.115   8.915  0.3788 -1.3753  1.1353
 1764Sol     HW10377   1.692   0.034   8.838  0.2429 -0.1089 -0.3967
 1764Sol     MW10378   1.619   0.086   8.835 -0.0281 -0.1067 -0.4113
 1765Sol     OW10379   2.210   3.133   5.625  0.3168  0.1908  0.6280
 1765Sol     HW10380   2.166   3.211   5.658 -2.2891 -0.2247 -1.6828
 1765Sol     HW10381   2.238   3.157   5.536  1.5676 -0.7528  0.7578
 1765Sol     MW10382   2.209   3.142   5.620  0.3434  0.2457 -0.2184
 1766Sol     OW10383   1.185   0.263   5.960 -0.3379 -0.6968  0.3842
 1766Sol     HW10384   1.200   0.169   5.948 -1.7651 -0.9948  0.7768
 1766Sol     HW10385   1.110   0.267   6.019 -1.3875  0.6851 -1.0213
 1766Sol     MW10386   1.179   0.255   5.964 -0.1988 -0.0621 -0.4321
 1767Sol     OW10387   0.180   0.426   4.082  0.0663 -0.2180  0.1739
 1767Sol     HW10388   0.153   0.334   4.086  1.2573 -0.5033  1.9291
 1767Sol     HW10389   0.108   0.469   4.036 -0.9936 -1.8485  0.2369
 1767Sol     MW10390   0.171   0.422   4.078 -0.3718  0.1183 -0.6750
 1768Sol     OW10391   2.339   2.859   8.837  0.4399  0.0230  0.0321
 1768Sol     HW10392   2.432   2.879   8.852  0.4399 -1.3340  1.9942
 1768Sol     HW10393   2.293   2.937   8.866  0.8232 -0.3014  1.5234
 1768Sol     MW10394   2.344   2.868   8.841  1.1086  0.6435  0.6467
 1769Sol     OW10395   1.955   1.027   2.305 -0.6351 -0.3295 -0.3045
 1769Sol     HW10396   1.925   1.101   2.357 -1.1394 -1.3253  0.8686
 1769Sol     HW10397   2.009   1.065   2.236 -0.3355  1.0641  0.6817
 1769Sol     MW10398   1.957   1.037   2.304  0.2187 -0.5660  0.6091
 1770Sol     OW10399   2.304   1.571   6.281 -0.4625 -0.1223  0.1155
 1770Sol     HW10400   2.310   1.525   6.197  0.2596 -0.5182  0.3799
 1770Sol     HW10401   2.273   1.659   6.258  0.5151  0.0323 -0.6627
 1770Sol     MW10402   2.302   1.575   6.271  0.2092 -0.1372  0.1063
 1771Sol     OW10403   3.284   0.727   5.579  0.3126  0.6280  0.0136
 1771Sol     HW10404   3.334   0.656   5.618  0.5452  1.8696  2.0062
 1771Sol     HW10405   3.261   0.694   5.492  2.1157 -1.0856  0.1449
 1771Sol     MW10406   3.287   0.717   5.574  1.0569  0.3134 -0.3793
 1772Sol     OW10407   2.392   2.304   2.004  0.2012  0.2952  0.0340
 1772Sol     HW10408   2.347   2.220   1.994  0.0040  0.2403  1.3569
 1772Sol     HW10409   2.329   2.369   1.973 -0.1685  0.0757  0.3275
 1772Sol     MW10410   2.382   2.303   2.000 -0.2709  0.0159 -0.4168
 1773Sol     OW10411   1.355   0.122   6.409  0.2051 -0.3537  0.1649
 1773Sol     HW10412   1.330   0.044   6.459 -2.6003 -0.4081 -1.2050
 1773Sol     HW10413   1.274   0.172   6.402  0.6723  0.0041 -3.6695
 1773Sol     MW10414   1.345   0.119   6.413  0.1731  0.3358 -0.7598
 1774Sol     OW10415   2.848   2.413   6.850  0.1307 -0.1669  0.0118
 1774Sol     HW10416   2.816   2.483   6.793 -0.0079  0.0135  0.3070
 1774Sol     HW10417   2.907   2.362   6.795  0.9940  0.7602  0.0735
 1774Sol     MW10418   2.850   2.415   6.840 -0.4631  0.2093  0.1807
 1775Sol     OW10419   2.165   0.066   4.159 -0.1242 -0.0465 -0.1244
 1775Sol     HW10420   2.159  -0.029   4.171  1.2251  0.0228  1.1268
 1775Sol     HW10421   2.168   0.078   4.064  0.5101 -1.3056 -0.2660
 1775Sol     MW10422   2.165   0.059   4.151 -0.0981 -0.8775 -0.6594
 1776Sol     OW10423   2.003   3.024   7.362 -0.3622  0.0760  0.4058
 1776Sol     HW10424   2.064   2.972   7.310 -1.0029 -0.1328 -0.1507
 1776Sol     HW10425   1.926   3.035   7.305 -0.9201  0.1672  1.1668
 1776Sol     MW10426   2.002   3.021   7.352  0.3885 -1.3051  0.0509
 1777Sol     OW10427   2.540   2.619   6.205  0.4294  0.3617 -0.2194
 1777Sol     HW10428   2.444   2.612   6.207  0.3245 -1.2837 -4.7713
 1777Sol     HW10429   2.560   2.692   6.263 -3.4380 -0.2860  2.1078
 1777Sol     MW10430   2.533   2.625   6.211 -0.6041  0.1593  0.0905
 1778Sol     OW10431   3.252   0.749   2.802 -0.2834  0.2508  0.3066
 1778Sol     HW10432   3.290   0.832   2.829 -0.6135  0.4431  0.1820
 1778Sol     HW10433   3.230   0.762   2.710 -1.9277  0.6100  0.7439
 1778Sol     MW10434   3.254   0.758   2.796  0.0320 -0.3522  0.0692
 1779Sol     OW10435   3.001   1.517   3.694  0.2732  0.1765 -0.1237
 1779Sol     HW10436   3.018   1.521   3.788  1.0832  0.3689 -0.2722
 1779Sol     HW10437   3.056   1.446   3.663  0.1941  0.2742 -0.4903
 1779Sol     MW10438   3.007   1.511   3.700  0.1548 -0.2655 -0.5963
 1780Sol     OW10439   0.847   1.653   1.949 -0.0033  0.3031  0.4833
 1780Sol     HW10440   0.776   1.655   1.885 -0.5990  0.4667  1.1407
 1780Sol     HW10441   0.885   1.566   1.941  0.1724  0.4560 -0.3597
 1780Sol     MW10442   0.844   1.645   1.943 -0.0479  0.0056  0.6301
 1781Sol     OW10443   2.288   1.309   6.364  0.5119  0.2204  0.1086
 1781Sol     HW10444   2.375   1.286   6.332  0.3210  0.3097 -0.4833
 1781Sol     HW10445   2.283   1.404   6.356 -0.2746  0.0664 -1.5307
 1781Sol     MW10446   2.295   1.315   6.360 -0.2020 -0.1948 -0.2562
 1782Sol     OW10447   2.962   3.458   4.595 -0.1756 -0.3107 -0.0845
 1782Sol     HW10448   2.928   3.368   4.598 -0.4743 -0.1810  0.5889
 1782Sol     HW10449   3.056   3.449   4.606 -0.2299 -0.5310  0.2108
 1782Sol     MW10450   2.967   3.449   4.597 -0.1644  0.1561  1.0496
 1783Sol     OW10451   1.191   3.033   8.770 -0.0188 -0.1139 -0.6081
 1783Sol     HW10452   1.206   3.002   8.680 -2.8156  0.1300 -1.1965
 1783Sol     HW10453   1.131   2.969   8.808  0.7059  0.0937  0.9320
 1783Sol     MW10454   1.187   3.024   8.765  0.3447  0.7842 -0.2108
 1784Sol     OW10455   1.166   2.616   2.849 -0.4243  0.4913  0.4535
 1784Sol     HW10456   1.156   2.529   2.886 -2.1415  0.0993 -0.8865
 1784Sol     HW10457   1.250   2.613   2.803 -1.1452 -0.9305 -0.8223
 1784Sol     MW10458   1.172   2.608   2.848 -0.4006 -0.4861 -0.2371
 1785Sol     OW10459   0.255   0.521   6.199 -0.1429 -0.1417  0.6022
 1785Sol     HW10460   0.306   0.450   6.161 -1.6564 -0.7111 -0.4504
 1785Sol     HW10461   0.247   0.585   6.128  0.0720  0.4474  1.1109
 1785Sol     MW10462   0.259   0.520   6.189  0.1999 -0.0010  0.0389
 1786Sol     OW10463   1.461   2.899   8.479 -0.0925 -0.0364 -0.2604
 1786Sol     HW10464   1.520   2.842   8.528 -0.1899 -1.2228 -1.4894
 1786Sol     HW10465   1.499   2.904   8.391 -1.9677 -1.1043 -1.1745
 1786Sol     MW10466   1.470   2.894   8.475  0.2803 -0.5841  0.3863
 1787Sol     OW10467   2.831   0.219   3.962 -0.5851 -0.4470  0.6392
 1787Sol     HW10468   2.767   0.282   3.930 -0.1841 -0.6072 -0.5293
 1787Sol     HW10469   2.861   0.254   4.045 -2.0715 -0.2899  1.1163
 1787Sol     MW10470   2.828   0.228   3.966 -0.4532 -0.3895  0.7235
 1788Sol     OW10471   1.642   0.171   3.864 -0.5301 -0.2190 -0.1183
 1788Sol     HW10472   1.636   0.175   3.960  0.4597  0.5809 -0.0896
 1788Sol     HW10473   1.629   0.079   3.844  0.7462 -0.6310  0.8933
 1788Sol     MW10474   1.640   0.163   3.871 -0.6854  0.8107  0.0695
 1789Sol     OW10475   2.730   0.686   3.563  0.2160 -0.2238 -0.0947
 1789Sol     HW10476   2.728   0.731   3.479  0.3132 -1.9779 -1.0671
 1789Sol     HW10477   2.724   0.755   3.628 -1.9366  1.0172 -1.5580
 1789Sol     MW10478   2.730   0.696   3.561  0.0010 -0.7229 -0.2689
 1790Sol     OW10479   2.097   2.086   3.298  0.2847  0.2019 -0.1669
 1790Sol     HW10480   2.017   2.130   3.269 -0.0020  0.4984  1.0613
 1790Sol     HW10481   2.167   2.149   3.280  0.0903  0.4552 -0.0381
 1790Sol     MW10482   2.096   2.095   3.294 -0.2845  0.0542 -0.4242
 1791Sol     OW10483   0.233   3.169   7.211 -0.2169 -0.3090 -0.0915
 1791Sol     HW10484   0.327   3.181   7.200 -0.5749  2.5448 -0.2943
 1791Sol     HW10485   0.212   3.095   7.154  1.7603 -0.4144 -0.7212
 1791Sol     MW10486   0.240   3.163   7.205 -0.0652  0.0108  0.2751
 1792Sol     OW10487   2.367   2.387   7.853  0.1378  0.0419  0.1472
 1792Sol     HW10488   2.435   2.455   7.849  0.6090 -0.3426  1.5255
 1792Sol     HW10489   2.357   2.367   7.946  1.1277 -2.9143 -0.3247
 1792Sol     MW10490   2.372   2.391   7.861 -0.0228 -0.1701 -0.5242
 1793Sol     OW10491   0.083   0.724   6.329 -0.3020 -0.4943  0.2102
 1793Sol     HW10492   0.144   0.659   6.295  0.9541  1.3996 -1.2698
 1793Sol     HW10493   0.032   0.752   6.253 -1.7230 -0.6667  1.0735
 1793Sol     MW10494   0.084   0.721   6.319  0.4100  0.4777 -0.2603
 1794Sol     OW10495   1.788   2.921   6.265  0.5769  0.0138  0.1399
 1794Sol     HW10496   1.823   2.965   6.187  1.3033  0.6652  0.8302
 1794Sol     HW10497   1.791   2.828   6.242  1.7431  0.1307 -0.2286
 1794Sol     MW10498   1.792   2.917   6.256  0.2060 -0.2413 -0.3467
 1795Sol     OW10499   1.542   1.354   3.207 -0.1548 -0.4477 -0.3853
 1795Sol     HW10500   1.603   1.374   3.277 -0.2109 -0.8782 -0.2143
 1795Sol     HW10501   1.455   1.362   3.247 -0.2259  0.3625 -0.6777
 1795Sol     MW10502   1.540   1.357   3.216  0.5616 -0.2275 -0.7764
 1796Sol     OW10503   0.703   2.678   2.491  0.3345  0.5866  0.0829
 1796Sol     HW10504   0.745   2.759   2.520 -1.3129  0.7677  2.0544
 1796Sol     HW10505   0.610   2.692   2.506 -0.1662 -0.9669 -1.3906
 1796Sol     MW10506   0.699   2.687   2.495  0.5065 -0.7309  0.1729
 1797Sol     OW10507   2.538   2.986   7.673  0.1695 -0.2868 -0.4162
 1797Sol     HW10508   2.447   2.958   7.680  0.7261 -1.9224  0.7236
 1797Sol     HW10509   2.547   3.054   7.740 -0.2648  0.0102 -0.6590
 1797Sol     MW10510   2.531   2.989   7.680  0.0726 -0.2678  0.2330
 1798Sol     OW10511   3.252   0.655   8.125  0.6348  0.7096  0.3385
 1798Sol     HW10512   3.229   0.576   8.174 -0.5262  0.4286 -0.6424
 1798Sol     HW10513   3.271   0.720   8.192  0.2849 -0.0227  1.1620
 1798Sol     MW10514   3.252   0.653   8.135  0.5343  0.2486 -0.3224
 1799Sol     OW10515   3.082   2.849   8.968 -0.6144  0.8511 -0.4492
 1799Sol     HW10516   3.134   2.922   8.935  0.5189  0.3824  0.2576
 1799Sol     HW10517   3.135   2.812   9.038 -1.4727 -0.2502 -0.3668
 1799Sol     MW10518   3.091   2.852   8.971  0.1508 -0.1483  0.2728
 1800Sol     OW10519   0.162   0.453   2.668 -0.1383 -0.2030 -0.6753
 1800Sol     HW10520   0.125   0.371   2.700  1.9228 -0.2375  1.8070
 1800Sol     HW10521   0.220   0.427   2.596  0.7317 -0.9843  0.2881
 1800Sol     MW10522   0.164   0.443   2.664 -0.3127 -0.2936  0.2578
 1801Sol     OW10523   0.368   2.911   7.575 -0.2767  0.3504  0.2779
 1801Sol     HW10524   0.352   2.911   7.669  0.1788 -0.5427  0.3552
 1801Sol     HW10525   0.459   2.940   7.566 -0.9360  2.4154 -0.0028
 1801Sol     MW10526   0.375   2.914   7.583  0.3976 -0.3583 -0.6317
 1802Sol     OW10527   2.791   3.050   3.502  0.7714  0.0105  0.3564
 1802Sol     HW10528   2.812   3.090   3.586  2.3609 -1.8412  0.8579
 1802Sol     HW10529   2.801   2.956   3.516 -0.1188 -0.4094 -1.5839
 1802Sol     MW10530   2.794   3.046   3.511  0.4624 -0.0614  0.4431
 1803Sol     OW10531   2.380   0.822   4.726 -0.4574  0.1146 -0.3007
 1803Sol     HW10532   2.403   0.778   4.808  0.2688  1.9008  0.4873
 1803Sol     HW10533   2.424   0.771   4.658 -0.2148 -0.7866  0.5266
 1803Sol     MW10534   2.386   0.813   4.727 -0.8499  0.0831 -0.5868
 1804Sol     OW10535   0.033   0.936   9.839  0.2299  0.2694  0.4903
 1804Sol     HW10536  -0.039   0.999   9.827 -0.1241 -0.3186 -0.5020
 1804Sol     HW10537   0.111   0.991   9.847 -0.0236  0.8315 -0.7646
 1804Sol     MW10538   0.034   0.947   9.839 -0.5649 -0.3841  0.9201
 1805Sol     OW10539   1.037   1.138   3.959  0.0060  0.5896 -0.4214
 1805Sol     HW10540   0.968   1.076   3.935  0.5123  0.1337 -0.6981
 1805Sol     HW10541   1.114   1.083   3.974  0.6610  1.2310 -1.4293
 1805Sol     MW10542   1.037   1.128   3.959 -0.0348 -0.1180 -0.5656
 1806Sol     OW10543   1.901   2.526   6.518 -0.8215 -0.4672  0.5296
 1806Sol     HW10544   1.891   2.618   6.494 -1.0701 -0.3367  1.1401
 1806Sol     HW10545   1.839   2.512   6.589 -1.0685 -1.2093  0.1772
 1806Sol     MW10546   1.895   2.533   6.522  0.1914  0.4644 -0.0149
 1807Sol     OW10547   1.631   1.957   4.869 -0.7144  0.3926 -0.1886
 1807Sol     HW10548   1.638   1.865   4.843 -0.8670  0.5906 -0.9380
 1807Sol     HW10549   1.570   1.995   4.806 -0.8168  0.9604  0.2493
 1807Sol     MW10550   1.626   1.952   4.861  0.0826 -0.8256  0.6776
 1808Sol     OW10551   1.055   1.704   8.353  0.0261 -0.2982 -0.0751
 1808Sol     HW10552   1.112   1.718   8.277 -0.4350 -0.0656 -0.3790
 1808Sol     HW10553   0.967   1.702   8.316 -0.2443  0.4069  0.5395
 1808Sol     MW10554   1.052   1.705   8.343 -0.3383  0.0496 -0.0008
 1809Sol     OW10555   3.105   0.492   3.478 -0.0379  0.2303  0.0096
 1809Sol     HW10556   3.032   0.442   3.513 -1.0525  1.1137 -0.7926
 1809Sol     HW10557   3.098   0.578   3.520 -0.7340  1.0064 -1.6389
 1809Sol     MW10558   3.098   0.495   3.484 -0.3181  0.4322 -0.2262
 1810Sol     OW10559   1.830   2.526   3.345  0.9505  0.6274  0.0075
 1810Sol     HW10560   1.750   2.499   3.299  1.3771  0.5782 -0.7228
 1810Sol     HW10561   1.800   2.590   3.409  0.1384 -0.3769  0.6573
 1810Sol     MW10562   1.820   2.529   3.346  0.0738  0.1382  0.8693
 1811Sol     OW10563   1.696   2.885   8.043 -0.6431 -0.3858  0.0032
 1811Sol     HW10564   1.746   2.953   7.998 -0.9842 -0.4860 -0.5376
 1811Sol     HW10565   1.680   2.921   8.130  1.5843 -0.9555  0.6653
 1811Sol     MW10566   1.699   2.895   8.047 -0.1271  0.4155 -0.0124
 1812Sol     OW10567   1.943   2.360   8.370 -0.1381  0.8072 -0.6815
 1812Sol     HW10568   1.906   2.425   8.429  0.4021  2.0214 -1.6500
 1812Sol     HW10569   2.036   2.380   8.368  0.6382 -2.1269  1.6211
 1812Sol     MW10570   1.948   2.367   8.375  0.4428 -0.4691  0.1404
 1813Sol     OW10571   3.325   2.446   4.164  0.5451 -0.0139 -0.6960
 1813Sol     HW10572   3.290   2.389   4.096  0.3067  0.3776 -0.9019
 1813Sol     HW10573   3.386   2.390   4.213  0.3721 -0.4211 -0.9427
 1813Sol     MW10574   3.328   2.436   4.162 -0.5647  0.1991 -0.1889
 1814Sol     OW10575   3.127   1.484   4.724  0.4416  0.4920 -0.2522
 1814Sol     HW10576   3.066   1.556   4.742  1.7979  1.8220 -0.9743
 1814Sol     HW10577   3.195   1.493   4.790  0.6982 -0.0531 -0.4370
 1814Sol     MW10578   3.127   1.491   4.732 -0.2376  0.4635 -0.0557
 1815Sol     OW10579   2.978   0.551   6.197 -0.5661  0.0772 -0.6169
 1815Sol     HW10580   3.024   0.603   6.264  0.4392 -1.3411 -0.2041
 1815Sol     HW10581   3.045   0.527   6.134 -0.9776 -0.9669 -0.6600
 1815Sol     MW10582   2.988   0.554   6.198 -0.2344  0.4028 -0.6279
 1816Sol     OW10583   2.082   0.238   8.005 -0.0577 -0.0996 -0.0151
 1816Sol     HW10584   2.082   0.218   8.099 -0.9085  1.6337  0.3783
 1816Sol     HW10585   2.161   0.290   7.992 -0.5035  0.5867 -0.0292
 1816Sol     MW10586   2.089   0.241   8.012 -0.0397  0.2038  0.2344
 1817Sol     OW10587   0.482   1.864   6.454  0.5381 -0.2201  0.1262
 1817Sol     HW10588   0.571   1.891   6.477  0.4194 -0.4809  0.9143
 1817Sol     HW10589   0.495   1.798   6.386  0.9228  0.1962 -0.2084
 1817Sol     MW10590   0.492   1.860   6.450  1.1580 -0.1796  0.0097
 1818Sol     OW10591   1.310   0.845   5.542  0.3951 -0.4244  0.1545
 1818Sol     HW10592   1.399   0.816   5.523  0.5356  0.2405 -0.2316
 1818Sol     HW10593   1.319   0.908   5.613  0.1977 -0.5897  0.3273
 1818Sol     MW10594   1.319   0.848   5.546 -0.3344 -0.3409 -0.5306
 1819Sol     OW10595   2.431   2.865   5.401  0.3985 -0.6959 -0.0325
 1819Sol     HW10596   2.471   2.826   5.479 -1.1415  0.5817  1.4218
 1819Sol     HW10597   2.427   2.958   5.420 -1.5573 -0.5751 -0.9101
 1819Sol     MW10598   2.434   2.870   5.409 -0.3645 -0.2969 -0.4340
 1820Sol     OW10599   1.450   0.715   7.233  0.1576 -0.6051  1.0848
 1820Sol     HW10600   1.533   0.745   7.197 -0.1857  0.6393  1.3012
 1820Sol     HW10601   1.424   0.784   7.294 -1.5005 -0.5032  0.2959
 1820Sol     MW10602   1.455   0.724   7.236  0.6258  0.2396  0.1353
 1821Sol     OW10603   1.146   1.416   5.759  0.3354  0.2566  0.9235
 1821Sol     HW10604   1.088   1.340   5.760 -1.9509  1.7577 -3.2879
 1821Sol     HW10605   1.087   1.490   5.780  0.8751  1.6587 -2.1942
 1821Sol     MW10606   1.135   1.416   5.761  0.3839 -0.3094  0.5631
 1822Sol     OW10607   3.009   0.483   7.017 -0.3135  0.4420  0.4183
 1822Sol     HW10608   2.997   0.395   6.981  1.2879  0.8894 -1.2947
 1822Sol     HW10609   3.036   0.467   7.108  0.8544 -0.8820 -0.1282
 1822Sol     MW10610   3.010   0.473   7.022  0.3703 -0.4511 -0.1861
 1823Sol     OW10611   1.396   1.456   6.951  0.5591  0.0820 -0.4729
 1823Sol     HW10612   1.423   1.406   7.028 -0.8699  1.0238  0.6689
 1823Sol     HW10613   1.477   1.469   6.901  1.5691 -0.2447  1.0423
 1823Sol     MW10614   1.406   1.453   6.954 -0.6853  0.4440  0.7180
 1824Sol     OW10615   0.640   2.887   6.752 -0.3197  0.4671  0.2465
 1824Sol     HW10616   0.656   2.826   6.824 -0.8246  0.8800  0.7156
 1824Sol     HW10617   0.554   2.925   6.772  0.3967  1.9893  0.4282
 1824Sol     MW10618   0.633   2.885   6.760  0.1564  0.1513 -0.1598
 1825Sol     OW10619   1.466   0.892   9.546 -0.3183 -0.0628  0.1321
 1825Sol     HW10620   1.370   0.891   9.549 -0.3940  1.3449 -1.2607
 1825Sol     HW10621   1.493   0.881   9.637 -1.7706 -2.4109  0.3223
 1825Sol     MW10622   1.460   0.891   9.555 -0.4753 -0.2135 -0.0279
 1826Sol     OW10623   0.759   2.758   8.647 -0.5230  0.0142 -0.6842
 1826Sol     HW10624   0.687   2.732   8.704  0.0654  2.0817  1.0500
 1826Sol     HW10625   0.725   2.833   8.598 -0.7596 -1.2679 -2.5705
 1826Sol     MW10626   0.749   2.762   8.647  0.2486  0.1125  0.1877
 1827Sol     OW10627   0.743   0.995   6.040 -0.2472 -0.3535 -0.5994
 1827Sol     HW10628   0.688   0.948   5.977  0.8886 -1.1494 -1.0037
 1827Sol     HW10629   0.765   1.077   5.995 -0.3402 -0.4369 -0.8011
 1827Sol     MW10630   0.740   0.998   6.030 -0.4543 -0.4258  0.1357
 1828Sol     OW10631   0.630   0.051   8.538 -0.4550 -0.4388  0.4968
 1828Sol     HW10632   0.658   0.138   8.509 -2.5811  0.4107  0.9430
 1828Sol     HW10633   0.616   0.002   8.458 -1.3843  0.3148  0.2004
 1828Sol     MW10634   0.631   0.055   8.529 -0.0285  0.2682  0.7872
 1829Sol     OW10635   0.860   2.006   5.793 -0.3127  0.1798  0.0082
 1829Sol     HW10636   0.817   2.077   5.747  0.6850  0.5194 -0.4152
 1829Sol     HW10637   0.898   2.046   5.871 -0.3519 -0.0305  0.1385
 1829Sol     MW10638   0.859   2.016   5.796 -0.5816  0.2868 -0.1853
 1830Sol     OW10639   2.305   2.704   1.900  0.0498 -0.0245 -0.3701
 1830Sol     HW10640   2.380   2.693   1.960 -0.2896  2.6380  0.5848
 1830Sol     HW10641   2.283   2.614   1.874  3.3887 -0.8943 -0.4600
 1830Sol     MW10642   2.310   2.695   1.903 -0.3295 -0.1132 -0.6166
 1831Sol     OW10643   2.252   2.644   6.259 -0.5594 -0.6120 -0.0914
 1831Sol     HW10644   2.229   2.588   6.333 -0.9192 -1.0147 -0.5033
 1831Sol     HW10645   2.283   2.725   6.299  0.2529 -1.2116  0.5188
 1831Sol     MW10646   2.252   2.646   6.269 -0.2388  0.3920  0.0311
 1832Sol     OW10647   1.703   1.498   3.781  0.0085  0.1420 -0.0220
 1832Sol     HW10648   1.781   1.451   3.809  0.5818  1.1779  0.1515
 1832Sol     HW10649   1.683   1.557   3.854 -1.0997 -0.3135  0.0480
 1832Sol     MW10650   1.708   1.499   3.790 -0.4639  0.3540  0.1746
 1833Sol     OW10651   2.396   0.079   7.136 -0.0321 -0.4711  0.2394
 1833Sol     HW10652   2.400   0.090   7.041 -2.2035 -0.1469  0.1726
 1833Sol     HW10653   2.314   0.031   7.152  1.2557 -2.2724  1.8063
 1833Sol     MW10654   2.389   0.075   7.129 -0.3547 -0.1289 -0.4831
 1834Sol     OW10655   0.753   2.910   4.481 -0.1175  0.5656  0.4799
 1834Sol     HW10656   0.687   2.960   4.434  0.8412  0.2089 -1.2791
 1834Sol     HW10657   0.715   2.823   4.491 -0.0659  0.4696 -0.1827
 1834Sol     MW10658   0.744   2.907   4.478  0.3962  0.0060 -0.1003
 1835Sol     OW10659   1.016   2.312   7.946 -0.5544 -0.0961  0.1946
 1835Sol     HW10660   1.109   2.305   7.968 -0.1402  0.4786 -1.3404
 1835Sol     HW10661   1.015   2.355   7.861 -2.3415  2.4217  1.4424
 1835Sol     MW10662   1.025   2.315   7.940 -0.4922  0.5206 -0.5075
 1836Sol     OW10663   3.155   2.852   7.996 -0.5627  0.4532  0.4219
 1836Sol     HW10664   3.174   2.771   7.949 -1.4500  0.8445 -0.6342
 1836Sol     HW10665   3.071   2.835   8.039 -0.4829  0.6270  0.6462
 1836Sol     MW10666   3.149   2.843   7.995 -0.8938  0.1476 -0.0646
 1837Sol     OW10667   2.445   1.812   5.236 -0.5442  0.7710  0.3087
 1837Sol     HW10668   2.351   1.827   5.231 -0.5898  0.3081 -0.3865
 1837Sol     HW10669   2.484   1.899   5.228 -0.9353  1.0624  1.5188
 1837Sol     MW10670   2.440   1.821   5.235 -0.1609  0.4242 -0.8049
 1838Sol     OW10671   1.776   1.586   5.041 -0.1231  0.5272  0.6653
 1838Sol     HW10672   1.786   1.491   5.038  0.5965  0.6569 -1.7215
 1838Sol     HW10673   1.744   1.610   4.954 -0.4549  2.4599  1.2990
 1838Sol     MW10674   1.774   1.580   5.033 -0.0335  1.1017 -0.1242
 1839Sol     OW10675   2.289   0.212   2.489 -0.3572 -0.2590  0.1945
 1839Sol     HW10676   2.274   0.171   2.575 -2.3869 -3.1345 -1.4435
 1839Sol     HW10677   2.206   0.254   2.468  0.2586  0.7535 -0.2167
 1839Sol     MW10678   2.281   0.212   2.495 -0.4178  0.0541  0.0076
 1840Sol     OW10679   0.581   1.127   1.977  0.6089  0.4869 -0.6768
 1840Sol     HW10680   0.527   1.101   2.051  1.3397  0.5470 -0.1160
 1840Sol     HW10681   0.560   1.064   1.908 -0.4462  0.7343 -0.5975
 1840Sol     MW10682   0.574   1.119   1.977 -0.3268  0.1713  0.2315
 1841Sol     OW10683   2.311   0.170   9.296  0.5599 -0.3316 -0.7447
 1841Sol     HW10684   2.306   0.201   9.206  3.4872 -1.5346 -1.3847
 1841Sol     HW10685   2.379   0.224   9.336  0.7198 -1.1781  0.1560
 1841Sol     MW10686   2.317   0.178   9.292 -0.5199 -0.6235  0.1963
 1842Sol     OW10687   1.088   0.459   5.214 -0.3404 -0.3215  0.0757
 1842Sol     HW10688   1.148   0.449   5.288 -1.0556 -0.8595  0.5869
 1842Sol     HW10689   1.142   0.442   5.137  0.5966  1.0523  0.4196
 1842Sol     MW10690   1.098   0.456   5.214 -0.4453 -0.9130 -0.5574
 1843Sol     OW10691   0.865   1.092   6.799 -0.9284 -0.1775  0.3183
 1843Sol     HW10692   0.944   1.132   6.834  0.0750 -0.5401 -1.4878
 1843Sol     HW10693   0.820   1.056   6.876 -0.2826  1.6142  1.5796
 1843Sol     MW10694   0.868   1.092   6.809  0.1160 -0.1454 -0.0620
 1844Sol     OW10695   1.228   2.378   6.185  0.2254  0.1662  0.2133
 1844Sol     HW10696   1.249   2.459   6.138 -1.5721 -0.5301 -1.8490
 1844Sol     HW10697   1.224   2.405   6.277  1.8393  1.9593 -0.1896
 1844Sol     MW10698   1.230   2.388   6.189  0.0857 -0.0594  0.3867
 1845Sol     OW10699   2.420   3.306   8.967  0.5927  0.1835  0.2825
 1845Sol     HW10700   2.461   3.262   9.042  0.3707  0.9857  0.8846
 1845Sol     HW10701   2.468   3.388   8.958 -0.9299  1.1890  1.0667
 1845Sol     MW10702   2.428   3.309   8.973  0.0721 -0.0438  0.7206
 1846Sol     OW10703   1.606   2.828   1.915 -0.2501 -0.3240 -0.0367
 1846Sol     HW10704   1.582   2.740   1.886 -1.0557 -0.0460 -0.2276
 1846Sol     HW10705   1.552   2.887   1.862 -0.5518  0.2439  0.8746
 1846Sol     MW10706   1.599   2.826   1.908 -0.1544  0.2140  0.0411
 1847Sol     OW10707   1.699   3.391   2.925  0.3447 -0.4181  0.0530
 1847Sol     HW10708   1.665   3.396   2.835  0.1809 -0.6757  0.0980
 1847Sol     HW10709   1.634   3.436   2.978  0.4424 -0.2637  0.0415
 1847Sol     MW10710   1.690   3.395   2.921 -0.0802 -0.0910 -1.2243
 1848Sol     OW10711   0.486   1.291   9.536 -0.3709 -0.2740 -0.0394
 1848Sol     HW10712   0.573   1.326   9.556 -0.1658 -0.7235 -0.1524
 1848Sol     HW10713   0.469   1.322   9.446 -0.2886 -0.2685 -0.0535
 1848Sol     MW10714   0.492   1.297   9.529  0.3601  0.4000  0.2651
 1849Sol     OW10715   0.202   0.466   8.187 -0.2516  0.5654  0.6167
 1849Sol     HW10716   0.144   0.465   8.111  1.3344  1.7944 -0.6320
 1849Sol     HW10717   0.232   0.556   8.194 -0.0813  0.3897  2.4978
 1849Sol     MW10718   0.199   0.474   8.181  0.0859 -0.1462  0.4532
 1850Sol     OW10719   0.364   1.694   8.205  0.1444 -0.1668 -0.2850
 1850Sol     HW10720   0.452   1.671   8.174  1.0147  3.0288 -0.3663
 1850Sol     HW10721   0.321   1.733   8.129 -0.5544  0.3210  0.3549
 1850Sol     MW10722   0.368   1.696   8.195  0.0609 -0.7449 -0.0224
 1851Sol     OW10723   2.454   2.424   4.452  0.2434 -0.0691  0.0270
 1851Sol     HW10724   2.460   2.452   4.360 -1.1920  0.4810  0.0882
 1851Sol     HW10725   2.533   2.371   4.466  0.4230 -0.2483 -1.5530
 1851Sol     MW10726   2.462   2.422   4.445  0.1108 -0.0283  0.3169
 1852Sol     OW10727   1.896   1.019   6.871  0.0309 -0.6506  0.9991
 1852Sol     HW10728   1.880   0.954   6.940 -0.1625 -0.8401  0.7765
 1852Sol     HW10729   1.961   1.078   6.909 -0.2769 -0.5944  1.4441
 1852Sol     MW10730   1.901   1.018   6.881  0.5957 -0.6297  0.9057
 1853Sol     OW10731   0.234   1.560   6.148 -0.5394 -0.6207 -0.1476
 1853Sol     HW10732   0.198   1.551   6.237 -0.9577  2.6139  0.0939
 1853Sol     HW10733   0.248   1.471   6.118 -2.8596 -1.8310  2.1952
 1853Sol     MW10734   0.232   1.551   6.154  0.2404  0.0064 -0.6957
 1854Sol     OW10735   1.206   2.640   7.564  0.3897  0.0101  0.1268
 1854Sol     HW10736   1.140   2.679   7.621  0.5106 -2.3543  1.9759
 1854Sol     HW10737   1.257   2.583   7.622  3.5523  1.1313 -1.4134
 1854Sol     MW10738   1.205   2.639   7.575 -0.5205  0.9379 -0.5484
 1855Sol     OW10739   3.104   1.700   1.995  0.2842 -0.1568 -0.3036
 1855Sol     HW10740   3.171   1.768   2.000 -0.2419  0.3571 -0.1674
 1855Sol     HW10741   3.026   1.746   1.965  0.1808 -0.8898 -1.1739
 1855Sol     MW10742   3.103   1.711   1.993  0.4016  0.0934 -0.4281
 1856Sol     OW10743   2.626   1.988   9.240  0.3045 -0.3094  0.0241
 1856Sol     HW10744   2.655   2.022   9.155  0.6093  0.2948  0.3673
 1856Sol     HW10745   2.575   1.910   9.219  0.3054 -0.1077 -0.7202
 1856Sol     MW10746   2.624   1.984   9.231 -0.3432 -0.1971 -0.6112
 1857Sol     OW10747   3.007   3.232   2.466 -0.4580 -0.3936  0.2131
 1857Sol     HW10748   3.038   3.303   2.522 -0.1843 -1.6820  1.7292
 1857Sol     HW10749   2.979   3.164   2.527  1.8424 -2.6863 -1.2177
 1857Sol     MW10750   3.007   3.233   2.476  0.2928 -0.2911 -0.6685
 1858Sol     OW10751   3.361   3.224   7.639 -0.0810  0.4864  0.5594
 1858Sol     HW10752   3.428   3.193   7.578 -0.6444  1.3108 -0.4920
 1858Sol     HW10753   3.315   3.144   7.666 -0.1406  0.1529 -0.4744
 1858Sol     MW10754   3.363   3.214   7.636  0.3801 -0.6154  0.2540
 1859Sol     OW10755   0.739   2.366   4.448 -0.2866  0.0972 -0.3002
 1859Sol     HW10756   0.678   2.301   4.413 -1.0381  0.6572 -0.0446
 1859Sol     HW10757   0.821   2.317   4.461 -1.6238 -1.5267  2.5923
 1859Sol     MW10758   0.741   2.356   4.446  0.1244 -0.3719  0.5038
 1860Sol     OW10759   0.888   2.104   2.309 -0.1251  0.3309  0.6704
 1860Sol     HW10760   0.831   2.163   2.357  1.4433  1.6928  0.9205
 1860Sol     HW10761   0.873   2.125   2.217 -0.9361 -0.1776  0.6894
 1860Sol     MW10762   0.882   2.111   2.305 -0.2567  0.1665 -0.2963
 1861Sol     OW10763   0.910   0.229   5.339 -0.8989 -0.2412 -0.9402
 1861Sol     HW10764   0.911   0.318   5.304 -3.4449  0.6316  1.0255
 1861Sol     HW10765   0.817   0.208   5.347 -0.3370 -1.9955  1.2987
 1861Sol     MW10766   0.901   0.235   5.336 -0.0938 -0.0229  0.0342
 1862Sol     OW10767   2.319   1.685   7.578  0.2007 -0.0396  0.3586
 1862Sol     HW10768   2.241   1.715   7.625 -1.0695 -0.0057 -1.6646
 1862Sol     HW10769   2.294   1.600   7.542  0.8974  0.2196 -0.7615
 1862Sol     MW10770   2.309   1.680   7.579 -0.0780 -0.0165  0.1710
 1863Sol     OW10771   2.188   3.318   7.733 -0.9430  0.0060 -0.1408
 1863Sol     HW10772   2.178   3.227   7.759 -1.1413 -0.1331 -0.6974
 1863Sol     HW10773   2.139   3.367   7.800  1.3677 -0.0809  1.6560
 1863Sol     MW10774   2.182   3.314   7.741  0.1332 -0.1912  1.2327
 1864Sol     OW10775   1.744   0.351   8.216 -0.3911 -0.0217  0.5747
 1864Sol     HW10776   1.680   0.378   8.151 -0.8683  1.9888  1.8494
 1864Sol     HW10777   1.811   0.420   8.215  0.7573 -1.1151  0.6216
 1864Sol     MW10778   1.744   0.359   8.210 -0.3855  0.1358 -0.5077
 1865Sol     OW10779   2.936   1.453   2.757  0.2962  0.2893  0.0726
 1865Sol     HW10780   2.898   1.536   2.788  1.2079  1.0749 -0.8682
 1865Sol     HW10781   2.908   1.447   2.666  0.9226 -0.0294 -0.0993
 1865Sol     MW10782   2.930   1.460   2.752 -0.2502  0.4814  0.1990
 1866Sol     OW10783   0.010   0.273   7.963 -0.2496  0.2945 -0.2598
 1866Sol     HW10784   0.034   0.193   7.916  1.4470  0.1697  0.7982
 1866Sol     HW10785  -0.014   0.243   8.051 -1.9914  0.6967 -0.5674
 1866Sol     MW10786   0.010   0.263   7.967  0.7078 -0.1425 -0.2946
 1867Sol     OW10787   3.314   2.323   5.323  0.2277  0.1387  0.2811
 1867Sol     HW10788   3.404   2.314   5.356  0.3798 -0.4269 -0.2967
 1867Sol     HW10789   3.300   2.245   5.270 -1.2012 -0.6142  1.7340
 1867Sol     MW10790   3.321   2.316   5.322  0.3226  0.4355  0.1828
 1868Sol     OW10791   3.205   0.434   6.432 -0.4338  0.7349  0.3993
 1868Sol     HW10792   3.172   0.522   6.413  1.5537  1.4116 -0.0622
 1868Sol     HW10793   3.298   0.447   6.449 -0.4183 -1.0942  1.8528
 1868Sol     MW10794   3.210   0.443   6.432 -0.7176 -0.5165  0.0273
 1869Sol     OW10795   0.589   3.139   3.493  0.6084 -0.2940 -0.0440
 1869Sol     HW10796   0.575   3.059   3.443 -0.9959 -0.9136  1.3770
 1869Sol     HW10797   0.540   3.126   3.574  0.2656  2.1632  0.1715
 1869Sol     MW10798   0.584   3.131   3.496  0.3312  0.1163 -0.0939
 1870Sol     OW10799   0.477   1.610   8.594 -0.1318 -0.0828 -0.0798
 1870Sol     HW10800   0.463   1.699   8.563  0.8964 -0.2784 -1.1806
 1870Sol     HW10801   0.573   1.600   8.595 -0.2330 -1.1250  0.1263
 1870Sol     MW10802   0.485   1.617   8.591 -0.2608 -0.0272 -0.0008
 1871Sol     OW10803   0.633   0.109   1.898  0.6464  0.2901 -0.4927
 1871Sol     HW10804   0.714   0.116   1.949 -1.3519 -1.2449  3.1254
 1871Sol     HW10805   0.584   0.189   1.920 -1.2240 -1.4562  1.9940
 1871Sol     MW10806   0.635   0.117   1.905 -0.2510 -0.0439  0.4069
 1872Sol     OW10807   2.395   2.394   7.258  0.2878 -0.8601  0.0875
 1872Sol     HW10808   2.403   2.388   7.163 -0.0619  0.3981 -0.0275
 1872Sol     HW10809   2.324   2.333   7.280  1.0301 -1.8829 -0.3448
 1872Sol     MW10810   2.389   2.388   7.251  0.6800  0.1391 -0.5090
 1873Sol     OW10811   2.468   3.085   3.532  0.0485  0.3036  0.2093
 1873Sol     HW10812   2.556   3.098   3.495 -0.4268  0.2483 -0.9590
 1873Sol     HW10813   2.416   3.052   3.459 -1.7956  3.4937 -0.0246
 1873Sol     MW10814   2.471   3.084   3.522  0.0004  0.4811  0.0064
 1874Sol     OW10815   0.976   0.334   6.126  0.2909 -0.4234  0.0074
 1874Sol     HW10816   0.892   0.302   6.092 -0.0983  1.5682 -0.9771
 1874Sol     HW10817   0.989   0.286   6.208 -2.1617 -0.2298  0.5385
 1874Sol     MW10818   0.970   0.327   6.130 -0.2466 -0.5394 -0.4724
 1875Sol     OW10819   1.661   2.290   8.435 -0.1913 -0.1506 -0.0442
 1875Sol     HW10820   1.639   2.380   8.411  0.0392 -0.2375 -0.5842
 1875Sol     HW10821   1.747   2.275   8.395 -0.5331 -0.8428 -0.5142
 1875Sol     MW10822   1.667   2.297   8.429 -0.3254 -0.3377 -0.0181
 1876Sol     OW10823   1.279   1.698   4.739 -0.1058  0.1024  0.0970
 1876Sol     HW10824   1.325   1.651   4.809  0.1639  1.4504  0.8313
 1876Sol     HW10825   1.348   1.724   4.678  0.0661  1.6461  0.9220
 1876Sol     MW10826   1.289   1.696   4.740 -1.1888 -0.7831 -0.0620
 1877Sol     OW10827   1.091   3.009   6.851  0.1896 -0.1393  0.1595
 1877Sol     HW10828   1.088   3.096   6.811 -1.0377 -0.3940 -0.3181
 1877Sol     HW10829   1.171   3.009   6.903  0.5200  1.0588 -0.3425
 1877Sol     MW10830   1.098   3.017   6.852  0.0082  0.0008  0.0344
 1878Sol     OW10831   0.662   1.544   7.841 -0.5464  0.2178 -0.6187
 1878Sol     HW10832   0.585   1.487   7.846 -0.7161  0.3803 -1.3213
 1878Sol     HW10833   0.629   1.630   7.868 -0.7220  0.3943 -1.4031
 1878Sol     MW10834   0.652   1.546   7.844  0.6553  0.8987 -0.1759
 1879Sol     OW10835   2.212   1.177   8.795 -0.0287 -0.1506 -0.6225
 1879Sol     HW10836   2.179   1.267   8.798 -1.0291 -0.5358  0.0055
 1879Sol     HW10837   2.135   1.123   8.782  0.4497 -0.9959  0.0119
 1879Sol     MW10838   2.202   1.180   8.794  0.3287  0.2497 -0.6445
 1880Sol     OW10839   1.734   1.943   6.173  0.6116  0.2051  0.1090
 1880Sol     HW10840   1.751   2.019   6.117 -0.8209 -1.4493 -2.7072
 1880Sol     HW10841   1.638   1.933   6.171  0.4615  0.5300  3.5064
 1880Sol     MW10842   1.727   1.949   6.168  0.3653  0.4038  0.7670
 1881Sol     OW10843   1.839   2.205   3.251  0.2272 -0.2879  0.1079
 1881Sol     HW10844   1.799   2.134   3.301 -0.2392  0.9039  1.4487
 1881Sol     HW10845   1.766   2.260   3.224  0.5286 -0.6036 -1.4291
 1881Sol     MW10846   1.829   2.204   3.253  0.2300 -0.1435 -0.0760
 1882Sol     OW10847   2.778   3.200   7.121 -0.0068 -0.4473  0.4005
 1882Sol     HW10848   2.754   3.180   7.211 -1.4801 -0.4815  0.0147
 1882Sol     HW10849   2.868   3.167   7.112  0.1216 -0.5042  1.8249
 1882Sol     MW10850   2.784   3.195   7.128 -0.6086  0.0370  0.4246
 1883Sol     OW10851   0.215   3.172   8.412  0.3342 -0.5209  0.3263
 1883Sol     HW10852   0.156   3.216   8.351  2.2272 -0.1067 -1.2894
 1883Sol     HW10853   0.261   3.243   8.457 -0.5800 -0.8342  1.7798
 1883Sol     MW10854   0.214   3.182   8.410 -0.5974  0.4720 -0.3711
 1884Sol     OW10855   1.978   2.261   7.928 -0.5781 -0.5111 -0.0501
 1884Sol     HW10856   2.018   2.211   7.857  1.4175  1.2206 -0.2087
 1884Sol     HW10857   1.889   2.279   7.897  0.7610  1.6466 -2.9435
 1884Sol     MW10858   1.974   2.258   7.919  1.3404  0.2055  0.1333
 1885Sol     OW10859   2.714   2.912   7.912  0.0900 -1.0475  0.1238
 1885Sol     HW10860   2.641   2.923   7.852  0.0092  0.5276  0.5041
 1885Sol     HW10861   2.684   2.949   7.995  1.7934  0.8499 -0.0825
 1885Sol     MW10862   2.705   2.916   7.914  0.1179 -0.6421  0.3427
 1886Sol     OW10863   3.005   0.984   9.549  0.3193  0.1646 -0.2087
 1886Sol     HW10864   2.949   0.907   9.553  0.2571  0.1257 -1.5819
 1886Sol     HW10865   2.961   1.043   9.488  0.2179  1.4175  1.0600
 1886Sol     MW10866   2.996   0.982   9.544  0.2760 -0.0704  0.5261
 1887Sol     OW10867   0.759   1.149   5.059  0.1320 -0.0354  0.5182
 1887Sol     HW10868   0.679   1.191   5.029 -0.0495 -2.1887 -2.1659
 1887Sol     HW10869   0.830   1.199   5.019 -0.0513 -1.3089 -1.4861
 1887Sol     MW10870   0.758   1.157   5.053 -0.3768 -0.3033 -0.2580
 1888Sol     OW10871   1.135   2.698   6.674 -0.0836  0.1291 -0.0261
 1888Sol     HW10872   1.064   2.637   6.696  1.3572 -1.7322 -0.4349
 1888Sol     HW10873   1.171   2.724   6.759 -0.6351  0.3489  0.1464
 1888Sol     MW10874   1.132   2.695   6.684 -0.9834 -0.2444  0.2237
 1889Sol     OW10875   0.459   0.933   7.877 -0.8006  0.2617  0.1702
 1889Sol     HW10876   0.440   0.839   7.877 -0.3895  0.1453 -2.5173
 1889Sol     HW10877   0.554   0.939   7.886 -0.5607  0.3048 -2.1189
 1889Sol     MW10878   0.465   0.925   7.878 -0.0560 -0.8509 -0.1960
 1890Sol     OW10879   1.933   1.798   3.964  0.0440 -0.1965  0.1290
 1890Sol     HW10880   1.841   1.773   3.959  0.1105 -0.2511 -0.9301
 1890Sol     HW10881   1.938   1.857   4.039 -1.0965  0.8466 -0.5875
 1890Sol     MW10882   1.925   1.801   3.970  0.5158 -0.5008  0.7987
 1891Sol     OW10883   1.276   3.027   7.489  0.6917  0.1208 -0.8944
 1891Sol     HW10884   1.339   2.983   7.546  1.2725  3.0571  0.7855
 1891Sol     HW10885   1.294   3.120   7.500 -0.5824  0.8558 -4.3000
 1891Sol     MW10886   1.283   3.031   7.495  0.4094  0.2417  1.0692
 1892Sol     OW10887   1.057   3.290   7.636  0.2248 -0.0333 -0.0429
 1892Sol     HW10888   1.136   3.258   7.679 -1.0099 -2.6723  0.4067
 1892Sol     HW10889   1.037   3.224   7.570 -0.7088  1.4130 -1.2335
 1892Sol     MW10890   1.062   3.281   7.634 -0.1816 -0.1083 -0.2492
 1893Sol     OW10891   3.070   3.468   2.660  0.7677  0.1490 -0.2261
 1893Sol     HW10892   3.120   3.531   2.608  0.0898  0.5769 -0.3597
 1893Sol     HW10893   2.982   3.505   2.665  0.6890 -0.1577  0.7638
 1893Sol     MW10894   3.067   3.477   2.656 -0.1876 -1.0079 -0.2428
 1894Sol     OW10895   1.967   0.834   9.130  0.0489  0.1548  0.3117
 1894Sol     HW10896   1.920   0.888   9.193 -0.2563 -0.6145  0.7427
 1894Sol     HW10897   2.056   0.870   9.129  0.2591 -0.3185  1.7477
 1894Sol     MW10898   1.971   0.842   9.135  0.2575 -0.2293  0.0273
 1895Sol     OW10899   2.912   1.974   5.160  0.0885 -0.1024 -0.0198
 1895Sol     HW10900   2.906   2.027   5.081 -0.2393 -1.5423 -0.9882
 1895Sol     HW10901   2.890   1.885   5.131  0.1725 -0.6882  1.6462
 1895Sol     MW10902   2.910   1.971   5.150  0.4980  0.3073  0.8249
 1896Sol     OW10903   2.665   0.552   8.299 -0.1705  0.1202  0.5673
 1896Sol     HW10904   2.585   0.596   8.328 -1.4538 -1.4173 -0.5073
 1896Sol     HW10905   2.642   0.459   8.301  1.8796 -0.3964  1.0403
 1896Sol     MW10906   2.656   0.547   8.302  0.1266 -0.8968 -0.0656
 1897Sol     OW10907   0.314   1.100   8.085 -0.0417  0.2914 -0.0966
 1897Sol     HW10908   0.318   1.194   8.104  0.5575  0.4038 -0.7513
 1897Sol     HW10909   0.371   1.089   8.010 -0.8786 -0.4500 -0.6302
 1897Sol     MW10910   0.319   1.108   8.080  0.7618 -0.1801 -0.5729
 1898Sol     OW10911   0.623   1.476   8.885 -0.0029 -0.6912 -0.5695
 1898Sol     HW10912   0.558   1.407   8.882 -0.0201 -0.6083 -4.2653
 1898Sol     HW10913   0.576   1.555   8.858  0.6882  0.1870  0.7394
 1898Sol     MW10914   0.613   1.477   8.882  0.3106 -0.4803 -0.4604
 1899Sol     OW10915   1.646   1.090   9.489 -0.3276  0.2996 -0.9074
 1899Sol     HW10916   1.597   1.151   9.433 -0.0679  0.7870 -0.6079
 1899Sol     HW10917   1.583   1.021   9.509  0.1701 -0.9511 -3.4637
 1899Sol     MW10918   1.636   1.089   9.485  0.1752  0.2571 -0.0338
 1900Sol     OW10919   1.609   2.991   8.282  0.6719  0.7088  0.5875
 1900Sol     HW10920   1.696   2.997   8.322  0.8901  0.1622  0.2037
 1900Sol     HW10921   1.596   3.076   8.241  1.9299  0.0884 -1.1596
 1900Sol     MW10922   1.616   2.999   8.282  0.4734  0.3369 -0.0246
 1901Sol     OW10923   1.917   1.505   6.109  0.2863 -0.6957 -0.5595
 1901Sol     HW10924   1.967   1.433   6.147  0.6667  0.5484  1.3568
 1901Sol     HW10925   1.831   1.499   6.150  0.7375  0.7304  0.6334
 1901Sol     MW10926   1.914   1.498   6.116 -0.5711  0.2993 -0.0359
 1902Sol     OW10927   0.957   0.806   7.338 -0.0281 -0.1159 -0.3771
 1902Sol     HW10928   0.931   0.880   7.393 -2.9064 -1.5984  0.3762
 1902Sol     HW10929   0.880   0.789   7.284  1.3684 -1.2295 -2.0456
 1902Sol     MW10930   0.948   0.811   7.338  0.0540 -0.1782 -0.2178
 1903Sol     OW10931   2.730   2.065   1.970 -0.2665  0.2671  0.6342
 1903Sol     HW10932   2.699   2.148   2.004 -1.5107 -0.6970  1.9242
 1903Sol     HW10933   2.728   2.076   1.875  0.1165  1.8792  0.8046
 1903Sol     MW10934   2.727   2.073   1.964  0.1199  0.3502 -0.5268
 1904Sol     OW10935   3.177   2.426   9.091 -0.5187 -0.1703  0.3786
 1904Sol     HW10936   3.173   2.468   9.005 -1.5999  0.0040  0.5061
 1904Sol     HW10937   3.201   2.335   9.072 -0.7093 -0.1187 -0.1058
 1904Sol     MW10938   3.179   2.421   9.082 -0.6478  0.2452  0.2196
 1905Sol     OW10939   1.605   3.062   9.211 -0.3703  0.2627  0.3049
 1905Sol     HW10940   1.618   3.091   9.121  1.4956 -0.6729  0.2387
 1905Sol     HW10941   1.684   3.090   9.257 -1.4421  0.9947  1.7342
 1905Sol     MW10942   1.613   3.067   9.207 -0.8183  0.4209 -0.6109
 1906Sol     OW10943   1.098   3.399   6.288 -0.3434  0.0481 -0.2840
 1906Sol     HW10944   1.013   3.363   6.263 -0.3082  0.2260 -0.6587
 1906Sol     HW10945   1.157   3.371   6.219 -0.3384  0.9188 -0.6378
 1906Sol     MW10946   1.095   3.393   6.280  0.0315 -0.2685 -0.5549
 1907Sol     OW10947   1.022   0.273   3.378 -0.7738  0.4122  0.5241
 1907Sol     HW10948   0.938   0.316   3.367 -0.6630  0.4525 -0.1756
 1907Sol     HW10949   1.002   0.179   3.374 -0.7569  0.4246  0.1403
 1907Sol     MW10950   1.013   0.268   3.377 -0.0478  0.2554  0.1332
 1908Sol     OW10951   0.585   2.714   6.026 -0.4016  0.2080  0.1553
 1908Sol     HW10952   0.546   2.686   6.108  0.9695 -0.8844  0.4646
 1908Sol     HW10953   0.635   2.793   6.048  0.4907 -0.4500  0.5203
 1908Sol     MW10954   0.586   2.719   6.035 -0.7084  0.0511 -0.6468
 1909Sol     OW10955   0.763   1.322   6.141  0.0444  0.4554  0.0422
 1909Sol     HW10956   0.739   1.310   6.233  0.7385  0.0176  0.1741
 1909Sol     HW10957   0.859   1.316   6.141  0.0204  0.0573 -0.7632
 1909Sol     MW10958   0.769   1.320   6.149  0.2587 -0.0219  0.2545
 1910Sol     OW10959   1.278   2.355   3.721 -0.5175 -0.1109  0.2665
 1910Sol     HW10960   1.289   2.432   3.777  0.8344 -0.2668  0.2429
 1910Sol     HW10961   1.189   2.363   3.687 -0.4469  1.3769  0.3723
 1910Sol     MW10962   1.271   2.363   3.723 -0.3978 -1.3705 -0.4157
 1911Sol     OW10963   1.400   3.374   7.881 -0.0912  0.2780  0.3522
 1911Sol     HW10964   1.472   3.407   7.935  0.1085  1.8724 -0.8649
 1911Sol     HW10965   1.337   3.446   7.879 -1.0779 -0.5811  0.2340
 1911Sol     MW10966   1.401   3.384   7.886 -0.5753  0.3237  0.2465
 1912Sol     OW10967   3.328   0.341   8.661 -0.8075  0.5992  0.0835
 1912Sol     HW10968   3.367   0.394   8.592 -0.7309 -1.4152 -1.4560
 1912Sol     HW10969   3.373   0.369   8.741  1.6188  0.4683 -1.2053
 1912Sol     MW10970   3.335   0.349   8.662 -0.2694  0.1154 -0.5850
 1913Sol     OW10971   3.348   0.550   2.469  0.1397 -0.2269  0.7527
 1913Sol     HW10972   3.403   0.524   2.544 -0.0793 -1.0082  0.6513
 1913Sol     HW10973   3.405   0.606   2.416  0.3948  0.0846  1.3495
 1913Sol     MW10974   3.358   0.553   2.471  0.2213  0.2001 -0.3915
 1914Sol     OW10975   0.167   0.822   8.973  0.1501  0.7824 -0.6277
 1914Sol     HW10976   0.215   0.869   9.041 -0.9143 -1.4711  1.7936
 1914Sol     HW10977   0.075   0.828   9.000 -0.4187  0.7870 -2.4794
 1914Sol     MW10978   0.163   0.826   8.981  0.9435  0.2241  0.1906
 1915Sol     OW10979   2.258   2.968   8.248  0.8026  0.2280  0.2397
 1915Sol     HW10980   2.193   2.916   8.200 -0.3842  1.4263  0.5265
 1915Sol     HW10981   2.206   3.023   8.306  2.0070  2.3124 -0.6269
 1915Sol     MW10982   2.247   2.968   8.249 -0.7459 -0.0687  0.3807
 1916Sol     OW10983   1.201   1.114   7.352  0.3231  0.7527  0.2383
 1916Sol     HW10984   1.190   1.163   7.434  1.2847  2.0052 -0.3620
 1916Sol     HW10985   1.140   1.155   7.291 -1.6261 -1.2610  0.7509
 1916Sol     MW10986   1.194   1.122   7.354 -0.1224 -0.3692  0.0496
 1917Sol     OW10987   0.408   1.563   4.287 -0.2365  0.3095  0.4376
 1917Sol     HW10988   0.370   1.475   4.285  1.2056 -0.3910  2.1253
 1917Sol     HW10989   0.334   1.622   4.281 -1.1910 -0.9995 -1.4616
 1917Sol     MW10990   0.398   1.560   4.286  0.3631 -0.0142 -0.0052
 1918Sol     OW10991   0.721   0.401   7.732  0.2352  0.2513 -0.9543
 1918Sol     HW10992   0.633   0.435   7.713  1.0179  1.7354 -2.0590
 1918Sol     HW10993   0.765   0.473   7.777  0.9842 -0.3850 -0.6658
 1918Sol     MW10994   0.717   0.411   7.734  0.5587  0.4462  0.0838
 1919Sol     OW10995   3.264   2.654   3.052  1.1447  0.2242  0.0742
 1919Sol     HW10996   3.302   2.589   2.992 -0.0624  0.6922 -1.2163
 1919Sol     HW10997   3.297   2.738   3.019  0.4663  0.4810  0.0500
 1919Sol     MW10998   3.271   2.656   3.043 -0.2750  0.3992  0.2026
 1920Sol     OW10999   2.902   1.543   5.690 -0.9119  0.1910 -0.0034
 1920Sol     HW11000   2.973   1.580   5.741 -0.3064 -1.0220  0.0512
 1920Sol     HW11001   2.861   1.618   5.647  1.7990  0.6997 -1.8518
 1920Sol     MW11002   2.904   1.553   5.691 -0.1990 -0.3531 -0.7281
 1921Sol     OW11003   2.719   2.045   3.877 -0.3399  0.1043 -0.4484
 1921Sol     HW11004   2.672   1.962   3.871 -1.8880  0.7767  1.6291
 1921Sol     HW11005   2.810   2.020   3.894 -0.9657 -1.1732  1.1896
 1921Sol     MW11006   2.723   2.035   3.878 -0.0353  0.1808  0.2108
 1922Sol     OW11007   1.703   3.361   7.231 -0.1576  0.6916  0.5205
 1922Sol     HW11008   1.647   3.342   7.155 -0.2608  1.1243  0.4862
 1922Sol     HW11009   1.702   3.279   7.282 -0.7077  0.6463  0.4457
 1922Sol     MW11010   1.698   3.352   7.229 -0.2442 -0.3869  1.1118
 1923Sol     OW11011   2.575   2.888   8.992 -0.1235  0.4264 -0.4942
 1923Sol     HW11012   2.653   2.927   9.032  0.1323 -0.7686  0.2031
 1923Sol     HW11013   2.595   2.795   8.988 -2.5855 -0.2984  2.2738
 1923Sol     MW11014   2.584   2.883   8.995  0.1336 -0.1133  0.4343
 1924Sol     OW11015   0.585   2.325   5.811 -0.5222  0.2236  0.2100
 1924Sol     HW11016   0.508   2.297   5.860 -2.2254  1.7195 -1.5465
 1924Sol     HW11017   0.605   2.251   5.753 -0.7797 -0.0735  0.5007
 1924Sol     MW11018   0.580   2.316   5.810  0.0462 -0.8728  0.6930
 1925Sol     OW11019   1.128   1.164   6.883 -0.3443  0.2881 -0.2249
 1925Sol     HW11020   1.190   1.213   6.828 -0.5193 -0.1149 -0.7803
 1925Sol     HW11021   1.183   1.110   6.940 -0.1031  2.0083  1.2379
 1925Sol     MW11022   1.138   1.164   6.883 -0.1120 -0.0442 -0.8444
 1926Sol     OW11023   2.910   2.591   2.736 -0.0476 -0.2522 -0.8838
 1926Sol     HW11024   2.852   2.564   2.807  2.0275 -0.3909  0.8280
 1926Sol     HW11025   2.905   2.687   2.736  2.1585 -0.0800  1.4587
 1926Sol     MW11026   2.904   2.597   2.743 -0.4571 -0.6155  0.8736
 1927Sol     OW11027   2.120   0.542   6.420 -0.2128  0.3455  0.1559
 1927Sol     HW11028   2.137   0.587   6.337 -0.5606 -0.0887 -0.1586
 1927Sol     HW11029   2.087   0.610   6.478  1.6168  1.0031  0.4695
 1927Sol     MW11030   2.119   0.552   6.418  0.4814  0.1953  0.2246
 1928Sol     OW11031   2.125   2.596   7.840 -0.3012  0.0451 -0.1358
 1928Sol     HW11032   2.184   2.629   7.772  0.8210  0.1264  0.8624
 1928Sol     HW11033   2.047   2.651   7.833  1.5835  3.0930  1.5756
 1928Sol     MW11034   2.124   2.604   7.833  0.1098  0.0107  0.0286
 1929Sol     OW11035   1.939   0.977   7.677  0.1440 -0.1887  0.1424
 1929Sol     HW11036   1.976   1.004   7.593 -0.3462  0.7210  0.2081
 1929Sol     HW11037   1.920   0.884   7.666  0.1436 -0.0925 -0.7278
 1929Sol     MW11038   1.941   0.971   7.669 -0.0353  0.1348  0.7496
 1930Sol     OW11039   1.451   2.987   7.694 -0.0188 -0.1457 -0.0558
 1930Sol     HW11040   1.469   2.907   7.742 -1.3510 -1.0140 -0.9708
 1930Sol     HW11041   1.534   3.008   7.650  0.4541 -0.7803  0.5286
 1930Sol     MW11042   1.460   2.982   7.694  0.1250 -0.2223 -0.4316
 1931Sol     OW11043   0.566   2.611   8.154  0.2852  0.1079 -0.1877
 1931Sol     HW11044   0.529   2.539   8.103  1.0998 -1.3721  1.2556
 1931Sol     HW11045   0.503   2.623   8.226  0.2155  0.7764 -0.3536
 1931Sol     MW11046   0.557   2.606   8.156  0.2996 -0.2095  0.7203
 1932Sol     OW11047   2.501   3.062   8.360  0.1528 -0.1795  0.1426
 1932Sol     HW11048   2.566   3.006   8.402 -0.4907 -0.3702  0.8777
 1932Sol     HW11049   2.432   3.002   8.331  0.4594 -0.0230 -0.9619
 1932Sol     MW11050   2.501   3.052   8.361  0.0565  0.1793 -0.0466
 1933Sol     OW11051   0.797   0.631   3.176  0.3780 -0.0483  0.7666
 1933Sol     HW11052   0.878   0.601   3.136  1.5605  0.2109  2.8781
 1933Sol     HW11053   0.808   0.725   3.185 -0.4478  0.0816  0.4103
 1933Sol     MW11054   0.805   0.636   3.174 -0.5617 -0.1696 -0.2303
 1934Sol     OW11055   2.487   1.612   5.503  0.1406  0.6389 -0.3667
 1934Sol     HW11056   2.400   1.636   5.471 -0.3531 -1.1609 -0.4271
 1934Sol     HW11057   2.537   1.592   5.424 -0.0406 -0.4487 -0.2044
 1934Sol     MW11058   2.484   1.613   5.493 -0.0611 -0.4855 -0.0949
 1935Sol     OW11059   0.643   1.824   7.921 -0.3453  0.0007  0.0331
 1935Sol     HW11060   0.560   1.861   7.890 -0.3628  1.3191  1.5535
 1935Sol     HW11061   0.698   1.901   7.940  0.6706 -0.8228  0.4925
 1935Sol     MW11062   0.641   1.835   7.920  0.3055  0.0166 -0.1295
 1936Sol     OW11063   2.406   1.088   9.006  0.3010  0.3680 -0.1198
 1936Sol     HW11064   2.345   1.037   8.952  1.9005 -1.6435 -0.1048
 1936Sol     HW11065   2.356   1.111   9.084 -0.0080 -2.6710  0.6419
 1936Sol     MW11066   2.396   1.086   9.008 -0.2125  0.1633 -0.0618
 1937Sol     OW11067   0.411   3.393   2.462  0.5421  0.0721 -0.3411
 1937Sol     HW11068   0.326   3.388   2.418  0.4330 -0.7140 -0.0435
 1937Sol     HW11069   0.467   3.332   2.414  0.3967 -0.8524  0.6437
 1937Sol     MW11070   0.408   3.387   2.454  0.3071 -0.8244  0.1926
 1938Sol     OW11071   1.733   2.497   2.034 -0.1619  0.0264 -0.5729
 1938Sol     HW11072   1.817   2.454   2.021  1.4124  3.0543 -0.8821
 1938Sol     HW11073   1.744   2.549   2.113 -1.2398  1.5777 -1.3929
 1938Sol     MW11074   1.741   2.498   2.040 -0.0000 -0.1516  0.0949
 1939Sol     OW11075   1.318   0.695   2.779 -0.2569 -0.1495  0.1365
 1939Sol     HW11076   1.245   0.724   2.834 -1.4957 -0.1202 -1.4977
 1939Sol     HW11077   1.371   0.774   2.766  0.6676 -0.3849  2.1598
 1939Sol     MW11078   1.316   0.705   2.783  0.1186  0.4127 -0.4518
 1940Sol     OW11079   1.043   1.363   4.498  0.5965  0.4174 -0.2143
 1940Sol     HW11080   1.029   1.284   4.447  0.6523  0.0498  0.3436
 1940Sol     HW11081   0.963   1.414   4.486  0.5903  0.3117 -0.6281
 1940Sol     MW11082   1.035   1.361   4.492  0.3317  0.1404  0.4575
 1941Sol     OW11083   1.456   2.597   5.322  0.6160  0.1360 -0.4844
 1941Sol     HW11084   1.463   2.531   5.392  0.0838  0.4624 -0.1192
 1941Sol     HW11085   1.545   2.604   5.288  0.3879 -1.9368 -1.6039
 1941Sol     MW11086   1.464   2.591   5.325  0.3149  0.0133  0.1298
 1942Sol     OW11087   2.887   0.750   6.643  0.4371  0.0271 -0.4335
 1942Sol     HW11088   2.856   0.802   6.717  0.0979  0.5826 -0.9632
 1942Sol     HW11089   2.862   0.660   6.665  1.4330  0.0172  0.6949
 1942Sol     MW11090   2.882   0.746   6.652 -0.2182 -0.4707 -0.1088
 1943Sol     OW11091   2.861   0.593   8.122  0.0220  0.2071 -0.4874
 1943Sol     HW11092   2.790   0.577   8.184 -0.0169  1.3524 -0.2224
 1943Sol     HW11093   2.884   0.506   8.089 -0.8774 -0.2695  0.1110
 1943Sol     MW11094   2.857   0.584   8.124  0.7041  0.3529 -0.6953
 1944Sol     OW11095   1.672   1.704   3.958  0.3852  0.3790  0.1026
 1944Sol     HW11096   1.584   1.734   3.934 -0.6578 -2.3649  0.2863
 1944Sol     HW11097   1.672   1.701   4.054 -0.8704 -3.6707  0.0952
 1944Sol     MW11098   1.664   1.706   3.964 -0.2907  0.3573 -0.3699
 1945Sol     OW11099   1.232   0.605   7.133  0.2422  0.1862 -0.5686
 1945Sol     HW11100   1.168   0.673   7.114  0.4372  0.4710 -0.2239
 1945Sol     HW11101   1.312   0.654   7.156  0.1465 -0.1411  0.5028
 1945Sol     MW11102   1.234   0.616   7.134 -0.4654 -0.2608  0.1377
 1946Sol     OW11103   0.431   1.420   7.884  0.7335  0.5592 -0.3108
 1946Sol     HW11104   0.388   1.416   7.970  2.2747  1.2642  0.5231
 1946Sol     HW11105   0.359   1.420   7.821 -0.4397  0.4310  1.0018
 1946Sol     MW11106   0.420   1.420   7.886 -0.4024 -0.0471  0.3741
 1947Sol     OW11107   2.898   2.326   4.294 -0.4432  0.5971  0.3170
 1947Sol     HW11108   2.870   2.358   4.208 -0.5172  2.4928  1.0040
 1947Sol     HW11109   2.915   2.406   4.344 -1.0007 -0.4631  2.2575
 1947Sol     MW11110   2.897   2.336   4.291  0.7514  0.0464 -0.0679
 1948Sol     OW11111   1.487   0.525   6.769  0.0250  0.4164  0.6519
 1948Sol     HW11112   1.476   0.483   6.684  1.2959  1.7284 -0.1821
 1948Sol     HW11113   1.417   0.489   6.823 -0.6461 -0.6080 -0.8803
 1948Sol     MW11114   1.480   0.518   6.766  0.2344 -0.5150 -0.2815
 1949Sol     OW11115   2.588   2.108   7.193 -0.3167  0.3595  0.2846
 1949Sol     HW11116   2.678   2.106   7.225 -0.6658  1.7859  1.3702
 1949Sol     HW11117   2.596   2.134   7.102  0.4067 -0.1870  0.1787
 1949Sol     MW11118   2.597   2.110   7.188 -0.1875  0.0931  0.1906
 1950Sol     OW11119   0.984   0.108   1.742  0.0666 -0.5811 -0.0762
 1950Sol     HW11120   0.956   0.135   1.829 -1.4145 -0.6776 -0.5125
 1950Sol     HW11121   0.983   0.188   1.689 -1.2391 -0.9059 -0.5640
 1950Sol     MW11122   0.981   0.117   1.745 -0.2015 -0.0352  0.0730
 1951Sol     OW11123   1.838   0.956   7.243  0.0341 -0.1239  0.3453
 1951Sol     HW11124   1.761   0.929   7.192 -1.0829  0.5301  1.6614
 1951Sol     HW11125   1.870   0.875   7.282 -0.3612 -0.3151  0.2823
 1951Sol     MW11126   1.834   0.946   7.242  0.2336  0.3817  1.0583
 1952Sol     OW11127   1.346   1.172   4.262 -0.0008  0.1175  0.1110
 1952Sol     HW11128   1.360   1.136   4.174  0.1794 -0.7011  0.4690
 1952Sol     HW11129   1.251   1.179   4.271  0.0001  0.7096 -0.3522
 1952Sol     MW11130   1.339   1.170   4.255  0.1674  0.1685 -0.6640
 1953Sol     OW11131   2.225   3.070   8.977 -0.1338  0.7292  0.2441
 1953Sol     HW11132   2.204   3.163   8.982  0.9788  0.9491  1.1342
 1953Sol     HW11133   2.169   3.030   9.043 -1.1113  0.6591 -0.6131
 1953Sol     MW11134   2.218   3.075   8.983 -0.1051 -0.2087  0.2374
 1954Sol     OW11135   1.894   3.456   8.300  0.4580 -0.0855  0.5944
 1954Sol     HW11136   1.904   3.431   8.392  2.0466 -1.4910  0.0620
 1954Sol     HW11137   1.957   3.526   8.288  0.7743 -0.4094  0.3825
 1954Sol     MW11138   1.900   3.460   8.307  0.4323 -0.8508  0.1032
 1955Sol     OW11139   3.012   0.230   5.647 -0.2462  0.5243 -0.0511
 1955Sol     HW11140   2.987   0.253   5.557 -1.5694  3.8064  1.0923
 1955Sol     HW11141   2.952   0.279   5.702  0.0049 -2.0998  2.6865
 1955Sol     MW11142   3.005   0.236   5.644  0.1930 -0.1724  0.4116
 1956Sol     OW11143   1.529   3.288   4.958 -0.0333  0.2340 -0.0742
 1956Sol     HW11144   1.594   3.223   4.930  1.0669  1.3608 -0.1535
 1956Sol     HW11145   1.505   3.333   4.877 -2.5469 -1.5991 -0.4212
 1956Sol     MW11146   1.533   3.286   4.948  0.4736 -0.1615  0.4723
 1957Sol     OW11147   2.555   1.710   1.704 -0.3661  0.2045  0.5982
 1957Sol     HW11148   2.635   1.760   1.690 -0.2847  0.6606  2.5165
 1957Sol     HW11149   2.581   1.619   1.692 -0.0859  0.4962 -1.0500
 1957Sol     MW11150   2.564   1.707   1.702  0.1855 -0.5025 -0.7174
 1958Sol     OW11151   1.573   0.577   2.207  0.3264 -0.3050 -0.0021
 1958Sol     HW11152   1.517   0.654   2.202 -0.5528 -0.8793  0.7788
 1958Sol     HW11153   1.661   0.610   2.191  0.0394  0.9666  0.9949
 1958Sol     MW11154   1.576   0.587   2.205 -0.2995 -0.1073 -0.9093
 1959Sol     OW11155   1.036   1.080   4.873 -0.5900  0.1851  0.0694
 1959Sol     HW11156   1.015   1.173   4.880 -0.3606  0.1942  0.6422
 1959Sol     HW11157   1.039   1.049   4.963  0.5118 -0.1156 -0.0655
 1959Sol     MW11158   1.034   1.086   4.882  0.2064 -0.7054  0.8111
 1960Sol     OW11159   1.175   3.071   8.471  0.0026  0.0010  0.6518
 1960Sol     HW11160   1.255   3.124   8.464 -0.4649  1.0415  2.7187
 1960Sol     HW11161   1.159   3.040   8.382  1.7687  1.1890 -0.1115
 1960Sol     MW11162   1.181   3.073   8.462  0.3447  0.1355 -0.3211
 1961Sol     OW11163   0.622   1.076   3.366  0.3736  0.5063  0.0749
 1961Sol     HW11164   0.530   1.101   3.373  0.2295 -0.3953  1.5120
 1961Sol     HW11165   0.668   1.158   3.348 -0.6701  0.9936 -0.4120
 1961Sol     MW11166   0.618   1.086   3.365  0.4126  0.9382 -0.0224
 1962Sol     OW11167   2.072   2.402   3.229  0.9189 -0.5851 -0.1564
 1962Sol     HW11168   2.045   2.489   3.199  2.2225 -0.3369 -0.6117
 1962Sol     HW11169   1.995   2.367   3.274  0.3056  0.6919 -0.2181
 1962Sol     MW11170   2.062   2.406   3.230 -1.0313  0.6623  0.2013
 1963Sol     OW11171   0.102   1.537   3.663 -0.2939  0.1123  0.4021
 1963Sol     HW11172   0.126   1.490   3.743  1.7440  0.3428 -0.0332
 1963Sol     HW11173   0.127   1.477   3.592 -0.0609  0.7856 -0.0924
 1963Sol     MW11174   0.107   1.527   3.664  1.0412 -0.7876 -0.0798
 1964Sol     OW11175   1.757   3.355   4.552 -0.0966 -0.4851  0.3959
 1964Sol     HW11176   1.806   3.291   4.604 -2.0811 -1.8831  0.6331
 1964Sol     HW11177   1.675   3.368   4.601 -0.1515  1.4792 -0.1764
 1964Sol     MW11178   1.754   3.350   4.561  0.1118  0.8436  0.0049
 1965Sol     OW11179   2.396   2.652   7.624  0.0259 -0.6079  0.0290
 1965Sol     HW11180   2.484   2.654   7.661 -0.1185  0.2637  0.3580
 1965Sol     HW11181   2.410   2.649   7.529  0.4943  3.4068 -0.1350
 1965Sol     MW11182   2.405   2.652   7.618  0.1139 -0.3569 -0.5364
 1966Sol     OW11183   0.517   1.127   6.143  0.2333 -0.3991 -0.3145
 1966Sol     HW11184   0.587   1.081   6.098  1.1987 -0.1831  0.9363
 1966Sol     HW11185   0.561   1.198   6.191 -1.0778  1.0285 -1.1703
 1966Sol     MW11186   0.527   1.129   6.143  0.1938 -0.4447  0.1311
 1967Sol     OW11187   1.154   0.815   8.005 -0.5161 -0.0806 -0.8653
 1967Sol     HW11188   1.166   0.753   7.933  0.6232 -0.5729 -0.2643
 1967Sol     HW11189   1.224   0.879   7.995 -0.3130 -0.1844 -0.1762
 1967Sol     MW11190   1.161   0.815   7.998 -0.1599  0.6449  0.2168
 1968Sol     OW11191   2.584   3.103   6.306  0.6307  0.4172  0.2340
 1968Sol     HW11192   2.546   3.174   6.358  0.8770  0.0539  0.9223
 1968Sol     HW11193   2.671   3.134   6.283  0.4637  0.6441 -0.0895
 1968Sol     MW11194   2.588   3.112   6.309 -0.0228 -0.4031 -0.3410
 1969Sol     OW11195   2.251   2.525   9.122 -0.1427 -0.9272 -0.0481
 1969Sol     HW11196   2.321   2.521   9.187  0.2216 -0.0286 -0.3795
 1969Sol     HW11197   2.171   2.538   9.172  0.2404  0.6698  0.1797
 1969Sol     MW11198   2.250   2.526   9.132  0.4091 -0.6970  0.1395
 1970Sol     OW11199   0.160   0.596   4.866 -0.0429 -0.0897 -0.1513
 1970Sol     HW11200   0.220   0.651   4.816 -0.2836 -0.3834 -0.7647
 1970Sol     HW11201   0.121   0.655   4.930  0.8047  0.1319  0.1670
 1970Sol     MW11202   0.162   0.606   4.867 -0.7202  0.5783 -0.0451
 1971Sol     OW11203   2.733   3.379   2.867  0.4202 -0.3126  0.3309
 1971Sol     HW11204   2.734   3.462   2.818  3.8069 -1.1185 -1.0800
 1971Sol     HW11205   2.676   3.322   2.816 -0.7329  0.6681  0.5017
 1971Sol     MW11206   2.728   3.382   2.858 -0.7271 -0.5248 -0.1238
 1972Sol     OW11207   1.062   2.043   1.959 -0.2924  0.3433 -0.8280
 1972Sol     HW11208   1.071   2.127   1.915  0.6321  0.3684 -0.5917
 1972Sol     HW11209   1.107   2.054   2.042  0.3697 -0.5828 -1.0618
 1972Sol     MW11210   1.067   2.051   1.962  0.3473 -0.7148  0.5765
 1973Sol     OW11211   2.782   0.189   3.191  0.1002 -0.5588  0.0959
 1973Sol     HW11212   2.864   0.226   3.155 -1.0536  0.9350 -1.0802
 1973Sol     HW11213   2.787   0.096   3.170  0.3540 -0.0588 -2.3044
 1973Sol     MW11214   2.790   0.184   3.186 -0.1521 -0.3249 -0.6593
 1974Sol     OW11215   1.089   2.977   8.221 -0.3119 -0.5209 -0.0449
 1974Sol     HW11216   0.998   2.949   8.232 -0.0333 -1.2651  0.4320
 1974Sol     HW11217   1.102   2.980   8.126 -0.4562 -1.7020 -0.1139
 1974Sol     MW11218   1.082   2.975   8.213 -0.2695 -0.2681 -0.3058
 1975Sol     OW11219   0.631   2.795   4.005 -0.3711 -0.2801 -0.1350
 1975Sol     HW11220   0.714   2.820   4.046 -0.6953  1.1310 -0.3129
 1975Sol     HW11221   0.618   2.705   4.032  1.3275 -0.5919 -0.2713
 1975Sol     MW11222   0.637   2.789   4.011 -0.0203 -0.4761  0.5019
 1976Sol     OW11223   2.694   2.232   6.971  0.1744 -0.0952 -0.3668
 1976Sol     HW11224   2.721   2.156   6.919  0.5492  0.1045 -0.4616
 1976Sol     HW11225   2.749   2.303   6.940  1.2921 -0.2560  1.1816
 1976Sol     MW11226   2.701   2.231   6.963 -0.4232  0.2880  0.4936
 1977Sol     OW11227   3.195   3.363   9.641 -0.2917 -0.3179  0.1803
 1977Sol     HW11228   3.266   3.329   9.585  0.4031  0.5977  0.5024
 1977Sol     HW11229   3.161   3.285   9.684  1.1923 -0.6609  0.7904
 1977Sol     MW11230   3.199   3.353   9.640 -0.3353  0.1630 -0.2002
 1978Sol     OW11231   1.651   0.151   4.149 -0.6186 -0.2158 -0.1116
 1978Sol     HW11232   1.711   0.076   4.149 -1.5105 -0.9306 -0.4457
 1978Sol     HW11233   1.583   0.128   4.212 -1.1570  0.0974 -0.5712
 1978Sol     MW11234   1.650   0.143   4.155  0.2271  0.2074  0.0402
 1979Sol     OW11235   1.939   1.428   7.176 -0.1007  0.0844  0.2579
 1979Sol     HW11236   1.966   1.336   7.180  1.8549  0.6565  0.9910
 1979Sol     HW11237   2.018   1.477   7.199 -1.2456  1.9407  0.3498
 1979Sol     MW11238   1.949   1.424   7.178 -0.5359  0.2134 -0.5411
 1980Sol     OW11239   0.031   0.692   3.991 -0.0747 -0.2226 -0.2978
 1980Sol     HW11240  -0.002   0.697   3.901 -1.7738 -0.0841  0.3096
 1980Sol     HW11241   0.001   0.774   4.031  0.7008 -0.2724  0.3875
 1980Sol     MW11242   0.025   0.700   3.987  0.2464  0.6979  0.1355
 1981Sol     OW11243   0.889   0.547   8.942 -0.2405 -0.1283 -0.2136
 1981Sol     HW11244   0.888   0.554   9.037 -1.1132  0.0067 -0.2294
 1981Sol     HW11245   0.908   0.635   8.911  1.5331 -0.4534 -0.1487
 1981Sol     MW11246   0.891   0.555   8.947  0.2710  0.0085 -0.5879
 1982Sol     OW11247   1.956   0.589   5.289  0.0115 -0.0493 -0.4172
 1982Sol     HW11248   1.874   0.598   5.240 -1.4107  0.1542  1.9269
 1982Sol     HW11249   1.967   0.494   5.299 -0.4261 -0.0476  0.0756
 1982Sol     MW11250   1.950   0.581   5.285  0.1742  0.0607 -0.1377
 1983Sol     OW11251   2.042   0.179   3.095 -0.1703  0.0791  0.0982
 1983Sol     HW11252   1.955   0.174   3.054 -0.8633 -0.3240  1.5866
 1983Sol     HW11253   2.027   0.226   3.177  1.0009 -0.0765  0.4058
 1983Sol     MW11254   2.032   0.183   3.099  0.3343 -0.6227 -0.0249
 1984Sol     OW11255   3.071   1.731   4.210 -0.1786 -0.2181 -0.0983
 1984Sol     HW11256   2.990   1.735   4.259  0.8222 -1.3759  1.7062
 1984Sol     HW11257   3.065   1.649   4.160 -0.0204 -0.4529  0.2604
 1984Sol     MW11258   3.063   1.724   4.210  0.5398  0.2115  0.3054
 1985Sol     OW11259   1.140   1.069   8.166 -0.2752  0.7633  0.0801
 1985Sol     HW11260   1.157   1.109   8.251 -0.2583  0.3696  0.2601
 1985Sol     HW11261   1.227   1.059   8.127 -0.3224  1.4626 -0.2214
 1985Sol     MW11262   1.150   1.072   8.170 -0.1377  0.2929 -0.3899
 1986Sol     OW11263   1.306   1.007   5.264  0.0202 -0.4670  0.4735
 1986Sol     HW11264   1.348   1.079   5.311 -2.2934  0.6577  0.9150
 1986Sol     HW11265   1.289   0.941   5.332  2.1165 -1.4323  0.0727
 1986Sol     MW11266   1.308   1.008   5.274 -0.4580  0.1531  0.2668
 1987Sol     OW11267   1.006   2.774   5.822 -0.1396  0.7859 -0.2887
 1987Sol     HW11268   0.971   2.766   5.911 -0.3950  2.4720 -0.2276
 1987Sol     HW11269   1.093   2.813   5.834  1.0074 -1.5757 -0.5878
 1987Sol     MW11270   1.011   2.777   5.831  0.3586 -0.1180  0.2952
 1988Sol     OW11271   2.131   1.280   8.232 -0.2916 -0.2195 -0.1327
 1988Sol     HW11272   2.091   1.338   8.167  0.3153 -0.9319 -1.1599
 1988Sol     HW11273   2.190   1.336   8.281  0.1901  0.0655 -1.0238
 1988Sol     MW11274   2.132   1.290   8.230  0.2337 -0.0233  0.1295
 1989Sol     OW11275   3.074   0.861   8.038  0.4700 -0.0974 -0.5288
 1989Sol     HW11276   2.982   0.833   8.034  0.7044 -0.9981  0.4188
 1989Sol     HW11277   3.124   0.780   8.048  1.3382  0.4360 -0.4938
 1989Sol     MW11278   3.070   0.851   8.038 -0.0964  0.2727  0.3968
 1990Sol     OW11279   0.242   2.197   2.394  0.2951 -0.0183  0.6912
 1990Sol     HW11280   0.290   2.277   2.374  0.1632 -0.3532 -1.0251
 1990Sol     HW11281   0.268   2.135   2.327 -1.7648 -0.5127  0.2997
 1990Sol     MW11282   0.248   2.199   2.386 -0.3766 -0.3635 -0.0946
 1991Sol     OW11283   0.209   3.192   5.120 -0.1852 -0.3891  0.3551
 1991Sol     HW11284   0.132   3.190   5.065  1.1087 -1.2444 -1.4727
 1991Sol     HW11285   0.233   3.100   5.132  0.7952 -0.1236  0.5283
 1991Sol     MW11286   0.204   3.184   5.116 -0.4812 -0.0547  0.0633
 1992Sol     OW11287   0.260   0.599   7.317  0.0791  0.4117 -0.3945
 1992Sol     HW11288   0.309   0.631   7.393  0.1733 -1.1346  0.2166
 1992Sol     HW11289   0.245   0.677   7.264 -0.5538  1.6463  1.5266
 1992Sol     MW11290   0.263   0.609   7.319  0.6378 -0.3253 -0.0160
 1993Sol     OW11291   3.341   1.579   4.327  0.3067  0.5942  0.0485
 1993Sol     HW11292   3.367   1.672   4.326  0.7125  0.4819  0.2613
 1993Sol     HW11293   3.260   1.578   4.378  0.4409  0.7966  0.2687
 1993Sol     MW11294   3.336   1.588   4.331 -0.5620  0.3202  0.4758
 1994Sol     OW11295   1.719   0.899   5.718 -0.6515 -0.1046  0.0861
 1994Sol     HW11296   1.778   0.833   5.682  1.1801  0.8671  1.2058
 1994Sol     HW11297   1.689   0.861   5.801 -0.7987 -0.1849 -0.0056
 1994Sol     MW11298   1.722   0.890   5.722  0.7669 -0.2980 -0.0899
 1995Sol     OW11299   2.875   0.796   4.611 -0.5697 -0.7778  0.2414
 1995Sol     HW11300   2.899   0.740   4.537 -0.9705 -0.1582 -0.3636
 1995Sol     HW11301   2.942   0.778   4.678 -0.6605 -1.9207  0.0279
 1995Sol     MW11302   2.884   0.789   4.610  0.5213  0.0488 -0.4137
 1996Sol     OW11303   2.200   2.467   1.847 -0.1485 -0.2489 -0.4848
 1996Sol     HW11304   2.117   2.457   1.894 -0.4767 -0.7229 -1.1587
 1996Sol     HW11305   2.190   2.414   1.769  0.5526  0.2146 -0.8963
 1996Sol     MW11306   2.192   2.462   1.845 -0.0515  0.8424 -0.5281
 1997Sol     OW11307   1.519   3.452   5.652 -0.0188  0.0631 -0.4161
 1997Sol     HW11308   1.457   3.430   5.583  0.1039  0.0318 -0.5170
 1997Sol     HW11309   1.577   3.517   5.613  0.3525 -0.3120 -0.5016
 1997Sol     MW11310   1.519   3.456   5.643  0.3196 -0.1010  0.4724
 1998Sol     OW11311   0.006   0.179   6.408  0.0093  0.1751 -0.6903
 1998Sol     HW11312   0.040   0.269   6.415 -0.8362  0.4204  0.2742
 1998Sol     HW11313  -0.080   0.188   6.367  0.2139 -0.2677 -1.2337
 1998Sol     MW11314   0.002   0.188   6.405 -0.1543 -0.0727 -0.1503
 1999Sol     OW11315   2.246   1.471   2.182 -0.0556 -0.2195 -0.5407
 1999Sol     HW11316   2.189   1.436   2.250  0.5122 -0.7910 -0.3567
 1999Sol     HW11317   2.236   1.411   2.109 -0.9505  0.5982 -1.1170
 1999Sol     MW11318   2.240   1.463   2.182  0.1837  0.6938 -0.0856
 2000Sol     OW11319   1.155   1.184   8.409  0.3166 -0.0520 -0.7537
 2000Sol     HW11320   1.152   1.279   8.418  2.0846  0.0800 -1.3881
 2000Sol     HW11321   1.078   1.153   8.457  0.6111  1.5846  0.8195
 2000Sol     MW11322   1.147   1.190   8.414  0.1240  0.4012  0.5819
 2001Sol     OW11323   3.120   3.140   5.708 -0.2435  0.4423  0.1342
 2001Sol     HW11324   3.143   3.153   5.800  2.0405  1.0919 -0.4830
 2001Sol     HW11325   3.199   3.166   5.660 -1.3449 -0.0375 -2.0011
 2001Sol     MW11326   3.130   3.144   5.712 -0.2287 -0.0053 -0.2160
 2002Sol     OW11327   2.552   0.680   9.011  0.1132  0.0097  0.4250
 2002Sol     HW11328   2.489   0.720   9.071 -0.8702  0.6007 -0.9742
 2002Sol     HW11329   2.505   0.674   8.928  1.8059  0.1578 -0.5635
 2002Sol     MW11330   2.542   0.683   9.009 -0.5716 -0.3738 -0.8492
 2003Sol     OW11331   0.103   3.435   6.569 -0.2290  0.0470  0.4244
 2003Sol     HW11332   0.043   3.498   6.528 -0.6518  0.1816  1.2535
 2003Sol     HW11333   0.084   3.352   6.524 -0.4053  0.2772  0.0693
 2003Sol     MW11334   0.096   3.433   6.561  1.5508  0.0777 -0.0970
 2004Sol     OW11335   2.344   1.142   5.824  0.3116  0.1378 -0.0351
 2004Sol     HW11336   2.340   1.061   5.773 -1.3212 -0.0492  0.3523
 2004Sol     HW11337   2.357   1.211   5.759  1.5046 -0.4004 -0.3876
 2004Sol     MW11338   2.345   1.140   5.814 -0.0834 -0.0225 -0.1892
 2005Sol     OW11339   0.978   3.308   8.488 -0.7761  0.7145  0.3636
 2005Sol     HW11340   1.045   3.240   8.485 -0.2385  1.2103  1.1627
 2005Sol     HW11341   1.026   3.390   8.490 -1.4372  1.2027 -2.2131
 2005Sol     MW11342   0.988   3.309   8.488 -0.4043  0.0026 -0.2698
 2006Sol     OW11343   2.482   2.299   5.055 -0.7011  0.7180 -0.4990
 2006Sol     HW11344   2.422   2.371   5.073 -1.9982  0.1460 -2.5185
 2006Sol     HW11345   2.444   2.253   4.981  1.5137 -0.4791 -0.9294
 2006Sol     MW11346   2.474   2.301   5.050 -0.1774 -0.2407 -0.0135
 2007Sol     OW11347   2.635   1.392   6.140 -0.4666  0.5707 -0.4192
 2007Sol     HW11348   2.661   1.427   6.055 -0.4101  1.1809 -0.1518
 2007Sol     HW11349   2.580   1.460   6.178 -0.3663  0.3622  0.1007
 2007Sol     MW11350   2.632   1.401   6.135  0.3615 -0.3921 -0.3254
 2008Sol     OW11351   1.221   2.201   2.738 -0.0570 -0.5351  0.2601
 2008Sol     HW11352   1.174   2.183   2.656  2.1868 -0.8320 -1.0019
 2008Sol     HW11353   1.261   2.286   2.723 -0.3144 -0.2112  1.3981
 2008Sol     MW11354   1.220   2.207   2.729 -0.0592 -0.0646  0.4237
 2009Sol     OW11355   3.126   1.668   4.996 -0.4638 -0.0020  0.2997
 2009Sol     HW11356   3.095   1.580   5.017  1.9131 -1.1497 -0.8185
 2009Sol     HW11357   3.074   1.694   4.920 -0.7597 -0.6776  0.2713
 2009Sol     MW11358   3.119   1.663   4.991 -0.2127 -0.4113  0.2161
 2010Sol     OW11359   0.372   3.029   9.649 -0.5524 -0.2891  0.2754
 2010Sol     HW11360   0.382   2.950   9.596 -3.1480 -0.6977  0.3368
 2010Sol     HW11361   0.385   2.999   9.739 -1.4345 -0.6169  0.2911
 2010Sol     MW11362   0.374   3.019   9.653 -0.0810 -0.0479  0.0583
 2011Sol     OW11363   0.659   2.227   5.304  0.0827 -0.1147  0.4042
 2011Sol     HW11364   0.601   2.162   5.265 -2.0538  1.3607  1.0271
 2011Sol     HW11365   0.738   2.225   5.250 -0.1182 -2.8751  0.1380
 2011Sol     MW11366   0.661   2.221   5.296  0.4431  0.4865  0.0621
 2012Sol     OW11367   1.860   0.002   4.133  0.0974  0.3311  0.1109
 2012Sol     HW11368   1.947   0.041   4.147 -0.5763  1.7228  0.5075
 2012Sol     HW11369   1.862  -0.028   4.042  1.2916 -0.4334  0.3704
 2012Sol     MW11370   1.868   0.003   4.126 -0.9584 -0.3628  0.7043
 2013Sol     OW11371   2.792   3.410   6.772  0.7078  0.1303  0.0652
 2013Sol     HW11372   2.785   3.467   6.696  2.2232  0.7366  0.3488
 2013Sol     HW11373   2.781   3.322   6.738 -1.2880  0.5490 -0.4389
 2013Sol     MW11374   2.790   3.408   6.763 -0.3905  0.0067  0.3561
 2014Sol     OW11375   3.250   0.230   4.231  0.0669 -0.1472  0.1932
 2014Sol     HW11376   3.312   0.224   4.303 -0.8914  1.5091  1.2150
 2014Sol     HW11377   3.168   0.196   4.267 -0.4080  0.6524 -0.1069
 2014Sol     MW11378   3.248   0.227   4.241 -0.2712  0.0865 -0.5012
 2015Sol     OW11379   0.638   2.320   4.981 -0.1453  0.1126 -0.4813
 2015Sol     HW11380   0.697   2.252   5.012 -0.4825 -0.4295 -1.0154
 2015Sol     HW11381   0.695   2.389   4.946  0.2676  1.1221  2.1185
 2015Sol     MW11382   0.648   2.320   4.980 -1.2755 -0.4440 -0.1954
 2016Sol     OW11383   1.858   3.403   8.576 -0.7635  0.1099  0.2970
 2016Sol     HW11384   1.874   3.491   8.611 -2.0219  0.5433 -0.2217
 2016Sol     HW11385   1.907   3.345   8.635 -0.3273  1.1122  0.9292
 2016Sol     MW11386   1.864   3.406   8.585  0.4376 -0.3832  0.0917
 2017Sol     OW11387   2.125   3.356   3.742 -0.5353  0.1549 -0.0386
 2017Sol     HW11388   2.204   3.310   3.715  0.5832  2.4063 -0.7170
 2017Sol     HW11389   2.157   3.429   3.797 -2.1931  0.5125  0.4868
 2017Sol     MW11390   2.135   3.359   3.745  0.1144  0.5326  0.0470
 2018Sol     OW11391   2.066   0.165   4.728 -0.0408  0.8641 -0.1222
 2018Sol     HW11392   2.148   0.188   4.686 -0.1966  0.6925 -0.5289
 2018Sol     HW11393   2.000   0.176   4.660 -0.1232 -0.7452 -0.3284
 2018Sol     MW11394   2.067   0.168   4.718 -0.0753 -0.4037 -0.1824
 2019Sol     OW11395   3.172   0.948   5.917  0.0137  0.0197  0.4546
 2019Sol     HW11396   3.233   0.972   5.848  1.1510  1.5232  1.9506
 2019Sol     HW11397   3.103   0.899   5.872  0.9111  0.6507 -1.6661
 2019Sol     MW11398   3.171   0.945   5.907  0.3848  0.3412 -0.8773
 2020Sol     OW11399   0.227   3.310   8.771  0.7654 -0.5845 -0.2928
 2020Sol     HW11400   0.165   3.373   8.733 -0.4626 -0.7430  1.3776
 2020Sol     HW11401   0.312   3.353   8.762  0.1133  0.7401 -0.3802
 2020Sol     MW11402   0.229   3.320   8.767 -0.4641  0.1900  0.1099
 2021Sol     OW11403   2.799   0.581   6.002 -0.0177  0.5590 -0.2248
 2021Sol     HW11404   2.844   0.649   5.951 -0.2386  1.2615  0.4973
 2021Sol     HW11405   2.853   0.570   6.080 -0.1537  0.1396 -0.1902
 2021Sol     MW11406   2.808   0.586   6.004 -0.0579  0.5077  0.4494
 2022Sol     OW11407   1.673   0.165   5.493 -0.7070 -0.3897  0.0620
 2022Sol     HW11408   1.627   0.232   5.442 -0.9752  0.3696  1.2730
 2022Sol     HW11409   1.734   0.125   5.431 -1.9543 -0.3912 -1.1744
 2022Sol     MW11410   1.674   0.168   5.483  0.1756 -0.3528 -0.1077
 2023Sol     OW11411   1.964   0.721   5.541  0.4314  0.3651  0.1819
 2023Sol     HW11412   1.947   0.672   5.460 -0.3206 -0.9334  1.1003
 2023Sol     HW11413   2.039   0.777   5.520 -1.2512  1.8484 -2.1483
 2023Sol     MW11414   1.969   0.721   5.532 -0.2646  0.0994  0.1658
 2024Sol     OW11415   2.025   2.764   8.394 -0.1364  0.3162 -0.0727
 2024Sol     HW11416   2.086   2.790   8.462  0.1621 -0.2535 -0.1180
 2024Sol     HW11417   2.079   2.751   8.316 -0.4376  0.6932 -0.3481
 2024Sol     MW11418   2.035   2.765   8.393 -0.4667 -0.5820  0.0531
 2025Sol     OW11419   2.389   1.232   7.090  0.3931 -0.0195 -0.0482
 2025Sol     HW11420   2.378   1.190   7.005  2.7006 -1.0552  0.1200
 2025Sol     HW11421   2.441   1.311   7.071  2.5813 -1.2593  0.6109
 2025Sol     MW11422   2.393   1.236   7.081 -0.7249 -0.1457 -0.5941
 2026Sol     OW11423   2.820   3.067   8.646  0.3278  0.1213 -0.0249
 2026Sol     HW11424   2.733   3.055   8.684  0.2933 -0.2425 -0.2138
 2026Sol     HW11425   2.837   3.161   8.654  1.2925 -0.2755  2.9753
 2026Sol     MW11426   2.814   3.074   8.650 -0.2495  0.1630 -0.1633
 2027Sol     OW11427   0.440   1.650   6.855 -0.2112 -0.2574 -0.0678
 2027Sol     HW11428   0.410   1.693   6.935  0.1936  0.0603 -0.0881
 2027Sol     HW11429   0.483   1.570   6.886  1.1732  0.5377  0.1411
 2027Sol     MW11430   0.441   1.646   6.865  0.5773 -0.0300  1.4134
 2028Sol     OW11431   0.616   3.309   3.017  0.2151  0.0825  0.4939
 2028Sol     HW11432   0.580   3.306   3.106  0.4937  0.0127  0.6042
 2028Sol     HW11433   0.706   3.339   3.028  0.5486 -0.8362  0.3263
 2028Sol     MW11434   0.621   3.312   3.026 -0.0027 -0.1318  0.1599
 2029Sol     OW11435   0.950   3.060   6.557  0.0754 -0.2091  0.1257
 2029Sol     HW11436   0.910   2.975   6.538 -1.9324  0.3299  1.6299
 2029Sol     HW11437   0.882   3.124   6.535  0.3511  0.7964  2.0661
 2029Sol     MW11438   0.940   3.058   6.554 -0.1293 -0.3184 -0.3436
 2030Sol     OW11439   0.007   1.405   5.184  0.1663  0.2857 -0.0905
 2030Sol     HW11440   0.051   1.385   5.267 -0.8194 -0.1096  0.3305
 2030Sol     HW11441   0.026   1.498   5.170  1.9825 -0.1125 -0.4137
 2030Sol     MW11442   0.013   1.411   5.190  0.1024 -0.0351 -0.2541
 2031Sol     OW11443   0.395   1.522   9.299 -0.2168 -0.0635 -0.0246
 2031Sol     HW11444   0.490   1.521   9.291 -0.1695  1.8073  0.0325
 2031Sol     HW11445   0.379   1.531   9.393 -0.4507  0.0791 -0.0789
 2031Sol     MW11446   0.402   1.523   9.307  0.0160  0.1969 -0.5578
 2032Sol     OW11447   3.309   2.163   7.270  0.2340 -0.3554 -0.3731
 2032Sol     HW11448   3.326   2.117   7.188  1.4789  1.7275 -1.3515
 2032Sol     HW11449   3.237   2.222   7.250  0.9525  0.6128 -0.1764
 2032Sol     MW11450   3.304   2.164   7.261  0.6471  0.6819  0.0541
 2033Sol     OW11451   3.329   3.190   5.004  0.7934  0.6910 -0.0152
 2033Sol     HW11452   3.293   3.131   5.070  2.0203  0.3230  0.3385
 2033Sol     HW11453   3.287   3.164   4.922  1.1901 -0.5500  0.1742
 2033Sol     MW11454   3.322   3.183   5.002  0.6138 -0.3632 -0.0628
 2034Sol     OW11455   0.170   0.440   4.478  0.0602 -0.7045  0.7633
 2034Sol     HW11456   0.150   0.532   4.458 -0.1002 -0.2872  2.7375
 2034Sol     HW11457   0.212   0.443   4.564 -0.4088 -2.5412  1.0776
 2034Sol     MW11458   0.172   0.449   4.484  0.6538 -0.2602  0.4291
 2035Sol     OW11459   0.642   3.097   9.420  0.1541 -0.5454  0.6619
 2035Sol     HW11460   0.713   3.155   9.391  0.7222 -1.7098 -0.3402
 2035Sol     HW11461   0.608   3.138   9.500  0.5130  1.1781 -0.0478
 2035Sol     MW11462   0.645   3.106   9.425 -0.1475 -0.2142 -0.1673
 2036Sol     OW11463   2.613   2.428   6.482  0.0479  0.0566  0.0366
 2036Sol     HW11464   2.678   2.358   6.489 -0.7351 -0.6415  0.2190
 2036Sol     HW11465   2.535   2.394   6.525 -0.2063  1.1921  0.4822
 2036Sol     MW11466   2.612   2.419   6.486  0.6743 -0.5374  0.2246
 2037Sol     OW11467   0.540   1.048   8.701 -0.1352 -0.4517  0.1917
 2037Sol     HW11468   0.580   0.975   8.654  1.9434  1.5130 -1.2119
 2037Sol     HW11469   0.454   1.057   8.661  0.7561 -0.2362 -1.7653
 2037Sol     MW11470   0.536   1.042   8.693  0.0087  0.1726 -0.5849
 2038Sol     OW11471   0.468   2.295   2.754 -0.0039  0.0433 -0.2737
 2038Sol     HW11472   0.444   2.248   2.674 -0.7319 -1.2453  0.6775
 2038Sol     HW11473   0.549   2.340   2.732  0.3295 -1.0914 -1.4285
 2038Sol     MW11474   0.473   2.295   2.745  0.7574 -0.5885 -0.0990
 2039Sol     OW11475   0.121   1.826   7.466 -0.0633  0.0730  0.2508
 2039Sol     HW11476   0.207   1.834   7.425 -0.3197 -2.0105 -0.7722
 2039Sol     HW11477   0.061   1.809   7.393 -1.0473 -0.3158  1.1319
 2039Sol     MW11478   0.123   1.825   7.456  0.0601 -0.2629 -0.2272
 2040Sol     OW11479   0.906   2.571   3.219  0.2924  1.0446  0.3023
 2040Sol     HW11480   0.982   2.628   3.205  0.6144  0.5040 -0.1493
 2040Sol     HW11481   0.852   2.619   3.282  0.5059  1.9076 -0.1665
 2040Sol     MW11482   0.908   2.581   3.224 -0.6625  0.4367 -0.0079
 2041Sol     OW11483   2.800   2.719   4.211 -0.0343  0.0190  0.3278
 2041Sol     HW11484   2.754   2.679   4.138  0.1486  0.3948  0.0082
 2041Sol     HW11485   2.864   2.777   4.171  0.9860 -0.7778  0.7585
 2041Sol     MW11486   2.802   2.720   4.201 -0.0941 -0.2683  1.2083
 2042Sol     OW11487   2.411   0.558   9.338  0.3207  0.2811  0.0155
 2042Sol     HW11488   2.459   0.484   9.300  0.2829  0.0829  0.3464
 2042Sol     HW11489   2.477   0.625   9.352  0.4990  0.0177  0.4498
 2042Sol     MW11490   2.421   0.557   9.336  0.2971 -0.4509 -0.1255
 2043Sol     OW11491   2.294   2.024   4.301 -0.3163 -0.3599  0.1955
 2043Sol     HW11492   2.252   2.011   4.387 -0.2527 -1.3209  0.0926
 2043Sol     HW11493   2.330   2.112   4.305 -2.3857  0.5241  0.2759
 2043Sol     MW11494   2.293   2.030   4.309  0.6479 -0.3271 -0.9958
 2044Sol     OW11495   0.453   2.196   9.373 -0.3228 -0.2933 -0.4538
 2044Sol     HW11496   0.411   2.127   9.321  1.0549 -2.0845  0.7330
 2044Sol     HW11497   0.495   2.149   9.444  3.1912  1.4850 -1.2632
 2044Sol     MW11498   0.453   2.185   9.374 -0.8400 -0.0954  0.1971
 2045Sol     OW11499   3.189   0.262   6.223  0.1669 -0.0232  0.4073
 2045Sol     HW11500   3.252   0.294   6.158  0.1019 -0.0905  0.3101
 2045Sol     HW11501   3.178   0.335   6.284 -2.3248  1.2810 -1.5040
 2045Sol     MW11502   3.194   0.271   6.222  0.1981  0.3319 -0.2058
 2046Sol     OW11503   3.134   2.251   5.767 -0.1232  0.1248 -0.2150
 2046Sol     HW11504   3.127   2.341   5.799 -1.3057 -0.6425  1.7345
 2046Sol     HW11505   3.129   2.259   5.672 -1.5635  2.0019 -0.0068
 2046Sol     MW11506   3.133   2.260   5.761 -0.2518 -0.8645  0.2025
 2047Sol     OW11507   2.796   2.791   4.830  0.0186  0.2210  1.0163
 2047Sol     HW11508   2.872   2.795   4.888  0.4657  0.6585  0.3942
 2047Sol     HW11509   2.818   2.725   4.765 -0.3897 -0.0973  1.1955
 2047Sol     MW11510   2.805   2.786   4.830 -0.5002  0.0502 -0.3335
 2048Sol     OW11511   2.984   0.347   5.196 -0.2120 -0.2537  0.5672
 2048Sol     HW11512   2.913   0.369   5.137 -0.6826 -0.8931  0.8881
 2048Sol     HW11513   3.061   0.390   5.159 -0.1188 -2.1719 -1.5337
 2048Sol     MW11514   2.985   0.352   5.188  0.1049 -0.1119 -0.1186
 2049Sol     OW11515   1.992   0.806   1.959 -0.1624  0.6269  0.0735
 2049Sol     HW11516   1.966   0.776   1.872 -1.2789  1.0131  0.2701
 2049Sol     HW11517   1.929   0.766   2.018 -1.0435  2.5168  0.4436
 2049Sol     MW11518   1.984   0.800   1.956 -0.1224 -0.8368  0.8268
 2050Sol     OW11519   0.686   2.993   8.053  0.5234 -0.0409  0.5119
 2050Sol     HW11520   0.713   2.963   8.139 -0.9154  0.0500  1.0124
 2050Sol     HW11521   0.744   3.067   8.033  1.5653 -0.7415  0.9192
 2050Sol     MW11522   0.693   2.997   8.059 -0.5594  0.7424  0.3373
 2051Sol     OW11523   1.366   1.485   8.232 -0.1958  0.0778 -0.2263
 2051Sol     HW11524   1.420   1.407   8.219  0.7381  0.2657  2.3607
 2051Sol     HW11525   1.329   1.474   8.319  0.9545  3.1179  0.6996
 2051Sol     MW11526   1.368   1.477   8.239 -0.8671 -0.1322  0.9794
 2052Sol     OW11527   2.018   1.984   2.622  0.7277 -0.0385  0.0514
 2052Sol     HW11528   2.105   1.982   2.581  0.3573 -2.1356 -0.7222
 2052Sol     HW11529   2.035   2.016   2.711  2.2594 -0.0806 -0.2000
 2052Sol     MW11530   2.028   1.986   2.626  0.1425  0.2685 -0.1946
 2053Sol     OW11531   1.666   0.494   3.885  0.1554  0.8810  0.3084
 2053Sol     HW11532   1.598   0.429   3.901  1.6079 -1.0421 -1.0092
 2053Sol     HW11533   1.642   0.535   3.803  1.4198 -0.9919 -1.0394
 2053Sol     MW11534   1.658   0.492   3.879 -0.7826 -0.3248  0.0111
 2054Sol     OW11535   2.217   0.680   3.502 -0.0558 -0.2235 -0.4475
 2054Sol     HW11536   2.228   0.608   3.440  0.4575 -0.4512 -0.1049
 2054Sol     HW11537   2.301   0.684   3.549 -0.1379  0.4957 -0.3562
 2054Sol     MW11538   2.225   0.674   3.501  0.5366  0.0207  0.2355
 2055Sol     OW11539   0.927   2.599   4.390  0.3768  0.0812  0.4755
 2055Sol     HW11540   0.860   2.534   4.409 -0.1293 -0.0188 -1.4857
 2055Sol     HW11541   0.997   2.550   4.346  0.7708  0.5439  0.5817
 2055Sol     MW11542   0.927   2.589   4.387 -0.2602 -0.7307 -0.4103
 2056Sol     OW11543   0.214   0.969   6.439  0.2445  0.0661  0.0790
 2056Sol     HW11544   0.262   0.917   6.503 -1.4888  0.0069  1.3670
 2056Sol     HW11545   0.151   0.908   6.400  1.1156  0.1589 -1.5418
 2056Sol     MW11546   0.213   0.959   6.441  0.1646 -0.1930  0.4054
 2057Sol     OW11547   1.886   0.678   7.329  0.1736 -0.0772  0.1109
 2057Sol     HW11548   1.900   0.659   7.237  1.3196 -0.5152  0.3648
 2057Sol     HW11549   1.974   0.675   7.368 -0.1732  1.1225  1.0199
 2057Sol     MW11550   1.895   0.676   7.325  0.0390 -0.7147  0.2714
 2058Sol     OW11551   1.557   2.057   7.396  0.9772  0.3331 -0.4123
 2058Sol     HW11552   1.512   2.051   7.312  0.8133  1.0841 -0.3847
 2058Sol     HW11553   1.511   1.996   7.453  1.0850 -0.1710 -0.8694
 2058Sol     MW11554   1.549   2.051   7.394  0.3996 -0.6321 -0.5029
 2059Sol     OW11555   1.993   3.346   9.169 -0.0449 -0.2543 -0.5098
 2059Sol     HW11556   1.968   3.293   9.245  1.5573  0.5640  0.6137
 2059Sol     HW11557   2.025   3.428   9.206 -2.4773  1.5414 -2.2316
 2059Sol     MW11558   1.994   3.348   9.179 -0.2240  0.0638  0.2882
 2060Sol     OW11559   0.537   0.444   2.820  0.1900  0.9939 -0.3506
 2060Sol     HW11560   0.629   0.420   2.837 -0.0409  1.3445  1.5019
 2060Sol     HW11561   0.516   0.400   2.737  1.9744  0.7675 -0.7062
 2060Sol     MW11562   0.544   0.438   2.814 -0.0702  0.2153 -0.3160
 2061Sol     OW11563   0.136   3.322   2.303 -0.4243 -0.0185 -0.0025
 2061Sol     HW11564   0.055   3.302   2.255 -1.6425  1.7905  1.2204
 2061Sol     HW11565   0.202   3.266   2.263 -2.1248 -0.9819 -1.5446
 2061Sol     MW11566   0.135   3.315   2.295  0.0546  0.1319 -0.3686
 2062Sol     OW11567   2.805   2.715   6.914 -0.1440 -0.0322  0.1699
 2062Sol     HW11568   2.764   2.674   6.838 -1.4378  0.1710  0.7303
 2062Sol     HW11569   2.742   2.702   6.985  1.0465 -0.2184  1.2114
 2062Sol     MW11570   2.795   2.710   6.914 -0.8402  0.2219 -0.1309
 2063Sol     OW11571   1.492   1.391   7.322  0.3818  0.6247  0.7961
 2063Sol     HW11572   1.398   1.409   7.323  0.0315 -1.1128  1.6555
 2063Sol     HW11573   1.504   1.326   7.253  0.4926 -1.3804  2.6692
 2063Sol     MW11574   1.485   1.387   7.316  0.0565 -0.2348  0.2689
 2064Sol     OW11575   0.370   3.437   6.510 -0.0484  0.4842  0.5112
 2064Sol     HW11576   0.277   3.454   6.525  0.1126  0.3625  1.7090
 2064Sol     HW11577   0.414   3.477   6.585  0.8163  0.0340  0.2516
 2064Sol     MW11578   0.366   3.442   6.518 -0.1343 -0.0640  0.5302
 2065Sol     OW11579   1.430   0.350   3.923 -0.0084  0.2249  0.3055
 2065Sol     HW11580   1.449   0.263   3.887  1.4081 -0.1744  1.9687
 2065Sol     HW11581   1.360   0.384   3.867 -0.4010 -1.8744 -0.5394
 2065Sol     MW11582   1.425   0.345   3.915  0.1428 -0.1070 -0.3730
 2066Sol     OW11583   3.219   0.832   4.584  0.1695  0.2334 -0.2754
 2066Sol     HW11584   3.193   0.781   4.661  0.9727 -0.7876 -0.6713
 2066Sol     HW11585   3.297   0.789   4.552  0.9501  1.8075 -0.5566
 2066Sol     MW11586   3.223   0.824   4.588  0.7096 -0.6400 -0.0448
 2067Sol     OW11587   1.803   0.885   3.931  0.7948 -0.2917 -0.6014
 2067Sol     HW11588   1.724   0.850   3.972  0.2247 -0.5283 -1.8913
 2067Sol     HW11589   1.875   0.846   3.980  0.1298 -0.7670  0.0087
 2067Sol     MW11590   1.802   0.879   3.939  0.4510 -0.1935 -0.8440
 2068Sol     OW11591   2.384   1.032   6.066  0.3279 -0.2230 -0.1382
 2068Sol     HW11592   2.367   1.074   5.982 -0.3614 -2.9343 -1.4075
 2068Sol     HW11593   2.434   1.097   6.116  0.5464  1.5124 -2.5408
 2068Sol     MW11594   2.387   1.042   6.063  0.0511  0.3925  0.3075
 2069Sol     OW11595   2.140   1.111   8.018  0.0949  0.4649  0.1710
 2069Sol     HW11596   2.162   1.152   8.102 -0.7721 -0.2947  0.7715
 2069Sol     HW11597   2.045   1.118   8.012 -0.0058 -0.8899 -0.0167
 2069Sol     MW11598   2.134   1.116   8.025  0.8565  0.0479 -0.5213
 2070Sol     OW11599   0.949   2.776   2.817 -0.1244 -0.4650 -1.0486
 2070Sol     HW11600   0.885   2.719   2.860  0.3274 -0.8252 -0.8433
 2070Sol     HW11601   1.033   2.734   2.834  0.0365 -0.7922 -2.5697
 2070Sol     MW11602   0.951   2.767   2.822  0.2726  0.2205  0.1021
 2071Sol     OW11603   2.385   3.426   8.065  0.4767  1.0280  0.5664
 2071Sol     HW11604   2.298   3.418   8.026  0.1990 -0.3227  1.4141
 2071Sol     HW11605   2.441   3.373   8.008  0.2579 -0.1406  1.4219
 2071Sol     MW11606   2.382   3.420   8.056  0.1453 -0.3215  0.0132
 2072Sol     OW11607   0.540   2.441   6.785 -0.1269  0.1667 -0.0916
 2072Sol     HW11608   0.574   2.513   6.839  1.0599 -0.2152 -0.3300
 2072Sol     HW11609   0.479   2.484   6.725 -1.4159  0.6162  1.4735
 2072Sol     MW11610   0.537   2.451   6.785  0.9080  0.2188 -0.3646
 2073Sol     OW11611   1.100   0.595   7.396 -0.4791 -0.2846 -0.5055
 2073Sol     HW11612   1.180   0.577   7.346  0.0092  0.4447 -0.0115
 2073Sol     HW11613   1.070   0.680   7.364  0.3486  0.6217  1.0457
 2073Sol     MW11614   1.105   0.601   7.389  0.3936 -0.8308 -0.7968
 2074Sol     OW11615   3.251   2.755   6.392 -0.1638  0.9811 -0.1807
 2074Sol     HW11616   3.215   2.676   6.353 -0.7404  0.1067  2.0400
 2074Sol     HW11617   3.177   2.817   6.394 -0.2480  0.8788 -0.1153
 2074Sol     MW11618   3.241   2.754   6.389 -0.1066  0.0201  0.0899
 2075Sol     OW11619   2.760   0.147   4.285  0.0150 -0.5353 -0.2546
 2075Sol     HW11620   2.725   0.173   4.370 -0.5631 -1.9128 -0.0614
 2075Sol     HW11621   2.733   0.055   4.275  2.9225 -1.4403 -0.4060
 2075Sol     MW11622   2.754   0.141   4.292  0.2357  0.2128  1.0349
 2076Sol     OW11623   1.049   1.492   8.610 -0.2443 -0.0565  0.1671
 2076Sol     HW11624   1.013   1.406   8.630 -1.5512  0.3756 -0.2688
 2076Sol     HW11625   0.982   1.534   8.556  1.2742  0.4686 -1.3355
 2076Sol     MW11626   1.040   1.488   8.607 -0.2338  0.4457 -0.2063
 2077Sol     OW11627   0.869   1.659   6.091 -0.2172 -0.2982 -0.4308
 2077Sol     HW11628   0.886   1.634   6.182 -0.6484  1.2621  0.0902
 2077Sol     HW11629   0.779   1.692   6.091 -0.0145  0.2808 -1.2985
 2077Sol     MW11630   0.863   1.660   6.099  0.0088  0.2997 -0.4042
 2078Sol     OW11631   2.946   2.080   3.512  0.1760 -0.5455  0.4559
 2078Sol     HW11632   2.882   2.138   3.471  0.2957 -0.6449  0.1321
 2078Sol     HW11633   2.934   1.996   3.469  4.0903  0.6966 -3.3490
 2078Sol     MW11634   2.939   2.077   3.505 -0.3883 -0.0949  0.8672
 2079Sol     OW11635   0.074   1.181   3.179  0.1118 -0.6163 -0.6212
 2079Sol     HW11636   0.047   1.090   3.181  1.4537 -1.0183 -0.1398
 2079Sol     HW11637   0.167   1.179   3.201 -0.1991  1.0018  1.0013
 2079Sol     MW11638   0.080   1.173   3.182  0.2736 -0.3492  0.0653
 2080Sol     OW11639   1.026   0.704   1.921  0.1819 -0.4164 -0.9506
 2080Sol     HW11640   1.048   0.651   1.845  1.5722 -1.2129 -0.0198
 2080Sol     HW11641   0.936   0.733   1.905 -0.1006 -1.8926 -2.1466
 2080Sol     MW11642   1.020   0.702   1.913  0.1819 -0.1583 -0.3144
 2081Sol     OW11643   0.105   1.981   5.097 -0.3898  0.3742 -0.5603
 2081Sol     HW11644   0.152   2.060   5.072  0.0358  0.0918 -0.6632
 2081Sol     HW11645   0.144   1.954   5.180 -0.8570  0.5361 -0.2858
 2081Sol     MW11646   0.112   1.985   5.102  0.0257 -0.2774  0.1279
 2082Sol     OW11647   1.879   1.137   5.765 -0.1694 -0.1113  0.1428
 2082Sol     HW11648   1.868   1.204   5.698  3.2969  0.5256  0.1186
 2082Sol     HW11649   1.835   1.060   5.730 -1.6592  1.2929 -1.1505
 2082Sol     MW11650   1.874   1.137   5.756  0.1864 -0.1901 -0.0407
 2083Sol     OW11651   2.016   0.194   7.674 -0.7892 -0.0815 -0.4017
 2083Sol     HW11652   1.971   0.130   7.620 -1.8191  0.2521  0.0506
 2083Sol     HW11653   1.965   0.275   7.663  0.6802  0.7562 -1.2331
 2083Sol     MW11654   2.007   0.196   7.668 -0.2915  0.2296 -0.3274
 2084Sol     OW11655   3.009   3.103   8.102  0.4253  0.0684 -0.6549
 2084Sol     HW11656   2.977   3.097   8.012  1.0879  0.2963 -0.9082
 2084Sol     HW11657   3.104   3.110   8.094  0.4227  1.0454  0.0189
 2084Sol     MW11658   3.014   3.103   8.093  0.2670  0.4700  0.6364
 2085Sol     OW11659   3.161   3.221   6.582 -0.7469  0.3786 -0.2972
 2085Sol     HW11660   3.213   3.187   6.655 -0.5816  0.3299 -0.4367
 2085Sol     HW11661   3.097   3.280   6.623 -2.3134 -1.5897  0.1553
 2085Sol     MW11662   3.160   3.223   6.592  0.3060  0.3454 -0.6786
 2086Sol     OW11663   0.261   0.502   5.674  0.6996  0.1786  0.1220
 2086Sol     HW11664   0.333   0.496   5.611  0.2533  1.9063 -0.6004
 2086Sol     HW11665   0.299   0.547   5.750  0.8587 -0.5830  0.4954
 2086Sol     MW11666   0.271   0.506   5.675  0.0215  0.2688 -0.6615
 2087Sol     OW11667   2.266   2.970   6.728  0.6275  0.3467  0.5115
 2087Sol     HW11668   2.336   3.028   6.758  1.5675 -1.4607  1.9532
 2087Sol     HW11669   2.308   2.915   6.661  0.4950 -0.4818  1.1008
 2087Sol     MW11670   2.276   2.970   6.724 -0.1419  0.0785  0.1401
 2088Sol     OW11671   3.165   2.428   3.469  0.3329 -0.1086  0.1785
 2088Sol     HW11672   3.254   2.424   3.503  0.8860  0.6029 -1.1529
 2088Sol     HW11673   3.152   2.521   3.448 -0.0272 -0.5220 -1.4521
 2088Sol     MW11674   3.172   2.436   3.470 -0.0650 -0.7150 -0.2325
 2089Sol     OW11675   1.333   1.223   8.016  0.8405  0.6172 -0.1952
 2089Sol     HW11676   1.391   1.233   8.091  0.1406 -0.9365  0.5998
 2089Sol     HW11677   1.370   1.150   7.966  1.6516  2.0369 -1.7307
 2089Sol     MW11678   1.341   1.217   8.018 -0.1370 -0.0500 -0.3456
 2090Sol     OW11679   2.863   3.193   4.627  0.2388  0.0515 -0.3018
 2090Sol     HW11680   2.782   3.202   4.577 -0.7940  0.6926  1.4849
 2090Sol     HW11681   2.905   3.116   4.589 -2.4660 -1.8815  0.5219
 2090Sol     MW11682   2.860   3.187   4.619 -0.1593 -0.3183 -0.7842
 2091Sol     OW11683   2.021   1.663   4.232 -0.0578  0.2612 -0.5936
 2091Sol     HW11684   1.961   1.673   4.157 -0.2284 -1.0196 -0.6422
 2091Sol     HW11685   2.006   1.574   4.262 -0.3571  0.9290  1.3064
 2091Sol     MW11686   2.014   1.656   4.228 -0.1299  0.0473 -0.5362
 2092Sol     OW11687   1.632   0.198   2.000  0.0432  0.1154 -0.0627
 2092Sol     HW11688   1.694   0.144   2.048 -1.8842 -1.6879  0.5000
 2092Sol     HW11689   1.562   0.216   2.063 -1.6055 -0.6751 -1.6335
 2092Sol     MW11690   1.631   0.195   2.010  0.4293  0.4513  0.3221
 2093Sol     OW11691   1.116   0.658   7.668 -0.1440 -0.0244  0.1893
 2093Sol     HW11692   1.071   0.595   7.725  1.3514 -0.5243  0.8402
 2093Sol     HW11693   1.118   0.616   7.582 -2.2974  0.6757 -0.2273
 2093Sol     MW11694   1.112   0.649   7.665  0.5418  0.1209  0.1961
 2094Sol     OW11695   0.539   2.617   6.279 -0.1033  0.2225  0.4793
 2094Sol     HW11696   0.605   2.549   6.293 -0.0502  0.2435  0.3219
 2094Sol     HW11697   0.525   2.654   6.367  0.0353  0.1653  0.5260
 2094Sol     MW11698   0.543   2.614   6.288  0.3312 -0.4016 -0.7731
 2095Sol     OW11699   1.717   2.160   6.754  0.0591 -0.0110 -0.2526
 2095Sol     HW11700   1.696   2.100   6.826 -0.6809  0.5561  0.0078
 2095Sol     HW11701   1.642   2.154   6.695  0.5898 -0.3458 -0.9004
 2095Sol     MW11702   1.709   2.154   6.755 -0.3707  0.6179  0.1061
 2096Sol     OW11703   1.429   2.778   6.248 -0.3040 -0.4032  0.4489
 2096Sol     HW11704   1.486   2.766   6.172  0.5115  1.2861  0.7765
 2096Sol     HW11705   1.453   2.706   6.307 -0.3421 -1.2226 -0.5264
 2096Sol     MW11706   1.437   2.770   6.247 -0.1789  0.0353 -0.1837
 2097Sol     OW11707   0.267   0.947   5.823 -0.0808 -0.1986  0.0145
 2097Sol     HW11708   0.198   0.882   5.804  0.2013 -0.1463 -1.2248
 2097Sol     HW11709   0.275   0.997   5.742  0.5121  0.6489  0.5954
 2097Sol     MW11710   0.261   0.945   5.814  0.2390  0.0868  0.3513
 2098Sol     OW11711   1.987   2.163   8.168 -0.6429  0.3203  0.2243
 2098Sol     HW11712   1.981   2.194   8.077  0.2164 -0.9974 -0.3036
 2098Sol     HW11713   1.962   2.238   8.221  1.5585  1.9991 -1.0087
 2098Sol     MW11714   1.984   2.172   8.164  0.6102  1.1786  0.8255
 2099Sol     OW11715   0.923   1.930   7.664  0.2719 -0.0899  0.6134
 2099Sol     HW11716   0.949   1.885   7.745 -2.2028  1.6251  2.4534
 2099Sol     HW11717   0.887   1.861   7.609  1.8516 -1.2575  0.9966
 2099Sol     MW11718   0.922   1.920   7.666  0.3929  0.4595  0.9154
 2100Sol     OW11719   1.048   2.850   4.876  0.1468  0.2750  0.4364
 2100Sol     HW11720   0.975   2.886   4.826 -1.6680 -1.9186  1.4322
 2100Sol     HW11721   1.029   2.872   4.967  2.2150  2.1664  0.4603
 2100Sol     MW11722   1.040   2.855   4.880  0.6686 -0.0199 -0.0054
 2101Sol     OW11723   1.938   3.071   6.954 -0.7550 -0.3778  0.4083
 2101Sol     HW11724   1.887   3.122   6.891  0.4377 -0.2014 -0.4317
 2101Sol     HW11725   1.882   3.068   7.032 -1.3841  1.1581  0.0541
 2101Sol     MW11726   1.928   3.076   6.956 -0.3825  0.6172  0.1355
 2102Sol     OW11727   3.318   1.076   5.723 -0.7788  0.1455 -0.1547
 2102Sol     HW11728   3.299   1.021   5.647 -1.7536 -0.3345  0.4225
 2102Sol     HW11729   3.264   1.154   5.709 -0.1863  0.5016 -0.4576
 2102Sol     MW11730   3.311   1.078   5.715 -0.4383  0.2819 -0.0963
 2103Sol     OW11731   2.692   1.553   1.396 -0.3150 -0.1619 -0.3827
 2103Sol     HW11732   2.619   1.542   1.336 -0.1025  1.5757 -1.0018
 2103Sol     HW11733   2.734   1.635   1.368  0.4529  0.0932  1.4362
 2103Sol     MW11734   2.690   1.560   1.388  0.3862  0.4836  0.3072
 2104Sol     OW11735   2.149   1.287   2.753  0.1655 -0.3694 -0.0058
 2104Sol     HW11736   2.201   1.223   2.705  0.6227 -0.3666  0.4827
 2104Sol     HW11737   2.086   1.320   2.689  1.3682  0.3135 -0.8589
 2104Sol     MW11738   2.148   1.284   2.743  0.3072 -1.0236  0.4685
 2105Sol     OW11739   3.065   1.282   2.914 -0.1498 -0.2311  0.0581
 2105Sol     HW11740   3.133   1.323   2.967 -1.5499  1.6722  0.4508
 2105Sol     HW11741   3.027   1.355   2.864 -0.2557 -1.6551 -1.9715
 2105Sol     MW11742   3.068   1.292   2.914  0.0294 -0.3804  0.4081
 2106Sol     OW11743   1.851   1.530   7.624 -0.0948 -0.0738 -0.0092
 2106Sol     HW11744   1.860   1.625   7.635 -1.6685  0.0333  0.4558
 2106Sol     HW11745   1.826   1.519   7.532  0.3750 -0.0727 -0.1420
 2106Sol     MW11746   1.850   1.538   7.617  0.4400 -0.0123 -0.0499
 2107Sol     OW11747   2.044   2.477   5.362 -0.3926 -0.0726 -0.6879
 2107Sol     HW11748   1.980   2.465   5.432  0.1579 -1.2362 -0.3825
 2107Sol     HW11749   2.081   2.564   5.379 -1.8341  0.5945 -0.8388
 2107Sol     MW11750   2.042   2.484   5.370 -0.4859 -0.9315  0.5391
 2108Sol     OW11751   0.444   1.696   8.934 -0.2400  0.3665 -0.3952
 2108Sol     HW11752   0.528   1.703   8.981 -0.0032 -0.0226 -0.7606
 2108Sol     HW11753   0.379   1.692   9.004  0.2082 -1.5039 -0.0679
 2108Sol     MW11754   0.446   1.697   8.945 -0.1163  0.4047 -0.4579
 2109Sol     OW11755   1.439   2.186   6.512  0.0781  0.5753 -0.0337
 2109Sol     HW11756   1.523   2.171   6.468 -0.0654  0.2527 -0.1978
 2109Sol     HW11757   1.380   2.121   6.475 -0.5357  1.5045 -0.7058
 2109Sol     MW11758   1.441   2.179   6.505 -0.7779 -0.0039  0.1763
 2110Sol     OW11759   2.167   3.443   6.827  0.4928  0.7001  0.5708
 2110Sol     HW11760   2.222   3.516   6.855  0.9316  0.3542  0.6203
 2110Sol     HW11761   2.177   3.377   6.895 -0.3600  0.8232  0.8115
 2110Sol     MW11762   2.173   3.444   6.835  0.2357 -0.1240 -0.4267
 2111Sol     OW11763   1.831   2.589   2.900 -0.3585 -0.0792 -0.2966
 2111Sol     HW11764   1.880   2.668   2.923  1.5142 -1.5611  0.9179
 2111Sol     HW11765   1.898   2.522   2.886 -1.9058 -1.3836 -1.6572
 2111Sol     MW11766   1.841   2.590   2.900  0.9865  0.2520 -0.1298
 2112Sol     OW11767   0.837   1.262   3.247  0.2126 -0.1324  0.8894
 2112Sol     HW11768   0.746   1.280   3.225  0.4767 -0.5428 -0.5605
 2112Sol     HW11769   0.883   1.344   3.229  0.5061 -0.6067 -0.5472
 2112Sol     MW11770   0.833   1.271   3.244 -0.2810  0.2436  0.4064
 2113Sol     OW11771   2.174   1.292   6.597  0.1716  0.2773 -0.1576
 2113Sol     HW11772   2.216   1.285   6.511 -1.9101 -0.8904 -1.1279
 2113Sol     HW11773   2.246   1.299   6.659  1.7644 -0.9141 -1.8371
 2113Sol     MW11774   2.184   1.292   6.595 -0.2564 -0.8456  0.3632
 2114Sol     OW11775   2.067   3.026   2.729 -0.3671  0.3257  0.0323
 2114Sol     HW11776   2.159   3.054   2.731 -0.6579  1.3468 -0.4833
 2114Sol     HW11777   2.069   2.940   2.688  0.3069  0.5648 -0.4405
 2114Sol     MW11778   2.076   3.021   2.726  0.0614 -0.2311  0.2179
 2115Sol     OW11779   2.441   3.360   5.543  0.2375  0.0576  0.1675
 2115Sol     HW11780   2.455   3.322   5.630 -0.5470 -0.9722 -0.1442
 2115Sol     HW11781   2.374   3.427   5.556 -0.4856 -0.6663  0.2243
 2115Sol     MW11782   2.437   3.362   5.552  0.3571  0.5520  0.5618
 2116Sol     OW11783   1.979   2.746   2.634 -0.4222  0.2671 -0.2613
 2116Sol     HW11784   2.060   2.755   2.585 -0.2833  2.1997  0.2931
 2116Sol     HW11785   1.965   2.652   2.640  2.9389 -0.1816  1.5428
 2116Sol     MW11786   1.985   2.739   2.630 -0.2594  0.1300 -0.7725
 2117Sol     OW11787   3.353   1.239   7.932 -0.2928 -0.2137  0.4933
 2117Sol     HW11788   3.336   1.157   7.977  1.2394 -0.0853  1.3101
 2117Sol     HW11789   3.379   1.300   8.001 -0.4347  0.6970 -0.2322
 2117Sol     MW11790   3.353   1.237   7.942 -0.2177  0.0295 -0.2021
 2118Sol     OW11791   3.228   0.569   6.871  0.3304 -0.0883 -0.3031
 2118Sol     HW11792   3.145   0.554   6.917 -0.0320  1.5097 -0.4067
 2118Sol     HW11793   3.214   0.650   6.822  1.7746 -0.0986 -0.7537
 2118Sol     MW11794   3.219   0.575   6.871 -0.5660 -0.7283 -0.0080
 2119Sol     OW11795   2.638   1.718   2.111 -0.6488  0.2155  0.1340
 2119Sol     HW11796   2.565   1.675   2.155 -1.2449  1.0843 -0.0002
 2119Sol     HW11797   2.684   1.647   2.065  0.1504 -0.7637  2.3477
 2119Sol     MW11798   2.636   1.708   2.111 -0.4547 -0.3301  0.8491
 2120Sol     OW11799   0.343   3.236   2.109  0.0988  0.7734 -0.5576
 2120Sol     HW11800   0.425   3.190   2.093  0.3668  1.6444 -1.7548
 2120Sol     HW11801   0.352   3.319   2.062 -0.3720  2.0836  1.5756
 2120Sol     MW11802   0.351   3.239   2.104 -0.9681  0.2878 -0.2440
 2121Sol     OW11803   2.266   1.969   2.526  0.3232  0.2270 -0.1447
 2121Sol     HW11804   2.296   1.971   2.435  1.4703  1.8694  0.2521
 2121Sol     HW11805   2.335   1.922   2.573 -0.0820 -0.2751 -0.0410
 2121Sol     MW11806   2.274   1.965   2.522  0.0120 -0.4616  0.3258
 2122Sol     OW11807   0.564   0.398   1.920 -0.1384 -0.2189  0.0669
 2122Sol     HW11808   0.513   0.423   1.844 -0.8352  0.1771  0.6556
 2122Sol     HW11809   0.545   0.465   1.985  2.4431  0.8798 -0.2464
 2122Sol     MW11810   0.558   0.406   1.919  0.4472  0.1904 -0.9547
 2123Sol     OW11811   0.111   2.057   8.529  0.0239 -0.3660 -0.8761
 2123Sol     HW11812   0.192   2.055   8.580  0.3808  1.8196 -1.2998
 2123Sol     HW11813   0.124   2.129   8.467 -1.6079 -1.0430 -2.0256
 2123Sol     MW11814   0.120   2.063   8.528  0.4265  0.4270 -0.5227
 2124Sol     OW11815   0.437   3.105   3.708 -0.1106  0.0579 -0.4522
 2124Sol     HW11816   0.344   3.087   3.691 -0.7855  1.8033  1.2085
 2124Sol     HW11817   0.437   3.163   3.784  2.3681 -0.0783 -0.2922
 2124Sol     MW11818   0.429   3.108   3.714  0.0885  0.1942  0.0349
 2125Sol     OW11819   0.576   1.218   7.779  0.1989 -0.0072  0.5241
 2125Sol     HW11820   0.522   1.282   7.826  0.4331 -1.1199  2.3369
 2125Sol     HW11821   0.554   1.134   7.819  1.0963 -0.8632 -0.7466
 2125Sol     MW11822   0.569   1.216   7.787  0.1051  0.6290  0.1029
 2126Sol     OW11823   1.849   2.479   5.580 -0.4401 -0.4180  0.1694
 2126Sol     HW11824   1.828   2.541   5.650 -2.0210  0.4338 -1.0347
 2126Sol     HW11825   1.919   2.425   5.617  0.1608  1.3144  1.6691
 2126Sol     MW11826   1.854   2.480   5.590  0.1956  0.0476  0.4982
 2127Sol     OW11827   3.242   2.112   6.027  0.0151  0.9194  0.1760
 2127Sol     HW11828   3.331   2.095   6.057 -0.4344 -1.9176  0.0559
 2127Sol     HW11829   3.251   2.133   5.934  0.4933 -0.6015 -0.1470
 2127Sol     MW11830   3.251   2.112   6.021 -0.0921  0.9663 -0.4108
 2128Sol     OW11831   3.248   0.280   5.798  0.1697  0.3183  0.2857
 2128Sol     HW11832   3.244   0.296   5.892  0.4314 -0.2068  0.3875
 2128Sol     HW11833   3.162   0.245   5.776  0.3489 -0.2245  0.4540
 2128Sol     MW11834   3.240   0.279   5.805 -0.1596 -0.1822 -0.4106
 2129Sol     OW11835   1.599   2.158   5.747 -0.2611 -0.6781  0.5325
 2129Sol     HW11836   1.601   2.237   5.800  0.2206 -1.4357  1.6832
 2129Sol     HW11837   1.513   2.120   5.762 -0.0970 -0.9329  0.8422
 2129Sol     MW11838   1.592   2.161   5.753  0.0557  0.6851 -0.1680
 2130Sol     OW11839   0.783   1.249   4.188 -0.0824 -0.0590 -0.3467
 2130Sol     HW11840   0.727   1.193   4.136 -1.6302 -0.0871  1.3116
 2130Sol     HW11841   0.836   1.189   4.240 -0.7238 -0.0140  0.3693
 2130Sol     MW11842   0.783   1.239   4.188  0.2913  0.2902  0.0400
 2131Sol     OW11843   1.230   2.421   4.997  0.1910 -0.1321  0.1207
 2131Sol     HW11844   1.158   2.422   4.934  0.2567  0.1395  0.0463
 2131Sol     HW11845   1.207   2.488   5.061 -0.1812 -0.8429  0.7362
 2131Sol     MW11846   1.222   2.427   4.997 -0.5806 -0.0477 -0.2824
 2132Sol     OW11847   3.250   1.660   9.137 -0.4759  0.7836  0.4334
 2132Sol     HW11848   3.174   1.621   9.095 -0.9129  1.0264  0.9894
 2132Sol     HW11849   3.260   1.746   9.095 -1.2327  1.2470  1.1912
 2132Sol     MW11850   3.244   1.664   9.130  0.0430  0.0749  0.2975
 2133Sol     OW11851   1.861   0.411   8.804  0.3261 -0.4941 -0.1446
 2133Sol     HW11852   1.769   0.433   8.788  0.0822 -0.6758  0.9317
 2133Sol     HW11853   1.865   0.391   8.898  2.1327  2.9430  0.6035
 2133Sol     MW11854   1.853   0.411   8.811 -0.1482  0.0538  0.0109
 2134Sol     OW11855   2.256   1.506   8.302 -0.2054 -0.1920 -0.4447
 2134Sol     HW11856   2.346   1.525   8.276  0.1563 -0.2082  0.7691
 2134Sol     HW11857   2.209   1.589   8.289  0.7617  0.8137  2.2144
 2134Sol     MW11858   2.260   1.515   8.299  0.9349 -0.1016 -0.5256
 2135Sol     OW11859   1.712   2.824   6.998  0.1352  1.2734  0.7655
 2135Sol     HW11860   1.688   2.829   6.906 -0.9201 -1.9360  0.8142
 2135Sol     HW11861   1.806   2.806   6.998  0.4643  2.8534  0.3992
 2135Sol     MW11862   1.718   2.823   6.990  0.0405 -0.1821  0.4484
 2136Sol     OW11863   3.118   0.695   4.803  0.3143 -0.3023 -0.0994
 2136Sol     HW11864   3.070   0.700   4.885 -2.3970 -0.2435 -1.6444
 2136Sol     HW11865   3.179   0.622   4.815 -2.3181 -2.4165  0.8075
 2136Sol     MW11866   3.119   0.689   4.811 -0.7509  0.8001  0.0125
 2137Sol     OW11867   3.022   0.898   8.672 -0.5806 -0.2292  0.7851
 2137Sol     HW11868   2.956   0.965   8.689 -0.6709 -0.2538  0.5357
 2137Sol     HW11869   2.982   0.841   8.606 -0.1901 -0.0703  0.4138
 2137Sol     MW11870   3.012   0.899   8.668 -0.2282  0.2777 -0.5208
 2138Sol     OW11871   2.719   0.481   5.589  0.0420  0.3704 -0.1037
 2138Sol     HW11872   2.679   0.565   5.609  0.1900  0.0386  1.6807
 2138Sol     HW11873   2.735   0.441   5.675 -0.0982 -1.4972 -0.9234
 2138Sol     MW11874   2.717   0.485   5.599 -0.7607  0.1236 -0.3438
 2139Sol     OW11875   0.643   1.962   7.362 -0.0338 -0.2045 -0.1240
 2139Sol     HW11876   0.692   1.887   7.396 -0.8387 -0.1423  1.2400
 2139Sol     HW11877   0.710   2.022   7.331  0.6533 -1.1741 -0.5426
 2139Sol     MW11878   0.653   1.961   7.363  0.2939  0.0360  0.1243
 2140Sol     OW11879   2.164   3.385   7.166  0.1593 -0.1493 -0.0983
 2140Sol     HW11880   2.154   3.368   7.260  0.4213 -2.0211 -0.4041
 2140Sol     HW11881   2.079   3.418   7.139 -0.2673 -0.6828  0.5676
 2140Sol     MW11882   2.156   3.387   7.172  0.6235  0.2607  0.3627
 2141Sol     OW11883   0.384   2.959   2.664 -0.1360  0.1707 -0.1883
 2141Sol     HW11884   0.380   3.055   2.673  0.6474  0.0431  1.6509
 2141Sol     HW11885   0.415   2.945   2.574 -0.8448  1.6256 -0.6800
 2141Sol     MW11886   0.387   2.967   2.657  0.0352  0.1030 -0.1782
 2142Sol     OW11887   1.631   3.458   8.022 -0.1218 -0.2190 -0.3680
 2142Sol     HW11888   1.619   3.512   8.101  0.6449 -0.6774  0.0662
 2142Sol     HW11889   1.709   3.495   7.979  0.7725 -1.3478  0.2493
 2142Sol     MW11890   1.637   3.466   8.025  0.2459  0.0412  0.3352
 2143Sol     OW11891   2.063   0.395   8.541  0.7122  0.1781  0.0004
 2143Sol     HW11892   2.095   0.445   8.615  1.3707  1.6276 -1.2305
 2143Sol     HW11893   1.968   0.409   8.541  0.5206 -1.0049  1.3929
 2143Sol     MW11894   2.057   0.401   8.547  0.5146 -0.6744  0.4498
 2144Sol     OW11895   0.747   0.188   4.999 -0.4361  0.5596 -0.0488
 2144Sol     HW11896   0.760   0.104   5.044  0.0200 -0.8695 -2.7817
 2144Sol     HW11897   0.833   0.211   4.966 -0.9088  1.2332 -0.8123
 2144Sol     MW11898   0.756   0.182   5.000 -0.1486 -0.3662 -0.3530
 2145Sol     OW11899   2.436   2.579   4.218  0.1119 -0.5589 -0.6558
 2145Sol     HW11900   2.514   2.585   4.163  0.6412 -2.1576 -0.1169
 2145Sol     HW11901   2.376   2.645   4.183  2.2624  1.7282 -0.1441
 2145Sol     MW11902   2.437   2.586   4.210 -0.2388 -0.8880  0.4477
 2146Sol     OW11903   2.157   0.276   5.787 -0.0828 -0.1058 -0.0360
 2146Sol     HW11904   2.233   0.322   5.752  0.5878 -0.6571  0.7004
 2146Sol     HW11905   2.117   0.339   5.848  1.3972 -0.8347  1.7248
 2146Sol     MW11906   2.160   0.286   5.790  1.0910  0.0700 -0.4956
 2147Sol     OW11907   3.078   0.413   7.894 -0.1365  0.2455  0.2262
 2147Sol     HW11908   3.168   0.378   7.892 -0.7813 -1.4198 -1.4749
 2147Sol     HW11909   3.028   0.349   7.944 -0.7727  0.1451 -0.5253
 2147Sol     MW11910   3.082   0.404   7.898  0.6831 -0.3650 -0.0449
 2148Sol     OW11911   0.220   0.515   3.393 -0.9116 -0.3839  0.0129
 2148Sol     HW11912   0.248   0.439   3.342 -1.5971  0.2720 -1.3816
 2148Sol     HW11913   0.138   0.486   3.434 -0.1701 -1.0361  1.0471
 2148Sol     MW11914   0.215   0.506   3.392  0.0451 -0.0856 -0.0363
 2149Sol     OW11915   0.279   0.571   9.268  0.2116 -0.0312  0.1089
 2149Sol     HW11916   0.335   0.547   9.194  0.2913  0.9266 -0.1538
 2149Sol     HW11917   0.190   0.553   9.236  0.3094 -0.6875  0.1953
 2149Sol     MW11918   0.276   0.567   9.258  0.5574  0.1289  0.5521
 2150Sol     OW11919   1.974   2.054   6.584 -0.1729  0.1814 -0.0367
 2150Sol     HW11920   2.010   2.095   6.505 -0.3975  0.1923 -0.1331
 2150Sol     HW11921   1.891   2.099   6.599 -0.6188 -0.5221 -0.3843
 2150Sol     MW11922   1.970   2.062   6.578  0.0793 -0.1226 -0.1962
 2151Sol     OW11923   0.407   0.284   8.729  0.0285 -0.4064  0.0371
 2151Sol     HW11924   0.499   0.273   8.754 -0.1263  1.2933  1.4869
 2151Sol     HW11925   0.358   0.239   8.798 -0.3308  2.3537  1.6515
 2151Sol     MW11926   0.411   0.279   8.737  0.5595 -0.1159 -0.3296
 2152Sol     OW11927   3.335   1.618   2.653  0.9538  0.3659  0.3172
 2152Sol     HW11928   3.313   1.710   2.673 -0.9358  0.0208 -0.0813
 2152Sol     HW11929   3.253   1.571   2.666  0.8474 -0.6340 -3.5609
 2152Sol     MW11930   3.326   1.622   2.656 -0.1304  0.0807 -0.2557
 2153Sol     OW11931   2.192   3.265   4.229  0.2238  0.7764  0.0462
 2153Sol     HW11932   2.249   3.264   4.152 -1.6721  0.3472 -1.4154
 2153Sol     HW11933   2.244   3.305   4.298  1.8490  1.5013 -1.5682
 2153Sol     MW11934   2.201   3.268   4.228  0.0324  0.3845 -0.0508
 2154Sol     OW11935   0.211   1.370   3.470 -0.1249  0.1183 -0.6767
 2154Sol     HW11936   0.183   1.422   3.395  1.2848 -1.0574 -2.0508
 2154Sol     HW11937   0.296   1.334   3.444  0.7486  0.3222  1.7916
 2154Sol     MW11938   0.216   1.371   3.461  0.4362  0.4826 -0.3512
 2155Sol     OW11939   2.169   0.477   9.020 -0.2964 -0.1542  0.1206
 2155Sol     HW11940   2.223   0.398   9.019  0.4260  0.3118  1.2457
 2155Sol     HW11941   2.083   0.447   9.046  0.1349 -0.4932  1.1889
 2155Sol     MW11942   2.166   0.467   9.022  0.3910 -0.2535  0.6260
 2156Sol     OW11943   1.636   1.969   2.804 -0.0343  0.0931  0.3199
 2156Sol     HW11944   1.621   2.047   2.749 -0.9734 -1.0802 -1.1124
 2156Sol     HW11945   1.682   2.003   2.881 -1.9730  2.3539  0.5502
 2156Sol     MW11946   1.639   1.979   2.806 -0.0863  0.1985  0.3829
 2157Sol     OW11947   2.495   0.098   2.855 -0.1187 -0.0021 -0.5612
 2157Sol     HW11948   2.490   0.031   2.923  0.3881 -0.2722 -0.7808
 2157Sol     HW11949   2.418   0.153   2.868 -0.9072 -1.0463 -0.8140
 2157Sol     MW11950   2.488   0.097   2.862 -0.2391 -0.1626  0.1779
 2158Sol     OW11951   1.087   0.937   5.119 -0.2358 -0.0670 -0.3237
 2158Sol     HW11952   1.159   0.978   5.168  0.3077 -1.0246 -0.3066
 2158Sol     HW11953   1.018   0.924   5.184  0.4777 -1.3201  0.1901
 2158Sol     MW11954   1.087   0.940   5.129  0.5650  0.1732  0.3555
 2159Sol     OW11955   2.155   1.684   5.455  0.2407  0.3812 -0.2683
 2159Sol     HW11956   2.124   1.749   5.393 -0.3095  0.0450 -0.3525
 2159Sol     HW11957   2.108   1.604   5.431 -0.7867  0.5090  1.2494
 2159Sol     MW11958   2.148   1.682   5.447  0.1663 -0.2521 -0.2221
 2160Sol     OW11959   1.758   1.687   3.303 -0.1809  0.2732  0.1003
 2160Sol     HW11960   1.763   1.598   3.337 -0.1864  0.7146  1.2776
 2160Sol     HW11961   1.809   1.740   3.365 -0.0600  1.0662 -0.6594
 2160Sol     MW11962   1.763   1.684   3.311 -0.5047 -0.2152  0.1718
 2161Sol     OW11963   0.242   2.476   2.810  0.2163  0.2487 -0.9966
 2161Sol     HW11964   0.275   2.566   2.800 -0.5829  0.6950  0.2153
 2161Sol     HW11965   0.318   2.421   2.792  0.5619  1.1465 -2.3706
 2161Sol     MW11966   0.252   2.479   2.808 -0.2077  0.7793 -0.3714
 2162Sol     OW11967   1.271   2.854   5.743 -0.2441 -0.0104 -0.6294
 2162Sol     HW11968   1.289   2.826   5.653 -1.5875  2.0305 -1.5837
 2162Sol     HW11969   1.263   2.949   5.737 -2.1643 -0.0010  1.3141
 2162Sol     MW11970   1.272   2.860   5.734 -0.2596 -0.9729 -0.1200
 2163Sol     OW11971   0.958   1.607   5.842  0.0017 -0.6894 -0.6192
 2163Sol     HW11972   0.998   1.688   5.811 -1.6250 -0.3722 -1.9756
 2163Sol     HW11973   0.929   1.627   5.931  1.6091 -0.5118 -0.1162
 2163Sol     MW11974   0.959   1.616   5.847  0.7184  0.4849 -0.7077
 2164Sol     OW11975   1.936   1.939   4.204  0.4903 -0.2431 -0.1632
 2164Sol     HW11976   2.000   2.002   4.172 -1.3726  1.3629 -0.8549
 2164Sol     HW11977   1.986   1.878   4.257  2.6249  0.7994 -0.9322
 2164Sol     MW11978   1.946   1.939   4.206 -0.2734  0.3732 -0.4951
 2165Sol     OW11979   0.155   1.048   7.714 -0.0859  0.6926  0.3739
 2165Sol     HW11980   0.165   1.066   7.808  2.4314  0.9432  0.0937
 2165Sol     HW11981   0.134   0.954   7.710  2.1508  0.1252  1.1078
 2165Sol     MW11982   0.154   1.041   7.722 -0.0050 -0.6474 -0.0833
 2166Sol     OW11983   0.316   2.548   9.157  0.0103 -0.0119  0.3697
 2166Sol     HW11984   0.375   2.506   9.220  1.3510 -0.1462 -0.9491
 2166Sol     HW11985   0.371   2.609   9.109 -1.4162  1.5228  0.6221
 2166Sol     MW11986   0.326   2.550   9.158 -0.0009 -0.3977  0.6241
 2167Sol     OW11987   0.523   1.949   7.067 -0.1655 -0.4310  0.3310
 2167Sol     HW11988   0.441   1.994   7.043 -0.4464  0.0098  2.0399
 2167Sol     HW11989   0.498   1.892   7.140  0.7193 -1.5350 -0.2171
 2167Sol     MW11990   0.513   1.948   7.071  0.5597 -0.3014  0.5401
 2168Sol     OW11991   0.273   1.371   6.858 -0.1369 -0.3136 -0.2768
 2168Sol     HW11992   0.268   1.445   6.919  1.5564  0.4825 -1.0940
 2168Sol     HW11993   0.278   1.294   6.915 -0.4485  0.3015  0.5869
 2168Sol     MW11994   0.273   1.371   6.869 -0.0472 -0.3831 -1.1256
 2169Sol     OW11995   1.192   0.032   8.442 -0.1777  0.1054  0.1834
 2169Sol     HW11996   1.224   0.119   8.417  2.1703 -1.1801 -1.5536
 2169Sol     HW11997   1.228   0.017   8.529 -1.5942  1.3387  0.9930
 2169Sol     MW11998   1.198   0.038   8.448 -0.2844  0.3797  0.1606
 2170Sol     OW11999   2.846   3.228   6.342  0.5196 -0.5300  0.5465
 2170Sol     HW12000   2.877   3.246   6.253  0.1525  0.4450  0.6184
 2170Sol     HW12001   2.787   3.300   6.363 -0.5909 -1.5424  1.0122
 2170Sol     MW12002   2.843   3.236   6.336  1.0156 -0.5569  0.0039
 2171Sol     OW12003   0.119   2.246   4.252  0.0438  0.7868  0.0172
 2171Sol     HW12004   0.184   2.250   4.181  2.0818  0.8329  1.8326
 2171Sol     HW12005   0.110   2.152   4.271 -0.2369  0.7986 -0.0509
 2171Sol     MW12006   0.124   2.238   4.247  0.6435 -0.1180 -0.2311
 2172Sol     OW12007   3.056   0.948   8.305  0.1705 -0.5706  0.3212
 2172Sol     HW12008   3.103   1.031   8.310 -1.6388  0.5123  0.0077
 2172Sol     HW12009   3.070   0.919   8.215 -1.3022  0.7162 -0.3561
 2172Sol     MW12010   3.061   0.953   8.297  0.4197  0.6898  0.2251
 2173Sol     OW12011   0.337   1.403   8.736  0.3306  0.5349  0.1324
 2173Sol     HW12012   0.379   1.482   8.703  0.6107  0.1398 -0.4462
 2173Sol     HW12013   0.275   1.378   8.667  1.0871 -0.4225 -0.2026
 2173Sol     MW12014   0.335   1.408   8.727 -0.2257 -0.2429 -0.7957
 2174Sol     OW12015   0.270   0.755   3.089  0.1697 -0.4390  0.1747
 2174Sol     HW12016   0.334   0.727   3.154 -0.2595 -1.8594  0.0122
 2174Sol     HW12017   0.267   0.683   3.026 -0.0170  0.5651 -0.9740
 2174Sol     MW12018   0.275   0.746   3.089  0.0290 -0.1126  0.3513
 2175Sol     OW12019   1.233   1.436   7.317 -0.2504 -0.1289  0.2977
 2175Sol     HW12020   1.206   1.479   7.235 -1.2016 -0.4553  0.4296
 2175Sol     HW12021   1.202   1.494   7.386 -1.5363 -1.0009  0.4760
 2175Sol     MW12022   1.227   1.445   7.316  0.2470  0.9662 -0.4268
 2176Sol     OW12023   0.353   1.557   5.574 -0.3676  0.3782  0.4143
 2176Sol     HW12024   0.350   1.550   5.670  1.1388  1.2901  0.5447
 2176Sol     HW12025   0.346   1.651   5.556  0.2699  0.2945 -0.3157
 2176Sol     MW12026   0.352   1.565   5.581 -0.2712  0.1702 -0.0322
 2177Sol     OW12027   0.406   0.336   4.335 -0.0196 -0.1310 -0.4795
 2177Sol     HW12028   0.347   0.383   4.394 -0.4410 -2.7939  1.3544
 2177Sol     HW12029   0.443   0.403   4.279 -1.6668  2.1552  1.0670
 2177Sol     MW12030   0.404   0.346   4.335 -0.8595 -0.3074  0.0620
 2178Sol     OW12031   2.760   3.360   8.100 -0.3430 -0.6215 -0.4614
 2178Sol     HW12032   2.773   3.441   8.151  2.5979 -1.0190 -0.4774
 2178Sol     HW12033   2.762   3.389   8.009  1.0863 -0.7371 -0.4765
 2178Sol     MW12034   2.761   3.370   8.097 -0.5261 -0.9483  0.0332
 2179Sol     OW12035   1.039   1.407   9.125  0.7449 -0.2291  0.1255
 2179Sol     HW12036   0.986   1.355   9.064  3.8795  0.1121 -3.0981
 2179Sol     HW12037   1.004   1.496   9.117 -0.4380 -0.6391  0.6887
 2179Sol     MW12038   1.031   1.411   9.118  0.2327 -0.0395 -0.8760
 2180Sol     OW12039   0.080   2.253   3.775 -0.0130 -0.0713  0.4655
 2180Sol     HW12040   0.081   2.180   3.713  0.8605 -1.2429  1.8271
 2180Sol     HW12041  -0.000   2.240   3.826 -0.7571  0.9193 -0.4426
 2180Sol     MW12042   0.073   2.245   3.774  0.5272  0.2840  0.0883
 2181Sol     OW12043   2.378   0.394   2.914 -0.4426  0.3781  0.1129
 2181Sol     HW12044   2.285   0.378   2.930  0.2826 -2.2161  2.0450
 2181Sol     HW12045   2.387   0.390   2.819 -1.9403 -1.7489  0.0206
 2181Sol     MW12046   2.370   0.392   2.907 -0.0927 -0.1982  0.2074
 2182Sol     OW12047   1.098   0.577   3.432 -0.1842  0.1969 -0.1687
 2182Sol     HW12048   1.131   0.568   3.342  2.6061  1.5773  0.6578
 2182Sol     HW12049   1.162   0.530   3.486 -0.8535  0.9121  1.2720
 2182Sol     MW12050   1.107   0.572   3.429 -0.3003 -0.0657 -0.1018
 2183Sol     OW12051   1.084   3.342   4.868  0.0244  0.8104  0.2612
 2183Sol     HW12052   1.118   3.253   4.864  1.3441  1.2461  1.4829
 2183Sol     HW12053   0.998   3.337   4.825  1.1007 -0.5516 -1.7851
 2183Sol     MW12054   1.079   3.334   4.864 -0.1317 -0.4856 -0.2068
 2184Sol     OW12055   2.587   2.273   3.794  0.2997  0.3001  0.0106
 2184Sol     HW12056   2.504   2.228   3.809 -0.2569  0.1500 -3.2317
 2184Sol     HW12057   2.654   2.205   3.799  0.2733  0.4346  2.7012
 2184Sol     MW12058   2.586   2.263   3.796  0.7901  0.0813 -0.2993
 2185Sol     OW12059   0.352   1.542   2.798  0.2764  0.1600 -0.6891
 2185Sol     HW12060   0.320   1.500   2.718  1.1461  0.6795 -1.3271
 2185Sol     HW12061   0.282   1.529   2.862 -0.1604 -0.8074 -1.3524
 2185Sol     MW12062   0.343   1.537   2.796  0.1254 -0.3099 -0.2226
 2186Sol     OW12063   2.684   2.025   2.254  0.2306  0.5631  0.1530
 2186Sol     HW12064   2.761   2.063   2.295  0.2027  2.1363 -1.2024
 2186Sol     HW12065   2.695   2.040   2.161 -1.1055 -0.3456 -0.1836
 2186Sol     MW12066   2.692   2.030   2.250 -0.4750  0.0222  0.8255
 2187Sol     OW12067   0.965   1.366   6.996 -0.0839  0.2167 -0.2474
 2187Sol     HW12068   1.015   1.442   7.027  1.9957 -1.0740 -0.3642
 2187Sol     HW12069   1.030   1.310   6.954 -1.7420 -1.2488 -0.9145
 2187Sol     MW12070   0.975   1.368   6.995 -0.5226  0.6732  0.1662
 2188Sol     OW12071   1.976   3.237   8.168 -0.1893  0.4675 -0.6564
 2188Sol     HW12072   1.913   3.298   8.206  0.0611  0.7718 -0.7301
 2188Sol     HW12073   2.004   3.183   8.242 -0.3461  0.4975 -0.5741
 2188Sol     MW12074   1.973   3.237   8.178  0.2001 -0.4437  0.7991
 2189Sol     OW12075   2.482   3.367   7.368 -0.4020 -0.2421 -0.2001
 2189Sol     HW12076   2.460   3.424   7.442  3.0735  0.1424  0.6052
 2189Sol     HW12077   2.467   3.421   7.291 -0.4382  0.6245  0.4048
 2189Sol     MW12078   2.478   3.377   7.368  0.3147 -0.0687  0.2063
 2190Sol     OW12079   1.039   0.014   3.717 -0.0443 -0.2972  0.3786
 2190Sol     HW12080   0.992   0.023   3.634  0.8126  3.6035  0.2246
 2190Sol     HW12081   0.990   0.070   3.778  2.0393  0.6083  1.2445
 2190Sol     MW12082   1.030   0.020   3.715 -0.1232  0.1240 -0.5214
 2191Sol     OW12083   2.841   1.989   6.081  0.4398  0.1829 -0.9001
 2191Sol     HW12084   2.761   1.945   6.051  1.3714 -1.3129 -1.1984
 2191Sol     HW12085   2.874   2.034   6.003 -0.7826  1.8622 -0.4778
 2191Sol     MW12086   2.837   1.989   6.071  0.6612 -0.1730 -0.2777
 2192Sol     OW12087   1.053   0.456   9.771  0.3892  0.3188 -0.2418
 2192Sol     HW12088   1.147   0.448   9.790  0.0614  2.3463  2.6665
 2192Sol     HW12089   1.034   0.549   9.785 -1.5482  0.4647 -3.4754
 2192Sol     MW12090   1.060   0.464   9.774 -0.0714 -0.0950 -0.3877
 2193Sol     OW12091   1.523   2.581   3.423 -1.0569 -0.8049 -0.8847
 2193Sol     HW12092   1.430   2.597   3.408 -1.6716 -1.0635  2.3672
 2193Sol     HW12093   1.525   2.514   3.492  1.5249  0.8859  0.7590
 2193Sol     MW12094   1.515   2.576   3.428  0.0304 -0.2257  0.8079
 2194Sol     OW12095   0.291   1.173   7.028 -0.3260  0.1126  0.1154
 2194Sol     HW12096   0.301   1.189   7.122 -1.5528 -0.5261  0.3653
 2194Sol     HW12097   0.379   1.151   6.997 -0.1375 -0.8904  1.3521
 2194Sol     MW12098   0.300   1.172   7.033 -0.3916  0.0668 -0.8725
 2195Sol     OW12099   2.421   1.740   7.158  0.3762 -0.2993  0.7254
 2195Sol     HW12100   2.402   1.833   7.164  1.0122 -0.0792 -0.3299
 2195Sol     HW12101   2.476   1.732   7.079 -1.5203 -1.8571 -0.5086
 2195Sol     MW12102   2.425   1.747   7.151  0.8006 -0.7658  0.1828
 2196Sol     OW12103   1.161   1.401   4.737  0.2381  0.4084  0.3572
 2196Sol     HW12104   1.253   1.381   4.718 -0.2496 -1.1457 -0.4290
 2196Sol     HW12105   1.119   1.403   4.651 -0.4891  1.0635  0.7219
 2196Sol     MW12106   1.166   1.400   4.728 -0.2856 -0.3102 -0.4222
 2197Sol     OW12107   3.081   2.947   5.477  0.4342 -0.4620 -0.2640
 2197Sol     HW12108   2.993   2.918   5.457  0.7796 -0.9422 -1.0897
 2197Sol     HW12109   3.073   2.992   5.562 -0.6073 -0.4254 -0.3802
 2197Sol     MW12110   3.073   2.949   5.483  0.3542  0.3003 -0.3344
 2198Sol     OW12111   1.528   3.116   2.376  0.2180 -1.1372  0.3804
 2198Sol     HW12112   1.609   3.128   2.425  0.2589  0.4029 -0.0139
 2198Sol     HW12113   1.516   3.200   2.330 -0.4698 -2.1064 -1.2431
 2198Sol     MW12114   1.534   3.125   2.376 -0.2403 -0.1121  0.8731
 2199Sol     OW12115   2.654   2.656   8.891 -0.2034  0.0604 -0.0271
 2199Sol     HW12116   2.694   2.686   8.809  1.3930 -1.0423  0.3032
 2199Sol     HW12117   2.637   2.563   8.876 -0.7284  0.0571  0.5827
 2199Sol     MW12118   2.656   2.650   8.883  0.4515  0.0367 -0.7709
 2200Sol     OW12119   1.247   2.265   8.502  0.2053  0.1359  0.6190
 2200Sol     HW12120   1.335   2.227   8.497  0.2929  0.4585 -0.4268
 2200Sol     HW12121   1.258   2.343   8.557  1.1303  1.6760 -1.6904
 2200Sol     MW12122   1.256   2.269   8.507 -0.2128 -0.3327 -0.1847
 2201Sol     OW12123   3.088   2.990   6.437 -0.0127 -0.0809 -0.1316
 2201Sol     HW12124   3.093   3.079   6.470  0.7418  0.0448 -0.5716
 2201Sol     HW12125   3.046   2.999   6.351 -2.0800 -0.4178  0.8103
 2201Sol     MW12126   3.085   2.998   6.432 -0.5330  0.5317 -0.0659
 2202Sol     OW12127   2.123   3.343   4.777  0.5800 -0.3378  0.2373
 2202Sol     HW12128   2.079   3.427   4.759  0.3303 -0.4302  0.4182
 2202Sol     HW12129   2.194   3.340   4.713  0.6300  0.0419  0.2699
 2202Sol     MW12130   2.125   3.351   4.770  0.9801  0.4188 -0.1297
 2203Sol     OW12131   3.126   0.381   2.351 -0.5947 -0.4047 -0.1493
 2203Sol     HW12132   3.063   0.451   2.332 -0.8073 -0.3572  0.7122
 2203Sol     HW12133   3.203   0.427   2.384 -0.4875 -0.5302 -0.2258
 2203Sol     MW12134   3.127   0.392   2.352 -0.1618 -0.1994 -0.0675
 2204Sol     OW12135   1.066   1.806   4.318  0.2140 -0.4496 -0.2861
 2204Sol     HW12136   1.040   1.749   4.390 -1.1754  0.6533  0.1038
 2204Sol     HW12137   0.995   1.869   4.310  0.4387 -0.4197 -2.4912
 2204Sol     MW12138   1.058   1.806   4.323 -0.1069 -0.2375  0.2272
 2205Sol     OW12139   1.167   2.751   2.059  0.4641 -0.2246 -0.6275
 2205Sol     HW12140   1.204   2.725   1.975  0.0715  0.8191 -1.1372
 2205Sol     HW12141   1.134   2.840   2.044  1.4979  0.4479  0.9655
 2205Sol     MW12142   1.167   2.757   2.050 -0.0820  0.0061  0.3402
 2206Sol     OW12143   2.980   2.877   9.425 -0.2061  0.3858 -0.3106
 2206Sol     HW12144   3.048   2.911   9.484 -1.2388  0.5189  0.8222
 2206Sol     HW12145   3.029   2.830   9.357  0.9432 -0.9884  1.4303
 2206Sol     MW12146   2.991   2.876   9.424  0.5480  0.2435 -0.4218
 2207Sol     OW12147   2.184   1.019   4.702  0.0840  0.6642  0.3185
 2207Sol     HW12148   2.253   0.954   4.722 -1.5990 -1.6586 -1.1394
 2207Sol     HW12149   2.122   1.011   4.774 -1.0464 -0.7187 -0.7679
 2207Sol     MW12150   2.185   1.012   4.710  0.4802 -0.1091  0.8549
 2208Sol     OW12151   2.821   2.897   3.806  0.0377 -0.1173  0.2154
 2208Sol     HW12152   2.816   2.970   3.867  0.7651  1.0688 -1.1089
 2208Sol     HW12153   2.731   2.885   3.775 -0.6717 -1.8755  2.7852
 2208Sol     MW12154   2.812   2.902   3.808  0.2302 -0.7313  0.6397
 2209Sol     OW12155   1.550   2.716   3.188 -0.1063  0.1897  0.4074
 2209Sol     HW12156   1.572   2.667   3.267 -0.8759  0.0501  0.5402
 2209Sol     HW12157   1.634   2.744   3.152  0.4568 -2.6669 -0.5996
 2209Sol     MW12158   1.559   2.714   3.192 -0.5016  0.1568 -0.6167
 2210Sol     OW12159   0.977   1.693   3.903  0.0423  0.0825 -0.3640
 2210Sol     HW12160   1.046   1.631   3.879  0.3012  0.2556 -0.0655
 2210Sol     HW12161   0.927   1.648   3.971 -0.3793 -0.2004 -0.8561
 2210Sol     MW12162   0.978   1.683   3.907  0.1808  0.1196 -0.5691
 2211Sol     OW12163   0.572   1.941   5.507 -0.2912 -0.1648 -0.2896
 2211Sol     HW12164   0.588   1.913   5.597  1.9314  0.2228 -0.5342
 2211Sol     HW12165   0.485   1.907   5.486 -0.0842 -1.7812  1.3928
 2211Sol     MW12166   0.566   1.936   5.513  0.2086  0.0442  0.1112
 2212Sol     OW12167   3.200   0.071   3.285  0.1233  0.0437  0.9477
 2212Sol     HW12168   3.171   0.159   3.259  1.2500 -0.1159 -0.9334
 2212Sol     HW12169   3.171   0.063   3.376 -2.7928  1.1501  0.2027
 2212Sol     MW12170   3.195   0.078   3.290  0.2553 -0.4639 -0.5515
 2213Sol     OW12171   0.128   2.197   2.798  0.4640 -0.5200  0.1598
 2213Sol     HW12172   0.100   2.166   2.712 -0.8655  1.1333 -0.0220
 2213Sol     HW12173   0.186   2.271   2.779 -0.1852  0.1290  0.6861
 2213Sol     MW12174   0.131   2.201   2.788 -0.3127  0.2538 -0.1363
 2214Sol     OW12175   1.103   0.589   1.683 -0.3831 -0.0663 -0.1302
 2214Sol     HW12176   1.047   0.524   1.640  0.3190  0.4566 -1.8559
 2214Sol     HW12177   1.075   0.673   1.647  0.2743  0.3756  0.3689
 2214Sol     MW12178   1.096   0.590   1.676  1.1220  0.3292  0.1023
 2215Sol     OW12179   2.417   0.667   8.413 -0.1320  0.0196 -0.0911
 2215Sol     HW12180   2.408   0.720   8.493  0.0645  0.1322 -0.1438
 2215Sol     HW12181   2.327   0.654   8.383 -0.1499  0.7669 -0.3668
 2215Sol     MW12182   2.408   0.671   8.418 -0.3530 -0.0947  0.3906
 2216Sol     OW12183   3.054   0.092   7.340  0.4701  0.7070  0.0961
 2216Sol     HW12184   3.098   0.007   7.343  0.7770  0.8272 -0.6791
 2216Sol     HW12185   3.072   0.132   7.424  1.2913  0.4767  0.0291
 2216Sol     MW12186   3.059   0.088   7.348 -0.0794  1.5275 -0.0593
 2217Sol     OW12187   0.952   0.520   7.855 -0.1779 -0.5418 -0.1297
 2217Sol     HW12188   0.996   0.441   7.823  2.5720  0.6885  0.5588
 2217Sol     HW12189   0.958   0.514   7.950  0.6083  0.8294 -0.0903
 2217Sol     MW12190   0.956   0.512   7.860  0.0673  0.2819  0.2696
 2218Sol     OW12191   1.740   1.691   5.735  0.0077 -0.2266 -0.4282
 2218Sol     HW12192   1.812   1.729   5.786 -0.7222 -0.2045  0.6086
 2218Sol     HW12193   1.709   1.763   5.680 -0.4691  0.3002  0.5236
 2218Sol     MW12194   1.744   1.701   5.735  0.2792  0.0463 -0.0528
 2219Sol     OW12195   1.078   3.308   9.041 -0.3422 -0.1539  0.8996
 2219Sol     HW12196   1.002   3.364   9.056  1.3942  2.5579  0.0276
 2219Sol     HW12197   1.108   3.285   9.129 -0.7381  0.8005  1.2994
 2219Sol     MW12198   1.074   3.311   9.051 -0.3217 -0.3297 -0.0010
 2220Sol     OW12199   0.569   0.717   9.139  0.2082  0.6104 -0.3310
 2220Sol     HW12200   0.644   0.768   9.109  0.6829  0.2261  0.2034
 2220Sol     HW12201   0.567   0.641   9.081  0.2437  0.6047 -0.3237
 2220Sol     MW12202   0.576   0.715   9.131 -0.6098  0.2667 -0.2943
 2221Sol     OW12203   0.909   0.902   4.219 -0.4475 -0.5600  0.4077
 2221Sol     HW12204   0.965   0.858   4.155 -0.3659 -0.0206  0.1051
 2221Sol     HW12205   0.923   0.853   4.300  2.9116  1.4638  1.1266
 2221Sol     MW12206   0.915   0.894   4.220  0.2855 -0.4229 -0.0814
 2222Sol     OW12207   2.097   3.406   7.991 -0.0260 -0.0274 -0.2179
 2222Sol     HW12208   2.058   3.493   7.996 -0.7485 -0.4360  1.3609
 2222Sol     HW12209   2.052   3.355   8.058  0.7316 -1.4913 -0.7982
 2222Sol     MW12210   2.090   3.410   7.997 -0.7281  0.0062  0.4259
 2223Sol     OW12211   1.199   1.914   6.070 -0.3964 -0.0292  0.2329
 2223Sol     HW12212   1.170   1.899   5.981 -0.4061 -0.5003  0.3144
 2223Sol     HW12213   1.185   1.831   6.115  0.4146 -0.0558  0.4502
 2223Sol     MW12214   1.195   1.905   6.066  0.2901  0.1275  0.3106
 2224Sol     OW12215   1.630   2.099   9.033  0.0760 -0.2451  0.1693
 2224Sol     HW12216   1.724   2.085   9.047 -0.3043 -3.5039 -0.2648
 2224Sol     HW12217   1.614   2.068   8.944 -1.7838 -1.6370  0.9572
 2224Sol     MW12218   1.637   2.095   9.026  0.1715 -0.4716 -0.5463
 2225Sol     OW12219   2.063   1.478   9.249  0.4854 -0.2177 -0.3693
 2225Sol     HW12220   1.995   1.534   9.213 -0.9979 -1.2480  0.7754
 2225Sol     HW12221   2.143   1.506   9.204 -0.1766  2.8434  0.2253
 2225Sol     MW12222   2.064   1.486   9.242 -0.6018 -0.0761 -0.1418
 2226Sol     OW12223   0.074   0.365   7.223 -0.0217  0.1050  0.0768
 2226Sol     HW12224   0.065   0.423   7.298  2.0120  0.1040  0.3508
 2226Sol     HW12225   0.082   0.424   7.148 -0.1108  0.1475  0.1012
 2226Sol     MW12226   0.074   0.376   7.223 -0.4210 -0.1008  0.3082
 2227Sol     OW12227   0.428   2.766   6.991  0.5479  0.6691  0.2161
 2227Sol     HW12228   0.484   2.690   6.974 -2.2479 -1.1344 -1.3847
 2227Sol     HW12229   0.401   2.756   7.082 -0.0149 -0.4396 -0.0627
 2227Sol     MW12230   0.430   2.758   6.998 -0.1775 -0.1069  0.0762
 2228Sol     OW12231   1.033   1.917   8.503  0.3603 -0.1826 -0.0593
 2228Sol     HW12232   1.047   1.858   8.429 -0.7620  0.4862 -0.8126
 2228Sol     HW12233   1.121   1.929   8.541  0.9057 -0.7026 -1.1395
 2228Sol     MW12234   1.042   1.913   8.500  0.8057 -0.0449 -0.5159
 2229Sol     OW12235   1.040   2.337   3.602 -0.1014 -0.2881  0.2976
 2229Sol     HW12236   0.997   2.284   3.669  1.0296 -1.3114  0.2262
 2229Sol     HW12237   0.990   2.320   3.522 -1.7592  1.3189  0.9513
 2229Sol     MW12238   1.032   2.331   3.601  0.7695  0.7763  0.4497
 2230Sol     OW12239   0.904   2.640   9.664  0.6475 -0.7314  0.1480
 2230Sol     HW12240   0.845   2.689   9.721  3.7586  1.4189  1.6911
 2230Sol     HW12241   0.900   2.550   9.697 -1.7790 -0.6508  0.1574
 2230Sol     MW12242   0.898   2.636   9.672 -0.8775  0.7925  0.0825
 2231Sol     OW12243   1.743   1.419   3.397  0.1958  0.2531  0.3216
 2231Sol     HW12244   1.741   1.368   3.478 -0.3804 -0.7050 -0.2847
 2231Sol     HW12245   1.808   1.375   3.343  0.0194  0.4281 -0.0315
 2231Sol     MW12246   1.748   1.411   3.400 -0.1180 -0.0027  0.1641
 2232Sol     OW12247   2.581   2.581   7.815  0.0545 -0.6006 -0.0361
 2232Sol     HW12248   2.675   2.576   7.797 -0.0299 -0.9186 -0.4053
 2232Sol     HW12249   2.575   2.613   7.905  0.5019  0.4095 -0.3520
 2232Sol     MW12250   2.589   2.584   7.821  0.0111 -0.9187  0.0806
 2233Sol     OW12251   3.368   0.178   2.047  0.0421 -0.5509 -0.0517
 2233Sol     HW12252   3.384   0.166   2.141  1.0249 -1.7870 -0.3655
 2233Sol     HW12253   3.370   0.089   2.011 -0.4435 -0.0884 -1.2266
 2233Sol     MW12254   3.370   0.169   2.052  0.0404  0.3685 -0.5392
 2234Sol     OW12255   1.818   1.251   1.951 -0.1542 -0.6968 -0.1878
 2234Sol     HW12256   1.774   1.244   2.036 -1.4159 -0.3455 -0.7922
 2234Sol     HW12257   1.753   1.218   1.888  0.2249  0.3952 -1.1622
 2234Sol     MW12258   1.808   1.247   1.953 -0.7404 -0.0412  0.4364
 2235Sol     OW12259   1.622   1.020   3.200 -0.9547  0.2118  0.4246
 2235Sol     HW12260   1.694   1.014   3.262 -0.6030 -0.4913 -0.0417
 2235Sol     HW12261   1.547   1.050   3.252 -1.0697 -1.8532  1.5182
 2235Sol     MW12262   1.621   1.022   3.210 -0.2161  0.0387  0.8184
 2236Sol     OW12263   2.270   1.922   3.729 -0.9872  0.4062  0.3158
 2236Sol     HW12264   2.280   1.850   3.666  1.3177  2.2593 -1.5652
 2236Sol     HW12265   2.199   1.975   3.693 -0.6507  0.6755  0.0387
 2236Sol     MW12266   2.265   1.920   3.720  0.3362  0.0773 -0.0017
 2237Sol     OW12267   0.779   0.860   9.502  0.1453  0.4724 -0.7790
 2237Sol     HW12268   0.695   0.833   9.539  0.7183  2.0564  1.8050
 2237Sol     HW12269   0.845   0.819   9.558  1.0618  1.3908 -1.1657
 2237Sol     MW12270   0.778   0.854   9.510  0.1397 -0.0816  0.5131
 2238Sol     OW12271   1.680   2.347   6.214 -0.1609  0.1537  0.7642
 2238Sol     HW12272   1.681   2.388   6.127 -1.1705  0.6010  0.9529
 2238Sol     HW12273   1.601   2.293   6.214  1.0114 -1.5746  0.6306
 2238Sol     MW12274   1.673   2.346   6.206 -0.1696 -0.1890 -0.5361
 2239Sol     OW12275   2.731   0.469   5.045  0.0870  0.5051 -0.2536
 2239Sol     HW12276   2.702   0.388   5.003  0.2232  0.4148 -0.1775
 2239Sol     HW12277   2.702   0.461   5.136  1.2433 -0.0537  0.0783
 2239Sol     MW12278   2.726   0.461   5.050  0.3524 -0.6460 -0.4350
 2240Sol     OW12279   0.552   0.922   5.874 -0.2008  0.1142  0.8585
 2240Sol     HW12280   0.459   0.943   5.877 -0.2716 -0.1429  0.4880
 2240Sol     HW12281   0.562   0.871   5.794 -0.0147 -1.1666  1.6901
 2240Sol     MW12282   0.544   0.919   5.868 -0.6877 -0.6212 -0.2876
 2241Sol     OW12283   3.002   2.719   7.680  0.4979  0.1214  0.3086
 2241Sol     HW12284   2.979   2.803   7.641 -0.6374 -0.8578 -1.1936
 2241Sol     HW12285   3.040   2.669   7.608  1.3329 -0.5903  1.2337
 2241Sol     MW12286   3.003   2.722   7.670  0.4659  0.8944  0.3306
 2242Sol     OW12287   1.469   2.110   8.501 -0.6768  0.1391 -0.3136
 2242Sol     HW12288   1.553   2.146   8.472 -0.5790  0.1175 -0.0578
 2242Sol     HW12289   1.435   2.066   8.424 -2.3743  3.5983 -1.6643
 2242Sol     MW12290   1.474   2.110   8.491 -0.3407 -0.1983  0.5252
 2243Sol     OW12291   0.400   0.492   3.606  0.0818 -0.5686 -0.3885
 2243Sol     HW12292   0.468   0.428   3.586 -1.2837 -2.5084  1.0320
 2243Sol     HW12293   0.349   0.497   3.525 -1.5047 -3.4582  0.3707
 2243Sol     MW12294   0.402   0.487   3.597  0.0192 -0.2581 -0.0226
 2244Sol     OW12295   2.671   0.674   3.974 -0.9839 -0.2302 -0.4295
 2244Sol     HW12296   2.688   0.732   3.900  0.5967  0.3974  0.4033
 2244Sol     HW12297   2.758   0.646   4.003 -1.5481  0.1237  1.6781
 2244Sol     MW12298   2.680   0.676   3.970  0.1858  0.2014 -0.9508
 2245Sol     OW12299   1.332   2.212   6.772 -0.2979 -0.3118  0.3057
 2245Sol     HW12300   1.347   2.289   6.826 -0.3100 -0.0543 -0.0598
 2245Sol     HW12301   1.381   2.229   6.691  2.5528 -2.1733  1.5618
 2245Sol     MW12302   1.338   2.220   6.770 -0.1829  0.6948 -0.0356
 2246Sol     OW12303   0.627   0.403   4.674 -0.0324 -0.1392 -0.3570
 2246Sol     HW12304   0.541   0.440   4.691 -0.2107 -1.0754  0.8893
 2246Sol     HW12305   0.611   0.332   4.611 -0.1769 -0.2774 -0.1681
 2246Sol     MW12306   0.618   0.400   4.670  0.1401 -0.5990  0.2352
 2247Sol     OW12307   2.243   0.347   5.149 -0.2763  0.3608  0.3281
 2247Sol     HW12308   2.218   0.288   5.078 -1.7523  1.0849  0.2247
 2247Sol     HW12309   2.220   0.300   5.229  0.3607  0.0047  0.3093
 2247Sol     MW12310   2.239   0.337   5.150  0.4652 -0.1978 -0.6060
 2248Sol     OW12311   2.223   2.888   8.562  0.5274 -0.0709 -0.7317
 2248Sol     HW12312   2.265   2.973   8.548 -1.2145  0.8717 -0.4708
 2248Sol     HW12313   2.242   2.866   8.653 -1.2016  1.3342  0.0053
 2248Sol     MW12314   2.228   2.894   8.569 -0.4509 -0.3013  0.4477
 2249Sol     OW12315   0.297   2.052   8.725 -0.1608  0.1057  0.2589
 2249Sol     HW12316   0.214   2.092   8.751 -0.2457  0.2257 -0.1965
 2249Sol     HW12317   0.347   2.045   8.806 -1.1632 -1.2574  0.7843
 2249Sol     MW12318   0.294   2.055   8.734 -0.0029 -0.3320 -0.1673
 2250Sol     OW12319   0.641   2.886   1.981 -0.1214 -0.7747 -0.1517
 2250Sol     HW12320   0.605   2.882   1.893  1.0628 -1.3875 -0.6221
 2250Sol     HW12321   0.736   2.881   1.968  0.0642 -0.7734  1.1466
 2250Sol     MW12322   0.647   2.885   1.972  0.5775  0.5314 -0.0791
 2251Sol     OW12323   0.914   0.360   8.739  0.0524 -0.2077  0.2400
 2251Sol     HW12324   1.000   0.371   8.697  0.7204 -0.1414  1.6089
 2251Sol     HW12325   0.917   0.418   8.815 -0.8435 -0.9426  0.8409
 2251Sol     MW12326   0.922   0.366   8.742 -0.1653 -0.4572  0.1600
 2252Sol     OW12327   0.564   2.860   3.730 -0.3996 -0.0708  0.3149
 2252Sol     HW12328   0.588   2.867   3.822 -0.2812 -0.0508  0.2818
 2252Sol     HW12329   0.523   2.944   3.709 -1.8976 -0.6548  0.7861
 2252Sol     MW12330   0.562   2.868   3.736  0.2041 -0.2601 -0.3076
 2253Sol     OW12331   2.972   1.742   3.111 -0.8434 -0.1920 -0.8715
 2253Sol     HW12332   3.066   1.751   3.128 -0.7557  0.9228 -1.8546
 2253Sol     HW12333   2.967   1.727   3.016 -1.6240 -0.8459 -0.7281
 2253Sol     MW12334   2.980   1.741   3.104  0.3129  0.1524  0.6325
 2254Sol     OW12335   2.862   1.359   4.161  0.0373  0.1131 -0.0308
 2254Sol     HW12336   2.903   1.276   4.134 -0.4022  0.0102 -0.3879
 2254Sol     HW12337   2.793   1.332   4.221  1.3492  0.3726  1.6413
 2254Sol     MW12338   2.860   1.349   4.164  0.0327  0.7230 -0.2335
 2255Sol     OW12339   2.358   2.021   6.271 -0.0957  0.4805  0.2020
 2255Sol     HW12340   2.290   1.954   6.267 -0.4396  0.8707 -0.5632
 2255Sol     HW12341   2.317   2.096   6.314 -0.8138  1.4823 -2.1855
 2255Sol     MW12342   2.348   2.021   6.275  0.8707  0.0115  0.0618
 2256Sol     OW12343   1.524   2.784   5.905 -0.1983 -0.7682  0.0171
 2256Sol     HW12344   1.542   2.877   5.892  1.3872 -1.1708 -0.7903
 2256Sol     HW12345   1.429   2.775   5.890 -0.4352  0.7797  0.5698
 2256Sol     MW12346   1.517   2.791   5.903 -0.3426 -0.2500  0.2583
 2257Sol     OW12347   2.976   2.328   1.805  0.1149  0.8606  0.1735
 2257Sol     HW12348   3.052   2.379   1.776 -0.3267  1.7915  0.6218
 2257Sol     HW12349   2.943   2.376   1.881 -1.5952  1.1052 -0.7046
 2257Sol     MW12350   2.980   2.337   1.809 -0.4768 -0.3854 -0.4849
 2258Sol     OW12351   0.814   2.357   8.864 -0.0037 -0.0285  0.6464
 2258Sol     HW12352   0.909   2.364   8.853 -0.1584  0.5151 -0.4417
 2258Sol     HW12353   0.781   2.347   8.775 -0.9763 -0.1136  1.0176
 2258Sol     MW12354   0.820   2.357   8.855  0.7448  0.3551 -0.0604
 2259Sol     OW12355   1.965   0.328   5.347  0.5044 -0.2836  0.5796
 2259Sol     HW12356   2.044   0.281   5.374  0.3730 -0.3084  0.9290
 2259Sol     HW12357   1.906   0.260   5.315  1.1760 -0.1101 -1.0704
 2259Sol     MW12358   1.967   0.318   5.347 -0.2902 -0.2431  0.3751
 2260Sol     OW12359   0.263   0.383   9.461 -0.5566  0.4340 -0.8322
 2260Sol     HW12360   0.285   0.445   9.392  0.1122  0.7500 -0.3481
 2260Sol     HW12361   0.231   0.437   9.533  1.8458  0.4369  0.3043
 2260Sol     MW12362   0.262   0.393   9.462 -0.3110 -0.6024  0.5235
 2261Sol     OW12363   0.186   0.831   4.272 -0.4349  0.5181 -0.0838
 2261Sol     HW12364   0.279   0.809   4.278 -0.8242 -1.3763 -0.9361
 2261Sol     HW12365   0.156   0.789   4.192 -2.3015  0.1437  0.7892
 2261Sol     MW12366   0.191   0.826   4.265  0.2523 -0.3814  0.0421
 2262Sol     OW12367   0.077   0.778   5.064  0.1171  0.2735 -0.1906
 2262Sol     HW12368   0.069   0.864   5.022 -2.3629 -0.0574 -0.4587
 2262Sol     HW12369   0.006   0.776   5.128  1.1948 -0.9516  1.0105
 2262Sol     MW12370   0.070   0.786   5.066 -0.0589 -0.5806 -0.0366
 2263Sol     OW12371   0.992   3.244   7.177  0.3792  0.2505 -0.2085
 2263Sol     HW12372   1.018   3.206   7.261 -2.3769  1.4012  1.2603
 2263Sol     HW12373   0.975   3.169   7.121  3.4422 -0.5308 -0.1708
 2263Sol     MW12374   0.993   3.234   7.180  0.1921 -0.4367  0.4442
 2264Sol     OW12375   0.111   1.905   6.756  0.5382 -0.1201 -0.5366
 2264Sol     HW12376   0.097   1.870   6.844 -2.2163 -1.1945 -1.3454
 2264Sol     HW12377   0.176   1.847   6.717 -0.8737 -1.8415 -0.3974
 2264Sol     MW12378   0.115   1.897   6.760  0.2655 -0.7959 -0.4789
 2265Sol     OW12379   2.447   1.815   1.936  0.3519  0.4099  0.1787
 2265Sol     HW12380   2.508   1.810   2.010  1.2934  3.0210 -0.3418
 2265Sol     HW12381   2.491   1.766   1.866 -0.1924 -1.4230  1.1006
 2265Sol     MW12382   2.457   1.810   1.936  0.3451 -0.3369 -0.0558
 2266Sol     OW12383   0.156   1.588   6.420 -0.0811  0.4187 -0.5786
 2266Sol     HW12384   0.065   1.563   6.433  0.7580 -2.1120  0.8090
 2266Sol     HW12385   0.184   1.623   6.505  0.7445 -0.5096 -0.4624
 2266Sol     MW12386   0.150   1.589   6.428 -0.2426  0.5604 -0.7438
 2267Sol     OW12387   2.273   1.886   8.780  0.2991 -0.5709  0.5547
 2267Sol     HW12388   2.360   1.903   8.818 -0.3100  1.7262  1.0019
 2267Sol     HW12389   2.291   1.859   8.690  1.5198 -1.2924  0.9921
 2267Sol     MW12390   2.282   1.885   8.775  0.2795  0.2086 -0.0797
 2268Sol     OW12391   1.361   2.976   6.955  0.4125  0.1104 -0.0560
 2268Sol     HW12392   1.342   2.899   7.009  0.0229  0.1955 -0.0696
 2268Sol     HW12393   1.433   3.019   7.001 -0.8303  0.9325  1.1662
 2268Sol     MW12394   1.366   2.973   6.964  0.6559 -0.3742 -0.1639
 2269Sol     OW12395   0.603   1.400   8.215  0.5234  0.3843 -0.7612
 2269Sol     HW12396   0.522   1.413   8.265  0.1914 -1.5275 -0.7778
 2269Sol     HW12397   0.616   1.483   8.169 -1.6560  0.5792 -1.0861
 2269Sol     MW12398   0.597   1.409   8.216  0.2210  0.3535  0.2512
 2270Sol     OW12399   3.113   1.237   5.833 -0.1385 -0.1130  0.5592
 2270Sol     HW12400   3.033   1.188   5.813 -0.2193  0.4968 -0.6981
 2270Sol     HW12401   3.087   1.298   5.901 -0.7431  0.0677  0.1738
 2270Sol     MW12402   3.104   1.238   5.837 -0.4028 -1.0545 -0.7082
 2271Sol     OW12403   0.277   0.019   9.091 -0.6684 -0.4618 -0.6375
 2271Sol     HW12404   0.246   0.044   9.178 -4.0213 -1.3435 -1.4883
 2271Sol     HW12405   0.273  -0.077   9.091  2.3624 -0.6145 -0.7395
 2271Sol     MW12406   0.274   0.012   9.098 -0.7798  0.6570 -0.7648
 2272Sol     OW12407   1.384   1.791   3.612 -0.0381 -0.4038 -0.1737
 2272Sol     HW12408   1.393   1.696   3.615  1.6067 -0.2390  0.2856
 2272Sol     HW12409   1.289   1.806   3.613 -0.3287 -2.0648 -1.5321
 2272Sol     MW12410   1.376   1.784   3.613  0.1436  0.9727 -0.2833
 2273Sol     OW12411   0.586   0.464   6.967  0.3210 -0.0043 -0.6967
 2273Sol     HW12412   0.507   0.459   7.021  0.8918  0.4506  0.1904
 2273Sol     HW12413   0.647   0.403   7.008 -0.0941 -1.5561 -2.3002
 2273Sol     MW12414   0.585   0.458   6.975 -0.2265 -0.0859  0.2985
 2274Sol     OW12415   1.296   2.257   8.996 -0.2155 -0.0324  0.2270
 2274Sol     HW12416   1.274   2.349   8.984 -0.5296 -0.0644  0.5546
 2274Sol     HW12417   1.322   2.250   9.088 -1.3341 -0.5012  0.5129
 2274Sol     MW12418   1.296   2.264   9.003 -0.6139 -0.8855 -0.5257
 2275Sol     OW12419   3.036   2.695   3.881 -0.1418  0.4357  0.0443
 2275Sol     HW12420   3.009   2.603   3.882 -1.3422  0.7819  1.3814
 2275Sol     HW12421   2.962   2.741   3.841  1.2906  0.6105 -2.5589
 2275Sol     MW12422   3.027   2.691   3.877 -0.6233 -0.9386  0.8090
 2276Sol     OW12423   2.962   1.249   2.117  0.1525  1.1423 -0.6325
 2276Sol     HW12424   3.005   1.314   2.062  1.0836  0.2356 -1.0010
 2276Sol     HW12425   2.869   1.255   2.094  0.5886  0.4286 -2.6858
 2276Sol     MW12426   2.958   1.255   2.110 -0.0734  0.5646 -0.1062
 2277Sol     OW12427   1.365   1.962   8.269 -0.4772  0.3069  0.4091
 2277Sol     HW12428   1.317   2.029   8.221  0.6510  1.0300  0.2700
 2277Sol     HW12429   1.333   1.879   8.233 -1.2311  0.7873 -0.0401
 2277Sol     MW12430   1.358   1.961   8.262 -1.0446  0.2515 -0.3136
 2278Sol     OW12431   2.096   0.660   6.159 -0.0540 -0.1761  0.0466
 2278Sol     HW12432   2.008   0.695   6.143  0.7962  1.7872 -0.5884
 2278Sol     HW12433   2.150   0.738   6.174  1.4892 -1.3805  0.8557
 2278Sol     MW12434   2.093   0.670   6.159 -0.4903 -0.0847  0.1331
 2279Sol     OW12435   2.859   1.074   8.858  0.2543 -0.7767 -0.4098
 2279Sol     HW12436   2.789   1.028   8.904  1.2488 -1.0333  0.8705
 2279Sol     HW12437   2.820   1.158   8.833 -1.2802 -1.9022 -1.9500
 2279Sol     MW12438   2.850   1.077   8.860  0.0206 -0.1911 -0.1643
 2280Sol     OW12439   2.380   0.746   7.776  0.0092  0.4730  0.4862
 2280Sol     HW12440   2.340   0.659   7.776  0.1616  0.3970  1.3095
 2280Sol     HW12441   2.315   0.803   7.817 -0.1027  0.7552 -0.0791
 2280Sol     MW12442   2.371   0.743   7.780  0.3918  0.2705 -0.2929
 2281Sol     OW12443   2.866   2.774   5.411  0.2272  0.0609  0.4254
 2281Sol     HW12444   2.783   2.820   5.398 -0.1219 -0.9838 -1.1592
 2281Sol     HW12445   2.846   2.707   5.476  0.1583  0.6324  0.9999
 2281Sol     MW12446   2.857   2.772   5.416  0.2500  0.1246 -0.6637
 2282Sol     OW12447   2.463   2.795   6.627  0.3783 -0.5163 -0.4501
 2282Sol     HW12448   2.520   2.868   6.653 -0.5612  0.3986 -0.8937
 2282Sol     HW12449   2.464   2.798   6.531 -0.2589 -0.6131 -0.4590
 2282Sol     MW12450   2.468   2.802   6.621 -0.4333 -0.0286 -0.4847
 2283Sol     OW12451   0.247   2.608   1.902  0.4514 -0.1216  0.1452
 2283Sol     HW12452   0.312   2.660   1.949  0.6229 -1.4300  1.3715
 2283Sol     HW12453   0.193   2.569   1.970 -1.3498  0.5506 -0.8404
 2283Sol     MW12454   0.248   2.609   1.912 -0.0281  0.4418 -0.2588
 2284Sol     OW12455   2.201   2.419   8.367 -0.2664 -0.0715  0.2890
 2284Sol     HW12456   2.213   2.471   8.288 -0.6816 -1.5512 -0.7777
 2284Sol     HW12457   2.288   2.382   8.385 -0.0046  0.8532  0.9610
 2284Sol     MW12458   2.210   2.420   8.362  0.0384 -0.4880  0.1401
 2285Sol     OW12459   1.426   1.595   4.961  0.5295  0.1439  0.1237
 2285Sol     HW12460   1.386   1.640   5.035 -1.1793 -0.0457 -0.6681
 2285Sol     HW12461   1.424   1.503   4.984  1.0520  0.1768  0.3235
 2285Sol     MW12462   1.423   1.591   4.969 -0.0006 -0.3127 -0.4913
 2286Sol     OW12463   0.716   3.009   6.326 -0.1814 -0.1808  0.1322
 2286Sol     HW12464   0.799   3.057   6.327 -1.3479  1.9348 -0.1091
 2286Sol     HW12465   0.732   2.930   6.376  2.0250  0.1308 -0.0660
 2286Sol     MW12466   0.724   3.007   6.330  0.1308  0.2742 -0.2937
 2287Sol     OW12467   3.362   1.741   3.327 -0.1991 -0.1430 -0.4905
 2287Sol     HW12468   3.447   1.698   3.318  0.2309  0.6656 -0.2716
 2287Sol     HW12469   3.371   1.797   3.404 -1.2088 -0.7195  0.0504
 2287Sol     MW12470   3.370   1.742   3.333  0.0731  0.2168  0.1673
 2288Sol     OW12471   1.943   0.506   3.911  0.4511  0.4118 -0.1290
 2288Sol     HW12472   1.969   0.577   3.970  0.2059 -0.5460  1.1433
 2288Sol     HW12473   1.850   0.521   3.895  0.0958 -0.3258  1.1544
 2288Sol     MW12474   1.937   0.514   3.915 -0.1135 -0.6814 -0.5919
 2289Sol     OW12475   1.965   1.071   8.273  0.1881 -1.1110 -0.2404
 2289Sol     HW12476   2.010   1.155   8.266  0.2583 -0.9166  1.9613
 2289Sol     HW12477   1.951   1.043   8.183  0.4756  1.0951 -1.0091
 2289Sol     MW12478   1.968   1.076   8.265  0.2962 -0.5671  0.0066
 2290Sol     OW12479   3.201   2.358   2.495  0.3636 -0.3640  0.2072
 2290Sol     HW12480   3.140   2.339   2.566 -0.4749  3.0657  0.4946
 2290Sol     HW12481   3.149   2.347   2.415 -0.6872  2.4754  0.4477
 2290Sol     MW12482   3.191   2.355   2.494 -0.4189 -0.2361  0.0095
 2291Sol     OW12483   2.391   2.798   9.210 -0.3122 -0.1785 -0.7277
 2291Sol     HW12484   2.423   2.849   9.135 -0.2851 -0.6143 -1.0105
 2291Sol     HW12485   2.441   2.717   9.208  0.2198  0.1097  0.1974
 2291Sol     MW12486   2.398   2.796   9.203  0.0768  0.5622 -0.6018
 2292Sol     OW12487   3.055   0.076   8.452 -0.1144 -0.2726  0.4404
 2292Sol     HW12488   3.110   0.133   8.505  1.2078 -0.2025 -0.9752
 2292Sol     HW12489   3.098  -0.010   8.457 -2.2047 -1.2576  2.7349
 2292Sol     MW12490   3.064   0.073   8.457  0.3688 -0.5717  0.0867
 2293Sol     OW12491   0.294   1.140   2.506 -0.1542  0.5838  0.0157
 2293Sol     HW12492   0.267   1.224   2.544 -2.0661  0.1444 -0.3285
 2293Sol     HW12493   0.263   1.074   2.568 -0.5908  0.0260 -0.7820
 2293Sol     MW12494   0.289   1.142   2.515 -0.1088 -0.3210 -0.3622
 2294Sol     OW12495   0.796   2.379   3.414 -0.0618  0.1944 -0.7234
 2294Sol     HW12496   0.752   2.294   3.408  0.7404 -0.2697 -0.1976
 2294Sol     HW12497   0.846   2.386   3.333 -0.3977  0.3132 -0.9182
 2294Sol     MW12498   0.797   2.372   3.406 -0.7754  0.2151  0.0037
 2295Sol     OW12499   0.332   1.586   9.570  0.2458 -0.1474  0.3308
 2295Sol     HW12500   0.288   1.510   9.609  0.9373  0.4088  2.2429
 2295Sol     HW12501   0.264   1.652   9.564  0.3552  0.1015  1.5863
 2295Sol     MW12502   0.322   1.585   9.573  0.4329 -1.1947 -0.2688
 2296Sol     OW12503   0.397   1.423   6.433  0.1287 -0.7585  0.5707
 2296Sol     HW12504   0.363   1.508   6.460  0.3260 -0.2501 -0.7544
 2296Sol     HW12505   0.320   1.373   6.406  0.3780  0.3346 -2.2697
 2296Sol     MW12506   0.387   1.426   6.433 -0.2701 -0.5136 -0.1753
 2297Sol     OW12507   1.269   3.346   7.060  0.2365  0.2179 -0.9068
 2297Sol     HW12508   1.177   3.329   7.040  0.8917 -2.6749 -1.7914
 2297Sol     HW12509   1.267   3.395   7.142 -2.0561 -2.0125  0.4331
 2297Sol     MW12510   1.261   3.349   7.066  0.3825 -0.2614 -0.6654
 2298Sol     OW12511   0.658   2.597   4.543 -0.0106 -0.2306  0.1737
 2298Sol     HW12512   0.683   2.508   4.516 -0.0746 -0.4583  0.8595
 2298Sol     HW12513   0.602   2.628   4.472 -0.6678 -1.0565  0.3199
 2298Sol     MW12514   0.655   2.592   4.534 -0.3763 -0.0902  0.0162
 2299Sol     OW12515   2.204   0.902   8.949  0.2158 -0.1562 -0.3991
 2299Sol     HW12516   2.126   0.867   8.906  0.9990 -0.1495 -1.8523
 2299Sol     HW12517   2.235   0.831   9.005  0.4842 -0.9711 -1.5759
 2299Sol     MW12518   2.200   0.893   8.950 -0.0031  0.1802  0.3178
 2300Sol     OW12519   2.600   1.579   7.296  0.3038 -0.2663 -1.1645
 2300Sol     HW12520   2.672   1.639   7.318  0.5360 -0.4231 -1.4981
 2300Sol     HW12521   2.534   1.635   7.255 -0.0444 -0.0077 -0.2606
 2300Sol     MW12522   2.600   1.590   7.294  0.4948 -0.5101  0.6398
 2301Sol     OW12523   2.101   2.142   4.108 -0.8260 -0.0379 -0.0190
 2301Sol     HW12524   2.076   2.231   4.134 -0.4116 -0.0912  0.5779
 2301Sol     HW12525   2.170   2.117   4.171 -0.3702 -0.4699 -0.6860
 2301Sol     MW12526   2.105   2.148   4.116 -0.3012  0.1625  0.1804
 2302Sol     OW12527   0.183   3.384   4.734 -0.1041 -0.1842 -0.1450
 2302Sol     HW12528   0.153   3.474   4.729 -1.1155 -0.5536 -0.8379
 2302Sol     HW12529   0.247   3.383   4.805 -0.7546  0.8791  0.4553
 2302Sol     MW12530   0.186   3.392   4.740 -0.3006 -0.2815 -0.9867
 2303Sol     OW12531   3.274   1.053   7.500  0.3026  0.2414 -0.9931
 2303Sol     HW12532   3.241   1.112   7.568  2.6992  0.0347  0.4378
 2303Sol     HW12533   3.248   0.966   7.529 -0.0036  0.2761 -1.1583
 2303Sol     MW12534   3.269   1.050   7.509  0.8093  0.0653 -0.1774
 2304Sol     OW12535   1.299   0.066   3.877  0.1818 -0.4321  0.2239
 2304Sol     HW12536   1.211   0.069   3.839  1.0667  0.0696 -1.8013
 2304Sol     HW12537   1.295  -0.008   3.938 -1.1476 -1.5233 -1.1326
 2304Sol     MW12538   1.291   0.059   3.879 -0.5076  0.3892  0.4787
 2305Sol     OW12539   0.083   0.038   8.641 -0.6312 -0.0144 -0.2748
 2305Sol     HW12540   0.069   0.079   8.556 -1.7335 -0.9104 -0.5355
 2305Sol     HW12541   0.069   0.108   8.704  0.7506  0.7885 -0.8441
 2305Sol     MW12542   0.081   0.048   8.639  0.6052 -0.3519  0.5202
 2306Sol     OW12543   1.327   1.646   5.724 -0.1499  0.6508 -0.5845
 2306Sol     HW12544   1.316   1.688   5.638 -2.4309  0.9953 -0.1523
 2306Sol     HW12545   1.265   1.573   5.723  0.6408 -0.0377  0.3387
 2306Sol     MW12546   1.320   1.644   5.716  0.1773 -0.1106 -0.7927
 2307Sol     OW12547   1.161   1.498   2.732 -0.2148  0.1498  0.2992
 2307Sol     HW12548   1.075   1.496   2.690 -0.6560  0.2290  1.1906
 2307Sol     HW12549   1.180   1.591   2.744 -0.7650  0.1066  1.6232
 2307Sol     MW12550   1.155   1.506   2.730  0.9640 -0.0275  0.5924
 2308Sol     OW12551   1.705   0.717   8.916 -0.0607 -0.1747  0.0924
 2308Sol     HW12552   1.649   0.642   8.893 -1.2764  0.3026  1.4507
 2308Sol     HW12553   1.690   0.730   9.010  3.1225 -0.6824  0.7433
 2308Sol     MW12554   1.699   0.711   8.922 -0.3512 -0.3796  0.1244
 2309Sol     OW12555   1.775   2.340   7.083  0.1275 -0.2559  0.6566
 2309Sol     HW12556   1.861   2.315   7.050 -0.0762  1.1758 -1.0519
 2309Sol     HW12557   1.768   2.297   7.168  2.2765 -0.8815  0.5420
 2309Sol     MW12558   1.782   2.334   7.087 -0.2224  0.1249  0.6349
 2310Sol     OW12559   2.979   2.814   8.716  0.7631  0.2025 -0.2306
 2310Sol     HW12560   2.950   2.905   8.724  1.2348  0.2616  0.9462
 2310Sol     HW12561   3.018   2.794   8.801  0.7431 -1.0774 -0.5152
 2310Sol     MW12562   2.980   2.820   8.724  0.2693  0.2281  0.5110
 2311Sol     OW12563   0.410   2.444   8.810  0.2424 -0.3553  0.0158
 2311Sol     HW12564   0.447   2.382   8.873 -0.6033  0.3956  1.2880
 2311Sol     HW12565   0.458   2.525   8.824  1.7027 -0.8495 -2.0118
 2311Sol     MW12566   0.417   2.446   8.817  0.0428  0.2061 -0.1942
 2312Sol     OW12567   2.588   0.880   2.850  0.4828 -0.0134  0.2767
 2312Sol     HW12568   2.562   0.875   2.757 -0.4209 -0.1464  0.5240
 2312Sol     HW12569   2.587   0.788   2.879  1.7083 -0.0663  0.1774
 2312Sol     MW12570   2.585   0.871   2.844  1.0008  0.2841  0.0974
 2313Sol     OW12571   3.335   1.530   9.493 -0.2827  0.6715 -0.2664
 2313Sol     HW12572   3.285   1.599   9.449 -0.7896 -1.2781 -2.8498
 2313Sol     HW12573   3.269   1.475   9.534  0.0450  0.8834  0.5612
 2313Sol     MW12574   3.325   1.531   9.493 -0.8260  0.4154  0.2895
 2314Sol     OW12575   0.555   1.602   4.039 -0.3986 -0.3682  0.3532
 2314Sol     HW12576   0.520   1.577   3.953 -0.1790 -0.3929  0.2696
 2314Sol     HW12577   0.519   1.537   4.099  0.0092 -0.7735  0.1656
 2314Sol     MW12578   0.549   1.594   4.036  0.1626 -0.1003  0.3289
 2315Sol     OW12579   1.126   0.301   3.915  0.3468 -0.2873 -0.0940
 2315Sol     HW12580   1.159   0.390   3.912 -1.4880  0.4473  0.5629
 2315Sol     HW12581   1.204   0.246   3.918  1.5041  1.2468 -1.3368
 2315Sol     MW12582   1.136   0.304   3.915 -0.4299  0.2293  0.4408
 2316Sol     OW12583   1.121   0.927   3.319  0.1033 -0.3471  0.1801
 2316Sol     HW12584   1.143   0.908   3.410 -0.8049 -0.1796  0.4453
 2316Sol     HW12585   1.048   0.868   3.299 -1.0041  0.9834  0.1853
 2316Sol     MW12586   1.116   0.920   3.325  0.2607  0.2452 -0.3370
 2317Sol     OW12587   1.423   3.283   3.841  0.1213  0.2714  0.1389
 2317Sol     HW12588   1.362   3.209   3.840  2.1483 -1.4657  0.7291
 2317Sol     HW12589   1.464   3.279   3.928 -0.1920  2.4939  0.4202
 2317Sol     MW12590   1.421   3.276   3.849 -0.5361  0.1169 -0.0368
 2318Sol     OW12591   1.073   2.651   4.615 -0.2212  0.4194  0.2148
 2318Sol     HW12592   1.017   2.650   4.692 -0.5348  3.3983  0.0815
 2318Sol     HW12593   1.014   2.641   4.541 -0.1063 -0.6591  0.2612
 2318Sol     MW12594   1.063   2.650   4.616  0.3564 -0.3172  0.4151
 2319Sol     OW12595   0.268   0.006   3.015  0.4813 -0.8713 -0.3345
 2319Sol     HW12596   0.355   0.045   3.006 -0.1933  0.8241  0.2372
 2319Sol     HW12597   0.284  -0.077   3.060  2.1696 -2.2624 -3.4065
 2319Sol     MW12598   0.277   0.002   3.019 -0.1435  0.3973  0.4245
 2320Sol     OW12599   3.052   1.428   1.696  0.9060 -0.2637 -0.7562
 2320Sol     HW12600   3.056   1.436   1.792  0.6989 -1.4957 -0.6420
 2320Sol     HW12601   3.139   1.395   1.672  0.5354 -1.1585 -0.8697
 2320Sol     MW12602   3.060   1.426   1.703  0.1743  0.0667  0.0265
 2321Sol     OW12603   1.375   1.441   7.833 -0.1565 -0.1106  0.4088
 2321Sol     HW12604   1.336   1.358   7.863  1.2505 -1.0277 -0.2308
 2321Sol     HW12605   1.424   1.417   7.754 -2.2524  1.9297 -1.5490
 2321Sol     MW12606   1.376   1.431   7.829 -0.3493 -1.0211 -0.5838
 2322Sol     OW12607   2.492   1.715   9.392  0.1659  0.2546  0.6438
 2322Sol     HW12608   2.431   1.773   9.439  0.1581  1.2728 -0.5898
 2322Sol     HW12609   2.480   1.738   9.300  2.0096  0.0685  0.3419
 2322Sol     MW12610   2.486   1.722   9.388  0.0481 -0.2604  0.4059
 2323Sol     OW12611   1.829   0.167   7.904 -0.0801 -0.7565  0.2507
 2323Sol     HW12612   1.884   0.216   7.965 -3.4685  2.8964  0.5872
 2323Sol     HW12613   1.876   0.171   7.821  0.4996  1.7663  0.6679
 2323Sol     MW12614   1.838   0.172   7.902  0.1120 -0.3945  0.1324
 2324Sol     OW12615   0.304   0.200   7.049  0.3903 -1.1386  0.5159
 2324Sol     HW12616   0.336   0.282   7.088  1.5772 -2.1326  1.6788
 2324Sol     HW12617   0.211   0.198   7.072  0.3583 -0.1402  0.5272
 2324Sol     MW12618   0.299   0.208   7.055 -0.2237  0.5096  0.1494
 2325Sol     OW12619   1.811   3.148   9.359 -0.2469  0.2233 -0.1575
 2325Sol     HW12620   1.775   3.170   9.445  0.3947 -0.5494  0.3241
 2325Sol     HW12621   1.888   3.095   9.379  0.8637  1.4217 -1.1829
 2325Sol     MW12622   1.815   3.145   9.369  0.4591  0.5754 -0.1496
 2326Sol     OW12623   1.173   1.527   7.599  0.0596  0.2667 -0.1594
 2326Sol     HW12624   1.222   1.547   7.679  2.4575  0.0433 -1.5419
 2326Sol     HW12625   1.201   1.438   7.576 -2.5834 -0.6822  0.1447
 2326Sol     MW12626   1.180   1.521   7.604  0.6153  0.2566  0.1821
 2327Sol     OW12627   1.870   1.765   9.496 -0.0889 -0.3670 -0.0250
 2327Sol     HW12628   1.834   1.685   9.534  1.4359 -1.4803 -0.9093
 2327Sol     HW12629   1.864   1.753   9.401  1.9434 -0.2900 -0.1940
 2327Sol     MW12630   1.866   1.757   9.491 -0.3815 -0.5356  0.5304
 2328Sol     OW12631   0.865   3.216   9.294 -0.4192 -0.0115  0.2711
 2328Sol     HW12632   0.924   3.257   9.357 -1.8279  1.4396  0.6468
 2328Sol     HW12633   0.921   3.154   9.247  1.1604  0.5510  1.3693
 2328Sol     MW12634   0.876   3.214   9.295  0.0123 -0.3815  0.1508
 2329Sol     OW12635   2.515   1.890   8.912  0.2943 -0.6085 -0.4770
 2329Sol     HW12636   2.587   1.952   8.899  0.5314 -0.6074  0.7655
 2329Sol     HW12637   2.551   1.805   8.887  0.4483 -0.4772 -0.7057
 2329Sol     MW12638   2.525   1.888   8.908  0.0917  0.0845  0.2231
 2330Sol     OW12639   2.049   2.077   3.624  0.0196  0.0568  0.0613
 2330Sol     HW12640   1.998   1.996   3.630  1.1738 -0.7139 -0.4745
 2330Sol     HW12641   2.019   2.118   3.542  0.8132 -0.7837 -0.6565
 2330Sol     MW12642   2.041   2.074   3.617  0.4690  0.2855 -1.0530
 2331Sol     OW12643   1.849   3.033   6.032 -0.0158  0.2103 -0.0870
 2331Sol     HW12644   1.767   3.030   5.982 -1.0808 -1.5349  1.6685
 2331Sol     HW12645   1.902   2.963   5.995  0.1368  0.4571 -0.3334
 2331Sol     MW12646   1.846   3.026   6.024  0.3775  0.3002 -0.6270
 2332Sol     OW12647   1.265   0.246   8.063 -0.5351 -0.0240 -0.5122
 2332Sol     HW12648   1.288   0.333   8.031  2.9435 -0.6319  0.1192
 2332Sol     HW12649   1.315   0.237   8.145 -2.0030 -2.0414  0.1928
 2332Sol     MW12650   1.272   0.253   8.068 -0.3350 -0.1095 -0.2255
 2333Sol     OW12651   0.448   2.456   5.130 -0.0638 -0.2817  0.0233
 2333Sol     HW12652   0.510   2.417   5.069  0.4784 -0.4947  0.7092
 2333Sol     HW12653   0.372   2.397   5.129  0.1035 -0.4909 -0.1546
 2333Sol     MW12654   0.446   2.447   5.125  0.1013  0.0516  0.2642
 2334Sol     OW12655   0.453   0.519   4.947  0.0411  0.0078 -0.0718
 2334Sol     HW12656   0.414   0.580   5.009  0.5138  1.1044 -0.8581
 2334Sol     HW12657   0.534   0.490   4.989 -2.4165 -3.6923  2.4133
 2334Sol     MW12658   0.457   0.521   4.956  0.5371 -0.0164 -0.0348
 2335Sol     OW12659   1.904   3.438   7.565  0.1286 -0.0274 -0.0795
 2335Sol     HW12660   1.962   3.375   7.522  0.6319  1.5015 -1.7466
 2335Sol     HW12661   1.836   3.456   7.500 -0.9275 -0.0824  0.9950
 2335Sol     MW12662   1.903   3.434   7.555  0.1213  0.2097  0.0956
 2336Sol     OW12663   0.446   3.102   6.285 -0.0050  0.0801  0.2117
 2336Sol     HW12664   0.457   3.197   6.293  1.0160  0.0380 -0.5401
 2336Sol     HW12665   0.535   3.067   6.289 -0.4994 -1.0117  2.2155
 2336Sol     MW12666   0.455   3.108   6.286 -0.2991 -0.8613  0.5932
 2337Sol     OW12667   3.103   0.542   3.220 -0.4930 -0.3091  0.1319
 2337Sol     HW12668   3.069   0.464   3.176 -0.9010 -0.6770  1.0836
 2337Sol     HW12669   3.096   0.522   3.314  1.9639 -0.2605  0.3756
 2337Sol     MW12670   3.100   0.533   3.225 -0.6893  0.1579 -0.3313
 2338Sol     OW12671   2.238   3.223   4.539 -0.7169 -0.0796 -0.1827
 2338Sol     HW12672   2.162   3.172   4.511 -0.2034  0.1833 -2.1336
 2338Sol     HW12673   2.309   3.159   4.543 -0.4240  0.1860 -1.0872
 2338Sol     MW12674   2.237   3.213   4.537 -0.2748  0.5070  0.2412
 2339Sol     OW12675   1.984   1.712   6.482  0.0175  0.3066  0.2084
 2339Sol     HW12676   2.017   1.724   6.571  0.8517 -1.5640  0.1653
 2339Sol     HW12677   1.977   1.617   6.472  1.3602  0.4363 -2.2250
 2339Sol     MW12678   1.987   1.705   6.489  0.2924  0.8770  0.6333
 2340Sol     OW12679   2.349   2.451   3.268 -0.5739 -0.0410  0.5483
 2340Sol     HW12680   2.355   2.429   3.361 -0.4417 -0.1168  0.5225
 2340Sol     HW12681   2.257   2.475   3.254 -0.1670  2.0352  1.1632
 2340Sol     MW12682   2.342   2.452   3.275  0.8573 -0.1188 -0.1983
 2341Sol     OW12683   3.032   0.133   4.348 -0.6308 -0.3431  0.6871
 2341Sol     HW12684   3.017   0.107   4.439 -0.9308 -0.0396  0.7257
 2341Sol     HW12685   2.944   0.147   4.313 -0.5165 -0.5225  0.3325
 2341Sol     MW12686   3.023   0.132   4.353 -0.6623 -0.2203  0.4637
 2342Sol     OW12687   1.597   0.599   8.559  0.0167  0.1229 -0.2243
 2342Sol     HW12688   1.637   0.686   8.549  0.7751 -0.0893  0.8743
 2342Sol     HW12689   1.663   0.539   8.524 -0.8391  0.0422 -1.7216
 2342Sol     MW12690   1.607   0.602   8.555 -0.6088  0.7444  0.1989
 2343Sol     OW12691   2.074   3.467   6.177 -0.9945 -0.1527  0.0095
 2343Sol     HW12692   2.121   3.384   6.164  1.7336  1.4813 -1.1303
 2343Sol     HW12693   2.001   3.463   6.115 -0.6018 -1.5106 -0.3871
 2343Sol     MW12694   2.072   3.459   6.170  0.3521 -0.1679  0.3194
 2344Sol     OW12695   2.283   1.657   4.841  0.0678  0.2074  0.1233
 2344Sol     HW12696   2.297   1.657   4.747  2.4078  0.2277  0.4381
 2344Sol     HW12697   2.363   1.618   4.877  0.3747  2.6761  2.2343
 2344Sol     MW12698   2.292   1.653   4.836  0.0599  0.1911 -0.1736
 2345Sol     OW12699   2.388   2.282   4.178 -0.0616  0.0013 -0.3660
 2345Sol     HW12700   2.372   2.342   4.105 -0.7407 -0.0796 -0.2875
 2345Sol     HW12701   2.472   2.242   4.158  0.7054  1.4298 -0.1207
 2345Sol     MW12702   2.394   2.284   4.170  0.0366  0.6937  0.6412
 2346Sol     OW12703   0.858   1.329   8.945  0.2107 -0.3062 -0.3650
 2346Sol     HW12704   0.859   1.275   8.866  0.2363 -0.0483 -0.5399
 2346Sol     HW12705   0.780   1.384   8.936  1.4027  1.2589 -1.2402
 2346Sol     MW12706   0.851   1.329   8.937 -0.0550  0.1610 -0.3207
 2347Sol     OW12707   3.168   2.741   2.717 -0.2802  0.1737 -0.2052
 2347Sol     HW12708   3.213   2.672   2.767 -0.4705  1.4112  1.7271
 2347Sol     HW12709   3.083   2.702   2.694 -0.3079 -0.3304  0.7107
 2347Sol     MW12710   3.164   2.731   2.719  0.2091  0.3756 -0.8913
 2348Sol     OW12711   1.067   0.466   8.181  0.0425 -0.3524 -0.4708
 2348Sol     HW12712   1.078   0.375   8.206 -2.1669 -0.4236  0.3453
 2348Sol     HW12713   1.146   0.487   8.132  0.9571 -2.4500  0.0491
 2348Sol     MW12714   1.075   0.460   8.179 -0.4255  0.1158  0.7311
 2349Sol     OW12715   0.420   0.285   2.616 -0.3993  0.1083 -0.4018
 2349Sol     HW12716   0.386   0.275   2.527 -1.6228 -0.0124  0.0802
 2349Sol     HW12717   0.366   0.227   2.670  1.1490 -0.7920  0.2337
 2349Sol     MW12718   0.412   0.279   2.613  0.0566 -0.3538 -0.2521
 2350Sol     OW12719   2.160   1.713   2.447 -0.2010 -0.3307 -0.0014
 2350Sol     HW12720   2.143   1.807   2.449  2.4700  0.2286 -1.2144
 2350Sol     HW12721   2.083   1.676   2.406 -0.5577  1.5431 -1.0993
 2350Sol     MW12722   2.152   1.718   2.444 -0.4709  0.1850 -0.1548
 2351Sol     OW12723   0.525   2.688   8.771  0.3798  0.4686  0.5995
 2351Sol     HW12724   0.447   2.741   8.752  2.0577  2.9739  0.4390
 2351Sol     HW12725   0.539   2.700   8.865 -0.8053 -1.9551  1.1095
 2351Sol     MW12726   0.519   2.694   8.778 -0.6637 -0.1951  0.3934
 2352Sol     OW12727   1.718   0.558   6.462  0.2768 -0.0763 -0.0609
 2352Sol     HW12728   1.631   0.517   6.461 -0.5258  1.5794 -1.5032
 2352Sol     HW12729   1.774   0.498   6.412  0.0162 -1.1919  0.9424
 2352Sol     MW12730   1.715   0.549   6.458 -0.6122  0.6187 -0.5003
 2353Sol     OW12731   1.497   0.921   6.460 -0.0909  0.6811  0.3668
 2353Sol     HW12732   1.523   0.989   6.522  1.7913  0.1209  0.2338
 2353Sol     HW12733   1.580   0.891   6.421 -1.0268 -0.6162 -0.6831
 2353Sol     MW12734   1.507   0.924   6.462  0.4962  0.0717 -0.5364
 2354Sol     OW12735   2.483   0.200   6.635  0.1195 -0.2782 -0.1899
 2354Sol     HW12736   2.445   0.267   6.579  0.8756  0.3792  0.0765
 2354Sol     HW12737   2.495   0.243   6.720  1.2904 -0.5156 -0.2233
 2354Sol     MW12738   2.481   0.210   6.638 -0.5259 -0.0453  0.8456
 2355Sol     OW12739   1.421   2.402   2.380  0.0306 -0.0039 -0.3466
 2355Sol     HW12740   1.337   2.435   2.348  0.6286  3.6640  1.5311
 2355Sol     HW12741   1.485   2.438   2.318  0.6376  2.0017  1.3739
 2355Sol     MW12742   1.419   2.409   2.372  0.7592 -0.4432  0.1183
 2356Sol     OW12743   2.892   0.749   8.888  0.6675 -0.7476 -0.8472
 2356Sol     HW12744   2.801   0.775   8.871  0.6729 -0.6303 -0.7039
 2356Sol     HW12745   2.945   0.809   8.836  0.7603  0.9918  1.1738
 2356Sol     MW12746   2.888   0.757   8.882  0.0946 -0.3762  0.5785
 2357Sol     OW12747   0.065   1.945   9.314  0.3574  0.0392 -0.1203
 2357Sol     HW12748  -0.001   2.008   9.343 -0.0315 -0.9407  1.1693
 2357Sol     HW12749   0.081   1.891   9.391  1.9510 -0.3532 -0.7187
 2357Sol     MW12750   0.060   1.946   9.323  0.9593  0.0279 -0.1851
 2358Sol     OW12751   0.521   3.059   7.198  1.1739 -0.0177 -0.1411
 2358Sol     HW12752   0.584   3.103   7.255  1.8617 -1.6489  0.3980
 2358Sol     HW12753   0.551   3.077   7.109  0.9266  1.3324  0.0443
 2358Sol     MW12754   0.529   3.064   7.195  0.4609  0.6492 -0.2087
 2359Sol     OW12755   0.416   3.026   8.058 -0.0075  0.1042 -0.1959
 2359Sol     HW12756   0.387   2.997   8.144 -0.0910 -0.1257 -0.3021
 2359Sol     HW12757   0.511   3.014   8.059  0.0856  0.8291  0.1395
 2359Sol     MW12758   0.422   3.022   8.065  0.2947 -0.1249 -0.3544
 2360Sol     OW12759   0.803   2.591   3.603  0.2482 -0.2049 -0.6604
 2360Sol     HW12760   0.804   2.524   3.534 -2.9352  0.2319 -1.2301
 2360Sol     HW12761   0.736   2.653   3.574 -0.4292  0.5296  2.3244
 2360Sol     MW12762   0.797   2.590   3.594 -0.3178  0.2146 -0.0291
 2361Sol     OW12763   2.585   3.345   2.221 -1.1415  0.1488 -0.0553
 2361Sol     HW12764   2.542   3.407   2.280 -0.8208  1.3077 -1.0191
 2361Sol     HW12765   2.678   3.370   2.224 -0.7748 -1.2582  0.7176
 2361Sol     MW12766   2.590   3.353   2.227 -0.7941 -1.0831 -0.4433
 2362Sol     OW12767   0.721   0.229   7.946 -0.3894 -0.6880 -0.5569
 2362Sol     HW12768   0.795   0.169   7.934  0.4958  0.6360 -2.0994
 2362Sol     HW12769   0.733   0.294   7.876  0.0347  2.6377  2.4505
 2362Sol     MW12770   0.729   0.229   7.938  0.1313  0.1133 -0.6565
 2363Sol     OW12771   3.253   0.129   4.826  0.2099 -0.6890  0.7531
 2363Sol     HW12772   3.207   0.048   4.805  1.7734 -1.3702 -0.0974
 2363Sol     HW12773   3.267   0.124   4.921 -1.4397 -0.4720  1.0224
 2363Sol     MW12774   3.250   0.121   4.833 -0.1441  0.1321 -0.4255
 2364Sol     OW12775   2.570   3.010   5.058  0.1307 -0.0386  0.0143
 2364Sol     HW12776   2.478   3.009   5.083  0.1174 -1.8095 -0.0599
 2364Sol     HW12777   2.618   3.003   5.141  0.1672 -0.5980 -0.0505
 2364Sol     MW12778   2.566   3.009   5.067 -0.3707 -0.5515 -0.5534
 2365Sol     OW12779   2.846   2.781   3.567  0.3277  0.6217 -0.0853
 2365Sol     HW12780   2.860   2.818   3.654  0.1814  0.1012  0.1622
 2365Sol     HW12781   2.765   2.729   3.575  0.1125  0.8616 -0.6227
 2365Sol     MW12782   2.840   2.779   3.575 -0.0426  0.1216  0.3980
 2366Sol     OW12783   3.233   2.109   5.194  0.0756  0.4857 -0.0090
 2366Sol     HW12784   3.169   2.039   5.181 -0.3407  0.7690  0.5023
 2366Sol     HW12785   3.309   2.081   5.143 -1.1352  1.0773 -2.1709
 2366Sol     MW12786   3.234   2.100   5.188  0.2758  0.2315  0.4315
 2367Sol     OW12787   2.479   3.135   2.436  0.1649 -0.2423 -0.0802
 2367Sol     HW12788   2.469   3.040   2.428  0.8620 -0.4315  1.0484
 2367Sol     HW12789   2.525   3.162   2.357  0.0608 -0.8588 -0.3518
 2367Sol     MW12790   2.482   3.129   2.429 -0.5979 -0.5455  0.6302
 2368Sol     OW12791   2.770   0.808   6.382  0.0141 -0.0398  0.1837
 2368Sol     HW12792   2.694   0.759   6.351  1.2226 -1.3094 -0.8770
 2368Sol     HW12793   2.784   0.775   6.471 -0.7996  0.3654  0.4674
 2368Sol     MW12794   2.765   0.800   6.388 -0.0047  0.3221  0.3128
 2369Sol     OW12795   1.763   1.765   1.983 -0.1232  0.1062 -0.6868
 2369Sol     HW12796   1.841   1.820   1.977 -1.0489  1.4913 -0.1625
 2369Sol     HW12797   1.796   1.675   1.980  1.5351  0.6817  0.1244
 2369Sol     MW12798   1.773   1.761   1.982  0.8850  0.7339  0.0997
 2370Sol     OW12799   0.002   0.226   4.462  0.1203 -0.4660 -0.2164
 2370Sol     HW12800   0.065   0.298   4.455  0.4945 -0.5222  2.0352
 2370Sol     HW12801  -0.074   0.265   4.507 -0.0244 -1.2569  0.2295
 2370Sol     MW12802   0.001   0.236   4.465 -0.0035  0.1538  0.4276
 2371Sol     OW12803   0.436   0.535   4.144 -0.0022  0.0560 -0.3649
 2371Sol     HW12804   0.357   0.488   4.118  0.5198 -0.6717 -0.6558
 2371Sol     HW12805   0.416   0.627   4.126 -0.9266 -0.0793 -0.0534
 2371Sol     MW12806   0.427   0.539   4.140 -0.8592 -0.8676 -0.0368
 2372Sol     OW12807   1.404   0.103   4.275 -0.0297  0.0250  0.9193
 2372Sol     HW12808   1.323   0.146   4.247 -0.3241  0.8850  3.0014
 2372Sol     HW12809   1.390   0.010   4.258 -0.3278  0.4594 -1.3772
 2372Sol     MW12810   1.396   0.099   4.271  0.8780 -0.5291 -0.3926
 2373Sol     OW12811   0.457   0.931   2.972  0.4135  0.2564  0.1108
 2373Sol     HW12812   0.388   0.878   3.011  1.8382 -0.8181  1.2067
 2373Sol     HW12813   0.529   0.870   2.956  1.8450  1.7167  0.7958
 2373Sol     MW12814   0.458   0.921   2.974 -0.0419 -0.0576 -0.4799
 2374Sol     OW12815   0.713   3.414   5.141 -0.5870  0.5665  0.1554
 2374Sol     HW12816   0.655   3.342   5.118  0.5448  0.3157 -2.1001
 2374Sol     HW12817   0.663   3.468   5.201 -2.3058 -0.8526  0.0197
 2374Sol     MW12818   0.704   3.412   5.144 -0.1296  0.3906  0.0679
 2375Sol     OW12819   0.720   0.911   6.537  0.2660  0.3400  0.0184
 2375Sol     HW12820   0.676   0.928   6.620  0.5695  2.4463 -0.2376
 2375Sol     HW12821   0.813   0.921   6.557  0.2030  3.7614 -1.2022
 2375Sol     MW12822   0.724   0.913   6.547  0.0381 -0.3430  0.4658
 2376Sol     OW12823   2.153   1.966   5.636 -0.0920 -0.2292 -0.0639
 2376Sol     HW12824   2.090   1.944   5.568  2.0242 -2.1738 -1.4426
 2376Sol     HW12825   2.214   2.027   5.594 -0.1974  0.5184  0.8354
 2376Sol     MW12826   2.153   1.970   5.626 -0.3057  1.0017 -0.1658
 2377Sol     OW12827   3.184   0.557   6.021  0.5071  0.2643  0.2827
 2377Sol     HW12828   3.261   0.505   5.998 -0.8630 -1.7582  0.1085
 2377Sol     HW12829   3.220   0.639   6.055  2.6880  0.1773 -1.6735
 2377Sol     MW12830   3.194   0.559   6.022  0.4500  0.1003 -0.2702
 2378Sol     OW12831   2.555   1.434   6.931  0.0764 -0.0219 -0.0529
 2378Sol     HW12832   2.582   1.526   6.927  1.4218 -0.4386 -0.9634
 2378Sol     HW12833   2.636   1.386   6.950 -0.7741 -0.9466  1.3029
 2378Sol     MW12834   2.565   1.438   6.932  0.9196  0.1739  0.5092
 2379Sol     OW12835   0.636   2.259   3.143 -0.8234 -0.6458  0.3939
 2379Sol     HW12836   0.640   2.226   3.233 -1.3873  0.5801  0.8732
 2379Sol     HW12837   0.727   2.262   3.115 -0.3281  2.0161  2.0581
 2379Sol     MW12838   0.644   2.256   3.149 -0.6171 -0.4366  0.1909
 2380Sol     OW12839   1.593   2.054   3.831  0.2170  0.6898  0.1895
 2380Sol     HW12840   1.662   2.054   3.898 -0.0340  1.5701  0.4519
 2380Sol     HW12841   1.550   1.969   3.841  0.1753  0.8224  1.1631
 2380Sol     MW12842   1.595   2.046   3.838  0.6713 -0.1295  0.6028
 2381Sol     OW12843   2.853   3.090   5.851 -0.5026  0.4534  0.0432
 2381Sol     HW12844   2.779   3.096   5.791 -0.1713  0.8152 -0.3425
 2381Sol     HW12845   2.891   3.003   5.833  1.7867  1.9526 -2.9497
 2381Sol     MW12846   2.850   3.082   5.844  0.3572 -0.6388 -0.5995
 2382Sol     OW12847   3.113   1.941   6.196  0.7657 -0.6609  0.6902
 2382Sol     HW12848   3.171   2.006   6.155  0.9091 -0.7066  0.8234
 2382Sol     HW12849   3.034   1.944   6.142  0.2632  0.5782  1.4757
 2382Sol     MW12850   3.111   1.947   6.187  0.2706 -0.1730  0.0465
 2383Sol     OW12851   0.327   0.958   9.193 -0.1074 -0.0817 -0.0084
 2383Sol     HW12852   0.405   0.928   9.146 -0.7010 -0.4977 -0.7138
 2383Sol     HW12853   0.326   0.906   9.273  0.2075 -0.2473 -0.1110
 2383Sol     MW12854   0.334   0.951   9.196  0.2952  0.2334 -0.2294
 2384Sol     OW12855   3.260   2.291   2.899  0.1363 -0.3906  0.0862
 2384Sol     HW12856   3.342   2.250   2.872 -0.2115 -0.8960 -0.2104
 2384Sol     HW12857   3.235   2.245   2.979 -0.8501 -1.5614 -0.8741
 2384Sol     MW12858   3.265   2.283   2.903  0.2898 -0.3267 -0.5953
 2385Sol     OW12859   2.981   1.699   4.770  0.5668  0.4282  0.4368
 2385Sol     HW12860   2.891   1.705   4.739  1.0167 -0.2733 -1.0213
 2385Sol     HW12861   3.027   1.770   4.726  1.1962 -0.5381 -0.4690
 2385Sol     MW12862   2.977   1.706   4.764 -0.3945 -0.4555 -0.4627
 2386Sol     OW12863   0.329   0.727   5.486  0.2150 -0.1226 -0.4373
 2386Sol     HW12864   0.311   0.645   5.439  0.5821 -1.1353  1.1664
 2386Sol     HW12865   0.242   0.765   5.500  0.1256  0.4442 -2.3520
 2386Sol     MW12866   0.319   0.723   5.483  0.5171 -0.3003  0.0661
 2387Sol     OW12867   0.031   2.833   3.318 -0.1387  0.0625 -0.0307
 2387Sol     HW12868   0.101   2.769   3.329  0.6206  1.0915  1.3494
 2387Sol     HW12869  -0.047   2.781   3.300  0.8725 -1.1237 -1.1207
 2387Sol     MW12870   0.030   2.823   3.317 -0.0318 -0.2196  0.2469
 2388Sol     OW12871   2.702   1.685   4.125 -0.1506 -0.2596 -0.4857
 2388Sol     HW12872   2.777   1.715   4.177  1.3055 -0.7532 -2.2649
 2388Sol     HW12873   2.627   1.732   4.162  1.1398  0.8011  0.8400
 2388Sol     MW12874   2.702   1.692   4.133  0.5366  0.1366  0.6505
 2389Sol     OW12875   0.238   3.249   3.145 -0.3650 -0.1173 -0.9285
 2389Sol     HW12876   0.309   3.247   3.209 -2.0078  1.9572  1.0638
 2389Sol     HW12877   0.196   3.163   3.154 -0.4405  0.0622  0.6821
 2389Sol     MW12878   0.240   3.241   3.152  0.0102  0.5435  0.0431
 2390Sol     OW12879   2.711   0.785   3.276  0.5099  0.0322  0.4809
 2390Sol     HW12880   2.701   0.691   3.256  0.4543 -0.0450  0.8735
 2390Sol     HW12881   2.621   0.816   3.287  0.5736 -0.0670  1.2707
 2390Sol     MW12882   2.702   0.779   3.275  0.0344  0.3821 -0.5442
 2391Sol     OW12883   0.393   2.764   2.073  0.1033  0.0594 -0.2542
 2391Sol     HW12884   0.308   2.802   2.095  0.5348  0.6952  0.3479
 2391Sol     HW12885   0.455   2.835   2.086  1.1531 -1.3094  2.6899
 2391Sol     MW12886   0.391   2.774   2.076 -0.2333  0.1409 -0.8302
 2392Sol     OW12887   0.511   1.240   4.814  0.0440 -0.4382 -0.1532
 2392Sol     HW12888   0.590   1.274   4.770  0.0208  0.2356  0.3071
 2392Sol     HW12889   0.464   1.319   4.841 -2.3851 -0.7530 -3.1844
 2392Sol     MW12890   0.514   1.250   4.812 -0.0077  0.0861  0.1760
 2393Sol     OW12891   1.435   3.138   6.539  0.4316 -0.3096  0.0909
 2393Sol     HW12892   1.388   3.069   6.583 -3.1287  2.6079  1.0829
 2393Sol     HW12893   1.459   3.101   6.454 -2.3416 -2.4046  0.1726
 2393Sol     MW12894   1.433   3.129   6.535  0.3972  0.0749 -0.0310
 2394Sol     OW12895   1.294   2.227   7.734 -0.3130 -0.3216  0.5740
 2394Sol     HW12896   1.253   2.167   7.672  0.9357 -0.8589  0.2412
 2394Sol     HW12897   1.359   2.274   7.682 -1.4618  1.5335  0.7785
 2394Sol     MW12898   1.296   2.225   7.724  0.4756 -0.2158  0.3626
 2395Sol     OW12899   1.140   1.582   7.066  0.2540  0.0490  0.1597
 2395Sol     HW12900   1.104   1.670   7.068  2.6701  1.0815  0.7130
 2395Sol     HW12901   1.213   1.587   7.004  1.7824 -0.9549  1.7938
 2395Sol     MW12902   1.144   1.590   7.061 -0.0669  0.3567  0.6904
 2396Sol     OW12903   2.406   3.152   4.050 -0.2783  0.2563  0.0185
 2396Sol     HW12904   2.464   3.109   4.113  0.6775  1.0771 -0.2972
 2396Sol     HW12905   2.456   3.226   4.017 -2.6791  2.9833  2.2288
 2396Sol     MW12906   2.415   3.155   4.053  0.2319  1.0703  0.3210
 2397Sol     OW12907   3.305   1.822   4.574 -0.2128  0.3681  0.0671
 2397Sol     HW12908   3.317   1.749   4.634  1.8347  0.8621  0.3137
 2397Sol     HW12909   3.371   1.886   4.602  0.3675  0.8508 -2.3021
 2397Sol     MW12910   3.312   1.821   4.582  0.2219  0.0521 -0.1840
 2398Sol     OW12911   0.672   1.005   5.568 -0.4341 -0.0377  0.0604
 2398Sol     HW12912   0.634   0.924   5.603  0.7738 -1.1619 -1.2233
 2398Sol     HW12913   0.671   1.065   5.643 -0.1974 -1.6243  1.3676
 2398Sol     MW12914   0.669   1.003   5.578 -0.4666 -0.2310 -0.6461
 2399Sol     OW12915   1.067   2.940   2.334  0.0833 -0.4444  0.5905
 2399Sol     HW12916   1.055   3.024   2.378  1.1920  0.1684 -0.2548
 2399Sol     HW12917   1.161   2.935   2.315 -0.0399 -1.6674  0.2253
 2399Sol     MW12918   1.074   2.947   2.336  0.3859  0.3563 -0.9585
 2400Sol     OW12919   0.190   0.520   2.954 -0.1883  0.4961  0.1488
 2400Sol     HW12920   0.199   0.515   2.859  0.0514 -0.9787  0.2398
 2400Sol     HW12921   0.096   0.531   2.968 -0.4532 -1.1468 -0.2112
 2400Sol     MW12922   0.182   0.520   2.947  0.4021 -0.2174  0.8214
 2401Sol     OW12923   0.587   0.475   8.593 -0.4163  0.2167 -0.5476
 2401Sol     HW12924   0.515   0.425   8.632 -0.5381 -0.6063 -1.8350
 2401Sol     HW12925   0.661   0.415   8.594 -0.2077  0.4694 -0.8541
 2401Sol     MW12926   0.587   0.465   8.597  0.2685 -0.0631 -0.0431
 2402Sol     OW12927   1.369   0.654   2.517 -0.2721 -0.3211  0.1352
 2402Sol     HW12928   1.361   0.646   2.612 -1.6865 -0.5114  0.0093
 2402Sol     HW12929   1.281   0.639   2.484 -0.1858  1.7495 -1.0879
 2402Sol     MW12930   1.361   0.652   2.522  0.2120  0.0196  0.1345
 2403Sol     OW12931   0.399   2.947   2.373  0.2953 -0.3431 -0.3800
 2403Sol     HW12932   0.306   2.964   2.357  0.7078  0.9483 -1.4033
 2403Sol     HW12933   0.441   3.033   2.369  1.6233 -0.9816 -0.4784
 2403Sol     MW12934   0.394   2.956   2.372  0.1104  0.5005 -0.1521
 2404Sol     OW12935   2.175   1.863   5.230  0.6165 -0.6612 -0.1704
 2404Sol     HW12936   2.152   1.801   5.161  1.4459 -1.3979  0.2058
 2404Sol     HW12937   2.101   1.924   5.233  0.5705 -0.6219 -1.7021
 2404Sol     MW12938   2.166   1.863   5.224  0.8659  0.5766  0.3678
 2405Sol     OW12939   2.562   1.201   1.885 -0.3346 -0.0578  0.8802
 2405Sol     HW12940   2.475   1.221   1.853 -0.5747 -0.0544  1.5297
 2405Sol     HW12941   2.605   1.158   1.811 -0.4091  1.1998  0.0873
 2405Sol     MW12942   2.558   1.199   1.876 -0.2394  0.1724 -0.7839
 2406Sol     OW12943   0.100   0.109   7.354  0.3703 -0.1948  0.1556
 2406Sol     HW12944   0.080   0.193   7.312  1.4447 -0.5893 -1.1939
 2406Sol     HW12945   0.082   0.044   7.287 -0.5281 -1.0567  1.2237
 2406Sol     MW12946   0.097   0.111   7.344 -0.2250  0.1034  0.3488
 2407Sol     OW12947   0.305   0.613   8.862 -0.5704 -0.0440  0.5688
 2407Sol     HW12948   0.256   0.689   8.892  0.0816  0.2570  0.8852
 2407Sol     HW12949   0.389   0.648   8.832 -0.1610 -0.6691  0.9619
 2407Sol     MW12950   0.308   0.623   8.862  0.2739  0.2946 -0.3303
 2408Sol     OW12951   1.155   1.993   9.379  0.2613  0.2811  0.1172
 2408Sol     HW12952   1.162   1.919   9.319  1.7829  0.5370 -0.0392
 2408Sol     HW12953   1.216   1.971   9.450 -0.1597  0.8358  0.6450
 2408Sol     MW12954   1.161   1.984   9.380  0.3539  0.4223  0.3190
 2409Sol     OW12955   2.044   0.953   3.524  0.7221 -0.8927 -0.0328
 2409Sol     HW12956   2.054   0.858   3.534  2.5059 -0.5841  1.4304
 2409Sol     HW12957   2.130   0.982   3.492 -0.2341  0.0748 -1.7601
 2409Sol     MW12958   2.053   0.947   3.522  0.1838  0.1080 -0.7825
 2410Sol     OW12959   2.089   1.484   3.685  0.4160 -0.3269 -0.0829
 2410Sol     HW12960   2.133   1.403   3.709  0.8854  0.0925  0.5016
 2410Sol     HW12961   2.022   1.496   3.752  1.2019  0.4282  0.5936
 2410Sol     MW12962   2.087   1.478   3.693  0.2383 -0.1694  0.8087
 2411Sol     OW12963   0.049   1.539   8.580  0.1063 -0.4964  0.2549
 2411Sol     HW12964   0.115   1.579   8.636  0.2335 -0.6768  0.2327
 2411Sol     HW12965  -0.013   1.498   8.640 -0.5376  0.5343  0.3143
 2411Sol     MW12966   0.049   1.539   8.590  0.0331  0.0562  0.2078
 2412Sol     OW12967   2.696   0.027   6.085 -0.2333  0.0074  0.1948
 2412Sol     HW12968   2.640   0.060   6.014 -1.2869  0.8676  1.4005
 2412Sol     HW12969   2.720   0.104   6.135  0.7072 -0.5672  0.6545
 2412Sol     MW12970   2.693   0.036   6.083 -0.3359  0.1350  0.0113
 2413Sol     OW12971   2.450   2.149   9.569  0.0054 -0.2246  0.2302
 2413Sol     HW12972   2.501   2.197   9.504  0.9519  0.6314  1.6033
 2413Sol     HW12973   2.487   2.174   9.653 -2.2808 -0.0353  1.2297
 2413Sol     MW12974   2.458   2.155   9.571 -0.0965 -0.2048 -0.2356
 2414Sol     OW12975   0.894   0.956   6.258  0.0237 -0.2146  0.5019
 2414Sol     HW12976   0.839   0.891   6.303 -0.2373  0.5778  1.3567
 2414Sol     HW12977   0.850   0.971   6.174 -0.9038  0.1774  1.0482
 2414Sol     MW12978   0.885   0.951   6.255  0.1693  0.0892  0.5684
 2415Sol     OW12979   3.279   0.305   3.071  0.2925 -0.0691  0.2319
 2415Sol     HW12980   3.306   0.396   3.065 -1.1109  0.3688  0.4749
 2415Sol     HW12981   3.346   0.264   3.125  0.7924  0.8728  0.3311
 2415Sol     MW12982   3.287   0.309   3.075 -0.1657  1.1727 -0.3027
 2416Sol     OW12983   0.341   1.104   3.235  0.2160 -0.1209  0.2175
 2416Sol     HW12984   0.364   1.062   3.153  1.3206  0.7065  0.0912
 2416Sol     HW12985   0.326   1.032   3.297 -0.2014 -0.7294 -0.5926
 2416Sol     MW12986   0.342   1.094   3.234  0.4405 -0.3542  0.3642
 2417Sol     OW12987   1.112   1.865   3.619 -0.0180  0.3136 -0.1835
 2417Sol     HW12988   1.151   1.937   3.668  0.0044 -0.4456  0.9413
 2417Sol     HW12989   1.026   1.852   3.659 -0.7065  0.7978 -1.4718
 2417Sol     MW12990   1.107   1.870   3.627 -0.3417 -0.1955 -0.2366
 2418Sol     OW12991   1.010   1.165   2.287 -0.8164 -0.3763  0.4593
 2418Sol     HW12992   1.089   1.176   2.340 -1.4596 -1.0843  1.5848
 2418Sol     HW12993   1.040   1.121   2.208  0.0982  0.3930  0.3702
 2418Sol     MW12994   1.020   1.162   2.285 -0.1347 -0.0903  0.0148
 2419Sol     OW12995   1.020   0.745   2.444 -0.0059  0.1543 -0.1866
 2419Sol     HW12996   0.958   0.817   2.434 -0.2762  0.1489  1.2848
 2419Sol     HW12997   1.001   0.686   2.371 -2.7500 -0.5733  1.0702
 2419Sol     MW12998   1.013   0.746   2.436 -0.2308 -0.1302  0.8277
 2420Sol     OW12999   2.995   1.547   3.976  0.0350 -0.2845 -0.2476
 2420Sol     HW13000   2.925   1.495   4.017  0.7154 -1.4154 -0.4796
 2420Sol     HW13001   3.075   1.501   4.001  0.7858  1.6028  0.9016
 2420Sol     MW13002   2.996   1.538   3.982 -0.3891 -0.1114  0.8346
 2421Sol     OW13003   2.936   0.947   5.426  0.0879 -0.2263  0.0377
 2421Sol     HW13004   2.849   0.985   5.413 -0.8236 -1.9847  0.7435
 2421Sol     HW13005   2.928   0.895   5.506  1.6321 -0.8636 -0.1970
 2421Sol     MW13006   2.927   0.946   5.432  0.2767  0.7450  0.0924
 2422Sol     OW13007   3.165   2.099   3.120  0.1478  0.4154 -0.0492
 2422Sol     HW13008   3.185   2.136   3.206 -0.3770 -0.6369  0.5297
 2422Sol     HW13009   3.192   2.008   3.127 -0.9579  0.0446 -0.6415
 2422Sol     MW13010   3.169   2.094   3.128 -0.1400 -0.2837  0.5529
 2423Sol     OW13011   0.781   2.658   2.196 -0.1297  0.4899 -0.9086
 2423Sol     HW13012   0.763   2.666   2.290  1.0801 -0.5352 -0.5806
 2423Sol     HW13013   0.695   2.662   2.155 -0.8948 -1.5562  0.4356
 2423Sol     MW13014   0.772   2.659   2.201  0.4012  0.1770  0.3626
 2424Sol     OW13015   1.951   0.144   8.728  0.1481  0.1616  0.1306
 2424Sol     HW13016   1.926   0.236   8.723  0.7304  0.3794  1.0930
 2424Sol     HW13017   1.917   0.115   8.813  1.0525 -0.1757  0.3796
 2424Sol     MW13018   1.946   0.150   8.735  0.5355  0.3503 -0.3609
 2425Sol     OW13019   0.033   3.344   7.209 -0.0937  0.2201 -0.0729
 2425Sol     HW13020  -0.023   3.318   7.136 -0.5068 -1.3215  0.7581
 2425Sol     HW13021   0.112   3.291   7.199  0.4371  1.0356 -0.1974
 2425Sol     MW13022   0.035   3.337   7.202  0.5302  0.2279 -0.8455
 2426Sol     OW13023   0.411   1.472   7.199 -0.1669 -0.2622 -0.3240
 2426Sol     HW13024   0.475   1.462   7.128  0.3563  0.6468  0.0072
 2426Sol     HW13025   0.379   1.384   7.216  0.7569 -0.6763 -0.7203
 2426Sol     MW13026   0.414   1.463   7.194  0.3661  0.1035 -0.6250
 2427Sol     OW13027   2.826   2.422   6.241 -0.1514  0.1142  0.5621
 2427Sol     HW13028   2.737   2.438   6.272  0.6399 -0.6262  3.3413
 2427Sol     HW13029   2.863   2.360   6.304  1.7078 -1.1012 -1.6367
 2427Sol     MW13030   2.821   2.417   6.250  1.2299 -0.4875 -0.2772
 2428Sol     OW13031   0.679   0.556   5.487 -0.2262  0.0412 -0.3169
 2428Sol     HW13032   0.743   0.566   5.417  1.0735 -0.9584  0.7042
 2428Sol     HW13033   0.723   0.503   5.553 -2.4117 -1.4402  0.0194
 2428Sol     MW13034   0.688   0.552   5.487  0.9594  0.6502 -0.5317
 2429Sol     OW13035   1.812   2.809   4.094 -0.5669  0.2852  0.0237
 2429Sol     HW13036   1.756   2.849   4.160  0.3105  0.2992  0.7700
 2429Sol     HW13037   1.895   2.792   4.140 -0.0576  0.0082 -0.9849
 2429Sol     MW13038   1.815   2.811   4.104  0.5946  0.0742  0.1279
 2430Sol     OW13039   3.290   0.037   9.181  0.2716  0.6591  0.1276
 2430Sol     HW13040   3.289   0.088   9.262 -2.8887 -1.3556  1.4543
 2430Sol     HW13041   3.337  -0.043   9.204 -2.0292 -0.6290  0.5121
 2430Sol     MW13042   3.295   0.034   9.191 -0.1938  0.2925 -0.5292
 2431Sol     OW13043   2.982   0.552   8.708  0.2371 -0.6915  0.0735
 2431Sol     HW13044   2.955   0.632   8.754  0.3752 -1.3313  1.2919
 2431Sol     HW13045   3.026   0.584   8.629  0.0489  0.4354  0.4092
 2431Sol     MW13046   2.983   0.562   8.705 -0.1539 -0.8365 -0.0349
 2432Sol     OW13047   2.888   0.120   9.234 -0.2157 -0.1134  0.2105
 2432Sol     HW13048   2.890   0.180   9.309  1.5394 -0.2305  0.2673
 2432Sol     HW13049   2.813   0.149   9.182 -1.1053  0.3188  1.7237
 2432Sol     MW13050   2.881   0.128   9.236 -0.4929 -0.5281  0.0568
 2433Sol     OW13051   3.052   2.350   2.239  0.2646  0.2408  0.2138
 2433Sol     HW13052   2.990   2.381   2.174 -0.0849  0.8551  0.8377
 2433Sol     HW13053   3.131   2.327   2.189 -0.5433 -0.7928 -0.6159
 2433Sol     MW13054   3.054   2.350   2.229  0.2543  0.9818  0.9672
 2434Sol     OW13055   0.865   3.402   2.393  0.2405 -0.4044  0.1135
 2434Sol     HW13056   0.794   3.464   2.374  0.4037 -0.8673 -2.1669
 2434Sol     HW13057   0.840   3.361   2.476 -1.8505 -0.1151 -0.3429
 2434Sol     MW13058   0.856   3.404   2.398 -0.2406  0.5087  0.1287
 2435Sol     OW13059   2.945   3.468   9.625  0.3177 -0.0201 -0.5860
 2435Sol     HW13060   2.885   3.394   9.613  0.4624 -0.0658 -1.0357
 2435Sol     HW13061   3.032   3.430   9.612  0.3560  0.3648 -1.4977
 2435Sol     MW13062   2.948   3.458   9.623 -0.5148 -0.4706  0.3764
 2436Sol     OW13063   0.621   2.306   7.213  0.3345 -0.0756 -0.4548
 2436Sol     HW13064   0.563   2.302   7.289  1.7180  0.5951  0.6431
 2436Sol     HW13065   0.686   2.238   7.228  0.2746 -0.3396 -1.3385
 2436Sol     MW13066   0.621   2.300   7.221  0.6253 -0.3387 -0.6394
 2437Sol     OW13067   0.317   2.558   6.672 -0.4134 -0.1700  0.1402
 2437Sol     HW13068   0.251   2.582   6.737 -0.3933 -1.8937  0.8289
 2437Sol     HW13069   0.310   2.626   6.605 -2.2349  0.2043  0.6678
 2437Sol     MW13070   0.310   2.566   6.672  0.0995  0.0598 -0.9033
 2438Sol     OW13071   2.336   2.129   6.889 -0.1661 -0.5303 -0.5194
 2438Sol     HW13072   2.243   2.136   6.867  0.1767  1.6617 -1.3489
 2438Sol     HW13073   2.358   2.212   6.931  1.5724 -0.7689 -0.9129
 2438Sol     MW13074   2.330   2.137   6.891 -0.6465 -0.1927  0.5185
 2439Sol     OW13075   1.329   2.023   6.317  0.0098  0.1909  0.1368
 2439Sol     HW13076   1.272   1.962   6.271  0.5268  1.1957 -1.9214
 2439Sol     HW13077   1.400   1.969   6.351 -0.2938 -0.5549 -0.4003
 2439Sol     MW13078   1.330   2.013   6.316  0.1894 -0.1060  0.2915
 2440Sol     OW13079   2.163   0.073   2.695 -0.0836 -0.0065 -0.2757
 2440Sol     HW13080   2.171  -0.005   2.641 -2.0331 -1.2598  1.1955
 2440Sol     HW13081   2.185   0.044   2.784 -0.8986  1.0910  0.2985
 2440Sol     MW13082   2.166   0.064   2.698  0.4218 -0.0994 -0.3775
 2441Sol     OW13083   2.641   3.020   9.605  0.1135 -0.0377 -0.5658
 2441Sol     HW13084   2.703   2.949   9.624  0.2843  0.4378  0.6373
 2441Sol     HW13085   2.613   3.002   9.515  0.2682 -1.5490 -0.3315
 2441Sol     MW13086   2.644   3.012   9.598 -0.1317  0.3363  0.1663
 2442Sol     OW13087   1.157   0.950   2.794  0.3107  0.3327 -0.1022
 2442Sol     HW13088   1.099   1.023   2.770  2.1911  2.1066  0.6740
 2442Sol     HW13089   1.245   0.981   2.774  1.0134 -2.5689 -1.8138
 2442Sol     MW13090   1.159   0.959   2.790 -0.5959 -0.0978  0.9343
 2443Sol     OW13091   2.033   1.102   3.867 -0.4753 -0.4600  0.1766
 2443Sol     HW13092   2.093   1.127   3.797  0.7192 -1.2545  0.8949
 2443Sol     HW13093   2.045   1.007   3.876  0.4523 -0.1816  2.4008
 2443Sol     MW13094   2.040   1.096   3.862  0.2610  0.1968 -0.5380
 2444Sol     OW13095   3.234   0.715   7.370 -0.0175  0.1513  0.4127
 2444Sol     HW13096   3.155   0.769   7.375 -0.5300 -0.5444 -0.1181
 2444Sol     HW13097   3.289   0.759   7.305 -0.4323  0.0467 -0.0136
 2444Sol     MW13098   3.232   0.724   7.364 -0.2880  0.0866 -0.0934
 2445Sol     OW13099   2.757   0.578   2.078  0.0060 -0.4969  0.9297
 2445Sol     HW13100   2.794   0.522   2.010  0.8537  0.0742  0.9104
 2445Sol     HW13101   2.678   0.615   2.038  0.6886  0.1116  0.1268
 2445Sol     MW13102   2.753   0.576   2.068  0.5866  1.0564  0.6323
 2446Sol     OW13103   2.426   0.878   3.919  0.0097 -0.1880  0.7261
 2446Sol     HW13104   2.390   0.818   3.985 -0.1391  1.1084  1.8389
 2446Sol     HW13105   2.487   0.934   3.967  2.6004 -1.5129 -0.9141
 2446Sol     MW13106   2.428   0.878   3.929 -0.1887  0.0870 -0.3225
 2447Sol     OW13107   3.337   2.363   7.504 -0.3694 -0.0387  0.5803
 2447Sol     HW13108   3.321   2.290   7.445 -0.5351 -0.3724  1.0456
 2447Sol     HW13109   3.387   2.326   7.576  0.1182  0.4382  0.4914
 2447Sol     MW13110   3.340   2.353   7.505 -0.2933  0.5922  0.9580
 2448Sol     OW13111   2.124   2.936   9.630  0.5007  0.6732  0.3047
 2448Sol     HW13112   2.121   2.841   9.636 -0.5582  0.5015 -2.1808
 2448Sol     HW13113   2.207   2.961   9.670  0.8322 -1.2983  0.8628
 2448Sol     MW13114   2.131   2.930   9.634 -0.2754 -0.8970 -0.4885
 2449Sol     OW13115   2.000   2.966   6.600  0.1567 -0.7122  0.2584
 2449Sol     HW13116   2.080   2.952   6.652  0.0761 -0.8217  0.3553
 2449Sol     HW13117   1.993   3.061   6.591  1.8971 -0.7997 -2.2494
 2449Sol     MW13118   2.007   2.973   6.604 -0.1152 -1.3759  0.3520
 2450Sol     OW13119   0.533   0.933   6.744 -0.1219 -0.5863 -0.3371
 2450Sol     HW13120   0.585   0.866   6.788 -0.3550 -0.0784  0.7520
 2450Sol     HW13121   0.469   0.884   6.693 -0.4527 -1.2098  0.6495
 2450Sol     MW13122   0.532   0.923   6.743  0.1855  0.1426  0.5354
 2451Sol     OW13123   2.457   0.151   8.796  0.2936  0.1871  0.2451
 2451Sol     HW13124   2.474   0.235   8.754  1.5794  1.1156  2.5619
 2451Sol     HW13125   2.539   0.103   8.788 -0.2073 -0.5998 -0.4020
 2451Sol     MW13126   2.466   0.154   8.791  0.5411  0.4793  0.0603
 2452Sol     OW13127   0.488   1.656   3.292  0.7396  0.0035  0.0539
 2452Sol     HW13128   0.489   1.748   3.268 -0.2180 -0.0069 -0.0269
 2452Sol     HW13129   0.474   1.610   3.209  0.7334 -0.1953  0.1655
 2452Sol     MW13130   0.487   1.660   3.282  0.1173 -0.2318  0.0267
 2453Sol     OW13131   0.514   2.713   9.039  0.3120  0.3265  0.1549
 2453Sol     HW13132   0.605   2.684   9.035  0.3697  0.5173  0.0696
 2453Sol     HW13133   0.519   2.802   9.075  0.1013  0.0557  0.8634
 2453Sol     MW13134   0.523   2.719   9.042 -0.0370  0.3613  0.6896
 2454Sol     OW13135   2.506   2.555   9.239  0.2291 -0.1069  0.4301
 2454Sol     HW13136   2.529   2.574   9.330  0.7900  0.4118  0.1832
 2454Sol     HW13137   2.591   2.549   9.194 -0.0932  0.9600 -0.3229
 2454Sol     MW13138   2.516   2.556   9.243 -0.5238 -0.2014 -0.0065
 2455Sol     OW13139   2.924   1.654   6.732 -0.4524  0.1783 -0.0507
 2455Sol     HW13140   2.889   1.722   6.674 -1.8250  0.6350  1.2867
 2455Sol     HW13141   2.928   1.575   6.678 -1.4858  0.6636 -0.8363
 2455Sol     MW13142   2.922   1.653   6.722 -0.5201  0.1945  0.3624
 2456Sol     OW13143   1.646   1.073   9.098 -0.1372 -0.4316 -0.4404
 2456Sol     HW13144   1.620   0.985   9.127  1.5110 -0.3560  1.3845
 2456Sol     HW13145   1.677   1.061   9.009 -0.4638 -1.5977 -0.4058
 2456Sol     MW13146   1.646   1.064   9.093  0.0245 -0.0131  0.4525
 2457Sol     OW13147   1.192   1.429   1.804 -0.0279  0.1056 -0.4291
 2457Sol     HW13148   1.242   1.444   1.884  0.5134  1.1691 -0.9474
 2457Sol     HW13149   1.197   1.512   1.757 -1.2942 -0.1563 -1.0445
 2457Sol     MW13150   1.197   1.438   1.807  0.0850  0.3150 -0.3758
 2458Sol     OW13151   1.862   0.453   5.609 -0.9580  0.0942  0.1753
 2458Sol     HW13152   1.873   0.425   5.519  1.0281 -0.4325  0.5527
 2458Sol     HW13153   1.932   0.516   5.623  1.4446 -2.9245  2.5448
 2458Sol     MW13154   1.869   0.456   5.603  0.1899 -0.3082  0.0019
 2459Sol     OW13155   1.094   0.966   5.810 -0.4099 -0.4476 -0.0574
 2459Sol     HW13156   1.178   1.003   5.783 -1.5697  1.5710 -0.9710
 2459Sol     HW13157   1.103   0.953   5.904  0.8435 -0.0238 -0.1090
 2459Sol     MW13158   1.102   0.968   5.816 -0.0845  0.3555 -0.5276
 2460Sol     OW13159   0.011   0.099   6.960  0.5656  0.0633  0.2348
 2460Sol     HW13160  -0.046   0.120   7.034  4.0055  1.5135  2.6183
 2460Sol     HW13161   0.026   0.183   6.917  0.1226 -0.4681 -0.9768
 2460Sol     MW13162   0.007   0.108   6.963 -0.2883 -0.0898 -0.5933
 2461Sol     OW13163   2.808   0.912   9.148  0.2648 -0.6615 -0.1224
 2461Sol     HW13164   2.763   0.859   9.214  0.5972  1.2224  1.6502
 2461Sol     HW13165   2.738   0.943   9.091 -0.4040  0.1635  1.1226
 2461Sol     MW13166   2.798   0.910   9.149  0.0925 -0.5140 -0.4496
 2462Sol     OW13167   0.452   3.174   5.420  0.3273 -0.2133 -0.2074
 2462Sol     HW13168   0.363   3.161   5.452  0.5314 -1.1643 -0.0163
 2462Sol     HW13169   0.505   3.115   5.473  0.9647 -0.1978 -0.8267
 2462Sol     MW13170   0.448   3.168   5.428  0.5695  0.5739  0.8724
 2463Sol     OW13171   1.826   2.819   2.402 -0.1052 -0.1294 -0.4597
 2463Sol     HW13172   1.847   2.908   2.375 -2.1240  0.6029  0.2566
 2463Sol     HW13173   1.867   2.810   2.488  0.2426  0.0515 -0.6063
 2463Sol     MW13174   1.832   2.826   2.407 -0.0996 -0.1556 -0.2799
 2464Sol     OW13175   1.615   1.196   3.902  0.6178 -0.5866 -0.2198
 2464Sol     HW13176   1.639   1.275   3.950 -3.0650 -0.2448  1.2507
 2464Sol     HW13177   1.656   1.124   3.949  1.8139  0.2305 -0.0075
 2464Sol     MW13178   1.621   1.197   3.910 -0.0748  0.2758 -0.1463
 2465Sol     OW13179   2.016   1.657   3.496 -0.2659  0.3057 -0.0437
 2465Sol     HW13180   1.965   1.716   3.551  2.0741  2.1716  0.2102
 2465Sol     HW13181   2.041   1.585   3.554 -1.2810  0.1708  0.2298
 2465Sol     MW13182   2.014   1.656   3.506 -0.6242 -1.1245  0.1720
 2466Sol     OW13183   1.469   3.210   6.081  0.3755  0.1566 -0.3425
 2466Sol     HW13184   1.472   3.295   6.124 -0.7379  0.9163 -1.7070
 2466Sol     HW13185   1.484   3.147   6.151 -2.3256  1.2954  1.3479
 2466Sol     MW13186   1.471   3.212   6.091 -0.0324  0.7566  0.0628
 2467Sol     OW13187   1.497   1.229   8.224  0.3644  0.2957 -0.0743
 2467Sol     HW13188   1.473   1.158   8.284  2.0480 -0.1206  0.1610
 2467Sol     HW13189   1.590   1.245   8.243  0.5850  1.0352 -1.6794
 2467Sol     MW13190   1.504   1.224   8.231 -0.2340 -0.4998 -0.1761
 2468Sol     OW13191   3.123   1.422   1.986  0.1028  0.0554 -0.0615
 2468Sol     HW13192   3.216   1.410   1.968 -0.1338 -0.5187 -0.9150
 2468Sol     HW13193   3.109   1.517   1.981  0.2485 -0.0102 -1.8707
 2468Sol     MW13194   3.130   1.429   1.984  0.1441  0.5171  1.0421
 2469Sol     OW13195   0.467   3.411   8.748 -0.0863 -0.0807  0.7569
 2469Sol     HW13196   0.512   3.455   8.676  0.2646 -0.9689  0.4274
 2469Sol     HW13197   0.509   3.444   8.827  1.5225 -1.2825  0.4357
 2469Sol     MW13198   0.474   3.418   8.749  0.0314 -0.0746 -0.4657
 2470Sol     OW13199   3.349   1.415   9.255 -0.2289  0.6750 -0.1198
 2470Sol     HW13200   3.365   1.444   9.344 -0.0085  0.6846 -0.1623
 2470Sol     HW13201   3.315   1.492   9.210  2.1871  1.4196 -0.7310
 2470Sol     MW13202   3.347   1.424   9.259  0.0431 -0.4159  0.0484
 2471Sol     OW13203   1.573   0.634   3.634 -0.1336 -0.0008  0.0196
 2471Sol     HW13204   1.656   0.680   3.623  1.7722 -2.4599  3.1176
 2471Sol     HW13205   1.572   0.568   3.565 -0.3609  1.1422 -1.0900
 2471Sol     MW13206   1.580   0.632   3.627  0.7336  0.1626  0.0191
 2472Sol     OW13207   2.091   2.580   7.215 -0.2971 -0.9578  0.0103
 2472Sol     HW13208   2.113   2.514   7.149  0.0219 -1.6009  0.7579
 2472Sol     HW13209   2.032   2.535   7.275 -0.0302 -0.5858  0.5565
 2472Sol     MW13210   2.088   2.570   7.214 -0.4031  0.0481  0.4594
 2473Sol     OW13211   2.440   0.866   3.264  0.2977 -0.1402  0.3848
 2473Sol     HW13212   2.448   0.936   3.199 -1.1431 -0.7893 -0.5020
 2473Sol     HW13213   2.383   0.903   3.331  0.1972 -0.1787  0.3198
 2473Sol     MW13214   2.436   0.876   3.264 -0.4103  0.1792  0.3608
 2474Sol     OW13215   1.927   0.564   4.287 -0.0260 -0.2550 -0.2603
 2474Sol     HW13216   1.855   0.503   4.300  0.5812 -1.5266 -2.5083
 2474Sol     HW13217   2.006   0.510   4.297  0.5261  0.2119 -1.9025
 2474Sol     MW13218   1.928   0.554   4.289  0.0490 -0.0441 -0.0645
 2475Sol     OW13219   2.837   3.179   6.648 -0.4322 -0.4653 -0.5866
 2475Sol     HW13220   2.838   3.194   6.553 -1.8317 -0.2439 -0.5876
 2475Sol     HW13221   2.759   3.125   6.663  1.3838 -2.9788  0.1177
 2475Sol     MW13222   2.830   3.176   6.641 -0.1621  0.1058 -0.1519
 2476Sol     OW13223   3.043   2.927   2.331 -0.0349  0.0885  0.3562
 2476Sol     HW13224   3.085   2.860   2.275 -1.6403 -1.1536  0.6139
 2476Sol     HW13225   3.111   2.950   2.395  0.6200 -1.1397  0.1263
 2476Sol     MW13226   3.053   2.923   2.332  0.0671  0.0424  0.3133
 2477Sol     OW13227   1.156   3.307   6.783 -0.3827 -0.2845  0.3052
 2477Sol     HW13228   1.221   3.361   6.828 -0.2943 -1.2348  1.3330
 2477Sol     HW13229   1.183   3.310   6.691  1.0936 -0.6280  0.7109
 2477Sol     MW13230   1.164   3.312   6.779 -0.7549 -0.0615  0.0403
 2478Sol     OW13231   1.407   2.134   7.157  0.7071 -0.5163 -0.6865
 2478Sol     HW13232   1.313   2.139   7.142  0.4178 -0.2075  1.1290
 2478Sol     HW13233   1.432   2.220   7.190  1.0078 -1.5681  1.9923
 2478Sol     MW13234   1.401   2.142   7.159 -0.2240  0.0879  0.0474
 2479Sol     OW13235   0.087   3.269   2.892 -0.3366  0.1489 -0.5016
 2479Sol     HW13236   0.010   3.221   2.923  0.0839 -0.2059  0.0113
 2479Sol     HW13237   0.116   3.319   2.969 -0.5348  0.9219 -0.9181
 2479Sol     MW13238   0.083   3.269   2.902  0.3616 -0.1889  0.2342
 2480Sol     OW13239   0.448   0.018   4.652  0.2688 -0.9321 -0.0838
 2480Sol     HW13240   0.360   0.021   4.616  0.6412 -1.2130 -1.0363
 2480Sol     HW13241   0.452   0.093   4.713 -0.5336 -0.7692 -0.2350
 2480Sol     MW13242   0.441   0.025   4.654  0.2910  0.7927 -0.1011
 2481Sol     OW13243   2.713   1.168   3.822 -0.2359  0.0124 -0.8538
 2481Sol     HW13244   2.632   1.217   3.836 -0.8283 -1.0163 -0.5759
 2481Sol     HW13245   2.752   1.207   3.744 -1.1255  0.3697 -1.1250
 2481Sol     MW13246   2.709   1.176   3.817 -0.0736  0.9440  0.2241
 2482Sol     OW13247   2.962   0.062   8.799 -0.4546 -0.4116 -0.2631
 2482Sol     HW13248   2.984   0.132   8.738 -0.5220  1.0938  1.4178
 2482Sol     HW13249   3.042   0.009   8.804 -0.6356 -0.8861 -2.0758
 2482Sol     MW13250   2.971   0.063   8.794  0.7340  0.2875 -0.8101
 2483Sol     OW13251   0.201   2.348   9.008 -0.3509 -0.7200  0.2886
 2483Sol     HW13252   0.259   2.382   8.940 -0.3165 -1.6693 -0.1776
 2483Sol     HW13253   0.201   2.415   9.076  0.6790 -0.3606 -0.0515
 2483Sol     MW13254   0.206   2.357   9.008  0.3018 -0.0232  0.2062
 2484Sol     OW13255   2.476   3.424   6.765  0.4023 -0.2968 -0.1052
 2484Sol     HW13256   2.452   3.510   6.732 -2.3518 -0.2003  1.9842
 2484Sol     HW13257   2.572   3.422   6.759  0.3444  1.7886 -2.7756
 2484Sol     MW13258   2.482   3.432   6.761 -0.5157  0.6682 -0.0722
 2485Sol     OW13259   2.992   0.201   6.961  0.7123 -0.0111 -0.3486
 2485Sol     HW13260   2.917   0.149   6.989 -0.0682  1.4587  0.3543
 2485Sol     HW13261   3.065   0.169   7.014  1.1104 -2.9247 -2.5281
 2485Sol     MW13262   2.992   0.193   6.968 -0.2552  0.2566 -0.3672
 2486Sol     OW13263   3.209   1.482   3.339  0.7039 -0.6285 -0.0239
 2486Sol     HW13264   3.231   1.448   3.426 -1.0795  2.6019  1.8277
 2486Sol     HW13265   3.240   1.573   3.340 -1.0679  0.0588 -2.0301
 2486Sol     MW13266   3.213   1.487   3.347  0.8991 -0.3863  0.3104
 2487Sol     OW13267   2.991   0.309   6.588  0.0660 -0.1698  0.1776
 2487Sol     HW13268   3.041   0.255   6.649  1.0320 -1.8668 -2.0119
 2487Sol     HW13269   3.058   0.349   6.532 -0.8446  0.4139 -0.5060
 2487Sol     MW13270   3.002   0.308   6.588  0.4276 -0.8036  0.3274
 2488Sol     OW13271   3.255   1.995   6.617 -0.0038 -0.0894 -0.0511
 2488Sol     HW13272   3.240   2.087   6.640 -0.3769  0.0182 -0.7159
 2488Sol     HW13273   3.329   1.968   6.671  0.5448  0.7992 -0.3581
 2488Sol     MW13274   3.260   2.000   6.624 -0.3785 -0.1503 -0.5176
 2489Sol     OW13275   0.516   3.226   6.605 -0.9132  0.2099 -0.0567
 2489Sol     HW13276   0.457   3.300   6.589 -1.2067 -0.0281 -0.0753
 2489Sol     HW13277   0.459   3.150   6.613 -0.6866  0.1340  0.9465
 2489Sol     MW13278   0.506   3.226   6.604  0.5615 -0.3700  0.6726
 2490Sol     OW13279   0.265   2.732   6.469  0.0686 -0.0645  0.4359
 2490Sol     HW13280   0.283   2.720   6.376  3.0893  2.5389  0.6030
 2490Sol     HW13281   0.204   2.805   6.473 -0.0862 -0.1965  0.4882
 2490Sol     MW13282   0.261   2.738   6.461  0.2406  0.7480 -0.3836
 2491Sol     OW13283   2.470   1.879   4.772 -0.2890 -0.7037  0.3715
 2491Sol     HW13284   2.391   1.827   4.758 -0.7643  0.0754  0.1002
 2491Sol     HW13285   2.474   1.937   4.696  0.1069 -0.1886  0.7773
 2491Sol     MW13286   2.463   1.879   4.764 -0.7406  0.4715 -0.0390
 2492Sol     OW13287   0.949   0.251   9.636  0.0418  0.2600  0.2550
 2492Sol     HW13288   0.923   0.300   9.558 -0.4774  2.5364  1.8056
 2492Sol     HW13289   0.973   0.318   9.700 -2.1395 -1.3946  2.9635
 2492Sol     MW13290   0.949   0.262   9.635  0.2014  0.1495 -0.2161
 2493Sol     OW13291   2.394   0.382   3.714 -0.0912  0.1385  0.0909
 2493Sol     HW13292   2.306   0.418   3.717 -0.5526 -0.9861  0.3377
 2493Sol     HW13293   2.381   0.289   3.692  1.0936  0.2499 -1.1385
 2493Sol     MW13294   2.385   0.377   3.712  0.0158  0.6762 -0.3170
 2494Sol     OW13295   0.615   0.668   3.764 -0.0367  0.1887  0.4551
 2494Sol     HW13296   0.552   0.638   3.699 -0.3548 -1.6556  1.5840
 2494Sol     HW13297   0.605   0.607   3.838  1.2260  1.4476  1.7018
 2494Sol     MW13298   0.609   0.660   3.765  0.4478  0.4553  0.5480
 2495Sol     OW13299   1.469   2.366   4.846 -0.3559  0.0322 -0.6669
 2495Sol     HW13300   1.398   2.400   4.899  0.4268  0.1769  0.2985
 2495Sol     HW13301   1.463   2.414   4.763 -1.4499 -0.0531 -0.6386
 2495Sol     MW13302   1.462   2.373   4.843 -0.3242  0.2002  0.7213
 2496Sol     OW13303   1.687   2.258   7.895 -0.7501  0.6515  0.1259
 2496Sol     HW13304   1.675   2.202   7.818  2.6034 -0.7078  0.5266
 2496Sol     HW13305   1.637   2.215   7.964 -0.6698 -0.1767 -0.3242
 2496Sol     MW13306   1.681   2.249   7.894  0.8909  0.3623 -0.0718
 2497Sol     OW13307   3.012   0.539   8.379  0.3318  0.1138 -0.4930
 2497Sol     HW13308   2.953   0.537   8.303 -0.6087  1.1602  0.1923
 2497Sol     HW13309   3.095   0.504   8.346 -0.3581 -0.3577 -1.7504
 2497Sol     MW13310   3.014   0.536   8.369 -0.1307 -0.1845  0.3068
 2498Sol     OW13311   0.792   1.447   4.447  0.0152 -0.6070  0.5526
 2498Sol     HW13312   0.754   1.528   4.480  0.6214 -0.5657  1.1670
 2498Sol     HW13313   0.731   1.418   4.379 -0.1275  0.4375  0.2220
 2498Sol     MW13314   0.783   1.452   4.444  0.1469  0.1946  0.0387
 2499Sol     OW13315   3.348   1.154   8.872  0.4123  0.4644 -0.2561
 2499Sol     HW13316   3.408   1.181   8.942  1.3200  0.1235 -0.8893
 2499Sol     HW13317   3.270   1.123   8.918 -0.2352  3.1206  0.5332
 2499Sol     MW13318   3.347   1.154   8.883  0.4515  0.6327  0.1096
 2500Sol     OW13319   2.159   0.579   8.749  0.0033  0.1661  0.1596
 2500Sol     HW13320   2.237   0.619   8.711  0.8269 -1.3410  0.1994
 2500Sol     HW13321   2.188   0.545   8.834 -0.4977 -0.9951 -0.1150
 2500Sol     MW13322   2.168   0.579   8.753  0.5705  0.3044 -0.1935
 2501Sol     OW13323   0.844   1.600   4.122 -0.0205  0.2992 -0.8004
 2501Sol     HW13324   0.890   1.516   4.123  0.7344  0.6944 -1.4181
 2501Sol     HW13325   0.758   1.580   4.085  0.1343 -0.2111 -0.8905
 2501Sol     MW13326   0.841   1.591   4.119  0.3443 -0.5768  0.1936
 2502Sol     OW13327   1.420   1.592   3.044  0.5940  0.3960  0.2428
 2502Sol     HW13328   1.501   1.549   3.016  0.7052  0.2503  0.7795
 2502Sol     HW13329   1.363   1.520   3.072 -0.5100  0.3183 -2.0972
 2502Sol     MW13330   1.422   1.582   3.044  0.2670 -0.0410 -0.4864
 2503Sol     OW13331   0.356   0.085   4.199  0.2695  0.1511 -0.2101
 2503Sol     HW13332   0.323   0.045   4.280 -0.4636  0.6392 -0.2578
 2503Sol     HW13333   0.392   0.169   4.228  1.6904 -0.4823 -0.1257
 2503Sol     MW13334   0.356   0.089   4.209 -0.4570  0.3352 -0.6452
 2504Sol     OW13335   2.858   2.845   2.803 -0.0166  0.0714  0.0173
 2504Sol     HW13336   2.866   2.921   2.746  0.0642 -1.3603 -1.9345
 2504Sol     HW13337   2.891   2.875   2.888  0.5441  2.0357 -0.8650
 2504Sol     MW13338   2.862   2.854   2.806  0.0069  0.1844  0.6187
 2505Sol     OW13339   1.362   0.998   5.771 -0.3116 -0.5775  0.5981
 2505Sol     HW13340   1.394   1.088   5.764 -0.1720 -0.5797  1.1476
 2505Sol     HW13341   1.389   0.970   5.859  1.4722 -1.8786 -0.3296
 2505Sol     MW13342   1.367   1.004   5.778 -0.6296 -0.1003 -0.0482
 2506Sol     OW13343   1.967   1.787   6.122  0.1458 -0.7096 -0.8477
 2506Sol     HW13344   1.952   1.694   6.139 -1.5904 -0.2174  0.4252
 2506Sol     HW13345   1.885   1.830   6.147  0.8827  1.1577 -1.5258
 2506Sol     MW13346   1.958   1.783   6.126 -0.0726 -0.4361  0.3413
 2507Sol     OW13347   1.064   1.627   3.436  0.4787 -0.0141  0.2849
 2507Sol     HW13348   1.108   1.693   3.490  1.5441 -0.8313  0.4493
 2507Sol     HW13349   1.088   1.544   3.476 -0.7719 -0.5129  0.0253
 2507Sol     MW13350   1.070   1.625   3.444 -0.1490  0.1719 -0.2072
 2508Sol     OW13351   2.173   0.245   9.714  0.3043  0.3504  0.3304
 2508Sol     HW13352   2.154   0.265   9.805  0.4152 -0.3269  0.5090
 2508Sol     HW13353   2.268   0.256   9.706  0.0646  2.1700 -0.1640
 2508Sol     MW13354   2.180   0.248   9.721 -0.1032 -0.5927  0.0669
 2509Sol     OW13355   0.636   1.883   4.916  0.7243  0.7038 -0.2398
 2509Sol     HW13356   0.693   1.910   4.844  0.2696  2.0661 -0.0913
 2509Sol     HW13357   0.554   1.930   4.901  0.7260  1.2291  1.3508
 2509Sol     MW13358   0.634   1.889   4.908 -0.3444 -0.1018  0.4662
 2510Sol     OW13359   1.421   1.862   7.513  0.6727  0.3932  0.7551
 2510Sol     HW13360   1.397   1.821   7.429 -0.0045 -1.3208  1.7591
 2510Sol     HW13361   1.341   1.906   7.541  0.9726  1.1746  0.3756
 2510Sol     MW13362   1.411   1.862   7.508  0.7234 -0.7147  0.1852
 2511Sol     OW13363   0.564   1.392   2.041 -0.0774 -0.1396 -0.3182
 2511Sol     HW13364   0.563   1.296   2.043  0.0845 -0.1077  2.0998
 2511Sol     HW13365   0.615   1.413   1.963  2.4322 -2.0448  0.7386
 2511Sol     MW13366   0.568   1.385   2.034 -0.4309 -0.1804  0.4189
 2512Sol     OW13367   1.604   0.763   5.937 -0.1895 -0.1126 -0.5512
 2512Sol     HW13368   1.535   0.804   5.989 -0.7016 -0.5428 -0.8861
 2512Sol     HW13369   1.566   0.680   5.908  0.6254 -0.5491 -0.3825
 2512Sol     MW13370   1.595   0.759   5.939  0.4061  0.2371 -0.5479
 2513Sol     OW13371   1.112   0.974   9.268  0.1065 -0.6315 -0.7116
 2513Sol     HW13372   1.049   0.903   9.251 -1.1128  0.4326 -0.7286
 2513Sol     HW13373   1.135   1.007   9.182 -1.2228  0.6030 -0.6086
 2513Sol     MW13374   1.108   0.971   9.259  0.2184 -0.6395 -0.6806
 2514Sol     OW13375   2.121   3.225   3.388  0.1783 -0.0335 -0.1636
 2514Sol     HW13376   2.139   3.153   3.328 -0.1996  0.6687 -1.1400
 2514Sol     HW13377   2.051   3.275   3.345  0.4364  0.9170  0.5011
 2514Sol     MW13378   2.116   3.223   3.379 -0.1959 -0.7586 -0.0246
 2515Sol     OW13379   2.324   1.107   6.792 -0.3278 -0.4228 -0.1206
 2515Sol     HW13380   2.242   1.147   6.823 -1.0459 -0.7692 -1.5299
 2515Sol     HW13381   2.354   1.165   6.722  0.9709  0.0242  0.7801
 2515Sol     MW13382   2.319   1.116   6.788  0.9058 -0.0114  0.1157
 2516Sol     OW13383   1.069   1.008   8.617  0.6481  0.3442  0.0235
 2516Sol     HW13384   1.164   1.010   8.605  0.3793  0.0836 -2.4457
 2516Sol     HW13385   1.056   0.949   8.691  2.3881  0.0198  0.0958
 2516Sol     MW13386   1.076   1.003   8.623 -0.0198 -0.2667  0.6397
 2517Sol     OW13387   2.800   1.958   3.071  0.5849 -0.1709  1.0128
 2517Sol     HW13388   2.860   1.886   3.091  0.1741 -1.1898 -1.2213
 2517Sol     HW13389   2.856   2.028   3.038  0.7358 -0.3880  0.8121
 2517Sol     MW13390   2.810   1.958   3.070 -0.3694 -0.1589  0.9547
 2518Sol     OW13391   3.284   0.667   8.742 -0.1719  0.1157 -0.6426
 2518Sol     HW13392   3.339   0.597   8.777 -0.4642  0.0979 -0.2189
 2518Sol     HW13393   3.293   0.660   8.647 -0.4831 -0.7188 -0.6087
 2518Sol     MW13394   3.290   0.660   8.736 -0.4485  0.8415 -0.4624
 2519Sol     OW13395   1.520   1.873   2.049  0.1881 -0.1733  0.1208
 2519Sol     HW13396   1.603   1.852   2.006 -0.1963  0.7058 -1.0597
 2519Sol     HW13397   1.501   1.796   2.102  0.8215 -1.1558 -1.0426
 2519Sol     MW13398   1.526   1.864   2.050 -0.0412 -0.3406  0.3714
 2520Sol     OW13399   1.786   0.688   7.881  0.3638  0.1153 -0.5700
 2520Sol     HW13400   1.872   0.694   7.923  0.0052 -0.3429  0.2536
 2520Sol     HW13401   1.805   0.664   7.790  1.1245  0.4785 -0.5077
 2520Sol     MW13402   1.795   0.686   7.876 -0.0170 -0.8269 -0.0856
 2521Sol     OW13403   0.054   0.540   7.906 -0.4006 -0.3977  0.2221
 2521Sol     HW13404  -0.006   0.589   7.963 -1.3664 -1.9092  0.5584
 2521Sol     HW13405   0.033   0.448   7.923  0.5315 -0.9134 -1.2764
 2521Sol     MW13406   0.047   0.536   7.913 -0.3677  0.3064  0.1271
 2522Sol     OW13407   1.010   2.710   5.537 -0.1215 -0.1045  0.1538
 2522Sol     HW13408   1.001   2.739   5.628  1.1910 -0.0061  0.2546
 2522Sol     HW13409   1.104   2.713   5.520 -0.0958 -2.7614 -0.3534
 2522Sol     MW13410   1.017   2.713   5.544 -0.4255 -1.0182 -0.2851
 2523Sol     OW13411   2.572   3.218   7.799  0.1862  0.1011  0.1891
 2523Sol     HW13412   2.651   3.270   7.812 -0.3106  1.3688 -1.7027
 2523Sol     HW13413   2.512   3.276   7.753 -0.5091 -2.0033 -1.6493
 2523Sol     MW13414   2.574   3.228   7.796 -0.1261  0.7131 -0.1730
 2524Sol     OW13415   2.533   2.728   2.080  0.3927 -0.4798 -0.0945
 2524Sol     HW13416   2.624   2.698   2.080  0.2345 -1.1060 -2.5048
 2524Sol     HW13417   2.497   2.697   2.164  1.7913 -2.1770 -0.0996
 2524Sol     MW13418   2.538   2.722   2.088 -0.8403 -0.4467 -0.0541
 2525Sol     OW13419   0.434   2.504   8.534  0.1846 -0.5527 -0.3298
 2525Sol     HW13420   0.527   2.523   8.519  0.0049 -0.2629 -1.0852
 2525Sol     HW13421   0.426   2.501   8.630  1.3605 -2.5672 -0.2702
 2525Sol     MW13422   0.442   2.505   8.541  1.4868  0.3547 -0.2208
 2526Sol     OW13423   3.189   3.091   4.796 -0.0531  0.4739 -0.0304
 2526Sol     HW13424   3.155   3.005   4.771  1.7733 -0.4851  0.6833
 2526Sol     HW13425   3.244   3.117   4.723  1.2278 -0.0282  0.7379
 2526Sol     MW13426   3.191   3.085   4.787 -0.0574 -0.2191 -0.3291
 2527Sol     OW13427   1.405   1.243   2.969 -0.8522  0.1380 -0.0570
 2527Sol     HW13428   1.322   1.199   2.989  0.7306 -3.0391 -0.0856
 2527Sol     HW13429   1.445   1.259   3.054 -1.2983  1.2760 -0.0600
 2527Sol     MW13430   1.401   1.241   2.978 -0.2048  0.0033  0.1352
 2528Sol     OW13431   0.029   1.199   5.439  0.5119 -0.4858  0.7289
 2528Sol     HW13432   0.083   1.162   5.369 -1.0211  1.1062 -1.3548
 2528Sol     HW13433  -0.031   1.128   5.463 -2.2870  0.4492 -3.0954
 2528Sol     MW13434   0.028   1.189   5.435  1.5929  0.6114  0.1430
 2529Sol     OW13435   2.765   2.537   9.122 -0.2195  0.9959 -0.0158
 2529Sol     HW13436   2.814   2.458   9.101  1.5471  2.6096 -2.1477
 2529Sol     HW13437   2.739   2.572   9.037 -0.8126  2.8128  0.8987
 2529Sol     MW13438   2.767   2.533   9.113 -0.1443 -0.0654 -0.3036
 2530Sol     OW13439   0.528   2.085   4.044  0.1797 -0.0182  0.8210
 2530Sol     HW13440   0.451   2.118   3.998  0.3566  0.9262  1.2021
 2530Sol     HW13441   0.503   1.996   4.071 -0.5044  0.0150  0.3204
 2530Sol     MW13442   0.519   2.080   4.042  0.4062  0.8508  0.0033
 2531Sol     OW13443   3.291   2.787   7.339 -0.5408  0.3409  0.2040
 2531Sol     HW13444   3.260   2.762   7.252 -3.3997  0.4290  1.1536
 2531Sol     HW13445   3.237   2.862   7.364  1.4153  1.4098  1.3640
 2531Sol     MW13446   3.283   2.791   7.334 -0.5807 -0.4193  0.8294
 2532Sol     OW13447   3.026   2.075   1.916  0.9049  0.1268  0.0100
 2532Sol     HW13448   2.938   2.049   1.943  1.6567 -2.2409  0.3701
 2532Sol     HW13449   3.018   2.166   1.889 -1.0626  0.8301  2.7722
 2532Sol     MW13450   3.017   2.081   1.916 -0.4117  0.0756 -0.2199
 2533Sol     OW13451   0.534   0.784   3.459 -0.0309 -0.4640 -0.1403
 2533Sol     HW13452   0.533   0.730   3.380  0.4573  0.2686 -0.6523
 2533Sol     HW13453   0.609   0.842   3.447  0.2449 -0.5791  1.0210
 2533Sol     MW13454   0.540   0.784   3.450  0.5052  0.0490  0.1349
 2534Sol     OW13455   1.409   1.261   3.564 -0.0335  0.1266 -0.0907
 2534Sol     HW13456   1.504   1.261   3.576 -0.4164  0.6323  3.4283
 2534Sol     HW13457   1.391   1.182   3.514  2.1843 -0.2883 -0.2801
 2534Sol     MW13458   1.416   1.254   3.560 -0.2646 -0.4327 -0.3803
 2535Sol     OW13459   2.068   2.144   6.851  0.0302 -0.5163  0.3714
 2535Sol     HW13460   2.054   2.098   6.768 -3.8122  0.4627  0.3472
 2535Sol     HW13461   2.059   2.075   6.918 -0.0546 -0.7592  0.1115
 2535Sol     MW13462   2.066   2.133   6.850  0.0743  0.0419  0.0480
 2536Sol     OW13463   0.627   0.528   8.945  0.3112 -0.2162  0.4595
 2536Sol     HW13464   0.623   0.446   8.896 -1.0976  0.7633 -1.0979
 2536Sol     HW13465   0.718   0.555   8.939  0.3286 -0.5445 -0.8847
 2536Sol     MW13466   0.635   0.523   8.940 -0.1821 -0.3000 -0.1009
 2537Sol     OW13467   3.227   2.875   1.987 -0.1119 -0.6463  0.1951
 2537Sol     HW13468   3.224   2.968   1.966 -0.4617 -0.8519 -0.6637
 2537Sol     HW13469   3.274   2.835   1.914  1.1193 -0.9934  1.1397
 2537Sol     MW13470   3.231   2.880   1.979  0.0205 -0.1064 -0.4166
 2538Sol     OW13471   0.228   2.095   7.294  0.6771 -0.4905  0.8667
 2538Sol     HW13472   0.228   2.106   7.199  1.9491  0.5283  0.9669
 2538Sol     HW13473   0.136   2.090   7.318  0.1642  3.2049 -0.0235
 2538Sol     MW13474   0.220   2.096   7.288 -0.7473  0.6043  0.6263
 2539Sol     OW13475   3.012   1.626   9.023 -0.1919 -0.6345  0.0500
 2539Sol     HW13476   2.938   1.603   9.079  0.8412 -2.2964  0.7553
 2539Sol     HW13477   2.997   1.576   8.942 -0.7996  0.4795 -0.5498
 2539Sol     MW13478   3.004   1.620   9.020  0.0111  0.5976  0.2372
 2540Sol     OW13479   0.682   0.237   3.104  0.2252 -0.3326 -0.8771
 2540Sol     HW13480   0.710   0.309   3.048  0.5343 -0.0403 -0.3490
 2540Sol     HW13481   0.621   0.187   3.050 -0.6534  0.7987 -0.9610
 2540Sol     MW13482   0.679   0.239   3.095 -0.5579 -0.3957 -0.0133
 2541Sol     OW13483   1.454   0.538   7.456  0.3768  0.5922 -0.0921
 2541Sol     HW13484   1.443   0.574   7.368  1.6182  1.2376  0.0008
 2541Sol     HW13485   1.483   0.613   7.508  2.1170 -0.3377  0.3056
 2541Sol     MW13486   1.456   0.548   7.453 -0.2235  0.2331  0.3034
 2542Sol     OW13487   0.757   2.614   8.986  0.0690  0.1178  0.4146
 2542Sol     HW13488   0.845   2.641   9.011  0.6083 -1.5296  0.3525
 2542Sol     HW13489   0.765   2.521   8.964 -1.1570  0.5792 -2.1976
 2542Sol     MW13490   0.765   2.608   8.986 -0.2016 -0.4411 -0.2726
 2543Sol     OW13491   0.572   0.035   2.643  0.5530 -0.0080  0.2548
 2543Sol     HW13492   0.509  -0.001   2.581  1.2210 -0.4243 -0.1943
 2543Sol     HW13493   0.582   0.127   2.617 -1.7353  0.7511  1.8826
 2543Sol     MW13494   0.567   0.040   2.635 -0.3283  0.1615  0.9837
 2544Sol     OW13495   1.802   0.131   5.247 -0.3490 -0.4336  0.2664
 2544Sol     HW13496   1.871   0.101   5.187  2.4404  0.6190  2.7792
 2544Sol     HW13497   1.721   0.095   5.211  1.1843  0.1041 -4.0572
 2544Sol     MW13498   1.801   0.125   5.238  0.5820 -0.0424  0.4016
 2545Sol     OW13499   2.639   0.410   2.324  0.4903  0.4638 -0.0361
 2545Sol     HW13500   2.657   0.490   2.275  0.8301  0.2380 -0.2805
 2545Sol     HW13501   2.573   0.364   2.272  0.3354  0.5570  0.0763
 2545Sol     MW13502   2.635   0.413   2.315 -1.0379 -0.1463  0.7085
 2546Sol     OW13503   2.052   3.127   2.981 -0.2554  0.0290 -0.0089
 2546Sol     HW13504   2.112   3.197   2.957  1.0269 -0.9894  0.1771
 2546Sol     HW13505   2.048   3.072   2.902  0.0462 -0.5935  0.4086
 2546Sol     MW13506   2.057   3.128   2.971 -0.0263 -0.4282 -0.4333
 2547Sol     OW13507   2.594   2.409   8.828 -0.4608 -0.7509 -0.1054
 2547Sol     HW13508   2.618   2.439   8.741  0.5136  0.5249  0.5748
 2547Sol     HW13509   2.501   2.387   8.822 -1.0311  1.7160 -0.8606
 2547Sol     MW13510   2.588   2.410   8.820 -0.3583  0.5458  0.2141
 2548Sol     OW13511   2.880   0.974   4.245 -0.3780 -0.1298 -0.3545
 2548Sol     HW13512   2.805   0.915   4.242 -0.7779  0.3300  0.4601
 2548Sol     HW13513   2.954   0.917   4.266 -0.5575 -0.5166 -0.7426
 2548Sol     MW13514   2.880   0.963   4.246  0.4831 -0.6092  0.6299
 2549Sol     OW13515   0.802   2.131   4.665  0.7319  0.2747 -0.0371
 2549Sol     HW13516   0.892   2.100   4.655  0.1663 -1.3132 -0.4098
 2549Sol     HW13517   0.800   2.170   4.753  1.2137 -1.6986  0.8768
 2549Sol     MW13518   0.810   2.132   4.672 -0.0290  0.9614  0.7706
 2550Sol     OW13519   0.958   2.143   4.940 -0.6266 -0.2072  0.2976
 2550Sol     HW13520   0.949   2.150   5.035 -0.5477  1.5483  0.1886
 2550Sol     HW13521   1.030   2.081   4.927 -0.6950 -0.5211  1.3781
 2550Sol     MW13522   0.963   2.138   4.947  0.2766  1.1138 -1.1297
 2551Sol     OW13523   1.196   0.841   9.478 -0.6260  0.0940  0.1379
 2551Sol     HW13524   1.177   0.750   9.454  0.6965 -0.0383 -0.4205
 2551Sol     HW13525   1.184   0.891   9.397  0.2797  0.1730  0.0479
 2551Sol     MW13526   1.193   0.837   9.468 -0.1565  0.1810  0.7239
 2552Sol     OW13527   0.770   0.027   4.391  0.6005 -0.0140 -0.3763
 2552Sol     HW13528   0.713  -0.026   4.335 -0.7195  1.5309 -0.5447
 2552Sol     HW13529   0.713   0.098   4.422  1.2502 -0.9500  3.0830
 2552Sol     MW13530   0.760   0.029   4.389  0.3189  0.0982  0.4935
 2553Sol     OW13531   1.366   1.250   3.835  0.6670 -0.2816  0.3069
 2553Sol     HW13532   1.457   1.230   3.855  0.9517  0.1280 -0.5803
 2553Sol     HW13533   1.358   1.235   3.741 -0.3278 -0.8792  0.4796
 2553Sol     MW13534   1.373   1.246   3.828  0.3002  0.1960  0.6206
 2554Sol     OW13535   0.179   2.482   7.110  0.9957  0.0531 -0.3684
 2554Sol     HW13536   0.179   2.479   7.206  1.0103 -2.5127 -0.4153
 2554Sol     HW13537   0.266   2.451   7.085  0.4780 -0.6998 -1.2517
 2554Sol     MW13538   0.187   2.479   7.116 -0.4037  0.3343  0.5362
 2555Sol     OW13539   1.052   0.347   8.455 -0.0617  0.3774  0.0886
 2555Sol     HW13540   1.101   0.304   8.525  0.2354 -2.0937 -1.6042
 2555Sol     HW13541   1.102   0.427   8.437  0.0467  0.8832  2.4193
 2555Sol     MW13542   1.061   0.351   8.460 -0.1194 -0.3678 -0.4032
 2556Sol     OW13543   1.430   1.145   7.720 -0.3289 -0.2973 -0.2984
 2556Sol     HW13544   1.404   1.055   7.740 -1.3107  0.1082  0.2952
 2556Sol     HW13545   1.525   1.141   7.709 -0.4170 -1.4895 -0.7401
 2556Sol     MW13546   1.436   1.137   7.720  0.3635  0.5414  0.5219
 2557Sol     OW13547   0.496   0.216   4.910 -0.3982  0.4096 -0.3397
 2557Sol     HW13548   0.583   0.189   4.939  0.6857  0.1082 -3.6580
 2557Sol     HW13549   0.507   0.306   4.878 -1.2178  0.2585 -1.0938
 2557Sol     MW13550   0.504   0.222   4.909 -0.4269  0.1152 -0.5996
 2558Sol     OW13551   0.989   2.775   3.677 -0.0327 -0.9898 -0.1996
 2558Sol     HW13552   0.936   2.699   3.652  0.1493 -0.5428 -1.9881
 2558Sol     HW13553   0.932   2.850   3.662 -0.5661 -0.7913  2.5206
 2558Sol     MW13554   0.979   2.775   3.673  0.0783  0.8090  0.0368
 2559Sol     OW13555   2.044   1.047   9.594  0.1215  0.6815  1.0938
 2559Sol     HW13556   2.068   0.959   9.564 -2.5910 -0.0394  0.9500
 2559Sol     HW13557   2.091   1.106   9.535 -1.7487 -0.7064 -1.8923
 2559Sol     MW13558   2.050   1.044   9.586  0.1132 -0.2511 -0.0637
 2560Sol     OW13559   1.669   3.384   3.789 -0.3276  0.7814 -0.0232
 2560Sol     HW13560   1.606   3.312   3.792 -1.0073  1.4123  1.5925
 2560Sol     HW13561   1.741   3.354   3.845  1.1784 -0.2307 -2.4064
 2560Sol     MW13562   1.670   3.375   3.795 -0.4009  0.3116 -0.1623
 2561Sol     OW13563   2.746   0.028   5.188 -0.5918 -0.5693  0.1999
 2561Sol     HW13564   2.773   0.051   5.277  0.9874 -0.8469 -0.1971
 2561Sol     HW13565   2.685  -0.044   5.199  1.7921 -2.5495  0.9301
 2561Sol     MW13566   2.743   0.024   5.197 -0.4594  0.1151  0.3718
 2562Sol     OW13567   1.450   1.885   1.783  0.4891  0.2497  0.3682
 2562Sol     HW13568   1.527   1.836   1.754  0.4371 -0.3427  1.2373
 2562Sol     HW13569   1.462   1.895   1.877 -0.0873  0.8909  0.3770
 2562Sol     MW13570   1.458   1.882   1.789  0.4303 -0.0406  0.0320
 2563Sol     OW13571   0.104   2.659   6.830  0.3076  0.0723  0.3632
 2563Sol     HW13572   0.014   2.628   6.843  0.5141 -1.4460 -1.6818
 2563Sol     HW13573   0.147   2.642   6.914 -0.8918 -0.6831  0.8397
 2563Sol     MW13574   0.100   2.654   6.839 -0.6363  0.5414  0.5433
 2564Sol     OW13575   3.356   2.253   8.322 -0.1936 -0.8443  0.2407
 2564Sol     HW13576   3.443   2.278   8.354  0.4171 -0.0137 -2.0166
 2564Sol     HW13577   3.298   2.321   8.357 -0.0444 -1.6725  2.1703
 2564Sol     MW13578   3.359   2.261   8.328 -0.3444  0.4690  0.3726
 2565Sol     OW13579   1.590   2.776   2.565  0.0310  0.1377 -0.3176
 2565Sol     HW13580   1.658   2.781   2.497 -0.1345  0.9165 -0.4325
 2565Sol     HW13581   1.613   2.846   2.626  1.0051 -1.4914  1.2047
 2565Sol     MW13582   1.598   2.783   2.564  0.8978 -0.2779 -0.2808
 2566Sol     OW13583   0.618   1.869   5.769  0.4793  0.1009  0.2762
 2566Sol     HW13584   0.646   1.778   5.764  1.8750  0.5630 -0.5642
 2566Sol     HW13585   0.699   1.919   5.774 -0.2810  1.2810  1.1333
 2566Sol     MW13586   0.628   1.865   5.769 -0.5808 -0.6628  0.2441
 2567Sol     OW13587   1.751   1.813   7.979  0.3156  1.1751 -0.2156
 2567Sol     HW13588   1.780   1.746   8.041 -2.4819  0.5573  0.5163
 2567Sol     HW13589   1.736   1.891   8.033  1.0703  1.6312 -0.6561
 2567Sol     MW13590   1.752   1.814   7.990 -0.0462  0.1805 -0.1652
 2568Sol     OW13591   2.215   2.982   1.961  0.1096  0.0664  0.1034
 2568Sol     HW13592   2.246   2.905   1.914  2.7196  0.1385  1.6221
 2568Sol     HW13593   2.293   3.037   1.971 -1.6891  2.8963 -0.8771
 2568Sol     MW13594   2.225   2.980   1.958 -0.7754 -0.4860  0.0132
 2569Sol     OW13595   2.549   1.574   4.900 -0.2178  0.4234  0.2583
 2569Sol     HW13596   2.612   1.507   4.874 -0.3531  0.2479  0.3826
 2569Sol     HW13597   2.592   1.621   4.972 -0.6678 -0.3895  1.0636
 2569Sol     MW13598   2.558   1.573   4.904  0.3468  0.3586 -0.2225
 2570Sol     OW13599   1.871   1.526   1.953 -0.1884  0.4984 -0.0851
 2570Sol     HW13600   1.856   1.432   1.967  1.0027  0.3610  0.4095
 2570Sol     HW13601   1.949   1.529   1.897  0.4276  1.1948  0.7912
 2570Sol     MW13602   1.877   1.517   1.950 -0.1097 -0.2792  0.1014
 2571Sol     OW13603   0.723   0.413   5.768  0.3188  0.2020  0.7874
 2571Sol     HW13604   0.686   0.448   5.849  2.1534 -0.7588  2.0564
 2571Sol     HW13605   0.802   0.465   5.752  1.0494 -0.9181  0.7011
 2571Sol     MW13606   0.726   0.421   5.774  0.5364  0.2454 -0.2583
 2572Sol     OW13607   1.950   2.723   8.781 -0.4342 -0.0717  0.1863
 2572Sol     HW13608   1.882   2.704   8.846 -0.3018  0.8011  0.5872
 2572Sol     HW13609   2.032   2.708   8.826 -0.3437 -1.0466 -0.2754
 2572Sol     MW13610   1.951   2.720   8.790  0.0469 -0.0743 -0.2843
 2573Sol     OW13611   0.621   2.957   8.417  0.6714  0.1794 -0.2594
 2573Sol     HW13612   0.529   2.957   8.390  0.2858  2.6700  0.8978
 2573Sol     HW13613   0.648   3.049   8.412  2.8424 -0.3967  0.2844
 2573Sol     MW13614   0.615   2.965   8.414  0.5849 -0.3913  0.0481
 2574Sol     OW13615   1.670   0.489   2.451 -0.3481  0.1888  0.0803
 2574Sol     HW13616   1.713   0.561   2.497  0.3305  0.4930 -1.0164
 2574Sol     HW13617   1.608   0.532   2.392 -0.6397 -0.1703  0.1226
 2574Sol     MW13618   1.668   0.499   2.450 -0.6297  0.2761 -0.2359
 2575Sol     OW13619   0.891   1.481   8.263 -0.4295  0.1598 -0.2018
 2575Sol     HW13620   0.972   1.431   8.260 -0.3530  0.1881  1.0943
 2575Sol     HW13621   0.830   1.430   8.210  0.0569 -0.5609 -0.0867
 2575Sol     MW13622   0.893   1.472   8.258  0.8338  0.3646 -0.1919
 2576Sol     OW13623   0.558   2.268   8.945  0.2487 -0.9459  0.1180
 2576Sol     HW13624   0.549   2.259   9.040  0.1003  0.4496  0.2523
 2576Sol     HW13625   0.652   2.279   8.931  0.4252 -2.4833 -0.0419
 2576Sol     MW13626   0.566   2.268   8.952  0.1871 -0.0706 -0.0090
 2577Sol     OW13627   1.698   2.764   7.584 -0.1530  0.7725 -0.8686
 2577Sol     HW13628   1.643   2.692   7.553  1.1199 -0.8262  0.4927
 2577Sol     HW13629   1.714   2.744   7.676  2.9339  1.0327 -1.2919
 2577Sol     MW13630   1.694   2.756   7.589  0.4807 -0.1182  0.2185
 2578Sol     OW13631   2.737   1.223   7.971 -0.0390 -0.2749  0.5818
 2578Sol     HW13632   2.675   1.223   7.898  1.0160  0.9532 -0.3324
 2578Sol     HW13633   2.735   1.133   8.004 -4.0417  0.2406  2.0604
 2578Sol     MW13634   2.731   1.215   7.968 -0.6669 -0.4229  0.2342
 2579Sol     OW13635   1.766   3.134   2.572  0.0734 -0.0435  0.1412
 2579Sol     HW13636   1.729   3.214   2.609  0.8581 -0.0758  0.9931
 2579Sol     HW13637   1.767   3.071   2.644  3.3862  0.4797  0.6258
 2579Sol     MW13638   1.763   3.135   2.582 -1.1438  0.0018 -0.0443
 2580Sol     OW13639   1.580   1.689   9.199 -0.3236 -0.2290  0.0538
 2580Sol     HW13640   1.556   1.769   9.245  0.0746 -0.4672  0.6832
 2580Sol     HW13641   1.527   1.621   9.240 -1.8857 -0.0257 -1.5984
 2580Sol     MW13642   1.573   1.690   9.207 -0.7229 -0.0707 -0.2419
 2581Sol     OW13643   1.647   2.801   6.738 -0.4207 -0.6043  0.0117
 2581Sol     HW13644   1.629   2.708   6.725 -0.9948 -0.4841 -0.0615
 2581Sol     HW13645   1.701   2.826   6.664  1.0984 -1.2601  0.8809
 2581Sol     MW13646   1.650   2.795   6.730 -0.7656  1.0782  0.2658
 2582Sol     OW13647   1.100   1.827   6.736  0.0093 -0.4586  0.6838
 2582Sol     HW13648   1.050   1.880   6.673  0.9272 -1.7094 -1.1477
 2582Sol     HW13649   1.171   1.884   6.765 -0.7032  0.2937  0.9561
 2582Sol     MW13650   1.102   1.837   6.733 -0.9142  0.0298  0.3691
 2583Sol     OW13651   0.185   1.411   5.396 -0.3662 -0.2646 -0.3419
 2583Sol     HW13652   0.212   1.460   5.473 -1.9763  0.3694 -0.1570
 2583Sol     HW13653   0.134   1.338   5.430 -1.4075  0.2319 -0.8021
 2583Sol     MW13654   0.182   1.409   5.406 -0.5623 -0.1832 -0.4724
 2584Sol     OW13655   2.304   0.708   3.094 -0.2341 -0.3307  0.1932
 2584Sol     HW13656   2.357   0.775   3.137 -1.0245  0.2553  0.2553
 2584Sol     HW13657   2.367   0.659   3.041  0.7325 -1.0009  1.9095
 2584Sol     MW13658   2.315   0.710   3.093  0.4762 -0.9379 -0.1569
 2585Sol     OW13659   1.118   3.080   4.571 -0.1458 -0.5763 -0.5637
 2585Sol     HW13660   1.160   2.997   4.548 -0.2392 -0.3558 -1.5573
 2585Sol     HW13661   1.100   3.073   4.665 -1.5266 -2.2880 -0.9341
 2585Sol     MW13662   1.120   3.072   4.577  0.8376 -0.3005  0.4233
 2586Sol     OW13663   1.212   0.052   1.895  0.4389  0.4672  0.2021
 2586Sol     HW13664   1.281   0.103   1.854  0.0510  0.3606 -0.5962
 2586Sol     HW13665   1.135   0.066   1.839 -0.9607  2.8191  2.5599
 2586Sol     MW13666   1.211   0.058   1.886  0.3078  0.5289 -0.4465
 2587Sol     OW13667   1.295   2.689   4.852  0.1154  0.1362  0.2944
 2587Sol     HW13668   1.219   2.747   4.851 -1.0033 -1.2947 -1.1508
 2587Sol     HW13669   1.282   2.635   4.931 -1.6464 -1.6562 -1.1431
 2587Sol     MW13670   1.287   2.689   4.859 -0.0320 -0.2235  0.1558
 2588Sol     OW13671   1.932   1.832   3.681 -0.7215 -0.1859  0.5240
 2588Sol     HW13672   1.928   1.812   3.775 -0.0447 -1.8883  0.2112
 2588Sol     HW13673   1.845   1.810   3.648 -0.3750 -1.4370  0.4192
 2588Sol     MW13674   1.924   1.828   3.686  0.7686 -0.0561  0.4823
 2589Sol     OW13675   1.209   1.238   7.590  0.2051  0.5767 -0.4205
 2589Sol     HW13676   1.284   1.207   7.641 -0.5857  1.2582  1.1887
 2589Sol     HW13677   1.133   1.219   7.645 -0.5790  2.2684 -0.8914
 2589Sol     MW13678   1.209   1.233   7.599  0.3206  0.4066 -0.2556
 2590Sol     OW13679   1.696   0.372   5.069 -0.4645 -0.4313  0.0873
 2590Sol     HW13680   1.683   0.279   5.050 -1.4169 -0.3863  0.5147
 2590Sol     HW13681   1.784   0.391   5.037 -0.3387 -1.4387 -0.1642
 2590Sol     MW13682   1.702   0.366   5.064 -0.4374  0.4317  0.2874
 2591Sol     OW13683   0.343   0.314   6.050 -0.2899  0.1141  0.1860
 2591Sol     HW13684   0.317   0.243   6.109  0.0134  1.5829  2.1414
 2591Sol     HW13685   0.302   0.292   5.966 -2.6454 -0.8445  1.5446
 2591Sol     MW13686   0.337   0.306   6.048  0.5201 -0.1387  0.4913
 2592Sol     OW13687   2.697   1.311   2.109 -0.0573  0.3225 -0.0149
 2592Sol     HW13688   2.637   1.279   2.042 -0.1853  0.9256 -0.1918
 2592Sol     HW13689   2.641   1.359   2.170 -0.1095 -1.1242  1.1226
 2592Sol     MW13690   2.687   1.312   2.109  0.3053 -0.1545 -0.2188
 2593Sol     OW13691   1.027   3.200   2.737 -0.1576 -0.1433  0.2674
 2593Sol     HW13692   0.980   3.127   2.778 -1.2550  0.6367  0.4144
 2593Sol     HW13693   0.962   3.270   2.731  0.8197  0.7437 -0.0931
 2593Sol     MW13694   1.017   3.200   2.740 -0.0086 -0.4569 -0.7998
 2594Sol     OW13695   1.691   2.988   2.771 -0.0107  0.0137  0.6363
 2594Sol     HW13696   1.719   3.017   2.857  1.4693 -0.8841  0.4927
 2594Sol     HW13697   1.607   3.031   2.756 -1.2518 -1.3460  3.3415
 2594Sol     MW13698   1.686   2.994   2.777  0.3664 -0.1114 -0.4677
 2595Sol     OW13699   0.691   1.747   6.800  0.2535 -0.7891 -0.2436
 2595Sol     HW13700   0.732   1.661   6.813  0.1842 -0.9758 -1.2028
 2595Sol     HW13701   0.601   1.736   6.829  0.9569 -0.2641  2.2812
 2595Sol     MW13702   0.687   1.738   6.803  0.2459  0.0915  0.4846
 2596Sol     OW13703   0.463   3.322   3.256  0.0729 -0.1283 -1.1257
 2596Sol     HW13704   0.494   3.264   3.326  0.0420 -1.1951 -1.9917
 2596Sol     HW13705   0.486   3.410   3.287 -0.0829 -0.5756  0.3007
 2596Sol     MW13706   0.468   3.325   3.265 -0.3884 -0.0270  0.2920
 2597Sol     OW13707   1.004   3.002   2.071  0.6846  0.4295 -0.0287
 2597Sol     HW13708   1.006   3.095   2.094  0.1429  0.4305  0.0265
 2597Sol     HW13709   1.000   2.956   2.155 -3.3641  0.4941 -0.0774
 2597Sol     MW13710   1.004   3.006   2.080  0.6009  0.0993  0.0854
 2598Sol     OW13711   2.424   0.820   2.545  0.3277 -0.0791  0.3260
 2598Sol     HW13712   2.468   0.737   2.565 -3.6885 -2.4967 -0.1459
 2598Sol     HW13713   2.421   0.824   2.449 -1.1080 -0.4013  0.3323
 2598Sol     MW13714   2.427   0.813   2.538  0.1696 -0.2094  0.0617
 2599Sol     OW13715   0.696   2.099   7.672 -0.0593  0.1000 -0.3880
 2599Sol     HW13716   0.613   2.063   7.704 -0.3739  0.7308 -0.4867
 2599Sol     HW13717   0.754   2.023   7.666 -0.4843 -0.2733  0.1370
 2599Sol     MW13718   0.694   2.089   7.674 -0.1575  0.0061  0.1597
 2600Sol     OW13719   0.822   2.760   7.937  0.4084 -0.5241 -0.6740
 2600Sol     HW13720   0.764   2.685   7.925  0.8997 -1.1058  0.4927
 2600Sol     HW13721   0.764   2.836   7.937 -0.3676 -1.1104  0.5688
 2600Sol     MW13722   0.812   2.760   7.936  0.0689 -1.0225 -0.4315
 2601Sol     OW13723   0.873   1.132   8.070  0.2161  0.3973  0.1611
 2601Sol     HW13724   0.915   1.192   8.008  0.3979  1.4260  1.2694
 2601Sol     HW13725   0.945   1.102   8.126  0.1260 -0.8671 -0.3779
 2601Sol     MW13726   0.883   1.135   8.069  0.2050  0.2108  0.2748
 2602Sol     OW13727   2.959   0.584   4.430 -0.3740 -0.1650 -0.5569
 2602Sol     HW13728   3.042   0.573   4.384  0.6374 -0.9303  1.3918
 2602Sol     HW13729   2.960   0.516   4.498 -1.7254  1.0365  0.6981
 2602Sol     MW13730   2.967   0.577   4.432  0.9242  0.3977  0.2285
 2603Sol     OW13731   0.914   3.051   2.957 -0.0467 -0.4810  0.3127
 2603Sol     HW13732   0.901   2.958   2.935 -0.5604 -0.1352 -0.8845
 2603Sol     HW13733   0.958   3.049   3.042 -2.9989 -1.7892  1.9018
 2603Sol     MW13734   0.916   3.042   2.962  0.2439  0.0991  0.0312
 2604Sol     OW13735   1.391   0.940   6.054 -0.6206  0.1037  0.2368
 2604Sol     HW13736   1.417   0.984   6.135 -0.0310 -0.5884  0.4360
 2604Sol     HW13737   1.296   0.932   6.059 -0.4561 -1.2698  1.5641
 2604Sol     MW13738   1.385   0.943   6.062  0.4816  1.0964 -0.4800
 2605Sol     OW13739   0.152   2.879   2.068  0.1767 -0.0436 -0.0878
 2605Sol     HW13740   0.078   2.844   2.018  0.3239 -0.8147  0.2179
 2605Sol     HW13741   0.125   2.873   2.159 -0.5031  2.3277 -0.0993
 2605Sol     MW13742   0.143   2.875   2.071  0.3640  0.1624 -0.1725
 2606Sol     OW13743   2.177   0.122   3.892 -0.4102 -0.9956 -0.6850
 2606Sol     HW13744   2.103   0.181   3.907 -0.9113 -1.7686 -0.0660
 2606Sol     HW13745   2.240   0.174   3.843 -0.1816  0.5516  1.2139
 2606Sol     MW13746   2.176   0.132   3.889  0.6138 -0.4306 -0.0992
 2607Sol     OW13747   2.584   3.206   5.740  0.8320  0.0890 -0.5625
 2607Sol     HW13748   2.619   3.288   5.775  1.6232 -0.4536 -0.0520
 2607Sol     HW13749   2.540   3.165   5.815  3.6210 -1.6732  0.2072
 2607Sol     MW13750   2.583   3.210   5.750  0.0704 -0.6915  0.5283
 2608Sol     OW13751   0.604   0.968   4.492 -0.4428  0.2107  0.0182
 2608Sol     HW13752   0.627   0.910   4.565  1.1796  1.3080  0.4094
 2608Sol     HW13753   0.553   1.039   4.533  0.4783  0.8331  0.0966
 2608Sol     MW13754   0.601   0.969   4.502  0.7720  0.3271 -0.1871
 2609Sol     OW13755   2.512   2.056   8.258 -0.6585  0.0533 -0.4769
 2609Sol     HW13756   2.477   2.026   8.174  0.3839  1.0007 -1.2747
 2609Sol     HW13757   2.516   2.152   8.249 -1.2911  0.2321  0.9570
 2609Sol     MW13758   2.509   2.062   8.250 -0.1627 -0.1475 -0.2755
 2610Sol     OW13759   0.078   1.292   6.638 -0.1405 -0.1754  0.0708
 2610Sol     HW13760   0.133   1.354   6.687 -1.3243  0.9639 -0.0379
 2610Sol     HW13761   0.115   1.293   6.550 -0.3931  0.6657 -0.0303
 2610Sol     MW13762   0.086   1.298   6.635  0.3472  0.0760  0.1830
 2611Sol     OW13763   0.833   3.393   7.793  0.3952 -0.0707  0.2509
 2611Sol     HW13764   0.905   3.364   7.738  0.2611  0.0580  0.0031
 2611Sol     HW13765   0.801   3.473   7.750  0.4981  0.2095  0.6952
 2611Sol     MW13766   0.836   3.398   7.784 -0.0087  0.5871 -0.5334
 2612Sol     OW13767   1.755   2.258   5.393  0.8585  0.1281  0.6245
 2612Sol     HW13768   1.801   2.308   5.325  2.9820 -1.5593  0.7823
 2612Sol     HW13769   1.761   2.313   5.471 -0.6248  1.5693 -0.2129
 2612Sol     MW13770   1.760   2.268   5.394 -0.0456 -0.0796 -0.0266
 2613Sol     OW13771   2.540   0.878   7.304 -0.3193 -0.0043 -0.2149
 2613Sol     HW13772   2.562   0.971   7.299 -0.7650  0.2833  2.4126
 2613Sol     HW13773   2.578   0.840   7.225 -0.3236  2.4366 -1.4501
 2613Sol     MW13774   2.545   0.883   7.296  0.6689 -0.9032 -0.1821
 2614Sol     OW13775   0.518   2.422   7.945  0.0287  0.4990  0.2623
 2614Sol     HW13776   0.588   2.358   7.938  1.1478  1.8411 -1.1737
 2614Sol     HW13777   0.439   2.373   7.923  0.6786 -0.6930  0.5256
 2614Sol     MW13778   0.517   2.412   7.943  0.6518  0.6396  0.0324
 2615Sol     OW13779   2.440   1.313   4.977 -0.5306 -0.4603  0.0463
 2615Sol     HW13780   2.425   1.379   5.045  0.3734  0.4187 -0.5854
 2615Sol     HW13781   2.520   1.343   4.933 -0.1733 -1.9245 -0.3161
 2615Sol     MW13782   2.446   1.322   4.979  0.4112 -0.1514 -0.6942
 2616Sol     OW13783   2.004   2.370   4.233 -0.3087 -0.3339  0.3615
 2616Sol     HW13784   1.916   2.339   4.256  0.2728 -1.9071  0.5117
 2616Sol     HW13785   2.055   2.354   4.312  0.3245 -0.2795 -0.0412
 2616Sol     MW13786   2.000   2.366   4.242  0.3838  0.0543  0.0020
 2617Sol     OW13787   0.559   0.758   5.629  0.1354 -0.0863  0.5730
 2617Sol     HW13788   0.613   0.686   5.596  1.5539  1.1711  0.0279
 2617Sol     HW13789   0.476   0.750   5.582  0.3402 -1.2565  0.3953
 2617Sol     MW13790   0.557   0.751   5.622 -0.5488  0.1328  0.4619
 2618Sol     OW13791   0.249   0.128   6.238  0.5769  0.1564  0.0767
 2618Sol     HW13792   0.244   0.040   6.201 -0.4788  0.9290 -1.6661
 2618Sol     HW13793   0.178   0.132   6.302 -0.6709  0.3925 -1.3051
 2618Sol     MW13794   0.242   0.121   6.240  0.0144  0.2366  0.0320
 2619Sol     OW13795   2.392   2.189   8.766  0.0067  0.6068 -0.5567
 2619Sol     HW13796   2.380   2.186   8.671 -0.9800  0.6809 -0.4379
 2619Sol     HW13797   2.312   2.151   8.801  0.4117  0.4910  0.2498
 2619Sol     MW13798   2.384   2.185   8.760  0.5577  0.5009 -0.5799
 2620Sol     OW13799   1.910   2.181   9.341  0.5071  0.2910  0.2579
 2620Sol     HW13800   1.970   2.117   9.379  0.3142  0.2526  0.4993
 2620Sol     HW13801   1.895   2.150   9.252 -0.5053 -0.6444  0.7414
 2620Sol     MW13802   1.914   2.173   9.337  0.0580  0.0617  0.4647
 2621Sol     OW13803   0.444   1.181   5.436  0.1771  0.3071 -0.4195
 2621Sol     HW13804   0.505   1.123   5.482  0.7573 -0.1204 -1.7060
 2621Sol     HW13805   0.488   1.267   5.436 -0.3498  0.5926  0.8293
 2621Sol     MW13806   0.454   1.184   5.441 -0.0104 -0.1914  0.2353
 2622Sol     OW13807   0.736   0.714   1.916  0.2345 -0.8275 -0.8536
 2622Sol     HW13808   0.714   0.737   2.007  2.1047  2.3114 -1.0901
 2622Sol     HW13809   0.771   0.625   1.922  0.4264 -0.6414  1.5611
 2622Sol     MW13810   0.737   0.708   1.925  0.6510 -0.0876 -0.2067
 2623Sol     OW13811   2.308   3.186   2.160  0.5309  0.0842  0.2199
 2623Sol     HW13812   2.389   3.147   2.127  0.1067 -0.6146 -0.0049
 2623Sol     HW13813   2.328   3.211   2.250  0.7187 -0.9303  0.4634
 2623Sol     MW13814   2.317   3.184   2.165 -0.4379 -0.9977 -1.1803
 2624Sol     OW13815   2.382   2.905   3.943  0.4835 -0.5320 -0.3231
 2624Sol     HW13816   2.404   2.995   3.967 -1.8230 -0.1621  0.4402
 2624Sol     HW13817   2.451   2.880   3.880  1.2969  1.6523 -0.3381
 2624Sol     MW13818   2.391   2.911   3.939  0.1293 -0.4637 -0.2981
 2625Sol     OW13819   0.943   1.239   8.674 -0.1606  0.3262 -0.1534
 2625Sol     HW13820   0.980   1.154   8.649  1.7242  1.4120 -1.2034
 2625Sol     HW13821   0.869   1.252   8.614 -0.6709 -0.7135  0.2378
 2625Sol     MW13822   0.940   1.232   8.666  0.0252  0.2909  0.6366
 2626Sol     OW13823   1.573   3.326   6.706  0.0260 -0.2088 -0.2653
 2626Sol     HW13824   1.525   3.258   6.660 -0.1678  0.0141 -0.3958
 2626Sol     HW13825   1.587   3.394   6.640 -1.4875  0.7363  0.3541
 2626Sol     MW13826   1.570   3.326   6.696  0.2146  0.1243 -0.1067
 2627Sol     OW13827   0.750   1.856   4.183  0.0207  0.2843  0.5914
 2627Sol     HW13828   0.658   1.834   4.197  0.1817 -0.0617  1.1161
 2627Sol     HW13829   0.789   1.776   4.149 -0.6065  1.4302 -3.0299
 2627Sol     MW13830   0.745   1.847   4.181 -0.3990 -0.1046 -0.4675
 2628Sol     OW13831   2.630   1.498   5.278  0.0437  0.9112 -0.1473
 2628Sol     HW13832   2.557   1.439   5.300 -0.9876  2.2026 -0.0802
 2628Sol     HW13833   2.708   1.451   5.308 -0.6163 -1.0776 -1.3888
 2628Sol     MW13834   2.630   1.488   5.283  0.3938 -0.6914  0.3768
 2629Sol     OW13835   1.404   2.559   2.130  0.1116  0.2311  0.0952
 2629Sol     HW13836   1.325   2.612   2.130 -0.1063 -0.0999  1.0637
 2629Sol     HW13837   1.475   2.622   2.143  0.0163  0.5214 -0.7363
 2629Sol     MW13838   1.404   2.569   2.131  0.3637  0.3379  0.0110
 2630Sol     OW13839   2.954   1.791   3.823  0.8096 -0.1861 -0.5295
 2630Sol     HW13840   2.935   1.755   3.736  0.5404  0.8647 -0.9232
 2630Sol     HW13841   2.951   1.716   3.882 -0.4522 -0.6856 -1.2088
 2630Sol     MW13842   2.952   1.781   3.820 -0.0295  0.0600  0.3793
 2631Sol     OW13843   2.524   1.856   2.651  0.0367  0.0625  0.3658
 2631Sol     HW13844   2.499   1.789   2.714 -0.0478 -0.4949 -0.2493
 2631Sol     HW13845   2.571   1.807   2.582 -1.4259  0.3907 -0.8926
 2631Sol     MW13846   2.526   1.845   2.650  0.5607  0.2468  0.7494
 2632Sol     OW13847   1.837   0.390   2.013 -0.9769 -0.5239  0.2908
 2632Sol     HW13848   1.782   0.311   2.010 -0.0552 -1.1214 -2.1984
 2632Sol     HW13849   1.926   0.356   2.022 -0.5480  0.2169 -1.1122
 2632Sol     MW13850   1.840   0.380   2.014  0.2302 -0.2277  0.3301
 2633Sol     OW13851   2.471   3.138   3.140 -0.2824 -0.3111 -0.2401
 2633Sol     HW13852   2.423   3.066   3.180 -0.4445  0.7148  1.4262
 2633Sol     HW13853   2.563   3.116   3.153 -0.3358  0.1092  0.8610
 2633Sol     MW13854   2.475   3.129   3.144 -0.8695 -0.1160 -0.3898
 2634Sol     OW13855   0.503   0.065   9.289 -0.1949 -0.1371 -0.3046
 2634Sol     HW13856   0.494   0.153   9.326  1.1740  0.1496 -0.6338
 2634Sol     HW13857   0.421   0.051   9.242 -0.8828  0.5228  0.6663
 2634Sol     MW13858   0.495   0.072   9.288 -0.0452 -0.1314 -0.6410
 2635Sol     OW13859   1.728   3.435   3.506  0.3062 -0.5047 -0.4869
 2635Sol     HW13860   1.703   3.475   3.589 -1.2522 -1.9270 -0.2555
 2635Sol     HW13861   1.684   3.489   3.440  1.1149  0.3023 -0.3787
 2635Sol     MW13862   1.722   3.444   3.507 -0.6815 -0.1019  0.5202
 2636Sol     OW13863   0.804   1.269   7.649  0.0250 -0.0731 -0.3594
 2636Sol     HW13864   0.797   1.196   7.587 -3.0831 -0.7644  0.7195
 2636Sol     HW13865   0.721   1.267   7.697  0.5604  3.2072  0.7768
 2636Sol     MW13866   0.796   1.262   7.648  0.1748 -0.2761  0.5290
 2637Sol     OW13867   0.225   0.026   4.437 -0.1507  0.2630  0.6550
 2637Sol     HW13868   0.162   0.093   4.462 -0.8684 -0.2118  0.1405
 2637Sol     HW13869   0.172  -0.045   4.401  0.6795 -0.0909  0.0993
 2637Sol     MW13870   0.215   0.026   4.436  0.3407 -0.3655  0.1895
 2638Sol     OW13871   1.846   2.983   8.417 -0.1240  0.1038  0.1398
 2638Sol     HW13872   1.897   2.904   8.401  1.7936  1.1035  1.1321
 2638Sol     HW13873   1.827   2.981   8.511  1.5630  1.7437  0.5421
 2638Sol     MW13874   1.849   2.976   8.424  0.6571  0.2538 -0.4908
 2639Sol     OW13875   2.975   1.527   7.064  0.1046  0.5110  0.5182
 2639Sol     HW13876   3.030   1.508   6.988  0.0358  1.2248  0.2867
 2639Sol     HW13877   3.037   1.547   7.134  0.2047 -1.2663  0.9758
 2639Sol     MW13878   2.986   1.527   7.063 -0.1961 -0.5414 -0.5434
 2640Sol     OW13879   2.321   1.652   3.537 -0.0833 -0.0871 -0.2488
 2640Sol     HW13880   2.282   1.681   3.454 -0.4946  0.1973  0.0449
 2640Sol     HW13881   2.254   1.595   3.576 -0.3966  0.7673  0.4734
 2640Sol     MW13882   2.311   1.649   3.533 -0.7180  0.1939  0.0190
 2641Sol     OW13883   2.291   0.126   1.926 -0.6939 -0.0248  0.3272
 2641Sol     HW13884   2.306   0.143   1.833  0.2908  1.5265  0.7475
 2641Sol     HW13885   2.370   0.081   1.955 -0.5391  0.4308  0.6283
 2641Sol     MW13886   2.299   0.124   1.920 -0.2397  0.1784  0.7312
 2642Sol     OW13887   2.000   2.354   1.999 -0.4854  0.0890  0.7068
 2642Sol     HW13888   2.074   2.345   2.060  1.3008  0.4142 -1.3214
 2642Sol     HW13889   2.008   2.279   1.940 -1.1125  0.7258 -0.1983
 2642Sol     MW13890   2.008   2.347   1.999 -0.2074  0.3034 -0.8965
 2643Sol     OW13891   0.005   2.801   5.113 -0.8338  0.4626  0.1233
 2643Sol     HW13892  -0.066   2.810   5.050 -0.5244 -0.6310 -0.3988
 2643Sol     HW13893  -0.027   2.844   5.192 -2.2070 -0.3056 -0.0014
 2643Sol     MW13894  -0.004   2.806   5.114  0.5753 -0.6759  0.3049
 2644Sol     OW13895   1.968   1.472   5.825  0.2725 -0.3443 -0.0306
 2644Sol     HW13896   1.939   1.498   5.912 -1.2796  1.2087 -0.9915
 2644Sol     HW13897   2.053   1.514   5.814 -0.0754  0.4320  0.2606
 2644Sol     MW13898   1.973   1.478   5.832  0.3278 -0.2693 -0.2784
 2645Sol     OW13899   0.820   1.350   2.239  0.2045  0.3549 -0.1402
 2645Sol     HW13900   0.895   1.295   2.263  0.2261  0.5098  0.1563
 2645Sol     HW13901   0.809   1.337   2.145 -2.0111 -2.9311  0.5132
 2645Sol     MW13902   0.826   1.344   2.233 -0.5924  0.6682 -0.1020
 2646Sol     OW13903   2.987   0.957   3.707  0.2302 -0.1359  0.1186
 2646Sol     HW13904   3.045   0.987   3.777 -0.4754  0.2440  0.5537
 2646Sol     HW13905   3.044   0.908   3.647  0.8965 -0.2060  0.8020
 2646Sol     MW13906   2.997   0.955   3.708  0.6829  0.2176  0.1051
 2647Sol     OW13907   2.271   0.151   4.512 -0.6514 -0.0283 -0.3122
 2647Sol     HW13908   2.346   0.208   4.495 -0.5385 -0.3753 -0.9860
 2647Sol     HW13909   2.202   0.184   4.455 -1.3970  1.0359  1.1719
 2647Sol     MW13910   2.272   0.159   4.505  0.1742  0.6409  0.3112
 2648Sol     OW13911   2.791   0.476   9.033  0.4035 -0.1627  0.8219
 2648Sol     HW13912   2.885   0.489   9.019  0.5522 -0.5090  1.5349
 2648Sol     HW13913   2.751   0.555   8.995  1.0671  0.6122  1.7010
 2648Sol     MW13914   2.796   0.484   9.028 -0.5106  0.4860  0.4921
 2649Sol     OW13915   1.928   0.550   8.202 -0.5982  0.5179  0.4357
 2649Sol     HW13916   2.016   0.538   8.239 -0.7161 -0.6183  0.3883
 2649Sol     HW13917   1.942   0.551   8.107 -0.6866 -0.2758  0.4043
 2649Sol     MW13918   1.937   0.549   8.197  0.8667 -1.0917  0.0056
 2650Sol     OW13919   1.370   2.512   9.572 -0.1140  0.2238  0.0353
 2650Sol     HW13920   1.313   2.446   9.532  0.9135 -1.7396  1.6954
 2650Sol     HW13921   1.449   2.463   9.597  0.9239  2.2184  0.7547
 2650Sol     MW13922   1.372   2.502   9.571  0.3433  0.1840 -0.4407
 2651Sol     OW13923   2.446   0.743   6.523 -0.0647  0.8155 -0.3380
 2651Sol     HW13924   2.503   0.690   6.467  0.1964 -0.1925  0.8721
 2651Sol     HW13925   2.393   0.679   6.571 -1.0466  1.7014 -0.2168
 2651Sol     MW13926   2.446   0.733   6.522 -0.1068  0.0608 -0.0035
 2652Sol     OW13927   2.063   0.557   2.458 -0.1575  0.6367  0.2516
 2652Sol     HW13928   2.089   0.523   2.544  2.4780  0.9233 -0.3679
 2652Sol     HW13929   2.072   0.652   2.466 -0.1574  0.6808 -0.2458
 2652Sol     MW13930   2.066   0.563   2.466 -0.3618  0.5751  0.2621
 2653Sol     OW13931   1.263   1.350   6.033 -0.1776  0.1164  1.0320
 2653Sol     HW13932   1.235   1.403   5.958 -1.9643 -2.3885 -0.1608
 2653Sol     HW13933   1.358   1.351   6.030 -0.2235  0.8972 -0.6817
 2653Sol     MW13934   1.269   1.355   6.026 -0.4063 -0.2986 -1.0492
 2654Sol     OW13935   2.710   1.124   5.555 -0.3971  0.3929  0.1623
 2654Sol     HW13936   2.802   1.150   5.557 -0.1153 -0.6446  0.8962
 2654Sol     HW13937   2.663   1.198   5.593  0.4211 -0.2493  2.4814
 2654Sol     MW13938   2.714   1.133   5.558  0.4111  0.2852  0.1729
 2655Sol     OW13939   0.534   0.549   2.199 -0.0518  0.2012  0.5678
 2655Sol     HW13940   0.585   0.627   2.223  1.4613  0.0762 -1.9643
 2655Sol     HW13941   0.454   0.584   2.159  0.7351  0.4961 -0.7860
 2655Sol     MW13942   0.532   0.559   2.197  0.0438  0.8254  0.3498
 2656Sol     OW13943   1.781   0.765   3.526  0.2145 -0.3448  0.2420
 2656Sol     HW13944   1.860   0.727   3.563  1.1426 -0.0185 -1.3612
 2656Sol     HW13945   1.767   0.845   3.576  0.5475 -0.7045  0.9230
 2656Sol     MW13946   1.786   0.768   3.534 -0.4707 -0.1856 -1.2758
 2657Sol     OW13947   0.892   1.054   7.452 -0.5200 -0.0419 -0.2530
 2657Sol     HW13948   0.915   1.093   7.367 -1.5482 -1.4323 -1.1870
 2657Sol     HW13949   0.976   1.047   7.498 -0.0320  1.3087 -0.8889
 2657Sol     MW13950   0.902   1.057   7.448 -0.6487  0.7245  0.0974
 2658Sol     OW13951   0.138   2.164   6.780 -0.2033  0.0961 -0.6731
 2658Sol     HW13952   0.188   2.224   6.725 -0.1668  0.7221  0.0413
 2658Sol     HW13953   0.156   2.077   6.743  2.8150  0.1161  0.6478
 2658Sol     MW13954   0.144   2.161   6.772  0.0530 -0.2407  0.0717
 2659Sol     OW13955   3.295   0.802   6.114 -0.3210 -0.1510  0.3749
 2659Sol     HW13956   3.367   0.778   6.055 -0.3881 -1.3044  0.7455
 2659Sol     HW13957   3.243   0.865   6.064  0.8031  0.4947  0.0042
 2659Sol     MW13958   3.297   0.805   6.104 -0.4145 -0.5944  0.1956
 2660Sol     OW13959   2.190   3.197   6.970 -0.0058  0.2304 -0.2391
 2660Sol     HW13960   2.191   3.232   7.059 -0.3022  1.6059 -0.7652
 2660Sol     HW13961   2.103   3.159   6.961  0.0284  0.0767  0.0696
 2660Sol     MW13962   2.183   3.197   6.977 -0.1250  0.7657 -0.4354
 2661Sol     OW13963   0.239   2.321   6.573  0.5031 -0.6914 -0.2475
 2661Sol     HW13964   0.151   2.336   6.538  0.8328 -1.3330 -1.4014
 2661Sol     HW13965   0.271   2.408   6.597 -1.4776 -0.7196  2.7860
 2661Sol     MW13966   0.234   2.330   6.572 -0.0062 -0.1675  0.0188
 2662Sol     OW13967   2.530   1.316   8.918  0.7842 -0.1953 -0.2820
 2662Sol     HW13968   2.482   1.240   8.952 -1.2147  1.4071  0.5805
 2662Sol     HW13969   2.603   1.278   8.870 -0.6237 -2.7029 -0.5519
 2662Sol     MW13970   2.532   1.305   8.917 -0.8356 -0.5291 -0.7718
 2663Sol     OW13971   3.235   0.851   8.947  0.2826  0.4052  0.2368
 2663Sol     HW13972   3.242   0.789   8.874  1.0630 -1.0174  1.5077
 2663Sol     HW13973   3.157   0.823   8.995  0.9289  0.0833  1.1077
 2663Sol     MW13974   3.229   0.843   8.944 -0.2479 -0.1636  0.6450
 2664Sol     OW13975   0.222   1.025   3.994  0.0699 -0.3662  0.0924
 2664Sol     HW13976   0.188   1.110   4.022 -2.3151 -0.3247 -2.7365
 2664Sol     HW13977   0.265   1.043   3.910 -0.7198 -1.9930 -0.6740
 2664Sol     MW13978   0.223   1.034   3.989 -0.1226  0.4921 -0.6874
 2665Sol     OW13979   1.133   2.502   6.952 -0.1287 -0.8670 -0.1152
 2665Sol     HW13980   1.135   2.476   7.044 -1.7830 -2.3043 -0.4529
 2665Sol     HW13981   1.121   2.597   6.953  0.1812 -0.8389  1.1483
 2665Sol     MW13982   1.132   2.508   6.960  0.0757  0.0744 -0.1892
 2666Sol     OW13983   2.138   2.450   8.072 -0.1302 -0.7221 -0.0821
 2666Sol     HW13984   2.104   2.370   8.032 -3.3240  0.1231  0.7641
 2666Sol     HW13985   2.133   2.515   8.002  2.7768 -1.2817 -0.8685
 2666Sol     MW13986   2.135   2.449   8.062 -0.2295 -0.0625  0.6403
 2667Sol     OW13987   0.686   1.907   3.042 -0.0209  0.2636 -0.3064
 2667Sol     HW13988   0.619   1.968   3.011 -1.1069 -0.3839  0.6869
 2667Sol     HW13989   0.685   1.917   3.137 -0.4277 -1.4643 -0.0979
 2667Sol     MW13990   0.680   1.913   3.048 -0.2671  0.2047  0.0914
 2668Sol     OW13991   2.351   2.720   5.800 -0.3529  0.4099 -0.8508
 2668Sol     HW13992   2.295   2.643   5.807 -2.3776  1.5656 -3.4072
 2668Sol     HW13993   2.415   2.698   5.732  2.2155 -0.7864  1.8397
 2668Sol     MW13994   2.352   2.711   5.794 -0.2856 -0.5701  0.4522
 2669Sol     OW13995   2.643   3.092   8.116 -0.7277  0.1881 -0.5651
 2669Sol     HW13996   2.688   3.177   8.113  1.0663 -0.6616  1.5087
 2669Sol     HW13997   2.604   3.089   8.203  2.8017 -2.8577  1.0347
 2669Sol     MW13998   2.644   3.100   8.123 -0.4430 -0.0869  0.1427
 2670Sol     OW13999   0.367   3.267   3.931 -0.1076 -0.4449 -0.2811
 2670Sol     HW14000   0.327   3.354   3.931  0.4229 -0.1980 -0.4375
 2670Sol     HW14001   0.453   3.281   3.970  0.5561 -0.6280 -1.6608
 2670Sol     MW14002   0.371   3.276   3.935 -0.7631 -0.0253 -0.0702
 2671Sol     OW14003   1.217   2.004   4.940 -0.0322 -0.4156  0.0777
 2671Sol     HW14004   1.264   2.076   4.983 -1.8894  1.1804 -0.4495
 2671Sol     HW14005   1.265   1.989   4.858  1.2280 -0.7872  0.8850
 2671Sol     MW14006   1.225   2.009   4.936 -0.4556  1.0916 -0.5471
 2672Sol     OW14007   1.706   2.744   5.179  0.3428 -0.3099 -0.3830
 2672Sol     HW14008   1.766   2.670   5.188 -0.9616 -1.1417  1.8266
 2672Sol     HW14009   1.756   2.819   5.211  0.8080 -0.6789 -0.2269
 2672Sol     MW14010   1.716   2.744   5.182 -0.6870 -0.3610 -0.2435
 2673Sol     OW14011   3.213   2.190   8.628 -0.6032  0.0771  0.0626
 2673Sol     HW14012   3.284   2.240   8.668 -1.9621 -0.4344  3.2968
 2673Sol     HW14013   3.256   2.132   8.566  1.8841 -0.3785  2.1265
 2673Sol     MW14014   3.223   2.189   8.626  0.6703  0.3018 -0.9263
 2674Sol     OW14015   0.106   2.976   2.750  0.4517  0.0854 -0.6251
 2674Sol     HW14016   0.087   3.038   2.680 -0.3209  0.5897  0.0194
 2674Sol     HW14017   0.199   2.956   2.740  0.1141 -0.6537 -2.4255
 2674Sol     MW14018   0.113   2.980   2.743  0.4448 -0.5409 -1.4437
 2675Sol     OW14019   0.787   0.391   3.309  0.0053  0.0222 -0.6212
 2675Sol     HW14020   0.773   0.339   3.229  0.7662 -0.3456 -0.5203
 2675Sol     HW14021   0.790   0.482   3.278 -2.0654  0.0801 -0.7072
 2675Sol     MW14022   0.786   0.394   3.299  0.0998  0.4351  0.2311
 2676Sol     OW14023   0.789   1.303   2.844 -0.3332 -0.1056 -0.4820
 2676Sol     HW14024   0.694   1.295   2.832 -0.3829 -0.6996  0.2692
 2676Sol     HW14025   0.799   1.365   2.916 -0.1966 -1.1582  0.4206
 2676Sol     MW14026   0.781   1.307   2.849  0.0246  0.0573 -1.1680
 2677Sol     OW14027   2.002   3.243   2.012 -0.1566  0.2795  1.0169
 2677Sol     HW14028   1.993   3.149   2.028  1.2495 -0.1373 -0.4190
 2677Sol     HW14029   1.913   3.278   2.017 -1.0117 -1.5374 -0.8136
 2677Sol     MW14030   1.994   3.238   2.014 -0.2043 -0.2395  0.2854
 2678Sol     OW14031   1.815   1.411   5.351 -0.6770 -0.1765 -0.5025
 2678Sol     HW14032   1.756   1.485   5.334  0.8882  0.8405 -1.6234
 2678Sol     HW14033   1.829   1.413   5.445 -1.7978  0.0599 -0.3275
 2678Sol     MW14034   1.811   1.418   5.358  0.1297 -0.4889  0.0874
 2679Sol     OW14035   0.754   2.902   5.693 -0.6327 -0.4787  0.4329
 2679Sol     HW14036   0.705   2.980   5.719 -1.0803 -0.1685 -1.2277
 2679Sol     HW14037   0.820   2.891   5.761 -0.3006  1.6107  0.4985
 2679Sol     MW14038   0.756   2.908   5.701 -0.4090 -0.0763 -0.0022
 2680Sol     OW14039   2.536   0.130   3.277 -0.2968  0.1987 -0.0400
 2680Sol     HW14040   2.537   0.141   3.372 -0.1587  0.4776 -0.0708
 2680Sol     HW14041   2.622   0.163   3.249 -0.2756 -0.0326 -0.2442
 2680Sol     MW14042   2.544   0.134   3.283  0.2040 -0.1439  0.0401
 2681Sol     OW14043   2.816   2.221   2.607  1.1403  0.3411  0.0288
 2681Sol     HW14044   2.880   2.263   2.665 -1.8371 -0.5706  4.1984
 2681Sol     HW14045   2.780   2.293   2.555  3.5230  1.2720 -0.3791
 2681Sol     MW14046   2.818   2.231   2.608 -0.0940  0.4835  0.1232
 2682Sol     OW14047   3.072   1.892   9.048 -0.6114  0.1506  0.0142
 2682Sol     HW14048   3.038   1.803   9.040  1.9084 -0.8957  0.4753
 2682Sol     HW14049   3.036   1.925   9.130  1.4486 -1.8432  1.7641
 2682Sol     MW14050   3.066   1.887   9.054  0.6632  0.1368 -0.4194
 2683Sol     OW14051   2.143   1.246   5.543 -0.2285 -0.1783  0.2065
 2683Sol     HW14052   2.162   1.193   5.466  1.8362 -0.0201  0.5866
 2683Sol     HW14053   2.087   1.189   5.597 -0.6885 -0.7377 -0.8314
 2683Sol     MW14054   2.140   1.236   5.541 -0.3219  0.0157 -0.8251
 2684Sol     OW14055   2.393   3.404   3.135 -0.0859 -0.1333 -0.0588
 2684Sol     HW14056   2.432   3.318   3.148  0.5871  0.3714  1.4333
 2684Sol     HW14057   2.438   3.461   3.198 -0.5241  1.3097 -1.0106
 2684Sol     MW14058   2.400   3.402   3.142  0.0318 -0.5949  0.3655
 2685Sol     OW14059   3.025   1.935   2.817 -0.4063  0.1506 -0.1098
 2685Sol     HW14060   2.957   1.940   2.749  0.3135  2.0980 -0.7073
 2685Sol     HW14061   3.008   2.010   2.873 -0.6338 -1.1282  1.5586
 2685Sol     MW14062   3.017   1.942   2.816 -0.2787  0.4186 -0.6171
 2686Sol     OW14063   0.508   0.772   9.596 -0.2448 -0.3357 -0.3144
 2686Sol     HW14064   0.460   0.697   9.632  0.8152 -0.6484  0.4734
 2686Sol     HW14065   0.530   0.825   9.672  0.1670  0.0980 -0.7339
 2686Sol     MW14066   0.505   0.770   9.606 -0.2398 -0.7346  0.2577
 2687Sol     OW14067   1.506   1.873   2.445  0.0470 -0.1708 -0.2960
 2687Sol     HW14068   1.501   1.800   2.384  0.7937 -1.6735  1.4074
 2687Sol     HW14069   1.415   1.891   2.469  0.0018 -2.4385  1.4400
 2687Sol     MW14070   1.498   1.868   2.442  0.5195  0.3595 -0.6770
 2688Sol     OW14071   2.812   0.748   7.915 -0.5566 -0.9723  0.5658
 2688Sol     HW14072   2.879   0.719   7.854  0.6553 -0.7663  1.7827
 2688Sol     HW14073   2.827   0.697   7.995 -0.5689  0.4887  1.5305
 2688Sol     MW14074   2.819   0.741   7.917  0.4881  0.3607 -0.0465
 2689Sol     OW14075   3.001   1.905   8.451 -0.3137 -0.3998  0.2121
 2689Sol     HW14076   3.043   1.867   8.528 -0.0905 -1.1108 -0.2585
 2689Sol     HW14077   3.071   1.954   8.408  0.0188 -1.5007 -0.5165
 2689Sol     MW14078   3.011   1.906   8.454 -0.7479  0.2787 -0.1793
 2690Sol     OW14079   0.924   2.844   7.154 -0.2338  0.0466  0.0129
 2690Sol     HW14080   0.889   2.919   7.105 -0.3376  0.0148  0.0371
 2690Sol     HW14081   0.848   2.788   7.169 -0.5201  0.8095  1.5843
 2690Sol     MW14082   0.914   2.846   7.151 -0.1007  0.3921 -0.2258
 2691Sol     OW14083   1.584   1.586   8.648  1.1663  0.0293 -0.6016
 2691Sol     HW14084   1.567   1.604   8.741  0.9406 -0.6278 -0.5138
 2691Sol     HW14085   1.521   1.640   8.601  0.9694  0.0112 -0.3556
 2691Sol     MW14086   1.577   1.592   8.652 -0.9106  0.2162 -0.0553
 2692Sol     OW14087   0.641   2.283   2.446  0.0204 -0.1795  0.7813
 2692Sol     HW14088   0.594   2.207   2.481  0.8058 -0.0576  2.1528
 2692Sol     HW14089   0.732   2.267   2.471  0.5068  0.2309 -0.6945
 2692Sol     MW14090   0.645   2.275   2.452  0.0792  0.4659 -0.2525
 2693Sol     OW14091   1.911   0.666   7.062  0.5502 -0.3791 -0.0003
 2693Sol     HW14092   1.842   0.669   6.996 -0.4772  3.7896  1.1121
 2693Sol     HW14093   1.990   0.646   7.013 -0.5208  0.5267 -2.1791
 2693Sol     MW14094   1.912   0.664   7.052 -0.8293 -1.0863 -0.4280
 2694Sol     OW14095   1.666   2.574   4.315  0.3440  0.6550 -0.4634
 2694Sol     HW14096   1.699   2.497   4.361  2.4101  0.7590 -1.6984
 2694Sol     HW14097   1.650   2.543   4.225 -1.0918  1.0890 -0.3632
 2694Sol     MW14098   1.668   2.565   4.311 -0.1076 -0.5125 -0.4540
 2695Sol     OW14099   3.021   2.888   6.917 -0.2184  0.5928  0.3566
 2695Sol     HW14100   3.056   2.846   6.838  0.2213  0.4820  0.6089
 2695Sol     HW14101   2.942   2.837   6.937  0.6511 -0.5397  1.0181
 2695Sol     MW14102   3.017   2.879   6.912 -0.5311 -0.0005 -0.1059
 2696Sol     OW14103   2.360   3.077   2.894  0.4050  0.1889  0.4803
 2696Sol     HW14104   2.328   3.154   2.848  1.3737  0.6413  0.5635
 2696Sol     HW14105   2.398   3.111   2.975 -0.0613 -0.4696  0.9842
 2696Sol     MW14106   2.361   3.087   2.897 -0.0164  0.1181  0.3329
 2697Sol     OW14107   2.003   3.223   8.744 -0.0221 -0.0369 -0.2411
 2697Sol     HW14108   2.098   3.214   8.738  0.0640 -0.6949  1.6551
 2697Sol     HW14109   1.989   3.281   8.819 -1.1571 -1.5749  0.7721
 2697Sol     MW14110   2.010   3.228   8.750 -0.5573 -0.2949 -0.2434
 2698Sol     OW14111   1.665   1.816   8.404 -0.6579 -0.5118 -0.0117
 2698Sol     HW14112   1.704   1.856   8.482  0.9933  0.0678 -1.1079
 2698Sol     HW14113   1.693   1.872   8.332 -0.9195 -1.8760 -1.1880
 2698Sol     MW14114   1.671   1.824   8.405  0.8702 -0.8338  0.0566
 2699Sol     OW14115   0.451   2.089   4.897 -0.1436 -0.6139 -0.0768
 2699Sol     HW14116   0.468   2.183   4.890 -1.0478 -0.3757  0.9109
 2699Sol     HW14117   0.425   2.063   4.808  0.4480 -0.0033 -0.4331
 2699Sol     MW14118   0.450   2.095   4.888 -0.7051 -0.2895 -0.1793
 2700Sol     OW14119   0.422   1.904   3.194  0.6849 -0.3236  0.1798
 2700Sol     HW14120   0.389   1.948   3.116 -1.1053 -2.0616 -0.0776
 2700Sol     HW14121   0.382   1.951   3.267 -0.3763 -0.8153 -0.0694
 2700Sol     MW14122   0.416   1.912   3.194 -0.1533 -0.9802 -1.0579
 2701Sol     OW14123   1.438   0.884   6.783  0.5479  0.1923 -0.0864
 2701Sol     HW14124   1.466   0.947   6.717  0.9535  1.1032  0.9549
 2701Sol     HW14125   1.494   0.807   6.768 -0.3726 -0.1727 -1.7505
 2701Sol     MW14126   1.446   0.883   6.776 -0.2703 -0.3231  0.2859
 2702Sol     OW14127   0.293   1.072   8.576  0.6456 -0.2495  0.1428
 2702Sol     HW14128   0.249   1.026   8.648 -0.6337 -0.5533 -0.8336
 2702Sol     HW14129   0.248   1.156   8.571  0.5680 -0.3320 -0.4836
 2702Sol     MW14130   0.285   1.075   8.582  0.3937 -0.0964  0.0886
 2703Sol     OW14131   2.322   3.320   3.547  0.2216  0.0129  0.4023
 2703Sol     HW14132   2.248   3.320   3.486  1.1699  0.9499 -0.7480
 2703Sol     HW14133   2.373   3.242   3.522  0.9816  0.7808 -0.4662
 2703Sol     MW14134   2.320   3.313   3.539 -0.4209 -0.3520 -0.2544
 2704Sol     OW14135   3.368   0.813   8.360 -0.0537  0.4276 -0.1124
 2704Sol     HW14136   3.341   0.867   8.434  1.9464  0.2625  0.7849
 2704Sol     HW14137   3.448   0.854   8.329 -0.0754 -0.3660 -1.2514
 2704Sol     MW14138   3.373   0.821   8.364  0.6174  0.2988  0.2498
 2705Sol     OW14139   2.790   3.265   3.721 -0.2613  0.2923 -0.2448
 2705Sol     HW14140   2.883   3.253   3.701 -0.2780  2.1151 -1.4870
 2705Sol     HW14141   2.774   3.206   3.794  1.3662 -1.6231 -1.3932
 2705Sol     MW14142   2.797   3.259   3.726 -0.1117  0.2226  0.0477
 2706Sol     OW14143   2.734   3.210   8.916 -0.6219 -0.4653  0.2068
 2706Sol     HW14144   2.688   3.187   8.997  0.6361 -0.9125  0.8081
 2706Sol     HW14145   2.815   3.158   8.919 -0.1101  0.2547 -0.8658
 2706Sol     MW14146   2.737   3.203   8.924 -0.4049  0.8809 -0.7924
 2707Sol     OW14147   0.881   3.331   8.243 -0.4330 -0.5563 -0.1424
 2707Sol     HW14148   0.896   3.317   8.336 -3.0880  0.4414  0.4511
 2707Sol     HW14149   0.969   3.337   8.206  0.6549 -0.6847  2.3232
 2707Sol     MW14150   0.891   3.330   8.248  0.2762  0.3658 -0.1218
 2708Sol     OW14151   0.540   0.938   9.915  0.2218 -0.2535  0.3241
 2708Sol     HW14152   0.496   1.023   9.914  1.2361  0.3121  1.7869
 2708Sol     HW14153   0.473   0.876   9.946 -0.6823 -0.1007 -1.2822
 2708Sol     MW14154   0.530   0.940   9.918 -0.0951  0.6886  0.2278
 2709Sol     OW14155   1.762   3.318   6.319 -0.0660  0.1668 -0.0403
 2709Sol     HW14156   1.682   3.269   6.301 -0.0350  0.0813  0.0582
 2709Sol     HW14157   1.735   3.386   6.381 -0.6258  1.7444 -1.9427
 2709Sol     MW14158   1.752   3.320   6.323  0.2230  0.0905  0.1474
 2710Sol     OW14159   2.055   2.751   3.428 -0.8223  0.1952  0.3086
 2710Sol     HW14160   1.968   2.723   3.454 -0.9342  0.9188  0.7315
 2710Sol     HW14161   2.112   2.679   3.454 -1.4508 -0.8761 -1.2099
 2710Sol     MW14162   2.053   2.742   3.433  0.3498 -0.0159  0.3105
 2711Sol     OW14163   0.286   2.119   7.005  0.4122 -0.0580  0.5634
 2711Sol     HW14164   0.344   2.192   7.027 -0.5135  0.9603 -0.3208
 2711Sol     HW14165   0.240   2.148   6.926 -0.7409 -1.1642  0.8163
 2711Sol     MW14166   0.287   2.128   7.000 -0.2235 -0.1889 -0.1751
 2712Sol     OW14167   0.218   1.429   3.893  0.6861  0.3953 -0.1053
 2712Sol     HW14168   0.161   1.355   3.916  2.6177 -1.2812 -0.6024
 2712Sol     HW14169   0.201   1.494   3.961 -0.1419 -1.0017  1.0556
 2712Sol     MW14170   0.211   1.428   3.901 -0.5782  0.1568  0.4727
 2713Sol     OW14171   0.505   0.392   5.321 -0.0607  0.5296 -0.3381
 2713Sol     HW14172   0.549   0.464   5.366 -0.2606  0.8828 -0.7130
 2713Sol     HW14173   0.558   0.377   5.243  1.7543 -1.7431  1.2450
 2713Sol     MW14174   0.514   0.397   5.318 -0.3605  0.5298 -0.1027
 2714Sol     OW14175   0.139   1.715   4.980 -0.0786  0.2580  0.0612
 2714Sol     HW14176   0.091   1.675   5.053 -1.6284  1.9350 -0.0170
 2714Sol     HW14177   0.143   1.808   5.002  1.2858  0.4544 -0.9802
 2714Sol     MW14178   0.135   1.720   4.989 -0.1445  0.8662 -0.1626
 2715Sol     OW14179   3.298   2.280   4.486  0.6120 -0.3751  0.5154
 2715Sol     HW14180   3.347   2.329   4.551  0.6760  0.2633 -0.0078
 2715Sol     HW14181   3.356   2.274   4.411  0.2811 -0.5107  0.2673
 2715Sol     MW14182   3.307   2.283   4.485  0.5700 -0.0146  0.2858
 2716Sol     OW14183   2.623   1.912   8.461 -0.3957 -0.2618  0.1036
 2716Sol     HW14184   2.688   1.974   8.494 -0.5662 -0.1635  0.2576
 2716Sol     HW14185   2.589   1.953   8.382 -0.8251  0.0512  0.4442
 2716Sol     MW14186   2.626   1.921   8.457  0.6142 -0.0590 -0.5994
 2717Sol     OW14187   2.147   1.880   9.134 -0.3817  0.3363  0.1585
 2717Sol     HW14188   2.087   1.878   9.059 -0.9483 -0.7431  0.6391
 2717Sol     HW14189   2.092   1.899   9.209 -0.4656 -2.5533  0.8957
 2717Sol     MW14190   2.137   1.881   9.134  1.0489  0.2909 -0.6000
 2718Sol     OW14191   0.063   1.459   7.286 -0.2131  0.2097  0.1501
 2718Sol     HW14192   0.126   1.453   7.358 -0.7281 -1.1406  0.5124
 2718Sol     HW14193   0.011   1.536   7.306  1.8673  1.8601 -0.6119
 2718Sol     MW14194   0.064   1.465   7.294 -0.2921 -0.7900 -0.0371
 2719Sol     OW14195   2.258   0.484   7.857  0.5697 -0.1197  0.0253
 2719Sol     HW14196   2.275   0.484   7.951  0.4625  0.1364  0.0460
 2719Sol     HW14197   2.254   0.392   7.832  1.4153 -0.1886  0.1292
 2719Sol     MW14198   2.259   0.476   7.863  0.2129 -0.0480  0.0471
 2720Sol     OW14199   0.624   0.111   5.325 -0.1771 -0.0956  0.1467
 2720Sol     HW14200   0.623   0.039   5.388  1.6407 -0.0279  0.3050
 2720Sol     HW14201   0.549   0.165   5.348  0.1805 -0.3469  1.9453
 2720Sol     MW14202   0.618   0.110   5.333 -0.2732 -0.0818 -0.3815
 2721Sol     OW14203   1.402   2.071   5.359 -0.6421 -0.0133 -0.2118
 2721Sol     HW14204   1.341   2.103   5.293  0.5591 -0.6045 -1.6298
 2721Sol     HW14205   1.348   2.018   5.418 -2.2858  3.0100  1.0800
 2721Sol     MW14206   1.392   2.069   5.359 -0.4854 -0.3480 -0.3683
 2722Sol     OW14207   2.278   1.570   4.147 -0.2019 -0.1383 -0.0370
 2722Sol     HW14208   2.302   1.630   4.076 -1.2706  0.4706  0.1001
 2722Sol     HW14209   2.195   1.605   4.180  0.3083 -0.4044  1.5368
 2722Sol     MW14210   2.272   1.579   4.143  0.3724 -0.4445 -0.1327
 2723Sol     OW14211   2.755   3.147   3.231  0.6284 -0.2072  0.0094
 2723Sol     HW14212   2.777   3.240   3.233  0.4345 -0.1521 -0.4202
 2723Sol     HW14213   2.760   3.120   3.323  0.3022  0.3177  0.1883
 2723Sol     MW14214   2.757   3.153   3.240 -0.0087  0.3125  0.3323
 2724Sol     OW14215   3.058   3.247   2.159 -0.2573  0.3199 -0.2325
 2724Sol     HW14216   2.978   3.293   2.133 -1.3770 -0.0300  2.4690
 2724Sol     HW14217   3.034   3.199   2.238  2.2028 -1.0734 -0.2791
 2724Sol     MW14218   3.049   3.247   2.163 -0.0942  0.0567 -0.0123
 2725Sol     OW14219   1.786   0.826   6.620  0.7371  0.3400  0.1363
 2725Sol     HW14220   1.878   0.846   6.602  1.4109 -1.2738  1.6877
 2725Sol     HW14221   1.752   0.795   6.536  1.8182  0.1840 -0.2560
 2725Sol     MW14222   1.791   0.825   6.611  0.1068 -0.0905  0.1730
 2726Sol     OW14223   0.126   0.422   6.420  0.1301  0.0481 -0.2030
 2726Sol     HW14224   0.199   0.406   6.480  0.6312  0.0981 -0.7961
 2726Sol     HW14225   0.167   0.461   6.343 -0.7594  1.9309  0.2448
 2726Sol     MW14226   0.137   0.424   6.418  0.6031 -0.4618  0.1988
 2727Sol     OW14227   2.567   0.891   5.486  0.5127  0.4193  0.6743
 2727Sol     HW14228   2.480   0.912   5.519  0.2923 -0.8148  0.9024
 2727Sol     HW14229   2.619   0.969   5.503 -0.6879  1.3635  0.0361
 2727Sol     MW14230   2.564   0.899   5.490  0.3746  0.0563  0.1876
 2728Sol     OW14231   0.079   0.450   8.886 -0.4265  0.8503  0.3446
 2728Sol     HW14232   0.154   0.509   8.879  0.1830 -0.0666 -1.1063
 2728Sol     HW14233   0.052   0.456   8.978  0.5308  2.2599  0.5501
 2728Sol     MW14234   0.083   0.456   8.894  0.1264 -0.0302  0.4789
 2729Sol     OW14235   2.254   3.178   8.620  0.2686 -0.1406  0.1804
 2729Sol     HW14236   2.337   3.153   8.660 -0.5706 -2.7168  0.4090
 2729Sol     HW14237   2.255   3.274   8.621  2.2855 -0.1386  2.1106
 2729Sol     MW14238   2.262   3.184   8.623  0.0845 -0.1754 -0.7764
 2730Sol     OW14239   2.422   3.426   7.677 -0.3101  0.2459  0.0843
 2730Sol     HW14240   2.337   3.388   7.700 -0.7345  0.8027 -0.5470
 2730Sol     HW14241   2.406   3.520   7.672 -0.3749  0.1110 -2.9868
 2730Sol     MW14242   2.413   3.431   7.679 -0.7072  0.3421 -0.3007
 2731Sol     OW14243   1.128   3.375   8.089  0.3188 -0.0638 -0.0032
 2731Sol     HW14244   1.191   3.303   8.085  1.7511  1.0888  1.1461
 2731Sol     HW14245   1.180   3.450   8.118 -1.0196  1.5934 -1.7924
 2731Sol     MW14246   1.139   3.375   8.091  0.4253  0.0197 -0.0491
 2732Sol     OW14247   0.727   2.542   8.487 -0.0198 -0.5931 -0.1037
 2732Sol     HW14248   0.752   2.599   8.415  1.2624 -1.1207 -0.0812
 2732Sol     HW14249   0.756   2.588   8.566  1.0398 -1.2796 -0.0872
 2732Sol     MW14250   0.732   2.551   8.488  0.0511  1.3327 -0.2493
 2733Sol     OW14251   0.085   2.214   7.734 -0.0621 -0.1006 -0.1483
 2733Sol     HW14252  -0.001   2.247   7.760 -0.7536 -1.6099 -0.4417
 2733Sol     HW14253   0.066   2.132   7.689  1.4006  0.4857 -1.8866
 2733Sol     MW14254   0.075   2.209   7.732  0.0969 -0.0286 -0.1664
 2734Sol     OW14255   1.797   3.016   3.255 -0.4449 -0.3081 -0.3475
 2734Sol     HW14256   1.740   3.051   3.187 -0.6287 -0.0268 -0.0490
 2734Sol     HW14257   1.810   2.924   3.231 -0.5089 -0.2080 -0.7615
 2734Sol     MW14258   1.793   3.011   3.247  0.1406  0.7301 -0.4040
 2735Sol     OW14259   2.881   3.245   5.336  0.5127 -0.0883 -0.3464
 2735Sol     HW14260   2.952   3.286   5.286 -0.1924  1.8271  0.1870
 2735Sol     HW14261   2.902   3.266   5.427 -0.7890  0.5668 -0.1958
 2735Sol     MW14262   2.889   3.250   5.340  0.3445 -0.0228  0.2068
 2736Sol     OW14263   1.229   2.538   9.027 -0.3060 -0.2226  0.1291
 2736Sol     HW14264   1.293   2.579   9.085 -1.3989 -0.5499  1.5932
 2736Sol     HW14265   1.181   2.611   8.989  0.2691 -0.0111 -0.1858
 2736Sol     MW14266   1.230   2.548   9.029  0.1821  0.4639  0.7252
 2737Sol     OW14267   2.509   1.025   6.533 -0.3107  0.2424  0.1401
 2737Sol     HW14268   2.477   0.938   6.508  2.0120 -0.3388 -0.9677
 2737Sol     HW14269   2.498   1.078   6.454 -3.0306  1.4127  1.2164
 2737Sol     MW14270   2.505   1.022   6.524  0.2898  0.5035  0.1896
 2738Sol     OW14271   1.647   0.986   8.838  0.2921 -0.4836  0.3679
 2738Sol     HW14272   1.672   0.894   8.845 -0.0275 -0.6157 -0.1857
 2738Sol     HW14273   1.675   1.012   8.751  1.2437  0.2174  0.8703
 2738Sol     MW14274   1.651   0.980   8.831 -0.0301 -0.0349  0.2007
 2739Sol     OW14275   0.950   0.702   6.934 -0.0775  0.0435  0.3115
 2739Sol     HW14276   1.027   0.721   6.880 -0.9906 -0.4578 -1.1942
 2739Sol     HW14277   0.941   0.607   6.929 -0.4204  0.0394  1.0183
 2739Sol     MW14278   0.956   0.695   6.929  0.5579  0.8937  0.3036
 2740Sol     OW14279   0.127   1.192   7.469 -0.0639 -0.1604  0.2265
 2740Sol     HW14280   0.162   1.191   7.558 -0.5583  1.0859  0.4381
 2740Sol     HW14281   0.041   1.151   7.476 -1.2539  2.3358  0.8316
 2740Sol     MW14282   0.122   1.188   7.477  0.6927 -0.4704 -0.6436
 2741Sol     OW14283   0.369   2.271   5.964 -0.8120  0.2036 -0.0703
 2741Sol     HW14284   0.360   2.313   6.050 -1.4076  0.3521 -0.2059
 2741Sol     HW14285   0.331   2.184   5.976 -1.4605  0.4434 -0.3453
 2741Sol     MW14286   0.365   2.267   5.973 -0.1959  0.4542 -0.1600
 2742Sol     OW14287   1.625   0.109   8.264  0.6470  0.0265 -0.0346
 2742Sol     HW14288   1.684   0.037   8.284  0.8056  0.3361  0.6142
 2742Sol     HW14289   1.682   0.186   8.258  0.2440  0.4332  1.1947
 2742Sol     MW14290   1.635   0.110   8.265  0.1420 -0.1822 -0.7010
 2743Sol     OW14291   0.156   1.591   4.100  0.2231  0.5026  0.1086
 2743Sol     HW14292   0.131   1.661   4.039  1.4549 -0.0078 -1.0117
 2743Sol     HW14293   0.114   1.615   4.182 -0.6926  1.7126 -0.6872
 2743Sol     MW14294   0.150   1.600   4.101  0.0977 -0.1726 -0.4865
 2744Sol     OW14295   1.065   1.652   4.543 -0.4074  0.0486  0.5255
 2744Sol     HW14296   1.103   1.572   4.505 -0.2014  0.8815 -1.0663
 2744Sol     HW14297   1.128   1.679   4.610  0.2367 -0.3408  0.0877
 2744Sol     MW14298   1.074   1.647   4.546  0.1834  0.4382 -0.4368
 2745Sol     OW14299   2.080   0.276   4.355  0.6722 -0.3698  0.2359
 2745Sol     HW14300   2.092   0.234   4.269 -1.8331  0.2304 -0.4530
 2745Sol     HW14301   1.993   0.247   4.383 -0.9384  3.9240 -0.0431
 2745Sol     MW14302   2.073   0.269   4.349 -0.7529  0.7306  0.0658
 2746Sol     OW14303   0.387   0.031   8.166  0.5559  0.1946  0.3908
 2746Sol     HW14304   0.357  -0.051   8.128  1.4877 -0.4700  1.0784
 2746Sol     HW14305   0.409   0.085   8.090 -0.3727 -0.0535 -0.0715
 2746Sol     MW14306   0.386   0.029   8.156 -0.6952  0.0025 -0.7340
 2747Sol     OW14307   2.865   0.322   8.058  0.5185 -0.3669  0.4819
 2747Sol     HW14308   2.800   0.292   7.994  1.0515  0.3033 -0.3898
 2747Sol     HW14309   2.859   0.259   8.130 -0.6902 -0.6388  0.1524
 2747Sol     MW14310   2.859   0.313   8.059 -0.3737 -0.2863 -0.8006
 2748Sol     OW14311   0.318   3.267   9.515 -0.4475 -0.3184  0.0384
 2748Sol     HW14312   0.406   3.304   9.508 -0.5388 -0.0453  0.3332
 2748Sol     HW14313   0.328   3.189   9.569 -0.4253 -0.1543  0.2718
 2748Sol     MW14314   0.327   3.263   9.519 -0.1272  0.4197  0.0431
 2749Sol     OW14315   1.660   0.074   7.434 -0.5195 -0.1982  0.1067
 2749Sol     HW14316   1.607   0.028   7.499 -1.3469 -0.0690 -0.4636
 2749Sol     HW14317   1.648   0.024   7.354  0.0814 -0.0616 -0.0685
 2749Sol     MW14318   1.654   0.065   7.433 -0.1015  0.4116  0.1692
 2750Sol     OW14319   2.608   2.550   9.532  0.1544  0.1080  0.2902
 2750Sol     HW14320   2.530   2.540   9.587  0.0977 -0.0628  0.1786
 2750Sol     HW14321   2.632   2.460   9.507  1.0145  0.0793  1.2015
 2750Sol     MW14322   2.603   2.541   9.534 -0.7776  0.0637 -0.0256
 2751Sol     OW14323   3.343   1.840   8.431 -0.0504  0.3649  0.4824
 2751Sol     HW14324   3.413   1.893   8.468 -0.3621 -1.6705  4.1703
 2751Sol     HW14325   3.387   1.767   8.388  0.1573  0.6107  0.2747
 2751Sol     MW14326   3.353   1.838   8.430 -0.0361  0.1554 -0.1658
 2752Sol     OW14327   1.201   2.057   2.201  0.4530  0.0373  0.0390
 2752Sol     HW14328   1.176   2.088   2.288  0.1409 -0.4158  0.1071
 2752Sol     HW14329   1.291   2.090   2.189  0.8905 -0.7935  0.9598
 2752Sol     MW14330   1.207   2.063   2.208 -0.1158 -0.3528 -0.2978
 2753Sol     OW14331   1.041   1.855   7.007 -0.0565 -0.7735 -0.0466
 2753Sol     HW14332   1.048   1.831   6.915  0.6962  1.5398 -0.6265
 2753Sol     HW14333   0.953   1.890   7.017  0.7463  1.3991 -0.4967
 2753Sol     MW14334   1.034   1.856   7.000  0.3999  0.1133 -0.7823
 2754Sol     OW14335   1.777   1.809   2.354  0.0912 -0.3770  0.0471
 2754Sol     HW14336   1.685   1.805   2.326  0.3577  0.5598 -1.0087
 2754Sol     HW14337   1.773   1.803   2.449 -1.1847  1.1090  0.1147
 2754Sol     MW14338   1.768   1.808   2.360  0.0022  0.2478  0.3166
 2755Sol     OW14339   1.633   0.509   7.993  0.0864 -0.2006 -0.2581
 2755Sol     HW14340   1.601   0.571   8.059 -0.3720  0.3171 -0.9644
 2755Sol     HW14341   1.696   0.558   7.941  0.0750 -0.4615 -0.5221
 2755Sol     MW14342   1.636   0.519   7.994 -0.1906  0.1380 -0.5048
 2756Sol     OW14343   2.981   3.360   5.102  0.0877  0.4793  0.1971
 2756Sol     HW14344   2.911   3.415   5.137  0.1914 -0.1604  1.4673
 2756Sol     HW14345   3.061   3.406   5.124  0.1633 -0.0339  1.0476
 2756Sol     MW14346   2.982   3.369   5.107 -0.0615 -0.2852 -0.0590
 2757Sol     OW14347   0.685   0.413   8.195  0.4633  0.4525  0.1392
 2757Sol     HW14348   0.710   0.347   8.130 -0.8333 -0.0601  0.1537
 2757Sol     HW14349   0.593   0.395   8.213  0.3097  1.7988  0.7095
 2757Sol     MW14350   0.679   0.405   8.191  0.1151 -0.4907  0.3506
 2758Sol     OW14351   0.866   1.753   2.894 -0.1097  0.6165  0.2407
 2758Sol     HW14352   0.811   1.806   2.952  0.2288  0.7230  0.4688
 2758Sol     HW14353   0.952   1.796   2.898  0.1397  0.1095  0.3451
 2758Sol     MW14354   0.869   1.762   2.899  0.2632  0.4130  0.0253
 2759Sol     OW14355   2.854   0.429   3.541  0.4168  0.0943  0.0975
 2759Sol     HW14356   2.781   0.372   3.518  0.8582 -0.0470 -1.0132
 2759Sol     HW14357   2.815   0.516   3.548 -0.0454 -0.1496  0.6030
 2759Sol     MW14358   2.844   0.432   3.539 -0.2402 -0.7463 -0.0331
 2760Sol     OW14359   1.951   3.429   3.258 -0.0995  0.4279 -0.1095
 2760Sol     HW14360   2.012   3.469   3.196 -1.3211  1.7413 -0.4933
 2760Sol     HW14361   1.964   3.477   3.339  0.0809  0.0449  0.0895
 2760Sol     MW14362   1.957   3.437   3.260 -0.1525 -0.2374 -0.1543
 2761Sol     OW14363   1.846   1.137   8.042 -0.0747 -0.6107  0.3706
 2761Sol     HW14364   1.809   1.201   8.104 -0.1149 -1.3048  1.0748
 2761Sol     HW14365   1.771   1.105   7.993 -0.1744 -0.7611  0.6207
 2761Sol     MW14366   1.836   1.140   8.043 -0.3803  0.3072  0.3629
 2762Sol     OW14367   0.527   1.179   7.496 -0.0881 -0.3830 -0.4061
 2762Sol     HW14368   0.499   1.090   7.518  2.6645 -1.1882  0.0500
 2762Sol     HW14369   0.542   1.220   7.581 -0.2164  0.1515 -0.6431
 2762Sol     MW14370   0.526   1.174   7.505 -0.0141  0.4628  0.7508
 2763Sol     OW14371   2.203   0.860   6.791 -0.0877  0.0968  0.3765
 2763Sol     HW14372   2.262   0.935   6.792  0.1484 -0.0879  2.9001
 2763Sol     HW14373   2.195   0.834   6.882 -4.1035  0.1245  0.1362
 2763Sol     MW14374   2.208   0.864   6.799 -0.2734 -0.3763  0.2551
 2764Sol     OW14375   0.673   1.622   4.909 -0.1361 -0.6529 -0.4468
 2764Sol     HW14376   0.631   1.708   4.913  0.2280 -0.4364 -1.2332
 2764Sol     HW14377   0.744   1.633   4.847 -0.0294 -1.5071 -0.4796
 2764Sol     MW14378   0.676   1.630   4.904 -0.1387 -0.0903 -0.9502
 2765Sol     OW14379   1.238   3.214   5.292 -0.4113 -0.3501 -0.3785
 2765Sol     HW14380   1.153   3.249   5.265  0.1188  0.8195 -0.5460
 2765Sol     HW14381   1.239   3.125   5.256 -2.2285 -0.9843  1.0096
 2765Sol     MW14382   1.230   3.209   5.286  0.1101 -0.3213 -0.4421
 2766Sol     OW14383   2.955   2.495   9.536 -0.2186  0.1832  0.4983
 2766Sol     HW14384   2.888   2.453   9.482  0.8710  0.6802 -1.2861
 2766Sol     HW14385   2.938   2.463   9.624 -0.7911 -2.2665 -0.4510
 2766Sol     MW14386   2.948   2.488   9.539  0.1287 -0.0422 -0.5324
 2767Sol     OW14387   2.198   0.194   5.401 -0.1739  0.0047  0.9809
 2767Sol     HW14388   2.178   0.143   5.479  0.4465 -1.9223 -0.0974
 2767Sol     HW14389   2.293   0.189   5.392 -0.2647 -0.0047 -0.0504
 2767Sol     MW14390   2.205   0.189   5.407 -0.2273  0.3504 -0.9020
 2768Sol     OW14391   2.001   0.816   2.487 -0.0819  0.1007 -0.8728
 2768Sol     HW14392   2.036   0.892   2.533 -1.9956  1.1301 -1.0619
 2768Sol     HW14393   1.985   0.848   2.398  1.1714 -1.1477 -1.5591
 2768Sol     MW14394   2.002   0.826   2.483  0.0329  0.1617  0.2513
 2769Sol     OW14395   0.427   2.711   2.748 -0.4202 -0.0449  0.2983
 2769Sol     HW14396   0.411   2.802   2.722 -0.6376  0.0906  0.9049
 2769Sol     HW14397   0.451   2.667   2.666  2.5763  1.1794  0.4738
 2769Sol     MW14398   0.428   2.715   2.738  0.2367  0.1851  0.4317
 2770Sol     OW14399   3.350   1.976   7.669  0.3671  0.6762  0.3341
 2770Sol     HW14400   3.372   1.912   7.602  1.5225  1.0727  0.3154
 2770Sol     HW14401   3.256   1.992   7.658  0.7629  1.6111 -1.9625
 2770Sol     MW14402   3.344   1.972   7.662 -0.5693 -0.0062  0.0113
 2771Sol     OW14403   2.812   3.330   9.289  0.1430  0.1032 -0.6329
 2771Sol     HW14404   2.872   3.271   9.242 -0.3539 -0.8998 -0.0209
 2771Sol     HW14405   2.854   3.416   9.282  2.5931 -0.8562  1.2785
 2771Sol     MW14406   2.821   3.332   9.284  0.1579  0.0589 -0.0717
 2772Sol     OW14407   2.336   1.894   9.523  0.1890 -0.3230 -0.3930
 2772Sol     HW14408   2.360   1.847   9.603  0.6245  1.3413  0.4672
 2772Sol     HW14409   2.383   1.977   9.528 -1.0669  0.4885 -1.5909
 2772Sol     MW14410   2.342   1.897   9.530 -0.0014  0.2015 -0.4974
 2773Sol     OW14411   1.689   2.023   5.127 -0.0945 -0.3110  0.3005
 2773Sol     HW14412   1.633   2.100   5.141 -0.2348 -0.4799  0.6836
 2773Sol     HW14413   1.671   1.997   5.037 -3.0230 -2.2368  1.3732
 2773Sol     MW14414   1.682   2.028   5.120  0.6209 -0.0769 -0.0738
 2774Sol     OW14415   2.328   1.486   5.146 -0.0881 -0.0250 -0.2003
 2774Sol     HW14416   2.354   1.577   5.161 -2.4077  0.5139  0.9068
 2774Sol     HW14417   2.240   1.480   5.183 -0.3471 -2.4937 -1.0855
 2774Sol     MW14418   2.322   1.494   5.151  0.7837  0.0150  0.3637
 2775Sol     OW14419   1.380   2.402   2.662 -0.6798 -0.1230 -0.4208
 2775Sol     HW14420   1.409   2.484   2.701  1.0573 -0.9731  0.1128
 2775Sol     HW14421   1.397   2.412   2.568 -0.1815  0.0099 -0.3171
 2775Sol     MW14422   1.384   2.410   2.657  0.4269  0.8680  0.3777
 2776Sol     OW14423   1.000   1.003   1.836 -0.5886  0.2883 -0.3754
 2776Sol     HW14424   1.056   1.073   1.802 -0.2950  1.2205  1.9513
 2776Sol     HW14425   1.048   0.968   1.911 -0.9864 -2.0783 -1.1838
 2776Sol     MW14426   1.009   1.007   1.840  0.5726  0.1817 -0.2800
 2777Sol     OW14427   3.074   2.025   7.616 -0.0359 -0.1883 -0.3465
 2777Sol     HW14428   3.040   2.031   7.706  1.6715  0.2887  0.2961
 2777Sol     HW14429   3.050   1.936   7.588  1.6562 -1.3170  1.5671
 2777Sol     MW14430   3.069   2.017   7.622  0.7499  0.2113 -0.2085
 2778Sol     OW14431   2.891   1.368   5.293 -0.2574  0.1635  0.2883
 2778Sol     HW14432   2.853   1.284   5.266 -0.8883  0.4886  0.1468
 2778Sol     HW14433   2.941   1.347   5.371  1.1398 -0.6914 -0.8087
 2778Sol     MW14434   2.892   1.358   5.297  0.2189  0.7293  0.1765
 2779Sol     OW14435   2.443   0.412   4.443  0.3716  0.3273 -0.5003
 2779Sol     HW14436   2.457   0.457   4.526 -0.0155 -1.2593  0.4600
 2779Sol     HW14437   2.478   0.471   4.377 -0.4921  2.2108  0.6646
 2779Sol     MW14438   2.447   0.421   4.445  0.2956 -0.3436 -0.0665
 2780Sol     OW14439   3.299   0.933   4.077 -0.2813 -0.1246  0.7603
 2780Sol     HW14440   3.388   0.964   4.090 -0.1823 -0.8196  1.7724
 2780Sol     HW14441   3.259   0.936   4.164 -1.2589  0.2154  0.3083
 2780Sol     MW14442   3.303   0.936   4.086  0.2938 -0.4965  0.3630
 2781Sol     OW14443   1.322   3.289   7.444 -0.0772 -0.4374 -0.0767
 2781Sol     HW14444   1.303   3.366   7.390  0.9521  1.0839  1.6728
 2781Sol     HW14445   1.382   3.321   7.511 -0.0355 -2.6654  0.9891
 2781Sol     MW14446   1.326   3.299   7.445  0.6509  0.7534  0.4089
 2782Sol     OW14447   1.951   3.298   5.927  0.7789  0.1392  0.7612
 2782Sol     HW14448   1.909   3.222   5.966 -0.0477  0.3488  0.3003
 2782Sol     HW14449   1.879   3.347   5.886  1.8702 -1.4131 -3.3067
 2782Sol     MW14450   1.941   3.296   5.927 -0.9052 -0.2585  0.4874
 2783Sol     OW14451   0.004   1.248   3.872 -0.0126  0.2813 -0.1940
 2783Sol     HW14452  -0.054   1.173   3.882 -0.3495  0.3495 -1.6206
 2783Sol     HW14453  -0.047   1.323   3.904  0.4562 -0.1335  1.5809
 2783Sol     MW14454  -0.006   1.248   3.876 -0.0667 -0.0821 -0.5911
 2784Sol     OW14455   2.503   0.379   8.650  0.2950  0.0799 -0.3287
 2784Sol     HW14456   2.596   0.398   8.641  0.5551 -0.9094  0.2192
 2784Sol     HW14457   2.474   0.355   8.562  0.0488  2.5352 -0.9586
 2784Sol     MW14458   2.509   0.379   8.642 -0.0186  0.1377 -0.0268
 2785Sol     OW14459   0.577   3.371   4.242  0.2324  0.7197 -0.5406
 2785Sol     HW14460   0.494   3.411   4.218 -0.7085 -0.6666  0.2870
 2785Sol     HW14461   0.621   3.353   4.159 -0.2357  1.5484 -0.9739
 2785Sol     MW14462   0.574   3.373   4.233 -0.7726  0.0768  0.2357
 2786Sol     OW14463   2.522   1.198   6.278  0.0518  0.2991  0.1047
 2786Sol     HW14464   2.573   1.268   6.238 -1.4496  0.4580 -1.6190
 2786Sol     HW14465   2.570   1.118   6.258  0.1833  0.5474 -0.5792
 2786Sol     MW14466   2.531   1.197   6.272  0.2298  0.2929  0.8851
 2787Sol     OW14467   1.636   2.758   9.192  0.5866 -0.4821  0.6122
 2787Sol     HW14468   1.673   2.788   9.275  3.6157  0.8865 -1.1196
 2787Sol     HW14469   1.571   2.825   9.169  0.7007 -0.1476  1.2520
 2787Sol     MW14470   1.634   2.767   9.197  0.4350 -0.9099 -0.9994
 2788Sol     OW14471   0.103   3.360   6.833  0.0825 -0.0070 -0.2117
 2788Sol     HW14472   0.043   3.420   6.879  0.5172  0.5593 -0.3828
 2788Sol     HW14473   0.117   3.401   6.748  1.9770  0.6754  0.4230
 2788Sol     MW14474   0.099   3.369   6.830  0.4839  0.4852  0.0970
 2789Sol     OW14475   1.552   2.801   4.747 -0.1923 -0.0261  0.0923
 2789Sol     HW14476   1.478   2.782   4.804 -0.6783 -0.7920 -0.7642
 2789Sol     HW14477   1.525   2.879   4.698 -0.3454 -0.1765 -0.0642
 2789Sol     MW14478   1.543   2.806   4.747 -0.7295  0.1982 -0.4125
 2790Sol     OW14479   1.723   2.504   2.652 -0.1871 -0.3018  0.0054
 2790Sol     HW14480   1.748   2.539   2.738  0.6686 -0.0731 -0.3322
 2790Sol     HW14481   1.692   2.416   2.671 -0.5378 -0.0513  0.6239
 2790Sol     MW14482   1.722   2.499   2.662  0.5065  0.0365 -0.0904
 2791Sol     OW14483   2.264   2.292   5.298  0.0606  0.7192  0.5791
 2791Sol     HW14484   2.182   2.337   5.280  0.6383  1.0908 -1.2035
 2791Sol     HW14485   2.331   2.348   5.258  0.9399 -0.8213 -0.1286
 2791Sol     MW14486   2.263   2.301   5.293 -0.3716  0.4329  0.7091
 2792Sol     OW14487   0.197   2.331   5.099  0.0964 -0.5340  0.2078
 2792Sol     HW14488   0.217   2.307   5.190 -0.5719  0.9330  0.7430
 2792Sol     HW14489   0.140   2.407   5.106  0.6787  0.0644 -1.4651
 2792Sol     MW14490   0.194   2.335   5.108  0.0337 -0.1893 -0.0462
 2793Sol     OW14491   1.149   3.017   3.445  0.8960 -0.2053 -0.4883
 2793Sol     HW14492   1.232   3.054   3.476  0.4492  0.6851 -0.3350
 2793Sol     HW14493   1.148   2.928   3.481  1.4357  0.0374  0.1506
 2793Sol     MW14494   1.156   3.012   3.451  0.8172 -0.1076  0.2874
 2794Sol     OW14495   3.311   1.004   8.046  0.0347  0.5662  0.0652
 2794Sol     HW14496   3.231   0.956   8.023 -0.7575  1.5398  0.7562
 2794Sol     HW14497   3.379   0.937   8.050 -0.7827 -0.2964 -0.3682
 2794Sol     MW14498   3.310   0.994   8.044  0.0862 -0.4321 -0.7036
 2795Sol     OW14499   0.068   2.882   5.539  0.1076 -0.3468  0.6468
 2795Sol     HW14500   0.014   2.810   5.505  0.7879 -0.1823 -0.8348
 2795Sol     HW14501   0.155   2.845   5.548  0.3431  0.1446  0.4103
 2795Sol     MW14502   0.071   2.873   5.537 -0.2352 -0.1823 -0.3271
 2796Sol     OW14503   1.005   0.523   3.020 -0.2297  0.0451  0.0535
 2796Sol     HW14504   1.084   0.482   3.054  0.1575 -0.2380 -1.1444
 2796Sol     HW14505   1.036   0.605   2.980 -0.5422 -0.0400 -0.3671
 2796Sol     MW14506   1.015   0.527   3.019  0.1786 -0.7737  0.2387
 2797Sol     OW14507   0.176   0.100   7.830  0.0065 -0.0193 -0.9093
 2797Sol     HW14508   0.152   0.156   7.756 -0.2430  0.5364 -0.4133
 2797Sol     HW14509   0.262   0.131   7.858 -0.3733  0.4743 -0.2883
 2797Sol     MW14510   0.182   0.108   7.826  0.8464 -0.3004 -0.2768
 2798Sol     OW14511   2.950   2.498   7.096 -0.1544 -0.5312  0.4211
 2798Sol     HW14512   2.862   2.509   7.131 -0.6822 -1.0882 -0.7002
 2798Sol     HW14513   2.937   2.465   7.007  1.1547  0.3985 -0.1465
 2798Sol     MW14514   2.941   2.496   7.091  0.0777  0.2570  0.7343
 2799Sol     OW14515   1.375   0.446   4.614 -0.2048 -0.2293 -0.1092
 2799Sol     HW14516   1.298   0.397   4.585  0.1157 -0.9652  0.2934
 2799Sol     HW14517   1.402   0.404   4.695  0.3087  0.3656  0.0334
 2799Sol     MW14518   1.370   0.438   4.619  0.1996 -0.0289  0.3121
 2800Sol     OW14519   2.454   0.525   4.684  0.4347 -0.0586 -0.8835
 2800Sol     HW14520   2.544   0.557   4.687 -0.0851  1.4265 -0.6682
 2800Sol     HW14521   2.440   0.485   4.770  1.2208 -1.2777 -1.3045
 2800Sol     MW14522   2.461   0.524   4.692  0.0032 -0.0240  0.1599
 2801Sol     OW14523   2.639   1.141   7.328 -0.4742 -0.0528 -0.5079
 2801Sol     HW14524   2.673   1.211   7.271  1.2655  0.3920  1.0158
 2801Sol     HW14525   2.653   1.174   7.417  0.1486 -2.2333  0.2301
 2801Sol     MW14526   2.643   1.151   7.331  0.2273  0.1118  0.0052
 2802Sol     OW14527   0.882   2.908   2.567 -0.3892 -0.1794 -0.0559
 2802Sol     HW14528   0.931   2.869   2.495 -1.3886 -0.4419 -0.6100
 2802Sol     HW14529   0.921   2.872   2.646 -0.0911 -0.8482 -0.5119
 2802Sol     MW14530   0.890   2.902   2.567 -0.0208 -0.0963 -0.3302
 2803Sol     OW14531   1.232   2.760   8.572 -0.1086  0.1066  0.1881
 2803Sol     HW14532   1.299   2.822   8.543 -1.2901  0.6988 -1.3707
 2803Sol     HW14533   1.176   2.747   8.495 -1.6337 -0.5884  1.3723
 2803Sol     MW14534   1.233   2.764   8.562  0.1231  0.4449  0.1425
 2804Sol     OW14535   1.805   2.628   9.021 -0.9202 -0.5874 -0.0100
 2804Sol     HW14536   1.764   2.541   9.018 -0.2225 -0.8968 -0.5764
 2804Sol     HW14537   1.750   2.678   9.082 -2.4064 -0.8647 -1.1011
 2804Sol     MW14538   1.796   2.625   9.026  0.2899 -0.6301 -0.3252
 2805Sol     OW14539   0.110   0.946   8.736 -0.7016 -0.1562 -0.3820
 2805Sol     HW14540   0.093   1.023   8.790 -2.3707 -0.1279 -0.9023
 2805Sol     HW14541   0.127   0.876   8.798  3.1459  1.0625  0.0981
 2805Sol     MW14542   0.110   0.947   8.746  0.2975  0.4676  0.1501
 2806Sol     OW14543   2.766   1.355   3.095  0.2571 -0.3842 -0.2234
 2806Sol     HW14544   2.793   1.266   3.072  1.3299 -0.3157  0.7557
 2806Sol     HW14545   2.820   1.378   3.171 -1.6117  0.2599  0.9346
 2806Sol     MW14546   2.773   1.349   3.099 -0.3755  0.4148 -0.3919
 2807Sol     OW14547   0.689   0.774   8.096 -0.4194 -0.1887  0.2048
 2807Sol     HW14548   0.728   0.814   8.018  0.4268  1.0792  1.2622
 2807Sol     HW14549   0.764   0.746   8.148 -0.9648  0.1036  1.1479
 2807Sol     MW14550   0.699   0.775   8.094  0.0382 -1.0016  0.5759
 2808Sol     OW14551   0.185   0.006   5.189 -0.0115  0.3787 -0.8015
 2808Sol     HW14552   0.157   0.035   5.276  0.0468  0.5504 -0.8403
 2808Sol     HW14553   0.179  -0.089   5.192 -0.5237  0.4100 -0.7785
 2808Sol     MW14554   0.182   0.000   5.197 -0.5305  0.4169 -0.3047
 2809Sol     OW14555   2.339   2.127   1.716 -0.2310 -0.3775  0.3920
 2809Sol     HW14556   2.348   2.113   1.810  0.7148 -1.5080  0.1483
 2809Sol     HW14557   2.336   2.038   1.679  0.8423  0.0501 -0.7691
 2809Sol     MW14558   2.340   2.118   1.721 -0.1535 -0.1474 -0.6446
 2810Sol     OW14559   1.302   3.453   8.942 -0.1248  0.0351 -0.6168
 2810Sol     HW14560   1.221   3.412   8.972  0.7362  1.2813  3.7076
 2810Sol     HW14561   1.316   3.527   9.002  3.1495  1.0582 -2.5103
 2810Sol     MW14562   1.296   3.456   8.950 -0.5033 -0.3995  0.1915
 2811Sol     OW14563   0.623   2.846   9.320 -0.0313  0.2366 -0.1532
 2811Sol     HW14564   0.613   2.938   9.344 -1.7027  0.3347 -1.1762
 2811Sol     HW14565   0.559   2.800   9.374 -0.4243 -0.1140 -0.9130
 2811Sol     MW14566   0.616   2.850   9.327 -0.8790  0.0198 -0.4048
 2812Sol     OW14567   1.075   0.263   2.503  0.1692  0.0833 -0.2833
 2812Sol     HW14568   1.117   0.311   2.574  0.6028  0.1986 -0.6184
 2812Sol     HW14569   1.114   0.298   2.423 -0.0944 -0.2626 -0.5682
 2812Sol     MW14570   1.082   0.271   2.502 -0.4513  0.3012 -0.1296
 2813Sol     OW14571   0.273   1.067   9.837 -0.7614  0.4768  0.1796
 2813Sol     HW14572   0.260   1.067   9.742  0.7913 -0.6726 -0.0482
 2813Sol     HW14573   0.300   1.156   9.857 -0.8715  0.6636 -0.4843
 2813Sol     MW14574   0.274   1.075   9.831  0.3115  0.5670  0.2713
 2814Sol     OW14575   1.396   2.577   4.623  0.1739 -0.3475  1.0991
 2814Sol     HW14576   1.317   2.585   4.676  0.5068  1.6381  1.3470
 2814Sol     HW14577   1.443   2.659   4.638  0.8305 -0.2365 -1.3604
 2814Sol     MW14578   1.393   2.585   4.629  0.0405 -0.4894 -0.3049
 2815Sol     OW14579   1.023   0.863   1.608  0.0986 -0.4904 -0.4698
 2815Sol     HW14580   1.005   0.921   1.681  0.5005 -1.0867  0.1054
 2815Sol     HW14581   1.063   0.919   1.542  0.0506 -0.0218 -0.0982
 2815Sol     MW14582   1.025   0.873   1.608 -0.0651 -0.1431  0.0169
 2816Sol     OW14583   3.275   3.052   8.133 -0.8480  0.0630 -0.4863
 2816Sol     HW14584   3.316   3.014   8.210 -0.2272  2.7633  0.5652
 2816Sol     HW14585   3.258   2.977   8.075  0.6569 -1.7276  1.3276
 2816Sol     MW14586   3.277   3.042   8.134 -0.1212 -0.1586  0.6972
 2817Sol     OW14587   3.273   0.687   2.132 -0.1621 -0.4097  0.0710
 2817Sol     HW14588   3.196   0.745   2.138 -0.8658 -1.3556  0.3359
 2817Sol     HW14589   3.251   0.627   2.061  0.2816 -0.7652  0.2372
 2817Sol     MW14590   3.264   0.687   2.126 -0.1090 -0.2337 -0.5002
 2818Sol     OW14591   2.446   2.950   7.288  0.4396  0.3060 -0.9617
 2818Sol     HW14592   2.378   2.965   7.222 -0.5829 -0.6615 -0.1442
 2818Sol     HW14593   2.414   2.876   7.339  1.4264  0.7752  0.3583
 2818Sol     MW14594   2.437   2.945   7.286 -0.0579 -0.8606 -0.2428
 2819Sol     OW14595   2.894   1.837   3.383 -0.4066 -0.0345 -0.0777
 2819Sol     HW14596   2.830   1.771   3.406  0.9708 -1.2826  0.2143
 2819Sol     HW14597   2.935   1.805   3.302 -0.4229  0.9455 -0.4898
 2819Sol     MW14598   2.892   1.829   3.378  0.5918 -0.4366 -0.2338
 2820Sol     OW14599   2.629   1.594   2.959 -0.0921  0.0996  0.2401
 2820Sol     HW14600   2.543   1.581   2.999  0.0016  0.5891  0.6055
 2820Sol     HW14601   2.677   1.514   2.978 -0.9260 -0.7422 -1.1482
 2820Sol     MW14602   2.626   1.586   2.964 -0.4390 -0.4515  0.5473
 2821Sol     OW14603   0.349   1.229   7.289 -0.2384 -0.4901 -0.3304
 2821Sol     HW14604   0.275   1.243   7.349 -1.2804 -1.6028 -1.3128
 2821Sol     HW14605   0.424   1.213   7.346 -0.9208 -0.1574  0.6765
 2821Sol     MW14606   0.349   1.229   7.299 -0.4442  0.5838  0.1898
 2822Sol     OW14607   1.962   2.781   6.906  0.3912 -0.0544  0.8840
 2822Sol     HW14608   1.972   2.873   6.880 -0.4495 -0.1664  0.1485
 2822Sol     HW14609   2.038   2.763   6.961  0.6040  1.0603  0.9575
 2822Sol     MW14610   1.970   2.788   6.908  0.0079  0.3801 -0.7907
 2823Sol     OW14611   3.124   2.315   5.503 -0.6907  0.0938  0.3833
 2823Sol     HW14612   3.203   2.326   5.451 -0.0648 -1.1560  1.0556
 2823Sol     HW14613   3.068   2.258   5.450 -0.8103  0.3232  0.2632
 2823Sol     MW14614   3.126   2.311   5.493  0.2746  0.0462 -1.1792
 2824Sol     OW14615   0.874   1.061   2.982 -0.0788 -0.4000  0.1084
 2824Sol     HW14616   0.848   0.999   2.913 -0.0997  0.2806 -0.4950
 2824Sol     HW14617   0.801   1.122   2.988  0.0859 -0.2405  0.4816
 2824Sol     MW14618   0.865   1.061   2.977 -0.6672  0.5532  0.0434
 2825Sol     OW14619   1.838   2.836   4.896  0.0270 -0.2874 -0.2517
 2825Sol     HW14620   1.846   2.791   4.812 -1.5304 -2.7945  0.8752
 2825Sol     HW14621   1.928   2.845   4.927  0.7127  1.5281 -2.5533
 2825Sol     MW14622   1.846   2.833   4.891 -0.0914 -0.5420 -0.0109
 2826Sol     OW14623   1.841   2.991   8.761 -0.8931  0.2907  0.0369
 2826Sol     HW14624   1.881   2.905   8.767  0.3275  0.6521 -2.3351
 2826Sol     HW14625   1.913   3.052   8.773 -1.3163  0.9540 -0.7314
 2826Sol     MW14626   1.851   2.989   8.763  0.2625 -0.6878 -0.2372
 2827Sol     OW14627   3.075   3.456   5.936 -0.0359  0.8124 -0.0743
 2827Sol     HW14628   3.045   3.545   5.955  1.6439  0.7018  3.4164
 2827Sol     HW14629   3.009   3.399   5.977 -0.0484  0.4824 -0.5513
 2827Sol     MW14630   3.066   3.459   5.942 -0.6079 -0.0112 -0.4823
 2828Sol     OW14631   0.841   3.169   5.961 -0.3552  0.1197 -0.0221
 2828Sol     HW14632   0.856   3.218   6.042  3.9973 -1.9056  0.5915
 2828Sol     HW14633   0.902   3.208   5.898 -1.5086 -0.3045 -1.4276
 2828Sol     MW14634   0.848   3.177   5.963  0.3401 -0.2319 -0.1297
 2829Sol     OW14635   0.605   3.152   2.804  0.1311  0.1251 -0.3480
 2829Sol     HW14636   0.606   3.193   2.891 -0.1574 -1.3091  0.3521
 2829Sol     HW14637   0.525   3.184   2.763 -0.3026 -0.0714  0.3470
 2829Sol     MW14638   0.598   3.159   2.808 -0.1583  0.2263 -0.2116
 2830Sol     OW14639   2.732   0.586   4.737  0.6096 -0.0395 -0.5423
 2830Sol     HW14640   2.780   0.666   4.714  1.9850 -0.1940  1.6429
 2830Sol     HW14641   2.728   0.588   4.833 -1.0315 -1.6333 -0.5663
 2830Sol     MW14642   2.736   0.594   4.744 -0.5857 -0.6615 -0.2179
 2831Sol     OW14643   0.383   0.737   1.719  0.3313 -0.4514 -0.3966
 2831Sol     HW14644   0.443   0.808   1.742  0.8447 -0.0637 -2.7652
 2831Sol     HW14645   0.303   0.756   1.769  1.1676  0.6489  0.5560
 2831Sol     MW14646   0.381   0.745   1.725 -0.8201  0.0311  0.2722
 2832Sol     OW14647   2.240   2.964   5.852  0.4647  0.3900 -0.0058
 2832Sol     HW14648   2.231   2.999   5.764 -2.7723 -1.2181 -0.3921
 2832Sol     HW14649   2.272   2.875   5.840  1.4012  0.6450  0.5367
 2832Sol     MW14650   2.242   2.960   5.843  0.1046 -0.7644  0.5219
 2833Sol     OW14651   3.194   2.152   9.028  0.3064 -0.8024  0.0601
 2833Sol     HW14652   3.167   2.063   9.052  1.6780 -0.6596  2.2406
 2833Sol     HW14653   3.277   2.140   8.981 -0.2544 -0.7593 -0.9640
 2833Sol     MW14654   3.199   2.143   9.026 -0.4257 -0.1157 -0.3888
 2834Sol     OW14655   0.831   3.007   4.753 -0.1076  0.2380  0.1705
 2834Sol     HW14656   0.809   2.981   4.664 -0.6856  0.0461  0.3664
 2834Sol     HW14657   0.823   3.103   4.753 -0.1640  0.2330  0.0343
 2834Sol     MW14658   0.828   3.014   4.745 -0.2729 -0.6796  0.1475
 2835Sol     OW14659   2.429   0.362   2.658  0.1495 -0.4280  0.3183
 2835Sol     HW14660   2.387   0.330   2.578  1.4069 -0.7383 -0.2143
 2835Sol     HW14661   2.477   0.439   2.631  2.3170 -1.7413  0.3442
 2835Sol     MW14662   2.429   0.366   2.649  0.4974  0.1670 -0.2329
 2836Sol     OW14663   1.204   2.336   5.878  0.2482 -0.1396 -0.5471
 2836Sol     HW14664   1.147   2.282   5.932  0.5194  2.0179  1.9739
 2836Sol     HW14665   1.144   2.389   5.825 -0.0247 -1.2749 -1.3868
 2836Sol     MW14666   1.193   2.336   5.878  0.2717 -0.5642  0.7654
 2837Sol     OW14667   3.070   0.661   1.887 -0.6287  1.0674  0.3552
 2837Sol     HW14668   3.014   0.584   1.896 -0.1096  0.6565  0.1462
 2837Sol     HW14669   3.031   0.727   1.944 -0.1213  0.0894  1.8640
 2837Sol     MW14670   3.062   0.660   1.893  0.2263 -0.3078 -0.4553
 2838Sol     OW14671   3.246   0.472   5.134  0.6152  0.6151  0.1396
 2838Sol     HW14672   3.273   0.451   5.044  0.8663 -0.1419  0.3866
 2838Sol     HW14673   3.286   0.403   5.187  1.9765  2.0997  1.0632
 2838Sol     MW14674   3.252   0.464   5.130 -0.6754 -0.3105 -0.4725
 2839Sol     OW14675   3.005   0.882   2.407  0.6846 -0.4871 -0.2669
 2839Sol     HW14676   3.066   0.818   2.446  1.8275  1.2775  0.9253
 2839Sol     HW14677   2.978   0.937   2.481 -3.1868 -1.8267 -0.5849
 2839Sol     MW14678   3.008   0.881   2.417  0.1101 -0.1731 -0.1908
 2840Sol     OW14679   2.695   0.327   6.428  0.0931  0.0574  0.3607
 2840Sol     HW14680   2.733   0.393   6.486  1.5982  0.3296 -0.9190
 2840Sol     HW14681   2.674   0.254   6.487  1.2160  0.4817  1.3218
 2840Sol     MW14682   2.696   0.327   6.439  0.2696 -0.2529 -0.5320
 2841Sol     OW14683   1.814   0.945   9.337 -0.1788  0.4057  0.8194
 2841Sol     HW14684   1.751   0.993   9.391  1.9801  1.1328  2.8223
 2841Sol     HW14685   1.838   0.869   9.391 -0.1270 -0.4240 -0.3595
 2841Sol     MW14686   1.811   0.943   9.347 -0.3207 -0.5844  0.4162
 2842Sol     OW14687   0.179   2.719   7.444  0.4320 -0.6142 -0.3911
 2842Sol     HW14688   0.092   2.758   7.443 -0.1445 -1.7032  1.8903
 2842Sol     HW14689   0.232   2.779   7.497  1.0792  0.0360 -1.7548
 2842Sol     MW14690   0.176   2.728   7.449 -0.0738 -0.0677  0.1596
 2843Sol     OW14691   2.869   2.136   4.926 -0.3125 -0.6448 -0.2343
 2843Sol     HW14692   2.865   2.203   4.857  0.8091 -0.9093 -0.5722
 2843Sol     HW14693   2.793   2.080   4.909 -0.4156 -0.3237 -0.8663
 2843Sol     MW14694   2.862   2.137   4.918 -0.3806  0.0023  0.4775
 2844Sol     OW14695   0.624   2.151   6.769  0.0374 -0.5115  0.3824
 2844Sol     HW14696   0.626   2.247   6.772  1.4286 -0.4908 -0.4498
 2844Sol     HW14697   0.557   2.126   6.832 -0.9846  1.0408 -0.0476
 2844Sol     MW14698   0.618   2.157   6.775 -0.3515  0.5462 -0.8667
 2845Sol     OW14699   0.861   0.548   3.951 -0.1851  0.0408  0.1247
 2845Sol     HW14700   0.782   0.503   3.984 -1.4953  2.0351 -0.2030
 2845Sol     HW14701   0.840   0.568   3.860  1.3560 -0.8136 -0.4247
 2845Sol     MW14702   0.852   0.546   3.946 -0.2476 -0.1581 -0.8403
 2846Sol     OW14703   0.487   2.378   3.516 -0.1944  0.2430  0.2679
 2846Sol     HW14704   0.527   2.309   3.464 -0.6612 -0.5954  1.0050
 2846Sol     HW14705   0.538   2.380   3.597  1.4638  2.5397 -0.7735
 2846Sol     MW14706   0.495   2.372   3.519 -0.3663 -0.4824  0.3580
 2847Sol     OW14707   2.748   1.484   8.096 -0.4046  0.4230 -0.1262
 2847Sol     HW14708   2.761   1.399   8.054 -1.4782 -0.7088  1.7830
 2847Sol     HW14709   2.826   1.497   8.149  0.3605  1.2511 -1.4431
 2847Sol     MW14710   2.756   1.478   8.097  0.4908 -0.0771  0.0229
 2848Sol     OW14711   2.545   1.770   3.347 -0.2223 -0.6406  0.0633
 2848Sol     HW14712   2.612   1.736   3.406 -1.6312 -2.5774  0.6257
 2848Sol     HW14713   2.512   1.692   3.302 -0.2658  0.6232 -2.1300
 2848Sol     MW14714   2.548   1.760   3.349 -0.3872 -0.2219  0.1719
 2849Sol     OW14715   0.182   3.296   7.819  0.2836 -0.2492  0.4394
 2849Sol     HW14716   0.137   3.267   7.739  0.4756 -0.4730  0.4085
 2849Sol     HW14717   0.169   3.390   7.821  2.1399  0.0852 -1.0476
 2849Sol     MW14718   0.177   3.302   7.812  0.4671  0.3682 -0.5763
 2850Sol     OW14719   1.905   0.385   6.337  0.2753 -0.1758  0.2583
 2850Sol     HW14720   1.994   0.414   6.356  0.9941 -0.8301 -1.8992
 2850Sol     HW14721   1.903   0.295   6.369  0.8611 -0.6240 -0.9059
 2850Sol     MW14722   1.913   0.379   6.341 -0.0589 -0.3329  0.1347
 2851Sol     OW14723   0.857   1.982   9.440  0.2987 -0.0698  0.3721
 2851Sol     HW14724   0.943   2.007   9.475 -0.0237  3.0554 -0.9353
 2851Sol     HW14725   0.861   2.005   9.347 -1.1210 -2.2048 -0.2534
 2851Sol     MW14726   0.865   1.987   9.435 -0.3608  0.4240  0.4291
 2852Sol     OW14727   0.827   2.900   8.280  0.7604  0.2258 -0.7379
 2852Sol     HW14728   0.755   2.921   8.339  2.0902  2.2784  0.2380
 2852Sol     HW14729   0.812   2.809   8.255 -0.7310 -0.1917  1.4887
 2852Sol     MW14730   0.819   2.894   8.283  0.2068  0.1007  0.1661
 2853Sol     OW14731   0.580   0.197   4.484 -0.3393 -0.2369  0.2826
 2853Sol     HW14732   0.518   0.232   4.420  0.9394  0.5805 -0.5304
 2853Sol     HW14733   0.532   0.126   4.527 -1.4715 -0.3170 -1.0648
 2853Sol     MW14734   0.570   0.194   4.482  0.1043 -0.4532  0.2504
 2854Sol     OW14735   1.453   0.449   9.552 -0.3410 -0.1284 -0.1240
 2854Sol     HW14736   1.370   0.403   9.542 -0.5132 -0.0724  1.0151
 2854Sol     HW14737   1.518   0.388   9.517 -0.8248 -0.2971 -0.7341
 2854Sol     MW14738   1.452   0.439   9.548  0.0491  0.5140  0.0060
 2855Sol     OW14739   0.024   1.384   8.164  0.2939  0.0538  0.2233
 2855Sol     HW14740   0.012   1.310   8.224  0.0705  0.8677  1.1967
 2855Sol     HW14741   0.025   1.461   8.221 -0.4012  0.8830 -0.8639
 2855Sol     MW14742   0.023   1.384   8.175 -0.1322 -0.0587  0.1678
 2856Sol     OW14743   2.577   0.302   8.362 -0.0242  0.2541 -0.0762
 2856Sol     HW14744   2.590   0.229   8.423 -0.6122 -0.2978 -0.6076
 2856Sol     HW14745   2.499   0.278   8.312 -0.6002  1.5315  0.1734
 2856Sol     MW14746   2.571   0.294   8.363  0.1508  0.2410  0.4032
 2857Sol     OW14747   2.509   3.029   9.340 -0.0800  0.6250  0.1366
 2857Sol     HW14748   2.443   3.080   9.386  0.0200  2.2564 -1.4212
 2857Sol     HW14749   2.462   2.954   9.305 -0.1903 -0.5104  2.6648
 2857Sol     MW14750   2.499   3.027   9.341 -0.2472 -0.2276 -0.4345
 2858Sol     OW14751   0.827   2.086   2.791 -0.0184 -0.4128  0.2405
 2858Sol     HW14752   0.813   2.006   2.742  0.6599 -0.0690 -0.5195
 2858Sol     HW14753   0.773   2.076   2.869  0.1054 -1.6295  0.1781
 2858Sol     MW14754   0.821   2.078   2.794 -0.0363 -0.6060  0.0348
 2859Sol     OW14755   1.149   1.826   4.055  0.1620 -0.1576 -0.2097
 2859Sol     HW14756   1.083   1.782   4.003  0.2087 -1.2256  0.6161
 2859Sol     HW14757   1.124   1.808   4.146 -0.2953  2.2128  0.1719
 2859Sol     MW14758   1.141   1.821   4.059 -0.2713  0.1034  0.1803
 2860Sol     OW14759   1.234   0.867   3.580 -0.7095 -0.7357  0.2586
 2860Sol     HW14760   1.163   0.894   3.639 -2.1888 -2.1625 -0.8222
 2860Sol     HW14761   1.281   0.800   3.629 -1.1581 -1.0093  0.3229
 2860Sol     MW14762   1.232   0.863   3.590 -0.2994 -0.0167 -0.1716
 2861Sol     OW14763   0.984   0.948   6.609 -0.9063 -0.5263  0.1655
 2861Sol     HW14764   1.018   0.870   6.652  3.1921  0.8670 -0.2240
 2861Sol     HW14765   0.959   1.007   6.680 -1.0339 -1.0084  0.5160
 2861Sol     MW14766   0.985   0.947   6.619  0.2624  0.7342  0.2040
 2862Sol     OW14767   2.352   1.252   4.698 -0.3054 -0.0622 -0.0547
 2862Sol     HW14768   2.350   1.265   4.793 -0.2765 -1.1482  0.1007
 2862Sol     HW14769   2.317   1.165   4.684 -2.6788  1.0411 -1.2648
 2862Sol     MW14770   2.349   1.246   4.705  0.4109 -0.9757  0.2581
 2863Sol     OW14771   0.190   0.768   7.126 -0.0035 -0.0958  0.5188
 2863Sol     HW14772   0.127   0.831   7.162 -2.5366 -1.3318 -1.6650
 2863Sol     HW14773   0.232   0.815   7.054  0.1760  0.0731  0.7330
 2863Sol     MW14774   0.188   0.778   7.123 -0.0390  0.6481  1.1174
 2864Sol     OW14775   2.193   0.772   9.572  0.0881 -0.2887 -0.0991
 2864Sol     HW14776   2.274   0.808   9.610  0.5025 -1.5295  0.2211
 2864Sol     HW14777   2.144   0.740   9.648  0.7523 -2.4604 -0.5658
 2864Sol     MW14778   2.196   0.772   9.583 -0.4367 -0.2057  0.1607
 2865Sol     OW14779   1.400   0.205   3.470 -0.4782 -0.0590  0.3115
 2865Sol     HW14780   1.389   0.129   3.528 -0.1519 -0.8137 -0.6087
 2865Sol     HW14781   1.494   0.216   3.462 -0.5184 -0.2505 -0.4547
 2865Sol     MW14782   1.407   0.199   3.474  0.8165  0.5852 -0.5271
 2866Sol     OW14783   3.190   3.273   4.271 -0.0886  0.4743 -0.2451
 2866Sol     HW14784   3.158   3.283   4.360  1.1039 -0.1483  0.2687
 2866Sol     HW14785   3.221   3.182   4.267  1.8177  1.1269 -0.6448
 2866Sol     MW14786   3.190   3.266   4.278 -1.1927  0.4298 -0.2573
 2867Sol     OW14787   2.749   0.045   5.457  0.0892 -0.1234  0.2882
 2867Sol     HW14788   2.798   0.127   5.455  1.4538 -0.9193  0.2297
 2867Sol     HW14789   2.808  -0.017   5.500 -0.7648 -1.1776 -0.0297
 2867Sol     MW14790   2.759   0.046   5.461  0.0160  0.7389 -0.4749
 2868Sol     OW14791   1.579   3.239   8.190  0.0628 -0.0133 -0.0383
 2868Sol     HW14792   1.498   3.279   8.223 -0.9021 -1.5338 -0.5332
 2868Sol     HW14793   1.602   3.292   8.114 -0.4045  0.4817  0.1591
 2868Sol     MW14794   1.573   3.248   8.186 -0.0944  0.4637 -0.1030
 2869Sol     OW14795   2.253   1.135   5.110 -0.1746  0.0423 -0.8270
 2869Sol     HW14796   2.177   1.140   5.052 -0.7800  1.0266  0.0314
 2869Sol     HW14797   2.321   1.183   5.064 -0.6708  0.8701 -0.7151
 2869Sol     MW14798   2.252   1.140   5.100  0.5216 -0.2859 -0.1434
 2870Sol     OW14799   3.229   3.200   8.989 -0.4255 -0.6666 -0.2286
 2870Sol     HW14800   3.317   3.232   9.011 -0.5634 -0.0838 -0.5071
 2870Sol     HW14801   3.245   3.119   8.940 -0.0789 -1.1376  0.6461
 2870Sol     MW14802   3.238   3.196   8.986 -0.0234 -0.5097  0.1082
 2871Sol     OW14803   1.968   2.373   3.509  0.0024 -0.1738 -0.3937
 2871Sol     HW14804   1.921   2.348   3.588 -1.0876 -1.7069 -1.5061
 2871Sol     HW14805   1.904   2.422   3.457  0.3604 -0.1990 -0.8630
 2871Sol     MW14806   1.958   2.375   3.511 -0.1533 -0.0418  0.3976
 2872Sol     OW14807   2.644   1.255   4.289 -0.0488  0.6522  0.3654
 2872Sol     HW14808   2.610   1.241   4.378 -3.6184 -2.3262 -1.3308
 2872Sol     HW14809   2.592   1.327   4.255  3.2734  3.7459  1.5430
 2872Sol     MW14810   2.636   1.260   4.294  0.2347  0.2361  1.0212
 2873Sol     OW14811   2.702   1.963   7.985 -0.5327 -0.3805  0.8822
 2873Sol     HW14812   2.685   1.900   7.914  2.0693 -0.0044 -0.1063
 2873Sol     HW14813   2.720   1.908   8.061 -0.4549 -0.8067  0.5599
 2873Sol     MW14814   2.702   1.952   7.985 -0.6138 -0.1293 -0.5211
 2874Sol     OW14815   0.226   1.099   5.256  0.1117 -0.3053  0.2224
 2874Sol     HW14816   0.213   1.154   5.179  0.2157 -0.7815 -0.1455
 2874Sol     HW14817   0.303   1.136   5.300  1.1308 -1.0748 -0.8630
 2874Sol     MW14818   0.232   1.107   5.253  0.9106 -0.0209 -0.2137
 2875Sol     OW14819   1.947   2.068   5.226  0.7338  0.1804 -0.5539
 2875Sol     HW14820   1.861   2.039   5.198  0.2001  1.0789  0.1187
 2875Sol     HW14821   1.941   2.164   5.228  2.5217  0.3949 -2.9892
 2875Sol     MW14822   1.939   2.074   5.224 -0.4116 -0.5180  0.8554
 2876Sol     OW14823   1.443   2.210   6.167  0.4639  0.1196  0.5519
 2876Sol     HW14824   1.407   2.137   6.219  0.8464 -0.1045  0.5046
 2876Sol     HW14825   1.367   2.265   6.148 -0.1039 -1.0191 -0.6422
 2876Sol     MW14826   1.433   2.208   6.170  0.4529 -0.3039 -0.2157
 2877Sol     OW14827   1.051   1.782   7.837  0.0961  0.4107 -0.6125
 2877Sol     HW14828   0.998   1.703   7.852 -1.4178  1.5528  0.2078
 2877Sol     HW14829   1.139   1.748   7.818 -0.2490 -1.4545  0.8298
 2877Sol     MW14830   1.054   1.772   7.837 -0.1430 -0.0084  0.1740
 2878Sol     OW14831   3.356   2.814   9.466  0.6687  0.4922 -0.0714
 2878Sol     HW14832   3.295   2.763   9.520  0.7284 -1.2939 -1.6538
 2878Sol     HW14833   3.416   2.854   9.529  0.4419 -1.1481  1.2155
 2878Sol     MW14834   3.356   2.813   9.477  0.3804  0.3839  0.1149
 2879Sol     OW14835   0.845   0.220   6.492  0.0041 -0.4532  0.2736
 2879Sol     HW14836   0.805   0.143   6.532 -2.3380  1.7235  2.3262
 2879Sol     HW14837   0.791   0.237   6.414  0.7757 -1.1147 -0.4097
 2879Sol     MW14838   0.836   0.215   6.488  0.3664 -0.0456  0.2847
 2880Sol     OW14839   0.426   3.445   7.135  0.0728 -0.2103 -0.2899
 2880Sol     HW14840   0.447   3.390   7.059  0.4380 -0.5286  0.0370
 2880Sol     HW14841   0.384   3.522   7.098  2.2941  0.6949 -1.0302
 2880Sol     MW14842   0.424   3.447   7.125 -0.5974 -0.3084 -0.0900
 2881Sol     OW14843   2.383   2.682   7.329  0.3777  0.4391 -0.0764
 2881Sol     HW14844   2.310   2.720   7.280  0.3306  0.7674  0.2425
 2881Sol     HW14845   2.380   2.589   7.308 -1.4729  0.0631  1.6120
 2881Sol     MW14846   2.376   2.677   7.323  0.2986  0.3028 -0.0838
 2882Sol     OW14847   1.222   3.129   5.661 -0.1862  0.4451 -0.4500
 2882Sol     HW14848   1.247   3.209   5.616 -1.8784  1.2672  0.0359
 2882Sol     HW14849   1.145   3.097   5.612 -0.3780 -0.1194  0.2127
 2882Sol     MW14850   1.217   3.133   5.652  0.3266  0.3023  0.2140
 2883Sol     OW14851   2.101   2.810   8.105  0.1298  0.3318  0.1421
 2883Sol     HW14852   2.109   2.741   8.039  0.2696  0.9919 -0.5419
 2883Sol     HW14853   2.009   2.835   8.102 -0.1434 -0.5399  1.1263
 2883Sol     MW14854   2.094   2.806   8.099 -0.4623  0.3227  0.4854
 2884Sol     OW14855   1.532   0.225   4.757  0.2512  0.5869 -0.0226
 2884Sol     HW14856   1.602   0.271   4.711  3.3608 -0.9345  2.9252
 2884Sol     HW14857   1.548   0.245   4.850 -2.3295 -1.0695  0.8343
 2884Sol     MW14858   1.540   0.231   4.762 -0.0340  0.0691  0.3112
 2885Sol     OW14859   2.317   1.621   2.999  0.5586  0.0761 -1.1607
 2885Sol     HW14860   2.226   1.594   2.989  1.0786 -1.3794 -2.1838
 2885Sol     HW14861   2.315   1.716   2.991 -0.9899  0.1433 -0.2021
 2885Sol     MW14862   2.309   1.627   2.997  0.5762  0.5519 -0.4867
 2886Sol     OW14863   2.438   3.311   6.421  0.6465  0.8783 -0.1538
 2886Sol     HW14864   2.381   3.329   6.346  0.6232  1.2263 -0.0532
 2886Sol     HW14865   2.380   3.312   6.496  0.8914  1.9429  0.0334
 2886Sol     MW14866   2.428   3.313   6.421  0.1414 -0.3271 -0.0689
 2887Sol     OW14867   1.440   2.956   3.162 -0.4636  0.1429 -0.5037
 2887Sol     HW14868   1.483   2.876   3.193 -1.7398  0.2363  1.5797
 2887Sol     HW14869   1.379   2.925   3.094  1.1178 -0.2808 -1.7480
 2887Sol     MW14870   1.438   2.946   3.158  0.3852 -0.6249 -0.0788
 2888Sol     OW14871   1.416   1.292   4.733  0.7489 -0.4829  0.0445
 2888Sol     HW14872   1.489   1.343   4.696  0.1104  1.2947  1.1738
 2888Sol     HW14873   1.417   1.313   4.826 -0.6689 -1.1305  0.2121
 2888Sol     MW14874   1.423   1.298   4.738 -1.1263 -0.6065  0.3330
 2889Sol     OW14875   2.054   0.350   2.643 -0.2924  0.1773  0.2769
 2889Sol     HW14876   2.068   0.391   2.728  2.1694 -1.2681  0.6106
 2889Sol     HW14877   2.037   0.258   2.663 -0.3077 -0.0480 -0.7525
 2889Sol     MW14878   2.054   0.346   2.652 -0.4645  0.0564 -0.0137
 2890Sol     OW14879   0.428   2.301   7.426 -0.3210 -0.0511 -0.1621
 2890Sol     HW14880   0.415   2.208   7.408 -0.6292  0.4145 -2.5450
 2890Sol     HW14881   0.341   2.340   7.419 -0.1793  0.4479  0.7032
 2890Sol     MW14882   0.419   2.296   7.424 -0.6824 -0.0823 -0.3907
 2891Sol     OW14883   3.357   1.816   3.644  0.2397 -0.2910  0.1222
 2891Sol     HW14884   3.392   1.730   3.621 -0.2215  0.2323 -2.8506
 2891Sol     HW14885   3.265   1.812   3.619  0.1998  1.0065 -0.0037
 2891Sol     MW14886   3.352   1.808   3.639 -0.0290 -0.0631  0.0469
 2892Sol     OW14887   2.317   3.282   1.652  0.1589  0.6135 -0.0304
 2892Sol     HW14888   2.281   3.272   1.740  0.7650 -0.3154  0.1164
 2892Sol     HW14889   2.267   3.221   1.598 -0.4888  1.4752 -0.4197
 2892Sol     MW14890   2.309   3.276   1.655 -0.0228  0.1305 -0.1354
 2893Sol     OW14891   2.177   0.898   7.863 -0.6390  0.0478 -0.2285
 2893Sol     HW14892   2.180   0.961   7.935 -0.1333  0.2744 -0.4518
 2893Sol     HW14893   2.119   0.939   7.799 -0.3965  0.2398 -0.3270
 2893Sol     MW14894   2.172   0.908   7.864  0.4062  0.6396  0.7755
 2894Sol     OW14895   2.626   2.597   4.035 -0.3563 -0.2991  0.4460
 2894Sol     HW14896   2.602   2.612   3.943  1.5347 -1.2422 -0.2366
 2894Sol     HW14897   2.679   2.518   4.033 -3.1134 -2.2912  2.8625
 2894Sol     MW14898   2.629   2.591   4.026 -0.0505 -0.4837 -0.4208
 2895Sol     OW14899   1.738   2.693   9.466  0.6677 -0.0587  0.4322
 2895Sol     HW14900   1.663   2.665   9.413  1.6871  0.3965 -1.2783
 2895Sol     HW14901   1.750   2.622   9.529 -0.1588 -0.9219 -0.3653
 2895Sol     MW14902   1.732   2.684   9.467 -0.0145  0.0663 -0.3577
 2896Sol     OW14903   0.235   1.773   4.320  0.6242  0.3554  0.1579
 2896Sol     HW14904   0.180   1.852   4.322  2.5279  1.6997  0.1419
 2896Sol     HW14905   0.214   1.728   4.402 -1.9037 -0.1488 -0.7082
 2896Sol     MW14906   0.228   1.776   4.328  0.8519 -0.0464 -0.8379
 2897Sol     OW14907   1.286   2.851   4.566  0.1411  0.1582 -0.7135
 2897Sol     HW14908   1.306   2.864   4.473  0.3599  0.6016 -0.6083
 2897Sol     HW14909   1.241   2.767   4.570 -0.9456  0.6997 -1.3698
 2897Sol     MW14910   1.284   2.845   4.558 -0.5507  0.3741  0.1716
 2898Sol     OW14911   1.004   2.228   4.215 -0.1492  0.2184 -0.4948
 2898Sol     HW14912   1.052   2.166   4.160 -0.1069 -1.4982  1.3991
 2898Sol     HW14913   1.065   2.300   4.229  0.8833 -0.6614 -0.3788
 2898Sol     MW14914   1.014   2.229   4.212  0.3297 -0.1969  0.6517
 2899Sol     OW14915   2.830   2.582   4.661  0.4215  0.5048  0.7634
 2899Sol     HW14916   2.893   2.588   4.590  0.5502  0.9557  0.9176
 2899Sol     HW14917   2.745   2.599   4.620  0.7225  2.9990  1.1092
 2899Sol     MW14918   2.828   2.584   4.651 -0.6813  0.1667 -0.4385
 2900Sol     OW14919   0.986   1.263   5.456 -0.0678  0.2004 -0.4213
 2900Sol     HW14920   0.945   1.190   5.410  0.3417 -0.7836  0.7272
 2900Sol     HW14921   0.992   1.233   5.547  5.5126 -0.7924 -0.9481
 2900Sol     MW14922   0.983   1.254   5.460  0.6461 -0.1263 -0.3427
 2901Sol     OW14923   0.828   0.440   1.972  1.0391 -0.6757  0.2431
 2901Sol     HW14924   0.740   0.402   1.966  0.5767  0.2759  0.8328
 2901Sol     HW14925   0.884   0.365   1.991  0.1417 -1.0994  1.3532
 2901Sol     MW14926   0.825   0.430   1.973  0.8873  0.7455 -0.0422
 2902Sol     OW14927   2.922   0.668   4.995  0.1242 -0.4648 -0.5850
 2902Sol     HW14928   2.868   0.591   5.011 -0.3900 -0.4352 -2.1662
 2902Sol     HW14929   2.948   0.697   5.083 -1.2537 -1.2998  0.1173
 2902Sol     MW14930   2.920   0.664   5.004  0.4956 -0.0154  0.0949
 2903Sol     OW14931   1.376   1.068   1.926 -0.5297 -0.7361  0.2833
 2903Sol     HW14932   1.314   1.083   1.855  1.7344  0.2024 -1.5796
 2903Sol     HW14933   1.424   0.990   1.900  0.4950 -0.2370  0.6456
 2903Sol     MW14934   1.375   1.063   1.917 -0.3171  0.1525  0.3217
 2904Sol     OW14935   2.876   0.583   7.491 -0.1373 -0.0289  0.1897
 2904Sol     HW14936   2.830   0.557   7.411  0.3352  0.2145 -0.1698
 2904Sol     HW14937   2.826   0.657   7.525 -0.3915 -0.1915  0.1653
 2904Sol     MW14938   2.868   0.588   7.487  0.6148 -0.3479  0.1974
 2905Sol     OW14939   1.357   0.514   8.447 -0.0429 -0.6219 -0.2816
 2905Sol     HW14940   1.449   0.529   8.471  0.3519 -1.0750 -1.4561
 2905Sol     HW14941   1.334   0.589   8.391 -0.5842 -0.1840  0.5238
 2905Sol     MW14942   1.363   0.522   8.444 -0.1003  0.3396 -0.1062
 2906Sol     OW14943   2.164   1.806   3.315 -0.3000  0.3292 -0.4281
 2906Sol     HW14944   2.143   1.899   3.328 -1.2400 -0.0209  0.6005
 2906Sol     HW14945   2.094   1.759   3.361  0.4771 -0.8884 -0.4842
 2906Sol     MW14946   2.156   1.810   3.320  1.1932  0.2628  0.3748
 2907Sol     OW14947   2.275   2.978   5.124 -0.1344  1.1058 -0.0752
 2907Sol     HW14948   2.272   3.027   5.042 -0.8578  0.1539 -0.6270
 2907Sol     HW14949   2.286   3.045   5.192 -0.7991  1.9963 -0.8337
 2907Sol     MW14950   2.276   2.988   5.123  0.1678  0.3278 -0.4847
 2908Sol     OW14951   3.235   1.420   4.026 -0.1162  0.1290 -0.5538
 2908Sol     HW14952   3.300   1.481   4.060 -0.1118  0.0207 -0.3697
 2908Sol     HW14953   3.228   1.351   4.092 -1.0175  0.5620 -0.1836
 2908Sol     MW14954   3.240   1.419   4.035  0.0492 -0.1285  0.2848
 2909Sol     OW14955   3.206   3.052   3.568 -0.5912  0.0233 -0.0262
 2909Sol     HW14956   3.143   2.985   3.540 -0.4929  0.2252 -0.7284
 2909Sol     HW14957   3.247   3.015   3.647 -0.9628 -0.4850 -0.0722
 2909Sol     MW14958   3.204   3.043   3.573 -0.1143 -0.4478  0.5754
 2910Sol     OW14959   2.336   2.112   5.499  0.0590 -0.0478 -0.2876
 2910Sol     HW14960   2.370   2.052   5.432 -1.7511 -0.0588 -1.2041
 2910Sol     HW14961   2.311   2.190   5.451  0.2795  0.5758  0.6058
 2910Sol     MW14962   2.337   2.113   5.489 -0.4525 -0.8146 -0.1243
 2911Sol     OW14963   2.828   1.765   6.995 -0.4403 -0.2154 -0.1844
 2911Sol     HW14964   2.886   1.691   6.975  0.5166  0.8188 -1.3083
 2911Sol     HW14965   2.855   1.834   6.934 -3.4552  0.0080 -1.3473
 2911Sol     MW14966   2.836   1.764   6.988  0.1785  0.1166  0.6486
 2912Sol     OW14967   1.203   1.994   8.911 -0.5812 -0.4987 -0.9167
 2912Sol     HW14968   1.272   2.049   8.947 -0.4650 -0.1989 -1.5856
 2912Sol     HW14969   1.123   2.045   8.924 -0.3709  0.2028 -2.2756
 2912Sol     MW14970   1.202   2.004   8.915 -0.3824  0.4375  0.3330
 2913Sol     OW14971   2.359   3.052   7.994  0.0673  0.0934  0.7187
 2913Sol     HW14972   2.348   3.035   8.088  1.5001 -2.6293  0.4408
 2913Sol     HW14973   2.447   3.090   7.987  0.2800 -0.4511  0.4067
 2913Sol     MW14974   2.366   3.054   8.002  0.2033  0.5649 -0.3880
 2914Sol     OW14975   2.833   3.456   2.175  0.8057 -0.1272  0.3387
 2914Sol     HW14976   2.846   3.545   2.208  0.1566  0.1263 -0.0851
 2914Sol     HW14977   2.822   3.466   2.081  0.8173 -0.6653  0.2786
 2914Sol     MW14978   2.833   3.465   2.170  0.0289 -0.4094 -0.1870
 2915Sol     OW14979   2.144   0.861   3.899  0.0298  0.3382 -0.1111
 2915Sol     HW14980   2.238   0.875   3.891  0.0872 -1.1974 -2.6607
 2915Sol     HW14981   2.134   0.802   3.974  0.8986  2.1128  1.4481
 2915Sol     MW14982   2.151   0.857   3.905 -0.3833 -0.2733 -0.9956
 2916Sol     OW14983   3.305   1.348   1.684 -0.1615  0.6930  0.3557
 2916Sol     HW14984   3.342   1.405   1.752  0.3958 -0.4074  0.9846
 2916Sol     HW14985   3.324   1.260   1.714 -0.3950  0.1833 -0.9821
 2916Sol     MW14986   3.310   1.346   1.693  0.1107 -0.1829  0.5626
 2917Sol     OW14987   2.940   1.133   2.701  0.2348 -0.3067  0.3302
 2917Sol     HW14988   2.987   1.164   2.624 -2.4662  1.1621 -0.8231
 2917Sol     HW14989   2.939   1.208   2.761 -0.9065 -0.1747  0.1718
 2917Sol     MW14990   2.944   1.143   2.700 -0.1940  0.5958  0.2191
 2918Sol     OW14991   0.218   0.187   8.889 -0.1180  1.1223 -0.2987
 2918Sol     HW14992   0.251   0.130   8.959 -1.0639  0.4512 -0.3943
 2918Sol     HW14993   0.213   0.274   8.930  0.6423  1.0081  0.0577
 2918Sol     MW14994   0.220   0.190   8.899  0.3787  0.4249  0.0973
 2919Sol     OW14995   0.897   0.249   4.673 -0.4959 -0.5343 -0.4188
 2919Sol     HW14996   0.811   0.290   4.667 -0.8308 -1.5002 -2.7832
 2919Sol     HW14997   0.930   0.274   4.760 -2.1928  1.6973 -0.3813
 2919Sol     MW14998   0.892   0.255   4.680  0.7150 -0.0376  0.0731
 2920Sol     OW14999   2.951   0.619   2.309 -0.1684 -0.0756 -0.2923
 2920Sol     HW15000   3.008   0.696   2.302  0.8347 -0.6571  1.1676
 2920Sol     HW15001   2.888   0.629   2.238  0.2144  1.8751 -0.3858
 2920Sol     MW15002   2.950   0.627   2.302 -0.6650  0.1170  0.0715
 2921Sol     OW15003   2.062   1.965   9.464 -0.1632 -0.4694  0.3584
 2921Sol     HW15004   2.006   1.893   9.491 -0.3909  0.2775  1.9305
 2921Sol     HW15005   2.151   1.930   9.465 -0.1943 -0.5117  1.8783
 2921Sol     MW15006   2.065   1.956   9.466  0.5587 -0.4789 -0.1172
 2922Sol     OW15007   2.376   1.771   2.279 -0.0317 -0.8285 -0.3487
 2922Sol     HW15008   2.446   1.769   2.344  0.5618  0.3443 -0.9405
 2922Sol     HW15009   2.297   1.748   2.329  0.5550 -0.8125  0.6031
 2922Sol     MW15010   2.375   1.768   2.289 -0.5487  0.3350  0.5044
 2923Sol     OW15011   2.079   3.016   4.203  0.2601  0.0331  0.0560
 2923Sol     HW15012   2.044   3.018   4.114 -0.0870  0.6197  0.2061
 2923Sol     HW15013   2.125   3.099   4.213  2.0348 -0.8907 -0.2673
 2923Sol     MW15014   2.080   3.023   4.196  0.5626  0.2592  0.3417
 2924Sol     OW15015   0.255   3.258   8.072  0.3696  0.0272 -0.0208
 2924Sol     HW15016   0.236   3.265   7.979  1.1534 -0.0963 -0.1873
 2924Sol     HW15017   0.312   3.181   8.080 -0.2070 -0.3422  0.6362
 2924Sol     MW15018   0.258   3.252   8.065 -0.5545  0.2085  0.0847
 2925Sol     OW15019   1.838   1.098   6.191 -0.2614 -0.3387  0.2182
 2925Sol     HW15020   1.813   1.160   6.123 -1.4309 -1.0147  0.0148
 2925Sol     HW15021   1.931   1.114   6.206  0.5634 -1.6473 -3.0838
 2925Sol     MW15022   1.844   1.105   6.186 -0.4322 -0.2712  0.1031
 2926Sol     OW15023   2.630   1.446   1.740 -0.1341  0.3199  0.4311
 2926Sol     HW15024   2.692   1.410   1.677 -1.3560  1.5805 -1.5444
 2926Sol     HW15025   2.554   1.387   1.734 -0.9296  1.4103 -0.5835
 2926Sol     MW15026   2.629   1.437   1.734 -0.5384 -0.5962 -0.3053
 2927Sol     OW15027   1.345   2.935   2.287 -0.0651 -0.3440 -0.0098
 2927Sol     HW15028   1.404   3.003   2.318 -0.1877 -0.0550 -0.4122
 2927Sol     HW15029   1.396   2.888   2.221 -0.4887  0.2718 -0.7760
 2927Sol     MW15030   1.355   2.937   2.284  0.1529  0.2181 -0.9341
 2928Sol     OW15031   1.333   0.220   3.217  0.2984  0.3980 -0.2084
 2928Sol     HW15032   1.348   0.225   3.312 -0.1422  1.9895 -0.2124
 2928Sol     HW15033   1.386   0.146   3.189  0.9841  0.3380  1.1893
 2928Sol     MW15034   1.339   0.214   3.223 -0.0743  0.5131  0.5956
 2929Sol     OW15035   1.169   2.777   3.882 -0.6258  0.3653 -0.4022
 2929Sol     HW15036   1.212   2.860   3.863  0.2055  0.2007  0.7338
 2929Sol     HW15037   1.103   2.768   3.813  0.5754  1.0375 -1.6662
 2929Sol     MW15038   1.167   2.783   3.874  0.0371 -0.4036 -0.3081
 2930Sol     OW15039   1.225   0.479   4.283  0.1832 -0.3025 -0.1683
 2930Sol     HW15040   1.223   0.463   4.377  0.8225  1.3268  0.1412
 2930Sol     HW15041   1.189   0.399   4.244  2.2740 -2.0449  1.3388
 2930Sol     MW15042   1.222   0.470   4.288 -0.5166  0.8055 -0.2903
 2931Sol     OW15043   2.384   0.391   5.674 -0.3831  0.1677  0.6785
 2931Sol     HW15044   2.414   0.331   5.606  0.1120  0.6971  0.4229
 2931Sol     HW15045   2.377   0.476   5.630 -2.3526  0.0379  0.7091
 2931Sol     MW15046   2.386   0.394   5.664 -0.2260 -0.3636  0.1930
 2932Sol     OW15047   0.131   1.441   8.918 -0.0995 -0.3201  0.1190
 2932Sol     HW15048   0.147   1.363   8.972  1.0201  1.0783  1.8503
 2932Sol     HW15049   0.203   1.441   8.855  0.2662 -0.3131  0.5392
 2932Sol     MW15050   0.139   1.434   8.917  0.6925  0.1207 -0.4915
 2933Sol     OW15051   1.087   1.377   3.581  1.0115 -0.3362 -0.2884
 2933Sol     HW15052   1.003   1.362   3.625  0.2114  0.6929 -1.4185
 2933Sol     HW15053   1.133   1.294   3.587  0.3771 -0.5794  1.3424
 2933Sol     MW15054   1.084   1.368   3.586  0.4829  0.6751 -0.0322
 2934Sol     OW15055   1.070   2.204   6.720 -0.4560 -0.0127 -0.3178
 2934Sol     HW15056   1.056   2.142   6.648  0.2025 -1.0706  0.4566
 2934Sol     HW15057   1.165   2.207   6.732 -0.3782  2.1590 -1.2040
 2934Sol     MW15058   1.077   2.199   6.714  0.6444  0.0738  0.6675
 2935Sol     OW15059   3.178   2.603   7.872  0.4609  0.2650 -0.8493
 2935Sol     HW15060   3.109   2.628   7.811 -0.6744 -3.1245 -1.0875
 2935Sol     HW15061   3.186   2.508   7.861  3.3131  0.2104  1.1132
 2935Sol     MW15062   3.173   2.597   7.865  0.2373  0.3961 -0.1184
 2936Sol     OW15063   1.854   0.529   6.713  0.0370  0.2438 -0.1429
 2936Sol     HW15064   1.804   0.536   6.631  0.1844 -0.0128 -0.2578
 2936Sol     HW15065   1.860   0.619   6.745  2.2742  0.7471 -1.8136
 2936Sol     MW15066   1.850   0.538   6.708  0.6470 -0.1091  0.2273
 2937Sol     OW15067   3.212   2.241   3.931  0.0848 -0.5377 -0.0555
 2937Sol     HW15068   3.163   2.205   4.005 -0.5182 -0.7623 -0.5540
 2937Sol     HW15069   3.187   2.186   3.857 -0.4069  0.5288 -0.7150
 2937Sol     MW15070   3.205   2.233   3.931 -0.3264 -0.5824  0.2329
 2938Sol     OW15071   0.835   2.440   7.107 -0.2459  0.5108 -0.0671
 2938Sol     HW15072   0.756   2.412   7.152  0.7924 -1.9511  0.3581
 2938Sol     HW15073   0.876   2.358   7.077  1.9798  1.7235 -0.5181
 2938Sol     MW15074   0.832   2.430   7.108  0.4980 -0.0641  0.4587
 2939Sol     OW15075   1.863   0.143   5.719  0.1273 -0.0686 -0.1654
 2939Sol     HW15076   1.930   0.189   5.771  0.6177 -0.7133 -0.2207
 2939Sol     HW15077   1.832   0.209   5.657 -0.5358  0.7402  1.0045
 2939Sol     MW15078   1.866   0.153   5.718 -0.1721  0.3454  0.0571
 2940Sol     OW15079   1.851   0.819   3.134 -0.1748  0.2308  0.6467
 2940Sol     HW15080   1.855   0.888   3.200  0.2533  0.6565  0.1925
 2940Sol     HW15081   1.773   0.839   3.083  0.8009  1.3305 -0.4757
 2940Sol     MW15082   1.845   0.827   3.135  0.1741  0.1382  0.2521
 2941Sol     OW15083   2.771   1.362   7.205  0.0746 -0.0112 -0.1335
 2941Sol     HW15084   2.838   1.411   7.158 -0.4080 -0.0589 -0.8713
 2941Sol     HW15085   2.721   1.429   7.252 -0.2546  0.1667 -0.7248
 2941Sol     MW15086   2.772   1.373   7.205  0.3642  0.4044  1.0561
 2942Sol     OW15087   1.986   1.440   8.039  0.3428 -0.6480  0.1117
 2942Sol     HW15088   1.907   1.421   7.988  2.0035 -0.9027 -2.4660
 2942Sol     HW15089   2.052   1.462   7.973  2.1303  0.7118  2.2797
 2942Sol     MW15090   1.985   1.441   8.029  0.0252  0.3179  0.1393
 2943Sol     OW15091   0.437   0.122   7.913  0.1500 -0.0294 -0.5649
 2943Sol     HW15092   0.526   0.156   7.905  0.1506 -0.1114 -0.9406
 2943Sol     HW15093   0.440   0.037   7.871  0.0492 -0.3206  0.0184
 2943Sol     MW15094   0.445   0.118   7.908  0.8870  0.7737 -0.3201
 2944Sol     OW15095   2.175   0.154   6.543  0.1152 -0.5502 -0.3182
 2944Sol     HW15096   2.178   0.060   6.559 -1.8411 -0.8668 -1.6489
 2944Sol     HW15097   2.256   0.174   6.497  1.3344 -1.2707  1.4706
 2944Sol     MW15098   2.183   0.147   6.540  0.3115  0.5750 -0.4011
 2945Sol     OW15099   1.035   3.001   5.516 -0.4739  0.7438 -0.6115
 2945Sol     HW15100   0.958   3.047   5.481 -0.0768  0.5016 -1.8586
 2945Sol     HW15101   1.009   2.909   5.520  0.4501  0.3034 -3.2245
 2945Sol     MW15102   1.026   2.997   5.513 -0.3408  0.2149 -0.1665
 2946Sol     OW15103   1.691   1.186   6.911  0.5109  0.5860  0.7038
 2946Sol     HW15104   1.753   1.116   6.888  0.2982 -0.6915  3.8454
 2946Sol     HW15105   1.741   1.267   6.898  1.7194 -0.2619 -0.1166
 2946Sol     MW15106   1.701   1.187   6.907 -0.3396 -0.5078  0.4450
 2947Sol     OW15107   0.978   2.189   8.500 -0.5976 -0.0932 -0.4553
 2947Sol     HW15108   0.972   2.093   8.497  0.4955 -0.1459 -1.1633
 2947Sol     HW15109   1.071   2.207   8.498 -0.8269  1.0129 -1.3093
 2947Sol     MW15110   0.986   2.182   8.499 -0.1345 -0.0219  0.7096
 2948Sol     OW15111   0.701   0.628   6.440  0.5374 -0.0457  0.7519
 2948Sol     HW15112   0.721   0.567   6.510 -1.6505 -0.1290  1.3212
 2948Sol     HW15113   0.713   0.715   6.480  1.3282 -0.0824  0.6118
 2948Sol     MW15114   0.704   0.631   6.450 -0.1395 -0.7269  0.2618
 2949Sol     OW15115   0.182   3.135   5.552  0.3657 -0.7677 -0.0945
 2949Sol     HW15116   0.192   3.165   5.642 -0.5616  1.1792 -0.6142
 2949Sol     HW15117   0.143   3.048   5.560 -0.5778 -0.2275  1.3628
 2949Sol     MW15118   0.179   3.130   5.561  0.0482 -0.1802 -0.2038
 2950Sol     OW15119   3.258   0.710   5.269 -0.5695 -0.6219 -0.5996
 2950Sol     HW15120   3.264   0.625   5.226 -1.7234 -1.3026  0.5348
 2950Sol     HW15121   3.164   0.728   5.274 -0.3116  1.0496 -1.4460
 2950Sol     MW15122   3.250   0.704   5.266  0.4074 -0.1115  0.4325
 2951Sol     OW15123   2.827   0.881   2.710  0.1223  0.1710 -0.6571
 2951Sol     HW15124   2.881   0.957   2.692  0.0112  0.0046 -1.7518
 2951Sol     HW15125   2.748   0.917   2.751  0.3812  0.5634 -0.4988
 2951Sol     MW15126   2.825   0.891   2.712 -0.5599 -0.0596 -0.1162
 2952Sol     OW15127   2.538   1.939   6.793 -0.1480  0.0371  0.2794
 2952Sol     HW15128   2.499   1.943   6.706 -1.3099 -0.8223  0.7509
 2952Sol     HW15129   2.484   1.999   6.846 -0.7720 -1.0487  0.8982
 2952Sol     MW15130   2.529   1.945   6.790  0.0079  0.7171 -0.0234
 2953Sol     OW15131   1.259   2.630   6.086  0.6734  0.1550  0.2920
 2953Sol     HW15132   1.297   2.687   6.153  0.6730 -0.0533  0.4688
 2953Sol     HW15133   1.169   2.660   6.077  1.1698  1.3672 -0.9012
 2953Sol     MW15134   1.254   2.638   6.091 -0.3444  0.1085 -0.1411
 2954Sol     OW15135   1.752   0.258   6.683  0.2347 -0.1653 -0.7705
 2954Sol     HW15136   1.806   0.338   6.681 -0.0152 -0.0023 -1.0421
 2954Sol     HW15137   1.803   0.196   6.735  0.3984  0.1958 -0.5015
 2954Sol     MW15138   1.762   0.260   6.687  0.3826  0.6338 -0.0632
 2955Sol     OW15139   3.180   2.326   7.853  0.4889  0.4404 -0.3241
 2955Sol     HW15140   3.184   2.300   7.945  0.7055  1.5011 -0.0198
 2955Sol     HW15141   3.092   2.304   7.826  0.9772 -1.5460 -0.3828
 2955Sol     MW15142   3.173   2.322   7.859  0.0276  0.1249  0.1677
 2956Sol     OW15143   0.834   0.032   2.056  0.5316 -0.3534 -0.2553
 2956Sol     HW15144   0.846  -0.058   2.025 -1.0379 -0.5977 -0.1725
 2956Sol     HW15145   0.786   0.023   2.139 -1.1389  0.6287 -1.0802
 2956Sol     MW15146   0.831   0.023   2.061 -0.3969 -0.1278  0.2857
 2957Sol     OW15147   0.890   0.173   8.999 -0.2015 -0.8307 -0.1583
 2957Sol     HW15148   0.871   0.081   9.019  0.1445 -1.2377 -1.5913
 2957Sol     HW15149   0.947   0.169   8.922  1.7153  0.5230  1.1468
 2957Sol     MW15150   0.894   0.164   8.994 -0.2584  0.1333 -0.7363
 2958Sol     OW15151   0.901   0.163   2.800 -0.0363  0.5864  0.3737
 2958Sol     HW15152   0.990   0.180   2.831 -0.5135 -0.8806  2.7595
 2958Sol     HW15153   0.912   0.101   2.728  0.8805  0.2300  0.8078
 2958Sol     MW15154   0.910   0.159   2.797  0.7407 -0.3014  0.4539
 2959Sol     OW15155   1.548   1.300   6.118 -0.3300  0.6311 -0.1192
 2959Sol     HW15156   1.498   1.228   6.156  0.3610  0.1869 -0.0614
 2959Sol     HW15157   1.611   1.258   6.060 -0.3545  1.2232 -0.5840
 2959Sol     MW15158   1.549   1.290   6.116 -0.1050 -0.0428 -1.0465
 2960Sol     OW15159   0.265   0.820   3.399 -0.0863 -0.7306 -0.4249
 2960Sol     HW15160   0.239   0.736   3.361 -0.7165 -0.9730  0.5334
 2960Sol     HW15161   0.349   0.802   3.441  0.4480 -0.5432 -1.3951
 2960Sol     MW15162   0.271   0.811   3.399  0.5531 -0.2113 -0.8007
 2961Sol     OW15163   2.640   0.146   7.498  0.4759 -0.0162  0.4890
 2961Sol     HW15164   2.702   0.160   7.426  0.3853 -0.3031  0.3546
 2961Sol     HW15165   2.668   0.064   7.538 -1.4004 -1.5326 -1.2080
 2961Sol     MW15166   2.648   0.140   7.495  0.4119 -0.4260 -0.4382
 2962Sol     OW15167   0.063   0.670   9.919 -0.4481  0.0294 -0.4572
 2962Sol     HW15168   0.031   0.622   9.844 -1.9212 -1.0425  0.8315
 2962Sol     HW15169   0.033   0.760   9.905  0.3383  0.1084 -1.7216
 2962Sol     MW15170   0.058   0.674   9.911 -0.0209  0.4568  0.6179
 2963Sol     OW15171   3.148   3.031   7.381  0.4452  0.1682 -0.4864
 2963Sol     HW15172   3.115   3.032   7.292  0.8447  0.0109 -0.6370
 2963Sol     HW15173   3.170   3.122   7.400 -1.2244  0.4878  0.0505
 2963Sol     MW15174   3.147   3.039   7.375 -0.2227 -0.7329  1.3302
 2964Sol     OW15175   2.967   2.213   7.450 -0.6355 -0.4590  0.0520
 2964Sol     HW15176   3.024   2.152   7.496 -0.6400 -0.9767 -0.6134
 2964Sol     HW15177   3.027   2.264   7.394 -0.7278 -0.4266 -0.0188
 2964Sol     MW15178   2.978   2.212   7.449  0.4441 -0.3827  0.1784
 2965Sol     OW15179   0.632   0.174   5.653  0.1261 -0.2245  0.0464
 2965Sol     HW15180   0.721   0.144   5.635 -0.5127 -2.4370  0.4169
 2965Sol     HW15181   0.643   0.264   5.683  2.1537 -0.1739 -0.7652
 2965Sol     MW15182   0.641   0.180   5.654 -0.4646  0.0379 -0.3213
 2966Sol     OW15183   1.450   3.061   4.738  0.1139 -0.0225  0.7316
 2966Sol     HW15184   1.527   3.097   4.782  1.3178 -1.5814 -0.0405
 2966Sol     HW15185   1.454   3.094   4.649 -0.9161  1.0509  1.0679
 2966Sol     MW15186   1.457   3.067   4.734  0.0334  0.7005 -1.5716
 2967Sol     OW15187   1.311   1.060   4.017  0.0466  0.0912  0.0383
 2967Sol     HW15188   1.368   0.990   3.985 -1.2143 -1.0465  0.2298
 2967Sol     HW15189   1.317   1.128   3.950  3.4791  1.0355  1.1895
 2967Sol     MW15190   1.316   1.060   4.008 -0.1118  0.6634  0.0732
 2968Sol     OW15191   2.742   1.753   7.812  0.1330  0.2954 -0.1119
 2968Sol     HW15192   2.803   1.688   7.846  0.4842 -0.1689 -1.5787
 2968Sol     HW15193   2.698   1.709   7.739  0.2935  1.6409 -1.0554
 2968Sol     MW15194   2.744   1.743   7.808  0.7140  0.0689  0.4275
 2969Sol     OW15195   0.430   1.235   8.908  0.3888  0.4576  0.0022
 2969Sol     HW15196   0.389   1.295   8.845  2.2668 -0.0963 -1.7930
 2969Sol     HW15197   0.474   1.170   8.854  0.5067 -1.0975  1.9240
 2969Sol     MW15198   0.430   1.235   8.898  0.0235 -0.5972  0.4928
 2970Sol     OW15199   2.328   0.998   3.495 -0.4101  0.4137 -0.3266
 2970Sol     HW15200   2.366   0.936   3.558 -1.7454 -0.9761 -0.8427
 2970Sol     HW15201   2.395   1.065   3.484  2.3463 -2.4706 -1.9195
 2970Sol     MW15202   2.338   0.998   3.499 -0.1748 -0.3104  0.5484
 2971Sol     OW15203   0.785   2.014   3.943  0.0709 -0.5618 -0.6100
 2971Sol     HW15204   0.786   1.951   4.015 -1.4649 -0.4231 -0.4474
 2971Sol     HW15205   0.694   2.043   3.938  0.6033  1.0509 -1.2060
 2971Sol     MW15206   0.777   2.011   3.949 -0.4759  0.0723 -0.1297
 2972Sol     OW15207   0.084   3.274   4.350 -0.1872 -0.3503  0.1593
 2972Sol     HW15208   0.131   3.219   4.287 -1.7660 -1.0100 -0.4490
 2972Sol     HW15209  -0.001   3.290   4.309 -1.8304 -2.0364  2.7718
 2972Sol     MW15210   0.081   3.271   4.341 -0.2652 -0.3093  0.0169
 2973Sol     OW15211   1.084   2.449   7.231 -0.0308 -0.0922  0.2052
 2973Sol     HW15212   1.107   2.528   7.279 -0.8152  0.1096  0.2591
 2973Sol     HW15213   0.991   2.460   7.211 -0.2069 -1.1313  0.4510
 2973Sol     MW15214   1.078   2.457   7.233 -0.0937  0.1096 -0.0709
 2974Sol     OW15215   0.357   1.066   3.731 -0.0701 -0.6276  0.0559
 2974Sol     HW15216   0.376   0.990   3.677  2.5424 -0.9709  1.3605
 2974Sol     HW15217   0.349   1.139   3.669  1.8145 -1.1927 -0.8880
 2974Sol     MW15218   0.358   1.066   3.721  1.3316  0.1984 -0.6173
 2975Sol     OW15219   3.067   3.245   2.810  0.2030  0.0422  0.1609
 2975Sol     HW15220   3.070   3.280   2.899  1.6437  1.1333 -0.2951
 2975Sol     HW15221   3.082   3.321   2.754 -0.2431 -0.7162 -1.0024
 2975Sol     MW15222   3.068   3.255   2.813  0.0640  0.0115 -0.2296
 2976Sol     OW15223   2.753   3.333   4.156 -0.2477  0.4095 -0.1782
 2976Sol     HW15224   2.844   3.315   4.133 -0.6563 -0.6395 -1.0099
 2976Sol     HW15225   2.715   3.371   4.077 -0.9246 -0.5632 -0.3268
 2976Sol     MW15226   2.758   3.335   4.147  0.0873 -0.5598  0.7625
 2977Sol     OW15227   1.642   2.045   4.294  0.2265 -0.2801 -0.0577
 2977Sol     HW15228   1.677   2.083   4.214 -1.5033  0.2639 -0.5817
 2977Sol     HW15229   1.552   2.077   4.298 -0.0178 -1.1339  1.5685
 2977Sol     MW15230   1.637   2.051   4.287 -0.2780  0.4921 -0.2314
 2978Sol     OW15231   1.965   3.016   3.957 -0.2501 -0.1080  0.4812
 2978Sol     HW15232   1.896   2.958   3.990 -1.6423  0.3819 -1.4864
 2978Sol     HW15233   2.019   2.960   3.902  1.3611 -0.6459  2.5510
 2978Sol     MW15234   1.964   3.006   3.955 -0.5429  0.1981  0.1094
 2979Sol     OW15235   2.692   2.530   2.878  0.3013  0.3147  0.3186
 2979Sol     HW15236   2.664   2.616   2.845  0.0981 -1.3455 -4.1580
 2979Sol     HW15237   2.611   2.478   2.877  1.1682 -1.0366 -0.9269
 2979Sol     MW15238   2.682   2.533   2.875 -0.3662 -0.0586 -1.0068
 2980Sol     OW15239   0.127   2.928   6.784 -0.1035 -0.3628  0.4953
 2980Sol     HW15240   0.110   2.834   6.788  0.3004 -0.4303  0.6419
 2980Sol     HW15241   0.222   2.935   6.782 -0.1488 -0.0227 -1.1281
 2980Sol     MW15242   0.134   2.920   6.784  0.3901 -0.2409  0.4763
 2981Sol     OW15243   3.334   2.537   2.806  0.3451 -0.1042 -0.0349
 2981Sol     HW15244   3.291   2.459   2.842  0.4358 -0.2220 -0.1796
 2981Sol     HW15245   3.427   2.513   2.800  0.2328 -0.3329 -0.9895
 2981Sol     MW15246   3.339   2.528   2.808  0.2578 -1.1397  0.0269
 2982Sol     OW15247   0.915   2.852   7.534 -0.4697 -0.1176 -0.4187
 2982Sol     HW15248   0.951   2.835   7.621 -1.3192  0.4595  0.0528
 2982Sol     HW15249   0.883   2.767   7.505  0.0257 -0.3584 -0.2681
 2982Sol     MW15250   0.916   2.843   7.539 -0.0008 -0.9079  0.5372
 2983Sol     OW15251   2.848   0.424   4.253 -0.5537  0.2268  0.4029
 2983Sol     HW15252   2.823   0.344   4.298 -0.5313  0.1259  0.2368
 2983Sol     HW15253   2.877   0.483   4.322  1.0113 -0.4842  0.3679
 2983Sol     MW15254   2.848   0.422   4.263  0.3322  0.2106 -0.1136
 2984Sol     OW15255   2.503   3.454   9.368  0.2637 -0.2457 -0.2467
 2984Sol     HW15256   2.530   3.421   9.282 -0.3797  0.6164 -0.7839
 2984Sol     HW15257   2.438   3.522   9.348  0.9850  0.7814  0.8787
 2984Sol     MW15258   2.500   3.457   9.358  1.2325 -0.1007 -0.4663
 2985Sol     OW15259   3.307   3.240   5.470 -0.3581  0.4492 -0.1956
 2985Sol     HW15260   3.287   3.328   5.500  0.6516 -0.2891  2.8171
 2985Sol     HW15261   3.402   3.233   5.477 -0.3310 -0.5448 -1.4028
 2985Sol     MW15262   3.313   3.247   5.474 -0.0984  0.2266 -0.3688
 2986Sol     OW15263   1.221   0.315   9.547 -0.0136  0.8766  0.3124
 2986Sol     HW15264   1.147   0.311   9.608 -1.2256  1.1882 -1.0966
 2986Sol     HW15265   1.195   0.258   9.475  1.0022  1.2122 -0.3257
 2986Sol     MW15266   1.212   0.310   9.546  0.3507 -0.3693  0.1290
 2987Sol     OW15267   1.425   1.537   3.628 -0.5520 -0.6074 -0.0830
 2987Sol     HW15268   1.516   1.533   3.657 -0.9364  0.1312  1.2382
 2987Sol     HW15269   1.405   1.448   3.599  0.3656 -0.9407  0.2924
 2987Sol     MW15270   1.431   1.529   3.628  0.2565 -0.2005  0.5960
 2988Sol     OW15271   2.318   3.239   9.423  0.1464  0.0353 -0.7973
 2988Sol     HW15272   2.285   3.257   9.511  1.0351 -2.1818  0.0250
 2988Sol     HW15273   2.364   3.319   9.398  1.4564  0.0494  1.5048
 2988Sol     MW15274   2.319   3.248   9.428  0.5531  0.5548  0.8880
 2989Sol     OW15275   0.757   2.970   3.215 -0.0320 -0.0811 -0.2406
 2989Sol     HW15276   0.674   2.936   3.250 -0.5380  0.5300 -0.8274
 2989Sol     HW15277   0.734   3.005   3.128  1.2625 -1.9044 -1.3631
 2989Sol     MW15278   0.747   2.970   3.210  0.4506 -0.2487 -0.2333
 2990Sol     OW15279   2.455   1.526   8.759  0.0096 -0.0960 -0.5681
 2990Sol     HW15280   2.447   1.503   8.667  1.3966 -1.2082 -0.4455
 2990Sol     HW15281   2.486   1.445   8.801  1.5636  1.0068  0.4882
 2990Sol     MW15282   2.457   1.517   8.755 -0.3962 -0.3718 -0.4761
 2991Sol     OW15283   2.524   0.405   6.828  0.1763 -0.2886 -0.6962
 2991Sol     HW15284   2.472   0.402   6.908 -0.2296 -1.4681 -0.9829
 2991Sol     HW15285   2.503   0.490   6.789  0.1480  0.1615  0.2962
 2991Sol     MW15286   2.517   0.412   6.831  0.3630 -0.3409 -0.0932
 2992Sol     OW15287   2.679   1.948   4.925  0.4077 -0.1070  0.0077
 2992Sol     HW15288   2.692   1.869   4.977  0.0634 -1.3130 -1.7091
 2992Sol     HW15289   2.601   1.930   4.873 -0.0001  1.5953  0.0099
 2992Sol     MW15290   2.673   1.939   4.925  0.2210  0.4234 -0.0469
 2993Sol     OW15291   2.814   1.112   5.213 -0.3134  0.0134  0.1173
 2993Sol     HW15292   2.730   1.068   5.221  0.2707 -0.7872  2.1882
 2993Sol     HW15293   2.825   1.125   5.119 -1.8679 -1.6027 -0.3268
 2993Sol     MW15294   2.808   1.109   5.205  0.0204 -0.1901  0.5508
 2994Sol     OW15295   2.168   1.581   7.230 -0.5322 -0.5985  0.1683
 2994Sol     HW15296   2.250   1.616   7.195 -0.8538 -0.6100 -0.5910
 2994Sol     HW15297   2.196   1.521   7.299  0.1404 -1.3264 -0.7326
 2994Sol     MW15298   2.178   1.579   7.233  0.0223  0.5911  0.2988
 2995Sol     OW15299   3.328   1.791   7.261 -0.7614 -0.0178  0.3402
 2995Sol     HW15300   3.253   1.733   7.256 -0.8453  0.0692  0.5797
 2995Sol     HW15301   3.355   1.803   7.170 -1.2360  0.2115  0.2284
 2995Sol     MW15302   3.324   1.787   7.252  0.3304  0.3149  0.1423
 2996Sol     OW15303   0.916   3.037   1.797 -0.0610  0.4204 -0.1646
 2996Sol     HW15304   0.991   3.077   1.752 -0.6023  0.6426 -0.8908
 2996Sol     HW15305   0.945   3.025   1.887  0.1517  2.4053  0.0609
 2996Sol     MW15306   0.925   3.039   1.801  0.2015  0.1733 -0.2177
 2997Sol     OW15307   3.290   0.247   3.751 -0.7018 -0.2049 -0.4276
 2997Sol     HW15308   3.195   0.250   3.747 -0.6440  0.2714 -1.4100
 2997Sol     HW15309   3.320   0.308   3.684  0.3010 -0.5835 -0.3413
 2997Sol     MW15310   3.284   0.253   3.745  0.6562  0.4803  0.0708
 2998Sol     OW15311   2.963   1.282   5.579  0.4266  0.0457 -0.7640
 2998Sol     HW15312   3.053   1.265   5.605  0.4966 -1.1961 -1.8112
 2998Sol     HW15313   2.942   1.365   5.622  1.8418  0.0270  0.0136
 2998Sol     MW15314   2.969   1.288   5.586 -0.5342  0.9113  0.0504
 2999Sol     OW15315   0.459   1.787   1.955  0.1754 -0.1417 -0.1386
 2999Sol     HW15316   0.510   1.840   2.016 -1.3894  0.9968  0.1929
 2999Sol     HW15317   0.439   1.707   2.004  1.1424 -0.3538 -0.0791
 2999Sol     MW15318   0.462   1.784   1.965  0.5485 -0.5210  0.6987
 3000Sol     OW15319   3.060   1.424   9.577  0.1384 -0.6270  0.0564
 3000Sol     HW15320   3.124   1.391   9.640 -1.4395 -2.4784  0.7458
 3000Sol     HW15321   3.046   1.516   9.602  1.6576 -0.5412  0.5998
 3000Sol     MW15322   3.064   1.429   9.585  0.0210  0.5539 -0.7311
 3001Sol     OW15323   2.894   2.470   5.985 -0.6953  0.4871 -0.4887
 3001Sol     HW15324   2.861   2.448   6.072 -0.4037 -1.3191 -0.8213
 3001Sol     HW15325   2.832   2.431   5.924  0.1565  0.0496 -1.0935
 3001Sol     MW15326   2.886   2.465   5.988  0.4202 -0.5672 -0.0253
   3.36930   3.46820  11.35270
