Water-ethanol mixture in organosilica
15158
    1Sil     Ob    1   2.519   0.600  11.257 -0.0765 -0.6181  0.1378
    1Sil     Ob    2   3.087   0.596  10.484  0.1515 -0.5962 -0.4665
    1Sil     Ob    3   2.328   1.100  10.827 -0.1780  0.1858 -0.4852
    1Sil     Ob    4   2.888   1.093  11.225  0.4242 -0.5781 -0.1695
    1Sil     Ob    5   2.694   0.995  10.474 -0.3247  0.5450 -0.7012
    1Sil     Ob    6   2.707   0.928  11.296 -0.0006  0.1170  0.2861
    1Sil     Ob    7   2.443   0.915  10.513 -0.0933  0.2962  0.6347
    1Sil     Ob    8   3.003   0.932  10.895  0.3400  0.3564 -0.1486
    1Sil     Ob    9   2.481   0.670  11.015 -0.2097 -0.6303  0.1369
    1Sil     Ob   10   2.778   0.668  10.630 -0.0523  0.5697  0.0503
    1Sil     Ob   11   2.476   0.853  11.205 -0.1982 -0.3656 -0.1374
    1Sil     Ob   12   2.207   0.858  10.415  0.4316  0.3022  0.0538
    1Sil     Ob   13   2.820   0.749  10.869  0.0060  0.0282 -0.0754
    1Sil     Ob   14   2.394   0.853  10.859  0.9180  0.0956  0.3922
    1Sil     Ob   15   2.943   0.847  11.262  0.1314  0.3357  0.3724
    1Sil     Ob   16   2.630   0.744  10.435  0.2857  0.2979 -0.2472
    1Sil     Ob   17   2.870   0.677  10.384  0.5062 -0.2480 -0.3564
    1Sil     Ob   18   2.286   0.682  11.170 -0.2454 -0.8387  0.0397
    1Sil     Ob   19   2.577   0.691  10.781 -0.6112 -0.3431  0.1522
    1Sil     Ob   20   2.236   0.925  10.660  0.0386  0.6180 -0.3718
    1Sil     Ob   21   2.796   0.918  11.056  0.6182 -0.1458  0.8671
    1Sil     Ob   22   2.459   0.590  12.469 -0.9600 -0.0347  0.1983
    1Sil     Ob   23   3.069   0.604  11.656 -0.0055  0.0670 -0.0046
    1Sil     Ob   24   2.285   1.089  12.009  0.3761 -0.0350  0.0324
    1Sil     Ob   25   2.830   1.097  12.422  0.5240 -0.7110 -0.0129
    1Sil     Ob   26   2.657   0.992  11.654  0.1436 -0.0461 -0.0060
    1Sil     Ob   27   2.653   0.929  12.502 -0.4297 -0.2913  0.0599
    1Sil     Ob   28   2.407   0.917  11.699 -0.5040 -0.0473  0.2788
    1Sil     Ob   29   2.946   0.898  12.096  0.3771 -0.4055  0.0340
    1Sil     Ob   30   2.436   0.667  12.217 -0.4575  0.0251 -0.1923
    1Sil     Ob   31   3.035   0.677  11.423  0.4294  1.0426  0.5109
    1Sil     Ob   32   2.726   0.662  11.817 -0.4439  0.0819 -0.2648
    1Sil     Ob   33   2.421   0.843  12.398  0.3405 -0.2460  0.0943
    1Sil     Ob   34   2.183   0.857  11.590 -0.1485  0.8455  0.7104
    1Sil     Ob   35   2.757   0.739  12.071 -0.3627 -0.0345 -0.1055
    1Sil     Ob   36   2.352   0.842  12.027 -0.0623 -0.0818 -0.0181
    1Sil     Ob   37   2.889   0.844  12.455 -0.2296  0.0211  0.4666
    1Sil     Ob   38   2.578   0.750  11.610  0.6927 -0.5177  0.2435
    1Sil     Ob   39   2.827   0.672  11.578 -0.6201 -0.5160 -0.4135
    1Sil     Ob   40   2.233   0.678  12.365 -0.0597  0.4812 -0.5100
    1Sil     Ob   41   2.530   0.658  11.973 -0.2235 -0.2205 -0.2271
    1Sil     Ob   42   2.194   0.921  11.843 -0.0073  0.3631 -0.3107
    1Sil     Ob   43   2.734   0.918  12.254 -0.5789  0.5366  0.1238
    1Sil     Ob   44   2.494   0.932  11.455 -0.5096  0.1535  0.0645
    1Sil     Ob   45   2.525   1.104  11.267  0.0216  0.5877 -0.0796
    1Sil     Ob   46   3.106   1.093  10.479  0.5497 -0.2595  0.0534
    1Sil     Ob   47   2.781   0.999  10.803  0.1711  0.2458 -0.2992
    1Sil     Ob   48   2.342   1.589  10.818  0.3906  0.3364 -0.5189
    1Sil     Ob   49   2.883   1.599  11.224 -0.4485  0.1961  1.1839
    1Sil     Ob   50   2.704   1.478  10.423 -0.3302 -0.3559 -0.5794
    1Sil     Ob   51   2.718   1.416  11.300  0.3440 -0.3374 -0.3596
    1Sil     Ob   52   2.469   1.414  10.491  0.6519  0.3875 -0.3660
    1Sil     Ob   53   2.987   1.425  10.898 -0.0500 -0.3632 -0.5664
    1Sil     Ob   54   2.494   1.177  11.024 -0.2921  0.3063 -0.2140
    1Sil     Ob   55   2.779   1.180  10.618 -0.6574  0.7937 -0.0151
    1Sil     Ob   56   2.483   1.349  11.213 -0.2163  0.5674  0.4444
    1Sil     Ob   57   2.238   1.350  10.411 -0.0616 -0.0397 -0.0275
    1Sil     Ob   58   2.805   1.251  10.874 -0.1698  0.1706 -0.1486
    1Sil     Ob   59   2.417   1.339  10.844 -0.3338 -0.3841  0.1548
    1Sil     Ob   60   2.955   1.345  11.236 -0.6714  0.3707  0.7645
    1Sil     Ob   61   2.631   1.236  10.404 -0.6043 -0.3610  0.0884
    1Sil     Ob   62   2.874   1.154  10.381  0.2905 -0.1864  0.3823
    1Sil     Ob   63   2.294   1.178  11.182  0.0226  0.8303 -0.5506
    1Sil     Ob   64   2.581   1.158  10.777 -0.1418 -0.1220 -0.2025
    1Sil     Ob   65   2.257   1.419  10.650 -0.5015 -0.0491 -0.0401
    1Sil     Ob   66   2.786   1.426  11.050  0.2819 -0.6727 -0.8118
    1Sil     Ob   67   2.466   1.096  12.456  0.1999  0.2154 -0.7923
    1Sil     Ob   68   3.056   1.099  11.665 -0.4341 -0.3467 -0.5479
    1Sil     Ob   69   2.719   0.979  12.003 -0.0057 -0.1791 -0.7047
    1Sil     Ob   70   2.285   1.587  12.021  0.3424  0.2226  0.5285
    1Sil     Ob   71   2.839   1.596  12.389  0.4488  0.5990 -0.6243
    1Sil     Ob   72   2.656   1.482  11.633 -0.3311  0.2182 -0.1189
    1Sil     Ob   73   2.674   1.430  12.495  0.7566 -0.4064 -0.3757
    1Sil     Ob   74   2.409   1.413  11.687 -0.2090  0.0788 -0.1116
    1Sil     Ob   75   2.946   1.412  12.086  0.2867 -0.2538 -0.2298
    1Sil     Ob   76   2.438   1.146  12.206  0.4320  0.6046  0.4083
    1Sil     Ob   77   3.033   1.172  11.413  0.0532  0.1411  0.1366
    1Sil     Ob   78   2.741   1.159  11.818  0.2912 -0.0009 -0.2195
    1Sil     Ob   79   2.448   1.335  12.389 -0.1266  0.2798  0.0591
    1Sil     Ob   80   2.175   1.342  11.593 -0.4410  0.4756 -0.4270
    1Sil     Ob   81   2.770   1.229  12.055  0.3727 -0.5279 -0.4710
    1Sil     Ob   82   2.353   1.328  12.050  0.1145  0.5284  0.0853
    1Sil     Ob   83   2.915   1.350  12.442  0.1013  0.1418  0.3761
    1Sil     Ob   84   2.574   1.234  11.629 -0.4730  0.4121 -0.1440
    1Sil     Ob   85   2.826   1.164  11.568  0.1276  0.4688  0.5087
    1Sil     Ob   86   2.241   1.183  12.369 -0.0771  0.1432  0.2967
    1Sil     Ob   87   2.537   1.157  11.969  0.3440 -0.5440 -0.2265
    1Sil     Ob   88   2.209   1.400  11.841  0.0741 -0.6174  0.3573
    1Sil     Ob   89   2.741   1.407  12.245 -0.0762  0.0077 -0.0860
    1Sil     Ob   90   2.501   1.408  11.449 -0.9267 -0.0489 -0.1510
    1Sil     Ob   91   2.525   1.589  11.271  0.3761  0.1784  0.8315
    1Sil     Ob   92   3.122   1.594  10.461  0.1399 -0.3556 -0.0389
    1Sil     Ob   93   2.753   1.499  10.803  0.1035  0.5424  0.0094
    1Sil     Ob   94   2.338   2.090  10.834 -0.4584  0.4538 -0.9540
    1Sil     Ob   95   2.884   2.089  11.213  0.1480  0.3040  0.1763
    1Sil     Ob   96   2.702   1.972  10.460  0.0638 -0.2661  0.2351
    1Sil     Ob   97   2.711   1.921  11.306 -0.2252 -0.2156  0.4722
    1Sil     Ob   98   2.453   1.880  10.483 -0.2873 -0.3179 -0.4188
    1Sil     Ob   99   3.015   1.906  10.906  0.0198 -0.1236  0.0748
    1Sil     Ob  100   2.497   1.667  11.016  0.2979 -0.4838  0.5182
    1Sil     Ob  101   2.794   1.657  10.602  0.3854  0.8871  0.1108
    1Sil     Ob  102   2.481   1.842  11.202  0.6158  0.1842  0.0009
    1Sil     Ob  103   2.204   1.830  10.416  0.1165  0.3285 -0.2447
    1Sil     Ob  104   2.821   1.737  10.856 -0.4026  0.1728  0.0466
    1Sil     Ob  105   2.406   1.835  10.862 -0.2042 -0.0599 -0.4230
    1Sil     Ob  106   2.950   1.839  11.262  0.0509  0.0222 -0.0738
    1Sil     Ob  107   2.646   1.730  10.389  0.0974  0.1125 -0.1134
    1Sil     Ob  108   2.885   1.645  10.351  0.5014  0.3122 -0.5188
    1Sil     Ob  109   2.296   1.656  11.176 -0.2019 -0.3702 -0.4627
    1Sil     Ob  110   2.582   1.666  10.760 -0.6022 -0.3000 -0.2837
    1Sil     Ob  111   2.251   1.913  10.658  0.4283 -0.5410 -0.3147
    1Sil     Ob  112   2.795   1.891  11.063  0.7018  0.3768 -0.7254
    1Sil     Ob  113   2.471   1.581  12.457  0.1634 -0.0325 -0.2694
    1Sil     Ob  114   3.048   1.590  11.661 -0.4948 -0.4786  0.5304
    1Sil     Ob  115   2.718   1.477  11.999 -0.3481 -0.6347  0.3699
    1Sil     Ob  116   2.269   2.092  12.039 -0.0964 -0.5433 -0.1049
    1Sil     Ob  117   2.819   2.085  12.403  0.5507  0.0442 -0.2150
    1Sil     Ob  118   2.659   1.980  11.632 -0.0158 -0.2913 -0.3591
    1Sil     Ob  119   2.646   1.903  12.472  0.1289 -0.7115  0.2118
    1Sil     Ob  120   2.417   1.914  11.702  0.1135  0.3468 -0.5097
    1Sil     Ob  121   2.948   1.906  12.093 -0.6172  0.4290 -0.3269
    1Sil     Ob  122   2.441   1.659  12.209 -0.2297  0.3680 -0.6290
    1Sil     Ob  123   3.022   1.661  11.419  0.4244 -0.0169  0.4197
    1Sil     Ob  124   2.732   1.654  11.815  0.0365 -0.2100  0.2361
    1Sil     Ob  125   2.400   1.827  12.417 -0.7034  0.2967 -0.2872
    1Sil     Ob  126   2.184   1.845  11.607  0.3695  0.2048  0.1580
    1Sil     Ob  127   2.749   1.728  12.062  0.4255 -0.2522 -0.1777
    1Sil     Ob  128   2.361   1.831  12.044 -0.1252 -0.3553 -1.0221
    1Sil     Ob  129   2.894   1.840  12.415 -0.3854  0.0126 -0.4975
    1Sil     Ob  130   2.575   1.727  11.627 -0.0517 -0.8488  0.2696
    1Sil     Ob  131   2.821   1.679  11.565  0.1393 -0.1135 -0.8926
    1Sil     Ob  132   2.233   1.648  12.370  0.0836  0.1183  0.0153
    1Sil     Ob  133   2.521   1.644  11.971  0.0171 -0.6114  0.2012
    1Sil     Ob  134   2.207   1.929  11.850  0.1637  0.0821 -0.0567
    1Sil     Ob  135   2.731   1.916  12.238  1.0160 -0.7173  0.0017
    1Sil     Ob  136   2.497   1.892  11.454  0.1902  0.1318 -0.5456
    1Sil     Ob  137   2.516   2.091  11.281  0.4151 -0.1158  0.1545
    1Sil     Ob  138   3.112   2.076  10.465  0.4033  0.3039 -0.0292
    1Sil     Ob  139   2.772   1.989  10.825 -0.4873 -0.2736 -0.7791
    1Sil     Ob  140   2.328   2.581  10.841  0.1677  0.0742 -0.0534
    1Sil     Ob  141   2.873   2.582  11.220  0.1933 -0.1064 -0.2627
    1Sil     Ob  142   2.702   2.455  10.451 -0.0879  0.1755 -0.8597
    1Sil     Ob  143   2.704   2.397  11.303 -0.3919  0.6203 -0.2154
    1Sil     Ob  144   2.453   2.408  10.498  0.1766 -0.2292 -0.3281
    1Sil     Ob  145   2.995   2.412  10.901 -0.0185 -0.1417 -0.2103
    1Sil     Ob  146   2.503   2.156  11.025 -0.5124  0.3090 -0.8130
    1Sil     Ob  147   2.794   2.147  10.634  0.4301  0.2917 -0.1664
    1Sil     Ob  148   2.477   2.340  11.211 -0.2231  0.1202 -0.2867
    1Sil     Ob  149   2.233   2.325  10.403 -0.3557  0.2674  0.2200
    1Sil     Ob  150   2.811   2.239  10.866  0.6163 -0.2270  0.0743
    1Sil     Ob  151   2.413   2.330  10.869  0.2940  0.0018 -0.2747
    1Sil     Ob  152   2.946   2.329  11.266 -0.2853  0.1407 -0.0880
    1Sil     Ob  153   2.629   2.216  10.455 -0.1032  0.0343  0.5385
    1Sil     Ob  154   2.873   2.149  10.386 -0.3033  0.2203  0.2685
    1Sil     Ob  155   2.293   2.165  11.176 -0.5436  0.3085  0.4032
    1Sil     Ob  156   2.585   2.163  10.777 -0.2920 -0.8838  0.3073
    1Sil     Ob  157   2.252   2.397  10.660  0.2699 -0.6677 -0.4083
    1Sil     Ob  158   2.786   2.398  11.064 -0.0023  0.0123  0.1193
    1Sil     Ob  159   2.464   2.086  12.448  0.5135  0.8804  0.1308
    1Sil     Ob  160   3.064   2.078  11.662 -0.2651  0.6133  0.2754
    1Sil     Ob  161   2.718   1.971  11.988 -0.2768 -0.1608  0.1830
    1Sil     Ob  162   2.286   2.573  12.020  0.3471 -0.0782 -0.0203
    1Sil     Ob  163   2.808   2.567  12.417 -0.4576 -0.1016  0.0245
    1Sil     Ob  164   2.639   2.462  11.666 -0.1370 -0.1455 -0.2882
    1Sil     Ob  165   2.635   2.383  12.484  0.2622 -0.2536 -0.2828
    1Sil     Ob  166   2.404   2.380  11.711  0.0708 -0.4610 -0.1898
    1Sil     Ob  167   2.940   2.397  12.088  0.4097  0.2470 -0.5594
    1Sil     Ob  168   2.435   2.179  12.213 -0.2727 -0.1885 -0.8269
    1Sil     Ob  169   3.024   2.143  11.414  0.0906 -0.7967 -0.8631
    1Sil     Ob  170   2.734   2.150  11.810  0.1156  0.0846  0.0600
    1Sil     Ob  171   2.399   2.330  12.424  0.2230 -0.0536  0.6405
    1Sil     Ob  172   2.162   2.328  11.620 -0.5657  0.0617 -0.3419
    1Sil     Ob  173   2.760   2.208  12.061  0.1536 -0.0922  0.4784
    1Sil     Ob  174   2.357   2.335  12.029 -0.3925  0.0305  0.1191
    1Sil     Ob  175   2.886   2.332  12.428  0.4789 -0.1050 -0.1720
    1Sil     Ob  176   2.583   2.222  11.614 -0.4747 -0.0802  0.1239
    1Sil     Ob  177   2.825   2.151  11.561 -0.5328  0.3800 -0.0721
    1Sil     Ob  178   2.234   2.138  12.379 -0.4850 -0.0419 -0.6762
    1Sil     Ob  179   2.526   2.137  11.968  0.1724 -0.5462 -0.4488
    1Sil     Ob  180   2.196   2.401  11.854 -0.1876  0.5468 -0.1129
    1Sil     Ob  181   2.726   2.403  12.241  0.3922 -0.4100  0.4964
    1Sil     Ob  182   2.491   2.408  11.459  0.0928 -0.3853 -0.1235
    1Sil     Ob  183   2.530   2.583  11.256  0.2837 -0.2634  0.0463
    1Sil     Ob  184   3.105   2.575  10.473  0.1115  0.3877 -0.1702
    1Sil     Ob  185   2.766   2.488  10.820  0.2964  0.0571  0.6606
    1Sil     Ob  186   2.326   3.083  10.811 -0.5195 -0.1879 -0.0471
    1Sil     Ob  187   2.867   3.082  11.221  0.3446 -0.2820 -0.6293
    1Sil     Ob  188   2.697   2.963  10.463 -0.0626 -0.1984  0.2259
    1Sil     Ob  189   2.695   2.901  11.302  0.1095 -0.4383  0.0880
    1Sil     Ob  190   2.452   2.886  10.492 -0.1551  0.0022 -0.2404
    1Sil     Ob  191   2.987   2.906  10.912  0.6798 -0.2254  0.0725
    1Sil     Ob  192   2.487   2.664  11.008  0.3275 -0.3826 -0.3212
    1Sil     Ob  193   2.792   2.639  10.626 -0.1507 -0.0688 -0.1345
    1Sil     Ob  194   2.471   2.830  11.208 -0.3174  0.0904 -0.3424
    1Sil     Ob  195   2.226   2.817  10.402 -0.1017  0.1287  0.0566
    1Sil     Ob  196   2.807   2.741  10.868  0.5360 -0.1013 -0.4468
    1Sil     Ob  197   2.406   2.832  10.832 -0.2310  0.3018 -0.0901
    1Sil     Ob  198   2.941   2.834  11.243  0.5099 -0.1916 -0.1862
    1Sil     Ob  199   2.629   2.704  10.437  0.3908  0.2734  0.0299
    1Sil     Ob  200   2.874   2.639  10.375  0.5273  0.0318 -0.3784
    1Sil     Ob  201   2.295   2.652  11.187  0.3378 -0.3197  0.5075
    1Sil     Ob  202   2.581   2.656  10.770  0.5607  0.2983  0.3345
    1Sil     Ob  203   2.241   2.909  10.639  0.0054  0.4597 -0.2606
    1Sil     Ob  204   2.776   2.903  11.052  0.4168  0.0269 -0.1518
    1Sil     Ob  205   2.475   2.574  12.470 -0.7317  0.5306 -0.7478
    1Sil     Ob  206   3.060   2.580  11.656  0.5764 -0.0216 -0.2423
    1Sil     Ob  207   2.712   2.464  11.993  1.1200  0.2946 -0.3127
    1Sil     Ob  208   2.285   3.069  12.034 -0.4697  0.4085  0.8402
    1Sil     Ob  209   2.826   3.053  12.405  0.5839 -0.3033 -0.2198
    1Sil     Ob  210   2.636   2.951  11.655 -0.7552 -0.0126  0.6521
    1Sil     Ob  211   2.649   2.895  12.496  0.0072  0.0807  0.1814
    1Sil     Ob  212   2.396   2.873  11.700  0.0576 -0.5257  0.0750
    1Sil     Ob  213   2.941   2.877  12.092 -0.3674  0.5483  0.0702
    1Sil     Ob  214   2.434   2.641  12.223  0.2647  0.0389 -0.7927
    1Sil     Ob  215   3.024   2.652  11.423  0.3307 -0.2110  0.6969
    1Sil     Ob  216   2.723   2.649  11.809  0.0821 -0.4819 -0.1607
    1Sil     Ob  217   2.413   2.822  12.417 -0.1866 -0.1703 -0.2761
    1Sil     Ob  218   2.163   2.818  11.618 -0.3349 -0.1979  0.5244
    1Sil     Ob  219   2.757   2.703  12.060  0.0054  0.7366  0.0138
    1Sil     Ob  220   2.341   2.821  12.056  0.4356 -0.0639  0.0770
    1Sil     Ob  221   2.890   2.808  12.428 -0.5805 -0.1255 -0.1626
    1Sil     Ob  222   2.571   2.709  11.612 -0.7019  0.2527  0.1523
    1Sil     Ob  223   2.827   2.634  11.573 -0.1183  0.1793 -0.2905
    1Sil     Ob  224   2.246   2.631  12.397  0.9426 -0.0969 -0.0006
    1Sil     Ob  225   2.526   2.648  11.973 -0.0040 -0.0599  0.9530
    1Sil     Ob  226   2.202   2.889  11.857  0.0117 -0.6658  0.2222
    1Sil     Ob  227   2.728   2.878  12.244  0.0264  0.2207 -0.0872
    1Sil     Ob  228   2.478   2.903  11.451  0.1419 -0.2360 -0.4122
    1Sil     Ob  229   2.510   3.074  11.258  0.4001  0.4036  0.0325
    1Sil     Ob  230   3.107   3.063  10.475 -0.9238  0.1510 -0.2128
    1Sil     Ob  231   2.765   2.981  10.799  0.2883  0.1821  0.0254
    1Sil     Ob  232   2.346   3.566  10.805 -0.0743 -0.3471 -0.0892
    1Sil     Ob  233   2.870   3.574  11.206  0.2918  0.8304 -0.0476
    1Sil     Ob  234   2.701   3.455  10.444  0.0939 -0.4007  0.3078
    1Sil     Ob  235   2.690   3.402  11.292  0.1501  0.5543  0.0021
    1Sil     Ob  236   2.461   3.386  10.494 -0.0148  0.2711 -0.4802
    1Sil     Ob  237   2.984   3.385  10.903  0.1516 -0.5766  0.2169
    1Sil     Ob  238   2.487   3.139  11.015  0.0456  0.1866 -0.2217
    1Sil     Ob  239   2.766   3.157  10.616 -0.0991  0.2565  0.4774
    1Sil     Ob  240   2.462   3.315  11.205 -0.0038 -0.1680 -0.2943
    1Sil     Ob  241   2.229   3.315  10.411 -0.7557 -0.8855  0.1021
    1Sil     Ob  242   2.796   3.216  10.861 -0.6323 -0.5063 -0.0066
    1Sil     Ob  243   2.410   3.325  10.859 -0.1819 -0.8976  0.1465
    1Sil     Ob  244   2.930   3.329  11.266 -0.2361 -0.2785  0.3417
    1Sil     Ob  245   2.632   3.206  10.405 -0.0448 -0.4104  0.5178
    1Sil     Ob  246   2.877   3.121  10.373  0.6489  0.3857 -0.1596
    1Sil     Ob  247   2.285   3.140  11.174  0.3278  0.0448  0.6208
    1Sil     Ob  248   2.569   3.140  10.778 -0.3439 -0.0295  0.1732
    1Sil     Ob  249   2.248   3.384  10.663  0.1442  0.1345 -0.1455
    1Sil     Ob  250   2.775   3.382  11.056  0.1087  0.0011 -0.6574
    1Sil     Ob  251   2.473   3.082  12.458 -0.4279 -0.0436  0.0026
    1Sil     Ob  252   3.047   3.064  11.663 -0.4242  0.2978  0.5021
    1Sil     Ob  253   2.704   2.949  12.001 -0.3741 -1.1499  0.2036
    1Sil     Ob  254   2.279   3.569  12.023  0.3583  0.5264  0.0096
    1Sil     Ob  255   2.826   3.547  12.384 -0.1815 -0.0118 -0.1185
    1Sil     Ob  256   2.643   3.447  11.650 -0.5057 -0.6317 -0.1401
    1Sil     Ob  257   2.653   3.381  12.479 -0.0941 -0.0470  0.1270
    1Sil     Ob  258   2.407   3.384  11.692 -0.0611  0.0561 -0.1755
    1Sil     Ob  259   2.956   3.370  12.091  0.3063  0.1290 -0.1003
    1Sil     Ob  260   2.448   3.171  12.220 -0.1532 -0.1960 -0.2898
    1Sil     Ob  261   3.022   3.135  11.421  0.5747 -0.1540  0.0226
    1Sil     Ob  262   2.720   3.128  11.808 -0.1193  0.1186 -1.1715
    1Sil     Ob  263   2.413   3.319  12.423  0.0540 -0.5129 -0.0726
    1Sil     Ob  264   2.178   3.312  11.608  0.1881 -0.3179 -0.6483
    1Sil     Ob  265   2.767   3.194  12.046 -0.1975  0.1256 -0.2564
    1Sil     Ob  266   2.366   3.319  12.032 -0.4307  0.3168 -0.1649
    1Sil     Ob  267   2.893   3.301  12.422 -0.1370  0.0179  0.4758
    1Sil     Ob  268   2.571   3.201  11.619  0.4103  0.0412 -0.0374
    1Sil     Ob  269   2.822   3.139  11.577  0.4660  0.2813  0.3336
    1Sil     Ob  270   2.245   3.147  12.370  0.3551  0.3483  0.0967
    1Sil     Ob  271   2.528   3.137  11.976 -0.4328 -0.6773  0.4673
    1Sil     Ob  272   2.208   3.402  11.851  0.1648 -0.2261  0.4838
    1Sil     Ob  273   2.740   3.374  12.236  0.0283  0.2457 -0.3308
    1Sil     Ob  274   2.489   3.381  11.452 -0.2648 -0.2640  0.2921
    1Sil     Ob  275   2.506   3.565  11.269  0.2414 -0.0320 -0.2090
    1Sil     Ob  276   3.096   3.564  10.466  0.0970  0.6270 -0.2763
    1Sil     Ob  277   2.749   3.466  10.812 -0.2777  0.2223  0.0282
    1Sil     Ob  278   2.695   0.423  11.286 -0.5413 -0.3070 -0.4745
    1Sil     Ob  279   2.449   0.430  10.492 -0.1530  0.1344 -0.2546
    1Sil     Ob  280   2.993   0.462  10.902 -0.3209 -0.2282 -0.2542
    1Sil     Ob  281   2.473   3.637  11.010  0.2246 -0.5551  0.5015
    1Sil     Ob  282   2.782   3.624  10.616 -0.8800  0.3376  0.0267
    1Sil     Ob  283   2.467   3.809  11.197 -0.6661 -0.3140 -0.0716
    1Sil     Ob  284   2.212   0.348  10.405 -0.5082 -0.3218 -0.5968
    1Sil     Ob  285   2.822   3.713  10.859 -0.5311 -0.2500  0.0210
    1Sil     Ob  286   2.397   0.363  10.849 -0.0932 -0.1277  0.4279
    1Sil     Ob  287   2.941   0.361  11.239 -0.2388 -0.0443  0.0152
    1Sil     Ob  288   2.624   0.248  10.428  0.0648 -0.2618  0.1814
    1Sil     Ob  289   2.866   3.630  10.362  0.1708 -0.2313  0.3543
    1Sil     Ob  290   2.275   3.635  11.176  0.0014  0.0533 -0.2241
    1Sil     Ob  291   2.584   3.658  10.772  0.1436 -0.2614 -0.3236
    1Sil     Ob  292   2.245   0.430  10.654  0.5457  0.2886  0.2809
    1Sil     Ob  293   2.782   0.429  11.050 -0.4789  0.2475 -0.6576
    1Sil     Ob  294   2.480   3.565  12.448  0.2624  0.1703  0.2481
    1Sil     Ob  295   3.045   3.560  11.661 -0.6254  0.5982  0.1051
    1Sil     Ob  296   2.738   3.451  11.988  0.3961  0.6521  0.5637
    1Sil     Ob  297   2.651   0.423  12.485  0.3320 -0.4887  0.1182
    1Sil     Ob  298   2.402   0.426  11.686 -0.5017 -0.3912  0.1571
    1Sil     Ob  299   2.947   0.398  12.099  0.0402  0.4283  0.3895
    1Sil     Ob  300   2.447   3.652  12.192 -0.2712 -0.2420 -0.8636
    1Sil     Ob  301   3.016   3.642  11.416  0.2769 -0.0884 -0.2989
    1Sil     Ob  302   2.732   3.639  11.811 -0.1300  0.1405  0.3816
    1Sil     Ob  303   2.428   3.809  12.392  0.4512  0.3192 -0.3153
    1Sil     Ob  304   2.175   0.357  11.591  0.1048  0.3339  0.3508
    1Sil     Ob  305   2.746   3.698  12.067 -0.2511 -0.2784  0.0914
    1Sil     Ob  306   2.358   0.357  12.018 -0.3360 -0.0182  0.1444
    1Sil     Ob  307   2.884   0.343  12.439 -0.4556 -0.2844 -0.0683
    1Sil     Ob  308   2.577   0.248  11.613  0.1982 -0.1126 -0.0113
    1Sil     Ob  309   2.821   3.629  11.566  0.4107 -0.5433 -0.3085
    1Sil     Ob  310   2.238   3.628  12.348  0.3777  0.0049  0.0396
    1Sil     Ob  311   2.526   3.614  11.958 -0.2246 -0.3572  0.0253
    1Sil     Ob  312   2.200   0.437  11.841  0.5160 -0.4592  0.4972
    1Sil     Ob  313   2.731   0.417  12.241 -0.4791 -0.3253  0.2296
    1Sil     Ob  314   2.479   0.420  11.441 -0.3629  0.1756 -0.6150
    1Sil     Ob  315   3.340   0.610  11.264 -0.1915 -0.1620 -0.5401
    1Sil     Ob  316   3.938   0.612  10.480  0.6576 -0.3451  0.4573
    1Sil     Ob  317   3.173   1.106  10.804  0.1288 -0.2809  0.1793
    1Sil     Ob  318   3.704   1.111  11.213  0.2519 -0.4549 -0.3148
    1Sil     Ob  319   3.539   0.982  10.453 -0.9967 -0.2144  0.0845
    1Sil     Ob  320   3.530   0.929  11.294  0.1710  0.0471 -0.7449
    1Sil     Ob  321   3.295   0.926  10.504 -0.7844 -0.6192 -0.0842
    1Sil     Ob  322   3.829   0.930  10.903 -0.5332 -0.3975 -0.6737
    1Sil     Ob  323   3.322   0.667  11.008  0.9520 -0.0571  0.3355
    1Sil     Ob  324   3.611   0.667  10.621  0.3968  0.0063 -0.3609
    1Sil     Ob  325   3.301   0.853  11.196 -0.0921 -0.6573 -0.4322
    1Sil     Ob  326   3.067   0.846  10.400  0.0199 -0.4736 -0.2455
    1Sil     Ob  327   3.652   0.749  10.868 -0.4948 -0.0641 -0.4728
    1Sil     Ob  328   3.241   0.851  10.841 -0.4147  0.1656  0.1547
    1Sil     Ob  329   3.772   0.858  11.255  0.3422  0.2109  0.5981
    1Sil     Ob  330   3.461   0.740  10.425 -0.5855  0.1516  0.7324
    1Sil     Ob  331   3.704   0.677  10.377  0.1132 -0.6652 -0.1222
    1Sil     Ob  332   3.118   0.686  11.175  0.8233 -0.1198 -0.3037
    1Sil     Ob  333   3.422   0.667  10.778  0.4659 -0.4561 -0.0123
    1Sil     Ob  334   3.086   0.918  10.654 -0.5042  0.0184  0.0387
    1Sil     Ob  335   3.622   0.933  11.055 -0.4165  0.5865 -0.1245
    1Sil     Ob  336   3.304   0.606  12.468 -0.3477 -0.3284  0.5531
    1Sil     Ob  337   3.881   0.607  11.671  0.2632 -0.1176  0.2308
    1Sil     Ob  338   3.112   1.087  12.030  0.0991 -0.4540  0.1155
    1Sil     Ob  339   3.659   1.089  12.405 -0.3952 -0.0320  0.0736
    1Sil     Ob  340   3.476   0.982  11.640  0.1029  0.2714  0.1183
    1Sil     Ob  341   3.484   0.912  12.487  0.2667 -0.6043  0.4559
    1Sil     Ob  342   3.240   0.912  11.696  0.2237 -0.0313  0.1233
    1Sil     Ob  343   3.776   0.904  12.092 -0.1224  0.0463  0.4144
    1Sil     Ob  344   3.277   0.670  12.225  0.6440  0.6062  0.3662
    1Sil     Ob  345   3.851   0.684  11.419 -0.3060  0.8990 -0.3376
    1Sil     Ob  346   3.560   0.666  11.826 -0.4973 -1.1307  0.4433
    1Sil     Ob  347   3.246   0.856  12.407 -0.9555 -0.2528  0.0319
    1Sil     Ob  348   3.008   0.854  11.609 -0.3254 -0.1071 -0.4846
    1Sil     Ob  349   3.587   0.727  12.071  0.2572 -0.1183 -0.7103
    1Sil     Ob  350   3.193   0.838  12.039  0.3897  0.2872  0.8250
    1Sil     Ob  351   3.723   0.850  12.447  0.3985 -0.2079  0.1629
    1Sil     Ob  352   3.408   0.739  11.618  0.2984  0.6244 -0.3226
    1Sil     Ob  353   3.656   0.670  11.583  0.2353 -0.5542  0.3847
    1Sil     Ob  354   3.070   0.677  12.375 -0.1003  0.1925 -0.0828
    1Sil     Ob  355   3.351   0.652  11.981  0.1785 -0.5529  0.0037
    1Sil     Ob  356   3.036   0.930  11.851 -0.4049 -0.2005 -0.2906
    1Sil     Ob  357   3.572   0.901  12.248 -0.5241  0.0527 -0.1980
    1Sil     Ob  358   3.315   0.911  11.444  0.5682  0.1694 -0.1106
    1Sil     Ob  359   3.340   1.094  11.267  0.2688  0.1471 -0.4565
    1Sil     Ob  360   3.939   1.098  10.462  0.1627 -0.3332  0.3603
    1Sil     Ob  361   3.591   0.998  10.807 -0.2706 -0.2274 -0.5587
    1Sil     Ob  362   3.174   1.598  10.827  0.2062  0.4171  0.0546
    1Sil     Ob  363   3.719   1.604  11.214  0.5335 -0.2960 -0.1701
    1Sil     Ob  364   3.528   1.488  10.472  0.4324 -0.2305 -0.4879
    1Sil     Ob  365   3.548   1.428  11.291 -0.0282 -0.0330  0.2881
    1Sil     Ob  366   3.290   1.423  10.510 -0.3949 -0.2231  0.1477
    1Sil     Ob  367   3.839   1.421  10.901 -0.6784 -0.5782  0.2794
    1Sil     Ob  368   3.324   1.158  11.015  0.1205  0.0419  0.1169
    1Sil     Ob  369   3.626   1.165  10.618 -0.2061  0.9295 -0.0500
    1Sil     Ob  370   3.308   1.341  11.206 -0.0902 -0.1807  0.6461
    1Sil     Ob  371   3.073   1.338  10.401 -0.9474 -0.4204 -0.1962
    1Sil     Ob  372   3.647   1.244  10.872  0.5030 -0.1857  0.0336
    1Sil     Ob  373   3.241   1.351  10.843 -0.0952 -0.2929  0.3429
    1Sil     Ob  374   3.784   1.353  11.234 -0.1932  0.1478 -0.2346
    1Sil     Ob  375   3.464   1.234  10.434  0.1413 -0.4855  0.4331
    1Sil     Ob  376   3.705   1.174  10.373 -0.3063  1.0531 -0.1288
    1Sil     Ob  377   3.126   1.172  11.170 -0.3272 -0.1891  0.0646
    1Sil     Ob  378   3.416   1.175  10.770  0.0980 -0.3428  0.2428
    1Sil     Ob  379   3.082   1.434  10.655  0.5061 -0.6314  0.1348
    1Sil     Ob  380   3.628   1.421  11.050 -0.5536  0.1460  0.6124
    1Sil     Ob  381   3.306   1.099  12.464 -0.2054 -0.1383 -0.0969
    1Sil     Ob  382   3.887   1.103  11.665 -0.1228  0.0889 -0.4316
    1Sil     Ob  383   3.553   0.978  11.994 -0.4240  0.5836 -0.0436
    1Sil     Ob  384   3.116   1.589  12.022 -0.4036 -0.4505 -1.5071
    1Sil     Ob  385   3.665   1.569  12.419  0.6760 -0.2537 -0.3545
    1Sil     Ob  386   3.483   1.475  11.638 -0.0693 -0.5890 -0.2851
    1Sil     Ob  387   3.484   1.398  12.490 -0.2741 -0.4861  0.0742
    1Sil     Ob  388   3.243   1.428  11.692  0.0171  0.3593  0.0150
    1Sil     Ob  389   3.781   1.408  12.095  0.3058 -0.3972 -0.2275
    1Sil     Ob  390   3.268   1.170  12.211 -0.7574  0.4459  0.1395
    1Sil     Ob  391   3.849   1.169  11.418 -0.2404 -0.1992  0.8559
    1Sil     Ob  392   3.559   1.144  11.807  0.0548  0.0325  0.4333
    1Sil     Ob  393   3.257   1.345  12.408  0.1395 -0.1709  0.2077
    1Sil     Ob  394   3.004   1.345  11.588  0.2482  0.3158 -0.1322
    1Sil     Ob  395   3.595   1.227  12.051 -0.1713  0.0350 -0.1132
    1Sil     Ob  396   3.185   1.345  12.040  0.0836  0.3524  0.0658
    1Sil     Ob  397   3.729   1.328  12.437 -0.0306  0.0116  0.3202
    1Sil     Ob  398   3.402   1.232  11.623 -0.6724 -0.0183 -0.0702
    1Sil     Ob  399   3.645   1.162  11.563  0.0956  0.4861  0.3099
    1Sil     Ob  400   3.075   1.159  12.374  0.1773  0.4353 -0.2209
    1Sil     Ob  401   3.357   1.148  11.971  0.3388  0.5014 -0.0754
    1Sil     Ob  402   3.027   1.426  11.845 -0.6053 -0.6927  0.1602
    1Sil     Ob  403   3.569   1.400  12.245 -0.1656  0.1031  0.5112
    1Sil     Ob  404   3.332   1.402  11.454 -0.5146 -0.4502 -0.0642
    1Sil     Ob  405   3.343   1.584  11.277 -0.0344  0.0793  0.3747
    1Sil     Ob  406   3.937   1.586  10.465 -0.0740 -0.3186 -0.2246
    1Sil     Ob  407   3.610   1.488  10.797  0.1638  0.1445  0.4001
    1Sil     Ob  408   3.174   2.086  10.831  0.0188  0.5748  0.1744
    1Sil     Ob  409   3.709   2.091  11.219  0.1051 -0.3019 -0.5361
    1Sil     Ob  410   3.536   1.980  10.459  0.8891 -0.4761  0.1116
    1Sil     Ob  411   3.538   1.912  11.302  0.8373 -0.0912 -0.5318
    1Sil     Ob  412   3.295   1.909  10.508  0.3617 -0.2891  0.1259
    1Sil     Ob  413   3.833   1.923  10.912 -0.2519  0.2383 -0.6364
    1Sil     Ob  414   3.328   1.663  11.030  0.2414  0.0452  0.9758
    1Sil     Ob  415   3.608   1.671  10.622 -0.3663 -0.1631  0.3716
    1Sil     Ob  416   3.313   1.840  11.208 -0.1971 -0.2026  0.0930
    1Sil     Ob  417   3.063   1.836  10.403 -0.1734  0.4312  0.3008
    1Sil     Ob  418   3.653   1.744  10.866  0.4031  0.2305  0.1310
    1Sil     Ob  419   3.254   1.839  10.853  0.6572  1.0043 -0.9785
    1Sil     Ob  420   3.785   1.852  11.263  0.1851  0.7806 -0.1327
    1Sil     Ob  421   3.460   1.731  10.418 -0.1108 -1.3485 -0.6041
    1Sil     Ob  422   3.706   1.649  10.378 -0.6303 -0.2817 -0.7705
    1Sil     Ob  423   3.123   1.670  11.183 -0.1059 -0.2868  0.4298
    1Sil     Ob  424   3.419   1.666  10.784  0.1719  0.5565 -0.3814
    1Sil     Ob  425   3.089   1.912  10.665  0.0350  0.6289 -0.1849
    1Sil     Ob  426   3.627   1.903  11.068  0.3696  0.1180 -0.7875
    1Sil     Ob  427   3.329   1.590  12.460  0.5675  0.4501 -0.0532
    1Sil     Ob  428   3.889   1.592  11.670 -0.1675 -0.1209 -0.6139
    1Sil     Ob  429   3.550   1.481  12.001  0.1821  0.0700  0.0987
    1Sil     Ob  430   3.109   2.084  12.021 -0.0623  0.1822  0.1773
    1Sil     Ob  431   3.657   2.080  12.403 -0.9590 -0.7895 -0.4762
    1Sil     Ob  432   3.481   1.970  11.649 -0.1763  0.0064 -0.3529
    1Sil     Ob  433   3.486   1.925  12.491 -0.6204 -0.2577  0.0286
    1Sil     Ob  434   3.243   1.883  11.692 -0.0783 -0.0287  0.3377
    1Sil     Ob  435   3.777   1.890  12.097 -0.2938  0.4646  0.2140
    1Sil     Ob  436   3.272   1.656  12.215 -0.0301  0.5585  0.0402
    1Sil     Ob  437   3.854   1.656  11.415  0.1544 -0.0467 -0.0885
    1Sil     Ob  438   3.563   1.657  11.813  0.1641  0.2477 -0.0477
    1Sil     Ob  439   3.266   1.837  12.402 -0.5169 -0.0381 -0.0979
    1Sil     Ob  440   3.004   1.841  11.604 -0.0225  0.5455  0.0980
    1Sil     Ob  441   3.587   1.722  12.067 -0.4181  0.5152 -0.0288
    1Sil     Ob  442   3.193   1.838  12.053  0.5346  0.0667 -0.1513
    1Sil     Ob  443   3.730   1.823  12.457 -0.5736 -0.0236 -0.0855
    1Sil     Ob  444   3.421   1.719  11.613 -0.5077  0.0286 -0.5935
    1Sil     Ob  445   3.660   1.660  11.573 -0.4295 -0.0042  0.7271
    1Sil     Ob  446   3.081   1.656  12.393 -0.2620  0.6745  0.0962
    1Sil     Ob  447   3.360   1.661  11.972 -0.2825  0.2852  0.1480
    1Sil     Ob  448   3.038   1.902  11.855 -0.0940 -0.6822 -0.4399
    1Sil     Ob  449   3.570   1.895  12.246  0.9253 -0.1343 -0.5863
    1Sil     Ob  450   3.329   1.909  11.448 -0.5949 -0.1164  0.4875
    1Sil     Ob  451   3.361   2.086  11.267  0.2364  0.1314 -0.1436
    1Sil     Ob  452   3.947   2.082  10.469 -0.8953 -0.1520 -0.3998
    1Sil     Ob  453   3.592   1.989  10.827 -0.1001  0.1205 -0.0972
    1Sil     Ob  454   3.169   2.570  10.817 -0.1092 -0.8354  0.4875
    1Sil     Ob  455   3.713   2.594  11.207 -0.2063  0.2142 -0.1923
    1Sil     Ob  456   3.538   2.470  10.453 -0.1811 -0.1778 -0.2581
    1Sil     Ob  457   3.536   2.434  11.301 -0.2129  0.4114 -0.2139
    1Sil     Ob  458   3.292   2.403  10.495 -0.3968  0.1432 -0.2338
    1Sil     Ob  459   3.825   2.425  10.903 -0.7086  0.5503 -0.3139
    1Sil     Ob  460   3.329   2.154  11.019  0.3799  0.2807 -0.0124
    1Sil     Ob  461   3.631   2.158  10.625  0.1146 -0.0474  0.6512
    1Sil     Ob  462   3.314   2.341  11.200  0.2253 -0.1858  0.0589
    1Sil     Ob  463   3.063   2.327  10.404  0.1764  0.0754 -0.1711
    1Sil     Ob  464   3.661   2.229  10.864  0.0890 -0.8031  0.3448
    1Sil     Ob  465   3.238   2.327  10.861 -0.1738  0.1767 -0.0562
    1Sil     Ob  466   3.776   2.339  11.254 -0.1493  0.2988 -0.1725
    1Sil     Ob  467   3.468   2.225  10.416 -1.0335 -0.3198  0.5463
    1Sil     Ob  468   3.712   2.135  10.378  0.5513 -0.6383 -0.0028
    1Sil     Ob  469   3.128   2.167  11.169 -0.1949  0.0768  0.0405
    1Sil     Ob  470   3.420   2.176  10.777 -0.0521  0.6039 -0.6209
    1Sil     Ob  471   3.087   2.391  10.656  0.3074 -0.1045  0.0179
    1Sil     Ob  472   3.615   2.400  11.057 -0.4923 -0.2213 -0.2686
    1Sil     Ob  473   3.285   2.083  12.472  0.2259  0.2220 -0.0594
    1Sil     Ob  474   3.895   2.083  11.662 -0.2452  0.2009  0.4769
    1Sil     Ob  475   3.546   1.968  11.996  0.0259  0.0046  0.0981
    1Sil     Ob  476   3.125   2.575  12.029 -0.2876  0.1131 -0.0021
    1Sil     Ob  477   3.661   2.572  12.388 -0.1256 -0.0955 -0.1184
    1Sil     Ob  478   3.484   2.470  11.622  0.1552  0.2718  0.3368
    1Sil     Ob  479   3.488   2.413  12.488  0.0617  0.0238  0.6875
    1Sil     Ob  480   3.250   2.392  11.693  0.5270  0.0101  0.4220
    1Sil     Ob  481   3.767   2.399  12.089  0.3367 -0.4813  0.0491
    1Sil     Ob  482   3.272   2.159  12.218 -0.1500  0.1046 -0.1223
    1Sil     Ob  483   3.854   2.147  11.420  0.2497  0.1224  0.7327
    1Sil     Ob  484   3.563   2.148  11.814 -0.0418  0.7160 -0.5625
    1Sil     Ob  485   3.252   2.342  12.399 -0.0718 -0.1862 -0.0287
    1Sil     Ob  486   3.016   2.328  11.592  0.1016 -0.5758 -0.0018
    1Sil     Ob  487   3.580   2.225  12.057 -0.1217  0.6173 -0.2292
    1Sil     Ob  488   3.180   2.327  12.036  0.1916  0.3893  0.7058
    1Sil     Ob  489   3.735   2.329  12.436 -0.0542  0.6440  0.5315
    1Sil     Ob  490   3.419   2.221  11.613 -0.0761  0.3557  0.1695
    1Sil     Ob  491   3.656   2.133  11.576  0.3520  0.0788  0.2009
    1Sil     Ob  492   3.064   2.165  12.369  0.0100 -0.7519 -0.1746
    1Sil     Ob  493   3.351   2.141  11.966  0.1046 -0.3503 -0.1679
    1Sil     Ob  494   3.042   2.409  11.847  0.1377 -0.1026  0.1253
    1Sil     Ob  495   3.565   2.388  12.242  0.4023  0.1465 -0.6328
    1Sil     Ob  496   3.321   2.404  11.449 -0.1947  1.2082  0.1792
    1Sil     Ob  497   3.344   2.592  11.265  0.1133 -0.2866 -0.3900
    1Sil     Ob  498   3.942   2.583  10.457  0.1417 -0.5690 -0.5762
    1Sil     Ob  499   3.599   2.478  10.805  0.2735 -0.0702 -0.6572
    1Sil     Ob  500   3.153   3.074  10.830  0.1929  0.1527  0.0757
    1Sil     Ob  501   3.699   3.085  11.209  0.4010 -0.4926  0.2329
    1Sil     Ob  502   3.521   2.968  10.458  0.2243 -0.1411 -0.2088
    1Sil     Ob  503   3.520   2.912  11.290  0.2998  0.1121  0.1589
    1Sil     Ob  504   3.284   2.874  10.509 -0.0165  0.3957  0.6762
    1Sil     Ob  505   3.833   2.906  10.905  0.3517 -0.2964  0.4336
    1Sil     Ob  506   3.317   2.647  11.017  0.4561 -0.0895  0.9810
    1Sil     Ob  507   3.622   2.652  10.617 -0.2025  0.1092 -0.0601
    1Sil     Ob  508   3.308   2.833  11.197  0.8827 -0.4624  0.7928
    1Sil     Ob  509   3.054   2.820  10.416  0.2997  0.2546  0.2447
    1Sil     Ob  510   3.650   2.727  10.863  0.3641 -0.2113 -0.2208
    1Sil     Ob  511   3.229   2.827  10.858 -0.0029  0.0684 -0.2443
    1Sil     Ob  512   3.768   2.840  11.251 -0.2647 -0.3669  0.4296
    1Sil     Ob  513   3.470   2.710  10.423 -0.1568 -0.4342  0.4685
    1Sil     Ob  514   3.713   2.652  10.370 -0.1284 -0.5807  0.0415
    1Sil     Ob  515   3.118   2.651  11.177  0.0470  0.2154 -0.2056
    1Sil     Ob  516   3.416   2.662  10.777  0.1153 -0.0828  0.3667
    1Sil     Ob  517   3.075   2.892  10.668 -0.4216 -0.1442  0.0093
    1Sil     Ob  518   3.614   2.907  11.047 -0.3371  0.1420 -0.0503
    1Sil     Ob  519   3.309   2.581  12.446  0.1205 -0.5606  0.4952
    1Sil     Ob  520   3.896   2.569  11.643  0.4267 -0.2564 -0.3493
    1Sil     Ob  521   3.535   2.468  11.999 -0.6834 -0.4484  0.4686
    1Sil     Ob  522   3.106   3.061  12.025  0.1873 -0.7125  0.5248
    1Sil     Ob  523   3.646   3.064  12.395  0.6288 -0.5714  0.4769
    1Sil     Ob  524   3.480   2.961  11.637 -0.2960  0.3559  0.2584
    1Sil     Ob  525   3.489   2.876  12.475 -0.1079  0.2673  0.2699
    1Sil     Ob  526   3.235   2.892  11.699  0.1457 -0.2935 -0.0742
    1Sil     Ob  527   3.785   2.890  12.087 -0.6412  0.1462 -0.5058
    1Sil     Ob  528   3.267   2.670  12.216 -0.1778 -0.3051  0.4851
    1Sil     Ob  529   3.860   2.666  11.406  0.2187  0.4323 -0.0602
    1Sil     Ob  530   3.572   2.626  11.806 -0.2496  0.3233  0.0436
    1Sil     Ob  531   3.233   2.812  12.430 -0.1598  0.1625 -0.2152
    1Sil     Ob  532   3.005   2.823  11.601  0.1095  0.1943  0.5009
    1Sil     Ob  533   3.602   2.710  12.056  0.5076 -0.2887 -0.2471
    1Sil     Ob  534   3.194   2.822  12.031  0.0298  0.4250 -0.1629
    1Sil     Ob  535   3.732   2.819  12.419  0.2294 -0.3925  0.5170
    1Sil     Ob  536   3.415   2.719  11.616  0.1892  0.2047 -0.4181
    1Sil     Ob  537   3.659   2.652  11.563 -0.2232  0.2287 -0.2162
    1Sil     Ob  538   3.063   2.634  12.376  0.4819  0.3309 -0.1204
    1Sil     Ob  539   3.362   2.652  11.978  0.3138  0.2891  0.3599
    1Sil     Ob  540   3.028   2.886  11.850  0.4549  0.1841  0.0320
    1Sil     Ob  541   3.567   2.878  12.231  0.1063 -0.1981  0.6056
    1Sil     Ob  542   3.319   2.904  11.449  0.3610 -0.2182  0.4959
    1Sil     Ob  543   3.331   3.088  11.274  0.0294 -0.1991  0.0980
    1Sil     Ob  544   3.929   3.075  10.471  0.5062  0.0038 -0.2559
    1Sil     Ob  545   3.607   2.973  10.797 -0.1120  0.1738 -0.2129
    1Sil     Ob  546   3.162   3.570  10.835  0.0200  0.4069  0.3783
    1Sil     Ob  547   3.694   3.581  11.217 -0.3244 -0.9187  0.2736
    1Sil     Ob  548   3.520   3.460  10.455  1.1318  0.9782  0.5953
    1Sil     Ob  549   3.526   3.403  11.286  0.5246  0.3387  0.7735
    1Sil     Ob  550   3.284   3.379  10.505  0.3839 -0.1556 -0.0596
    1Sil     Ob  551   3.822   3.404  10.898 -0.3626  0.9407  0.1473
    1Sil     Ob  552   3.304   3.151  11.021 -0.0620 -0.2043 -0.3080
    1Sil     Ob  553   3.594   3.149  10.609 -0.1843 -0.2339  0.0630
    1Sil     Ob  554   3.295   3.335  11.211  0.2587 -0.2822 -0.3423
    1Sil     Ob  555   3.046   3.311  10.420  0.0077 -0.6684  0.1378
    1Sil     Ob  556   3.657   3.221  10.846 -0.1677  0.1234 -0.5459
    1Sil     Ob  557   3.229   3.325  10.862  0.0036 -0.3085  0.2193
    1Sil     Ob  558   3.772   3.337  11.251 -0.3862  0.2464  0.1885
    1Sil     Ob  559   3.449   3.207  10.403 -0.0160  0.0965 -0.3579
    1Sil     Ob  560   3.696   3.142  10.372 -0.2624 -0.0759  0.6402
    1Sil     Ob  561   3.108   3.156  11.182  0.0600 -0.0786 -0.7178
    1Sil     Ob  562   3.400   3.144  10.776 -0.0015  0.5714 -0.0046
    1Sil     Ob  563   3.082   3.396  10.661  0.2042  0.2978 -0.0725
    1Sil     Ob  564   3.612   3.387  11.049 -0.5798  0.3348 -0.3097
    1Sil     Ob  565   3.303   3.059  12.467 -0.1267 -0.7796 -0.6727
    1Sil     Ob  566   3.890   3.074  11.657  0.1631 -0.0699 -0.0765
    1Sil     Ob  567   3.546   2.954  11.993  0.4594  0.5010 -0.3640
    1Sil     Ob  568   3.120   3.552  12.023  0.3994 -0.1787  0.7979
    1Sil     Ob  569   3.652   3.563  12.400  0.2412 -0.1878  0.3351
    1Sil     Ob  570   3.489   3.459  11.625 -0.4224 -0.0457  0.1764
    1Sil     Ob  571   3.477   3.376  12.474 -0.5442 -0.1512 -0.3154
    1Sil     Ob  572   3.243   3.397  11.691 -0.0134 -0.0935 -0.2142
    1Sil     Ob  573   3.783   3.371  12.091  0.2014  0.1960 -0.2734
    1Sil     Ob  574   3.262   3.115  12.209 -0.2088 -0.2768 -0.0077
    1Sil     Ob  575   3.856   3.152  11.407 -0.3125  0.1369  0.2543
    1Sil     Ob  576   3.565   3.134  11.807  0.6190 -0.4074  0.3863
    1Sil     Ob  577   3.247   3.304  12.399 -0.1984  0.2117 -0.4718
    1Sil     Ob  578   3.011   3.317  11.600 -0.3308  0.8742 -0.0894
    1Sil     Ob  579   3.589   3.199  12.060 -0.2115  0.0898  0.3799
    1Sil     Ob  580   3.198   3.307  12.043  0.3227  0.3977  0.2362
    1Sil     Ob  581   3.719   3.316  12.422 -0.6810  0.0824 -0.2106
    1Sil     Ob  582   3.413   3.206  11.621  0.0101  0.3545 -0.6126
    1Sil     Ob  583   3.652   3.140  11.564  0.0967 -0.0080 -0.2269
    1Sil     Ob  584   3.070   3.118  12.375  0.0306 -0.0719 -0.4870
    1Sil     Ob  585   3.352   3.113  11.968  0.3789  0.2023  0.0435
    1Sil     Ob  586   3.043   3.378  11.850 -0.1745  0.0545 -0.3144
    1Sil     Ob  587   3.573   3.387  12.226  1.0223  0.0730  0.0802
    1Sil     Ob  588   3.327   3.387  11.455  0.0792 -0.7033  0.1420
    1Sil     Ob  589   3.340   3.579  11.280 -0.1771  0.3668 -0.2841
    1Sil     Ob  590   3.944   3.574  10.466 -0.7249  0.5527  0.3246
    1Sil     Ob  591   3.599   3.465  10.796  0.1614  0.2070 -0.2958
    1Sil     Ob  592   3.521   0.426  11.292  0.5432 -0.3236  0.0464
    1Sil     Ob  593   3.284   0.426  10.491 -0.2295  0.5951  0.0869
    1Sil     Ob  594   3.832   0.424  10.911  0.3382  0.2143  0.6321
    1Sil     Ob  595   3.320   3.642  11.025  0.4366 -0.1136 -0.0670
    1Sil     Ob  596   3.606   3.644  10.614 -0.3764  0.0356 -0.0311
    1Sil     Ob  597   3.287   3.819  11.209 -0.1449 -0.5688 -0.1599
    1Sil     Ob  598   3.048   3.813  10.415 -0.0010  0.4815  0.1481
    1Sil     Ob  599   3.646   3.710  10.862  0.5705  0.0775 -0.3356
    1Sil     Ob  600   3.227   0.363  10.867 -0.3095  0.3105 -0.5505
    1Sil     Ob  601   3.771   0.366  11.246 -0.9003 -0.3081  0.1439
    1Sil     Ob  602   3.464   0.251  10.407  1.0104 -0.0185 -0.0701
    1Sil     Ob  603   3.706   3.628  10.368  0.0263  0.3704 -0.3251
    1Sil     Ob  604   3.117   3.628  11.190  0.6031  0.0044 -0.2284
    1Sil     Ob  605   3.408   3.643  10.783  0.0994 -0.3529 -0.2278
    1Sil     Ob  606   3.084   0.415  10.663  0.4284 -0.1442  0.7415
    1Sil     Ob  607   3.618   0.429  11.047  0.0637 -0.7184  0.1859
    1Sil     Ob  608   3.295   3.554  12.458  0.0869  0.1122  0.4728
    1Sil     Ob  609   3.897   3.565  11.656  0.3975  0.2621 -0.0325
    1Sil     Ob  610   3.557   3.445  11.975 -0.1594  0.0132 -0.2587
    1Sil     Ob  611   3.491   0.434  12.487  0.7872  0.3691 -0.0524
    1Sil     Ob  612   3.230   0.407  11.689 -0.0117 -0.6637 -0.1312
    1Sil     Ob  613   3.776   0.414  12.092  0.1059  0.1292  0.1536
    1Sil     Ob  614   3.272   3.639  12.211  0.3855 -0.7587  0.1697
    1Sil     Ob  615   3.861   3.644  11.408 -0.8610  0.0704  0.3270
    1Sil     Ob  616   3.551   3.632  11.810  0.2032 -0.1546  0.5810
    1Sil     Ob  617   3.262   3.813  12.408 -0.2889  0.2809  0.8580
    1Sil     Ob  618   2.993   3.813  11.614 -0.4129  0.0043 -0.1559
    1Sil     Ob  619   3.592   3.690  12.055  0.1156  0.1739  0.6084
    1Sil     Ob  620   3.190   0.344  12.039  0.8852 -0.0522  0.3495
    1Sil     Ob  621   3.725   0.350  12.431  0.0113 -0.1542  0.5333
    1Sil     Ob  622   3.413   0.251  11.606 -0.1911  0.4459 -0.0141
    1Sil     Ob  623   3.660   3.627  11.568 -0.5926 -0.2583 -0.0271
    1Sil     Ob  624   3.075   3.640  12.363  0.4929 -0.6119 -0.3485
    1Sil     Ob  625   3.358   3.618  11.964 -0.0864  0.1577  0.5926
    1Sil     Ob  626   3.037   0.427  11.856  0.2443  0.8387 -0.4197
    1Sil     Ob  627   3.564   0.417  12.240  0.2133 -0.4849 -0.4315
    1Sil     Ob  628   3.318   0.436  11.447 -0.1132  0.3740 -0.5106
    1Sil     Ob  629   4.174   0.622  11.273 -0.7123  0.6444 -0.2224
    1Sil     Ob  630   4.773   0.607  10.479  0.4017  0.6603 -0.0524
    1Sil     Ob  631   3.999   1.113  10.823 -0.0707  0.1799 -0.1477
    1Sil     Ob  632   4.540   1.112  11.218 -0.2657  0.0276  0.1429
    1Sil     Ob  633   4.371   1.002  10.435  0.1161  0.1242 -0.2432
    1Sil     Ob  634   4.366   0.940  11.303  0.1556 -0.3217  0.9939
    1Sil     Ob  635   4.124   0.924  10.499 -0.2152  0.4714 -0.5252
    1Sil     Ob  636   4.657   0.929  10.899 -0.2159  0.1782  0.6019
    1Sil     Ob  637   4.157   0.699  11.022 -0.2130  0.1626 -0.7299
    1Sil     Ob  638   4.453   0.686  10.637  0.6366  0.2974  0.4133
    1Sil     Ob  639   4.131   0.870  11.208  0.1620 -0.1384 -0.4412
    1Sil     Ob  640   3.891   0.848  10.402 -0.0877  0.1794  0.0542
    1Sil     Ob  641   4.473   0.759  10.876 -0.1783 -0.3114 -0.0951
    1Sil     Ob  642   4.071   0.866  10.854  0.4231 -0.0542 -0.1787
    1Sil     Ob  643   4.608   0.867  11.242 -0.2323  0.1698 -0.3950
    1Sil     Ob  644   4.295   0.749  10.435  0.2850  0.5015 -0.3960
    1Sil     Ob  645   4.539   0.686  10.394  0.5921  0.6605  0.5330
    1Sil     Ob  646   3.945   0.689  11.181 -0.6893 -0.1207 -0.4000
    1Sil     Ob  647   4.249   0.688  10.785 -0.1725  0.4894  0.3910
    1Sil     Ob  648   3.913   0.929  10.657 -0.5289  0.1725  0.7653
    1Sil     Ob  649   4.444   0.939  11.055  0.2977 -0.0840  0.8032
    1Sil     Ob  650   4.129   0.611  12.471 -0.2907 -0.0837  0.1565
    1Sil     Ob  651   4.722   0.604  11.658 -0.7568  0.1044 -0.8262
    1Sil     Ob  652   3.946   1.089  12.033  0.3933  0.2509  0.1111
    1Sil     Ob  653   4.488   1.102  12.430 -0.4585 -0.3605 -0.2519
    1Sil     Ob  654   4.322   0.989  11.644  0.8045  0.2265  0.3609
    1Sil     Ob  655   4.317   0.928  12.505 -0.0328 -0.1813  0.6093
    1Sil     Ob  656   4.080   0.918  11.692 -0.8368  0.5006  0.1902
    1Sil     Ob  657   4.612   0.909  12.095 -0.0468 -0.5002  0.0998
    1Sil     Ob  658   4.108   0.670  12.217 -0.4456  0.1255 -0.1718
    1Sil     Ob  659   4.691   0.691  11.415 -0.2041 -0.3956 -0.0865
    1Sil     Ob  660   4.406   0.670  11.814  0.4654  0.0338  1.0306
    1Sil     Ob  661   4.094   0.856  12.387  0.2210  0.1750  0.1324
    1Sil     Ob  662   3.837   0.856  11.610 -0.1042  0.6912  0.4224
    1Sil     Ob  663   4.418   0.745  12.064  0.4331 -0.1330  0.0550
    1Sil     Ob  664   4.023   0.843  12.044 -0.7440  0.2153 -0.2137
    1Sil     Ob  665   4.559   0.857  12.456 -0.1780 -0.0817  0.0659
    1Sil     Ob  666   4.247   0.739  11.612 -0.5083 -0.3333  0.2765
    1Sil     Ob  667   4.487   0.688  11.563  0.0907  0.3922  0.0903
    1Sil     Ob  668   3.898   0.704  12.365 -0.2915  0.5149 -0.5103
    1Sil     Ob  669   4.190   0.655  11.970  0.7160 -0.6530 -0.4561
    1Sil     Ob  670   3.875   0.924  11.853 -0.2505  1.2618  0.5420
    1Sil     Ob  671   4.408   0.927  12.254  0.2225 -0.3032  0.4190
    1Sil     Ob  672   4.165   0.925  11.452  0.9122 -0.0230 -0.2796
    1Sil     Ob  673   4.177   1.105  11.277 -0.2324  0.2277  0.3730
    1Sil     Ob  674   4.771   1.110  10.468  0.0698 -0.4498 -0.2514
    1Sil     Ob  675   4.428   1.002  10.803 -0.5662  0.0389  0.4996
    1Sil     Ob  676   3.998   1.607  10.818  0.2120  0.8702 -0.3622
    1Sil     Ob  677   4.548   1.603  11.218  0.7714  0.6122  0.2532
    1Sil     Ob  678   4.377   1.493  10.448  0.2627 -0.4131 -0.1335
    1Sil     Ob  679   4.375   1.439  11.290  0.0840  0.6294  0.0113
    1Sil     Ob  680   4.132   1.414  10.484  0.0536  0.0689 -0.2329
    1Sil     Ob  681   4.655   1.420  10.899  0.0382  0.2504  0.0092
    1Sil     Ob  682   4.152   1.175  11.024  0.8244 -0.5206 -0.1527
    1Sil     Ob  683   4.448   1.177  10.615  0.5119  0.3880 -0.1367
    1Sil     Ob  684   4.147   1.352  11.206 -0.0018  0.1547 -0.4268
    1Sil     Ob  685   3.892   1.345  10.408 -0.7055 -0.0161  0.1743
    1Sil     Ob  686   4.469   1.250  10.859 -0.8120 -0.3789 -0.0788
    1Sil     Ob  687   4.077   1.358  10.862  0.0708 -0.2680  0.3666
    1Sil     Ob  688   4.621   1.363  11.235  0.0564 -0.3524 -0.0220
    1Sil     Ob  689   4.297   1.250  10.409  0.1743  0.2798 -0.2835
    1Sil     Ob  690   4.541   1.193  10.376 -0.0717  0.6710  0.2090
    1Sil     Ob  691   3.952   1.168  11.188 -0.5084 -0.0247 -0.2452
    1Sil     Ob  692   4.240   1.174  10.772 -0.0874  0.0423 -0.1938
    1Sil     Ob  693   3.926   1.425  10.662 -0.0623  0.0638  0.0362
    1Sil     Ob  694   4.458   1.429  11.047 -0.1041 -0.0119  0.0812
    1Sil     Ob  695   4.120   1.093  12.467  0.1047 -0.8520  0.0341
    1Sil     Ob  696   4.728   1.105  11.661  0.0510 -0.6405  0.5051
    1Sil     Ob  697   4.388   0.991  12.006  0.3918 -0.1147  0.3654
    1Sil     Ob  698   3.960   1.574  12.029  0.6216  0.1924  0.4617
    1Sil     Ob  699   4.496   1.592  12.400  0.0520  0.1790 -0.3398
    1Sil     Ob  700   4.317   1.487  11.653  0.2002  0.0657  0.2222
    1Sil     Ob  701   4.315   1.430  12.489 -0.4417  0.1098  0.3557
    1Sil     Ob  702   4.070   1.402  11.691  0.3810 -0.1704 -0.1249
    1Sil     Ob  703   4.623   1.393  12.100  0.2822 -0.0149 -0.2596
    1Sil     Ob  704   4.108   1.167  12.213 -0.2252 -0.0313 -0.0987
    1Sil     Ob  705   4.702   1.194  11.408 -0.1391  0.3314  0.3616
    1Sil     Ob  706   4.396   1.164  11.810 -0.3489  0.0516 -0.1302
    1Sil     Ob  707   4.089   1.344  12.402 -0.2655  0.6755 -0.2664
    1Sil     Ob  708   3.832   1.350  11.609  0.3362  0.2297  0.1299
    1Sil     Ob  709   4.422   1.231  12.068 -0.1971  0.2581 -0.0680
    1Sil     Ob  710   4.023   1.332  12.031  0.0787 -0.6617  0.5845
    1Sil     Ob  711   4.560   1.353  12.442  0.4356 -0.1484 -0.2559
    1Sil     Ob  712   4.240   1.241  11.615 -0.7175  0.4759  0.2227
    1Sil     Ob  713   4.491   1.173  11.570 -0.5164 -0.0780 -0.5461
    1Sil     Ob  714   3.902   1.175  12.367 -0.5612  0.1845 -0.6176
    1Sil     Ob  715   4.194   1.145  11.972 -0.2804 -0.3563  0.3111
    1Sil     Ob  716   3.860   1.417  11.852  0.6733  0.5986 -0.6568
    1Sil     Ob  717   4.399   1.414  12.235 -0.1244 -0.1484  0.1602
    1Sil     Ob  718   4.171   1.416  11.452 -0.5389  0.1346  0.1939
    1Sil     Ob  719   4.182   1.600  11.262 -0.5055  0.0208 -0.3171
    1Sil     Ob  720   4.808   1.595  10.458 -0.3539 -0.4189  0.2087
    1Sil     Ob  721   4.429   1.505  10.803 -0.4041  0.4572 -0.4345
    1Sil     Ob  722   4.005   2.095  10.823  0.5279 -0.3386  0.2593
    1Sil     Ob  723   4.543   2.089  11.224 -0.6514  0.2814  0.4747
    1Sil     Ob  724   4.369   1.978  10.431  0.2544  0.2473 -0.4090
    1Sil     Ob  725   4.367   1.924  11.305 -0.0666  0.7071 -0.4228
    1Sil     Ob  726   4.126   1.896  10.494 -0.2276  0.2365 -1.2012
    1Sil     Ob  727   4.657   1.931  10.911  0.5289 -0.7027  0.1222
    1Sil     Ob  728   4.156   1.666  11.014 -0.2245  0.2319  0.4499
    1Sil     Ob  729   4.454   1.678  10.618 -0.0467 -0.3070 -0.4167
    1Sil     Ob  730   4.144   1.852  11.197 -0.0830 -0.3637  0.0241
    1Sil     Ob  731   3.878   1.837  10.420  0.1054  0.0204 -0.6470
    1Sil     Ob  732   4.489   1.749  10.868 -0.2821 -0.2109  0.1451
    1Sil     Ob  733   4.074   1.850  10.867 -0.7344 -0.2953 -0.2097
    1Sil     Ob  734   4.609   1.843  11.266  0.4094  0.1999  0.3130
    1Sil     Ob  735   4.321   1.738  10.395  0.3915  0.2484 -0.1735
    1Sil     Ob  736   4.555   1.653  10.382 -0.1773 -0.1356  0.3962
    1Sil     Ob  737   3.951   1.683  11.183 -0.3199 -0.2036  0.0018
    1Sil     Ob  738   4.251   1.686  10.775 -0.1240 -0.5686 -0.1418
    1Sil     Ob  739   3.926   1.909  10.663 -0.0735 -0.1158 -0.3094
    1Sil     Ob  740   4.461   1.910  11.075  0.4123 -0.3157  0.3976
    1Sil     Ob  741   4.127   1.583  12.469  0.2691 -0.3110 -0.5329
    1Sil     Ob  742   4.720   1.595  11.680  0.1423 -0.1053  0.1273
    1Sil     Ob  743   4.405   1.486  11.997 -0.5156  0.2155  0.3186
    1Sil     Ob  744   3.942   2.072  12.028 -0.0998  0.1858  0.2898
    1Sil     Ob  745   4.490   2.085  12.421  0.4393 -0.0812 -0.2010
    1Sil     Ob  746   4.314   1.978  11.647  0.7077  0.3023 -0.2021
    1Sil     Ob  747   4.317   1.900  12.472  0.1139 -0.4467  0.9915
    1Sil     Ob  748   4.072   1.916  11.696  0.0480  0.5117 -0.2013
    1Sil     Ob  749   4.602   1.907  12.080 -0.1582 -1.3026 -0.3252
    1Sil     Ob  750   4.113   1.663  12.211  0.0882 -0.0991 -0.0125
    1Sil     Ob  751   4.699   1.662  11.420  0.1681  0.5213  0.0173
    1Sil     Ob  752   4.402   1.668  11.816 -0.2546  0.1092 -0.1279
    1Sil     Ob  753   4.073   1.844  12.415 -0.0327  0.0301  0.0048
    1Sil     Ob  754   3.841   1.842  11.599 -1.3826  0.4036  0.7311
    1Sil     Ob  755   4.422   1.738  12.050  0.1031  0.2383 -0.2340
    1Sil     Ob  756   4.025   1.828  12.035 -0.5380  0.0837 -0.0133
    1Sil     Ob  757   4.567   1.835  12.402  0.1803  0.0159 -0.1011
    1Sil     Ob  758   4.242   1.736  11.621 -0.0827  0.0047 -0.1929
    1Sil     Ob  759   4.492   1.669  11.570 -0.0209 -0.6104  0.4481
    1Sil     Ob  760   3.904   1.644  12.378 -0.7552 -0.2263 -0.7935
    1Sil     Ob  761   4.204   1.644  11.975  0.2404 -0.1597  0.5371
    1Sil     Ob  762   3.863   1.907  11.849 -0.6974  0.8039 -0.0040
    1Sil     Ob  763   4.400   1.936  12.234 -0.1880  0.0081 -0.5008
    1Sil     Ob  764   4.161   1.921  11.456  0.2493  0.1124 -0.3095
    1Sil     Ob  765   4.198   2.102  11.263  0.5910  0.3840 -0.6662
    1Sil     Ob  766   4.765   2.086  10.473 -0.0602  0.5327  0.4142
    1Sil     Ob  767   4.422   1.987  10.824 -0.1873 -0.5330  0.0868
    1Sil     Ob  768   4.002   2.594  10.835 -0.0403 -0.4676 -0.3320
    1Sil     Ob  769   4.547   2.584  11.211  0.4410  0.4652 -0.1645
    1Sil     Ob  770   4.363   2.480  10.453  0.8556 -0.3231  0.2858
    1Sil     Ob  771   4.363   2.417  11.295 -0.6030  0.6599  0.5574
    1Sil     Ob  772   4.116   2.394  10.514  0.1321 -0.1236 -0.1512
    1Sil     Ob  773   4.669   2.408  10.904  0.1230  0.7667 -0.2735
    1Sil     Ob  774   4.154   2.171  11.019 -0.7207  0.0047  0.7262
    1Sil     Ob  775   4.460   2.152  10.616  0.4700 -0.1195  0.0661
    1Sil     Ob  776   4.132   2.357  11.207 -0.3983  0.3771  0.3407
    1Sil     Ob  777   3.868   2.328  10.432  0.2789 -0.0269 -0.1048
    1Sil     Ob  778   4.485   2.231  10.862 -0.0745  0.0060  0.1478
    1Sil     Ob  779   4.069   2.343  10.859 -0.3771 -0.4453  0.3278
    1Sil     Ob  780   4.612   2.340  11.254 -0.1651  0.2098 -0.2952
    1Sil     Ob  781   4.299   2.225  10.436 -0.2186 -0.1037 -0.3416
    1Sil     Ob  782   4.536   2.158  10.365 -0.2214  0.7667  0.5700
    1Sil     Ob  783   3.963   2.168  11.173  0.5854  0.1176 -0.3081
    1Sil     Ob  784   4.244   2.172  10.769  0.2359  0.2798 -0.5255
    1Sil     Ob  785   3.916   2.421  10.672  0.4776  0.9320 -0.8185
    1Sil     Ob  786   4.453   2.398  11.051 -0.3431 -0.4383 -0.2560
    1Sil     Ob  787   4.139   2.092  12.455  0.2569 -0.2569 -0.2340
    1Sil     Ob  788   4.732   2.083  11.666 -0.4381 -0.2719 -0.1864
    1Sil     Ob  789   4.377   1.982  11.979 -0.0061 -0.1341 -0.9200
    1Sil     Ob  790   3.946   2.566  12.016  0.5400 -0.3605  0.2815
    1Sil     Ob  791   4.489   2.575  12.411  0.1497  0.1200  0.3890
    1Sil     Ob  792   4.312   2.480  11.649  0.6906 -0.0295 -0.2146
    1Sil     Ob  793   4.323   2.399  12.487 -0.0064 -0.4509 -0.3172
    1Sil     Ob  794   4.073   2.384  11.690  0.2479 -1.1703 -0.7930
    1Sil     Ob  795   4.604   2.395  12.086  0.2086  0.2970  0.0597
    1Sil     Ob  796   4.106   2.171  12.213  0.5270  0.1046  0.5728
    1Sil     Ob  797   4.694   2.154  11.423  0.3462  0.0941  0.6903
    1Sil     Ob  798   4.381   2.167  11.803 -0.0675  0.1706 -0.9622
    1Sil     Ob  799   4.083   2.340  12.410  0.2890  0.9607  0.2356
    1Sil     Ob  800   3.833   2.327  11.602 -0.2320  0.0244 -0.4944
    1Sil     Ob  801   4.424   2.224  12.044  0.0839 -0.0791  0.5352
    1Sil     Ob  802   4.007   2.319  12.034  0.1355  0.0884 -0.4901
    1Sil     Ob  803   4.562   2.327  12.438  0.1237  0.0711 -0.0422
    1Sil     Ob  804   4.260   2.236  11.590 -0.1299 -0.0536  0.0102
    1Sil     Ob  805   4.498   2.137  11.567  0.3619  0.3212  0.6431
    1Sil     Ob  806   3.903   2.154  12.371  0.1618 -0.3000 -0.4180
    1Sil     Ob  807   4.186   2.146  11.972  0.3571  0.0840  0.1635
    1Sil     Ob  808   3.868   2.403  11.839 -0.4165 -0.0237 -0.0709
    1Sil     Ob  809   4.396   2.400  12.234 -0.6111  0.0668 -0.3999
    1Sil     Ob  810   4.165   2.436  11.453 -0.4024 -0.0502 -0.0054
    1Sil     Ob  811   4.194   2.607  11.261 -0.5155  0.4463 -0.1127
    1Sil     Ob  812   4.780   2.573  10.462 -0.0142 -0.6087 -0.5980
    1Sil     Ob  813   4.431   2.476  10.808 -0.0732  0.1439  0.3547
    1Sil     Ob  814   3.998   3.081  10.824 -0.0410 -0.1867  0.0754
    1Sil     Ob  815   4.556   3.083  11.206  0.2471 -0.1051  0.0836
    1Sil     Ob  816   4.367   2.970  10.444  0.1386  0.1965  0.1343
    1Sil     Ob  817   4.373   2.922  11.303  0.6103 -0.3250 -0.9465
    1Sil     Ob  818   4.124   2.901  10.490  0.5309  0.1502 -0.1772
    1Sil     Ob  819   4.654   2.915  10.900 -0.5205 -0.3974  0.1671
    1Sil     Ob  820   4.162   2.661  11.018  0.0771 -0.0529  0.2134
    1Sil     Ob  821   4.448   2.658  10.616  0.1202  0.4569  0.0681
    1Sil     Ob  822   4.142   2.848  11.210  0.4636  0.3164  0.2260
    1Sil     Ob  823   3.891   2.835  10.405 -0.3917 -0.3043  0.8378
    1Sil     Ob  824   4.483   2.725  10.865  0.1933 -0.5545 -0.5105
    1Sil     Ob  825   4.075   2.833  10.857 -0.3340 -0.3842  0.5381
    1Sil     Ob  826   4.611   2.829  11.251  0.6222 -0.2998  0.0031
    1Sil     Ob  827   4.298   2.729  10.418  0.2848  0.7501 -0.3590
    1Sil     Ob  828   4.541   2.651  10.377 -0.6321  0.1155  1.0101
    1Sil     Ob  829   3.961   2.670  11.178 -0.0961  0.2857  0.0111
    1Sil     Ob  830   4.246   2.654  10.773  0.1113 -0.1930 -0.0658
    1Sil     Ob  831   3.921   2.899  10.656  0.7079 -0.0918  0.0410
    1Sil     Ob  832   4.448   2.895  11.061  0.9160 -0.0860  0.4310
    1Sil     Ob  833   4.150   2.589  12.449 -0.1577 -0.5196 -0.3630
    1Sil     Ob  834   4.734   2.567  11.656 -0.4856  0.1074 -0.2835
    1Sil     Ob  835   4.377   2.468  11.981  0.9098  0.2576  0.1743
    1Sil     Ob  836   3.950   3.063  12.024  0.0395  0.2387  0.1764
    1Sil     Ob  837   4.485   3.072  12.410 -1.0094 -0.5806  0.4249
    1Sil     Ob  838   4.324   2.972  11.655  0.2951  0.3959 -0.4121
    1Sil     Ob  839   4.312   2.901  12.484 -0.3260  0.8166 -1.2821
    1Sil     Ob  840   4.078   2.892  11.692  0.1192  0.2201  0.2573
    1Sil     Ob  841   4.609   2.884  12.090  0.0885 -0.7199 -0.3867
    1Sil     Ob  842   4.118   2.650  12.212  0.0091 -0.1481 -0.0945
    1Sil     Ob  843   4.699   2.648  11.412 -0.3637  0.1005  0.1506
    1Sil     Ob  844   4.396   2.667  11.807  0.0916  0.1248  0.3757
    1Sil     Ob  845   4.081   2.833  12.407 -0.6420  0.0940  0.2434
    1Sil     Ob  846   3.839   2.824  11.611  0.4575 -0.3386  0.9405
    1Sil     Ob  847   4.415   2.714  12.053  0.3741 -0.7885  0.2278
    1Sil     Ob  848   4.027   2.810  12.038 -0.0717  0.3938 -0.1893
    1Sil     Ob  849   4.546   2.822  12.452 -0.1174  0.0684  0.9186
    1Sil     Ob  850   4.258   2.728  11.610  0.4744 -0.0277  0.1313
    1Sil     Ob  851   4.500   2.627  11.573 -0.4267  0.5851 -0.0624
    1Sil     Ob  852   3.916   2.637  12.374 -0.1292  0.0445  0.2360
    1Sil     Ob  853   4.194   2.632  11.965  0.0167 -0.3197 -0.3812
    1Sil     Ob  854   3.877   2.898  11.847  0.6744  0.3949  0.5455
    1Sil     Ob  855   4.398   2.882  12.243  0.5977 -0.3928 -0.2703
    1Sil     Ob  856   4.161   2.915  11.454  0.0816 -0.3092 -0.3598
    1Sil     Ob  857   4.179   3.089  11.260  0.2732 -0.4766 -0.0967
    1Sil     Ob  858   4.774   3.071  10.469  0.6636 -0.7786  1.1062
    1Sil     Ob  859   4.412   2.972  10.817 -0.6614 -0.0106  0.3867
    1Sil     Ob  860   3.994   3.583  10.831  0.0217 -0.2275  0.2016
    1Sil     Ob  861   4.540   3.577  11.219  0.1726 -0.1219 -0.0290
    1Sil     Ob  862   4.356   3.470  10.458 -0.0087 -0.1396 -0.4680
    1Sil     Ob  863   4.353   3.396  11.291 -0.8633  0.5626  0.0641
    1Sil     Ob  864   4.115   3.370  10.499 -0.5872 -0.5123 -0.2309
    1Sil     Ob  865   4.664   3.390  10.899 -0.2214  0.3198  0.3037
    1Sil     Ob  866   4.142   3.155  11.021 -0.0908  0.4568 -0.3346
    1Sil     Ob  867   4.446   3.139  10.627 -0.4229 -0.1080 -0.1189
    1Sil     Ob  868   4.120   3.328  11.205 -0.4234 -0.2919 -0.0177
    1Sil     Ob  869   3.872   3.323  10.425  0.3813 -0.4459  0.3343
    1Sil     Ob  870   4.468   3.219  10.873 -0.7581  0.2663  0.4399
    1Sil     Ob  871   4.064   3.333  10.855 -0.3126  0.2445 -0.2242
    1Sil     Ob  872   4.609   3.337  11.265 -0.0592  0.9979  0.0712
    1Sil     Ob  873   4.317   3.218  10.419 -0.4894 -0.3403 -0.0428
    1Sil     Ob  874   4.550   3.129  10.379  0.4840 -0.4325  0.1514
    1Sil     Ob  875   3.944   3.145  11.173 -0.8638  0.3691  0.8627
    1Sil     Ob  876   4.239   3.154  10.777 -0.0737 -0.3884 -0.1211
    1Sil     Ob  877   3.921   3.404  10.666 -0.2060 -0.6567  0.6889
    1Sil     Ob  878   4.462   3.388  11.058 -0.3617 -0.2024 -0.5850
    1Sil     Ob  879   4.131   3.075  12.464  0.2535 -0.1829 -0.4956
    1Sil     Ob  880   4.746   3.072  11.659 -0.3017  0.6018  0.1813
    1Sil     Ob  881   4.391   2.968  11.994 -1.0071  0.4948  0.7926
    1Sil     Ob  882   3.952   3.552  12.036  0.2775 -0.4424 -0.2549
    1Sil     Ob  883   4.475   3.572  12.406 -0.5574 -0.0425  0.0091
    1Sil     Ob  884   4.311   3.467  11.658  0.1052  0.6798 -0.1067
    1Sil     Ob  885   4.306   3.395  12.490  0.7861 -0.5464 -0.5525
    1Sil     Ob  886   4.072   3.379  11.701  0.2754  0.0002  0.0719
    1Sil     Ob  887   4.615   3.381  12.098  0.0078  0.0732  0.3697
    1Sil     Ob  888   4.108   3.147  12.216  0.0503  0.0910 -0.2003
    1Sil     Ob  889   4.703   3.142  11.415  0.0651  0.5067 -0.0483
    1Sil     Ob  890   4.404   3.149  11.812 -0.7964  0.3214 -0.3526
    1Sil     Ob  891   4.060   3.320  12.413 -0.0373  0.0615  0.4331
    1Sil     Ob  892   3.836   3.321  11.603  0.4476  0.5257  0.2087
    1Sil     Ob  893   4.417   3.205  12.064  0.4502 -0.3462 -0.2263
    1Sil     Ob  894   4.032   3.307  12.028 -0.0847 -0.0479  0.6079
    1Sil     Ob  895   4.561   3.329  12.440 -0.3771  0.0847  0.2187
    1Sil     Ob  896   4.256   3.218  11.606  0.9410  0.2881  0.1788
    1Sil     Ob  897   4.510   3.133  11.575 -0.1888  0.4662 -0.9921
    1Sil     Ob  898   3.896   3.127  12.367 -0.7129 -0.2364 -0.0189
    1Sil     Ob  899   4.197   3.126  11.964 -0.3057  0.5209  0.4236
    1Sil     Ob  900   3.869   3.401  11.848 -0.0945  0.1931  0.2131
    1Sil     Ob  901   4.399   3.394  12.247 -0.3815  0.8218  0.0547
    1Sil     Ob  902   4.150   3.405  11.460 -0.0110 -0.0585 -0.1707
    1Sil     Ob  903   4.165   3.575  11.269  0.4145  0.0610  0.3050
    1Sil     Ob  904   4.757   3.571  10.466 -0.6417  0.4070 -0.4967
    1Sil     Ob  905   4.439   3.469  10.808 -0.0287 -0.3247 -0.3321
    1Sil     Ob  906   4.354   0.432  11.289 -0.5395  0.6261  0.5259
    1Sil     Ob  907   4.124   0.437  10.508  0.6081  0.1528 -0.6234
    1Sil     Ob  908   4.663   0.429  10.905 -0.0136 -0.0115 -0.3637
    1Sil     Ob  909   4.147   3.655  11.013 -0.1404 -0.2505 -0.5948
    1Sil     Ob  910   4.445   3.644  10.619  0.3039 -0.6945  0.6945
    1Sil     Ob  911   4.113   3.827  11.205  0.2215 -0.8177  0.2250
    1Sil     Ob  912   3.882   3.821  10.421  0.4447  0.6778 -0.4446
    1Sil     Ob  913   4.474   3.718  10.861 -0.5002  0.4310 -1.0283
    1Sil     Ob  914   4.073   0.374  10.850  0.0005  0.6468  0.4413
    1Sil     Ob  915   4.605   0.378  11.257  0.4852  0.1333  0.0854
    1Sil     Ob  916   4.296   0.260  10.433 -0.0093  0.5443 -0.0752
    1Sil     Ob  917   4.529   3.630  10.373  0.1420 -0.3565 -0.6518
    1Sil     Ob  918   3.939   3.644  11.182 -0.2872 -0.3105 -0.1475
    1Sil     Ob  919   4.235   3.634  10.772 -0.2687 -0.1801  0.2340
    1Sil     Ob  920   3.919   0.443  10.671  0.5410  0.2264  0.1280
    1Sil     Ob  921   4.455   0.418  11.053 -0.9993  0.0506 -0.1830
    1Sil     Ob  922   4.120   3.570  12.477 -0.0042  0.2821  0.0993
    1Sil     Ob  923   4.707   3.567  11.671 -0.2594  0.0893  0.6393
    1Sil     Ob  924   4.385   3.465  12.002  0.1071 -0.6535  0.4215
    1Sil     Ob  925   4.306   0.432  12.474 -0.2969  0.5659  0.0019
    1Sil     Ob  926   4.073   0.446  11.696 -0.4079  0.5334 -0.4205
    1Sil     Ob  927   4.614   0.426  12.094  0.1379 -0.3439 -0.0127
    1Sil     Ob  928   4.109   3.650  12.231 -0.3215  0.1802 -0.7481
    1Sil     Ob  929   4.690   3.646  11.416 -0.2110 -0.6421  0.4473
    1Sil     Ob  930   4.385   3.648  11.818  0.0925  0.3053 -0.4976
    1Sil     Ob  931   4.065   3.818  12.441  0.3719 -0.1550 -0.0543
    1Sil     Ob  932   3.839   3.820  11.598  0.1855 -0.6097  0.1792
    1Sil     Ob  933   4.427   3.712  12.066  0.3547 -0.7072 -0.2342
    1Sil     Ob  934   4.018   0.347  12.044 -0.3886 -0.0887 -0.2933
    1Sil     Ob  935   4.550   0.365  12.424  0.0805 -0.0162 -0.3561
    1Sil     Ob  936   4.236   0.258  11.612 -0.0831  0.3042 -0.0880
    1Sil     Ob  937   4.481   3.651  11.575 -0.2722  0.4014 -0.1901
    1Sil     Ob  938   3.901   3.624  12.389  0.1703  0.2455  0.2374
    1Sil     Ob  939   4.194   3.638  11.982 -0.2370  0.0508 -0.3400
    1Sil     Ob  940   3.863   0.424  11.850 -0.0871  0.7594  0.1352
    1Sil     Ob  941   4.400   0.447  12.235  0.1186  0.0835  0.6544
    1Sil     Ob  942   4.149   0.433  11.450  0.3877 -0.0228 -0.7412
    1Sil     Ob  943   5.019   0.612  11.258  0.2453  0.2693 -0.4449
    1Sil     Ob  944   4.836   1.111  10.821  0.2502  0.0041 -0.4462
    1Sil     Ob  945   5.377   1.100  11.203 -0.6170 -0.2270  0.1284
    1Sil     Ob  946   5.201   0.989  10.434  0.0348 -0.7008  0.2831
    1Sil     Ob  947   5.199   0.933  11.300 -0.1049  0.4282  0.3844
    1Sil     Ob  948   4.953   0.915  10.504 -0.6262 -0.4328 -0.0683
    1Sil     Ob  949   2.154   0.917  10.904 -0.1092 -0.1181 -0.1680
    1Sil     Ob  950   4.987   0.679  11.012  0.0580 -0.0568  0.0270
    1Sil     Ob  951   1.935   0.673  10.615 -0.1911  0.5522  0.5030
    1Sil     Ob  952   4.974   0.856  11.200 -0.0969  0.6213  1.0209
    1Sil     Ob  953   4.719   0.865  10.426 -0.2316  0.1605 -0.3086
    1Sil     Ob  954   1.964   0.743  10.858  0.3653 -0.0369  0.0141
    1Sil     Ob  955   4.904   0.860  10.855 -0.4799 -0.4692  0.7117
    1Sil     Ob  956   5.439   0.853  11.237 -0.5225 -0.6939 -0.3277
    1Sil     Ob  957   5.120   0.744  10.415  0.3847 -0.0756  0.6105
    1Sil     Ob  958   2.029   0.675  10.367  0.7447  0.6224 -0.2700
    1Sil     Ob  959   4.776   0.681  11.168  0.0523  0.1055  0.3597
    1Sil     Ob  960   1.738   0.679  10.769  0.1851 -0.7389 -0.4610
    1Sil     Ob  961   4.746   0.942  10.667 -0.3397  0.7002 -0.4486
    1Sil     Ob  962   5.287   0.908  11.049 -0.6054 -1.0671 -0.4371
    1Sil     Ob  963   4.963   0.610  12.468  0.1513 -0.5862 -0.5896
    1Sil     Ob  964   4.787   1.095  12.043 -0.4411 -0.2812 -0.1485
    1Sil     Ob  965   5.339   1.097  12.412  0.1079 -0.7774 -0.6196
    1Sil     Ob  966   5.145   0.991  11.660 -0.0316 -0.0129  0.1105
    1Sil     Ob  967   5.162   0.930  12.496  0.1617  0.6854 -0.4954
    1Sil     Ob  968   4.906   0.925  11.699 -0.2824 -0.6250  0.2378
    1Sil     Ob  969   2.114   0.916  12.091 -0.1837  0.1519 -0.1333
    1Sil     Ob  970   4.941   0.681  12.219 -0.2767  0.1905 -1.0082
    1Sil     Ob  971   2.184   0.675  11.403 -0.5478 -0.0906  0.3766
    1Sil     Ob  972   1.893   0.686  11.800  0.6026  0.0197  0.4318
    1Sil     Ob  973   4.924   0.852  12.405 -0.1636  0.3461  0.2108
    1Sil     Ob  974   4.672   0.860  11.607  0.1450 -0.2928  0.0211
    1Sil     Ob  975   1.936   0.748  12.055  0.1540  0.1410  0.2410
    1Sil     Ob  976   4.857   0.853  12.042 -0.1515 -0.2702 -0.6388
    1Sil     Ob  977   5.402   0.840  12.450  0.3755  0.1776  0.2107
    1Sil     Ob  978   5.082   0.751  11.598 -0.2788 -0.2696  0.3121
    1Sil     Ob  979   1.987   0.685  11.564  0.2557  0.4358 -0.1035
    1Sil     Ob  980   4.733   0.677  12.384 -0.3336  0.2051  0.7721
    1Sil     Ob  981   1.701   0.664  11.971  0.0536  0.3601 -0.8880
    1Sil     Ob  982   4.700   0.942  11.849 -0.0384 -0.3042  0.3857
    1Sil     Ob  983   5.251   0.907  12.251 -0.0412 -0.9810  0.3187
    1Sil     Ob  984   4.991   0.935  11.453  0.1402 -0.2533 -0.0272
    1Sil     Ob  985   5.013   1.104  11.262  0.4987  0.4409  0.3493
    1Sil     Ob  986   1.922   0.994  10.805 -0.3094  0.5910 -0.0533
    1Sil     Ob  987   4.833   1.610  10.842  0.1613  0.3104 -0.5033
    1Sil     Ob  988   5.375   1.600  11.217  0.4886  0.1901  0.1437
    1Sil     Ob  989   5.191   1.490  10.488  0.3080 -0.0130 -0.1217
    1Sil     Ob  990   5.187   1.415  11.287 -0.2606  0.7094  0.3373
    1Sil     Ob  991   4.958   1.406  10.518  0.0235  0.4301  0.3354
    1Sil     Ob  992   2.167   1.408  10.893 -0.2139 -0.0635 -0.5383
    1Sil     Ob  993   4.983   1.163  11.009  0.3566  0.3053 -0.2557
    1Sil     Ob  994   1.950   1.155  10.617 -0.0204 -0.2643 -0.1111
    1Sil     Ob  995   4.955   1.353  11.196  0.1225 -0.0972  0.5714
    1Sil     Ob  996   4.725   1.361  10.412  0.4006 -0.1600  0.3532
    1Sil     Ob  997   1.966   1.242  10.861 -0.5214  0.3303 -0.2282
    1Sil     Ob  998   4.907   1.359  10.845 -0.5342 -0.1195 -0.1431
    1Sil     Ob  999   5.436   1.347  11.234  0.3557  0.0374 -0.5427
    1Sil     Ob 1000   5.131   1.239  10.433  0.2136 -0.1298 -0.2655
    1Sil     Ob 1001   2.040   1.180  10.368  0.1740  0.4047 -0.3481
    1Sil     Ob 1002   4.786   1.172  11.174 -0.3741 -0.5520  0.3558
    1Sil     Ob 1003   1.741   1.174  10.765  0.8230  0.0161  0.1069
    1Sil     Ob 1004   4.753   1.452  10.663 -0.0082  0.0893  0.3000
    1Sil     Ob 1005   5.294   1.424  11.043 -0.8584 -0.0358 -0.2367
    1Sil     Ob 1006   4.968   1.102  12.483 -0.1758 -0.5174 -0.3236
    1Sil     Ob 1007   1.883   0.985  12.005  0.1439 -0.6347 -0.1515
    1Sil     Ob 1008   4.784   1.588  12.041  0.6078 -0.1257  0.3446
    1Sil     Ob 1009   5.319   1.581  12.428  0.6192 -0.1546  0.4024
    1Sil     Ob 1010   5.156   1.479  11.634  0.2391 -0.0079  0.4432
    1Sil     Ob 1011   5.144   1.401  12.485  0.5080  0.3877 -0.5539
    1Sil     Ob 1012   4.925   1.426  11.700  0.6755 -0.6692  0.0446
    1Sil     Ob 1013   2.107   1.409  12.093  0.6805  0.0451  0.1776
    1Sil     Ob 1014   4.939   1.173  12.233 -0.5915  0.0137  0.0417
    1Sil     Ob 1015   2.182   1.176  11.410 -0.3934  0.1113 -0.2949
    1Sil     Ob 1016   1.889   1.170  11.825  0.1720 -0.0943 -0.1109
    1Sil     Ob 1017   4.900   1.343  12.426  0.6454 -0.3747 -0.5288
    1Sil     Ob 1018   4.683   1.354  11.606  0.2646  0.1082  0.6766
    1Sil     Ob 1019   1.922   1.228  12.065  0.7437 -0.0996  0.5420
    1Sil     Ob 1020   4.868   1.339  12.053 -0.1057  0.2704 -0.2556
    1Sil     Ob 1021   5.393   1.340  12.452 -0.1530  0.1236 -0.1992
    1Sil     Ob 1022   5.074   1.239  11.620  0.1940  0.5742  0.2891
    1Sil     Ob 1023   1.986   1.167  11.584 -0.1851 -0.5321  0.1174
    1Sil     Ob 1024   4.735   1.160  12.394 -0.0757 -0.2832 -0.6599
    1Sil     Ob 1025   1.694   1.155  11.985 -0.4615  0.5370  0.8356
    1Sil     Ob 1026   4.714   1.415  11.865  0.1664  0.5304  0.8092
    1Sil     Ob 1027   5.238   1.408  12.246  0.0987 -0.2985 -0.7601
    1Sil     Ob 1028   4.990   1.408  11.444  0.4240 -1.0062 -0.1591
    1Sil     Ob 1029   5.009   1.589  11.259 -0.3881 -0.2141  0.3312
    1Sil     Ob 1030   1.941   1.495  10.792  0.0271  0.0051 -0.3854
    1Sil     Ob 1031   4.834   2.090  10.827  0.2632 -0.5836  0.3867
    1Sil     Ob 1032   5.383   2.082  11.223  0.6776  0.5428 -0.2931
    1Sil     Ob 1033   5.204   1.970  10.468 -0.1156  0.6112 -0.5256
    1Sil     Ob 1034   5.207   1.924  11.304 -0.4622 -0.0455 -0.4995
    1Sil     Ob 1035   4.963   1.914  10.512 -0.1240  0.6251  0.6526
    1Sil     Ob 1036   2.164   1.913  10.910 -0.0464 -0.7379  0.1483
    1Sil     Ob 1037   4.993   1.670  11.020  0.1362  0.3097  0.4138
    1Sil     Ob 1038   1.949   1.686  10.631  0.1278 -0.0614 -0.0648
    1Sil     Ob 1039   4.979   1.845  11.206 -0.3303 -0.0025 -0.4343
    1Sil     Ob 1040   4.726   1.837  10.426  0.1952  0.0851 -0.1227
    1Sil     Ob 1041   1.975   1.734  10.882 -0.1320  0.7162  0.1565
    1Sil     Ob 1042   4.904   1.852  10.860 -0.1035 -0.7798  0.0625
    1Sil     Ob 1043   5.455   1.834  11.254 -0.7093 -0.1353  0.2993
    1Sil     Ob 1044   5.129   1.734  10.431 -0.6506  0.1372 -0.1312
    1Sil     Ob 1045   2.036   1.639  10.385 -0.0017  0.5500 -0.0982
    1Sil     Ob 1046   4.783   1.678  11.172  0.0805 -0.3699 -0.0099
    1Sil     Ob 1047   1.742   1.661  10.779 -0.1228  0.1207  0.2995
    1Sil     Ob 1048   4.755   1.908  10.663 -0.0354 -0.2300  0.6866
    1Sil     Ob 1049   5.292   1.918  11.062  0.3660 -0.4974  0.1412
    1Sil     Ob 1050   4.963   1.596  12.472  0.7983 -0.0868 -0.2709
    1Sil     Ob 1051   1.875   1.479  12.000  0.1649  0.3488  0.2936
    1Sil     Ob 1052   4.777   2.090  12.018  0.8900  0.8224  0.3052
    1Sil     Ob 1053   5.319   2.076  12.393 -0.6430  0.5654 -0.4341
    1Sil     Ob 1054   5.172   1.975  11.635 -0.5926 -0.6668 -0.1374
    1Sil     Ob 1055   5.152   1.900  12.482  0.0668  0.1068 -0.0322
    1Sil     Ob 1056   4.927   1.913  11.700 -0.0614 -0.7187 -0.1546
    1Sil     Ob 1057   2.107   1.901  12.094  0.6253 -0.0809  0.2944
    1Sil     Ob 1058   4.949   1.671  12.220 -0.0456 -0.0273  0.1605
    1Sil     Ob 1059   2.190   1.653  11.421  0.6694 -0.0092  0.4984
    1Sil     Ob 1060   1.900   1.649  11.806 -0.5686  0.2970  0.0372
    1Sil     Ob 1061   4.915   1.848  12.416 -0.1304 -0.4533  0.0085
    1Sil     Ob 1062   4.705   1.840  11.606 -0.6550  0.0127  0.0898
    1Sil     Ob 1063   1.924   1.731  12.049  0.0736  1.1133  0.4520
    1Sil     Ob 1064   4.850   1.842  12.050 -0.4429 -0.0311  0.0364
    1Sil     Ob 1065   5.396   1.827  12.417  0.1656 -0.5143  0.3842
    1Sil     Ob 1066   5.085   1.734  11.619 -0.5176 -0.0393 -0.2346
    1Sil     Ob 1067   1.991   1.666  11.567 -1.1272  0.6237  0.0205
    1Sil     Ob 1068   4.746   1.660  12.371  0.5539 -0.0019  0.2456
    1Sil     Ob 1069   1.700   1.667  11.967  0.0005 -0.0948  0.2778
    1Sil     Ob 1070   4.713   1.900  11.852 -0.1942 -0.0749  0.2795
    1Sil     Ob 1071   5.224   1.907  12.234 -0.0830 -0.3084 -0.2519
    1Sil     Ob 1072   5.003   1.910  11.453 -0.0086  0.1268  0.2836
    1Sil     Ob 1073   5.026   2.095  11.272  0.2174 -0.5456  0.4482
    1Sil     Ob 1074   1.935   1.983  10.818 -0.1847  0.4753 -0.4856
    1Sil     Ob 1075   4.847   2.577  10.801 -0.6845  0.5418  0.0363
    1Sil     Ob 1076   5.386   2.583  11.230  0.6834 -0.1835  0.1419
    1Sil     Ob 1077   5.201   2.463  10.462 -0.2002  0.2806 -0.0951
    1Sil     Ob 1078   5.206   2.404  11.287  0.4263 -0.0564  0.0251
    1Sil     Ob 1079   4.959   2.392  10.503 -0.4615  0.0644 -0.2860
    1Sil     Ob 1080   2.165   2.399  10.898  0.2023 -0.4234  0.0637
    1Sil     Ob 1081   4.985   2.162  11.021  0.0348 -0.2952 -0.0638
    1Sil     Ob 1082   1.950   2.156  10.629 -0.6003  0.0668 -0.7340
    1Sil     Ob 1083   4.968   2.345  11.214  0.5834  0.0915  0.1505
    1Sil     Ob 1084   4.727   2.326  10.403 -0.1108 -0.3038  0.5575
    1Sil     Ob 1085   1.969   2.229  10.881  0.1952 -0.7771  0.1232
    1Sil     Ob 1086   4.913   2.335  10.843  0.6072  0.2974  0.2799
    1Sil     Ob 1087   5.446   2.333  11.246 -0.7149 -0.1960 -0.1797
    1Sil     Ob 1088   5.130   2.220  10.434  0.2906 -0.5241  0.4515
    1Sil     Ob 1089   2.039   2.155  10.392 -0.2943  0.5486 -0.2790
    1Sil     Ob 1090   4.788   2.162  11.181 -0.3793  0.1416 -0.4699
    1Sil     Ob 1091   1.748   2.153  10.786 -0.4961 -0.0576  0.2391
    1Sil     Ob 1092   4.762   2.399  10.658 -0.0981  0.2293  0.1739
    1Sil     Ob 1093   5.295   2.424  11.050 -0.1520 -0.1789  0.5820
    1Sil     Ob 1094   4.982   2.084  12.457 -0.2107  0.1059  0.0187
    1Sil     Ob 1095   1.881   1.976  11.983  0.4687  0.7926 -0.2289
    1Sil     Ob 1096   4.776   2.581  12.021  0.4980  0.0877  0.3690
    1Sil     Ob 1097   5.333   2.569  12.401  0.2173 -0.0157  0.3309
    1Sil     Ob 1098   5.159   2.462  11.652 -0.3475  0.1645 -0.7314
    1Sil     Ob 1099   5.153   2.410  12.489 -0.1970 -0.5742 -0.0985
    1Sil     Ob 1100   4.914   2.380  11.699  0.0447 -0.2336  0.0774
    1Sil     Ob 1101   2.111   2.393  12.090 -0.1319 -0.8662  0.1828
    1Sil     Ob 1102   4.936   2.150  12.212 -0.1069  0.4494  0.0774
    1Sil     Ob 1103   2.207   2.173  11.423  0.3484  0.7018  0.3383
    1Sil     Ob 1104   1.898   2.157  11.805 -0.4429  0.5569 -0.0939
    1Sil     Ob 1105   4.918   2.325  12.412 -0.3464  0.1409  0.0027
    1Sil     Ob 1106   4.675   2.322  11.606 -0.0330 -0.4639 -0.3892
    1Sil     Ob 1107   1.916   2.226  12.053  0.0728  0.6546 -0.8850
    1Sil     Ob 1108   4.852   2.331  12.041  0.2307 -0.1148 -0.1244
    1Sil     Ob 1109   5.391   2.322  12.438 -0.0771 -0.0216  0.0203
    1Sil     Ob 1110   5.097   2.225  11.598 -0.7465  0.1023  0.5829
    1Sil     Ob 1111   2.005   2.142  11.571  0.6590  0.1127  0.1523
    1Sil     Ob 1112   4.738   2.135  12.391 -0.0241 -0.3208 -0.2457
    1Sil     Ob 1113   1.684   2.145  11.965 -0.1979  0.2362  0.4111
    1Sil     Ob 1114   4.705   2.414  11.852  0.5320  0.2653  0.1654
    1Sil     Ob 1115   5.230   2.405  12.238  0.0890  0.3214  0.0596
    1Sil     Ob 1116   5.001   2.416  11.456 -1.0766  0.3201  0.6680
    1Sil     Ob 1117   5.024   2.584  11.266 -0.9266  0.0809  0.8437
    1Sil     Ob 1118   1.938   2.479  10.806  0.2899  0.2807 -0.0440
    1Sil     Ob 1119   4.834   3.075  10.804  0.5657  0.5627 -0.1150
    1Sil     Ob 1120   5.372   3.079  11.224 -0.0390 -0.6774 -0.2836
    1Sil     Ob 1121   5.197   2.962  10.448  0.0819 -0.3225  0.9599
    1Sil     Ob 1122   5.202   2.894  11.270 -0.2164 -0.0311 -0.4085
    1Sil     Ob 1123   4.963   2.888  10.498 -0.1081 -0.2638  0.2035
    1Sil     Ob 1124   2.159   2.895  10.894  0.0532  0.1793  0.4489
    1Sil     Ob 1125   4.977   2.630  11.011  0.4342 -1.1007  0.1808
    1Sil     Ob 1126   1.952   2.654  10.622  1.1929  0.0569 -0.3326
    1Sil     Ob 1127   4.975   2.832  11.189 -0.2892 -0.2372 -0.0491
    1Sil     Ob 1128   4.730   2.829  10.396 -0.2934 -0.0895 -0.5056
    1Sil     Ob 1129   1.977   2.725  10.875 -0.3369 -0.2228  0.0183
    1Sil     Ob 1130   4.892   2.824  10.854  0.4751  0.0359 -0.9490
    1Sil     Ob 1131   5.455   2.836  11.248 -0.5671  0.3141 -0.0128
    1Sil     Ob 1132   5.133   2.709  10.418 -0.0262  0.1175  0.6837
    1Sil     Ob 1133   2.048   2.630  10.369  0.3353  0.7212  0.6726
    1Sil     Ob 1134   4.789   2.651  11.177 -0.4167  0.1546 -0.3991
    1Sil     Ob 1135   1.751   2.661  10.777 -0.1641  0.1996  0.3999
    1Sil     Ob 1136   4.750   2.884  10.653  0.3746 -1.1280 -0.0061
    1Sil     Ob 1137   5.296   2.907  11.052  0.4490  0.4280 -0.2644
    1Sil     Ob 1138   4.954   2.577  12.467 -0.5393 -0.1371  0.4784
    1Sil     Ob 1139   1.884   2.477  11.990 -0.5139  0.2047 -0.7663
    1Sil     Ob 1140   4.793   3.066  12.021  0.1024  0.4709  0.0874
    1Sil     Ob 1141   5.332   3.075  12.428  0.1931 -0.2047  0.2891
    1Sil     Ob 1142   5.156   2.963  11.626 -0.2019 -0.1877 -0.2634
    1Sil     Ob 1143   5.165   2.886  12.475 -0.5470  0.7918  0.5299
    1Sil     Ob 1144   4.923   2.880  11.687  0.3943  0.4959  0.3418
    1Sil     Ob 1145   2.106   2.896  12.092  0.1150  0.0307 -0.1561
    1Sil     Ob 1146   4.933   2.642  12.211 -0.3792 -1.1985 -0.6138
    1Sil     Ob 1147   2.198   2.664  11.416 -0.3308  1.0320 -0.2956
    1Sil     Ob 1148   1.902   2.639  11.818 -0.0246  0.7538  0.2770
    1Sil     Ob 1149   4.922   2.825  12.406  0.0598  0.1415 -0.3915
    1Sil     Ob 1150   4.678   2.821  11.603 -0.3796 -0.7723  0.1188
    1Sil     Ob 1151   1.916   2.724  12.064  0.5137 -0.5267 -0.6876
    1Sil     Ob 1152   4.854   2.818  12.047  0.5010 -0.2233 -0.7399
    1Sil     Ob 1153   5.409   2.822  12.422 -0.3850  0.4320  0.4858
    1Sil     Ob 1154   5.101   2.712  11.604  0.6146 -0.6582 -0.0306
    1Sil     Ob 1155   1.999   2.618  11.578  0.1510  0.3007 -0.1925
    1Sil     Ob 1156   4.739   2.646  12.383  0.3393  0.0132  0.4857
    1Sil     Ob 1157   1.686   2.646  11.967  0.4270 -0.1646 -0.4332
    1Sil     Ob 1158   4.716   2.895  11.842 -0.3991 -0.4308  0.4033
    1Sil     Ob 1159   5.240   2.915  12.235 -0.1649  0.0716  0.8631
    1Sil     Ob 1160   5.006   2.889  11.442 -0.0877  0.2972  0.0027
    1Sil     Ob 1161   5.015   3.080  11.253 -0.6046 -0.0092 -0.5171
    1Sil     Ob 1162   1.931   2.969  10.800 -0.5088 -0.3038  0.0958
    1Sil     Ob 1163   4.834   3.570  10.825  0.2102 -0.2090  0.1433
    1Sil     Ob 1164   5.365   3.575  11.223  0.3462  0.3521  0.1672
    1Sil     Ob 1165   5.189   3.445  10.436  0.1223 -0.9170  0.4246
    1Sil     Ob 1166   5.200   3.395  11.293  0.1403  0.1015 -0.8043
    1Sil     Ob 1167   4.946   3.383  10.499  0.1185  0.3900 -0.3855
    1Sil     Ob 1168   2.158   3.417  10.899 -1.0963  0.2553  0.0969
    1Sil     Ob 1169   4.980   3.148  11.008  0.7104  0.5069 -0.4517
    1Sil     Ob 1170   1.944   3.152  10.616  0.6568  0.1416  0.0537
    1Sil     Ob 1171   4.975   3.331  11.205 -0.0220  0.0987 -0.0166
    1Sil     Ob 1172   4.716   3.318  10.422  0.0086  0.4208  0.2125
    1Sil     Ob 1173   1.987   3.224  10.856 -0.1887  0.1576 -0.1044
    1Sil     Ob 1174   4.906   3.319  10.845 -0.0108  0.1195  0.3175
    1Sil     Ob 1175   5.445   3.321  11.245  0.0417  0.3539 -0.4840
    1Sil     Ob 1176   5.118   3.202  10.418  0.2429  0.2798  0.1771
    1Sil     Ob 1177   2.041   3.143  10.377  0.0554 -0.3685 -0.4982
    1Sil     Ob 1178   4.791   3.157  11.172 -0.1957 -0.1003  0.1561
    1Sil     Ob 1179   1.744   3.150  10.773  0.3090  0.1399  0.1495
    1Sil     Ob 1180   4.738   3.399  10.661  0.2314  1.1817  0.3636
    1Sil     Ob 1181   5.290   3.395  11.046 -0.5333  0.3596  0.3166
    1Sil     Ob 1182   4.982   3.067  12.466 -0.0706 -0.1215  0.6237
    1Sil     Ob 1183   1.883   2.976  11.984  0.4432 -0.4241 -0.3491
    1Sil     Ob 1184   4.781   3.569  12.030  0.0445 -0.5835  0.3257
    1Sil     Ob 1185   5.326   3.556  12.369 -0.3588  0.1400 -0.2787
    1Sil     Ob 1186   5.147   3.468  11.641  0.1400 -0.0873 -0.3305
    1Sil     Ob 1187   5.160   3.400  12.484  0.1228  0.3761  0.1328
    1Sil     Ob 1188   4.900   3.388  11.690  0.1848 -0.2276 -0.4041
    1Sil     Ob 1189   2.107   3.385  12.083 -0.1315 -0.4500  0.4386
    1Sil     Ob 1190   4.944   3.141  12.214 -0.1692  0.3761  0.2810
    1Sil     Ob 1191   2.201   3.151  11.423 -0.6388  0.5601  0.2510
    1Sil     Ob 1192   1.888   3.153  11.796 -0.2460 -0.4048 -0.1674
    1Sil     Ob 1193   4.933   3.314  12.409  0.5096 -0.3051 -0.2419
    1Sil     Ob 1194   4.673   3.315  11.598 -0.2316  0.1994  0.1709
    1Sil     Ob 1195   1.930   3.214  12.041 -0.3366  0.0437 -0.0154
    1Sil     Ob 1196   4.849   3.321  12.051 -0.8494  0.1523  0.2940
    1Sil     Ob 1197   5.397   3.320  12.421 -0.2431 -0.4531 -0.1166
    1Sil     Ob 1198   5.073   3.218  11.610  0.2065  0.9010 -0.1765
    1Sil     Ob 1199   1.991   3.145  11.565  0.1025 -0.6131  0.1947
    1Sil     Ob 1200   4.741   3.143  12.379  0.0367 -0.1484 -0.1767
    1Sil     Ob 1201   1.693   3.160  11.962 -0.2312  0.7062  0.2758
    1Sil     Ob 1202   4.697   3.382  11.851  0.5100  0.0661 -0.2511
    1Sil     Ob 1203   5.233   3.372  12.233  0.4662 -0.3536  0.2465
    1Sil     Ob 1204   4.991   3.394  11.454 -0.3101 -0.0102  0.0868
    1Sil     Ob 1205   5.023   3.574  11.265 -0.4201  0.0315 -0.1653
    1Sil     Ob 1206   1.927   3.468  10.794 -0.7934 -0.0618  0.4451
    1Sil     Ob 1207   1.861   0.438  11.297  0.1570  0.3980 -0.6541
    1Sil     Ob 1208   1.607   0.405  10.499 -0.1059  0.2789 -0.2943
    1Sil     Ob 1209   2.147   0.447  10.891 -0.2180 -0.2929  0.3333
    1Sil     Ob 1210   4.988   3.641  11.018 -0.5004 -0.5367 -0.6797
    1Sil     Ob 1211   1.944   3.641  10.607 -0.3401  0.0317  0.0336
    1Sil     Ob 1212   4.968   3.825  11.205 -0.3258  0.0048  0.9151
    1Sil     Ob 1213   4.697   3.814  10.419  0.0137  0.2384 -0.4713
    1Sil     Ob 1214   1.972   3.713  10.858 -0.1800 -0.8195 -0.4315
    1Sil     Ob 1215   4.913   0.360  10.852  0.6377 -0.2541  0.2931
    1Sil     Ob 1216   2.106   0.362  11.268  0.0804 -0.7573 -0.1205
    1Sil     Ob 1217   1.797   0.248  10.406  0.3670  0.1570 -0.1005
    1Sil     Ob 1218   2.035   3.606  10.371  0.6313  0.7803 -0.0736
    1Sil     Ob 1219   4.784   3.650  11.178 -0.6512  0.7678  0.1654
    1Sil     Ob 1220   1.739   3.648  10.771  0.0812  0.4643  0.1940
    1Sil     Ob 1221   4.746   0.435  10.666  0.3353 -0.6970 -0.2708
    1Sil     Ob 1222   1.947   0.418  11.057 -0.5005  0.1813 -0.0810
    1Sil     Ob 1223   4.968   3.574  12.474 -0.1645 -0.4544  0.3937
    1Sil     Ob 1224   1.872   3.457  11.992 -0.3497 -0.1428  0.1157
    1Sil     Ob 1225   1.823   0.429  12.493  0.3577 -0.0361  0.0116
    1Sil     Ob 1226   1.575   0.418  11.683  0.2378  0.3096 -0.3112
    1Sil     Ob 1227   2.122   0.412  12.084  0.0354  0.2048 -0.0830
    1Sil     Ob 1228   4.940   3.640  12.224 -0.6104  0.2506  0.4092
    1Sil     Ob 1229   2.180   3.628  11.414 -0.3893  0.2777  0.1013
    1Sil     Ob 1230   1.886   3.647  11.814 -0.0715 -0.0605  0.0207
    1Sil     Ob 1231   4.922   3.810  12.410  0.3773  0.0934  0.2338
    1Sil     Ob 1232   4.671   3.814  11.612  0.5139 -0.0966 -0.1212
    1Sil     Ob 1233   1.914   3.702  12.056 -0.7824  0.0335 -0.5670
    1Sil     Ob 1234   4.862   0.358  12.047 -0.4052 -0.6920 -0.5390
    1Sil     Ob 1235   2.060   0.356  12.419 -0.4572  0.5135 -0.0810
    1Sil     Ob 1236   1.743   0.254  11.606  0.2851  0.7251  0.6566
    1Sil     Ob 1237   1.988   3.641  11.575 -0.4218 -0.5812 -0.2832
    1Sil     Ob 1238   4.726   3.636  12.383 -0.3912 -0.2817  0.2369
    1Sil     Ob 1239   1.684   3.622  11.975 -0.5599 -0.2766  0.4125
    1Sil     Ob 1240   4.704   0.439  11.854  0.9487  0.1743  0.0220
    1Sil     Ob 1241   1.904   0.429  12.233 -0.0379 -0.0304  0.0009
    1Sil     Ob 1242   4.994   0.442  11.443  1.0105  0.0228  0.2298
    1Sil     Ob 1243   2.268   0.606  10.448 -0.0634 -0.2373  0.3821
    1Sil     Ob 1244   2.228   0.603  11.653 -0.5568 -0.3391  0.0601
    1Sil     Ob 1245   2.264   1.107  10.475  0.1050  0.6507  0.0706
    1Sil     Ob 1246   2.225   1.093  11.654 -0.5701 -0.0288  0.2292
    1Sil     Ob 1247   2.283   1.595  10.447 -0.6081 -0.3431  0.0021
    1Sil     Ob 1248   2.222   1.591  11.663  0.1018  0.5074  0.3857
    1Sil     Ob 1249   2.288   2.070  10.457 -0.2400  0.1865 -0.3086
    1Sil     Ob 1250   2.231   2.087  11.660  0.1144 -0.1206 -0.1494
    1Sil     Ob 1251   2.273   2.573  10.463 -0.2124  0.5179  0.1718
    1Sil     Ob 1252   2.238   2.570  11.664  0.2706 -0.3839  0.1089
    1Sil     Ob 1253   2.280   3.066  10.448  0.4537  0.9219  0.2460
    1Sil     Ob 1254   2.219   3.065  11.666 -0.2074 -0.3984 -0.1187
    1Sil     Ob 1255   2.270   3.560  10.467 -0.2109 -0.1156  0.2182
    1Sil     Ob 1256   2.225   3.568  11.656  0.7270 -0.1399  0.1651
    1Sil     Ob 1257   2.759   0.506  10.821 -0.1905 -0.7544 -0.1921
    1Sil     Ob 1258   2.714   0.497  11.997 -0.3067 -0.5142 -0.4594
    1Sil     Ob 1259   3.606   0.497  10.803  0.4148  0.5980 -0.1263
    1Sil     Ob 1260   3.542   0.479  11.993 -0.2619  0.4267 -0.5195
    1Sil     Ob 1261   4.425   0.508  10.819  0.4828  0.2613  0.1314
    1Sil     Ob 1262   4.398   0.497  11.991 -0.6087 -0.6767  0.6064
    1Sil     Ob 1263   1.914   0.504  10.804  0.4014 -0.8904  0.3741
    1Sil     Ob 1264   1.898   0.499  11.987 -0.5728 -0.6161  0.0829
    1Sil     Ob 1265   2.322   0.609  10.811 -0.1172 -0.5101  0.0039
    1Sil     Ob 1266   2.867   0.604  11.227 -0.2207  0.1689  0.1745
    1Sil     Ob 1267   2.701   0.494  10.470  0.4260 -0.8657  0.0533
    1Sil     Ob 1268   2.283   0.598  12.007 -0.0203 -0.6267 -0.0402
    1Sil     Ob 1269   2.826   0.599  12.400 -0.2394 -0.0171  0.4120
    1Sil     Ob 1270   2.650   0.498  11.631 -0.1914  0.1371 -0.4678
    1Sil     Ob 1271   3.175   0.600  10.806  0.3628 -0.6693 -0.3185
    1Sil     Ob 1272   3.695   0.611  11.224 -0.4608 -0.5417 -1.0726
    1Sil     Ob 1273   3.529   0.499  10.439  0.0117  0.2172 -0.2219
    1Sil     Ob 1274   3.111   0.584  12.042 -0.0749 -0.6771 -0.1204
    1Sil     Ob 1275   3.667   0.601  12.395 -0.6866  0.1270  0.0008
    1Sil     Ob 1276   3.479   0.499  11.653 -0.0554  0.5059 -0.3303
    1Sil     Ob 1277   3.992   0.621  10.845 -0.0673 -0.7037 -0.7155
    1Sil     Ob 1278   4.526   0.619  11.218 -0.4299  0.1677 -0.2880
    1Sil     Ob 1279   4.368   0.510  10.465 -0.1242  0.0744  0.3144
    1Sil     Ob 1280   3.949   0.590  12.030  0.4419 -0.4814  0.0377
    1Sil     Ob 1281   4.478   0.618  12.419  0.1957 -0.1087  1.0228
    1Sil     Ob 1282   4.317   0.502  11.643  0.0359  0.3336 -0.2379
    1Sil     Ob 1283   4.834   0.610  10.821 -0.6329  0.3676  0.1070
    1Sil     Ob 1284   2.034   0.610  11.211 -0.3264 -0.1242  0.3662
    1Sil     Ob 1285   1.852   0.499  10.450  0.0361  0.3485  0.4954
    1Sil     Ob 1286   4.781   0.606  12.026  0.5714 -0.2726  0.1273
    1Sil     Ob 1287   1.989   0.604  12.402 -0.7629 -0.0354 -0.0891
    1Sil     Ob 1288   1.818   0.500  11.639  0.3765 -0.2306 -0.1861
    1Sil     Cm 1289   3.079   0.645  10.229 -0.4446 -0.7820 -0.2995
    1Sil     Cm 1290   2.542   0.936  10.274  0.1561 -0.1446 -0.2689
    1Sil     Cm 1291   2.420   0.914  12.656  0.4869 -0.7475  0.6105
    1Sil     Cm 1292   2.965   0.652  12.608 -0.1127 -0.3990  0.2227
    1Sil     Cm 1293   3.065   1.140  10.216  0.5531  0.4034  0.3840
    1Sil     Cm 1294   2.534   1.430  10.224 -0.1335  0.4955 -0.0541
    1Sil     Cm 1295   2.455   1.390  12.652 -0.1602 -0.5961  0.0601
    1Sil     Cm 1296   2.992   1.162  12.634  0.3201  0.5574  0.5953
    1Sil     Cm 1297   3.108   1.646  10.196 -1.4504 -0.3805 -0.1630
    1Sil     Cm 1298   2.559   1.948  10.218 -0.7113 -0.3878 -0.4880
    1Sil     Cm 1299   2.464   1.915  12.667  0.3133  0.1690 -0.2204
    1Sil     Cm 1300   2.933   1.672  12.628 -0.2505  0.5977 -0.0348
    1Sil     Cm 1301   3.074   2.153  10.214  0.0393 -0.0176  0.4990
    1Sil     Cm 1302   2.547   2.375  10.220  1.0548  0.0590 -1.0832
    1Sil     Cm 1303   2.444   2.392  12.678 -0.6180  0.3055 -0.4888
    1Sil     Cm 1304   2.965   2.159  12.608  1.0167 -0.0660  0.5061
    1Sil     Cm 1305   3.087   2.652  10.208  0.8472  0.2726 -0.5484
    1Sil     Cm 1306   2.564   2.889  10.241  0.4138  0.2705  0.6987
    1Sil     Cm 1307   2.436   2.926  12.675  0.9830 -0.1251  0.5273
    1Sil     Cm 1308   2.961   2.639  12.608  0.0233  0.0976  0.3904
    1Sil     Cm 1309   3.090   3.150  10.227  0.2499  0.3406  0.2383
    1Sil     Cm 1310   2.543   3.382  10.242  0.4956  0.3679  0.4551
    1Sil     Cm 1311   2.460   3.414  12.653  0.2922 -0.7385 -0.0849
    1Sil     Cm 1312   2.952   3.136  12.634 -0.7805  0.3790  0.0071
    1Sil     Cm 1313   3.085   3.639  10.207  0.5405  0.6271  0.2666
    1Sil     Cm 1314   2.555   0.434  10.234 -0.4446 -0.1938  0.3268
    1Sil     Cm 1315   2.440   0.402  12.653  0.1639 -0.3921 -0.3064
    1Sil     Cm 1316   2.959   3.606  12.610 -0.6992  0.3557  0.3371
    1Sil     Cm 1317   3.905   0.672  10.207 -0.3669  0.1932  0.5725
    1Sil     Cm 1318   3.391   0.904  10.247  0.3482 -1.0385 -0.1344
    1Sil     Cm 1319   3.293   0.915  12.671  0.8720 -0.5840  0.4617
    1Sil     Cm 1320   3.809   0.669  12.620  0.3206 -0.1130  0.1771
    1Sil     Cm 1321   3.902   1.157  10.212 -0.3243  0.0215  0.1203
    1Sil     Cm 1322   3.380   1.422  10.260  0.1424 -0.4294  0.0105
    1Sil     Cm 1323   3.289   1.408  12.653 -0.1891 -0.6252  0.5079
    1Sil     Cm 1324   3.810   1.150  12.622  0.1091 -0.1853 -0.0088
    1Sil     Cm 1325   3.912   1.676  10.218 -0.7323 -0.1711  0.3082
    1Sil     Cm 1326   3.378   1.917  10.252 -0.3633  0.3526 -0.2011
    1Sil     Cm 1327   3.267   1.888  12.658  0.7565  0.1074 -0.3933
    1Sil     Cm 1328   3.818   1.616  12.634  0.0265 -0.2819 -0.4595
    1Sil     Cm 1329   3.927   2.194  10.215 -0.4611  0.0652 -0.1870
    1Sil     Cm 1330   3.374   2.407  10.243 -0.4585  0.8144 -0.6350
    1Sil     Cm 1331   3.271   2.424  12.658 -0.4302  0.2157 -0.3105
    1Sil     Cm 1332   3.809   2.154  12.615  0.0866 -0.0919 -0.1948
    1Sil     Cm 1333   3.917   2.662  10.198 -0.0657 -0.0638  0.2258
    1Sil     Cm 1334   3.370   2.893  10.255  0.5220  0.3250  0.8715
    1Sil     Cm 1335   3.317   2.894  12.686  0.5009 -0.1916  0.5387
    1Sil     Cm 1336   3.783   2.645  12.607  0.1065  0.2355 -0.1269
    1Sil     Cm 1337   3.907   3.165  10.226  0.1446  0.2584  0.8641
    1Sil     Cm 1338   3.354   3.405  10.224  0.0308 -1.1736  0.4962
    1Sil     Cm 1339   3.275   3.374  12.655 -0.3058 -0.1290 -0.0196
    1Sil     Cm 1340   3.791   3.136  12.611  0.4643 -0.2512  0.4767
    1Sil     Cm 1341   3.938   3.646  10.202 -0.6860  0.3001 -0.0530
    1Sil     Cm 1342   3.375   0.437  10.226  0.0779  0.4387 -0.0006
    1Sil     Cm 1343   3.288   0.415  12.673 -0.3207  0.1599  0.1637
    1Sil     Cm 1344   3.775   3.635  12.621 -0.4028 -0.4339 -0.8929
    1Sil     Cm 1345   4.741   0.696  10.224  0.5242 -0.2659  0.5652
    1Sil     Cm 1346   4.216   0.909  10.240  0.3047 -0.0832 -0.3262
    1Sil     Cm 1347   4.086   0.885  12.652 -0.6655 -0.7478 -0.2597
    1Sil     Cm 1348   4.636   0.671  12.643  0.0084  0.4225 -0.2395
    1Sil     Cm 1349   4.749   1.186  10.215  0.3749  0.3352 -1.1457
    1Sil     Cm 1350   4.232   1.427  10.227  0.0486  0.7917 -0.1044
    1Sil     Cm 1351   4.120   1.403  12.676 -0.3823 -0.4030 -0.1971
    1Sil     Cm 1352   4.634   1.182  12.630  0.7848  0.4508  0.5446
    1Sil     Cm 1353   4.763   1.680  10.217  0.2260  0.5870  0.9907
    1Sil     Cm 1354   4.206   1.922  10.236 -0.2811  0.1710 -0.5380
    1Sil     Cm 1355   4.140   1.923  12.656  0.1047 -0.9224 -0.1421
    1Sil     Cm 1356   4.641   1.673  12.616 -0.2728 -0.8183 -0.1926
    1Sil     Cm 1357   4.745   2.137  10.213 -0.1403  0.3087  0.0520
    1Sil     Cm 1358   4.198   2.412  10.242 -0.6211  0.1673 -0.1583
    1Sil     Cm 1359   4.135   2.435  12.647 -0.2602 -0.0421  0.0585
    1Sil     Cm 1360   4.632   2.158  12.640 -0.6049  0.5951 -0.7527
    1Sil     Cm 1361   4.743   2.640  10.207 -0.0465  0.3069  0.6408
    1Sil     Cm 1362   4.200   2.899  10.235 -0.2727 -0.0951 -0.0836
    1Sil     Cm 1363   4.121   2.905  12.655 -0.7735  0.2056 -0.3641
    1Sil     Cm 1364   4.631   2.636  12.631 -0.1394 -0.1345 -0.3314
    1Sil     Cm 1365   4.758   3.160  10.213 -0.5425 -0.3923  0.2906
    1Sil     Cm 1366   4.205   3.415  10.245 -0.1088  0.5424 -0.1103
    1Sil     Cm 1367   4.106   3.396  12.650  0.6062  0.1633  0.6261
    1Sil     Cm 1368   4.636   3.155  12.628 -0.3242 -0.7365 -0.4062
    1Sil     Cm 1369   4.724   3.650  10.214 -0.3406 -0.4043  0.7714
    1Sil     Cm 1370   4.215   0.438  10.238  0.1214  0.4666  0.6200
    1Sil     Cm 1371   4.133   0.446  12.697  0.9868  0.5584 -0.0785
    1Sil     Cm 1372   4.612   3.666  12.627 -0.1729  0.0073 -0.0458
    1Sil     Cm 1373   2.245   0.705  10.205 -0.1409 -0.5553  0.2336
    1Sil     Cm 1374   5.022   0.925  10.228 -0.5076  0.2168 -0.4267
    1Sil     Cm 1375   4.978   0.919  12.666 -0.0207  0.1926 -0.0083
    1Sil     Cm 1376   2.142   0.644  12.620  0.5300  0.4605 -0.1952
    1Sil     Cm 1377   2.253   1.158  10.205 -0.0497  0.3094  0.5392
    1Sil     Cm 1378   5.038   1.438  10.263 -0.0657  0.0929  0.2951
    1Sil     Cm 1379   4.960   1.414  12.670  0.8433 -0.0799 -0.6254
    1Sil     Cm 1380   2.143   1.152  12.634  0.1394  0.6947  0.2644
    1Sil     Cm 1381   2.232   1.684  10.192  0.0334 -0.0411 -1.0887
    1Sil     Cm 1382   5.048   1.922  10.251 -0.2069  0.3361  0.1750
    1Sil     Cm 1383   4.968   1.926  12.664 -0.4322 -0.5027  0.1840
    1Sil     Cm 1384   2.153   1.681  12.603 -0.5277  0.5266  0.5437
    1Sil     Cm 1385   2.229   2.155  10.208  0.5706 -0.4581 -0.3315
    1Sil     Cm 1386   5.050   2.413  10.250  0.0416 -0.6726  0.4246
    1Sil     Cm 1387   4.966   2.400  12.654 -0.5356  1.0321 -0.2884
    1Sil     Cm 1388   2.107   2.140  12.618  0.1173  0.8360  0.3678
    1Sil     Cm 1389   2.264   2.649  10.214  0.2479 -0.1730 -0.1995
    1Sil     Cm 1390   5.052   2.885  10.239  0.6306 -0.4851  0.0735
    1Sil     Cm 1391   4.975   2.891  12.663  0.7362 -0.0138 -0.0454
    1Sil     Cm 1392   2.105   2.656  12.625 -0.4993  0.0298  0.5113
    1Sil     Cm 1393   2.232   3.148  10.184  0.1210 -0.2704  0.5904
    1Sil     Cm 1394   5.024   3.377  10.242  0.2717 -0.1067 -0.9885
    1Sil     Cm 1395   4.968   3.377  12.680  0.1467 -0.0492 -0.1356
    1Sil     Cm 1396   2.156   3.162  12.627 -0.6455 -0.3058  0.3532
    1Sil     Cm 1397   2.251   3.614  10.211  0.1011  0.5676 -0.3702
    1Sil     Cm 1398   1.707   0.424  10.238  0.0718 -0.2431  0.3879
    1Sil     Cm 1399   4.959   0.432  12.669  0.1959 -0.2061 -0.6272
    1Sil     Cm 1400   2.132   3.634  12.590 -0.4386  0.0121 -0.2714
    1Sil    Sim 1401   3.029   0.695  10.374 -0.0342 -0.2708 -0.0932
    1Sil    Sib 1402   2.442   0.704  11.160 -0.1991  0.2746 -0.2862
    1Sil    Sib 1403   2.730   0.650  10.779 -0.2936  0.3238 -0.2257
    1Sil    Sib 1404   2.275   0.947  10.814  0.2881 -0.1220 -0.0636
    1Sil    Sib 1405   2.835   0.947  11.205 -0.4162  0.1892 -0.1965
    1Sil    Sim 1406   2.579   0.899  10.422 -0.0331 -0.4708 -0.3206
    1Sil    Sib 1407   2.553   0.954  11.305 -0.1766  0.1196  0.2888
    1Sil    Sib 1408   2.287   0.950  10.517  0.1199  0.0935  0.0965
    1Sil    Sib 1409   2.846   0.901  10.907 -0.4801 -0.0336  0.1628
    1Sil    Sib 1410   2.439   0.704  10.867 -0.1125  0.1088  0.2086
    1Sil    Sib 1411   2.992   0.700  11.269  0.2702  0.1520  0.2484
    1Sil    Sib 1412   2.748   0.646  10.482  0.3134  0.2726  0.3989
    1Sil    Sib 1413   2.987   0.704  11.565  0.1337 -0.1200  0.1566
    1Sil    Sib 1414   2.390   0.689  12.363 -0.4237 -0.1236  0.1098
    1Sil    Sib 1415   2.686   0.643  11.965 -0.3301  0.0078 -0.0317
    1Sil    Sib 1416   2.230   0.940  11.993  0.2432  0.0249 -0.2336
    1Sil    Sib 1417   2.776   0.950  12.408 -0.0050  0.1153 -0.3915
    1Sil    Sib 1418   2.535   0.897  11.604  0.4940 -0.8060  0.0684
    1Sil    Sim 1419   2.491   0.946  12.501 -0.0186  0.3443  0.0820
    1Sil    Sib 1420   2.251   0.948  11.697  0.6699 -0.5168 -0.3550
    1Sil    Sib 1421   2.790   0.882  12.106  0.3302  0.0955 -0.1626
    1Sil    Sib 1422   2.399   0.691  12.058 -0.0653  0.2950 -0.1163
    1Sil    Sim 1423   2.940   0.690  12.462 -0.3728  0.0036  0.0572
    1Sil    Sib 1424   2.695   0.648  11.661  0.2338 -0.4398  0.1658
    1Sil    Sim 1425   3.033   1.181  10.375 -0.0220  0.3555 -0.1158
    1Sil    Sib 1426   2.450   1.198  11.171  0.0964 -0.1781  0.4477
    1Sil    Sib 1427   2.738   1.147  10.774  0.2667  0.4244  0.3480
    1Sil    Sib 1428   2.298   1.434  10.799  0.2981 -0.1281  0.6618
    1Sil    Sib 1429   2.836   1.446  11.197  0.0859  0.4438 -0.2754
    1Sil    Sim 1430   2.584   1.386  10.391 -0.1894 -0.1690 -0.3898
    1Sil    Sib 1431   2.558   1.439  11.309 -0.1203  0.1025 -0.1435
    1Sil    Sib 1432   2.312   1.448  10.504 -0.4076  0.2487  0.2958
    1Sil    Sib 1433   2.832   1.401  10.904  0.0003  0.3436 -0.0013
    1Sil    Sib 1434   2.453   1.189  10.870 -0.2451 -0.3342  0.0535
    1Sil    Sib 1435   3.004   1.196  11.260  0.0271 -0.6609 -0.3161
    1Sil    Sib 1436   2.740   1.143  10.471 -0.4527  0.5389 -0.3364
    1Sil    Sib 1437   2.984   1.192  11.554 -0.7781  0.2354  0.4250
    1Sil    Sib 1438   2.395   1.191  12.352 -0.2056 -0.0849  0.1680
    1Sil    Sib 1439   2.691   1.130  11.965  0.2699 -0.3892  0.3938
    1Sil    Sib 1440   2.238   1.430  12.001 -0.2531 -0.1566  0.0682
    1Sil    Sib 1441   2.791   1.443  12.394 -0.4140  0.4503  0.4606
    1Sil    Sib 1442   2.538   1.382  11.602  0.1122  0.1475 -0.1536
    1Sil    Sim 1443   2.510   1.432  12.500  0.3176  0.4132  0.4541
    1Sil    Sib 1444   2.254   1.439  11.691  0.1703  0.4063  0.1405
    1Sil    Sib 1445   2.791   1.378  12.098 -0.4008 -0.1270 -0.0887
    1Sil    Sib 1446   2.406   1.179  12.054 -0.0780  0.4365 -0.3397
    1Sil    Sim 1447   2.954   1.197  12.463 -0.5616 -0.2636  0.0132
    1Sil    Sib 1448   2.701   1.138  11.669  0.3280  0.0554  0.0853
    1Sil    Sim 1449   3.046   1.684  10.357 -0.0687 -0.2734 -0.2487
    1Sil    Sib 1450   2.455   1.689  11.167 -0.1504 -0.2281 -0.1498
    1Sil    Sib 1451   2.740   1.643  10.754  0.4809 -0.7427  0.6124
    1Sil    Sib 1452   2.291   1.936  10.815  0.2564 -0.0013  0.3365
    1Sil    Sib 1453   2.836   1.940  11.209  0.0223  0.8041 -0.3144
    1Sil    Sim 1454   2.590   1.882  10.392 -0.0233  0.2756  0.8592
    1Sil    Sib 1455   2.546   1.940  11.308 -0.5392  0.2602 -0.3270
    1Sil    Sib 1456   2.297   1.922  10.505  0.0679  0.3055  0.1413
    1Sil    Sib 1457   2.855   1.888  10.912 -0.0485  0.3286 -0.0574
    1Sil    Sib 1458   2.460   1.686  10.860  0.5443  0.2950  0.1152
    1Sil    Sib 1459   3.000   1.693  11.269 -0.1459  0.0931  0.0524
    1Sil    Sib 1460   2.754   1.628  10.443  0.1366 -0.2622 -0.2625
    1Sil    Sib 1461   2.974   1.691  11.567  0.0423  0.1259  0.1975
    1Sil    Sib 1462   2.390   1.676  12.363  0.3480 -0.1031 -0.0529
    1Sil    Sib 1463   2.682   1.630  11.962  0.0367 -0.6871  0.0745
    1Sil    Sib 1464   2.239   1.940  12.007  0.0314  0.2706  0.1779
    1Sil    Sib 1465   2.770   1.936  12.384 -0.0332  0.3614  0.2908
    1Sil    Sib 1466   2.539   1.879  11.607 -0.3521 -0.6473  0.3217
    1Sil    Sim 1467   2.494   1.935  12.497  0.3429 -0.0256 -0.4054
    1Sil    Sib 1468   2.261   1.941  11.705  0.3223  0.1852  0.0388
    1Sil    Sib 1469   2.787   1.881  12.093 -0.1830 -0.6082 -0.2506
    1Sil    Sib 1470   2.401   1.680  12.064 -0.0765  0.3781 -0.3497
    1Sil    Sim 1471   2.942   1.691  12.452  0.4006 -0.1101  0.2348
    1Sil    Sib 1472   2.697   1.632  11.658 -0.5805 -0.2214  0.1304
    1Sil    Sim 1473   3.031   2.174  10.369  0.3564  0.0965 -0.7679
    1Sil    Sib 1474   2.451   2.189  11.174  0.3202 -0.0452 -0.2130
    1Sil    Sib 1475   2.739   2.135  10.781  0.0950 -0.1807  0.0901
    1Sil    Sib 1476   2.292   2.430  10.812 -0.1184 -0.0314  0.3566
    1Sil    Sib 1477   2.829   2.429  11.214  0.3180 -0.3991  0.0573
    1Sil    Sim 1478   2.583   2.363  10.412 -0.6155 -0.5365  0.3538
    1Sil    Sib 1479   2.546   2.436  11.313  0.1208 -0.0896 -0.1731
    1Sil    Sib 1480   2.301   2.422  10.511  0.1323  0.0190 -0.4916
    1Sil    Sib 1481   2.836   2.387  10.916 -0.0102  0.0319  0.1633
    1Sil    Sib 1482   2.463   2.179  10.872  0.0150 -0.2146 -0.0728
    1Sil    Sib 1483   2.995   2.180  11.265  0.0583 -0.1202  0.2615
    1Sil    Sib 1484   2.753   2.120  10.483  0.2690 -0.1009 -0.0981
    1Sil    Sib 1485   2.981   2.176  11.560 -0.0793  0.2906  0.0311
    1Sil    Sib 1486   2.382   2.188  12.361 -0.5988 -0.2489 -0.2464
    1Sil    Sib 1487   2.682   2.118  11.957 -0.0124  0.1034  0.0855
    1Sil    Sib 1488   2.235   2.421  12.000  0.1315  0.0464  0.2516
    1Sil    Sib 1489   2.763   2.421  12.395 -0.3677  0.2955  0.0948
    1Sil    Sib 1490   2.529   2.369  11.609 -0.3677  0.3556  0.1183
    1Sil    Sim 1491   2.489   2.421  12.508  0.5655  0.3151  0.3079
    1Sil    Sib 1492   2.250   2.422  11.713  0.0175  0.4844  0.3268
    1Sil    Sib 1493   2.786   2.363  12.092  0.3910 -0.2811 -0.1627
    1Sil    Sib 1494   2.401   2.182  12.064  0.4213  0.8098  0.5257
    1Sil    Sim 1495   2.929   2.188  12.450 -0.0581  0.0202  0.0792
    1Sil    Sib 1496   2.701   2.125  11.656  0.0179 -0.2166 -0.3249
    1Sil    Sim 1497   3.032   2.669  10.367 -0.6762 -0.2127 -0.2342
    1Sil    Sib 1498   2.447   2.678  11.165 -0.2383  0.1340  0.2091
    1Sil    Sib 1499   2.739   2.635  10.772 -0.0124 -0.2725  0.0019
    1Sil    Sib 1500   2.284   2.927  10.797  0.3808 -0.1935  0.2297
    1Sil    Sib 1501   2.821   2.930  11.206 -0.7528  0.3152  0.0216
    1Sil    Sim 1502   2.587   2.855  10.407  0.0861  0.4708 -0.2513
    1Sil    Sib 1503   2.540   2.932  11.306 -0.2226  0.0672  0.6116
    1Sil    Sib 1504   2.299   2.912  10.496  0.6337 -0.1103 -0.4376
    1Sil    Sib 1505   2.835   2.882  10.907 -0.1477 -0.0176  0.6593
    1Sil    Sib 1506   2.449   2.677  10.859 -0.2471  0.0364 -0.6095
    1Sil    Sib 1507   2.992   2.684  11.267 -0.3422 -0.4040  0.0230
    1Sil    Sib 1508   2.748   2.607  10.475 -0.1797 -0.2180  0.2263
    1Sil    Sib 1509   2.979   2.674  11.570  0.1407 -0.0653 -0.2192
    1Sil    Sib 1510   2.396   2.670  12.375  0.0382  0.4557  0.1952
    1Sil    Sib 1511   2.681   2.613  11.958 -0.2633  0.0377  0.3412
    1Sil    Sib 1512   2.237   2.926  12.005 -0.2039 -0.2238 -0.4873
    1Sil    Sib 1513   2.778   2.905  12.393 -0.2528 -0.3760  0.5620
    1Sil    Sib 1514   2.521   2.859  11.603 -0.1922  0.0131 -0.6621
    1Sil    Sim 1515   2.494   2.929  12.509  0.1584  0.1438 -0.3888
    1Sil    Sib 1516   2.243   2.913  11.710  0.0096  0.1712  0.2264
    1Sil    Sib 1517   2.783   2.854  12.100  0.0581  0.1812 -0.0524
    1Sil    Sib 1518   2.400   2.670  12.068  0.0792 -0.3845 -0.3297
    1Sil    Sim 1519   2.931   2.661  12.460  0.4224  0.2199  0.3688
    1Sil    Sib 1520   2.692   2.614  11.661 -0.2755 -0.0566 -0.2918
    1Sil    Sim 1521   3.030   3.163  10.375 -0.1938  0.0528  0.1137
    1Sil    Sib 1522   2.438   3.166  11.158  0.1009 -0.3171  0.0697
    1Sil    Sib 1523   2.722   3.124  10.764 -0.0665  0.1543 -0.1035
    1Sil    Sib 1524   2.290   3.423  10.811  0.2761 -0.2350  0.0901
    1Sil    Sib 1525   2.820   3.423  11.205  0.4881  0.4152  0.0569
    1Sil    Sim 1526   2.583   3.359  10.397  0.1307  0.0675  0.1240
    1Sil    Sib 1527   2.534   3.417  11.305 -0.1099  0.5963 -0.1462
    1Sil    Sib 1528   2.304   3.413  10.513 -0.1991  0.6347  0.3953
    1Sil    Sib 1529   2.828   3.365  10.907  0.0236  0.0230 -0.2289
    1Sil    Sib 1530   2.447   3.171  10.867 -0.1110  0.3513  0.2643
    1Sil    Sib 1531   2.981   3.177  11.274  0.0934  0.0030 -0.1954
    1Sil    Sib 1532   2.743   3.114  10.463 -0.0065 -0.4000  0.0523
    1Sil    Sib 1533   2.975   3.162  11.566 -0.3381  0.0493  0.2037
    1Sil    Sib 1534   2.394   3.175  12.365  0.0476  0.2367  0.5347
    1Sil    Sib 1535   2.680   3.097  11.959 -0.1447 -0.2916 -0.1628
    1Sil    Sib 1536   2.239   3.420  12.001 -0.1653 -0.0487 -0.1078
    1Sil    Sib 1537   2.776   3.398  12.380 -0.2551  0.5265  0.1515
    1Sil    Sib 1538   2.527   3.351  11.600 -0.0316 -0.0190  0.1387
    1Sil    Sim 1539   2.501   3.417  12.498 -0.2211 -0.1657 -0.4770
    1Sil    Sib 1540   2.254   3.414  11.702  0.2296 -0.0714 -0.2375
    1Sil    Sib 1541   2.801   3.346  12.092  0.1110  0.0640  0.4679
    1Sil    Sib 1542   2.408   3.170  12.068 -0.0988 -0.1228  0.1932
    1Sil    Sim 1543   2.937   3.152  12.458 -0.4485  0.2054 -0.3913
    1Sil    Sib 1544   2.690   3.104  11.658 -0.2346 -0.0875 -0.0485
    1Sil    Sim 1545   3.025   3.659  10.364 -0.1845  0.0599  0.0311
    1Sil    Sib 1546   2.433   3.665  11.161 -0.1479  0.9602  0.0603
    1Sil    Sib 1547   2.737   3.616  10.762  0.1480  0.2264 -0.0750
    1Sil    Sib 1548   2.281   0.458  10.808  0.0955  0.1729 -0.0888
    1Sil    Sib 1549   2.824   0.454  11.203  0.5860  0.2925  0.3263
    1Sil    Sim 1550   2.581   0.399  10.413 -0.1227 -0.2156  0.0384
    1Sil    Sib 1551   2.542   0.448  11.297 -0.2227  0.0559  0.5092
    1Sil    Sib 1552   2.294   0.453  10.497  0.3520  0.0011  0.1377
    1Sil    Sib 1553   2.842   0.410  10.910  0.2472  0.2445 -0.1351
    1Sil    Sib 1554   2.451   3.674  10.857  0.1921  0.2611 -0.0249
    1Sil    Sib 1555   2.984   3.669  11.260  0.1138 -0.0868  0.0812
    1Sil    Sib 1556   2.745   3.605  10.464 -0.2699  0.0353 -0.2968
    1Sil    Sib 1557   2.967   3.661  11.563  0.4152  0.0486  0.0888
    1Sil    Sib 1558   2.400   3.662  12.346 -0.4188  0.1703  0.2197
    1Sil    Sib 1559   2.685   3.601  11.959 -0.1307  0.2637  0.4985
    1Sil    Sib 1560   2.236   0.449  11.990  0.0698  0.1151 -0.7327
    1Sil    Sib 1561   2.772   0.447  12.391  0.1368  0.3917  0.0360
    1Sil    Sib 1562   2.527   0.401  11.593 -0.0791 -0.0065 -0.0086
    1Sil    Sim 1563   2.493   0.440  12.502  0.2197 -0.9326 -0.4188
    1Sil    Sib 1564   2.246   0.454  11.689 -0.6054 -0.1591  0.0428
    1Sil    Sib 1565   2.788   0.393  12.096  0.0407  0.0052  0.1991
    1Sil    Sib 1566   2.402   3.660  12.043  0.0152 -0.7291 -0.2504
    1Sil    Sim 1567   2.935   3.649  12.446  0.0150  0.2088  0.0378
    1Sil    Sib 1568   2.694   3.603  11.656 -0.6566 -0.4473 -0.1940
    1Sil    Sim 1569   3.861   0.697  10.368  0.1606 -0.2760 -0.1619
    1Sil    Sib 1570   3.270   0.701  11.160 -0.3246  0.3472  0.0563
    1Sil    Sib 1571   3.577   0.649  10.773 -0.0735 -0.2780  0.3539
    1Sil    Sib 1572   3.126   0.954  10.798 -0.7106  0.1244 -0.3121
    1Sil    Sib 1573   3.657   0.962  11.210  0.3393 -0.1604  0.2498
    1Sil    Sim 1574   3.419   0.886  10.415 -0.5251  0.2248  0.5890
    1Sil    Sib 1575   3.373   0.944  11.301 -0.1108  0.7838 -0.5701
    1Sil    Sib 1576   3.138   0.943  10.510  0.4884  0.1704  0.4387
    1Sil    Sib 1577   3.673   0.901  10.908  0.3326 -0.5773 -0.0474
    1Sil    Sib 1578   3.289   0.697  10.861 -0.1970  0.0688 -0.3569
    1Sil    Sib 1579   3.811   0.709  11.270 -0.2123 -0.1737  0.0358
    1Sil    Sib 1580   3.579   0.645  10.467 -0.0316 -0.1124 -0.7148
    1Sil    Sib 1581   3.805   0.705  11.571  0.1089  0.5650  0.1569
    1Sil    Sib 1582   3.225   0.697  12.368  0.0189  0.0077  0.0397
    1Sil    Sib 1583   3.509   0.631  11.973 -0.2382  0.0236 -0.0382
    1Sil    Sib 1584   3.072   0.937  12.002 -0.0847 -0.2092 -0.7269
    1Sil    Sib 1585   3.612   0.940  12.398 -0.2391 -0.0938 -0.1071
    1Sil    Sib 1586   3.362   0.890  11.596 -0.0714  0.6632  0.2131
    1Sil    Sim 1587   3.329   0.946  12.504  0.4621  0.1347 -0.0469
    1Sil    Sib 1588   3.087   0.951  11.707 -0.3350  0.1778 -0.0043
    1Sil    Sib 1589   3.620   0.875  12.106  0.2204 -0.3111 -0.3778
    1Sil    Sib 1590   3.233   0.687  12.077 -0.1017  0.2424 -0.1557
    1Sil    Sim 1591   3.774   0.701  12.454 -0.0149  0.0006 -0.5789
    1Sil    Sib 1592   3.522   0.646  11.673  0.4991  0.1796  0.8599
    1Sil    Sim 1593   3.863   1.192  10.366  0.1721 -0.1621 -0.2448
    1Sil    Sib 1594   3.276   1.193  11.162  0.5555 -0.0011 -0.0508
    1Sil    Sib 1595   3.570   1.149  10.769  0.1026 -0.7283 -0.1453
    1Sil    Sib 1596   3.119   1.447  10.809 -0.3200  0.3671  0.2119
    1Sil    Sib 1597   3.670   1.454  11.195 -0.4219 -0.1861 -0.2682
    1Sil    Sim 1598   3.417   1.386  10.420 -0.1588 -0.1091  0.0958
    1Sil    Sib 1599   3.389   1.437  11.307 -0.0759 -0.1119 -0.3000
    1Sil    Sib 1600   3.137   1.446  10.506 -0.1049  0.1602 -0.0032
    1Sil    Sib 1601   3.680   1.395  10.904  0.6976  0.0278  0.1063
    1Sil    Sib 1602   3.287   1.199  10.860  0.8649 -0.3420 -0.0806
    1Sil    Sib 1603   3.823   1.204  11.263 -0.3596 -0.4760  0.0007
    1Sil    Sib 1604   3.583   1.134  10.466 -0.2033 -0.1437 -0.0019
    1Sil    Sib 1605   3.806   1.195  11.564 -0.2686  0.4753 -0.4909
    1Sil    Sib 1606   3.230   1.194  12.364  0.8074  0.2475  0.1074
    1Sil    Sib 1607   3.511   1.130  11.958  0.2376  0.1037  0.2501
    1Sil    Sib 1608   3.066   1.438  12.000 -0.2530  0.0651  0.2947
    1Sil    Sib 1609   3.611   1.418  12.400  0.6907 -0.1509 -0.0998
    1Sil    Sib 1610   3.363   1.380  11.606  0.3266 -0.1245  0.0300
    1Sil    Sim 1611   3.336   1.437  12.505  0.0007  0.1691 -0.0111
    1Sil    Sib 1612   3.081   1.442  11.695  0.4161 -0.4981 -0.2713
    1Sil    Sib 1613   3.627   1.380  12.096 -0.1034 -0.0734  0.3132
    1Sil    Sib 1614   3.230   1.190  12.061  0.5761  0.1360 -0.5055
    1Sil    Sim 1615   3.773   1.181  12.456  0.1215 -0.1391  0.1077
    1Sil    Sib 1616   3.519   1.132  11.658  0.0817 -0.1783 -0.1408
    1Sil    Sim 1617   3.860   1.688  10.371  0.2039 -0.4939 -0.0021
    1Sil    Sib 1618   3.279   1.692  11.176  0.2316  0.5325  0.0507
    1Sil    Sib 1619   3.577   1.641  10.766  0.2049 -0.3973  0.0421
    1Sil    Sib 1620   3.131   1.934  10.813  0.0694 -0.2520 -0.0034
    1Sil    Sib 1621   3.662   1.939  11.215  0.0085  0.4147  0.3677
    1Sil    Sim 1622   3.417   1.885  10.412  0.6855 -0.3526 -0.3503
    1Sil    Sib 1623   3.385   1.938  11.308 -0.0501  0.5334 -0.0764
    1Sil    Sib 1624   3.137   1.930  10.517 -0.1993 -0.2440 -0.2384
    1Sil    Sib 1625   3.675   1.892  10.921  0.5444 -0.2737 -0.4362
    1Sil    Sib 1626   3.292   1.685  10.875  0.4168 -0.1252  0.6557
    1Sil    Sib 1627   3.828   1.700  11.273 -0.0095 -0.3044 -0.2826
    1Sil    Sib 1628   3.574   1.635  10.469  0.0188 -0.2216  0.4807
    1Sil    Sib 1629   3.819   1.688  11.561 -0.0073  0.1909 -0.0082
    1Sil    Sib 1630   3.239   1.687  12.370  0.0301  0.4321 -0.0910
    1Sil    Sib 1631   3.518   1.630  11.959  0.2618 -0.2896  0.6332
    1Sil    Sib 1632   3.073   1.932  12.000 -0.2997  0.1550  0.1274
    1Sil    Sib 1633   3.616   1.925  12.400  0.1795  0.4549  0.2478
    1Sil    Sib 1634   3.368   1.871  11.598 -0.2989  0.4790  0.1390
    1Sil    Sim 1635   3.330   1.931  12.504  0.2528  0.3167 -0.2116
    1Sil    Sib 1636   3.089   1.927  11.709  0.2365 -0.4483  0.3220
    1Sil    Sib 1637   3.618   1.869  12.098  0.6753  0.4082 -0.2722
    1Sil    Sib 1638   3.235   1.685  12.069  0.3725 -0.0054 -0.1502
    1Sil    Sim 1639   3.778   1.669  12.466 -0.2736 -0.3335  0.0454
    1Sil    Sib 1640   3.534   1.625  11.662  0.4027  0.5511 -0.0609
    1Sil    Sim 1641   3.860   2.178  10.374 -0.3489 -0.3006 -0.4531
    1Sil    Sib 1642   3.283   2.189  11.167 -0.2682  0.7032 -0.2608
    1Sil    Sib 1643   3.579   2.137  10.772  0.1552  0.0732 -0.0311
    1Sil    Sib 1644   3.122   2.423  10.808 -0.0218  0.0209 -0.0745
    1Sil    Sib 1645   3.662   2.445  11.204  0.1517  0.0692  0.0889
    1Sil    Sim 1646   3.419   2.373  10.405 -0.1536  0.2586  0.1621
    1Sil    Sib 1647   3.374   2.446  11.304  0.3262 -0.0906 -0.1974
    1Sil    Sib 1648   3.134   2.426  10.507 -0.3319  0.3091 -0.1340
    1Sil    Sib 1649   3.673   2.383  10.911  0.1253  0.7964  0.3478
    1Sil    Sib 1650   3.289   2.182  10.871 -0.4235 -0.4299  0.2779
    1Sil    Sib 1651   3.828   2.188  11.262 -0.1491 -0.1290 -0.3683
    1Sil    Sib 1652   3.590   2.129  10.473 -0.2847 -0.1395  0.6810
    1Sil    Sib 1653   3.809   2.175  11.566  0.2614  0.5095 -0.5312
    1Sil    Sib 1654   3.224   2.188  12.363  0.5323  0.3723 -0.0711
    1Sil    Sib 1655   3.511   2.120  11.961 -0.4680 -0.3779 -0.1152
    1Sil    Sib 1656   3.070   2.428  11.999  0.1996 -0.6568 -0.1159
    1Sil    Sib 1657   3.615   2.421  12.388 -0.3684 -0.2970  0.4916
    1Sil    Sib 1658   3.369   2.370  11.596  0.1310  0.3923 -0.1609
    1Sil    Sim 1659   3.339   2.437  12.493  0.6042  0.2875  0.1352
    1Sil    Sib 1660   3.091   2.429  11.698  0.3547  0.3181  0.0467
    1Sil    Sib 1661   3.613   2.369  12.096  0.0025 -0.1561  0.1597
    1Sil    Sib 1662   3.228   2.179  12.063 -0.1626  0.0198 -0.0493
    1Sil    Sim 1663   3.773   2.180  12.450 -0.0604  0.2359  0.2746
    1Sil    Sib 1664   3.530   2.119  11.664  0.6990  0.2351 -0.3282
    1Sil    Sim 1665   3.867   2.687  10.358 -0.0133 -0.3806 -0.3215
    1Sil    Sib 1666   3.272   2.681  11.163  0.4224 -0.4593 -0.5192
    1Sil    Sib 1667   3.571   2.632  10.767  0.1443  0.2196  0.1375
    1Sil    Sib 1668   3.109   2.924  10.821 -0.2460  0.0328  0.3735
    1Sil    Sib 1669   3.651   2.934  11.202 -0.0149 -0.2387  0.1376
    1Sil    Sim 1670   3.413   2.864  10.410  0.3939 -0.3585  0.1780
    1Sil    Sib 1671   3.371   2.937  11.303  0.1010  0.1440  0.4056
    1Sil    Sib 1672   3.129   2.912  10.518  0.0422 -0.2779 -0.0813
    1Sil    Sib 1673   3.673   2.879  10.908  0.1762  0.3330 -0.2002
    1Sil    Sib 1674   3.286   2.675  10.868  0.6604  0.1201  0.2256
    1Sil    Sib 1675   3.826   2.691  11.257 -0.0299  0.2115  0.1058
    1Sil    Sib 1676   3.593   2.618  10.475 -0.0415 -0.4954 -0.3834
    1Sil    Sib 1677   3.812   2.678  11.560  0.0739  0.7022 -0.1484
    1Sil    Sib 1678   3.214   2.671  12.364  0.2505 -0.3663 -0.0479
    1Sil    Sib 1679   3.517   2.616  11.958 -0.0799  0.0361 -0.3157
    1Sil    Sib 1680   3.061   2.910  12.000 -0.2179 -0.0836  0.3314
    1Sil    Sib 1681   3.610   2.907  12.379 -0.5641  0.0831  0.5347
    1Sil    Sib 1682   3.360   2.866  11.598  0.2073 -0.1175  0.2673
    1Sil    Sim 1683   3.339   2.908  12.508  0.5647 -0.3813  0.1123
    1Sil    Sib 1684   3.080   2.916  11.700  0.0971  0.2714 -0.1011
    1Sil    Sib 1685   3.625   2.860  12.089 -0.0905 -0.3274 -0.2811
    1Sil    Sib 1686   3.241   2.675  12.064  0.3002 -0.3895  0.7677
    1Sil    Sim 1687   3.775   2.667  12.444  0.3453 -0.3117  0.2629
    1Sil    Sib 1688   3.532   2.617  11.653  0.1761 -0.5919 -0.6171
    1Sil    Sim 1689   3.853   3.172  10.374  0.0512  0.1950 -0.1989
    1Sil    Sib 1690   3.259   3.183  11.173 -0.3346  0.0066 -0.1368
    1Sil    Sib 1691   3.564   3.117  10.759  0.0779  0.1216  0.1458
    1Sil    Sib 1692   3.114   3.422  10.813 -0.3109 -0.4180 -0.0284
    1Sil    Sib 1693   3.655   3.430  11.195  0.4340 -0.0433  0.1937
    1Sil    Sim 1694   3.406   3.362  10.405 -0.4575  0.2669 -0.7509
    1Sil    Sib 1695   3.371   3.427  11.309  0.3624 -0.4801 -0.0901
    1Sil    Sib 1696   3.130   3.409  10.513  0.0518  0.5177 -0.0721
    1Sil    Sib 1697   3.668   3.371  10.901  0.8060  0.0791 -0.1159
    1Sil    Sib 1698   3.272   3.171  10.869 -0.3607 -0.5152 -0.1677
    1Sil    Sib 1699   3.819   3.181  11.255  0.3122 -0.4273  0.2645
    1Sil    Sib 1700   3.564   3.122  10.461 -0.2634  0.0191  0.5279
    1Sil    Sib 1701   3.809   3.170  11.557  0.0161 -0.0302 -0.2848
    1Sil    Sib 1702   3.222   3.150  12.359  0.3224  0.2481 -0.2096
    1Sil    Sib 1703   3.511   3.103  11.957 -0.0718  0.3718  0.0516
    1Sil    Sib 1704   3.077   3.405  11.999  0.7576  0.1001  0.3019
    1Sil    Sib 1705   3.605   3.414  12.382 -0.3763  0.3862 -0.1356
    1Sil    Sib 1706   3.370   3.362  11.603  0.3480 -0.2856  0.1462
    1Sil    Sim 1707   3.321   3.403  12.494  0.1210  0.1583  0.4800
    1Sil    Sib 1708   3.090   3.411  11.699 -0.0116 -0.3706  0.0799
    1Sil    Sib 1709   3.625   3.351  12.087  0.2456  0.2158  0.2128
    1Sil    Sib 1710   3.228   3.151  12.058 -0.0892  0.1192  0.2841
    1Sil    Sim 1711   3.758   3.163  12.444 -0.4189 -0.2027  0.1063
    1Sil    Sib 1712   3.527   3.110  11.659 -0.1073  0.1503  0.2174
    1Sil    Sim 1713   3.867   3.669  10.370 -0.1588  0.1051 -0.1540
    1Sil    Sib 1714   3.269   3.672  11.174  0.1641 -0.0346  0.4581
    1Sil    Sib 1715   3.564   3.618  10.768  0.0398 -0.0359  0.2346
    1Sil    Sib 1716   3.119   0.456  10.808  0.0262 -0.4674 -0.0624
    1Sil    Sib 1717   3.654   0.457  11.200  0.2791  0.1111  0.4423
    1Sil    Sim 1718   3.412   0.407  10.397  0.3586  0.2025  0.0069
    1Sil    Sib 1719   3.368   0.461  11.305  0.2992 -0.4993  0.3581
    1Sil    Sib 1720   3.126   0.446  10.515 -0.0046  0.1771  0.0565
    1Sil    Sib 1721   3.679   0.402  10.904  0.4994  0.0599 -0.0715
    1Sil    Sib 1722   3.279   3.665  10.877  0.8438 -0.0204 -0.4946
    1Sil    Sib 1723   3.812   3.672  11.258  0.1809 -0.0226  0.3129
    1Sil    Sib 1724   3.575   3.610  10.461 -0.1483 -0.0562  0.0001
    1Sil    Sib 1725   3.820   3.665  11.559 -0.4470  0.2722  0.2017
    1Sil    Sib 1726   3.225   3.662  12.358 -0.1271  0.1604 -0.5302
    1Sil    Sib 1727   3.515   3.597  11.949 -0.2680 -0.1134  0.0492
    1Sil    Sib 1728   3.073   0.436  12.009  0.5016  0.0859  0.4401
    1Sil    Sib 1729   3.610   0.452  12.388  0.2910  0.1444  0.8335
    1Sil    Sib 1730   3.363   0.398  11.602 -0.1958  0.5327 -0.2536
    1Sil    Sim 1731   3.334   0.452  12.509  0.1705  0.0715 -0.6894
    1Sil    Sib 1732   3.080   0.451  11.703  0.3731  0.0594 -0.6254
    1Sil    Sib 1733   3.621   0.384  12.091  0.0435 -0.0511  0.2425
    1Sil    Sib 1734   3.232   3.646  12.055 -0.4390  0.1163 -0.0566
    1Sil    Sim 1735   3.766   3.657  12.462  0.3841  0.0430  0.0464
    1Sil    Sib 1736   3.528   3.608  11.650 -0.0360  0.5108 -0.0846
    1Sil    Sim 1737   4.690   0.713  10.387 -0.6318 -0.4842 -0.1011
    1Sil    Sib 1738   4.100   0.721  11.172  0.2735  0.1552  0.0557
    1Sil    Sib 1739   4.401   0.658  10.781 -0.2510  0.1557  0.4090
    1Sil    Sib 1740   3.949   0.959  10.809 -0.2683  0.0120  0.1770
    1Sil    Sib 1741   4.488   0.965  11.207  0.4582  0.4207  0.0297
    1Sil    Sim 1742   4.251   0.903  10.408 -0.2337 -0.0646  0.2795
    1Sil    Sib 1743   4.209   0.957  11.310 -0.5107  0.2270  0.0088
    1Sil    Sib 1744   3.966   0.946  10.511 -0.1595 -0.4136  0.3488
    1Sil    Sib 1745   4.498   0.917  10.906 -0.6229  0.2283  0.0157
    1Sil    Sib 1746   4.121   0.713  10.875  0.0077 -0.4357 -0.0296
    1Sil    Sib 1747   4.647   0.712  11.263  0.4913  0.1417  0.1229
    1Sil    Sib 1748   4.416   0.661  10.487  0.1523  0.1001 -0.4114
    1Sil    Sib 1749   4.644   0.706  11.564  0.2019 -0.3387  0.2670
    1Sil    Sib 1750   4.059   0.703  12.359  0.3953  0.4959 -0.1942
    1Sil    Sib 1751   4.347   0.648  11.959 -0.4790  0.0928 -0.0686
    1Sil    Sib 1752   3.905   0.939  12.006  0.1116 -0.0714  0.2175
    1Sil    Sib 1753   4.442   0.951  12.408 -0.4060 -0.4167  0.3340
    1Sil    Sib 1754   4.206   0.893  11.599  0.1197  0.5289  0.0732
    1Sil    Sim 1755   4.162   0.941  12.497  0.2060 -0.3713 -0.2088
    1Sil    Sib 1756   3.924   0.951  11.702  0.3469  0.1167  0.1352
    1Sil    Sib 1757   4.458   0.896  12.109 -0.4751 -0.6380 -0.1147
    1Sil    Sib 1758   4.066   0.692  12.065  0.2397 -0.2153 -0.0074
    1Sil    Sim 1759   4.603   0.704  12.472 -0.4186 -0.1200  0.3720
    1Sil    Sib 1760   4.368   0.650  11.654  0.1515 -0.1955  0.0569
    1Sil    Sim 1761   4.697   1.209  10.369 -0.3400  0.4412  0.1298
    1Sil    Sib 1762   4.108   1.199  11.174 -0.2602  0.2658  0.3073
    1Sil    Sib 1763   4.398   1.156  10.763  0.4702 -0.0125 -0.2210
    1Sil    Sib 1764   3.960   1.456  10.811  0.3691  0.0184  0.1832
    1Sil    Sib 1765   4.501   1.460  11.198  0.4720  0.1318  0.6318
    1Sil    Sim 1766   4.262   1.400  10.392  0.1825  0.1351  0.1235
    1Sil    Sib 1767   4.218   1.451  11.304  0.6804  0.0013 -0.3450
    1Sil    Sib 1768   3.974   1.442  10.508  0.5896 -0.0902  0.0851
    1Sil    Sib 1769   4.501   1.404  10.900 -0.4446 -0.1442  0.0275
    1Sil    Sib 1770   4.118   1.204  10.872 -0.0860 -0.1122 -0.1911
    1Sil    Sib 1771   4.660   1.213  11.257  0.0795 -0.4446 -0.4300
    1Sil    Sib 1772   4.412   1.150  10.463 -0.2883 -0.4468 -0.3152
    1Sil    Sib 1773   4.653   1.205  11.560 -0.4201 -0.2944 -0.2459
    1Sil    Sib 1774   4.059   1.197  12.359  0.6648 -0.1582 -0.2859
    1Sil    Sib 1775   4.353   1.134  11.964 -0.5650 -0.0152  0.0446
    1Sil    Sib 1776   3.903   1.430  12.002 -0.2191 -0.1918 -0.5905
    1Sil    Sib 1777   4.441   1.446  12.389  0.2939 -0.1636  0.3123
    1Sil    Sib 1778   4.202   1.391  11.603  0.4245 -0.2295 -0.0716
    1Sil    Sim 1779   4.163   1.442  12.505 -0.6502  0.2524 -0.1029
    1Sil    Sib 1780   3.910   1.443  11.703  0.0035 -0.5939 -0.2427
    1Sil    Sib 1781   4.463   1.384  12.099  0.0340 -0.5857  0.0033
    1Sil    Sib 1782   4.069   1.186  12.063 -0.3400 -0.3746 -0.0989
    1Sil    Sim 1783   4.606   1.204  12.475  0.0888 -0.0682 -0.0627
    1Sil    Sib 1784   4.363   1.143  11.660  0.5103  0.1940 -0.1351
    1Sil    Sim 1785   4.713   1.692  10.375  0.1672 -0.0632 -0.2222
    1Sil    Sib 1786   4.108   1.699  11.162  0.3750  0.0876 -0.2795
    1Sil    Sib 1787   4.405   1.654  10.768  0.1408 -0.1863  0.0943
    1Sil    Sib 1788   3.958   1.943  10.817 -0.0184  0.6155  0.5267
    1Sil    Sib 1789   4.497   1.943  11.220 -0.2963  0.2175  0.0860
    1Sil    Sim 1790   4.255   1.882  10.389 -0.0910 -0.1451 -0.2710
    1Sil    Sib 1791   4.217   1.951  11.309 -0.0073 -0.7623 -0.2724
    1Sil    Sib 1792   3.967   1.932  10.509 -0.3510  0.4533 -0.2731
    1Sil    Sib 1793   4.506   1.896  10.921  0.2919  0.1240  0.1685
    1Sil    Sib 1794   4.121   1.705  10.866 -0.2628 -0.4132 -0.0410
    1Sil    Sib 1795   4.663   1.695  11.272  0.0086  0.4872  0.4131
    1Sil    Sib 1796   4.425   1.641  10.466  0.0313  0.3045  0.1669
    1Sil    Sib 1797   4.652   1.694  11.571 -0.0101 -0.3280 -0.0693
    1Sil    Sib 1798   4.052   1.682  12.363  0.1942  0.0412  0.4058
    1Sil    Sib 1799   4.357   1.634  11.959 -0.5324  0.3949 -0.5158
    1Sil    Sib 1800   3.903   1.923  12.005  0.2029 -0.0808  0.1355
    1Sil    Sib 1801   4.443   1.939  12.382  0.1173  0.6187  0.1434
    1Sil    Sib 1802   4.198   1.886  11.605 -0.3218 -0.1853 -0.7715
    1Sil    Sim 1803   4.165   1.944  12.500 -0.2224  0.1303 -0.0877
    1Sil    Sib 1804   3.915   1.935  11.702 -0.0135 -0.4915  0.6426
    1Sil    Sib 1805   4.447   1.890  12.085 -0.4294  0.4330  0.5541
    1Sil    Sib 1806   4.082   1.676  12.063  0.0365 -0.2743  0.0494
    1Sil    Sim 1807   4.615   1.687  12.448  0.1531 -0.1746 -0.2705
    1Sil    Sib 1808   4.365   1.639  11.662  0.0961 -0.0541 -0.2754
    1Sil    Sim 1809   4.693   2.175  10.364 -0.1149  0.2315  0.2541
    1Sil    Sib 1810   4.112   2.203  11.166  0.0512  0.1013  0.6212
    1Sil    Sib 1811   4.398   2.133  10.771  0.1419 -0.0320 -0.0847
    1Sil    Sib 1812   3.955   2.444  10.820 -0.3018  0.1143  0.3085
    1Sil    Sib 1813   4.494   2.434  11.205  0.4126  0.2938  0.1734
    1Sil    Sim 1814   4.246   2.377  10.418 -0.1533  0.2263 -0.0568
    1Sil    Sib 1815   4.213   2.457  11.304 -0.3563  0.1372 -0.3075
    1Sil    Sib 1816   3.955   2.433  10.522  0.2584 -0.5182  0.1619
    1Sil    Sib 1817   4.511   2.385  10.906  0.1001  0.1589  0.5896
    1Sil    Sib 1818   4.119   2.194  10.864  0.0446 -0.4642 -0.0144
    1Sil    Sib 1819   4.663   2.192  11.265  0.2919 -0.4069 -0.5081
    1Sil    Sib 1820   4.414   2.129  10.466 -0.0095  0.3257 -0.3707
    1Sil    Sib 1821   4.654   2.173  11.569 -0.0981 -0.1692  0.0443
    1Sil    Sib 1822   4.056   2.189  12.360  0.1435 -0.1880 -0.4127
    1Sil    Sib 1823   4.341   2.129  11.950  0.1033  0.4145  0.3444
    1Sil    Sib 1824   3.893   2.420  11.992 -0.1738 -0.2454 -0.0568
    1Sil    Sib 1825   4.444   2.426  12.391 -0.0242  0.1721  0.2161
    1Sil    Sib 1826   4.203   2.384  11.591 -0.0951  0.3724 -0.1737
    1Sil    Sim 1827   4.166   2.439  12.501 -0.1543  0.2641 -0.2408
    1Sil    Sib 1828   3.922   2.424  11.692  0.1385  0.0787  0.1790
    1Sil    Sib 1829   4.449   2.371  12.085 -0.1330 -0.5537 -0.3622
    1Sil    Sib 1830   4.058   2.170  12.061 -0.0522  0.5108 -0.2042
    1Sil    Sim 1831   4.604   2.178  12.475 -0.7086 -0.1645  0.2625
    1Sil    Sib 1832   4.368   2.133  11.652  0.6624 -0.4424 -0.3641
    1Sil    Sim 1833   4.700   2.673  10.359  0.0538 -0.2478  0.1000
    1Sil    Sib 1834   4.113   2.696  11.167  0.2085  0.6041 -0.4999
    1Sil    Sib 1835   4.404   2.632  10.769 -0.3295 -0.1115  0.0691
    1Sil    Sib 1836   3.955   2.932  10.811  0.2053 -0.0652  0.5712
    1Sil    Sib 1837   4.499   2.936  11.208 -0.3678  0.4101 -0.1439
    1Sil    Sim 1838   4.246   2.875  10.400  0.2726 -0.3503  0.3588
    1Sil    Sib 1839   4.217   2.948  11.306 -0.2283 -0.4195 -0.2177
    1Sil    Sib 1840   3.966   2.926  10.505  0.0129 -0.2412  0.1299
    1Sil    Sib 1841   4.502   2.878  10.909 -0.0028  0.1688  0.0558
    1Sil    Sib 1842   4.120   2.680  10.869  0.0630 -0.4251  0.0222
    1Sil    Sib 1843   4.663   2.681  11.262 -0.0146  0.3389 -0.1907
    1Sil    Sib 1844   4.412   2.631  10.467 -0.3117 -0.2196 -0.0027
    1Sil    Sib 1845   4.652   2.665  11.561 -0.2508 -0.4280 -0.5887
    1Sil    Sib 1846   4.066   2.680  12.356  0.1899  0.0997 -0.0483
    1Sil    Sib 1847   4.348   2.623  11.951  0.1441  0.3067 -0.6024
    1Sil    Sib 1848   3.912   2.915  12.001  0.1900 -0.1919  0.0611
    1Sil    Sib 1849   4.435   2.919  12.391  0.3264 -0.2358  0.0515
    1Sil    Sib 1850   4.209   2.880  11.600  0.0828 -0.2049  0.4055
    1Sil    Sim 1851   4.161   2.926  12.503 -0.1837 -0.0921  0.4120
    1Sil    Sib 1852   3.924   2.924  11.705 -0.4724 -0.2922 -0.3282
    1Sil    Sib 1853   4.455   2.861  12.094  0.3291  0.1608  0.2334
    1Sil    Sib 1854   4.069   2.662  12.060  0.0566 -0.4030  0.1365
    1Sil    Sim 1855   4.604   2.673  12.463  0.2191  0.1945 -0.0244
    1Sil    Sib 1856   4.369   2.629  11.660 -0.1143  0.2731  0.3487
    1Sil    Sim 1857   4.699   3.170  10.372  0.2441 -0.5630 -0.3053
    1Sil    Sib 1858   4.097   3.178  11.164 -0.1267  0.1864  0.2165
    1Sil    Sib 1859   4.394   3.119  10.775  0.0168  0.1168 -0.4832
    1Sil    Sib 1860   3.945   3.431  10.816 -0.0189 -0.3097 -0.1341
    1Sil    Sib 1861   4.489   3.425  11.212  0.3123 -0.5561  0.1105
    1Sil    Sim 1862   4.248   3.365  10.412 -0.3631 -0.4148 -0.0465
    1Sil    Sib 1863   4.198   3.430  11.305 -0.5971 -0.0554 -0.0272
    1Sil    Sib 1864   3.967   3.421  10.517  0.3529  0.1288  0.5024
    1Sil    Sib 1865   4.510   3.364  10.912 -0.2970  0.0564 -0.2057
    1Sil    Sib 1866   4.112   3.179  10.866 -0.2888  0.0982 -0.1686
    1Sil    Sib 1867   4.665   3.183  11.266  0.2711 -0.1920  0.0373
    1Sil    Sib 1868   4.425   3.117  10.474  0.2393 -0.1805 -0.4508
    1Sil    Sib 1869   4.664   3.169  11.562 -0.2499  0.5370 -0.1754
    1Sil    Sib 1870   4.050   3.165  12.360 -0.6540  0.0280 -0.2405
    1Sil    Sib 1871   4.356   3.114  11.954 -0.1960  0.2136 -0.4139
    1Sil    Sib 1872   3.909   3.403  12.001  0.0348 -0.6095  0.7657
    1Sil    Sib 1873   4.433   3.424  12.394  0.0959  0.4144  0.3519
    1Sil    Sib 1874   4.200   3.368  11.605  0.1004  0.3166 -0.0900
    1Sil    Sim 1875   4.145   3.420  12.504 -0.4439  0.2245  0.0821
    1Sil    Sib 1876   3.917   3.421  11.701  0.1246 -0.3650  0.1717
    1Sil    Sib 1877   4.456   3.359  12.101 -0.2259 -0.3810 -0.1931
    1Sil    Sib 1878   4.070   3.158  12.059 -0.0203 -0.1254 -0.1731
    1Sil    Sim 1879   4.600   3.178  12.457 -0.2349 -0.2397 -0.0447
    1Sil    Sib 1880   4.376   3.123  11.658  0.1455  0.4554 -0.4290
    1Sil    Sim 1881   4.678   3.665  10.366  0.6225 -0.0090 -0.1085
    1Sil    Sib 1882   4.094   3.675  11.165  0.0377  0.2229 -0.3769
    1Sil    Sib 1883   4.400   3.613  10.768  0.0798 -0.3651  0.2018
    1Sil    Sib 1884   3.951   0.467  10.821  0.0434 -0.1982 -0.4106
    1Sil    Sib 1885   4.483   0.468  11.203  0.6632  0.2861  0.0809
    1Sil    Sim 1886   4.250   0.417  10.411 -0.0651  0.0799  0.0701
    1Sil    Sib 1887   4.198   0.465  11.306  0.0218 -0.1355 -0.2361
    1Sil    Sib 1888   3.965   0.464  10.521  0.7093 -0.8220  0.2787
    1Sil    Sib 1889   4.504   0.408  10.911 -0.1674 -0.0490 -0.0183
    1Sil    Sib 1890   4.116   3.678  10.862 -0.4391 -0.2175 -0.3876
    1Sil    Sib 1891   4.656   3.682  11.263  0.0511  0.0567 -0.0709
    1Sil    Sib 1892   4.409   3.619  10.471 -0.2682 -0.2815  0.1521
    1Sil    Sib 1893   4.639   3.666  11.572  0.2316  0.0262  0.1489
    1Sil    Sib 1894   4.050   3.673  12.379 -0.0920 -0.1595 -0.0306
    1Sil    Sib 1895   4.352   3.618  11.961  0.0191  0.3922  0.2424
    1Sil    Sib 1896   3.903   0.444  12.002  0.1209 -0.4540  0.2582
    1Sil    Sib 1897   4.429   0.465  12.387  0.4777  0.1550  0.1749
    1Sil    Sib 1898   4.195   0.411  11.600  0.1795  0.0134 -0.2125
    1Sil    Sim 1899   4.156   0.462  12.520 -0.0627  0.2887 -0.0204
    1Sil    Sib 1900   3.912   0.457  11.702  0.0503 -0.1295 -0.1180
    1Sil    Sib 1901   4.460   0.407  12.098  0.0131 -0.1016  0.0881
    1Sil    Sib 1902   4.070   3.653  12.075 -0.0788 -0.3499  0.3492
    1Sil    Sim 1903   4.589   3.671  12.462 -0.4908 -0.1362  0.0687
    1Sil    Sib 1904   4.354   3.624  11.664 -0.1123  0.1274 -0.4053
    1Sil    Sim 1905   2.184   0.712  10.361 -0.1054 -0.1901  0.0982
    1Sil    Sib 1906   4.934   0.705  11.159  0.1799  0.1803 -0.0680
    1Sil    Sib 1907   1.889   0.646  10.763 -0.2610 -0.0808  0.3300
    1Sil    Sib 1908   4.787   0.962  10.814 -0.1435 -0.1756  0.2459
    1Sil    Sib 1909   5.321   0.950  11.200  0.1366  0.5742 -0.1339
    1Sil    Sim 1910   5.077   0.895  10.400 -0.1418 -0.2261  0.1039
    1Sil    Sib 1911   5.044   0.953  11.305 -0.0701 -0.1100  0.2759
    1Sil    Sib 1912   4.796   0.961  10.517  0.2449  0.3122 -0.1913
    1Sil    Sib 1913   2.002   0.890  10.902 -0.7257 -0.2914  0.2232
    1Sil    Sib 1914   4.948   0.709  10.857 -0.3282 -0.0575  0.0401
    1Sil    Sib 1915   2.153   0.704  11.251  0.0679 -0.0968  0.3673
    1Sil    Sib 1916   1.904   0.652  10.464  0.3982  0.0909 -0.0490
    1Sil    Sib 1917   2.145   0.700  11.555 -0.3342  0.1598 -0.2267
    1Sil    Sib 1918   4.892   0.705  12.366 -0.3276  0.0010  0.2412
    1Sil    Sib 1919   1.856   0.651  11.953  0.4098 -0.1536 -0.9740
    1Sil    Sib 1920   4.739   0.946  12.002  0.0921 -0.1184  0.2819
    1Sil    Sib 1921   5.293   0.941  12.398  0.1722 -0.3259 -0.3033
    1Sil    Sib 1922   5.036   0.902  11.603  0.0081  0.7980  0.3789
    1Sil    Sim 1923   5.005   0.953  12.509 -0.0167 -0.6825 -0.2094
    1Sil    Sib 1924   4.754   0.958  11.702  0.7088 -0.0203  0.1113
    1Sil    Sib 1925   1.958   0.889  12.107  0.0229 -0.0086 -0.1538
    1Sil    Sib 1926   4.905   0.700  12.065 -0.4534 -0.2897 -0.5689
    1Sil    Sim 1927   2.107   0.694  12.459  0.3185  0.1605 -0.0643
    1Sil    Sib 1928   1.862   0.652  11.653  0.1667  0.2669 -0.1618
    1Sil    Sim 1929   2.198   1.201  10.370 -0.3661  0.3712 -0.2198
    1Sil    Sib 1930   4.939   1.200  11.157  0.4733 -0.1329  0.1412
    1Sil    Sib 1931   1.895   1.142  10.763  0.3061  0.4722  0.1889
    1Sil    Sib 1932   4.787   1.455  10.817 -0.3572 -0.4265  0.1311
    1Sil    Sib 1933   5.319   1.449  11.199 -0.4146  0.1063 -0.0144
    1Sil    Sim 1934   5.086   1.391  10.429  0.2117  0.1526 -0.0913
    1Sil    Sib 1935   5.033   1.439  11.299  0.4501 -0.2671  0.0018
    1Sil    Sib 1936   4.808   1.448  10.519  0.5215 -0.0047  0.1941
    1Sil    Sib 1937   2.005   1.392  10.893 -0.1403  0.0055  0.1187
    1Sil    Sib 1938   4.948   1.203  10.863 -0.2138 -0.1711  0.5167
    1Sil    Sib 1939   2.153   1.199  11.261  0.5181 -0.4088 -0.3927
    1Sil    Sib 1940   5.252   1.141  10.464  0.4524  0.2542  0.2772
    1Sil    Sib 1941   2.142   1.193  11.564  0.0032  0.0695 -0.0407
    1Sil    Sib 1942   4.889   1.192  12.382 -0.3563  0.3691  0.4280
    1Sil    Sib 1943   1.845   1.131  11.968  0.1038  0.1652  0.1443
    1Sil    Sib 1944   4.746   1.434  12.015 -0.6939  0.2823 -0.2999
    1Sil    Sib 1945   5.276   1.430  12.400  0.3152  0.3592 -0.4022
    1Sil    Sib 1946   5.034   1.391  11.598 -0.0583  0.3623 -0.4661
    1Sil    Sim 1947   4.994   1.440  12.510  0.1204  0.4123 -0.1108
    1Sil    Sib 1948   4.761   1.445  11.715 -0.2417 -0.6277 -0.1090
    1Sil    Sib 1949   1.951   1.382  12.097  0.3612  0.4293 -0.3590
    1Sil    Sib 1950   4.909   1.189  12.078  0.1094 -0.1379 -0.1738
    1Sil    Sim 1951   2.112   1.194  12.461 -0.1922  0.0133 -0.2737
    1Sil    Sib 1952   5.190   1.146  11.672 -0.2604  0.2087  0.8649
    1Sil    Sim 1953   2.186   1.680  10.368  0.4456 -0.1741  0.2309
    1Sil    Sib 1954   4.945   1.691  11.166  0.4551 -0.0022 -0.0708
    1Sil    Sib 1955   1.899   1.649  10.776  0.6602  0.0594  0.1564
    1Sil    Sib 1956   4.782   1.944  10.816  0.1255 -0.0833 -0.2381
    1Sil    Sib 1957   5.336   1.936  11.210 -0.0799 -0.0792  0.1402
    1Sil    Sim 1958   5.087   1.883  10.421 -0.0479 -0.2850 -0.0566
    1Sil    Sib 1959   5.058   1.942  11.309  0.2318 -0.1639 -0.3062
    1Sil    Sib 1960   4.806   1.937  10.516  0.3581 -0.3479 -0.0078
    1Sil    Sib 1961   2.012   1.885  10.918  0.5381 -0.2538 -0.0318
    1Sil    Sib 1962   4.956   1.700  10.873 -0.3009 -0.0227  0.5500
    1Sil    Sib 1963   2.164   1.684  11.267 -0.0077  0.0362  0.1794
    1Sil    Sib 1964   5.242   1.641  10.484 -0.1384  0.1001  0.5506
    1Sil    Sib 1965   2.149   1.693  11.566 -0.3190 -0.5006 -0.1141
    1Sil    Sib 1966   4.901   1.691  12.368  0.3985 -0.3504  0.3496
    1Sil    Sib 1967   1.853   1.627  11.953 -0.3094  0.2529  0.0267
    1Sil    Sib 1968   4.734   1.938  12.002 -0.1464 -0.0707  0.4274
    1Sil    Sib 1969   5.273   1.928  12.385 -0.1953 -0.2824 -0.2523
    1Sil    Sib 1970   5.045   1.884  11.599 -0.1144 -0.0164 -0.3379
    1Sil    Sim 1971   4.999   1.941  12.508 -0.4143  0.3519  0.0265
    1Sil    Sib 1972   4.769   1.934  11.704  0.1622 -0.3734 -0.2434
    1Sil    Sib 1973   1.944   1.881  12.092  0.1456  0.7443  0.4509
    1Sil    Sib 1974   4.904   1.690  12.069 -0.2815  0.2383  0.5295
    1Sil    Sim 1975   2.107   1.682  12.456  1.1059 -0.0155  0.2432
    1Sil    Sib 1976   5.201   1.634  11.657 -0.3390  0.5638  0.3237
    1Sil    Sim 1977   2.198   2.176  10.370 -0.0961  0.5546  0.0136
    1Sil    Sib 1978   4.943   2.190  11.173  0.1070  0.2031 -0.4561
    1Sil    Sib 1979   1.902   2.133  10.777  0.0132 -0.0154  0.3412
    1Sil    Sib 1980   4.797   2.434  10.805 -0.0927  0.3310 -0.1012
    1Sil    Sib 1981   5.335   2.437  11.204 -0.1817 -0.1337 -0.1453
    1Sil    Sim 1982   5.080   2.369  10.411  0.0720  0.1113 -0.1492
    1Sil    Sib 1983   5.052   2.436  11.305 -0.4884 -0.3047  0.0386
    1Sil    Sib 1984   4.800   2.421  10.507  0.0679 -0.0091  0.1678
    1Sil    Sib 1985   2.009   2.379  10.903  0.1227  0.1866  0.0656
    1Sil    Sib 1986   4.953   2.185  10.870  0.5658  0.0792  0.3359
    1Sil    Sib 1987   2.160   2.185  11.266 -0.0013  0.2662  0.1665
    1Sil    Sib 1988   5.244   2.124  10.483  0.1538  0.1963  0.0840
    1Sil    Sib 1989   2.150   2.180  11.567 -0.2397 -0.1751 -0.5086
    1Sil    Sib 1990   4.889   2.176  12.365  0.1533 -0.5164  0.2188
    1Sil    Sib 1991   1.844   2.124  11.949 -0.2475 -0.4075 -0.4949
    1Sil    Sib 1992   4.733   2.431  11.999 -0.1030  0.1724  0.1382
    1Sil    Sib 1993   5.279   2.422  12.392 -0.2278 -0.1739  0.3546
    1Sil    Sib 1994   5.043   2.367  11.599 -0.7196  0.3682  0.0728
    1Sil    Sim 1995   4.997   2.427  12.502  0.2104 -0.3820 -0.1180
    1Sil    Sib 1996   4.761   2.421  11.701 -0.7531 -0.2404  0.5910
    1Sil    Sib 1997   1.951   2.376  12.085  0.4054 -0.5044  0.7073
    1Sil    Sib 1998   4.897   2.182  12.057 -0.1247  0.2550  0.2557
    1Sil    Sim 1999   2.099   2.169  12.453  0.2338  0.5424  0.2268
    1Sil    Sib 2000   5.208   2.126  11.654  0.3685  0.1216  0.2171
    1Sil    Sim 2001   2.202   2.663  10.364  0.0928  0.3658  0.4098
    1Sil    Sib 2002   4.944   2.676  11.157  0.2786 -0.2785  0.0835
    1Sil    Sib 2003   1.905   2.634  10.770 -0.0424  0.0588 -0.0845
    1Sil    Sib 2004   4.779   2.927  10.802  0.2590  0.3209  0.2536
    1Sil    Sib 2005   5.337   2.930  11.199  0.3973 -0.1702 -0.2226
    1Sil    Sim 2006   5.082   2.857  10.402 -0.3290  0.0582 -0.4060
    1Sil    Sib 2007   5.049   2.927  11.291  0.3642  0.0051 -0.1824
    1Sil    Sib 2008   4.806   2.919  10.501  0.1727 -0.2223 -0.3893
    1Sil    Sib 2009   2.005   2.875  10.908  0.0480 -0.0327  0.8272
    1Sil    Sib 2010   4.951   2.674  10.862 -0.0182  0.4110 -0.5859
    1Sil    Sib 2011   2.167   2.683  11.267  0.2298 -0.2205 -0.0910
    1Sil    Sib 2012   5.258   2.620  10.470 -0.0319 -0.2372 -0.1264
    1Sil    Sib 2013   2.146   2.666  11.571 -0.0527  0.0903 -0.1207
    1Sil    Sib 2014   4.886   2.672  12.364  0.1711  0.6837 -0.3503
    1Sil    Sib 2015   1.847   2.624  11.965  0.4427  0.3887  0.1176
    1Sil    Sib 2016   4.739   2.915  11.997  0.3503 -0.2385 -0.7345
    1Sil    Sib 2017   5.287   2.928  12.387  0.0901  0.1853  0.0448
    1Sil    Sib 2018   5.047   2.866  11.590 -0.1616  0.0551 -0.3340
    1Sil    Sim 2019   5.013   2.916  12.502 -0.2032  0.3944 -0.3099
    1Sil    Sib 2020   4.766   2.919  11.694 -0.6169 -0.1609 -0.4304
    1Sil    Sib 2021   1.953   2.880  12.094 -0.0610  0.0341  0.2542
    1Sil    Sib 2022   4.896   2.674  12.064 -0.3715  0.1753 -0.7149
    1Sil    Sim 2023   2.110   2.663  12.459  0.5749 -0.1722  0.3180
    1Sil    Sib 2024   5.206   2.611  11.665 -0.2490  0.1947 -0.2926
    1Sil    Sim 2025   2.193   3.166  10.361 -0.0639  0.4206  0.1882
    1Sil    Sib 2026   4.940   3.181  11.159 -0.0004 -0.2719  0.1876
    1Sil    Sib 2027   1.901   3.125  10.766 -0.2179 -0.1910 -0.0363
    1Sil    Sib 2028   4.788   3.417  10.808  0.3837 -0.3792  0.4482
    1Sil    Sib 2029   5.324   3.420  11.202  0.1133 -0.2099  0.0157
    1Sil    Sim 2030   5.066   3.348  10.399 -0.0388  0.0281 -0.0577
    1Sil    Sib 2031   5.048   3.422  11.307  0.0113  0.1568 -0.1715
    1Sil    Sib 2032   4.794   3.418  10.511  0.1970  0.2524 -0.0092
    1Sil    Sib 2033   2.008   3.377  10.898 -0.0057 -0.1744  0.0378
    1Sil    Sib 2034   4.950   3.169  10.856  0.0637  0.0067  0.1076
    1Sil    Sib 2035   2.163   3.171  11.267 -0.3136  0.2682 -0.4276
    1Sil    Sib 2036   5.246   3.117  10.470 -0.0531 -0.0120 -0.1213
    1Sil    Sib 2037   2.146   3.164  11.571 -0.2767 -0.0864 -0.0074
    1Sil    Sib 2038   4.899   3.164  12.372  0.3310  0.3116 -0.2338
    1Sil    Sib 2039   1.849   3.123  11.946 -0.3622 -0.3319  0.0500
    1Sil    Sib 2040   4.733   3.420  12.005  0.0907 -0.0882 -0.2195
    1Sil    Sib 2041   5.277   3.409  12.376  0.3423  0.3846  0.1493
    1Sil    Sib 2042   5.026   3.371  11.600 -0.4376 -0.1657  0.1362
    1Sil    Sim 2043   5.005   3.417  12.507  0.1729 -0.0043 -0.0235
    1Sil    Sib 2044   4.742   3.414  11.700 -0.2656 -0.2464  0.2980
    1Sil    Sib 2045   1.953   3.359  12.087 -0.1169 -0.0817  0.3535
    1Sil    Sib 2046   4.906   3.176  12.064  0.1307 -0.1040 -0.3389
    1Sil    Sim 2047   2.113   3.173  12.460  0.0168  0.3907  0.1377
    1Sil    Sib 2048   5.192   3.114  11.647  0.3484 -0.2500 -0.3747
    1Sil    Sim 2049   2.191   3.648  10.363  0.5033 -0.0185  0.0804
    1Sil    Sib 2050   4.938   3.673  11.169  0.1035  0.1852  0.3930
    1Sil    Sib 2051   1.896   3.619  10.756  0.0094 -0.0632  0.3927
    1Sil    Sib 2052   4.794   0.455  10.816 -0.3893 -0.4405 -0.1529
    1Sil    Sib 2053   1.993   0.456  11.207 -0.1544  0.0323  0.1596
    1Sil    Sim 2054   1.737   0.393  10.398  0.0897  0.1262  0.1489
    1Sil    Sib 2055   5.041   0.463  11.301 -0.2952 -0.2017  0.2273
    1Sil    Sib 2056   4.792   0.451  10.515  0.1553  0.0689  0.0394
    1Sil    Sib 2057   1.993   0.407  10.901  0.0068  0.1675  0.5647
    1Sil    Sib 2058   4.951   3.669  10.868  0.0873 -0.2839  0.5242
    1Sil    Sib 2059   2.152   3.668  11.268 -0.0032  0.4588 -0.2045
    1Sil    Sib 2060   5.236   3.597  10.461  0.0269 -0.2998  0.1033
    1Sil    Sib 2061   2.139   3.660  11.560  0.1125  0.1890 -0.3851
    1Sil    Sib 2062   4.885   3.665  12.374  0.4269  0.1648 -0.5493
    1Sil    Sib 2063   1.839   3.608  11.957  0.1062  0.7287 -0.4566
    1Sil    Sib 2064   4.739   0.455  12.008 -0.0063  0.2729 -0.4089
    1Sil    Sib 2065   1.939   0.451  12.387 -0.2595  0.0138  0.0394
    1Sil    Sib 2066   1.699   0.404  11.590 -0.2927 -0.1064 -0.0501
    1Sil    Sim 2067   4.997   0.456  12.512  0.2997 -0.2589  0.1548
    1Sil    Sib 2068   4.754   0.454  11.701  0.1306  0.1592 -0.2716
    1Sil    Sib 2069   1.960   0.397  12.088  0.0806  0.1017  0.3322
    1Sil    Sib 2070   4.901   3.658  12.072  0.4674 -0.3825  0.6123
    1Sil    Sim 2071   2.103   3.654  12.423 -0.2080  0.2648 -0.6520
    1Sil    Sib 2072   5.188   3.617  11.661 -0.3576  0.3101  0.3933
    1Sil     Hm 2073   3.188   0.650  10.238 -0.5271 -1.2334  1.0696
    1Sil     Hm 2074   3.041   0.545  10.209 -2.2201 -0.0666 -0.6337
    1Sil     Hm 2075   3.046   0.717  10.153 -0.2533  0.1143  0.4563
    1Sil     Hm 2076   2.624   0.941  10.203 -2.0347 -0.9621 -2.9373
    1Sil     Hm 2077   2.465   0.867  10.240  0.1740 -0.2740 -0.0532
    1Sil     Hm 2078   2.492   1.033  10.273 -0.8961 -0.6575  0.7092
    1Sil     Hm 2079   2.312   0.910  12.640  0.2101 -1.0875  2.4449
    1Sil     Hm 2080   2.452   0.812  12.678  1.1584 -1.0099 -1.4665
    1Sil     Hm 2081   2.455   0.973  12.740 -0.3689 -2.2809  2.0838
    1Sil     Hm 2082   2.868   0.642  12.658 -0.7940  0.8618 -0.8324
    1Sil     Hm 2083   3.019   0.559  12.626 -0.0050 -0.3446  0.1741
    1Sil     Hm 2084   3.013   0.736  12.657 -2.6328 -0.0970  2.3478
    1Sil     Hm 2085   2.992   1.066  10.183  1.9499 -0.6831 -0.3044
    1Sil     Hm 2086   3.064   1.228  10.153  0.8013  0.5806  0.6230
    1Sil     Hm 2087   3.166   1.100  10.213 -0.6468 -2.6760 -0.8807
    1Sil     Hm 2088   2.604   1.500  10.178 -0.2214 -0.4928 -1.7151
    1Sil     Hm 2089   2.537   1.341  10.161 -0.7407  0.9394 -0.7199
    1Sil     Hm 2090   2.432   1.467  10.222 -0.5067 -0.5320 -0.1636
    1Sil     Hm 2091   2.527   1.428  12.724  1.5151  0.5050 -2.1264
    1Sil     Hm 2092   2.367   1.451  12.675  2.0843  2.5029  0.8894
    1Sil     Hm 2093   2.444   1.282  12.648 -1.5539 -0.4520 -0.4236
    1Sil     Hm 2094   3.098   1.165  12.661 -0.0503  1.0060  2.0592
    1Sil     Hm 2095   2.930   1.232  12.690 -0.7768  0.9600 -1.0865
    1Sil     Hm 2096   2.956   1.061  12.652  2.1904 -0.3620 -0.6146
    1Sil     Hm 2097   3.215   1.663  10.190 -1.8061  1.2014 -2.7338
    1Sil     Hm 2098   3.089   1.542  10.172  0.0531 -0.5375 -0.7182
    1Sil     Hm 2099   3.058   1.706  10.120 -0.7928  1.4511  0.8113
    1Sil     Hm 2100   2.496   1.885  10.154  0.2061 -0.3799 -1.4109
    1Sil     Hm 2101   2.508   2.044  10.227 -1.0168 -0.2294 -3.2850
    1Sil     Hm 2102   2.657   1.959  10.172 -1.4348  1.8293 -1.5823
    1Sil     Hm 2103   2.536   1.845  12.709  0.7192  1.6360  1.5789
    1Sil     Hm 2104   2.481   2.014  12.710  2.8171  0.4211 -1.6826
    1Sil     Hm 2105   2.360   1.890  12.689  0.9296  0.4031  3.1075
    1Sil     Hm 2106   2.968   1.765  12.673 -0.5806  1.1950 -0.9835
    1Sil     Hm 2107   2.833   1.650  12.667 -0.6013 -0.5206 -1.5231
    1Sil     Hm 2108   2.994   1.589  12.664  0.7278  0.6754 -1.5021
    1Sil     Hm 2109   3.069   2.047  10.192 -0.9308 -0.0897  1.0081
    1Sil     Hm 2110   3.003   2.195  10.143 -1.0962 -2.4232  0.1744
    1Sil     Hm 2111   3.177   2.184  10.197 -1.0137  1.7905 -3.1454
    1Sil     Hm 2112   2.464   2.446  10.217  0.9626 -0.0180 -0.4796
    1Sil     Hm 2113   2.631   2.416  10.163  3.4495  0.5288  2.5872
    1Sil     Hm 2114   2.526   2.279  10.173 -0.0285  0.0063 -0.5109
    1Sil     Hm 2115   2.510   2.450  12.742 -0.6515 -1.6926  1.3966
    1Sil     Hm 2116   2.339   2.416  12.694 -0.5923  0.0760  0.0089
    1Sil     Hm 2117   2.457   2.287  12.702 -2.3419  0.1086 -0.3884
    1Sil     Hm 2118   3.003   2.251  12.652 -1.9357  1.7093 -0.4662
    1Sil     Hm 2119   3.030   2.073  12.619 -2.6931 -3.6340 -3.2169
    1Sil     Hm 2120   2.881   2.119  12.665  0.8610 -0.1342  0.2337
    1Sil     Hm 2121   3.179   2.593  10.219 -0.3104 -1.1893  1.7022
    1Sil     Hm 2122   3.019   2.594  10.146 -1.5534  1.4054  0.9354
    1Sil     Hm 2123   3.099   2.747  10.156 -0.3617  0.6901 -0.0828
    1Sil     Hm 2124   2.633   2.834  10.177 -3.2813 -1.4029 -2.0535
    1Sil     Hm 2125   2.464   2.857  10.212  1.5305 -1.3421 -1.5416
    1Sil     Hm 2126   2.554   2.994  10.215  0.3723 -0.0589 -0.6779
    1Sil     Hm 2127   2.329   2.909  12.682  1.0639 -0.4647  1.0128
    1Sil     Hm 2128   2.479   2.835  12.717 -0.4787 -1.2766 -0.4282
    1Sil     Hm 2129   2.468   3.013  12.733  0.2838  0.1354  0.5194
    1Sil     Hm 2130   2.996   2.538  12.629  0.0893  0.1790  0.6803
    1Sil     Hm 2131   3.045   2.700  12.641 -0.5308  1.3577 -0.4622
    1Sil     Hm 2132   2.878   2.664  12.675  0.8147  1.6005  0.8388
    1Sil     Hm 2133   3.051   3.235  10.171  2.1785  1.7886  1.0252
    1Sil     Hm 2134   3.198   3.157  10.241  0.1693  0.6059  0.7494
    1Sil     Hm 2135   3.056   3.061  10.175 -1.1789  0.7823  0.4065
    1Sil     Hm 2136   2.590   3.310  10.174 -1.6175 -1.4885  0.8842
    1Sil     Hm 2137   2.575   3.480  10.206 -0.9261  1.0506  0.9694
    1Sil     Hm 2138   2.434   3.372  10.235  0.5698 -0.9018  1.0308
    1Sil     Hm 2139   2.352   3.403  12.660  0.3779 -0.4953  2.2672
    1Sil     Hm 2140   2.517   3.330  12.692  2.5800  0.3384 -0.9865
    1Sil     Hm 2141   2.500   3.504  12.700  0.0791 -1.9935  2.6100
    1Sil     Hm 2142   2.925   3.034  12.662 -3.3217  0.6519 -1.3280
    1Sil     Hm 2143   3.053   3.162  12.668 -0.7442  0.0025  0.1859
    1Sil     Hm 2144   2.882   3.209  12.676 -1.0133 -0.2915  0.8020
    1Sil     Hm 2145   3.079   3.532  10.186  2.7265  0.1505  1.9391
    1Sil     Hm 2146   3.031   3.694  10.130  0.6433  0.8566  0.3628
    1Sil     Hm 2147   3.187   3.671  10.190  0.2436  1.5044  0.1376
    1Sil     Hm 2148   2.539   0.337  10.186 -2.8932  0.9967 -1.3414
    1Sil     Hm 2149   2.473   0.501  10.211 -0.1949 -0.9179 -2.9240
    1Sil     Hm 2150   2.650   0.471  10.196 -0.0611  0.0823  1.5365
    1Sil     Hm 2151   2.418   0.296  12.656 -0.9278 -0.1361  0.8940
    1Sil     Hm 2152   2.517   0.431  12.725 -1.0910  1.5554  0.2746
    1Sil     Hm 2153   2.347   0.456  12.667  0.8651  0.7335  0.1047
    1Sil     Hm 2154   3.028   3.521  12.612  0.4504  1.2281 -0.9567
    1Sil     Hm 2155   3.003   3.683  12.673 -2.2236  2.2491 -0.8404
    1Sil     Hm 2156   2.862   3.583  12.653 -0.5910 -2.6868 -0.9285
    1Sil     Hm 2157   3.894   0.566  10.184 -0.7110 -0.4589  3.5293
    1Sil     Hm 2158   4.012   0.692  10.204 -0.1425 -1.0475 -0.3017
    1Sil     Hm 2159   3.848   0.733  10.136 -0.8001 -0.3112  0.4894
    1Sil     Hm 2160   3.452   0.836  10.189  0.6989 -0.5257 -0.3712
    1Sil     Hm 2161   3.286   0.883  10.225 -0.2355  0.4493  1.1343
    1Sil     Hm 2162   3.425   1.000  10.209  2.1823 -0.8144  1.9452
    1Sil     Hm 2163   3.326   0.994  12.739  0.1670 -0.9021  1.1751
    1Sil     Hm 2164   3.185   0.906  12.684  0.6235 -0.2635 -1.3222
    1Sil     Hm 2165   3.332   0.816  12.695  2.0585 -0.3388 -0.3659
    1Sil     Hm 2166   3.780   0.756  12.679 -0.0684 -0.6602  0.8097
    1Sil     Hm 2167   3.752   0.584  12.659 -1.0079  0.6004 -0.2219
    1Sil     Hm 2168   3.914   0.649  12.646  0.2887 -0.6265 -0.0752
    1Sil     Hm 2169   3.818   1.140  10.145  0.5694 -1.8710 -0.5518
    1Sil     Hm 2170   3.961   1.238  10.169 -1.3860  1.5634  1.4741
    1Sil     Hm 2171   3.952   1.060  10.210 -1.3145 -0.4601 -2.1902
    1Sil     Hm 2172   3.291   1.363  10.239  0.3217 -0.6994 -0.0057
    1Sil     Hm 2173   3.368   1.529  10.244 -1.3301 -0.4948  0.6433
    1Sil     Hm 2174   3.457   1.384  10.192  1.2639  1.9836 -0.1286
    1Sil     Hm 2175   3.334   1.316  12.691 -1.5617 -1.4433  0.2228
    1Sil     Hm 2176   3.329   1.489  12.713  0.9098  1.0349 -2.4122
    1Sil     Hm 2177   3.180   1.408  12.658 -0.1593 -0.6132  1.3616
    1Sil     Hm 2178   3.737   1.201  12.685 -0.8629 -0.1869 -1.1135
    1Sil     Hm 2179   3.817   1.045  12.649  2.0685  0.1311  0.8027
    1Sil     Hm 2180   3.908   1.196  12.636  0.7760 -1.0590 -1.5982
    1Sil     Hm 2181   3.871   1.756  10.156  1.0808 -0.1686 -0.9368
    1Sil     Hm 2182   4.020   1.693  10.226 -0.6142 -1.5392  1.8626
    1Sil     Hm 2183   3.897   1.576  10.178 -0.0860 -0.1733  0.0558
    1Sil     Hm 2184   3.456   1.879  10.186 -0.3918  1.8168 -1.1256
    1Sil     Hm 2185   3.281   1.876  10.222 -0.0348  0.0548 -0.8769
    1Sil     Hm 2186   3.378   2.025  10.232  0.9814  0.8531  2.2567
    1Sil     Hm 2187   3.158   1.898  12.650  0.7508  1.9044  1.5893
    1Sil     Hm 2188   3.300   1.787  12.682  0.6114  0.0899 -0.2638
    1Sil     Hm 2189   3.309   1.962  12.725 -0.1633  0.3244 -0.0442
    1Sil     Hm 2190   3.916   1.652  12.666  0.7203 -1.0853 -1.6485
    1Sil     Hm 2191   3.743   1.659  12.701  1.3337  0.8974  0.2808
    1Sil     Hm 2192   3.831   1.508  12.639  0.2594 -0.2000  1.3267
    1Sil     Hm 2193   4.026   2.151  10.204 -0.6355  0.0560 -1.9592
    1Sil     Hm 2194   3.869   2.142  10.138 -0.3270 -1.5325  0.7781
    1Sil     Hm 2195   3.929   2.296  10.176  2.6017 -0.5107 -1.6420
    1Sil     Hm 2196   3.267   2.395  10.227 -0.4891 -1.1270  0.8226
    1Sil     Hm 2197   3.410   2.507  10.218 -0.8239  1.9686  3.2263
    1Sil     Hm 2198   3.428   2.333  10.183  0.1647  1.7101 -1.1854
    1Sil     Hm 2199   3.163   2.408  12.659 -0.9932  3.5705 -0.8199
    1Sil     Hm 2200   3.324   2.351  12.719 -0.6061  0.5966  0.3054
    1Sil     Hm 2201   3.282   2.518  12.712 -2.2285  0.8274 -0.9640
    1Sil     Hm 2202   3.719   2.153  12.676 -1.1312 -1.5959 -1.9634
    1Sil     Hm 2203   3.874   2.234  12.652 -2.0738  1.6713 -0.1282
    1Sil     Hm 2204   3.865   2.061  12.625  2.4116  1.0961 -1.5891
    1Sil     Hm 2205   3.835   2.626  10.135  0.3564 -2.9230  1.2165
    1Sil     Hm 2206   3.972   2.744  10.153 -0.4660 -0.1235 -0.3899
    1Sil     Hm 2207   3.987   2.579  10.196 -0.5978 -0.5376 -3.8052
    1Sil     Hm 2208   3.436   2.971  10.217  0.2023  0.3502  0.3718
    1Sil     Hm 2209   3.387   2.799  10.204 -1.5470  0.7475 -0.6681
    1Sil     Hm 2210   3.262   2.909  10.246  0.3017 -1.5561 -0.1213
    1Sil     Hm 2211   3.240   2.821  12.713 -1.4063  1.0951 -1.2799
    1Sil     Hm 2212   3.410   2.879  12.740  0.8229  3.8629  1.2713
    1Sil     Hm 2213   3.283   2.989  12.727  2.6447  0.6982  0.2908
    1Sil     Hm 2214   3.680   2.661  12.638  0.0382  1.0249 -0.7407
    1Sil     Hm 2215   3.807   2.540  12.625 -3.2018 -0.5057  0.3859
    1Sil     Hm 2216   3.847   2.713  12.662 -0.6608  0.3318  0.6476
    1Sil     Hm 2217   4.016   3.165  10.225  0.1808 -0.1715  2.7257
    1Sil     Hm 2218   3.862   3.245  10.166 -0.2619  0.3264  1.2555
    1Sil     Hm 2219   3.877   3.073  10.177 -0.1600  1.0213 -0.4102
    1Sil     Hm 2220   3.309   3.319  10.175  0.6767 -0.5306 -1.2533
    1Sil     Hm 2221   3.280   3.483  10.242  0.9840  0.0270 -0.7686
    1Sil     Hm 2222   3.434   3.436  10.158 -0.7929 -0.7782 -0.3131
    1Sil     Hm 2223   3.294   3.458  12.722 -1.1186 -1.5819  2.0947
    1Sil     Hm 2224   3.167   3.359  12.659 -0.1667 -0.6506  2.9827
    1Sil     Hm 2225   3.323   3.282  12.690  2.8876  1.2813 -0.5357
    1Sil     Hm 2226   3.816   3.032  12.630  0.6979 -0.5011 -1.1228
    1Sil     Hm 2227   3.876   3.187  12.656  0.5646  0.8557 -0.9322
    1Sil     Hm 2228   3.707   3.166  12.673  0.6749 -1.8399  1.5454
    1Sil     Hm 2229   4.046   3.638  10.207 -0.5981  1.4256  0.0078
    1Sil     Hm 2230   3.905   3.730  10.141  0.3887  0.8682  0.1364
    1Sil     Hm 2231   3.902   3.549  10.168 -0.6886  0.2387  0.1254
    1Sil     Hm 2232   3.448   0.380  10.168  1.4194 -0.8466  2.8649
    1Sil     Hm 2233   3.382   0.544  10.205 -0.6262  0.3415 -0.7631
    1Sil     Hm 2234   3.275   0.406  10.194  0.0668  0.2144  0.2499
    1Sil     Hm 2235   3.230   0.497  12.718  0.1507  2.0594 -2.5978
    1Sil     Hm 2236   3.224   0.327  12.667 -0.3967  0.2458 -0.2881
    1Sil     Hm 2237   3.377   0.393  12.731  0.2284 -0.5606 -0.9572
    1Sil     Hm 2238   3.756   3.733  12.664  2.2248 -0.2198 -0.1007
    1Sil     Hm 2239   3.705   3.563  12.662 -0.0888  0.9453  2.1436
    1Sil     Hm 2240   3.881   3.623  12.645 -0.3949 -1.7628 -1.4854
    1Sil     Hm 2241   4.849   0.689  10.224  0.6290  1.1576  0.4591
    1Sil     Hm 2242   4.696   0.612  10.172 -0.1391 -0.1785  0.9880
    1Sil     Hm 2243   4.714   0.786  10.169  0.9977 -2.2563 -3.0893
    1Sil     Hm 2244   4.137   0.836  10.221  1.2937 -1.6860  1.4896
    1Sil     Hm 2245   4.176   1.008  10.217  0.3877  0.2772  1.0848
    1Sil     Hm 2246   4.306   0.886  10.181  1.5987  0.4962  1.3962
    1Sil     Hm 2247   4.124   0.784  12.672  1.9170  0.0306 -1.0622
    1Sil     Hm 2248   4.112   0.948  12.737  2.5370  2.1074 -3.2131
    1Sil     Hm 2249   3.978   0.895  12.640 -0.2341  0.2581 -3.8839
    1Sil     Hm 2250   4.684   0.573  12.648 -1.1264 -0.2999 -2.8531
    1Sil     Hm 2251   4.697   0.744  12.696 -0.6008 -0.3108  1.5156
    1Sil     Hm 2252   4.547   0.658  12.705 -0.0562 -0.6303 -0.5357
    1Sil     Hm 2253   4.693   1.236  10.136  1.8877 -0.9046 -3.0759
    1Sil     Hm 2254   4.747   1.078  10.198 -1.1260 -0.2592  2.3162
    1Sil     Hm 2255   4.852   1.222  10.211  0.9774 -0.9483  1.3774
    1Sil     Hm 2256   4.132   1.399  10.194  0.3943  1.6348 -1.9168
    1Sil     Hm 2257   4.245   1.534  10.209  2.9371  0.6276  0.8470
    1Sil     Hm 2258   4.307   1.383  10.162 -0.2024  0.5414 -0.2258
    1Sil     Hm 2259   4.013   1.395  12.689 -0.6765 -0.2897 -2.3937
    1Sil     Hm 2260   4.162   1.303  12.688 -1.2166 -0.7788 -0.4288
    1Sil     Hm 2261   4.167   1.481  12.737  0.1524  0.5135 -1.7309
    1Sil     Hm 2262   4.722   1.119  12.642  1.1934  0.9596  0.2831
    1Sil     Hm 2263   4.654   1.281  12.670  0.5370  0.6283  0.2331
    1Sil     Hm 2264   4.549   1.141  12.684  0.8959 -1.6766 -0.8555
    1Sil     Hm 2265   4.869   1.700  10.200 -0.0078 -0.8266 -2.6546
    1Sil     Hm 2266   4.742   1.579  10.182 -0.2236  0.4499  1.6529
    1Sil     Hm 2267   4.711   1.748  10.149  1.7952  0.1942 -0.6596
    1Sil     Hm 2268   4.098   1.938  10.238 -0.2612  0.1812  1.0066
    1Sil     Hm 2269   4.253   2.016  10.211  1.5603  0.5388  3.9020
    1Sil     Hm 2270   4.225   1.841  10.165 -0.3396 -0.1014 -0.2476
    1Sil     Hm 2271   4.163   2.012  12.713  0.0716 -0.8717 -0.2074
    1Sil     Hm 2272   4.033   1.910  12.674  0.1816  0.0622  1.0539
    1Sil     Hm 2273   4.187   1.835  12.700  0.8754 -0.5991 -0.3153
    1Sil     Hm 2274   4.543   1.685  12.663 -1.0667 -1.8908 -1.5132
    1Sil     Hm 2275   4.679   1.573  12.637 -3.8855 -1.8019  2.2089
    1Sil     Hm 2276   4.712   1.751  12.640 -1.4664  0.0292  0.6433
    1Sil     Hm 2277   4.757   2.029  10.205 -0.5155  0.2982 -0.3585
    1Sil     Hm 2278   4.671   2.171  10.141 -1.1884  1.0317  1.4282
    1Sil     Hm 2279   4.833   2.196  10.188  0.6319 -0.1551  1.6147
    1Sil     Hm 2280   4.182   2.519  10.231  1.0651  0.4692  0.1617
    1Sil     Hm 2281   4.111   2.358  10.204 -0.9906  1.1070 -0.6644
    1Sil     Hm 2282   4.290   2.384  10.190  0.3803  0.6877  1.3262
    1Sil     Hm 2283   4.207   2.479  12.717  0.1087  0.6120 -0.7178
    1Sil     Hm 2284   4.117   2.332  12.679 -2.3763  0.2256 -0.2612
    1Sil     Hm 2285   4.038   2.483  12.654 -0.5694 -0.5269 -0.8256
    1Sil     Hm 2286   4.557   2.216  12.694 -0.3632  0.2216 -0.0277
    1Sil     Hm 2287   4.638   2.051  12.658  0.7756  0.9639  1.1173
    1Sil     Hm 2288   4.725   2.207  12.669 -0.3371  0.2981 -1.1136
    1Sil     Hm 2289   4.807   2.552  10.205  2.0351  1.7287  2.4080
    1Sil     Hm 2290   4.663   2.632  10.133 -0.4753 -0.4793  1.1921
    1Sil     Hm 2291   4.807   2.723  10.178  0.2461  0.2710  1.1767
    1Sil     Hm 2292   4.157   2.808  10.192 -0.7347  1.4554 -3.0691
    1Sil     Hm 2293   4.116   2.968  10.233 -0.7134 -0.6169  0.2844
    1Sil     Hm 2294   4.279   2.937  10.171 -2.3377  1.9104 -1.5153
    1Sil     Hm 2295   4.143   3.001  12.703 -0.1407  0.0440 -0.3252
    1Sil     Hm 2296   4.014   2.890  12.664 -0.7105 -0.8183 -1.2036
    1Sil     Hm 2297   4.176   2.827  12.707 -2.7665 -1.6059 -0.8930
    1Sil     Hm 2298   4.552   2.674  12.696 -2.5283 -1.5886 -2.2849
    1Sil     Hm 2299   4.634   2.530  12.655 -0.2901  0.2480  1.4762
    1Sil     Hm 2300   4.732   2.666  12.661  0.0420 -1.6104  0.5568
    1Sil     Hm 2301   4.755   3.061  10.167 -4.0646  0.0356 -0.5533
    1Sil     Hm 2302   4.708   3.229  10.145  1.4498  2.1639  1.3393
    1Sil     Hm 2303   4.863   3.187  10.222 -0.5061 -0.8563  1.3857
    1Sil     Hm 2304   4.213   3.523  10.235  1.8733  0.5116  0.8525
    1Sil     Hm 2305   4.103   3.391  10.216  0.9448 -1.0901 -2.6500
    1Sil     Hm 2306   4.273   3.369  10.173 -1.3530 -0.6343 -0.5523
    1Sil     Hm 2307   4.177   3.431  12.725  0.8754 -0.3877  0.6334
    1Sil     Hm 2308   4.012   3.445  12.674  0.3499 -0.4454  0.8918
    1Sil     Hm 2309   4.091   3.289  12.669  1.0726 -0.2381 -1.1327
    1Sil     Hm 2310   4.732   3.195  12.660 -1.1867  0.0712  1.2712
    1Sil     Hm 2311   4.555   3.203  12.684  0.9220 -0.3055  1.0594
    1Sil     Hm 2312   4.635   3.053  12.668  1.1218 -0.8345 -0.5925
    1Sil     Hm 2313   4.708   3.547  10.181 -0.8452  0.7775 -2.9225
    1Sil     Hm 2314   4.669   3.719  10.150  2.0623 -1.1394 -2.2017
    1Sil     Hm 2315   4.830   3.671  10.202 -0.3390 -1.3168 -0.9685
    1Sil     Hm 2316   4.280   0.371  10.182  0.1867  1.2578 -0.2555
    1Sil     Hm 2317   4.111   0.422  10.212  0.2483  2.5894 -1.3319
    1Sil     Hm 2318   4.235   0.538  10.198 -2.3801 -0.1743 -2.3484
    1Sil     Hm 2319   4.027   0.431  12.716  1.0375  2.1248  1.5277
    1Sil     Hm 2320   4.190   0.357  12.724  0.5702  0.7486  1.4652
    1Sil     Hm 2321   4.170   0.536  12.746  2.3458  1.4665 -2.7129
    1Sil     Hm 2322   4.656   3.571  12.660  1.9438  1.8440  2.5863
    1Sil     Hm 2323   4.682   3.740  12.664  2.2734 -1.3802 -1.7310
    1Sil     Hm 2324   4.517   3.665  12.680  1.3718 -1.8930  2.8701
    1Sil     Hm 2325   2.166   0.686  10.132 -0.4274  1.1652  0.0876
    1Sil     Hm 2326   2.293   0.796  10.170 -0.5200 -1.4506 -2.8350
    1Sil     Hm 2327   2.321   0.628  10.193  0.2613  0.1256 -1.8632
    1Sil     Hm 2328   5.046   0.839  10.166  1.3185  1.9658 -2.1933
    1Sil     Hm 2329   4.913   0.937  10.224 -0.4445  0.8202 -0.3963
    1Sil     Hm 2330   5.072   1.015  10.192  1.6068 -0.5437  0.5557
    1Sil     Hm 2331   5.045   0.974  12.732  0.9392  1.6944 -2.1932
    1Sil     Hm 2332   4.875   0.950  12.686 -0.2307  0.4494 -1.4692
    1Sil     Hm 2333   4.996   0.813  12.682 -2.1841 -0.2278 -0.2534
    1Sil     Hm 2334   2.248   0.661  12.638  0.0008  2.3810  1.3000
    1Sil     Hm 2335   2.091   0.706  12.695  2.1862  1.2087  0.3424
    1Sil     Hm 2336   2.120   0.539  12.640  0.6822  0.1337 -1.7120
    1Sil     Hm 2337   2.233   1.053  10.187  1.1363  0.3206 -0.9111
    1Sil     Hm 2338   2.199   1.221  10.133  0.8920  2.6525  1.8303
    1Sil     Hm 2339   2.358   1.180  10.185 -0.6488  2.1862 -0.7908
    1Sil     Hm 2340   5.080   1.366  10.193 -0.9173 -0.4161  0.2977
    1Sil     Hm 2341   4.930   1.435  10.248  0.3175  1.8054 -3.2723
    1Sil     Hm 2342   5.070   1.540  10.240  0.6015 -0.3021 -0.5575
    1Sil     Hm 2343   4.966   1.305  12.680  2.2241  0.0373 -0.0230
    1Sil     Hm 2344   5.035   1.450  12.740 -1.4499 -0.6240  2.1819
    1Sil     Hm 2345   4.861   1.451  12.692  1.9316  0.8865  2.9793
    1Sil     Hm 2346   2.245   1.174  12.665 -1.1154  1.9063  3.8895
    1Sil     Hm 2347   2.073   1.191  12.708 -0.4562  1.7062 -0.8216
    1Sil     Hm 2348   2.133   1.044  12.647  0.6024  0.6665  0.3989
    1Sil     Hm 2349   2.305   1.763  10.175  0.1527 -0.2886 -1.7192
    1Sil     Hm 2350   2.267   1.589  10.152 -0.6573 -0.4266 -0.7893
    1Sil     Hm 2351   2.138   1.703  10.140 -0.1885 -0.8978 -1.0144
    1Sil     Hm 2352   5.095   2.015  10.221  0.6784  0.1221  0.8865
    1Sil     Hm 2353   5.090   1.844  10.188 -0.5172  1.5933 -1.6101
    1Sil     Hm 2354   4.939   1.921  10.246 -0.2222  0.4655  0.4592
    1Sil     Hm 2355   5.035   1.852  12.706 -1.1307 -1.1130  0.2337
    1Sil     Hm 2356   4.998   2.018  12.715  3.4872 -1.1181 -0.9040
    1Sil     Hm 2357   4.869   1.889  12.692 -0.2806  0.5691  2.3038
    1Sil     Hm 2358   2.203   1.773  12.634 -1.5407  0.6726  1.7859
    1Sil     Hm 2359   2.063   1.672  12.663 -0.7606 -1.1552 -0.0348
    1Sil     Hm 2360   2.213   1.594  12.631 -0.3366  0.7103  0.7111
    1Sil     Hm 2361   2.282   2.061  10.195 -0.3453 -1.2548  1.4626
    1Sil     Hm 2362   2.140   2.157  10.145 -1.1480  1.9878  2.0811
    1Sil     Hm 2363   2.296   2.229  10.166  0.7390 -2.0272 -2.9274
    1Sil     Hm 2364   5.140   2.385  10.195 -1.2935 -0.8697 -1.6929
    1Sil     Hm 2365   4.971   2.349  10.211 -1.2038  0.8892  0.3544
    1Sil     Hm 2366   5.031   2.520  10.244  2.8893 -0.2085 -1.1874
    1Sil     Hm 2367   5.015   2.308  12.687  0.9810  1.8967 -0.0591
    1Sil     Hm 2368   5.004   2.480  12.718  0.5825 -0.1711  0.5622
    1Sil     Hm 2369   4.860   2.396  12.678 -0.6403  1.0722 -0.7376
    1Sil     Hm 2370   2.053   2.050  12.645 -1.8802  1.2095 -2.2825
    1Sil     Hm 2371   2.214   2.126  12.633  0.2626 -0.1841 -1.5217
    1Sil     Hm 2372   2.080   2.225  12.681 -0.9094  0.1280  0.8773
    1Sil     Hm 2373   2.231   2.556  10.168 -0.0349  0.0896 -0.5281
    1Sil     Hm 2374   2.241   2.735  10.152 -1.4586 -0.3484  0.1669
    1Sil     Hm 2375   2.372   2.640  10.223 -0.0272 -1.2438  2.7185
    1Sil     Hm 2376   5.032   2.992  10.233 -0.3108 -0.7042 -0.7084
    1Sil     Hm 2377   5.145   2.868  10.187  0.5506 -1.5635  0.2754
    1Sil     Hm 2378   4.983   2.822  10.184 -1.2562  1.5275  0.0627
    1Sil     Hm 2379   4.998   2.980  12.720 -1.6474 -0.0172  0.9745
    1Sil     Hm 2380   4.869   2.868  12.671  0.2354  2.5382  0.8423
    1Sil     Hm 2381   5.039   2.810  12.700  1.2728  0.6471  0.4741
    1Sil     Hm 2382   2.070   2.748  12.671 -0.2205  0.3905  0.0064
    1Sil     Hm 2383   2.032   2.578  12.647 -1.1208 -0.3098 -2.5290
    1Sil     Hm 2384   2.208   2.631  12.649 -0.8855 -0.1629  1.9897
    1Sil     Hm 2385   2.202   3.054  10.138  0.2135  0.2005 -0.4353
    1Sil     Hm 2386   2.209   3.235  10.123 -1.1074 -2.1375 -1.6832
    1Sil     Hm 2387   2.340   3.146  10.168  0.0203 -1.7111  0.0566
    1Sil     Hm 2388   5.026   3.290  10.175  1.2919 -0.4509 -0.5142
    1Sil     Hm 2389   4.921   3.411  10.240 -0.3997 -2.0404 -0.2608
    1Sil     Hm 2390   5.088   3.449  10.192  1.9499  0.1425  1.4585
    1Sil     Hm 2391   4.961   3.271  12.703 -0.4018 -0.2274 -1.0650
    1Sil     Hm 2392   5.045   3.423  12.742 -0.8164 -1.2420  1.9711
    1Sil     Hm 2393   4.875   3.428  12.706  0.4222  1.2125 -1.5396
    1Sil     Hm 2394   2.159   3.060  12.666  1.0359 -0.9592 -1.3641
    1Sil     Hm 2395   2.254   3.204  12.651  0.0278 -0.9882 -1.0873
    1Sil     Hm 2396   2.085   3.218  12.686  0.6126 -0.0112  1.6147
    1Sil     Hm 2397   2.198   3.667  10.131 -1.3728  0.5503  0.5760
    1Sil     Hm 2398   2.356   3.638  10.197  0.5015  0.1784  1.8985
    1Sil     Hm 2399   2.249   3.506  10.196 -1.5980  0.6975 -1.3198
    1Sil     Hm 2400   1.752   0.518  10.209  0.1030 -0.2187  0.5169
    1Sil     Hm 2401   1.599   0.439  10.225  0.2684  1.1634  0.3155
    1Sil     Hm 2402   1.746   0.342  10.177 -0.8875 -1.1368  0.9452
    1Sil     Hm 2403   4.965   0.324  12.683 -2.2120 -0.2232  0.5270
    1Sil     Hm 2404   5.022   0.482  12.742  0.6897  0.2426 -1.3528
    1Sil     Hm 2405   4.861   0.467  12.701  1.4616  1.5880  1.4200
    1Sil     Hm 2406   2.125   3.725  12.650 -0.6532 -0.2299  0.0741
    1Sil     Hm 2407   2.055   3.568  12.631 -0.7564  1.0373  0.8026
    1Sil     Hm 2408   2.227   3.582  12.604 -0.9885 -1.0445 -0.3780
    2Eth     Ho 2409   3.085   3.379   2.922  0.3355 -0.7330 -0.2324
    2Eth     Oh 2410   3.174   3.352   2.909  0.4949 -0.2949 -0.0798
    2Eth     Co 2411   3.226   3.442   2.807 -0.1384  0.6701 -0.0564
    2Eth    Hco 2412   3.220   3.537   2.861  0.0316  1.3595 -1.2163
    2Eth    Hco 2413   3.175   3.446   2.711 -0.1967 -1.4847 -0.1346
    2Eth     Ch 2414   3.371   3.414   2.775  0.4971  0.1032 -0.0066
    2Eth    Hcc 2415   3.406   3.478   2.694 -1.4087  0.2838 -0.7166
    2Eth    Hcc 2416   3.374   3.314   2.731 -0.9386 -0.5451  1.3122
    2Eth    Hcc 2417   3.437   3.412   2.861 -1.1790 -0.6703  1.2865
    3Eth     Ho 2418   0.217   3.105   1.803 -0.8812  1.3083  0.0990
    3Eth     Oh 2419   0.187   3.090   1.715  0.1607 -0.4134  0.0014
    3Eth     Co 2420   0.195   3.202   1.627 -0.4764  0.7593  0.2060
    3Eth    Hco 2421   0.290   3.246   1.657 -1.4780  2.6456  0.6890
    3Eth    Hco 2422   0.109   3.267   1.644  0.6428  1.8990  1.7310
    3Eth     Ch 2423   0.185   3.160   1.484  0.1965 -0.1038  0.3026
    3Eth    Hcc 2424   0.205   3.253   1.430  4.0395  1.0401  3.4646
    3Eth    Hcc 2425   0.084   3.129   1.459  0.6517 -0.6648 -0.8962
    3Eth    Hcc 2426   0.257   3.079   1.465 -1.3139 -1.6141  0.9135
    4Eth     Ho 2427   0.366   1.030   9.046  0.5176 -0.0230  0.3980
    4Eth     Oh 2428   0.290   1.083   9.064  0.1711 -0.4018  0.0650
    4Eth     Co 2429   0.235   1.017   9.168 -0.2558  0.2206  0.1226
    4Eth    Hco 2430   0.313   1.015   9.244 -0.8394 -1.8262  0.7075
    4Eth    Hco 2431   0.205   0.916   9.141  0.8012 -0.2880  0.8024
    4Eth     Ch 2432   0.114   1.099   9.208  0.7106 -0.0186  0.3694
    4Eth    Hcc 2433   0.143   1.190   9.260 -0.1467  0.8587 -0.6830
    4Eth    Hcc 2434   0.051   1.041   9.275 -0.4458 -0.8047 -1.3599
    4Eth    Hcc 2435   0.061   1.127   9.118 -0.6530 -0.3419  1.0686
    5Eth     Ho 2436   0.657   2.677   4.173  0.0116 -1.9610 -0.4502
    5Eth     Oh 2437   0.570   2.656   4.204  0.0169 -0.7440  0.4292
    5Eth     Co 2438   0.482   2.758   4.166 -0.9487 -0.2156 -0.5496
    5Eth    Hco 2439   0.528   2.855   4.186  0.8998 -0.6995 -2.2409
    5Eth    Hco 2440   0.384   2.758   4.214  0.1014 -0.2078  1.6645
    5Eth     Ch 2441   0.449   2.751   4.015 -0.1451 -0.7176 -0.0368
    5Eth    Hcc 2442   0.404   2.653   3.996 -0.3640 -0.4962 -0.6615
    5Eth    Hcc 2443   0.536   2.775   3.954  0.1914  4.2237  2.1987
    5Eth    Hcc 2444   0.374   2.824   3.985  1.1660  0.3861 -0.6759
    6Eth     Ho 2445   1.511   3.124   9.733 -0.4415 -0.5588  0.6965
    6Eth     Oh 2446   1.532   3.211   9.761 -0.3032 -0.4982  0.3990
    6Eth     Co 2447   1.418   3.283   9.811  0.0536  0.4467  0.9536
    6Eth    Hco 2448   1.351   3.215   9.864  0.3867 -0.7166 -0.0804
    6Eth    Hco 2449   1.366   3.306   9.718  1.8470  1.4356  0.1826
    6Eth     Ch 2450   1.471   3.397   9.900  0.0503 -0.8132  0.5139
    6Eth    Hcc 2451   1.397   3.476   9.911  0.1156 -0.3766 -1.8854
    6Eth    Hcc 2452   1.564   3.441   9.865 -0.0006 -1.2472 -0.1727
    6Eth    Hcc 2453   1.496   3.342   9.991  3.0516 -1.7826 -0.8423
    7Eth     Ho 2454   2.280   1.150   1.906  0.3672 -0.2182 -0.3175
    7Eth     Oh 2455   2.318   1.223   1.861 -0.1645  0.3430  0.1305
    7Eth     Co 2456   2.443   1.241   1.926  1.3398  0.3647  0.1313
    7Eth    Hco 2457   2.481   1.142   1.950 -1.2557 -0.5969  0.4268
    7Eth    Hco 2458   2.417   1.294   2.018 -0.5999 -0.1353 -0.1049
    7Eth     Ch 2459   2.545   1.317   1.834  0.4943 -0.4206 -0.3760
    7Eth    Hcc 2460   2.499   1.415   1.818 -1.4518 -1.0501  1.0931
    7Eth    Hcc 2461   2.552   1.269   1.736  0.4087 -0.6371 -0.2759
    7Eth    Hcc 2462   2.636   1.334   1.890  0.8430  0.9206 -1.3268
    8Eth     Ho 2463   2.136   0.515   2.486  0.6024  1.9272 -1.0499
    8Eth     Oh 2464   2.062   0.485   2.437  0.3018  0.9413 -0.0162
    8Eth     Co 2465   2.032   0.578   2.338  1.1502  0.3297 -0.0548
    8Eth    Hco 2466   2.116   0.590   2.269  0.6447 -0.1315 -0.7628
    8Eth    Hco 2467   2.021   0.680   2.376 -1.0370 -0.0621  0.4327
    8Eth     Ch 2468   1.906   0.547   2.256 -0.3797  0.2475  0.0206
    8Eth    Hcc 2469   1.921   0.456   2.198  2.4313  0.4104  0.4235
    8Eth    Hcc 2470   1.870   0.625   2.188 -3.5891 -0.7617  0.5018
    8Eth    Hcc 2471   1.829   0.514   2.325 -1.6279  2.3700 -0.3137
    9Eth     Ho 2472   2.797   2.365   9.850  1.0225  1.0958 -3.8764
    9Eth     Oh 2473   2.748   2.445   9.863 -0.5828 -0.4699  0.8537
    9Eth     Co 2474   2.839   2.536   9.915  0.2046 -0.2927  0.3883
    9Eth    Hco 2475   2.929   2.524   9.856  1.4502  2.5614  1.6110
    9Eth    Hco 2476   2.869   2.507  10.015 -0.5400 -0.8954  0.4461
    9Eth     Ch 2477   2.765   2.673   9.910  0.5607 -0.4106  0.0677
    9Eth    Hcc 2478   2.747   2.709   9.808 -0.4455  0.6289  0.5967
    9Eth    Hcc 2479   2.825   2.742   9.969  2.7672 -3.3665  1.3758
    9Eth    Hcc 2480   2.667   2.658   9.956  1.2226 -1.9164  1.0065
   10Eth     Ho 2481   0.696   2.590   6.368 -0.5423  0.2815  1.2007
   10Eth     Oh 2482   0.622   2.540   6.339 -0.4537  0.6348  0.3502
   10Eth     Co 2483   0.504   2.589   6.400 -0.4971 -0.0374 -0.7071
   10Eth    Hco 2484   0.483   2.695   6.386 -0.7330 -0.0414 -0.3749
   10Eth    Hco 2485   0.523   2.579   6.507 -0.8938  2.1436 -0.4151
   10Eth     Ch 2486   0.381   2.505   6.378 -0.4661  0.2287  0.9813
   10Eth    Hcc 2487   0.394   2.397   6.375  0.9162  0.3865  1.1860
   10Eth    Hcc 2488   0.355   2.528   6.275  0.5952 -0.7889  0.4738
   10Eth    Hcc 2489   0.295   2.543   6.433 -1.9642 -0.2401 -0.9851
   11Eth     Ho 2490   2.770   3.168   9.653 -0.0125 -1.1051  0.4617
   11Eth     Oh 2491   2.694   3.114   9.666 -0.4308 -0.7995 -0.6214
   11Eth     Co 2492   2.720   3.036   9.780  0.0006 -0.8332 -0.1944
   11Eth    Hco 2493   2.748   3.108   9.857  0.8155 -1.5396  0.1857
   11Eth    Hco 2494   2.807   2.970   9.778  1.8713  1.4793  1.5515
   11Eth     Ch 2495   2.601   2.973   9.838  0.7373  0.4506  0.2012
   11Eth    Hcc 2496   2.632   2.905   9.917 -0.1246 -1.7225 -1.2806
   11Eth    Hcc 2497   2.552   2.908   9.765 -1.2914  1.9746  0.1556
   11Eth    Hcc 2498   2.524   3.044   9.869 -1.0194  0.0163 -2.9761
   12Eth     Ho 2499   2.088   1.304   9.705  1.6076  0.1845  2.2110
   12Eth     Oh 2500   2.021   1.350   9.753 -0.0615 -0.0091  0.1440
   12Eth     Co 2501   2.038   1.317   9.887  0.0485  0.3501 -0.1536
   12Eth    Hco 2502   2.144   1.324   9.912 -0.6977  2.5224  2.5670
   12Eth    Hco 2503   2.008   1.213   9.903 -0.3529  0.7511  1.8357
   12Eth     Ch 2504   1.958   1.409   9.982  0.7996  0.3482 -0.0226
   12Eth    Hcc 2505   1.910   1.488   9.925 -1.9484 -0.3114  1.3141
   12Eth    Hcc 2506   2.007   1.441  10.073  1.7501 -0.0402 -0.3853
   12Eth    Hcc 2507   1.874   1.350  10.018  0.1187  0.9769 -0.5528
   13Eth     Ho 2508   0.065   2.470   8.609  1.6421 -0.6378 -0.4681
   13Eth     Oh 2509   0.029   2.437   8.529  0.0730 -0.2792  0.0561
   13Eth     Co 2510  -0.110   2.430   8.546  0.5930 -0.6591  0.6846
   13Eth    Hco 2511  -0.145   2.533   8.548 -0.5299 -0.9637 -1.8785
   13Eth    Hco 2512  -0.139   2.391   8.644 -1.2765 -1.3887 -0.1248
   13Eth     Ch 2513  -0.176   2.344   8.443  0.0390  0.1432  0.4434
   13Eth    Hcc 2514  -0.256   2.283   8.485  1.6814 -1.2655  1.5740
   13Eth    Hcc 2515  -0.122   2.258   8.406  1.3521 -0.9603  4.6831
   13Eth    Hcc 2516  -0.213   2.406   8.360  0.6233  0.1743  0.2076
   14Eth     Ho 2517   2.167   2.661   9.789  2.8161  0.6109  0.5285
   14Eth     Oh 2518   2.170   2.602   9.862 -0.2902 -0.2102  0.0497
   14Eth     Co 2519   2.201   2.473   9.813 -1.0714  1.3339 -1.0730
   14Eth    Hco 2520   2.201   2.473   9.704  0.3802  1.6300 -1.0817
   14Eth    Hco 2521   2.118   2.412   9.849 -0.5864  1.6723  0.6429
   14Eth     Ch 2522   2.345   2.448   9.861 -0.1753 -0.3956 -0.0845
   14Eth    Hcc 2523   2.362   2.483   9.963 -1.1356 -0.9206  0.2565
   14Eth    Hcc 2524   2.403   2.508   9.791 -1.0106 -0.3256 -0.7286
   14Eth    Hcc 2525   2.387   2.349   9.841  2.5089  1.2098 -2.8090
   15Eth     Ho 2526   0.858   0.741   1.531  1.4309 -2.3525 -1.8857
   15Eth     Oh 2527   0.942   0.750   1.572  0.0980  0.3090  0.3748
   15Eth     Co 2528   1.048   0.769   1.480 -0.0328  0.4396 -0.2284
   15Eth    Hco 2529   1.012   0.839   1.404  1.0661 -0.3620 -1.4941
   15Eth    Hco 2530   1.063   0.675   1.428  0.5377  0.0723  0.5953
   15Eth     Ch 2531   1.172   0.835   1.541 -0.5829  0.5417  0.0149
   15Eth    Hcc 2532   1.215   0.773   1.619 -2.4843  0.6313  1.1843
   15Eth    Hcc 2533   1.163   0.932   1.590  0.7766  1.5091 -1.6004
   15Eth    Hcc 2534   1.244   0.852   1.460  2.6544 -1.5033  2.3667
   16Eth     Ho 2535   0.342   0.331   1.673  1.3444 -0.8396  0.1492
   16Eth     Oh 2536   0.323   0.254   1.622 -0.1422 -0.0257 -0.5791
   16Eth     Co 2537   0.185   0.238   1.626 -0.1080  0.1264  0.1472
   16Eth    Hco 2538   0.124   0.326   1.606 -0.2591 -0.0615 -0.2173
   16Eth    Hco 2539   0.157   0.198   1.724  1.4546  0.6135  0.8078
   16Eth     Ch 2540   0.136   0.127   1.529 -0.6543  0.7428 -0.4466
   16Eth    Hcc 2541   0.142   0.149   1.422 -1.3268 -0.8138 -0.8090
   16Eth    Hcc 2542   0.029   0.124   1.552 -0.3838 -0.3143  0.6852
   16Eth    Hcc 2543   0.181   0.034   1.562  1.4654  1.4615 -1.2456
   17Eth     Ho 2544   0.858   0.009   6.497 -1.4234  1.4840 -1.7933
   17Eth     Oh 2545   0.774   0.021   6.538 -0.7576 -0.5777  0.3079
   17Eth     Co 2546   0.712   0.096   6.435 -0.1093 -0.3890  0.1483
   17Eth    Hco 2547   0.703   0.034   6.345  1.0498 -0.7261  0.2650
   17Eth    Hco 2548   0.782   0.172   6.401 -0.5494 -0.0198  0.0726
   17Eth     Ch 2549   0.570   0.141   6.488 -0.4191  0.4377  1.0749
   17Eth    Hcc 2550   0.514   0.049   6.505  2.3812 -1.1886  1.7394
   17Eth    Hcc 2551   0.513   0.200   6.416  0.2147  1.0822  1.1042
   17Eth    Hcc 2552   0.575   0.181   6.589 -0.5863 -2.4008  2.2648
   18Eth     Ho 2553   2.000   2.984   4.828  2.2854  1.0824  0.8454
   18Eth     Oh 2554   2.003   3.051   4.762 -0.6535  0.4725  0.0113
   18Eth     Co 2555   2.129   3.103   4.778 -0.2182 -0.3403  0.2829
   18Eth    Hco 2556   2.194   3.021   4.746  1.6816  0.7351  1.2364
   18Eth    Hco 2557   2.159   3.131   4.879  0.6228 -1.5164  0.3662
   18Eth     Ch 2558   2.155   3.216   4.683 -0.3518  0.0051  0.0020
   18Eth    Hcc 2559   2.105   3.194   4.589 -0.9586  0.9069  0.1126
   18Eth    Hcc 2560   2.263   3.231   4.670 -0.2099 -0.0635  1.0597
   18Eth    Hcc 2561   2.104   3.309   4.708  0.6664  1.0090 -1.5086
   19Eth     Ho 2562   0.046   2.303   4.365  1.8679 -2.0895  0.1815
   19Eth     Oh 2563   0.105   2.361   4.322 -0.2784  0.4751  0.5945
   19Eth     Co 2564   0.124   2.480   4.398 -0.1829  0.7288  0.1435
   19Eth    Hco 2565   0.200   2.470   4.475  0.1672 -3.7781 -0.6578
   19Eth    Hco 2566   0.034   2.517   4.447 -2.5335  1.5090 -4.3986
   19Eth     Ch 2567   0.159   2.594   4.300 -0.5134  0.1774  0.5743
   19Eth    Hcc 2568   0.175   2.686   4.356  1.4355  1.9411 -2.7732
   19Eth    Hcc 2569   0.074   2.629   4.241  1.0278  3.0211 -0.0372
   19Eth    Hcc 2570   0.246   2.565   4.241  0.2383  0.6354  1.4415
   20Eth     Ho 2571   1.394   2.832   9.782 -2.4482 -0.5281 -3.3702
   20Eth     Oh 2572   1.332   2.796   9.844  0.9725  0.2529  0.7004
   20Eth     Co 2573   1.291   2.891   9.934  0.4456  0.0797 -0.3124
   20Eth    Hco 2574   1.295   2.980   9.871  0.3674  0.7303  0.5959
   20Eth    Hco 2575   1.369   2.898  10.010 -0.8954  0.6010  1.0580
   20Eth     Ch 2576   1.151   2.849   9.988 -0.1188 -0.0819  0.1075
   20Eth    Hcc 2577   1.151   2.770  10.063 -1.5063 -0.1459  0.0540
   20Eth    Hcc 2578   1.075   2.837   9.910  0.5890  3.2900 -1.2061
   20Eth    Hcc 2579   1.124   2.942  10.038 -1.2906  1.1080 -2.6238
   21Eth     Ho 2580   2.064   2.394   8.967 -1.7210 -0.1888  0.5775
   21Eth     Oh 2581   2.104   2.336   9.029 -0.3700 -0.1003 -0.1885
   21Eth     Co 2582   2.078   2.200   8.982 -0.1545  0.0510 -0.2271
   21Eth    Hco 2583   2.176   2.167   8.946 -0.1637 -0.0792 -0.1349
   21Eth    Hco 2584   2.017   2.194   8.892  0.5057  1.0672 -0.7494
   21Eth     Ch 2585   2.029   2.100   9.083  0.4844 -0.2623 -0.5380
   21Eth    Hcc 2586   2.084   2.118   9.176 -0.6444 -2.4502  0.5996
   21Eth    Hcc 2587   2.058   2.000   9.049 -0.6405 -0.5551 -0.6631
   21Eth    Hcc 2588   1.920   2.090   9.088  0.7128 -3.7107 -0.8797
   22Eth     Ho 2589   3.165   2.580   9.640 -2.4569 -1.4072 -0.1865
   22Eth     Oh 2590   3.196   2.524   9.709 -0.3320 -0.0331  0.0265
   22Eth     Co 2591   3.222   2.599   9.828 -0.2616  0.4182 -0.5788
   22Eth    Hco 2592   3.137   2.648   9.877  0.2036  1.3325 -0.6773
   22Eth    Hco 2593   3.299   2.672   9.804 -2.4949  2.6128 -1.3053
   22Eth     Ch 2594   3.280   2.493   9.919  0.2654 -0.3741 -0.1963
   22Eth    Hcc 2595   3.287   2.538  10.018 -0.1474 -1.8947  0.5396
   22Eth    Hcc 2596   3.380   2.468   9.882  0.2752 -0.5197 -0.0708
   22Eth    Hcc 2597   3.223   2.401   9.936 -0.6529  0.2681  0.2434
   23Eth     Ho 2598   0.690   2.784   7.258  1.3714  0.7042 -0.3247
   23Eth     Oh 2599   0.668   2.849   7.195 -0.0030  0.5227 -0.0394
   23Eth     Co 2600   0.595   2.945   7.266 -0.6272 -0.0224  0.2152
   23Eth    Hco 2601   0.660   2.991   7.341 -0.2046  0.0602 -0.1996
   23Eth    Hco 2602   0.513   2.892   7.315 -0.6837 -0.0485  0.0932
   23Eth     Ch 2603   0.528   3.042   7.164  0.0806  0.1971 -0.7824
   23Eth    Hcc 2604   0.478   3.126   7.212 -0.0761  0.0422 -0.6740
   23Eth    Hcc 2605   0.461   2.988   7.097  1.6324 -1.8984 -0.6830
   23Eth    Hcc 2606   0.612   3.087   7.111  0.6654  1.0216  0.8227
   24Eth     Ho 2607   2.678   0.555   9.794 -0.9372 -0.0113 -1.1405
   24Eth     Oh 2608   2.595   0.511   9.785 -0.6263 -1.0434  0.6826
   24Eth     Co 2609   2.491   0.607   9.807 -0.1549 -0.5072 -0.1077
   24Eth    Hco 2610   2.459   0.651   9.712  3.6478  1.1217 -0.7521
   24Eth    Hco 2611   2.534   0.688   9.867 -0.2871 -0.1103 -0.5391
   24Eth     Ch 2612   2.373   0.557   9.889 -0.7607 -0.2367  0.4734
   24Eth    Hcc 2613   2.306   0.515   9.814  0.0588  0.0980 -0.4662
   24Eth    Hcc 2614   2.334   0.649   9.934  0.0700  0.2692  0.1855
   24Eth    Hcc 2615   2.398   0.482   9.964  0.0717  0.2866  0.7320
   25Eth     Ho 2616   1.335   0.528   1.638  0.9746  0.2952  1.8685
   25Eth     Oh 2617   1.420   0.514   1.601  0.2258  0.1740  0.1342
   25Eth     Co 2618   1.505   0.447   1.694 -0.1131  0.3363  0.2731
   25Eth    Hco 2619   1.457   0.351   1.712  0.4349 -0.1050 -0.5618
   25Eth    Hco 2620   1.524   0.499   1.788 -1.8802  0.1087  0.7690
   25Eth     Ch 2621   1.635   0.418   1.623  0.6014  0.0580 -0.5328
   25Eth    Hcc 2622   1.646   0.514   1.573  1.0013 -0.3746 -1.2811
   25Eth    Hcc 2623   1.640   0.332   1.557 -0.4651  0.4489 -1.1260
   25Eth    Hcc 2624   1.717   0.424   1.695  2.3236 -0.4345 -2.4057
   26Eth     Ho 2625   1.489   0.076   1.732  0.4694  0.6832 -1.9609
   26Eth     Oh 2626   1.403   0.079   1.695 -0.2977  0.5485 -0.2120
   26Eth     Co 2627   1.403   0.074   1.559 -0.6838  0.0681 -0.0959
   26Eth    Hco 2628   1.504   0.099   1.527  0.0426  0.0059  2.0853
   26Eth    Hco 2629   1.339   0.153   1.519 -0.9282  0.3344  0.8012
   26Eth     Ch 2630   1.347  -0.057   1.499  0.5495 -0.0963 -0.5708
   26Eth    Hcc 2631   1.257  -0.087   1.552  0.0564 -1.2215 -2.0129
   26Eth    Hcc 2632   1.417  -0.140   1.512 -3.0840 -2.6311  4.3250
   26Eth    Hcc 2633   1.316  -0.048   1.395 -0.6281  0.6175 -0.1729
   27Eth     Ho 2634   0.064   2.220   9.835  1.7715  0.7599 -2.5474
   27Eth     Oh 2635   0.137   2.217   9.894 -0.1449 -0.1569 -0.0943
   27Eth     Co 2636   0.157   2.082   9.932 -0.1534  0.1839 -0.4203
   27Eth    Hco 2637   0.170   2.016   9.846 -1.1744  0.2973 -0.6680
   27Eth    Hco 2638   0.078   2.035   9.990  0.3691  1.5110  1.3989
   27Eth     Ch 2639   0.276   2.070  10.028  0.6015 -0.1791 -0.5975
   27Eth    Hcc 2640   0.359   2.130   9.993 -0.2182  1.6164  0.5018
   27Eth    Hcc 2641   0.300   1.963  10.032  1.6675  0.1223  2.0934
   27Eth    Hcc 2642   0.258   2.119  10.123 -0.9003 -2.5606  0.4060
   28Eth     Ho 2643   3.178   1.688   9.525 -0.4703 -0.4286 -2.8063
   28Eth     Oh 2644   3.231   1.763   9.508  0.2439 -0.3626 -0.5229
   28Eth     Co 2645   3.336   1.771   9.592 -0.2300  0.0010 -0.5940
   28Eth    Hco 2646   3.364   1.677   9.639 -1.5075  0.5033  1.2427
   28Eth    Hco 2647   3.306   1.832   9.678  1.4420  2.7436 -1.8564
   28Eth     Ch 2648   3.458   1.851   9.540 -0.2941 -0.3101 -0.5439
   28Eth    Hcc 2649   3.424   1.944   9.495 -0.2707  1.8210  3.6340
   28Eth    Hcc 2650   3.503   1.790   9.461 -0.5035 -0.6803 -0.3810
   28Eth    Hcc 2651   3.543   1.876   9.603  1.2793 -1.2764 -2.2133
   29Eth     Ho 2652   2.812   3.394   1.733  0.3001  1.5272 -1.3081
   29Eth     Oh 2653   2.875   3.343   1.685  0.0788 -0.1820  0.1736
   29Eth     Co 2654   2.950   3.435   1.605 -0.4975 -0.0749 -0.4771
   29Eth    Hco 2655   3.004   3.507   1.667 -2.0007  0.3269  0.3791
   29Eth    Hco 2656   2.890   3.498   1.540  0.9638  0.1968 -1.5802
   29Eth     Ch 2657   3.048   3.355   1.522  0.0255  0.1814 -0.9830
   29Eth    Hcc 2658   2.989   3.297   1.451  2.4964 -0.1479 -2.8452
   29Eth    Hcc 2659   3.110   3.281   1.572  0.9529  0.6898 -1.3610
   29Eth    Hcc 2660   3.108   3.422   1.460 -0.3862  0.0386 -1.5419
   30Eth     Ho 2661   1.935   0.010   2.294  1.5688 -1.1037 -1.4406
   30Eth     Oh 2662   1.910  -0.071   2.334 -0.2993  0.1102 -0.0461
   30Eth     Co 2663   2.022  -0.113   2.413 -0.1713  0.0006  0.1127
   30Eth    Hco 2664   2.080  -0.031   2.454 -1.4208  0.7105  0.4793
   30Eth    Hco 2665   2.083  -0.169   2.342  0.9408  0.1549  0.9360
   30Eth     Ch 2666   1.985  -0.212   2.528  0.1878  0.0050 -0.2837
   30Eth    Hcc 2667   1.933  -0.163   2.611  1.5262  2.5824 -0.8933
   30Eth    Hcc 2668   2.066  -0.279   2.556 -0.2236 -2.0819 -3.7672
   30Eth    Hcc 2669   1.913  -0.284   2.491 -0.8095  0.7017  0.2868
   31Eth     Ho 2670   3.220   0.277   9.082  1.3583 -0.7727 -0.2653
   31Eth     Oh 2671   3.233   0.344   9.148  0.3545 -0.0616 -0.7777
   31Eth     Co 2672   3.344   0.422   9.102  0.3092  0.3731 -0.3598
   31Eth    Hco 2673   3.372   0.505   9.166 -2.6692 -0.7639  2.6067
   31Eth    Hco 2674   3.340   0.464   9.002  0.9628 -0.2130 -0.6348
   31Eth     Ch 2675   3.464   0.340   9.131  0.1517 -0.5650 -0.2511
   31Eth    Hcc 2676   3.559   0.388   9.108 -0.3087  0.5391  0.1168
   31Eth    Hcc 2677   3.459   0.260   9.056 -2.0889  0.5777 -1.3661
   31Eth    Hcc 2678   3.475   0.301   9.232 -0.0559 -0.1032 -0.0499
   32Eth     Ho 2679   3.044   2.260   9.795  0.1251 -1.0457  0.1932
   32Eth     Oh 2680   2.970   2.265   9.853  0.2284  0.0937  0.2483
   32Eth     Co 2681   2.914   2.139   9.877 -0.7005 -0.0844  0.2298
   32Eth    Hco 2682   2.990   2.074   9.920  0.5299 -0.5143 -2.4705
   32Eth    Hco 2683   2.885   2.088   9.784 -4.0520 -0.2134  1.2744
   32Eth     Ch 2684   2.791   2.152   9.969 -0.6814  0.2602  0.0753
   32Eth    Hcc 2685   2.764   2.055  10.012  1.5847 -0.4861 -0.1166
   32Eth    Hcc 2686   2.712   2.207   9.918  1.1019  1.3838 -1.5340
   32Eth    Hcc 2687   2.822   2.209  10.056 -0.5291 -0.8759  0.7764
   33Eth     Ho 2688   1.938   0.853   4.626 -1.2600 -0.7909 -2.7671
   33Eth     Oh 2689   1.960   0.935   4.586 -0.0712  0.3211  0.0572
   33Eth     Co 2690   1.832   1.002   4.589  0.1800 -1.4370  0.1360
   33Eth    Hco 2691   1.797   1.027   4.689  1.4076  0.6651  0.0827
   33Eth    Hco 2692   1.761   0.929   4.551 -0.6520 -0.7735  0.3877
   33Eth     Ch 2693   1.837   1.118   4.495  1.0283  0.6718  0.3834
   33Eth    Hcc 2694   1.882   1.085   4.401 -0.3196  1.1231 -0.4330
   33Eth    Hcc 2695   1.900   1.201   4.525  1.9147  0.4856 -0.9235
   33Eth    Hcc 2696   1.735   1.155   4.485  0.0673 -1.6809  1.0339
   34Eth     Ho 2697   1.801   1.815   1.734  0.0094  0.2627  0.2931
   34Eth     Oh 2698   1.876   1.863   1.703 -0.0679  0.0298 -0.2587
   34Eth     Co 2699   1.892   1.818   1.574 -0.0139 -0.3187  0.8100
   34Eth    Hco 2700   1.813   1.834   1.500 -0.8448 -0.8129  1.5862
   34Eth    Hco 2701   1.909   1.710   1.583 -0.6169 -0.4606  0.3223
   34Eth     Ch 2702   2.015   1.880   1.509 -0.3646 -0.0929 -0.2891
   34Eth    Hcc 2703   1.998   1.882   1.401 -0.3077  1.4826 -0.2772
   34Eth    Hcc 2704   2.105   1.821   1.518  0.3904  1.1624  0.5731
   34Eth    Hcc 2705   2.040   1.981   1.542  1.8946 -1.0249  0.8788
   35Eth     Ho 2706   2.476   2.561   5.684 -1.3331 -1.4443 -0.0914
   35Eth     Oh 2707   2.497   2.568   5.593 -0.2776 -0.4695  0.2183
   35Eth     Co 2708   2.400   2.484   5.540 -0.5093  0.6690  0.3352
   35Eth    Hco 2709   2.306   2.532   5.567 -1.0412  0.6855 -1.4611
   35Eth    Hco 2710   2.407   2.390   5.594 -1.6643 -0.0643 -0.7518
   35Eth     Ch 2711   2.417   2.470   5.389  0.3294  0.2766  0.7633
   35Eth    Hcc 2712   2.520   2.444   5.365  0.6529  1.1093  1.2263
   35Eth    Hcc 2713   2.398   2.566   5.341  0.6318 -0.3135 -0.5576
   35Eth    Hcc 2714   2.353   2.391   5.350 -0.4939  1.1086  0.4064
   36Eth     Ho 2715   2.992   2.103   7.832 -0.4430 -1.0854  0.5298
   36Eth     Oh 2716   3.007   2.178   7.885  0.2715 -0.9869  0.2060
   36Eth     Co 2717   2.890   2.256   7.863  1.0978  0.2056 -0.3080
   36Eth    Hco 2718   2.822   2.213   7.936 -0.0684  2.4768 -0.0203
   36Eth    Hco 2719   2.839   2.245   7.768 -2.2932 -0.4133  1.4943
   36Eth     Ch 2720   2.927   2.401   7.902 -0.2801 -0.2490 -0.3113
   36Eth    Hcc 2721   2.997   2.446   7.831 -0.3349 -2.7187 -1.9867
   36Eth    Hcc 2722   2.969   2.402   8.003  4.2809 -1.7160 -2.0464
   36Eth    Hcc 2723   2.841   2.468   7.899  0.6917  1.0043 -0.5920
   37Eth     Ho 2724   0.571   2.580   1.787 -1.0868  1.8311 -0.7624
   37Eth     Oh 2725   0.501   2.581   1.849  0.1694 -0.2484  0.7328
   37Eth     Co 2726   0.537   2.519   1.966  0.2093  0.6249  0.8314
   37Eth    Hco 2727   0.644   2.534   1.981  0.2585 -0.9988  2.1998
   37Eth    Hco 2728   0.517   2.414   1.947 -1.4971  0.6245  2.4493
   37Eth     Ch 2729   0.457   2.579   2.078 -0.8537 -0.3427 -0.2531
   37Eth    Hcc 2730   0.482   2.684   2.087 -1.8873 -0.1031 -0.0738
   37Eth    Hcc 2731   0.484   2.535   2.174 -0.0929  2.5355  0.9024
   37Eth    Hcc 2732   0.350   2.561   2.069 -0.4444 -2.7041 -0.7191
   38Eth     Ho 2733   1.054   1.746   7.582 -0.3526 -1.2195 -1.2758
   38Eth     Oh 2734   1.108   1.684   7.628 -0.3397 -0.0564  0.3380
   38Eth     Co 2735   1.020   1.581   7.661 -0.3009  0.3588  0.0113
   38Eth    Hco 2736   1.021   1.514   7.575 -1.3098  1.7400 -1.1145
   38Eth    Hco 2737   0.918   1.616   7.678  0.1773  0.9721  1.6332
   38Eth     Ch 2738   1.070   1.490   7.773 -0.3462 -0.0744 -0.3709
   38Eth    Hcc 2739   1.048   1.537   7.869  0.1481  1.2052 -0.8830
   38Eth    Hcc 2740   1.175   1.471   7.755 -0.1650  3.6396 -3.9076
   38Eth    Hcc 2741   1.014   1.396   7.778 -2.0811  1.0453  2.3168
   39Eth     Ho 2742   0.200   2.659   9.288  1.4488 -0.1590  2.9590
   39Eth     Oh 2743   0.168   2.743   9.316 -0.0825  0.3824 -0.2583
   39Eth     Co 2744   0.277   2.834   9.317 -0.2527 -0.2741 -0.5105
   39Eth    Hco 2745   0.240   2.931   9.282 -3.8870 -0.8327  1.4730
   39Eth    Hco 2746   0.350   2.790   9.249  1.9393 -1.8366  2.7358
   39Eth     Ch 2747   0.339   2.839   9.461 -0.0519  0.0533  0.6502
   39Eth    Hcc 2748   0.403   2.754   9.485  1.3130  0.6758 -0.7110
   39Eth    Hcc 2749   0.273   2.856   9.546  1.1642 -0.5944  1.7385
   39Eth    Hcc 2750   0.407   2.923   9.459 -0.5194  0.4144 -1.6029
   40Eth     Ho 2751   2.617   0.704   6.400 -1.6175 -0.6022  0.1792
   40Eth     Oh 2752   2.613   0.694   6.493  0.0977 -0.1727  0.3205
   40Eth     Co 2753   2.513   0.594   6.512 -0.5648 -0.0822  0.7174
   40Eth    Hco 2754   2.546   0.495   6.481 -0.8465 -0.1817  0.7312
   40Eth    Hco 2755   2.431   0.622   6.446 -0.7969 -1.9161  0.2015
   40Eth     Ch 2756   2.463   0.587   6.656  0.3085  0.0385 -0.2974
   40Eth    Hcc 2757   2.521   0.534   6.732 -0.9386  0.8630  1.2725
   40Eth    Hcc 2758   2.361   0.549   6.642  0.2312 -0.6223  1.8627
   40Eth    Hcc 2759   2.448   0.690   6.688  3.1089 -0.4476  2.8399
   41Eth     Ho 2760   0.313   1.217   1.588 -0.3432 -1.1296 -0.6374
   41Eth     Oh 2761   0.392   1.202   1.540  0.2023 -0.0570 -0.0825
   41Eth     Co 2762   0.454   1.328   1.530 -0.1812  0.1835  0.4137
   41Eth    Hco 2763   0.427   1.401   1.606 -0.0994  0.7533 -0.0931
   41Eth    Hco 2764   0.429   1.377   1.435  0.6746 -0.0477  0.0566
   41Eth     Ch 2765   0.602   1.311   1.528  0.2049 -0.7071  0.1188
   41Eth    Hcc 2766   0.649   1.243   1.457 -0.6022 -1.1138 -0.0294
   41Eth    Hcc 2767   0.645   1.287   1.626 -1.0926  0.5161  1.0033
   41Eth    Hcc 2768   0.638   1.412   1.510  0.6118 -1.0419 -0.9955
   42Eth     Ho 2769   1.524   2.652   3.678  0.6751  0.7440  0.3299
   42Eth     Oh 2770   1.483   2.669   3.595  0.0167 -0.1611  0.4542
   42Eth     Co 2771   1.578   2.671   3.485 -0.3119 -0.1746 -0.3815
   42Eth    Hco 2772   1.669   2.616   3.509  0.0236  0.5245 -0.0451
   42Eth    Hco 2773   1.613   2.771   3.461  3.0736 -0.6547  2.1847
   42Eth     Ch 2774   1.499   2.617   3.362  0.5697  0.7222  0.2327
   42Eth    Hcc 2775   1.491   2.510   3.378  0.0707  0.5686 -0.9591
   42Eth    Hcc 2776   1.560   2.643   3.275 -1.1874  0.3000 -1.1389
   42Eth    Hcc 2777   1.409   2.678   3.358  0.0071 -0.1728 -1.4729
   43Eth     Ho 2778   0.826   3.103   9.734 -0.7311 -0.1902  1.3144
   43Eth     Oh 2779   0.894   3.158   9.769 -0.3762  0.2810 -0.0777
   43Eth     Co 2780   0.914   3.123   9.910  0.2006 -0.2155  0.9235
   43Eth    Hco 2781   0.931   3.016   9.924  3.4686  0.3516  1.6927
   43Eth    Hco 2782   0.826   3.150   9.969  1.1403  1.9671  1.3559
   43Eth     Ch 2783   1.039   3.192   9.977 -0.2223 -0.1391  0.1118
   43Eth    Hcc 2784   1.135   3.151   9.946  0.3023  0.1658  1.2853
   43Eth    Hcc 2785   1.032   3.184  10.086 -0.3385  2.1036  0.2938
   43Eth    Hcc 2786   1.044   3.298   9.951  0.2263 -0.7019 -2.2127
   44Eth     Ho 2787   1.870   1.840   2.844  0.7170 -0.4590 -1.3808
   44Eth     Oh 2788   1.932   1.793   2.897 -0.0104  0.4550  0.3112
   44Eth     Co 2789   2.049   1.866   2.924 -0.6615 -0.4061  0.8196
   44Eth    Hco 2790   2.035   1.966   2.965  0.4390 -0.2173  0.7611
   44Eth    Hco 2791   2.097   1.879   2.827 -1.7796  1.3972  0.4825
   44Eth     Ch 2792   2.126   1.766   3.013 -0.1637 -0.1427  0.5549
   44Eth    Hcc 2793   2.173   1.696   2.944  0.0507  2.2150 -1.7654
   44Eth    Hcc 2794   2.074   1.717   3.096  1.0281 -1.6771  0.4333
   44Eth    Hcc 2795   2.201   1.824   3.065  0.0279 -0.1722  0.3111
   45Eth     Ho 2796   0.612   2.246   2.195 -0.7408 -0.1257 -0.7325
   45Eth     Oh 2797   0.530   2.206   2.218 -0.4347 -0.3448 -0.0276
   45Eth     Co 2798   0.474   2.290   2.310  0.2684 -0.0816  0.1854
   45Eth    Hco 2799   0.535   2.380   2.308  0.4364 -0.2026 -0.2933
   45Eth    Hco 2800   0.499   2.243   2.405  2.2329  0.8651  0.1576
   45Eth     Ch 2801   0.326   2.307   2.283 -0.6532  0.2602  1.1247
   45Eth    Hcc 2802   0.264   2.222   2.311  0.8834 -1.6830 -1.1435
   45Eth    Hcc 2803   0.301   2.320   2.177 -1.3155 -0.0165  1.2457
   45Eth    Hcc 2804   0.294   2.399   2.331  0.0151  1.3131 -0.3870
   46Eth     Ho 2805   2.463   1.939   6.497 -0.6586 -0.4491 -2.1438
   46Eth     Oh 2806   2.417   1.867   6.537  0.1719 -0.2260 -0.7290
   46Eth     Co 2807   2.379   1.911   6.666 -0.8706  0.2281  1.1036
   46Eth    Hco 2808   2.290   1.974   6.657 -0.6851  0.1833 -1.3927
   46Eth    Hco 2809   2.448   1.985   6.704 -1.0518  1.8947 -1.6970
   46Eth     Ch 2810   2.356   1.807   6.767 -0.1615  0.4163 -0.5689
   46Eth    Hcc 2811   2.279   1.735   6.739  0.7584 -0.6666 -0.3583
   46Eth    Hcc 2812   2.350   1.850   6.867  1.1536  0.5862 -0.5595
   46Eth    Hcc 2813   2.442   1.741   6.777 -1.3323 -0.8060  1.9412
   47Eth     Ho 2814   1.624   0.131   8.142 -0.6414 -0.4275 -0.2360
   47Eth     Oh 2815   1.612   0.062   8.079 -0.2562 -0.4798 -0.2518
   47Eth     Co 2816   1.514   0.114   7.986  0.4959  0.0504  0.2072
   47Eth    Hco 2817   1.544   0.215   7.956  0.5698  0.2890  1.0489
   47Eth    Hco 2818   1.426   0.122   8.050  0.4129 -2.3081  0.3964
   47Eth     Ch 2819   1.484   0.015   7.881  0.0152 -0.0232 -0.0049
   47Eth    Hcc 2820   1.384   0.031   7.840 -0.7933  1.7454  2.5390
   47Eth    Hcc 2821   1.492  -0.086   7.921 -0.3602 -0.2644 -0.5262
   47Eth    Hcc 2822   1.551   0.027   7.796 -0.5188  0.3195 -0.3836
   48Eth     Ho 2823   2.696   0.019   9.694 -0.0662 -0.1293  1.4468
   48Eth     Oh 2824   2.760  -0.016   9.754  0.6968  0.1401  0.8035
   48Eth     Co 2825   2.764   0.067   9.874 -0.4734  0.1664 -0.6466
   48Eth    Hco 2826   2.663   0.086   9.911 -1.6517 -2.9786 -2.0126
   48Eth    Hco 2827   2.816   0.161   9.859 -0.9768  0.8704  1.6822
   48Eth     Ch 2828   2.832  -0.014   9.990 -0.1750  0.5439 -0.0716
   48Eth    Hcc 2829   2.930  -0.054   9.966  0.6221  1.6823  1.1922
   48Eth    Hcc 2830   2.764  -0.095  10.019  0.0300  0.8061  1.1757
   48Eth    Hcc 2831   2.837   0.044  10.082  3.1932 -0.6681  0.5793
   49Eth     Ho 2832   0.190   2.196   1.478 -0.6371  0.2451  0.4721
   49Eth     Oh 2833   0.162   2.118   1.523 -0.5392  0.5133  0.9990
   49Eth     Co 2834   0.237   2.010   1.469 -0.1678 -0.1425  0.0636
   49Eth    Hco 2835   0.344   2.014   1.491  0.5283  0.8603 -3.1141
   49Eth    Hco 2836   0.252   2.026   1.362 -1.4791  1.8527  0.1663
   49Eth     Ch 2837   0.191   1.869   1.512  0.3096 -0.0724  0.6090
   49Eth    Hcc 2838   0.095   1.832   1.476  0.6853  1.2812 -1.8983
   49Eth    Hcc 2839   0.204   1.845   1.618  0.8326  1.5579  0.9413
   49Eth    Hcc 2840   0.265   1.798   1.475 -0.1194  1.3529 -3.1828
   50Eth     Ho 2841   1.966   2.717   9.920  0.5101  1.0353 -0.9199
   50Eth     Oh 2842   1.874   2.721   9.903  0.1387 -0.2547  0.6551
   50Eth     Co 2843   1.812   2.642  10.003 -0.0254 -0.1009  0.4853
   50Eth    Hco 2844   1.711   2.683  10.007 -0.2381 -0.6420  0.7193
   50Eth    Hco 2845   1.878   2.647  10.090  1.6773 -0.8193 -0.7436
   50Eth     Ch 2846   1.809   2.499   9.953  0.3808  0.6669  0.1050
   50Eth    Hcc 2847   1.820   2.496   9.844 -0.9643  0.8487 -0.0393
   50Eth    Hcc 2848   1.722   2.445   9.990 -1.0526  1.8807 -1.3805
   50Eth    Hcc 2849   1.897   2.447   9.990  0.7897  0.9973 -0.3968
   51Eth     Ho 2850   2.585   1.397   9.666  0.1917 -1.4034 -2.4754
   51Eth     Oh 2851   2.499   1.435   9.670  0.8014 -0.2175  0.9190
   51Eth     Co 2852   2.466   1.465   9.805 -0.3341 -0.1084  0.5161
   51Eth    Hco 2853   2.551   1.515   9.852  0.7351 -1.3769 -0.0564
   51Eth    Hco 2854   2.466   1.368   9.854  0.3900 -0.6852 -0.6075
   51Eth     Ch 2855   2.326   1.529   9.810 -0.9343  0.1269  0.2117
   51Eth    Hcc 2856   2.247   1.460   9.779  0.3013 -1.1516 -0.1191
   51Eth    Hcc 2857   2.320   1.620   9.750 -1.4334 -0.6448 -0.9187
   51Eth    Hcc 2858   2.305   1.565   9.910  0.3779 -0.2339  0.6280
   52Eth     Ho 2859   1.163   0.031   7.294 -0.6458 -0.4774  0.5047
   52Eth     Oh 2860   1.200   0.078   7.366 -0.3346  0.1425 -0.0546
   52Eth     Co 2861   1.130   0.036   7.485  0.0809  0.4737  0.1071
   52Eth    Hco 2862   1.147  -0.071   7.491  2.0494  0.6464 -1.8512
   52Eth    Hco 2863   1.024   0.050   7.466 -0.0861  1.9079  1.9529
   52Eth     Ch 2864   1.177   0.111   7.613 -0.7207 -0.4771 -1.1634
   52Eth    Hcc 2865   1.284   0.093   7.625 -0.5305  0.2809 -1.7235
   52Eth    Hcc 2866   1.127   0.077   7.704  1.0393  0.2172  0.0837
   52Eth    Hcc 2867   1.160   0.217   7.598 -2.1752 -0.4272  0.6463
   53Eth     Ho 2868   1.290   0.356   5.699 -0.8271 -1.6491 -0.2089
   53Eth     Oh 2869   1.359   0.337   5.638  0.1116  0.1794  0.2416
   53Eth     Co 2870   1.418   0.459   5.606 -0.2570 -0.2904  0.0767
   53Eth    Hco 2871   1.449   0.511   5.696 -0.0835  1.0452 -0.7291
   53Eth    Hco 2872   1.332   0.508   5.560  0.0339  0.7838  0.6596
   53Eth     Ch 2873   1.525   0.452   5.503  0.0036  0.1914  0.4287
   53Eth    Hcc 2874   1.550   0.554   5.473  0.1894 -0.3860 -1.4795
   53Eth    Hcc 2875   1.484   0.408   5.411 -1.7479 -1.3045  1.8846
   53Eth    Hcc 2876   1.621   0.407   5.528 -0.0223  0.7984  1.6127
   54Eth     Ho 2877   1.595   0.974   1.519 -0.5023 -0.4539  1.1093
   54Eth     Oh 2878   1.584   1.065   1.541  0.3668  0.0700 -0.5738
   54Eth     Co 2879   1.449   1.103   1.544  0.1607  0.6751  0.5980
   54Eth    Hco 2880   1.395   1.034   1.609  1.0124 -0.0764  0.5103
   54Eth    Hco 2881   1.419   1.072   1.444  0.7723  1.9803 -0.0063
   54Eth     Ch 2882   1.428   1.253   1.550  0.4242 -0.1691 -0.4114
   54Eth    Hcc 2883   1.454   1.305   1.458  3.2938 -2.1431 -0.7804
   54Eth    Hcc 2884   1.493   1.290   1.630  0.7783 -1.1693 -0.2407
   54Eth    Hcc 2885   1.325   1.274   1.580 -0.0451 -0.2813 -1.9098
   55Eth     Ho 2886   1.492   1.992   7.153  1.0989  2.2242 -0.2972
   55Eth     Oh 2887   1.541   1.972   7.075  0.0644 -0.0193 -0.4075
   55Eth     Co 2888   1.672   1.997   7.125 -0.8307  0.3631  0.4087
   55Eth    Hco 2889   1.745   1.978   7.045  1.9585 -0.5922  3.0808
   55Eth    Hco 2890   1.703   1.929   7.204  0.1327  2.5117  1.9383
   55Eth     Ch 2891   1.677   2.142   7.174 -0.6565  0.3009  0.6984
   55Eth    Hcc 2892   1.767   2.185   7.219  0.6650  0.9238 -2.3948
   55Eth    Hcc 2893   1.597   2.155   7.247 -1.4560 -1.1251  0.0866
   55Eth    Hcc 2894   1.652   2.207   7.090  1.9279 -2.4380 -2.2841
   56Eth     Ho 2895   3.117   0.836   2.641  1.6880  1.8188 -0.1309
   56Eth     Oh 2896   3.053   0.897   2.608 -0.3361 -0.2577 -0.1364
   56Eth     Co 2897   2.956   0.833   2.531 -0.2661 -0.8057 -0.0538
   56Eth    Hco 2898   2.866   0.809   2.589 -0.3693 -0.8198 -0.2185
   56Eth    Hco 2899   3.016   0.746   2.508 -0.7015 -0.8463 -1.0391
   56Eth     Ch 2900   2.937   0.927   2.413 -0.1582 -0.4445  0.1958
   56Eth    Hcc 2901   2.869   0.891   2.336 -1.0355  1.0725  0.2598
   56Eth    Hcc 2902   3.032   0.954   2.367 -1.3956 -0.0234 -2.2027
   56Eth    Hcc 2903   2.903   1.024   2.449 -0.5522 -0.6555  0.3903
   57Eth     Ho 2904   0.964   0.045   9.066  1.2949  1.1467  0.0671
   57Eth     Oh 2905   0.933   0.045   8.977  0.7801 -0.1817  0.2367
   57Eth     Co 2906   0.789   0.059   8.962 -0.1810 -0.9921 -0.9797
   57Eth    Hco 2907   0.754   0.127   9.039  2.9622 -1.7753  1.2517
   57Eth    Hco 2908   0.737  -0.033   8.990  0.8222 -1.8386 -1.7824
   57Eth     Ch 2909   0.734   0.114   8.829  0.1205  0.3990  0.1934
   57Eth    Hcc 2910   0.751   0.046   8.745 -0.5345  1.0819 -0.5025
   57Eth    Hcc 2911   0.769   0.211   8.794  2.7727 -0.3423  0.7043
   57Eth    Hcc 2912   0.626   0.122   8.844 -0.0607  0.5223 -1.1064
   58Eth     Ho 2913   0.077   0.407   5.582  0.8208 -1.9159  0.6554
   58Eth     Oh 2914   0.164   0.437   5.600  0.4675  0.0938 -0.8471
   58Eth     Co 2915   0.192   0.544   5.506 -0.3823  0.2928 -0.6366
   58Eth    Hco 2916   0.105   0.604   5.480 -1.0078 -0.8877 -1.3000
   58Eth    Hco 2917   0.216   0.484   5.418  1.2126 -1.1102  0.7007
   58Eth     Ch 2918   0.316   0.618   5.561  0.0332  0.1533 -0.5786
   58Eth    Hcc 2919   0.393   0.543   5.575  0.9548  1.5450  2.0734
   58Eth    Hcc 2920   0.285   0.657   5.658  2.0634 -1.7873  0.8869
   58Eth    Hcc 2921   0.362   0.696   5.500  2.0260 -0.3160  0.2889
   59Eth     Ho 2922   0.387   2.069   9.459  0.2668  1.1015 -2.0614
   59Eth     Oh 2923   0.399   1.987   9.415  0.1857 -0.2099  0.2624
   59Eth     Co 2924   0.387   1.997   9.274 -0.1415 -0.2952 -0.1486
   59Eth    Hco 2925   0.472   2.051   9.233 -0.4345  0.9187  0.7998
   59Eth    Hco 2926   0.300   2.059   9.252  0.2733  0.3553  0.0329
   59Eth     Ch 2927   0.370   1.857   9.217  0.9190  0.2752 -0.0996
   59Eth    Hcc 2928   0.299   1.792   9.268  3.4218 -0.8313  2.1147
   59Eth    Hcc 2929   0.464   1.803   9.230  0.4424 -0.7671 -0.8725
   59Eth    Hcc 2930   0.341   1.862   9.112 -0.4573 -0.1612  0.2516
   60Eth     Ho 2931   1.554   2.346   1.661 -0.9527  1.6271 -1.8116
   60Eth     Oh 2932   1.510   2.278   1.613  0.0611 -0.1086 -0.3509
   60Eth     Co 2933   1.562   2.153   1.646  0.8033 -0.0304 -0.5502
   60Eth    Hco 2934   1.569   2.157   1.755 -0.7831 -0.2707 -0.4269
   60Eth    Hco 2935   1.664   2.135   1.611  1.5663 -0.4719  1.8087
   60Eth     Ch 2936   1.457   2.051   1.599 -0.6469 -0.7077 -0.2565
   60Eth    Hcc 2937   1.479   1.947   1.621 -1.0871 -0.8873 -0.6431
   60Eth    Hcc 2938   1.415   2.071   1.500 -2.1311  0.5901  0.6209
   60Eth    Hcc 2939   1.363   2.072   1.651 -1.5149  0.0387 -2.0700
   61Eth     Ho 2940   2.086   3.088   9.774 -0.7807  0.6453 -0.9214
   61Eth     Oh 2941   2.022   3.098   9.842 -0.2530 -0.3285 -0.2642
   61Eth     Co 2942   1.989   3.234   9.846  0.5882 -0.4316  0.0505
   61Eth    Hco 2943   1.958   3.261   9.746  1.2460 -1.8051 -0.5344
   61Eth    Hco 2944   2.065   3.311   9.857 -0.3421  0.9903 -3.0017
   61Eth     Ch 2945   1.856   3.246   9.936 -0.3507 -0.0063 -0.9189
   61Eth    Hcc 2946   1.768   3.231   9.873 -0.6982 -1.6335 -0.0724
   61Eth    Hcc 2947   1.849   3.336   9.997 -1.6165 -0.2087 -0.7570
   61Eth    Hcc 2948   1.855   3.170  10.014  0.7883  1.5611  0.6549
   62Eth     Ho 2949   0.841   1.094   1.612  0.1703  0.5698 -0.1623
   62Eth     Oh 2950   0.876   1.159   1.670  0.4976  0.3586 -0.1262
   62Eth     Co 2951   0.957   1.236   1.584  0.3846  0.0624  0.0666
   62Eth    Hco 2952   0.896   1.251   1.495 -2.6755  1.5300  2.3237
   62Eth    Hco 2953   1.042   1.183   1.540 -0.6448 -0.5038 -1.2673
   62Eth     Ch 2954   0.985   1.369   1.631  0.0466 -0.0151 -0.7305
   62Eth    Hcc 2955   1.037   1.413   1.546  0.5944 -0.4391 -0.6182
   62Eth    Hcc 2956   1.030   1.379   1.729  0.7064 -1.9592 -0.8094
   62Eth    Hcc 2957   0.886   1.414   1.631 -0.2706 -0.6861 -1.5214
   63Eth     Ho 2958   1.872   0.627   9.540  1.4427 -1.8339 -0.1532
   63Eth     Oh 2959   1.946   0.683   9.554  0.0866 -0.1043  0.3335
   63Eth     Co 2960   1.961   0.646   9.688 -0.2797 -0.3502 -0.6772
   63Eth    Hco 2961   2.058   0.678   9.726 -1.4194  0.9479  1.2511
   63Eth    Hco 2962   1.970   0.538   9.704  0.3366 -0.0282  1.3105
   63Eth     Ch 2963   1.853   0.716   9.773  0.0496 -0.7434 -0.3445
   63Eth    Hcc 2964   1.829   0.665   9.866 -0.5766 -0.0146 -0.1005
   63Eth    Hcc 2965   1.758   0.728   9.721  0.0149 -1.3071 -0.4137
   63Eth    Hcc 2966   1.882   0.816   9.807 -1.7469 -0.4809  0.4789
   64Eth     Ho 2967   3.038   1.477   4.679  1.1190  0.8299  2.3013
   64Eth     Oh 2968   2.991   1.405   4.717  0.1408  0.6620  0.8174
   64Eth     Co 2969   3.081   1.306   4.777  0.0647  0.2159  0.0535
   64Eth    Hco 2970   3.133   1.344   4.865  2.1040  1.5128 -1.6615
   64Eth    Hco 2971   3.156   1.280   4.703 -0.2009  3.8658 -1.6137
   64Eth     Ch 2972   3.000   1.187   4.813 -0.1280 -0.2187  0.4516
   64Eth    Hcc 2973   3.061   1.107   4.856  0.3433 -0.0841  0.0448
   64Eth    Hcc 2974   2.963   1.135   4.726 -0.7795 -0.6781  1.0003
   64Eth    Hcc 2975   2.925   1.208   4.889 -0.2101 -1.1065  0.6177
   65Eth     Ho 2976   0.657   1.303   8.181  0.1768  0.9096  0.1268
   65Eth     Oh 2977   0.709   1.296   8.104 -0.1748 -0.1389 -0.0244
   65Eth     Co 2978   0.619   1.273   8.000  0.2892 -0.5605 -0.3297
   65Eth    Hco 2979   0.553   1.359   7.989  0.2987 -0.8482 -2.7287
   65Eth    Hco 2980   0.563   1.182   8.023  1.5574 -0.9789  1.1549
   65Eth     Ch 2981   0.683   1.266   7.857 -0.1834  0.0835 -0.2209
   65Eth    Hcc 2982   0.600   1.241   7.792 -0.9028  0.1465  0.6584
   65Eth    Hcc 2983   0.754   1.184   7.860 -0.0211  0.1686 -1.6205
   65Eth    Hcc 2984   0.733   1.356   7.821 -0.2181  0.5960  0.9725
   66Eth     Ho 2985   0.044   0.444   7.539  1.7992  0.4890  1.5885
   66Eth     Oh 2986  -0.033   0.434   7.592  0.9189 -0.1862  0.2003
   66Eth     Co 2987  -0.092   0.304   7.573 -0.2820 -1.1102  0.0982
   66Eth    Hco 2988  -0.008   0.235   7.582  1.0853  0.5409  0.2764
   66Eth    Hco 2989  -0.131   0.320   7.472  1.2232 -1.0134 -0.4918
   66Eth     Ch 2990  -0.212   0.279   7.666 -0.0503  0.4461  0.2860
   66Eth    Hcc 2991  -0.183   0.248   7.766 -1.7133  0.3395  0.7515
   66Eth    Hcc 2992  -0.266   0.191   7.633  0.6743  0.2663 -0.4351
   66Eth    Hcc 2993  -0.280   0.364   7.662  0.1521  0.5764 -0.4690
   67Eth     Ho 2994   1.207   1.964   7.396  1.0606  2.1315 -0.0989
   67Eth     Oh 2995   1.197   1.969   7.489  0.3604  0.2356 -0.0619
   67Eth     Co 2996   1.136   2.092   7.514  0.0256 -0.5659 -0.5390
   67Eth    Hco 2997   1.054   2.120   7.449 -0.2114  1.3375  0.5492
   67Eth    Hco 2998   1.220   2.155   7.484 -0.7755 -0.1247 -1.8958
   67Eth     Ch 2999   1.095   2.133   7.656 -0.1932  0.4187 -0.0581
   67Eth    Hcc 3000   1.169   2.100   7.729 -1.7449 -0.6727  1.0432
   67Eth    Hcc 3001   1.008   2.075   7.686 -0.5483  0.4043 -1.0900
   67Eth    Hcc 3002   1.064   2.237   7.663 -0.2478  0.6114 -2.8271
   68Eth     Ho 3003   2.046   1.826   7.727 -0.1086 -0.5330 -0.9780
   68Eth     Oh 3004   1.991   1.902   7.720  0.2734 -0.1064  0.5568
   68Eth     Co 3005   2.048   2.012   7.654  0.2986  0.0455  0.1180
   68Eth    Hco 3006   2.079   1.978   7.555  1.5329  0.6159  0.3000
   68Eth    Hco 3007   2.140   2.051   7.697  2.4342 -1.9265 -2.4852
   68Eth     Ch 3008   1.948   2.125   7.657  0.3486  0.2562 -0.6896
   68Eth    Hcc 3009   1.915   2.143   7.759 -0.5542 -0.8865 -0.7728
   68Eth    Hcc 3010   1.856   2.108   7.601  0.1276 -0.0265 -0.2354
   68Eth    Hcc 3011   1.995   2.211   7.609  1.8746 -0.4605 -0.5084
   69Eth     Ho 3012   1.856   1.014   1.903 -0.5067 -1.0600 -0.7787
   69Eth     Oh 3013   1.922   0.984   1.963 -0.4310  0.7461  0.0817
   69Eth     Co 3014   1.901   1.042   2.085 -0.5048  0.1003  0.2359
   69Eth    Hco 3015   1.798   1.028   2.120 -0.3366  0.1451  0.7483
   69Eth    Hco 3016   1.908   1.150   2.072 -2.1649  0.2325  0.3510
   69Eth     Ch 3017   2.014   0.996   2.182 -0.2130  0.7839 -0.1393
   69Eth    Hcc 3018   2.113   0.988   2.137 -0.0030 -1.2793  0.6590
   69Eth    Hcc 3019   1.995   0.894   2.214  0.6979  1.0954  1.4333
   69Eth    Hcc 3020   2.016   1.069   2.263 -0.5505 -0.2586  0.8082
   70Eth     Ho 3021   3.242   0.159   9.570  3.2596  0.9996 -0.3807
   70Eth     Oh 3022   3.268   0.182   9.658  0.0771  0.6157  0.7335
   70Eth     Co 3023   3.161   0.233   9.730 -0.1689 -0.5364 -0.0446
   70Eth    Hco 3024   3.089   0.153   9.748 -0.2383 -0.3087  0.7147
   70Eth    Hco 3025   3.114   0.309   9.668 -0.7020  0.7711  1.9061
   70Eth     Ch 3026   3.184   0.291   9.872 -0.0407  0.4094  0.6405
   70Eth    Hcc 3027   3.208   0.396   9.855  1.3326 -0.0727 -0.4187
   70Eth    Hcc 3028   3.264   0.250   9.932  0.6979  1.9116  0.7195
   70Eth    Hcc 3029   3.087   0.288   9.923  2.1452 -0.6908  4.9880
   71Eth     Ho 3030   0.238   1.466   9.844 -1.8635  0.9083  3.2743
   71Eth     Oh 3031   0.232   1.549   9.801  0.0357 -0.0997  0.9414
   71Eth     Co 3032   0.193   1.641   9.896 -0.0400  0.4008 -0.1296
   71Eth    Hco 3033   0.133   1.593   9.973  0.0828 -0.6232 -0.6718
   71Eth    Hco 3034   0.141   1.721   9.843 -2.8829 -0.3139  1.4347
   71Eth     Ch 3035   0.323   1.687   9.963 -0.0134 -0.0606 -0.1867
   71Eth    Hcc 3036   0.324   1.757  10.047 -1.1855  1.0014 -1.0416
   71Eth    Hcc 3037   0.381   1.738   9.886 -0.2274 -0.2204 -0.4532
   71Eth    Hcc 3038   0.371   1.592   9.987  3.1542  1.3796 -0.5609
   72Eth     Ho 3039   2.634   1.914   1.796 -0.2285  0.2357 -1.6863
   72Eth     Oh 3040   2.629   1.828   1.759 -0.6058 -0.4654 -0.0636
   72Eth     Co 3041   2.756   1.794   1.700  0.1370  0.6683  0.0670
   72Eth    Hco 3042   2.767   1.687   1.680  1.7215  0.2070  3.1675
   72Eth    Hco 3043   2.833   1.803   1.776 -1.4440  0.2080  1.7718
   72Eth     Ch 3044   2.767   1.879   1.579  0.1077 -0.3418  0.8184
   72Eth    Hcc 3045   2.863   1.914   1.541 -0.2197  0.1824  0.4694
   72Eth    Hcc 3046   2.689   1.955   1.577 -0.3678 -0.8455 -0.2894
   72Eth    Hcc 3047   2.733   1.809   1.502  0.4276  0.7103 -0.2976
   73Eth     Ho 3048   3.200   3.389   4.718 -1.1352 -1.0188  1.1524
   73Eth     Oh 3049   3.194   3.433   4.801 -0.3759  0.7257  0.3018
   73Eth     Co 3050   3.084   3.523   4.778 -1.3503  0.2280  0.7933
   73Eth    Hco 3051   2.995   3.476   4.736 -1.3912  0.0586  1.0679
   73Eth    Hco 3052   3.107   3.589   4.694  0.0396 -0.0617  0.9409
   73Eth     Ch 3053   3.055   3.612   4.903  0.1894 -0.1432  0.4852
   73Eth    Hcc 3054   3.026   3.555   4.992  0.7325 -2.5049 -0.8062
   73Eth    Hcc 3055   2.965   3.666   4.874 -0.5737  0.6899  4.1670
   73Eth    Hcc 3056   3.133   3.686   4.916  2.2025 -1.4686 -3.3916
   74Eth     Ho 3057   1.113   1.179   9.340  1.0804 -2.7996  1.1062
   74Eth     Oh 3058   1.193   1.187   9.291 -0.1294  0.3809 -0.4713
   74Eth     Co 3059   1.237   1.052   9.260  0.0584  0.2758  0.5789
   74Eth    Hco 3060   1.324   1.054   9.194 -0.9226  1.5688 -0.7019
   74Eth    Hco 3061   1.161   1.005   9.198 -2.7235  2.2515  2.3596
   74Eth     Ch 3062   1.243   0.969   9.389  0.3171 -0.0141  0.6570
   74Eth    Hcc 3063   1.283   0.870   9.364  1.4696  0.8567 -1.0193
   74Eth    Hcc 3064   1.149   0.953   9.443  1.8881 -4.1818  2.4291
   74Eth    Hcc 3065   1.312   1.017   9.459  0.6921 -0.1499  0.3818
   75Eth     Ho 3066   0.431   2.773   9.782  0.2319 -0.6626  1.0569
   75Eth     Oh 3067   0.465   2.860   9.769 -0.9268 -0.2489  0.7674
   75Eth     Co 3068   0.372   2.949   9.827  0.1561  0.7925 -0.0826
   75Eth    Hco 3069   0.329   2.912   9.920 -2.5824  0.3458 -1.4761
   75Eth    Hco 3070   0.281   2.957   9.768 -0.6059  1.8501  1.1987
   75Eth     Ch 3071   0.413   3.096   9.848 -0.7096 -0.5186  0.3758
   75Eth    Hcc 3072   0.428   3.146   9.752 -0.1587 -0.8012  0.3126
   75Eth    Hcc 3073   0.502   3.110   9.910 -1.8365  2.1425  1.4780
   75Eth    Hcc 3074   0.337   3.134   9.915  1.0873  2.1331  0.9970
   76Eth     Ho 3075   0.524   0.866   6.899  1.2304 -0.6386  1.4646
   76Eth     Oh 3076   0.553   0.853   6.811 -0.9076 -0.1718  0.6386
   76Eth     Co 3077   0.611   0.972   6.771 -0.0506 -0.5087 -0.6408
   76Eth    Hco 3078   0.687   1.000   6.843  1.5117 -2.9891 -1.2985
   76Eth    Hco 3079   0.539   1.054   6.780 -1.8811 -2.1634  0.4659
   76Eth     Ch 3080   0.662   0.951   6.631  0.1146 -0.2199 -0.0192
   76Eth    Hcc 3081   0.575   0.941   6.565 -0.1674 -2.3199  0.6504
   76Eth    Hcc 3082   0.723   0.862   6.623  0.3427  0.0775 -1.8098
   76Eth    Hcc 3083   0.716   1.036   6.589  0.1225  1.1470  2.6370
   77Eth     Ho 3084   2.796   1.135   1.471  2.7516  0.1000 -1.8698
   77Eth     Oh 3085   2.832   1.202   1.527  0.8267 -0.1154 -0.2954
   77Eth     Co 3086   2.759   1.316   1.496  0.4414 -0.2664 -0.9850
   77Eth    Hco 3087   2.661   1.300   1.541  1.3604 -1.2483  0.7347
   77Eth    Hco 3088   2.742   1.327   1.389 -1.4601  1.4883 -0.5169
   77Eth     Ch 3089   2.844   1.437   1.538  0.7477  0.4999  0.1811
   77Eth    Hcc 3090   2.946   1.421   1.503  0.4527 -1.4330  0.1514
   77Eth    Hcc 3091   2.867   1.449   1.644  2.6836  2.2918 -0.3952
   77Eth    Hcc 3092   2.792   1.527   1.506 -1.3869 -1.6917 -2.8662
   78Eth     Ho 3093   3.027   0.402   4.171 -1.7811 -1.0661 -1.4315
   78Eth     Oh 3094   3.040   0.330   4.231 -0.7092  0.3561  0.0770
   78Eth     Co 3095   3.080   0.215   4.163 -0.1080  0.2940  0.3171
   78Eth    Hco 3096   3.188   0.226   4.161  0.1702 -1.8445  1.6326
   78Eth    Hco 3097   3.039   0.220   4.062  0.1501 -2.9164  0.0134
   78Eth     Ch 3098   3.033   0.093   4.244  0.2895 -0.4849  0.0639
   78Eth    Hcc 3099   3.064   0.003   4.191 -0.5914 -0.8124  0.0900
   78Eth    Hcc 3100   2.924   0.094   4.248  0.3456  0.0386  3.0309
   78Eth    Hcc 3101   3.065   0.080   4.348 -2.1339 -2.3452  0.6235
   79Eth     Ho 3102   1.951   2.391   1.779  0.0998  0.2955  0.3014
   79Eth     Oh 3103   1.891   2.443   1.728 -0.7327 -0.5388  0.4169
   79Eth     Co 3104   1.945   2.420   1.600  0.3381  0.0246 -0.6894
   79Eth    Hco 3105   1.947   2.311   1.588 -0.7631 -0.2006  0.9455
   79Eth    Hco 3106   2.045   2.461   1.590 -0.5181  2.3520  0.0009
   79Eth     Ch 3107   1.849   2.466   1.489 -0.3592 -0.0269 -0.0622
   79Eth    Hcc 3108   1.873   2.424   1.391  1.1032  0.5840  0.0237
   79Eth    Hcc 3109   1.846   2.575   1.481  1.4936  0.0253 -0.2907
   79Eth    Hcc 3110   1.752   2.425   1.517  0.7647 -2.7485  0.0242
   80Eth     Ho 3111   1.894   1.873   9.855  0.0738 -0.3875 -0.0210
   80Eth     Oh 3112   1.961   1.938   9.842  0.0925 -0.3140  0.4426
   80Eth     Co 3113   2.081   1.898   9.908 -0.8841  0.5799 -0.3652
   80Eth    Hco 3114   2.097   1.797   9.872  1.8853  0.7425  0.3282
   80Eth    Hco 3115   2.061   1.899  10.015 -1.0370 -1.3266 -0.3569
   80Eth     Ch 3116   2.204   1.982   9.874 -0.4013 -0.1482 -1.0365
   80Eth    Hcc 3117   2.204   2.084   9.913 -0.9179 -0.4217 -0.3030
   80Eth    Hcc 3118   2.200   1.982   9.765 -1.4838  0.5641 -1.0080
   80Eth    Hcc 3119   2.298   1.931   9.896 -0.9778 -1.6385 -1.9723
   81Eth     Ho 3120   3.175   1.351   7.321 -1.7240  0.8878  0.5628
   81Eth     Oh 3121   3.219   1.429   7.347  0.3984 -0.0218 -0.2062
   81Eth     Co 3122   3.237   1.426   7.492 -0.4096 -1.1262  0.3723
   81Eth    Hco 3123   3.230   1.321   7.520  2.2627 -1.7384 -1.1103
   81Eth    Hco 3124   3.148   1.470   7.537  0.2900  2.1352 -1.2992
   81Eth     Ch 3125   3.364   1.491   7.535  1.0412 -0.0359  1.0805
   81Eth    Hcc 3126   3.441   1.424   7.494 -0.1056 -0.6967 -0.0220
   81Eth    Hcc 3127   3.373   1.487   7.643 -0.0296 -0.4482  1.1558
   81Eth    Hcc 3128   3.377   1.588   7.487 -1.2017 -0.0760  0.3580
   82Eth     Ho 3129   0.912   1.573   9.579  1.5070 -0.7917  0.3689
   82Eth     Oh 3130   0.875   1.524   9.650  0.2894 -0.3424  0.0554
   82Eth     Co 3131   0.733   1.547   9.646  0.9029  0.1928 -0.3337
   82Eth    Hco 3132   0.688   1.471   9.581 -0.8029  0.6674  0.2593
   82Eth    Hco 3133   0.717   1.639   9.590  0.1032  0.7933  0.8664
   82Eth     Ch 3134   0.676   1.556   9.791  0.4683  0.2744  0.8594
   82Eth    Hcc 3135   0.724   1.638   9.844  4.0143 -0.9953 -0.2564
   82Eth    Hcc 3136   0.711   1.468   9.845  1.7967  0.9902  1.1729
   82Eth    Hcc 3137   0.568   1.566   9.787  0.2752 -0.2639  3.6648
   83Eth     Ho 3138   0.108   1.409   3.100 -0.6489 -3.1917 -1.8446
   83Eth     Oh 3139   0.018   1.432   3.112  0.2888  0.0475 -0.4264
   83Eth     Co 3140   0.002   1.442   3.254 -0.6786  0.8376 -0.7090
   83Eth    Hco 3141   0.070   1.523   3.282 -1.0415  1.8225 -2.5781
   83Eth    Hco 3142   0.033   1.353   3.308 -1.1517  1.7557  1.1351
   83Eth     Ch 3143  -0.135   1.499   3.295 -0.7311 -0.3278 -0.0862
   83Eth    Hcc 3144  -0.135   1.514   3.403  2.7055  1.9757 -0.3132
   83Eth    Hcc 3145  -0.224   1.449   3.257 -1.7341 -0.0357  1.8386
   83Eth    Hcc 3146  -0.150   1.596   3.248 -1.6146  0.4119  1.6512
   84Eth     Ho 3147   3.222   3.174   9.517  0.2973 -1.0225 -0.0248
   84Eth     Oh 3148   3.241   3.176   9.609 -0.2665  0.0360  0.0767
   84Eth     Co 3149   3.343   3.269   9.656  0.1016  0.1526 -0.7671
   84Eth    Hco 3150   3.320   3.364   9.609 -1.6516 -0.0599 -0.3777
   84Eth    Hco 3151   3.444   3.233   9.637  0.2647  0.5352 -0.6364
   84Eth     Ch 3152   3.319   3.301   9.806 -0.2330 -0.5142 -0.0351
   84Eth    Hcc 3153   3.352   3.218   9.868  0.1148  0.2662  0.8296
   84Eth    Hcc 3154   3.216   3.327   9.830 -0.4381  0.3463 -1.7763
   84Eth    Hcc 3155   3.381   3.389   9.821 -2.6229  0.9431  1.5647
   85Eth     Ho 3156   0.583   3.326   4.246 -0.7946 -0.7723 -0.8294
   85Eth     Oh 3157   0.561   3.401   4.194  0.0146  0.2352  0.2642
   85Eth     Co 3158   0.679   3.454   4.149 -0.7980  0.1551 -0.5881
   85Eth    Hco 3159   0.739   3.375   4.105 -0.3853 -0.1349  0.4672
   85Eth    Hco 3160   0.726   3.509   4.231 -2.5041 -0.3975  0.7935
   85Eth     Ch 3161   0.637   3.547   4.039  0.0298 -0.0312  0.5036
   85Eth    Hcc 3162   0.707   3.623   4.006 -1.8878  1.6273  0.1396
   85Eth    Hcc 3163   0.545   3.601   4.065 -0.6385 -1.4469  1.1043
   85Eth    Hcc 3164   0.625   3.495   3.944  0.2354  0.2035  0.3495
   86Eth     Ho 3165   0.711   0.109   9.516  0.3534 -0.2332 -0.5050
   86Eth     Oh 3166   0.723   0.093   9.607 -0.3329  0.8496 -0.2163
   86Eth     Co 3167   0.603   0.064   9.667  0.0870 -0.1521  0.6905
   86Eth    Hco 3168   0.571  -0.038   9.644  0.0445  0.0629 -0.2269
   86Eth    Hco 3169   0.529   0.136   9.632 -0.5992 -1.8324 -1.3993
   86Eth     Ch 3170   0.607   0.103   9.815  0.0049 -0.2804  0.3484
   86Eth    Hcc 3171   0.513   0.083   9.866 -1.0621  0.2449 -1.3570
   86Eth    Hcc 3172   0.622   0.211   9.818  0.2580 -0.1663 -3.0573
   86Eth    Hcc 3173   0.682   0.045   9.869 -0.3052 -0.7784  0.2373
   87Eth     Ho 3174   2.932   0.608   9.820  0.9513 -1.5586  1.3019
   87Eth     Oh 3175   2.863   0.626   9.881 -0.0492  0.0799 -0.2545
   87Eth     Co 3176   2.853   0.761   9.919  0.9507 -0.0674  0.2280
   87Eth    Hco 3177   2.831   0.821   9.831  1.9760  1.0918  0.7389
   87Eth    Hco 3178   2.955   0.789   9.948  1.9373 -1.5273 -1.6982
   87Eth     Ch 3179   2.759   0.781  10.036 -0.1780 -0.2695  0.1192
   87Eth    Hcc 3180   2.770   0.708  10.117  3.0842  0.8052  0.7330
   87Eth    Hcc 3181   2.656   0.781  10.001  0.0131  1.6679 -0.5130
   87Eth    Hcc 3182   2.786   0.879  10.075  1.3075 -0.4788 -0.3449
   88Eth     Ho 3183   0.754   3.379   7.477  1.2055 -0.5056 -0.2195
   88Eth     Oh 3184   0.761   3.425   7.395  0.4213 -0.3990 -0.2271
   88Eth     Co 3185   0.760   3.332   7.288  0.2601  0.0936  0.3493
   88Eth    Hco 3186   0.727   3.382   7.197 -1.6117 -2.5553 -0.4674
   88Eth    Hco 3187   0.677   3.262   7.293 -0.4766  0.9583  0.4013
   88Eth     Ch 3188   0.887   3.269   7.263  0.2698 -0.2878 -0.3379
   88Eth    Hcc 3189   0.880   3.209   7.172 -2.3394 -1.3252  0.4905
   88Eth    Hcc 3190   0.910   3.213   7.354  3.1997 -0.1053 -0.9284
   88Eth    Hcc 3191   0.966   3.343   7.267  1.3615 -1.4132 -0.9858
   89Eth     Ho 3192   2.670   0.979   9.679  0.8903  0.8661  1.4520
   89Eth     Oh 3193   2.605   0.979   9.746 -0.0744 -0.0814  0.5458
   89Eth     Co 3194   2.640   1.075   9.843 -0.1822  0.3649 -0.1130
   89Eth    Hco 3195   2.655   1.174   9.800  3.0189 -0.0932 -0.1858
   89Eth    Hco 3196   2.734   1.054   9.894 -0.7819 -1.3625  0.3158
   89Eth     Ch 3197   2.518   1.066   9.938 -0.0549 -0.5018 -0.3786
   89Eth    Hcc 3198   2.424   1.088   9.888 -0.6539  1.7464  1.6321
   89Eth    Hcc 3199   2.509   1.124  10.030  0.0862  1.1314 -1.3771
   89Eth    Hcc 3200   2.517   0.960   9.965 -0.6497  0.4554  3.6623
   90Eth     Ho 3201   1.573   0.973   9.643 -0.9907  0.7776  2.0689
   90Eth     Oh 3202   1.650   1.011   9.681  0.3038  0.5672 -0.2483
   90Eth     Co 3203   1.620   1.054   9.808  0.5063  0.2677  0.0162
   90Eth    Hco 3204   1.603   0.972   9.878 -0.4374  0.7337  0.3423
   90Eth    Hco 3205   1.524   1.106   9.803 -0.3472 -1.1727  0.8633
   90Eth     Ch 3206   1.724   1.150   9.852  0.1103 -0.0553  0.0812
   90Eth    Hcc 3207   1.754   1.217   9.772  2.2852 -0.2688  0.6625
   90Eth    Hcc 3208   1.808   1.087   9.883  0.0675 -0.3085 -0.3073
   90Eth    Hcc 3209   1.697   1.204   9.942 -2.0845 -0.6868 -0.1722
   91Eth     Ho 3210   2.182   1.514   1.709  1.0554 -1.5086 -3.2686
   91Eth     Oh 3211   2.222   1.591   1.672  0.1317  0.2843 -0.6663
   91Eth     Co 3212   2.297   1.525   1.567 -1.4615 -0.6306 -0.2070
   91Eth    Hco 3213   2.229   1.529   1.482 -0.9177 -0.0835 -0.6233
   91Eth    Hco 3214   2.316   1.422   1.597 -0.5445 -0.5408 -0.4518
   91Eth     Ch 3215   2.418   1.608   1.534  0.3354  0.1653 -0.2281
   91Eth    Hcc 3216   2.471   1.566   1.449 -0.3179  2.2096 -1.6895
   91Eth    Hcc 3217   2.492   1.596   1.613  0.9679 -0.1892 -0.8628
   91Eth    Hcc 3218   2.391   1.711   1.512 -0.9601 -0.1344 -0.0874
   92Eth     Ho 3219   3.107   2.973   4.804 -0.6641  0.9852  0.6353
   92Eth     Oh 3220   3.200   2.980   4.793 -0.6826  0.4186  0.0888
   92Eth     Co 3221   3.236   3.116   4.766  0.0028  0.2658  0.2729
   92Eth    Hco 3222   3.163   3.163   4.832 -1.2077  0.2462 -1.0405
   92Eth    Hco 3223   3.205   3.142   4.665 -1.7089 -2.4009  0.0772
   92Eth     Ch 3224   3.381   3.128   4.793  0.1735 -0.0040  0.3375
   92Eth    Hcc 3225   3.439   3.050   4.745 -0.9772 -1.0034  0.5504
   92Eth    Hcc 3226   3.414   3.123   4.897 -1.8880 -1.2333  0.9699
   92Eth    Hcc 3227   3.408   3.227   4.756 -1.6345  0.3221 -0.1806
   93Eth     Ho 3228   1.535   0.789   5.950 -1.1673 -1.6258  1.8548
   93Eth     Oh 3229   1.553   0.706   5.910  0.2138 -0.2416 -0.4957
   93Eth     Co 3230   1.600   0.625   6.015 -0.4085  0.8273 -0.2014
   93Eth    Hco 3231   1.515   0.588   6.073  0.7046 -3.2013 -0.9508
   93Eth    Hco 3232   1.669   0.683   6.076  0.9357  0.9268 -1.7996
   93Eth     Ch 3233   1.669   0.495   5.951  0.1520  0.2759 -0.1144
   93Eth    Hcc 3234   1.700   0.433   6.035 -0.3442  0.3735  0.1435
   93Eth    Hcc 3235   1.753   0.511   5.884 -1.0442  1.2429 -1.4200
   93Eth    Hcc 3236   1.600   0.430   5.896  0.0796  0.7502 -0.5815
   94Eth     Ho 3237   2.484   3.196   9.705 -0.2813 -0.7419  0.8682
   94Eth     Oh 3238   2.402   3.242   9.701  0.2432  0.1904  0.6532
   94Eth     Co 3239   2.383   3.297   9.830  0.0952 -0.1500 -0.8905
   94Eth    Hco 3240   2.477   3.290   9.885 -1.5158  0.5287  2.0552
   94Eth    Hco 3241   2.313   3.239   9.891  0.7899  1.3411  1.4080
   94Eth     Ch 3242   2.345   3.446   9.805 -0.6228 -0.3864  0.2335
   94Eth    Hcc 3243   2.430   3.502   9.766  0.3454 -0.5941  1.9711
   94Eth    Hcc 3244   2.320   3.495   9.899 -1.3924 -2.4903  1.1583
   94Eth    Hcc 3245   2.259   3.468   9.743 -1.5367  1.0575  1.9775
   95Eth     Ho 3246   1.585   0.283   9.684 -0.7417 -0.0670 -0.5331
   95Eth     Oh 3247   1.524   0.354   9.689 -0.5136  0.1254 -0.4712
   95Eth     Co 3248   1.570   0.457   9.775 -0.2506 -0.4438 -0.4973
   95Eth    Hco 3249   1.539   0.560   9.753 -2.2678 -1.1972 -1.2717
   95Eth    Hco 3250   1.676   0.471   9.753 -0.1649 -3.0391 -1.8633
   95Eth     Ch 3251   1.553   0.435   9.929 -0.2081 -0.2351  0.3283
   95Eth    Hcc 3252   1.592   0.502  10.006  0.4596 -0.0871 -0.1357
   95Eth    Hcc 3253   1.612   0.348   9.957  1.4944  1.4884  2.2902
   95Eth    Hcc 3254   1.455   0.402   9.963  0.2789 -0.0829  1.9345
   96Eth     Ho 3255   2.990   2.715   6.401 -0.3277  1.9260 -2.2647
   96Eth     Oh 3256   3.083   2.725   6.409 -0.3775  0.6694  0.2405
   96Eth     Co 3257   3.123   2.817   6.308 -0.0356  0.6033  0.1022
   96Eth    Hco 3258   3.229   2.843   6.316  1.1412 -3.4357 -1.2425
   96Eth    Hco 3259   3.069   2.911   6.317  0.6036  1.0530 -0.6931
   96Eth     Ch 3260   3.095   2.765   6.165  0.3754 -0.0148 -0.7604
   96Eth    Hcc 3261   3.119   2.834   6.084  0.4948 -1.9829 -2.4486
   96Eth    Hcc 3262   2.989   2.741   6.156  0.3068  0.0677 -0.1728
   96Eth    Hcc 3263   3.155   2.678   6.138 -0.3828 -1.0536  0.8742
   97Eth     Ho 3264   1.370   0.961   8.203 -0.8150 -0.5616 -1.6497
   97Eth     Oh 3265   1.309   0.911   8.255 -0.1332  0.3098  0.0087
   97Eth     Co 3266   1.245   0.808   8.180 -0.2402 -1.0466 -0.0738
   97Eth    Hco 3267   1.317   0.748   8.123 -0.7643 -1.2399 -0.5372
   97Eth    Hco 3268   1.177   0.854   8.108  0.1667 -0.8258 -0.3202
   97Eth     Ch 3269   1.165   0.721   8.282  0.1560  0.3629  0.2189
   97Eth    Hcc 3270   1.111   0.642   8.229 -1.3294  1.5425 -0.0600
   97Eth    Hcc 3271   1.091   0.778   8.337 -0.1561  0.7928 -0.6307
   97Eth    Hcc 3272   1.239   0.674   8.347 -0.2125 -0.2399  0.2052
   98Eth     Ho 3273   2.088   2.103   8.323  0.5014 -0.7897  1.6767
   98Eth     Oh 3274   1.997   2.091   8.339  0.1762 -0.1184  0.3828
   98Eth     Co 3275   1.937   1.995   8.257 -0.0698  0.8222  0.5178
   98Eth    Hco 3276   1.931   2.037   8.157 -0.4015 -0.3976  0.0194
   98Eth    Hco 3277   1.834   1.976   8.289  0.9941 -2.5861  2.1389
   98Eth     Ch 3278   2.013   1.866   8.255  0.4073 -0.2908 -0.1940
   98Eth    Hcc 3279   2.102   1.864   8.192  0.7774 -0.9476  0.3402
   98Eth    Hcc 3280   1.955   1.785   8.210  1.8417 -0.8746 -1.0217
   98Eth    Hcc 3281   2.054   1.835   8.352 -0.6578 -1.3374 -0.0546
   99Eth     Ho 3282   1.265   1.802   1.806  0.9998  0.2613  1.7221
   99Eth     Oh 3283   1.335   1.751   1.768 -0.4167 -0.4033 -0.0428
   99Eth     Co 3284   1.295   1.717   1.649 -0.0184 -0.1856  0.1209
   99Eth    Hco 3285   1.238   1.797   1.603 -0.1210 -0.5364 -0.3743
   99Eth    Hco 3286   1.219   1.642   1.671  0.4149 -0.7517 -0.2882
   99Eth     Ch 3287   1.411   1.653   1.573  0.4140 -0.2746 -0.2410
   99Eth    Hcc 3288   1.451   1.582   1.647 -1.5181  1.2433  2.3560
   99Eth    Hcc 3289   1.485   1.728   1.544  0.4893 -1.0340 -2.0077
   99Eth    Hcc 3290   1.371   1.593   1.492 -0.1283 -0.3218  0.0541
  100Eth     Ho 3291   0.897   2.852   7.253 -0.5581  0.5049  2.4259
  100Eth     Oh 3292   0.969   2.793   7.265 -0.3129  0.0391 -0.8749
  100Eth     Co 3293   1.016   2.752   7.138 -0.4062 -0.3241  0.6375
  100Eth    Hco 3294   1.034   2.848   7.090 -0.1671 -0.9019 -0.4742
  100Eth    Hco 3295   0.939   2.704   7.077  0.3484  0.8666 -1.3199
  100Eth     Ch 3296   1.139   2.665   7.144 -0.0989  0.0292  0.0843
  100Eth    Hcc 3297   1.120   2.571   7.196 -0.1553  0.3819  0.6921
  100Eth    Hcc 3298   1.220   2.702   7.207 -0.1643 -1.0513  0.8094
  100Eth    Hcc 3299   1.193   2.652   7.050  0.1479 -1.0023  0.3616
  101Eth     Ho 3300   0.835   3.405   1.816  2.3259 -1.1986 -0.4135
  101Eth     Oh 3301   0.834   3.468   1.747 -0.4873  0.0821  0.7496
  101Eth     Co 3302   0.957   3.446   1.679 -0.5944  0.0048  0.7195
  101Eth    Hco 3303   0.944   3.352   1.627  2.4515  1.0339 -2.0905
  101Eth    Hco 3304   1.044   3.433   1.744  0.5039 -0.3985 -0.7992
  101Eth     Ch 3305   0.991   3.555   1.572  0.2033 -0.5796  0.0824
  101Eth    Hcc 3306   0.920   3.546   1.490  1.0183 -4.5023 -0.2801
  101Eth    Hcc 3307   1.093   3.552   1.534  1.3355  0.6659  2.8525
  101Eth    Hcc 3308   0.987   3.647   1.629 -2.0098 -1.9579  2.2312
  102Eth     Ho 3309   1.113   1.696   3.449 -0.0493 -1.7111 -1.2250
  102Eth     Oh 3310   1.158   1.629   3.498  0.2141 -0.5494  0.1504
  102Eth     Co 3311   1.224   1.535   3.409 -0.3401 -0.4593 -0.1083
  102Eth    Hco 3312   1.284   1.577   3.329  0.6714 -0.2879  0.7241
  102Eth    Hco 3313   1.159   1.462   3.361 -0.5822  0.4421 -1.1645
  102Eth     Ch 3314   1.316   1.449   3.501 -0.7171 -0.0008 -0.9292
  102Eth    Hcc 3315   1.377   1.382   3.440 -1.9610 -0.5502 -1.5997
  102Eth    Hcc 3316   1.268   1.403   3.587  1.5876 -1.0019 -0.1526
  102Eth    Hcc 3317   1.392   1.512   3.546  0.2937 -2.7620  1.3711
  103Eth     Ho 3318   0.938   0.762   9.699  0.2170  0.0522  0.9892
  103Eth     Oh 3319   0.855   0.804   9.709  0.1417  0.1285  0.0514
  103Eth     Co 3320   0.871   0.878   9.823 -0.2382  0.8994  0.1430
  103Eth    Hco 3321   0.942   0.960   9.814  0.7532  0.3569  2.4683
  103Eth    Hco 3322   0.903   0.813   9.905  0.2101  1.4533  0.4095
  103Eth     Ch 3323   0.734   0.929   9.868  0.5900  0.5468 -0.8761
  103Eth    Hcc 3324   0.659   0.851   9.886  0.5102  0.6506 -0.7634
  103Eth    Hcc 3325   0.698   0.999   9.793 -0.2353  0.5802 -0.4496
  103Eth    Hcc 3326   0.737   0.987   9.960 -1.4259 -0.8249  0.0972
  104Eth     Ho 3327   0.167   1.317   4.199 -0.2564 -1.6910 -0.1644
  104Eth     Oh 3328   0.097   1.310   4.261  0.2729  0.0037  0.6697
  104Eth     Co 3329   0.140   1.375   4.375  0.6579  0.7547  0.6845
  104Eth    Hco 3330   0.180   1.471   4.344  0.0570  0.0770 -2.3357
  104Eth    Hco 3331   0.228   1.323   4.416  0.6628  0.2719  0.0696
  104Eth     Ch 3332   0.028   1.388   4.471 -0.0021 -0.5402  0.2856
  104Eth    Hcc 3333   0.012   1.289   4.512 -1.7419  0.3021  1.7039
  104Eth    Hcc 3334  -0.064   1.425   4.425  0.1914  0.5638  0.7651
  104Eth    Hcc 3335   0.049   1.459   4.552  0.2234 -0.6086  0.2855
  105Eth     Ho 3336   0.930   1.621   9.817  0.8156 -2.5243 -0.0477
  105Eth     Oh 3337   0.974   1.640   9.897 -0.5940  0.2343  0.1163
  105Eth     Co 3338   1.011   1.776   9.887  0.1388  0.2041 -0.1494
  105Eth    Hco 3339   0.934   1.850   9.910  0.3166 -0.0667  1.3540
  105Eth    Hco 3340   1.048   1.794   9.786  1.3741 -0.4437  0.1777
  105Eth     Ch 3341   1.132   1.811   9.984 -0.0905 -0.5545  0.4842
  105Eth    Hcc 3342   1.212   1.749   9.942  1.0970  0.8600  0.6153
  105Eth    Hcc 3343   1.118   1.783  10.088 -1.9802 -0.7281  0.1938
  105Eth    Hcc 3344   1.161   1.915   9.968  0.5364 -0.7744  0.1567
  106Eth     Ho 3345   2.433   2.454   1.937 -0.8590  0.6619  0.8474
  106Eth     Oh 3346   2.434   2.461   1.844  0.3471  0.4471  0.8315
  106Eth     Co 3347   2.389   2.594   1.828  0.1719 -0.0357 -0.1519
  106Eth    Hco 3348   2.460   2.673   1.853  2.0623 -1.1971 -1.7669
  106Eth    Hco 3349   2.308   2.609   1.900  1.5318  0.6661  1.2561
  106Eth     Ch 3350   2.345   2.608   1.685 -0.5902  0.0763 -0.0671
  106Eth    Hcc 3351   2.297   2.704   1.666 -1.1738 -0.2189 -0.1173
  106Eth    Hcc 3352   2.262   2.537   1.673  1.0949 -1.8557 -0.4954
  106Eth    Hcc 3353   2.421   2.584   1.611 -0.7368 -0.4714 -0.0412
  107Eth     Ho 3354   2.307   2.147   8.322  0.3405  0.9603 -0.1732
  107Eth     Oh 3355   2.247   2.146   8.251  0.1778 -0.9303 -0.0499
  107Eth     Co 3356   2.306   2.123   8.120  0.5214 -0.4259 -0.1356
  107Eth    Hco 3357   2.379   2.042   8.118  0.5378 -0.4077 -0.2430
  107Eth    Hco 3358   2.379   2.202   8.102 -0.5410  0.0323 -2.6711
  107Eth     Ch 3359   2.201   2.130   8.013  0.5084 -0.9997  0.5432
  107Eth    Hcc 3360   2.251   2.140   7.917 -1.7850  1.4712 -0.4625
  107Eth    Hcc 3361   2.142   2.222   8.014  0.3910 -1.0694  0.1189
  107Eth    Hcc 3362   2.135   2.044   8.012  0.1446 -0.7168 -1.5400
  108Eth     Ho 3363   2.133   1.510   6.010  0.5750  0.6596  1.6260
  108Eth     Oh 3364   2.084   1.590   6.016  0.0971  0.5266 -0.0634
  108Eth     Co 3365   2.094   1.614   6.155 -0.5587 -0.0004 -1.1486
  108Eth    Hco 3366   2.189   1.605   6.208 -1.1814  3.4596  0.6898
  108Eth    Hco 3367   2.025   1.547   6.207 -1.0068  1.3860  0.0786
  108Eth     Ch 3368   2.054   1.762   6.174 -0.6887  0.5723  0.7581
  108Eth    Hcc 3369   2.037   1.785   6.279 -2.6519  0.4731  0.4890
  108Eth    Hcc 3370   1.963   1.792   6.123  0.1150 -0.7749 -1.5443
  108Eth    Hcc 3371   2.134   1.825   6.135 -0.1042  0.2482  1.4281
  109Eth     Ho 3372   2.859   0.855   4.998  0.0293 -0.1558  0.9970
  109Eth     Oh 3373   2.928   0.919   5.005  0.2167 -0.2322 -0.0853
  109Eth     Co 3374   2.909   0.988   5.125  0.7365  0.2568 -0.6351
  109Eth    Hco 3375   2.861   0.926   5.201  1.2948  1.6344  0.8893
  109Eth    Hco 3376   2.844   1.074   5.109 -0.8030 -0.2517  2.3908
  109Eth     Ch 3377   3.041   1.028   5.188 -0.8534 -0.4316  0.8676
  109Eth    Hcc 3378   3.113   1.058   5.112 -1.8337 -1.2908 -0.4244
  109Eth    Hcc 3379   3.087   0.947   5.245  2.5099  2.0216  1.8428
  109Eth    Hcc 3380   3.031   1.113   5.256 -2.1492 -0.7844  1.1353
  110Eth     Ho 3381   2.550   2.893   5.347  0.7349  1.1084  1.0339
  110Eth     Oh 3382   2.498   2.950   5.293  0.0297  0.3339  0.8750
  110Eth     Co 3383   2.430   2.868   5.197 -0.1676  0.2033  0.4078
  110Eth    Hco 3384   2.361   2.806   5.256 -2.7081  3.7955  1.4216
  110Eth    Hco 3385   2.497   2.803   5.142 -2.9602 -1.4464 -1.1465
  110Eth     Ch 3386   2.350   2.953   5.095  0.1472  0.3322 -0.6732
  110Eth    Hcc 3387   2.415   3.038   5.073  0.6449  0.6771  1.9971
  110Eth    Hcc 3388   2.254   2.991   5.130  1.0636  0.9060  1.2648
  110Eth    Hcc 3389   2.325   2.901   5.002 -0.9957 -0.4023  0.0295
  111Eth     Ho 3390   2.248   0.635   8.360  0.9393 -2.0877  0.0112
  111Eth     Oh 3391   2.200   0.582   8.299  0.2027 -0.6676 -0.6678
  111Eth     Co 3392   2.082   0.655   8.280 -0.3019 -0.0111 -0.8469
  111Eth    Hco 3393   2.092   0.712   8.187 -1.9731 -1.2648 -1.8129
  111Eth    Hco 3394   2.073   0.729   8.360 -0.2008 -0.1937 -0.6695
  111Eth     Ch 3395   1.960   0.559   8.276 -0.0961  0.2700 -0.7726
  111Eth    Hcc 3396   1.959   0.503   8.183 -0.0974 -2.3889  0.7855
  111Eth    Hcc 3397   1.876   0.629   8.277  2.1275  3.0408  0.4976
  111Eth    Hcc 3398   1.949   0.492   8.361  2.8622  0.8451  0.1080
  112Eth     Ho 3399   0.326   0.319   9.769  0.9535  0.2872 -1.8148
  112Eth     Oh 3400   0.357   0.402   9.800  0.1461  0.0433 -0.3210
  112Eth     Co 3401   0.321   0.410   9.935 -0.1139 -1.1488 -0.4780
  112Eth    Hco 3402   0.402   0.357   9.985 -1.1534 -1.5064  0.8434
  112Eth    Hco 3403   0.220   0.373   9.951 -0.0830 -1.1550 -0.2992
  112Eth     Ch 3404   0.328   0.561   9.984 -0.5285  0.6825 -0.0712
  112Eth    Hcc 3405   0.298   0.573  10.088 -1.4408 -0.6389 -0.1725
  112Eth    Hcc 3406   0.259   0.612   9.916 -2.6580  0.3511  1.7677
  112Eth    Hcc 3407   0.425   0.607   9.967  0.6821 -1.0614  1.8975
  113Eth     Ho 3408   1.661   0.903   9.423  0.0364 -1.7626 -0.9397
  113Eth     Oh 3409   1.696   0.971   9.367 -0.9536 -0.7006 -0.2893
  113Eth     Co 3410   1.630   0.964   9.238 -0.0414  0.5912 -0.2920
  113Eth    Hco 3411   1.531   1.004   9.257 -0.2776 -0.6198  1.1155
  113Eth    Hco 3412   1.609   0.863   9.206  2.7194  0.1302 -0.7809
  113Eth     Ch 3413   1.714   1.042   9.146 -0.2832 -0.5559  0.2362
  113Eth    Hcc 3414   1.750   1.134   9.192  0.7678 -0.3259 -1.0174
  113Eth    Hcc 3415   1.654   1.076   9.061 -1.0487  2.4310  1.8774
  113Eth    Hcc 3416   1.796   0.987   9.101  0.3143 -0.7306  1.5310
  114Eth     Ho 3417   1.327   2.359   1.630 -0.3134 -0.7601  0.5162
  114Eth     Oh 3418   1.269   2.427   1.659 -0.2203 -0.6038  0.3398
  114Eth     Co 3419   1.178   2.430   1.551 -0.2296 -0.3716  0.3754
  114Eth    Hco 3420   1.146   2.325   1.550  2.7100 -1.3070 -1.0069
  114Eth    Hco 3421   1.244   2.444   1.465 -1.1317 -0.0669 -0.2721
  114Eth     Ch 3422   1.077   2.544   1.567 -0.3982 -0.1427  0.3582
  114Eth    Hcc 3423   1.104   2.644   1.533 -2.0501  0.1096 -0.2585
  114Eth    Hcc 3424   1.041   2.547   1.670 -0.5465 -1.2394  0.3463
  114Eth    Hcc 3425   0.992   2.502   1.512 -1.3029  0.3365  1.3593
  115Eth     Ho 3426   0.536   0.319   4.949  1.1069 -1.4889  2.4039
  115Eth     Oh 3427   0.537   0.404   4.989  0.1379 -0.2746  0.0019
  115Eth     Co 3428   0.669   0.454   4.982  0.6263  0.0673 -0.1562
  115Eth    Hco 3429   0.682   0.514   4.892 -2.3701 -0.5253 -1.0371
  115Eth    Hco 3430   0.741   0.373   4.992 -1.2832 -1.3424  2.7595
  115Eth     Ch 3431   0.685   0.549   5.100  0.1380 -0.2150  0.3467
  115Eth    Hcc 3432   0.675   0.500   5.196 -1.3855 -0.3802  0.1221
  115Eth    Hcc 3433   0.615   0.633   5.099 -2.2758 -2.1955 -0.8817
  115Eth    Hcc 3434   0.785   0.587   5.077 -0.1638  0.5077  0.1992
  116Eth     Ho 3435   1.072   3.149   1.869  0.6639 -0.6123  0.3202
  116Eth     Oh 3436   1.123   3.137   1.791  0.2353 -0.2047 -0.0263
  116Eth     Co 3437   1.052   3.067   1.688  0.1591  0.2330 -0.3935
  116Eth    Hco 3438   0.954   3.109   1.667 -0.0424 -0.5251 -0.9846
  116Eth    Hco 3439   1.034   2.965   1.722  1.0152 -0.0375 -0.7481
  116Eth     Ch 3440   1.122   3.056   1.559  0.3685 -0.3590  0.3011
  116Eth    Hcc 3441   1.065   3.069   1.467  1.0017  1.0031  0.0933
  116Eth    Hcc 3442   1.168   2.958   1.551  1.9847  0.2950  1.3879
  116Eth    Hcc 3443   1.192   3.139   1.566 -1.3015  1.1384 -0.1987
  117Eth     Ho 3444   3.147   0.799   8.428  1.1375  1.1698 -0.3058
  117Eth     Oh 3445   3.115   0.852   8.499  0.7629  0.1538  0.2953
  117Eth     Co 3446   3.006   0.927   8.457  0.1462 -0.3973 -0.2978
  117Eth    Hco 3447   2.920   0.865   8.434 -1.5806  1.7909  0.0061
  117Eth    Hco 3448   3.022   0.979   8.362 -1.1198 -2.4176 -1.6458
  117Eth     Ch 3449   2.982   1.036   8.567 -0.7992 -0.1534 -0.4387
  117Eth    Hcc 3450   2.917   1.109   8.519  2.4339  1.5111 -2.4833
  117Eth    Hcc 3451   3.078   1.079   8.595 -0.4904 -1.5282  0.7080
  117Eth    Hcc 3452   2.926   1.002   8.655  1.8238  0.5974  1.5772
  118Eth     Ho 3453   0.306   1.929   6.082 -0.0712  1.1995  0.4065
  118Eth     Oh 3454   0.250   1.871   6.131  0.3711  0.0140 -0.4766
  118Eth     Co 3455   0.214   1.761   6.044 -0.3049  1.0277 -0.1690
  118Eth    Hco 3456   0.291   1.728   5.975  0.6797  1.5074  0.6988
  118Eth    Hco 3457   0.130   1.793   5.983 -0.0737 -0.4501 -1.2978
  118Eth     Ch 3458   0.177   1.641   6.133 -0.2642 -0.2557  0.2636
  118Eth    Hcc 3459   0.161   1.556   6.066  0.6747 -0.2380  0.0069
  118Eth    Hcc 3460   0.087   1.653   6.193 -0.6295  2.1215 -0.6913
  118Eth    Hcc 3461   0.264   1.610   6.190 -1.4664 -3.6740  0.3124
  119Eth     Ho 3462   2.886   0.834   5.419 -1.7260  1.2157 -0.0786
  119Eth     Oh 3463   2.938   0.878   5.484  0.0611 -0.7046 -0.1589
  119Eth     Co 3464   3.069   0.819   5.506  0.6510 -0.5837  0.9357
  119Eth    Hco 3465   3.108   0.792   5.407 -3.3345 -2.0650 -0.3529
  119Eth    Hco 3466   3.050   0.727   5.560  0.3545  0.3536  2.4558
  119Eth     Ch 3467   3.171   0.909   5.571 -0.4081  0.0440  0.1216
  119Eth    Hcc 3468   3.204   0.998   5.517 -1.2982 -0.4258 -1.2218
  119Eth    Hcc 3469   3.265   0.859   5.593 -0.2709  0.2185 -0.0640
  119Eth    Hcc 3470   3.137   0.929   5.673  1.5617  1.8507  0.4599
  120Eth     Ho 3471   2.387   2.716   4.548  1.1478  0.8409  0.1425
  120Eth     Oh 3472   2.395   2.774   4.621 -0.3489  0.4729  0.6357
  120Eth     Co 3473   2.519   2.740   4.686  0.6157 -0.1627  0.5395
  120Eth    Hco 3474   2.597   2.757   4.611 -0.3201  1.9235  0.0086
  120Eth    Hco 3475   2.527   2.637   4.721  2.5838  0.1929  1.2393
  120Eth     Ch 3476   2.544   2.834   4.803  0.6276 -0.0250  0.2546
  120Eth    Hcc 3477   2.640   2.810   4.849  1.3997  1.7420 -0.4186
  120Eth    Hcc 3478   2.466   2.821   4.878 -1.8253 -0.6137 -2.3154
  120Eth    Hcc 3479   2.551   2.938   4.774  1.3516  0.0595  0.7141
  121Eth     Ho 3480   0.399   0.074   1.566  1.3955  0.3288 -0.0594
  121Eth     Oh 3481   0.416  -0.018   1.559 -0.0392  0.0654 -0.2762
  121Eth     Co 3482   0.513  -0.056   1.459 -0.1891 -0.0387  0.4619
  121Eth    Hco 3483   0.561   0.041   1.443  0.4470 -0.2664  0.9908
  121Eth    Hco 3484   0.455  -0.080   1.370  0.2075 -2.5793  0.8635
  121Eth     Ch 3485   0.596  -0.169   1.511 -0.6767 -0.4278  0.5124
  121Eth    Hcc 3486   0.647  -0.232   1.438 -1.1747 -1.5138  1.0825
  121Eth    Hcc 3487   0.535  -0.245   1.561 -0.9663 -0.7688 -0.3396
  121Eth    Hcc 3488   0.673  -0.127   1.575  0.5496  1.1745 -1.9271
  122Eth     Ho 3489   2.683   0.581   1.512 -0.0307 -1.7428  3.2161
  122Eth     Oh 3490   2.770   0.597   1.543  0.7801  0.2154  0.1586
  122Eth     Co 3491   2.840   0.485   1.486 -0.7425 -0.2028 -0.8357
  122Eth    Hco 3492   2.909   0.519   1.408  0.7853  4.0291  2.1668
  122Eth    Hco 3493   2.773   0.411   1.442 -0.3546 -0.3307 -1.2105
  122Eth     Ch 3494   2.925   0.417   1.596  0.3752  0.4118 -0.3311
  122Eth    Hcc 3495   3.024   0.458   1.612 -0.4466  1.2780  2.9196
  122Eth    Hcc 3496   2.944   0.315   1.564 -0.8326  0.5428 -1.5277
  122Eth    Hcc 3497   2.870   0.416   1.690 -1.7599 -0.5829 -1.5595
  123Eth     Ho 3498   2.839   2.283   1.714  1.2143  1.9370  0.4513
  123Eth     Oh 3499   2.918   2.236   1.695  0.0200  0.1471 -0.2316
  123Eth     Co 3500   2.953   2.250   1.561  0.1048 -0.0214  0.5450
  123Eth    Hco 3501   2.943   2.355   1.535 -0.6438 -0.6911 -2.0482
  123Eth    Hco 3502   2.884   2.190   1.502  0.3815  0.4279 -0.2443
  123Eth     Ch 3503   3.090   2.211   1.535  0.2281  0.1724 -0.0599
  123Eth    Hcc 3504   3.155   2.295   1.559 -0.2228  0.9954 -1.6157
  123Eth    Hcc 3505   3.106   2.189   1.429  0.8235  0.1737  0.0287
  123Eth    Hcc 3506   3.108   2.112   1.577 -3.2315  0.7454  2.9720
  124Eth     Ho 3507   2.358   0.643   8.169  0.8403 -1.4954  1.4045
  124Eth     Oh 3508   2.432   0.606   8.125  0.2596  0.1020 -1.0015
  124Eth     Co 3509   2.463   0.686   8.007 -0.2170  0.0098 -0.0225
  124Eth    Hco 3510   2.502   0.786   8.026 -0.0171 -0.0743  0.0126
  124Eth    Hco 3511   2.370   0.707   7.954 -1.3120 -2.9474  0.6412
  124Eth     Ch 3512   2.566   0.589   7.931 -0.4856  0.1335  0.0519
  124Eth    Hcc 3513   2.599   0.624   7.834 -3.3106 -0.9916 -1.3610
  124Eth    Hcc 3514   2.496   0.508   7.909 -1.6362  1.3738 -0.9568
  124Eth    Hcc 3515   2.644   0.542   7.992 -0.1791  2.0959  1.2063
  125Eth     Ho 3516   2.816   1.703   9.643 -0.2036 -0.4707  0.3109
  125Eth     Oh 3517   2.898   1.684   9.684  0.2049 -0.2416 -0.3771
  125Eth     Co 3518   2.919   1.756   9.801  0.3877  0.0334  0.2105
  125Eth    Hco 3519   2.885   1.704   9.890  2.1406  0.1905  0.9859
  125Eth    Hco 3520   2.861   1.849   9.792 -0.3409 -0.5358 -1.1220
  125Eth     Ch 3521   3.067   1.792   9.812 -0.3882  0.4193 -0.2574
  125Eth    Hcc 3522   3.105   1.847   9.726  4.0468 -2.3992 -0.2376
  125Eth    Hcc 3523   3.127   1.701   9.819  0.1283  0.8099  0.3906
  125Eth    Hcc 3524   3.097   1.853   9.897 -0.3346 -0.5079  0.3965
  126Eth     Ho 3525   1.270   1.139   7.630  0.6303 -0.3454  0.4003
  126Eth     Oh 3526   1.246   1.144   7.539  0.3043  0.9290  0.5430
  126Eth     Co 3527   1.278   1.274   7.502  0.1952  0.3676  0.1264
  126Eth    Hco 3528   1.375   1.285   7.551 -0.6579 -2.0311  2.4597
  126Eth    Hco 3529   1.211   1.342   7.553  0.2086 -1.1968  2.2782
  126Eth     Ch 3530   1.266   1.289   7.351  1.0043  0.2567  0.3924
  126Eth    Hcc 3531   1.165   1.285   7.312  1.8216  1.1456 -1.8711
  126Eth    Hcc 3532   1.328   1.220   7.294 -1.9522 -0.9550 -1.4107
  126Eth    Hcc 3533   1.307   1.385   7.319  1.8795  0.3388  1.6752
  127Eth     Ho 3534   0.966   0.117   3.491  0.1378  1.0876  1.1118
  127Eth     Oh 3535   0.949   0.206   3.466 -0.7320  0.6500  0.1247
  127Eth     Co 3536   0.971   0.214   3.329  1.0027  0.1677 -0.3632
  127Eth    Hco 3537   0.916   0.138   3.273 -0.1694  1.6240 -1.2273
  127Eth    Hco 3538   1.077   0.199   3.309  1.3471  0.4453  1.1874
  127Eth     Ch 3539   0.932   0.348   3.289  0.0144 -0.2047  0.1130
  127Eth    Hcc 3540   0.826   0.373   3.290  0.4561  1.9090 -1.3685
  127Eth    Hcc 3541   0.955   0.367   3.184 -0.4266  1.5515  0.3184
  127Eth    Hcc 3542   0.991   0.425   3.341  0.3935  1.3291 -2.4954
  128Eth     Ho 3543   0.462   2.935   2.074  2.1399  1.2217  0.1354
  128Eth     Oh 3544   0.454   2.972   2.160 -0.6838 -0.5094  0.6700
  128Eth     Co 3545   0.565   3.055   2.189 -0.2942  0.2555 -0.3335
  128Eth    Hco 3546   0.562   3.139   2.119  0.9886  0.9647  0.4568
  128Eth    Hco 3547   0.658   3.007   2.159  1.2817  2.1277  1.4262
  128Eth     Ch 3548   0.562   3.090   2.335 -0.0493  0.0606  0.2626
  128Eth    Hcc 3549   0.536   3.000   2.390 -0.5810  0.0611  0.0215
  128Eth    Hcc 3550   0.484   3.164   2.354  1.8426  2.1601  0.0292
  128Eth    Hcc 3551   0.659   3.128   2.367  1.9585 -1.9083 -3.1999
  129Eth     Ho 3552   1.055   0.013   9.747 -2.1990  2.6505 -0.1152
  129Eth     Oh 3553   1.117   0.076   9.778  0.0913  0.3751  0.1128
  129Eth     Co 3554   1.045   0.189   9.808  0.6675  0.3741  0.1559
  129Eth    Hco 3555   0.943   0.180   9.769  0.7950 -2.2621  0.3758
  129Eth    Hco 3556   1.093   0.274   9.759  0.0213  0.2583 -0.7123
  129Eth     Ch 3557   1.034   0.223   9.957 -0.8705  0.1544 -0.0590
  129Eth    Hcc 3558   1.129   0.213  10.009 -0.9171  0.0478  0.0074
  129Eth    Hcc 3559   0.972   0.143   9.997 -0.5181 -0.3872 -0.5800
  129Eth    Hcc 3560   0.974   0.312   9.974  1.0975  1.1717  1.8696
  130Eth     Ho 3561   0.115   1.264   9.899  0.5502 -1.9033  1.2584
  130Eth     Oh 3562   0.207   1.282   9.901  0.2726 -0.1793  0.0824
  130Eth     Co 3563   0.273   1.192   9.988 -0.5401 -0.2557  0.5301
  130Eth    Hco 3564   0.200   1.160  10.062 -0.3639  1.7473  1.5827
  130Eth    Hco 3565   0.348   1.253  10.038  0.7667 -0.9467 -0.5481
  130Eth     Ch 3566   0.341   1.073   9.931  0.4042 -0.1468 -0.2115
  130Eth    Hcc 3567   0.297   1.004   9.859  1.1751 -0.9780  0.1105
  130Eth    Hcc 3568   0.371   1.010  10.015  1.7449  1.1516  0.2936
  130Eth    Hcc 3569   0.427   1.112   9.877  0.6236  2.9316  2.1624
  131Eth     Ho 3570   0.573   2.279   9.844 -0.8638  0.3277  0.3297
  131Eth     Oh 3571   0.554   2.188   9.829  0.1732  0.1142  0.2876
  131Eth     Co 3572   0.656   2.133   9.751  0.2965  0.0458 -0.0149
  131Eth    Hco 3573   0.755   2.170   9.779 -0.8966  4.5616 -1.2590
  131Eth    Hco 3574   0.656   2.169   9.648 -2.8693  0.6811  0.1824
  131Eth     Ch 3575   0.647   1.981   9.769 -0.9146  0.1392  0.5937
  131Eth    Hcc 3576   0.733   1.920   9.743 -1.5274 -0.5427  0.1527
  131Eth    Hcc 3577   0.561   1.954   9.708 -2.0681  0.8696  1.8757
  131Eth    Hcc 3578   0.632   1.948   9.872 -2.0455  1.4471  0.8697
  132Eth     Ho 3579   0.149   0.151   2.436  0.9845 -0.4333  0.3134
  132Eth     Oh 3580   0.156   0.077   2.379  0.0174 -0.2500 -0.0585
  132Eth     Co 3581   0.271   0.085   2.308 -0.0222 -0.1868  0.5380
  132Eth    Hco 3582   0.338   0.148   2.367  2.1617 -0.2972 -1.7541
  132Eth    Hco 3583   0.251   0.136   2.214  1.4733 -0.7031 -0.0814
  132Eth     Ch 3584   0.333  -0.051   2.286 -0.2157 -0.2610  0.0097
  132Eth    Hcc 3585   0.274  -0.117   2.223 -0.3651  0.5146 -0.6729
  132Eth    Hcc 3586   0.344  -0.094   2.386 -1.4440  0.1263  0.3130
  132Eth    Hcc 3587   0.431  -0.035   2.240  0.0463  0.0539  0.6648
  133Eth     Ho 3588   0.489   2.829   5.723  0.7984  0.2511 -1.1850
  133Eth     Oh 3589   0.483   2.749   5.772  0.1656  0.8305 -0.2975
  133Eth     Co 3590   0.428   2.772   5.898 -0.4231 -0.0066  0.8856
  133Eth    Hco 3591   0.329   2.812   5.878 -0.7102 -1.6670 -1.1316
  133Eth    Hco 3592   0.487   2.854   5.939 -2.2970  0.2394  3.1737
  133Eth     Ch 3593   0.433   2.652   5.993 -0.2701 -0.2047 -0.5856
  133Eth    Hcc 3594   0.531   2.638   6.038  0.3094 -0.0668 -1.7768
  133Eth    Hcc 3595   0.410   2.565   5.930  0.6606 -1.4023  0.6945
  133Eth    Hcc 3596   0.364   2.650   6.077  0.2144  1.3716 -0.1517
  134Eth     Ho 3597   2.585   0.944   2.132  2.1527 -1.4649 -1.5699
  134Eth     Oh 3598   2.638   1.019   2.152  0.1675 -0.4120 -0.0280
  134Eth     Co 3599   2.595   1.079   2.280 -0.8917  0.1970  0.1897
  134Eth    Hco 3600   2.637   1.019   2.361 -2.0887  1.8067  2.0721
  134Eth    Hco 3601   2.487   1.073   2.292 -0.9707 -1.1194 -1.0945
  134Eth     Ch 3602   2.652   1.219   2.288  0.3139  0.6263 -0.0707
  134Eth    Hcc 3603   2.761   1.229   2.282  0.3597  0.9132  1.0000
  134Eth    Hcc 3604   2.628   1.261   2.386 -0.3967 -1.6127  0.7474
  134Eth    Hcc 3605   2.602   1.290   2.222 -0.3154  1.4682  1.2755
  135Eth     Ho 3606   0.789   3.241   6.236  1.3567 -0.7267 -0.8062
  135Eth     Oh 3607   0.827   3.228   6.321  0.4037 -0.0379 -0.2591
  135Eth     Co 3608   0.725   3.177   6.409  0.3010  0.1520 -0.4425
  135Eth    Hco 3609   0.662   3.098   6.368 -0.5432  1.4419 -1.7250
  135Eth    Hco 3610   0.653   3.259   6.420 -1.5930 -1.4481 -0.6003
  135Eth     Ch 3611   0.777   3.128   6.540 -0.8289  0.3676 -0.2491
  135Eth    Hcc 3612   0.857   3.060   6.513 -1.6666 -0.8046  0.1519
  135Eth    Hcc 3613   0.704   3.077   6.604  0.6106 -0.2695  0.9296
  135Eth    Hcc 3614   0.816   3.212   6.598 -0.4690  0.4418 -0.5973
  136Eth     Ho 3615   0.829   2.411   9.835  2.2752  3.5326  3.7195
  136Eth     Oh 3616   0.745   2.451   9.832  0.3422 -0.3663  0.7045
  136Eth     Co 3617   0.740   2.562   9.921 -0.2410  0.8293  0.1930
  136Eth    Hco 3618   0.762   2.516  10.017  0.1729 -0.4811 -0.5302
  136Eth    Hco 3619   0.638   2.600   9.933 -0.2478  1.0306 -0.5149
  136Eth     Ch 3620   0.826   2.672   9.865  0.1181 -0.1946  0.1790
  136Eth    Hcc 3621   0.785   2.708   9.771  0.9023  0.0372 -0.0751
  136Eth    Hcc 3622   0.924   2.642   9.828  0.5797  2.6802 -1.0638
  136Eth    Hcc 3623   0.833   2.756   9.933  0.9865  0.3627 -0.5928
  137Eth     Ho 3624   1.068   2.476   9.796 -0.0165  0.1361  1.2374
  137Eth     Oh 3625   1.021   2.397   9.812 -0.6569  0.2116 -0.1694
  137Eth     Co 3626   1.090   2.325   9.916 -0.0155 -0.4495 -0.1773
  137Eth    Hco 3627   1.107   2.387  10.004  1.2358 -1.8192  0.5615
  137Eth    Hco 3628   1.193   2.312   9.881  0.0941  2.0867 -0.9399
  137Eth     Ch 3629   1.011   2.202   9.956 -0.2438 -0.3964  0.6775
  137Eth    Hcc 3630   0.926   2.239  10.013  1.0718  3.5204  0.2457
  137Eth    Hcc 3631   1.068   2.133  10.018 -1.0251 -0.2335  1.5877
  137Eth    Hcc 3632   0.989   2.160   9.858  1.6576 -0.6235  0.3133
  138Eth     Ho 3633   2.716   1.604   8.404 -0.3582  1.9197 -0.3872
  138Eth     Oh 3634   2.627   1.576   8.413  0.2996 -0.2407 -0.1906
  138Eth     Co 3635   2.628   1.489   8.523 -0.3839 -0.2482  0.3882
  138Eth    Hco 3636   2.612   1.539   8.618 -0.4339  0.9595 -0.2443
  138Eth    Hco 3637   2.730   1.454   8.536 -0.5048 -0.0760  1.9278
  138Eth     Ch 3638   2.535   1.365   8.499  0.1755 -0.3141 -0.1417
  138Eth    Hcc 3639   2.427   1.380   8.492  0.2582  1.0438  1.2647
  138Eth    Hcc 3640   2.547   1.294   8.581 -2.1625 -2.0987 -1.2904
  138Eth    Hcc 3641   2.567   1.311   8.410 -0.1363  1.7539 -1.5505
  139Eth     Ho 3642   1.842   1.184   1.751 -0.0699  1.0758  0.3007
  139Eth     Oh 3643   1.898   1.238   1.698  0.6588 -0.0833 -0.1256
  139Eth     Co 3644   1.820   1.322   1.615 -0.1247  0.5852  0.4324
  139Eth    Hco 3645   1.759   1.373   1.690 -0.1890  3.1087 -1.2547
  139Eth    Hco 3646   1.771   1.258   1.542 -0.8238  0.4992  0.9743
  139Eth     Ch 3647   1.927   1.409   1.543  0.5824  0.0221  0.2377
  139Eth    Hcc 3648   1.872   1.466   1.469  0.4817  1.5378  1.4592
  139Eth    Hcc 3649   2.000   1.352   1.486 -0.0981  0.2783 -0.9144
  139Eth    Hcc 3650   1.972   1.485   1.607 -0.4212  1.8902 -1.2234
  140Eth     Ho 3651   2.047   0.731   3.626  1.2187 -1.3397  2.1712
  140Eth     Oh 3652   2.111   0.797   3.645 -0.0914  0.5565  0.2784
  140Eth     Co 3653   2.217   0.754   3.561  0.7242 -0.0616  0.0642
  140Eth    Hco 3654   2.196   0.784   3.459  1.6699 -0.4079 -0.2327
  140Eth    Hco 3655   2.218   0.646   3.576 -2.0913 -0.2504 -0.8574
  140Eth     Ch 3656   2.346   0.817   3.615  0.0400 -0.8909  0.3959
  140Eth    Hcc 3657   2.414   0.821   3.530  0.9081 -1.1610  1.0751
  140Eth    Hcc 3658   2.387   0.766   3.702 -1.5041 -2.3566  0.2937
  140Eth    Hcc 3659   2.341   0.923   3.640  0.9250 -0.2780 -1.9341
  141Eth     Ho 3660   3.153   1.662   1.801 -1.0052 -0.2405 -0.9562
  141Eth     Oh 3661   3.178   1.593   1.742  0.2537 -0.1818 -0.5146
  141Eth     Co 3662   3.236   1.652   1.630 -0.1559  0.6195  0.1545
  141Eth    Hco 3663   3.262   1.567   1.567  0.1583  1.2100 -0.5099
  141Eth    Hco 3664   3.327   1.699   1.667  0.3647  1.0429 -1.6441
  141Eth     Ch 3665   3.151   1.755   1.563 -0.3453 -0.0335  0.1167
  141Eth    Hcc 3666   3.132   1.846   1.620  0.9384  0.3314 -0.0330
  141Eth    Hcc 3667   3.058   1.702   1.543  0.8344 -2.0392 -0.1491
  141Eth    Hcc 3668   3.196   1.766   1.464 -2.5106  2.4200 -0.6481
  142Eth     Ho 3669   1.077   0.691   9.555  1.2322  1.5973  0.0481
  142Eth     Oh 3670   1.081   0.690   9.649 -0.4403  0.1050  0.1112
  142Eth     Co 3671   1.173   0.578   9.668 -0.0196  0.0951  0.2603
  142Eth    Hco 3672   1.271   0.601   9.625 -0.3192 -0.6412 -0.8278
  142Eth    Hco 3673   1.132   0.485   9.630 -2.7437  1.1960  0.3835
  142Eth     Ch 3674   1.205   0.570   9.816 -0.7023 -0.0378 -0.2967
  142Eth    Hcc 3675   1.250   0.473   9.839 -0.9923  0.0977  0.8759
  142Eth    Hcc 3676   1.117   0.569   9.881 -0.6276 -2.6606 -0.1577
  142Eth    Hcc 3677   1.270   0.647   9.857 -1.8113  0.6892  0.1137
  143Eth     Ho 3678   3.234   0.566   5.697 -2.2168 -1.7164 -0.5889
  143Eth     Oh 3679   3.219   0.570   5.790  0.4888 -0.0015 -0.1863
  143Eth     Co 3680   3.319   0.657   5.848  1.2242  0.1114  0.2485
  143Eth    Hco 3681   3.380   0.716   5.779  0.3094  1.1861  0.3378
  143Eth    Hco 3682   3.392   0.603   5.908 -0.0171 -1.2826  0.5266
  143Eth     Ch 3683   3.246   0.756   5.941  0.4337 -0.5544  0.0373
  143Eth    Hcc 3684   3.169   0.812   5.888 -0.7341 -0.4547  1.8209
  143Eth    Hcc 3685   3.313   0.825   5.992  0.7430 -1.2448  0.5716
  143Eth    Hcc 3686   3.193   0.706   6.022 -1.9704  2.0450  0.1433
  144Eth     Ho 3687   1.337   2.584   1.671  1.3089  0.1192 -1.3366
  144Eth     Oh 3688   1.351   2.677   1.669  0.5131  0.2832  0.0259
  144Eth     Co 3689   1.446   2.695   1.562 -0.1634  0.4505  0.5565
  144Eth    Hco 3690   1.395   2.686   1.466  1.1674 -0.7586 -0.0631
  144Eth    Hco 3691   1.516   2.611   1.556 -1.0888 -0.3243  0.3909
  144Eth     Ch 3692   1.530   2.821   1.587 -0.3719  0.1170  0.8435
  144Eth    Hcc 3693   1.589   2.809   1.678  0.1138  0.9932  0.6565
  144Eth    Hcc 3694   1.460   2.904   1.595 -2.1563 -1.1351 -1.1321
  144Eth    Hcc 3695   1.582   2.839   1.493 -2.5821 -2.9351 -1.0320
  145Eth     Ho 3696   1.069   1.532   3.623  0.0594 -0.3754 -0.4390
  145Eth     Oh 3697   1.034   1.466   3.680  0.7147  0.1605  0.5996
  145Eth     Co 3698   0.940   1.392   3.611  0.5690  0.3316 -0.4635
  145Eth    Hco 3699   0.899   1.459   3.536 -1.9049 -1.3934 -0.7048
  145Eth    Hco 3700   0.863   1.359   3.681 -0.8270  0.6976 -1.7939
  145Eth     Ch 3701   0.999   1.274   3.533  0.2647  0.8081 -0.7326
  145Eth    Hcc 3702   1.026   1.200   3.608 -0.2783 -0.4671 -1.7833
  145Eth    Hcc 3703   1.082   1.292   3.464  0.6499 -1.9798 -1.0541
  145Eth    Hcc 3704   0.917   1.226   3.480  0.3212  1.0186 -1.0176
  146Eth     Ho 3705   2.104   0.424   6.829  1.9190  0.2315 -0.9207
  146Eth     Oh 3706   2.064   0.341   6.812  0.0877  0.8543  0.1815
  146Eth     Co 3707   1.935   0.330   6.866 -0.9424  0.4791  0.1528
  146Eth    Hco 3708   1.876   0.413   6.828  0.1136  1.9093  1.5510
  146Eth    Hco 3709   1.941   0.354   6.972 -0.8711 -0.4415  0.3590
  146Eth     Ch 3710   1.868   0.193   6.838  1.2014  0.2693  0.2385
  146Eth    Hcc 3711   1.894   0.115   6.909 -1.3726 -0.0706  0.8294
  146Eth    Hcc 3712   1.886   0.156   6.737  1.9819  0.7775  0.1860
  146Eth    Hcc 3713   1.763   0.219   6.854  1.0025 -1.0217  1.0531
  147Eth     Ho 3714   0.351   1.918   8.787 -0.2612  0.6902  0.0316
  147Eth     Oh 3715   0.314   1.836   8.812  0.0782  0.5239 -0.0089
  147Eth     Co 3716   0.171   1.854   8.825 -0.1899 -0.2778  0.1440
  147Eth    Hco 3717   0.116   1.871   8.733  0.8653  1.1262 -0.2305
  147Eth    Hco 3718   0.153   1.936   8.894 -2.1192 -0.1940 -0.4435
  147Eth     Ch 3719   0.106   1.732   8.891  0.4108  0.5386  0.7930
  147Eth    Hcc 3720   0.004   1.756   8.922  0.4320  4.2323 -1.6047
  147Eth    Hcc 3721   0.154   1.713   8.987  1.1590  0.0753  0.3317
  147Eth    Hcc 3722   0.100   1.639   8.835 -1.3321  0.0997  1.6599
  148Eth     Ho 3723   1.073   0.421   5.677 -0.1132 -0.4261  1.0639
  148Eth     Oh 3724   1.125   0.482   5.726  0.1772 -0.0124  0.2498
  148Eth     Co 3725   1.082   0.476   5.863  0.2568 -0.0386 -0.1393
  148Eth    Hco 3726   1.100   0.372   5.890  0.5188  0.9380  3.7109
  148Eth    Hco 3727   0.975   0.494   5.874  0.2118  0.1724 -0.8990
  148Eth     Ch 3728   1.163   0.563   5.950 -0.1129 -0.1661 -0.5773
  148Eth    Hcc 3729   1.133   0.565   6.054  1.0699 -0.0670 -0.2350
  148Eth    Hcc 3730   1.147   0.666   5.917 -2.3162 -0.7958 -1.5146
  148Eth    Hcc 3731   1.272   0.560   5.944  0.0934  0.7347  2.2784
  149Eth     Ho 3732   0.078   3.129   8.397 -2.1317  0.6620 -1.6670
  149Eth     Oh 3733   0.034   3.181   8.461 -0.1012  0.3653  0.0398
  149Eth     Co 3734   0.110   3.291   8.488  0.1713 -0.1600 -0.1950
  149Eth    Hco 3735   0.112   3.367   8.410 -0.5850 -1.0224 -1.0582
  149Eth    Hco 3736   0.210   3.251   8.501  0.1191 -0.1459  0.2682
  149Eth     Ch 3737   0.075   3.371   8.616 -0.1351  0.3225  0.4690
  149Eth    Hcc 3738  -0.033   3.386   8.615  0.0620  1.8335  0.9674
  149Eth    Hcc 3739   0.128   3.466   8.605 -0.3598  0.4347  0.3532
  149Eth    Hcc 3740   0.104   3.314   8.704  1.2673 -1.1757 -0.9268
  150Eth     Ho 3741   2.003   0.371   5.889 -2.0139 -0.2260 -0.1745
  150Eth     Oh 3742   2.025   0.453   5.850 -0.5594 -0.7311 -0.4264
  150Eth     Co 3743   2.160   0.432   5.823 -0.5743  0.0339 -0.4147
  150Eth    Hco 3744   2.172   0.377   5.730 -2.0764 -0.5458 -0.2798
  150Eth    Hco 3745   2.200   0.375   5.906  0.4497  0.5437 -0.5475
  150Eth     Ch 3746   2.220   0.575   5.821 -0.3199  0.3031  0.1258
  150Eth    Hcc 3747   2.149   0.639   5.769  0.6530  1.3876  0.0986
  150Eth    Hcc 3748   2.313   0.596   5.769 -0.8459  1.2324 -0.4550
  150Eth    Hcc 3749   2.217   0.611   5.924  1.5029  0.0308  0.2915
  151Eth     Ho 3750   1.491   1.023   8.538 -2.2039 -2.4234  0.6064
  151Eth     Oh 3751   1.485   1.066   8.621  0.0896 -0.3690 -0.2415
  151Eth     Co 3752   1.371   1.005   8.680  0.5132  0.5113 -0.5282
  151Eth    Hco 3753   1.374   0.896   8.688  2.0622  0.6938  1.7134
  151Eth    Hco 3754   1.275   1.008   8.628  0.6808 -0.4094 -0.9041
  151Eth     Ch 3755   1.364   1.066   8.821  0.6273 -0.3989  0.2529
  151Eth    Hcc 3756   1.354   1.174   8.805 -0.4532 -0.4841  0.2778
  151Eth    Hcc 3757   1.449   1.060   8.889  1.9386  0.8482 -1.2459
  151Eth    Hcc 3758   1.271   1.032   8.867  2.1198 -0.3990  3.3666
  152Sol     OW 3759   1.246   1.191   2.380 -0.0204 -0.1587 -0.6135
  152Sol     HW 3760   1.231   1.144   2.298  2.3563  1.9719 -2.3590
  152Sol     HW 3761   1.272   1.124   2.443  2.1201 -1.3751 -2.7239
  152Sol     MW 3762   1.247   1.181   2.379  0.0559 -0.3519  0.1865
  153Sol     OW 3763   0.441   3.305   4.722  0.4833  0.7297 -0.4077
  153Sol     HW 3764   0.376   3.330   4.656 -0.4918 -0.1554  0.2001
  153Sol     HW 3765   0.397   3.238   4.774  1.2295  1.4434  1.1600
  153Sol     MW 3766   0.431   3.301   4.721 -0.0806 -0.0316 -0.1048
  154Sol     OW 3767   0.757   1.569   8.059 -0.2421 -0.0046  0.9999
  154Sol     HW 3768   0.765   1.476   8.080  2.3441 -0.0027  0.1485
  154Sol     HW 3769   0.845   1.604   8.069 -0.5248  1.6868 -1.7985
  154Sol     MW 3770   0.765   1.563   8.062 -0.1244  0.0637  0.0603
  155Sol     OW 3771   0.088   2.678   5.317 -0.5691  0.0547 -0.2774
  155Sol     HW 3772   0.137   2.719   5.387 -0.2485 -2.3156  0.9430
  155Sol     HW 3773   0.147   2.679   5.242 -0.2048  0.8910  0.0133
  155Sol     MW 3774   0.097   2.682   5.317 -0.3710 -0.1268  0.6386
  156Sol     OW 3775   2.435   2.510   7.507 -0.0489 -0.4250  0.0566
  156Sol     HW 3776   2.385   2.591   7.512  1.4299  0.5855 -1.3660
  156Sol     HW 3777   2.368   2.441   7.508 -1.4500  0.8785 -1.4064
  156Sol     MW 3778   2.424   2.511   7.508 -0.2518  0.0395 -0.1822
  157Sol     OW 3779   0.804   0.639   3.139  0.1024  0.0065 -0.1791
  157Sol     HW 3780   0.800   0.702   3.068 -2.5713 -0.4649 -0.4923
  157Sol     HW 3781   0.795   0.554   3.097 -1.4500 -0.2815  0.6947
  157Sol     MW 3782   0.803   0.637   3.129 -0.2793 -0.7327  0.2182
  158Sol     OW 3783   2.645   2.397   4.156  0.4170  0.3221 -0.3617
  158Sol     HW 3784   2.704   2.338   4.204  0.1996 -0.5806 -1.2041
  158Sol     HW 3785   2.670   2.387   4.065 -0.5519  0.4836 -0.6505
  158Sol     MW 3786   2.652   2.390   4.152  0.1679 -0.1896  0.6803
  159Sol     OW 3787   0.275   0.888   3.215 -0.2148  0.1628 -0.5834
  159Sol     HW 3788   0.216   0.882   3.290  0.1044 -1.0203 -0.4055
  159Sol     HW 3789   0.256   0.973   3.175 -1.5304  0.0977 -0.1069
  159Sol     MW 3790   0.268   0.895   3.218  0.1373 -1.0757 -0.1195
  160Sol     OW 3791   2.675   0.183   8.032  0.4593  0.3914  0.0825
  160Sol     HW 3792   2.644   0.159   7.944  0.1768  0.8193  0.0594
  160Sol     HW 3793   2.602   0.233   8.069 -0.4528 -1.9815  1.5479
  160Sol     MW 3794   2.665   0.185   8.027 -0.6771 -0.2975  0.2846
  161Sol     OW 3795   2.184   1.539   7.001 -0.3936 -0.0050 -0.2588
  161Sol     HW 3796   2.257   1.580   7.048 -0.2383  0.9322 -1.2908
  161Sol     HW 3797   2.223   1.466   6.955 -0.2911 -0.0980 -0.0268
  161Sol     MW 3798   2.194   1.536   7.001  0.5026 -0.1444 -0.0634
  162Sol     OW 3799   3.010   3.012   8.112  0.2350 -0.0823  0.0182
  162Sol     HW 3800   2.941   2.974   8.167 -0.4943  1.2327  0.0286
  162Sol     HW 3801   3.006   2.963   8.030 -0.5823 -0.1378  0.0919
  162Sol     MW 3802   3.004   3.004   8.110  0.4958 -0.1337  0.3792
  163Sol     OW 3803   0.393   0.347   8.032  0.0663  0.1382 -0.0557
  163Sol     HW 3804   0.472   0.356   7.980  0.2059 -0.5506  0.0450
  163Sol     HW 3805   0.423   0.350   8.123 -0.0829  0.4167 -0.0126
  163Sol     MW 3806   0.402   0.348   8.036 -0.4634  0.3651 -0.1830
  164Sol     OW 3807   1.708   2.259   9.564  0.7114 -0.1641  0.3890
  164Sol     HW 3808   1.785   2.204   9.577  1.2295  0.3692 -0.3726
  164Sol     HW 3809   1.635   2.198   9.560  1.0388 -0.6461  1.5023
  164Sol     MW 3810   1.708   2.249   9.565  0.0468 -0.2006  0.2668
  165Sol     OW 3811   0.361   2.358   4.985  0.0692 -0.0269 -1.0649
  165Sol     HW 3812   0.425   2.327   5.048 -0.6050 -0.7121 -0.7060
  165Sol     HW 3813   0.321   2.278   4.951 -0.4729  0.3883 -1.4053
  165Sol     MW 3814   0.363   2.348   4.988  0.0618  0.2763  0.3611
  166Sol     OW 3815   2.454   0.667   1.528 -0.1874 -0.0996 -0.0214
  166Sol     HW 3816   2.459   0.762   1.539  0.5242 -0.1251 -0.1264
  166Sol     HW 3817   2.362   0.650   1.510  0.0637  0.7921 -2.2068
  166Sol     MW 3818   2.446   0.674   1.528 -0.0621 -0.0872  0.3923
  167Sol     OW 3819   1.309   2.566   7.437 -0.7722 -0.0113 -0.5417
  167Sol     HW 3820   1.219   2.590   7.456 -0.6544  0.1070 -0.1313
  167Sol     HW 3821   1.360   2.599   7.511 -0.4325 -0.3433 -0.6192
  167Sol     MW 3822   1.306   2.571   7.445 -0.0396  0.2894  0.2647
  168Sol     OW 3823   2.989   2.855   3.385  0.7079  0.4049  0.3851
  168Sol     HW 3824   2.927   2.805   3.437  0.3873 -0.2379 -0.6001
  168Sol     HW 3825   2.939   2.881   3.307  1.4149  0.6376  0.0079
  168Sol     MW 3826   2.979   2.853   3.383 -0.0904 -0.4240 -0.0622
  169Sol     OW 3827   2.062   1.340   6.566 -0.3543 -0.1985  0.3336
  169Sol     HW 3828   2.144   1.317   6.522 -0.5941  0.9942 -0.7790
  169Sol     HW 3829   2.047   1.432   6.541 -0.9599  0.2240  2.1998
  169Sol     MW 3830   2.068   1.346   6.560 -0.2978  0.1652 -0.2657
  170Sol     OW 3831   1.211   1.767   3.990 -0.0609  0.4040  0.2356
  170Sol     HW 3832   1.126   1.761   3.945 -1.1068  2.4763  1.8050
  170Sol     HW 3833   1.248   1.679   3.984 -2.1121 -0.4218 -0.8953
  170Sol     MW 3834   1.206   1.759   3.985 -0.5965 -0.7828 -0.6952
  171Sol     OW 3835   0.008   3.380   5.047  0.2539  1.0420 -0.1456
  171Sol     HW 3836  -0.028   3.379   4.958  0.2237 -0.4353 -0.1303
  171Sol     HW 3837   0.097   3.415   5.036  0.5071  0.2032 -0.8626
  171Sol     MW 3838   0.013   3.383   5.038  0.8229  0.3116 -0.1528
  172Sol     OW 3839   0.339   3.318   4.051  0.2523 -0.0247 -0.9889
  172Sol     HW 3840   0.372   3.325   3.962  0.3543  3.9416 -0.7443
  172Sol     HW 3841   0.406   3.361   4.105 -1.2046  0.3163  0.6043
  172Sol     MW 3842   0.348   3.323   4.048  0.5235  0.2921  0.4103
  173Sol     OW 3843   2.318   1.700   3.883 -0.1829 -0.1046  0.0827
  173Sol     HW 3844   2.348   1.763   3.948 -1.2074  0.0434  0.4240
  173Sol     HW 3845   2.321   1.749   3.800 -0.1589  0.1296  0.2199
  173Sol     MW 3846   2.321   1.710   3.881  0.1146 -0.3501 -0.1924
  174Sol     OW 3847   0.152   0.582   3.144  0.0797  0.7507  0.3092
  174Sol     HW 3848   0.130   0.667   3.107 -1.2335  0.5877  0.6803
  174Sol     HW 3849   0.109   0.581   3.229  0.7439  0.0276  0.6410
  174Sol     MW 3850   0.146   0.589   3.148  0.0883  0.1673 -0.4073
  175Sol     OW 3851   1.510   2.625   8.883  0.6674  0.7980  0.1316
  175Sol     HW 3852   1.593   2.642   8.928  2.1130 -0.6660 -1.8877
  175Sol     HW 3853   1.469   2.555   8.935  1.4819  0.3637  0.1928
  175Sol     MW 3854   1.514   2.620   8.892 -0.4342 -0.1007  0.2971
  176Sol     OW 3855   0.449   2.650   4.473  0.0551 -0.6859  0.4848
  176Sol     HW 3856   0.521   2.687   4.524  0.1243 -1.0077  0.6192
  176Sol     HW 3857   0.485   2.637   4.386  1.1307 -3.8529  1.3498
  176Sol     MW 3858   0.458   2.652   4.470  0.4195 -0.3460  0.3938
  177Sol     OW 3859   1.303   2.118   5.877  0.2730  0.1819 -0.1245
  177Sol     HW 3860   1.394   2.097   5.900  0.6249  2.0487  0.2575
  177Sol     HW 3861   1.310   2.160   5.791 -0.3437 -0.6308 -0.5736
  177Sol     MW 3862   1.312   2.120   5.871  0.2760 -0.2939  0.4092
  178Sol     OW 3863   0.314   0.385   4.400 -0.3192 -0.0834  0.6039
  178Sol     HW 3864   0.405   0.361   4.414 -0.7847 -2.4198 -0.1146
  178Sol     HW 3865   0.275   0.382   4.487  0.2844  0.8649  0.9057
  178Sol     MW 3866   0.318   0.382   4.409  0.5925 -0.5408 -0.5086
  179Sol     OW 3867   0.894   0.676   8.490 -0.0622  0.0611  0.0489
  179Sol     HW 3868   0.848   0.754   8.458  0.1491  0.7062  1.2936
  179Sol     HW 3869   0.851   0.655   8.573  1.0928 -0.0581  0.6177
  179Sol     MW 3870   0.886   0.681   8.495 -0.1127  0.4459  0.4552
  180Sol     OW 3871   3.237   3.413   5.794 -0.4085 -0.6606 -0.0025
  180Sol     HW 3872   3.221   3.327   5.754  0.3133 -0.4128 -0.8410
  180Sol     HW 3873   3.331   3.415   5.810 -0.5402 -0.3320  0.7379
  180Sol     MW 3874   3.244   3.405   5.791 -0.4926  0.1529 -0.5141
  181Sol     OW 3875   2.364   0.093   3.244 -0.1056  0.0144  0.6481
  181Sol     HW 3876   2.280   0.080   3.289 -0.0262 -0.6366  0.6042
  181Sol     HW 3877   2.340   0.126   3.158 -0.3083 -0.0217  0.6906
  181Sol     MW 3878   2.354   0.095   3.241 -0.2951 -0.7696 -0.3649
  182Sol     OW 3879   3.260   1.843   7.495  0.1659 -0.2937 -0.0674
  182Sol     HW 3880   3.263   1.789   7.574 -1.3029  1.4051  1.1930
  182Sol     HW 3881   3.239   1.781   7.425  1.6131 -1.8411  0.8207
  182Sol     MW 3882   3.258   1.832   7.496 -0.2233  0.6457  0.1591
  183Sol     OW 3883   0.860   1.909   6.667  0.1253  0.1391 -0.1002
  183Sol     HW 3884   0.841   1.986   6.614  1.2039  0.1854 -0.4274
  183Sol     HW 3885   0.794   1.911   6.736  1.3027  2.4043  0.9986
  183Sol     MW 3886   0.853   1.916   6.668  0.3246  0.0234 -0.1564
  184Sol     OW 3887   1.717   2.401   7.644 -0.2347 -0.5161 -0.6192
  184Sol     HW 3888   1.765   2.386   7.726 -1.1134 -2.0048 -0.3656
  184Sol     HW 3889   1.692   2.313   7.615 -0.9471  0.0997 -1.8817
  184Sol     MW 3890   1.719   2.392   7.649  0.6444  0.2481  0.4007
  185Sol     OW 3891   2.326   0.058   5.459 -0.2449  0.2169 -0.3057
  185Sol     HW 3892   2.354   0.117   5.389 -1.3773  0.9235 -0.1761
  185Sol     HW 3893   2.259   0.003   5.418  0.6995 -0.8997 -0.3867
  185Sol     MW 3894   2.322   0.058   5.449 -0.3675 -0.4384 -0.1165
  186Sol     OW 3895   1.318   0.158   8.741 -0.3657 -0.0481  0.5134
  186Sol     HW 3896   1.240   0.108   8.717 -0.9050  0.3886  1.3216
  186Sol     HW 3897   1.284   0.235   8.786  0.4990  0.6578 -0.0304
  186Sol     MW 3898   1.308   0.160   8.743  0.0317  0.5108 -0.4183
  187Sol     OW 3899   0.890   0.456   1.661 -0.7612  0.1319 -0.4913
  187Sol     HW 3900   0.820   0.397   1.633 -0.8403  0.4076 -0.8642
  187Sol     HW 3901   0.853   0.544   1.655 -0.3061  0.2976 -0.9214
  187Sol     MW 3902   0.881   0.458   1.658  0.1557  0.2706 -0.3265
  188Sol     OW 3903   0.423   3.251   5.060  0.6469 -0.0241 -0.5866
  188Sol     HW 3904   0.411   3.182   4.995  3.0421 -1.3492  0.3439
  188Sol     HW 3905   0.509   3.287   5.041  1.4822 -0.5714  1.9687
  188Sol     MW 3906   0.430   3.248   5.052 -0.0827 -0.2629 -0.8762
  189Sol     OW 3907   1.601   0.558   6.625 -0.4141 -0.1452 -0.5510
  189Sol     HW 3908   1.583   0.485   6.566 -3.5842  0.2275 -0.1146
  189Sol     HW 3909   1.609   0.517   6.711  0.3508 -0.2553 -0.6728
  189Sol     MW 3910   1.600   0.548   6.628 -0.2664 -0.2926  0.1720
  190Sol     OW 3911   0.358   2.290   5.354 -0.3703 -0.0323 -0.3282
  190Sol     HW 3912   0.410   2.360   5.393 -0.8576  0.7781 -1.1104
  190Sol     HW 3913   0.410   2.260   5.280 -0.3375 -0.2300 -0.2244
  190Sol     MW 3914   0.367   2.294   5.351  0.3855 -0.1035  0.1809
  191Sol     OW 3915   2.261   3.242   6.073  0.5393 -0.6497  0.5018
  191Sol     HW 3916   2.336   3.300   6.081 -0.4780  0.3599  3.5642
  191Sol     HW 3917   2.298   3.155   6.059  2.1509  0.2818 -1.2581
  191Sol     MW 3918   2.271   3.239   6.072  0.4388  0.0203  0.0998
  192Sol     OW 3919   0.217   1.154   8.476 -0.2134  0.7864 -0.3344
  192Sol     HW 3920   0.166   1.119   8.549  2.0222  1.3943  1.5756
  192Sol     HW 3921   0.218   1.248   8.490 -0.1233  0.9524 -1.4043
  192Sol     MW 3922   0.212   1.159   8.484  0.1588 -0.4185 -0.2724
  193Sol     OW 3923   2.466   2.221   9.558 -0.2472 -0.2814  0.4867
  193Sol     HW 3924   2.469   2.237   9.464  0.8609 -1.8019  0.2555
  193Sol     HW 3925   2.501   2.302   9.597  0.6280 -0.1872 -0.4686
  193Sol     MW 3926   2.470   2.230   9.553  0.2450  0.7103 -0.4308
  194Sol     OW 3927   0.441   0.293   6.898  0.2332  0.4934 -0.6579
  194Sol     HW 3928   0.408   0.345   6.825  1.0098 -0.9243 -2.0645
  194Sol     HW 3929   0.363   0.251   6.934 -0.0417  0.4535 -1.2904
  194Sol     MW 3930   0.431   0.294   6.895  0.8424 -0.2067 -0.0459
  195Sol     OW 3931   3.176   0.908   8.779 -0.1449  0.4934  0.5845
  195Sol     HW 3932   3.091   0.873   8.806 -0.4055  0.8641  0.2443
  195Sol     HW 3933   3.175   0.903   8.684 -0.8455  2.9855  0.4417
  195Sol     MW 3934   3.169   0.904   8.773 -0.0086  0.1458  0.1923
  196Sol     OW 3935   3.205   0.728   6.297  0.2116  0.1020 -0.1801
  196Sol     HW 3936   3.237   0.809   6.256  2.9262 -0.0238  1.5720
  196Sol     HW 3937   3.281   0.670   6.297 -1.4610 -2.1287 -0.5189
  196Sol     MW 3938   3.215   0.730   6.293  0.2201  0.6850  0.4310
  197Sol     OW 3939   2.908   3.172   5.877 -0.3493  0.6085  0.6342
  197Sol     HW 3940   2.894   3.261   5.909 -1.7692  1.5595 -2.4218
  197Sol     HW 3941   2.966   3.182   5.802 -0.6324 -1.0210  0.1755
  197Sol     MW 3942   2.912   3.181   5.873  0.5055  0.2427 -0.3855
  198Sol     OW 3943   2.985   3.193   8.357  0.0499  0.1903 -0.2651
  198Sol     HW 3944   2.983   3.254   8.283 -0.7293  0.3057 -0.1579
  198Sol     HW 3945   3.036   3.119   8.326  1.5349  1.1499 -0.1896
  198Sol     MW 3946   2.989   3.192   8.348  0.5536  0.1141 -0.4812
  199Sol     OW 3947   2.847   0.288   7.412  0.4552 -0.1922  0.5550
  199Sol     HW 3948   2.831   0.315   7.502  2.5364 -0.5449  1.0661
  199Sol     HW 3949   2.890   0.364   7.372  0.3500 -0.3575  0.1221
  199Sol     MW 3950   2.850   0.297   7.416 -0.0324  0.0855  0.2499
  200Sol     OW 3951   2.186   0.558   7.085 -0.2623  0.6492 -0.1775
  200Sol     HW 3952   2.222   0.545   7.173 -1.0475 -0.9338 -0.0787
  200Sol     HW 3953   2.243   0.624   7.045  1.7294 -0.5881  0.5758
  200Sol     MW 3954   2.194   0.563   7.089 -0.4602  0.2530 -0.4501
  201Sol     OW 3955   3.106   0.560   2.105  0.4520  0.2273  0.1962
  201Sol     HW 3956   3.057   0.479   2.094  0.6616  0.0442  0.5855
  201Sol     HW 3957   3.138   0.581   2.018  0.5120 -0.1848  0.1170
  201Sol     MW 3958   3.105   0.555   2.096 -0.4124 -0.3329 -0.1782
  202Sol     OW 3959   2.120   0.836   1.625  0.6016 -0.7187  0.3094
  202Sol     HW 3960   2.049   0.796   1.676  1.1285 -1.0687  0.7636
  202Sol     HW 3961   2.083   0.920   1.596  0.8185  0.2196  2.5922
  202Sol     MW 3962   2.110   0.840   1.627 -0.1900 -0.1788  0.1935
  203Sol     OW 3963   1.846   1.414   5.347  0.0669 -0.1038 -0.3541
  203Sol     HW 3964   1.855   1.325   5.310 -0.4486 -0.8106  1.2019
  203Sol     HW 3965   1.753   1.434   5.340 -0.0223 -0.2131  0.4983
  203Sol     MW 3966   1.839   1.407   5.343 -0.0872 -0.1661  0.0570
  204Sol     OW 3967   2.759   1.788   5.737 -0.2066  0.2993 -0.1712
  204Sol     HW 3968   2.847   1.807   5.704 -0.8462  0.2212 -1.9660
  204Sol     HW 3969   2.774   1.735   5.815  1.3236 -0.4150 -0.9150
  204Sol     MW 3970   2.768   1.785   5.741  0.4658  0.1732 -0.4549
  205Sol     OW 3971   3.165   2.637   3.363 -0.2782  0.4525 -0.1325
  205Sol     HW 3972   3.111   2.714   3.380 -0.0353  1.1443 -2.2396
  205Sol     HW 3973   3.119   2.592   3.292 -0.4208 -1.3675  1.0925
  205Sol     MW 3974   3.156   2.640   3.358  0.3856 -0.6249 -0.2868
  206Sol     OW 3975   1.503   0.945   1.996  0.0088  0.0430 -0.1695
  206Sol     HW 3976   1.415   0.943   1.959 -0.0656 -1.7447  0.0663
  206Sol     HW 3977   1.491   0.972   2.087 -0.2319  0.3737 -0.3000
  206Sol     MW 3978   1.494   0.947   2.001  0.0901 -0.0289  0.3789
  207Sol     OW 3979   1.589   1.898   8.354 -0.3486  0.4972  0.1085
  207Sol     HW 3980   1.667   1.843   8.355  0.5613  1.5029 -4.0600
  207Sol     HW 3981   1.515   1.837   8.362  0.7750 -0.6776  1.7496
  207Sol     MW 3982   1.589   1.888   8.355  0.0251 -0.8629 -0.2377
  208Sol     OW 3983   1.165   1.064   5.440  0.1442  0.0728  0.0974
  208Sol     HW 3984   1.135   1.090   5.527 -0.4369  0.9375 -0.3519
  208Sol     HW 3985   1.233   1.127   5.418 -0.9369  0.9517 -0.7970
  208Sol     MW 3986   1.168   1.072   5.446  0.1201 -0.1912  0.0204
  209Sol     OW 3987   1.170   1.414   8.097 -0.1098  0.1728 -0.5733
  209Sol     HW 3988   1.243   1.359   8.067  0.9890  0.8582  0.7805
  209Sol     HW 3989   1.107   1.352   8.134  0.5322 -0.2955 -0.2500
  209Sol     MW 3990   1.171   1.404   8.097  0.6812  0.2466  0.5683
  210Sol     OW 3991   1.238   0.761   6.826 -0.0443  0.4729  0.1685
  210Sol     HW 3992   1.327   0.775   6.793  0.6597  1.1018  2.2957
  210Sol     HW 3993   1.246   0.766   6.921 -2.1628 -0.6504  0.4317
  210Sol     MW 3994   1.247   0.763   6.831 -0.5083  0.0574  0.0477
  211Sol     OW 3995   2.851   1.113   8.950  0.5153  0.5577  0.1445
  211Sol     HW 3996   2.782   1.176   8.971  0.3585 -0.1224  1.7703
  211Sol     HW 3997   2.931   1.165   8.949 -0.1060  1.5215 -2.6803
  211Sol     MW 3998   2.852   1.123   8.952  0.2083  0.4436  0.3508
  212Sol     OW 3999   3.286   0.534   5.175 -0.0102  0.2554  0.0264
  212Sol     HW 4000   3.314   0.455   5.221 -0.2613 -0.0005 -0.2609
  212Sol     HW 4001   3.192   0.521   5.160 -0.4107  1.3120  1.4057
  212Sol     MW 4002   3.280   0.526   5.178  0.0246 -0.0135 -0.0707
  213Sol     OW 4003   1.580   0.406   3.842  0.0740  0.3180 -0.2624
  213Sol     HW 4004   1.614   0.495   3.839  1.3330 -0.0912  0.9959
  213Sol     HW 4005   1.647   0.353   3.799 -0.7738 -0.0020 -1.2062
  213Sol     MW 4006   1.589   0.409   3.838  0.3369 -0.0716 -0.0188
  214Sol     OW 4007   1.640   1.291   5.941 -0.5232  0.3477 -0.3044
  214Sol     HW 4008   1.665   1.286   6.034  1.9408  1.0991 -0.8674
  214Sol     HW 4009   1.588   1.371   5.935 -1.5375 -0.2315  0.5989
  214Sol     MW 4010   1.638   1.298   5.949 -0.3730  0.1686 -0.1641
  215Sol     OW 4011   1.335   1.741   3.685 -0.4074  0.1077 -0.3087
  215Sol     HW 4012   1.338   1.837   3.678 -1.8038  0.0500 -2.0493
  215Sol     HW 4013   1.273   1.714   3.617 -0.1199 -2.0324  0.2482
  215Sol     MW 4014   1.330   1.748   3.678  0.4538 -0.0647  0.2674
  216Sol     OW 4015   0.178   1.772   2.519 -0.0841 -0.0447 -0.1964
  216Sol     HW 4016   0.119   1.710   2.561 -0.3757  0.3401 -0.0374
  216Sol     HW 4017   0.149   1.858   2.550  0.3406  0.1695 -0.3863
  216Sol     MW 4018   0.170   1.774   2.526 -0.2043 -0.8292  0.2171
  217Sol     OW 4019   0.183   0.183   5.932 -0.0921 -0.3836  0.2849
  217Sol     HW 4020   0.223   0.260   5.891 -2.4345  0.8916  0.2768
  217Sol     HW 4021   0.102   0.169   5.883 -1.9084 -0.1063  3.0912
  217Sol     MW 4022   0.180   0.189   5.924 -0.0078 -0.2752 -0.0004
  218Sol     OW 4023   0.455   1.990   1.829 -0.2127 -0.0780  0.4143
  218Sol     HW 4024   0.364   2.022   1.834 -0.2405 -0.2678  1.2049
  218Sol     HW 4025   0.478   1.969   1.920  0.4885 -0.4130  0.1625
  218Sol     MW 4026   0.449   1.991   1.838  0.6502  0.2463 -0.8776
  219Sol     OW 4027   2.719   2.980   5.653  0.2883  0.7631  0.2563
  219Sol     HW 4028   2.701   2.897   5.609 -0.7722  0.2520  1.6255
  219Sol     HW 4029   2.741   3.040   5.582 -2.2642  0.1677 -1.1035
  219Sol     MW 4030   2.719   2.978   5.643 -0.5747  0.5264  0.6505
  220Sol     OW 4031   0.974   1.565   5.715  0.2005  0.1392  0.8346
  220Sol     HW 4032   0.962   1.502   5.644  0.6677  0.3324  0.5810
  220Sol     HW 4033   1.053   1.613   5.691  0.4690  0.0764  1.5744
  220Sol     MW 4034   0.980   1.563   5.707 -0.9659 -0.2168  0.5319
  221Sol     OW 4035   2.205   0.501   3.883  0.1966  0.2664 -0.2811
  221Sol     HW 4036   2.276   0.513   3.820  1.8033 -0.4155  1.3631
  221Sol     HW 4037   2.201   0.584   3.931  0.4552 -0.0091  0.2143
  221Sol     MW 4038   2.211   0.510   3.881  0.1778  0.1024  0.1012
  222Sol     OW 4039   2.915   1.581   7.644  1.2349  0.2213 -0.2213
  222Sol     HW 4040   2.948   1.491   7.641  0.0793 -0.2254  0.0771
  222Sol     HW 4041   2.932   1.610   7.734 -0.6097 -0.5745  0.4062
  222Sol     MW 4042   2.919   1.575   7.652 -0.0081 -0.1263  0.3536
  223Sol     OW 4043   1.041   0.415   4.976  0.4668  0.2520 -0.4725
  223Sol     HW 4044   1.069   0.495   5.020  1.0798 -0.3343  0.2171
  223Sol     HW 4045   1.043   0.436   4.883  0.5545  1.0594 -0.2868
  223Sol     MW 4046   1.043   0.424   4.971 -0.0385 -0.3449 -0.1825
  224Sol     OW 4047   2.709   0.790   4.091  0.1323 -0.6447 -0.5389
  224Sol     HW 4048   2.711   0.797   4.187  0.6651 -1.5119 -0.4789
  224Sol     HW 4049   2.629   0.836   4.066  1.3319  1.8650  0.1087
  224Sol     MW 4050   2.702   0.795   4.098 -0.2293 -0.2115  0.1598
  225Sol     OW 4051   1.570   0.208   8.647  0.0617 -0.2155  0.0874
  225Sol     HW 4052   1.483   0.177   8.669 -0.4154  1.5779  0.8456
  225Sol     HW 4053   1.623   0.190   8.725 -0.2315  0.8895  0.5533
  225Sol     MW 4054   1.567   0.204   8.656  0.4545 -0.2749  0.2658
  226Sol     OW 4055   2.838   3.171   2.361  0.4448  0.5262 -0.4518
  226Sol     HW 4056   2.877   3.172   2.449 -0.1781 -1.2923 -0.1322
  226Sol     HW 4057   2.744   3.172   2.377  0.3025 -1.3224 -1.0370
  226Sol     MW 4058   2.833   3.171   2.371  0.2126  0.7509 -0.1203
  227Sol     OW 4059   1.727   0.278   8.233 -0.4227  0.0327 -0.1605
  227Sol     HW 4060   1.639   0.315   8.226 -0.2943  0.3772  0.0563
  227Sol     HW 4061   1.753   0.293   8.324 -0.2433 -0.3029 -0.1558
  227Sol     MW 4062   1.722   0.283   8.240  0.2379  0.2374 -0.0322
  228Sol     OW 4063   1.549   3.202   6.911  0.1523 -0.2277 -0.2646
  228Sol     HW 4064   1.513   3.140   6.848 -1.7921 -0.2226  0.8003
  228Sol     HW 4065   1.625   3.157   6.948 -0.1747 -1.2408 -0.7981
  228Sol     MW 4066   1.552   3.192   6.909 -0.4283 -0.2668  0.0390
  229Sol     OW 4067   0.723   0.136   5.215 -0.4637 -0.3916  0.5147
  229Sol     HW 4068   0.809   0.177   5.209 -0.6587  0.1519  1.3727
  229Sol     HW 4069   0.696   0.122   5.124  0.3778 -0.2462  0.2466
  229Sol     MW 4070   0.728   0.138   5.206 -0.1154 -0.3236 -0.1526
  230Sol     OW 4071   1.216   3.105   6.238 -0.2806 -0.7931  0.0928
  230Sol     HW 4072   1.282   3.061   6.185  0.1452  0.8989 -0.8383
  230Sol     HW 4073   1.144   3.042   6.246 -0.1342 -1.2580 -2.0858
  230Sol     MW 4074   1.215   3.096   6.234  0.7268 -0.1896  0.5258
  231Sol     OW 4075   2.599   1.213   3.826  0.2021  0.9935 -0.8530
  231Sol     HW 4076   2.527   1.225   3.765 -0.1857  2.5815 -0.1300
  231Sol     HW 4077   2.651   1.294   3.818  1.8391 -0.0756 -1.2907
  231Sol     MW 4078   2.598   1.222   3.820  0.3019  0.2660  0.1274
  232Sol     OW 4079   0.361   2.588   4.800 -0.7119 -0.3350  0.0328
  232Sol     HW 4080   0.336   2.525   4.868 -1.2340  0.9682  1.0658
  232Sol     HW 4081   0.314   2.668   4.823 -0.4629  0.2892 -1.5669
  232Sol     MW 4082   0.354   2.589   4.808  0.0202  0.3100  0.0197
  233Sol     OW 4083   3.180   0.839   3.172  0.3101  0.3452 -0.0991
  233Sol     HW 4084   3.241   0.812   3.104 -1.8796 -3.6058 -0.6381
  233Sol     HW 4085   3.233   0.843   3.252  1.9109  0.2105 -1.1489
  233Sol     MW 4086   3.190   0.837   3.173 -0.1092 -0.1646  0.9973
  234Sol     OW 4087   1.934   0.986   3.191  0.2468  0.1676 -0.1078
  234Sol     HW 4088   1.996   1.047   3.231  1.0092 -0.9149  0.3680
  234Sol     HW 4089   1.904   0.932   3.263  0.1129 -0.4906 -0.6526
  234Sol     MW 4090   1.937   0.987   3.201 -0.0704  0.0333  0.1292
  235Sol     OW 4091   2.080   3.362   5.432  0.7495 -0.0675  0.3024
  235Sol     HW 4092   2.127   3.337   5.512 -0.7562 -2.0429  0.6096
  235Sol     HW 4093   2.032   3.284   5.408 -2.2154  1.8157 -0.1354
  235Sol     MW 4094   2.080   3.353   5.437  0.1828 -0.1599 -0.5538
  236Sol     OW 4095   1.510   0.761   9.459  0.0716  0.0870 -0.1794
  236Sol     HW 4096   1.455   0.705   9.404 -0.6585 -2.1683  2.7108
  236Sol     HW 4097   1.454   0.787   9.532  1.7300  0.8233  0.8842
  236Sol     MW 4098   1.500   0.758   9.461  0.8161  0.1765 -0.0031
  237Sol     OW 4099   3.118   2.306   3.585 -0.2389  0.6938 -0.4252
  237Sol     HW 4100   3.061   2.241   3.626 -0.3413  0.7886 -0.4150
  237Sol     HW 4101   3.197   2.258   3.560  1.3278  1.2859  3.0746
  237Sol     MW 4102   3.120   2.296   3.587 -0.1388 -0.0992  0.3705
  238Sol     OW 4103   1.587   0.942   6.484 -0.6932  0.3471 -0.5452
  238Sol     HW 4104   1.635   0.993   6.419 -2.1551  2.4979  0.0082
  238Sol     HW 4105   1.558   1.007   6.548 -1.5192 -1.3795  0.8618
  238Sol     MW 4106   1.589   0.952   6.484  0.0724  0.0692  0.7273
  239Sol     OW 4107   2.505   0.343   7.631  0.2218  0.3573 -0.1461
  239Sol     HW 4108   2.596   0.368   7.615  0.0841  0.0926 -1.3515
  239Sol     HW 4109   2.464   0.423   7.664  1.5380 -0.2227  3.1044
  239Sol     MW 4110   2.510   0.352   7.633  0.1703 -0.2767  0.1061
  240Sol     OW 4111   1.738   2.136   2.519  0.5767 -0.0899  0.1881
  240Sol     HW 4112   1.740   2.199   2.591 -0.1949  0.8707 -0.6183
  240Sol     HW 4113   1.645   2.127   2.497  0.8382 -0.0677 -0.9453
  240Sol     MW 4114   1.730   2.141   2.524  0.0702 -0.0676  0.5814
  241Sol     OW 4115   2.399   1.583   2.832  0.2022  0.2083 -0.3876
  241Sol     HW 4116   2.379   1.501   2.876  0.2832 -0.3510 -1.3709
  241Sol     HW 4117   2.418   1.644   2.903 -1.2305 -0.2429  0.4200
  241Sol     MW 4118   2.399   1.581   2.842  0.2453  0.6368  0.2873
  242Sol     OW 4119   0.353   1.901   6.636 -0.1458 -0.5316 -0.5722
  242Sol     HW 4120   0.415   1.972   6.619 -1.4207  0.1517 -2.5535
  242Sol     HW 4121   0.291   1.937   6.698  0.1032 -0.4451 -0.3712
  242Sol     MW 4122   0.353   1.910   6.640 -0.3559  0.1123 -1.2359
  243Sol     OW 4123   0.991   1.383   9.128  0.1600 -0.0401  0.2174
  243Sol     HW 4124   0.936   1.372   9.051 -0.2805  3.3354 -0.0124
  243Sol     HW 4125   1.076   1.409   9.094  0.3455  0.1708  0.8292
  243Sol     MW 4126   0.994   1.384   9.118  0.3105  0.4890  0.2448
  244Sol     OW 4127   0.956   0.603   6.582  0.2352 -0.5137  0.0134
  244Sol     HW 4128   0.983   0.618   6.492  0.4005 -0.5855  0.0511
  244Sol     HW 4129   0.860   0.603   6.579  0.2428 -0.8070 -0.2094
  244Sol     MW 4130   0.950   0.604   6.574  0.6015 -0.0680 -0.1466
  245Sol     OW 4131   2.413   1.163   5.624  0.3126 -0.3890  0.0062
  245Sol     HW 4132   2.487   1.106   5.604  0.4730 -1.2021  2.7840
  245Sol     HW 4133   2.336   1.114   5.596  0.6513 -0.5593 -0.6375
  245Sol     MW 4134   2.412   1.154   5.619  0.2245  0.2919  0.3787
  246Sol     OW 4135   2.225   1.513   3.695 -0.2233  0.4033  0.0067
  246Sol     HW 4136   2.262   1.553   3.774 -0.5597  1.4564 -0.3620
  246Sol     HW 4137   2.140   1.479   3.723  0.5343 -1.0832  0.5949
  246Sol     MW 4138   2.221   1.513   3.705  0.2958  0.9122 -0.2514
  247Sol     OW 4139   0.080   0.293   2.606  0.0515  0.3429  0.2962
  247Sol     HW 4140   0.139   0.234   2.654  0.6119  0.9108  0.3091
  247Sol     HW 4141   0.129   0.374   2.598  0.3085 -0.0063 -2.0230
  247Sol     MW 4142   0.090   0.295   2.610  0.1819  0.4002 -0.4124
  248Sol     OW 4143   1.943   1.783   8.588 -0.1297 -0.2747 -0.1229
  248Sol     HW 4144   1.896   1.735   8.520  1.1857 -1.3078 -0.3200
  248Sol     HW 4145   1.874   1.821   8.642 -1.1916 -0.7886 -1.0786
  248Sol     MW 4146   1.932   1.783   8.586  0.1496  0.5155  0.2051
  249Sol     OW 4147   1.768   2.579   7.106 -0.0082  0.4388  0.4756
  249Sol     HW 4148   1.860   2.577   7.078 -0.3111 -2.9988 -0.4738
  249Sol     HW 4149   1.719   2.588   7.025 -0.5583  0.5427  0.8230
  249Sol     MW 4150   1.772   2.580   7.096 -0.2163 -0.8165  0.2029
  250Sol     OW 4151   2.888   1.708   4.987  0.0075 -0.6576 -0.6611
  250Sol     HW 4152   2.805   1.754   4.981  0.6543  0.5901 -0.2983
  250Sol     HW 4153   2.944   1.750   4.922  1.0594  0.0813  0.6715
  250Sol     MW 4154   2.886   1.715   4.981 -0.2045 -0.1529 -0.5356
  251Sol     OW 4155   2.964   0.981   6.273 -0.0125  0.2076  0.0143
  251Sol     HW 4156   2.975   0.939   6.359 -0.1758 -0.5442 -0.3258
  251Sol     HW 4157   3.053   1.002   6.245 -0.0138  1.1871  0.7223
  251Sol     MW 4158   2.973   0.979   6.278 -0.5988 -0.3337  0.0754
  252Sol     OW 4159   1.701   3.061   4.941  0.0569 -0.1415  0.2038
  252Sol     HW 4160   1.782   3.030   4.983  0.1991 -0.9548 -0.6380
  252Sol     HW 4161   1.656   2.980   4.914 -0.9782  0.3114  0.5556
  252Sol     MW 4162   1.705   3.051   4.942 -0.0523  0.3920  0.2645
  253Sol     OW 4163   2.908   3.272   4.195 -0.3487 -0.1981 -0.9022
  253Sol     HW 4164   2.885   3.183   4.169 -1.5906 -0.6572  1.5736
  253Sol     HW 4165   2.852   3.328   4.143 -1.7545 -1.0182 -0.2953
  253Sol     MW 4166   2.901   3.269   4.188 -0.0816 -0.3617  0.3407
  254Sol     OW 4167   0.465   2.716   8.596  0.9399  0.4244  0.3038
  254Sol     HW 4168   0.388   2.770   8.616  2.3709  1.7268  2.5549
  254Sol     HW 4169   0.536   2.779   8.588  1.6442 -0.6760 -2.7772
  254Sol     MW 4170   0.464   2.727   8.597 -0.4500  0.4158 -0.2160
  255Sol     OW 4171   2.194   1.103   7.293 -0.3764  0.0489 -0.0632
  255Sol     HW 4172   2.154   1.142   7.216 -0.9644 -0.0470  0.1870
  255Sol     HW 4173   2.237   1.024   7.261 -0.9036 -0.1675 -0.2370
  255Sol     MW 4174   2.194   1.099   7.283  0.6103  0.9085 -0.2513
  256Sol     OW 4175   2.288   3.220   3.704  0.2777  0.2913  0.3619
  256Sol     HW 4176   2.342   3.295   3.731  0.2804 -0.0800  1.3903
  256Sol     HW 4177   2.349   3.146   3.703  0.0757  0.1263  0.2486
  256Sol     MW 4178   2.299   3.220   3.706  0.7980 -0.0075  0.4837
  257Sol     OW 4179   3.151   1.413   2.283  0.3305  0.6062 -0.1492
  257Sol     HW 4180   3.234   1.391   2.324  0.4695  1.7794  0.2400
  257Sol     HW 4181   3.155   1.375   2.196  1.1754  0.4608 -0.0430
  257Sol     MW 4182   3.158   1.408   2.279 -0.9286  0.2806 -0.4527
  258Sol     OW 4183   1.715   1.772   5.048  0.4485  0.6547 -0.0672
  258Sol     HW 4184   1.810   1.782   5.050  0.2856  2.2413  0.7563
  258Sol     HW 4185   1.685   1.817   5.127 -0.9307 -0.4924  0.0698
  258Sol     MW 4186   1.721   1.777   5.055  0.6878 -0.4362 -0.5759
  259Sol     OW 4187   2.648   2.240   4.862  0.3869 -0.0728 -0.0134
  259Sol     HW 4188   2.622   2.156   4.824 -0.5442  1.0587 -1.9370
  259Sol     HW 4189   2.614   2.237   4.952  1.8074 -2.3970  0.4715
  259Sol     MW 4190   2.643   2.232   4.867  0.3726  0.7520  0.0458
  260Sol     OW 4191   3.220   2.546   7.261 -0.5109  0.3922  1.3380
  260Sol     HW 4192   3.216   2.504   7.347 -2.4995 -1.1385  0.5510
  260Sol     HW 4193   3.142   2.600   7.257 -1.0608 -0.4537  0.0733
  260Sol     MW 4194   3.213   2.547   7.268 -0.2292 -0.0490 -0.2161
  261Sol     OW 4195   1.187   1.309   2.677 -0.3412 -0.3145  0.1852
  261Sol     HW 4196   1.223   1.222   2.695 -0.1683 -0.5919 -1.3732
  261Sol     HW 4197   1.092   1.296   2.676 -0.3505 -0.2828  0.9581
  261Sol     MW 4198   1.182   1.300   2.678  0.4344 -0.1006  0.4624
  262Sol     OW 4199   0.123   2.282   1.933 -0.2927  0.4836  0.2046
  262Sol     HW 4200   0.085   2.317   2.014  1.6963  0.2212  1.2884
  262Sol     HW 4201   0.121   2.357   1.872  0.4988  1.4109  1.3034
  262Sol     MW 4202   0.119   2.292   1.935 -0.1273 -0.1670 -0.3897
  263Sol     OW 4203   2.702   1.819   6.549  0.4825  0.2596 -0.2938
  263Sol     HW 4204   2.608   1.825   6.566  0.4220  2.8763 -1.3063
  263Sol     HW 4205   2.743   1.836   6.633  0.0737 -0.8031  0.1326
  263Sol     MW 4206   2.697   1.821   6.558  0.4960 -0.7802  0.0615
  264Sol     OW 4207   0.437   1.486   1.888 -0.1356  0.2518  0.0843
  264Sol     HW 4208   0.408   1.394   1.895  1.7776 -0.2409  2.1732
  264Sol     HW 4209   0.365   1.535   1.929 -1.7780 -0.1479 -2.2112
  264Sol     MW 4210   0.428   1.482   1.892 -0.8348  0.2271  0.6663
  265Sol     OW 4211   2.705   0.777   5.898  0.9012  0.1348  0.4586
  265Sol     HW 4212   2.739   0.855   5.940  2.0218 -1.4318  2.5704
  265Sol     HW 4213   2.779   0.739   5.852  0.4116  0.2110 -0.4005
  265Sol     MW 4214   2.714   0.780   5.898  0.1593 -0.3302  0.3025
  266Sol     OW 4215   1.313   0.940   3.327 -0.1034 -0.3343 -0.4132
  266Sol     HW 4216   1.341   0.875   3.392  2.7740  1.3835  0.1175
  266Sol     HW 4217   1.221   0.956   3.347  0.8459  0.4892  3.5394
  266Sol     MW 4218   1.307   0.935   3.334  0.5706 -0.7527  0.1703
  267Sol     OW 4219   0.393   1.330   7.531 -0.1579  0.1728  0.1064
  267Sol     HW 4220   0.452   1.392   7.574  0.9103 -1.4068  0.9616
  267Sol     HW 4221   0.351   1.282   7.603  0.1743 -1.1531 -0.5610
  267Sol     MW 4222   0.394   1.331   7.541 -0.0777 -0.4133 -0.3776
  268Sol     OW 4223   0.678   2.868   5.204  0.5189 -1.0955  0.4332
  268Sol     HW 4224   0.743   2.919   5.155  0.2245  1.1406  2.2887
  268Sol     HW 4225   0.599   2.922   5.203 -0.4789 -2.5294  0.5852
  268Sol     MW 4226   0.677   2.877   5.199 -0.7307  0.9156 -0.2021
  269Sol     OW 4227   0.695   2.807   2.674 -0.2391 -0.0995 -0.4525
  269Sol     HW 4228   0.766   2.747   2.695  1.5595  2.0791 -0.1251
  269Sol     HW 4229   0.687   2.802   2.578  0.1248 -0.5775 -0.4589
  269Sol     MW 4230   0.701   2.801   2.667  0.3523 -0.6320 -0.3281
  270Sol     OW 4231   1.159   1.860   4.260  0.3047  0.1611  0.4310
  270Sol     HW 4232   1.170   1.870   4.166  1.6460  1.1481  0.6801
  270Sol     HW 4233   1.114   1.939   4.289 -0.5613 -0.3714  0.5445
  270Sol     MW 4234   1.156   1.868   4.255 -0.3510 -0.1261  0.4741
  271Sol     OW 4235   2.060   3.281   6.867 -0.1930  0.2895 -0.1982
  271Sol     HW 4236   2.078   3.372   6.845  3.5644  0.2315  2.1081
  271Sol     HW 4237   2.003   3.286   6.944 -1.2224  0.6194 -0.9611
  271Sol     MW 4238   2.056   3.290   6.872  0.6653 -0.0243  0.4035
  272Sol     OW 4239   3.022   2.620   8.252  0.4640  0.2645  0.4960
  272Sol     HW 4240   2.960   2.689   8.275 -0.1255  0.5377 -1.8230
  272Sol     HW 4241   3.065   2.652   8.173  0.6263 -1.7548 -0.2624
  272Sol     MW 4242   3.021   2.629   8.247 -0.5748  0.0449 -0.0839
  273Sol     OW 4243   0.652   0.510   5.589  0.0106 -0.4071  0.0153
  273Sol     HW 4244   0.709   0.526   5.514 -1.6854  0.0556 -1.1843
  273Sol     HW 4245   0.604   0.430   5.566  1.1369 -1.5863  1.6235
  273Sol     MW 4246   0.653   0.504   5.580 -0.2652  0.2783 -0.2891
  274Sol     OW 4247   0.401   2.941   9.019 -0.0109 -0.3605  0.1697
  274Sol     HW 4248   0.482   2.890   9.020  0.3512  0.2290  0.8444
  274Sol     HW 4249   0.413   3.004   8.948  0.5233  0.3707  0.9018
  274Sol     MW 4250   0.409   2.942   9.013  0.1899  0.0209 -0.4596
  275Sol     OW 4251   2.705   1.757   2.833 -0.1006  0.2514  0.2251
  275Sol     HW 4252   2.775   1.762   2.898 -0.7375 -0.9376  1.0182
  275Sol     HW 4253   2.625   1.776   2.881 -0.5403 -0.3147 -0.2689
  275Sol     MW 4254   2.704   1.759   2.843 -0.3183  0.3435  0.4250
  276Sol     OW 4255   0.627   1.082   6.240 -0.1819 -0.0138 -0.2814
  276Sol     HW 4256   0.636   1.153   6.304  0.5307  0.6466 -1.1206
  276Sol     HW 4257   0.554   1.029   6.275 -0.0009  0.5001  0.9217
  276Sol     MW 4258   0.621   1.083   6.249 -0.3514  0.3650  0.4935
  277Sol     OW 4259   1.500   2.997   2.221  0.2067  0.1563 -0.0311
  277Sol     HW 4260   1.510   2.964   2.132  0.2297  1.0394 -0.3624
  277Sol     HW 4261   1.568   3.064   2.229  0.0421  0.2549  0.5731
  277Sol     MW 4262   1.507   3.000   2.214  1.0077  0.2122  0.0482
  278Sol     OW 4263   1.787   3.321   4.784 -0.0818 -0.6280 -0.2247
  278Sol     HW 4264   1.738   3.333   4.865 -0.9381 -0.1117 -0.8056
  278Sol     HW 4265   1.822   3.232   4.789 -0.8644 -0.9058  0.3169
  278Sol     MW 4266   1.786   3.314   4.792 -0.5651 -0.8641  0.3481
  279Sol     OW 4267   1.549   2.254   5.432  0.1734  0.1127  0.4615
  279Sol     HW 4268   1.638   2.223   5.446 -0.3140 -2.4236 -1.4389
  279Sol     HW 4269   1.554   2.304   5.350 -0.0280  0.4982  0.6846
  279Sol     MW 4270   1.557   2.256   5.426  0.2875  0.2866 -0.2533
  280Sol     OW 4271   2.680   3.364   5.724  0.5840 -0.6243 -0.2369
  280Sol     HW 4272   2.661   3.292   5.784  1.4456 -0.8240 -0.1880
  280Sol     HW 4273   2.617   3.355   5.654 -0.6427 -0.2039  0.7946
  280Sol     MW 4274   2.673   3.357   5.723 -0.1675 -0.5440  0.3500
  281Sol     OW 4275   1.757   2.140   8.720 -0.0160 -0.1649 -0.0214
  281Sol     HW 4276   1.849   2.121   8.700 -0.4837 -2.9164  0.2188
  281Sol     HW 4277   1.716   2.153   8.635  0.7099  1.7067 -0.1018
  281Sol     MW 4278   1.762   2.139   8.711 -0.8736 -0.6664 -0.1350
  282Sol     OW 4279   2.340   2.724   6.795 -0.2196 -0.1419 -0.0843
  282Sol     HW 4280   2.404   2.706   6.726 -0.9697  0.3645 -0.9324
  282Sol     HW 4281   2.287   2.796   6.760 -2.1349 -1.4801 -0.0130
  282Sol     MW 4282   2.341   2.729   6.786 -0.6181 -0.2531  0.2913
  283Sol     OW 4283   2.868   2.905   4.461  0.0427  0.1703 -0.0838
  283Sol     HW 4284   2.878   2.836   4.527 -2.3244  0.7262  0.9440
  283Sol     HW 4285   2.956   2.922   4.429  1.1300 -0.7006  2.3651
  283Sol     MW 4286   2.876   2.901   4.464 -0.7386  0.0402  0.0310
  284Sol     OW 4287   2.375   1.968   1.601 -0.6057  0.1316 -0.4938
  284Sol     HW 4288   2.469   1.949   1.597 -0.5758  0.4233 -1.1555
  284Sol     HW 4289   2.369   2.063   1.599 -0.6874  0.3292  4.1671
  284Sol     MW 4290   2.383   1.975   1.601  0.0892  0.5708 -0.0979
  285Sol     OW 4291   2.104   1.085   7.539  0.0744 -0.5807 -0.0204
  285Sol     HW 4292   2.134   1.091   7.448 -0.1838 -1.5680 -0.1775
  285Sol     HW 4293   2.103   1.176   7.570 -1.0979 -0.0866 -1.4255
  285Sol     MW 4294   2.107   1.094   7.533  0.3487  0.3227  0.0305
  286Sol     OW 4295   0.415   1.167   4.484 -0.8872  0.4517  0.0443
  286Sol     HW 4296   0.389   1.096   4.426 -0.6883 -0.1003  0.6155
  286Sol     HW 4297   0.476   1.220   4.433  1.0568 -1.2916  0.4678
  286Sol     MW 4298   0.418   1.165   4.475  0.1596 -0.5420 -0.4150
  287Sol     OW 4299   2.460   1.918   7.261  0.2813 -0.0759  0.1669
  287Sol     HW 4300   2.447   1.826   7.236 -1.1516  0.7416 -2.3473
  287Sol     HW 4301   2.469   1.964   7.177  3.5224  1.7563  1.4464
  287Sol     MW 4302   2.460   1.914   7.251  0.8727 -0.0593  0.1514
  288Sol     OW 4303   1.306   2.544   9.319 -0.2789  0.3991  0.5109
  288Sol     HW 4304   1.260   2.623   9.291  0.7051  0.2380 -1.6552
  288Sol     HW 4305   1.391   2.576   9.350  0.2353  0.1900 -0.6449
  288Sol     MW 4306   1.310   2.554   9.319  0.4705  0.2741 -0.2758
  289Sol     OW 4307   1.054   1.660   2.875 -0.2609  0.2818  0.2252
  289Sol     HW 4308   1.033   1.731   2.936  0.0924  1.6855 -1.2580
  289Sol     HW 4309   1.146   1.673   2.854  0.4505 -2.0300  1.7367
  289Sol     MW 4310   1.060   1.667   2.879 -0.1488 -0.1516  0.0111
  290Sol     OW 4311   1.836   2.579   2.463  0.5101  0.0382  0.3513
  290Sol     HW 4312   1.826   2.669   2.493  1.7480  0.2913  0.0258
  290Sol     HW 4313   1.892   2.538   2.529  0.6485 -0.2556  0.0523
  290Sol     MW 4314   1.840   2.583   2.472 -0.1030  0.0269  0.5479
  291Sol     OW 4315   1.514   3.094   5.898  0.2231 -0.3381 -0.0296
  291Sol     HW 4316   1.540   3.135   5.980  1.0932 -0.4241 -0.2550
  291Sol     HW 4317   1.534   3.001   5.910  0.3114 -0.3569 -0.3153
  291Sol     MW 4318   1.518   3.090   5.906  0.7083  0.8556  0.5553
  292Sol     OW 4319   3.199   0.989   6.530 -0.6012 -0.0668  0.2758
  292Sol     HW 4320   3.208   1.003   6.624 -0.3066  0.0294  0.2352
  292Sol     HW 4321   3.115   0.945   6.519 -0.3064 -0.7339  0.6524
  292Sol     MW 4322   3.193   0.986   6.537 -0.6325 -0.8297  0.5055
  293Sol     OW 4323   0.573   2.420   6.877 -0.6402  0.3928  0.1360
  293Sol     HW 4324   0.659   2.386   6.901 -0.7324 -1.6581 -2.2982
  293Sol     HW 4325   0.589   2.476   6.801 -1.4201  0.2723 -0.1178
  293Sol     MW 4326   0.582   2.422   6.873 -0.0753 -0.7450  0.4216
  294Sol     OW 4327   0.241   0.247   8.776  0.1723  0.3678 -0.6067
  294Sol     HW 4328   0.237   0.201   8.859  1.0546  1.4320  0.0363
  294Sol     HW 4329   0.151   0.245   8.742  0.0561 -1.1618 -0.2437
  294Sol     MW 4330   0.233   0.243   8.780 -0.3403  0.4687 -0.0870
  295Sol     OW 4331   2.647   0.896   7.234  0.4449 -0.5146 -0.1879
  295Sol     HW 4332   2.689   0.961   7.177  2.9864 -1.5674  0.4073
  295Sol     HW 4333   2.676   0.921   7.322 -0.9194 -0.7676  0.3435
  295Sol     MW 4334   2.653   0.904   7.237 -0.6513 -0.0635  0.1112
  296Sol     OW 4335   0.909   2.860   8.464 -0.0851 -0.7522 -0.3285
  296Sol     HW 4336   0.959   2.937   8.491 -2.2056  0.1403  1.2156
  296Sol     HW 4337   0.925   2.796   8.533 -1.4612 -0.2790  0.4401
  296Sol     MW 4338   0.915   2.861   8.472  0.3581 -0.1750 -0.0050
  297Sol     OW 4339   0.761   2.340   2.158 -0.1413  0.0368 -0.5968
  297Sol     HW 4340   0.782   2.289   2.236 -0.4827  0.8822  0.0452
  297Sol     HW 4341   0.798   2.289   2.086  0.2924 -0.6774  0.1250
  297Sol     MW 4342   0.766   2.331   2.158 -0.1430  0.3311 -0.7902
  298Sol     OW 4343   0.552   2.244   7.141 -0.6354 -0.2550 -0.1299
  298Sol     HW 4344   0.529   2.223   7.050 -0.4400 -2.5078  0.3046
  298Sol     HW 4345   0.477   2.213   7.192  0.1581 -0.9395  0.6388
  298Sol     MW 4346   0.543   2.239   7.137  0.0172  0.5200  0.2244
  299Sol     OW 4347   0.740   2.537   1.692  0.4695  0.3866 -0.0436
  299Sol     HW 4348   0.717   2.599   1.622  1.3133  1.6557  0.7688
  299Sol     HW 4349   0.717   2.451   1.657 -2.0238  1.2707 -0.6492
  299Sol     MW 4350   0.736   2.535   1.682  0.1209 -0.0156  0.0510
  300Sol     OW 4351   0.441   0.136   8.620 -0.0645  0.4163  0.2802
  300Sol     HW 4352   0.513   0.190   8.585 -0.3980  0.3544 -0.5208
  300Sol     HW 4353   0.382   0.199   8.661  0.5185  0.4531  1.0663
  300Sol     MW 4354   0.442   0.147   8.620 -0.1005 -0.4037 -0.0269
  301Sol     OW 4355   0.753   2.910   7.913  0.9730 -0.0077 -0.1086
  301Sol     HW 4356   0.809   2.883   7.986  1.7044  1.4051 -0.1229
  301Sol     HW 4357   0.725   2.828   7.872  2.1037 -0.7606  0.5991
  301Sol     MW 4358   0.756   2.900   7.916 -0.2521  0.2234 -0.7593
  302Sol     OW 4359   2.854   1.206   4.257 -0.1200 -0.6213  0.2208
  302Sol     HW 4360   2.775   1.155   4.272 -0.1722 -0.5313  0.2480
  302Sol     HW 4361   2.926   1.145   4.278 -0.1342 -1.4269 -1.9685
  302Sol     MW 4362   2.853   1.196   4.260  0.6521  0.1445  0.0023
  303Sol     OW 4363   3.055   3.309   8.595  0.6548  0.0493  0.1561
  303Sol     HW 4364   3.090   3.229   8.633 -0.0761  0.0730  0.8900
  303Sol     HW 4365   3.031   3.284   8.506  1.4582 -0.2566  0.0170
  303Sol     MW 4366   3.056   3.300   8.590 -0.3506  0.1337  0.7826
  304Sol     OW 4367   1.541   2.846   4.856 -0.3303  0.5275  0.0737
  304Sol     HW 4368   1.580   2.871   4.772 -2.3732  1.2752 -0.6866
  304Sol     HW 4369   1.524   2.752   4.847 -1.3563  0.7766 -0.7102
  304Sol     MW 4370   1.543   2.840   4.848  0.3575 -0.2668 -0.1378
  305Sol     OW 4371   3.268   3.145   8.085  0.2347 -0.1311 -0.4248
  305Sol     HW 4372   3.298   3.187   8.166 -0.3580  0.2059 -0.3694
  305Sol     HW 4373   3.184   3.104   8.110  0.1707 -0.2338 -0.8078
  305Sol     MW 4374   3.263   3.145   8.095 -0.0664  0.0865 -0.0257
  306Sol     OW 4375   3.158   2.464   5.774 -0.8097  0.3411  0.3646
  306Sol     HW 4376   3.065   2.490   5.774 -1.0496 -0.4836  0.7706
  306Sol     HW 4377   3.205   2.544   5.799 -1.4153  0.7622  0.1777
  306Sol     MW 4378   3.154   2.474   5.776  0.1329  0.4721 -0.4093
  307Sol     OW 4379   2.940   2.701   4.636  0.4557 -0.0752  0.1452
  307Sol     HW 4380   3.018   2.648   4.655  0.4476  0.3076  1.3000
  307Sol     HW 4381   2.936   2.764   4.708 -0.8815 -0.0446  0.0603
  307Sol     MW 4382   2.947   2.702   4.644  0.4174  0.0133  0.2570
  308Sol     OW 4383   2.661   2.751   3.135  0.2898 -0.2056 -0.0374
  308Sol     HW 4384   2.666   2.821   3.200 -2.5451 -1.3617  1.5028
  308Sol     HW 4385   2.683   2.794   3.052 -0.2062  2.2459  1.0665
  308Sol     MW 4386   2.663   2.761   3.133 -0.3646 -0.3218 -0.3775
  309Sol     OW 4387   2.961   2.949   7.404  0.5201  0.7944  0.0523
  309Sol     HW 4388   2.984   3.037   7.377 -1.3048  1.8288  1.7123
  309Sol     HW 4389   2.874   2.958   7.444  0.3376 -1.7301  0.3123
  309Sol     MW 4390   2.955   2.957   7.406 -0.6927 -0.3877 -0.5408
  310Sol     OW 4391   2.340   0.740   8.454 -0.1399  0.6998  0.2619
  310Sol     HW 4392   2.308   0.825   8.483 -0.2399  0.4132  1.0235
  310Sol     HW 4393   2.328   0.683   8.530  0.4115  0.1328 -0.0665
  310Sol     MW 4394   2.336   0.742   8.464 -0.4780  0.4075  0.3709
  311Sol     OW 4395   2.550   1.161   8.178  0.0333  0.5233  0.1972
  311Sol     HW 4396   2.462   1.184   8.205 -0.0743  1.4156 -0.8670
  311Sol     HW 4397   2.595   1.245   8.169  0.6614  0.1401 -0.3473
  311Sol     MW 4398   2.547   1.171   8.179  0.3057  0.3040 -0.6333
  312Sol     OW 4399   2.943   2.251   2.973 -0.1852 -0.0054 -0.1381
  312Sol     HW 4400   2.988   2.193   3.034  0.9402  0.9929  0.0082
  312Sol     HW 4401   2.953   2.208   2.888  0.3348 -0.2108  0.0238
  312Sol     MW 4402   2.948   2.242   2.971  0.0121 -0.2518 -0.3165
  313Sol     OW 4403   1.141   2.362   4.829  0.6933 -0.3485 -0.0610
  313Sol     HW 4404   1.235   2.356   4.847  0.2498  0.1090  2.5628
  313Sol     HW 4405   1.131   2.443   4.780  1.2319  1.7449  3.1232
  313Sol     MW 4406   1.149   2.368   4.826 -0.1069 -0.0027  0.3285
  314Sol     OW 4407   2.020   0.114   9.643  0.1978 -0.3972  0.3902
  314Sol     HW 4408   2.069   0.033   9.628  0.2936 -0.4128  0.7727
  314Sol     HW 4409   2.003   0.148   9.556 -1.4537 -1.7979  0.1438
  314Sol     MW 4410   2.023   0.110   9.634  0.1455 -0.1160 -0.8108
  315Sol     OW 4411   2.466   2.596   3.271 -0.2569 -0.4924  0.5322
  315Sol     HW 4412   2.517   2.653   3.212  0.4341 -0.8987  0.7352
  315Sol     HW 4413   2.425   2.532   3.213  0.4389 -0.9032  0.4855
  315Sol     MW 4414   2.467   2.596   3.260  0.1794  0.0617 -0.3820
  316Sol     OW 4415   2.288   3.066   9.364  0.3815  0.3013 -0.1415
  316Sol     HW 4416   2.266   3.152   9.328  1.5720  0.9828  0.6886
  316Sol     HW 4417   2.230   3.056   9.440 -0.1727  0.1023 -0.5880
  316Sol     MW 4418   2.281   3.073   9.368  0.0956 -0.0866 -0.0039
  317Sol     OW 4419   1.606   0.920   3.124  0.4442 -0.2803 -0.5676
  317Sol     HW 4420   1.640   0.907   3.035 -0.9401 -1.7982 -0.8958
  317Sol     HW 4421   1.665   0.986   3.162  2.2576 -1.0474 -1.9313
  317Sol     MW 4422   1.615   0.925   3.120  0.0928  0.4642 -0.5997
  318Sol     OW 4423   0.441   1.846   7.123 -0.3614  0.2835 -0.2901
  318Sol     HW 4424   0.381   1.835   7.196  0.5097 -1.8027  0.1535
  318Sol     HW 4425   0.401   1.799   7.050  0.7551 -1.2891  0.0614
  318Sol     MW 4426   0.432   1.841   7.123  0.3508 -0.3010  0.2923
  319Sol     OW 4427   1.546   1.274   3.692  0.2459 -0.2595 -0.0152
  319Sol     HW 4428   1.493   1.222   3.752  1.2646  0.2628  1.3713
  319Sol     HW 4429   1.532   1.234   3.606 -1.8551 -0.5331  0.4335
  319Sol     MW 4430   1.540   1.266   3.690  0.5454 -0.1459 -0.2561
  320Sol     OW 4431   1.276   0.830   4.537 -0.1949 -0.5089 -0.3609
  320Sol     HW 4432   1.331   0.902   4.505 -0.3388 -0.0777  0.3585
  320Sol     HW 4433   1.241   0.862   4.620 -1.5784 -0.7585 -0.8378
  320Sol     MW 4434   1.278   0.839   4.542  0.2259  0.7088  0.1790
  321Sol     OW 4435   2.528   1.183   6.899 -0.2358  0.0275 -0.0274
  321Sol     HW 4436   2.588   1.229   6.840 -0.9325  1.2223  0.1743
  321Sol     HW 4437   2.527   1.093   6.867  1.2762  0.1151 -0.3286
  321Sol     MW 4438   2.533   1.179   6.890  0.4034  0.2733 -0.2647
  322Sol     OW 4439   1.179   0.390   3.969  0.0007 -0.1151  0.5175
  322Sol     HW 4440   1.233   0.416   3.894 -0.6890 -0.6071 -0.1491
  322Sol     HW 4441   1.091   0.382   3.934 -0.6034  1.1706  1.7187
  322Sol     MW 4442   1.176   0.392   3.959  0.7798  0.3831  0.1687
  323Sol     OW 4443   3.277   2.382   6.732  0.2301  0.4056  0.3492
  323Sol     HW 4444   3.184   2.389   6.708  0.5218  1.5662 -0.4648
  323Sol     HW 4445   3.277   2.328   6.811 -0.8826 -2.3942 -1.4526
  323Sol     MW 4446   3.269   2.378   6.737 -0.5827  0.5747  0.5491
  324Sol     OW 4447   2.699   1.608   5.547 -0.0872  0.1763  0.1792
  324Sol     HW 4448   2.701   1.668   5.622  0.5771  0.8948 -0.3962
  324Sol     HW 4449   2.703   1.521   5.586 -0.3383  0.5236  1.0071
  324Sol     MW 4450   2.700   1.606   5.557  0.5461 -0.5832 -0.2078
  325Sol     OW 4451   2.332   3.139   1.938 -0.2177 -0.3223  0.3287
  325Sol     HW 4452   2.267   3.208   1.925  0.0528 -0.1603 -0.1386
  325Sol     HW 4453   2.301   3.067   1.884  2.5025  1.3810 -3.6617
  325Sol     MW 4454   2.323   3.139   1.932 -0.5924 -0.4992  0.1330
  326Sol     OW 4455   2.261   2.728   8.214 -0.0371 -0.1817  0.0040
  326Sol     HW 4456   2.237   2.636   8.218 -0.1662 -0.1937 -0.9841
  326Sol     HW 4457   2.183   2.775   8.245 -0.9169 -0.2830 -1.9987
  326Sol     MW 4458   2.252   2.724   8.217  0.1744  0.3431  0.2436
  327Sol     OW 4459   2.658   1.857   4.977 -0.3148 -0.0279 -0.9109
  327Sol     HW 4460   2.605   1.916   5.032 -0.0566 -0.0012 -0.6871
  327Sol     HW 4461   2.636   1.882   4.887 -1.0134 -0.3143 -0.8228
  327Sol     MW 4462   2.651   1.865   4.974 -0.0508 -0.2673  0.2792
  328Sol     OW 4463   1.704   2.716   6.877  0.3365 -0.2397  0.0843
  328Sol     HW 4464   1.797   2.722   6.858  0.4474 -2.0980 -0.0597
  328Sol     HW 4465   1.664   2.694   6.792 -0.0932 -0.5002  0.3525
  328Sol     MW 4466   1.708   2.714   6.867 -0.5023  0.1194  0.4440
  329Sol     OW 4467   1.330   0.479   3.724 -0.5891  0.0934  0.0008
  329Sol     HW 4468   1.408   0.430   3.753 -1.7069  0.5123  3.9538
  329Sol     HW 4469   1.310   0.442   3.637  1.9332 -2.4606  0.4102
  329Sol     MW 4470   1.336   0.471   3.719  0.0040  0.1645  0.7318
  330Sol     OW 4471   0.850   0.014   4.723 -0.3388 -0.0377 -0.6555
  330Sol     HW 4472   0.832   0.070   4.647 -1.1987  0.1334 -0.3313
  330Sol     HW 4473   0.944   0.023   4.737 -0.3062  0.5520 -1.2156
  330Sol     MW 4474   0.857   0.020   4.718  0.1651  0.7574  0.8129
  331Sol     OW 4475   1.350   0.829   6.297 -0.6484  0.7608 -0.1789
  331Sol     HW 4476   1.402   0.900   6.335  0.3691  0.5772 -1.1863
  331Sol     HW 4477   1.320   0.778   6.372  0.4405  1.0043  0.4299
  331Sol     MW 4478   1.352   0.831   6.307  0.8484  0.9337  0.5546
  332Sol     OW 4479   2.265   1.613   8.110  0.3373  0.3526 -0.3309
  332Sol     HW 4480   2.349   1.586   8.073  0.6656  1.1384 -0.1689
  332Sol     HW 4481   2.209   1.629   8.033  0.4022  0.0373 -0.4423
  332Sol     MW 4482   2.267   1.612   8.099 -0.2180 -0.2682  0.4570
  333Sol     OW 4483   1.700   0.498   7.785  0.0060  0.1631 -0.3213
  333Sol     HW 4484   1.675   0.540   7.702  0.4461 -3.8884 -2.6709
  333Sol     HW 4485   1.650   0.416   7.785  1.8945 -1.0377  2.2921
  333Sol     MW 4486   1.693   0.494   7.777 -0.0093  0.3723 -0.3966
  334Sol     OW 4487   0.012   1.981   6.270 -0.2695  0.2808 -0.1824
  334Sol     HW 4488   0.087   1.927   6.244  0.2565  0.8689  0.0975
  334Sol     HW 4489   0.044   2.071   6.264 -1.0249  0.5455 -0.2728
  334Sol     MW 4490   0.022   1.984   6.267  0.5863  0.0467  0.0687
  335Sol     OW 4491   2.970   0.520   4.048  0.3303 -0.1103  0.4208
  335Sol     HW 4492   2.918   0.466   3.989  0.7268 -0.8000  0.7056
  335Sol     HW 4493   3.042   0.552   3.994  1.3659 -1.7166  0.8226
  335Sol     MW 4494   2.971   0.518   4.038  0.3347 -0.2049  0.1248
  336Sol     OW 4495   2.993   0.794   6.498 -0.4989  0.4138  0.1242
  336Sol     HW 4496   2.939   0.722   6.530  0.0447  0.0753  0.2992
  336Sol     HW 4497   3.065   0.750   6.452 -0.5873  0.8656 -0.4396
  336Sol     MW 4498   2.995   0.784   6.497 -0.2594  0.0774 -0.7452
  337Sol     OW 4499   0.003   2.612   6.401  0.0453 -0.3786 -0.2430
  337Sol     HW 4500  -0.086   2.646   6.393  0.3783  0.3820 -0.7735
  337Sol     HW 4501   0.057   2.689   6.416  0.4619 -0.9680  1.4512
  337Sol     MW 4502   0.000   2.622   6.402 -0.1622 -0.4760  0.4610
  338Sol     OW 4503   1.291   0.196   6.496  0.5536  0.8774 -0.5050
  338Sol     HW 4504   1.273   0.181   6.403  1.1612 -1.2228 -0.3214
  338Sol     HW 4505   1.367   0.140   6.514  1.1550  2.1569  0.9934
  338Sol     MW 4506   1.297   0.189   6.489  0.1286  0.4492 -0.0964
  339Sol     OW 4507   3.178   2.771   3.677 -0.2440  0.3471 -0.4599
  339Sol     HW 4508   3.121   2.697   3.697 -1.6830  1.8022  0.9685
  339Sol     HW 4509   3.118   2.845   3.666  1.1955  1.3901 -1.5412
  339Sol     MW 4510   3.168   2.771   3.677  0.1697  0.2786  0.2516
  340Sol     OW 4511   3.326   3.297   2.349 -0.0424  0.2946  0.1635
  340Sol     HW 4512   3.385   3.227   2.378  0.5375 -0.0843 -1.8417
  340Sol     HW 4513   3.378   3.377   2.355  0.5236  0.0336 -1.0810
  340Sol     MW 4514   3.336   3.298   2.352  0.4918 -0.0548  0.6153
  341Sol     OW 4515   1.057   0.648   9.353  0.4566 -0.4458  0.3321
  341Sol     HW 4516   0.996   0.720   9.340  0.0931 -1.0702 -1.5711
  341Sol     HW 4517   1.015   0.573   9.311  0.0951 -2.1744  3.6656
  341Sol     MW 4518   1.048   0.648   9.348 -0.3933  0.2828 -0.0177
  342Sol     OW 4519   2.955   1.061   2.806  0.5461 -0.1969 -0.4082
  342Sol     HW 4520   2.884   1.109   2.762  2.3497  2.2977 -0.7325
  342Sol     HW 4521   2.976   0.989   2.746 -1.7425 -1.0298 -0.2607
  342Sol     MW 4522   2.950   1.059   2.796 -0.0559  0.1144 -0.4656
  343Sol     OW 4523   3.066   2.453   5.472  0.1434  0.2284 -0.1607
  343Sol     HW 4524   3.062   2.375   5.417  0.4072 -0.2272  0.4520
  343Sol     HW 4525   3.118   2.425   5.548 -0.4905  0.7472  0.4669
  343Sol     MW 4526   3.071   2.443   5.474  0.6819 -0.3532 -0.0242
  344Sol     OW 4527   0.712   3.244   4.778  1.1640 -0.2677  0.5540
  344Sol     HW 4528   0.762   3.323   4.759  0.8052  0.1701  1.4207
  344Sol     HW 4529   0.623   3.263   4.746  1.4044 -0.8217 -0.4498
  344Sol     MW 4530   0.708   3.253   4.773  0.2342  0.2020  0.3883
  345Sol     OW 4531   2.421   3.100   3.065 -0.3726  0.2626 -0.8049
  345Sol     HW 4532   2.416   3.029   3.130 -1.6925  0.9460 -0.1465
  345Sol     HW 4533   2.399   3.179   3.114 -0.8371  0.8624 -1.9660
  345Sol     MW 4534   2.418   3.100   3.075 -0.1527  0.0070  0.5249
  346Sol     OW 4535   1.922   2.744   6.502 -0.1172  0.0219 -0.3123
  346Sol     HW 4536   1.931   2.793   6.420 -0.6140  1.7837  0.6640
  346Sol     HW 4537   1.910   2.653   6.474 -1.8245  0.8064 -2.2620
  346Sol     MW 4538   1.922   2.740   6.492  0.1844  0.1499  0.2259
  347Sol     OW 4539   0.300   2.945   3.061 -0.5512 -0.6619 -0.2140
  347Sol     HW 4540   0.216   2.962   3.103 -0.2819  0.1923 -0.0186
  347Sol     HW 4541   0.347   2.889   3.123 -0.3708  0.1413  0.3738
  347Sol     MW 4542   0.296   2.941   3.070  0.1642  0.7999 -0.5728
  348Sol     OW 4543   0.854   2.538   2.968 -0.7887  0.2542 -0.4930
  348Sol     HW 4544   0.815   2.531   3.055 -3.3882  0.2413 -1.6154
  348Sol     HW 4545   0.931   2.480   2.971 -1.2276 -0.2476  1.5785
  348Sol     MW 4546   0.857   2.532   2.976 -0.1354 -0.1018  0.4316
  349Sol     OW 4547   0.940   1.762   6.218 -0.0430  0.1531 -0.9794
  349Sol     HW 4548   0.872   1.788   6.280 -0.2910  2.1495 -2.0456
  349Sol     HW 4549   1.005   1.716   6.271 -1.9815 -1.3878  0.1294
  349Sol     MW 4550   0.939   1.760   6.228 -0.1722  0.0930  0.0794
  350Sol     OW 4551   1.408   3.031   8.445  0.1904 -0.7640  0.0022
  350Sol     HW 4552   1.459   3.014   8.366 -2.0667  0.6509 -1.8501
  350Sol     HW 4553   1.402   3.126   8.449 -2.0095 -0.8988  0.3476
  350Sol     MW 4554   1.412   3.038   8.438  0.4316 -0.4645 -0.1719
  351Sol     OW 4555   2.402   1.450   6.574  1.1822 -0.5084 -0.1900
  351Sol     HW 4556   2.362   1.509   6.510  3.8589  2.8889  1.1353
  351Sol     HW 4557   2.436   1.377   6.522 -4.0340 -2.1206 -1.6291
  351Sol     MW 4558   2.401   1.448   6.564 -0.4185 -0.3497 -0.4958
  352Sol     OW 4559   3.066   1.812   8.952  0.4633 -0.2442 -0.1521
  352Sol     HW 4560   3.084   1.772   8.867 -0.0075 -0.6071 -0.0861
  352Sol     HW 4561   3.096   1.902   8.943 -2.4395  0.6169 -1.7519
  352Sol     MW 4562   3.070   1.817   8.944 -0.4294  0.0534 -0.0870
  353Sol     OW 4563   0.965   0.996   6.921  0.4307 -0.2101 -0.5418
  353Sol     HW 4564   0.962   0.901   6.914  1.9616 -0.3868  0.8373
  353Sol     HW 4565   0.972   1.027   6.830 -1.0733 -1.3422 -1.0590
  353Sol     MW 4566   0.965   0.990   6.912 -0.1163 -0.0579 -0.1330
  354Sol     OW 4567   2.175   0.414   9.512  0.1240 -0.1889  0.2835
  354Sol     HW 4568   2.111   0.343   9.519 -0.2377  0.2361  1.3021
  354Sol     HW 4569   2.249   0.385   9.565  0.2906 -0.1491  0.0726
  354Sol     MW 4570   2.175   0.405   9.517 -0.6507  0.5222  0.5318
  355Sol     OW 4571   2.346   0.435   2.150 -0.0589  0.3551  0.4683
  355Sol     HW 4572   2.291   0.394   2.217 -1.4040  1.8764  0.3417
  355Sol     HW 4573   2.428   0.454   2.195  0.1120 -1.2326  0.8806
  355Sol     MW 4574   2.348   0.433   2.160 -0.2921 -0.3009  0.2637
  356Sol     OW 4575   2.870   1.780   5.367 -0.3490 -0.3192  0.1169
  356Sol     HW 4576   2.789   1.733   5.390 -1.3092  0.7961 -0.9189
  356Sol     HW 4577   2.841   1.869   5.348  1.2117  0.2257  0.2790
  356Sol     MW 4578   2.860   1.784   5.367  0.1577 -0.4749 -0.4422
  357Sol     OW 4579   1.306   0.541   4.590 -0.3321  0.1407 -0.8418
  357Sol     HW 4580   1.296   0.631   4.561 -0.4429  0.4501  0.1437
  357Sol     HW 4581   1.386   0.541   4.643 -0.7624 -0.1751 -0.1890
  357Sol     MW 4582   1.312   0.549   4.592  0.1374  0.7907  1.1801
  358Sol     OW 4583   2.385   1.354   2.986  0.4984 -0.0882 -0.2915
  358Sol     HW 4584   2.305   1.310   2.960  1.1188 -0.7826 -1.0471
  358Sol     HW 4585   2.360   1.408   3.061 -0.4052 -1.2082  0.2170
  358Sol     MW 4586   2.376   1.355   2.990  0.1028 -0.6820  0.1953
  359Sol     OW 4587   1.782   0.272   2.084 -0.9955 -0.1074  0.2027
  359Sol     HW 4588   1.825   0.342   2.033 -1.9076 -1.1235 -2.0245
  359Sol     HW 4589   1.718   0.317   2.138 -0.0295  0.9953  0.4594
  359Sol     MW 4590   1.780   0.282   2.084 -0.3872 -0.1352  0.3116
  360Sol     OW 4591   1.501   0.795   6.743  0.0275 -0.2359 -0.1645
  360Sol     HW 4592   1.544   0.715   6.713 -1.2822 -0.3076 -2.0095
  360Sol     HW 4593   1.508   0.855   6.669 -1.3884  0.3821  0.1768
  360Sol     MW 4594   1.505   0.793   6.733  0.0688  0.0535 -0.3503
  361Sol     OW 4595   1.053   0.142   7.132 -0.1977  0.1021  0.1852
  361Sol     HW 4596   1.091   0.086   7.064  1.0212 -1.1188  1.8407
  361Sol     HW 4597   1.096   0.226   7.120  1.4366 -0.6476  0.6238
  361Sol     MW 4598   1.060   0.144   7.125 -0.8411  0.3377 -0.2884
  362Sol     OW 4599   2.516   0.930   6.302  0.6086  0.3929 -0.2570
  362Sol     HW 4600   2.443   0.876   6.271  0.4774 -0.4078  1.4154
  362Sol     HW 4601   2.594   0.881   6.274  0.5232  0.9183 -1.4642
  362Sol     MW 4602   2.516   0.920   6.296 -0.0950 -0.7444  0.2041
  363Sol     OW 4603   0.903   1.250   4.469 -0.3485 -0.1141  0.3949
  363Sol     HW 4604   0.913   1.343   4.487  0.3522 -0.1278  0.1179
  363Sol     HW 4605   0.948   1.206   4.541 -3.1202 -0.3237  2.0840
  363Sol     MW 4606   0.908   1.254   4.477 -0.3211  0.4309 -0.3550
  364Sol     OW 4607   0.665   3.332   6.752  0.1948 -0.1455 -0.0056
  364Sol     HW 4608   0.606   3.384   6.806 -0.8715 -1.8533  0.5161
  364Sol     HW 4609   0.690   3.390   6.680 -1.5915  0.8221  0.1255
  364Sol     MW 4610   0.662   3.342   6.750 -0.8450  0.4057 -0.0023
  365Sol     OW 4611   2.363   1.858   1.863 -0.3241 -0.3797  0.6432
  365Sol     HW 4612   2.385   1.942   1.902  0.8128 -0.3224 -0.1059
  365Sol     HW 4613   2.375   1.871   1.769  0.4238 -1.5472  0.5713
  365Sol     MW 4614   2.366   1.867   1.858  0.0120 -0.0815  0.3348
  366Sol     OW 4615   0.447   1.528   4.501  0.2738  0.0969 -0.3698
  366Sol     HW 4616   0.416   1.596   4.441  0.2850  1.6815  1.3838
  366Sol     HW 4617   0.526   1.565   4.541  0.3093 -0.9604  0.5735
  366Sol     MW 4618   0.452   1.537   4.499  0.4790  0.0262  0.4254
  367Sol     OW 4619   0.601   1.237   4.676  0.0332 -0.5183  0.3134
  367Sol     HW 4620   0.521   1.251   4.625 -0.9073  0.1633  1.9328
  367Sol     HW 4621   0.592   1.148   4.711  0.5188 -0.8605 -0.4266
  367Sol     MW 4622   0.593   1.230   4.674  0.0273  0.2831 -0.3349
  368Sol     OW 4623   0.033   0.491   1.833 -0.2307  0.4978  0.0602
  368Sol     HW 4624   0.004   0.411   1.876  1.9487 -0.3189  0.0376
  368Sol     HW 4625   0.044   0.554   1.904  1.0580 -0.1425  0.4339
  368Sol     MW 4626   0.031   0.490   1.843  0.4324 -0.1071  0.2255
  369Sol     OW 4627   0.202   1.839   3.678 -0.8895  0.1986  0.7318
  369Sol     HW 4628   0.249   1.802   3.753 -0.1112  0.3761  0.3440
  369Sol     HW 4629   0.118   1.867   3.714 -0.7962 -0.3420  1.3948
  369Sol     MW 4630   0.199   1.838   3.688  0.1609 -0.4138  0.1685
  370Sol     OW 4631   2.168   0.590   1.489  0.3687 -0.0658  0.5619
  370Sol     HW 4632   2.136   0.665   1.539  0.2028 -0.7945  1.5693
  370Sol     HW 4633   2.094   0.561   1.437 -0.0157 -0.4747  1.3327
  370Sol     MW 4634   2.159   0.594   1.489  0.0223 -0.5497  0.2774
  371Sol     OW 4635   0.040   1.075   8.279  0.1175 -0.2719 -0.4338
  371Sol     HW 4636   0.050   0.980   8.281  2.6753 -0.0267 -0.7050
  371Sol     HW 4637   0.071   1.105   8.365  1.1921  0.4686 -1.0629
  371Sol     MW 4638   0.043   1.069   8.287  0.1402 -0.0958 -0.0952
  372Sol     OW 4639   2.540   0.037   6.374  0.0760  0.3939  0.3151
  372Sol     HW 4640   2.578  -0.042   6.333 -0.4635  1.4635 -2.3895
  372Sol     HW 4641   2.446   0.025   6.366 -0.0621  0.2987  1.9727
  372Sol     MW 4642   2.535   0.029   6.369 -0.2379  0.1655 -0.3232
  373Sol     OW 4643   3.240   3.417   6.188 -0.0106  0.4506 -0.1232
  373Sol     HW 4644   3.236   3.512   6.174 -0.9829  0.6464  1.3673
  373Sol     HW 4645   3.329   3.400   6.216 -0.3769  1.2138  1.5403
  373Sol     MW 4646   3.247   3.424   6.189  0.7033  0.3007 -0.1249
  374Sol     OW 4647   3.113   0.755   3.572 -0.3109 -0.0847  0.4709
  374Sol     HW 4648   3.144   0.846   3.566 -0.4331 -0.1661 -1.8799
  374Sol     HW 4649   3.106   0.738   3.666 -0.9124  2.5697  0.9481
  374Sol     MW 4650   3.115   0.762   3.580 -0.1560 -0.0500  0.5225
  375Sol     OW 4651   1.305   0.338   3.099  0.0497  0.0506  0.0819
  375Sol     HW 4652   1.337   0.283   3.170  2.3883 -1.1103 -1.7754
  375Sol     HW 4653   1.382   0.352   3.043 -1.3717  2.1406 -1.4396
  375Sol     MW 4654   1.315   0.334   3.100 -0.1683  0.3791  0.9849
  376Sol     OW 4655   0.835   2.040   5.021  0.3847  0.3427 -0.1251
  376Sol     HW 4656   0.927   2.061   5.004 -0.1270  0.8365 -2.5619
  376Sol     HW 4657   0.786   2.112   4.980 -1.0727  0.3182  1.5393
  376Sol     MW 4658   0.839   2.048   5.015 -0.3023  0.4235  0.8115
  377Sol     OW 4659   1.366   2.457   8.662  0.5919  0.3959  0.3615
  377Sol     HW 4660   1.405   2.514   8.729 -0.2121  0.7934  0.4941
  377Sol     HW 4661   1.436   2.445   8.597  1.0036  0.9336  0.7044
  377Sol     MW 4662   1.376   2.461   8.662  0.5275 -0.1226  0.3276
  378Sol     OW 4663   2.843   1.646   3.475 -0.3095  0.0865 -0.5593
  378Sol     HW 4664   2.839   1.644   3.380 -1.2594  2.5569 -0.6131
  378Sol     HW 4665   2.871   1.735   3.497  0.0257 -0.4719  1.4764
  378Sol     MW 4666   2.845   1.654   3.469  0.3520 -0.2249  0.0656
  379Sol     OW 4667   0.173   0.235   7.890 -0.1744  0.8527 -0.0311
  379Sol     HW 4668   0.249   0.217   7.946  0.0099  1.8028  0.0372
  379Sol     HW 4669   0.190   0.186   7.809 -0.3300 -0.3404  0.6472
  379Sol     MW 4670   0.182   0.229   7.888 -0.5649  0.9191 -0.2957
  380Sol     OW 4671   2.102   0.236   6.539 -0.8570 -0.6280 -0.3903
  380Sol     HW 4672   2.086   0.265   6.628 -2.2476 -2.5496  0.0288
  380Sol     HW 4673   2.169   0.296   6.505 -1.2901  0.9506  1.4701
  380Sol     MW 4674   2.106   0.244   6.544  0.0761  0.3648 -0.5186
  381Sol     OW 4675   2.277   1.698   9.088 -0.3454  0.2048 -0.0332
  381Sol     HW 4676   2.312   1.688   9.000 -2.7402  0.3854 -1.0439
  381Sol     HW 4677   2.318   1.627   9.138  2.4266  1.1927 -0.7858
  381Sol     MW 4678   2.284   1.690   9.085  0.4368 -0.2336 -0.2174
  382Sol     OW 4679   0.553   3.451   5.877 -0.3210  0.0704 -0.4477
  382Sol     HW 4680   0.478   3.412   5.921  0.5655 -1.4241 -0.2218
  382Sol     HW 4681   0.543   3.425   5.785  0.0464 -0.3447 -0.3725
  382Sol     MW 4682   0.546   3.445   5.873  0.3560 -0.2653 -0.5617
  383Sol     OW 4683   1.044   2.471   3.214 -0.2350  0.2064  0.8786
  383Sol     HW 4684   1.025   2.531   3.286 -3.2387  0.7821 -0.3310
  383Sol     HW 4685   0.980   2.400   3.224  1.6926 -1.6016  0.8625
  383Sol     MW 4686   1.037   2.470   3.221  0.0999  0.1950  0.1267
  384Sol     OW 4687   0.526   2.426   3.904 -0.0329 -0.3968  0.1629
  384Sol     HW 4688   0.506   2.339   3.870  1.5189 -1.0717  0.9100
  384Sol     HW 4689   0.519   2.418   3.999  3.4419 -0.6626  0.4862
  384Sol     MW 4690   0.524   2.418   3.909 -0.0459  0.5132 -0.3745
  385Sol     OW 4691   1.252   0.267   1.921 -0.4431  0.0622 -0.4814
  385Sol     HW 4692   1.201   0.196   1.959  0.1157  0.1623  0.4684
  385Sol     HW 4693   1.317   0.223   1.867 -0.8405 -0.1057 -0.8231
  385Sol     MW 4694   1.254   0.257   1.920  0.4239  0.3089  0.2294
  386Sol     OW 4695   1.729   2.536   5.311  0.6526  0.1319 -0.3047
  386Sol     HW 4696   1.671   2.576   5.246  1.6270  1.0248 -0.6432
  386Sol     HW 4697   1.757   2.454   5.271 -0.2714 -0.2382 -0.1941
  386Sol     MW 4698   1.726   2.532   5.301 -0.2415  0.2752  0.2442
  387Sol     OW 4699   2.212   0.830   4.820  0.9148 -0.1444 -0.4308
  387Sol     HW 4700   2.186   0.922   4.815  1.0277  0.0110  1.5418
  387Sol     HW 4701   2.308   0.832   4.815  1.0224  0.0045  1.6120
  387Sol     MW 4702   2.219   0.838   4.819  0.1238  0.3414 -0.4935
  388Sol     OW 4703   2.719   2.484   9.038 -0.3934  0.2399  0.2809
  388Sol     HW 4704   2.664   2.543   8.986 -0.4781  0.0809  0.1918
  388Sol     HW 4705   2.775   2.543   9.089  2.6326  0.4269 -3.0751
  388Sol     MW 4706   2.719   2.495   9.038  0.4861 -0.1088  0.0959
  389Sol     OW 4707   1.751   0.356   8.512 -0.0520 -0.2330 -0.4962
  389Sol     HW 4708   1.714   0.444   8.513 -1.0093 -0.6353  0.1463
  389Sol     HW 4709   1.690   0.304   8.565 -0.7881 -1.7724 -2.7677
  389Sol     MW 4710   1.742   0.359   8.516  0.5070  0.4538 -0.3219
  390Sol     OW 4711   2.586   1.682   1.982  0.2582  0.6393 -0.1635
  390Sol     HW 4712   2.591   1.737   1.903 -3.2985  1.1056 -0.1585
  390Sol     HW 4713   2.493   1.663   1.991  1.1709 -3.7619  1.0239
  390Sol     MW 4714   2.578   1.686   1.975 -0.5520 -0.4904  0.3997
  391Sol     OW 4715   1.010   1.552   8.537 -0.0504  0.0577  0.0921
  391Sol     HW 4716   1.038   1.469   8.497 -1.1024 -0.6902  0.8579
  391Sol     HW 4717   1.014   1.535   8.631 -0.3704  0.8524  0.2525
  391Sol     MW 4718   1.013   1.543   8.542  0.9342 -0.1237 -0.4228
  392Sol     OW 4719   1.715   3.444   2.540  0.1121 -0.0067  0.8005
  392Sol     HW 4720   1.787   3.435   2.477 -1.5148 -0.4494 -1.0821
  392Sol     HW 4721   1.637   3.453   2.485 -1.3455 -0.1728  2.7822
  392Sol     MW 4722   1.714   3.444   2.529  0.1383 -0.5976  0.2513
  393Sol     OW 4723   0.644   2.503   7.965  0.0198 -0.5961  0.1523
  393Sol     HW 4724   0.611   2.570   7.905  1.9484 -1.0746 -1.4972
  393Sol     HW 4725   0.663   2.551   8.046 -1.0202  0.3741 -0.1756
  393Sol     MW 4726   0.643   2.513   7.967 -0.1152 -0.2410  0.4116
  394Sol     OW 4727   0.547   0.693   6.133  0.1319  0.7841  0.2378
  394Sol     HW 4728   0.631   0.718   6.094 -0.1423  0.4402 -0.5976
  394Sol     HW 4729   0.570   0.647   6.213  0.7133  1.4656  0.4701
  394Sol     MW 4730   0.556   0.691   6.136 -0.4559 -0.4714 -0.1724
  395Sol     OW 4731   2.922   0.260   7.923  0.0990 -0.5169  0.3360
  395Sol     HW 4732   2.972   0.182   7.897 -0.6309 -0.7304 -0.4663
  395Sol     HW 4733   2.848   0.226   7.972 -0.0813 -0.3069  0.2078
  395Sol     MW 4734   2.920   0.250   7.925  0.3355  0.5079  0.1630
  396Sol     OW 4735   2.000   3.130   6.322  0.1964  0.3896  0.2993
  396Sol     HW 4736   2.080   3.147   6.371  0.2821  0.8900 -0.0126
  396Sol     HW 4737   1.996   3.034   6.316  2.1604  0.4162 -1.9596
  396Sol     MW 4738   2.007   3.123   6.326  0.4573 -0.0329 -0.0303
  397Sol     OW 4739   1.683   0.638   8.550 -0.4058 -0.4001 -0.0987
  397Sol     HW 4740   1.630   0.650   8.628 -0.8399 -0.0981 -0.4396
  397Sol     HW 4741   1.633   0.679   8.480 -0.0664 -0.7539 -0.5567
  397Sol     MW 4742   1.674   0.642   8.550 -0.1368 -0.0523  0.1159
  398Sol     OW 4743   0.948   1.713   8.930 -0.2720 -0.0403  0.4342
  398Sol     HW 4744   1.002   1.763   8.990 -1.0659  2.2970 -0.7531
  398Sol     HW 4745   0.867   1.696   8.978 -1.2012  2.4655 -0.1917
  398Sol     MW 4746   0.945   1.716   8.940  0.3202  0.4424 -0.2444
  399Sol     OW 4747   2.615   1.017   2.636  0.1438  0.4193 -0.7289
  399Sol     HW 4748   2.661   1.100   2.647  3.2913 -1.3855  0.5958
  399Sol     HW 4749   2.611   0.980   2.724 -0.6261 -1.0933 -1.3756
  399Sol     MW 4750   2.619   1.021   2.645  0.1954  0.2624 -0.1304
  400Sol     OW 4751   2.684   2.826   2.860  0.1891  0.2348  0.1685
  400Sol     HW 4752   2.652   2.912   2.832  2.4530  0.9723 -0.2482
  400Sol     HW 4753   2.751   2.803   2.796  0.4094 -1.3219  0.9261
  400Sol     MW 4754   2.687   2.832   2.852 -1.1047  0.2399 -0.1784
  401Sol     OW 4755   0.363   2.872   1.914  0.1499 -0.2013 -0.2942
  401Sol     HW 4756   0.364   2.784   1.876 -0.0754  0.8610 -2.9016
  401Sol     HW 4757   0.430   2.920   1.864 -0.5290  1.4068  0.2963
  401Sol     MW 4758   0.369   2.869   1.906  0.5243 -0.2353  0.0669
  402Sol     OW 4759   2.905   1.725   4.184 -0.3076  0.0412 -1.0298
  402Sol     HW 4760   2.811   1.733   4.167 -0.7106 -2.3764 -0.1089
  402Sol     HW 4761   2.927   1.636   4.155  1.5188  0.2901 -0.4650
  402Sol     MW 4762   2.898   1.718   4.180  0.4929 -0.4219 -0.6541
  403Sol     OW 4763   0.480   0.315   8.294 -0.1843 -0.7723  0.2611
  403Sol     HW 4764   0.572   0.288   8.285 -0.7069 -2.1177 -1.3791
  403Sol     HW 4765   0.436   0.239   8.330 -0.6143 -0.0340  1.2930
  403Sol     MW 4766   0.485   0.306   8.296  0.3997 -0.0878  0.1337
  404Sol     OW 4767   2.902   2.109   3.397 -0.0239 -0.3679 -0.1629
  404Sol     HW 4768   2.810   2.092   3.379 -0.4325 -0.7015  2.1521
  404Sol     HW 4769   2.908   2.204   3.402 -0.3215 -0.3639  0.1132
  404Sol     MW 4770   2.895   2.116   3.396  0.5826  0.0786  0.6888
  405Sol     OW 4771   0.136   3.113   6.145  0.2532  0.7314 -0.2622
  405Sol     HW 4772   0.156   3.205   6.158 -1.4103  1.4780 -2.7155
  405Sol     HW 4773   0.041   3.107   6.155  0.3536 -0.7404 -0.0522
  405Sol     MW 4774   0.130   3.120   6.147  0.9006 -0.0481 -0.5384
  406Sol     OW 4775   3.199   3.148   6.272  0.0641 -0.0674 -0.4968
  406Sol     HW 4776   3.192   3.237   6.237 -0.3361 -0.0816 -0.4516
  406Sol     HW 4777   3.123   3.102   6.236 -0.6912  0.0828  0.9128
  406Sol     MW 4778   3.192   3.151   6.265 -0.7703 -0.4420 -0.4879
  407Sol     OW 4779   1.914   1.139   5.012 -0.1150  0.0293  0.0261
  407Sol     HW 4780   1.977   1.140   4.940 -0.0278 -1.2359  0.0768
  407Sol     HW 4781   1.847   1.202   4.985  0.2327  0.0324 -0.8740
  407Sol     MW 4782   1.914   1.145   5.003 -0.2136 -0.0642  0.8511
  408Sol     OW 4783   1.959   0.971   2.494 -0.0343 -0.2133 -0.1821
  408Sol     HW 4784   1.896   0.900   2.482 -0.7630  0.3409  0.2866
  408Sol     HW 4785   1.915   1.048   2.458 -0.2158  0.4635  1.4196
  408Sol     MW 4786   1.949   0.972   2.490 -0.5493 -1.2552 -0.1208
  409Sol     OW 4787   1.272   0.752   2.377 -0.0697 -0.0995  0.1106
  409Sol     HW 4788   1.291   0.826   2.435  1.1823 -0.1845 -0.1669
  409Sol     HW 4789   1.350   0.696   2.384 -0.7636 -1.1057 -0.1138
  409Sol     MW 4790   1.281   0.753   2.383  0.0126  0.3475  0.0594
  410Sol     OW 4791   0.044   3.438   7.434  0.5180 -0.8155 -0.1617
  410Sol     HW 4792   0.091   3.509   7.389  0.1395 -1.1467 -1.0914
  410Sol     HW 4793  -0.045   3.443   7.400  0.1737 -0.9613  0.6992
  410Sol     MW 4794   0.040   3.445   7.427  0.0358 -0.0275  0.2898
  411Sol     OW 4795   2.493   2.798   8.371 -0.6581 -0.5565  0.1212
  411Sol     HW 4796   2.410   2.799   8.324 -2.1250  1.4609  2.6160
  411Sol     HW 4797   2.473   2.752   8.453  0.9590 -0.9325  0.3287
  411Sol     MW 4798   2.484   2.794   8.374 -0.3414  0.1466 -0.8381
  412Sol     OW 4799   0.176   3.377   6.226 -0.2116  0.2741 -0.2134
  412Sol     HW 4800   0.181   3.472   6.214 -2.3288  0.6397  1.5266
  412Sol     HW 4801   0.200   3.363   6.317  1.3718 -1.0185 -0.8110
  412Sol     MW 4802   0.179   3.385   6.233 -0.4779 -0.1070  0.5193
  413Sol     OW 4803   0.529   1.209   3.661 -0.2716 -0.0194  0.5585
  413Sol     HW 4804   0.613   1.166   3.672 -1.0170 -2.5320 -2.8663
  413Sol     HW 4805   0.471   1.167   3.724  0.2485 -0.5771  0.6608
  413Sol     MW 4806   0.531   1.202   3.667  0.2818  0.5521 -0.4164
  414Sol     OW 4807   1.090   1.056   7.906 -0.1646  0.2312 -0.0982
  414Sol     HW 4808   1.069   0.964   7.916  1.8199 -0.4314 -1.6413
  414Sol     HW 4809   1.043   1.084   7.827 -1.7762  0.8850  1.0765
  414Sol     MW 4810   1.084   1.050   7.900  0.2593 -0.5627 -0.1242
  415Sol     OW 4811   1.213   2.881   8.048 -0.8601  0.0868  0.0395
  415Sol     HW 4812   1.275   2.953   8.040 -1.1008  0.2332 -0.4847
  415Sol     HW 4813   1.254   2.821   8.111  0.3990 -0.4334 -1.2696
  415Sol     MW 4814   1.222   2.882   8.053 -0.0709 -0.2671 -0.4866
  416Sol     OW 4815   0.086   1.835   1.910 -0.2927 -0.3647  0.1321
  416Sol     HW 4816  -0.007   1.831   1.887 -0.6215 -1.4241  1.5077
  416Sol     HW 4817   0.123   1.902   1.853 -2.0577  0.5785  0.0603
  416Sol     MW 4818   0.081   1.841   1.903  0.0117 -0.5360  0.3031
  417Sol     OW 4819   0.803   1.896   7.653  0.1432  0.0373 -0.0473
  417Sol     HW 4820   0.785   1.843   7.577 -0.1157  0.6726 -0.4341
  417Sol     HW 4821   0.769   1.846   7.727 -1.0815  0.1579 -0.5152
  417Sol     MW 4822   0.799   1.887   7.653 -0.3336 -0.4396  0.3924
  418Sol     OW 4823   3.070   1.523   9.561  0.0380  0.3301 -0.5895
  418Sol     HW 4824   3.030   1.510   9.475  0.6925  2.0089 -1.1742
  418Sol     HW 4825   3.006   1.575   9.610 -0.1095 -0.1819 -0.2370
  418Sol     MW 4826   3.061   1.527   9.558  0.2359  0.6135 -0.4744
  419Sol     OW 4827   2.435   1.874   4.080  0.3215  0.0214  0.7145
  419Sol     HW 4828   2.506   1.856   4.142 -0.1855  0.0581  1.3069
  419Sol     HW 4829   2.355   1.863   4.130 -0.0705  1.1023  0.3488
  419Sol     MW 4830   2.434   1.871   4.090  0.1246  0.6400 -0.6940
  420Sol     OW 4831   0.230   0.137   6.997 -0.1262 -0.0643  0.5420
  420Sol     HW 4832   0.222   0.046   7.025  0.5356  0.4724  2.5859
  420Sol     HW 4833   0.140   0.170   7.000 -0.1307 -0.1575  1.5792
  420Sol     MW 4834   0.221   0.132   7.000 -0.0487 -0.6912  0.4223
  421Sol     OW 4835   1.134   1.542   1.956  0.6061 -0.3195 -0.0931
  421Sol     HW 4836   1.162   1.603   2.025 -0.2258 -1.0217  0.8713
  421Sol     HW 4837   1.052   1.578   1.924 -1.5236 -2.5858  2.6448
  421Sol     MW 4838   1.129   1.551   1.959 -0.0807  0.0308 -0.0547
  422Sol     OW 4839   2.458   3.059   3.433 -0.0993  0.4085  0.1452
  422Sol     HW 4840   2.411   3.042   3.514 -0.9044  1.2999 -0.1282
  422Sol     HW 4841   2.551   3.050   3.456 -0.3894 -1.1004  0.7430
  422Sol     MW 4842   2.462   3.057   3.442 -0.2827  0.8456  0.2547
  423Sol     OW 4843   2.017   1.148   5.751  0.0301 -0.3610 -0.0405
  423Sol     HW 4844   2.074   1.150   5.828 -2.2071 -1.5345  1.7093
  423Sol     HW 4845   2.012   1.056   5.727  0.0466 -0.0912 -1.0898
  423Sol     MW 4846   2.021   1.140   5.756 -0.2714  0.0644 -0.4932
  424Sol     OW 4847   2.005   2.172   6.661  0.2017  0.1587 -0.1360
  424Sol     HW 4848   1.975   2.183   6.751  1.1339  0.0433  0.1913
  424Sol     HW 4849   1.984   2.082   6.639  3.1834 -0.9359  1.2008
  424Sol     MW 4850   2.001   2.165   6.667  0.3451 -0.0771  0.2206
  425Sol     OW 4851   0.815   1.756   1.591  0.1618  0.4218 -0.6461
  425Sol     HW 4852   0.723   1.781   1.591  0.7947  2.9624  1.4505
  425Sol     HW 4853   0.816   1.667   1.627 -1.5129  0.0783 -1.4248
  425Sol     MW 4854   0.807   1.750   1.595  0.4812  0.3542  0.6706
  426Sol     OW 4855   2.133   2.944   2.276 -0.0329 -0.3529 -0.1473
  426Sol     HW 4856   2.210   3.001   2.263 -1.0536  0.8993 -0.8206
  426Sol     HW 4857   2.125   2.896   2.194 -0.9042  0.6950 -0.6934
  426Sol     MW 4858   2.139   2.945   2.268  0.1885  0.0105  0.8419
  427Sol     OW 4859   1.423   1.220   8.252 -0.1019  0.8481  0.2989
  427Sol     HW 4860   1.386   1.208   8.165 -2.8271 -0.6779  1.6021
  427Sol     HW 4861   1.349   1.244   8.307  1.4463  1.1393  2.3263
  427Sol     MW 4862   1.413   1.221   8.249  0.0716 -0.5785  0.8165
  428Sol     OW 4863   2.682   0.239   2.754  0.0681 -0.1373  0.5351
  428Sol     HW 4864   2.629   0.262   2.830 -0.2240 -0.1099  0.3194
  428Sol     HW 4865   2.771   0.266   2.779 -0.1014  0.2876  0.6896
  428Sol     MW 4866   2.686   0.244   2.763 -0.6588 -0.0274 -0.2611
  429Sol     OW 4867   0.431   2.347   9.154 -0.1761 -0.4721 -0.2768
  429Sol     HW 4868   0.449   2.432   9.114 -2.5286  0.4291  0.5207
  429Sol     HW 4869   0.439   2.285   9.081  0.3513  0.5665 -1.1246
  429Sol     MW 4870   0.434   2.349   9.144 -0.7856 -0.2768  0.4002
  430Sol     OW 4871   1.936   0.881   7.959 -0.0121  0.2495  0.6294
  430Sol     HW 4872   1.999   0.865   7.889  0.5875  0.6179  1.0812
  430Sol     HW 4873   1.905   0.793   7.983  1.1054 -0.0262  1.1117
  430Sol     MW 4874   1.939   0.871   7.955 -0.4092  0.4395  0.3631
  431Sol     OW 4875   1.986   0.233   9.402 -0.1810  0.6489  0.0965
  431Sol     HW 4876   1.989   0.164   9.336  0.0748  1.4973 -0.7768
  431Sol     HW 4877   1.893   0.247   9.417 -0.2681  1.6668 -1.3534
  431Sol     MW 4878   1.978   0.228   9.398  0.1600 -0.0054 -0.4401
  432Sol     OW 4879   3.322   2.923   9.677  0.2940  0.6344  0.2388
  432Sol     HW 4880   3.308   3.015   9.654 -0.3610  0.9609  1.8674
  432Sol     HW 4881   3.323   2.877   9.593 -1.7127  1.8178 -0.4680
  432Sol     MW 4882   3.321   2.927   9.668 -0.4560 -0.6308 -0.5002
  433Sol     OW 4883   3.056   1.986   8.479 -0.2241  0.6015 -0.0085
  433Sol     HW 4884   2.969   1.951   8.497 -0.6207  1.3707 -0.4219
  433Sol     HW 4885   3.085   2.025   8.562 -0.3861  0.5929  0.0512
  433Sol     MW 4886   3.051   1.986   8.488 -0.2108  0.8350  0.0067
  434Sol     OW 4887   0.164   1.490   5.146  0.1514  0.6634  0.4831
  434Sol     HW 4888   0.104   1.562   5.130 -1.5274 -0.7811  0.1362
  434Sol     HW 4889   0.205   1.472   5.061 -1.4916 -0.5850 -0.0653
  434Sol     MW 4890   0.163   1.494   5.137  0.8322 -0.7345  0.1381
  435Sol     OW 4891   0.722   1.496   5.866 -0.4208  0.3239  0.1953
  435Sol     HW 4892   0.729   1.445   5.947  0.6384  1.4009  0.7881
  435Sol     HW 4893   0.812   1.504   5.834 -0.6214  1.5392 -0.0785
  435Sol     MW 4894   0.731   1.492   5.870 -0.0982 -0.0410  0.4128
  436Sol     OW 4895   2.728   0.481   3.413  0.2855 -0.0383 -0.3329
  436Sol     HW 4896   2.677   0.547   3.365  0.5030  0.4904  0.1647
  436Sol     HW 4897   2.687   0.398   3.390 -1.4017  0.4698  0.8303
  436Sol     MW 4898   2.720   0.479   3.406  0.3550  0.1496 -0.1586
  437Sol     OW 4899   0.526   2.588   9.070 -0.1175  0.2561 -0.1951
  437Sol     HW 4900   0.556   2.572   8.981 -1.3441 -0.8327 -0.4168
  437Sol     HW 4901   0.592   2.647   9.107  0.7767  0.1438 -1.5809
  437Sol     MW 4902   0.535   2.592   9.066 -0.5799 -0.1389 -0.2936
  438Sol     OW 4903   2.017   1.263   9.290 -0.0437  0.0540 -0.1363
  438Sol     HW 4904   1.957   1.320   9.338  1.1645  0.9371  0.3350
  438Sol     HW 4905   2.072   1.223   9.357  1.4361  1.0476 -0.7186
  438Sol     MW 4906   2.017   1.265   9.300 -0.1584  0.0460  0.2026
  439Sol     OW 4907   1.651   1.839   6.673 -0.1438  0.4253  0.6663
  439Sol     HW 4908   1.595   1.904   6.715 -1.3346  0.0524 -0.3440
  439Sol     HW 4909   1.604   1.756   6.682 -0.2338  0.2777 -1.0609
  439Sol     MW 4910   1.642   1.837   6.678  0.6268  0.2400  0.3888
  440Sol     OW 4911   2.465   3.058   8.702 -0.1986  0.6865 -0.1968
  440Sol     HW 4912   2.552   3.019   8.689  0.2752  2.4760 -2.8094
  440Sol     HW 4913   2.409   2.984   8.726  1.4447 -0.9841 -1.3633
  440Sol     MW 4914   2.468   3.048   8.703  0.1483  0.6357  0.1691
  441Sol     OW 4915   1.126   1.877   5.082 -0.2595 -0.5003  0.2081
  441Sol     HW 4916   1.120   1.962   5.038 -0.4207 -0.1505  0.9107
  441Sol     HW 4917   1.063   1.882   5.154  1.8222 -0.1194  2.0636
  441Sol     MW 4918   1.120   1.885   5.084 -0.2318 -0.1630 -0.3110
  442Sol     OW 4919   3.094   3.117   5.674 -0.0934 -1.2451 -0.2039
  442Sol     HW 4920   3.064   3.030   5.647 -0.7535 -1.2141  0.4283
  442Sol     HW 4921   3.161   3.140   5.609  0.4150 -2.4122 -0.1070
  442Sol     MW 4922   3.098   3.111   5.665  0.2122 -0.4363  0.0899
  443Sol     OW 4923   1.494   2.288   1.984 -0.8303  0.0502  0.2336
  443Sol     HW 4924   1.531   2.342   1.914 -1.3885  0.1791  0.0372
  443Sol     HW 4925   1.569   2.264   2.038 -0.3640 -0.2365 -0.5399
  443Sol     MW 4926   1.504   2.291   1.982 -0.0939 -0.3019  0.1026
  444Sol     OW 4927   3.186   1.203   9.388 -0.4633  0.0001  0.1126
  444Sol     HW 4928   3.193   1.246   9.303 -0.7843  0.0364  0.1055
  444Sol     HW 4929   3.092   1.191   9.401 -0.3660 -0.9763 -0.0349
  444Sol     MW 4930   3.178   1.205   9.381 -0.1768  0.0095 -0.5638
  445Sol     OW 4931   2.387   2.176   3.224 -0.4131  0.0662  0.0700
  445Sol     HW 4932   2.298   2.163   3.256 -0.6802 -0.9441 -1.0480
  445Sol     HW 4933   2.393   2.122   3.145  0.3011  2.2588 -1.4295
  445Sol     MW 4934   2.380   2.170   3.219 -0.0966 -0.1938 -0.2380
  446Sol     OW 4935   1.849   1.300   4.187  0.3417  0.2258 -0.2317
  446Sol     HW 4936   1.870   1.393   4.188  0.6369  0.1680 -1.0013
  446Sol     HW 4937   1.841   1.277   4.094  1.3745 -0.7564 -0.0951
  446Sol     MW 4938   1.850   1.306   4.179 -0.9075 -0.1014 -0.5351
  447Sol     OW 4939   0.245   3.324   3.121  0.5428  0.1639 -0.3479
  447Sol     HW 4940   0.309   3.279   3.065 -0.0167 -1.5180  0.3119
  447Sol     HW 4941   0.251   3.416   3.096  2.1336 -0.1955 -1.3559
  447Sol     MW 4942   0.251   3.328   3.113 -0.2508  0.1672 -0.7833
  448Sol     OW 4943   2.811   2.825   8.210 -0.2489 -0.2721  0.6720
  448Sol     HW 4944   2.739   2.770   8.178  1.8183 -3.3068  1.0292
  448Sol     HW 4945   2.805   2.820   8.305 -0.9547  1.4079  0.7361
  448Sol     MW 4946   2.804   2.820   8.216  0.0267 -0.1285  0.1881
  449Sol     OW 4947   0.061   0.374   3.813 -0.4792  0.3684 -0.4655
  449Sol     HW 4948   0.033   0.291   3.851 -2.1579  1.1361  0.0268
  449Sol     HW 4949   0.094   0.425   3.886 -0.0322  0.3674 -0.6664
  449Sol     MW 4950   0.061   0.371   3.823  0.4745  0.3210  0.3539
  450Sol     OW 4951   2.435   1.958   9.592 -0.1226  0.4481  0.1427
  450Sol     HW 4952   2.445   2.053   9.588 -1.0474  0.5052 -3.6775
  450Sol     HW 4953   2.516   1.924   9.553  0.6228 -0.4007  2.3734
  450Sol     MW 4954   2.443   1.964   9.588  0.2545 -0.2976 -0.5100
  451Sol     OW 4955   1.478   2.133   9.515  0.1145  0.2691 -0.2380
  451Sol     HW 4956   1.416   2.187   9.565 -0.4897  0.9433 -1.6908
  451Sol     HW 4957   1.423   2.085   9.452  0.9879  0.3233 -1.0523
  451Sol     MW 4958   1.467   2.133   9.514  0.3849 -0.4917 -0.2440
  452Sol     OW 4959   2.229   0.821   2.925  0.5174 -0.5264  0.6636
  452Sol     HW 4960   2.216   0.856   3.014 -0.0586  0.3101  0.2518
  452Sol     HW 4961   2.321   0.794   2.924  0.5619 -0.4263  1.4789
  452Sol     MW 4962   2.236   0.821   2.933 -0.4880  0.3314  0.0296
  453Sol     OW 4963   3.168   1.794   5.324 -0.1409  0.4439 -0.5454
  453Sol     HW 4964   3.231   1.722   5.330  1.5186  1.6862 -2.4540
  453Sol     HW 4965   3.083   1.752   5.331  0.8027 -1.7315 -1.7394
  453Sol     MW 4966   3.166   1.784   5.325  0.3741  0.2346  0.2705
  454Sol     OW 4967   1.356   1.977   5.241  0.9402 -0.2883  0.0146
  454Sol     HW 4968   1.275   1.928   5.224  1.5972 -0.9922 -1.1679
  454Sol     HW 4969   1.344   2.015   5.328  0.2683 -2.2644  0.8048
  454Sol     MW 4970   1.348   1.976   5.247 -0.6071 -0.3791 -0.0736
  455Sol     OW 4971   0.068   2.770   8.606 -0.6816 -0.2585  0.0027
  455Sol     HW 4972   0.071   2.745   8.514 -0.8332 -0.2778  0.0011
  455Sol     HW 4973   0.130   2.842   8.614 -1.1837  0.2119 -0.2641
  455Sol     MW 4974   0.074   2.774   8.598 -0.1337  0.6648  0.3071
  456Sol     OW 4975   2.667   2.026   8.212  0.2244  0.3390 -0.2601
  456Sol     HW 4976   2.629   1.997   8.295  0.5767 -0.4991 -0.3795
  456Sol     HW 4977   2.656   2.121   8.211  0.6409  0.4075  0.9691
  456Sol     MW 4978   2.663   2.032   8.219 -0.0269  0.2035 -0.4031
  457Sol     OW 4979   2.269   2.442   6.921 -0.2621 -0.9628  0.1925
  457Sol     HW 4980   2.339   2.415   6.980 -0.4196 -1.1920  0.2769
  457Sol     HW 4981   2.270   2.538   6.924  1.7200 -0.8606 -1.7471
  457Sol     MW 4982   2.276   2.448   6.926  0.6828 -0.3670  0.0509
  458Sol     OW 4983   1.673   2.364   8.850 -0.7267  0.5823 -0.7044
  458Sol     HW 4984   1.693   2.434   8.789  1.4123 -0.5158 -1.3073
  458Sol     HW 4985   1.721   2.288   8.817  0.1296 -0.1519  2.0412
  458Sol     MW 4986   1.679   2.364   8.842  0.2073 -0.3557  0.2253
  459Sol     OW 4987   1.778   1.672   8.411 -0.7008 -0.4118  0.3941
  459Sol     HW 4988   1.702   1.642   8.461 -0.6361 -0.5490  0.4120
  459Sol     HW 4989   1.762   1.638   8.323 -1.7597  1.4511 -0.1667
  459Sol     MW 4990   1.770   1.666   8.407  0.0857 -0.0982 -0.6178
  460Sol     OW 4991   0.235   0.134   3.062 -0.5378  0.0315 -0.5008
  460Sol     HW 4992   0.229   0.127   2.967  0.1957 -1.4906 -0.4368
  460Sol     HW 4993   0.312   0.189   3.077 -1.6485  1.7215 -0.8038
  460Sol     MW 4994   0.241   0.138   3.055  0.6062  0.3437 -0.6545
  461Sol     OW 4995   0.355   2.061   2.073 -0.3285 -0.2457  0.0526
  461Sol     HW 4996   0.343   2.114   1.994 -0.7476  0.2326  0.4289
  461Sol     HW 4997   0.425   2.105   2.122 -0.6796 -0.0292  0.3675
  461Sol     MW 4998   0.360   2.070   2.071  0.2353 -1.5542 -0.6223
  462Sol     OW 4999   1.833   2.733   1.734  0.3656 -0.4410  0.1548
  462Sol     HW 5000   1.858   2.729   1.826 -0.0682 -1.3740  0.2390
  462Sol     HW 5001   1.861   2.649   1.698  0.7421  0.0043 -0.6255
  462Sol     MW 5002   1.838   2.725   1.739 -0.1172 -0.0511 -0.3503
  463Sol     OW 5003   2.242   0.505   8.614  0.1092  0.0591  0.3183
  463Sol     HW 5004   2.159   0.458   8.617 -0.4876  1.1798  1.8901
  463Sol     HW 5005   2.244   0.557   8.694  2.0449  0.5440 -0.0041
  463Sol     MW 5006   2.235   0.506   8.621  0.5516  0.1551 -0.0833
  464Sol     OW 5007   3.300   1.110   5.929  0.2347  0.0194 -0.3839
  464Sol     HW 5008   3.374   1.144   5.979 -0.1361  1.0639 -0.5481
  464Sol     HW 5009   3.335   1.092   5.842 -0.1074  2.1580 -0.9757
  464Sol     MW 5010   3.309   1.111   5.926 -0.1822 -0.0388  0.4567
  465Sol     OW 5011   3.291   2.746   1.586 -0.3564 -0.3466 -0.2488
  465Sol     HW 5012   3.241   2.824   1.607  0.1020 -0.5824  1.8546
  465Sol     HW 5013   3.228   2.675   1.589 -0.4016 -0.3057 -0.2355
  465Sol     MW 5014   3.281   2.747   1.588  0.6395  0.0304 -0.0844
  466Sol     OW 5015   2.688   3.087   8.054  0.5412  0.4249  0.3859
  466Sol     HW 5016   2.732   3.148   7.996  0.9061 -1.3079 -1.1825
  466Sol     HW 5017   2.598   3.121   8.060  0.4378  0.4936 -1.3696
  466Sol     MW 5018   2.684   3.096   8.050 -0.5388 -0.0848  0.4349
  467Sol     OW 5019   2.310   2.038   6.270 -0.5414  0.6196 -0.0869
  467Sol     HW 5020   2.256   2.090   6.330 -0.3444  0.3488  0.3311
  467Sol     HW 5021   2.398   2.042   6.307 -0.1913  1.4072 -0.9991
  467Sol     MW 5022   2.313   2.043   6.279  0.0535  0.2102 -0.0135
  468Sol     OW 5023   0.670   2.512   5.681  0.0031 -0.3230 -0.5391
  468Sol     HW 5024   0.668   2.431   5.733  0.0146  0.2715  0.4006
  468Sol     HW 5025   0.589   2.557   5.703 -1.0558 -1.0802 -2.7269
  468Sol     MW 5026   0.663   2.509   5.688 -0.2300 -0.0408  0.0905
  469Sol     OW 5027   0.753   0.934   8.420  0.1130 -0.6388 -0.0275
  469Sol     HW 5028   0.810   1.011   8.406  0.9299 -1.0966  0.6938
  469Sol     HW 5029   0.701   0.928   8.341 -0.8571  1.4297  0.4196
  469Sol     MW 5030   0.754   0.941   8.412  0.2592  0.1136 -0.2911
  470Sol     OW 5031   1.063   0.813   2.168 -0.5482 -0.4218  0.0931
  470Sol     HW 5032   0.983   0.866   2.170 -0.9067 -0.9481 -0.0977
  470Sol     HW 5033   1.060   0.769   2.083  0.1376 -0.1445 -0.0693
  470Sol     MW 5034   1.055   0.813   2.161 -0.4017  0.1713  0.1814
  471Sol     OW 5035   2.719   0.981   1.393  0.0357  0.1128  0.2629
  471Sol     HW 5036   2.680   0.956   1.310 -1.5388 -0.4238  1.1343
  471Sol     HW 5037   2.649   0.967   1.457  1.2373  0.4681  1.6761
  471Sol     MW 5038   2.709   0.978   1.392  0.6173  1.3692  0.7529
  472Sol     OW 5039   1.311   1.796   6.527  0.2435  0.0392  0.7505
  472Sol     HW 5040   1.251   1.817   6.599 -0.8019 -0.6447  0.0962
  472Sol     HW 5041   1.363   1.722   6.560 -0.7876 -0.8095  0.5311
  472Sol     MW 5042   1.310   1.791   6.536 -0.3543  0.2660  0.0212
  473Sol     OW 5043   2.678   0.917   2.876  0.4852 -0.3542  0.1091
  473Sol     HW 5044   2.613   0.854   2.910 -0.7870  0.9867  0.2092
  473Sol     HW 5045   2.762   0.876   2.895 -0.2933 -1.4433  1.3449
  473Sol     MW 5046   2.680   0.907   2.881  0.2685  0.0566 -0.2868
  474Sol     OW 5047   2.648   0.891   1.802  0.5659 -0.3278  0.1433
  474Sol     HW 5048   2.582   0.865   1.866 -0.3299 -0.0650 -0.6633
  474Sol     HW 5049   2.721   0.830   1.817  0.1725 -0.5917  1.0659
  474Sol     MW 5050   2.649   0.883   1.809  0.0772  0.2012 -0.8625
  475Sol     OW 5051   1.992   1.723   3.992 -0.1262 -0.2388  0.2574
  475Sol     HW 5052   1.995   1.818   3.981 -1.0450 -0.3629 -1.2707
  475Sol     HW 5053   2.080   1.693   3.968  0.5252  0.3281  1.9282
  475Sol     MW 5054   2.000   1.728   3.989  0.4531 -0.5040 -0.0470
  476Sol     OW 5055   1.345   0.137   9.641  0.1210  0.2152 -0.2331
  476Sol     HW 5056   1.274   0.127   9.705  0.7689 -2.0241  0.1702
  476Sol     HW 5057   1.405   0.199   9.681  0.9420 -1.7947  1.7492
  476Sol     MW 5058   1.344   0.142   9.650  0.0152 -0.3598 -0.0245
  477Sol     OW 5059   3.165   0.288   2.439 -0.0037 -0.1894  0.1861
  477Sol     HW 5060   3.243   0.290   2.494  0.9103  2.2874 -1.1101
  477Sol     HW 5061   3.156   0.197   2.412  1.4757 -0.7955  1.6706
  477Sol     MW 5062   3.171   0.280   2.441 -0.3264  0.0951 -0.3122
  478Sol     OW 5063   1.840   3.110   1.405  0.2450  0.1860  0.2602
  478Sol     HW 5064   1.852   3.203   1.425  0.6193 -0.0241  1.0549
  478Sol     HW 5065   1.804   3.109   1.316  0.2043  1.0894  0.2565
  478Sol     MW 5066   1.838   3.118   1.399 -0.3227  0.4319 -0.2236
  479Sol     OW 5067   1.986   1.192   8.760 -0.1412 -0.6815 -0.2501
  479Sol     HW 5068   1.953   1.277   8.787  0.5453 -0.1243 -1.1155
  479Sol     HW 5069   1.910   1.147   8.723 -0.3818 -0.2268 -0.3016
  479Sol     MW 5070   1.976   1.195   8.759 -0.1818  0.1903 -0.4046
  480Sol     OW 5071   2.722   1.429   3.746  0.0026 -0.0842 -0.0109
  480Sol     HW 5072   2.701   1.487   3.819  1.3074  0.1292  0.2009
  480Sol     HW 5073   2.812   1.452   3.722  0.8506 -2.6367  0.6400
  480Sol     MW 5074   2.728   1.437   3.750 -0.1754 -0.4872  0.8217
  481Sol     OW 5075   0.067   2.748   7.072  0.1537  0.4819 -0.5759
  481Sol     HW 5076   0.015   2.711   7.001 -1.7571  0.9300  0.5685
  481Sol     HW 5077   0.028   2.712   7.152 -0.8593  3.7960  0.5062
  481Sol     MW 5078   0.059   2.742   7.073  0.0146  0.0739 -0.1893
  482Sol     OW 5079   2.363   1.723   8.360  0.4522  0.2255 -0.5897
  482Sol     HW 5080   2.433   1.658   8.355 -1.8338 -2.2435 -2.0139
  482Sol     HW 5081   2.313   1.709   8.279 -1.3569  2.3036  0.1416
  482Sol     MW 5082   2.365   1.716   8.352 -0.4760 -0.4989 -0.4317
  483Sol     OW 5083   3.106   3.103   2.800 -0.1012  0.8866 -0.9331
  483Sol     HW 5084   3.052   3.069   2.871  0.4140 -1.8073 -1.7618
  483Sol     HW 5085   3.162   3.168   2.842 -1.3640  0.9706  0.6798
  483Sol     MW 5086   3.107   3.106   2.810 -0.0815 -0.5294  0.2482
  484Sol     OW 5087   0.571   0.598   8.303  0.0895  0.2495  0.5543
  484Sol     HW 5088   0.562   0.592   8.399 -1.4401  0.6945  0.4496
  484Sol     HW 5089   0.515   0.529   8.269 -0.9762  1.4096 -0.0720
  484Sol     MW 5090   0.565   0.591   8.309 -0.2717  0.4333 -0.2548
  485Sol     OW 5091   3.232   1.574   3.702 -0.4918  0.2274  0.3201
  485Sol     HW 5092   3.141   1.547   3.692 -0.4182  0.0388  0.1661
  485Sol     HW 5093   3.283   1.496   3.680 -0.2431  0.9333 -1.6596
  485Sol     MW 5094   3.228   1.565   3.700  0.0646 -0.2187 -0.0279
  486Sol     OW 5095   2.358   0.178   7.471  0.1613  0.4390  0.5871
  486Sol     HW 5096   2.411   0.239   7.523  0.5665  0.1498  0.5132
  486Sol     HW 5097   2.422   0.127   7.422 -0.0891 -1.2862  2.0009
  486Sol     MW 5098   2.369   0.179   7.472 -0.2219  0.4380 -0.3943
  487Sol     OW 5099   1.832   1.077   5.382  0.4397  0.2406  0.4616
  487Sol     HW 5100   1.899   1.035   5.436 -0.3894  0.1997  1.4802
  487Sol     HW 5101   1.837   1.032   5.298  1.6341  0.1894  0.5544
  487Sol     MW 5102   1.838   1.069   5.379  0.1676 -0.1503 -0.8143
  488Sol     OW 5103   0.762   0.792   5.974  0.1240  0.2033 -0.0628
  488Sol     HW 5104   0.858   0.785   5.977  0.1673  0.5984 -0.4696
  488Sol     HW 5105   0.737   0.742   5.897  0.1689  1.7537 -1.1089
  488Sol     MW 5106   0.769   0.787   5.967 -0.1827 -0.6873 -0.5475
  489Sol     OW 5107   2.801   0.674   8.700  0.0170 -0.1619 -0.4241
  489Sol     HW 5108   2.753   0.703   8.623  1.2171  1.3321 -0.6390
  489Sol     HW 5109   2.752   0.598   8.732 -0.8768 -0.3801 -2.2472
  489Sol     MW 5110   2.792   0.669   8.696  0.6717 -0.1410 -0.4888
  490Sol     OW 5111   2.327   2.570   2.368 -0.6461  0.0686  0.6925
  490Sol     HW 5112   2.320   2.664   2.385 -1.6445 -0.1093  1.3036
  490Sol     HW 5113   2.376   2.536   2.443  1.5173  0.3903 -0.5354
  490Sol     MW 5114   2.331   2.576   2.377 -0.2549 -0.0900  0.0915
  491Sol     OW 5115   0.400   0.594   3.940  0.2234  0.5261  0.7477
  491Sol     HW 5116   0.409   0.659   3.870  2.3546 -0.2885  0.2354
  491Sol     HW 5117   0.439   0.515   3.904 -1.9405 -0.9520  1.5394
  491Sol     MW 5118   0.404   0.593   3.931  0.0365  0.0840 -0.0124
  492Sol     OW 5119   0.441   0.768   4.149 -0.1753 -0.3504  0.4936
  492Sol     HW 5120   0.516   0.820   4.120  0.7597 -1.6605  0.5079
  492Sol     HW 5121   0.412   0.722   4.071  0.3652 -1.4560  0.9311
  492Sol     MW 5122   0.445   0.769   4.140  0.4311  0.7388 -0.3587
  493Sol     OW 5123   0.990   3.313   3.904 -0.5323 -0.3269 -0.1926
  493Sol     HW 5124   1.045   3.242   3.872 -0.4300 -0.0707 -0.5998
  493Sol     HW 5125   1.007   3.385   3.843  0.4566  0.5117  1.0512
  493Sol     MW 5126   0.996   3.313   3.895 -0.6184 -0.2351 -0.0791
  494Sol     OW 5127   2.447   1.670   7.132 -0.1425 -0.3579  0.0796
  494Sol     HW 5128   2.463   1.615   7.208  0.3218 -0.9354 -0.4286
  494Sol     HW 5129   2.533   1.679   7.090 -0.1496  1.0689  0.3735
  494Sol     MW 5130   2.456   1.666   7.135  0.2497 -0.7959  0.1034
  495Sol     OW 5131   1.407   2.483   5.586  0.4243  0.5197 -0.0341
  495Sol     HW 5132   1.372   2.496   5.498  0.7146  0.1046 -0.2142
  495Sol     HW 5133   1.445   2.395   5.584 -0.6830  0.0023  0.8810
  495Sol     MW 5134   1.407   2.476   5.578 -0.0243 -0.6489  0.1792
  496Sol     OW 5135   0.497   3.024   3.888  0.1096  0.2176  0.3940
  496Sol     HW 5136   0.535   3.111   3.901 -2.3870  1.3467  0.3074
  496Sol     HW 5137   0.486   2.989   3.976  1.6851 -0.2862  0.4063
  496Sol     MW 5138   0.500   3.029   3.897 -0.2757  0.4456 -0.1644
  497Sol     OW 5139   0.027   0.629   4.933  0.0179  0.1665 -0.2978
  497Sol     HW 5140   0.006   0.583   5.014 -0.0192 -0.3466 -0.5998
  497Sol     HW 5141  -0.035   0.702   4.930 -1.3594 -0.9993 -0.8961
  497Sol     MW 5142   0.020   0.632   4.940  0.5455 -0.2708 -0.2831
  498Sol     OW 5143   1.216   0.620   4.911 -0.0864 -0.0114 -0.2168
  498Sol     HW 5144   1.310   0.638   4.905 -0.3505  1.7214  0.6603
  498Sol     HW 5145   1.174   0.693   4.866 -1.0901  0.3124  1.1897
  498Sol     MW 5146   1.220   0.628   4.906 -0.7745  0.5171 -0.0699
  499Sol     OW 5147   2.586   1.468   2.665  0.1285 -0.3709 -0.5075
  499Sol     HW 5148   2.513   1.498   2.718 -0.7446 -0.8481 -1.4233
  499Sol     HW 5149   2.552   1.467   2.575  1.8144  1.1904 -1.1848
  499Sol     MW 5150   2.577   1.470   2.661  0.0512  0.1058 -0.3616
  500Sol     OW 5151   2.983   0.902   4.024  0.0473  0.0864 -0.5579
  500Sol     HW 5152   2.907   0.845   4.029  1.4585 -1.8986 -0.9707
  500Sol     HW 5153   3.015   0.907   4.114 -0.3323  0.6144 -0.4477
  500Sol     MW 5154   2.979   0.898   4.033 -0.0095  0.0517  0.7574
  501Sol     OW 5155   3.268   0.237   6.180 -0.4025  0.0090 -0.0092
  501Sol     HW 5156   3.363   0.234   6.194 -0.3740  0.3640 -0.1068
  501Sol     HW 5157   3.258   0.273   6.091 -0.5960 -1.6855 -0.6844
  501Sol     MW 5158   3.276   0.240   6.173  0.0025 -0.0462 -0.8534
  502Sol     OW 5159   0.508   2.544   3.384  0.3278  0.0301  0.5061
  502Sol     HW 5160   0.422   2.503   3.379  0.7921 -0.7865 -1.0582
  502Sol     HW 5161   0.522   2.558   3.478 -0.7549 -1.4564  0.9129
  502Sol     MW 5162   0.502   2.541   3.392  0.4083  0.7240 -0.0539
  503Sol     OW 5163   1.948   3.051   6.683  0.0417 -0.6827  0.1022
  503Sol     HW 5164   1.970   3.136   6.721 -0.4012  0.4550 -2.1431
  503Sol     HW 5165   1.887   3.070   6.612  0.3881 -2.8066 -0.8220
  503Sol     MW 5166   1.945   3.060   6.680 -0.1162  0.2623  0.1881
  504Sol     OW 5167   1.566   2.099   5.948  0.0576 -0.4674  0.1567
  504Sol     HW 5168   1.563   2.187   5.986 -1.2564  0.1971 -1.4024
  504Sol     HW 5169   1.658   2.084   5.929  0.0996  1.3060 -1.1577
  504Sol     MW 5170   1.574   2.106   5.949  0.4550  0.2121 -0.1144
  505Sol     OW 5171   0.382   0.775   7.473 -0.0860  0.2914 -0.5279
  505Sol     HW 5172   0.433   0.818   7.405  0.5789 -2.4976 -1.8952
  505Sol     HW 5173   0.445   0.755   7.542 -0.1046  0.2736 -0.5152
  505Sol     MW 5174   0.392   0.777   7.473 -0.3847  0.5014 -0.1021
  506Sol     OW 5175   2.170   0.089   6.857 -0.0421 -0.3906 -0.1789
  506Sol     HW 5176   2.114   0.163   6.833  0.2586 -0.4694 -1.1439
  506Sol     HW 5177   2.243   0.129   6.906 -1.0364 -0.3152  1.2848
  506Sol     MW 5178   2.172   0.100   6.860 -0.0518 -0.1908  0.3349
  507Sol     OW 5179   3.137   2.061   3.888  0.0361  0.0766  0.5430
  507Sol     HW 5180   3.196   1.999   3.844 -0.7966 -0.3300 -0.0213
  507Sol     HW 5181   3.188   2.142   3.895  1.0716 -0.6207  1.1388
  507Sol     MW 5182   3.147   2.063   3.884  0.6816  0.0675 -0.1395
  508Sol     OW 5183   0.477   0.525   3.591 -0.7470  0.4362 -0.0496
  508Sol     HW 5184   0.556   0.548   3.541 -0.9583  0.6513 -0.2844
  508Sol     HW 5185   0.425   0.471   3.532  0.1601 -1.4251  0.8139
  508Sol     MW 5186   0.480   0.522   3.582  0.2119 -0.0285 -0.2088
  509Sol     OW 5187   1.804   2.336   5.166 -0.0879 -0.1540 -0.2235
  509Sol     HW 5188   1.879   2.297   5.121 -0.0185  0.1871 -0.4012
  509Sol     HW 5189   1.758   2.261   5.204  0.7844 -0.2970  0.5729
  509Sol     MW 5190   1.807   2.326   5.165  0.6055  0.2200  0.1621
  510Sol     OW 5191   2.683   1.623   7.817  0.1414 -0.7160  0.0321
  510Sol     HW 5192   2.746   1.693   7.832  1.0915 -1.6143  0.2575
  510Sol     HW 5193   2.736   1.547   7.792 -0.9897 -0.9232 -1.8507
  510Sol     MW 5194   2.693   1.622   7.816 -0.2324  0.4958  0.5379
  511Sol     OW 5195   0.181   2.487   9.227 -0.7924  0.1930  0.1601
  511Sol     HW 5196   0.260   2.434   9.216 -1.1200 -0.2421 -0.1131
  511Sol     HW 5197   0.114   2.424   9.255 -1.3169  0.3660 -0.6912
  511Sol     MW 5198   0.182   2.476   9.229  0.2214 -0.6487  0.8005
  512Sol     OW 5199   0.534   3.122   4.330  0.5809 -0.1934  0.0806
  512Sol     HW 5200   0.619   3.079   4.321  1.1925  0.8194  0.8463
  512Sol     HW 5201   0.499   3.088   4.413  0.5882 -0.0268  0.1521
  512Sol     MW 5202   0.539   3.115   4.337  0.7607  0.2564 -1.4091
  513Sol     OW 5203   0.365   2.054   3.078 -0.1039 -0.0351 -0.3047
  513Sol     HW 5204   0.400   1.969   3.103  0.1129 -0.0421 -0.6224
  513Sol     HW 5205   0.442   2.112   3.076 -0.2899  0.2299  0.1737
  513Sol     MW 5206   0.375   2.051   3.080 -0.0813  0.2733  0.6764
  514Sol     OW 5207   2.719   2.049   7.583  0.5475  0.3286  0.0319
  514Sol     HW 5208   2.640   2.090   7.618  1.6498  1.7165  0.9053
  514Sol     HW 5209   2.741   2.101   7.506 -0.5032 -1.2784 -1.4099
  514Sol     MW 5210   2.714   2.057   7.579 -0.0804 -0.5717 -0.6501
  515Sol     OW 5211   0.945   0.206   3.970 -0.2350  0.3237  0.1167
  515Sol     HW 5212   0.967   0.187   3.878 -0.7650 -0.8120  0.2132
  515Sol     HW 5213   0.888   0.283   3.965  2.0044  2.0038 -0.2836
  515Sol     MW 5214   0.942   0.211   3.961 -0.2219 -0.2812  0.8832
  516Sol     OW 5215   0.831   2.264   6.158 -0.1922 -0.4335  0.0632
  516Sol     HW 5216   0.738   2.285   6.148 -0.4113 -2.4263 -2.6429
  516Sol     HW 5217   0.832   2.183   6.208  0.1209 -0.1342  0.5410
  516Sol     MW 5218   0.822   2.259   6.161 -0.5385 -0.9473  0.0765
  517Sol     OW 5219   2.117   2.585   8.882  0.4177  0.3030  0.6342
  517Sol     HW 5220   2.174   2.596   8.958  0.8285 -0.9746  0.5203
  517Sol     HW 5221   2.177   2.572   8.809 -0.0118 -0.9225  0.4938
  517Sol     MW 5222   2.127   2.585   8.882 -0.0858  0.1443  0.0782
  518Sol     OW 5223   0.481   1.339   2.617  0.2114  0.1231 -0.6464
  518Sol     HW 5224   0.417   1.292   2.670 -0.3161  1.2456 -0.2712
  518Sol     HW 5225   0.429   1.386   2.552  0.5547  1.8120  0.2591
  518Sol     MW 5226   0.470   1.339   2.616 -0.0023 -0.2225  0.6733
  519Sol     OW 5227   2.300   2.272   7.436 -0.2064 -0.0188 -0.1248
  519Sol     HW 5228   2.285   2.180   7.459  0.7401  0.1551  1.2228
  519Sol     HW 5229   2.233   2.291   7.370 -2.0936 -0.9197  1.4972
  519Sol     MW 5230   2.292   2.266   7.432  0.1269 -0.8707  0.1805
  520Sol     OW 5231   1.500   1.579   8.457  0.4235  0.1195 -0.6088
  520Sol     HW 5232   1.446   1.514   8.501  1.0328  0.8772  1.3230
  520Sol     HW 5233   1.440   1.625   8.398 -0.4811 -0.7322 -0.3571
  520Sol     MW 5234   1.490   1.578   8.456 -0.4889 -0.3329 -0.7071
  521Sol     OW 5235   2.314   1.350   8.840 -0.4655  0.2165 -0.1629
  521Sol     HW 5236   2.260   1.343   8.919 -0.6116  0.2129 -0.2632
  521Sol     HW 5237   2.273   1.291   8.777  0.0418 -0.2892 -0.0192
  521Sol     MW 5238   2.305   1.344   8.842  0.1603 -0.2795  0.4072
  522Sol     OW 5239   1.872   2.933   9.537 -0.1461 -0.2626  0.7465
  522Sol     HW 5240   1.841   2.933   9.628  1.3941 -0.1671  1.2780
  522Sol     HW 5241   1.886   2.841   9.517 -0.6177 -0.2948  0.5461
  522Sol     MW 5242   1.870   2.925   9.544  0.3539  0.1952  0.1191
  523Sol     OW 5243   0.057   0.800   8.919  0.4037 -0.1215  0.3038
  523Sol     HW 5244  -0.010   0.822   8.854  0.3568 -0.8347  0.1074
  523Sol     HW 5245   0.009   0.797   9.002  0.1282 -0.9395  0.1176
  523Sol     MW 5246   0.047   0.801   8.921  0.1912 -0.2954 -0.4363
  524Sol     OW 5247   1.984   1.510   8.187  0.1655 -0.5059 -0.0108
  524Sol     HW 5248   2.062   1.560   8.211 -0.3419  0.4296 -0.2619
  524Sol     HW 5249   1.954   1.472   8.269 -1.0591  1.9564  0.7463
  524Sol     MW 5250   1.988   1.511   8.196  0.2044 -0.5592 -0.3131
  525Sol     OW 5251   2.056   1.893   1.932  0.2500 -0.4346  0.7606
  525Sol     HW 5252   2.036   1.876   1.840  0.6716  1.3004  0.3455
  525Sol     HW 5253   2.147   1.863   1.943  0.2045 -0.6258  0.6118
  525Sol     MW 5254   2.063   1.888   1.925  0.0300 -0.1558 -0.0232
  526Sol     OW 5255   2.791   0.002   5.141 -0.6216 -0.7469 -0.2780
  526Sol     HW 5256   2.845  -0.070   5.107 -0.1104 -1.1785  1.4355
  526Sol     HW 5257   2.728  -0.041   5.199 -1.7398 -0.0494 -0.9580
  526Sol     MW 5258   2.790  -0.008   5.143 -0.3529  0.0695  0.3152
  527Sol     OW 5259   1.152   3.453   4.357 -0.2713  0.4640 -0.0317
  527Sol     HW 5260   1.133   3.492   4.272  1.1896 -0.9781 -1.0468
  527Sol     HW 5261   1.232   3.402   4.344  0.1022  0.3736  2.2585
  527Sol     MW 5262   1.157   3.452   4.349 -0.3073  0.8211 -0.1506
  528Sol     OW 5263   2.187   0.192   4.628  0.3145 -0.2924  0.3664
  528Sol     HW 5264   2.170   0.151   4.543 -0.1249  0.9652 -0.1685
  528Sol     HW 5265   2.279   0.172   4.646  0.0071 -1.8280  0.3087
  528Sol     MW 5266   2.194   0.187   4.622 -0.3798 -0.3708  0.1467
  529Sol     OW 5267   1.112   2.812   4.952  0.1082 -0.1048  0.0868
  529Sol     HW 5268   1.103   2.746   4.883 -1.3702  0.9308 -0.7240
  529Sol     HW 5269   1.193   2.858   4.930  0.3252 -0.6155 -0.2170
  529Sol     MW 5270   1.118   2.810   4.944  0.2615 -0.1734 -0.2390
  530Sol     OW 5271   0.107   1.952   7.307 -0.8483  0.0877  0.3244
  530Sol     HW 5272   0.186   1.905   7.334 -1.4557 -0.1855  1.6740
  530Sol     HW 5273   0.042   1.931   7.375 -1.6616  1.4467 -0.0108
  530Sol     MW 5274   0.108   1.946   7.316  0.1502 -0.0308  0.7130
  531Sol     OW 5275   1.282   2.759   6.426  0.6966  0.1016  0.4565
  531Sol     HW 5276   1.250   2.670   6.411 -0.7913  0.6611  0.2756
  531Sol     HW 5277   1.361   2.765   6.372 -0.8974 -0.1128 -1.9498
  531Sol     MW 5278   1.286   2.752   6.420  0.6312  0.1844 -0.6232
  532Sol     OW 5279   2.839   1.456   2.811  0.4927  0.3322  0.3792
  532Sol     HW 5280   2.839   1.388   2.743 -0.9260  0.5167  0.1804
  532Sol     HW 5281   2.748   1.483   2.818  0.9156  1.6583  1.0271
  532Sol     MW 5282   2.831   1.453   2.805 -0.1321  0.2628  0.1937
  533Sol     OW 5283   1.552   1.578   4.761  0.4730  1.0524  0.9618
  533Sol     HW 5284   1.529   1.535   4.843 -2.7121 -2.0610 -1.4366
  533Sol     HW 5285   1.493   1.653   4.756  0.3925  1.0160  1.3368
  533Sol     MW 5286   1.545   1.581   4.768 -0.4969 -0.1527 -0.0123
  534Sol     OW 5287   2.398   1.631   3.406 -0.3189 -0.7917 -0.1894
  534Sol     HW 5288   2.306   1.645   3.426  0.1566  0.9932  0.8551
  534Sol     HW 5289   2.440   1.616   3.490  0.5775 -0.1198 -0.4996
  534Sol     MW 5290   2.393   1.631   3.415 -0.1198 -0.3534  0.8643
  535Sol     OW 5291   2.239   0.685   9.525  0.5743 -0.3619  0.0328
  535Sol     HW 5292   2.243   0.592   9.504 -0.5375 -0.4347  0.1034
  535Sol     HW 5293   2.145   0.705   9.527  0.6939  0.1182  2.7554
  535Sol     MW 5294   2.231   0.678   9.523  0.1729  0.2346 -0.0574
  536Sol     OW 5295   2.239   1.646   4.295 -0.5050 -0.1380 -0.2179
  536Sol     HW 5296   2.191   1.580   4.345 -1.0998  1.2760  1.1382
  536Sol     HW 5297   2.247   1.609   4.207  0.2596 -2.5363  0.8158
  536Sol     MW 5298   2.235   1.637   4.292 -0.1631 -0.6828 -0.1047
  537Sol     OW 5299   2.601   0.225   3.353 -0.1235  0.4372  0.4559
  537Sol     HW 5300   2.528   0.170   3.324  0.8714 -1.5417  1.5938
  537Sol     HW 5301   2.633   0.182   3.432  1.3203  2.1391  0.8201
  537Sol     MW 5302   2.597   0.216   3.357 -0.6944 -0.7228  0.1776
  538Sol     OW 5303   0.329   1.045   2.511 -0.2697  0.0341  0.2614
  538Sol     HW 5304   0.311   1.136   2.535 -1.6610 -0.2895  0.4580
  538Sol     HW 5305   0.245   1.001   2.519  0.4909 -1.3693  0.5664
  538Sol     MW 5306   0.320   1.049   2.514  0.1096 -0.0439 -0.1635
  539Sol     OW 5307   2.991   1.890   3.537 -0.2017 -0.2510 -0.5226
  539Sol     HW 5308   2.968   1.975   3.498 -0.0652  0.9609  1.9143
  539Sol     HW 5309   2.942   1.889   3.620  1.9519 -1.3460  0.7601
  539Sol     MW 5310   2.984   1.898   3.541  0.1173  0.4397 -0.7177
  540Sol     OW 5311   2.537   2.002   3.582  0.3382 -1.0837  0.2637
  540Sol     HW 5312   2.561   2.040   3.498 -0.6182 -0.0378  0.4443
  540Sol     HW 5313   2.558   2.070   3.646  1.7665 -2.1561  0.9692
  540Sol     MW 5314   2.541   2.011   3.580 -0.6450  0.3838  0.0754
  541Sol     OW 5315   3.085   3.006   7.656  0.5804  0.9111  0.9367
  541Sol     HW 5316   3.037   2.965   7.584  1.8200 -1.6446  1.4982
  541Sol     HW 5317   3.176   3.010   7.626  1.2405 -0.8123  2.5593
  541Sol     MW 5318   3.089   3.002   7.647 -0.6654  0.6502 -0.3455
  542Sol     OW 5319   2.989   1.856   5.638 -0.0998 -0.4389 -0.4326
  542Sol     HW 5320   2.979   1.821   5.549  1.0569 -0.0402 -0.7230
  542Sol     HW 5321   2.992   1.951   5.626  1.9059 -0.4574 -0.1546
  542Sol     MW 5322   2.988   1.862   5.629  0.5660  0.7733  0.2987
  543Sol     OW 5323   2.579   2.539   6.118 -0.0501 -0.0546 -0.4037
  543Sol     HW 5324   2.660   2.490   6.098  1.1997  1.0577  1.7162
  543Sol     HW 5325   2.608   2.611   6.174 -2.3351  1.2356 -0.8197
  543Sol     MW 5326   2.589   2.541   6.121  0.1951 -0.0767  0.2944
  544Sol     OW 5327   0.581   1.094   2.066 -0.3623  0.6350  0.1896
  544Sol     HW 5328   0.523   1.069   2.138 -1.3632  1.3061 -0.3638
  544Sol     HW 5329   0.527   1.152   2.011  0.7234  0.9806 -0.5263
  544Sol     MW 5330   0.571   1.097   2.067 -0.0564 -0.2323 -0.1254
  545Sol     OW 5331   3.107   2.600   4.218 -0.2615 -0.0484 -0.0603
  545Sol     HW 5332   3.164   2.571   4.147  1.1049  1.1488  0.5270
  545Sol     HW 5333   3.081   2.519   4.263 -0.2117 -0.7127 -1.2109
  545Sol     MW 5334   3.110   2.590   4.216 -0.5060 -0.0444  0.5982
  546Sol     OW 5335   2.172   2.081   3.814 -0.3656  0.2202  0.2598
  546Sol     HW 5336   2.220   2.000   3.801  0.0462  0.6904 -1.2387
  546Sol     HW 5337   2.104   2.058   3.878  0.9311 -0.7997  1.3261
  546Sol     MW 5338   2.170   2.072   3.819  0.1402 -0.6777 -0.0707
  547Sol     OW 5339   1.405   3.210   3.789  0.5887 -0.3932  0.1634
  547Sol     HW 5340   1.315   3.176   3.788  0.5548 -0.2642 -1.8439
  547Sol     HW 5341   1.455   3.148   3.736  1.2392  0.7387 -0.5663
  547Sol     MW 5342   1.401   3.202   3.784  0.3285 -0.4527  0.0592
  548Sol     OW 5343   2.261   1.454   9.510  0.4788 -0.1010  0.4020
  548Sol     HW 5344   2.319   1.491   9.577  0.5529 -0.0703  0.3217
  548Sol     HW 5345   2.268   1.360   9.522  0.8911 -0.1113  0.1056
  548Sol     MW 5346   2.267   1.449   9.517 -0.3398 -0.0682 -0.1060
  549Sol     OW 5347   3.049   1.059   3.836  0.0519  0.1100  0.3950
  549Sol     HW 5348   3.115   1.125   3.860 -0.0051  0.2900  0.0625
  549Sol     HW 5349   3.042   1.003   3.913  2.6803 -1.6418 -0.5852
  549Sol     MW 5350   3.054   1.060   3.846  0.0938 -0.4828  0.5499
  550Sol     OW 5351   0.754   3.331   1.983  0.2347 -0.7446 -0.0141
  550Sol     HW 5352   0.727   3.368   2.067  1.1522 -1.4892  0.6270
  550Sol     HW 5353   0.674   3.328   1.931 -0.5531 -1.2331  1.2058
  550Sol     MW 5354   0.744   3.334   1.986  0.7178 -0.0839  0.1565
  551Sol     OW 5355   1.416   1.222   5.206  0.5396 -0.4059 -0.2016
  551Sol     HW 5356   1.481   1.199   5.272  1.1694 -0.3654 -0.7948
  551Sol     HW 5357   1.369   1.297   5.242  1.9490  0.6296 -0.4806
  551Sol     MW 5358   1.418   1.227   5.215 -0.2560 -0.7045  0.3013
  552Sol     OW 5359   0.160   2.922   3.414 -0.5333  0.4600  0.2332
  552Sol     HW 5360   0.178   2.930   3.507 -0.4285 -2.4014  0.5005
  552Sol     HW 5361   0.243   2.892   3.376 -1.2306 -0.7491 -0.3892
  552Sol     MW 5362   0.169   2.920   3.419 -0.3485 -0.2525 -0.3155
  553Sol     OW 5363   1.446   0.108   5.534 -0.5836  0.1093  0.1053
  553Sol     HW 5364   1.462   0.070   5.621 -1.8985 -0.8227 -0.0403
  553Sol     HW 5365   1.408   0.193   5.553  0.1402  0.3622  0.4431
  553Sol     MW 5366   1.444   0.112   5.544 -0.2209  0.4982  0.4975
  554Sol     OW 5367   3.192   0.709   4.519  0.2895  0.0004 -0.1490
  554Sol     HW 5368   3.224   0.620   4.533  0.8674 -0.7341 -5.1088
  554Sol     HW 5369   3.272   0.760   4.502 -0.2384  0.8020 -0.2411
  554Sol     MW 5370   3.202   0.706   4.519  0.5542  0.1118  0.0304
  555Sol     OW 5371   0.918   2.080   1.627 -0.0317 -0.8649 -0.7329
  555Sol     HW 5372   0.848   2.129   1.583 -0.8160 -1.5349 -0.2529
  555Sol     HW 5373   0.903   1.989   1.602  0.2943 -1.0891 -0.1331
  555Sol     MW 5374   0.910   2.076   1.621 -0.7336  0.0862 -0.6688
  556Sol     OW 5375   0.283   2.786   8.259 -0.4690 -0.1766 -0.4393
  556Sol     HW 5376   0.317   2.865   8.302  1.3663  0.8674 -3.5963
  556Sol     HW 5377   0.357   2.726   8.257 -0.1659  0.2103 -2.9699
  556Sol     MW 5378   0.293   2.788   8.263 -0.8082  0.4297 -0.4862
  557Sol     OW 5379   2.738   0.363   8.304 -0.4997  0.0815  0.1467
  557Sol     HW 5380   2.751   0.340   8.397 -0.0258  0.8504  0.2765
  557Sol     HW 5381   2.647   0.341   8.287 -0.7536  0.4738  0.9605
  557Sol     MW 5382   2.731   0.359   8.311 -0.0966 -0.2986  0.2860
  558Sol     OW 5383   2.874   2.133   6.039  0.4770  0.0039 -0.3786
  558Sol     HW 5384   2.826   2.114   5.958  2.3348 -0.1320 -1.4889
  558Sol     HW 5385   2.963   2.104   6.020  1.1244  0.7918  1.4251
  558Sol     MW 5386   2.877   2.128   6.030  0.4270 -0.8323 -0.0933
  559Sol     OW 5387   2.928   1.480   6.250 -0.0972 -0.1991 -0.2342
  559Sol     HW 5388   2.869   1.555   6.249  0.8788  0.5658 -0.0654
  559Sol     HW 5389   2.976   1.485   6.168 -0.2076 -0.7885 -0.3415
  559Sol     MW 5390   2.927   1.487   6.243 -0.2951  0.2326  0.2078
  560Sol     OW 5391   1.046   1.022   3.301  0.0388  0.0170 -0.1703
  560Sol     HW 5392   1.072   1.097   3.247  0.3607  0.4234  0.5504
  560Sol     HW 5393   0.972   0.983   3.253 -2.1351  2.5825  0.9244
  560Sol     MW 5394   1.041   1.025   3.292 -0.0663  0.3419  0.7093
  561Sol     OW 5395   2.089   2.158   6.388 -0.2272  0.3727 -0.3926
  561Sol     HW 5396   2.018   2.130   6.329 -0.1594 -2.0407  0.6061
  561Sol     HW 5397   2.045   2.173   6.472  0.1373  0.8343 -0.2849
  561Sol     MW 5398   2.078   2.157   6.390  0.5755 -0.7546  0.4748
  562Sol     OW 5399   2.448   0.524   9.130 -0.8664 -0.1399  0.3183
  562Sol     HW 5400   2.505   0.512   9.205  0.1536  0.0279 -0.4160
  562Sol     HW 5401   2.381   0.586   9.160  0.5370  1.3051  0.5586
  562Sol     MW 5402   2.447   0.529   9.139  0.2090  0.5253 -0.0620
  563Sol     OW 5403   3.243   2.181   2.842 -0.4360 -0.1143  0.1597
  563Sol     HW 5404   3.329   2.140   2.853  0.1272  0.5972 -1.5175
  563Sol     HW 5405   3.187   2.111   2.810  0.0259 -0.0768 -0.7351
  563Sol     MW 5406   3.246   2.171   2.840  0.1805 -0.5481  0.4823
  564Sol     OW 5407   0.052   1.867   4.691  0.3736  0.8965  0.0122
  564Sol     HW 5408   0.087   1.956   4.683  1.1321  0.6575  0.5613
  564Sol     HW 5409  -0.002   1.870   4.770  0.0542  0.9772 -0.2081
  564Sol     MW 5410   0.050   1.876   4.698 -0.4406  0.4151 -0.5280
  565Sol     OW 5411   3.001   1.800   2.186  0.1694 -0.0093  0.3335
  565Sol     HW 5412   3.076   1.751   2.217  0.7680  1.1543  0.7682
  565Sol     HW 5413   2.946   1.735   2.142  1.8170 -0.7109 -0.7382
  565Sol     MW 5414   3.002   1.790   2.185  0.4578 -0.4300  0.4066
  566Sol     OW 5415   2.106   1.734   8.818 -0.2125  0.1523  0.3525
  566Sol     HW 5416   2.036   1.741   8.753  0.3853 -1.4246 -0.4956
  566Sol     HW 5417   2.081   1.658   8.871  1.8085 -1.6489 -1.1907
  566Sol     MW 5418   2.097   1.728   8.816 -0.1719  1.0593  0.3996
  567Sol     OW 5419   0.610   2.832   3.677 -0.2613  0.1475  0.1994
  567Sol     HW 5420   0.557   2.903   3.713 -1.7304 -1.5158  1.4266
  567Sol     HW 5421   0.616   2.851   3.583 -1.5434  1.3070  0.3409
  567Sol     MW 5422   0.606   2.840   3.672 -0.1136 -0.3981 -0.5797
  568Sol     OW 5423   2.565   2.204   6.131 -0.2219 -0.2404 -0.1277
  568Sol     HW 5424   2.548   2.246   6.047 -1.3871 -1.7158 -0.6565
  568Sol     HW 5425   2.582   2.276   6.191  0.9922  0.8177 -1.6969
  568Sol     MW 5426   2.565   2.214   6.129  0.5167  0.0388  0.2083
  569Sol     OW 5427   1.338   3.262   9.308  0.2764  0.4695  0.0259
  569Sol     HW 5428   1.291   3.222   9.234 -0.1001  0.4460  0.2772
  569Sol     HW 5429   1.270   3.277   9.374  0.6080  0.5241  0.3533
  569Sol     MW 5430   1.327   3.259   9.307  0.1595  0.5394  0.2444
  570Sol     OW 5431   0.380   0.773   3.706  0.1904 -0.0032 -0.0126
  570Sol     HW 5432   0.473   0.795   3.706  0.4761 -1.0895  1.6605
  570Sol     HW 5433   0.377   0.685   3.668 -0.1600  0.1016 -0.2213
  570Sol     MW 5434   0.388   0.767   3.703  1.0817  0.5674  0.0702
  571Sol     OW 5435   0.933   1.142   2.356  0.3158 -0.6029 -0.3385
  571Sol     HW 5436   0.956   1.235   2.359 -1.6964 -0.0988  1.9366
  571Sol     HW 5437   0.991   1.101   2.421  0.2846 -0.6882 -0.3654
  571Sol     MW 5438   0.940   1.146   2.362 -0.2999 -0.2672  0.0990
  572Sol     OW 5439   2.248   2.952   5.464 -0.0627 -0.3909 -0.0742
  572Sol     HW 5440   2.322   2.942   5.404  0.4385  0.8481  0.3300
  572Sol     HW 5441   2.201   2.869   5.457  0.8476 -0.8446 -1.0247
  572Sol     MW 5442   2.251   2.944   5.458  1.0805 -0.2293  0.1453
  573Sol     OW 5443   1.920   2.784   7.997 -0.1231  0.2570 -0.0946
  573Sol     HW 5444   1.991   2.817   8.053 -0.6835  0.7043  0.3588
  573Sol     HW 5445   1.945   2.812   7.909 -1.4338  3.4483  0.4790
  573Sol     MW 5446   1.929   2.789   7.994  0.1146  0.4801 -0.0987
  574Sol     OW 5447   2.177   0.539   2.884 -0.1155  0.0355  0.3788
  574Sol     HW 5448   2.086   0.523   2.907 -0.4447  1.6766  0.3064
  574Sol     HW 5449   2.185   0.634   2.884  1.3372 -0.0697 -0.6325
  574Sol     MW 5450   2.170   0.546   2.886 -0.0255 -0.5744 -0.5370
  575Sol     OW 5451   0.448   2.230   8.158 -0.1440 -0.1556  0.0359
  575Sol     HW 5452   0.455   2.187   8.073  0.4554 -0.6104  0.3146
  575Sol     HW 5453   0.377   2.183   8.202 -1.2932  0.8778 -0.6749
  575Sol     MW 5454   0.442   2.222   8.154  0.1954  0.3242  0.2366
  576Sol     OW 5455   0.833   1.793   8.684  0.3561  0.9282  0.8281
  576Sol     HW 5456   0.915   1.789   8.634 -0.7761 -2.2690 -0.9257
  576Sol     HW 5457   0.854   1.751   8.767  0.0529 -1.8866 -0.4368
  576Sol     MW 5458   0.842   1.789   8.687 -1.0899 -0.0529 -0.2247
  577Sol     OW 5459   0.821   1.873   4.406  0.1325 -0.0754 -0.1628
  577Sol     HW 5460   0.890   1.912   4.460  1.8571 -3.6749  0.3551
  577Sol     HW 5461   0.866   1.842   4.327 -1.6795  1.4341 -1.8572
  577Sol     MW 5462   0.831   1.874   4.404 -0.5373  0.0102  0.0609
  578Sol     OW 5463   1.118   2.580   1.930  0.4114  0.1280  0.1064
  578Sol     HW 5464   1.178   2.567   1.857 -1.8034 -1.3042 -1.5405
  578Sol     HW 5465   1.112   2.494   1.971 -0.3340  0.2949  0.3633
  578Sol     MW 5466   1.123   2.571   1.927 -0.0432  0.0956  0.8704
  579Sol     OW 5467   1.862   0.706   1.522  0.3441  0.1279 -0.4390
  579Sol     HW 5468   1.887   0.622   1.484  1.1645  0.5560 -0.8557
  579Sol     HW 5469   1.767   0.698   1.537  0.0408 -0.0902 -2.4109
  579Sol     MW 5470   1.856   0.697   1.520  0.1465 -0.4040 -0.2392
  580Sol     OW 5471   1.735   0.254   4.761  0.3142  0.4070  0.3245
  580Sol     HW 5472   1.705   0.250   4.670 -4.8219  1.4228  1.7831
  580Sol     HW 5473   1.740   0.348   4.781  0.8297  0.1908  1.2395
  580Sol     MW 5474   1.733   0.262   4.755  0.4064  0.3409 -0.1294
  581Sol     OW 5475   0.563   1.528   7.643 -0.0379  0.6704 -0.1351
  581Sol     HW 5476   0.636   1.538   7.582 -1.3119  0.0002 -1.8274
  581Sol     HW 5477   0.587   1.581   7.719  1.8438  1.0743 -0.9875
  581Sol     MW 5478   0.572   1.534   7.644  0.1622  0.2741  0.1551
  582Sol     OW 5479   2.086   0.991   8.193 -0.2615 -0.2552  0.3881
  582Sol     HW 5480   2.047   1.076   8.171 -0.6682 -0.7953 -1.0178
  582Sol     HW 5481   2.038   0.928   8.139 -0.3002 -1.4424  1.8034
  582Sol     MW 5482   2.079   0.993   8.186 -0.4440 -0.7485 -0.1109
  583Sol     OW 5483   2.935   2.932   9.115 -0.4540  0.3524 -0.4872
  583Sol     HW 5484   2.921   3.017   9.072 -0.2904  0.4167 -0.4141
  583Sol     HW 5485   2.872   2.874   9.074 -0.0151  0.3122 -1.1102
  583Sol     MW 5486   2.928   2.935   9.108  0.6295  0.2009 -0.2149
  584Sol     OW 5487   2.544   2.356   6.847  0.5646  0.7984 -0.4606
  584Sol     HW 5488   2.577   2.266   6.841 -0.9465  0.2754 -1.2049
  584Sol     HW 5489   2.465   2.356   6.793  0.8119  2.7071 -0.8585
  584Sol     MW 5490   2.540   2.348   6.842  0.3372  0.0268 -0.6383
  585Sol     OW 5491   2.868   2.743   5.010  0.5532  0.4149  0.1545
  585Sol     HW 5492   2.781   2.704   5.010  0.7400 -0.0207  1.2245
  585Sol     HW 5493   2.924   2.677   5.052  1.5244  0.4128 -1.1166
  585Sol     MW 5494   2.865   2.734   5.014  0.0943  0.3315 -0.1869
  586Sol     OW 5495   0.907   2.617   2.684  0.1873  0.4653 -0.0520
  586Sol     HW 5496   0.989   2.642   2.642  0.7974 -1.3891 -0.0041
  586Sol     HW 5497   0.933   2.576   2.766 -0.9046  1.8929  1.0281
  586Sol     MW 5498   0.916   2.616   2.688 -0.1987 -0.4842 -0.2381
  587Sol     OW 5499   0.611   0.369   8.988  0.5227  0.5077  0.5202
  587Sol     HW 5500   0.676   0.388   8.921  0.2718 -1.6991 -0.3911
  587Sol     HW 5501   0.528   0.399   8.951  0.3001 -1.2203 -0.4130
  587Sol     MW 5502   0.609   0.374   8.979  0.1730 -0.1514 -0.2722
  588Sol     OW 5503   1.523   1.716   6.340  0.7798  0.3856 -0.0163
  588Sol     HW 5504   1.533   1.768   6.260 -0.6344  0.1787 -0.3313
  588Sol     HW 5505   1.457   1.763   6.391  0.5448 -0.3233  0.3363
  588Sol     MW 5506   1.518   1.725   6.338  0.6494 -0.5372 -0.5524
  589Sol     OW 5507   3.002   2.384   4.356 -0.2409 -0.2788 -0.0413
  589Sol     HW 5508   3.093   2.372   4.383  0.2568  1.3749 -0.9427
  589Sol     HW 5509   2.996   2.337   4.272  0.0519  0.4807 -0.4872
  589Sol     MW 5510   3.010   2.378   4.351 -0.1633 -1.0105 -0.2001
  590Sol     OW 5511   2.059   2.030   4.337  0.2020  0.1584 -0.4018
  590Sol     HW 5512   2.104   2.113   4.350  0.4338  0.0194 -0.3060
  590Sol     HW 5513   1.968   2.048   4.360  0.6159 -0.0978  1.5123
  590Sol     MW 5514   2.055   2.039   4.340  0.0282  0.0225 -0.1260
  591Sol     OW 5515   1.053   0.695   1.931 -0.4254 -0.0337  0.1976
  591Sol     HW 5516   1.116   0.653   1.872 -0.6656 -0.5263  0.2812
  591Sol     HW 5517   0.978   0.635   1.932 -1.3294  1.0653 -0.7279
  591Sol     MW 5518   1.052   0.686   1.926  0.0790  0.3112 -0.3573
  592Sol     OW 5519   2.990   3.397   5.999 -0.2381  0.2227  0.8777
  592Sol     HW 5520   3.059   3.406   6.065  2.3672  0.9060 -1.8282
  592Sol     HW 5521   2.983   3.483   5.959 -0.9971 -0.4661 -0.5072
  592Sol     MW 5522   2.995   3.405   6.002  0.3455  0.2649 -0.0590
  593Sol     OW 5523   2.554   0.585   2.633 -0.1187  0.1611 -0.2981
  593Sol     HW 5524   2.469   0.542   2.627 -0.4308  0.7836 -0.3658
  593Sol     HW 5525   2.539   0.673   2.599  0.2739  0.6636  0.8099
  593Sol     MW 5526   2.545   0.589   2.629 -0.9822 -1.4675  0.0048
  594Sol     OW 5527   2.696   2.419   2.176  0.5525 -0.5326 -0.3557
  594Sol     HW 5528   2.764   2.471   2.219 -0.7880  0.8813  0.0539
  594Sol     HW 5529   2.744   2.370   2.108  1.7654  1.5033 -1.0200
  594Sol     MW 5530   2.707   2.419   2.174  0.3912 -0.1603  0.3635
  595Sol     OW 5531   1.165   0.502   1.729 -0.4081  0.0111  0.1859
  595Sol     HW 5532   1.188   0.421   1.775 -1.4786 -0.0904  0.5610
  595Sol     HW 5533   1.078   0.485   1.694 -0.5986  0.9744  0.1889
  595Sol     MW 5534   1.159   0.493   1.730 -0.4560 -0.3646 -0.5548
  596Sol     OW 5535   1.462   2.281   3.194  0.1275 -0.3436  0.6768
  596Sol     HW 5536   1.504   2.195   3.190 -0.8250 -0.7838 -0.3442
  596Sol     HW 5537   1.400   2.274   3.267  1.5054  0.1650  1.9040
  596Sol     MW 5538   1.460   2.273   3.200 -0.2168 -0.0674  0.2906
  597Sol     OW 5539   0.026   1.091   2.034  0.0878  0.0293 -0.0057
  597Sol     HW 5540   0.036   1.026   2.104 -0.1688 -0.8236 -0.7569
  597Sol     HW 5541  -0.033   1.049   1.971 -0.1091  1.0102 -0.4731
  597Sol     MW 5542   0.022   1.081   2.035  0.1349 -0.2799  0.3733
  598Sol     OW 5543   1.260   1.663   8.103 -0.3151 -0.1555 -1.0201
  598Sol     HW 5544   1.349   1.695   8.085 -0.2978 -0.2570 -1.1146
  598Sol     HW 5545   1.267   1.568   8.095  0.4556 -0.5008  2.6634
  598Sol     MW 5546   1.269   1.657   8.101 -0.1355  0.6225 -0.3401
  599Sol     OW 5547   0.693   1.765   7.148  0.3286 -0.3834  0.2695
  599Sol     HW 5548   0.606   1.804   7.144  0.0809 -0.8409  1.1822
  599Sol     HW 5549   0.686   1.685   7.096  0.5802  0.2834 -0.8041
  599Sol     MW 5550   0.685   1.761   7.143 -0.1341  0.1238  0.0183
  600Sol     OW 5551   0.983   0.264   5.198 -0.0396  0.2503  0.1143
  600Sol     HW 5552   1.069   0.253   5.239 -0.3641  0.8384  0.9828
  600Sol     HW 5553   0.997   0.331   5.131  0.0091  0.9322  0.8011
  600Sol     MW 5554   0.992   0.269   5.196 -0.2569 -0.2594 -0.5967
  601Sol     OW 5555   1.428   0.361   9.129 -0.3862  0.2156 -0.2564
  601Sol     HW 5556   1.395   0.392   9.213 -0.6704 -1.9265  0.4536
  601Sol     HW 5557   1.373   0.286   9.107  0.0948  0.3558 -2.0479
  601Sol     MW 5558   1.420   0.357   9.135  0.1745 -1.0616 -0.9366
  602Sol     OW 5559   1.768   1.730   4.500 -0.1597  0.2814 -0.0626
  602Sol     HW 5560   1.683   1.766   4.476 -0.3877 -0.5062 -0.4420
  602Sol     HW 5561   1.829   1.765   4.435  0.0705  1.9972  1.0452
  602Sol     MW 5562   1.766   1.737   4.492 -0.1803  0.4384 -0.7137
  603Sol     OW 5563   1.707   3.245   3.736  0.5882  0.2750  0.3873
  603Sol     HW 5564   1.671   3.188   3.667  0.7693 -0.5467  0.9668
  603Sol     HW 5565   1.755   3.313   3.688 -0.3772  0.4542 -0.3400
  603Sol     MW 5566   1.708   3.246   3.725  0.3277  0.1765 -0.1767
  604Sol     OW 5567   2.622   1.110   6.057 -0.1177  0.0708  0.3275
  604Sol     HW 5568   2.709   1.068   6.057 -0.0714  0.1557 -0.7514
  604Sol     HW 5569   2.572   1.059   6.120 -0.1085 -1.7503 -1.0902
  604Sol     MW 5570   2.626   1.101   6.063 -0.6590 -0.3932  0.5950
  605Sol     OW 5571   0.788   3.330   8.497 -0.1694  0.2379 -0.2883
  605Sol     HW 5572   0.798   3.421   8.468 -2.6900  0.2963 -1.0784
  605Sol     HW 5573   0.859   3.284   8.454 -0.8857  1.2472 -2.6487
  605Sol     MW 5574   0.795   3.334   8.491 -0.5111  0.6894 -0.2580
  606Sol     OW 5575   2.714   2.965   7.542  0.0677  0.0556  0.2856
  606Sol     HW 5576   2.644   2.933   7.484 -0.0068 -1.7870  1.3627
  606Sol     HW 5577   2.671   2.980   7.625  0.7710 -0.2661  0.7145
  606Sol     MW 5578   2.704   2.963   7.544 -0.3910 -0.1475  0.0291
  607Sol     OW 5579   0.552   0.663   9.295  0.1534  0.0090  0.0541
  607Sol     HW 5580   0.596   0.578   9.307  1.0147  0.3621 -0.5260
  607Sol     HW 5581   0.569   0.711   9.376  1.8429  0.5746 -0.6056
  607Sol     MW 5582   0.558   0.659   9.303 -0.0766  0.1859  0.2586
  608Sol     OW 5583   2.884   2.525   7.124  0.0077 -0.5020 -0.1638
  608Sol     HW 5584   2.818   2.495   7.186 -1.0621  0.9678 -0.5521
  608Sol     HW 5585   2.917   2.607   7.162 -2.0239  1.4336 -2.4298
  608Sol     MW 5586   2.881   2.530   7.133  0.4635 -0.4336 -0.5103
  609Sol     OW 5587   2.268   3.094   6.905  0.4639 -0.4554 -0.3935
  609Sol     HW 5588   2.198   3.154   6.880 -0.6786 -1.3837  0.5691
  609Sol     HW 5589   2.299   3.127   6.989  0.2243 -0.8725 -0.1412
  609Sol     MW 5590   2.265   3.103   6.910  0.3113 -0.4963 -0.1241
  610Sol     OW 5591   3.238   2.713   3.983 -0.0641  0.3704 -0.0946
  610Sol     HW 5592   3.319   2.666   4.002  0.0011 -0.3338 -2.0231
  610Sol     HW 5593   3.231   2.713   3.887 -0.4564  3.6151 -0.1457
  610Sol     MW 5594   3.244   2.709   3.976  0.3616  0.2871  0.1543
  611Sol     OW 5595   0.144   1.990   2.893 -0.0678  0.1164  0.3613
  611Sol     HW 5596   0.203   2.003   2.967 -0.0633 -0.4059  0.4545
  611Sol     HW 5597   0.110   1.901   2.905  1.1216 -0.5581 -1.0976
  611Sol     MW 5598   0.146   1.983   2.901 -0.0212 -0.4295 -0.0455
  612Sol     OW 5599   1.700   3.172   3.439  0.0744  0.1099 -0.0151
  612Sol     HW 5600   1.780   3.139   3.480 -0.6628  1.4548  2.6040
  612Sol     HW 5601   1.719   3.171   3.345  2.7909 -0.5088  0.5021
  612Sol     MW 5602   1.709   3.169   3.434 -0.2579 -0.1823 -0.2529
  613Sol     OW 5603   1.222   0.077   5.408  0.2682  0.0652  0.6548
  613Sol     HW 5604   1.313   0.063   5.432  0.2257 -1.3783  0.0354
  613Sol     HW 5605   1.174   0.007   5.453 -0.6355  1.2122  1.5247
  613Sol     MW 5606   1.226   0.069   5.414 -0.1083 -0.3031  0.3673
  614Sol     OW 5607   1.232   3.376   5.738  0.1421 -0.3477  0.3835
  614Sol     HW 5608   1.211   3.462   5.776 -2.7186 -1.5544  1.6576
  614Sol     HW 5609   1.320   3.357   5.769  0.3677  1.6284  1.0197
  614Sol     MW 5610   1.238   3.382   5.744 -0.1311 -0.1090  0.1072
  615Sol     OW 5611   0.281   2.093   4.823 -0.2939  0.2179  0.0065
  615Sol     HW 5612   0.314   2.003   4.816 -1.3585 -0.0821 -1.3305
  615Sol     HW 5613   0.219   2.090   4.896  2.1228  0.6590  2.1705
  615Sol     MW 5614   0.278   2.085   4.829  0.3880 -0.8457 -0.4980
  616Sol     OW 5615   1.766   1.649   7.328 -0.0520 -0.1572 -0.2953
  616Sol     HW 5616   1.775   1.715   7.397 -0.9461 -1.3804  1.0137
  616Sol     HW 5617   1.806   1.570   7.365  1.3193 -0.2918 -1.9803
  616Sol     MW 5618   1.771   1.648   7.337  0.9228 -0.6897 -1.0614
  617Sol     OW 5619   0.744   1.846   4.027 -0.1530  0.1627  0.5082
  617Sol     HW 5620   0.807   1.915   4.051  1.0907  0.0067 -2.1013
  617Sol     HW 5621   0.792   1.789   3.967 -2.0892 -1.3013  0.2841
  617Sol     MW 5622   0.754   1.847   4.023  0.1545  0.6666  0.3393
  618Sol     OW 5623   1.603   1.222   4.273  0.4531 -0.1522  0.3638
  618Sol     HW 5624   1.683   1.253   4.232  0.1628  0.9699  0.6351
  618Sol     HW 5625   1.593   1.277   4.351 -0.8857  0.0966  0.0189
  618Sol     MW 5626   1.609   1.230   4.276 -0.3451  0.4379 -0.5525
  619Sol     OW 5627   3.154   0.351   3.042 -0.0493  0.4686  0.4736
  619Sol     HW 5628   3.231   0.333   3.096 -0.4219  2.0225  1.5559
  619Sol     HW 5629   3.115   0.429   3.081 -1.9367 -0.0451 -0.3221
  619Sol     MW 5630   3.157   0.356   3.050  0.7640 -0.3391 -0.3720
  620Sol     OW 5631   0.199   1.665   8.147 -0.1020 -0.0710 -0.2465
  620Sol     HW 5632   0.159   1.751   8.161 -0.2554  0.2054 -2.3130
  620Sol     HW 5633   0.156   1.609   8.212 -0.6117  1.2106  0.5525
  620Sol     MW 5634   0.192   1.668   8.154  0.5431 -0.1974  0.0946
  621Sol     OW 5635   0.392   2.106   2.654 -0.2526  0.6230  0.1035
  621Sol     HW 5636   0.310   2.092   2.606  0.4576 -0.1451 -0.8817
  621Sol     HW 5637   0.364   2.120   2.744 -1.5693  1.6819 -0.4510
  621Sol     MW 5638   0.382   2.106   2.658 -0.2026  0.5960 -0.1012
  622Sol     OW 5639   1.628   2.063   6.405  0.3265  0.0764  0.1095
  622Sol     HW 5640   1.541   2.055   6.365  0.8508  0.1102 -1.0881
  622Sol     HW 5641   1.621   2.018   6.488 -0.5842 -0.7277 -0.3947
  622Sol     MW 5642   1.619   2.059   6.409  0.0366  0.0908  0.3906
  623Sol     OW 5643   1.846   0.392   7.507 -0.2593  0.1364 -0.3890
  623Sol     HW 5644   1.770   0.450   7.517  0.0043  0.3109  0.7585
  623Sol     HW 5645   1.815   0.306   7.538 -0.2532 -0.0026 -0.7721
  623Sol     MW 5646   1.836   0.389   7.511  0.0448 -0.0163 -0.8018
  624Sol     OW 5647   2.319   1.499   7.730  0.6731  0.4715  0.3686
  624Sol     HW 5648   2.386   1.550   7.686 -0.0099 -0.1449 -1.4622
  624Sol     HW 5649   2.362   1.464   7.807  2.6989 -0.5174 -1.1525
  624Sol     MW 5650   2.329   1.500   7.733 -0.2937 -0.0195 -0.5679
  625Sol     OW 5651   2.173   2.070   7.141  0.0309 -0.0850 -0.0632
  625Sol     HW 5652   2.123   2.146   7.170 -2.9575 -2.2447  0.6762
  625Sol     HW 5653   2.136   2.047   7.056  2.3019  0.4556 -1.2591
  625Sol     MW 5654   2.166   2.075   7.136  0.0538  0.3964 -0.1255
  626Sol     OW 5655   0.722   1.374   4.108 -0.2634 -0.4655  0.7717
  626Sol     HW 5656   0.687   1.458   4.137 -2.1455 -1.3159  1.0664
  626Sol     HW 5657   0.657   1.310   4.137  1.0247 -2.0008  0.3442
  626Sol     MW 5658   0.713   1.376   4.113 -0.0843 -0.0697  0.0075
  627Sol     OW 5659   1.397   2.579   2.612 -0.5914 -0.2327  0.1528
  627Sol     HW 5660   1.432   2.590   2.523  1.4841  3.1007  1.3026
  627Sol     HW 5661   1.307   2.611   2.606 -0.6299 -0.5162 -0.8697
  627Sol     MW 5662   1.392   2.583   2.603  0.3036  1.0649  0.2103
  628Sol     OW 5663   1.902   2.174   3.188  0.0878  0.3990  0.6386
  628Sol     HW 5664   1.987   2.159   3.230  0.1202  0.8184  0.7282
  628Sol     HW 5665   1.861   2.088   3.185  1.0087 -0.0210 -0.4664
  628Sol     MW 5666   1.906   2.165   3.191 -0.4921  0.0889  0.2940
  629Sol     OW 5667   2.591   0.053   2.582  0.0511  0.5850 -0.7208
  629Sol     HW 5668   2.620   0.117   2.648 -0.3021 -0.5869  0.5920
  629Sol     HW 5669   2.660  -0.013   2.581 -0.0037  0.5417 -1.4431
  629Sol     MW 5670   2.600   0.053   2.588  0.1970 -0.6937 -0.6215
  630Sol     OW 5671   2.327   1.295   7.431  0.5834  0.3893  0.4659
  630Sol     HW 5672   2.272   1.310   7.509  1.1270 -2.1139  1.3710
  630Sol     HW 5673   2.281   1.226   7.383  0.5724  1.5089 -1.1565
  630Sol     MW 5674   2.318   1.290   7.434  0.2786  0.3683  0.4022
  631Sol     OW 5675   0.241   1.157   4.701  0.6314 -0.0243 -0.6098
  631Sol     HW 5676   0.244   1.092   4.771 -0.5628  1.6680  1.0461
  631Sol     HW 5677   0.308   1.128   4.639 -0.0088 -2.9334 -0.0270
  631Sol     MW 5678   0.247   1.148   4.702  0.1278  0.0301  0.7000
  632Sol     OW 5679   2.990   3.237   2.584 -0.3924  0.5624  0.4402
  632Sol     HW 5680   2.912   3.280   2.620 -0.1752  0.1654  1.3998
  632Sol     HW 5681   3.026   3.186   2.657  0.4559  0.2997 -0.1449
  632Sol     MW 5682   2.986   3.236   2.594 -0.1444 -0.0653  0.2163
  633Sol     OW 5683   1.066   3.211   5.896 -0.0108  0.0961  0.1786
  633Sol     HW 5684   1.121   3.208   5.974  0.8048 -1.4762 -0.4473
  633Sol     HW 5685   1.116   3.264   5.833  0.8001 -1.3298 -0.3892
  633Sol     MW 5686   1.076   3.216   5.897 -0.0768  0.8003  0.0287
  634Sol     OW 5687   1.744   3.196   8.190  0.2059 -0.3674 -0.1094
  634Sol     HW 5688   1.794   3.273   8.217  1.5332 -1.3348  0.2627
  634Sol     HW 5689   1.794   3.159   8.117 -0.6937 -0.5927 -0.6242
  634Sol     MW 5690   1.753   3.200   8.186  0.2885 -0.1159 -0.4438
  635Sol     OW 5691   1.430   2.295   2.752  0.4928 -0.8152 -0.1857
  635Sol     HW 5692   1.491   2.311   2.824  0.0428 -0.9853  0.2372
  635Sol     HW 5693   1.443   2.369   2.692 -0.0806  0.0499  0.7274
  635Sol     MW 5694   1.436   2.303   2.753  0.4429 -0.3306 -0.6563
  636Sol     OW 5695   1.663   0.678   3.881  0.0052 -0.4417 -0.0159
  636Sol     HW 5696   1.754   0.669   3.851  0.6811  1.8203  1.2533
  636Sol     HW 5697   1.628   0.751   3.830  0.0713  1.1184  2.1023
  636Sol     MW 5698   1.668   0.684   3.874  0.2767  0.3027  0.1236
  637Sol     OW 5699   0.355   0.452   6.691  0.1732 -0.0924 -0.1903
  637Sol     HW 5700   0.450   0.459   6.697  0.1692  1.3999 -1.5733
  637Sol     HW 5701   0.340   0.405   6.609 -0.2789 -0.4282  0.0858
  637Sol     MW 5702   0.362   0.448   6.684 -0.0741  0.2784 -0.5496
  638Sol     OW 5703   2.818   2.716   8.479  0.0432 -0.5007  0.9219
  638Sol     HW 5704   2.877   2.686   8.548 -0.8750  1.4268  2.6063
  638Sol     HW 5705   2.753   2.645   8.471  0.1009 -0.7025  2.1288
  638Sol     MW 5706   2.817   2.707   8.484 -0.1876 -0.0514  0.0782
  639Sol     OW 5707   1.056   1.273   2.038  0.2452 -0.1005 -0.1297
  639Sol     HW 5708   1.074   1.366   2.033  0.7458 -0.1688  0.3346
  639Sol     HW 5709   0.967   1.268   2.074  0.6891  0.1776  1.0220
  639Sol     MW 5710   1.049   1.281   2.041  0.2641  0.6568 -0.4743
  640Sol     OW 5711   2.934   0.747   4.452 -0.7298  0.6199  0.1689
  640Sol     HW 5712   2.927   0.787   4.539  1.4125  2.6063 -0.5081
  640Sol     HW 5713   3.017   0.699   4.455  0.1881  2.0654 -1.2604
  640Sol     MW 5714   2.941   0.746   4.460  0.2595 -0.1640 -0.2051
  641Sol     OW 5715   1.442   2.982   2.651  0.7464 -0.2232 -0.5746
  641Sol     HW 5716   1.488   3.017   2.727 -0.7657  0.6117 -0.0195
  641Sol     HW 5717   1.511   2.947   2.595  2.0069  0.5776  0.4499
  641Sol     MW 5718   1.452   2.982   2.653 -0.0717  0.2376 -0.4635
  642Sol     OW 5719   0.872   2.788   6.685  0.0979  0.2767  0.1443
  642Sol     HW 5720   0.816   2.815   6.758  1.8170 -0.2661  1.6912
  642Sol     HW 5721   0.961   2.788   6.720  1.1349  1.2504 -2.3139
  642Sol     MW 5722   0.875   2.791   6.694 -0.3134 -0.3891 -0.6477
  643Sol     OW 5723   1.900   2.662   3.136 -0.1472  0.4065  0.3553
  643Sol     HW 5724   1.968   2.619   3.083  1.0712  1.9275  0.6380
  643Sol     HW 5725   1.828   2.677   3.075  0.5259  0.5027 -0.4287
  643Sol     MW 5726   1.900   2.659   3.125 -0.2103  0.1385  0.4098
  644Sol     OW 5727   0.764   0.672   7.468  0.0584  1.0134  0.7893
  644Sol     HW 5728   0.822   0.597   7.481 -2.3224 -0.5767  2.5449
  644Sol     HW 5729   0.764   0.685   7.373  0.5590 -1.1663  0.4568
  644Sol     MW 5730   0.770   0.666   7.460 -0.5919 -0.0115  0.0339
  645Sol     OW 5731   1.127   2.241   8.349  0.5178  0.2777 -0.6631
  645Sol     HW 5732   1.075   2.246   8.429  0.3912 -1.1155 -0.6389
  645Sol     HW 5733   1.063   2.252   8.278  0.0488 -2.0772 -0.6509
  645Sol     MW 5734   1.117   2.242   8.350  0.0392  0.4921 -0.3608
  646Sol     OW 5735   0.421   1.294   6.694 -0.7995 -0.3225  0.2694
  646Sol     HW 5736   0.340   1.344   6.695 -2.4650 -2.8842 -0.8842
  646Sol     HW 5737   0.408   1.226   6.760  0.5971 -0.4997  0.3752
  646Sol     MW 5738   0.413   1.292   6.700  0.0303  0.2327 -0.1130
  647Sol     OW 5739   1.604   0.663   3.216  0.8606 -0.3496  0.1190
  647Sol     HW 5740   1.515   0.628   3.208  0.2636  0.3305  3.1427
  647Sol     HW 5741   1.596   0.756   3.198  0.8625 -0.2094  0.8142
  647Sol     MW 5742   1.596   0.668   3.214  0.3335  0.0216 -0.5925
  648Sol     OW 5743   2.789   1.989   2.710  0.0499 -0.6054 -0.0200
  648Sol     HW 5744   2.744   2.044   2.774  0.8861  2.5927 -2.0760
  648Sol     HW 5745   2.764   1.900   2.734 -4.2418  0.8115  1.3042
  648Sol     MW 5746   2.782   1.986   2.718 -0.1334  0.2777  0.2700
  649Sol     OW 5747   2.623   1.589   4.672  0.0593 -0.7189  0.5179
  649Sol     HW 5748   2.635   1.529   4.745 -1.1854  0.4486  1.6845
  649Sol     HW 5749   2.530   1.609   4.671 -0.1793 -1.7405 -2.2130
  649Sol     MW 5750   2.616   1.586   4.678  0.0294 -1.0356  0.2700
  650Sol     OW 5751   0.258   0.170   5.580 -0.1970 -0.2140 -0.2864
  650Sol     HW 5752   0.227   0.255   5.549 -2.7469 -1.0637 -0.2142
  650Sol     HW 5753   0.194   0.108   5.547  0.6230 -1.8920  1.1881
  650Sol     MW 5754   0.249   0.172   5.575  0.0155 -0.2031  0.0317
  651Sol     OW 5755   0.869   1.534   5.251 -0.1692  0.3294 -0.3145
  651Sol     HW 5756   0.883   1.521   5.345 -2.0234 -1.6831 -0.2724
  651Sol     HW 5757   0.780   1.567   5.245  0.3794  1.6908 -1.3254
  651Sol     MW 5758   0.863   1.536   5.259 -0.2784  0.2071  0.0302
  652Sol     OW 5759   0.031   1.132   4.972 -0.0079  0.5698 -0.2758
  652Sol     HW 5760  -0.020   1.129   4.891 -0.5293 -0.9715  0.0909
  652Sol     HW 5761  -0.016   1.194   5.028 -0.0573  1.0755 -0.8693
  652Sol     MW 5762   0.022   1.137   4.970 -0.1762  0.0744 -0.0987
  653Sol     OW 5763   2.997   1.791   6.456  0.0899 -0.5670  0.2003
  653Sol     HW 5764   3.029   1.869   6.501  0.0150 -0.6878  0.4691
  653Sol     HW 5765   3.075   1.737   6.444 -0.2803 -1.7462  2.6316
  653Sol     MW 5766   3.007   1.793   6.459  0.1361 -0.2775  0.2370
  654Sol     OW 5767   2.094   1.178   4.214  0.3714 -0.0488 -0.1236
  654Sol     HW 5768   2.001   1.193   4.196  0.2230  0.9220  1.3921
  654Sol     HW 5769   2.138   1.195   4.131 -0.7491  0.0615 -0.6965
  654Sol     MW 5770   2.090   1.181   4.205 -0.5833 -0.3451 -0.1163
  655Sol     OW 5771   2.685   2.027   1.961  0.4928 -0.3520 -0.2412
  655Sol     HW 5772   2.678   1.960   2.029 -1.8769 -0.1870 -0.3034
  655Sol     HW 5773   2.601   2.072   1.962  1.7000  2.0210 -0.8521
  655Sol     MW 5774   2.677   2.025   1.967  0.5765  0.1518  0.0650
  656Sol     OW 5775   0.025   2.327   6.464 -0.6782  0.3991  0.0695
  656Sol     HW 5776   0.037   2.419   6.442  0.7753  0.3576  0.6565
  656Sol     HW 5777  -0.009   2.328   6.554  0.4663  0.3436  0.5170
  656Sol     MW 5778   0.023   2.335   6.470  0.2903  0.5396 -0.8787
  657Sol     OW 5779   1.747   1.657   3.644  0.4032  0.8669 -0.1648
  657Sol     HW 5780   1.668   1.634   3.693  1.0660  0.9380  0.9665
  657Sol     HW 5781   1.776   1.740   3.683  0.2478  1.5793 -1.5287
  657Sol     MW 5782   1.742   1.662   3.652  1.0713  0.0571 -0.6560
  658Sol     OW 5783   2.778   0.349   6.528 -0.2776  0.6692  0.0259
  658Sol     HW 5784   2.765   0.314   6.440 -0.6694 -1.1641  0.7849
  658Sol     HW 5785   2.858   0.308   6.559  0.2750  1.8891  0.2701
  658Sol     MW 5786   2.784   0.342   6.523  0.0283  0.2500 -0.3486
  659Sol     OW 5787   0.900   1.162   5.339 -0.4403  0.6159 -0.2503
  659Sol     HW 5788   0.983   1.120   5.361 -1.2317 -0.0006  1.6802
  659Sol     HW 5789   0.902   1.172   5.244  1.6480  0.2122 -0.2687
  659Sol     MW 5790   0.908   1.159   5.332 -0.0374 -0.7629  0.3010
  660Sol     OW 5791   1.280   2.455   3.604  0.0288  0.3413  0.1842
  660Sol     HW 5792   1.266   2.468   3.698  2.8085 -0.6410  0.7886
  660Sol     HW 5793   1.350   2.516   3.581  0.4111 -0.4728 -0.9059
  660Sol     MW 5794   1.285   2.461   3.610  0.0496 -0.3455 -0.4928
  661Sol     OW 5795   2.136   2.914   3.523  0.0772  0.3805 -0.2435
  661Sol     HW 5796   2.120   2.842   3.463  0.9459  1.9696 -2.4409
  661Sol     HW 5797   2.147   2.872   3.608  0.4558 -2.0505 -1.4519
  661Sol     MW 5798   2.135   2.904   3.525  0.2204  0.2160  0.0565
  662Sol     OW 5799   2.200   0.776   3.899  0.1143 -0.8521 -0.4106
  662Sol     HW 5800   2.131   0.789   3.965  2.0876  1.5566  1.2983
  662Sol     HW 5801   2.156   0.790   3.815 -2.3418 -3.4787  0.3727
  662Sol     MW 5802   2.190   0.778   3.898 -0.0286 -0.4688 -0.4835
  663Sol     OW 5803   2.666   2.889   8.668 -0.3648  0.1956  0.3377
  663Sol     HW 5804   2.688   2.817   8.609 -3.4998  0.7731 -1.6474
  663Sol     HW 5805   2.718   2.963   8.636  0.6335 -0.3999  0.5544
  663Sol     MW 5806   2.672   2.889   8.660  0.3131  0.2390 -0.3075
  664Sol     OW 5807   2.225   2.360   8.671 -0.0586 -0.2822 -0.2702
  664Sol     HW 5808   2.179   2.279   8.649  1.5528 -0.2120 -4.3821
  664Sol     HW 5809   2.301   2.332   8.722 -0.9127 -1.0461  0.6124
  664Sol     MW 5810   2.227   2.350   8.674  0.0540  0.5395 -0.5757
  665Sol     OW 5811   2.170   3.317   9.541  0.6405  0.2507  0.3516
  665Sol     HW 5812   2.238   3.251   9.555 -1.0280 -1.4965  0.4775
  665Sol     HW 5813   2.144   3.305   9.450  1.2195  1.6120  0.0059
  665Sol     MW 5814   2.174   3.310   9.534 -0.0361  0.2049  0.6694
  666Sol     OW 5815   2.350   3.086   7.529  0.4896  0.1754  0.3014
  666Sol     HW 5816   2.335   3.063   7.621  0.9438 -1.5844 -0.0487
  666Sol     HW 5817   2.304   3.169   7.518 -2.2530 -1.1331  1.3233
  666Sol     MW 5818   2.344   3.091   7.537 -0.1546 -0.3742  0.2171
  667Sol     OW 5819   0.300   0.433   2.275  0.6038  0.3086  1.1768
  667Sol     HW 5820   0.247   0.492   2.328 -2.3547  0.6726 -2.0772
  667Sol     HW 5821   0.314   0.480   2.193 -2.1196 -3.4981 -1.6450
  667Sol     MW 5822   0.297   0.443   2.273 -0.3876  0.0276  0.0539
  668Sol     OW 5823   0.294   0.562   6.072  0.3764  0.3079  0.2775
  668Sol     HW 5824   0.369   0.621   6.065  0.1347  0.6469  0.4698
  668Sol     HW 5825   0.314   0.490   6.013  1.0535  0.1774  0.6638
  668Sol     MW 5826   0.302   0.561   6.066 -0.3832 -0.5969 -0.3890
  669Sol     OW 5827   1.986   1.633   9.063 -0.0844  0.0538  0.4303
  669Sol     HW 5828   2.020   1.551   9.098 -0.7309 -0.9274 -1.1705
  669Sol     HW 5829   2.058   1.695   9.071  0.1140 -0.4142  2.4893
  669Sol     MW 5830   1.995   1.631   9.067 -0.1171  0.0002  0.2077
  670Sol     OW 5831   3.311   0.047   3.405  0.4039  0.2984 -0.2878
  670Sol     HW 5832   3.402   0.063   3.430 -0.1286  1.2465  1.0931
  670Sol     HW 5833   3.275  -0.004   3.477 -0.2773  0.2571 -0.6519
  670Sol     MW 5834   3.316   0.044   3.413  0.7711  0.2466  0.2886
  671Sol     OW 5835   0.454   0.883   5.328 -0.2148  0.2857  0.8384
  671Sol     HW 5836   0.375   0.927   5.362 -1.4751 -2.6232  1.8349
  671Sol     HW 5837   0.489   0.837   5.404  0.8058 -0.7965 -0.2771
  671Sol     MW 5838   0.450   0.883   5.338 -0.3311 -0.2140 -0.2757
  672Sol     OW 5839   1.485   0.163   3.573  0.0082 -0.4357 -0.1324
  672Sol     HW 5840   1.573   0.200   3.586  0.3204 -1.2782  0.1566
  672Sol     HW 5841   1.501   0.082   3.525 -0.7170  0.0459 -1.1918
  672Sol     MW 5842   1.495   0.159   3.570 -0.2077 -0.1150 -0.8876
  673Sol     OW 5843   0.828   2.359   8.910 -0.2258 -0.1656 -0.5814
  673Sol     HW 5844   0.858   2.352   9.000  0.3474 -0.0864 -0.7674
  673Sol     HW 5845   0.899   2.321   8.858 -0.1806  0.5825 -1.0649
  673Sol     MW 5846   0.837   2.355   8.913 -0.5111 -0.5622  0.1850
  674Sol     OW 5847   0.306   2.649   6.984 -0.0462  0.2685  0.3699
  674Sol     HW 5848   0.302   2.554   6.983 -0.0164  0.2296  1.8079
  674Sol     HW 5849   0.220   2.677   7.017 -0.3019  0.7691 -0.7009
  674Sol     MW 5850   0.298   2.643   6.987  0.2067 -0.3892  0.2878
  675Sol     OW 5851   1.404   3.178   4.470 -0.0750 -0.3685  0.2320
  675Sol     HW 5852   1.368   3.221   4.548 -1.1365 -0.3903 -0.2467
  675Sol     HW 5853   1.416   3.250   4.408 -0.9567 -0.6252 -0.2343
  675Sol     MW 5854   1.402   3.189   4.472 -1.0403 -0.4453  0.6595
  676Sol     OW 5855   2.643   0.476   4.498 -0.2192  0.0442 -0.1323
  676Sol     HW 5856   2.727   0.431   4.507 -0.1546 -0.0543 -1.2377
  676Sol     HW 5857   2.605   0.442   4.417 -2.0674 -1.1207  1.1676
  676Sol     MW 5858   2.647   0.469   4.492  0.2256  0.1255 -0.0393
  677Sol     OW 5859   1.895   3.371   1.474  0.5643  0.0103 -0.2585
  677Sol     HW 5860   1.986   3.374   1.506  0.5021  0.5116 -0.1167
  677Sol     HW 5861   1.843   3.353   1.552  0.6032 -0.9784 -0.4631
  677Sol     MW 5862   1.899   3.370   1.484  0.4248 -0.2894  0.2520
  678Sol     OW 5863   0.599   1.742   6.677  0.2406  0.0167  1.0052
  678Sol     HW 5864   0.629   1.777   6.760 -0.3039  2.6349  0.1490
  678Sol     HW 5865   0.516   1.786   6.660  0.3002 -0.5153 -0.8825
  678Sol     MW 5866   0.594   1.749   6.683  0.3669  0.4807 -0.1771
  679Sol     OW 5867   0.168   1.288   1.684 -0.2233 -0.0908 -0.7689
  679Sol     HW 5868   0.118   1.209   1.663  1.0355 -1.1730  0.1743
  679Sol     HW 5869   0.108   1.342   1.735  0.1472 -2.2425  2.0445
  679Sol     MW 5870   0.158   1.286   1.686 -0.6059  0.2082 -0.1029
  680Sol     OW 5871   2.574   3.277   2.016 -0.2452  0.3291  0.4833
  680Sol     HW 5872   2.658   3.237   1.992  0.1966 -0.3129  2.9938
  680Sol     HW 5873   2.509   3.214   1.984  0.3055 -0.2279  0.4391
  680Sol     MW 5874   2.575   3.267   2.011 -0.3160  0.2790  0.4188
  681Sol     OW 5875   0.551   2.459   7.651  0.6615 -0.1671  0.2196
  681Sol     HW 5876   0.545   2.382   7.707  1.7306 -0.9878 -0.7664
  681Sol     HW 5877   0.482   2.446   7.585  0.9093 -0.3324 -0.0078
  681Sol     MW 5878   0.544   2.451   7.650  0.0545  0.0203 -0.4841
  682Sol     OW 5879   1.657   1.218   9.480  0.1022 -0.6729 -0.3145
  682Sol     HW 5880   1.693   1.186   9.563 -1.3757 -1.7542 -0.0865
  682Sol     HW 5881   1.667   1.145   9.420 -2.1038 -1.1579 -0.1327
  682Sol     MW 5882   1.661   1.209   9.482 -0.4422 -0.2113 -0.9826
  683Sol     OW 5883   2.806   3.149   1.936  0.0582  0.3306  0.4745
  683Sol     HW 5884   2.835   3.059   1.953 -0.7322  0.0811  0.5420
  683Sol     HW 5885   2.876   3.187   1.883  0.4046 -0.3186  0.4561
  683Sol     MW 5886   2.815   3.144   1.933  1.2444 -0.5296  0.2299
  684Sol     OW 5887   0.452   1.063   8.389 -0.8073  0.8240  0.2303
  684Sol     HW 5888   0.365   1.073   8.430 -0.7593  0.1864  0.4909
  684Sol     HW 5889   0.434   1.064   8.295 -1.2800 -0.7856  0.2786
  684Sol     MW 5890   0.442   1.064   8.384  0.4628 -0.1624 -0.4495
  685Sol     OW 5891   0.005   1.954   9.216  0.1129 -0.0364 -0.4377
  685Sol     HW 5892  -0.066   1.928   9.276  0.9776  1.4029  1.2643
  685Sol     HW 5893   0.058   1.875   9.207 -1.1214 -0.8312 -0.8838
  685Sol     MW 5894   0.003   1.945   9.221  0.1222 -0.4020  0.4340
  686Sol     OW 5895   2.195   3.438   5.198 -0.1497  0.6537 -0.2534
  686Sol     HW 5896   2.139   3.405   5.268  1.2457  0.4511  0.7868
  686Sol     HW 5897   2.185   3.533   5.201 -0.3552  0.6241 -0.0061
  686Sol     MW 5898   2.189   3.444   5.204  0.2251 -0.4850 -0.0026
  687Sol     OW 5899   0.698   2.008   5.936  0.1250  0.0824  0.2084
  687Sol     HW 5900   0.624   2.028   5.994  0.8438 -0.6686  1.3953
  687Sol     HW 5901   0.678   1.922   5.901 -0.6241  0.8054 -1.1887
  687Sol     MW 5902   0.689   2.002   5.938  0.6000  0.1293 -0.0003
  688Sol     OW 5903   2.663   0.030   1.817  0.2525  0.0394 -0.1878
  688Sol     HW 5904   2.593   0.067   1.764  0.1630  4.3685  2.7093
  688Sol     HW 5905   2.620  -0.033   1.875 -0.8792  1.0917  0.1140
  688Sol     MW 5906   2.653   0.027   1.817 -0.4467 -0.3336 -0.1327
  689Sol     OW 5907   1.802   2.565   8.077 -0.3980 -0.2427  0.1269
  689Sol     HW 5908   1.838   2.651   8.052  0.2036 -0.3413  0.6309
  689Sol     HW 5909   1.800   2.567   8.173  0.9179 -1.2967  0.2001
  689Sol     MW 5910   1.805   2.573   8.083  0.6093  0.5070  0.2343
  690Sol     OW 5911   1.374   2.942   7.116 -0.3442  0.0618  0.8590
  690Sol     HW 5912   1.354   2.918   7.206 -0.6608 -2.7265  0.0815
  690Sol     HW 5913   1.457   2.899   7.097 -0.3036  0.5895 -0.2121
  690Sol     MW 5914   1.379   2.936   7.122  1.1150  0.1135  0.0065
  691Sol     OW 5915   2.429   3.311   5.041  0.6251  0.2050  0.2826
  691Sol     HW 5916   2.481   3.256   5.099  0.9308 -2.4127 -2.2946
  691Sol     HW 5917   2.346   3.324   5.087  1.1317 -1.1561  1.6147
  691Sol     MW 5918   2.426   3.307   5.050 -0.3286  0.5495 -0.9940
  692Sol     OW 5919   2.030   1.714   6.815 -0.4618 -0.1140 -0.3236
  692Sol     HW 5920   2.090   1.657   6.862  0.1657 -0.0601 -1.0533
  692Sol     HW 5921   2.043   1.693   6.723 -1.3002  0.1552 -0.5119
  692Sol     MW 5922   2.036   1.707   6.811  0.4442 -0.0374  0.2065
  693Sol     OW 5923   2.127   1.661   9.405  0.7820  0.0148  0.0961
  693Sol     HW 5924   2.166   1.592   9.459 -1.1541 -0.9547  0.2651
  693Sol     HW 5925   2.149   1.742   9.452  3.2062 -0.4298 -0.1877
  693Sol     MW 5926   2.133   1.662   9.414  0.3113 -0.4106 -0.6159
  694Sol     OW 5927   1.818   1.557   6.951 -0.8520  0.3856 -0.0059
  694Sol     HW 5928   1.780   1.595   7.030  0.9052  0.3316  0.8705
  694Sol     HW 5929   1.877   1.624   6.917 -0.1139 -0.3524 -0.1863
  694Sol     MW 5930   1.820   1.566   6.955 -0.1864  0.6234  0.2513
  695Sol     OW 5931   0.366   2.029   5.902 -0.2770 -0.3136 -0.6521
  695Sol     HW 5932   0.273   2.050   5.910  0.0813  0.8178  0.7409
  695Sol     HW 5933   0.367   1.948   5.850 -1.9307  0.5033 -2.0132
  695Sol     MW 5934   0.357   2.023   5.898  0.2187 -0.1613 -0.3668
  696Sol     OW 5935   2.019   2.559   2.029  0.3416 -0.1347  0.4814
  696Sol     HW 5936   1.924   2.561   2.041  0.3227  0.1301  0.2887
  696Sol     HW 5937   2.050   2.501   2.098 -0.2709 -2.8226 -1.3966
  696Sol     MW 5938   2.013   2.554   2.036 -0.1064 -0.3039 -0.1158
  697Sol     OW 5939   2.841   0.226   1.885  0.1666 -0.1875  0.5450
  697Sol     HW 5940   2.776   0.295   1.895  1.8037  1.5315 -0.2265
  697Sol     HW 5941   2.792   0.152   1.850 -1.4712  0.8894  0.4926
  697Sol     MW 5942   2.831   0.226   1.882 -0.0679  0.2341  0.5621
  698Sol     OW 5943   2.709   0.428   2.455  0.0719  0.5077  0.4051
  698Sol     HW 5944   2.655   0.352   2.434  1.3414 -0.8933  2.0762
  698Sol     HW 5945   2.653   0.482   2.512 -0.3822  0.2120  0.2385
  698Sol     MW 5946   2.699   0.426   2.459 -0.4446  0.5842  0.2251
  699Sol     OW 5947   0.004   3.305   7.872  0.3448  0.7060  0.6261
  699Sol     HW 5948   0.007   3.232   7.934  0.1147 -0.1925 -0.3959
  699Sol     HW 5949  -0.077   3.351   7.893  0.2320  0.3639  0.9443
  699Sol     MW 5950  -0.003   3.303   7.879  0.9061  0.4974  0.3962
  700Sol     OW 5951   2.167   0.033   5.862  0.2988 -0.4576  0.4627
  700Sol     HW 5952   2.204   0.035   5.951  0.1050  0.1036  0.5343
  700Sol     HW 5953   2.079   0.069   5.872  0.5789  0.3913 -0.0978
  700Sol     MW 5954   2.162   0.036   5.871 -0.1605 -0.1325 -0.1914
  701Sol     OW 5955   3.180   2.862   2.701 -0.2362 -0.0513 -0.1624
  701Sol     HW 5956   3.274   2.861   2.679 -0.2375 -2.2342 -0.1696
  701Sol     HW 5957   3.164   2.951   2.733  1.6052  0.6690 -1.1614
  701Sol     MW 5958   3.187   2.870   2.702  0.4490  0.3210 -0.6300
  702Sol     OW 5959   0.634   2.212   1.771 -0.3780  0.0878 -0.0144
  702Sol     HW 5960   0.564   2.150   1.791 -0.0567  0.1396  1.3107
  702Sol     HW 5961   0.702   2.193   1.835  0.3075  0.8792 -0.4939
  702Sol     MW 5962   0.634   2.205   1.778 -0.2032 -0.2064  0.3653
  703Sol     OW 5963   1.820   1.327   5.737 -0.6890 -0.1891 -0.6326
  703Sol     HW 5964   1.773   1.287   5.810 -0.3443  1.1807  0.3567
  703Sol     HW 5965   1.902   1.277   5.732  0.1670  0.9697  1.2241
  703Sol     MW 5966   1.823   1.319   5.743  0.2434 -0.3342 -0.4182
  704Sol     OW 5967   1.936   0.723   3.051 -0.3383  0.4972 -0.0842
  704Sol     HW 5968   1.855   0.673   3.062 -0.0250  0.0673  0.2711
  704Sol     HW 5969   1.920   0.805   3.097 -0.7293  0.5810 -0.3744
  704Sol     MW 5970   1.927   0.726   3.056 -0.6573 -0.0732 -0.2793
  705Sol     OW 5971   0.280   1.107   6.877  0.1814 -0.8908 -0.0292
  705Sol     HW 5972   0.194   1.098   6.919  0.7938 -0.7946  1.2988
  705Sol     HW 5973   0.342   1.101   6.950  1.1529  2.5162 -0.4818
  705Sol     MW 5974   0.278   1.106   6.888  0.0714  1.0252 -0.2931
  706Sol     OW 5975   3.299   0.471   8.305  0.2975  0.3302  0.6057
  706Sol     HW 5976   3.306   0.443   8.213 -0.8034  0.7220  0.3961
  706Sol     HW 5977   3.231   0.537   8.305 -0.1955 -0.1612  1.8252
  706Sol     MW 5978   3.294   0.474   8.297  0.1568 -0.2930 -0.0842
  707Sol     OW 5979   2.748   2.061   9.357  0.0957 -0.1441  0.5415
  707Sol     HW 5980   2.756   2.065   9.261 -2.9001  0.3514  0.2512
  707Sol     HW 5981   2.696   2.139   9.379 -2.1236 -2.0280  2.1849
  707Sol     MW 5982   2.744   2.069   9.350 -0.3099  0.0022 -0.0374
  708Sol     OW 5983   2.708   1.606   6.988  0.8782  0.2900 -0.3998
  708Sol     HW 5984   2.692   1.584   6.896  0.0487  0.6483 -0.3392
  708Sol     HW 5985   2.711   1.701   6.990 -1.1180  0.3673  0.2717
  708Sol     MW 5986   2.707   1.612   6.980 -0.4747 -0.0837  0.2128
  709Sol     OW 5987   2.622   3.063   8.327  0.0191  0.0537 -0.2422
  709Sol     HW 5988   2.587   2.974   8.333  0.4017 -0.1316 -0.6675
  709Sol     HW 5989   2.687   3.058   8.257  1.6666  0.1151  1.2271
  709Sol     MW 5990   2.625   3.054   8.321 -0.3778  0.2929  0.0349
  710Sol     OW 5991   1.865   1.237   3.642  0.1350  0.1607  0.3803
  710Sol     HW 5992   1.864   1.306   3.708  0.1704 -1.4462  2.0797
  710Sol     HW 5993   1.949   1.194   3.653 -0.2724 -0.7573 -0.0226
  710Sol     MW 5994   1.872   1.240   3.649 -0.2265 -0.2270  0.7888
  711Sol     OW 5995   2.422   0.095   5.800  0.9743  0.6009 -0.3839
  711Sol     HW 5996   2.450   0.083   5.710 -0.0310  0.6105 -0.7081
  711Sol     HW 5997   2.331   0.064   5.801  0.1875  2.8113  0.0645
  711Sol     MW 5998   2.416   0.092   5.792 -0.0887  1.2990  0.0639
  712Sol     OW 5999   0.745   2.613   9.441 -0.6528 -0.1251 -0.0378
  712Sol     HW 6000   0.794   2.531   9.431  0.6721  0.7669 -1.0761
  712Sol     HW 6001   0.695   2.602   9.521 -1.1068 -2.2729 -0.5825
  712Sol     MW 6002   0.745   2.604   9.447  0.1342 -0.4126  0.3264
  713Sol     OW 6003   0.905   3.386   2.435 -0.3800 -0.6344  0.5077
  713Sol     HW 6004   0.837   3.381   2.502 -1.0938  2.7201  0.1571
  713Sol     HW 6005   0.860   3.416   2.356  1.2050 -0.0539 -0.2173
  713Sol     MW 6006   0.895   3.389   2.434  0.1832  0.0120 -0.1195
  714Sol     OW 6007   0.634   1.675   3.640 -0.2414 -0.1007 -0.1207
  714Sol     HW 6008   0.724   1.708   3.647 -0.5948  1.1069 -0.9927
  714Sol     HW 6009   0.585   1.749   3.605 -1.6658 -0.6211  0.7582
  714Sol     MW 6010   0.638   1.685   3.638  0.1176 -0.3818  0.3510
  715Sol     OW 6011   2.532   3.264   4.775 -0.5971 -0.3293  0.3457
  715Sol     HW 6012   2.504   3.277   4.865 -1.4820  0.8828 -0.0893
  715Sol     HW 6013   2.462   3.212   4.735 -1.2699  1.0037 -0.2188
  715Sol     MW 6014   2.523   3.260   4.779 -0.5393 -0.1176  0.0140
  716Sol     OW 6015   1.195   3.036   6.926 -0.4950  0.2076  0.0829
  716Sol     HW 6016   1.254   3.006   6.995 -0.4242 -1.3874 -0.6620
  716Sol     HW 6017   1.253   3.072   6.859 -0.3939 -0.8837 -0.4190
  716Sol     MW 6018   1.205   3.037   6.926 -0.2264  0.2636  0.0988
  717Sol     OW 6019   0.907   3.333   4.399  0.5082  0.3422  0.4394
  717Sol     HW 6020   0.993   3.375   4.402  0.6504  0.3571 -2.9606
  717Sol     HW 6021   0.913   3.264   4.465  3.1676  0.2770  0.2118
  717Sol     MW 6022   0.915   3.331   4.406  0.0940 -0.1896 -0.7224
  718Sol     OW 6023   1.164   1.383   9.562  0.1828 -0.5819 -0.9144
  718Sol     HW 6024   1.148   1.329   9.640  1.5961 -0.5892 -0.6194
  718Sol     HW 6025   1.240   1.343   9.520  0.0901  0.0694 -1.7224
  718Sol     MW 6026   1.169   1.374   9.565 -0.3937 -0.5683 -0.1115
  719Sol     OW 6027   3.083   2.721   2.970 -0.2470  0.1721 -0.0319
  719Sol     HW 6028   3.044   2.808   2.980 -0.7768  0.0145 -0.6967
  719Sol     HW 6029   3.138   2.728   2.892 -0.4164 -0.1324 -0.1797
  719Sol     MW 6030   3.084   2.729   2.964  0.3749 -0.7228 -0.1780
  720Sol     OW 6031   1.901   0.918   7.023 -0.0072  0.1211 -0.0115
  720Sol     HW 6032   1.880   0.830   6.993 -0.7097  0.1432  0.4041
  720Sol     HW 6033   1.865   0.922   7.112  1.7153  0.1837  0.6891
  720Sol     MW 6034   1.896   0.911   7.028  0.2240  0.2183 -0.7741
  721Sol     OW 6035   0.150   0.726   2.753  0.3718 -0.5784  0.4478
  721Sol     HW 6036   0.072   0.711   2.700 -0.6977  0.2588  1.7307
  721Sol     HW 6037   0.199   0.644   2.749  0.5405 -0.3796 -2.1625
  721Sol     MW 6038   0.148   0.718   2.748 -0.3901  0.3688  0.0281
  722Sol     OW 6039   1.081   2.636   4.745 -0.6651  0.4866 -0.2787
  722Sol     HW 6040   1.130   2.664   4.668 -1.0619 -1.3135 -1.2202
  722Sol     HW 6041   0.989   2.645   4.719 -0.8038  0.5823  0.2483
  722Sol     MW 6042   1.077   2.639   4.735  0.2132 -0.1996  0.3655
  723Sol     OW 6043   1.332   0.568   3.220 -0.0499  0.1134 -0.6056
  723Sol     HW 6044   1.257   0.621   3.193 -2.2760 -3.0531 -0.8869
  723Sol     HW 6045   1.318   0.483   3.179  2.4956 -1.2747  1.2146
  723Sol     MW 6046   1.324   0.565   3.214  0.1598 -1.1352  0.4347
  724Sol     OW 6047   0.094   1.379   3.612 -0.7213 -0.1126  0.0782
  724Sol     HW 6048   0.113   1.342   3.698  1.3955 -0.3708 -0.4740
  724Sol     HW 6049   0.081   1.303   3.555  0.6223  0.0169 -0.4115
  724Sol     MW 6050   0.094   1.369   3.615  0.7773 -0.0056  0.0007
  725Sol     OW 6051   3.172   0.442   3.686 -0.0691 -0.7174 -0.2095
  725Sol     HW 6052   3.251   0.412   3.732  1.2739  1.1306 -1.2592
  725Sol     HW 6053   3.144   0.520   3.736 -0.4523 -0.5829 -0.6346
  725Sol     MW 6054   3.176   0.447   3.695  0.3653  0.2132  0.2775
  726Sol     OW 6055   2.535   3.076   2.812  0.1608 -0.3771  0.8249
  726Sol     HW 6056   2.502   3.065   2.901 -0.4656  0.3026  0.6786
  726Sol     HW 6057   2.490   3.009   2.761  0.6266 -0.8623  1.0367
  726Sol     MW 6058   2.528   3.069   2.815  0.3290  0.0423 -0.4955
  727Sol     OW 6059   2.541   1.241   5.161 -0.0239  0.1355 -0.2015
  727Sol     HW 6060   2.534   1.152   5.127  1.2030 -0.3940  0.8699
  727Sol     HW 6061   2.451   1.272   5.167 -0.4200 -0.8245 -1.1180
  727Sol     MW 6062   2.533   1.236   5.159 -0.0815  0.2566 -0.5890
  728Sol     OW 6063   1.668   2.008   3.449 -0.2276  0.8835 -0.2024
  728Sol     HW 6064   1.590   1.960   3.422  0.3201 -0.1087 -0.0643
  728Sol     HW 6065   1.640   2.100   3.454 -0.4269  1.0688 -3.8586
  728Sol     MW 6066   1.659   2.012   3.447  0.1415 -1.0465 -0.2213
  729Sol     OW 6067   2.101   2.317   1.878  0.6040  0.2338  0.1000
  729Sol     HW 6068   2.080   2.401   1.919 -1.4675  0.5736 -1.5470
  729Sol     HW 6069   2.072   2.251   1.941 -1.1819  0.7573 -0.1365
  729Sol     MW 6070   2.097   2.319   1.887 -0.3255 -0.1023 -0.4842
  730Sol     OW 6071   1.759   3.403   8.611  0.1762  0.4287  0.4748
  730Sol     HW 6072   1.676   3.365   8.582  0.2220  0.6223  0.0833
  730Sol     HW 6073   1.815   3.327   8.627  0.8820  0.3390 -2.1180
  730Sol     MW 6074   1.756   3.393   8.609 -0.6199 -0.6215 -0.0395
  731Sol     OW 6075   0.959   2.090   9.564  0.5427 -0.1278  0.2122
  731Sol     HW 6076   0.905   2.032   9.510 -0.2124  0.6416  0.1426
  731Sol     HW 6077   0.936   2.178   9.536  1.0412  0.2426  0.9441
  731Sol     MW 6078   0.952   2.092   9.557 -0.0917  0.5228 -0.4329
  732Sol     OW 6079   2.756   3.424   6.167  0.4106  0.3531 -0.3609
  732Sol     HW 6080   2.731   3.513   6.188  1.4943  0.3390  1.0522
  732Sol     HW 6081   2.822   3.433   6.099  1.9623  0.7403  1.1689
  732Sol     MW 6082   2.760   3.432   6.163 -0.2327 -0.5625 -0.3593
  733Sol     OW 6083   0.012   0.790   3.398  0.1046  0.5298 -0.1252
  733Sol     HW 6084  -0.014   0.788   3.491 -0.1918  2.8145 -0.1384
  733Sol     HW 6085  -0.001   0.700   3.368  1.6292 -0.5990  2.4402
  733Sol     MW 6086   0.008   0.782   3.404 -0.0844  0.0003  0.2768
  734Sol     OW 6087   1.934   1.429   3.425  0.3396 -0.5915 -0.0770
  734Sol     HW 6088   1.982   1.393   3.351  1.2101 -1.7322  1.0107
  734Sol     HW 6089   1.909   1.352   3.477 -0.3097  0.1838  0.7827
  734Sol     MW 6090   1.936   1.419   3.423 -0.0366 -0.3304  0.3736
  735Sol     OW 6091   3.257   2.567   4.939 -0.2169  0.1266 -0.8686
  735Sol     HW 6092   3.257   2.531   4.851  1.7937 -1.7882 -0.1185
  735Sol     HW 6093   3.266   2.491   4.996 -0.2245  1.4604  0.9506
  735Sol     MW 6094   3.258   2.557   4.936  0.4568 -0.4683 -0.3191
  736Sol     OW 6095   1.653   0.654   3.499 -0.1240  0.2162 -0.1040
  736Sol     HW 6096   1.629   0.645   3.407 -1.0561 -0.7312  0.2237
  736Sol     HW 6097   1.577   0.621   3.547  1.2909 -1.5845  0.9805
  736Sol     MW 6098   1.644   0.650   3.495 -0.5100 -0.2686 -0.1331
  737Sol     OW 6099   1.029   3.218   3.172 -0.0689 -0.0163  0.4522
  737Sol     HW 6100   1.059   3.151   3.111  2.9721  0.5599  1.2569
  737Sol     HW 6101   0.939   3.193   3.192 -1.0061 -0.4583 -3.8689
  737Sol     MW 6102   1.023   3.210   3.168  0.0484 -0.5911 -0.4241
  738Sol     OW 6103   1.744   0.258   5.054  0.1364 -0.8499  0.0007
  738Sol     HW 6104   1.692   0.186   5.088 -1.6049  0.0296 -0.7097
  738Sol     HW 6105   1.751   0.241   4.960 -0.0288 -0.2599 -0.1239
  738Sol     MW 6106   1.740   0.250   5.049 -0.3844 -0.0245 -0.2531
  739Sol     OW 6107   2.314   0.135   2.536 -0.1995 -1.0019 -0.1714
  739Sol     HW 6108   2.261   0.151   2.615  1.0755  0.2609  0.4626
  739Sol     HW 6109   2.366   0.058   2.557  2.5339  1.2384  1.5355
  739Sol     MW 6110   2.314   0.130   2.545 -0.3484  0.6346  0.3253
  740Sol     OW 6111   2.936   0.364   2.566  0.4759  0.0537 -0.4357
  740Sol     HW 6112   2.859   0.373   2.511 -0.0915 -1.7968  0.0256
  740Sol     HW 6113   3.008   0.346   2.505  0.2813  0.4082 -0.7631
  740Sol     MW 6114   2.936   0.363   2.556 -0.9097  0.5083  0.5352
  741Sol     OW 6115   2.628   0.754   8.516  0.3193 -0.4314  0.2550
  741Sol     HW 6116   2.667   0.733   8.432  0.9513  1.2898  0.0994
  741Sol     HW 6117   2.534   0.762   8.498  0.5521  0.7697 -0.4688
  741Sol     MW 6118   2.623   0.753   8.507  0.1061  0.4673 -0.7543
  742Sol     OW 6119   2.934   2.642   2.195  0.2792  0.0336 -0.1525
  742Sol     HW 6120   2.960   2.575   2.258 -2.7554 -0.9727  0.1175
  742Sol     HW 6121   2.969   2.724   2.231  3.0697 -1.2208  0.0836
  742Sol     MW 6122   2.939   2.643   2.204 -0.1205  0.6701  0.2180
  743Sol     OW 6123   2.676   1.550   4.409  0.2144 -0.1773  0.0975
  743Sol     HW 6124   2.658   1.548   4.503  2.0809  1.0914  0.5262
  743Sol     HW 6125   2.619   1.483   4.372 -0.7877 -0.4772  2.0886
  743Sol     MW 6126   2.670   1.544   4.414 -0.0209  0.0476  0.1052
  744Sol     OW 6127   1.380   1.670   7.597 -0.3836 -0.1731 -0.3211
  744Sol     HW 6128   1.287   1.652   7.609 -0.0413 -1.9854 -0.2031
  744Sol     HW 6129   1.424   1.609   7.656  0.8320  1.9400  0.9962
  744Sol     MW 6130   1.376   1.663   7.603  0.1935 -0.1539  0.6654
  745Sol     OW 6131   1.750   0.860   4.981  0.1284 -0.6023  0.2014
  745Sol     HW 6132   1.783   0.942   5.017 -0.5962 -1.0408  1.9315
  745Sol     HW 6133   1.814   0.794   5.009  0.8366 -0.6061 -1.3866
  745Sol     MW 6134   1.759   0.862   4.987  0.1201 -0.0606 -0.1174
  746Sol     OW 6135   0.913   2.054   4.109  0.3664 -0.1570  0.6843
  746Sol     HW 6136   0.983   2.091   4.056  0.0068 -0.6387 -0.1244
  746Sol     HW 6137   0.926   2.092   4.196  2.8904 -1.8958  1.0901
  746Sol     MW 6138   0.920   2.061   4.112  0.5485  0.2484  0.2631
  747Sol     OW 6139   2.962   2.150   4.604 -0.0742 -0.0767 -0.9011
  747Sol     HW 6140   2.895   2.212   4.576 -0.0313 -1.3813 -4.0533
  747Sol     HW 6141   2.959   2.080   4.539  2.2324 -1.6930  0.6577
  747Sol     MW 6142   2.956   2.150   4.596  0.4209 -0.4170  0.3447
  748Sol     OW 6143   2.486   2.807   7.246 -0.2953  0.6631  0.1166
  748Sol     HW 6144   2.541   2.806   7.167  0.8221  1.8022  0.8674
  748Sol     HW 6145   2.420   2.739   7.230  1.9351 -1.4400 -0.3486
  748Sol     MW 6146   2.485   2.801   7.237  0.2432 -0.5266 -0.2902
  749Sol     OW 6147   3.322   0.251   8.674  0.3700 -0.5990 -0.2544
  749Sol     HW 6148   3.336   0.246   8.579  0.2715 -1.5295 -0.2212
  749Sol     HW 6149   3.284   0.338   8.688 -1.6792 -1.2826 -1.3310
  749Sol     MW 6150   3.320   0.258   8.667  0.3209  0.4596  0.6032
  750Sol     OW 6151   0.579   0.855   1.917 -0.5615 -0.2905 -0.1520
  750Sol     HW 6152   0.673   0.859   1.900 -0.6122  0.1785 -0.3437
  750Sol     HW 6153   0.561   0.931   1.971 -1.0744  0.4807 -1.3726
  750Sol     MW 6154   0.586   0.862   1.920 -0.0269  0.5834  0.0709
  751Sol     OW 6155   0.074   0.924   2.510 -0.0159  0.4888 -0.0130
  751Sol     HW 6156   0.056   0.901   2.419  1.0337 -1.4896  0.2386
  751Sol     HW 6157  -0.003   0.895   2.559  0.2301 -0.2033 -0.0314
  751Sol     MW 6158   0.066   0.919   2.506 -0.3878  0.4163  0.6209
  752Sol     OW 6159   2.191   0.978   1.900  0.2384 -0.1894  0.3738
  752Sol     HW 6160   2.176   0.950   1.809  0.8852 -1.1343  0.5516
  752Sol     HW 6161   2.103   0.980   1.939  0.1209 -1.4895  0.2059
  752Sol     MW 6162   2.182   0.976   1.895 -0.5316 -0.1259 -0.0413
  753Sol     OW 6163   1.163   3.158   2.887 -0.2875  0.8420  0.0164
  753Sol     HW 6164   1.246   3.138   2.929 -0.1559 -0.2718 -0.7667
  753Sol     HW 6165   1.127   3.073   2.863 -0.4974  1.4393 -1.8815
  753Sol     MW 6166   1.167   3.149   2.889 -0.0686 -0.0850  0.0121
  754Sol     OW 6167   1.347   3.133   6.688  0.6773 -0.1847 -0.4565
  754Sol     HW 6168   1.338   3.172   6.602  0.0730 -1.7481 -1.1277
  754Sol     HW 6169   1.354   3.039   6.672 -2.5631 -0.8203  1.3127
  754Sol     MW 6170   1.347   3.128   6.679 -0.0380 -0.0009 -0.4397
  755Sol     OW 6171   2.246   1.358   6.056 -0.0186  0.2191 -0.2648
  755Sol     HW 6172   2.290   1.353   6.140 -1.4007 -0.3316  0.4484
  755Sol     HW 6173   2.316   1.350   5.991  0.8571 -1.3516  0.8388
  755Sol     MW 6174   2.256   1.357   6.058  0.5239  0.5433  0.0651
  756Sol     OW 6175   0.132   0.665   7.594  0.3540 -0.5206  0.0886
  756Sol     HW 6176   0.062   0.681   7.530  0.5003  0.1345  0.0916
  756Sol     HW 6177   0.213   0.669   7.543  0.5406  1.1016  0.5102
  756Sol     MW 6178   0.133   0.666   7.583  0.6556  0.2106  0.2954
  757Sol     OW 6179   0.215   2.323   7.347  0.0954  0.9385  0.2658
  757Sol     HW 6180   0.282   2.263   7.378  0.6978  0.1920 -2.3351
  757Sol     HW 6181   0.234   2.405   7.391  2.3624  0.5704  0.0374
  757Sol     MW 6182   0.222   2.325   7.354  0.2047  0.0484 -0.6553
  758Sol     OW 6183   2.002   0.314   4.806 -0.0878  0.7885  0.1003
  758Sol     HW 6184   2.053   0.269   4.739  0.6708 -0.3018  1.3798
  758Sol     HW 6185   1.911   0.295   4.784  0.1231  0.9980 -0.9884
  758Sol     MW 6186   1.999   0.309   4.798  0.0527  0.2121  0.2523
  759Sol     OW 6187   2.768   2.914   3.745 -0.1688  0.1318 -0.0218
  759Sol     HW 6188   2.704   2.900   3.814 -1.0237 -0.0860 -0.8517
  759Sol     HW 6189   2.779   2.828   3.704 -0.5257  0.4903 -0.8899
  759Sol     MW 6190   2.763   2.905   3.748  0.6353 -0.4013  0.1848
  760Sol     OW 6191   1.730   0.158   3.118 -0.1406  0.3617  0.3063
  760Sol     HW 6192   1.724   0.159   3.213  0.1167  0.0793  0.3264
  760Sol     HW 6193   1.723   0.065   3.094 -0.1592  0.4268  0.0524
  760Sol     MW 6194   1.729   0.150   3.124  0.3160  0.0734 -0.3890
  761Sol     OW 6195   2.945   1.374   5.469  0.1588 -0.4748  0.0934
  761Sol     HW 6196   2.998   1.431   5.525 -0.3413  1.1322 -1.0264
  761Sol     HW 6197   2.922   1.300   5.525  0.5451  0.5955  1.7030
  761Sol     MW 6198   2.948   1.372   5.479 -0.5630  0.0122 -0.4733
  762Sol     OW 6199   0.158   0.440   2.873 -0.0435 -0.0236  0.6227
  762Sol     HW 6200   0.246   0.405   2.869 -0.4838 -1.1603  0.8157
  762Sol     HW 6201   0.147   0.467   2.964  0.9050  2.2487  0.1004
  762Sol     MW 6202   0.165   0.440   2.880 -0.0615  0.2284  0.1627
  763Sol     OW 6203   0.350   3.155   8.002  0.1882  0.2674 -0.3759
  763Sol     HW 6204   0.352   3.082   7.940  1.2288  0.5775 -0.7250
  763Sol     HW 6205   0.326   3.231   7.949  2.6533  0.8314 -0.7447
  763Sol     MW 6206   0.348   3.156   7.992  0.2743  0.5004 -0.4471
  764Sol     OW 6207   2.776   1.475   4.902  0.2970  0.4273 -0.1158
  764Sol     HW 6208   2.814   1.560   4.923  1.1420 -0.5095  2.3292
  764Sol     HW 6209   2.845   1.429   4.854  2.1466 -1.0342  3.7551
  764Sol     MW 6210   2.785   1.478   4.899 -0.2132 -0.4429  0.3651
  765Sol     OW 6211   1.518   3.021   3.622 -0.2088  0.1958  0.2615
  765Sol     HW 6212   1.570   3.032   3.543  1.3123  0.8471  1.3335
  765Sol     HW 6213   1.524   2.928   3.642 -0.9629 -0.0549 -0.6156
  765Sol     MW 6214   1.523   3.014   3.617 -0.3372 -0.1368  0.3396
  766Sol     OW 6215   1.243   1.626   9.211  0.1820  0.1760 -0.1264
  766Sol     HW 6216   1.217   1.699   9.154  0.2544  0.8610  0.6915
  766Sol     HW 6217   1.327   1.654   9.248  0.7177 -0.7900 -0.6014
  766Sol     MW 6218   1.248   1.635   9.209 -0.2217  0.3738  0.5433
  767Sol     OW 6219   0.123   2.106   5.039 -0.1545  0.2671 -0.3684
  767Sol     HW 6220   0.147   2.099   5.131  1.1696 -3.8540 -0.9469
  767Sol     HW 6221   0.068   2.030   5.022  0.6021  0.2848 -3.2492
  767Sol     MW 6222   0.120   2.099   5.046 -0.3474 -0.6207 -0.1251
  768Sol     OW 6223   3.215   0.559   2.370  0.1306 -0.6428 -0.1939
  768Sol     HW 6224   3.177   0.579   2.284 -1.1727  0.4762  0.6328
  768Sol     HW 6225   3.176   0.474   2.393  1.3596 -1.5069 -1.1907
  768Sol     MW 6226   3.208   0.553   2.364  0.3563 -0.1732  0.5937
  769Sol     OW 6227   2.952   1.524   4.446  0.2939 -0.1321  0.0982
  769Sol     HW 6228   2.959   1.487   4.358 -0.1262 -1.5014  0.6272
  769Sol     HW 6229   2.858   1.537   4.459  0.5352  2.7140 -0.7087
  769Sol     MW 6230   2.944   1.521   4.439  0.1211  0.3548 -0.2039
  770Sol     OW 6231   2.737   1.217   5.355 -0.7182  0.2502  0.1159
  770Sol     HW 6232   2.678   1.227   5.280  0.4166  0.3096 -0.7732
  770Sol     HW 6233   2.790   1.297   5.355  0.5229 -0.5592 -0.1208
  770Sol     MW 6234   2.736   1.225   5.348  0.6136 -0.0032  0.4910
  771Sol     OW 6235   0.199   2.935   2.280 -0.6511 -0.6798 -0.8802
  771Sol     HW 6236   0.288   2.954   2.251 -0.8333  0.6443 -0.6177
  771Sol     HW 6237   0.204   2.848   2.320  0.6189 -0.3897 -0.4076
  771Sol     MW 6238   0.207   2.929   2.281  0.4536  0.1078 -0.1026
  772Sol     OW 6239   0.324   2.586   7.441 -0.1704 -0.2601 -0.1158
  772Sol     HW 6240   0.277   2.668   7.424  2.0223  1.2519  0.8463
  772Sol     HW 6241   0.385   2.578   7.368  1.3232  0.2758  1.0513
  772Sol     MW 6242   0.325   2.593   7.433 -0.8000 -0.0667  0.1409
  773Sol     OW 6243   0.403   3.123   2.666 -0.0039  0.4020 -0.0311
  773Sol     HW 6244   0.333   3.123   2.600 -0.3524 -0.8080  0.3218
  773Sol     HW 6245   0.455   3.201   2.645 -0.9522  0.8461 -0.8328
  773Sol     MW 6246   0.401   3.130   2.658  0.3114 -0.0101 -0.3453
  774Sol     OW 6247   1.771   2.716   4.208 -0.0183 -0.3434 -0.1502
  774Sol     HW 6248   1.812   2.788   4.255 -1.6191  0.2975  0.2881
  774Sol     HW 6249   1.805   2.637   4.250 -0.8122  0.2130  1.5661
  774Sol     MW 6250   1.777   2.715   4.216  0.9692  0.5326 -0.0956
  775Sol     OW 6251   1.716   1.446   9.300  0.4803  0.5848  0.6260
  775Sol     HW 6252   1.771   1.521   9.325 -0.7577  1.7778 -0.1445
  775Sol     HW 6253   1.702   1.399   9.382  0.7903  1.5365  1.2419
  775Sol     MW 6254   1.720   1.449   9.310  0.5042  0.5741  0.3536
  776Sol     OW 6255   0.359   1.625   6.945 -0.0908  0.4905 -0.1301
  776Sol     HW 6256   0.455   1.620   6.945 -0.1067 -0.0644 -0.9079
  776Sol     HW 6257   0.335   1.616   6.852 -0.8765  0.9943  0.0243
  776Sol     MW 6258   0.365   1.623   6.936  0.4304  0.2485 -0.5615
  777Sol     OW 6259   1.826   1.867   3.199  0.0750 -0.7363  0.1615
  777Sol     HW 6260   1.783   1.812   3.263 -0.2380 -0.1521  0.4584
  777Sol     HW 6261   1.860   1.806   3.134 -1.7100 -1.1784 -0.3920
  777Sol     MW 6262   1.825   1.857   3.199  0.5489  0.4305 -0.4839
  778Sol     OW 6263   0.992   0.974   8.954 -0.2203 -0.4986  0.1327
  778Sol     HW 6264   1.066   0.919   8.982  0.7774 -0.1757 -1.8445
  778Sol     HW 6265   0.937   0.915   8.902  0.4625  0.1590 -1.3520
  778Sol     MW 6266   0.994   0.964   8.952 -0.4278 -0.3690 -0.4995
  779Sol     OW 6267   1.921   1.513   1.970  0.5381 -0.2158 -0.4463
  779Sol     HW 6268   1.990   1.466   1.924  0.8453 -0.1126 -0.0941
  779Sol     HW 6269   1.922   1.476   2.059 -0.0045 -0.3681 -0.5001
  779Sol     MW 6270   1.927   1.505   1.974  0.2525 -0.0976 -0.3353
  780Sol     OW 6271   0.908   0.476   2.757 -0.1356  0.1375  0.1109
  780Sol     HW 6272   0.968   0.515   2.694 -0.2345 -1.1544 -0.7982
  780Sol     HW 6273   0.964   0.422   2.813  0.0244  1.6721  1.4639
  780Sol     MW 6274   0.918   0.474   2.757  0.1910  0.2602  0.0959
  781Sol     OW 6275   0.892   2.248   8.532  0.0044 -0.1706  0.0497
  781Sol     HW 6276   0.816   2.231   8.477  1.5536 -0.7837 -1.9968
  781Sol     HW 6277   0.891   2.343   8.546 -1.9888 -0.3621  1.3877
  781Sol     MW 6278   0.885   2.255   8.528 -0.0946  0.7697  0.3194
  782Sol     OW 6279   2.602   0.380   4.243 -0.2228 -0.1866  0.1992
  782Sol     HW 6280   2.604   0.291   4.206  1.0848  0.9117 -2.4762
  782Sol     HW 6281   2.513   0.411   4.226 -0.5626 -0.8083  0.7870
  782Sol     MW 6282   2.594   0.375   4.238 -0.2078 -0.7063 -0.1909
  783Sol     OW 6283   0.213   1.008   5.420 -0.5998  0.4230  0.6039
  783Sol     HW 6284   0.217   1.084   5.361  0.6822 -0.5790 -0.6305
  783Sol     HW 6285   0.146   0.951   5.381  0.3119 -0.2813  0.0398
  783Sol     MW 6286   0.207   1.010   5.411  0.4271 -0.4359 -0.0036
  784Sol     OW 6287   0.108   2.608   3.383 -0.7157 -0.2687  0.0468
  784Sol     HW 6288   0.150   2.688   3.352 -2.1756 -0.2831 -2.0135
  784Sol     HW 6289   0.015   2.621   3.365 -0.7762 -3.2202 -2.1745
  784Sol     MW 6290   0.104   2.616   3.379 -0.0184 -0.4115  0.0782
  785Sol     OW 6291   2.439   3.008   4.479 -0.1039  0.6069 -0.0193
  785Sol     HW 6292   2.438   2.924   4.526 -0.3916  0.8083  0.3351
  785Sol     HW 6293   2.352   3.013   4.438 -1.1622  2.0577  2.3183
  785Sol     MW 6294   2.431   3.001   4.479 -0.3718  0.4174 -0.4240
  786Sol     OW 6295   2.880   3.330   2.142  0.2063  0.2469  0.4662
  786Sol     HW 6296   2.829   3.275   2.082  1.4353 -0.6906  0.2547
  786Sol     HW 6297   2.863   3.293   2.228  0.0529  0.3042  0.4602
  786Sol     MW 6298   2.874   3.321   2.144  0.1342  0.3623  0.1763
  787Sol     OW 6299   0.156   0.634   2.384 -0.4149 -0.0432  0.0897
  787Sol     HW 6300   0.147   0.730   2.383  2.0676  0.2535 -1.8744
  787Sol     HW 6301   0.067   0.601   2.370 -1.1444  2.0019 -0.2859
  787Sol     MW 6302   0.147   0.640   2.382  0.2206 -0.0964 -1.0151
  788Sol     OW 6303   1.145   3.447   8.616  0.1358 -0.5835 -0.4121
  788Sol     HW 6304   1.091   3.485   8.547  0.3494  1.5298  0.5425
  788Sol     HW 6305   1.086   3.392   8.666 -0.2715 -1.2389 -1.5850
  788Sol     MW 6306   1.135   3.445   8.614 -0.4190  0.1281  0.2854
  789Sol     OW 6307   2.484   0.339   8.158 -0.1929  0.6667 -0.4238
  789Sol     HW 6308   2.432   0.308   8.231 -0.9188 -0.0999 -1.2572
  789Sol     HW 6309   2.455   0.430   8.145 -0.3072  0.6931  0.0161
  789Sol     MW 6310   2.477   0.344   8.163 -1.0856 -0.3983  0.5698
  790Sol     OW 6311   2.782   2.492   4.495 -0.6649 -0.1860 -0.0184
  790Sol     HW 6312   2.856   2.445   4.456  0.9678 -0.1069  2.8293
  790Sol     HW 6313   2.822   2.570   4.534 -2.4197  0.3587  0.7146
  790Sol     MW 6314   2.792   2.495   4.495  0.0578 -0.2350  0.3485
  791Sol     OW 6315   1.588   2.019   3.137  0.1341  0.3192 -0.5358
  791Sol     HW 6316   1.665   1.966   3.158  0.1922  0.3524 -0.6651
  791Sol     HW 6317   1.559   1.987   3.052 -0.8036 -0.6193  0.1342
  791Sol     MW 6318   1.592   2.012   3.131  0.3522  0.3540 -0.0927
  792Sol     OW 6319   2.812   0.586   5.403  0.1593  0.1457 -0.2947
  792Sol     HW 6320   2.727   0.560   5.439 -0.5736 -1.1907 -2.8817
  792Sol     HW 6321   2.876   0.535   5.452 -0.5634  0.7130  1.2568
  792Sol     MW 6322   2.810   0.579   5.411  0.3889 -0.2229  0.5137
  793Sol     OW 6323   1.008   2.101   8.800 -0.3982 -0.1062  0.2461
  793Sol     HW 6324   1.074   2.031   8.794  0.2453  0.5097  0.0361
  793Sol     HW 6325   0.994   2.127   8.709 -1.3132 -0.5749  0.2476
  793Sol     MW 6326   1.013   2.097   8.791 -0.8706 -0.0625  0.0590
  794Sol     OW 6327   1.093   0.643   8.690 -0.4173 -0.6060 -0.1910
  794Sol     HW 6328   1.027   0.695   8.736  0.0040 -0.4025  0.1756
  794Sol     HW 6329   1.080   0.664   8.597 -0.7026 -0.3801 -0.0982
  794Sol     MW 6330   1.086   0.649   8.685  0.2414  0.1254 -0.4952
  795Sol     OW 6331   0.020   1.565   8.352 -0.4655  0.0257  0.4216
  795Sol     HW 6332   0.063   1.505   8.413 -0.5512 -1.4568 -0.9588
  795Sol     HW 6333   0.022   1.650   8.397 -0.5585 -1.0341  2.4993
  795Sol     MW 6334   0.024   1.567   8.362 -0.0507 -0.1388  0.2445
  796Sol     OW 6335   1.436   0.194   3.279 -0.7172  0.5867  1.0205
  796Sol     HW 6336   1.526   0.222   3.259 -0.4622 -0.4121  0.7235
  796Sol     HW 6337   1.439   0.171   3.372 -0.5827  0.2525  0.9349
  796Sol     MW 6338   1.444   0.194   3.286 -0.2232  0.5861 -0.5154
  797Sol     OW 6339   2.195   2.404   6.299  0.1197 -0.2682 -0.3356
  797Sol     HW 6340   2.244   2.388   6.219  0.0266 -1.0278 -0.2448
  797Sol     HW 6341   2.173   2.317   6.332 -0.6143  0.0508  0.0424
  797Sol     MW 6342   2.197   2.395   6.295 -0.2417  0.0411  0.4724
  798Sol     OW 6343   0.850   2.765   3.752  0.1341  0.1072  0.2811
  798Sol     HW 6344   0.907   2.811   3.690  1.7913 -1.6283  0.4551
  798Sol     HW 6345   0.762   2.792   3.728  0.9395  1.7237 -0.9610
  798Sol     MW 6346   0.848   2.771   3.744 -0.3071  0.0930 -0.0115
  799Sol     OW 6347   0.267   0.033   5.000 -0.8164  0.8980  0.1662
  799Sol     HW 6348   0.298   0.074   5.081 -1.1248 -0.5389  1.0305
  799Sol     HW 6349   0.297  -0.057   5.007  0.3861  1.1096 -1.9953
  799Sol     MW 6350   0.273   0.029   5.008 -0.1729 -0.2663 -0.1124
  800Sol     OW 6351   3.210   2.285   4.546 -0.1238 -0.2128  0.2753
  800Sol     HW 6352   3.133   2.238   4.577 -0.0642 -1.0364 -0.7825
  800Sol     HW 6353   3.284   2.233   4.578  0.0627  1.6466  2.9793
  800Sol     MW 6354   3.210   2.276   4.551  0.4790  0.0245  0.1935
  801Sol     OW 6355   2.902   1.385   2.014 -0.6212  0.6833  0.4351
  801Sol     HW 6356   2.878   1.318   1.950  2.2414  0.1881 -0.1496
  801Sol     HW 6357   2.995   1.371   2.031 -0.6444  2.7000  2.4836
  801Sol     MW 6358   2.908   1.378   2.010 -0.2603  0.2534  0.1334
  802Sol     OW 6359   3.288   1.047   4.719 -0.4388  0.3096 -0.1823
  802Sol     HW 6360   3.233   1.064   4.642  0.6712  2.4901 -0.5315
  802Sol     HW 6361   3.367   1.100   4.705 -0.3305  0.9816  2.5588
  802Sol     MW 6362   3.290   1.054   4.711 -0.0361  0.2081 -0.0027
  803Sol     OW 6363   1.134   0.508   7.685  0.1659 -0.2188  0.2579
  803Sol     HW 6364   1.197   0.556   7.630 -0.3266  0.7772  0.5394
  803Sol     HW 6365   1.107   0.572   7.752 -0.6468 -0.8359  0.5330
  803Sol     MW 6366   1.137   0.518   7.686  0.2773 -0.4736 -0.4410
  804Sol     OW 6367   1.107   1.267   3.193 -0.4055 -0.0023  0.3873
  804Sol     HW 6368   1.062   1.295   3.114  1.5464  0.4039 -0.5933
  804Sol     HW 6369   1.191   1.234   3.163  0.3985  0.2441  2.3004
  804Sol     MW 6370   1.110   1.266   3.184 -0.3835 -0.0267  0.8661
  805Sol     OW 6371   0.031   3.005   3.896 -0.6256  0.8900 -0.0392
  805Sol     HW 6372   0.060   3.095   3.878 -0.2282  0.6821 -0.4471
  805Sol     HW 6373   0.042   2.959   3.812 -0.8881  0.4781  0.1524
  805Sol     MW 6374   0.035   3.009   3.887 -0.3854  0.3042 -0.4289
  806Sol     OW 6375   1.615   0.127   1.913 -0.1368 -0.2447 -0.3964
  806Sol     HW 6376   1.662   0.193   1.963  1.4658 -1.8165  0.2448
  806Sol     HW 6377   1.637   0.044   1.956 -2.0895 -1.1927 -1.1783
  806Sol     MW 6378   1.621   0.125   1.921 -0.3407  0.2952 -0.1454
  807Sol     OW 6379   0.873   2.211   8.165  0.4734  0.0847 -0.1265
  807Sol     HW 6380   0.870   2.118   8.185 -0.4539  0.5080  1.8690
  807Sol     HW 6381   0.816   2.221   8.089 -0.3458 -0.8259  0.3498
  807Sol     MW 6382   0.867   2.204   8.160  0.5078  0.0619 -0.0486
  808Sol     OW 6383   2.810   2.695   2.628 -0.3010  0.7992 -0.1394
  808Sol     HW 6384   2.822   2.615   2.678  0.5605  1.0584  0.0723
  808Sol     HW 6385   2.896   2.715   2.593 -0.8012  0.8956 -1.3168
  808Sol     MW 6386   2.819   2.690   2.630  0.4923  0.0207  0.2767
  809Sol     OW 6387   2.993   0.209   7.152  0.2716 -0.3675 -0.4370
  809Sol     HW 6388   2.942   0.208   7.071  0.8019  3.0018 -0.8821
  809Sol     HW 6389   2.927   0.219   7.221 -0.0244 -1.1063 -0.6100
  809Sol     MW 6390   2.982   0.210   7.151 -0.8912  0.1902 -0.4789
  810Sol     OW 6391   2.212   2.694   2.733 -0.2033 -0.4757  0.2221
  810Sol     HW 6392   2.141   2.640   2.769  0.9456 -0.9220  1.8533
  810Sol     HW 6393   2.261   2.724   2.809  1.2044  0.0665 -0.8743
  810Sol     MW 6394   2.210   2.692   2.743 -0.0857 -0.8203 -0.1124
  811Sol     OW 6395   2.419   1.856   2.353  0.4144 -0.4578  0.4193
  811Sol     HW 6396   2.370   1.796   2.296  0.0237 -1.0764  1.3893
  811Sol     HW 6397   2.510   1.833   2.338  0.2939 -0.9250  0.3661
  811Sol     MW 6398   2.422   1.848   2.347 -0.0560  0.1319 -0.2951
  812Sol     OW 6399   0.280   1.658   8.600 -0.4518 -0.2620  0.1959
  812Sol     HW 6400   0.272   1.700   8.685  0.6563  1.2950 -0.4549
  812Sol     HW 6401   0.321   1.723   8.544 -1.8724 -0.9689 -1.7570
  812Sol     MW 6402   0.283   1.667   8.603 -0.7318 -0.0373 -0.0483
  813Sol     OW 6403   3.262   1.261   9.933 -0.2062  0.1065  0.4307
  813Sol     HW 6404   3.243   1.336   9.877  0.8383 -0.2535 -0.4266
  813Sol     HW 6405   3.200   1.193   9.904  0.6861 -0.2572 -0.6758
  813Sol     MW 6406   3.255   1.262   9.925 -0.3652  0.1565 -0.3319
  814Sol     OW 6407   1.204   1.927   2.404 -0.5877  0.0476 -0.5191
  814Sol     HW 6408   1.230   2.010   2.363 -1.2149  0.0642 -0.8934
  814Sol     HW 6409   1.275   1.866   2.383 -0.0075  0.5488 -0.0387
  814Sol     MW 6410   1.213   1.929   2.398  0.2485  0.5116 -0.1982
  815Sol     OW 6411   0.494   1.839   2.185  0.1476 -0.1328 -0.2772
  815Sol     HW 6412   0.412   1.874   2.151 -0.3751 -1.0510  0.0169
  815Sol     HW 6413   0.496   1.867   2.277  0.6711  0.7800 -0.5643
  815Sol     MW 6414   0.487   1.845   2.190  0.6273 -0.2771  0.2241
  816Sol     OW 6415   0.799   3.352   6.052 -0.1451  0.1719 -0.7452
  816Sol     HW 6416   0.725   3.378   5.997 -2.0871 -2.5676  0.4539
  816Sol     HW 6417   0.864   3.317   5.991 -1.3607 -0.7893 -1.5027
  816Sol     MW 6418   0.798   3.351   6.042 -0.2415 -0.1141  0.6455
  817Sol     OW 6419   2.444   2.026   2.996 -0.2132  0.2976 -0.0527
  817Sol     HW 6420   2.400   2.077   2.928  0.2962 -0.7161 -1.1610
  817Sol     HW 6421   2.537   2.046   2.984 -0.0611 -0.4342 -0.1204
  817Sol     MW 6422   2.449   2.032   2.989 -0.2287  0.4529  0.6758
  818Sol     OW 6423   2.264   2.088   4.889 -0.7881 -0.1959 -0.0678
  818Sol     HW 6424   2.304   2.164   4.848  1.4029 -0.4398  1.5215
  818Sol     HW 6425   2.180   2.120   4.923 -1.5536  0.5663 -2.5611
  818Sol     MW 6426   2.260   2.097   4.889 -0.3271 -0.1877 -0.5231
  819Sol     OW 6427   1.392   2.003   6.292  0.3334  0.0499 -0.0831
  819Sol     HW 6428   1.353   1.964   6.370 -0.9652 -0.5020 -0.9988
  819Sol     HW 6429   1.365   1.946   6.220  0.0415  1.5469 -1.1784
  819Sol     MW 6430   1.386   1.994   6.292 -0.1736 -0.5355 -0.3136
  820Sol     OW 6431   1.909   1.334   8.411  0.0999  0.0644 -0.1320
  820Sol     HW 6432   1.864   1.377   8.484 -1.4965 -2.0089  0.1580
  820Sol     HW 6433   1.838   1.294   8.361  1.5570 -2.3527 -0.2906
  820Sol     MW 6434   1.899   1.335   8.413  0.0827  0.2446 -0.1361
  821Sol     OW 6435   3.131   2.003   6.095  0.0980 -0.5179  0.0009
  821Sol     HW 6436   3.197   1.987   6.161 -0.4880  0.8789  0.9639
  821Sol     HW 6437   3.052   1.959   6.128 -0.4273  0.8882  0.6945
  821Sol     MW 6438   3.130   1.998   6.104 -0.5767 -0.5827 -0.4457
  822Sol     OW 6439   2.385   2.391   9.100  0.3134 -0.1231  0.3611
  822Sol     HW 6440   2.297   2.362   9.123  0.6648 -1.0871  0.5127
  822Sol     HW 6441   2.396   2.362   9.009 -0.4596  2.2243 -0.5184
  822Sol     MW 6442   2.378   2.386   9.094  0.6501 -0.3919 -0.3233
  823Sol     OW 6443   0.991   1.750   8.100  0.1862 -0.0263  0.2643
  823Sol     HW 6444   1.004   1.792   8.015 -0.1935 -0.9302 -0.2476
  823Sol     HW 6445   1.071   1.701   8.115 -0.3866 -1.1445 -0.3131
  823Sol     MW 6446   0.999   1.750   8.094 -0.2086  0.0104 -0.1282
  824Sol     OW 6447   0.281   0.507   2.584  0.1928 -0.1447  0.0207
  824Sol     HW 6448   0.376   0.509   2.582  0.1882  0.2105  0.0849
  824Sol     HW 6449   0.255   0.562   2.510  0.0391 -0.9059 -0.4979
  824Sol     MW 6450   0.287   0.512   2.577  0.0509 -0.1488 -0.0593
  825Sol     OW 6451   2.316   0.643   3.237  0.3908 -0.2025  0.0654
  825Sol     HW 6452   2.411   0.657   3.237  0.3044  0.3557  0.7018
  825Sol     HW 6453   2.278   0.731   3.246 -0.1808 -0.4858  0.4697
  825Sol     MW 6454   2.321   0.652   3.237 -0.8601  0.1596 -0.6270
  826Sol     OW 6455   3.222   2.147   7.264 -0.0722 -0.2436 -0.1923
  826Sol     HW 6456   3.295   2.093   7.293  0.3622  0.9877  1.0813
  826Sol     HW 6457   3.262   2.229   7.236 -0.7423 -0.4587 -1.8675
  826Sol     MW 6458   3.232   2.150   7.264  0.1604  0.3386 -0.4120
  827Sol     OW 6459   1.041   2.905   6.502  0.4175 -0.2073 -0.1580
  827Sol     HW 6460   0.991   2.843   6.556  1.0981 -0.4072  0.2645
  827Sol     HW 6461   1.120   2.856   6.478  0.2707 -0.0028 -1.0698
  827Sol     MW 6462   1.044   2.895   6.505  0.4044  0.0447  0.3017
  828Sol     OW 6463   0.670   0.985   3.367  0.1597 -0.3727 -0.6440
  828Sol     HW 6464   0.716   1.006   3.286 -1.7031  1.8261 -1.1719
  828Sol     HW 6465   0.647   0.893   3.358  0.2112 -0.2207 -2.4887
  828Sol     MW 6466   0.672   0.979   3.359 -0.9393 -0.4477 -0.1077
  829Sol     OW 6467   2.278   1.622   1.957 -0.1381  0.2886 -0.3259
  829Sol     HW 6468   2.269   1.574   1.874 -1.0586  1.2541 -0.8006
  829Sol     HW 6469   2.306   1.710   1.930 -1.1489  0.8183  0.3277
  829Sol     MW 6470   2.280   1.626   1.947 -0.8156  0.2707 -0.2826
  830Sol     OW 6471   0.210   1.629   3.484  0.7508 -0.5292 -0.1250
  830Sol     HW 6472   0.156   1.552   3.503 -1.0931  0.0352 -2.7504
  830Sol     HW 6473   0.210   1.679   3.565 -3.5626 -0.0775 -0.2735
  830Sol     MW 6474   0.205   1.626   3.493  0.0602  0.0015  0.0872
  831Sol     OW 6475   2.136   2.825   6.996  0.1463  0.0744  0.0157
  831Sol     HW 6476   2.097   2.794   6.914  2.3119 -3.7401  0.3114
  831Sol     HW 6477   2.229   2.836   6.976  0.4311  0.5918  1.5572
  831Sol     MW 6478   2.141   2.823   6.987  0.1497  0.2331  0.6604
  832Sol     OW 6479   1.549   0.775   5.218  0.3652 -0.7109 -0.1523
  832Sol     HW 6480   1.492   0.836   5.171  0.7638 -1.4703 -1.6131
  832Sol     HW 6481   1.577   0.711   5.153  1.0908 -1.6582  1.0552
  832Sol     MW 6482   1.546   0.775   5.208  0.1891 -0.1733 -0.1911
  833Sol     OW 6483   1.299   0.780   3.823 -0.5578  0.1381 -0.4560
  833Sol     HW 6484   1.384   0.810   3.791 -0.2371  0.7089  0.8828
  833Sol     HW 6485   1.290   0.690   3.790  0.3077  0.2826 -1.0736
  833Sol     MW 6486   1.305   0.774   3.817  0.8786 -0.1381 -0.3036
  834Sol     OW 6487   0.076   2.675   6.040 -0.0725  0.0107 -0.0228
  834Sol     HW 6488   0.114   2.591   6.066 -0.6952 -0.0798  0.6053
  834Sol     HW 6489   0.130   2.740   6.086  0.6057 -0.0252 -0.7547
  834Sol     MW 6490   0.085   2.673   6.047  0.5102  0.2360 -0.4142
  835Sol     OW 6491   1.653   1.145   6.264 -0.2316  0.0736  0.4057
  835Sol     HW 6492   1.695   1.232   6.267  0.8476 -0.4455  0.5348
  835Sol     HW 6493   1.559   1.164   6.267 -0.0238  1.2774 -0.2146
  835Sol     MW 6494   1.649   1.155   6.264  0.2820 -0.3850  0.1866
  836Sol     OW 6495   0.473   0.676   7.113 -0.3379 -0.0504 -0.7523
  836Sol     HW 6496   0.566   0.683   7.133 -0.1173 -0.6875 -1.5503
  836Sol     HW 6497   0.460   0.584   7.090 -1.3554 -0.1894  0.3060
  836Sol     MW 6498   0.480   0.668   7.113  0.6143 -0.3128  0.4700
  837Sol     OW 6499   1.271   1.948   2.688  0.4887  0.4268  0.0505
  837Sol     HW 6500   1.343   2.007   2.666 -1.1817  2.9609  1.1353
  837Sol     HW 6501   1.231   1.927   2.604  1.7519 -0.0533 -0.4447
  837Sol     MW 6502   1.274   1.951   2.679  0.2145 -0.0701  0.0717
  838Sol     OW 6503   2.256   3.124   7.823 -0.2206  0.5639 -0.2406
  838Sol     HW 6504   2.170   3.162   7.839 -0.6531 -1.1401  1.6975
  838Sol     HW 6505   2.313   3.168   7.887  0.0788  0.7306 -0.6219
  838Sol     MW 6506   2.254   3.132   7.831  0.1016 -0.0810  0.5404
  839Sol     OW 6507   1.547   0.935   7.593  0.2456  0.2854  0.0301
  839Sol     HW 6508   1.571   0.917   7.502 -0.8367 -1.0605  0.0097
  839Sol     HW 6509   1.628   0.919   7.642  1.1133  1.9853 -0.7858
  839Sol     MW 6510   1.557   0.932   7.589  0.2220  0.0032 -0.9092
  840Sol     OW 6511   1.303   0.666   5.311 -0.1630  0.4401 -0.3652
  840Sol     HW 6512   1.397   0.672   5.292  0.5369 -0.6938  2.4776
  840Sol     HW 6513   1.290   0.726   5.384 -1.5586  0.1700 -0.3909
  840Sol     MW 6514   1.311   0.672   5.316  0.0283 -0.6199 -0.1187
  841Sol     OW 6515   1.716   0.985   6.053  0.2842  0.0453  0.1905
  841Sol     HW 6516   1.688   1.048   6.120 -2.6979 -1.2080  0.1666
  841Sol     HW 6517   1.660   1.003   5.978  1.5932 -0.5603 -0.9431
  841Sol     MW 6518   1.709   0.992   6.053  0.1875  0.0997  0.7789
  842Sol     OW 6519   1.701   3.066   7.450  0.4523 -0.4051 -0.8184
  842Sol     HW 6520   1.779   3.032   7.405  0.5769 -0.0359 -0.8850
  842Sol     HW 6521   1.646   2.990   7.464  0.7126 -0.6280 -1.0069
  842Sol     MW 6522   1.703   3.057   7.447 -0.3587 -0.2755  0.4981
  843Sol     OW 6523   0.369   1.792   5.690 -0.0266 -0.7433 -0.3639
  843Sol     HW 6524   0.392   1.699   5.682 -0.7249 -1.0904  1.5118
  843Sol     HW 6525   0.277   1.792   5.717  0.4221  0.4602  1.2128
  843Sol     MW 6526   0.363   1.784   5.691 -0.2743 -0.4387 -0.1328
  844Sol     OW 6527   3.027   2.087   2.714  0.3927 -0.4169 -0.2697
  844Sol     HW 6528   3.040   2.120   2.625 -1.0125 -1.2647 -0.8042
  844Sol     HW 6529   2.939   2.050   2.713  0.4753 -0.6866  1.4049
  844Sol     MW 6530   3.020   2.087   2.706  0.0451 -0.1582  0.2826
  845Sol     OW 6531   1.843   2.904   2.014 -0.2290 -0.0711 -0.3807
  845Sol     HW 6532   1.938   2.897   2.008 -0.3115  0.0766 -2.3757
  845Sol     HW 6533   1.824   2.899   2.107  1.8567  1.5149  0.1722
  845Sol     MW 6534   1.849   2.903   2.022  0.9669 -0.3119  0.0653
  846Sol     OW 6535   0.739   1.084   7.059  0.1489  0.8740 -0.0665
  846Sol     HW 6536   0.799   1.027   7.012 -1.3556 -1.8307  1.1563
  846Sol     HW 6537   0.782   1.101   7.143 -0.8067 -1.2169  0.8852
  846Sol     MW 6538   0.748   1.080   7.062 -0.2344  0.5836  0.2817
  847Sol     OW 6539   2.053   1.614   6.541 -0.2300  0.2811 -0.5585
  847Sol     HW 6540   2.134   1.629   6.493 -0.1676 -0.5202 -0.7241
  847Sol     HW 6541   1.997   1.689   6.520 -0.3796 -0.2760 -2.2582
  847Sol     MW 6542   2.055   1.622   6.535  0.5786 -0.0120  0.2299
  848Sol     OW 6543   0.684   0.455   5.965 -0.4479  0.3282  0.0926
  848Sol     HW 6544   0.677   0.385   5.900 -1.0361 -0.6074  1.1337
  848Sol     HW 6545   0.631   0.527   5.929 -0.0097  0.1625 -0.8905
  848Sol     MW 6546   0.678   0.455   5.956 -0.3993  0.3451  0.0612
  849Sol     OW 6547   1.027   3.248   5.091  0.4133 -0.4310 -0.3563
  849Sol     HW 6548   1.072   3.198   5.159  0.5816  0.8358  0.4863
  849Sol     HW 6549   1.073   3.331   5.088 -0.7340  0.2088 -0.7546
  849Sol     MW 6550   1.035   3.251   5.097  0.4751 -0.6133 -0.6109
  850Sol     OW 6551   0.750   1.879   5.202  0.2503 -0.1738 -0.3653
  850Sol     HW 6552   0.705   1.936   5.264  2.9176  1.1015  0.5037
  850Sol     HW 6553   0.786   1.939   5.137  0.5451 -1.1640 -1.1311
  850Sol     MW 6554   0.749   1.890   5.202 -0.1078  0.4199  0.5159
  851Sol     OW 6555   0.822   2.233   3.037  0.2181  0.1134  0.0628
  851Sol     HW 6556   0.848   2.217   2.946  1.5636  0.3089  0.4070
  851Sol     HW 6557   0.893   2.195   3.089 -0.3347  0.3961  1.0222
  851Sol     MW 6558   0.831   2.228   3.033  0.0961 -0.3093  0.0405
  852Sol     OW 6559   1.997   2.854   8.276 -0.4372 -0.3637 -0.0838
  852Sol     HW 6560   1.946   2.779   8.308 -1.3622  0.4969  0.4912
  852Sol     HW 6561   2.018   2.904   8.355 -0.0638  0.1261 -0.4881
  852Sol     MW 6562   1.994   2.852   8.286  0.2810  0.7258  0.8094
  853Sol     OW 6563   2.728   1.287   4.609  0.1038  0.1797 -0.2051
  853Sol     HW 6564   2.730   1.229   4.532 -0.2015  2.1751 -1.7504
  853Sol     HW 6565   2.805   1.343   4.598 -0.1372  0.7040  0.7697
  853Sol     MW 6566   2.735   1.286   4.601 -0.4522 -0.1451  0.4583
  854Sol     OW 6567   1.731   0.282   9.437  0.2923 -0.3061 -0.4045
  854Sol     HW 6568   1.648   0.233   9.439  1.3030 -2.0795 -0.8257
  854Sol     HW 6569   1.709   0.367   9.475 -1.3532 -1.3534  1.1036
  854Sol     MW 6570   1.721   0.285   9.441 -0.1316 -0.6297  0.2868
  855Sol     OW 6571   1.459   0.088   2.844 -0.4314  0.2002  0.3458
  855Sol     HW 6572   1.414   0.102   2.761 -0.1578 -0.7083  0.0417
  855Sol     HW 6573   1.490   0.175   2.870 -0.3931  0.4577 -0.5655
  855Sol     MW 6574   1.457   0.097   2.839 -0.4401 -0.1095 -0.1087
  856Sol     OW 6575   1.856   2.788   5.267  0.1892  0.4527  0.4707
  856Sol     HW 6576   1.820   2.703   5.291  0.1497  0.4329  0.3441
  856Sol     HW 6577   1.813   2.850   5.325 -0.0050  0.4217  0.3609
  856Sol     MW 6578   1.849   2.786   5.274  0.4406 -0.0122 -0.3056
  857Sol     OW 6579   2.661   2.487   7.688  0.0931 -0.4317  0.2074
  857Sol     HW 6580   2.590   2.472   7.626  0.3727 -1.6905  0.1614
  857Sol     HW 6581   2.638   2.433   7.764  1.6552 -1.9403 -0.3558
  857Sol     MW 6582   2.653   2.481   7.690 -0.0593  0.0848 -0.5854
  858Sol     OW 6583   1.311   2.831   3.856 -0.0094  0.3473  0.1973
  858Sol     HW 6584   1.305   2.756   3.796  0.4521  1.7165 -1.5988
  858Sol     HW 6585   1.394   2.817   3.901 -0.9100 -1.3114  1.4030
  858Sol     MW 6586   1.318   2.823   3.855 -0.1182 -0.6467  0.5606
  859Sol     OW 6587   1.199   0.395   6.679 -0.1020 -0.0246 -0.0788
  859Sol     HW 6588   1.106   0.414   6.674 -0.0602  0.0013 -0.7653
  859Sol     HW 6589   1.217   0.340   6.603 -0.4399 -3.7120  2.3907
  859Sol     MW 6590   1.192   0.392   6.672  0.2732  0.0714  0.0322
  860Sol     OW 6591   0.361   3.166   9.209  0.0700 -0.2376  0.4703
  860Sol     HW 6592   0.331   3.227   9.142  1.2718 -0.1548 -0.0085
  860Sol     HW 6593   0.350   3.080   9.169  1.3392 -0.1607 -0.0855
  860Sol     MW 6594   0.358   3.164   9.199 -0.8842 -0.6208 -0.2791
  861Sol     OW 6595   2.648   1.817   7.450  0.1511 -0.3676 -0.7206
  861Sol     HW 6596   2.661   1.884   7.517 -0.4281  0.3142 -1.2753
  861Sol     HW 6597   2.593   1.860   7.385 -0.9589 -1.6880 -0.6570
  861Sol     MW 6598   2.644   1.827   7.450  0.0367 -0.0597  0.3666
  862Sol     OW 6599   2.681   1.968   7.927  0.2759 -0.4809 -0.2777
  862Sol     HW 6600   2.603   1.915   7.908 -0.7237  0.6399  0.6217
  862Sol     HW 6601   2.661   2.009   8.011  1.3128  0.8191 -0.6710
  862Sol     MW 6602   2.672   1.967   7.933  0.0660  0.8283  0.0477
  863Sol     OW 6603   0.275   3.441   4.544 -0.0643 -0.3781 -0.1017
  863Sol     HW 6604   0.195   3.484   4.575 -0.3448  0.0823 -1.4191
  863Sol     HW 6605   0.293   3.483   4.460  1.7557 -0.2563  0.3433
  863Sol     MW 6606   0.269   3.448   4.539  0.5006 -0.1268 -0.2167
  864Sol     OW 6607   1.061   2.334   7.294  0.2941  0.4005  0.3693
  864Sol     HW 6608   0.976   2.301   7.266  1.2950 -2.0847  0.0877
  864Sol     HW 6609   1.044   2.423   7.323 -2.3393  0.0458  0.0556
  864Sol     MW 6610   1.052   2.339   7.294 -0.7005 -0.3777 -0.3315
  865Sol     OW 6611   0.163   2.807   6.720  0.7396  0.1209  0.2264
  865Sol     HW 6612   0.076   2.767   6.708  0.3163  0.4427  2.1933
  865Sol     HW 6613   0.201   2.759   6.793  1.4006  1.3689  0.7079
  865Sol     MW 6614   0.158   2.799   6.725 -0.0968 -0.4011 -0.6100
  866Sol     OW 6615   1.116   1.922   1.873  0.2655  0.0278 -0.1172
  866Sol     HW 6616   1.195   1.943   1.923 -0.4434 -1.7354  1.7855
  866Sol     HW 6617   1.086   2.007   1.840  1.2893  1.1041  1.6359
  866Sol     MW 6618   1.120   1.932   1.874 -0.1455  0.1978  0.3124
  867Sol     OW 6619   3.023   2.502   3.155  0.5054 -0.0948 -0.3130
  867Sol     HW 6620   3.004   2.580   3.103  1.9081  0.0168 -0.6829
  867Sol     HW 6621   3.097   2.461   3.110 -0.0640 -1.5095  0.0115
  867Sol     MW 6622   3.028   2.505   3.146 -0.8912 -0.4201  0.5826
  868Sol     OW 6623   0.165   2.545   2.800 -0.3124  0.1906  0.0078
  868Sol     HW 6624   0.174   2.560   2.894  0.7811  0.1588 -0.0958
  868Sol     HW 6625   0.155   2.632   2.763  0.7438  0.2961 -0.0155
  868Sol     MW 6626   0.165   2.554   2.805 -0.1277 -0.2009  0.0622
  869Sol     OW 6627   0.232   2.835   4.887 -0.3664 -0.2860 -0.4301
  869Sol     HW 6628   0.138   2.845   4.901 -0.4650 -0.0485 -1.2517
  869Sol     HW 6629   0.244   2.841   4.792  0.3895 -1.0341 -0.3951
  869Sol     MW 6630   0.225   2.836   4.880 -0.0025 -0.1045  0.0927
  870Sol     OW 6631   2.635   0.907   8.872 -0.0873 -0.2436  0.6223
  870Sol     HW 6632   2.664   0.974   8.934  1.6053 -0.4364  0.0792
  870Sol     HW 6633   2.631   0.952   8.788 -0.0931 -0.5330  0.4661
  870Sol     MW 6634   2.637   0.917   8.870  0.5238  0.5912  0.1252
  871Sol     OW 6635   2.854   2.456   3.894  0.3557  0.3765 -0.4062
  871Sol     HW 6636   2.867   2.515   3.969  1.3435  0.1911 -0.4143
  871Sol     HW 6637   2.765   2.473   3.866  0.0098  0.5325  0.7426
  871Sol     MW 6638   2.847   2.463   3.898 -0.2119 -0.3680  0.3367
  872Sol     OW 6639   1.202   1.502   7.089 -0.3600 -0.1690  0.4868
  872Sol     HW 6640   1.121   1.462   7.121  0.1241 -0.0356  1.8704
  872Sol     HW 6641   1.236   1.552   7.163  0.7079  0.2285 -0.2573
  872Sol     MW 6642   1.198   1.503   7.098  0.2318  0.0830  0.1800
  873Sol     OW 6643   2.120   0.425   1.721  0.4269 -0.1699 -0.0389
  873Sol     HW 6644   2.124   0.489   1.650  2.5780 -0.1271  0.0932
  873Sol     HW 6645   2.157   0.471   1.797 -1.7520 -0.2512  1.1062
  873Sol     MW 6646   2.124   0.435   1.722  0.7493 -0.0603 -0.2346
  874Sol     OW 6647   1.028   3.112   6.736 -0.1013 -0.3838  0.3683
  874Sol     HW 6648   1.055   3.048   6.671 -0.0406  0.6848 -0.6780
  874Sol     HW 6649   1.094   3.105   6.806 -0.2156 -1.5827  0.3542
  874Sol     MW 6650   1.036   3.106   6.737 -0.4672 -0.2356  0.3431
  875Sol     OW 6651   0.993   1.647   9.403 -0.1656 -0.6055 -0.1426
  875Sol     HW 6652   1.030   1.721   9.355  0.9120 -1.7629 -1.1585
  875Sol     HW 6653   1.046   1.572   9.376 -2.5075 -2.1192 -0.7406
  875Sol     MW 6654   1.001   1.647   9.396 -0.4841 -0.0428  0.0045
  876Sol     OW 6655   1.066   0.709   7.848  0.0960 -0.4903  0.2281
  876Sol     HW 6656   1.006   0.692   7.920  0.6435 -1.5750  0.4447
  876Sol     HW 6657   1.012   0.749   7.780 -0.6576 -0.5471  0.7918
  876Sol     MW 6658   1.056   0.711   7.848  0.4481  0.1919 -0.0055
  877Sol     OW 6659   3.095   1.969   9.363 -0.4661 -0.2928 -0.2831
  877Sol     HW 6660   3.135   1.919   9.434 -0.4908 -1.2678 -0.9518
  877Sol     HW 6661   3.020   1.916   9.336 -0.0453 -0.2811 -1.5019
  877Sol     MW 6662   3.092   1.960   9.367  0.0463 -0.0871 -0.2869
  878Sol     OW 6663   1.860   2.928   2.311 -0.3168  0.2081 -0.2602
  878Sol     HW 6664   1.956   2.931   2.304 -0.2723 -1.1574 -0.2355
  878Sol     HW 6665   1.843   2.883   2.394 -0.9841  0.6738 -0.1402
  878Sol     MW 6666   1.867   2.924   2.318  0.0528 -0.6872 -0.0002
  879Sol     OW 6667   1.573   0.755   8.312  0.7700 -0.3604  0.4675
  879Sol     HW 6668   1.627   0.726   8.239 -0.7822 -1.4740 -0.2712
  879Sol     HW 6669   1.483   0.736   8.285  0.0125  1.2165  1.7683
  879Sol     MW 6670   1.570   0.751   8.303 -0.0363 -0.3330 -0.0333
  880Sol     OW 6671   0.522   0.132   7.242 -0.1661  0.4318 -0.3375
  880Sol     HW 6672   0.559   0.067   7.302 -3.7581 -1.7972 -0.3455
  880Sol     HW 6673   0.553   0.105   7.156 -1.9128 -1.5687 -0.3803
  880Sol     MW 6674   0.528   0.123   7.240 -0.0807  0.0250  0.0294
  881Sol     OW 6675   3.065   0.015   7.868  0.0600 -0.4109  0.0313
  881Sol     HW 6676   3.020  -0.029   7.796  0.7783 -0.1622 -0.5824
  881Sol     HW 6677   3.022  -0.017   7.947  0.8676 -2.5596 -0.3675
  881Sol     MW 6678   3.058   0.008   7.869  0.0765 -0.2399  0.6103
  882Sol     OW 6679   0.841   0.828   4.807  0.1128 -0.4950  0.4776
  882Sol     HW 6680   0.922   0.873   4.781 -2.1927  2.0090 -2.9165
  882Sol     HW 6681   0.843   0.828   4.903  2.7394  2.2029  0.5104
  882Sol     MW 6682   0.849   0.832   4.813 -0.2046 -0.0199  0.5108
  883Sol     OW 6683   0.273   2.057   8.363 -0.4741 -0.2860  0.7402
  883Sol     HW 6684   0.248   2.149   8.372 -0.2507  0.1213 -2.2411
  883Sol     HW 6685   0.189   2.010   8.359 -0.5992 -0.1194  1.3533
  883Sol     MW 6686   0.263   2.061   8.364 -0.1499  0.2861  0.1660
  884Sol     OW 6687   0.990   1.481   4.072  0.3377  0.8699  0.2157
  884Sol     HW 6688   1.036   1.447   3.995  0.9583  1.3726  0.3605
  884Sol     HW 6689   0.925   1.414   4.092 -0.7792  1.3730 -1.5917
  884Sol     MW 6690   0.988   1.472   4.067  0.0215  0.3567  0.2896
  885Sol     OW 6691   2.735   0.239   6.262 -0.7239 -0.3109  0.2630
  885Sol     HW 6692   2.645   0.255   6.289 -0.5865 -0.8240  1.0628
  885Sol     HW 6693   2.752   0.305   6.194 -1.5227  0.1312  0.4807
  885Sol     MW 6694   2.729   0.247   6.258 -0.0272  0.5253 -0.8819
  886Sol     OW 6695   2.961   0.977   9.164  0.2662 -0.4862 -0.3787
  886Sol     HW 6696   2.974   1.048   9.227 -1.9380 -0.4861  0.1296
  886Sol     HW 6697   2.893   1.010   9.105 -1.2382 -2.3586  0.2460
  886Sol     MW 6698   2.956   0.986   9.165 -0.4987  0.5846 -0.3854
  887Sol     OW 6699   1.479   2.108   4.159  0.3902 -0.0307  0.5938
  887Sol     HW 6700   1.456   2.076   4.071 -1.4521  2.7828 -0.0383
  887Sol     HW 6701   1.400   2.153   4.189  1.9261  1.4902  2.5178
  887Sol     MW 6702   1.470   2.110   4.153  0.6532  0.1365  0.0380
  888Sol     OW 6703   0.342   1.360   8.283  0.1503 -0.4239  0.2864
  888Sol     HW 6704   0.288   1.369   8.361 -0.0691  0.5994  0.0187
  888Sol     HW 6705   0.431   1.374   8.314  0.1339 -0.7583  0.4855
  888Sol     MW 6706   0.345   1.362   8.293  0.1630  0.0319 -0.1830
  889Sol     OW 6707   2.595   0.484   7.354 -0.2383  0.0564  0.4058
  889Sol     HW 6708   2.664   0.524   7.301  0.7012 -1.2519  0.5991
  889Sol     HW 6709   2.631   0.398   7.377 -1.5417 -0.2405  1.3327
  889Sol     MW 6710   2.605   0.480   7.351  0.1124  0.2759  0.5146
  890Sol     OW 6711   0.907   0.405   2.267  0.4440 -0.0584  0.0365
  890Sol     HW 6712   0.885   0.340   2.200  0.0242 -0.0932  0.2068
  890Sol     HW 6713   0.992   0.377   2.301  0.7626  0.0736 -0.6265
  890Sol     MW 6714   0.913   0.397   2.264 -0.3882  0.5496  0.0755
  891Sol     OW 6715   1.067   1.846   8.520  0.5956  0.2173  0.2636
  891Sol     HW 6716   1.073   1.895   8.438 -2.0610  0.7153  0.3003
  891Sol     HW 6717   1.071   1.754   8.494  0.9151  0.3885 -0.3020
  891Sol     MW 6718   1.068   1.842   8.511  0.2792  0.3160 -0.5603
  892Sol     OW 6719   1.686   1.785   9.029 -0.3643  0.1174  0.1834
  892Sol     HW 6720   1.718   1.858   8.975  0.1586 -0.0824  0.2192
  892Sol     HW 6721   1.734   1.709   8.996 -1.2686 -0.2946 -0.1796
  892Sol     MW 6722   1.693   1.785   9.021 -0.1396 -0.2941 -0.0806
  893Sol     OW 6723   1.059   2.523   6.873  0.0411  0.2721 -0.2518
  893Sol     HW 6724   1.117   2.498   6.945  1.3614  0.0313 -1.3950
  893Sol     HW 6725   1.086   2.612   6.851  0.7868 -0.2750 -1.5780
  893Sol     MW 6726   1.067   2.529   6.878  0.5091 -0.0225  0.2676
  894Sol     OW 6727   2.033   1.471   5.536  0.0404 -0.2860 -0.2648
  894Sol     HW 6728   1.975   1.427   5.474 -0.2777  0.5269 -0.5516
  894Sol     HW 6729   2.034   1.413   5.613 -1.2122 -0.2803 -0.2237
  894Sol     MW 6730   2.028   1.462   5.538 -0.3958  0.8200  0.4589
  895Sol     OW 6731   1.543   0.411   2.239  0.5551  0.4065  0.0506
  895Sol     HW 6732   1.537   0.326   2.284  0.6243 -0.5099 -1.6127
  895Sol     HW 6733   1.455   0.426   2.205  0.7945  0.4840 -0.5451
  895Sol     MW 6734   1.535   0.404   2.240 -0.4345  0.1673 -0.1212
  896Sol     OW 6735   2.794   2.492   6.758 -0.0080 -0.1718  0.0985
  896Sol     HW 6736   2.711   2.447   6.774  1.6433 -2.6019  2.1787
  896Sol     HW 6737   2.806   2.547   6.836  0.9767 -0.8799  0.4567
  896Sol     MW 6738   2.787   2.493   6.767  0.0437 -0.8691 -0.1606
  897Sol     OW 6739   2.124   1.180   6.792  0.4966  0.0377 -0.7117
  897Sol     HW 6740   2.188   1.246   6.817 -0.5576  0.4473  0.9430
  897Sol     HW 6741   2.053   1.230   6.752  1.2470 -0.4300 -2.6842
  897Sol     MW 6742   2.124   1.190   6.790  0.2826  0.0732  0.2542
  898Sol     OW 6743   1.332   0.784   7.842  0.2801 -0.6543 -0.0140
  898Sol     HW 6744   1.239   0.764   7.855 -0.2525  1.1030 -0.9708
  898Sol     HW 6745   1.350   0.755   7.753  0.0746  0.9921 -0.6066
  898Sol     MW 6746   1.325   0.780   7.835  0.6984 -0.2206 -0.4290
  899Sol     OW 6747   2.357   0.803   4.242  0.3948  0.2697  0.0476
  899Sol     HW 6748   2.263   0.821   4.238 -0.0193 -1.6420  0.6405
  899Sol     HW 6749   2.374   0.782   4.334  1.0834 -0.9311 -0.3341
  899Sol     MW 6750   2.350   0.803   4.250 -0.2014  0.5087 -0.3648
  900Sol     OW 6751   0.900   2.873   4.494 -0.0598 -0.4297 -0.0352
  900Sol     HW 6752   0.895   2.954   4.545 -1.8450  0.2318 -1.2103
  900Sol     HW 6753   0.833   2.816   4.533 -1.8694  0.3148 -2.0185
  900Sol     MW 6754   0.893   2.875   4.502 -0.1000  0.3765 -0.3898
  901Sol     OW 6755   0.724   1.208   2.577 -0.1762  0.4799 -0.0855
  901Sol     HW 6756   0.641   1.255   2.571 -3.0479 -4.2165  0.9837
  901Sol     HW 6757   0.735   1.169   2.490 -0.2002 -0.6416  0.4098
  901Sol     MW 6758   0.718   1.209   2.569  0.1036  0.2535 -0.3814
  902Sol     OW 6759   3.291   2.046   3.313  0.9689  0.1796 -0.2964
  902Sol     HW 6760   3.292   2.073   3.405  1.8050  0.9662 -0.5267
  902Sol     HW 6761   3.357   2.101   3.272  1.0873 -0.6541 -1.2322
  902Sol     MW 6762   3.297   2.053   3.318 -0.7088 -0.1622  0.1660
  903Sol     OW 6763   2.467   2.900   2.625  0.1323  0.3186 -0.4024
  903Sol     HW 6764   2.524   2.880   2.551  0.5305  0.2523 -0.0745
  903Sol     HW 6765   2.382   2.864   2.599  0.0950  0.9043 -1.1234
  903Sol     MW 6766   2.464   2.895   2.616 -0.1532 -0.5175  0.2153
  904Sol     OW 6767   0.091   2.880   7.819  0.1657 -0.3500 -0.0245
  904Sol     HW 6768   0.078   2.911   7.909 -1.5748 -1.1549  0.0164
  904Sol     HW 6769   0.163   2.818   7.825 -0.1771 -0.6622  0.8735
  904Sol     MW 6770   0.096   2.877   7.828  0.5608 -0.6175  0.1099
  905Sol     OW 6771   1.847   2.890   2.852  0.3734 -0.1203 -0.3904
  905Sol     HW 6772   1.922   2.929   2.897  0.6090 -1.5631  0.5282
  905Sol     HW 6773   1.774   2.948   2.872  1.2128  1.2054 -1.1594
  905Sol     MW 6774   1.847   2.898   2.858 -1.0578 -0.0243 -0.4615
  906Sol     OW 6775   1.126   1.651   6.385  0.2871 -0.6123 -0.5720
  906Sol     HW 6776   1.185   1.593   6.336 -1.1825 -2.3920 -0.2652
  906Sol     HW 6777   1.184   1.719   6.420  2.4770 -3.1947  1.0697
  906Sol     MW 6778   1.137   1.652   6.384  0.2689 -0.1282  0.0370
  907Sol     OW 6779   1.160   2.974   5.795 -0.5361 -0.5410  0.5482
  907Sol     HW 6780   1.126   3.058   5.827  0.3778  0.2705 -0.5970
  907Sol     HW 6781   1.171   2.922   5.875  0.6191  1.0635  1.4820
  907Sol     MW 6782   1.158   2.977   5.805 -0.5086 -0.2925  0.2317
  908Sol     OW 6783   0.818   0.891   6.314 -0.3146 -0.2291  0.3781
  908Sol     HW 6784   0.767   0.962   6.275  0.0702 -1.2713 -2.0804
  908Sol     HW 6785   0.758   0.851   6.378 -1.2573  0.9722  0.2566
  908Sol     MW 6786   0.808   0.893   6.316 -0.9571  0.3407 -0.0171
  909Sol     OW 6787   2.152   1.482   4.758  0.2086  0.2744 -0.4484
  909Sol     HW 6788   2.203   1.401   4.761  1.2162  0.8932 -0.6216
  909Sol     HW 6789   2.071   1.461   4.805  0.4184 -0.8592 -0.5825
  909Sol     MW 6790   2.150   1.473   4.763  0.0767  0.1552 -0.2616
  910Sol     OW 6791   3.228   3.020   1.943 -0.0395 -0.1064  0.0236
  910Sol     HW 6792   3.238   3.100   1.994  0.4685 -0.0427 -0.1736
  910Sol     HW 6793   3.301   2.964   1.971 -0.6591 -0.6932  0.5094
  910Sol     MW 6794   3.235   3.022   1.950  0.1609  0.5149 -0.5464
  911Sol     OW 6795   1.468   1.065   4.087  0.1018 -0.1315 -0.5019
  911Sol     HW 6796   1.503   1.131   4.146 -0.6978  1.2260 -1.5266
  911Sol     HW 6797   1.543   1.007   4.069  0.7104  0.2692  0.6840
  911Sol     MW 6798   1.478   1.065   4.090  0.4686  0.5186  1.0754
  912Sol     OW 6799   2.140   1.089   6.000  0.6406 -0.4071  0.1409
  912Sol     HW 6800   2.160   1.172   6.044 -1.5237 -0.9318  2.2334
  912Sol     HW 6801   2.224   1.057   5.969  1.8088  1.5031  1.2633
  912Sol     MW 6802   2.149   1.094   6.001 -0.2553 -0.0893  0.0001
  913Sol     OW 6803   2.601   2.083   6.449  0.3370 -0.3023 -0.1533
  913Sol     HW 6804   2.619   2.169   6.412  2.5072 -0.6153  0.1296
  913Sol     HW 6805   2.682   2.034   6.437  0.1093 -1.3602  2.3624
  913Sol     MW 6806   2.610   2.086   6.444  0.4019 -0.5730  0.1183
  914Sol     OW 6807   0.349   2.700   7.952  0.4544 -0.0475 -0.0117
  914Sol     HW 6808   0.299   2.638   7.899 -2.2562  1.6102  0.5628
  914Sol     HW 6809   0.374   2.650   8.030  0.3465 -1.0890 -0.6374
  914Sol     MW 6810   0.347   2.690   7.954 -0.5041 -0.4306 -0.4330
  915Sol     OW 6811   0.202   3.301   6.498  0.1528  0.6789 -0.0556
  915Sol     HW 6812   0.285   3.285   6.544 -1.7134 -0.0732  3.2314
  915Sol     HW 6813   0.172   3.385   6.534 -0.9258  0.5253 -0.5991
  915Sol     MW 6814   0.207   3.307   6.506 -0.2582 -0.4918  0.2653
  916Sol     OW 6815   0.122   1.371   7.223  0.4037 -0.6047 -0.5172
  916Sol     HW 6816   0.058   1.406   7.285  0.9288 -0.1744 -0.2088
  916Sol     HW 6817   0.184   1.323   7.277  1.2789  0.3920 -0.6109
  916Sol     MW 6818   0.122   1.370   7.233 -0.0379  0.2882 -0.1751
  917Sol     OW 6819   2.772   2.125   4.195  0.0167 -0.2742 -0.0621
  917Sol     HW 6820   2.705   2.116   4.127 -0.5338 -1.0991  0.5816
  917Sol     HW 6821   2.839   2.061   4.171 -0.7287 -1.3990  0.8032
  917Sol     MW 6822   2.772   2.118   4.187 -0.0241  0.0289 -0.4047
  918Sol     OW 6823   0.686   1.636   3.013  0.1279 -0.2499 -0.3283
  918Sol     HW 6824   0.708   1.583   3.089  0.4258 -1.9833 -1.5986
  918Sol     HW 6825   0.657   1.573   2.947 -0.3167  1.2378 -1.5925
  918Sol     MW 6826   0.685   1.625   3.014 -0.2018  0.0194 -0.5540
  919Sol     OW 6827   2.878   0.658   7.543  0.2710 -0.0992  0.0703
  919Sol     HW 6828   2.961   0.668   7.589  1.0532  0.7496 -1.4645
  919Sol     HW 6829   2.903   0.647   7.451 -1.2803 -0.7561 -0.2952
  919Sol     MW 6830   2.888   0.658   7.539  0.1229 -0.1687  0.2043
  920Sol     OW 6831   0.378   2.211   9.562 -0.1994  0.9709 -0.1279
  920Sol     HW 6832   0.430   2.193   9.640  0.2939  1.1987 -0.3934
  920Sol     HW 6833   0.440   2.254   9.502 -0.3979  0.2155 -0.8856
  920Sol     MW 6834   0.389   2.214   9.563 -0.5392 -0.3896  0.4512
  921Sol     OW 6835   0.058   3.241   3.562  0.2230  0.3992 -0.4301
  921Sol     HW 6836  -0.009   3.188   3.519  0.9182 -0.2898 -0.6918
  921Sol     HW 6837   0.126   3.252   3.495  0.8127  0.2545  0.1435
  921Sol     MW 6838   0.058   3.237   3.552 -0.4312  0.9868 -0.5340
  922Sol     OW 6839   1.746   1.613   6.481  0.0426  0.0042 -0.0250
  922Sol     HW 6840   1.663   1.654   6.455 -0.6547 -1.0702  0.4264
  922Sol     HW 6841   1.728   1.578   6.569  0.2941 -2.0769 -0.7622
  922Sol     MW 6842   1.737   1.613   6.487  0.4811 -0.1038 -0.3161
  923Sol     OW 6843   2.308   3.324   4.336  0.2085  0.5268  0.3385
  923Sol     HW 6844   2.228   3.276   4.317  1.3320 -1.9413  1.6768
  923Sol     HW 6845   2.278   3.413   4.355 -1.9095  0.3617 -1.9797
  923Sol     MW 6846   2.298   3.328   4.336  0.4150 -0.0948 -0.0734
  924Sol     OW 6847   0.776   1.810   4.861 -0.1777  0.2929 -0.4402
  924Sol     HW 6848   0.770   1.877   4.930 -0.7560  0.8745 -1.0446
  924Sol     HW 6849   0.826   1.852   4.791 -0.6426  0.1444 -0.8712
  924Sol     MW 6850   0.780   1.820   4.861  0.7937 -0.0858  0.0562
  925Sol     OW 6851   1.793   1.943   5.559 -0.3752 -0.0714 -0.7664
  925Sol     HW 6852   1.801   1.862   5.509 -0.7035 -1.1031  0.8093
  925Sol     HW 6853   1.859   1.935   5.629 -1.9945 -0.0457  0.8075
  925Sol     MW 6854   1.800   1.935   5.561 -0.0643  0.5685 -0.0102
  926Sol     OW 6855   2.581   2.279   9.304  0.3779 -0.3350 -0.0441
  926Sol     HW 6856   2.542   2.280   9.216  0.9110 -1.6376 -0.3233
  926Sol     HW 6857   2.616   2.367   9.316 -2.2631  0.7314  0.0556
  926Sol     MW 6858   2.581   2.287   9.297 -0.6105 -0.0416 -0.7390
  927Sol     OW 6859   2.676   2.138   6.743  0.1927  0.1479  0.1312
  927Sol     HW 6860   2.661   2.148   6.649 -0.8425 -0.3210  0.2413
  927Sol     HW 6861   2.749   2.077   6.749 -0.3565 -0.5554 -0.3505
  927Sol     MW 6862   2.681   2.134   6.735  0.2459 -0.6946  0.3021
  928Sol     OW 6863   2.581   0.950   5.094  0.5007  0.0774 -0.0797
  928Sol     HW 6864   2.502   0.908   5.128  0.6744  0.1052  0.3554
  928Sol     HW 6865   2.583   0.925   5.002  0.8233 -1.2104  0.2631
  928Sol     MW 6866   2.574   0.944   5.089  0.1744  0.0039 -0.1667
  929Sol     OW 6867   1.643   1.589   6.041 -0.3257  0.2229  0.6033
  929Sol     HW 6868   1.728   1.588   5.996 -0.1658  1.0280  0.8708
  929Sol     HW 6869   1.631   1.681   6.066  0.1263 -0.4084  3.2041
  929Sol     MW 6870   1.650   1.597   6.039 -0.1465 -0.0074 -0.0714
  930Sol     OW 6871   1.747   3.365   9.058 -0.1247  0.6725  0.1652
  930Sol     HW 6872   1.722   3.287   9.008  0.7372 -0.9178  2.1312
  930Sol     HW 6873   1.677   3.375   9.122 -0.2330  1.5366 -0.0822
  930Sol     MW 6874   1.739   3.359   9.059 -0.1372  0.1776 -0.4658
  931Sol     OW 6875   2.950   3.086   6.134  0.9046 -0.2026  0.1984
  931Sol     HW 6876   2.927   3.151   6.200  0.5767  0.2917 -0.3986
  931Sol     HW 6877   2.946   3.133   6.051  2.4501 -0.5206 -0.0774
  931Sol     MW 6878   2.948   3.096   6.132  0.1033  0.3185  0.7669
  932Sol     OW 6879   2.928   2.142   8.274  0.2685  0.1773  0.2451
  932Sol     HW 6880   2.979   2.090   8.335  0.0506 -1.2747 -0.7816
  932Sol     HW 6881   2.851   2.088   8.254 -1.2419  1.9385  1.0752
  932Sol     MW 6882   2.925   2.132   8.277 -0.5861  0.9999  0.1437
  933Sol     OW 6883   3.226   0.998   6.187  0.2753 -0.1149 -0.1007
  933Sol     HW 6884   3.250   1.041   6.105 -1.8646  0.8367 -0.2395
  933Sol     HW 6885   3.268   1.050   6.255 -0.8533  1.1802 -0.3821
  933Sol     MW 6886   3.232   1.006   6.186 -0.3326 -0.1879  0.2245
  934Sol     OW 6887   1.269   3.278   3.349  0.6266  0.0774 -0.8153
  934Sol     HW 6888   1.248   3.185   3.355 -0.8923  0.4184 -0.4382
  934Sol     HW 6889   1.208   3.312   3.283  0.1927  1.0579  0.0730
  934Sol     MW 6890   1.261   3.273   3.344 -0.0598  0.0454  0.0039
  935Sol     OW 6891   2.335   2.795   7.958  0.4242 -0.6139 -0.0198
  935Sol     HW 6892   2.306   2.784   8.048 -0.0956  0.0060 -0.1019
  935Sol     HW 6893   2.431   2.796   7.963  0.4344 -2.2776  0.3060
  935Sol     MW 6894   2.341   2.794   7.966 -0.3547  0.2589 -0.2137
  936Sol     OW 6895   2.450   1.739   3.025  0.0121 -0.1825  0.0841
  936Sol     HW 6896   2.487   1.749   3.113  0.6607 -0.9280 -0.1002
  936Sol     HW 6897   2.433   1.829   2.996  0.0962  0.0823  0.8475
  936Sol     MW 6898   2.452   1.748   3.030 -0.4686  0.4393  0.1318
  937Sol     OW 6899   1.943   0.674   7.433 -0.0203  0.1253 -0.3598
  937Sol     HW 6900   2.031   0.711   7.422 -0.4674  1.7035  1.0979
  937Sol     HW 6901   1.957   0.588   7.473  0.8150  0.9774  1.2298
  937Sol     MW 6902   1.952   0.670   7.436 -0.8619 -0.3352  0.3251
  938Sol     OW 6903   1.636   0.546   7.165  0.7095  0.4090 -0.4477
  938Sol     HW 6904   1.728   0.572   7.161  1.2696 -1.4682 -0.3348
  938Sol     HW 6905   1.639   0.451   7.177 -1.2548  0.1879 -1.5689
  938Sol     MW 6906   1.645   0.539   7.166  0.2044 -0.4932 -0.1204
  939Sol     OW 6907   1.400   3.389   4.278  0.5265 -0.4577  0.2132
  939Sol     HW 6908   1.377   3.367   4.188  1.3420 -0.7185  0.0606
  939Sol     HW 6909   1.381   3.482   4.286 -0.3746 -0.6244  0.0379
  939Sol     MW 6910   1.396   3.395   4.270 -0.1354  0.2845  0.1650
  940Sol     OW 6911   1.477   3.373   5.853  0.4082 -0.5158  0.0978
  940Sol     HW 6912   1.560   3.419   5.837  0.2470 -0.4512 -0.5952
  940Sol     HW 6913   1.502   3.282   5.865  0.8877 -0.0121  3.1043
  940Sol     MW 6914   1.487   3.369   5.852 -0.4287  0.3760 -0.0992
  941Sol     OW 6915   0.298   1.366   3.160 -0.0567  0.0342  0.0138
  941Sol     HW 6916   0.341   1.413   3.232  0.1018  0.0696 -0.1033
  941Sol     HW 6917   0.368   1.352   3.096 -0.4548  1.0346 -0.6542
  941Sol     MW 6918   0.308   1.369   3.161  0.2004  0.4349  0.0655
  942Sol     OW 6919   2.629   1.018   8.626 -0.4341  0.0523  0.1347
  942Sol     HW 6920   2.619   0.939   8.574  0.1437  0.1501 -0.1317
  942Sol     HW 6921   2.550   1.069   8.608 -0.1551  0.1647 -0.7822
  942Sol     MW 6922   2.621   1.016   8.620  0.4820 -0.0484 -0.2953
  943Sol     OW 6923   2.343   2.823   2.940  0.5820 -0.6252 -0.1851
  943Sol     HW 6924   2.270   2.883   2.952  0.2113 -0.9133 -1.0384
  943Sol     HW 6925   2.400   2.840   3.016  0.1013  0.2532 -0.0162
  943Sol     MW 6926   2.342   2.830   2.948 -0.1668 -0.2270 -0.2398
  944Sol     OW 6927   0.308   1.564   6.685 -0.4241 -0.4291 -0.1342
  944Sol     HW 6928   0.230   1.609   6.650 -1.1572 -1.0838  0.6488
  944Sol     HW 6929   0.374   1.577   6.618 -0.6640  1.7021 -0.0138
  944Sol     MW 6930   0.307   1.570   6.676 -0.0724  0.4676  0.2516
  945Sol     OW 6931   0.956   2.076   9.061  0.2701 -0.5797 -0.1913
  945Sol     HW 6932   0.863   2.059   9.074 -0.2837  1.4919 -1.4027
  945Sol     HW 6933   0.965   2.096   8.968  1.8074  0.0087  0.0723
  945Sol     MW 6934   0.949   2.076   9.054 -0.2461  0.2942  0.2171
  946Sol     OW 6935   1.839   0.908   7.317  0.4474 -0.1736  0.6950
  946Sol     HW 6936   1.883   0.834   7.359 -2.2494 -1.8477  0.6933
  946Sol     HW 6937   1.746   0.891   7.330 -0.3142  1.7653 -1.7990
  946Sol     MW 6938   1.835   0.900   7.322 -0.2663 -0.1103  0.4824
  947Sol     OW 6939   2.197   2.696   7.740  0.0646  0.0061  0.3988
  947Sol     HW 6940   2.252   2.740   7.805  1.6010 -1.4547  0.1614
  947Sol     HW 6941   2.228   2.729   7.656  0.5684 -0.7795  0.2658
  947Sol     MW 6942   2.205   2.703   7.739 -0.1261 -0.1990 -0.1639
  948Sol     OW 6943   3.221   1.272   5.412  0.4880  0.0823  0.4412
  948Sol     HW 6944   3.145   1.320   5.446  1.1738  1.1355  0.5237
  948Sol     HW 6945   3.224   1.296   5.319 -0.3216 -1.3648  0.0333
  948Sol     MW 6946   3.215   1.279   5.406 -0.0017 -0.3401 -0.0645
  949Sol     OW 6947   0.632   0.191   7.912 -0.7383  0.3465  0.3509
  949Sol     HW 6948   0.631   0.100   7.882 -2.0916  0.6911 -0.7025
  949Sol     HW 6949   0.688   0.237   7.849  0.3567  0.1699  1.1707
  949Sol     MW 6950   0.637   0.187   7.904 -0.3508  0.1324  0.2221
  950Sol     OW 6951   1.195   0.345   2.362 -0.1314 -0.4547 -0.2232
  950Sol     HW 6952   1.274   0.328   2.413 -0.7640 -2.1474  0.2239
  950Sol     HW 6953   1.226   0.366   2.274  0.8165 -0.9724 -0.0148
  950Sol     MW 6954   1.205   0.345   2.359 -0.5428 -0.3962 -0.0010
  951Sol     OW 6955   2.628   0.285   7.131 -0.0650  0.3527  0.2514
  951Sol     HW 6956   2.572   0.344   7.181 -2.1945  0.3953 -2.1214
  951Sol     HW 6957   2.654   0.335   7.054 -0.2568 -1.1209 -0.7951
  951Sol     MW 6958   2.625   0.295   7.128  0.3669  0.1052  0.1191
  952Sol     OW 6959   0.455   1.430   9.238 -0.4775  0.5468 -0.4030
  952Sol     HW 6960   0.506   1.470   9.308  1.8458 -1.3725 -0.9644
  952Sol     HW 6961   0.483   1.476   9.159 -2.5705  2.2151 -0.2129
  952Sol     MW 6962   0.462   1.438   9.237 -0.2147  0.4868  0.2992
  953Sol     OW 6963   2.952   3.281   9.661  0.0457 -0.3217 -0.0752
  953Sol     HW 6964   2.960   3.317   9.573  0.8628  1.9186  0.8887
  953Sol     HW 6965   2.907   3.348   9.711 -2.1428 -2.3656  0.7891
  953Sol     MW 6966   2.949   3.290   9.658  0.2859  0.4518  0.1076
  954Sol     OW 6967   2.455   0.873   3.953 -0.3238 -0.0357  0.2374
  954Sol     HW 6968   2.374   0.882   3.902 -0.2636  0.2731  0.1896
  954Sol     HW 6969   2.426   0.863   4.043 -0.4187  0.1040  0.2238
  954Sol     MW 6970   2.445   0.873   3.956 -0.3886 -0.2642 -0.7505
  955Sol     OW 6971   0.867   2.645   8.806  0.8617  0.0695 -0.2796
  955Sol     HW 6972   0.828   2.579   8.748 -0.6816  0.2831  0.4765
  955Sol     HW 6973   0.959   2.647   8.781  0.5598 -1.0334 -1.5899
  955Sol     MW 6974   0.872   2.639   8.798  0.1530 -0.4792  0.5563
  956Sol     OW 6975   2.725   2.978   3.251  0.4859  0.3287 -0.5169
  956Sol     HW 6976   2.734   3.022   3.336 -1.1074 -1.5211  0.6188
  956Sol     HW 6977   2.726   3.050   3.187 -2.4391  2.0837  1.3299
  956Sol     MW 6978   2.726   2.989   3.253 -0.6634  0.3440 -0.8066
  957Sol     OW 6979   2.121   2.145   5.657 -0.2389  0.6827 -0.2885
  957Sol     HW 6980   2.084   2.178   5.575 -0.1195 -1.3120 -1.1580
  957Sol     HW 6981   2.214   2.165   5.650  0.1442 -1.4311 -1.6312
  957Sol     MW 6982   2.126   2.150   5.649 -0.4800 -0.4822  0.2235
  958Sol     OW 6983   3.045   3.192   3.235 -0.1537 -0.0274 -0.1703
  958Sol     HW 6984   3.140   3.192   3.224 -0.2527 -1.1433 -1.1551
  958Sol     HW 6985   3.032   3.192   3.330  0.8211  0.8309 -0.0300
  958Sol     MW 6986   3.052   3.192   3.243 -0.4409 -0.9632  0.1738
  959Sol     OW 6987   2.233   0.913   3.206 -0.4528  0.1034  0.1436
  959Sol     HW 6988   2.261   1.001   3.232 -0.3402  0.0469  0.2134
  959Sol     HW 6989   2.138   0.913   3.221 -0.6170  0.5449 -0.8032
  959Sol     MW 6990   2.227   0.921   3.210 -0.0048 -0.4679  0.3931
  960Sol     OW 6991   2.682   1.105   5.587 -0.0886 -0.3980  0.5500
  960Sol     HW 6992   2.706   1.149   5.505 -1.1323  1.9325  1.4456
  960Sol     HW 6993   2.765   1.082   5.628  0.5052  1.5512  0.4587
  960Sol     MW 6994   2.691   1.107   5.583  0.5887  0.0254  0.7452
  961Sol     OW 6995   3.217   1.390   4.138 -0.6000  0.2703 -0.2165
  961Sol     HW 6996   3.247   1.465   4.087 -0.0020 -0.9044 -1.6150
  961Sol     HW 6997   3.296   1.355   4.177 -0.9217  0.5326  0.6818
  961Sol     MW 6998   3.226   1.394   4.137 -0.4475 -0.5638  0.3643
  962Sol     OW 6999   0.795   2.554   5.411  1.0686 -0.0189  0.3873
  962Sol     HW 7000   0.840   2.500   5.476  0.4502 -0.5608  0.3633
  962Sol     HW 7001   0.802   2.643   5.446 -0.3030 -0.4468  1.8065
  962Sol     MW 7002   0.800   2.557   5.420 -0.3686  0.0928 -0.2222
  963Sol     OW 7003   1.158   2.746   9.193 -0.4886  0.0266 -0.3671
  963Sol     HW 7004   1.088   2.733   9.129 -0.6438  3.2307 -0.9358
  963Sol     HW 7005   1.130   2.822   9.245  1.1117 -0.5705  1.4455
  963Sol     MW 7006   1.150   2.752   9.192 -0.3370  0.6550 -0.6130
  964Sol     OW 7007   3.231   0.796   1.705 -0.6305  0.3956 -0.6962
  964Sol     HW 7008   3.236   0.837   1.791 -0.5518 -0.7031 -0.1599
  964Sol     HW 7009   3.183   0.859   1.651  0.4492  1.6620 -0.2047
  964Sol     MW 7010   3.227   0.805   1.708  0.0281 -0.1828  0.3640
  965Sol     OW 7011   1.261   1.407   5.609 -0.7825  0.2868  0.5510
  965Sol     HW 7012   1.207   1.342   5.654 -0.4586  0.0015  0.5286
  965Sol     HW 7013   1.348   1.398   5.647 -0.6148  0.3594  0.1949
  965Sol     MW 7014   1.264   1.400   5.616  0.1001  0.0118  0.4435
  966Sol     OW 7015   1.998   0.119   2.164 -0.4894 -0.5568 -0.3179
  966Sol     HW 7016   1.930   0.181   2.137  0.6524  0.7774 -0.2263
  966Sol     HW 7017   2.067   0.175   2.202  0.1230 -1.9695  0.7039
  966Sol     MW 7018   1.998   0.130   2.165  0.0314 -0.8228  0.0556
  967Sol     OW 7019   2.769   3.125   8.543 -0.4341 -0.8101 -0.1048
  967Sol     HW 7020   2.713   3.102   8.469 -0.7798 -1.3807  0.3223
  967Sol     HW 7021   2.855   3.140   8.505 -1.1091  1.1234 -0.9085
  967Sol     MW 7022   2.771   3.124   8.533 -0.0855 -0.0373  0.3095
  968Sol     OW 7023   2.918   1.170   9.431  0.2572 -0.4479  0.5360
  968Sol     HW 7024   2.854   1.233   9.465 -0.0644 -0.2370 -0.4251
  968Sol     HW 7025   2.896   1.087   9.473 -0.8813 -0.4582 -0.0489
  968Sol     MW 7026   2.910   1.169   9.438  0.7378  0.1108  0.0151
  969Sol     OW 7027   2.107   0.919   4.334  0.1354 -0.4131  0.3677
  969Sol     HW 7028   2.110   1.012   4.310  1.1826 -0.1080  1.6211
  969Sol     HW 7029   2.067   0.919   4.421 -0.2573 -1.1858  0.1881
  969Sol     MW 7030   2.104   0.928   4.340  0.2445  0.1090 -0.0587
  970Sol     OW 7031   2.891   2.138   5.043 -0.3194 -0.2667  0.1545
  970Sol     HW 7032   2.964   2.100   4.994 -2.9861 -4.5710 -0.7159
  970Sol     HW 7033   2.834   2.175   4.975 -0.8168 -0.3262  0.5426
  970Sol     MW 7034   2.892   2.138   5.032 -0.2112  0.3307 -0.3159
  971Sol     OW 7035   3.030   0.967   4.305 -0.1350  0.0864  0.5899
  971Sol     HW 7036   3.006   0.890   4.356 -0.8682  0.4462  0.7914
  971Sol     HW 7037   3.113   0.996   4.343 -0.7843  0.4868  1.7394
  971Sol     MW 7038   3.035   0.963   4.313 -0.5820 -0.1634 -0.0142
  972Sol     OW 7039   1.064   2.395   2.127  0.0254 -0.3189 -0.0439
  972Sol     HW 7040   1.121   2.321   2.108  0.2637 -0.1792  0.1220
  972Sol     HW 7041   0.977   2.366   2.099  0.2086 -0.4597 -0.4707
  972Sol     MW 7042   1.061   2.386   2.123  0.3774 -0.6674 -0.1574
  973Sol     OW 7043   1.316   1.558   6.202  0.0021  0.4651 -0.4493
  973Sol     HW 7044   1.293   1.638   6.153 -0.4041  0.0519 -0.9494
  973Sol     HW 7045   1.403   1.575   6.237 -0.2294  1.2689 -0.2533
  973Sol     MW 7046   1.321   1.567   6.200 -0.0914  0.3270 -0.2268
  974Sol     OW 7047   0.599   2.477   8.845  0.1292 -0.1100 -0.1447
  974Sol     HW 7048   0.676   2.430   8.878 -0.0979 -1.1534 -1.0499
  974Sol     HW 7049   0.543   2.408   8.809  0.1159  0.9035 -2.1473
  974Sol     MW 7050   0.601   2.467   8.844  0.0996 -0.4546  0.8183
  975Sol     OW 7051   3.125   2.852   4.370  0.4995  0.4763 -0.0088
  975Sol     HW 7052   3.146   2.802   4.292  1.3061  1.6922 -0.5794
  975Sol     HW 7053   3.184   2.818   4.437 -1.5558 -1.9668  0.6523
  975Sol     MW 7054   3.132   2.845   4.369  0.3894  0.4890 -0.5089
  976Sol     OW 7055   2.006   2.805   4.384 -0.0011 -0.1539  0.2340
  976Sol     HW 7056   2.042   2.762   4.307 -1.0220 -1.6877  0.5917
  976Sol     HW 7057   2.035   2.751   4.458 -0.9894 -0.0301  0.7219
  976Sol     MW 7058   2.011   2.797   4.384 -0.3069 -0.3443 -0.0671
  977Sol     OW 7059   0.612   1.290   6.426 -0.2178 -0.3864 -0.2414
  977Sol     HW 7060   0.677   1.298   6.496 -0.1616  1.4983 -0.4831
  977Sol     HW 7061   0.529   1.313   6.468 -0.6565 -2.0621 -0.1211
  977Sol     MW 7062   0.611   1.292   6.436 -0.5903  0.1169 -0.0571
  978Sol     OW 7063   1.640   2.284   3.439 -0.1511 -0.1505 -0.4888
  978Sol     HW 7064   1.699   2.348   3.400 -1.6437  1.1838 -0.5697
  978Sol     HW 7065   1.561   2.288   3.386 -1.4574  0.2760  1.4604
  978Sol     MW 7066   1.639   2.290   3.431 -0.7098  0.0984  0.0922
  979Sol     OW 7067   2.721   2.778   4.261 -0.3289 -0.3196 -0.1240
  979Sol     HW 7068   2.665   2.709   4.297 -0.5010 -0.7525 -1.2056
  979Sol     HW 7069   2.758   2.822   4.338  0.9550 -2.5680  0.5958
  979Sol     MW 7070   2.720   2.776   4.271 -0.2585  0.1672  0.0652
  980Sol     OW 7071   1.042   2.560   5.871  0.5310 -0.2185 -0.0549
  980Sol     HW 7072   0.951   2.588   5.858  0.5942 -0.0890 -0.2341
  980Sol     HW 7073   1.038   2.499   5.944  0.2505 -0.4706 -0.2762
  980Sol     MW 7074   1.033   2.557   5.876 -0.0169 -0.5981 -0.0068
  981Sol     OW 7075   2.830   2.260   8.937 -0.2898 -0.1909 -1.0538
  981Sol     HW 7076   2.920   2.282   8.913 -0.5861  1.0011 -1.1094
  981Sol     HW 7077   2.794   2.340   8.975 -1.5123 -0.4811 -1.5563
  981Sol     MW 7078   2.835   2.269   8.938 -0.8859  0.5763  0.3285
  982Sol     OW 7079   0.038   3.146   8.874 -0.0292 -0.1867  0.0403
  982Sol     HW 7080  -0.006   3.151   8.789  0.1725  1.3897  0.0126
  982Sol     HW 7081  -0.004   3.074   8.919 -1.9582  0.6501 -0.3822
  982Sol     MW 7082   0.031   3.140   8.870  0.7911 -0.4539 -0.0965
  983Sol     OW 7083   0.598   0.079   4.918 -0.8957  0.1686 -0.1303
  983Sol     HW 7084   0.679   0.049   4.876 -0.7599  0.7424 -0.2752
  983Sol     HW 7085   0.533   0.079   4.848 -0.7400  0.8404 -0.2727
  983Sol     MW 7086   0.600   0.076   4.908 -0.0277  0.1768  0.2674
  984Sol     OW 7087   2.466   0.916   4.739  0.3910  0.5176  0.2733
  984Sol     HW 7088   2.543   0.859   4.747 -0.3491 -0.6917 -0.9707
  984Sol     HW 7089   2.499   1.004   4.758  1.8001 -0.1686  1.0608
  984Sol     MW 7090   2.476   0.919   4.741  0.2043 -0.1049 -0.1009
  985Sol     OW 7091   1.783   0.905   6.717  1.1942  0.1348  0.0035
  985Sol     HW 7092   1.818   0.991   6.695  0.8660  0.1736 -0.3528
  985Sol     HW 7093   1.720   0.885   6.648 -0.1394  0.4308  1.1100
  985Sol     MW 7094   1.781   0.911   6.709 -0.0855  0.1286 -0.1442
  986Sol     OW 7095   1.608   2.360   2.952  0.3627 -0.4171 -0.1146
  986Sol     HW 7096   1.629   2.453   2.966  2.0197 -1.1413  2.5833
  986Sol     HW 7097   1.567   2.332   3.034  0.5612 -2.2549 -0.6227
  986Sol     MW 7098   1.606   2.366   2.961  0.2358 -0.3343 -0.9279
  987Sol     OW 7099   2.939   1.438   4.174  0.7542  0.0222  0.5486
  987Sol     HW 7100   3.028   1.406   4.157  0.5082 -0.3010 -0.1446
  987Sol     HW 7101   2.897   1.366   4.221  0.0974 -0.8328 -1.3035
  987Sol     MW 7102   2.943   1.429   4.177 -0.5085  0.3674  0.1139
  988Sol     OW 7103   1.732   1.016   3.566 -0.3616 -0.2900  0.5798
  988Sol     HW 7104   1.666   1.036   3.500 -1.2888 -0.9345  1.2916
  988Sol     HW 7105   1.766   1.102   3.592 -1.5051  0.1150  0.7922
  988Sol     MW 7106   1.729   1.026   3.563 -0.4233  0.5927  0.6909
  989Sol     OW 7107   2.536   2.257   5.118  0.1946  0.1618  0.0610
  989Sol     HW 7108   2.603   2.275   5.184  1.4407 -1.6972 -0.6622
  989Sol     HW 7109   2.513   2.165   5.131 -2.0864  0.7076  0.1439
  989Sol     MW 7110   2.540   2.250   5.125  0.4523  0.3951 -0.1217
  990Sol     OW 7111   3.006   0.565   7.257  0.4234  0.0547 -0.0692
  990Sol     HW 7112   2.928   0.605   7.219 -0.0113 -1.1711 -0.4609
  990Sol     HW 7113   3.074   0.577   7.191  0.4981  0.8543  0.1477
  990Sol     MW 7114   3.005   0.570   7.248 -0.2786  0.0308  0.0535
  991Sol     OW 7115   1.871   1.132   3.977  0.2948  0.3410 -0.5500
  991Sol     HW 7116   1.812   1.067   4.016 -2.2770  2.2573 -1.0633
  991Sol     HW 7117   1.892   1.096   3.891  1.4094 -1.2384  0.3552
  991Sol     MW 7118   1.867   1.123   3.973  0.0221  0.6984 -0.4026
  992Sol     OW 7119   0.234   2.055   4.325  0.2461  0.5199 -0.0133
  992Sol     HW 7120   0.235   1.980   4.265 -0.2696  0.8597 -0.4526
  992Sol     HW 7121   0.266   2.128   4.274 -1.1229  1.0237 -0.1774
  992Sol     MW 7122   0.237   2.055   4.315 -0.1262 -0.0440 -0.6671
  993Sol     OW 7123   1.991   0.417   3.696 -0.2389  0.1507  0.1296
  993Sol     HW 7124   2.050   0.410   3.771 -0.4281 -0.5556  0.2169
  993Sol     HW 7125   2.041   0.382   3.622 -0.9464 -1.5579  0.4317
  993Sol     MW 7126   2.001   0.414   3.696  0.2421  0.3021 -0.1167
  994Sol     OW 7127   1.253   2.396   6.665 -0.0664 -0.0590  0.0721
  994Sol     HW 7128   1.271   2.318   6.717  2.8653  0.7901  0.4317
  994Sol     HW 7129   1.246   2.466   6.730  0.9455  0.5613 -0.4718
  994Sol     MW 7130   1.254   2.395   6.676 -0.6526 -0.5330  0.1116
  995Sol     OW 7131   2.808   2.720   6.596  0.3396 -0.3388 -0.6269
  995Sol     HW 7132   2.716   2.745   6.603  0.6772  0.4253  1.4876
  995Sol     HW 7133   2.811   2.631   6.633  0.4504 -0.3240 -0.5991
  995Sol     MW 7134   2.800   2.714   6.600  0.3817  0.2762 -0.3596
  996Sol     OW 7135   0.325   0.389   5.843  0.4818  0.3455 -0.1203
  996Sol     HW 7136   0.412   0.357   5.821  0.6261  0.7955 -0.2165
  996Sol     HW 7137   0.293   0.426   5.760  1.5712  3.3205  0.7258
  996Sol     MW 7138   0.330   0.390   5.833 -0.5907  0.1058 -0.2858
  997Sol     OW 7139   1.723   0.683   2.705 -0.4289  0.1453 -0.1635
  997Sol     HW 7140   1.811   0.647   2.693 -0.2999  0.0674  0.9501
  997Sol     HW 7141   1.664   0.610   2.690 -0.1532 -0.6889  2.5655
  997Sol     MW 7142   1.726   0.674   2.703  0.4876  0.2175 -0.1656
  998Sol     OW 7143   1.632   0.800   4.340  0.0179 -0.2806 -0.1337
  998Sol     HW 7144   1.607   0.868   4.402 -2.1481 -1.0460 -0.1181
  998Sol     HW 7145   1.650   0.723   4.394 -1.5998 -0.8683 -0.3980
  998Sol     MW 7146   1.632   0.799   4.350 -0.0675  0.3126 -0.2262
  999Sol     OW 7147   1.619   2.509   3.837 -0.0945 -0.5445 -0.2366
  999Sol     HW 7148   1.712   2.520   3.820 -0.2397 -0.4500 -0.9640
  999Sol     HW 7149   1.611   2.515   3.933  0.6575 -0.6770 -0.1683
  999Sol     MW 7150   1.626   2.511   3.844 -0.2127 -0.0159 -0.0232
 1000Sol     OW 7151   1.610   2.165   8.481 -0.0164 -0.4122 -0.1151
 1000Sol     HW 7152   1.579   2.228   8.415 -0.7212  0.6456  1.1804
 1000Sol     HW 7153   1.609   2.081   8.436 -1.4350  0.1382 -1.1828
 1000Sol     MW 7154   1.607   2.163   8.471  0.0777 -0.0646  0.2933
 1001Sol     OW 7155   1.941   2.720   8.681 -0.1623 -0.1869  0.6352
 1001Sol     HW 7156   2.014   2.695   8.623 -0.6200  0.8451 -0.3983
 1001Sol     HW 7157   1.977   2.712   8.769  1.4508  1.0634  0.1153
 1001Sol     MW 7158   1.951   2.717   8.683 -0.3295 -0.0638 -0.0997
 1002Sol     OW 7159   2.555   1.685   3.662 -0.4434 -0.7304 -0.1508
 1002Sol     HW 7160   2.594   1.771   3.650 -1.0631 -0.1956  1.5936
 1002Sol     HW 7161   2.624   1.623   3.637  0.3602  0.2467 -0.3686
 1002Sol     MW 7162   2.564   1.687   3.659 -0.2104 -0.2828 -0.0653
 1003Sol     OW 7163   0.280   0.862   7.139  0.4632 -0.7687  0.7166
 1003Sol     HW 7164   0.330   0.943   7.147 -0.7197 -0.0387  0.9693
 1003Sol     HW 7165   0.345   0.794   7.124  1.3087  0.6163 -2.2889
 1003Sol     MW 7166   0.290   0.863   7.138  0.1155  0.4386 -0.0180
 1004Sol     OW 7167   2.225   2.327   3.935  0.1846  0.2064 -0.1543
 1004Sol     HW 7168   2.207   2.235   3.915  2.1522 -0.4584  0.9705
 1004Sol     HW 7169   2.250   2.326   4.028 -0.4834  1.9875  0.0499
 1004Sol     MW 7170   2.225   2.318   3.942  0.0844 -0.4395  0.2394
 1005Sol     OW 7171   0.435   1.914   2.451  0.3189 -0.2479 -0.0527
 1005Sol     HW 7172   0.392   1.832   2.475  2.4148 -1.6491 -0.9600
 1005Sol     HW 7173   0.441   1.963   2.533 -1.7962 -0.5670  0.3203
 1005Sol     MW 7174   0.432   1.911   2.461  0.3278  0.3376  0.1472
 1006Sol     OW 7175   1.489   3.450   9.159  0.3549  0.0788  0.5425
 1006Sol     HW 7176   1.448   3.376   9.205 -0.6221  0.4571  0.2926
 1006Sol     HW 7177   1.500   3.517   9.226  1.3359 -0.3194  0.7933
 1006Sol     MW 7178   1.486   3.449   9.169 -0.1369 -0.3319  0.0298
 1007Sol     OW 7179   0.606   0.373   1.562 -0.5589  0.2698 -0.6223
 1007Sol     HW 7180   0.527   0.427   1.571 -0.3330  0.8261 -1.8653
 1007Sol     HW 7181   0.603   0.314   1.637 -0.4916  2.4271  1.1184
 1007Sol     MW 7182   0.599   0.372   1.569  0.2450  0.0513 -0.2830
 1008Sol     OW 7183   2.142   0.112   8.808 -0.1464 -0.4604  0.4601
 1008Sol     HW 7184   2.114   0.020   8.818  0.2752 -0.4550  1.7886
 1008Sol     HW 7185   2.062   0.163   8.822 -0.0822 -0.5624  1.1771
 1008Sol     MW 7186   2.132   0.108   8.810 -0.0220  0.5362 -0.2979
 1009Sol     OW 7187   1.123   3.435   6.674  0.3682  0.0916  0.1548
 1009Sol     HW 7188   1.116   3.379   6.597  0.1273  0.4133 -0.0565
 1009Sol     HW 7189   1.204   3.485   6.660  0.2769  0.2151  0.0676
 1009Sol     MW 7190   1.130   3.435   6.666 -0.2223  0.6420  0.4538
 1010Sol     OW 7191   2.782   2.670   9.230  0.5938 -0.0016  0.0191
 1010Sol     HW 7192   2.825   2.748   9.265 -3.4682  1.4233  2.1976
 1010Sol     HW 7193   2.790   2.605   9.300 -0.5998  0.2415  0.4006
 1010Sol     MW 7194   2.786   2.671   9.239 -0.4267 -0.1092 -0.3792
 1011Sol     OW 7195   1.089   2.800   6.033 -0.2614  0.0961 -0.0724
 1011Sol     HW 7196   1.029   2.840   6.094  0.5454 -2.2943  2.3897
 1011Sol     HW 7197   1.036   2.736   5.985 -0.1549 -0.5380  0.6426
 1011Sol     MW 7198   1.079   2.798   6.034  0.3485 -0.8892  0.0384
 1012Sol     OW 7199   0.318   0.121   8.371 -0.5804 -0.9626 -0.0996
 1012Sol     HW 7200   0.241   0.178   8.371 -0.0491 -0.2321  0.6222
 1012Sol     HW 7201   0.345   0.117   8.463  0.6839 -0.5967 -0.4410
 1012Sol     MW 7202   0.314   0.126   8.379  0.2588  0.2425  0.2118
 1013Sol     OW 7203   3.287   3.054   6.884 -0.6246  0.1917 -0.1669
 1013Sol     HW 7204   3.382   3.051   6.880 -0.5962  0.4983  0.2650
 1013Sol     HW 7205   3.258   3.024   6.797 -0.1454 -0.1856 -0.1969
 1013Sol     MW 7206   3.293   3.051   6.876  0.1645  0.1685  0.0691
 1014Sol     OW 7207   0.530   0.117   2.044  0.6463  0.5767 -0.4364
 1014Sol     HW 7208   0.435   0.115   2.030  0.3756 -0.2023  1.4177
 1014Sol     HW 7209   0.546   0.202   2.085  0.4490 -0.1534  1.1917
 1014Sol     MW 7210   0.523   0.125   2.046 -0.4884  0.2705  0.2707
 1015Sol     OW 7211   0.573   3.423   7.772  0.1103 -0.4172  0.4159
 1015Sol     HW 7212   0.630   3.352   7.802  0.8274 -0.7140 -1.5633
 1015Sol     HW 7213   0.485   3.385   7.771  0.4355 -1.1724 -0.2575
 1015Sol     MW 7214   0.570   3.413   7.774 -0.0309  0.1074  0.1975
 1016Sol     OW 7215   1.307   2.891   5.553 -0.3677  0.6556  0.5295
 1016Sol     HW 7216   1.247   2.905   5.480 -0.1671  0.0859  0.2535
 1016Sol     HW 7217   1.252   2.900   5.631 -0.4573  1.8729  0.3231
 1016Sol     MW 7218   1.297   2.893   5.553 -0.5433  0.2021  0.4386
 1017Sol     OW 7219   0.355   1.795   6.381  0.1448  1.0150  0.6714
 1017Sol     HW 7220   0.304   1.831   6.308 -3.0123  1.2879  2.8814
 1017Sol     HW 7221   0.329   1.848   6.456 -0.6409 -2.5135  2.9888
 1017Sol     MW 7222   0.348   1.803   6.381  0.0784 -0.1189 -0.0091
 1018Sol     OW 7223   0.379   2.026   3.612  0.0538 -0.3061  0.7132
 1018Sol     HW 7224   0.436   1.981   3.550  0.4012  2.5605 -1.1257
 1018Sol     HW 7225   0.303   1.969   3.621  1.0933 -1.9014 -0.4844
 1018Sol     MW 7226   0.377   2.017   3.608 -0.2525  0.7734 -0.2492
 1019Sol     OW 7227   0.932   2.500   8.257 -0.1491 -0.2325 -0.5468
 1019Sol     HW 7228   0.903   2.408   8.251 -0.0340 -0.4536  2.0895
 1019Sol     HW 7229   1.012   2.503   8.205  0.7759 -2.0370  0.7127
 1019Sol     MW 7230   0.936   2.492   8.251 -0.0050  0.2405  0.2605
 1020Sol     OW 7231   1.334   0.501   8.523 -0.0508  0.2416  0.2635
 1020Sol     HW 7232   1.373   0.588   8.532 -0.2101  0.3678 -0.2708
 1020Sol     HW 7233   1.367   0.453   8.599  3.2540 -0.4425 -1.5037
 1020Sol     MW 7234   1.341   0.505   8.531  0.2867 -0.4872 -0.5654
 1021Sol     OW 7235   0.379   1.554   5.322 -0.3426 -0.4732  0.1445
 1021Sol     HW 7236   0.447   1.587   5.264 -1.1002 -0.8391 -0.9607
 1021Sol     HW 7237   0.312   1.520   5.264 -0.5187 -2.0508  1.2531
 1021Sol     MW 7238   0.379   1.554   5.312 -0.0669 -0.6578 -0.4251
 1022Sol     OW 7239   3.099   3.435   2.393  0.1442  0.0480  0.0825
 1022Sol     HW 7240   3.056   3.378   2.457 -1.0425  1.2549  0.3820
 1022Sol     HW 7241   3.186   3.395   2.381 -0.2617 -1.2066  1.0865
 1022Sol     MW 7242   3.103   3.426   2.398 -0.7167 -0.0548 -0.0215
 1023Sol     OW 7243   1.528   2.147   5.061  0.4301 -0.6287 -0.0828
 1023Sol     HW 7244   1.527   2.094   4.982 -1.4627  1.9204 -1.8528
 1023Sol     HW 7245   1.456   2.114   5.114 -1.1162  0.5255 -1.4424
 1023Sol     MW 7246   1.522   2.140   5.059 -0.2416 -0.6495  0.2686
 1024Sol     OW 7247   1.112   2.949   3.134 -0.0123 -0.4693 -0.0450
 1024Sol     HW 7248   1.038   2.907   3.091 -0.1992 -1.1019  0.8697
 1024Sol     HW 7249   1.189   2.908   3.095 -0.1447  0.1141 -0.9209
 1024Sol     MW 7250   1.113   2.941   3.127 -0.1259  0.6111 -0.5160
 1025Sol     OW 7251   2.803   1.542   5.924  0.5225 -0.2306  0.6032
 1025Sol     HW 7252   2.778   1.485   5.851 -1.6939  0.8187  0.5121
 1025Sol     HW 7253   2.744   1.517   5.995 -0.5894  2.0613  0.5032
 1025Sol     MW 7254   2.795   1.534   5.924  0.6086  0.0013  0.0578
 1026Sol     OW 7255   1.338   0.172   2.608  0.1297  0.0877  0.0122
 1026Sol     HW 7256   1.307   0.247   2.659 -0.2293  0.7489 -1.1599
 1026Sol     HW 7257   1.258   0.132   2.574  0.3630 -0.3944  0.0358
 1026Sol     MW 7258   1.328   0.175   2.609  0.4717  0.7264  0.6389
 1027Sol     OW 7259   2.331   0.799   7.653  0.6141  0.1045 -0.1508
 1027Sol     HW 7260   2.287   0.845   7.725  3.2296 -0.1600  1.6738
 1027Sol     HW 7261   2.319   0.706   7.674  1.0279  0.0244 -0.2782
 1027Sol     MW 7262   2.326   0.795   7.662  0.6007 -0.3277  0.4590
 1028Sol     OW 7263   0.126   2.136   4.606  0.3209 -0.1102  0.4396
 1028Sol     HW 7264   0.172   2.111   4.526  1.4294  0.8360  0.7641
 1028Sol     HW 7265   0.196   2.153   4.669 -0.4656  1.1877  0.9880
 1028Sol     MW 7266   0.137   2.136   4.604 -0.3882 -0.3094 -0.3734
 1029Sol     OW 7267   2.990   0.458   4.665 -0.1695 -0.1588 -0.1364
 1029Sol     HW 7268   2.973   0.531   4.724 -2.4563 -1.0547  0.3591
 1029Sol     HW 7269   3.071   0.418   4.699 -0.0821  0.8471  0.8584
 1029Sol     MW 7270   2.996   0.461   4.673  0.1064 -0.2486 -0.3240
 1030Sol     OW 7271   1.107   1.424   2.334  0.1681 -0.0553 -0.0914
 1030Sol     HW 7272   1.152   1.343   2.358  0.0611 -0.3577 -0.9002
 1030Sol     HW 7273   1.130   1.438   2.243 -0.9745  0.0584 -0.3654
 1030Sol     MW 7274   1.113   1.418   2.328  0.2509 -0.2577 -0.0286
 1031Sol     OW 7275   1.462   1.054   2.791 -0.2102 -0.4446 -0.5348
 1031Sol     HW 7276   1.548   1.012   2.794 -0.4388 -0.8202  0.9791
 1031Sol     HW 7277   1.468   1.126   2.854 -1.9503 -2.3024  1.8202
 1031Sol     MW 7278   1.470   1.057   2.797 -0.3997  0.0198 -0.6493
 1032Sol     OW 7279   1.587   0.885   7.313  0.1503 -0.3050  0.2091
 1032Sol     HW 7280   1.559   0.940   7.240 -0.4160 -0.7853  0.0644
 1032Sol     HW 7281   1.528   0.809   7.311  2.0325 -1.8125 -0.7086
 1032Sol     MW 7282   1.580   0.883   7.306 -0.0834  0.3369 -1.0961
 1033Sol     OW 7283   1.256   2.689   2.165 -0.0984 -0.0972  0.2860
 1033Sol     HW 7284   1.215   2.634   2.098 -0.7347 -1.1192  1.5042
 1033Sol     HW 7285   1.253   2.777   2.128  1.3677 -0.8978 -1.9018
 1033Sol     MW 7286   1.252   2.692   2.156  0.2651 -0.0694  0.5871
 1034Sol     OW 7287   2.788   1.898   8.862 -0.2146 -0.4601 -0.2104
 1034Sol     HW 7288   2.872   1.872   8.899 -0.8857  0.7276  2.2170
 1034Sol     HW 7289   2.725   1.837   8.900 -0.6013 -0.7444 -1.2883
 1034Sol     MW 7290   2.790   1.890   8.869 -0.8001  0.7997  0.5276
 1035Sol     OW 7291   0.263   3.325   7.026 -0.0182 -0.0870 -0.3920
 1035Sol     HW 7292   0.178   3.299   7.062  0.0786  0.9636  0.6246
 1035Sol     HW 7293   0.283   3.257   6.962 -0.5994 -1.5420  0.9149
 1035Sol     MW 7294   0.257   3.316   7.024 -0.1342 -0.7155  0.3012
 1036Sol     OW 7295   1.244   2.796   8.399  0.0414 -0.0224 -0.1998
 1036Sol     HW 7296   1.150   2.811   8.404  0.1728  1.0587 -0.8151
 1036Sol     HW 7297   1.281   2.857   8.463  0.1746 -2.3283  2.0473
 1036Sol     MW 7298   1.239   2.803   8.406  0.2638 -0.8360  0.1034
 1037Sol     OW 7299   1.744   2.070   5.203  0.3710 -0.4774  0.1352
 1037Sol     HW 7300   1.710   1.995   5.251  1.3312  0.3062  2.1138
 1037Sol     HW 7301   1.689   2.076   5.125 -1.2453 -1.7631  1.1516
 1037Sol     MW 7302   1.736   2.064   5.200 -0.0172 -0.0826 -0.5333
 1038Sol     OW 7303   0.837   2.808   5.430  0.5997 -0.2557 -0.0233
 1038Sol     HW 7304   0.928   2.828   5.405  0.4858  1.8911  1.1276
 1038Sol     HW 7305   0.785   2.841   5.357  0.6166  0.6821  0.3815
 1038Sol     MW 7306   0.841   2.813   5.421  0.3837 -0.5034 -0.1049
 1039Sol     OW 7307   2.129   0.082   4.392  0.1857  0.0942 -0.0618
 1039Sol     HW 7308   2.100   0.146   4.327 -0.0340 -0.1037 -0.1612
 1039Sol     HW 7309   2.051   0.029   4.409  0.4034 -0.2300 -0.0786
 1039Sol     MW 7310   2.119   0.083   4.387 -0.1935 -0.8543  0.4193
 1040Sol     OW 7311   2.180   1.358   9.086  0.5601 -0.1415 -0.1358
 1040Sol     HW 7312   2.239   1.395   9.152  0.5074  0.2035 -0.2841
 1040Sol     HW 7313   2.113   1.312   9.137  0.9492 -0.5279  0.0346
 1040Sol     MW 7314   2.179   1.357   9.097 -0.0399 -0.5825  0.4118
 1041Sol     OW 7315   0.463   0.520   8.571 -0.3258  0.1417 -0.1986
 1041Sol     HW 7316   0.458   0.521   8.666 -2.2841 -0.7824 -0.2757
 1041Sol     HW 7317   0.381   0.558   8.541  0.5994  1.1598 -1.5392
 1041Sol     MW 7318   0.455   0.523   8.576 -1.0611 -0.6139 -0.6684
 1042Sol     OW 7319   1.514   0.111   9.441 -0.3434  0.2358  0.0849
 1042Sol     HW 7320   1.587   0.055   9.467 -2.0072 -1.7923  0.5141
 1042Sol     HW 7321   1.449   0.101   9.511 -2.1707 -0.1849 -1.6081
 1042Sol     MW 7322   1.514   0.105   9.449 -0.4128  0.0226  0.0358
 1043Sol     OW 7323   3.024   0.502   3.430  0.0008  0.0107  0.3459
 1043Sol     HW 7324   2.929   0.486   3.436 -0.3859  2.3493  1.0562
 1043Sol     HW 7325   3.049   0.529   3.518  1.5649 -1.5837  0.4183
 1043Sol     MW 7326   3.017   0.503   3.438 -0.1240 -0.0768  0.0979
 1044Sol     OW 7327   2.308   1.655   6.429 -0.0680 -0.7755  1.1022
 1044Sol     HW 7328   2.347   1.659   6.342 -1.1991  0.6003  0.6393
 1044Sol     HW 7329   2.344   1.731   6.475 -0.6731 -0.6262  1.3277
 1044Sol     MW 7330   2.315   1.662   6.426  0.0169 -0.3010  0.4839
 1045Sol     OW 7331   1.795   2.955   9.784 -0.7506  0.3007 -0.6802
 1045Sol     HW 7332   1.861   3.014   9.821 -0.3744 -0.9936  0.7773
 1045Sol     HW 7333   1.796   2.879   9.842 -1.8489 -0.7639 -2.0216
 1045Sol     MW 7334   1.801   2.954   9.793 -0.2382 -0.3303  0.3573
 1046Sol     OW 7335   0.789   1.354   8.919  0.1660 -0.3878  0.2669
 1046Sol     HW 7336   0.713   1.311   8.881  0.7858  0.0158 -1.4532
 1046Sol     HW 7337   0.761   1.444   8.936  0.6694  0.1538 -1.6848
 1046Sol     MW 7338   0.780   1.358   8.917 -0.0768 -0.2558  0.2805
 1047Sol     OW 7339   0.535   0.347   2.744  0.2998 -0.0065  0.8274
 1047Sol     HW 7340   0.530   0.419   2.682 -0.5030 -0.5113  0.2820
 1047Sol     HW 7341   0.617   0.303   2.724  0.0048 -0.2151  0.0558
 1047Sol     MW 7342   0.542   0.349   2.737 -0.2983  0.1742 -0.2689
 1048Sol     OW 7343   1.713   2.246   4.213 -0.7771 -0.5270  0.0669
 1048Sol     HW 7344   1.630   2.207   4.186 -1.9686  1.2523  1.0457
 1048Sol     HW 7345   1.751   2.182   4.273 -1.1319 -1.6384 -0.8799
 1048Sol     MW 7346   1.709   2.237   4.216 -0.1251  0.8021 -0.3010
 1049Sol     OW 7347   0.216   0.165   9.724  0.2287  0.1553 -0.2250
 1049Sol     HW 7348   0.124   0.184   9.708 -0.3785 -1.0025  1.7468
 1049Sol     HW 7349   0.249   0.133   9.640 -1.5005 -0.7106 -0.5898
 1049Sol     MW 7350   0.211   0.164   9.715 -0.5019  0.4481  0.5228
 1050Sol     OW 7351   1.759   0.785   2.433 -0.0914 -0.7930  0.1768
 1050Sol     HW 7352   1.677   0.806   2.389 -0.2410 -1.0528  0.3286
 1050Sol     HW 7353   1.734   0.725   2.503 -0.0174  0.5668  1.3983
 1050Sol     MW 7354   1.750   0.781   2.436 -0.0669  0.0002 -0.3563
 1051Sol     OW 7355   1.487   1.706   9.816  0.0653  0.2896  0.4017
 1051Sol     HW 7356   1.462   1.797   9.798 -0.3288 -0.0094 -0.5630
 1051Sol     HW 7357   1.456   1.657   9.741  0.8862 -0.5523  0.6035
 1051Sol     MW 7358   1.482   1.710   9.808 -0.2902  0.1388 -0.2763
 1052Sol     OW 7359   0.172   2.566   8.752 -0.1518  0.0425  0.3524
 1052Sol     HW 7360   0.129   2.632   8.698 -0.0762 -0.2103 -0.0122
 1052Sol     HW 7361   0.222   2.617   8.816  1.3202  0.3529 -1.0337
 1052Sol     MW 7362   0.172   2.577   8.753 -0.2220  0.4700 -0.2281
 1053Sol     OW 7363   3.032   1.212   5.952 -0.2668 -0.1809 -0.5686
 1053Sol     HW 7364   3.125   1.191   5.960 -0.3919 -0.0340  1.5514
 1053Sol     HW 7365   3.027   1.305   5.976 -1.1790 -0.6461  1.1237
 1053Sol     MW 7366   3.040   1.219   5.955 -0.4879  0.1492 -0.3042
 1054Sol     OW 7367   2.836   3.293   4.591  0.4692 -0.2980  0.7308
 1054Sol     HW 7368   2.779   3.370   4.594 -0.4061 -0.9658  1.9347
 1054Sol     HW 7369   2.800   3.239   4.520 -0.4457 -0.7339  1.5087
 1054Sol     MW 7370   2.828   3.295   4.585 -0.5459  0.4107 -0.2940
 1055Sol     OW 7371   1.656   2.864   7.097 -0.2218 -0.1319  0.0016
 1055Sol     HW 7372   1.661   2.802   7.025  1.2959  0.4346 -0.4004
 1055Sol     HW 7373   1.729   2.925   7.082  0.4652 -0.3349  2.3163
 1055Sol     MW 7374   1.663   2.864   7.089  0.0308  0.4125  0.4727
 1056Sol     OW 7375   0.404   0.108   4.319 -0.1088 -0.2654 -0.2110
 1056Sol     HW 7376   0.468   0.055   4.273  0.6020  0.7518 -0.4158
 1056Sol     HW 7377   0.451   0.188   4.342 -1.7566  1.2272 -1.8367
 1056Sol     MW 7378   0.414   0.111   4.317  0.0227 -0.3065  0.1608
 1057Sol     OW 7379   3.126   1.566   8.204  0.5081 -0.8761 -0.1750
 1057Sol     HW 7380   3.129   1.660   8.192  2.4453 -1.0087 -0.9603
 1057Sol     HW 7381   3.213   1.543   8.236 -0.7203 -2.1032  2.3736
 1057Sol     MW 7382   3.134   1.572   8.206 -0.3144 -0.2317  0.3454
 1058Sol     OW 7383   0.467   0.737   2.803 -0.1055  0.3764  0.3772
 1058Sol     HW 7384   0.505   0.800   2.741  0.4019  1.0909  1.3918
 1058Sol     HW 7385   0.395   0.785   2.844 -1.1112 -0.4473 -0.4088
 1058Sol     MW 7386   0.464   0.747   2.801 -0.1152 -0.4946  0.3149
 1059Sol     OW 7387   3.122   2.280   4.126 -0.2472 -0.2143  0.0335
 1059Sol     HW 7388   3.089   2.191   4.134  1.7029 -0.9400  0.3231
 1059Sol     HW 7389   3.167   2.281   4.041  1.1038 -0.0037  0.7236
 1059Sol     MW 7390   3.123   2.272   4.119 -0.2298  0.4311 -0.4323
 1060Sol     OW 7391   0.196   3.121   8.231  0.3084  0.4027 -0.2245
 1060Sol     HW 7392   0.249   3.128   8.151  0.2283 -0.0437 -0.3190
 1060Sol     HW 7393   0.260   3.100   8.299  0.5268  1.8730  0.0321
 1060Sol     MW 7394   0.207   3.120   8.230  0.2824 -0.4763 -0.0927
 1061Sol     OW 7395   0.180   1.427   8.540  0.2984 -0.6338  0.2822
 1061Sol     HW 7396   0.232   1.508   8.547 -0.3825 -0.1330 -0.3549
 1061Sol     HW 7397   0.143   1.414   8.627  0.2683 -0.1551  0.3426
 1061Sol     MW 7398   0.181   1.433   8.548  0.1106 -0.2340 -0.0148
 1062Sol     OW 7399   3.172   2.528   4.659  0.1485  0.1408  0.2026
 1062Sol     HW 7400   3.179   2.450   4.604  1.4724 -0.8706  1.7404
 1062Sol     HW 7401   3.216   2.597   4.609 -1.0056 -0.0963 -1.1548
 1062Sol     MW 7402   3.177   2.527   4.650  0.1113 -0.5629  0.0503
 1063Sol     OW 7403   2.902   1.057   2.091  0.2462  0.4210 -0.0161
 1063Sol     HW 7404   2.815   1.045   2.130  0.1804 -0.1897 -0.3511
 1063Sol     HW 7405   2.884   1.072   1.998  0.5366 -0.3765 -0.2049
 1063Sol     MW 7406   2.893   1.057   2.086  0.6117  0.1371  0.0732
 1064Sol     OW 7407   0.840   0.478   4.217 -0.2292 -0.4203  0.3895
 1064Sol     HW 7408   0.848   0.568   4.249  1.1159 -0.2703 -0.3184
 1064Sol     HW 7409   0.749   0.454   4.234 -1.0356  1.6351 -0.8425
 1064Sol     MW 7410   0.833   0.484   4.222 -0.3769 -0.3204 -0.2228
 1065Sol     OW 7411   1.543   0.618   4.158  0.2094  0.3761 -0.0860
 1065Sol     HW 7412   1.561   0.679   4.229  1.5516 -0.3924  0.2467
 1065Sol     HW 7413   1.582   0.658   4.081  0.5659  0.2267  0.0165
 1065Sol     MW 7414   1.548   0.627   4.157  0.7551 -0.0079 -0.1758
 1066Sol     OW 7415   0.496   2.105   6.893 -0.3283 -0.4947 -0.3819
 1066Sol     HW 7416   0.405   2.077   6.902 -0.6028  0.4024 -0.3282
 1066Sol     HW 7417   0.509   2.113   6.799 -0.6379  0.4391 -0.3510
 1066Sol     MW 7418   0.489   2.103   6.886  0.1741 -0.4868  0.1790
 1067Sol     OW 7419   0.052   1.895   3.926  0.3373  0.6069 -0.0064
 1067Sol     HW 7420   0.134   1.944   3.918  0.9890 -0.2117  1.6293
 1067Sol     HW 7421   0.045   1.874   4.019 -1.4087  0.0961 -0.2309
 1067Sol     MW 7422   0.059   1.898   3.934  0.2124  0.6890  0.3037
 1068Sol     OW 7423   0.744   0.539   6.959  0.0027 -0.1873  0.2905
 1068Sol     HW 7424   0.802   0.474   6.918  2.1134  0.6423  1.8696
 1068Sol     HW 7425   0.802   0.612   6.981 -1.5708  0.5018  2.2944
 1068Sol     MW 7426   0.755   0.539   6.957 -0.0300 -0.1855  0.6027
 1069Sol     OW 7427   1.704   0.102   8.855  0.5701  0.1883 -0.1866
 1069Sol     HW 7428   1.724   0.044   8.781 -1.5123 -0.0979 -0.5508
 1069Sol     HW 7429   1.689   0.043   8.929  1.0808  0.4024  0.0926
 1069Sol     MW 7430   1.705   0.092   8.855 -0.0745 -0.0523 -0.5126
 1070Sol     OW 7431   0.412   0.557   1.626 -0.4557 -0.3915 -0.4143
 1070Sol     HW 7432   0.340   0.620   1.624  0.0285  0.2059  0.6244
 1070Sol     HW 7433   0.459   0.578   1.707  1.1253 -0.5175 -1.3024
 1070Sol     MW 7434   0.409   0.564   1.633 -0.2696  0.3297 -0.7344
 1071Sol     OW 7435   3.206   1.820   8.160 -0.1321  0.5834  0.7324
 1071Sol     HW 7436   3.114   1.844   8.174 -0.2828 -0.4651  1.6295
 1071Sol     HW 7437   3.228   1.857   8.074 -1.3278  1.0189  0.6050
 1071Sol     MW 7438   3.200   1.826   8.153 -0.3788 -0.2403 -0.2359
 1072Sol     OW 7439   2.252   0.572   5.410 -0.0604 -0.2625  0.2576
 1072Sol     HW 7440   2.294   0.656   5.429  1.5564 -1.3480  1.5782
 1072Sol     HW 7441   2.158   0.589   5.420  0.4082  0.6661  3.4230
 1072Sol     MW 7442   2.247   0.581   5.413 -0.1711 -0.1485  0.2734
 1073Sol     OW 7443   0.188   0.915   9.640 -0.8453  0.3844 -0.3168
 1073Sol     HW 7444   0.124   0.893   9.707  0.3239 -1.6440  0.1639
 1073Sol     HW 7445   0.160   0.866   9.563 -2.5015  3.1340 -1.5292
 1073Sol     MW 7446   0.180   0.909   9.639  0.0445 -0.4871  0.1811
 1074Sol     OW 7447   2.060   2.105   8.629 -0.1255 -0.2625  0.2952
 1074Sol     HW 7448   1.994   2.082   8.564  0.7546  0.0015 -0.7179
 1074Sol     HW 7449   2.120   2.030   8.629  0.1227 -0.0644  0.4729
 1074Sol     MW 7450   2.060   2.096   8.623  0.1888 -0.3868 -0.1152
 1075Sol     OW 7451   2.123   3.267   8.514 -0.3737  0.6243 -0.0064
 1075Sol     HW 7452   2.090   3.356   8.522  2.5799  2.1163 -3.0013
 1075Sol     HW 7453   2.206   3.268   8.561  0.2767 -0.1467 -1.0968
 1075Sol     MW 7454   2.128   3.275   8.519  0.3931  0.5002 -0.2574
 1076Sol     OW 7455   2.232   1.039   5.472  0.0470  0.1214 -0.5581
 1076Sol     HW 7456   2.206   1.064   5.384 -1.4074  2.8622  0.5990
 1076Sol     HW 7457   2.150   1.025   5.519  0.7924 -3.9757 -0.2786
 1076Sol     MW 7458   2.223   1.040   5.469  0.0591  0.2797 -0.5274
 1077Sol     OW 7459   0.668   2.319   8.343 -0.9050  0.5239  0.1413
 1077Sol     HW 7460   0.712   2.301   8.260 -0.6299  1.9621 -0.0539
 1077Sol     HW 7461   0.580   2.283   8.333 -0.3159 -0.8634 -0.1077
 1077Sol     MW 7462   0.664   2.315   8.335  0.5087  0.2800 -0.3283
 1078Sol     OW 7463   3.051   1.999   7.616  0.9043 -0.0986  0.0316
 1078Sol     HW 7464   2.973   1.999   7.562  1.4665 -1.9586 -0.8350
 1078Sol     HW 7465   3.112   1.940   7.571  1.7778 -0.8440  2.1226
 1078Sol     MW 7466   3.050   1.994   7.607  0.2210  0.6387 -0.1936
 1079Sol     OW 7467   1.407   1.275   6.289 -0.1361 -0.6485  0.2477
 1079Sol     HW 7468   1.404   1.307   6.379 -1.3191 -1.7203  0.5969
 1079Sol     HW 7469   1.366   1.345   6.238 -2.0136 -1.2308  0.9112
 1079Sol     MW 7470   1.403   1.284   6.292 -0.5234  0.1169 -0.0244
 1080Sol     OW 7471   0.536   3.119   3.369 -0.2238  0.5915 -0.1888
 1080Sol     HW 7472   0.584   3.153   3.294  1.7712 -0.4817  0.5717
 1080Sol     HW 7473   0.480   3.191   3.397  0.9131  1.8502 -1.1226
 1080Sol     MW 7474   0.535   3.128   3.365 -0.1310 -0.7470  0.3086
 1081Sol     OW 7475   3.208   3.299   6.967 -0.3305  0.1746  0.1712
 1081Sol     HW 7476   3.247   3.332   7.048 -0.2803 -1.1858  0.7160
 1081Sol     HW 7477   3.238   3.208   6.961  1.2630  0.8102 -2.3899
 1081Sol     MW 7478   3.214   3.293   6.974  0.0795 -0.4717 -0.2286
 1082Sol     OW 7479   0.807   2.696   5.865 -0.3459  0.4255  0.1761
 1082Sol     HW 7480   0.757   2.639   5.807  0.6697  0.6430 -0.9413
 1082Sol     HW 7481   0.839   2.766   5.808  0.1796  0.9656  1.1134
 1082Sol     MW 7482   0.805   2.697   5.855  0.7378  0.4415  0.3050
 1083Sol     OW 7483   2.228   1.844   8.571  0.3591 -0.1086 -0.1434
 1083Sol     HW 7484   2.267   1.783   8.508 -0.9015 -0.0073 -1.0528
 1083Sol     HW 7485   2.135   1.820   8.572 -0.4169  2.6478 -1.5243
 1083Sol     MW 7486   2.223   1.836   8.565  0.3936  0.0860 -0.5929
 1084Sol     OW 7487   0.196   0.639   6.756  0.6136 -0.4327  0.3609
 1084Sol     HW 7488   0.250   0.561   6.738  0.2303 -0.6622  0.2126
 1084Sol     HW 7489   0.254   0.713   6.737  1.5671 -0.6717  2.1499
 1084Sol     MW 7490   0.206   0.638   6.753 -0.0539  0.0215 -0.4525
 1085Sol     OW 7491   1.543   3.301   7.362 -0.0121 -0.2829  0.0316
 1085Sol     HW 7492   1.485   3.259   7.298  1.1852 -1.0998 -0.5383
 1085Sol     HW 7493   1.614   3.238   7.375  1.7457  1.5025 -0.7154
 1085Sol     MW 7494   1.544   3.291   7.358 -0.8590  0.5110  0.3887
 1086Sol     OW 7495   2.651   1.414   8.159 -0.3320  0.3070 -0.4824
 1086Sol     HW 7496   2.746   1.401   8.158 -0.7823 -3.5214 -1.5488
 1086Sol     HW 7497   2.632   1.447   8.247  1.9412  1.0050 -0.2247
 1086Sol     MW 7498   2.658   1.416   8.167  0.1940  0.2439  0.2988
 1087Sol     OW 7499   1.795   1.438   8.690  0.0759 -0.5668  0.3729
 1087Sol     HW 7500   1.793   1.493   8.768  0.7917 -0.4023  0.2846
 1087Sol     HW 7501   1.753   1.357   8.716  1.2685 -0.9172  1.2607
 1087Sol     MW 7502   1.791   1.436   8.699  0.1679 -0.0188 -0.2739
 1088Sol     OW 7503   2.180   3.016   4.353  0.4089  0.1613  0.1693
 1088Sol     HW 7504   2.105   2.958   4.355 -0.3402  1.0766 -0.5719
 1088Sol     HW 7505   2.146   3.099   4.318  2.0322  0.1756 -1.4807
 1088Sol     MW 7506   2.170   3.019   4.350 -0.0527 -0.1270 -0.2904
 1089Sol     OW 7507   2.005   1.489   2.548 -0.0676 -0.0863  0.1516
 1089Sol     HW 7508   1.994   1.584   2.555 -2.3011 -0.4289  2.2257
 1089Sol     HW 7509   2.095   1.476   2.521  0.3580  2.6325  0.1877
 1089Sol     MW 7510   2.012   1.496   2.547  0.1206 -0.5906 -0.5705
 1090Sol     OW 7511   2.669   2.488   8.472 -0.3852 -0.3496  0.2085
 1090Sol     HW 7512   2.587   2.457   8.435 -0.4756 -0.6049  0.6275
 1090Sol     HW 7513   2.736   2.455   8.412 -0.7550  2.0951 -1.6429
 1090Sol     MW 7514   2.668   2.482   8.463  0.9795  0.6595  0.0371
 1091Sol     OW 7515   0.302   2.336   8.690 -0.3305 -0.2452 -0.7037
 1091Sol     HW 7516   0.358   2.375   8.624  0.7455 -0.8717 -0.1709
 1091Sol     HW 7517   0.234   2.402   8.706  0.9423  1.0195 -0.4727
 1091Sol     MW 7518   0.301   2.346   8.686  0.2402 -0.1796  0.2041
 1092Sol     OW 7519   0.400   0.830   2.160  0.2996  0.8076 -0.5262
 1092Sol     HW 7520   0.477   0.811   2.213  1.1027  1.1691 -1.5481
 1092Sol     HW 7521   0.365   0.911   2.198  1.5023  1.6690 -1.2210
 1092Sol     MW 7522   0.404   0.836   2.168  0.0735 -0.0158 -0.0503
 1093Sol     OW 7523   1.213   2.019   9.651 -0.3510  0.4973 -0.4241
 1093Sol     HW 7524   1.125   2.051   9.632 -0.6594 -0.0885  0.0127
 1093Sol     HW 7525   1.242   1.978   9.569  0.5476  2.9819 -1.4051
 1093Sol     MW 7526   1.208   2.018   9.642  0.0244  0.0525  0.2507
 1094Sol     OW 7527   1.461   2.610   8.384  0.0798 -1.2466 -0.8314
 1094Sol     HW 7528   1.370   2.636   8.402  0.7758 -0.3560  1.5501
 1094Sol     HW 7529   1.457   2.516   8.371 -1.1580 -1.2521 -0.4662
 1094Sol     MW 7530   1.452   2.604   8.384 -0.2207 -0.2878 -0.3016
 1095Sol     OW 7531   0.424   1.000   5.740  0.1069 -0.2447  0.6780
 1095Sol     HW 7532   0.484   1.071   5.719  0.5173 -0.7876 -0.0011
 1095Sol     HW 7533   0.337   1.036   5.723  0.3199  0.0442  0.1950
 1095Sol     MW 7534   0.421   1.009   5.737  0.7687  0.4220  0.7207
 1096Sol     OW 7535   2.869   1.103   1.796 -0.3508 -0.3069 -0.2987
 1096Sol     HW 7536   2.862   1.135   1.706 -1.2568  0.3016 -0.0141
 1096Sol     HW 7537   2.790   1.051   1.809 -0.4257 -0.0499  0.2820
 1096Sol     MW 7538   2.862   1.101   1.789 -0.1266  0.6170  0.1027
 1097Sol     OW 7539   1.235   1.592   4.534 -0.3023  0.3682  0.7349
 1097Sol     HW 7540   1.142   1.574   4.518 -0.3236  3.0517 -2.6225
 1097Sol     HW 7541   1.280   1.552   4.460  1.1058  0.3453  1.5939
 1097Sol     MW 7542   1.230   1.587   4.526  0.1659  0.0730  0.2571
 1098Sol     OW 7543   1.838   1.185   6.598 -0.2410  0.4003 -0.6150
 1098Sol     HW 7544   1.831   1.136   6.516  0.0868  0.7661 -0.8561
 1098Sol     HW 7545   1.914   1.241   6.587 -0.0368  0.2545  0.0447
 1098Sol     MW 7546   1.844   1.185   6.590 -0.3873 -0.7704  0.2074
 1099Sol     OW 7547   2.754   3.164   9.276 -0.2524 -0.2142  0.1738
 1099Sol     HW 7548   2.779   3.176   9.185 -2.1692  3.1779  0.0164
 1099Sol     HW 7549   2.688   3.095   9.274 -0.4456  0.0014 -1.0580
 1099Sol     MW 7550   2.750   3.159   9.268 -1.0846 -0.0420  0.2466
 1100Sol     OW 7551   0.387   2.372   5.668 -0.2530  0.2098 -0.4009
 1100Sol     HW 7552   0.431   2.421   5.599  0.2521  3.8751  2.3768
 1100Sol     HW 7553   0.324   2.434   5.705  0.6044 -1.0882  3.4629
 1100Sol     MW 7554   0.385   2.382   5.665 -0.2615 -0.6747  0.2806
 1101Sol     OW 7555   3.327   3.173   5.533 -0.6974 -0.0610  0.3486
 1101Sol     HW 7556   3.358   3.106   5.593 -0.8692  0.7096  1.3117
 1101Sol     HW 7557   3.364   3.149   5.448  1.6704  0.2547  1.2585
 1101Sol     MW 7558   3.333   3.165   5.531 -0.1295  0.1194 -0.2346
 1102Sol     OW 7559   0.418   0.657   3.190 -0.1148  0.5279  0.3427
 1102Sol     HW 7560   0.357   0.587   3.210 -1.5438  1.0370 -2.0193
 1102Sol     HW 7561   0.367   0.737   3.195  0.8028  1.1408  0.1757
 1102Sol     MW 7562   0.408   0.658   3.192 -0.0252  0.3866  0.1794
 1103Sol     OW 7563   1.226   0.381   4.402  0.2174 -0.4591  1.0329
 1103Sol     HW 7564   1.257   0.428   4.325  0.0919 -1.5835  0.2822
 1103Sol     HW 7565   1.256   0.434   4.476  1.8317 -0.2614  0.2608
 1103Sol     MW 7566   1.232   0.390   4.402  0.3538  0.3543 -0.3072
 1104Sol     OW 7567   1.767   2.922   8.613 -0.7926 -0.9467 -0.0227
 1104Sol     HW 7568   1.730   2.892   8.531  1.8415 -3.4028 -0.3785
 1104Sol     HW 7569   1.848   2.872   8.624 -0.6393 -0.1003  3.6604
 1104Sol     MW 7570   1.771   2.915   8.607 -0.1791 -0.1973 -0.4110
 1105Sol     OW 7571   2.145   1.780   5.467  0.7796 -0.1337  0.4164
 1105Sol     HW 7572   2.205   1.716   5.507  0.2132 -0.3909  0.8611
 1105Sol     HW 7573   2.058   1.753   5.497  0.5029  0.6231  0.2960
 1105Sol     MW 7574   2.143   1.772   5.473  0.2929 -0.1697 -0.4398
 1106Sol     OW 7575   0.536   3.395   2.849 -0.5692  0.1407  0.0827
 1106Sol     HW 7576   0.509   3.311   2.886 -1.3832 -0.4458 -1.7412
 1106Sol     HW 7577   0.594   3.433   2.915  1.0026 -2.5137  0.3360
 1106Sol     MW 7578   0.539   3.391   2.858 -0.4832  0.4057 -0.3367
 1107Sol     OW 7579   2.561   0.994   6.579  0.1006  0.5306  0.1377
 1107Sol     HW 7580   2.558   0.955   6.492  0.0664  0.3050  0.2368
 1107Sol     HW 7581   2.654   1.010   6.595  0.1688 -0.0018  0.3050
 1107Sol     MW 7582   2.569   0.992   6.573 -0.5555 -0.2199  0.7316
 1108Sol     OW 7583   0.378   1.618   9.583  0.7374 -0.1970  0.1505
 1108Sol     HW 7584   0.321   1.581   9.516  0.7633  2.2888 -1.3065
 1108Sol     HW 7585   0.343   1.584   9.665 -1.5227 -0.4367 -0.8626
 1108Sol     MW 7586   0.370   1.612   9.584  0.4225  0.7493  0.1369
 1109Sol     OW 7587   2.710   0.467   1.928  0.0502  0.3171  0.2019
 1109Sol     HW 7588   2.637   0.472   1.865 -0.4385 -2.9926  0.3706
 1109Sol     HW 7589   2.774   0.531   1.896 -3.1136  3.6754  0.3530
 1109Sol     MW 7590   2.709   0.473   1.919  0.5714  0.3101 -0.1547
 1110Sol     OW 7591   1.009   0.359   8.947  0.0256 -0.1200  0.2114
 1110Sol     HW 7592   1.071   0.387   8.880  2.6682 -1.0235  2.1804
 1110Sol     HW 7593   0.986   0.270   8.923 -1.6248  0.6744 -1.2695
 1110Sol     MW 7594   1.012   0.354   8.939 -0.2820 -0.3392 -0.0260
 1111Sol     OW 7595   2.121   2.394   9.322 -0.1308 -0.5929  0.2720
 1111Sol     HW 7596   2.121   2.382   9.227  0.7346  0.9163  0.0618
 1111Sol     HW 7597   2.032   2.422   9.342 -0.1617 -0.3528 -0.1798
 1111Sol     MW 7598   2.113   2.395   9.315 -0.4432 -0.1207  0.2181
 1112Sol     OW 7599   3.014   2.364   6.624  0.2436 -0.1573  0.5948
 1112Sol     HW 7600   2.929   2.379   6.666 -0.5817 -1.4318 -0.6086
 1112Sol     HW 7601   3.010   2.417   6.544  1.2623  1.1333  1.3748
 1112Sol     MW 7602   3.006   2.370   6.621 -0.3531 -0.2239  0.3139
 1113Sol     OW 7603   0.751   0.291   8.314 -0.1113  0.1085 -0.0242
 1113Sol     HW 7604   0.743   0.306   8.408  0.0736  1.3817 -0.2072
 1113Sol     HW 7605   0.776   0.376   8.278  1.8692 -0.8499 -0.9800
 1113Sol     MW 7606   0.753   0.300   8.319 -0.0631  0.1440  0.4381
 1114Sol     OW 7607   1.977   3.112   5.347  0.0104  0.5286  0.2558
 1114Sol     HW 7608   2.071   3.099   5.360 -0.0316  1.1980  1.2481
 1114Sol     HW 7609   1.937   3.082   5.429 -0.6274  0.4378 -0.0888
 1114Sol     MW 7610   1.982   3.108   5.355 -0.1230 -0.1936 -0.0665
 1115Sol     OW 7611   1.374   0.708   3.486  0.4827 -0.5532 -0.1573
 1115Sol     HW 7612   1.284   0.731   3.512  0.4347 -1.2251  0.2691
 1115Sol     HW 7613   1.363   0.651   3.410  0.5376 -0.9331  0.1197
 1115Sol     MW 7614   1.365   0.705   3.481 -0.7209  0.5202  0.2232
 1116Sol     OW 7615   0.598   1.486   2.799 -0.0879  0.0314 -0.1015
 1116Sol     HW 7616   0.568   1.565   2.753  1.0829  0.4516 -0.1569
 1116Sol     HW 7617   0.560   1.414   2.749  0.4893  0.5057 -1.2516
 1116Sol     MW 7618   0.592   1.487   2.790  0.3871 -0.4301 -0.3066
 1117Sol     OW 7619   3.199   2.259   9.677 -0.0272 -0.3550 -0.4010
 1117Sol     HW 7620   3.193   2.354   9.682 -0.5563 -0.3426 -1.1845
 1117Sol     HW 7621   3.279   2.243   9.627  0.3476 -0.3340  0.1866
 1117Sol     MW 7622   3.206   2.266   9.673 -0.2369  0.7351  0.0614
 1118Sol     OW 7623   2.424   2.620   8.626 -0.0739 -0.6040 -0.4126
 1118Sol     HW 7624   2.508   2.586   8.657 -0.1530 -1.1753 -0.8170
 1118Sol     HW 7625   2.400   2.687   8.690  0.0620 -1.3465  0.4199
 1118Sol     MW 7626   2.430   2.623   8.635 -0.0399  0.2615  0.6424
 1119Sol     OW 7627   1.915   1.437   4.878  0.1221 -0.0468  0.0069
 1119Sol     HW 7628   1.833   1.390   4.863  0.9657 -1.2248 -1.0088
 1119Sol     HW 7629   1.906   1.517   4.827  0.1686 -0.8421 -1.2813
 1119Sol     MW 7630   1.907   1.440   4.872  0.3862  0.5364  0.7654
 1120Sol     OW 7631   2.849   0.145   6.911 -0.0301 -0.2639 -0.5085
 1120Sol     HW 7632   2.768   0.184   6.942  0.9273  1.3160  0.0704
 1120Sol     HW 7633   2.836   0.132   6.817 -0.8750  0.1365 -0.4440
 1120Sol     MW 7634   2.841   0.147   6.905  0.8061  0.4333  0.5512
 1121Sol     OW 7635   0.052   3.454   9.316  0.3841  0.2322  0.0709
 1121Sol     HW 7636   0.043   3.432   9.223  0.6199 -0.8825  0.3033
 1121Sol     HW 7637  -0.016   3.519   9.332 -0.9268 -0.9752 -0.4501
 1121Sol     MW 7638   0.045   3.458   9.309  0.2091 -0.1802  1.0298
 1122Sol     OW 7639   1.120   2.900   2.833 -0.2684  0.7789 -0.8714
 1122Sol     HW 7640   1.086   2.838   2.898  0.1791  0.9983 -0.4208
 1122Sol     HW 7641   1.141   2.846   2.757 -1.1419  0.5737 -0.9656
 1122Sol     MW 7642   1.119   2.890   2.832  0.4491 -0.7838  0.5444
 1123Sol     OW 7643   0.213   0.805   8.205  0.6556 -0.1599 -0.1408
 1123Sol     HW 7644   0.162   0.778   8.129 -1.1837  1.2765  0.5582
 1123Sol     HW 7645   0.199   0.736   8.270 -0.8444  0.4942  0.2376
 1123Sol     MW 7646   0.207   0.796   8.204 -0.2405  0.7200 -0.5958
 1124Sol     OW 7647   2.903   0.018   2.913 -0.3725  0.3601  0.1936
 1124Sol     HW 7648   2.896   0.110   2.890 -1.8280  0.1527 -0.2489
 1124Sol     HW 7649   2.862   0.011   2.999  0.2965  0.2306  0.5028
 1124Sol     MW 7650   2.899   0.025   2.918 -0.6591  0.0786 -0.3615
 1125Sol     OW 7651   2.559   0.513   4.910 -0.1481 -0.3321 -0.7758
 1125Sol     HW 7652   2.607   0.505   4.993 -0.2006  0.4274 -0.6676
 1125Sol     HW 7653   2.502   0.436   4.908 -2.0711  0.9550  1.1717
 1125Sol     MW 7654   2.558   0.506   4.918 -0.4082  0.3741  0.6031
 1126Sol     OW 7655   2.172   0.364   3.480  0.1418  0.2760  0.4741
 1126Sol     HW 7656   2.201   0.383   3.391 -1.0404  1.8047  0.3915
 1126Sol     HW 7657   2.245   0.390   3.535  1.1455 -1.3013 -0.0641
 1126Sol     MW 7658   2.181   0.368   3.477 -0.3494  0.2692 -0.2438
 1127Sol     OW 7659   2.202   3.234   2.904 -0.4290  0.1672  0.0987
 1127Sol     HW 7660   2.227   3.241   2.811 -0.1385  0.2025  0.1792
 1127Sol     HW 7661   2.280   3.200   2.947 -1.3911 -2.3045 -0.0619
 1127Sol     MW 7662   2.211   3.232   2.899 -0.2436 -0.1468 -0.0779
 1128Sol     OW 7663   0.003   2.519   7.616  0.3160  0.5920  0.5869
 1128Sol     HW 7664  -0.066   2.576   7.651 -0.0789  0.3826  0.1530
 1128Sol     HW 7665   0.012   2.546   7.525 -0.1874 -0.3397  0.2561
 1128Sol     MW 7666  -0.003   2.526   7.611 -0.4454 -0.3948 -0.2487
 1129Sol     OW 7667   2.467   0.107   4.654  0.0855  0.1775  0.4960
 1129Sol     HW 7668   2.543   0.107   4.597 -2.2917 -0.8225 -2.8341
 1129Sol     HW 7669   2.461   0.017   4.687  0.2872  0.2208  0.6476
 1129Sol     MW 7670   2.473   0.099   4.652  0.1069 -0.0645  0.1083
 1130Sol     OW 7671   2.568   0.527   9.389  0.4068 -0.1460  0.1271
 1130Sol     HW 7672   2.585   0.621   9.386  1.4045 -0.3178  0.2705
 1130Sol     HW 7673   2.654   0.486   9.376 -0.2028 -1.0420 -1.1783
 1130Sol     MW 7674   2.577   0.531   9.388  0.1975 -0.4063  0.5252
 1131Sol     OW 7675   0.274   1.166   7.723  0.1369 -0.0034 -0.0637
 1131Sol     HW 7676   0.290   1.086   7.773 -0.5705  0.3199  0.6755
 1131Sol     HW 7677   0.192   1.201   7.758 -0.1164  0.4779 -1.1114
 1131Sol     MW 7678   0.268   1.162   7.730  0.1065  0.5251  0.3788
 1132Sol     OW 7679   0.953   0.715   6.842 -0.1551 -0.4148  0.2382
 1132Sol     HW 7680   0.941   0.670   6.759 -0.7026  0.8416 -0.3793
 1132Sol     HW 7681   1.048   0.722   6.853 -0.0770 -1.1107  0.0181
 1132Sol     MW 7682   0.960   0.712   6.836 -0.5493  0.1513  0.0418
 1133Sol     OW 7683   2.319   0.218   3.832  0.0507 -0.6677  0.0775
 1133Sol     HW 7684   2.316   0.249   3.923  0.4110 -0.3645 -0.0101
 1133Sol     HW 7685   2.344   0.126   3.839 -1.2639 -1.0214  0.3542
 1133Sol     MW 7686   2.321   0.213   3.841  0.7544  0.1563 -1.0041
 1134Sol     OW 7687   0.306   0.650   4.379 -0.2967 -0.1047  0.0900
 1134Sol     HW 7688   0.364   0.683   4.311 -2.6275  1.0177 -1.4444
 1134Sol     HW 7689   0.309   0.555   4.369 -0.3052  0.0272 -1.3490
 1134Sol     MW 7690   0.311   0.645   4.372  0.3236  0.2406 -0.3995
 1135Sol     OW 7691   1.686   2.672   2.977  0.8066  0.4976 -0.5684
 1135Sol     HW 7692   1.726   2.741   2.924  1.7371  0.8801  0.6026
 1135Sol     HW 7693   1.592   2.687   2.969  1.0087  2.3678  0.2355
 1135Sol     MW 7694   1.681   2.680   2.972  0.0758  0.5322 -0.0194
 1136Sol     OW 7695   0.565   3.041   1.831 -0.3059 -0.2262  0.2068
 1136Sol     HW 7696   0.654   3.027   1.863 -0.1243 -0.8970 -0.5697
 1136Sol     HW 7697   0.547   3.133   1.847  0.6385 -0.0265  0.0956
 1136Sol     MW 7698   0.571   3.048   1.835 -0.5707  0.5247 -0.1776
 1137Sol     OW 7699   2.333   0.264   6.994 -0.3904  0.1671  0.2870
 1137Sol     HW 7700   2.284   0.346   6.996 -0.4964  0.0953  0.6313
 1137Sol     HW 7701   2.312   0.221   7.077 -1.3647 -0.8025 -0.4530
 1137Sol     MW 7702   2.327   0.267   7.002 -0.0085  0.0470  0.4522
 1138Sol     OW 7703   0.050   1.954   6.545 -0.0059 -0.7817 -0.2671
 1138Sol     HW 7704   0.031   1.953   6.451 -0.9475 -1.2866 -0.0835
 1138Sol     HW 7705  -0.031   1.986   6.585  0.9143  0.9449  0.2646
 1138Sol     MW 7706   0.041   1.957   6.540 -0.0426 -0.4081  0.1178
 1139Sol     OW 7707   0.481   0.108   7.542 -0.2600  1.7254  0.4442
 1139Sol     HW 7708   0.500   0.199   7.565 -0.7976  1.2089  3.1559
 1139Sol     HW 7709   0.534   0.057   7.603 -0.2448  0.2215 -0.8145
 1139Sol     MW 7710   0.487   0.112   7.550  0.2563 -0.1124 -0.0414
 1140Sol     OW 7711   2.047   2.776   5.988  0.0456  0.1461  0.1980
 1140Sol     HW 7712   2.112   2.792   5.919  0.5451 -2.3631  0.0575
 1140Sol     HW 7713   2.090   2.714   6.047 -1.0621  0.8967  1.8207
 1140Sol     MW 7714   2.057   2.772   5.987  0.3291 -0.1103 -0.3547
 1141Sol     OW 7715   2.101   3.291   1.861 -0.2382  0.2277 -0.2500
 1141Sol     HW 7716   2.069   3.377   1.888 -0.5200 -0.0083  0.1656
 1141Sol     HW 7717   2.026   3.233   1.873  0.1421 -0.1961  0.0652
 1141Sol     MW 7718   2.091   3.294   1.864  0.2874 -0.4066 -0.0680
 1142Sol     OW 7719   2.908   2.418   2.734 -0.4383 -0.8106 -0.2188
 1142Sol     HW 7720   2.915   2.401   2.828  0.5407  0.0940 -0.1160
 1142Sol     HW 7721   2.998   2.427   2.705 -0.7838  1.2551 -0.7882
 1142Sol     MW 7722   2.916   2.418   2.740  0.4793  0.0940 -0.5694
 1143Sol     OW 7723   0.077   3.079   6.437  0.5935  0.0976 -0.3251
 1143Sol     HW 7724   0.018   3.123   6.375 -0.5988  0.2532  0.8795
 1143Sol     HW 7725   0.133   3.149   6.470  0.1869  0.3092 -0.0742
 1143Sol     MW 7726   0.076   3.089   6.434 -0.1392 -0.1409  0.1298
 1144Sol     OW 7727   0.149   1.376   5.439 -0.3615 -0.2655 -0.7601
 1144Sol     HW 7728   0.194   1.317   5.379 -0.6248 -0.4356 -0.7902
 1144Sol     HW 7729   0.059   1.345   5.440 -0.3125 -0.3746 -0.1291
 1144Sol     MW 7730   0.145   1.368   5.433  0.1271  0.0036 -0.6035
 1145Sol     OW 7731   1.711   2.918   3.187  0.2689  0.3940 -0.0531
 1145Sol     HW 7732   1.768   2.993   3.168  0.6558 -0.0467 -0.6524
 1145Sol     HW 7733   1.744   2.848   3.130 -1.6624  0.4922 -1.3313
 1145Sol     MW 7734   1.719   2.918   3.180  0.4068 -0.2706 -0.0756
 1146Sol     OW 7735   0.965   1.527   4.504 -0.4131 -0.5481  0.5023
 1146Sol     HW 7736   0.951   1.567   4.418 -0.0307  4.1240  2.4746
 1146Sol     HW 7737   0.880   1.529   4.547  0.3123  1.5303  1.9295
 1146Sol     MW 7738   0.956   1.530   4.500 -0.1306 -0.0322 -0.0248
 1147Sol     OW 7739   2.786   0.081   6.637 -0.0794 -0.2604 -0.5563
 1147Sol     HW 7740   2.713   0.141   6.621  1.2194  1.3154 -0.6571
 1147Sol     HW 7741   2.745  -0.006   6.640 -2.0463  0.6501  0.0237
 1147Sol     MW 7742   2.776   0.078   6.636  0.0350  0.0243  0.1901
 1148Sol     OW 7743   2.477   2.689   9.564 -0.2962 -0.1448 -0.4278
 1148Sol     HW 7744   2.491   2.666   9.472 -2.1836 -0.4303 -0.6622
 1148Sol     HW 7745   2.520   2.774   9.573  2.3645 -1.3866 -0.8241
 1148Sol     MW 7746   2.482   2.695   9.556  0.0107  0.3390  0.2096
 1149Sol     OW 7747   3.091   0.352   6.337  0.4018  0.7657  0.3447
 1149Sol     HW 7748   3.127   0.295   6.270  0.7177  0.0945  1.0717
 1149Sol     HW 7749   3.061   0.292   6.405 -0.2002  1.4228  0.6547
 1149Sol     MW 7750   3.092   0.342   6.337  0.7357 -0.0355  0.7363
 1150Sol     OW 7751   2.674   1.381   5.711 -0.4459 -0.1817  0.3396
 1150Sol     HW 7752   2.603   1.368   5.775  0.1519  0.3263  1.1189
 1150Sol     HW 7753   2.686   1.295   5.671  0.1083 -0.8565  1.9085
 1150Sol     MW 7754   2.669   1.372   5.713  0.6820 -0.0477  0.2874
 1151Sol     OW 7755   2.575   3.335   8.408  0.3991  0.4042  0.2419
 1151Sol     HW 7756   2.576   3.243   8.384  2.1566  0.8989 -1.7002
 1151Sol     HW 7757   2.543   3.380   8.330  1.4627  1.6033  0.4786
 1151Sol     MW 7758   2.572   3.331   8.399  0.0699 -0.4611  0.2493
 1152Sol     OW 7759   2.167   1.086   6.381  0.0223 -0.9845  0.1354
 1152Sol     HW 7760   2.074   1.062   6.376 -0.4962  0.9601 -0.2605
 1152Sol     HW 7761   2.198   1.045   6.462 -1.7452  0.1052  1.4200
 1152Sol     MW 7762   2.161   1.080   6.388  0.0576  0.2635  0.0053
 1153Sol     OW 7763   1.901   3.001   5.604  0.0610  0.0786 -0.1637
 1153Sol     HW 7764   1.877   3.051   5.682 -2.4815 -1.3148 -0.0033
 1153Sol     HW 7765   1.962   2.934   5.636  1.9640  1.8132 -0.0571
 1153Sol     MW 7766   1.904   2.999   5.614 -0.0557 -0.1024  0.6896
 1154Sol     OW 7767   0.856   1.496   2.433  0.5681  0.0740  0.2132
 1154Sol     HW 7768   0.865   1.521   2.525  0.2305 -0.2288  0.3276
 1154Sol     HW 7769   0.945   1.473   2.405  0.4597 -1.1216  0.8291
 1154Sol     MW 7770   0.865   1.496   2.439 -0.0179  0.3725  0.2294
 1155Sol     OW 7771   3.292   2.729   8.326 -0.5765 -0.4996 -0.0715
 1155Sol     HW 7772   3.215   2.678   8.302 -0.1506 -1.7302  1.0965
 1155Sol     HW 7773   3.332   2.754   8.243 -2.5996  0.7281 -0.7008
 1155Sol     MW 7774   3.289   2.726   8.317  0.2415 -0.8183 -0.2661
 1156Sol     OW 7775   0.314   0.466   9.475  0.9105 -0.3391 -0.4333
 1156Sol     HW 7776   0.319   0.505   9.388 -0.4263 -1.0980 -0.8662
 1156Sol     HW 7777   0.349   0.533   9.534 -1.0464  1.4238 -1.1923
 1156Sol     MW 7778   0.317   0.475   9.473  0.0446  0.8078 -0.7503
 1157Sol     OW 7779   2.296   0.785   6.942 -0.5170  0.3513  0.0524
 1157Sol     HW 7780   2.230   0.824   6.885 -0.1011 -1.1128 -1.4527
 1157Sol     HW 7781   2.379   0.802   6.899 -0.1649 -0.4653  0.4065
 1157Sol     MW 7782   2.298   0.790   6.933  0.1855  0.0528  0.6532
 1158Sol     OW 7783   2.261   2.181   6.012 -0.1893  0.4778 -0.0971
 1158Sol     HW 7784   2.288   2.272   6.017  0.5250  0.2780 -0.2826
 1158Sol     HW 7785   2.276   2.146   6.100  0.2668  0.3384 -0.2285
 1158Sol     MW 7786   2.265   2.186   6.020 -0.0469 -0.2246  0.0105
 1159Sol     OW 7787   1.156   3.403   9.462  0.0482 -0.1724 -0.1128
 1159Sol     HW 7788   1.068   3.417   9.498 -0.5061  1.5131 -2.0528
 1159Sol     HW 7789   1.213   3.456   9.517  0.1041 -2.3015  1.9954
 1159Sol     MW 7790   1.153   3.409   9.470  0.7787  0.3672  0.8059
 1160Sol     OW 7791   2.413   3.420   3.823  0.0625  0.1852  0.1955
 1160Sol     HW 7792   2.495   3.462   3.796 -0.2830  0.9208  0.2978
 1160Sol     HW 7793   2.436   3.373   3.903  0.5505 -0.1769 -0.1504
 1160Sol     MW 7794   2.422   3.419   3.828 -0.3210  0.0892 -0.0097
 1161Sol     OW 7795   1.241   1.377   4.717  0.1280  0.1519  0.5422
 1161Sol     HW 7796   1.261   1.415   4.803  1.0959  2.2995 -0.6068
 1161Sol     HW 7797   1.247   1.450   4.656 -1.2842 -1.2051 -1.2778
 1161Sol     MW 7798   1.243   1.387   4.719 -0.6862  0.5105  0.0415
 1162Sol     OW 7799   1.917   2.464   6.432 -0.1361  0.1685 -0.2596
 1162Sol     HW 7800   1.885   2.440   6.346 -0.7228  1.5437 -0.4237
 1162Sol     HW 7801   2.012   2.474   6.420 -0.3138  1.1084 -0.9204
 1162Sol     MW 7802   1.923   2.463   6.423 -0.2524  0.7558 -0.1188
 1163Sol     OW 7803   1.074   0.327   3.697  0.3506  0.1333  0.4598
 1163Sol     HW 7804   1.114   0.241   3.705  0.2077  0.0702  0.4939
 1163Sol     HW 7805   1.005   0.316   3.631  1.0033  0.4636 -0.2903
 1163Sol     MW 7806   1.071   0.319   3.692 -0.2045  0.0725  0.3108
 1164Sol     OW 7807   2.381   1.623   8.834  0.2930  0.0622 -0.0270
 1164Sol     HW 7808   2.307   1.665   8.791 -0.5442  0.0332  1.3486
 1164Sol     HW 7809   2.373   1.531   8.810  0.0365  0.1097 -0.1278
 1164Sol     MW 7810   2.373   1.618   8.828 -0.4526  0.3772 -0.1178
 1165Sol     OW 7811   3.176   2.182   8.102  0.2677 -0.3604  0.5655
 1165Sol     HW 7812   3.106   2.142   8.154 -0.6141  2.3427  1.5050
 1165Sol     HW 7813   3.140   2.185   8.013  0.1350 -1.0912  0.5854
 1165Sol     MW 7814   3.166   2.178   8.098  0.1083  0.1545 -0.0503
 1166Sol     OW 7815   0.474   2.148   6.606 -0.3753 -0.0950 -0.2208
 1166Sol     HW 7816   0.412   2.217   6.633  0.3863  0.3970  0.2836
 1166Sol     HW 7817   0.469   2.148   6.510 -0.4312  0.6219 -0.2239
 1166Sol     MW 7818   0.468   2.155   6.600 -0.2490 -0.2858 -0.0628
 1167Sol     OW 7819   0.873   0.444   5.436  0.0454  0.4443  0.5405
 1167Sol     HW 7820   0.893   0.370   5.494  1.2870  1.3657  1.3185
 1167Sol     HW 7821   0.891   0.411   5.348  0.6417 -0.1655  0.8866
 1167Sol     MW 7822   0.876   0.435   5.434 -0.0916  0.2492 -0.4596
 1168Sol     OW 7823   2.785   1.881   7.045 -0.1230  0.4647 -0.8012
 1168Sol     HW 7824   2.752   1.971   7.042  1.4540  1.0521 -0.5419
 1168Sol     HW 7825   2.863   1.886   7.100 -0.8585 -1.3265  0.4410
 1168Sol     MW 7826   2.789   1.890   7.050  0.1176 -0.3737  0.0191
 1169Sol     OW 7827   1.332   1.747   8.343  0.4469  0.0238  0.1889
 1169Sol     HW 7828   1.298   1.707   8.263  0.9533  1.0376 -0.5410
 1169Sol     HW 7829   1.273   1.820   8.361  0.6191  0.0994  0.4582
 1169Sol     MW 7830   1.324   1.750   8.337 -0.3812 -0.4638 -0.6317
 1170Sol     OW 7831   0.342   0.147   2.749  0.0353 -0.1506  0.2624
 1170Sol     HW 7832   0.411   0.214   2.740  0.0758 -0.3308 -0.9200
 1170Sol     HW 7833   0.389   0.067   2.773  0.2067 -0.1926 -0.2036
 1170Sol     MW 7834   0.353   0.146   2.750 -0.0565 -0.5967 -0.1253
 1171Sol     OW 7835   0.256   0.933   2.904  0.2803 -0.0421 -0.2618
 1171Sol     HW 7836   0.199   0.944   2.980  0.2369  1.1312 -0.4583
 1171Sol     HW 7837   0.205   0.879   2.844  0.1569 -0.6417  0.3770
 1171Sol     MW 7838   0.246   0.929   2.906 -0.1695  0.7567  0.0827
 1172Sol     OW 7839   0.115   2.692   3.667  0.3025 -0.2334 -0.5933
 1172Sol     HW 7840   0.132   2.646   3.585  1.2757  1.0115 -1.0953
 1172Sol     HW 7841   0.027   2.729   3.656  1.5811  2.3875 -2.2369
 1172Sol     MW 7842   0.108   2.691   3.659  0.3258 -0.4769  0.6581
 1173Sol     OW 7843   1.799   2.275   5.773  0.1078 -0.0176 -0.1718
 1173Sol     HW 7844   1.730   2.334   5.804 -1.7105 -1.7281 -0.8616
 1173Sol     HW 7845   1.859   2.269   5.847 -0.8172  0.9855  0.6977
 1173Sol     MW 7846   1.798   2.280   5.782  0.8984  0.6843 -0.0954
 1174Sol     OW 7847   2.722   3.094   3.516 -0.6058  0.1835  0.5644
 1174Sol     HW 7848   2.787   3.163   3.525 -0.6328  0.2663  0.1538
 1174Sol     HW 7849   2.704   3.065   3.605  2.1606 -1.8852  0.4975
 1174Sol     MW 7850   2.726   3.098   3.524  0.1103 -0.5785  0.0462
 1175Sol     OW 7851   3.046   1.889   5.105 -0.2391 -0.5352 -0.3434
 1175Sol     HW 7852   2.978   1.823   5.089 -1.2491 -0.1364  2.1178
 1175Sol     HW 7853   3.091   1.859   5.184 -0.1001  1.2249  0.2613
 1175Sol     MW 7854   3.044   1.880   5.110 -0.0856  0.8182  0.3671
 1176Sol     OW 7855   0.258   2.594   3.087  0.2768 -0.3675 -0.1850
 1176Sol     HW 7856   0.185   2.654   3.088  0.5469 -0.0412  0.2099
 1176Sol     HW 7857   0.222   2.511   3.118 -0.1148 -0.4370 -0.8230
 1176Sol     MW 7858   0.249   2.592   3.090 -0.7194  0.7072  0.1077
 1177Sol     OW 7859   3.153   0.679   7.886  0.2146 -0.1492 -0.0197
 1177Sol     HW 7860   3.107   0.612   7.937  1.4675 -1.7270 -0.8918
 1177Sol     HW 7861   3.239   0.686   7.929  0.9628 -0.8760 -1.3526
 1177Sol     MW 7862   3.157   0.673   7.895 -0.6520  0.2005  0.1287
 1178Sol     OW 7863   0.125   2.232   8.096 -0.0654 -0.3386 -0.1097
 1178Sol     HW 7864   0.029   2.225   8.091 -0.2065  2.0218 -1.3905
 1178Sol     HW 7865   0.140   2.293   8.168  0.4544 -0.2703 -0.2754
 1178Sol     MW 7866   0.117   2.237   8.102 -0.0454 -0.5187 -0.5539
 1179Sol     OW 7867   1.257   0.210   6.202  0.6106  0.0653  0.1869
 1179Sol     HW 7868   1.339   0.172   6.170  0.6641  0.3596 -0.0228
 1179Sol     HW 7869   1.193   0.192   6.133  1.2681  2.7705 -1.1497
 1179Sol     MW 7870   1.259   0.205   6.193  0.3680  0.7855  0.1212
 1180Sol     OW 7871   0.007   2.504   1.798  0.1567  0.2404  0.2895
 1180Sol     HW 7872   0.093   2.536   1.770  0.3435  0.9863  1.6732
 1180Sol     HW 7873  -0.020   2.565   1.867 -1.4743 -0.0013 -0.1237
 1180Sol     MW 7874   0.012   2.513   1.802 -0.3195 -0.3253  0.2479
 1181Sol     OW 7875   1.939   3.176   9.140  0.7886 -0.5130  0.1891
 1181Sol     HW 7876   1.881   3.247   9.111 -1.1775 -0.9648  2.8575
 1181Sol     HW 7877   1.915   3.102   9.083 -2.0402 -0.9836  1.8830
 1181Sol     MW 7878   1.931   3.176   9.132 -0.3423 -0.0057  0.0453
 1182Sol     OW 7879   0.517   2.905   1.562 -0.3049  0.3705 -0.3222
 1182Sol     HW 7880   0.517   2.989   1.607 -0.0058  0.0920  0.1953
 1182Sol     HW 7881   0.425   2.884   1.551 -0.3879  1.0693 -1.0204
 1182Sol     MW 7882   0.509   2.911   1.565 -0.0799  0.4079  0.1064
 1183Sol     OW 7883   1.215   0.691   6.485 -0.5344 -0.0315 -0.4115
 1183Sol     HW 7884   1.237   0.611   6.436 -0.5301 -0.1799 -0.1684
 1183Sol     HW 7885   1.210   0.662   6.576 -0.1030  0.3330 -0.2708
 1183Sol     MW 7886   1.217   0.681   6.489 -0.6198  0.1224  0.6359
 1184Sol     OW 7887   0.101   1.335   7.866  0.1027 -0.1302  0.2653
 1184Sol     HW 7888   0.138   1.306   7.949  0.4141 -3.4202 -0.9345
 1184Sol     HW 7889   0.018   1.288   7.859  0.3840 -0.4037 -1.5399
 1184Sol     MW 7890   0.097   1.328   7.873  0.2587 -0.0098 -0.0391
 1185Sol     OW 7891   2.923   3.226   7.718 -0.1757 -0.5129 -0.2752
 1185Sol     HW 7892   2.872   3.240   7.638  0.5646 -1.7668 -0.9863
 1185Sol     HW 7893   2.988   3.160   7.693 -0.4521 -1.5110  1.5767
 1185Sol     MW 7894   2.924   3.221   7.708 -0.6590 -0.0465 -0.2087
 1186Sol     OW 7895   2.173   0.381   5.017  0.3912 -0.1752  0.1416
 1186Sol     HW 7896   2.105   0.349   4.959  1.3423 -0.6076 -0.7535
 1186Sol     HW 7897   2.167   0.476   5.012  0.0049 -0.2143 -0.1163
 1186Sol     MW 7898   2.167   0.387   5.012  0.3562 -0.0807  0.3614
 1187Sol     OW 7899   1.851   0.513   5.641  0.1567  0.5345 -0.6239
 1187Sol     HW 7900   1.911   0.499   5.714  0.2928 -1.1108 -1.0293
 1187Sol     HW 7901   1.794   0.584   5.670 -0.1262 -0.4447  1.2920
 1187Sol     MW 7902   1.852   0.518   5.650  0.6364  0.4806  0.3411
 1188Sol     OW 7903   2.186   3.199   6.523 -0.2734  0.3840  0.7166
 1188Sol     HW 7904   2.245   3.262   6.564  2.9898 -1.4286 -0.9476
 1188Sol     HW 7905   2.195   3.120   6.576  0.1570 -0.4414 -0.5695
 1188Sol     MW 7906   2.192   3.197   6.531 -0.1538  0.1186  0.0561
 1189Sol     OW 7907   1.059   2.582   2.357 -0.2724 -0.2195  0.1784
 1189Sol     HW 7908   0.996   2.654   2.360 -2.1545 -1.8613  0.9222
 1189Sol     HW 7909   1.098   2.588   2.270 -2.5059 -0.0616 -0.8412
 1189Sol     MW 7910   1.057   2.589   2.349 -0.0307  0.0827 -0.5478
 1190Sol     OW 7911   1.742   2.612   2.008  0.4846  0.3737  0.0756
 1190Sol     HW 7912   1.710   2.568   2.087 -1.1965  0.2214 -0.6562
 1190Sol     HW 7913   1.688   2.690   2.000  1.2614  0.8714 -0.4223
 1190Sol     MW 7914   1.734   2.615   2.014  0.6963 -0.2760  0.2312
 1191Sol     OW 7915   1.439   0.002   6.859  0.3746  0.4387  0.6005
 1191Sol     HW 7916   1.362  -0.016   6.912  0.9754  0.1899  1.3954
 1191Sol     HW 7917   1.490  -0.079   6.862  0.6968  0.6192  0.1348
 1191Sol     MW 7918   1.437  -0.007   6.864 -0.3458  0.2349 -0.2874
 1192Sol     OW 7919   1.038   2.584   7.443 -0.2124  0.4430  0.0154
 1192Sol     HW 7920   0.991   2.597   7.526  1.0881  1.8689  0.5647
 1192Sol     HW 7921   1.016   2.661   7.391  2.5229  1.8178  0.7984
 1192Sol     MW 7922   1.032   2.592   7.446  0.3782 -0.0838 -0.5930
 1193Sol     OW 7923   1.231   1.190   4.970  0.0473 -0.4409  0.0483
 1193Sol     HW 7924   1.206   1.282   4.962 -3.5456 -1.4817 -1.7491
 1193Sol     HW 7925   1.260   1.181   5.061 -0.7050  2.1939  0.5962
 1193Sol     MW 7926   1.231   1.197   4.978  0.0649 -0.2536  0.1492
 1194Sol     OW 7927   2.872   0.305   4.463  0.0409  0.2177 -0.3368
 1194Sol     HW 7928   2.911   0.323   4.377  0.4125 -0.6537 -0.3522
 1194Sol     HW 7929   2.928   0.351   4.525  0.1323  0.3316 -0.5029
 1194Sol     MW 7930   2.880   0.311   4.461 -0.4744  0.1740 -0.3238
 1195Sol     OW 7931   2.576   2.996   3.955 -0.6156 -0.0680  0.3276
 1195Sol     HW 7932   2.508   2.989   4.022 -0.8805  0.4346  0.1175
 1195Sol     HW 7933   2.658   2.994   4.004 -0.7706 -1.0071  0.5548
 1195Sol     MW 7934   2.577   2.996   3.966 -0.4639 -0.5126  0.7194
 1196Sol     OW 7935   2.913   1.755   7.442 -0.8343  0.4828 -0.3310
 1196Sol     HW 7936   2.916   1.681   7.502 -0.3745  0.2603 -0.6303
 1196Sol     HW 7937   2.820   1.777   7.436 -1.0530 -0.5669 -0.8631
 1196Sol     MW 7938   2.905   1.751   7.447 -0.0398  0.4583 -0.1827
 1197Sol     OW 7939   3.061   2.800   6.737  0.5860 -0.0662 -0.1032
 1197Sol     HW 7940   2.976   2.785   6.697  0.2246 -1.0381  0.9954
 1197Sol     HW 7941   3.103   2.866   6.682 -0.9414  0.5339 -0.5642
 1197Sol     MW 7942   3.057   2.805   6.729 -0.4917  0.0349  0.2209
 1198Sol     OW 7943   1.945   1.514   2.831  0.0228 -0.4246  0.1490
 1198Sol     HW 7944   1.949   1.603   2.867 -3.1060 -0.0690 -0.2178
 1198Sol     HW 7945   1.968   1.525   2.739  1.7279 -0.3523  0.5645
 1198Sol     MW 7946   1.948   1.523   2.826  0.1624 -0.2472  0.4439
 1199Sol     OW 7947   1.260   0.348   7.873 -0.0430  0.5610 -0.0075
 1199Sol     HW 7948   1.215   0.385   7.796  1.6810 -1.7168 -2.2059
 1199Sol     HW 7949   1.193   0.296   7.917 -0.8709  1.3017 -0.3694
 1199Sol     MW 7950   1.250   0.346   7.870 -0.4152 -0.2352 -0.1224
 1200Sol     OW 7951   3.097   2.943   4.053 -0.2030  0.4738  0.5739
 1200Sol     HW 7952   3.171   2.988   4.012 -0.6965  2.1971  1.5286
 1200Sol     HW 7953   3.127   2.853   4.064  1.1096  0.7531 -0.6296
 1200Sol     MW 7954   3.106   2.939   4.051  0.7619 -0.2948 -0.2440
 1201Sol     OW 7955   1.401   1.279   9.490 -0.3155 -0.0802  0.9011
 1201Sol     HW 7956   1.496   1.270   9.493 -0.3357 -0.6910 -0.0992
 1201Sol     HW 7957   1.373   1.219   9.420 -1.4061  0.2812  1.0155
 1201Sol     MW 7958   1.407   1.273   9.484  0.0159  0.2479  0.7288
 1202Sol     OW 7959   2.200   2.461   7.879  0.3128 -0.3412  0.0573
 1202Sol     HW 7960   2.189   2.484   7.972 -1.3184  0.0962 -0.2316
 1202Sol     HW 7961   2.201   2.545   7.834  1.7484 -0.5243 -0.2766
 1202Sol     MW 7962   2.199   2.470   7.883 -0.2782  0.2716  0.1847
 1203Sol     OW 7963   0.811   0.496   1.930  0.6928  0.2173 -0.0088
 1203Sol     HW 7964   0.826   0.458   1.844 -1.8545 -1.7657  0.4037
 1203Sol     HW 7965   0.834   0.427   1.992 -0.0430  0.7153  0.8390
 1203Sol     MW 7966   0.815   0.487   1.928 -0.2747 -0.5321 -0.3345
 1204Sol     OW 7967   2.128   2.598   4.592 -0.1125  0.0683  0.0030
 1204Sol     HW 7968   2.199   2.560   4.540 -0.4301 -0.6938  0.1197
 1204Sol     HW 7969   2.069   2.525   4.608 -0.7157  0.6121  0.2594
 1204Sol     MW 7970   2.129   2.588   4.589 -0.1567  0.2626 -0.0767
 1205Sol     OW 7971   0.493   1.630   8.943 -0.4625 -0.3519 -0.1981
 1205Sol     HW 7972   0.483   1.720   8.913  0.0147  0.3042  1.5748
 1205Sol     HW 7973   0.487   1.577   8.863 -3.0532  1.0566 -0.9643
 1205Sol     MW 7974   0.492   1.633   8.933  0.5927 -0.0651 -0.2867
 1206Sol     OW 7975   1.380   0.944   5.124  0.4244 -0.3635  1.0223
 1206Sol     HW 7976   1.409   1.034   5.135  1.6917 -0.6415 -0.0241
 1206Sol     HW 7977   1.384   0.928   5.030 -2.3662 -0.6730  0.8912
 1206Sol     MW 7978   1.383   0.951   5.117  0.1587  0.5688 -0.0564
 1207Sol     OW 7979   2.066   2.914   3.972  0.1718 -0.0697 -0.2546
 1207Sol     HW 7980   1.974   2.889   3.974  0.6143 -1.7542  0.0993
 1207Sol     HW 7981   2.067   3.001   3.933 -1.5474 -0.1204 -0.4402
 1207Sol     MW 7982   2.058   2.919   3.969 -0.4763 -0.2959  0.7028
 1208Sol     OW 7983   1.689   1.041   8.339 -0.1595  0.2720 -0.0871
 1208Sol     HW 7984   1.651   0.958   8.307  0.1015  0.1088  0.0251
 1208Sol     HW 7985   1.634   1.109   8.300  0.2190  0.0760 -0.9838
 1208Sol     MW 7986   1.681   1.039   8.332 -0.4602 -0.0812 -0.5016
 1209Sol     OW 7987   2.404   3.243   9.030 -0.0659 -0.8768  0.2453
 1209Sol     HW 7988   2.470   3.262   8.964 -0.5212  1.3668  0.3862
 1209Sol     HW 7989   2.445   3.271   9.113 -0.3023 -1.6960  0.6445
 1209Sol     MW 7990   2.414   3.247   9.032 -0.0828 -0.7664  0.0817
 1210Sol     OW 7991   2.209   0.440   7.996  0.1291  0.3038 -0.1954
 1210Sol     HW 7992   2.186   0.478   8.081  0.6251  0.7439 -0.2543
 1210Sol     HW 7993   2.205   0.345   8.010 -0.1525  0.3768  0.2203
 1210Sol     MW 7994   2.206   0.435   8.005  0.0443  0.1753  0.8354
 1211Sol     OW 7995   2.453   2.096   7.684 -0.4240  0.1899 -0.4265
 1211Sol     HW 7996   2.398   2.059   7.615  1.8784 -2.2867 -1.0208
 1211Sol     HW 7997   2.462   2.025   7.748 -0.8994  1.7975  1.4617
 1211Sol     MW 7998   2.449   2.086   7.683 -0.7223  0.0622 -0.5767
 1212Sol     OW 7999   2.675   1.682   2.323 -1.0219 -0.0625  0.2411
 1212Sol     HW 8000   2.716   1.660   2.239  0.0137  0.9581  0.4561
 1212Sol     HW 8001   2.747   1.677   2.386 -0.9158  2.9158  0.4564
 1212Sol     MW 8002   2.685   1.680   2.322  0.2298 -0.6102 -0.1378
 1213Sol     OW 8003   2.107   2.197   2.255  0.1220 -0.2538  0.3958
 1213Sol     HW 8004   2.093   2.286   2.286  0.7258 -0.0299  0.0363
 1213Sol     HW 8005   2.195   2.199   2.217 -0.1691 -0.8061 -0.3039
 1213Sol     MW 8006   2.114   2.205   2.255  0.0710  0.6156  0.3011
 1214Sol     OW 8007   1.519   0.081   8.382 -0.3010  0.2412  0.2333
 1214Sol     HW 8008   1.457   0.141   8.343 -0.5837  0.0109  0.3247
 1214Sol     HW 8009   1.565   0.133   8.448 -1.1230  0.1422  0.8939
 1214Sol     MW 8010   1.518   0.091   8.385  0.0501 -0.2117  0.1534
 1215Sol     OW 8011   0.218   1.804   5.315 -0.2925  0.9959 -0.0835
 1215Sol     HW 8012   0.296   1.764   5.353 -0.7204  0.9915  0.8203
 1215Sol     HW 8013   0.227   1.897   5.332 -0.0878  1.0986 -0.7265
 1215Sol     MW 8014   0.225   1.809   5.320 -0.0860 -0.3130 -0.3291
 1216Sol     OW 8015   2.934   2.128   5.661 -0.1495  0.2921 -0.1726
 1216Sol     HW 8016   2.860   2.108   5.719 -0.9008  2.6349 -0.2457
 1216Sol     HW 8017   2.894   2.146   5.576  0.3230  3.0501  0.1499
 1216Sol     MW 8018   2.924   2.128   5.659 -0.5100  0.0495  0.3067
 1217Sol     OW 8019   0.049   1.619   5.444 -0.1610 -0.1801 -0.2233
 1217Sol     HW 8020   0.101   1.675   5.386 -0.1936  0.3679  0.2772
 1217Sol     HW 8021   0.093   1.533   5.439  2.2211  0.8277  1.9664
 1217Sol     MW 8022   0.058   1.616   5.438 -0.3691  0.0474 -0.0977
 1218Sol     OW 8023   1.671   1.208   8.831 -0.2053 -0.2754  0.1494
 1218Sol     HW 8024   1.639   1.238   8.916 -1.6630  0.2279 -0.5568
 1218Sol     HW 8025   1.594   1.166   8.791  0.7090 -1.2876 -0.5572
 1218Sol     MW 8026   1.661   1.207   8.835  0.1543  0.3756 -0.3568
 1219Sol     OW 8027   2.020   3.076   8.107  0.0252 -0.6042  0.3069
 1219Sol     HW 8028   1.984   3.001   8.154 -1.2604  0.1504  0.5490
 1219Sol     HW 8029   2.097   3.102   8.158 -0.2449 -0.9873  0.9066
 1219Sol     MW 8030   2.024   3.072   8.116 -0.4798  0.5411 -0.5273
 1220Sol     OW 8031   0.354   1.493   7.187  0.0424 -0.0220  0.3655
 1220Sol     HW 8032   0.371   1.525   7.098 -0.2184  2.6147  1.2104
 1220Sol     HW 8033   0.268   1.452   7.182 -0.4464  1.0655 -0.3792
 1220Sol     MW 8034   0.348   1.492   7.178  0.0780 -0.4408 -0.4856
 1221Sol     OW 8035   1.592   1.851   5.292 -0.2937  0.4168  0.0410
 1221Sol     HW 8036   1.561   1.785   5.354  1.1666  0.2318  0.5930
 1221Sol     HW 8037   1.516   1.907   5.278 -0.9685 -0.1899  1.1363
 1221Sol     MW 8038   1.582   1.850   5.297  0.5146  0.6699  0.2572
 1222Sol     OW 8039   2.756   0.461   5.134 -0.3583 -0.4179 -0.0160
 1222Sol     HW 8040   2.696   0.401   5.177 -2.0462 -0.3069 -2.1139
 1222Sol     HW 8041   2.782   0.523   5.202 -2.2395 -0.7675  1.0513
 1222Sol     MW 8042   2.753   0.462   5.144 -0.1253  0.2686 -0.0118
 1223Sol     OW 8043   1.906   1.430   7.423  0.0585  0.3747 -0.2050
 1223Sol     HW 8044   1.952   1.429   7.339 -0.7672  0.7532 -0.6701
 1223Sol     HW 8045   1.851   1.353   7.421  1.5314 -0.7392  0.8547
 1223Sol     MW 8046   1.906   1.423   7.415 -0.1592 -0.5022  0.4203
 1224Sol     OW 8047   2.380   0.808   5.462  0.0026  0.0989 -0.1835
 1224Sol     HW 8048   2.445   0.809   5.532  0.2845 -0.2069 -0.4353
 1224Sol     HW 8049   2.343   0.896   5.462 -0.1940  0.0139  0.5261
 1224Sol     MW 8050   2.383   0.816   5.468 -0.5885 -0.2318 -0.1799
 1225Sol     OW 8051   3.265   1.459   9.746 -0.1391 -0.1316  0.3418
 1225Sol     HW 8052   3.355   1.475   9.719  0.2640 -2.2418  0.3546
 1225Sol     HW 8053   3.213   1.480   9.669  0.4503  0.1564  0.0156
 1225Sol     MW 8054   3.269   1.462   9.737 -0.1542 -0.3991  0.2661
 1226Sol     OW 8055   1.999   2.146   5.001 -0.6571  0.1201 -0.0031
 1226Sol     HW 8056   1.914   2.114   5.032 -1.1859  1.3255 -0.1756
 1226Sol     HW 8057   2.060   2.125   5.071 -1.4398  0.8969  0.9384
 1226Sol     MW 8058   1.997   2.141   5.010 -0.3654  0.3082  0.1878
 1227Sol     OW 8059   3.145   1.435   2.930  0.1332  0.3727  0.1539
 1227Sol     HW 8060   3.221   1.456   2.985  0.2775  0.2915 -0.0120
 1227Sol     HW 8061   3.070   1.447   2.987  0.2062  1.4172  0.0366
 1227Sol     MW 8062   3.145   1.438   2.940  0.4490 -0.1043  0.0605
 1228Sol     OW 8063   1.058   2.084   8.019 -0.5276  0.1361 -0.7186
 1228Sol     HW 8064   1.119   2.153   7.993  1.2140 -0.4409  1.6771
 1228Sol     HW 8065   0.979   2.131   8.045  0.2166  1.1503 -0.2650
 1228Sol     MW 8066   1.057   2.095   8.019 -0.1215 -0.4651 -0.5249
 1229Sol     OW 8067   1.449   1.652   8.931 -0.8237 -0.3550 -0.1899
 1229Sol     HW 8068   1.524   1.698   8.969 -0.4210  0.1625 -1.5545
 1229Sol     HW 8069   1.373   1.698   8.966 -0.4866 -0.4863  0.7204
 1229Sol     MW 8070   1.449   1.660   8.937 -0.2955 -0.8694  0.3858
 1230Sol     OW 8071   2.790   1.557   9.055 -0.1656 -0.5348  0.1275
 1230Sol     HW 8072   2.727   1.628   9.068  0.1519  0.0148 -1.2360
 1230Sol     HW 8073   2.848   1.563   9.131  0.5698  1.4348 -0.5409
 1230Sol     MW 8074   2.789   1.564   9.063 -0.0292 -0.1839  0.8831
 1231Sol     OW 8075   1.282   2.194   2.353  0.2991 -0.1108 -0.4837
 1231Sol     HW 8076   1.282   2.222   2.261  1.1999  1.7135  0.0426
 1231Sol     HW 8077   1.210   2.243   2.393 -0.0317 -0.8312 -0.1988
 1231Sol     MW 8078   1.276   2.201   2.348 -0.6084  0.4571  0.9582
 1232Sol     OW 8079   1.236   0.439   8.812 -0.3026 -0.2392  0.3538
 1232Sol     HW 8080   1.187   0.495   8.752  1.5740  0.7683 -0.2568
 1232Sol     HW 8081   1.293   0.498   8.861  2.4359 -1.6722 -0.9930
 1232Sol     MW 8082   1.236   0.449   8.811 -0.0624  0.5687 -0.3168
 1233Sol     OW 8083   0.200   0.515   7.856 -0.1295  0.0006 -0.6837
 1233Sol     HW 8084   0.234   0.431   7.886 -2.4351 -1.1336 -1.0875
 1233Sol     HW 8085   0.203   0.510   7.760  1.8147  1.2917 -0.7071
 1233Sol     MW 8086   0.203   0.507   7.850  0.0003 -0.7129 -0.0496
 1234Sol     OW 8087   3.222   0.037   5.253 -0.4773  0.0628  0.1050
 1234Sol     HW 8088   3.262  -0.008   5.179  0.6180 -0.2430  0.8514
 1234Sol     HW 8089   3.291   0.037   5.320 -1.0232  1.4188  0.6827
 1234Sol     MW 8090   3.232   0.033   5.253 -0.2599  0.6744 -0.0566
 1235Sol     OW 8091   0.165   2.811   6.440  0.1761 -0.4494  0.3967
 1235Sol     HW 8092   0.145   2.905   6.441 -1.1845 -0.7291  0.6807
 1235Sol     HW 8093   0.212   2.796   6.523 -0.6890 -0.2356  0.9361
 1235Sol     MW 8094   0.168   2.818   6.448 -0.5401 -0.0889  0.5173
 1236Sol     OW 8095   2.528   1.925   8.432  0.1646 -0.1353 -0.4399
 1236Sol     HW 8096   2.462   1.862   8.404 -1.4518  1.6407 -0.6748
 1236Sol     HW 8097   2.484   1.979   8.498  2.1868 -0.5778  1.3407
 1236Sol     MW 8098   2.518   1.924   8.435  0.1743 -0.1151  0.2518
 1237Sol     OW 8099   0.917   1.299   2.749 -0.2646 -0.3296  0.3563
 1237Sol     HW 8100   0.876   1.267   2.669 -2.6956 -1.1396  1.8592
 1237Sol     HW 8101   0.887   1.390   2.757 -0.8205 -0.5428  0.8059
 1237Sol     MW 8102   0.910   1.304   2.743 -0.5491  0.1523  0.2363
 1238Sol     OW 8103   2.333   1.038   8.810  0.7613  0.0959  0.2218
 1238Sol     HW 8104   2.256   1.047   8.867  0.6598 -2.1679  0.5142
 1238Sol     HW 8105   2.399   1.096   8.849 -0.3561  1.0458  0.7406
 1238Sol     MW 8106   2.332   1.044   8.819  0.3032 -0.7259 -0.1331
 1239Sol     OW 8107   2.362   1.147   1.592  0.0246 -0.2556  0.0602
 1239Sol     HW 8108   2.271   1.132   1.564 -0.5529 -0.0838  1.7727
 1239Sol     HW 8109   2.354   1.178   1.682  1.6866  2.0736 -0.5688
 1239Sol     MW 8110   2.353   1.148   1.598 -0.3050  0.1904  0.4547
 1240Sol     OW 8111   2.697   0.643   8.291 -0.2775  0.8431  1.1608
 1240Sol     HW 8112   2.613   0.645   8.245  0.2537  1.4765  0.2203
 1240Sol     HW 8113   2.719   0.550   8.295  0.4882  0.8780 -1.3877
 1240Sol     MW 8114   2.691   0.635   8.288  0.0330  0.1144  0.1640
 1241Sol     OW 8115   2.308   2.781   7.510  0.3066 -0.0576  0.7741
 1241Sol     HW 8116   2.283   2.757   7.421  0.5813 -0.6544  0.8541
 1241Sol     HW 8117   2.340   2.871   7.503  1.3041 -0.4612  0.0801
 1241Sol     MW 8118   2.309   2.787   7.502 -0.1183 -0.4272 -0.3710
 1242Sol     OW 8119   3.140   2.119   8.710  0.3671  0.0968 -0.4783
 1242Sol     HW 8120   3.120   2.107   8.803  0.7291  0.9579 -0.2835
 1242Sol     HW 8121   3.229   2.155   8.709  0.2248  0.4354 -1.1417
 1242Sol     MW 8122   3.146   2.121   8.719 -0.3145 -0.2307  0.2624
 1243Sol     OW 8123   0.740   0.727   7.190  0.7020 -0.3493 -0.0878
 1243Sol     HW 8124   0.821   0.774   7.173  0.6809  0.2037  1.2406
 1243Sol     HW 8125   0.764   0.634   7.186  1.7390 -0.1909  1.7205
 1243Sol     MW 8126   0.749   0.723   7.188 -0.2476  0.2555 -0.0041
 1244Sol     OW 8127   1.647   1.355   8.341 -0.2428 -0.6847 -0.2335
 1244Sol     HW 8128   1.617   1.433   8.389  0.9035 -0.0868 -0.4480
 1244Sol     HW 8129   1.568   1.305   8.324 -0.6756 -1.0140  2.4693
 1244Sol     MW 8130   1.637   1.358   8.344  0.2048 -1.0356 -0.5621
 1245Sol     OW 8131   0.941   0.738   4.173 -0.1856 -0.0601  0.2393
 1245Sol     HW 8132   0.969   0.751   4.263  0.7585 -0.1376 -0.0342
 1245Sol     HW 8133   1.022   0.742   4.122 -0.7545  0.3575 -0.6466
 1245Sol     MW 8134   0.951   0.739   4.176  0.2176 -0.1661 -0.2225
 1246Sol     OW 8135   1.011   2.551   4.152  0.4736 -0.1040  0.2231
 1246Sol     HW 8136   1.044   2.511   4.233  1.5056  1.7214  0.7515
 1246Sol     HW 8137   0.951   2.619   4.182 -1.1378 -1.1191 -0.6478
 1246Sol     MW 8138   1.009   2.553   4.162 -0.1301 -0.2106 -0.0271
 1247Sol     OW 8139   0.468   2.464   8.481  0.1677 -0.2466  0.1180
 1247Sol     HW 8140   0.493   2.550   8.514  0.7296  0.1291 -1.2483
 1247Sol     HW 8141   0.552   2.421   8.462 -0.1370 -0.3657 -0.9976
 1247Sol     MW 8142   0.478   2.468   8.482  0.1963 -0.7028 -0.7163
 1248Sol     OW 8143   2.106   2.506   2.973 -0.3021  0.0377  0.1587
 1248Sol     HW 8144   2.074   2.424   2.935 -1.3804  1.7458 -2.7996
 1248Sol     HW 8145   2.200   2.505   2.957 -0.4147 -0.3207 -0.4961
 1248Sol     MW 8146   2.112   2.498   2.968  0.2334 -0.3250 -0.2909
 1249Sol     OW 8147   2.635   0.284   5.299 -0.2850 -0.0896 -0.1815
 1249Sol     HW 8148   2.593   0.217   5.244 -2.5887  0.8810  0.3114
 1249Sol     HW 8149   2.698   0.236   5.352 -1.9297 -1.9119  0.1972
 1249Sol     MW 8150   2.637   0.273   5.299 -0.1951  0.1808  0.2598
 1250Sol     OW 8151   1.732   2.177   9.865  0.4482 -0.8373  0.0210
 1250Sol     HW 8152   1.790   2.121   9.917 -1.7055 -1.3181  1.9866
 1250Sol     HW 8153   1.674   2.115   9.819 -0.6950 -0.2952  0.7172
 1250Sol     MW 8154   1.732   2.166   9.865 -0.3485  0.0228 -0.4076
 1251Sol     OW 8155   2.932   0.948   3.090 -0.2038 -0.6187  0.0313
 1251Sol     HW 8156   3.008   0.890   3.083 -1.1798 -1.7793 -1.4711
 1251Sol     HW 8157   2.925   0.988   3.003  0.2076  1.4566  0.9397
 1251Sol     MW 8158   2.938   0.946   3.081  0.9022  0.0988 -0.0176
 1252Sol     OW 8159   3.077   1.226   3.536  0.1213 -0.1957  0.2170
 1252Sol     HW 8160   2.992   1.207   3.575  0.7339  2.0821  2.8267
 1252Sol     HW 8161   3.082   1.169   3.459 -2.9985 -1.6214  1.0111
 1252Sol     MW 8162   3.070   1.219   3.533  0.3349 -0.2152 -0.1415
 1253Sol     OW 8163   0.896   2.932   5.705 -0.1075 -0.1291 -0.0844
 1253Sol     HW 8164   0.987   2.959   5.719  0.5491 -2.7872  1.0700
 1253Sol     HW 8165   0.891   2.911   5.612  0.6199 -0.4680 -0.0532
 1253Sol     MW 8166   0.904   2.933   5.698  0.0495  0.0433  0.0030
 1254Sol     OW 8167   2.592   1.058   4.330  0.0240  0.1962 -0.2699
 1254Sol     HW 8168   2.501   1.051   4.303 -0.5003 -1.9076  1.8830
 1254Sol     HW 8169   2.625   0.968   4.326  0.6784  0.2122  3.3368
 1254Sol     MW 8170   2.587   1.049   4.327 -0.4010  0.6588  0.4588
 1255Sol     OW 8171   1.809   0.915   7.666 -0.3202  0.0107  0.1477
 1255Sol     HW 8172   1.824   0.842   7.605  2.0975  0.2026  0.4521
 1255Sol     HW 8173   1.827   0.877   7.753 -0.1887  0.6590  0.4023
 1255Sol     MW 8174   1.812   0.905   7.668 -0.3695 -0.0459  0.1484
 1256Sol     OW 8175   0.110   1.836   4.180  0.2950  0.0124 -0.0844
 1256Sol     HW 8176   0.159   1.754   4.173 -0.9554 -0.7952  0.6105
 1256Sol     HW 8177   0.088   1.843   4.273  1.4303  1.7485  0.0856
 1256Sol     MW 8178   0.113   1.829   4.188 -0.1711  0.4694  0.6172
 1257Sol     OW 8179   3.198   3.232   9.354 -0.3020  0.1506 -0.4147
 1257Sol     HW 8180   3.268   3.297   9.349 -1.4088  1.5086  1.2842
 1257Sol     HW 8181   3.118   3.283   9.361 -1.4842 -1.3889 -2.2314
 1257Sol     MW 8182   3.197   3.242   9.354 -0.0843  0.4759  0.0668
 1258Sol     OW 8183   0.426   3.056   8.372  0.3806 -0.4336  0.0779
 1258Sol     HW 8184   0.477   3.006   8.308 -0.1140 -1.2021  0.2787
 1258Sol     HW 8185   0.462   3.145   8.367  1.2790 -0.8087 -0.2715
 1258Sol     MW 8186   0.434   3.059   8.365  0.1312 -0.3634  0.3911
 1259Sol     OW 8187   1.750   3.068   4.132 -0.3634  0.2038  0.2403
 1259Sol     HW 8188   1.735   3.077   4.226  0.6371  3.0888  0.1826
 1259Sol     HW 8189   1.697   3.137   4.093  0.4150  0.0011 -1.1999
 1259Sol     MW 8190   1.744   3.075   4.137  0.2172 -0.4053 -0.4345
 1260Sol     OW 8191   3.113   2.661   7.609 -0.4027  0.0647 -0.0098
 1260Sol     HW 8192   3.078   2.750   7.616 -1.0325 -0.1656 -0.2287
 1260Sol     HW 8193   3.047   2.613   7.560  0.4601 -0.2457 -0.8710
 1260Sol     MW 8194   3.104   2.665   7.605  0.5991  0.5153 -0.3110
 1261Sol     OW 8195   1.630   3.284   3.986 -0.3723  0.8073  0.6114
 1261Sol     HW 8196   1.535   3.281   3.976 -0.3830  0.0209  0.9080
 1261Sol     HW 8197   1.665   3.277   3.897 -0.5884  1.2897  0.4854
 1261Sol     MW 8198   1.625   3.283   3.977 -0.1396 -0.0377 -0.4132
 1262Sol     OW 8199   1.285   2.024   3.023 -0.7197  0.5768  0.5634
 1262Sol     HW 8200   1.362   1.988   2.979 -0.1751  0.9664  1.1950
 1262Sol     HW 8201   1.276   2.113   2.989 -0.5134  0.7519  0.9617
 1262Sol     MW 8202   1.291   2.029   3.016  0.1270 -0.2474 -0.1674
 1263Sol     OW 8203   3.185   1.680   5.846 -0.2542 -0.5151  0.1105
 1263Sol     HW 8204   3.271   1.713   5.818  0.1582 -0.6034  1.2378
 1263Sol     HW 8205   3.123   1.747   5.817  0.3157  0.0745  0.2392
 1263Sol     MW 8206   3.187   1.689   5.841  0.2833  0.5829  0.2423
 1264Sol     OW 8207   1.312   0.915   5.789  0.1526  0.9701  0.0461
 1264Sol     HW 8208   1.400   0.946   5.807  0.8799 -1.5034  1.0167
 1264Sol     HW 8209   1.282   0.878   5.872 -0.7852 -0.5544 -0.9398
 1264Sol     MW 8210   1.317   0.914   5.798 -0.1255 -0.0491 -0.0301
 1265Sol     OW 8211   0.506   0.911   4.973  0.3145 -0.3820  0.1760
 1265Sol     HW 8212   0.583   0.904   5.029  0.4903 -0.2719 -0.0547
 1265Sol     HW 8213   0.541   0.915   4.884  0.2216  2.8089  0.2127
 1265Sol     MW 8214   0.516   0.911   4.970 -0.1160 -0.1808 -0.0030
 1266Sol     OW 8215   0.088   0.689   2.031  0.0658 -0.3537  0.2910
 1266Sol     HW 8216   0.118   0.748   1.962 -0.6524  0.5053  0.7012
 1266Sol     HW 8217   0.166   0.640   2.057  0.8273  0.9166  0.4284
 1266Sol     MW 8218   0.098   0.690   2.027  0.2151  0.0356 -0.2817
 1267Sol     OW 8219   0.957   2.898   8.114 -0.1126 -0.0672 -0.7537
 1267Sol     HW 8220   0.941   2.815   8.158  1.4722 -0.8845 -1.6408
 1267Sol     HW 8221   1.049   2.892   8.086 -0.1126  1.8036 -1.1946
 1267Sol     MW 8222   0.964   2.890   8.115 -0.5126 -0.4795 -0.2636
 1268Sol     OW 8223   1.524   1.540   2.182 -0.2161 -0.0185  0.0903
 1268Sol     HW 8224   1.588   1.523   2.113 -1.3560  2.5679 -1.6854
 1268Sol     HW 8225   1.456   1.474   2.168  1.0254 -1.4523  0.6934
 1268Sol     MW 8226   1.523   1.532   2.175  0.4400 -0.3473 -0.2213
 1269Sol     OW 8227   3.026   0.449   5.577 -0.1273 -0.3214  0.5221
 1269Sol     HW 8228   2.962   0.379   5.590  0.1391 -0.6198  0.2346
 1269Sol     HW 8229   3.108   0.403   5.558 -0.2189  0.0818 -0.9072
 1269Sol     MW 8230   3.028   0.438   5.576 -0.4671 -0.2315 -0.4643
 1270Sol     OW 8231   1.621   1.979   9.257  0.0197 -0.3110  0.0764
 1270Sol     HW 8232   1.672   1.923   9.198  1.1088  0.9982 -0.2684
 1270Sol     HW 8233   1.656   1.962   9.344  1.2921  0.8158 -0.2008
 1270Sol     MW 8234   1.628   1.972   9.259  0.0383  0.5350  0.1024
 1271Sol     OW 8235   3.084   0.531   9.318 -0.2276 -0.6935  0.8466
 1271Sol     HW 8236   3.124   0.487   9.243 -0.5357 -1.6723  1.2469
 1271Sol     HW 8237   3.006   0.572   9.283  0.2131 -0.2171  0.4112
 1271Sol     MW 8238   3.081   0.530   9.308 -0.0975 -0.3922  0.1176
 1272Sol     OW 8239   2.828   3.007   4.093 -0.1826 -0.1486 -0.1229
 1272Sol     HW 8240   2.918   2.990   4.064 -0.1634 -0.1995 -0.0339
 1272Sol     HW 8241   2.810   2.938   4.157  1.3697  2.5039  3.3744
 1272Sol     MW 8242   2.835   3.000   4.097  0.4724 -0.0983 -0.3127
 1273Sol     OW 8243   2.075   0.351   9.049  0.4483  0.6331 -0.0269
 1273Sol     HW 8244   2.071   0.398   9.132  2.5085 -2.2389  1.8363
 1273Sol     HW 8245   2.169   0.340   9.033  0.0594 -2.3114 -0.6093
 1273Sol     MW 8246   2.083   0.354   9.055 -0.1142  0.2190 -0.0777
 1274Sol     OW 8247   3.040   2.260   7.434 -0.3185  0.3163  0.5367
 1274Sol     HW 8248   3.094   2.217   7.368  1.7343  2.0578  1.0316
 1274Sol     HW 8249   3.097   2.266   7.511 -2.5359 -1.3055  2.3581
 1274Sol     MW 8250   3.050   2.257   7.435  0.2399 -0.1672  0.5039
 1275Sol     OW 8251   0.829   0.473   3.928  1.1293 -0.2015  0.6622
 1275Sol     HW 8252   0.897   0.530   3.893  0.9028  0.7941  1.7868
 1275Sol     HW 8253   0.840   0.478   4.023  1.7977 -2.9045  0.7727
 1275Sol     MW 8254   0.836   0.478   3.934 -0.0290  0.2956  0.3009
 1276Sol     OW 8255   2.670   0.302   8.995  0.1969  0.1051  0.3568
 1276Sol     HW 8256   2.724   0.223   8.989 -1.1977 -0.7198 -2.0212
 1276Sol     HW 8257   2.600   0.278   9.056 -1.6303 -1.4401 -2.2238
 1276Sol     MW 8258   2.668   0.293   9.000  0.2844 -0.1833 -0.1614
 1277Sol     OW 8259   2.899   3.094   6.740 -0.2449 -0.0326 -0.2459
 1277Sol     HW 8260   2.856   3.110   6.656 -0.0482 -0.2560 -0.3892
 1277Sol     HW 8261   2.926   3.180   6.770  1.9213 -0.2107 -1.6040
 1277Sol     MW 8262   2.897   3.103   6.736  0.8248 -0.5470  0.1450
 1278Sol     OW 8263   0.239   2.262   7.851 -0.1390 -0.2059 -0.2994
 1278Sol     HW 8264   0.248   2.356   7.835  0.5705 -0.2616 -0.2465
 1278Sol     HW 8265   0.210   2.256   7.943 -0.3670 -0.0381 -0.3585
 1278Sol     MW 8266   0.237   2.270   7.858 -0.6390  0.0540 -0.2689
 1279Sol     OW 8267   0.221   3.411   8.167 -0.0196 -0.1994  0.6692
 1279Sol     HW 8268   0.247   3.459   8.246 -2.7928  0.6336  1.1267
 1279Sol     HW 8269   0.181   3.331   8.199  0.1221 -0.5234  0.0524
 1279Sol     MW 8270   0.220   3.408   8.177  0.0790  0.4833  0.0976
 1280Sol     OW 8271   1.567   3.088   6.361  0.1866 -0.6011 -0.4042
 1280Sol     HW 8272   1.648   3.109   6.407  0.0690 -1.3632  0.1598
 1280Sol     HW 8273   1.583   3.115   6.271  1.6206 -2.1201 -0.6258
 1280Sol     MW 8274   1.576   3.092   6.357  0.5812 -0.1647  0.0703
 1281Sol     OW 8275   3.010   2.767   7.182  0.6418  0.6415  0.0413
 1281Sol     HW 8276   3.060   2.830   7.131 -1.6680  2.3057 -0.2817
 1281Sol     HW 8277   2.970   2.819   7.252 -0.4221 -0.6549  0.4199
 1281Sol     MW 8278   3.011   2.777   7.184 -0.0060 -0.4262 -0.1074
 1282Sol     OW 8279   2.003   0.323   7.284  0.4262 -0.2449  0.5044
 1282Sol     HW 8280   1.949   0.336   7.362 -1.6223 -1.5214 -0.6327
 1282Sol     HW 8281   1.990   0.402   7.232 -0.6231 -0.6488  0.1197
 1282Sol     MW 8282   1.997   0.331   7.286  0.3586 -0.0637  0.5129
 1283Sol     OW 8283   0.905   2.532   8.534  0.4643  0.2660  0.1031
 1283Sol     HW 8284   0.989   2.570   8.558  0.9857 -1.3156  0.8485
 1283Sol     HW 8285   0.905   2.531   8.438  0.7520  1.4171  0.0790
 1283Sol     MW 8286   0.912   2.535   8.528 -0.5952 -0.3160  0.5905
 1284Sol     OW 8287   0.886   0.995   3.543 -0.2022 -0.2432  0.1494
 1284Sol     HW 8288   0.797   0.982   3.512 -1.0342 -0.6780  2.5777
 1284Sol     HW 8289   0.928   1.047   3.475 -2.9715  1.9234  0.0051
 1284Sol     MW 8290   0.882   0.999   3.534  0.1551 -1.1889 -0.5507
 1285Sol     OW 8291   1.853   3.127   5.854  0.2420  0.3411  0.0645
 1285Sol     HW 8292   1.897   3.174   5.924 -1.0061 -0.5942  1.5046
 1285Sol     HW 8293   1.786   3.188   5.823 -0.2481  0.1691  0.7689
 1285Sol     MW 8294   1.851   3.137   5.857  0.3348 -0.5007 -0.2671
 1286Sol     OW 8295   2.992   1.971   7.208 -0.4410  0.0992  0.2665
 1286Sol     HW 8296   3.059   2.039   7.209 -0.2501 -0.0920  0.3860
 1286Sol     HW 8297   3.015   1.913   7.280  0.1963 -0.8731 -0.7188
 1286Sol     MW 8298   3.000   1.972   7.215  0.2750 -0.0434 -0.3914
 1287Sol     OW 8299   2.787   3.339   2.714  0.0627  1.2552 -0.1841
 1287Sol     HW 8300   2.722   3.276   2.745  0.9294  0.2465 -0.4117
 1287Sol     HW 8301   2.821   3.379   2.795  1.8970 -0.9527  0.1686
 1287Sol     MW 8302   2.784   3.337   2.724  0.0588  0.1431  0.3956
 1288Sol     OW 8303   0.504   1.776   1.645  0.1415 -0.1691  0.1897
 1288Sol     HW 8304   0.475   1.849   1.701 -0.3117 -0.9759  1.0177
 1288Sol     HW 8305   0.426   1.723   1.632  0.8397 -1.4474  1.0445
 1288Sol     MW 8306   0.494   1.778   1.649  0.1697 -0.1515 -0.1989
 1289Sol     OW 8307   1.015   1.187   4.715  0.9967  0.3120 -0.6090
 1289Sol     HW 8308   0.935   1.211   4.761  0.8775 -1.4390  0.1663
 1289Sol     HW 8309   1.079   1.253   4.742  0.3605  0.5272  0.4140
 1289Sol     MW 8310   1.014   1.195   4.722  1.1881  0.9166  0.2088
 1290Sol     OW 8311   0.611   0.135   2.458  0.4656 -0.1517  0.3912
 1290Sol     HW 8312   0.659   0.196   2.514 -3.1718  1.0387  2.3851
 1290Sol     HW 8313   0.619   0.051   2.504  2.7006 -0.5630 -0.6496
 1290Sol     MW 8314   0.616   0.133   2.467  0.3892  0.1211 -0.1619
 1291Sol     OW 8315   2.151   0.380   7.573 -0.4699 -0.1747  0.3385
 1291Sol     HW 8316   2.072   0.327   7.571 -0.9688  0.5489  0.5111
 1291Sol     HW 8317   2.176   0.390   7.481 -1.8607  1.4573  0.1045
 1291Sol     MW 8318   2.147   0.376   7.564  0.2338 -0.3642  0.0574
 1292Sol     OW 8319   3.307   0.819   9.801 -0.3949  0.0437  0.6121
 1292Sol     HW 8320   3.221   0.802   9.761 -0.9597  0.1070  1.7615
 1292Sol     HW 8321   3.331   0.736   9.843 -0.2401  0.2392  0.9142
 1292Sol     MW 8322   3.301   0.810   9.802 -0.8856 -0.0666 -0.2097
 1293Sol     OW 8323   1.136   2.553   2.854 -0.5942  0.1359  0.2144
 1293Sol     HW 8324   1.210   2.599   2.893 -1.0884  1.9383 -0.9270
 1293Sol     HW 8325   1.156   2.460   2.866 -0.2204  0.6022  3.7750
 1293Sol     MW 8326   1.144   2.549   2.858 -0.2697 -0.4470  0.1141
 1294Sol     OW 8327   1.127   1.964   6.988 -0.1208 -0.2468 -0.3692
 1294Sol     HW 8328   1.103   1.925   6.904  0.2811  2.1666 -1.6501
 1294Sol     HW 8329   1.055   2.024   7.008  0.3992  0.1318  0.3656
 1294Sol     MW 8330   1.118   1.966   6.982  0.0243  0.7313  0.5050
 1295Sol     OW 8331   1.454   1.031   7.132 -0.4284 -0.2284 -0.2846
 1295Sol     HW 8332   1.505   1.016   7.052 -1.2281  0.5821 -0.9555
 1295Sol     HW 8333   1.490   1.111   7.169 -0.5131 -0.2283 -0.2030
 1295Sol     MW 8334   1.462   1.037   7.128 -0.5731 -0.3671 -0.7191
 1296Sol     OW 8335   0.404   3.234   6.666 -0.1652 -0.0810  0.0453
 1296Sol     HW 8336   0.489   3.255   6.704 -0.7475  1.7244  0.4362
 1296Sol     HW 8337   0.419   3.155   6.615  1.7695  0.2501  0.0531
 1296Sol     MW 8338   0.413   3.229   6.664  0.0680  1.0304  0.3096
 1297Sol     OW 8339   1.116   1.946   6.263 -0.1376 -0.1257  0.3392
 1297Sol     HW 8340   1.030   1.905   6.256 -0.8611  1.4109 -0.0174
 1297Sol     HW 8341   1.108   2.003   6.340  0.6029 -0.0641  0.3695
 1297Sol     MW 8342   1.107   1.947   6.270  0.0015  0.2040 -0.0740
 1298Sol     OW 8343   2.904   0.012   3.293  0.0111 -0.1217 -0.6452
 1298Sol     HW 8344   2.936  -0.078   3.294 -1.5374 -0.6821 -0.9107
 1298Sol     HW 8345   2.982   0.065   3.312  0.8120 -1.5376  0.1159
 1298Sol     MW 8346   2.914   0.009   3.295  0.4888 -0.0294 -0.1577
 1299Sol     OW 8347   0.685   3.173   9.474  0.0003  0.0796 -0.4419
 1299Sol     HW 8348   0.662   3.110   9.542 -0.3694 -0.4434 -1.0373
 1299Sol     HW 8349   0.737   3.122   9.412 -1.2956  0.0449 -1.5365
 1299Sol     MW 8350   0.687   3.163   9.474 -0.1600  0.3620  0.0942
 1300Sol     OW 8351   1.552   1.380   4.539  0.0034  0.0270 -0.1014
 1300Sol     HW 8352   1.481   1.401   4.478 -0.5251 -0.5952  0.2919
 1300Sol     HW 8353   1.548   1.449   4.605 -0.9712 -0.6350  0.5436
 1300Sol     MW 8354   1.545   1.388   4.539  0.0536 -0.2834 -0.0368
 1301Sol     OW 8355   2.396   3.231   7.116  0.4062  0.2480  0.0347
 1301Sol     HW 8356   2.471   3.269   7.070 -0.5525  3.0036  0.6399
 1301Sol     HW 8357   2.434   3.190   7.194  1.4030  0.6347 -0.2399
 1301Sol     MW 8358   2.406   3.230   7.119 -0.4251 -0.2640 -0.2596
 1302Sol     OW 8359   1.814   2.437   6.178 -0.0086 -0.4155  0.2231
 1302Sol     HW 8360   1.773   2.523   6.185  1.5089  0.1874  2.0860
 1302Sol     HW 8361   1.741   2.375   6.187 -1.0123  0.6635 -0.3674
 1302Sol     MW 8362   1.803   2.439   6.180 -0.4196 -0.2466 -0.2286
 1303Sol     OW 8363   3.203   2.550   2.441  0.4111  0.3051  0.1697
 1303Sol     HW 8364   3.189   2.511   2.527 -0.6362  0.3664  0.0397
 1303Sol     HW 8365   3.149   2.629   2.441  0.0643  0.0816 -0.6851
 1303Sol     MW 8366   3.197   2.553   2.449 -0.1509 -0.1373 -0.0967
 1304Sol     OW 8367   1.616   2.913   4.617 -0.5263 -0.0353 -0.3564
 1304Sol     HW 8368   1.706   2.922   4.586 -0.8561 -0.6695 -1.5624
 1304Sol     HW 8369   1.568   2.982   4.571 -0.9327 -0.6765 -0.9179
 1304Sol     MW 8370   1.619   2.920   4.610  0.0702 -0.9225  0.1794
 1305Sol     OW 8371   0.025   1.068   6.967  0.0472  0.0414  0.2293
 1305Sol     HW 8372   0.010   1.162   6.967  0.2701  0.1021  3.3071
 1305Sol     HW 8373   0.016   1.041   7.058 -0.9730 -3.0984 -0.7255
 1305Sol     MW 8374   0.023   1.074   6.975  0.5048 -0.0684 -0.7429
 1306Sol     OW 8375   2.743   2.496   4.813  0.5558  0.4088  0.3437
 1306Sol     HW 8376   2.825   2.485   4.765  0.4953  0.3856  0.2460
 1306Sol     HW 8377   2.705   2.408   4.816  0.7839  0.3260  0.8351
 1306Sol     MW 8378   2.747   2.487   4.809  0.5241  0.0228 -0.5629
 1307Sol     OW 8379   1.461   2.362   9.914 -0.1131 -0.5254 -0.0284
 1307Sol     HW 8380   1.557   2.362   9.910 -0.0504 -1.0972  1.1190
 1307Sol     HW 8381   1.436   2.270   9.904 -0.5282 -0.4155 -0.0298
 1307Sol     MW 8382   1.467   2.354   9.913  0.0691  0.0204 -0.1005
 1308Sol     OW 8383   2.423   2.129   1.906  0.1770 -0.0685 -0.3445
 1308Sol     HW 8384   2.386   2.157   1.990  1.6632  0.4149  0.1588
 1308Sol     HW 8385   2.381   2.186   1.841 -0.8606 -0.3396  0.0792
 1308Sol     MW 8386   2.416   2.137   1.908 -0.0938  0.0975  0.0076
 1309Sol     OW 8387   1.706   2.079   3.840  0.1574  0.0646  0.1831
 1309Sol     HW 8388   1.648   2.139   3.794 -1.2831  0.5117  2.5271
 1309Sol     HW 8389   1.761   2.135   3.894  0.3363 -0.5811  0.6851
 1309Sol     MW 8390   1.706   2.089   3.841  1.0497  0.3525 -0.6412
 1310Sol     OW 8391   2.901   0.714   8.125  0.7383  0.4771 -0.3615
 1310Sol     HW 8392   2.829   0.689   8.183  0.0118 -0.9389 -1.8340
 1310Sol     HW 8393   2.922   0.634   8.078  3.3747  0.8595  0.1157
 1310Sol     MW 8394   2.896   0.704   8.126  0.1536  0.5053  0.0798
 1311Sol     OW 8395   2.574   0.134   6.872 -0.4933 -0.5329  0.1111
 1311Sol     HW 8396   2.542   0.135   6.782 -1.1011  1.4156  0.3350
 1311Sol     HW 8397   2.504   0.175   6.923  0.3241 -0.6159  1.3174
 1311Sol     MW 8398   2.565   0.138   6.869 -0.1207 -0.0493  0.5839
 1312Sol     OW 8399   2.976   2.898   2.016 -0.0241 -0.3011  0.1696
 1312Sol     HW 8400   3.070   2.912   2.007 -0.2169  1.2654  0.3772
 1312Sol     HW 8401   2.965   2.804   2.009  1.6603 -0.5884  1.0740
 1312Sol     MW 8402   2.983   2.891   2.015 -0.3832 -0.4535  0.4649
 1313Sol     OW 8403   1.304   0.516   4.165  0.0981 -0.5136  0.7514
 1313Sol     HW 8404   1.394   0.544   4.152 -0.5476  1.5033  0.5315
 1313Sol     HW 8405   1.280   0.473   4.083  0.4839 -0.0463  0.3927
 1313Sol     MW 8406   1.310   0.514   4.156 -0.4244  0.7649  0.0213
 1314Sol     OW 8407   0.104   2.094   5.942 -0.1254 -0.2055 -0.0377
 1314Sol     HW 8408   0.022   2.104   5.893 -0.0291  1.6655  0.1574
 1314Sol     HW 8409   0.089   2.141   6.024  0.3057 -1.9071  1.0368
 1314Sol     MW 8410   0.095   2.099   5.945  0.4077  0.1855  0.2300
 1315Sol     OW 8411   2.571   1.278   9.300 -0.0253  0.3585  0.3175
 1315Sol     HW 8412   2.507   1.207   9.309 -0.5070  0.6557 -0.6838
 1315Sol     HW 8413   2.596   1.299   9.390 -1.8536  0.6999  0.7748
 1315Sol     MW 8414   2.567   1.273   9.309  0.0780 -0.1061  0.1290
 1316Sol     OW 8415   1.400   2.280   4.859 -0.2851 -1.1737  0.5631
 1316Sol     HW 8416   1.442   2.366   4.865 -0.5856 -0.9658 -0.3160
 1316Sol     HW 8417   1.448   2.226   4.922  1.0716 -0.8431 -0.1546
 1316Sol     MW 8418   1.408   2.283   4.865 -0.5737  0.0436  0.1011
 1317Sol     OW 8419   0.196   2.326   3.142 -0.6439 -0.3830  0.0093
 1317Sol     HW 8420   0.253   2.286   3.076  0.4037  3.3850 -1.5067
 1317Sol     HW 8421   0.241   2.312   3.225 -0.4064 -2.4696 -0.4595
 1317Sol     MW 8422   0.205   2.321   3.144 -0.5763  0.3630 -0.2468
 1318Sol     OW 8423   0.936   0.378   6.840  0.4396  0.2543  0.4655
 1318Sol     HW 8424   0.917   0.286   6.823  1.1385  0.0681  0.6848
 1318Sol     HW 8425   1.001   0.377   6.910  1.3972  0.8668 -0.3973
 1318Sol     MW 8426   0.940   0.370   6.845  0.1622  0.1210  0.2192
 1319Sol     OW 8427   2.253   2.808   2.467 -0.0117  0.6436 -0.1793
 1319Sol     HW 8428   2.195   2.854   2.406  0.4338  1.5388  0.0569
 1319Sol     HW 8429   2.195   2.776   2.536 -0.4110  0.2966 -0.6662
 1319Sol     MW 8430   2.242   2.809   2.468  0.9263  0.8915 -1.3925
 1320Sol     OW 8431   0.290   1.213   2.783  0.2290  0.4278  0.5342
 1320Sol     HW 8432   0.351   1.242   2.851  0.4421  0.1254  0.4768
 1320Sol     HW 8433   0.256   1.129   2.816 -0.6598  0.9141  0.8747
 1320Sol     MW 8434   0.292   1.208   2.792  0.2476  0.4495 -0.3795
 1321Sol     OW 8435   1.719   1.573   8.158 -0.3452 -0.6087 -0.1905
 1321Sol     HW 8436   1.807   1.538   8.143 -0.3287  0.9749 -4.7178
 1321Sol     HW 8437   1.670   1.500   8.196  1.9814 -2.6383 -0.9413
 1321Sol     MW 8438   1.723   1.564   8.160 -0.4084 -0.1517 -0.2502
 1322Sol     OW 8439   0.477   1.497   8.702  0.1512 -0.2349 -0.1374
 1322Sol     HW 8440   0.408   1.538   8.650 -1.0156  0.6067  2.0330
 1322Sol     HW 8441   0.530   1.450   8.638 -2.0078 -0.3057 -1.9335
 1322Sol     MW 8442   0.476   1.497   8.691 -0.0815  0.1533 -0.2644
 1323Sol     OW 8443   1.516   1.260   2.973 -0.1652 -0.0421 -0.2010
 1323Sol     HW 8444   1.609   1.282   2.970 -0.5056  1.4299 -0.2762
 1323Sol     HW 8445   1.474   1.337   3.012 -1.2058 -1.1828  0.9999
 1323Sol     MW 8446   1.520   1.269   2.977  0.0082 -0.1725  0.2165
 1324Sol     OW 8447   0.439   2.288   5.927 -0.1645  0.0730 -0.3065
 1324Sol     HW 8448   0.437   2.335   5.844  1.2669  0.6279 -0.0417
 1324Sol     HW 8449   0.433   2.196   5.903  1.5121  0.1679 -1.1190
 1324Sol     MW 8450   0.439   2.284   5.918 -0.4018 -0.6743 -0.5387
 1325Sol     OW 8451   1.344   1.356   2.112  0.2791  0.5241  0.6286
 1325Sol     HW 8452   1.320   1.265   2.126  0.1004  0.5511  0.5007
 1325Sol     HW 8453   1.334   1.369   2.017 -0.8833  1.0121  0.8104
 1325Sol     MW 8454   1.341   1.349   2.105  0.3092  0.6036 -0.6930
 1326Sol     OW 8455   1.496   0.175   2.387 -0.0328 -0.2256  0.0593
 1326Sol     HW 8456   1.461   0.156   2.474 -2.1029  2.2604 -0.1882
 1326Sol     HW 8457   1.467   0.101   2.334 -1.2974 -0.3266  0.8476
 1326Sol     MW 8458   1.490   0.166   2.390 -0.2805  0.0345 -0.1723
 1327Sol     OW 8459   2.121   1.123   3.652 -0.3708 -0.4437  0.1312
 1327Sol     HW 8460   2.125   1.029   3.672  2.6579 -0.5203 -0.6213
 1327Sol     HW 8461   2.202   1.159   3.688 -1.7375  2.0322  0.9029
 1327Sol     MW 8462   2.129   1.118   3.657 -0.0674 -0.5569 -0.0947
 1328Sol     OW 8463   1.792   2.258   2.769 -0.2151 -0.6500  0.1934
 1328Sol     HW 8464   1.733   2.290   2.837 -0.9656  0.5245 -0.9992
 1328Sol     HW 8465   1.873   2.237   2.816 -0.0896  1.8840  1.1960
 1328Sol     MW 8466   1.794   2.259   2.779  0.3931  0.0103  0.4317
 1329Sol     OW 8467   2.296   2.835   6.201 -0.1626 -0.0098  0.2601
 1329Sol     HW 8468   2.366   2.856   6.262  2.5138 -3.0415 -1.6242
 1329Sol     HW 8469   2.313   2.890   6.124  0.3543 -0.9595 -0.3147
 1329Sol     MW 8470   2.304   2.841   6.199  0.1697  0.3063  0.8103
 1330Sol     OW 8471   0.664   2.202   2.656 -0.3077 -0.0898  0.2502
 1330Sol     HW 8472   0.579   2.167   2.631 -0.8444  1.4630 -0.1445
 1330Sol     HW 8473   0.710   2.128   2.695 -1.1417 -1.4199 -1.2328
 1330Sol     MW 8474   0.661   2.193   2.657 -0.4217  0.7101 -0.1515
 1331Sol     OW 8475   1.506   2.825   6.297 -0.0249 -0.0454  0.2241
 1331Sol     HW 8476   1.526   2.904   6.347  1.4498  0.1515 -0.6437
 1331Sol     HW 8477   1.452   2.855   6.224  2.3271  0.5314 -1.3251
 1331Sol     MW 8478   1.503   2.834   6.294  0.7842  0.2037 -0.2200
 1332Sol     OW 8479   1.526   2.074   6.815  0.4012 -0.1424 -0.1382
 1332Sol     HW 8480   1.519   2.042   6.905 -0.8668  0.2466 -0.0805
 1332Sol     HW 8481   1.545   2.167   6.824 -0.8982  0.1503 -0.2396
 1332Sol     MW 8482   1.527   2.079   6.824 -0.1990 -0.1426 -0.1399
 1333Sol     OW 8483   2.417   1.128   4.022  0.2398 -0.1903 -0.4030
 1333Sol     HW 8484   2.493   1.181   3.998  0.1799 -0.4619 -1.2232
 1333Sol     HW 8485   2.427   1.047   3.971 -1.4156  0.4265 -1.7687
 1333Sol     MW 8486   2.425   1.126   4.015  0.0099 -0.0976 -0.6233
 1334Sol     OW 8487   0.969   2.332   6.621 -0.1651  0.1198  0.3061
 1334Sol     HW 8488   0.940   2.401   6.562  0.1380 -1.9317 -2.3414
 1334Sol     HW 8489   1.049   2.366   6.661 -0.8657  1.9015  0.2446
 1334Sol     MW 8490   0.973   2.341   6.620  0.0114 -0.2114  0.0455
 1335Sol     OW 8491   1.084   1.759   4.848 -0.1984 -0.3566 -0.4120
 1335Sol     HW 8492   1.014   1.694   4.845 -0.8179  0.2568  0.6070
 1335Sol     HW 8493   1.091   1.784   4.940  0.7822  0.2186 -0.6277
 1335Sol     MW 8494   1.079   1.755   4.856  0.6385  0.2732 -0.0309
 1336Sol     OW 8495   0.978   2.000   5.988 -0.0921  0.3749 -0.1152
 1336Sol     HW 8496   0.884   1.988   5.996 -0.1796  0.8833 -0.3733
 1336Sol     HW 8497   1.011   1.997   6.078 -0.5969  2.2210  0.1471
 1336Sol     MW 8498   0.973   1.999   5.997 -1.2675  0.5903 -0.2989
 1337Sol     OW 8499   1.186   2.273   2.878  0.4625  0.1334 -0.0567
 1337Sol     HW 8500   1.270   2.274   2.832 -0.3467 -0.0723 -1.5752
 1337Sol     HW 8501   1.135   2.206   2.833 -1.3430  1.8712 -0.6599
 1337Sol     MW 8502   1.189   2.267   2.870 -0.1717  1.0141 -0.2256
 1338Sol     OW 8503   1.006   1.171   9.492  0.2873 -0.0379  0.2782
 1338Sol     HW 8504   1.067   1.241   9.513 -0.2571 -0.1235  2.2133
 1338Sol     HW 8505   0.924   1.195   9.536  0.1791 -2.0035  1.2109
 1338Sol     MW 8506   1.004   1.179   9.498 -0.3514 -0.0522 -0.5452
 1339Sol     OW 8507   1.548   0.830   3.690 -0.1743  0.8000  0.2608
 1339Sol     HW 8508   1.612   0.898   3.668 -1.7053  2.1621 -0.0628
 1339Sol     HW 8509   1.538   0.779   3.610  3.0217 -1.5647  1.2732
 1339Sol     MW 8510   1.553   0.832   3.681 -0.4459 -0.7919 -0.0961
 1340Sol     OW 8511   0.830   2.748   4.121  0.4210  0.1149 -0.2139
 1340Sol     HW 8512   0.906   2.753   4.063  0.6475  0.4444  0.1187
 1340Sol     HW 8513   0.802   2.838   4.132 -0.1012 -0.0163 -0.4411
 1340Sol     MW 8514   0.834   2.756   4.117 -0.1953 -0.0977  0.4066
 1341Sol     OW 8515   1.340   2.088   5.499 -0.1378  0.7400  0.0863
 1341Sol     HW 8516   1.255   2.124   5.472 -0.4609 -1.0864 -1.4257
 1341Sol     HW 8517   1.404   2.155   5.474 -1.1072  2.0871  1.1425
 1341Sol     MW 8518   1.338   2.097   5.494  0.0852  0.5269  0.2976
 1342Sol     OW 8519   1.902   0.641   5.056  0.3818 -0.1045  0.2454
 1342Sol     HW 8520   1.994   0.663   5.041  0.4514 -0.6342 -0.1102
 1342Sol     HW 8521   1.903   0.579   5.129  0.5279 -2.1200 -1.4262
 1342Sol     MW 8522   1.910   0.637   5.061 -0.0294 -0.0914 -0.1958
 1343Sol     OW 8523   2.415   1.836   7.867 -0.3186 -0.1674 -0.2062
 1343Sol     HW 8524   2.320   1.821   7.865 -0.2339 -1.0617  1.4495
 1343Sol     HW 8525   2.451   1.754   7.901  0.8900  0.8717  1.0332
 1343Sol     MW 8526   2.410   1.827   7.870  0.1738  0.0482 -0.1310
 1344Sol     OW 8527   2.390   2.411   8.426 -0.3582  0.6071 -0.6953
 1344Sol     HW 8528   2.325   2.434   8.360  0.6291  3.2257 -0.7999
 1344Sol     HW 8529   2.355   2.445   8.508 -2.0006 -3.4016  0.3866
 1344Sol     MW 8530   2.381   2.416   8.427 -0.4661 -0.0979  0.3866
 1345Sol     OW 8531   2.781   2.650   6.307  0.1318 -0.1303 -0.0408
 1345Sol     HW 8532   2.789   2.687   6.395  2.3137  0.5908 -0.4964
 1345Sol     HW 8533   2.827   2.566   6.312  1.2958  0.4460 -0.7522
 1345Sol     MW 8534   2.786   2.646   6.315  0.1940  0.2725 -0.5561
 1346Sol     OW 8535   1.833   3.164   8.729 -0.0394  0.0972  0.4649
 1346Sol     HW 8536   1.924   3.148   8.755 -0.5022 -0.5043  1.7514
 1346Sol     HW 8537   1.811   3.090   8.673  0.0735 -0.0421  0.6047
 1346Sol     MW 8538   1.840   3.156   8.726 -0.3018 -0.2495  0.3243
 1347Sol     OW 8539   1.785   2.848   3.967  0.1230 -0.5706  0.3101
 1347Sol     HW 8540   1.763   2.932   4.006  3.2883 -0.3920  1.9344
 1347Sol     HW 8541   1.774   2.785   4.039 -0.4160 -1.2535 -0.3693
 1347Sol     MW 8542   1.782   2.850   3.977 -0.7014  0.0656 -0.4191
 1348Sol     OW 8543   0.683   0.787   8.629  0.2988  0.0331 -0.2717
 1348Sol     HW 8544   0.697   0.870   8.582 -1.1551 -0.0103 -0.8103
 1348Sol     HW 8545   0.590   0.769   8.618  0.1456 -0.5113  1.7796
 1348Sol     MW 8546   0.676   0.793   8.624  0.1537 -0.2347  0.0133
 1349Sol     OW 8547   0.720   1.502   4.649 -0.0427  0.0992 -0.0673
 1349Sol     HW 8548   0.688   1.414   4.670 -1.6809  0.4104 -1.1280
 1349Sol     HW 8549   0.764   1.532   4.728  0.3843 -1.6225  0.3493
 1349Sol     MW 8550   0.721   1.497   4.658 -0.2477  0.1261 -0.5564
 1350Sol     OW 8551   2.094   2.653   6.234  0.5477  0.0801  0.1781
 1350Sol     HW 8552   2.119   2.561   6.241  1.0229  0.2798  1.2046
 1350Sol     HW 8553   2.177   2.699   6.221  0.5863  0.6042  2.1256
 1350Sol     MW 8554   2.104   2.649   6.233 -0.1711  0.2189 -0.0620
 1351Sol     OW 8555   0.580   0.939   4.697 -0.3570 -0.0594 -0.1068
 1351Sol     HW 8556   0.653   0.885   4.727 -0.2466  0.1235 -0.0497
 1351Sol     HW 8557   0.522   0.877   4.652  0.1081 -0.1043 -0.6435
 1351Sol     MW 8558   0.581   0.928   4.696 -0.0874  0.3161  0.5225
 1352Sol     OW 8559   1.574   1.031   5.819  0.2167 -0.0167 -0.1307
 1352Sol     HW 8560   1.549   1.123   5.810 -0.2484 -0.3469 -2.3865
 1352Sol     HW 8561   1.628   1.013   5.742  1.1876 -1.3577  0.8427
 1352Sol     MW 8562   1.577   1.038   5.811 -0.7146  0.0170  0.1446
 1353Sol     OW 8563   1.963   1.492   3.782 -0.1022  0.7215 -0.4189
 1353Sol     HW 8564   1.959   1.525   3.872 -0.4961  0.6318 -0.4033
 1353Sol     HW 8565   1.901   1.547   3.734 -1.9694 -1.0336 -0.0618
 1353Sol     MW 8566   1.957   1.500   3.786 -0.2820  0.1370  0.0213
 1354Sol     OW 8567   0.526   1.796   5.473 -0.0652 -0.6508  0.3074
 1354Sol     HW 8568   0.463   1.807   5.545  1.8311 -0.3388  1.9626
 1354Sol     HW 8569   0.550   1.704   5.476  0.6088 -0.4690  0.5886
 1354Sol     MW 8570   0.522   1.789   5.480 -0.5464 -0.1599 -0.0733
 1355Sol     OW 8571   3.129   2.405   7.035  0.0037  0.0000 -0.0228
 1355Sol     HW 8572   3.172   2.456   7.104 -0.9670 -1.2000  1.5062
 1355Sol     HW 8573   3.036   2.424   7.046 -0.1285  0.1288 -1.2902
 1355Sol     MW 8574   3.124   2.411   7.043  0.6841 -0.2401  0.0506
 1356Sol     OW 8575   0.269   1.231   5.229 -0.6473 -0.1302 -0.1398
 1356Sol     HW 8576   0.225   1.305   5.185  0.0347 -0.0376 -0.6781
 1356Sol     HW 8577   0.342   1.209   5.171  0.5815  0.3224  1.2084
 1356Sol     MW 8578   0.271   1.236   5.220  0.1371  0.3105 -0.0304
 1357Sol     OW 8579   2.525   3.092   7.306  0.5796 -0.6561 -0.4745
 1357Sol     HW 8580   2.511   3.003   7.272 -1.0650 -0.9257  0.8806
 1357Sol     HW 8581   2.470   3.097   7.384  1.5995  1.1602  0.1470
 1357Sol     MW 8582   2.519   3.084   7.310 -0.1000 -0.1740 -0.6723
 1358Sol     OW 8583   2.537   2.991   9.275 -0.1089 -0.8451  0.2150
 1358Sol     HW 8584   2.450   3.011   9.312 -0.4373 -0.3135 -0.8220
 1358Sol     HW 8585   2.576   2.931   9.338 -1.1439 -0.9099  0.8181
 1358Sol     MW 8586   2.532   2.988   9.284  0.0532  0.4031 -0.2264
 1359Sol     OW 8587   1.883   0.844   3.415  0.0949  0.7625  0.0232
 1359Sol     HW 8588   1.824   0.907   3.458 -0.1606  1.1700 -0.9096
 1359Sol     HW 8589   1.842   0.759   3.432  1.4238  0.6330  2.8794
 1359Sol     MW 8590   1.874   0.842   3.420  0.5740 -0.1355 -0.6137
 1360Sol     OW 8591   3.043   2.073   3.159  0.4639  0.5607  0.3020
 1360Sol     HW 8592   2.988   2.077   3.238  0.4556  0.1164  0.3197
 1360Sol     HW 8593   3.131   2.059   3.192  0.3419 -0.4833  0.1988
 1360Sol     MW 8594   3.046   2.072   3.169 -0.1440 -0.0372  0.0851
 1361Sol     OW 8595   2.482   0.817   2.512 -0.2574 -0.0409  0.1396
 1361Sol     HW 8596   2.526   0.899   2.535 -1.3884  0.5216  0.3459
 1361Sol     HW 8597   2.393   0.844   2.488 -0.6165 -1.2019  0.1567
 1361Sol     MW 8598   2.478   0.827   2.512  0.1878 -0.1913 -0.6070
 1362Sol     OW 8599   2.176   3.346   7.204  0.0519  0.4171  0.2688
 1362Sol     HW 8600   2.186   3.441   7.203  0.4885  0.3652 -0.5146
 1362Sol     HW 8601   2.259   3.313   7.170 -0.1951 -0.2349  0.2955
 1362Sol     MW 8602   2.184   3.352   7.201  0.2304  0.2254 -0.7367
 1363Sol     OW 8603   0.550   2.552   3.661 -0.7373  0.1850 -0.4651
 1363Sol     HW 8604   0.560   2.510   3.747 -0.1099  0.5115 -0.3711
 1363Sol     HW 8605   0.566   2.645   3.679  1.2015  0.0186 -1.2430
 1363Sol     MW 8606   0.552   2.556   3.671 -0.8241  0.6300  0.5905
 1364Sol     OW 8607   2.608   2.348   6.360 -0.0875  0.2993 -0.1569
 1364Sol     HW 8608   2.642   2.435   6.338 -1.9357  0.6755 -1.6283
 1364Sol     HW 8609   2.528   2.365   6.410 -0.4670 -0.5688 -0.4546
 1364Sol     MW 8610   2.604   2.357   6.363 -0.2052 -1.0235 -0.0555
 1365Sol     OW 8611   2.572   2.386   2.902  0.2347  0.0360  0.6839
 1365Sol     HW 8612   2.630   2.392   2.978  0.4507  1.6128  0.4201
 1365Sol     HW 8613   2.572   2.474   2.865  0.2228 -0.7306 -1.2177
 1365Sol     MW 8614   2.577   2.394   2.905  0.7579  0.0038 -0.3355
 1366Sol     OW 8615   2.171   1.247   3.966 -0.6973 -0.3398  0.2626
 1366Sol     HW 8616   2.119   1.193   3.906 -0.4390 -1.7921  1.3068
 1366Sol     HW 8617   2.262   1.223   3.946 -0.5672 -0.0112  0.4683
 1366Sol     MW 8618   2.175   1.240   3.959 -0.1604  0.1811  0.0078
 1367Sol     OW 8619   2.922   3.219   5.073  0.3848 -0.0828 -0.1902
 1367Sol     HW 8620   2.948   3.140   5.122 -1.2096 -0.3886  0.1816
 1367Sol     HW 8621   2.859   3.187   5.008 -0.9756  1.0100  0.5673
 1367Sol     MW 8622   2.919   3.209   5.072  0.6188 -0.4228 -0.1915
 1368Sol     OW 8623   0.143   2.869   4.108 -0.5053  0.7121  0.5294
 1368Sol     HW 8624   0.096   2.914   4.038  3.1105 -1.5181 -3.6404
 1368Sol     HW 8625   0.213   2.929   4.132  1.4071 -0.5683 -1.6153
 1368Sol     MW 8626   0.145   2.878   4.104 -0.2920 -0.1989  0.4220
 1369Sol     OW 8627   3.133   1.574   9.081  1.0985  0.2283  1.0333
 1369Sol     HW 8628   3.193   1.613   9.145  0.1593  2.2232  0.7313
 1369Sol     HW 8629   3.106   1.647   9.026 -1.1541 -0.7703  0.7704
 1369Sol     MW 8630   3.136   1.584   9.081  0.4270 -0.4547 -0.8827
 1370Sol     OW 8631   1.622   2.336   6.807  0.5211 -0.3634  0.6726
 1370Sol     HW 8632   1.569   2.414   6.823  2.1155  0.5029  1.9164
 1370Sol     HW 8633   1.643   2.341   6.714 -1.1812 -0.4841  0.2655
 1370Sol     MW 8634   1.619   2.344   6.800 -0.2488  0.0674 -0.5337
 1371Sol     OW 8635   1.673   1.077   1.815  0.0935 -0.0773  0.2176
 1371Sol     HW 8636   1.628   1.069   1.731 -0.8728  1.8307  0.5159
 1371Sol     HW 8637   1.615   1.033   1.878 -0.1096  0.1528  0.1917
 1371Sol     MW 8638   1.663   1.072   1.813 -0.2700 -0.4635 -0.3190
 1372Sol     OW 8639   2.452   1.999   5.094  0.5755  0.4008 -0.0470
 1372Sol     HW 8640   2.389   2.006   5.023  1.0711  0.6802 -0.4630
 1372Sol     HW 8641   2.401   1.969   5.169  0.1798 -0.6102 -0.7112
 1372Sol     MW 8642   2.442   1.997   5.095  0.2965 -0.7195 -0.1781
 1373Sol     OW 8643   2.812   2.244   5.424  0.3608 -0.1050  0.1626
 1373Sol     HW 8644   2.804   2.299   5.502  2.1732  0.7359 -0.2106
 1373Sol     HW 8645   2.813   2.306   5.351  1.5699 -0.6626 -0.3196
 1373Sol     MW 8646   2.811   2.255   5.425 -0.8719 -0.0122  0.2608
 1374Sol     OW 8647   1.601   3.055   2.851 -0.1439 -0.5967  0.0784
 1374Sol     HW 8648   1.629   3.135   2.807  0.5241 -0.6259  0.4392
 1374Sol     HW 8649   1.564   3.085   2.934 -0.2102 -0.6400  0.0648
 1374Sol     MW 8650   1.600   3.065   2.855  0.4620 -0.0900 -0.0439
 1375Sol     OW 8651   0.629   1.220   5.767 -0.1037  0.0744 -0.3208
 1375Sol     HW 8652   0.615   1.301   5.816  2.5049  0.1168  0.4332
 1375Sol     HW 8653   0.633   1.152   5.835 -0.0943 -0.3803 -0.7728
 1375Sol     MW 8654   0.628   1.221   5.778  0.3946  0.1048  0.3839
 1376Sol     OW 8655   0.096   1.990   2.130  0.0841  0.5195 -0.4078
 1376Sol     HW 8656   0.060   1.952   2.050  0.8147 -0.4725 -0.2863
 1376Sol     HW 8657   0.183   2.022   2.104  1.1468 -1.5804  0.4055
 1376Sol     MW 8658   0.101   1.990   2.121 -0.2161  0.7650  0.1771
 1377Sol     OW 8659   1.992   0.061   8.492  0.1657 -0.1161  0.3099
 1377Sol     HW 8660   2.025   0.144   8.528  1.0194  0.1490 -1.0639
 1377Sol     HW 8661   1.908   0.048   8.535  0.6027  0.8354  1.4695
 1377Sol     MW 8662   1.988   0.067   8.499 -0.3151 -0.3447  0.2096
 1378Sol     OW 8663   0.203   0.938   3.816  0.3015 -0.0026 -0.1567
 1378Sol     HW 8664   0.178   0.992   3.741  2.2072  1.3057  0.1170
 1378Sol     HW 8665   0.260   0.871   3.780  0.8660  0.3646  0.0433
 1378Sol     MW 8666   0.206   0.937   3.806 -0.0134 -0.2468  0.1852
 1379Sol     OW 8667   0.587   1.363   7.197  0.2730  0.3704  0.4023
 1379Sol     HW 8668   0.508   1.416   7.200  0.3394  0.5088 -0.2783
 1379Sol     HW 8669   0.655   1.420   7.232  0.0812  0.2544  0.9786
 1379Sol     MW 8670   0.586   1.373   7.200  0.4053  0.7446  0.2273
 1380Sol     OW 8671   1.377   1.494   3.017  0.3044 -0.0395  0.2051
 1380Sol     HW 8672   1.433   1.544   3.077  0.5979  0.6103 -0.6076
 1380Sol     HW 8673   1.359   1.554   2.945 -0.4064 -0.6738 -0.1514
 1380Sol     MW 8674   1.381   1.504   3.016 -0.5279  0.0575 -0.2410
 1381Sol     OW 8675   0.007   2.997   7.590 -0.0041  0.4921  0.2101
 1381Sol     HW 8676   0.042   3.086   7.589  1.3530 -0.0317 -1.5574
 1381Sol     HW 8677   0.030   2.962   7.676 -0.3340  1.7592  0.8159
 1381Sol     MW 8678   0.012   3.002   7.597 -0.1470 -0.6294  0.2624
 1382Sol     OW 8679   3.141   2.962   9.310  0.3317  0.0813  0.4431
 1382Sol     HW 8680   3.147   3.055   9.332  1.4291  0.2152 -0.3582
 1382Sol     HW 8681   3.064   2.954   9.254  0.1861  0.4924  0.5869
 1382Sol     MW 8682   3.135   2.969   9.307  0.4005 -0.0659 -0.5677
 1383Sol     OW 8683   0.686   0.238   1.812 -0.1488  0.0327 -0.3827
 1383Sol     HW 8684   0.745   0.171   1.778  0.4252  1.5912 -2.5821
 1383Sol     HW 8685   0.617   0.189   1.857  1.8274 -1.8852  0.6662
 1383Sol     MW 8686   0.685   0.227   1.813 -0.4919  0.2177 -0.3886
 1384Sol     OW 8687   0.697   0.553   2.319 -0.6780  0.2361  1.1295
 1384Sol     HW 8688   0.632   0.494   2.282  0.2981  1.2955 -2.5530
 1384Sol     HW 8689   0.781   0.514   2.295 -0.0111  2.9289 -1.2987
 1384Sol     MW 8690   0.699   0.544   2.314 -0.1913  0.5167  0.3762
 1385Sol     OW 8691   2.545   2.299   5.861  0.5075 -0.1227 -0.7527
 1385Sol     HW 8692   2.480   2.249   5.812  1.4202 -1.3646 -0.7091
 1385Sol     HW 8693   2.600   2.339   5.795 -1.3754  2.4708 -0.8551
 1385Sol     MW 8694   2.544   2.298   5.851 -0.4287  0.3607  0.3265
 1386Sol     OW 8695   0.965   1.369   7.164  0.3088 -0.3521 -0.1985
 1386Sol     HW 8696   1.009   1.285   7.171  0.5732 -0.3653 -1.8560
 1386Sol     HW 8697   0.905   1.359   7.090 -0.8268  0.4016  0.6075
 1386Sol     MW 8698   0.964   1.361   7.158 -0.2682 -0.1745  0.3807
 1387Sol     OW 8699   0.572   2.161   3.760  0.0079 -0.0837  0.1011
 1387Sol     HW 8700   0.647   2.156   3.701 -0.3661  0.0410 -0.3887
 1387Sol     HW 8701   0.508   2.099   3.725 -0.7019  0.8659 -0.3337
 1387Sol     MW 8702   0.573   2.155   3.752 -0.0175 -0.3531 -0.3085
 1388Sol     OW 8703   0.854   0.344   6.165  0.2545 -0.7143 -0.4512
 1388Sol     HW 8704   0.872   0.409   6.232  0.5148 -0.5588 -0.6721
 1388Sol     HW 8705   0.795   0.389   6.104 -2.2036 -1.6959  1.0804
 1388Sol     MW 8706   0.850   0.354   6.165 -0.8579  0.7539  0.1640
 1389Sol     OW 8707   1.400   2.014   9.116 -0.7178 -0.5803  0.2476
 1389Sol     HW 8708   1.479   1.969   9.148 -0.3901 -1.2813 -1.5108
 1389Sol     HW 8709   1.433   2.074   9.049 -1.6858 -0.9811 -0.5959
 1389Sol     MW 8710   1.410   2.015   9.113  0.2107 -0.0992  0.5731
 1390Sol     OW 8711   1.212   1.179   1.821 -0.1726  0.1428 -0.1114
 1390Sol     HW 8712   1.271   1.254   1.816 -2.5108  2.1340  1.0584
 1390Sol     HW 8713   1.143   1.207   1.881 -2.8178 -1.7485 -2.1563
 1390Sol     MW 8714   1.211   1.188   1.826  0.5434  0.2833  0.0505
 1391Sol     OW 8715   0.282   1.583   1.680  0.8467  0.0812 -0.2770
 1391Sol     HW 8716   0.334   1.546   1.750 -0.0120  0.2766  0.4794
 1391Sol     HW 8717   0.245   1.507   1.635  0.2516 -0.0201  0.3736
 1391Sol     MW 8718   0.283   1.573   1.682  0.2929  0.3789  0.6649
 1392Sol     OW 8719   3.041   2.568   5.131 -0.1730  0.4078  0.1538
 1392Sol     HW 8720   3.079   2.618   5.203 -1.1778 -0.2448  1.1495
 1392Sol     HW 8721   3.101   2.583   5.058  0.9091  1.0018  1.1358
 1392Sol     MW 8722   3.050   2.574   5.131  0.1648  0.0230 -0.1578
 1393Sol     OW 8723   1.768   2.604   5.572  0.3797  0.4541 -0.0610
 1393Sol     HW 8724   1.734   2.580   5.486  1.1023  0.5588 -0.3814
 1393Sol     HW 8725   1.691   2.633   5.621 -0.2974 -1.1872 -0.1125
 1393Sol     MW 8726   1.758   2.605   5.569 -0.0351 -0.1750  0.0628
 1394Sol     OW 8727   0.931   0.466   7.533  0.3127 -0.2313 -0.0678
 1394Sol     HW 8728   1.009   0.475   7.589  0.4737 -0.1476 -0.3031
 1394Sol     HW 8729   0.868   0.420   7.588  0.5307 -0.3055  0.1256
 1394Sol     MW 8730   0.933   0.463   7.543  0.4019  0.7437  0.6260
 1395Sol     OW 8731   2.189   0.661   5.030  0.4705 -0.0793 -0.0784
 1395Sol     HW 8732   2.260   0.694   5.084  1.0532 -0.3382 -0.6834
 1395Sol     HW 8733   2.194   0.712   4.949 -0.3296  0.2335  0.0580
 1395Sol     MW 8734   2.195   0.669   5.027 -0.2211  0.1329  0.0794
 1396Sol     OW 8735   2.828   1.352   9.830  0.2132  0.1932  0.5325
 1396Sol     HW 8736   2.923   1.347   9.818  0.3753 -1.4460  2.2730
 1396Sol     HW 8737   2.817   1.377   9.922 -1.0391  3.0458 -0.3423
 1396Sol     MW 8738   2.835   1.354   9.837  0.5610  0.1008  0.1644
 1397Sol     OW 8739   3.226   0.330   5.917  0.1454  0.2875  0.2390
 1397Sol     HW 8740   3.139   0.301   5.889  1.0539 -1.1031 -1.2507
 1397Sol     HW 8741   3.237   0.416   5.876 -0.9030  0.9129  1.2399
 1397Sol     MW 8742   3.219   0.335   5.911  0.1494 -0.0327 -0.8079
 1398Sol     OW 8743   0.184   2.567   5.679 -0.0232 -0.4758  0.1019
 1398Sol     HW 8744   0.142   2.483   5.659  0.5937 -0.5782 -0.7963
 1398Sol     HW 8745   0.115   2.619   5.721  0.2288 -2.2193  2.7653
 1398Sol     MW 8746   0.174   2.564   5.681 -0.6694  1.6070  0.3226
 1399Sol     OW 8747   2.521   0.117   5.098  0.4370  0.2193 -0.5862
 1399Sol     HW 8748   2.497   0.031   5.062  0.5280  0.1369 -0.4520
 1399Sol     HW 8749   2.483   0.180   5.037 -1.4001  0.1257  0.4281
 1399Sol     MW 8750   2.515   0.115   5.089  0.1673 -0.4228  0.3545
 1400Sol     OW 8751   0.065   3.376   9.046  0.0860  0.6808  0.4801
 1400Sol     HW 8752   0.058   3.288   9.008 -0.2315  1.2015 -0.6987
 1400Sol     HW 8753   0.158   3.395   9.045  0.4706 -0.7943  3.4583
 1400Sol     MW 8754   0.072   3.370   9.042 -0.6326  0.1959 -0.4147
 1401Sol     OW 8755   0.149   0.602   6.312  0.0000 -0.3550  0.1306
 1401Sol     HW 8756   0.198   0.597   6.230 -0.2777 -0.4049 -0.0328
 1401Sol     HW 8757   0.109   0.516   6.322 -0.1006 -0.2963  0.2359
 1401Sol     MW 8758   0.150   0.594   6.306  0.2856 -0.3963  0.2524
 1402Sol     OW 8759   1.404   1.352   8.581  0.1646  0.0144  0.9051
 1402Sol     HW 8760   1.461   1.276   8.594 -1.6798 -0.9145  4.0245
 1402Sol     HW 8761   1.391   1.388   8.668 -1.4443  2.1268 -0.1600
 1402Sol     MW 8762   1.408   1.348   8.590 -0.1818  0.0764 -0.2083
 1403Sol     OW 8763   3.256   1.343   5.145 -0.0634  0.0801 -0.3175
 1403Sol     HW 8764   3.179   1.391   5.116 -0.1930  1.0353  1.5745
 1403Sol     HW 8765   3.327   1.407   5.146 -0.0630  0.0776  1.4655
 1403Sol     MW 8766   3.256   1.353   5.142  0.1884 -0.0909 -0.4048
 1404Sol     OW 8767   0.848   0.801   2.896  0.1993 -0.1146  0.1003
 1404Sol     HW 8768   0.773   0.855   2.873  0.9344  0.0022 -2.1230
 1404Sol     HW 8769   0.923   0.847   2.857  1.4334 -0.2054  2.3115
 1404Sol     MW 8770   0.848   0.810   2.890 -0.5156 -0.4916 -0.5439
 1405Sol     OW 8771   1.954   2.017   7.316 -0.1940 -0.3227  0.8006
 1405Sol     HW 8772   1.866   1.979   7.318  0.0288 -0.7848  2.3656
 1405Sol     HW 8773   2.006   1.954   7.267 -0.9543  0.4897 -1.1338
 1405Sol     MW 8774   1.951   2.008   7.312  0.1237  0.0366 -0.1181
 1406Sol     OW 8775   3.094   0.599   1.817  0.3481  0.0222 -0.2421
 1406Sol     HW 8776   3.140   0.517   1.799  1.1982  0.7029 -1.2963
 1406Sol     HW 8777   3.140   0.664   1.764 -1.2709  0.9008 -0.6107
 1406Sol     MW 8778   3.102   0.598   1.810 -0.1625  0.2187  0.2758
 1407Sol     OW 8779   0.443   2.940   7.833 -0.3136 -0.4047  0.2118
 1407Sol     HW 8780   0.410   2.856   7.866  2.7535 -0.9759  2.0867
 1407Sol     HW 8781   0.475   2.920   7.745 -2.2973 -0.5055 -0.4885
 1407Sol     MW 8782   0.443   2.930   7.828 -0.1538  0.1791  0.2707
 1408Sol     OW 8783   0.605   1.546   6.999  0.1273 -0.4742  0.2362
 1408Sol     HW 8784   0.606   1.466   7.052  0.1566 -0.6312 -0.0014
 1408Sol     HW 8785   0.648   1.521   6.917 -2.1632 -0.9481 -0.8760
 1408Sol     MW 8786   0.609   1.536   6.996  0.4246  0.2593 -0.3375
 1409Sol     OW 8787   2.280   1.620   2.246  0.7477 -0.3105 -0.6633
 1409Sol     HW 8788   2.288   1.622   2.150  0.0627  0.9409 -0.7087
 1409Sol     HW 8789   2.202   1.567   2.262 -0.2393  1.0427 -0.8926
 1409Sol     MW 8790   2.273   1.616   2.239  0.0014 -0.3152  0.0502
 1410Sol     OW 8791   1.662   3.073   4.394  0.0814  0.1778 -0.2554
 1410Sol     HW 8792   1.741   3.052   4.445  0.0271  0.7574  0.0755
 1410Sol     HW 8793   1.618   3.141   4.445 -0.5264  0.0094 -0.5492
 1410Sol     MW 8794   1.665   3.077   4.404  0.4157 -0.0138  0.1757
 1411Sol     OW 8795   0.922   2.380   9.455 -0.2238  0.5060 -0.4924
 1411Sol     HW 8796   0.977   2.437   9.507  0.5831 -0.9569  0.2871
 1411Sol     HW 8797   0.962   2.379   9.368 -0.5949  1.6000 -0.6780
 1411Sol     MW 8798   0.930   2.385   9.452  0.0240  0.4592 -0.4136
 1412Sol     OW 8799   3.193   1.785   7.042  0.0195 -0.2208  0.4163
 1412Sol     HW 8800   3.166   1.755   7.129 -0.8204  0.7937  0.5112
 1412Sol     HW 8801   3.289   1.780   7.045 -0.0683 -2.8752  0.4127
 1412Sol     MW 8802   3.199   1.782   7.050  0.3626 -0.3670  0.9417
 1413Sol     OW 8803   1.759   2.006   7.901  0.2852  0.1454  0.0405
 1413Sol     HW 8804   1.842   1.991   7.856 -0.0124  0.2565 -0.5484
 1413Sol     HW 8805   1.694   2.010   7.831 -0.2604 -0.2404  0.5184
 1413Sol     MW 8806   1.761   2.005   7.891 -0.0547  0.0783 -0.7489
 1414Sol     OW 8807   0.456   2.194   7.431  0.4230  0.5067 -0.2077
 1414Sol     HW 8808   0.424   2.123   7.487 -0.9012  0.5641 -0.8688
 1414Sol     HW 8809   0.551   2.194   7.443  0.3628 -0.9361  0.3015
 1414Sol     MW 8810   0.461   2.188   7.437 -0.3689 -0.2113 -0.6212
 1415Sol     OW 8811   1.087   0.995   2.565 -0.1578  0.0893  0.1495
 1415Sol     HW 8812   1.018   0.929   2.550  0.4058 -0.6819  0.9151
 1415Sol     HW 8813   1.072   1.024   2.655 -0.8697  1.5644 -0.4404
 1415Sol     MW 8814   1.079   0.991   2.572  0.4539  0.9184  0.8749
 1416Sol     OW 8815   0.325   2.401   1.459 -0.3599  0.0485 -0.2212
 1416Sol     HW 8816   0.308   2.442   1.544 -2.5313 -1.0137 -0.1208
 1416Sol     HW 8817   0.272   2.451   1.397  1.2825  0.8706 -0.9961
 1416Sol     MW 8818   0.319   2.409   1.461 -0.3007  0.3976  1.1246
 1417Sol     OW 8819   2.164   1.098   5.146  0.4821 -0.0027  0.2890
 1417Sol     HW 8820   2.209   1.182   5.137 -0.5029  0.3648 -1.5713
 1417Sol     HW 8821   2.077   1.113   5.107 -1.1879 -0.7656  3.5309
 1417Sol     MW 8822   2.160   1.107   5.141  0.2033 -0.0307  0.3356
 1418Sol     OW 8823   2.453   0.435   2.971 -0.2902  0.1685 -0.1153
 1418Sol     HW 8824   2.400   0.447   3.049  1.5726  0.5802  1.1122
 1418Sol     HW 8825   2.539   0.408   3.004  0.2897 -0.4637 -2.0549
 1418Sol     MW 8826   2.456   0.433   2.981 -0.4280 -0.0664  0.6999
 1419Sol     OW 8827   0.795   2.124   3.608 -0.4839 -0.8239 -0.1244
 1419Sol     HW 8828   0.838   2.141   3.524 -1.3513 -1.1291 -0.6364
 1419Sol     HW 8829   0.846   2.173   3.671  1.2680 -2.0313 -0.5650
 1419Sol     MW 8830   0.803   2.130   3.606  0.1709 -0.5537 -0.5940
 1420Sol     OW 8831   2.514   1.591   8.026 -1.1735  0.0967  0.0282
 1420Sol     HW 8832   2.560   1.593   7.941  0.7354 -0.0175  1.0345
 1420Sol     HW 8833   2.557   1.522   8.075 -1.4022  1.0295  1.5747
 1420Sol     MW 8834   2.522   1.585   8.022  0.6464  0.5038  0.1908
 1421Sol     OW 8835   2.987   1.402   6.988 -0.8986  0.3602  0.4677
 1421Sol     HW 8836   3.064   1.348   7.006 -0.0585  1.4403  0.1657
 1421Sol     HW 8837   2.949   1.419   7.074  0.1330  1.1567  0.7800
 1421Sol     MW 8838   2.991   1.399   6.997 -0.5281 -0.1571  0.2685
 1422Sol     OW 8839   0.020   1.291   6.633  0.3945  0.3219  0.3549
 1422Sol     HW 8840  -0.045   1.221   6.640 -1.2960  1.8598  0.3644
 1422Sol     HW 8841  -0.005   1.354   6.699  0.2448  2.2322 -1.4808
 1422Sol     MW 8842   0.012   1.290   6.639 -0.0633  0.5145 -0.2130
 1423Sol     OW 8843   0.673   2.751   9.226 -0.4899  0.0725  0.1269
 1423Sol     HW 8844   0.692   2.694   9.301  1.7223  0.6587  0.0312
 1423Sol     HW 8845   0.706   2.837   9.252 -1.9373  0.8674 -0.5697
 1423Sol     MW 8846   0.677   2.753   9.235  0.0664 -0.4308  0.5622
 1424Sol     OW 8847   3.023   0.426   5.118  0.3020 -0.2371  0.1542
 1424Sol     HW 8848   2.927   0.431   5.124  0.4187  0.5841  1.7232
 1424Sol     HW 8849   3.046   0.347   5.167  0.5003  0.3141  0.9750
 1424Sol     MW 8850   3.016   0.419   5.123  0.0461 -0.6112 -0.9168
 1425Sol     OW 8851   3.099   0.655   8.314  0.3940  0.5055  1.1568
 1425Sol     HW 8852   3.040   0.619   8.380 -0.6051 -0.7914 -0.4087
 1425Sol     HW 8853   3.044   0.671   8.237  1.7430  0.8809  0.2301
 1425Sol     MW 8854   3.089   0.653   8.313 -0.0141 -0.1284  0.9117
 1426Sol     OW 8855   2.356   1.656   4.746  0.1826 -0.1042 -0.2733
 1426Sol     HW 8856   2.272   1.612   4.742  1.2362 -2.0710 -1.6232
 1426Sol     HW 8857   2.382   1.648   4.838 -0.7796 -0.0678  0.0076
 1426Sol     MW 8858   2.351   1.651   4.754 -0.4398  0.4082  0.3726
 1427Sol     OW 8859   1.437   3.355   2.272 -0.1410 -0.0353 -0.1559
 1427Sol     HW 8860   1.463   3.345   2.181 -0.2866  0.7469 -0.2853
 1427Sol     HW 8861   1.341   3.347   2.270 -0.2086  0.7809 -0.1794
 1427Sol     MW 8862   1.430   3.353   2.264  0.1460 -0.6803  0.4960
 1428Sol     OW 8863   0.069   1.692   6.620  0.3398 -0.2525  0.0650
 1428Sol     HW 8864   0.074   1.785   6.597 -2.7572  0.3890  1.7710
 1428Sol     HW 8865   0.018   1.652   6.550  1.3286 -0.6315 -0.4578
 1428Sol     MW 8866   0.065   1.697   6.612  0.1008 -0.4883  0.7038
 1429Sol     OW 8867   1.187   2.496   6.309 -0.0489  0.4773 -0.2640
 1429Sol     HW 8868   1.097   2.504   6.341  0.3024  1.1237  0.5674
 1429Sol     HW 8869   1.216   2.411   6.341  0.3741  1.2059  1.3541
 1429Sol     MW 8870   1.181   2.489   6.315 -0.1399 -0.0674 -0.4765
 1430Sol     OW 8871   2.127   1.363   7.609 -0.8044  0.2449  0.2862
 1430Sol     HW 8872   2.077   1.412   7.544  1.8663  0.8892 -1.3964
 1430Sol     HW 8873   2.184   1.428   7.650 -0.1357 -0.7393  0.9464
 1430Sol     MW 8874   2.128   1.373   7.607 -0.2170 -0.4019  0.1196
 1431Sol     OW 8875   2.749   1.839   4.628  0.2745  0.7737  0.3925
 1431Sol     HW 8876   2.818   1.849   4.695 -0.5414 -0.2145  1.4001
 1431Sol     HW 8877   2.713   1.752   4.644 -2.5667  2.0455  1.1814
 1431Sol     MW 8878   2.752   1.832   4.636  0.2042 -0.3165 -0.2815
 1432Sol     OW 8879   2.312   0.179   9.346 -0.2192 -0.5194  0.0354
 1432Sol     HW 8880   2.287   0.145   9.261  0.0555  0.6940 -0.5467
 1432Sol     HW 8881   2.233   0.221   9.380 -0.3894 -1.1921  0.4761
 1432Sol     MW 8882   2.303   0.180   9.342  0.3319  0.6384  0.3353
 1433Sol     OW 8883   0.350   2.863   2.778 -0.5266  0.3607 -1.0969
 1433Sol     HW 8884   0.390   2.948   2.758  2.2669 -0.8226 -0.8489
 1433Sol     HW 8885   0.341   2.863   2.873  0.6750 -0.0813 -0.9662
 1433Sol     MW 8886   0.353   2.871   2.784 -0.2665  0.3736  0.6490
 1434Sol     OW 8887   2.806   3.386   3.956 -0.2195  0.2317 -0.2128
 1434Sol     HW 8888   2.728   3.361   3.905  0.7135  0.6182 -1.8629
 1434Sol     HW 8889   2.872   3.322   3.932 -0.0133 -0.1285  1.2402
 1434Sol     MW 8890   2.805   3.378   3.949  0.2688  0.2009  0.1706
 1435Sol     OW 8891   0.437   3.020   6.507 -0.0157 -0.0564  0.5801
 1435Sol     HW 8892   0.492   2.946   6.533 -0.7855 -0.4635  1.0609
 1435Sol     HW 8893   0.443   3.022   6.412 -0.3295 -1.0060  0.5345
 1435Sol     MW 8894   0.443   3.013   6.501  0.2890  0.0368 -0.2159
 1436Sol     OW 8895   0.205   0.199   6.244 -0.3580 -0.4347  0.1475
 1436Sol     HW 8896   0.215   0.215   6.338 -0.4599  0.5588  0.0022
 1436Sol     HW 8897   0.289   0.226   6.206  0.1494 -2.0491  0.0871
 1436Sol     MW 8898   0.213   0.203   6.249  0.6725  0.4334 -0.5390
 1437Sol     OW 8899   0.390   1.091   2.260  0.1797 -0.5042 -0.5230
 1437Sol     HW 8900   0.364   1.058   2.346  0.2449  0.0346 -0.2977
 1437Sol     HW 8901   0.335   1.167   2.246  0.2577 -0.5188 -0.9058
 1437Sol     MW 8902   0.383   1.095   2.266 -0.6467  0.2026 -0.0440
 1438Sol     OW 8903   1.054   2.140   2.689  0.0369  0.3589 -0.3764
 1438Sol     HW 8904   1.057   2.224   2.642  1.2661  0.4108 -0.2127
 1438Sol     HW 8905   1.131   2.092   2.658 -0.2110 -0.3808  0.1428
 1438Sol     MW 8906   1.061   2.143   2.682 -0.2987 -0.2299 -0.2585
 1439Sol     OW 8907   1.325   0.330   5.020  0.5683  0.2555  0.5865
 1439Sol     HW 8908   1.253   0.362   4.965  0.8211  1.2048  0.7925
 1439Sol     HW 8909   1.299   0.352   5.109  1.6982  1.8231  0.5646
 1439Sol     MW 8910   1.316   0.335   5.023  0.1463 -0.3131 -0.4696
 1440Sol     OW 8911   0.592   1.398   4.988  0.2406  0.4382 -0.2122
 1440Sol     HW 8912   0.508   1.417   4.947  0.1205  1.2040  0.3681
 1440Sol     HW 8913   0.575   1.321   5.043 -0.4729  1.4840  1.0688
 1440Sol     MW 8914   0.583   1.393   4.989  0.3680  0.0163 -0.1957
 1441Sol     OW 8915   0.612   2.160   4.664 -0.2804 -0.1062  0.2617
 1441Sol     HW 8916   0.554   2.096   4.622  0.5835 -1.2067  0.7188
 1441Sol     HW 8917   0.576   2.245   4.639 -1.2399 -0.7664 -0.6457
 1441Sol     MW 8918   0.603   2.162   4.658 -0.1491  0.4795  0.1381
 1442Sol     OW 8919   1.093   0.152   2.537  0.0498 -0.1404  0.3497
 1442Sol     HW 8920   1.034   0.084   2.503  2.0674 -0.8559 -1.8657
 1442Sol     HW 8921   1.073   0.229   2.484 -0.2162  0.1851  0.9138
 1442Sol     MW 8922   1.086   0.153   2.529 -0.0622 -0.6135 -0.6083
 1443Sol     OW 8923   1.978   1.836   5.123  0.4732  0.3068  0.2081
 1443Sol     HW 8924   2.018   1.889   5.192  0.8400  0.1673  0.1014
 1443Sol     HW 8925   2.050   1.786   5.085  0.0743 -0.5164  0.5253
 1443Sol     MW 8926   1.988   1.836   5.126 -0.3566  0.0487 -0.3733
 1444Sol     OW 8927   1.336   1.132   3.148  0.0720 -0.0237  0.0236
 1444Sol     HW 8928   1.360   1.051   3.194  0.7027  0.2627  0.2044
 1444Sol     HW 8929   1.415   1.158   3.102 -0.7425 -0.6463 -1.7559
 1444Sol     MW 8930   1.345   1.127   3.148  0.2808 -0.0246  0.3060
 1445Sol     OW 8931   3.223   1.927   7.882  0.0614  0.2035  0.4681
 1445Sol     HW 8932   3.191   1.853   7.830 -1.5805  0.9028  0.4551
 1445Sol     HW 8933   3.279   1.976   7.821 -0.4345  0.0511 -0.1197
 1445Sol     MW 8934   3.225   1.925   7.872  0.1564  0.3574  0.3147
 1446Sol     OW 8935   1.593   2.841   2.448  0.0539  0.0530  0.0316
 1446Sol     HW 8936   1.573   2.910   2.385  0.8971 -0.0189 -0.3227
 1446Sol     HW 8937   1.554   2.762   2.411  1.7263 -0.2607 -1.0899
 1446Sol     MW 8938   1.588   2.840   2.439 -0.0915  0.5333 -0.3782
 1447Sol     OW 8939   3.281   2.652   2.003 -0.4638  1.2239 -0.0870
 1447Sol     HW 8940   3.319   2.740   2.008  0.7295  0.6440  1.4617
 1447Sol     HW 8941   3.304   2.611   2.086 -4.4072  0.7922  0.9157
 1447Sol     MW 8942   3.286   2.657   2.011 -0.1791  0.3621  0.2024
 1448Sol     OW 8943   2.747   2.912   6.166  0.0026 -0.2177 -0.0042
 1448Sol     HW 8944   2.817   2.977   6.167  0.2484 -0.4813 -0.1139
 1448Sol     HW 8945   2.770   2.851   6.236 -1.3412  0.9865  1.5120
 1448Sol     MW 8946   2.755   2.913   6.172 -0.4222 -0.6015  0.1765
 1449Sol     OW 8947   0.285   1.746   7.307  0.2671 -0.1937 -0.0399
 1449Sol     HW 8948   0.309   1.657   7.282  0.7922 -0.0425 -0.0725
 1449Sol     HW 8949   0.313   1.754   7.398 -1.1286 -0.5523  0.4443
 1449Sol     MW 8950   0.289   1.739   7.313 -0.2851 -0.4238  0.0875
 1450Sol     OW 8951   1.315   3.342   1.893  0.0920 -0.1254 -0.3244
 1450Sol     HW 8952   1.278   3.271   1.841 -1.9174  0.6938 -0.0442
 1450Sol     HW 8953   1.355   3.401   1.829  0.5438 -0.7883 -0.6615
 1450Sol     MW 8954   1.315   3.341   1.883  0.0469 -0.8578 -0.6142
 1451Sol     OW 8955   1.831   0.154   1.748  0.0261 -0.4322  0.3302
 1451Sol     HW 8956   1.751   0.178   1.795  0.7780  2.1917  0.3794
 1451Sol     HW 8957   1.888   0.116   1.814 -0.4656 -0.5312  0.6968
 1451Sol     MW 8958   1.829   0.153   1.758  1.0167  0.3447  0.3452
 1452Sol     OW 8959   1.691   3.383   7.594 -0.3724  0.0684 -0.2602
 1452Sol     HW 8960   1.721   3.320   7.660  0.8680  0.8560 -0.0562
 1452Sol     HW 8961   1.644   3.329   7.530 -2.1505 -0.6181  1.5599
 1452Sol     MW 8962   1.689   3.372   7.594 -0.1045 -0.0617 -0.0684
 1453Sol     OW 8963   1.138   1.482   5.942  0.1567  0.4397 -0.2577
 1453Sol     HW 8964   1.228   1.484   5.910  0.1911  1.1275 -0.1296
 1453Sol     HW 8965   1.091   1.543   5.885 -0.2256  0.0749 -0.3285
 1453Sol     MW 8966   1.142   1.488   5.934  0.0963  0.1881 -0.3397
 1454Sol     OW 8967   0.555   2.249   2.982  0.3069  0.0636 -0.5605
 1454Sol     HW 8968   0.648   2.244   3.002  0.3141  1.4147 -0.1972
 1454Sol     HW 8969   0.547   2.322   2.921 -0.7939  1.5454  1.2801
 1454Sol     MW 8970   0.563   2.255   2.979 -0.1631  0.0445 -0.1834
 1455Sol     OW 8971   1.910   0.295   8.815  0.0354  0.5960  0.3519
 1455Sol     HW 8972   1.843   0.232   8.843 -0.5576  0.7313 -0.7013
 1455Sol     HW 8973   1.926   0.349   8.892 -1.5722  0.9809  0.4338
 1455Sol     MW 8974   1.905   0.294   8.824  0.2661  0.1339 -0.1784
 1456Sol     OW 8975   0.585   0.588   6.713  0.7154 -0.0432 -0.2087
 1456Sol     HW 8976   0.634   0.565   6.792 -1.9820  0.4102  1.6807
 1456Sol     HW 8977   0.570   0.683   6.722 -1.1195 -0.3081 -0.3560
 1456Sol     MW 8978   0.588   0.595   6.721 -0.1428  0.7008 -0.6208
 1457Sol     OW 8979   1.892   2.415   7.842 -0.4402 -0.2153 -0.3450
 1457Sol     HW 8980   1.983   2.393   7.819 -0.1389 -0.7307  1.2411
 1457Sol     HW 8981   1.899   2.453   7.930 -1.7552 -0.2024 -0.2472
 1457Sol     MW 8982   1.901   2.416   7.848  0.4772  0.2471  0.6928
 1458Sol     OW 8983   1.593   0.154   6.247  0.1259  0.3002 -0.3424
 1458Sol     HW 8984   1.531   0.096   6.204 -1.6521  0.0765  2.4251
 1458Sol     HW 8985   1.678   0.113   6.234 -0.8656 -1.8506 -0.1961
 1458Sol     MW 8986   1.595   0.145   6.242  0.5085 -0.3485 -0.0892
 1459Sol     OW 8987   3.044   2.259   2.131  0.2839  0.0731  0.5154
 1459Sol     HW 8988   2.985   2.232   2.060  0.9758 -1.9391  0.6660
 1459Sol     HW 8989   2.991   2.317   2.185 -1.2533 -0.9084  0.0995
 1459Sol     MW 8990   3.034   2.262   2.129  0.1152  0.1233 -0.4716
 1460Sol     OW 8991   0.214   1.987   6.861 -0.0188  0.1131  0.0490
 1460Sol     HW 8992   0.136   2.043   6.870  0.4085  0.4644  1.7273
 1460Sol     HW 8993   0.196   1.913   6.919  0.2813 -0.5013 -0.6519
 1460Sol     MW 8994   0.205   1.985   6.867  0.4461  0.3142 -0.0231
 1461Sol     OW 8995   1.448   2.185   8.903 -0.4325  0.6769 -0.2048
 1461Sol     HW 8996   1.498   2.266   8.890  0.6655 -0.0232 -0.3637
 1461Sol     HW 8997   1.409   2.167   8.818  1.3275 -0.2848 -0.8282
 1461Sol     MW 8998   1.449   2.191   8.894  0.5511 -0.0072 -0.5002
 1462Sol     OW 8999   2.659   0.288   3.083  0.2428  0.0391 -0.1416
 1462Sol     HW 9000   2.626   0.289   3.173  0.6195  0.6972 -0.0102
 1462Sol     HW 9001   2.750   0.317   3.091  0.8373 -1.6576 -0.5152
 1462Sol     MW 9002   2.664   0.291   3.092 -0.4680  0.3159 -0.8330
 1463Sol     OW 9003   0.918   2.147   7.014 -0.2017 -0.8601  0.3376
 1463Sol     HW 9004   0.887   2.164   7.103 -0.0629  1.1696  0.0226
 1463Sol     HW 9005   0.899   2.227   6.967  1.6815 -1.1346 -0.9333
 1463Sol     MW 9006   0.913   2.155   7.018 -0.1013 -0.0772  0.2561
 1464Sol     OW 9007   1.552   1.299   7.137  0.1718  0.1357  0.1674
 1464Sol     HW 9008   1.543   1.390   7.164  1.0548 -0.3201  2.0965
 1464Sol     HW 9009   1.632   1.296   7.084 -0.1246  0.5605 -0.3061
 1464Sol     MW 9010   1.558   1.307   7.135 -0.2523  0.3830 -0.2492
 1465Sol     OW 9011   0.787   1.321   6.945 -0.0462  0.3160 -0.4719
 1465Sol     HW 9012   0.767   1.309   6.852 -3.0296  2.1430 -0.1412
 1465Sol     HW 9013   0.768   1.237   6.985 -1.6891  0.3915 -1.0666
 1465Sol     MW 9014   0.784   1.313   6.940 -0.1078 -0.0535 -0.1342
 1466Sol     OW 9015   1.936   0.196   1.511  0.0294  0.3563 -0.3669
 1466Sol     HW 9016   1.899   0.126   1.458 -1.3066  0.1269  0.8326
 1466Sol     HW 9017   1.909   0.175   1.601  1.2579  1.3609  0.2522
 1466Sol     MW 9018   1.930   0.188   1.515  0.2170  0.0636  0.1884
 1467Sol     OW 9019   1.085   0.048   3.744  0.1075  0.4075 -0.3113
 1467Sol     HW 9020   1.178   0.028   3.758  0.9433  2.4527 -2.4154
 1467Sol     HW 9021   1.065   0.009   3.659 -0.4217  1.5127 -0.7102
 1467Sol     MW 9022   1.092   0.043   3.738  0.2199  0.8363  0.2649
 1468Sol     OW 9023   1.262   3.364   4.015  0.0199 -0.9775 -0.4135
 1468Sol     HW 9024   1.315   3.404   3.946  0.6311 -1.2806 -0.1215
 1468Sol     HW 9025   1.221   3.439   4.059 -0.9732 -0.8216 -1.5741
 1468Sol     MW 9026   1.263   3.374   4.012 -0.4576  0.4588 -0.0354
 1469Sol     OW 9027   1.049   3.260   7.975 -0.5981 -0.2366 -0.3943
 1469Sol     HW 9028   1.096   3.253   8.059 -0.0470 -2.2819 -0.8511
 1469Sol     HW 9029   0.957   3.253   7.999 -0.4822 -0.1126  0.1107
 1469Sol     MW 9030   1.045   3.259   7.985  0.1439 -0.2656 -0.0894
 1470Sol     OW 9031   2.190   0.396   3.200  0.0899  0.3483  0.4211
 1470Sol     HW 9032   2.199   0.490   3.185  0.3909  0.3587  0.6634
 1470Sol     HW 9033   2.145   0.363   3.122  0.8649  0.5297 -0.1017
 1470Sol     MW 9034   2.187   0.401   3.192  0.2060  0.1859  0.2364
 1471Sol     OW 9035   1.238   2.978   4.349 -0.5888 -0.0743 -0.2359
 1471Sol     HW 9036   1.227   3.010   4.260  1.4659 -0.8017 -0.7640
 1471Sol     HW 9037   1.286   3.047   4.394  1.6665 -1.3150 -0.7104
 1471Sol     MW 9038   1.241   2.987   4.345 -0.1800  0.0381  0.4942
 1472Sol     OW 9039   3.078   2.071   4.843 -0.1128 -0.2988 -0.3272
 1472Sol     HW 9040   3.170   2.095   4.836 -0.7577  2.2748 -0.6107
 1472Sol     HW 9041   3.039   2.103   4.761 -1.6115  0.3959  0.6400
 1472Sol     MW 9042   3.083   2.076   4.835  0.2028 -0.1617 -0.5751
 1473Sol     OW 9043   2.753   1.362   9.560 -0.1718 -0.1929  0.2237
 1473Sol     HW 9044   2.774   1.373   9.652 -2.3838 -1.5858  0.9254
 1473Sol     HW 9045   2.726   1.450   9.531 -0.0775  0.1063  1.0355
 1473Sol     MW 9046   2.753   1.371   9.565 -0.0521  0.2621 -0.0733
 1474Sol     OW 9047   0.244   0.079   3.517  0.1466  0.3554 -0.6512
 1474Sol     HW 9048   0.270   0.040   3.600 -1.6435 -0.7225 -0.5519
 1474Sol     HW 9049   0.215   0.168   3.540  1.2874  0.6685 -0.3982
 1474Sol     MW 9050   0.244   0.084   3.527 -0.4392  0.3194  0.0516
 1475Sol     OW 9051   2.993   2.976   5.262  0.5559 -0.1895  0.1114
 1475Sol     HW 9052   3.088   2.985   5.256  0.7779  0.8025  3.9310
 1475Sol     HW 9053   2.979   2.892   5.306 -0.2908  0.1715  0.5576
 1475Sol     MW 9054   3.000   2.969   5.265 -0.3510  0.6750 -0.0367
 1476Sol     OW 9055   1.642   1.049   6.930  0.0459  0.2633  0.6455
 1476Sol     HW 9056   1.705   1.120   6.946  2.0292 -1.2706 -0.0900
 1476Sol     HW 9057   1.694   0.980   6.888 -2.0776 -1.1919  0.3282
 1476Sol     MW 9058   1.653   1.049   6.928 -0.2547 -0.7283  0.2045
 1477Sol     OW 9059   2.117   3.245   1.586 -0.1562  0.0274  0.4968
 1477Sol     HW 9060   2.074   3.160   1.577  0.0753  0.0406 -0.7824
 1477Sol     HW 9061   2.136   3.252   1.680 -0.5066 -1.1634  0.6670
 1477Sol     MW 9062   2.115   3.238   1.594  0.0276 -0.6014 -0.1418
 1478Sol     OW 9063   0.065   0.362   4.254 -0.0067 -0.1173 -0.0739
 1478Sol     HW 9064  -0.002   0.307   4.294  0.2475 -1.3369 -1.3200
 1478Sol     HW 9065   0.137   0.363   4.318 -0.9534  0.7312  1.0013
 1478Sol     MW 9066   0.066   0.357   4.264 -0.3985  0.2677  0.2549
 1479Sol     OW 9067   3.166   0.170   9.394  0.1964  0.6747  0.0532
 1479Sol     HW 9068   3.165   0.220   9.312  0.2349 -0.5832 -0.7166
 1479Sol     HW 9069   3.077   0.134   9.401 -0.0730  1.4914  1.0207
 1479Sol     MW 9070   3.158   0.171   9.388 -0.8144  0.2942 -0.4591
 1480Sol     OW 9071   1.870   3.387   4.372 -0.4154  0.1299  0.3999
 1480Sol     HW 9072   1.836   3.414   4.287 -0.8762 -0.4324  0.4041
 1480Sol     HW 9073   1.792   3.379   4.427 -0.2847 -1.2549  0.3855
 1480Sol     MW 9074   1.860   3.389   4.369  0.0505 -0.2427 -0.2246
 1481Sol     OW 9075   2.849   2.699   3.559 -0.2420 -0.0097  0.1086
 1481Sol     HW 9076   2.912   2.649   3.612  2.3483  0.8775 -1.9972
 1481Sol     HW 9077   2.787   2.634   3.527 -0.8096 -0.8241  2.7399
 1481Sol     MW 9078   2.849   2.689   3.561  0.2540  0.6629 -0.1682
 1482Sol     OW 9079   1.774   0.171   3.391  0.6461  0.4736  0.0584
 1482Sol     HW 9080   1.782   0.085   3.432  3.1339 -1.8642 -4.9341
 1482Sol     HW 9081   1.860   0.212   3.402  0.2908  1.2336  0.0907
 1482Sol     MW 9082   1.782   0.167   3.395  0.3111  0.0693 -0.3008
 1483Sol     OW 9083   0.522   2.380   4.210  0.0389  0.4462  0.3224
 1483Sol     HW 9084   0.554   2.468   4.227  2.0327 -0.4237  1.1253
 1483Sol     HW 9085   0.599   2.324   4.213 -1.2724 -1.4302  0.4342
 1483Sol     MW 9086   0.531   2.383   4.212 -0.2254  0.6442 -0.1742
 1484Sol     OW 9087   0.796   3.127   8.987  0.2500 -0.1518  1.1048
 1484Sol     HW 9088   0.770   3.174   8.908  0.4250  1.0993  1.7913
 1484Sol     HW 9089   0.756   3.175   9.059 -0.8556 -1.9602  1.7097
 1484Sol     MW 9090   0.790   3.135   8.986 -0.2844 -0.3214 -0.0275
 1485Sol     OW 9091   2.153   2.626   8.551  0.8582 -0.7573 -0.1483
 1485Sol     HW 9092   2.153   2.538   8.590 -1.4024 -1.3567 -1.4095
 1485Sol     HW 9093   2.246   2.650   8.547  1.4438 -2.6615  1.1388
 1485Sol     MW 9094   2.162   2.620   8.554 -0.0860  0.2138 -0.0948
 1486Sol     OW 9095   2.039   0.153   3.124 -0.6064 -0.2337 -0.6796
 1486Sol     HW 9096   1.954   0.195   3.115  0.4790  1.8581 -1.4165
 1486Sol     HW 9097   2.052   0.146   3.219 -0.7681  1.1921 -0.5410
 1486Sol     MW 9098   2.033   0.156   3.132 -0.3524 -0.1990  0.4159
 1487Sol     OW 9099   1.077   1.482   6.621  0.4744 -0.1402  0.1246
 1487Sol     HW 9100   1.162   1.468   6.578  0.1544  0.0726 -0.5758
 1487Sol     HW 9101   1.032   1.546   6.566 -1.3390 -2.4284 -1.1831
 1487Sol     MW 9102   1.081   1.486   6.612 -0.2129 -0.1999 -0.5935
 1488Sol     OW 9103   2.356   0.186   2.981 -0.2037  0.1997 -0.6713
 1488Sol     HW 9104   2.404   0.268   2.969 -0.8185  0.5794 -0.5177
 1488Sol     HW 9105   2.282   0.192   2.920 -0.4177 -0.1133 -0.4447
 1488Sol     MW 9106   2.354   0.194   2.974 -0.2474 -0.0118 -0.1851
 1489Sol     OW 9107   1.092   1.709   3.166 -0.2116  0.1748  0.0712
 1489Sol     HW 9108   1.136   1.772   3.223 -1.4366  0.9781  0.1399
 1489Sol     HW 9109   1.156   1.638   3.156  0.9304  1.1118  0.5169
 1489Sol     MW 9110   1.102   1.708   3.170 -0.0463  0.2869 -0.3737
 1490Sol     OW 9111   2.171   2.424   8.232  0.2569 -0.1814 -0.2308
 1490Sol     HW 9112   2.186   2.329   8.238 -1.5446 -0.4457  0.3046
 1490Sol     HW 9113   2.085   2.437   8.272  1.1166  1.8708  0.9717
 1490Sol     MW 9114   2.165   2.416   8.236  0.6379  0.3085  0.3881
 1491Sol     OW 9115   0.752   0.380   7.724  0.0234 -0.1910 -0.5873
 1491Sol     HW 9116   0.680   0.380   7.662 -0.9954 -1.5552  0.5477
 1491Sol     HW 9117   0.721   0.433   7.797  0.0491 -1.0142  0.0293
 1491Sol     MW 9118   0.743   0.384   7.725  0.0091 -0.5535 -0.3398
 1492Sol     OW 9119   2.579   1.794   3.272  0.4697 -0.3489  0.7374
 1492Sol     HW 9120   2.540   1.746   3.345  2.8522 -1.7689  1.1272
 1492Sol     HW 9121   2.666   1.755   3.262  0.9968  1.3280 -1.4354
 1492Sol     MW 9122   2.583   1.786   3.278 -0.4946  0.2035 -0.0204
 1493Sol     OW 9123   3.324   0.427   6.491 -0.0900  0.0568 -0.1779
 1493Sol     HW 9124   3.307   0.508   6.540 -1.2707 -1.0445  1.3000
 1493Sol     HW 9125   3.245   0.415   6.437  0.2343  0.0718 -0.6573
 1493Sol     MW 9126   3.315   0.433   6.491 -0.1865 -0.5956  0.0253
 1494Sol     OW 9127   2.533   3.326   9.236 -0.0453  0.6690  0.5320
 1494Sol     HW 9128   2.618   3.284   9.249 -0.5949 -0.4406  0.5234
 1494Sol     HW 9129   2.502   3.346   9.324 -0.5186 -0.3897  0.5994
 1494Sol     MW 9130   2.538   3.324   9.245 -0.8432 -0.1613  0.0754
 1495Sol     OW 9131   2.722   0.160   4.858 -0.4268  0.0228 -0.1400
 1495Sol     HW 9132   2.756   0.131   4.943 -0.2502  1.1943  0.2018
 1495Sol     HW 9133   2.638   0.200   4.878 -1.6174 -2.0323 -0.8674
 1495Sol     MW 9134   2.717   0.161   4.867  0.5469 -0.0716 -0.2280
 1496Sol     OW 9135   2.134   2.119   3.320 -0.3969 -0.0672 -0.2524
 1496Sol     HW 9136   2.135   2.188   3.386  1.3256 -0.0111 -0.3173
 1496Sol     HW 9137   2.120   2.038   3.369  1.3518 -0.0825  0.2515
 1496Sol     MW 9138   2.133   2.118   3.330  0.0288 -0.6508  0.3815
 1497Sol     OW 9139   2.082   3.095   3.262  0.4253 -0.2380 -0.0841
 1497Sol     HW 9140   2.105   3.030   3.328  1.9796  0.2265 -0.1388
 1497Sol     HW 9141   2.154   3.158   3.265 -1.0040  1.4103 -0.1197
 1497Sol     MW 9142   2.090   3.095   3.268 -0.4410 -0.3789 -0.4338
 1498Sol     OW 9143   1.325   1.281   6.974  0.6253 -0.5142 -0.2073
 1498Sol     HW 9144   1.290   1.363   7.008 -0.4275 -0.4706 -1.3541
 1498Sol     HW 9145   1.405   1.267   7.023 -0.1310  0.2662  1.2951
 1498Sol     MW 9146   1.329   1.287   6.981 -0.0178 -0.2487  0.3808
 1499Sol     OW 9147   3.271   0.849   7.424 -0.0161  0.5516  0.2355
 1499Sol     HW 9148   3.316   0.916   7.477  0.7180  0.4738 -0.2782
 1499Sol     HW 9149   3.205   0.813   7.483 -1.1185  2.4355  0.2097
 1499Sol     MW 9150   3.269   0.852   7.434  0.3904 -0.1336  0.3349
 1500Sol     OW 9151   0.781   2.018   6.277 -0.6765  0.0997  0.2533
 1500Sol     HW 9152   0.703   1.963   6.264 -1.3579  1.0367  0.3583
 1500Sol     HW 9153   0.765   2.061   6.361 -0.5795  1.1878 -0.2859
 1500Sol     MW 9154   0.772   2.017   6.284  0.2052 -0.2042 -0.7467
 1501Sol     OW 9155   3.112   3.285   6.607  0.1126  0.2195 -0.1422
 1501Sol     HW 9156   3.185   3.343   6.585  0.7492 -0.6615 -0.3796
 1501Sol     HW 9157   3.052   3.339   6.658  1.0328  0.8872  0.2280
 1501Sol     MW 9158   3.113   3.295   6.609 -0.5120  0.0877 -0.5584
 1502Sol     OW 9159   0.287   0.739   5.153 -0.0162 -0.4202 -0.5840
 1502Sol     HW 9160   0.325   0.774   5.073 -0.0593  1.2875  0.1083
 1502Sol     HW 9161   0.347   0.766   5.222 -1.0534 -0.0482  0.1958
 1502Sol     MW 9162   0.296   0.745   5.152 -0.5094  0.0331  0.6804
 1503Sol     OW 9163   0.079   1.035   1.594 -0.5120 -0.0742 -0.3708
 1503Sol     HW 9164  -0.008   1.046   1.555 -0.9853  0.1852  0.7623
 1503Sol     HW 9165   0.126   0.979   1.532 -1.0493  0.8773 -1.6559
 1503Sol     MW 9166   0.075   1.031   1.585 -0.2884  1.0680  0.0427
 1504Sol     OW 9167   0.270   2.555   1.703 -0.8227 -0.0109 -0.1592
 1504Sol     HW 9168   0.263   2.635   1.651  1.6196 -0.7029 -1.6715
 1504Sol     HW 9169   0.353   2.565   1.750 -0.6555 -1.4933 -0.1226
 1504Sol     MW 9170   0.277   2.563   1.703  0.1544  0.6325  0.3183
 1505Sol     OW 9171   0.234   0.198   4.123 -0.6765  0.0277 -0.6283
 1505Sol     HW 9172   0.291   0.164   4.191 -0.0168 -0.5042 -1.4361
 1505Sol     HW 9173   0.172   0.254   4.169  1.6409  2.1088  0.0297
 1505Sol     MW 9174   0.233   0.200   4.133 -0.8876  0.0664 -0.7495
 1506Sol     OW 9175   2.488   0.506   1.761 -0.2657 -0.5146  0.3908
 1506Sol     HW 9176   2.409   0.529   1.810  0.3713  1.8881  0.3346
 1506Sol     HW 9177   2.487   0.564   1.685  0.9506 -1.2958 -0.2453
 1506Sol     MW 9178   2.480   0.513   1.758 -0.1062 -0.5515 -0.0663
 1507Sol     OW 9179   1.576   0.773   1.556  1.1739 -0.2650 -0.6549
 1507Sol     HW 9180   1.590   0.798   1.647 -0.3056  0.2870 -0.5599
 1507Sol     HW 9181   1.523   0.694   1.561  1.0854 -0.2308 -1.0315
 1507Sol     MW 9182   1.572   0.768   1.564 -0.5956 -0.3618 -0.0177
 1508Sol     OW 9183   2.327   0.005   7.882 -0.4293  0.3941 -0.1632
 1508Sol     HW 9184   2.258   0.021   7.817 -1.4634 -0.5220  0.6800
 1508Sol     HW 9185   2.290   0.036   7.964  0.2397  0.0741  0.2654
 1508Sol     MW 9186   2.317   0.009   7.884  0.2479  0.4772 -0.1756
 1509Sol     OW 9187   0.920   2.658   9.083  0.3655  0.2068  0.3792
 1509Sol     HW 9188   0.909   2.655   8.988 -0.7578 -3.6516  0.5197
 1509Sol     HW 9189   0.835   2.688   9.116 -0.1724 -1.0737  0.2173
 1509Sol     MW 9190   0.911   2.660   9.078 -0.1498 -0.0684  0.4005
 1510Sol     OW 9191   2.747   0.918   7.481  0.3672  0.2021 -0.0499
 1510Sol     HW 9192   2.802   0.982   7.526 -0.5206  0.2690  0.9563
 1510Sol     HW 9193   2.783   0.833   7.506  0.3196  0.2592  0.2158
 1510Sol     MW 9194   2.755   0.916   7.487  0.3416  0.2987  0.4901
 1511Sol     OW 9195   0.574   2.534   9.642 -0.0898  0.5967  0.5541
 1511Sol     HW 9196   0.627   2.492   9.710 -1.4182 -0.9484  0.6500
 1511Sol     HW 9197   0.494   2.559   9.687  0.5757  3.0606  0.4366
 1511Sol     MW 9198   0.572   2.533   9.652  0.2865  0.1249 -0.2395
 1512Sol     OW 9199   2.878   1.606   6.648 -0.5168  0.2940 -0.1087
 1512Sol     HW 9200   2.944   1.623   6.715 -1.5337  0.3715  0.8959
 1512Sol     HW 9201   2.870   1.689   6.601 -0.5464  0.5672  0.3641
 1512Sol     MW 9202   2.883   1.615   6.650 -0.9536  0.5198  0.0667
 1513Sol     OW 9203   3.027   2.223   9.186 -0.4386 -0.7432 -0.0033
 1513Sol     HW 9204   2.938   2.255   9.173  0.2714  1.8574  1.1395
 1513Sol     HW 9205   3.029   2.194   9.278 -0.5062 -2.1851 -0.4500
 1513Sol     MW 9206   3.020   2.223   9.193  0.0812 -0.5815 -0.3394
 1514Sol     OW 9207   1.316   1.365   9.125  0.2494 -0.2097  0.5273
 1514Sol     HW 9208   1.269   1.302   9.179  2.1093 -0.2903  2.0930
 1514Sol     HW 9209   1.291   1.450   9.160  1.8051 -0.2750  1.8646
 1514Sol     MW 9210   1.310   1.367   9.133  0.3101  0.0669 -0.2463
 1515Sol     OW 9211   1.309   2.533   9.787 -0.0505  0.2249 -0.5229
 1515Sol     HW 9212   1.309   2.620   9.827 -0.8282 -1.5987  3.7221
 1515Sol     HW 9213   1.384   2.488   9.828 -1.0035 -1.7932 -0.9412
 1515Sol     MW 9214   1.316   2.536   9.795 -0.0986  0.8307  0.1246
 1516Sol     OW 9215   1.253   0.909   1.893  0.5052 -0.2776  0.8406
 1516Sol     HW 9216   1.162   0.881   1.906 -0.0700  1.0414 -0.2337
 1516Sol     HW 9217   1.247   1.004   1.884  2.0861 -0.1161  1.4261
 1516Sol     MW 9218   1.244   0.915   1.894 -0.4708 -0.3710  0.4197
 1517Sol     OW 9219   1.212   2.460   8.149 -0.0230  0.2183  0.2284
 1517Sol     HW 9220   1.217   2.409   8.069  0.7929 -0.5582  0.7581
 1517Sol     HW 9221   1.276   2.419   8.208 -1.3926  0.0745  1.6661
 1517Sol     MW 9222   1.218   2.452   8.147 -0.3203 -0.1693 -0.9217
 1518Sol     OW 9223   2.306   1.387   5.448  0.1794  0.5702  0.0189
 1518Sol     HW 9224   2.257   1.423   5.522 -0.9902 -0.9280 -0.0070
 1518Sol     HW 9225   2.364   1.322   5.487 -1.6759 -1.4593 -0.5648
 1518Sol     MW 9226   2.307   1.385   5.458  0.4301 -0.0745 -0.0963
 1519Sol     OW 9227   0.875   1.399   5.498  0.8392  0.2698  0.3725
 1519Sol     HW 9228   0.781   1.397   5.514  1.0971 -0.3660  1.9539
 1519Sol     HW 9229   0.893   1.318   5.449  0.5327  0.5084 -0.1350
 1519Sol     MW 9230   0.869   1.391   5.495  0.5602  0.3459 -0.1090
 1520Sol     OW 9231   2.916   3.323   5.590  0.4755  0.6389 -0.0555
 1520Sol     HW 9232   2.975   3.263   5.637  0.7952  0.7826 -0.2691
 1520Sol     HW 9233   2.835   3.322   5.640  0.3703 -0.2237 -0.2380
 1520Sol     MW 9234   2.914   3.317   5.599  0.1438 -0.2715 -0.0834
 1521Sol     OW 9235   0.079   0.500   7.013 -1.1109  0.0335  1.0452
 1521Sol     HW 9236   0.121   0.517   6.929 -1.7885 -1.1720  0.4465
 1521Sol     HW 9237   0.119   0.562   7.074  1.1604 -0.7312  0.3671
 1521Sol     MW 9238   0.086   0.507   7.011 -0.0593  0.1867  0.1726
 1522Sol     OW 9239   0.437   2.113   6.335  0.1344  0.1409  0.0974
 1522Sol     HW 9240   0.485   2.052   6.278 -0.8941  1.0201 -1.7672
 1522Sol     HW 9241   0.448   2.198   6.293 -0.5936  0.8219  1.2775
 1522Sol     MW 9242   0.442   2.115   6.326  0.6960 -0.6007 -0.0719
 1523Sol     OW 9243   1.633   2.467   1.797 -0.8053  0.3182 -0.2954
 1523Sol     HW 9244   1.651   2.547   1.846  0.5489 -0.6273  0.7850
 1523Sol     HW 9245   1.719   2.437   1.767 -0.8065 -2.6312  2.3718
 1523Sol     MW 9246   1.642   2.471   1.799  0.2249  0.4161 -0.0229
 1524Sol     OW 9247   2.089   1.935   3.530 -0.3197 -0.2702 -0.1994
 1524Sol     HW 9248   2.006   1.935   3.576 -0.7025  0.1907 -0.8754
 1524Sol     HW 9249   2.103   1.845   3.503 -0.6249 -0.3338 -0.1354
 1524Sol     MW 9250   2.083   1.927   3.532 -0.2320 -0.2417 -0.3002
 1525Sol     OW 9251   2.393   0.437   3.648  0.8607  0.1811 -0.2897
 1525Sol     HW 9252   2.397   0.357   3.699  3.4660  0.6677  0.3556
 1525Sol     HW 9253   2.484   0.467   3.642  0.2927  1.6359 -2.8329
 1525Sol     MW 9254   2.402   0.433   3.652 -0.3604  0.0952  0.0034
 1526Sol     OW 9255   1.059   2.578   3.466  0.7659 -0.3804 -0.4705
 1526Sol     HW 9256   0.982   2.549   3.516  0.2222 -1.6794 -2.0198
 1526Sol     HW 9257   1.125   2.511   3.484  1.4369  0.5180  0.5290
 1526Sol     MW 9258   1.058   2.569   3.472 -0.5689 -0.3376  0.2885
 1527Sol     OW 9259   3.118   1.714   2.898 -0.2213  0.3211  0.2031
 1527Sol     HW 9260   3.082   1.730   2.811 -1.6227  1.8642  1.0521
 1527Sol     HW 9261   3.144   1.622   2.896 -0.0199  0.3849 -1.9089
 1527Sol     MW 9262   3.117   1.708   2.890 -0.1206 -0.1173 -0.6191
 1528Sol     OW 9263   2.458   2.323   3.461 -0.3973 -0.3290  0.1550
 1528Sol     HW 9264   2.524   2.392   3.455 -3.1353  2.3738 -0.2735
 1528Sol     HW 9265   2.431   2.308   3.370 -3.3971  1.7172  0.6511
 1528Sol     MW 9266   2.461   2.328   3.452 -0.2145  0.5203  0.5483
 1529Sol     OW 9267   1.699   0.200   7.626  0.3249  0.1669 -0.1659
 1529Sol     HW 9268   1.675   0.109   7.607  0.1694  0.0374  0.6677
 1529Sol     HW 9269   1.615   0.244   7.642  0.5964 -0.1648  2.2284
 1529Sol     MW 9270   1.689   0.196   7.625  0.0437 -0.1492 -0.1841
 1530Sol     OW 9271   3.048   1.425   6.495 -0.0784 -0.4135 -0.1650
 1530Sol     HW 9272   2.992   1.483   6.548  0.5985  0.2161 -0.1274
 1530Sol     HW 9273   3.019   1.439   6.405  1.2719  1.3593 -0.3590
 1530Sol     MW 9274   3.040   1.432   6.492 -0.0457 -0.6853  0.0194
 1531Sol     OW 9275   2.843   1.646   2.528 -0.0859  0.1398 -0.2311
 1531Sol     HW 9276   2.885   1.560   2.524  0.5655  0.5083 -1.2278
 1531Sol     HW 9277   2.782   1.639   2.603 -0.7425 -1.4880 -0.8987
 1531Sol     MW 9278   2.841   1.637   2.535 -0.3082 -0.1140  0.0207
 1532Sol     OW 9279   0.631   3.161   7.883  0.3293 -0.6393  0.6871
 1532Sol     HW 9280   0.653   3.068   7.889  0.0597 -0.7993 -0.7625
 1532Sol     HW 9281   0.542   3.167   7.918 -0.0867 -1.0982 -0.2957
 1532Sol     MW 9282   0.625   3.154   7.887  0.3536 -0.0121  0.6348
 1533Sol     OW 9283   2.400   0.546   4.143  0.4316  0.3749  0.3691
 1533Sol     HW 9284   2.477   0.559   4.087  0.2715  1.7123  0.4569
 1533Sol     HW 9285   2.370   0.634   4.163 -1.8993 -0.1365 -0.7247
 1533Sol     MW 9286   2.404   0.555   4.140  0.4231 -0.3465  0.3027
 1534Sol     OW 9287   1.079   0.931   6.456 -0.3112 -0.0297 -0.5295
 1534Sol     HW 9288   0.995   0.895   6.429 -1.0469  1.5618 -0.4680
 1534Sol     HW 9289   1.133   0.855   6.478 -1.9123 -1.0519 -0.0498
 1534Sol     MW 9290   1.077   0.921   6.456  0.0687 -0.0428  1.0283
 1535Sol     OW 9291   2.919   0.121   9.175 -0.1861  0.1312 -0.5729
 1535Sol     HW 9292   2.915   0.087   9.085  3.0991  1.2337 -1.2146
 1535Sol     HW 9293   2.928   0.215   9.164  1.5946  0.1413  0.8865
 1535Sol     MW 9294   2.919   0.126   9.166  0.4256 -0.3074  0.2663
 1536Sol     OW 9295   2.389   3.313   2.389 -0.7158 -0.2320  0.2425
 1536Sol     HW 9296   2.400   3.379   2.320  0.6171  0.9862  1.5787
 1536Sol     HW 9297   2.345   3.240   2.346  1.0540  0.0626 -2.1553
 1536Sol     MW 9298   2.386   3.313   2.379  0.1453  0.1437  0.3321
 1537Sol     OW 9299   0.108   0.532   8.535 -0.5126 -0.0691 -0.2258
 1537Sol     HW 9300   0.073   0.516   8.448 -2.4338  1.6262  0.1778
 1537Sol     HW 9301   0.033   0.518   8.593  0.7086 -1.0495  1.1452
 1537Sol     MW 9302   0.098   0.529   8.533 -0.4823  0.2789  0.0913
 1538Sol     OW 9303   2.357   3.070   2.203 -0.0318  0.6222 -0.8013
 1538Sol     HW 9304   2.337   3.112   2.119  0.2339  0.5123 -0.9228
 1538Sol     HW 9305   2.430   3.011   2.183 -0.0356  0.5191 -0.5141
 1538Sol     MW 9306   2.362   3.068   2.194 -0.1784  0.0677 -0.0497
 1539Sol     OW 9307   2.813   1.235   3.235 -0.1644  0.3644 -0.3097
 1539Sol     HW 9308   2.736   1.239   3.178 -1.4226  2.5360  1.4313
 1539Sol     HW 9309   2.777   1.211   3.321  1.0453  1.7805  0.6023
 1539Sol     MW 9310   2.803   1.233   3.238 -0.0722  0.1820  0.4060
 1540Sol     OW 9311   3.265   2.318   5.073 -0.0577  0.1533  0.5077
 1540Sol     HW 9312   3.327   2.261   5.026  0.8201  1.4325  0.0894
 1540Sol     HW 9313   3.318   2.359   5.142 -1.2466 -1.3883  2.3922
 1540Sol     MW 9314   3.275   2.317   5.075 -0.5926  0.0862  0.3150
 1541Sol     OW 9315   0.998   0.579   3.740  0.0306 -0.0057  0.1979
 1541Sol     HW 9316   1.008   0.485   3.725  0.8657  0.3785 -1.8734
 1541Sol     HW 9317   0.918   0.603   3.692 -1.6026 -0.0708  2.7947
 1541Sol     MW 9318   0.992   0.573   3.734 -0.6383 -0.6291 -0.1123
 1542Sol     OW 9319   2.516   2.033   5.465  0.7702  0.4860  0.5012
 1542Sol     HW 9320   2.460   1.976   5.413 -0.0939  0.3331  1.5874
 1542Sol     HW 9321   2.602   2.026   5.423  1.3860 -3.7466  2.1524
 1542Sol     MW 9322   2.519   2.027   5.457 -0.1094 -0.0058 -0.1518
 1543Sol     OW 9323   2.783   1.218   6.311 -0.3816  0.1723 -0.0946
 1543Sol     HW 9324   2.809   1.304   6.278  1.5233  0.0416  1.0102
 1543Sol     HW 9325   2.830   1.155   6.255 -2.0764 -0.1939 -1.1578
 1543Sol     MW 9326   2.789   1.220   6.303  0.0650  0.0181 -0.4212
 1544Sol     OW 9327   1.582   2.853   9.248  0.2148 -0.6277 -0.5822
 1544Sol     HW 9328   1.507   2.876   9.194 -0.1046 -0.3642 -0.0358
 1544Sol     HW 9329   1.596   2.930   9.304  2.5184  0.3585 -2.4531
 1544Sol     MW 9330   1.576   2.862   9.248  0.2820 -0.4969  0.1038
 1545Sol     OW 9331   1.888   3.403   3.604  0.1415  0.1353 -0.3990
 1545Sol     HW 9332   1.939   3.476   3.641  1.0153 -0.8813  0.4296
 1545Sol     HW 9333   1.945   3.367   3.536  0.0719 -0.3226 -0.2137
 1545Sol     MW 9334   1.898   3.406   3.601 -0.0241  0.6214  0.2014
 1546Sol     OW 9335   0.238   0.864   1.428 -0.0144  0.7521 -0.0299
 1546Sol     HW 9336   0.205   0.851   1.339 -1.1863  0.6812  0.4101
 1546Sol     HW 9337   0.216   0.783   1.474  0.6671  0.7527  0.3048
 1546Sol     MW 9338   0.233   0.856   1.424 -0.3029 -0.0919 -0.0731
 1547Sol     OW 9339   3.149   1.154   8.123 -0.0052  0.2978 -0.2811
 1547Sol     HW 9340   3.105   1.072   8.103 -1.9258  0.9047  1.3863
 1547Sol     HW 9341   3.228   1.128   8.170 -0.1118 -0.6182 -0.5976
 1547Sol     MW 9342   3.153   1.144   8.125  0.1054  0.8625  0.0018
 1548Sol     OW 9343   0.131   0.665   1.599 -0.1581 -0.3500  0.3377
 1548Sol     HW 9344   0.071   0.730   1.636 -1.4301 -1.8248  0.9295
 1548Sol     HW 9345   0.102   0.582   1.637  0.4697 -1.4758 -1.5912
 1548Sol     MW 9346   0.123   0.663   1.606 -0.0862  0.7196  0.2981
 1549Sol     OW 9347   2.802   2.752   7.711 -0.0139 -0.3552  0.3886
 1549Sol     HW 9348   2.759   2.811   7.649  0.2150 -0.9701 -0.3639
 1549Sol     HW 9349   2.757   2.668   7.700  0.4260 -0.6275  0.6118
 1549Sol     MW 9350   2.794   2.750   7.705  0.7816  0.5435  0.5982
 1550Sol     OW 9351   2.706   2.057   5.822 -0.0586 -0.0871 -0.1488
 1550Sol     HW 9352   2.625   2.106   5.812 -1.7552 -2.8574 -0.4734
 1550Sol     HW 9353   2.685   1.969   5.792  2.9661 -0.9861  0.1683
 1550Sol     MW 9354   2.697   2.054   5.818 -0.5591  0.2051 -0.4127
 1551Sol     OW 9355   0.891   3.122   4.602 -0.4110 -0.1815 -0.1564
 1551Sol     HW 9356   0.819   3.147   4.660 -0.9253  2.5593 -1.8798
 1551Sol     HW 9357   0.966   3.172   4.635 -0.1947 -0.2520 -0.5353
 1551Sol     MW 9358   0.892   3.129   4.610 -0.0681 -0.2005 -0.0549
 1552Sol     OW 9359   2.355   0.313   8.967 -0.4327  0.1096 -0.7806
 1552Sol     HW 9360   2.394   0.389   9.009 -0.8927 -0.2628  0.3421
 1552Sol     HW 9361   2.415   0.290   8.897  0.5252  0.5390 -0.1065
 1552Sol     MW 9362   2.364   0.318   8.965  0.7317  0.1475  0.2725
 1553Sol     OW 9363   2.146   2.993   8.529 -0.1239 -0.7225 -0.2602
 1553Sol     HW 9364   2.129   3.087   8.543 -0.4350 -0.9410  0.8675
 1553Sol     HW 9365   2.135   2.954   8.615  0.2916 -1.7639 -0.6775
 1553Sol     MW 9366   2.144   2.998   8.538 -0.2080 -0.2282 -0.7198
 1554Sol     OW 9367   1.756   1.726   9.842 -0.2930 -0.1045 -0.3128
 1554Sol     HW 9368   1.779   1.660   9.776 -0.0571  1.5002 -1.8602
 1554Sol     HW 9369   1.661   1.730   9.840 -0.2527  0.6801 -1.3305
 1554Sol     MW 9370   1.750   1.720   9.836 -0.3457 -0.3458 -0.0749
 1555Sol     OW 9371   0.239   0.724   4.782 -0.4138  0.1083 -0.2915
 1555Sol     HW 9372   0.246   0.815   4.810 -0.3204 -0.5798  2.0277
 1555Sol     HW 9373   0.166   0.688   4.832 -0.4133 -1.1222 -1.1280
 1555Sol     MW 9374   0.233   0.729   4.789  1.0015  0.1490 -0.2063
 1556Sol     OW 9375   0.246   2.823   4.605 -0.1756 -0.1000  0.3883
 1556Sol     HW 9376   0.301   2.761   4.557  0.2216  0.4278  0.1524
 1556Sol     HW 9377   0.258   2.906   4.559 -0.4260  0.2289  0.9103
 1556Sol     MW 9378   0.252   2.825   4.597 -0.4668 -0.7256  0.3569
 1557Sol     OW 9379   2.108   2.847   2.001  0.5529  0.1567  0.0787
 1557Sol     HW 9380   2.165   2.875   1.929  1.9810 -0.8537  0.8080
 1557Sol     HW 9381   2.091   2.755   1.984  0.1578  0.1399  0.5508
 1557Sol     MW 9382   2.112   2.842   1.993  0.2668 -0.6510 -0.0210
 1558Sol     OW 9383   2.447   2.528   7.121  0.1961 -0.2682  0.1607
 1558Sol     HW 9384   2.522   2.528   7.181  1.2614 -3.8040 -1.0408
 1558Sol     HW 9385   2.484   2.551   7.036 -0.5913  0.6900  0.0707
 1558Sol     MW 9386   2.457   2.530   7.119  0.0516 -0.2481 -0.3361
 1559Sol     OW 9387   2.955   0.843   1.483  0.1784  0.2345 -0.2952
 1559Sol     HW 9388   2.930   0.756   1.513  1.5823 -0.0058  0.2323
 1559Sol     HW 9389   2.873   0.891   1.475 -0.3759 -0.2605  2.1238
 1559Sol     MW 9390   2.946   0.840   1.485  0.3146  0.2795 -0.0750
 1560Sol     OW 9391   2.296   2.227   2.854  0.0795 -0.4545 -0.0671
 1560Sol     HW 9392   2.368   2.282   2.885 -0.9433  0.7871  0.2056
 1560Sol     HW 9393   2.301   2.232   2.759 -1.2247  1.8641 -0.0749
 1560Sol     MW 9394   2.303   2.233   2.849 -0.0761 -0.2523 -0.2792
 1561Sol     OW 9395   2.716   3.444   3.116 -0.1061 -0.1474 -0.2182
 1561Sol     HW 9396   2.687   3.535   3.110 -0.4043 -0.3004 -1.1054
 1561Sol     HW 9397   2.769   3.441   3.196  0.1601  0.8716 -0.3587
 1561Sol     MW 9398   2.718   3.452   3.123 -0.4882  0.2541  0.3205
 1562Sol     OW 9399   2.476   2.353   8.814 -0.4357  0.1872 -0.1422
 1562Sol     HW 9400   2.556   2.405   8.807  0.3251 -1.2486 -2.6502
 1562Sol     HW 9401   2.505   2.266   8.842 -1.3315  0.1701  0.7733
 1562Sol     MW 9402   2.486   2.350   8.816  0.0322 -0.2955  0.4389
 1563Sol     OW 9403   0.669   2.284   3.308 -0.4847  0.0446 -0.1144
 1563Sol     HW 9404   0.590   2.324   3.345 -0.9837 -0.0993 -1.0164
 1563Sol     HW 9405   0.702   2.350   3.247 -0.7753 -0.5323 -0.8932
 1563Sol     MW 9406   0.665   2.294   3.306  0.3276  0.4747  0.5361
 1564Sol     OW 9407   0.065   3.271   7.188  0.7167  0.6812  0.2667
 1564Sol     HW 9408   0.061   3.182   7.221  1.3781 -0.1974 -1.9439
 1564Sol     HW 9409   0.077   3.325   7.266  0.0684 -1.1256  1.6418
 1564Sol     MW 9410   0.066   3.268   7.198 -0.1769 -0.1101  0.2258
 1565Sol     OW 9411   1.454   0.572   2.891 -0.2044  0.1167  0.0905
 1565Sol     HW 9412   1.424   0.662   2.906  0.4005  0.3237  0.0728
 1565Sol     HW 9413   1.374   0.524   2.869 -0.4900  0.7140 -0.1954
 1565Sol     MW 9414   1.444   0.576   2.890 -0.3908  0.0210  0.6688
 1566Sol     OW 9415   0.413   3.178   2.951 -0.6540  0.1361 -0.0542
 1566Sol     HW 9416   0.393   3.094   2.992 -0.7080  0.7958  1.3046
 1566Sol     HW 9417   0.378   3.171   2.862 -1.6792 -0.8418  0.4215
 1566Sol     MW 9418   0.408   3.170   2.946 -1.0756  0.6091 -0.6582
 1567Sol     OW 9419   1.175   0.174   4.582  0.3633  0.4090 -0.7325
 1567Sol     HW 9420   1.165   0.120   4.504  1.2000  0.5950 -0.9764
 1567Sol     HW 9421   1.159   0.264   4.552 -0.0713  0.4014 -0.5297
 1567Sol     MW 9422   1.173   0.178   4.573  0.1516  0.4809 -0.1010
 1568Sol     OW 9423   1.782   1.512   8.957 -0.0703  0.0949 -0.1769
 1568Sol     HW 9424   1.853   1.560   8.999 -1.1225  0.2876  1.4317
 1568Sol     HW 9425   1.737   1.468   9.029 -1.8915  0.3965 -1.0958
 1568Sol     MW 9426   1.784   1.513   8.967  0.1160  0.4532 -0.0608
 1569Sol     OW 9427   2.628   1.207   3.004  0.3107  1.0027 -0.2073
 1569Sol     HW 9428   2.617   1.122   2.962  0.2318  1.0757 -0.3349
 1569Sol     HW 9429   2.557   1.261   2.969  0.2618  1.0723 -0.0010
 1569Sol     MW 9430   2.621   1.204   2.997  0.0285  0.0431 -0.7928
 1570Sol     OW 9431   0.621   0.868   8.154 -0.3907  0.0254  0.3546
 1570Sol     HW 9432   0.539   0.907   8.125  0.0719 -0.4458 -1.6136
 1570Sol     HW 9433   0.596   0.783   8.191 -0.6585 -0.6270 -1.3136
 1570Sol     MW 9434   0.611   0.864   8.155 -0.0408  0.1184 -0.1242
 1571Sol     OW 9435   1.227   1.822   8.988 -0.5574  0.7751 -0.0284
 1571Sol     HW 9436   1.200   1.856   8.903  0.0281  0.8200 -0.1966
 1571Sol     HW 9437   1.275   1.894   9.029 -1.0705  0.8483  0.4548
 1571Sol     MW 9438   1.229   1.831   8.984  0.4539  0.1550  0.2695
 1572Sol     OW 9439   1.227   2.421   5.390  0.0201 -0.3479 -0.8539
 1572Sol     HW 9440   1.207   2.507   5.353  0.4100  0.4957  0.8471
 1572Sol     HW 9441   1.161   2.408   5.458  0.7688 -0.8033 -0.2062
 1572Sol     MW 9442   1.220   2.427   5.393 -0.6291 -0.4534 -0.3523
 1573Sol     OW 9443   2.439   2.922   6.433 -0.4173 -0.3179 -0.3029
 1573Sol     HW 9444   2.491   3.001   6.416 -0.1624 -0.4328 -0.0574
 1573Sol     HW 9445   2.354   2.955   6.462  0.4421 -0.1292  2.1086
 1573Sol     MW 9446   2.436   2.932   6.434 -0.7814  0.3566 -0.3670
 1574Sol     OW 9447   2.708   1.065   7.948  0.6196 -0.5741  0.7710
 1574Sol     HW 9448   2.657   1.000   7.899  0.5197  1.1600 -1.4635
 1574Sol     HW 9449   2.657   1.081   8.027 -1.1677 -0.5382 -0.3780
 1574Sol     MW 9450   2.699   1.060   7.951  0.0626  0.3601  0.6022
 1575Sol     OW 9451   1.213   2.999   3.390  0.3136 -0.2610 -0.3317
 1575Sol     HW 9452   1.160   2.993   3.310 -1.8288 -1.7240  1.1285
 1575Sol     HW 9453   1.301   2.972   3.363 -0.8368 -2.7330 -1.7890
 1575Sol     MW 9454   1.216   2.996   3.381 -0.0600  0.4145  0.5978
 1576Sol     OW 9455   0.293   0.639   9.249 -0.3613 -0.2765  0.5519
 1576Sol     HW 9456   0.385   0.663   9.261 -1.2492  2.4536  2.6061
 1576Sol     HW 9457   0.281   0.634   9.154  1.7449  0.0022  0.2614
 1576Sol     MW 9458   0.300   0.641   9.242  0.4225  0.3369  0.0425
 1577Sol     OW 9459   1.001   3.192   2.056  0.0391  0.2222  0.0517
 1577Sol     HW 9460   1.044   3.245   2.123 -0.8569  0.7291  0.2354
 1577Sol     HW 9461   0.922   3.242   2.033 -0.3109 -0.5618 -0.4760
 1577Sol     MW 9462   0.998   3.202   2.060  0.3864 -0.3654  0.0214
 1578Sol     OW 9463   2.997   0.185   5.243  0.6285 -0.4590 -0.1618
 1578Sol     HW 9464   2.941   0.154   5.172 -0.1798  1.2970 -0.3138
 1578Sol     HW 9465   3.079   0.137   5.231 -0.2972 -1.9091 -0.8632
 1578Sol     MW 9466   3.000   0.178   5.236 -0.2838 -0.3222 -0.2910
 1579Sol     OW 9467   1.851   0.069   7.208 -0.4984 -0.7096  0.5208
 1579Sol     HW 9468   1.849   0.029   7.295 -0.8915 -0.0983  0.7944
 1579Sol     HW 9469   1.904   0.149   7.220  0.4876 -1.2573 -0.0722
 1579Sol     MW 9470   1.856   0.073   7.217 -0.2153 -0.3691  0.3678
 1580Sol     OW 9471   2.118   0.586   6.425  0.4147 -0.4382 -0.1113
 1580Sol     HW 9472   2.099   0.605   6.517  2.0947  0.7303  0.0154
 1580Sol     HW 9473   2.043   0.534   6.396 -0.2460 -0.6554  1.8540
 1580Sol     MW 9474   2.110   0.583   6.431 -0.1248  1.1885  0.1605
 1581Sol     OW 9475   2.089   1.087   4.790  0.3280 -0.2331  0.1612
 1581Sol     HW 9476   2.057   1.056   4.706 -2.5020  1.2855  0.6277
 1581Sol     HW 9477   2.157   1.151   4.768  1.7060 -2.0218 -0.8745
 1581Sol     MW 9478   2.093   1.090   4.781  0.4172 -0.1752  0.7310
 1582Sol     OW 9479   2.685   0.790   9.375 -0.0858  0.0038  0.5392
 1582Sol     HW 9480   2.632   0.837   9.311  0.5457 -1.1328 -0.8458
 1582Sol     HW 9481   2.751   0.744   9.323 -0.3699 -2.0009  1.8716
 1582Sol     MW 9482   2.686   0.790   9.365 -0.2694 -0.3642 -0.5788
 1583Sol     OW 9483   0.174   0.993   7.500 -0.3372  0.1609  0.0059
 1583Sol     HW 9484   0.182   1.030   7.588 -0.8840  2.5265 -0.9070
 1583Sol     HW 9485   0.248   0.932   7.493  0.1790  0.5524  1.8048
 1583Sol     MW 9486   0.182   0.991   7.507  0.0346 -0.2002  0.0349
 1584Sol     OW 9487   3.292   0.464   4.685 -0.2979  0.3703 -0.7711
 1584Sol     HW 9488   3.303   0.513   4.766 -3.3995  0.7799 -0.5302
 1584Sol     HW 9489   3.378   0.424   4.669  0.7674  1.4743  1.8960
 1584Sol     MW 9490   3.301   0.465   4.691 -0.4127 -0.3644 -0.4680
 1585Sol     OW 9491   3.030   2.779   2.487  0.0336  0.0357  0.2138
 1585Sol     HW 9492   3.076   2.822   2.559 -1.1214 -0.3833  1.2135
 1585Sol     HW 9493   3.023   2.846   2.419  0.4551  0.6630  0.7822
 1585Sol     MW 9494   3.033   2.789   2.488 -0.6233 -0.4646 -0.0547
 1586Sol     OW 9495   0.855   2.670   1.898  0.1981 -0.0284 -0.3740
 1586Sol     HW 9496   0.942   2.632   1.901 -1.6559 -4.4973  0.8083
 1586Sol     HW 9497   0.810   2.624   1.827 -2.0604  0.1390  0.8711
 1586Sol     MW 9498   0.858   2.663   1.892 -1.0314  0.4138  0.1342
 1587Sol     OW 9499   0.708   2.613   3.197  0.3374  0.1266  0.2187
 1587Sol     HW 9500   0.645   2.640   3.129 -0.2029 -0.1664  0.5989
 1587Sol     HW 9501   0.656   2.607   3.277  0.7633 -0.5647  0.4428
 1587Sol     MW 9502   0.698   2.615   3.198  0.2189 -0.0795  0.4434
 1588Sol     OW 9503   1.210   2.997   2.514 -0.4719 -0.2512 -0.0339
 1588Sol     HW 9504   1.155   3.051   2.571 -0.3850 -0.0304 -0.1586
 1588Sol     HW 9505   1.296   2.999   2.555 -0.5211 -0.4766  0.0817
 1588Sol     MW 9506   1.212   3.002   2.523  0.1312  0.5600 -0.6276
 1589Sol     OW 9507   0.716   2.722   1.490 -0.5607  0.4845 -0.8078
 1589Sol     HW 9508   0.650   2.789   1.507 -0.5881  0.6464 -1.5327
 1589Sol     HW 9509   0.764   2.754   1.414  0.0064  0.1046 -0.6147
 1589Sol     MW 9510   0.714   2.731   1.485  0.4326  0.2056  0.2879
 1590Sol     OW 9511   0.744   0.030   2.233 -0.4593 -0.4985 -0.2721
 1590Sol     HW 9512   0.739   0.078   2.150 -1.2328 -2.4250 -1.3639
 1590Sol     HW 9513   0.699   0.086   2.296  1.5503  1.7644 -0.7509
 1590Sol     MW 9514   0.740   0.040   2.231  0.1219 -0.4583 -0.0297
 1591Sol     OW 9515   2.009   2.507   3.508 -0.3624  0.0322 -0.3232
 1591Sol     HW 9516   2.079   2.448   3.536 -0.4029  0.7961  1.4920
 1591Sol     HW 9517   1.961   2.459   3.441  2.4368 -0.1788 -2.2800
 1591Sol     MW 9518   2.011   2.498   3.504  0.1335 -0.4080 -0.3902
 1592Sol     OW 9519   2.585   1.741   8.964 -0.2486 -0.2758 -0.0351
 1592Sol     HW 9520   2.544   1.827   8.953  0.6706  0.3057  0.9516
 1592Sol     HW 9521   2.531   1.681   8.913  0.9118  1.4300 -3.4526
 1592Sol     MW 9522   2.577   1.743   8.959 -0.2770  0.2026 -0.0417
 1593Sol     OW 9523   2.540   2.834   2.187  0.2276 -0.8713  0.6290
 1593Sol     HW 9524   2.587   2.818   2.269  0.3186 -0.9520  0.5618
 1593Sol     HW 9525   2.469   2.770   2.187 -0.1282 -0.4761  0.9239
 1593Sol     MW 9526   2.538   2.827   2.194  0.5264  0.4915  0.0030
 1594Sol     OW 9527   2.562   0.168   9.217 -0.3137 -0.5093 -0.4372
 1594Sol     HW 9528   2.551   0.075   9.238  0.6625 -0.2976  1.1050
 1594Sol     HW 9529   2.481   0.209   9.245  0.9926 -0.2207  3.1555
 1594Sol     MW 9530   2.554   0.163   9.222 -0.6423 -0.0794 -0.1689
 1595Sol     OW 9531   1.086   1.482   8.819  0.1616 -0.1654 -0.2555
 1595Sol     HW 9532   1.180   1.471   8.828 -0.1694 -2.9322  0.4701
 1595Sol     HW 9533   1.062   1.548   8.883  1.4822 -0.0604  0.1359
 1595Sol     MW 9534   1.092   1.487   8.825  0.0310 -0.1582  1.0959
 1596Sol     OW 9535   2.544   0.085   7.304  0.1748 -0.0596 -0.0315
 1596Sol     HW 9536   2.599   0.010   7.326  0.9123  0.6590  0.5941
 1596Sol     HW 9537   2.599   0.139   7.248 -0.4528 -0.1155 -0.7153
 1596Sol     MW 9538   2.554   0.083   7.301  0.3851  0.3260  0.2433
 1597Sol     OW 9539   3.270   0.337   5.506  0.1247  0.2991  0.0569
 1597Sol     HW 9540   3.225   0.255   5.525  2.4819 -1.0240  0.1932
 1597Sol     HW 9541   3.318   0.319   5.425  1.1297  1.3312  0.4085
 1597Sol     MW 9542   3.271   0.328   5.500 -0.2230  0.4900  0.1309
 1598Sol     OW 9543   0.993   1.101   7.653 -0.5242 -0.6183 -0.4108
 1598Sol     HW 9544   1.060   1.103   7.585 -1.6501 -0.7588 -1.5454
 1598Sol     HW 9545   0.956   1.013   7.648 -0.7624 -0.5537  0.2303
 1598Sol     MW 9546   0.996   1.094   7.646  0.1929 -0.0368 -0.3417
 1599Sol     OW 9547   2.549   1.213   7.582  0.3445 -0.4056  0.3603
 1599Sol     HW 9548   2.474   1.227   7.524  0.5079 -0.7626  0.0575
 1599Sol     HW 9549   2.539   1.123   7.613  1.6180 -1.0970 -1.1274
 1599Sol     MW 9550   2.541   1.206   7.579 -0.1898  0.1711  0.0284
 1600Sol     OW 9551   1.382   0.862   9.694 -0.3982  0.6921 -0.1982
 1600Sol     HW 9552   1.318   0.792   9.708 -1.9637  1.8641 -1.3609
 1600Sol     HW 9553   1.329   0.939   9.674  1.3671  1.8241 -0.5723
 1600Sol     MW 9554   1.371   0.863   9.694  0.1482  0.1968  0.0957
 1601Sol     OW 9555   2.758   2.327   2.541  0.1189 -0.1490  0.4420
 1601Sol     HW 9556   2.817   2.349   2.614 -0.5844 -1.5700  1.4443
 1601Sol     HW 9557   2.769   2.233   2.528 -0.7737 -0.1438 -0.4008
 1601Sol     MW 9558   2.765   2.321   2.547 -0.1223 -0.6437  0.1187
 1602Sol     OW 9559   2.634   2.311   1.710  0.4058 -0.3958  0.3909
 1602Sol     HW 9560   2.659   2.377   1.645  0.3853 -0.1253  0.6539
 1602Sol     HW 9561   2.560   2.350   1.757 -0.9111 -1.4498 -0.7840
 1602Sol     MW 9562   2.630   2.321   1.708  1.0743 -0.2137 -0.4903
 1603Sol     OW 9563   3.170   1.326   2.048 -0.5817 -0.4159 -0.0217
 1603Sol     HW 9564   3.237   1.373   2.000 -0.4687  0.7251  1.2180
 1603Sol     HW 9565   3.198   1.234   2.046  1.8071  0.2292  1.7529
 1603Sol     MW 9566   3.178   1.322   2.044 -1.0343 -0.3263  0.2199
 1604Sol     OW 9567   1.870   0.655   3.700 -0.4782  0.3480  0.0549
 1604Sol     HW 9568   1.813   0.652   3.623  1.2149  2.5518 -1.3456
 1604Sol     HW 9569   1.905   0.566   3.707 -0.0385  0.3167 -2.1967
 1604Sol     MW 9570   1.868   0.646   3.693 -0.6753 -0.1307  0.2215
 1605Sol     OW 9571   3.163   0.624   7.022  0.0305 -0.8738 -0.6535
 1605Sol     HW 9572   3.249   0.581   7.023 -0.4047 -1.7643 -1.2021
 1605Sol     HW 9573   3.126   0.601   6.937 -1.2928 -1.5705  0.0945
 1605Sol     MW 9574   3.167   0.618   7.015 -0.0801 -0.0856  0.4276
 1606Sol     OW 9575   0.007   0.501   3.361 -0.1171  0.0534  0.1291
 1606Sol     HW 9576  -0.072   0.499   3.416 -1.7856  0.5725 -2.1603
 1606Sol     HW 9577   0.004   0.419   3.312 -1.6002  1.9295 -3.0870
 1606Sol     MW 9578  -0.000   0.493   3.362  0.3965  0.5201  0.3314
 1607Sol     OW 9579   0.703   0.010   3.659 -0.2547  0.3838  0.4122
 1607Sol     HW 9580   0.704  -0.076   3.615 -0.6373  0.4457  0.2848
 1607Sol     HW 9581   0.691  -0.011   3.751  0.4969  0.2564  0.4908
 1607Sol     MW 9582   0.702   0.000   3.663  0.4914 -0.3758 -0.2270
 1608Sol     OW 9583   0.728   1.799   2.618  0.0817  0.0749  0.0752
 1608Sol     HW 9584   0.750   1.815   2.526 -0.6506  0.2749 -0.0732
 1608Sol     HW 9585   0.635   1.776   2.616  0.3016 -0.8857  0.6590
 1608Sol     MW 9586   0.721   1.798   2.609  0.5212  0.8504 -0.8262
 1609Sol     OW 9587   2.674   0.679   9.039 -0.0769 -0.0783 -0.2055
 1609Sol     HW 9588   2.665   0.735   8.963  0.8122  1.0841  0.5308
 1609Sol     HW 9589   2.591   0.633   9.046 -0.1265 -0.2628 -1.9231
 1609Sol     MW 9590   2.666   0.680   9.033 -0.1526  0.4018  0.4359
 1610Sol     OW 9591   1.150   0.759   9.084 -0.4540 -0.1074  0.4324
 1610Sol     HW 9592   1.129   0.717   9.167  0.8033  0.7638  1.2200
 1610Sol     HW 9593   1.226   0.710   9.051  0.0699  0.5682  0.6129
 1610Sol     MW 9594   1.155   0.751   9.088 -0.1360  0.5985  0.4295
 1611Sol     OW 9595   0.488   2.379   4.557  0.5611  0.9617 -0.5848
 1611Sol     HW 9596   0.467   2.345   4.470  1.6195  2.6123 -1.5005
 1611Sol     HW 9597   0.445   2.465   4.560 -0.2013  0.5543  0.8631
 1611Sol     MW 9598   0.482   2.384   4.549  0.2342  0.3158 -0.4180
 1612Sol     OW 9599   0.335   0.575   2.043  0.0200  0.0182 -0.1150
 1612Sol     HW 9600   0.406   0.557   1.981 -0.2166  0.4602 -0.5151
 1612Sol     HW 9601   0.355   0.662   2.078  1.4255 -1.1769  2.1718
 1612Sol     MW 9602   0.343   0.581   2.041 -0.1133  0.3703 -0.1071
 1613Sol     OW 9603   0.603   1.356   8.354 -0.0948  0.2771  0.3602
 1613Sol     HW 9604   0.664   1.411   8.403  1.1458 -1.0158  0.2972
 1613Sol     HW 9605   0.595   1.276   8.407 -0.1435 -0.3971 -0.6570
 1613Sol     MW 9606   0.608   1.354   8.363 -0.0796 -0.4102  1.0903
 1614Sol     OW 9607   3.049   1.754   2.657  0.1781  0.0492 -0.2477
 1614Sol     HW 9608   3.044   1.849   2.656 -2.1175 -0.0391 -0.0558
 1614Sol     HW 9609   2.969   1.725   2.612  0.7515 -1.7918 -0.1519
 1614Sol     MW 9610   3.041   1.760   2.653  0.0936 -0.7138  0.1709
 1615Sol     OW 9611   2.644   0.107   3.758  0.0473  1.0359 -0.1089
 1615Sol     HW 9612   2.689   0.094   3.675 -0.7361  2.1581 -0.7097
 1615Sol     HW 9613   2.696   0.173   3.804 -0.8853  2.2483 -0.7556
 1615Sol     MW 9614   2.653   0.112   3.755 -0.0411  0.0695  0.1140
 1616Sol     OW 9615   1.364   2.899   1.838 -0.0429 -1.1721 -0.5178
 1616Sol     HW 9616   1.281   2.913   1.884  0.2074 -1.6556  0.0732
 1616Sol     HW 9617   1.340   2.845   1.762 -0.4520 -0.3752 -0.9634
 1616Sol     MW 9618   1.354   2.896   1.835  0.8673 -0.0888  0.8192
 1617Sol     OW 9619   2.905   2.421   6.361  0.0228  0.2542 -0.0290
 1617Sol     HW 9620   2.996   2.424   6.332  0.0405 -0.0066  0.0050
 1617Sol     HW 9621   2.882   2.328   6.361 -1.1424  0.5218 -2.8056
 1617Sol     MW 9622   2.911   2.413   6.359 -0.5140 -0.6320  0.4584
 1618Sol     OW 9623   2.139   3.304   8.862 -0.0187 -0.3553 -0.4329
 1618Sol     HW 9624   2.135   3.212   8.837 -3.1296 -0.8592  1.5869
 1618Sol     HW 9625   2.208   3.307   8.928 -0.9956 -1.6076  0.6904
 1618Sol     MW 9626   2.144   3.296   8.866 -0.0348  0.6490  0.3461
 1619Sol     OW 9627   0.977   0.724   2.443 -0.2772  0.0084  0.3455
 1619Sol     HW 9628   0.901   0.726   2.385 -0.4411 -0.0564  0.5570
 1619Sol     HW 9629   1.048   0.761   2.391 -0.3338 -0.4093 -0.0226
 1619Sol     MW 9630   0.977   0.728   2.433  0.0644 -0.3670 -0.1454
 1620Sol     OW 9631   0.428   1.607   3.338  0.4145 -0.1139 -0.4061
 1620Sol     HW 9632   0.497   1.577   3.397  0.6261 -0.0435 -0.6186
 1620Sol     HW 9633   0.352   1.618   3.395  0.3270 -1.0622 -0.3202
 1620Sol     MW 9634   0.427   1.605   3.349  0.0506  0.5305 -0.1136
 1621Sol     OW 9635   2.377   1.776   4.489 -0.1510 -0.8443 -0.5333
 1621Sol     HW 9636   2.335   1.731   4.416 -0.8245 -4.1802  1.7652
 1621Sol     HW 9637   2.363   1.717   4.564  1.7862  1.7364  1.9588
 1621Sol     MW 9638   2.372   1.767   4.490 -0.3302 -0.0257  0.4892
 1622Sol     OW 9639   1.089   0.316   2.905 -0.2366  0.2046 -0.3991
 1622Sol     HW 9640   1.118   0.329   2.995 -0.9668  1.3848 -0.3222
 1622Sol     HW 9641   1.080   0.221   2.895  0.8735  0.0062  0.4398
 1622Sol     MW 9642   1.091   0.309   2.912  0.3709 -0.1109 -1.1635
 1623Sol     OW 9643   0.109   2.879   2.038  0.5563 -0.8671 -0.0733
 1623Sol     HW 9644   0.138   2.895   2.127 -0.8240  1.8866 -0.0756
 1623Sol     HW 9645   0.189   2.885   1.985  1.4453 -2.9808  0.9948
 1623Sol     MW 9646   0.119   2.881   2.041 -0.3554  0.3338  0.2669
 1624Sol     OW 9647   0.592   2.048   5.335 -0.7098 -0.0835 -0.3073
 1624Sol     HW 9648   0.598   2.090   5.421  2.4994 -0.8570 -0.1127
 1624Sol     HW 9649   0.530   1.976   5.348 -1.0799  0.4587  1.0608
 1624Sol     MW 9650   0.587   2.045   5.344 -0.0606 -0.1515 -0.3715
 1625Sol     OW 9651   1.869   2.995   4.536 -0.3517 -0.2146 -0.0724
 1625Sol     HW 9652   1.929   2.938   4.487  1.5502  1.8958 -0.2798
 1625Sol     HW 9653   1.922   3.027   4.609 -0.7188  2.8642 -1.0956
 1625Sol     MW 9654   1.879   2.993   4.538  0.2759 -0.2717 -0.0257
 1626Sol     OW 9655   1.143   1.914   3.354  0.1948  0.3623 -0.3720
 1626Sol     HW 9656   1.148   1.957   3.440 -0.0072  0.7117 -0.5347
 1626Sol     HW 9657   1.111   1.982   3.295 -0.0789  0.0002 -0.6422
 1626Sol     MW 9658   1.140   1.924   3.356  0.9216  0.6362 -0.0717
 1627Sol     OW 9659   1.040   0.272   9.442 -0.5672 -0.0161  0.2424
 1627Sol     HW 9660   0.994   0.306   9.519 -3.0508 -0.0005 -1.1757
 1627Sol     HW 9661   0.995   0.313   9.368 -0.0769 -2.1842 -1.3119
 1627Sol     MW 9662   1.031   0.279   9.442  0.3092  0.6366  0.0524
 1628Sol     OW 9663   2.266   1.242   4.407  0.2925  0.3169 -0.0896
 1628Sol     HW 9664   2.216   1.320   4.433 -0.3052  0.1491 -0.7103
 1628Sol     HW 9665   2.214   1.204   4.336  0.3789 -0.8675  0.4787
 1628Sol     MW 9666   2.257   1.246   4.403 -0.0814  0.5673 -0.1616
 1629Sol     OW 9667   1.637   0.156   5.798 -0.4890  0.1343  0.0734
 1629Sol     HW 9668   1.682   0.190   5.721  0.1102 -0.8720 -0.0303
 1629Sol     HW 9669   1.565   0.217   5.812 -0.6141  0.3205 -1.2872
 1629Sol     MW 9670   1.635   0.165   5.792 -0.1536 -0.1296 -0.2544
 1630Sol     OW 9671   1.921   0.190   6.352 -0.4461  0.1723 -0.4155
 1630Sol     HW 9672   1.914   0.278   6.315 -3.2340  0.0137 -0.4291
 1630Sol     HW 9673   1.972   0.201   6.432  0.7862  1.4904 -1.3733
 1630Sol     MW 9674   1.925   0.199   6.356 -0.6962  0.6291 -0.0102
 1631Sol     OW 9675   2.074   2.469   2.290 -0.1063 -0.2706  0.4078
 1631Sol     HW 9676   2.160   2.501   2.315  0.6235 -2.4172  0.7696
 1631Sol     HW 9677   2.014   2.509   2.353  0.1615  3.7010 -1.7168
 1631Sol     MW 9678   2.076   2.475   2.298  0.3154 -0.4740 -0.3849
 1632Sol     OW 9679   1.061   2.196   1.832  0.3614  0.1967 -0.0045
 1632Sol     HW 9680   1.136   2.255   1.821 -1.0471  1.7849 -1.3913
 1632Sol     HW 9681   1.026   2.186   1.743 -0.4774 -1.3157  0.4965
 1632Sol     MW 9682   1.065   2.201   1.823  0.1397  0.1513 -0.2166
 1633Sol     OW 9683   0.828   3.088   8.258 -0.0394 -0.1268  0.2892
 1633Sol     HW 9684   0.882   3.129   8.325 -0.4459  1.3839 -0.2907
 1633Sol     HW 9685   0.890   3.035   8.207  0.3726 -0.7715  1.4523
 1633Sol     MW 9686   0.838   3.087   8.259  0.2302 -1.3408  0.2087
 1634Sol     OW 9687   0.516   0.260   5.513 -0.1036 -0.6332  0.0200
 1634Sol     HW 9688   0.575   0.190   5.485  1.2009 -0.0786  1.2958
 1634Sol     HW 9689   0.438   0.215   5.545 -0.1233 -1.4072 -1.1001
 1634Sol     MW 9690   0.514   0.250   5.514  0.3431  0.1637  0.3059
 1635Sol     OW 9691   0.176   0.109   6.691  0.0461 -0.2156 -0.8496
 1635Sol     HW 9692   0.081   0.107   6.693 -0.0201  2.2317  0.5050
 1635Sol     HW 9693   0.204   0.086   6.779  0.7270 -0.9928 -1.2551
 1635Sol     MW 9694   0.170   0.107   6.699  0.2389 -0.5218  0.2926
 1636Sol     OW 9695   0.585   0.854   5.568  0.1371  0.1320  0.0345
 1636Sol     HW 9696   0.519   0.901   5.619  0.2936  0.5219 -0.1218
 1636Sol     HW 9697   0.666   0.902   5.586  0.1519  0.4018 -0.7635
 1636Sol     MW 9698   0.587   0.862   5.574  0.4063 -0.1982  0.2759
 1637Sol     OW 9699   2.310   1.980   7.467 -0.1900  0.2563 -0.3140
 1637Sol     HW 9700   2.377   1.997   7.401 -0.3097  0.3815 -0.4041
 1637Sol     HW 9701   2.280   1.891   7.448 -1.2246  0.8054 -1.3208
 1637Sol     MW 9702   2.313   1.973   7.459 -0.3563  0.7728  0.3928
 1638Sol     OW 9703   3.192   2.946   8.949  0.0925  0.1048 -0.1630
 1638Sol     HW 9704   3.246   2.878   8.989 -0.3703  0.4648  1.1157
 1638Sol     HW 9705   3.109   2.942   8.998 -0.6765  0.2135 -1.4398
 1638Sol     MW 9706   3.189   2.940   8.957  0.9618 -0.0915  0.3034
 1639Sol     OW 9707   0.175   1.295   2.195  0.0128  0.2762  0.0645
 1639Sol     HW 9708   0.118   1.332   2.263  0.2364  1.0330 -0.1509
 1639Sol     HW 9709   0.118   1.235   2.147 -0.8903  1.7803 -0.7769
 1639Sol     MW 9710   0.165   1.293   2.197  0.3797 -0.1914 -0.3265
 1640Sol     OW 9711   0.112   0.715   9.445 -0.2405 -0.8990 -0.1982
 1640Sol     HW 9712   0.101   0.629   9.485  1.4989 -0.9815  0.1757
 1640Sol     HW 9713   0.162   0.698   9.365  0.9460 -0.1541  0.3653
 1640Sol     MW 9714   0.116   0.706   9.441 -0.9290 -0.3996 -0.1509
 1641Sol     OW 9715   0.794   3.296   8.071  0.0165  0.5572 -0.1252
 1641Sol     HW 9716   0.803   3.228   8.137  1.0027 -0.2540 -1.0555
 1641Sol     HW 9717   0.725   3.265   8.013 -0.4038  0.9577  0.1579
 1641Sol     MW 9718   0.789   3.287   8.071 -0.4835 -0.2569  0.2166
 1642Sol     OW 9719   2.288   2.020   4.575 -0.3725 -0.2478 -0.1623
 1642Sol     HW 9720   2.320   1.934   4.550  0.0772 -0.6488  1.7401
 1642Sol     HW 9721   2.204   2.003   4.617 -0.6390  0.3193 -0.4545
 1642Sol     MW 9722   2.283   2.011   4.576  0.8244  0.4338  0.6572
 1643Sol     OW 9723   1.959   0.916   9.393 -0.3659 -0.2944  0.0013
 1643Sol     HW 9724   1.933   0.824   9.396 -0.7977 -0.1732  0.0273
 1643Sol     HW 9725   1.881   0.962   9.362  1.2604 -0.4657 -4.7425
 1643Sol     MW 9726   1.950   0.912   9.391 -0.3934 -0.3454 -0.0788
 1644Sol     OW 9727   1.143   3.264   4.689  0.0481 -0.0076 -0.2572
 1644Sol     HW 9728   1.161   3.217   4.770  1.0804 -1.6231 -1.3842
 1644Sol     HW 9729   1.193   3.345   4.697  0.3262 -0.2586  0.6261
 1644Sol     MW 9730   1.149   3.267   4.697 -0.2279 -0.5679  1.1511
 1645Sol     OW 9731   0.250   2.810   1.597 -0.0038  0.1653  1.0243
 1645Sol     HW 9732   0.164   2.775   1.570  0.7554  0.0488 -1.3267
 1645Sol     HW 9733   0.229   2.889   1.646 -1.4548  0.3594  0.1232
 1645Sol     MW 9734   0.240   2.814   1.599  0.5992 -0.4539  0.1783
 1646Sol     OW 9735   2.005   0.625   4.648 -0.0344 -0.2852 -0.1001
 1646Sol     HW 9736   2.063   0.687   4.692 -1.0126 -1.3537  2.7890
 1646Sol     HW 9737   2.065   0.560   4.610  0.7665 -0.1771  0.9580
 1646Sol     MW 9738   2.016   0.625   4.649 -0.0160  1.1742 -0.6279
 1647Sol     OW 9739   0.940   2.996   6.259 -0.3269 -0.1647  0.1166
 1647Sol     HW 9740   0.904   3.082   6.278  0.1064  0.3901 -1.5808
 1647Sol     HW 9741   0.955   2.957   6.346  1.2822  2.1978  0.9404
 1647Sol     MW 9742   0.938   3.000   6.269 -0.0727 -0.4725  0.0353
 1648Sol     OW 9743   3.056   1.615   6.851  0.1916  0.2684 -0.0211
 1648Sol     HW 9744   3.001   1.558   6.905 -2.7910  1.7413 -1.3704
 1648Sol     HW 9745   3.086   1.684   6.911 -0.6463  0.2623  0.4085
 1648Sol     MW 9746   3.054   1.616   6.861 -0.5375 -0.1237  0.0595
 1649Sol     OW 9747   0.550   3.152   5.938  0.0440  0.4575  0.7028
 1649Sol     HW 9748   0.504   3.099   6.002  2.5920 -0.5452  1.7793
 1649Sol     HW 9749   0.639   3.116   5.937  0.9077  2.5422 -1.0304
 1649Sol     MW 9750   0.554   3.144   5.943 -0.3583 -0.1831 -0.0392
 1650Sol     OW 9751   1.069   2.106   5.413  0.0688  0.2208 -0.7046
 1650Sol     HW 9752   1.008   2.140   5.479 -0.5306  0.2884 -1.2827
 1650Sol     HW 9753   1.045   2.152   5.333  1.5169  0.9525 -0.7277
 1650Sol     MW 9754   1.061   2.113   5.412 -0.3849 -0.3333 -0.0085
 1651Sol     OW 9755   0.261   3.079   6.853  0.1842  0.4072 -0.0057
 1651Sol     HW 9756   0.299   2.992   6.840  0.8687  0.5350  1.1454
 1651Sol     HW 9757   0.298   3.132   6.782  0.1982 -0.0873 -0.3757
 1651Sol     MW 9758   0.267   3.076   6.845  0.0006 -0.3680 -1.0727
 1652Sol     OW 9759   0.788   1.101   3.788 -0.3337  0.1149 -0.0442
 1652Sol     HW 9760   0.839   1.104   3.869 -0.1264  4.6320 -0.2227
 1652Sol     HW 9761   0.852   1.081   3.720 -0.1094 -1.4512  0.6167
 1652Sol     MW 9762   0.799   1.100   3.789  0.0164 -0.7734  0.4393
 1653Sol     OW 9763   1.839   2.443   9.413  0.3652 -0.5332  0.3169
 1653Sol     HW 9764   1.774   2.484   9.355  1.9970 -1.0196 -1.9181
 1653Sol     HW 9765   1.787   2.385   9.469 -1.2962  0.1028 -0.5226
 1653Sol     MW 9766   1.828   2.441   9.412 -0.6292  0.4630  0.2766
 1654Sol     OW 9767   2.755   0.197   8.539  0.4234  0.4425 -0.3463
 1654Sol     HW 9768   2.796   0.126   8.588 -2.5486 -2.2509 -1.5688
 1654Sol     HW 9769   2.705   0.246   8.604  2.0019  1.1032  0.3984
 1654Sol     MW 9770   2.755   0.195   8.549  0.3762  0.0612 -0.1337
 1655Sol     OW 9771   0.977   1.214   8.729  0.2329 -0.5169  0.2048
 1655Sol     HW 9772   0.952   1.134   8.776 -3.7215 -0.5172 -1.7097
 1655Sol     HW 9773   0.959   1.285   8.791 -0.7876 -0.8146  0.2599
 1655Sol     MW 9774   0.973   1.213   8.739  0.0036  0.1434 -0.7082
 1656Sol     OW 9775   3.249   1.699   7.731  0.1653 -0.0485  0.5503
 1656Sol     HW 9776   3.336   1.693   7.770  0.6408 -0.3307 -0.5350
 1656Sol     HW 9777   3.200   1.627   7.770  0.3681  0.1888  1.2587
 1656Sol     MW 9778   3.252   1.692   7.738  0.3102 -0.4900  0.0734
 1657Sol     OW 9779   1.248   2.152   6.792 -0.3193  0.1205 -0.0444
 1657Sol     HW 9780   1.332   2.107   6.779 -1.2003 -1.6052  0.0194
 1657Sol     HW 9781   1.203   2.099   6.858 -1.4475  1.0483 -0.0610
 1657Sol     MW 9782   1.252   2.143   6.797 -0.1305  0.3420  0.2922
 1658Sol     OW 9783   1.505   1.130   7.785 -0.0531  0.5132 -0.2527
 1658Sol     HW 9784   1.510   1.071   7.709  1.2284 -0.7425  0.7774
 1658Sol     HW 9785   1.581   1.188   7.774  0.2632  0.1867  0.1620
 1658Sol     MW 9786   1.512   1.130   7.777 -0.6254  0.0755  0.1990
 1659Sol     OW 9787   0.483   0.152   4.686 -0.8333 -0.4448 -0.1624
 1659Sol     HW 9788   0.525   0.176   4.603 -1.8869  1.8915 -0.0804
 1659Sol     HW 9789   0.417   0.087   4.661 -3.5476  2.7740 -1.7888
 1659Sol     MW 9790   0.481   0.148   4.676  0.3244  0.0758 -0.1504
 1660Sol     OW 9791   1.245   3.115   2.271 -0.1489  0.0958  0.1381
 1660Sol     HW 9792   1.217   3.064   2.347  1.2419  0.1784  0.7153
 1660Sol     HW 9793   1.330   3.079   2.247 -1.1126 -0.7711 -2.1865
 1660Sol     MW 9794   1.250   3.107   2.276  0.4323 -0.0251 -0.3968
 1661Sol     OW 9795   1.234   3.152   8.801  0.3943  0.2609  0.2322
 1661Sol     HW 9796   1.290   3.230   8.799 -1.4035  1.5892  0.0062
 1661Sol     HW 9797   1.150   3.183   8.768 -0.8634 -1.3736  1.8252
 1661Sol     MW 9798   1.231   3.162   8.798  0.6034  0.1934 -0.4208
 1662Sol     OW 9799   2.447   2.216   4.462 -0.5495 -0.3586  0.0940
 1662Sol     HW 9800   2.384   2.161   4.508  0.1440  0.6543  2.3125
 1662Sol     HW 9801   2.522   2.159   4.446 -1.1139 -0.9368 -0.5185
 1662Sol     MW 9802   2.448   2.206   4.464 -0.0477 -0.5972  0.0039
 1663Sol     OW 9803   0.637   2.909   8.521  0.0572  0.3022  0.4019
 1663Sol     HW 9804   0.728   2.903   8.490  0.5438  1.3293  1.6028
 1663Sol     HW 9805   0.587   2.930   8.442  0.9382  0.2881 -0.1713
 1663Sol     MW 9806   0.641   2.911   8.511  0.0916 -0.4008  0.5577
 1664Sol     OW 9807   0.650   2.856   2.944 -0.5690  1.1222 -0.6597
 1664Sol     HW 9808   0.655   2.861   2.849 -0.8594  1.1336 -0.6740
 1664Sol     HW 9809   0.602   2.775   2.961  0.8905  0.2752 -0.4940
 1664Sol     MW 9810   0.646   2.849   2.937 -0.7182  0.0709 -0.2276
 1665Sol     OW 9811   3.091   2.913   1.691  0.0050 -0.7949 -0.6416
 1665Sol     HW 9812   3.150   2.932   1.764 -2.5928 -0.8831  1.5697
 1665Sol     HW 9813   3.036   2.991   1.684 -0.4279 -1.2006 -1.8400
 1665Sol     MW 9814   3.092   2.922   1.697  0.0835  0.4069 -0.2971
 1666Sol     OW 9815   0.355   1.724   7.595 -0.3272  0.2038  0.1159
 1666Sol     HW 9816   0.319   1.717   7.684  0.3495 -1.0156  0.3048
 1666Sol     HW 9817   0.418   1.652   7.589  0.2557  0.8001 -1.0649
 1666Sol     MW 9818   0.357   1.717   7.603 -0.9092 -0.5817  0.0754
 1667Sol     OW 9819   1.496   1.756   8.679 -0.2805 -0.2166 -0.2680
 1667Sol     HW 9820   1.462   1.711   8.757 -0.5251  0.3813 -0.0323
 1667Sol     HW 9821   1.505   1.686   8.614  0.8635 -0.8890  0.5923
 1667Sol     MW 9822   1.493   1.745   8.680  0.1450  0.0055 -0.0770
 1668Sol     OW 9823   1.503   0.631   4.805  0.3334  0.1190 -0.1562
 1668Sol     HW 9824   1.512   0.725   4.818  0.2747  0.0109  0.7449
 1668Sol     HW 9825   1.540   0.592   4.885 -1.5351 -0.5378  0.4241
 1668Sol     MW 9826   1.507   0.636   4.813 -0.9629  0.6210  0.1143
 1669Sol     OW 9827   0.706   1.584   4.293 -0.1207  0.8091  0.2542
 1669Sol     HW 9828   0.637   1.648   4.309 -0.6722  1.2685 -3.5126
 1669Sol     HW 9829   0.776   1.634   4.251  0.0419 -0.7262 -1.3840
 1669Sol     MW 9830   0.706   1.594   4.291 -0.4102 -0.0792 -0.4364
 1670Sol     OW 9831   2.387   2.448   4.998 -0.1895 -0.5648 -0.2135
 1670Sol     HW 9832   2.418   2.372   5.047 -0.7222 -0.3825  0.4148
 1670Sol     HW 9833   2.369   2.414   4.910  1.6162 -0.7060 -0.5514
 1670Sol     MW 9834   2.388   2.438   4.994 -0.0776  0.0447  0.1890
 1671Sol     OW 9835   0.399   3.389   5.634  0.5012  0.1683  0.0306
 1671Sol     HW 9836   0.396   3.345   5.549 -1.0636 -1.1539  0.7302
 1671Sol     HW 9837   0.359   3.474   5.618 -0.7318 -0.4669 -0.3687
 1671Sol     MW 9838   0.395   3.392   5.625 -0.0151 -0.3630 -0.0243
 1672Sol     OW 9839   2.015   1.261   8.109  0.6371 -0.1091 -0.0914
 1672Sol     HW 9840   2.021   1.353   8.136  0.1012  0.2285 -1.0886
 1672Sol     HW 9841   2.097   1.243   8.064  0.6795 -0.0817 -0.0253
 1672Sol     MW 9842   2.023   1.268   8.108 -0.3928  0.2057 -0.1121
 1673Sol     OW 9843   1.831   0.728   6.496  0.5210  0.5078  0.0310
 1673Sol     HW 9844   1.765   0.662   6.518  2.3151 -1.7830 -1.1985
 1673Sol     HW 9845   1.886   0.734   6.575  0.0398  0.9312  0.3348
 1673Sol     MW 9846   1.830   0.722   6.505  0.0368  0.1801  0.1622
 1674Sol     OW 9847   0.647   2.508   4.899 -0.1156 -0.2189  0.2326
 1674Sol     HW 9848   0.560   2.529   4.865  0.0352  1.6575  0.9776
 1674Sol     HW 9849   0.645   2.539   4.990  1.2297 -0.4337  0.3400
 1674Sol     MW 9850   0.639   2.513   4.904  0.0753 -0.5125 -0.2399
 1675Sol     OW 9851   2.510   2.624   2.784 -0.1755 -0.5411 -0.1570
 1675Sol     HW 9852   2.546   2.711   2.799  1.4370 -1.1308 -0.5493
 1675Sol     HW 9853   2.420   2.640   2.754 -0.4486  0.9230  1.3725
 1675Sol     MW 9854   2.505   2.633   2.783 -0.8256 -0.4167 -0.0007
 1676Sol     OW 9855   2.404   3.193   8.052 -0.3085  0.1630  0.4417
 1676Sol     HW 9856   2.419   3.286   8.071  0.4952 -0.2042  1.6558
 1676Sol     HW 9857   2.348   3.163   8.124 -1.2747 -0.0995 -0.4097
 1676Sol     MW 9858   2.400   3.199   8.060 -0.4029 -0.1369 -0.1751
 1677Sol     OW 9859   2.109   1.108   1.538  0.3177  0.3495 -0.3165
 1677Sol     HW 9860   2.052   1.167   1.587 -0.4050  0.9630 -1.8360
 1677Sol     HW 9861   2.048   1.048   1.493  1.0640 -2.4944  2.2968
 1677Sol     MW 9862   2.098   1.108   1.538 -0.3664 -0.2758  0.3217
 1678Sol     OW 9863   3.189   0.785   9.129 -0.0259 -0.0100  0.2767
 1678Sol     HW 9864   3.140   0.868   9.127  0.8684  0.5223 -0.0374
 1678Sol     HW 9865   3.180   0.754   9.219 -1.3819 -0.1968  0.0950
 1678Sol     MW 9866   3.184   0.790   9.137 -0.3306  0.2374  0.0533
 1679Sol     OW 9867   0.439   0.526   2.957  0.7266  0.1755 -0.6501
 1679Sol     HW 9868   0.435   0.581   3.035  0.8667 -0.0942 -0.4496
 1679Sol     HW 9869   0.446   0.587   2.884 -1.7795  0.5449 -0.6446
 1679Sol     MW 9870   0.439   0.536   2.957 -0.0040  0.8428 -0.5079
 1680Sol     OW 9871   0.139   1.615   7.851 -0.2654  0.2556 -0.4405
 1680Sol     HW 9872   0.139   1.519   7.855  0.1973  0.1666 -2.3903
 1680Sol     HW 9873   0.161   1.642   7.940  1.7053 -1.4672 -0.3685
 1680Sol     MW 9874   0.141   1.609   7.860  0.0746 -0.0289 -0.3548
 1681Sol     OW 9875   1.759   3.363   3.018  0.1920 -0.1940  0.1483
 1681Sol     HW 9876   1.717   3.353   2.933  2.1570 -2.2292 -0.6321
 1681Sol     HW 9877   1.846   3.397   2.997  0.6259 -0.5472  1.3612
 1681Sol     MW 9878   1.763   3.365   3.008 -0.4541 -0.2164  0.2082
 1682Sol     OW 9879   1.762   3.167   7.708  0.5974 -0.3236  0.3033
 1682Sol     HW 9880   1.847   3.169   7.751  1.4222 -1.0993 -1.2525
 1682Sol     HW 9881   1.779   3.129   7.622 -1.4786 -1.4141  0.3336
 1682Sol     MW 9882   1.771   3.163   7.704  0.8347 -0.3961 -0.2745
 1683Sol     OW 9883   0.284   0.450   5.166 -0.4457  0.2480  0.7483
 1683Sol     HW 9884   0.275   0.545   5.174 -0.2113  0.2478  1.0127
 1683Sol     HW 9885   0.337   0.437   5.087 -1.1881  0.3087  0.2389
 1683Sol     MW 9886   0.288   0.457   5.160  0.2807 -0.3699 -0.5146
 1684Sol     OW 9887   2.764   0.755   3.796 -0.5099  0.5845 -0.1042
 1684Sol     HW 9888   2.689   0.749   3.856 -0.5822  1.5796 -0.0833
 1684Sol     HW 9889   2.790   0.847   3.800  1.2920  0.0598  0.5867
 1684Sol     MW 9890   2.760   0.763   3.802  0.4090  0.1020  0.0316
 1685Sol     OW 9891   2.592   0.917   7.749 -0.3659  0.0977 -0.3388
 1685Sol     HW 9892   2.508   0.878   7.727 -0.0498 -0.5545 -0.4052
 1685Sol     HW 9893   2.647   0.900   7.672 -0.5232  1.5449 -0.7742
 1685Sol     MW 9894   2.590   0.912   7.740 -1.0430 -0.2023  0.1569
 1686Sol     OW 9895   1.520   2.559   4.806 -0.0393 -0.1862  0.3913
 1686Sol     HW 9896   1.517   2.568   4.711  0.0450  0.9983  0.4970
 1686Sol     HW 9897   1.603   2.515   4.823  0.4000  0.4860 -0.0167
 1686Sol     MW 9898   1.527   2.555   4.799 -0.0435  0.0033  0.5132
 1687Sol     OW 9899   0.155   3.103   5.870 -0.3161  0.0489 -0.0825
 1687Sol     HW 9900   0.208   3.178   5.842  1.7602 -0.9178  1.0758
 1687Sol     HW 9901   0.133   3.123   5.961 -0.2105 -0.5167  0.0628
 1687Sol     MW 9902   0.158   3.112   5.876 -0.4124 -0.1189  0.0790
 1688Sol     OW 9903   1.343   0.990   2.525 -0.0424  0.3192  0.2105
 1688Sol     HW 9904   1.391   1.008   2.605 -0.6418  1.8730  0.2248
 1688Sol     HW 9905   1.258   0.958   2.554  0.8923 -2.3241  0.1835
 1688Sol     MW 9906   1.340   0.988   2.534  0.0797  0.5271  0.7897
 1689Sol     OW 9907   2.293   0.508   7.352 -0.5620 -0.3727 -0.0958
 1689Sol     HW 9908   2.388   0.503   7.367 -0.9666 -2.2173  2.2285
 1689Sol     HW 9909   2.268   0.592   7.390 -0.0045 -0.4145  0.3855
 1689Sol     MW 9910   2.299   0.515   7.357 -0.7272  0.0896 -0.0159
 1690Sol     OW 9911   1.581   1.842   6.107  0.1903 -0.3995  0.1690
 1690Sol     HW 9912   1.494   1.850   6.066  0.3404  0.9457  0.0849
 1690Sol     HW 9913   1.634   1.908   6.063  0.7714  0.0163  1.4854
 1690Sol     MW 9914   1.578   1.848   6.099 -0.3325 -0.2452 -0.1210
 1691Sol     OW 9915   1.083   0.710   3.215 -0.3479 -0.1386 -0.4160
 1691Sol     HW 9916   0.992   0.684   3.201 -0.8826  1.3197  0.1705
 1691Sol     HW 9917   1.085   0.739   3.307 -0.0314  2.6683 -1.2567
 1691Sol     MW 9918   1.075   0.711   3.222  0.0550  0.0099  0.1850
 1692Sol     OW 9919   2.948   2.536   7.423 -0.0232 -0.1356  0.1176
 1692Sol     HW 9920   2.970   2.443   7.428 -0.5739 -0.3644 -1.6076
 1692Sol     HW 9921   2.854   2.540   7.439 -0.0343  0.1161 -0.0069
 1692Sol     MW 9922   2.942   2.528   7.425 -0.0131 -0.5211  0.3832
 1693Sol     OW 9923   1.498   2.848   5.230 -0.9710  0.5115  0.3037
 1693Sol     HW 9924   1.442   2.921   5.257 -0.6215  1.2125 -0.8686
 1693Sol     HW 9925   1.581   2.865   5.273 -1.5411 -0.3649  1.7932
 1693Sol     MW 9926   1.500   2.856   5.237 -0.0036  0.1823 -0.0914
 1694Sol     OW 9927   2.446   2.015   9.022  0.0668 -0.0602 -0.2396
 1694Sol     HW 9928   2.404   2.001   9.106  0.6029 -1.3084 -0.1801
 1694Sol     HW 9929   2.376   2.003   8.958 -0.5193  1.6568  0.0478
 1694Sol     MW 9930   2.436   2.013   9.023 -0.7644  0.1930 -0.5166
 1695Sol     OW 9931   1.170   0.010   5.110  0.2296 -0.1592 -0.0772
 1695Sol     HW 9932   1.141   0.069   5.040 -1.1615  0.4531  0.9782
 1695Sol     HW 9933   1.208   0.068   5.176 -0.0864 -0.5515  0.4522
 1695Sol     MW 9934   1.171   0.021   5.110  0.3560  0.7846 -0.0575
 1696Sol     OW 9935   2.699   1.158   3.494 -0.3156 -0.6055 -0.1314
 1696Sol     HW 9936   2.746   1.112   3.564  1.1889  1.0943  0.0311
 1696Sol     HW 9937   2.651   1.228   3.540  0.5825  0.4412 -0.7514
 1696Sol     MW 9938   2.699   1.160   3.505  1.1677 -0.1643  0.5439
 1697Sol     OW 9939   2.647   2.526   3.480  0.0319  0.4704  0.2592
 1697Sol     HW 9940   2.712   2.473   3.434  0.7227 -0.3796  2.1747
 1697Sol     HW 9941   2.588   2.556   3.411  2.3879  1.1894 -1.5117
 1697Sol     MW 9942   2.648   2.524   3.469 -0.0712  0.1005  0.2234
 1698Sol     OW 9943   2.514   3.318   5.515 -0.2542 -0.0544 -0.0904
 1698Sol     HW 9944   2.526   3.279   5.429  2.2346 -1.1873  0.7311
 1698Sol     HW 9945   2.437   3.374   5.506 -1.0245 -1.4818 -2.5711
 1698Sol     MW 9946   2.508   3.320   5.507  0.0397 -0.4561  0.8623
 1699Sol     OW 9947   2.234   1.712   5.052  0.2062 -0.4675 -0.2183
 1699Sol     HW 9948   2.186   1.639   5.012  0.9605 -0.8379 -0.4611
 1699Sol     HW 9949   2.325   1.685   5.047  0.5128  0.6523 -0.6193
 1699Sol     MW 9950   2.237   1.703   5.048 -0.3697 -0.3997 -0.0549
 1700Sol     OW 9951   2.993   2.033   2.326 -0.1780  0.1932  0.3754
 1700Sol     HW 9952   3.013   2.104   2.264  1.1611  1.2430  1.9506
 1700Sol     HW 9953   2.993   1.954   2.273 -0.2890  1.2093 -1.1852
 1700Sol     MW 9954   2.995   2.033   2.316  0.5885  0.2299 -0.1915
 1701Sol     OW 9955   1.999   0.618   6.076  0.6690  0.0917  0.9432
 1701Sol     HW 9956   1.984   0.709   6.053  0.5675 -0.3173 -0.6262
 1701Sol     HW 9957   2.024   0.575   5.994  1.0312 -1.2257  1.7132
 1701Sol     MW 9958   2.000   0.622   6.067 -0.1597 -0.0737  0.0513
 1702Sol     OW 9959   0.164   0.805   8.636 -0.3154  0.0983 -0.4831
 1702Sol     HW 9960   0.121   0.821   8.720 -1.4532 -0.2128 -0.9974
 1702Sol     HW 9961   0.144   0.714   8.615  1.9421 -0.5538  0.0258
 1702Sol     MW 9962   0.158   0.798   8.642  0.1077 -0.1026 -0.1791
 1703Sol     OW 9963   0.442   2.203   8.928  0.0231 -0.0677 -0.2139
 1703Sol     HW 9964   0.515   2.180   8.870  0.2331  0.1578 -0.0421
 1703Sol     HW 9965   0.365   2.204   8.872 -0.0734 -1.7019 -0.1256
 1703Sol     MW 9966   0.442   2.201   8.918 -0.4146 -0.2456 -0.3603
 1704Sol     OW 9967   2.377   1.326   3.383 -0.5375 -0.5001  0.6830
 1704Sol     HW 9968   2.436   1.402   3.385 -1.1860 -0.0184  3.3097
 1704Sol     HW 9969   2.414   1.269   3.315  1.5382  0.9022  0.5763
 1704Sol     MW 9970   2.386   1.328   3.377  0.8036 -0.1940  0.3599
 1705Sol     OW 9971   0.572   0.399   3.849  0.0417 -0.3893  0.1602
 1705Sol     HW 9972   0.575   0.413   3.754  0.2250 -0.0367  0.2162
 1705Sol     HW 9973   0.659   0.426   3.879 -0.2848  0.2694  0.5324
 1705Sol     MW 9974   0.580   0.403   3.843  0.1470  0.1454 -0.0468
 1706Sol     OW 9975   2.079   1.386   7.193 -0.4566  0.3127  0.1871
 1706Sol     HW 9976   2.094   1.453   7.127 -2.0631  1.9172  1.3843
 1706Sol     HW 9977   2.039   1.314   7.146 -1.0360  1.2007 -0.6914
 1706Sol     MW 9978   2.077   1.386   7.183 -0.1681  0.0180  0.4075
 1707Sol     OW 9979   1.038   0.695   7.153  0.2988  0.5599 -0.0635
 1707Sol     HW 9980   1.108   0.760   7.147  0.8471  0.0296  0.4874
 1707Sol     HW 9981   1.077   0.614   7.121  0.5630 -0.1963  2.0371
 1707Sol     MW 9982   1.048   0.693   7.150 -0.0735  0.1691  0.5613
 1708Sol     OW 9983   2.647   1.488   5.150 -0.8135  0.4300  0.9894
 1708Sol     HW 9984   2.697   1.475   5.070 -1.9557  0.1622  0.3049
 1708Sol     HW 9985   2.602   1.405   5.165 -2.3703  1.1990  0.6573
 1708Sol     MW 9986   2.647   1.480   5.145  1.1483  0.0738  0.9956
 1709Sol     OW 9987   1.599   0.554   5.072 -0.4367 -0.3540 -0.3725
 1709Sol     HW 9988   1.584   0.483   5.135 -1.1758  0.0642 -0.0683
 1709Sol     HW 9989   1.692   0.575   5.081 -0.1654 -1.4121 -0.6022
 1709Sol     MW 9990   1.606   0.550   5.078 -0.8761  0.1809 -0.0617
 1710Sol     OW 9991   1.749   2.421   9.125  0.4168 -0.6593 -0.2065
 1710Sol     HW 9992   1.749   2.397   9.033 -0.0933  1.9918 -0.9440
 1710Sol     HW 9993   1.679   2.368   9.164  0.2317 -1.3411 -1.4584
 1710Sol     MW 9994   1.743   2.414   9.121  0.2199  0.3451  0.2151
 1711Sol     OW 9995   0.650   0.338   8.571 -0.6736  0.0642 -0.0178
 1711Sol     HW 9996   0.706   0.387   8.630  0.4285  0.5903 -1.4908
 1711Sol     HW 9997   0.575   0.396   8.554 -0.2965  0.4833 -0.2523
 1711Sol     MW 9998   0.648   0.347   8.574 -0.3134  0.6109 -0.3003
 1712Sol     OW 9999   0.822   0.989   4.484 -0.1597  0.4110  0.2200
 1712Sol     HW10000   0.842   1.083   4.481 -0.4324  0.4832  0.6150
 1712Sol     HW10001   0.750   0.982   4.547 -1.0551  0.0953 -0.8339
 1712Sol     MW10002   0.817   0.997   4.489  0.6950 -0.4672  0.6695
 1713Sol     OW10003   0.395   1.070   3.458  0.0879 -0.2097 -0.1523
 1713Sol     HW10004   0.459   1.106   3.519  0.0958 -1.2814  0.4750
 1713Sol     HW10005   0.447   1.025   3.392  0.0572  0.5787 -0.7306
 1713Sol     MW10006   0.405   1.070   3.458 -0.5561 -0.4550  0.0302
 1714Sol     OW10007   1.524   1.240   2.393  0.3082  0.8600 -0.0029
 1714Sol     HW10008   1.438   1.271   2.366 -0.9856 -0.9358  1.9252
 1714Sol     HW10009   1.555   1.305   2.456 -0.0104  1.0635 -0.0570
 1714Sol     MW10010   1.519   1.248   2.396 -0.8502 -0.3829 -0.5159
 1715Sol     OW10011   3.208   0.445   2.795 -0.1794 -0.0564 -0.9506
 1715Sol     HW10012   3.301   0.428   2.800 -0.1531  0.4692  0.7759
 1715Sol     HW10013   3.174   0.419   2.881 -1.8992 -1.8030 -2.1119
 1715Sol     MW10014   3.213   0.441   2.803 -0.5167  0.1618  0.7518
 1716Sol     OW10015   2.828   0.690   1.805  0.1812  0.2973 -0.1184
 1716Sol     HW10016   2.792   0.653   1.725 -1.6186 -0.6955  1.1029
 1716Sol     HW10017   2.918   0.657   1.809  0.4462  0.7646 -1.9545
 1716Sol     MW10018   2.833   0.684   1.798 -0.7844  0.1758  0.5524
 1717Sol     OW10019   0.415   3.417   3.738 -0.2024  0.5545  0.3190
 1717Sol     HW10020   0.405   3.507   3.770  0.4412  0.0524  1.9953
 1717Sol     HW10021   0.494   3.418   3.684  1.3250  0.4320  2.5164
 1717Sol     MW10022   0.421   3.425   3.736  0.0266  0.2131  0.2741
 1718Sol     OW10023   2.187   0.460   4.549  0.3341 -0.2271  0.2140
 1718Sol     HW10024   2.275   0.478   4.582  0.0708  0.4138  0.5699
 1718Sol     HW10025   2.177   0.365   4.558  0.8803 -0.2620  0.4392
 1718Sol     MW10026   2.194   0.453   4.553  0.1963  0.3921  0.3850
 1719Sol     OW10027   1.565   1.539   3.809 -0.1010 -0.2418  0.0559
 1719Sol     HW10028   1.491   1.563   3.754  1.1865 -0.2054 -1.7011
 1719Sol     HW10029   1.585   1.448   3.785  0.8305 -0.0418  0.0601
 1719Sol     MW10030   1.560   1.533   3.802  0.3333 -0.4418  0.1172
 1720Sol     OW10031   2.555   1.250   6.454 -0.1555  0.0825 -0.5619
 1720Sol     HW10032   2.637   1.265   6.406  0.4768 -0.6560  0.2567
 1720Sol     HW10033   2.554   1.155   6.469 -0.2619  0.3128  1.0015
 1720Sol     MW10034   2.562   1.243   6.451  0.3516 -0.1154  0.1463
 1721Sol     OW10035   1.405   1.838   4.478  0.3619 -0.1520 -0.0810
 1721Sol     HW10036   1.451   1.864   4.399 -0.7161 -0.7019 -0.8955
 1721Sol     HW10037   1.356   1.760   4.453  1.5002 -1.4445  1.6326
 1721Sol     MW10038   1.404   1.834   4.469 -0.3014  0.4989 -0.1756
 1722Sol     OW10039   0.440   0.296   3.113 -0.1247 -0.0134 -0.9488
 1722Sol     HW10040   0.427   0.329   3.202  0.8502 -1.2492 -0.3201
 1722Sol     HW10041   0.450   0.374   3.059 -0.0959  0.7366  0.1313
 1722Sol     MW10042   0.440   0.306   3.116 -0.3422 -0.3310  0.0480
 1723Sol     OW10043   0.838   1.869   3.039 -0.2595 -0.2044 -0.3539
 1723Sol     HW10044   0.775   1.802   3.014  2.0544 -1.4154 -3.2781
 1723Sol     HW10045   0.846   1.925   2.961  0.5624  1.2793  0.7660
 1723Sol     MW10046   0.833   1.868   3.030 -0.3788 -0.5235  0.2194
 1724Sol     OW10047   1.869   2.233   6.889  0.1425  0.1215  0.4589
 1724Sol     HW10048   1.896   2.307   6.944 -1.5650  0.9600  0.2150
 1724Sol     HW10049   1.786   2.261   6.851  0.1998 -1.3501 -0.8018
 1724Sol     MW10050   1.864   2.242   6.890 -0.0050 -0.1288 -0.2688
 1725Sol     OW10051   0.271   2.702   2.401  0.2153 -0.0617  0.2437
 1725Sol     HW10052   0.355   2.687   2.444  0.1501 -0.6625  0.1719
 1725Sol     HW10053   0.246   2.616   2.367 -1.8299 -0.5405  2.7642
 1725Sol     MW10054   0.276   2.693   2.402 -0.2791  0.2408  0.4206
 1726Sol     OW10055   1.556   1.142   5.453  0.4835 -0.2162  0.1108
 1726Sol     HW10056   1.531   1.050   5.463  0.5370 -0.2344  0.0805
 1726Sol     HW10057   1.652   1.141   5.454  0.5045 -0.2885 -1.0132
 1726Sol     MW10058   1.563   1.134   5.454 -0.3859  0.0349  0.0766
 1727Sol     OW10059   2.452   0.387   9.607  0.2141 -0.0349  0.1063
 1727Sol     HW10060   2.493   0.435   9.679 -1.4302  1.9321 -0.2501
 1727Sol     HW10061   2.480   0.433   9.528  0.2702 -0.8956 -0.3777
 1727Sol     MW10062   2.458   0.395   9.607 -0.3946  0.4370  0.1613
 1728Sol     OW10063   1.185   2.294   9.259 -0.6100  0.3697  0.1398
 1728Sol     HW10064   1.199   2.208   9.298 -0.2338  1.0361  1.4991
 1728Sol     HW10065   1.245   2.352   9.306 -0.3854  1.2619 -1.2062
 1728Sol     MW10066   1.192   2.292   9.267 -0.1121 -0.2029 -0.3134
 1729Sol     OW10067   2.501   2.995   6.067  0.0269  0.4069 -0.2219
 1729Sol     HW10068   2.583   2.977   6.113  0.5863 -0.0879 -1.4075
 1729Sol     HW10069   2.528   3.032   5.983 -0.9233 -0.9022 -1.1182
 1729Sol     MW10070   2.511   2.997   6.064  0.0274  0.0484 -0.3192
 1730Sol     OW10071   0.724   0.436   2.965 -0.3902  0.7373 -0.1643
 1730Sol     HW10072   0.635   0.471   2.967 -0.4335  0.5803  1.0548
 1730Sol     HW10073   0.767   0.482   2.892 -2.0874 -0.7014 -2.1552
 1730Sol     MW10074   0.720   0.443   2.958 -0.2511  0.5241 -0.3652
 1731Sol     OW10075   2.659   2.805   1.925  0.0564  0.3051 -0.3198
 1731Sol     HW10076   2.650   2.848   2.010  0.0005  0.4319 -0.3889
 1731Sol     HW10077   2.739   2.754   1.932 -0.3888 -0.3433  0.0968
 1731Sol     MW10078   2.665   2.804   1.933  0.3222  0.1401 -0.3331
 1732Sol     OW10079   2.805   1.631   2.087 -0.4320 -0.3930  0.2856
 1732Sol     HW10080   2.719   1.644   2.047  0.5772  0.0413 -1.8082
 1732Sol     HW10081   2.836   1.547   2.053 -0.7319 -1.3905  2.3832
 1732Sol     MW10082   2.800   1.625   2.081 -0.3893 -0.0742 -0.2412
 1733Sol     OW10083   2.406   2.144   5.675  0.3615 -0.3290  0.0106
 1733Sol     HW10084   2.449   2.106   5.598 -3.1616 -0.0858 -2.2199
 1733Sol     HW10085   2.396   2.071   5.736  1.8669 -0.8724 -0.3807
 1733Sol     MW10086   2.409   2.134   5.673  0.1829  0.1368  0.0333
 1734Sol     OW10087   2.089   2.710   3.336 -0.9340  0.3550 -0.0178
 1734Sol     HW10088   2.065   2.651   3.408 -0.1781  0.1903  0.1071
 1734Sol     HW10089   2.023   2.695   3.269 -0.4599 -1.0119 -0.1963
 1734Sol     MW10090   2.081   2.704   3.337  0.0791  0.0696 -0.3379
 1735Sol     OW10091   1.095   2.181   4.618  0.2609 -0.1251  0.6118
 1735Sol     HW10092   1.078   2.241   4.690  2.4682 -0.7090  1.6419
 1735Sol     HW10093   1.183   2.203   4.589 -0.5706  0.0832 -1.9252
 1735Sol     MW10094   1.101   2.189   4.622 -0.3768  0.3379  0.5830
 1736Sol     OW10095   1.328   3.012   4.937 -0.8074 -0.3330 -0.3053
 1736Sol     HW10096   1.372   3.096   4.922  0.1085 -0.1806  2.8328
 1736Sol     HW10097   1.395   2.946   4.917 -0.9177 -0.2767 -0.8774
 1736Sol     MW10098   1.338   3.013   4.933  0.3027  0.0431  0.1068
 1737Sol     OW10099   2.610   2.454   3.759  0.2776  0.2699 -0.3881
 1737Sol     HW10100   2.597   2.470   3.666 -1.5904 -0.1281 -0.2215
 1737Sol     HW10101   2.529   2.486   3.800  0.9465  0.1386  1.0599
 1737Sol     MW10102   2.601   2.459   3.755  0.0471 -0.4376  0.0465
 1738Sol     OW10103   0.775   3.089   2.689 -0.1741 -0.0205  0.1409
 1738Sol     HW10104   0.756   2.996   2.692 -0.2066  0.0017  0.6840
 1738Sol     HW10105   0.862   3.095   2.650 -0.1589 -0.2808  0.1346
 1738Sol     MW10106   0.781   3.082   2.686 -0.1488  0.1152  0.4210
 1739Sol     OW10107   0.820   0.694   3.569  0.1860 -0.8382 -0.2936
 1739Sol     HW10108   0.768   0.748   3.628  1.8290 -0.4023  0.7936
 1739Sol     HW10109   0.763   0.679   3.493 -0.5954  1.6733 -0.2248
 1739Sol     MW10110   0.810   0.697   3.568 -0.2830  0.5263  0.0935
 1740Sol     OW10111   1.912   2.986   7.053  0.0410 -0.0679  0.2904
 1740Sol     HW10112   1.923   3.080   7.062 -0.6799  0.0766 -0.2258
 1740Sol     HW10113   1.993   2.956   7.012 -0.2218  0.5166 -0.6873
 1740Sol     MW10114   1.920   2.992   7.050 -0.0597 -0.4273 -0.5439
 1741Sol     OW10115   0.780   3.413   9.308 -0.1532  0.4041  0.0423
 1741Sol     HW10116   0.782   3.371   9.393  1.4030  0.0403 -0.1597
 1741Sol     HW10117   0.725   3.355   9.254 -2.2368  1.3178  1.1148
 1741Sol     MW10118   0.775   3.404   9.310 -0.0158 -0.3239  1.1267
 1742Sol     OW10119   1.714   3.175   2.270  0.6747  0.0961  0.2475
 1742Sol     HW10120   1.775   3.103   2.261  1.4016  0.8220 -0.7104
 1742Sol     HW10121   1.769   3.253   2.277 -0.1197  0.7093 -0.1916
 1742Sol     MW10122   1.724   3.176   2.270 -0.1866  0.3874 -0.0986
 1743Sol     OW10123   2.939   1.846   3.029 -0.1356  0.1791 -0.6883
 1743Sol     HW10124   2.991   1.918   3.064 -1.3420 -0.6098  2.9586
 1743Sol     HW10125   3.003   1.781   3.001  0.9186  1.8635 -2.3248
 1743Sol     MW10126   2.949   1.847   3.030  0.4568  0.0731 -0.5924
 1744Sol     OW10127   2.988   0.530   8.530  0.5935 -0.2969 -0.9368
 1744Sol     HW10128   2.943   0.600   8.578  1.6017  0.7494 -1.4969
 1744Sol     HW10129   2.934   0.452   8.546 -0.5678  0.6033 -0.3384
 1744Sol     MW10130   2.979   0.529   8.536  0.2853  0.2406 -0.3535
 1745Sol     OW10131   0.853   0.906   1.867 -0.4088 -0.0309  0.3021
 1745Sol     HW10132   0.909   0.836   1.832  0.3310  0.5124  0.3718
 1745Sol     HW10133   0.881   0.984   1.819 -2.9710 -0.2390 -1.5923
 1745Sol     MW10134   0.861   0.907   1.859  0.3294 -0.0798  0.0609
 1746Sol     OW10135   0.023   1.661   9.287 -0.5591 -0.2205  0.2088
 1746Sol     HW10136  -0.019   1.699   9.365  0.7892  0.4035  0.6520
 1746Sol     HW10137   0.090   1.602   9.322 -0.8750 -0.9859 -0.4792
 1746Sol     MW10138   0.026   1.659   9.297  0.7276 -0.3423 -0.5397
 1747Sol     OW10139   0.923   2.804   3.024 -0.3389 -0.2729  0.0389
 1747Sol     HW10140   0.856   2.856   2.980 -0.4108 -0.3195  0.0946
 1747Sol     HW10141   0.898   2.713   3.008  0.2657 -0.2950 -0.7959
 1747Sol     MW10142   0.915   2.801   3.019 -0.1863 -0.0672  0.2250
 1748Sol     OW10143   0.119   3.237   7.638  0.0689  0.1338 -0.1116
 1748Sol     HW10144   0.076   3.256   7.722  0.0545  1.0683 -0.3185
 1748Sol     HW10145   0.079   3.300   7.577 -2.2101 -2.5950 -1.5418
 1748Sol     MW10146   0.111   3.244   7.641 -1.4401  0.0154 -0.6483
 1749Sol     OW10147   2.449   2.501   2.145  0.0695  0.2384 -0.4292
 1749Sol     HW10148   2.538   2.471   2.163 -1.1878 -2.4554  1.6020
 1749Sol     HW10149   2.416   2.530   2.230 -1.7317 -0.8342 -0.7452
 1749Sol     MW10150   2.454   2.501   2.154 -0.0821 -0.2150 -0.1858
 1750Sol     OW10151   2.805   2.289   1.971  0.2753  0.0067 -0.1709
 1750Sol     HW10152   2.777   2.342   1.896  0.8167 -0.1678 -0.5034
 1750Sol     HW10153   2.778   2.200   1.948  1.4707 -0.2424 -0.7075
 1750Sol     MW10154   2.800   2.286   1.962  0.0705 -0.2854  0.2135
 1751Sol     OW10155   2.980   1.477   3.646 -0.4852  0.0187 -0.0498
 1751Sol     HW10156   3.011   1.402   3.596 -0.8599  0.7330 -1.3632
 1751Sol     HW10157   2.939   1.534   3.581 -1.0710  0.9044  1.0832
 1751Sol     MW10158   2.979   1.475   3.636 -0.4955  0.1179 -0.2337
 1752Sol     OW10159   3.298   2.774   4.593 -0.0836  0.1881 -0.1689
 1752Sol     HW10160   3.260   2.833   4.658 -0.1953  1.0032 -0.9679
 1752Sol     HW10161   3.392   2.779   4.608  0.1410  2.9024 -2.1803
 1752Sol     MW10162   3.303   2.780   4.601  0.0179 -0.2451  0.1257
 1753Sol     OW10163   3.272   3.386   4.507  0.7522 -0.0602  0.0197
 1753Sol     HW10164   3.194   3.333   4.488 -0.9159  2.0640  0.7177
 1753Sol     HW10165   3.323   3.385   4.426 -1.4645  0.9298 -1.4298
 1753Sol     MW10166   3.269   3.381   4.498  0.0949 -0.4656 -0.3221
 1754Sol     OW10167   1.847   2.435   7.401 -0.2176  0.2751  0.4852
 1754Sol     HW10168   1.831   2.527   7.384  1.2238  0.3108 -0.7799
 1754Sol     HW10169   1.823   2.423   7.493 -0.1652  1.9609  0.7337
 1754Sol     MW10170   1.844   2.442   7.408  0.3419 -0.0057 -0.1422
 1755Sol     OW10171   2.732   2.043   9.099  0.3774 -0.4106 -0.0122
 1755Sol     HW10172   2.638   2.041   9.080  0.1421  0.3140  1.1003
 1755Sol     HW10173   2.767   2.110   9.041  0.2033 -0.6330 -0.3789
 1755Sol     MW10174   2.726   2.049   9.092 -0.1830  0.3667 -0.0606
 1756Sol     OW10175   0.043   0.869   7.771 -0.1907 -0.0402 -0.5016
 1756Sol     HW10176   0.062   0.795   7.714  0.6606 -0.9782  0.9766
 1756Sol     HW10177  -0.049   0.890   7.753 -0.2105 -0.9267 -1.4986
 1756Sol     MW10178   0.036   0.864   7.764  0.1490 -0.3061  0.1426
 1757Sol     OW10179   0.568   0.186   3.445  0.4710  0.0205  0.6661
 1757Sol     HW10180   0.606   0.136   3.372  0.0496 -1.4189  1.4267
 1757Sol     HW10181   0.608   0.148   3.523 -0.3244  0.4732  1.2962
 1757Sol     MW10182   0.575   0.178   3.445 -0.7137  0.6345  0.4562
 1758Sol     OW10183   0.895   1.173   5.785 -1.2466  0.0368  0.0140
 1758Sol     HW10184   0.912   1.186   5.878 -1.4064 -2.1648  0.3721
 1758Sol     HW10185   0.806   1.205   5.772 -0.3358  2.6855  0.0826
 1758Sol     MW10186   0.888   1.177   5.792  0.2409  0.4806  0.4178
 1759Sol     OW10187   1.414   3.284   2.574 -0.0822  0.1782 -0.2188
 1759Sol     HW10188   1.466   3.213   2.611  1.0489 -0.0152 -2.1179
 1759Sol     HW10189   1.425   3.275   2.479 -2.6875  0.8056 -0.6171
 1759Sol     MW10190   1.419   3.277   2.569 -0.0528  0.0397 -0.3117
 1760Sol     OW10191   1.744   3.304   5.666 -0.0467 -0.2752 -0.2764
 1760Sol     HW10192   1.747   3.370   5.596 -0.3003 -0.9403 -0.9214
 1760Sol     HW10193   1.684   3.237   5.633  1.2646 -1.5017 -0.2077
 1760Sol     MW10194   1.738   3.304   5.657 -0.1611 -0.2897  0.4110
 1761Sol     OW10195   2.968   3.225   7.249  0.4839  0.0898 -0.1031
 1761Sol     HW10196   2.976   3.156   7.184  1.4898  1.5652 -1.5900
 1761Sol     HW10197   2.877   3.255   7.242  0.2995 -0.4635 -0.0783
 1761Sol     MW10198   2.961   3.222   7.243 -0.1964  0.4445 -0.4232
 1762Sol     OW10199   2.290   1.028   6.616 -0.0087 -0.2861 -0.0378
 1762Sol     HW10200   2.383   1.031   6.640  0.4036 -0.1204 -1.5404
 1762Sol     HW10201   2.245   1.070   6.689  1.0130 -1.1116  1.0880
 1762Sol     MW10202   2.294   1.032   6.624 -0.1380  0.7978  0.0517
 1763Sol     OW10203   0.685   0.840   9.515  0.1002  0.0097  0.3026
 1763Sol     HW10204   0.734   0.805   9.590  0.9063  0.3850 -0.0393
 1763Sol     HW10205   0.649   0.923   9.546 -0.4477 -0.3460  0.6081
 1763Sol     MW10206   0.686   0.845   9.524 -0.3343  0.2303  0.0179
 1764Sol     OW10207   3.216   3.008   6.620 -0.6528  0.2472 -0.3222
 1764Sol     HW10208   3.284   3.033   6.558 -0.8796 -2.0437 -1.5490
 1764Sol     HW10209   3.155   3.082   6.619  0.3192  1.0494 -1.4066
 1764Sol     MW10210   3.216   3.017   6.614  0.4508  0.2588 -0.0485
 1765Sol     OW10211   1.680   3.398   9.583 -0.2652  0.2023 -0.1186
 1765Sol     HW10212   1.634   3.345   9.648  0.3491 -1.4389 -0.9918
 1765Sol     HW10213   1.757   3.346   9.560  0.2841  1.4216 -1.1043
 1765Sol     MW10214   1.683   3.389   9.587  0.0125  0.0818 -0.6078
 1766Sol     OW10215   1.915   0.714   1.829  0.6289 -0.1383  0.5353
 1766Sol     HW10216   1.890   0.753   1.913  0.1985 -1.5459  1.0873
 1766Sol     HW10217   1.845   0.740   1.769  0.0598 -0.5115  1.0313
 1766Sol     MW10218   1.906   0.720   1.831  0.2829  0.1756  0.4255
 1767Sol     OW10219   2.325   3.065   5.703 -0.2110 -0.1371  0.0339
 1767Sol     HW10220   2.287   3.019   5.628  0.1990 -0.9803  0.3373
 1767Sol     HW10221   2.270   3.143   5.713  0.0433  0.2447 -1.4554
 1767Sol     MW10222   2.316   3.068   5.697  0.1883  0.5531 -0.4798
 1768Sol     OW10223   1.542   1.567   7.191  0.1074 -0.7569  0.3011
 1768Sol     HW10224   1.623   1.597   7.234 -0.0315 -0.3913  0.3106
 1768Sol     HW10225   1.472   1.605   7.244 -0.0652  0.0937 -0.5326
 1768Sol     MW10226   1.543   1.573   7.200  0.6274  0.4779  0.3499
 1769Sol     OW10227   2.734   1.685   6.317 -0.1311 -0.6260  0.4458
 1769Sol     HW10228   2.724   1.730   6.401  0.1984 -0.5729  0.4566
 1769Sol     HW10229   2.647   1.691   6.277  0.0939  0.6604  0.1283
 1769Sol     MW10230   2.725   1.690   6.321 -0.4088  0.2741  0.4907
 1770Sol     OW10231   1.120   1.128   7.116  0.3242 -0.4097 -0.1004
 1770Sol     HW10232   1.058   1.102   7.048 -0.0871  0.7720 -0.1933
 1770Sol     HW10233   1.199   1.153   7.068  0.0538  0.3685 -0.1451
 1770Sol     MW10234   1.121   1.128   7.106  0.4281  0.3779  0.2642
 1771Sol     OW10235   0.203   2.381   6.039  0.1237  1.1157 -0.0723
 1771Sol     HW10236   0.211   2.357   6.131 -1.6880 -1.8277 -0.6299
 1771Sol     HW10237   0.264   2.324   5.993 -0.6059  0.9793 -0.9008
 1771Sol     MW10238   0.209   2.374   6.043  0.2573  0.4931  0.0517
 1772Sol     OW10239   1.301   1.955   7.225 -0.7263 -0.4073  0.0196
 1772Sol     HW10240   1.307   2.051   7.226 -0.9900 -0.3711 -1.0986
 1772Sol     HW10241   1.251   1.935   7.145 -2.3011 -1.3860  1.2325
 1772Sol     MW10242   1.297   1.962   7.218  0.0877  0.5101  0.7642
 1773Sol     OW10243   2.772   2.505   1.466  0.0723  0.6228  0.1552
 1773Sol     HW10244   2.788   2.500   1.371 -0.8824  1.0198 -0.0458
 1773Sol     HW10245   2.825   2.579   1.495 -0.0879  0.8745 -0.1838
 1773Sol     MW10246   2.778   2.512   1.460  0.1933 -0.0391  0.1709
 1774Sol     OW10247   0.583   0.306   4.421 -0.3799 -0.3657  0.3885
 1774Sol     HW10248   0.605   0.384   4.473  1.2943 -1.1701  0.9068
 1774Sol     HW10249   0.659   0.249   4.430 -0.9090 -1.3762 -1.3297
 1774Sol     MW10250   0.592   0.308   4.426 -0.0421 -0.5221  0.6303
 1775Sol     OW10251   2.023   3.426   2.938  0.1686 -0.2836 -0.3818
 1775Sol     HW10252   2.100   3.370   2.927  1.0771  0.8090  0.2560
 1775Sol     HW10253   2.049   3.489   3.006 -1.6552 -0.5389  0.5655
 1775Sol     MW10254   2.033   3.427   2.943  0.4374  0.7776 -0.2918
 1776Sol     OW10255   0.282   2.060   3.950 -0.7679  0.4084 -0.6312
 1776Sol     HW10256   0.319   2.097   3.870 -1.2809  1.1900 -0.5187
 1776Sol     HW10257   0.274   2.135   4.009 -0.0028 -0.2326  0.3036
 1776Sol     MW10258   0.285   2.070   3.948  0.0315 -0.0901 -0.0465
 1777Sol     OW10259   1.877   0.817   8.657 -0.1012 -0.0496 -0.2593
 1777Sol     HW10260   1.823   0.753   8.610  1.4767 -1.0471 -0.7626
 1777Sol     HW10261   1.920   0.868   8.589  1.1409 -0.6015  0.0885
 1777Sol     MW10262   1.876   0.815   8.647  0.2149  0.2690 -0.7671
 1778Sol     OW10263   0.195   2.059   1.805  0.2350 -0.5524 -0.2673
 1778Sol     HW10264   0.180   2.070   1.711  1.5026  0.7367 -0.3440
 1778Sol     HW10265   0.166   2.142   1.843  1.0782 -0.5064  0.2968
 1778Sol     MW10266   0.191   2.068   1.800 -0.2106 -0.2311  0.2376
 1779Sol     OW10267   3.058   3.089   9.822  0.0660  0.5211  0.7649
 1779Sol     HW10268   3.032   3.144   9.748 -0.9550 -0.3687  0.4467
 1779Sol     HW10269   3.151   3.073   9.808 -0.3302 -0.4553 -0.8863
 1779Sol     MW10270   3.064   3.093   9.814  0.5850  0.0566  0.1137
 1780Sol     OW10271   2.729   2.840   8.967  0.1487 -0.2646  0.2703
 1780Sol     HW10272   2.702   2.845   8.875  1.5549 -2.2528 -0.2618
 1780Sol     HW10273   2.648   2.820   9.014 -0.4687  0.1898 -0.5805
 1780Sol     MW10274   2.719   2.839   8.963  0.0155 -0.2550 -0.3125
 1781Sol     OW10275   3.072   0.664   3.815  0.5020 -0.1015  0.6083
 1781Sol     HW10276   2.985   0.703   3.807  0.0403 -1.3544 -0.6509
 1781Sol     HW10277   3.127   0.735   3.848 -0.7376  1.0474  0.2380
 1781Sol     MW10278   3.069   0.674   3.818  0.2963  0.1144 -0.0837
 1782Sol     OW10279   1.920   1.029   9.633 -0.1397 -0.4182  0.8457
 1782Sol     HW10280   1.931   0.966   9.561 -2.3116  0.7044 -0.4993
 1782Sol     HW10281   1.831   1.015   9.664 -0.1866  1.0866  1.4157
 1782Sol     MW10282   1.913   1.022   9.629 -0.1218  0.0638  0.6088
 1783Sol     OW10283   1.518   1.430   9.703  0.5219 -0.2831 -0.0142
 1783Sol     HW10284   1.493   1.409   9.793 -0.9921  0.1501 -0.3275
 1783Sol     HW10285   1.444   1.401   9.650  2.0174 -1.8871 -1.2793
 1783Sol     MW10286   1.509   1.425   9.706 -0.0667 -0.3040 -0.4544
 1784Sol     OW10287   2.853   1.768   3.762 -0.2056 -0.2953  0.4317
 1784Sol     HW10288   2.939   1.748   3.800 -0.0164  3.2781  2.0626
 1784Sol     HW10289   2.791   1.722   3.817  0.5034 -0.4625  1.0996
 1784Sol     MW10290   2.855   1.762   3.770 -0.3235 -0.0585  0.2094
 1785Sol     OW10291   1.865   2.003   6.310  0.5938 -0.0863  0.3380
 1785Sol     HW10292   1.849   1.986   6.217  0.7250  0.4196  0.2230
 1785Sol     HW10293   1.781   2.033   6.345  0.8272  0.8090  0.1345
 1785Sol     MW10294   1.856   2.004   6.305 -0.0367 -0.2545 -0.0368
 1786Sol     OW10295   2.101   1.316   2.937  0.1521  0.2475  0.1950
 1786Sol     HW10296   2.068   1.234   2.900  0.5481  0.0581  0.2650
 1786Sol     HW10297   2.037   1.382   2.910 -0.6662 -0.2358  0.9307
 1786Sol     MW10298   2.092   1.314   2.931 -0.0482 -0.0116  0.4637
 1787Sol     OW10299   1.134   0.434   7.048 -0.0210  0.3857 -0.4851
 1787Sol     HW10300   1.218   0.397   7.023 -0.1656 -0.3304  0.0418
 1787Sol     HW10301   1.127   0.416   7.142 -0.9210  0.0989 -0.5964
 1787Sol     MW10302   1.141   0.429   7.055 -0.0949 -0.0448  0.1784
 1788Sol     OW10303   2.359   1.271   3.653 -0.1772 -0.1157 -0.1562
 1788Sol     HW10304   2.362   1.274   3.558 -1.9585  0.7958 -0.2063
 1788Sol     HW10305   2.331   1.359   3.679 -0.8109 -0.6891  1.1403
 1788Sol     MW10306   2.357   1.279   3.647 -0.1101  0.5574 -0.1034
 1789Sol     OW10307   3.184   2.075   8.993 -0.0562  0.1785 -0.1542
 1789Sol     HW10308   3.134   2.136   9.046  0.7030  0.6467  0.0318
 1789Sol     HW10309   3.246   2.036   9.055 -1.2634 -1.6017 -0.0228
 1789Sol     MW10310   3.185   2.077   9.004 -0.3561 -0.5422  0.8275
 1790Sol     OW10311   2.885   2.537   5.817  0.0245  0.1528 -0.3117
 1790Sol     HW10312   2.868   2.632   5.822  2.3007  0.5731  0.1309
 1790Sol     HW10313   2.862   2.504   5.904 -0.5804  0.3402 -0.4010
 1790Sol     MW10314   2.881   2.543   5.826 -0.8109  0.1691  0.1053
 1791Sol     OW10315   2.338   0.196   1.956  0.8861 -0.2841 -0.2614
 1791Sol     HW10316   2.377   0.214   1.870  1.6794 -1.1625 -0.1018
 1791Sol     HW10317   2.351   0.277   2.006 -1.5573  1.0065 -1.6684
 1791Sol     MW10318   2.343   0.205   1.953  0.4844 -0.4155  0.0407
 1792Sol     OW10319   3.239   1.015   7.213 -0.4347 -0.3325  1.1987
 1792Sol     HW10320   3.176   0.954   7.175  0.2746 -0.2697 -0.1142
 1792Sol     HW10321   3.272   0.971   7.292  0.4233 -1.8650  0.0114
 1792Sol     MW10322   3.237   1.006   7.217  0.2405 -0.2771 -0.1196
 1793Sol     OW10323   2.048   1.419   3.178 -0.0713 -0.4967 -0.4986
 1793Sol     HW10324   2.064   1.366   3.099  1.6205 -2.0527  0.8394
 1793Sol     HW10325   2.122   1.480   3.181  0.7422 -1.5075  0.7091
 1793Sol     MW10326   2.056   1.419   3.171 -0.1213 -0.5480  0.1531
 1794Sol     OW10327   0.527   3.123   5.682  0.6355 -0.4820 -0.3008
 1794Sol     HW10328   0.519   3.140   5.775 -0.1959 -1.3048 -0.2192
 1794Sol     HW10329   0.481   3.196   5.640 -0.2099 -0.8636 -0.0334
 1794Sol     MW10330   0.522   3.131   5.686  0.0809  0.3332 -0.0548
 1795Sol     OW10331   0.012   1.762   4.430 -0.2832 -0.0833 -0.2153
 1795Sol     HW10332   0.073   1.689   4.430 -2.0986 -1.6704 -2.3488
 1795Sol     HW10333   0.033   1.812   4.509  2.0290 -2.0167  0.4178
 1795Sol     MW10334   0.019   1.760   4.437  0.5059  0.3467  0.2129
 1796Sol     OW10335   3.018   2.985   3.630  0.4423  0.3985  0.0986
 1796Sol     HW10336   2.944   2.961   3.686  0.8314  0.7772  0.7915
 1796Sol     HW10337   2.991   2.960   3.542 -0.6499  0.8402  0.2968
 1796Sol     MW10338   3.009   2.981   3.627 -0.2310 -0.9184 -0.3596
 1797Sol     OW10339   2.963   1.147   5.626  0.0562 -0.6081  0.2100
 1797Sol     HW10340   3.001   1.085   5.564  1.6016  2.2847 -1.7950
 1797Sol     HW10341   3.016   1.137   5.705  1.7661 -0.1993 -0.8732
 1797Sol     MW10342   2.971   1.140   5.627 -0.1183  0.4209 -0.7973
 1798Sol     OW10343   0.386   3.059   4.548 -0.1437  0.0557  0.0508
 1798Sol     HW10344   0.393   3.069   4.643 -0.7173  0.1309  0.0873
 1798Sol     HW10345   0.302   3.100   4.525 -0.9194 -1.6468 -0.2329
 1798Sol     MW10346   0.379   3.063   4.554  0.2991  0.1284  0.0283
 1799Sol     OW10347   0.994   1.088   6.660  0.6617  0.9309 -0.2933
 1799Sol     HW10348   1.014   1.038   6.582 -1.8348 -0.0724 -0.3299
 1799Sol     HW10349   0.930   1.153   6.632  0.8846  1.5592  0.6068
 1799Sol     MW10350   0.990   1.089   6.651  0.3455 -0.1644 -0.0169
 1800Sol     OW10351   2.952   2.013   1.853 -0.0491 -0.2223  0.1893
 1800Sol     HW10352   2.859   1.993   1.844 -0.2898  0.9734 -0.0358
 1800Sol     HW10353   2.965   2.094   1.805  1.4356 -1.1759 -1.1065
 1800Sol     MW10354   2.945   2.018   1.848 -0.1615  0.5312  0.7209
 1801Sol     OW10355   0.790   1.948   9.387 -0.0146  0.2986  0.2471
 1801Sol     HW10356   0.714   1.905   9.426  0.1796  0.1342  0.4476
 1801Sol     HW10357   0.754   2.022   9.338 -0.4519 -0.7684 -1.0504
 1801Sol     MW10358   0.780   1.951   9.386 -0.6346  0.5712  0.7850
 1802Sol     OW10359   2.711   2.392   5.668  1.0705  0.3385  0.2138
 1802Sol     HW10360   2.792   2.421   5.711  1.4321  3.5653 -2.4056
 1802Sol     HW10361   2.668   2.473   5.642 -3.8442 -1.2644  2.8642
 1802Sol     MW10362   2.715   2.402   5.670 -0.1058  0.8815  0.2980
 1803Sol     OW10363   3.178   2.682   8.029 -0.2512 -0.6933  0.2660
 1803Sol     HW10364   3.126   2.734   7.968  0.1053 -1.1968 -0.4668
 1803Sol     HW10365   3.253   2.738   8.049  0.4895 -1.1781 -1.0621
 1803Sol     MW10366   3.180   2.692   8.025  0.1379  0.3365  0.0623
 1804Sol     OW10367   0.982   1.214   8.124 -0.3515 -0.1258 -0.3948
 1804Sol     HW10368   0.894   1.229   8.091 -0.7734 -1.2007  0.1774
 1804Sol     HW10369   1.021   1.153   8.061 -0.8294 -1.4338  0.5360
 1804Sol     MW10370   0.978   1.210   8.116 -0.0877 -0.1811 -0.4191
 1805Sol     OW10371   2.540   0.874   5.710  0.4502 -0.1281  0.1836
 1805Sol     HW10372   2.594   0.831   5.777  1.6735  1.0385 -0.0233
 1805Sol     HW10373   2.600   0.935   5.667 -1.0334  1.1689 -0.0938
 1805Sol     MW10374   2.550   0.875   5.713 -0.5086  0.1076 -0.0013
 1806Sol     OW10375   0.633   0.711   3.356 -0.4218 -0.5826 -1.1428
 1806Sol     HW10376   0.692   0.691   3.285 -0.6074  1.4626 -1.9291
 1806Sol     HW10377   0.546   0.693   3.321 -0.4518 -0.5709 -1.0748
 1806Sol     MW10378   0.630   0.708   3.347  0.5347 -0.1519 -0.0558
 1807Sol     OW10379   2.814   0.276   5.678 -0.3357 -0.0957 -0.5249
 1807Sol     HW10380   2.735   0.265   5.731 -0.5299 -1.1545 -1.0168
 1807Sol     HW10381   2.800   0.220   5.602  1.2409 -0.9260 -0.2258
 1807Sol     MW10382   2.805   0.270   5.676  0.3937  0.1381  0.0877
 1808Sol     OW10383   0.283   1.343   8.971  0.1200  0.2851  0.2086
 1808Sol     HW10384   0.281   1.395   9.051 -1.4527  1.4393 -0.5299
 1808Sol     HW10385   0.280   1.252   9.000  2.6150  0.5927  1.5237
 1808Sol     MW10386   0.283   1.340   8.980 -0.6758 -0.1710 -0.0047
 1809Sol     OW10387   3.149   2.354   6.287 -0.1266 -0.3176  0.2151
 1809Sol     HW10388   3.233   2.354   6.333 -0.6875  0.4010  1.2707
 1809Sol     HW10389   3.172   2.360   6.194  1.0385 -2.5356  0.3444
 1809Sol     MW10390   3.158   2.355   6.283 -0.5502  0.0622  0.3064
 1810Sol     OW10391   2.607   3.298   6.681 -0.0112  0.0146  0.0845
 1810Sol     HW10392   2.599   3.225   6.743 -0.3595 -2.2845 -2.5597
 1810Sol     HW10393   2.519   3.334   6.676 -0.0018  0.1650  0.8479
 1810Sol     MW10394   2.598   3.294   6.686  0.7103  0.2489 -0.0676
 1811Sol     OW10395   1.035   0.014   9.228 -0.2779  0.1010 -0.2307
 1811Sol     HW10396   0.949   0.010   9.267 -0.5852  0.0676 -0.8967
 1811Sol     HW10397   1.095   0.027   9.301 -0.6937 -1.4813  0.3927
 1811Sol     MW10398   1.033   0.015   9.238 -0.1751 -0.1003 -0.6051
 1812Sol     OW10399   0.067   2.885   8.096 -0.2107 -0.1213  0.3712
 1812Sol     HW10400   0.149   2.857   8.136  0.4813  1.2377 -0.0679
 1812Sol     HW10401   0.050   2.971   8.132 -1.1289 -0.1314 -0.0120
 1812Sol     MW10402   0.073   2.890   8.103 -0.4600  0.4712  0.0829
 1813Sol     OW10403   1.350   2.790   3.072 -0.2996  0.0384  0.0214
 1813Sol     HW10404   1.381   2.785   2.982 -0.5390 -0.5416 -0.0307
 1813Sol     HW10405   1.323   2.701   3.093 -0.6511  0.2594  0.5202
 1813Sol     MW10406   1.350   2.782   3.066  0.2747  0.3421  0.1228
 1814Sol     OW10407   0.243   1.180   9.626  0.5759  0.0113  0.1026
 1814Sol     HW10408   0.215   1.218   9.709 -2.2441  1.6775 -1.5267
 1814Sol     HW10409   0.228   1.086   9.636 -1.9497  0.4419  0.7244
 1814Sol     MW10410   0.239   1.175   9.634 -0.1746  0.2555 -0.0374
 1815Sol     OW10411   1.943   0.393   2.951  0.0517 -0.4974  0.1269
 1815Sol     HW10412   1.860   0.439   2.966 -0.4045 -1.1841 -0.2713
 1815Sol     HW10413   1.950   0.386   2.856 -0.0703 -1.5843  0.1869
 1815Sol     MW10414   1.936   0.396   2.944  0.3504  0.5004  0.2692
 1816Sol     OW10415   0.280   1.994   7.561 -0.2088 -0.6118 -0.4625
 1816Sol     HW10416   0.198   2.023   7.602 -0.3900 -0.6490 -0.7917
 1816Sol     HW10417   0.301   1.911   7.604 -0.1028 -0.3733 -0.0603
 1816Sol     MW10418   0.274   1.989   7.568  0.2404  0.2680  0.2513
 1817Sol     OW10419   1.408   1.935   7.668  0.2766  0.3445 -0.0953
 1817Sol     HW10420   1.395   1.841   7.677 -0.9910  0.5633  0.5136
 1817Sol     HW10421   1.332   1.965   7.618  0.5481  1.0694 -0.0819
 1817Sol     MW10422   1.400   1.930   7.665 -0.2438 -0.0356 -0.7397
 1818Sol     OW10423   0.542   1.865   3.452 -0.0032  0.1467 -0.3019
 1818Sol     HW10424   0.592   1.925   3.398 -0.7054  0.8986 -0.1209
 1818Sol     HW10425   0.514   1.796   3.391  0.7763  0.0080 -0.5121
 1818Sol     MW10426   0.544   1.864   3.442  0.0621 -0.1868 -0.3057
 1819Sol     OW10427   0.621   0.095   6.938 -0.7652  0.1899  0.2921
 1819Sol     HW10428   0.702   0.099   6.887 -1.6491  0.6285 -1.1080
 1819Sol     HW10429   0.570   0.170   6.907 -1.7647 -0.1605  1.0730
 1819Sol     MW10430   0.624   0.102   6.930  0.0084  0.0753 -0.8506
 1820Sol     OW10431   1.111   0.064   2.024  0.0953  0.1772  0.0028
 1820Sol     HW10432   1.165   0.000   1.976  2.9612  2.1387  0.4871
 1820Sol     HW10433   1.108   0.030   2.113  1.0345  0.3227  0.1008
 1820Sol     MW10434   1.116   0.055   2.027  0.7541 -0.0575  0.1659
 1821Sol     OW10435   1.857   1.663   9.410  0.2162 -0.6607 -0.6159
 1821Sol     HW10436   1.951   1.667   9.391  0.5382  1.0081  1.1843
 1821Sol     HW10437   1.851   1.611   9.491 -0.3719 -0.3065 -0.4331
 1821Sol     MW10438   1.865   1.658   9.416 -0.1232  0.3892  0.8589
 1822Sol     OW10439   0.094   2.402   5.279 -0.1938  0.3038  0.1637
 1822Sol     HW10440   0.117   2.360   5.362 -1.1335  1.3279  0.9571
 1822Sol     HW10441   0.093   2.496   5.299 -0.9634  0.5265 -0.8609
 1822Sol     MW10442   0.096   2.407   5.288  0.3504 -0.0702  0.0777
 1823Sol     OW10443   0.535   1.114   4.172 -0.6915  0.2546 -0.7350
 1823Sol     HW10444   0.621   1.078   4.152 -0.1224  1.0414  0.2667
 1823Sol     HW10445   0.511   1.075   4.257 -1.0077  0.5820 -0.6696
 1823Sol     MW10446   0.540   1.107   4.178  0.9268  0.5175 -0.9468
 1824Sol     OW10447   3.040   0.549   6.762  0.1317 -0.3934  0.1474
 1824Sol     HW10448   3.102   0.585   6.699  0.1695 -1.1302 -0.2431
 1824Sol     HW10449   2.955   0.552   6.718 -0.0129  0.0491  0.4527
 1824Sol     MW10450   3.038   0.552   6.753 -0.5219 -0.2336  0.5832
 1825Sol     OW10451   1.324   2.250   3.423  0.3843  0.2879  0.7316
 1825Sol     HW10452   1.278   2.185   3.476 -1.3958  0.5103 -0.5112
 1825Sol     HW10453   1.302   2.334   3.465  0.5082  0.3169  0.7401
 1825Sol     MW10454   1.318   2.252   3.432  0.1136 -0.3122  0.7862
 1826Sol     OW10455   1.301   2.228   6.140  0.0325 -0.2467 -0.6601
 1826Sol     HW10456   1.313   2.162   6.208 -1.0820 -0.3051 -0.4998
 1826Sol     HW10457   1.306   2.178   6.058 -3.2844 -1.0157 -0.4880
 1826Sol     MW10458   1.302   2.217   6.139 -0.2948 -0.3039 -0.3792
 1827Sol     OW10459   1.968   0.180   3.979 -0.3282  0.0618 -0.8382
 1827Sol     HW10460   1.893   0.165   4.038  0.5206 -3.3943 -0.5142
 1827Sol     HW10461   2.030   0.231   4.032 -1.9930  2.0465 -0.7602
 1827Sol     MW10462   1.967   0.183   3.989 -0.2512  0.2328 -0.1004
 1828Sol     OW10463   0.492   2.604   7.197 -0.2776 -0.0730  0.1440
 1828Sol     HW10464   0.507   2.511   7.182  0.0082  0.1902 -1.2693
 1828Sol     HW10465   0.437   2.632   7.124  0.7254  1.1336 -0.1677
 1828Sol     MW10466   0.489   2.598   7.189  0.4324 -0.0587 -0.1043
 1829Sol     OW10467   0.798   2.253   7.254 -0.8546 -0.4303 -0.5604
 1829Sol     HW10468   0.790   2.225   7.345  0.7034  1.1432  0.0851
 1829Sol     HW10469   0.710   2.243   7.218 -1.5140 -0.9440  1.1555
 1829Sol     MW10470   0.789   2.250   7.259  0.1088 -0.5111  0.1279
 1830Sol     OW10471   0.489   1.906   4.741 -0.7053 -0.2351  0.2487
 1830Sol     HW10472   0.537   1.857   4.674 -1.7673 -0.6191 -0.2447
 1830Sol     HW10473   0.555   1.960   4.783  0.4056 -1.7100  0.4580
 1830Sol     MW10474   0.499   1.906   4.738  0.2651 -0.1516 -0.2918
 1831Sol     OW10475   0.749   1.612   8.441  0.4570  0.3799  0.2159
 1831Sol     HW10476   0.737   1.673   8.514  1.8532  1.1347 -0.1610
 1831Sol     HW10477   0.832   1.567   8.460  0.2990 -0.1821 -0.3710
 1831Sol     MW10478   0.756   1.613   8.449  0.0817  0.3009 -0.0923
 1832Sol     OW10479   2.781   3.176   4.824 -0.1827  0.1508  0.2112
 1832Sol     HW10480   2.812   3.223   4.746  1.0558  0.1330  0.6795
 1832Sol     HW10481   2.687   3.194   4.826 -0.3969 -0.5984 -1.7945
 1832Sol     MW10482   2.776   3.182   4.817  0.3975 -1.1613  0.7203
 1833Sol     OW10483   1.410   2.524   6.106 -0.5745  0.1848 -0.9355
 1833Sol     HW10484   1.370   2.515   6.019 -0.5040 -3.1517 -0.6584
 1833Sol     HW10485   1.336   2.521   6.166 -0.5022  1.2531 -0.7730
 1833Sol     MW10486   1.400   2.523   6.103 -0.3088 -0.3132 -0.0994
 1834Sol     OW10487   0.260   1.358   4.935 -0.2086  0.3252  0.3334
 1834Sol     HW10488   0.287   1.399   4.853  2.4758  0.4983  1.2422
 1834Sol     HW10489   0.199   1.290   4.910  2.0687 -0.9179 -2.0111
 1834Sol     MW10490   0.257   1.356   4.926 -0.5810  0.2680  0.0282
 1835Sol     OW10491   1.233   2.935   7.373  0.5120  0.3274 -0.2787
 1835Sol     HW10492   1.157   2.887   7.340  1.0025 -0.8815  0.3284
 1835Sol     HW10493   1.209   2.959   7.462  0.1433  1.5074 -0.6842
 1835Sol     MW10494   1.224   2.933   7.378 -0.7400 -0.6306 -0.2700
 1836Sol     OW10495   1.934   0.958   1.402 -0.4671 -0.2220 -0.1078
 1836Sol     HW10496   1.935   0.943   1.307 -1.5750 -0.7378 -0.0506
 1836Sol     HW10497   1.904   0.875   1.438 -1.4729  0.4378  0.5930
 1836Sol     MW10498   1.931   0.949   1.396  0.5620  0.4041 -0.9354
 1837Sol     OW10499   2.729   3.149   3.022  0.0177  0.4998 -0.0218
 1837Sol     HW10500   2.742   3.240   3.048 -0.9960  0.7845 -0.5031
 1837Sol     HW10501   2.641   3.147   2.984  0.8941 -0.1981 -2.0918
 1837Sol     MW10502   2.722   3.157   3.021 -0.4072 -0.2807  0.0705
 1838Sol     OW10503   1.048   2.848   3.571 -0.6325  0.7115  0.0731
 1838Sol     HW10504   1.107   2.910   3.528  2.5935 -1.3657  1.2872
 1838Sol     HW10505   1.050   2.770   3.515 -0.4165 -0.1734  1.2755
 1838Sol     MW10506   1.054   2.846   3.562  0.3730  0.3588  1.0572
 1839Sol     OW10507   2.783   0.104   3.531 -0.3057  0.2789 -0.1330
 1839Sol     HW10508   2.843   0.161   3.579  0.3289 -0.8567  0.4578
 1839Sol     HW10509   2.826   0.088   3.447 -0.3495  0.4483 -0.1863
 1839Sol     MW10510   2.792   0.107   3.528 -0.5720  0.1407 -0.3682
 1840Sol     OW10511   1.932   0.097   7.823 -0.0851 -0.3492 -0.0709
 1840Sol     HW10512   1.997   0.071   7.758  0.8366  0.0879  0.6762
 1840Sol     HW10513   1.850   0.105   7.773 -0.1226 -3.3867 -0.5412
 1840Sol     MW10514   1.930   0.096   7.813 -0.1841  0.4068 -0.4359
 1841Sol     OW10515   3.292   1.605   2.577 -0.2047 -0.1901  0.5557
 1841Sol     HW10516   3.214   1.660   2.588 -2.1501 -2.5126 -1.0940
 1841Sol     HW10517   3.272   1.527   2.629  1.2822 -0.5953  0.5221
 1841Sol     MW10518   3.283   1.603   2.583  0.0193  0.3097 -0.0923
 1842Sol     OW10519   0.842   1.319   6.595  0.2497  0.2462 -0.0701
 1842Sol     HW10520   0.782   1.382   6.637  0.8291  0.1883  0.8521
 1842Sol     HW10521   0.928   1.361   6.601  0.5256 -0.3166 -0.0983
 1842Sol     MW10522   0.844   1.329   6.599 -0.3171 -0.6546 -0.5604
 1843Sol     OW10523   1.374   0.322   6.899  0.2403 -0.6618  0.0703
 1843Sol     HW10524   1.320   0.343   6.822  0.6997 -0.6030 -0.2400
 1843Sol     HW10525   1.423   0.244   6.873 -0.9625 -1.7358  0.9760
 1843Sol     MW10526   1.373   0.317   6.890  0.2113  0.1797 -0.4934
 1844Sol     OW10527   2.683   1.829   9.534 -0.2892 -0.3941  0.0080
 1844Sol     HW10528   2.657   1.759   9.474  0.3067 -0.4716 -0.1640
 1844Sol     HW10529   2.720   1.897   9.477 -0.4567 -0.1322  0.2142
 1844Sol     MW10530   2.684   1.828   9.523  0.4264  0.0787  0.6491
 1845Sol     OW10531   2.103   1.463   4.460  0.2092 -0.1144 -0.4127
 1845Sol     HW10532   2.009   1.457   4.480  0.4171 -0.1519  0.6027
 1845Sol     HW10533   2.144   1.474   4.546  1.0304  1.1565 -0.9475
 1845Sol     MW10534   2.098   1.464   4.470 -0.3829  0.4557  0.6445
 1846Sol     OW10535   2.883   0.702   9.207 -0.0032 -0.7987  0.2903
 1846Sol     HW10536   2.816   0.693   9.140  0.5521 -0.9762 -0.2449
 1846Sol     HW10537   2.906   0.795   9.206  1.0646 -1.0576 -0.8068
 1846Sol     MW10538   2.879   0.709   9.201 -0.2315  0.0143 -0.1888
 1847Sol     OW10539   2.470   0.442   5.514 -0.4271 -0.2915  0.0079
 1847Sol     HW10540   2.394   0.476   5.468 -1.0710 -1.4011  0.2366
 1847Sol     HW10541   2.519   0.394   5.448 -1.7090 -2.4737  0.5850
 1847Sol     MW10542   2.468   0.441   5.504  0.1335 -0.2111 -0.4123
 1848Sol     OW10543   0.595   1.938   7.899 -0.2440  0.2021  0.8782
 1848Sol     HW10544   0.531   1.888   7.949 -0.0703 -0.0653  0.8306
 1848Sol     HW10545   0.666   1.954   7.960  0.6269 -1.3786  0.2913
 1848Sol     MW10546   0.595   1.935   7.909  0.3109  0.5626 -0.2338
 1849Sol     OW10547   0.449   2.550   8.198  0.2866  0.5074 -0.1249
 1849Sol     HW10548   0.462   2.464   8.158 -0.7541  0.4614 -0.3785
 1849Sol     HW10549   0.494   2.544   8.282 -1.2389 -0.8624  0.6157
 1849Sol     MW10550   0.455   2.542   8.202  0.2990  0.7270  0.0252
 1850Sol     OW10551   1.350   0.604   9.003  0.0079  0.5824  0.2990
 1850Sol     HW10552   1.373   0.524   9.051 -0.3216  0.5099  0.3346
 1850Sol     HW10553   1.430   0.657   9.006  0.3822  0.0439 -0.1504
 1850Sol     MW10554   1.360   0.601   9.008 -0.5235  0.1572 -0.4004
 1851Sol     OW10555   2.116   2.737   5.311 -0.1722  0.1331 -0.6298
 1851Sol     HW10556   2.026   2.759   5.287 -0.1237  0.5199 -0.4538
 1851Sol     HW10557   2.148   2.683   5.238 -0.3947  0.3755 -0.9048
 1851Sol     MW10558   2.111   2.734   5.302 -0.1806 -0.5260  0.0591
 1852Sol     OW10559   1.565   2.272   3.697  0.0344 -0.0475  0.2906
 1852Sol     HW10560   1.584   2.281   3.604  2.2351 -0.0505  0.7083
 1852Sol     HW10561   1.575   2.361   3.732 -1.7598  0.1367  0.3698
 1852Sol     MW10562   1.568   2.281   3.692 -0.5155 -0.0249  0.5490
 1853Sol     OW10563   1.261   1.174   6.738 -0.5160 -0.1445  0.2856
 1853Sol     HW10564   1.167   1.153   6.737 -0.7104  0.6725  0.5256
 1853Sol     HW10565   1.275   1.212   6.825 -0.4436  1.7978 -0.5460
 1853Sol     MW10566   1.254   1.176   6.746  0.1611 -0.0390  0.0569
 1854Sol     OW10567   0.522   2.951   6.202  0.7051  0.2140  0.7552
 1854Sol     HW10568   0.591   2.893   6.173 -0.3155  0.4628 -2.3088
 1854Sol     HW10569   0.441   2.902   6.187 -0.0131  1.3985  0.6735
 1854Sol     MW10570   0.521   2.941   6.198 -0.0288 -0.2186  0.1879
 1855Sol     OW10571   2.336   2.435   6.063 -0.3114  0.2846  0.1708
 1855Sol     HW10572   2.330   2.452   5.969  1.3833  0.8073  0.1289
 1855Sol     HW10573   2.421   2.473   6.088 -0.2301 -0.8598  1.6781
 1855Sol     MW10574   2.343   2.440   6.056 -1.1060  0.0731 -0.1498
 1856Sol     OW10575   3.234   1.880   3.654 -0.2611  0.1686 -0.1952
 1856Sol     HW10576   3.155   1.881   3.600 -0.4165  1.6281  0.0248
 1856Sol     HW10577   3.252   1.787   3.668 -1.4558 -0.1980 -0.9456
 1856Sol     MW10578   3.228   1.872   3.651  0.1584 -0.0040 -0.1729
 1857Sol     OW10579   2.509   1.968   4.757  0.4708 -0.0243 -0.0589
 1857Sol     HW10580   2.419   1.982   4.726  0.6163 -0.0650 -0.5049
 1857Sol     HW10581   2.559   1.949   4.677  0.9239  0.2437  0.1593
 1857Sol     MW10582   2.505   1.968   4.747 -0.1787  0.7170 -0.0039
 1858Sol     OW10583   2.410   0.275   4.900  0.8585  0.4274  0.3985
 1858Sol     HW10584   2.328   0.313   4.933 -0.3487 -0.9772 -0.9449
 1858Sol     HW10585   2.390   0.246   4.811  1.9676 -2.5972  1.0591
 1858Sol     MW10586   2.401   0.276   4.895  0.2576  0.5765 -0.2742
 1859Sol     OW10587   1.188   3.339   8.211  0.1250 -0.9120  0.6781
 1859Sol     HW10588   1.206   3.433   8.212  0.7852 -1.0143 -0.4148
 1859Sol     HW10589   1.275   3.298   8.219 -0.2040 -1.4392  1.7087
 1859Sol     MW10590   1.198   3.344   8.212  0.4447  0.3632 -0.2449
 1860Sol     OW10591   0.073   0.313   5.269 -0.5996  0.4501 -0.3870
 1860Sol     HW10592   0.109   0.227   5.247 -1.0936 -0.6590  2.7938
 1860Sol     HW10593   0.137   0.376   5.236  0.1093 -1.1526 -2.1376
 1860Sol     MW10594   0.082   0.311   5.264  0.4190 -0.1077 -0.4951
 1861Sol     OW10595   0.108   0.525   9.737  0.4252 -0.1331  0.1373
 1861Sol     HW10596   0.052   0.510   9.661 -2.0067  1.2142  1.5641
 1861Sol     HW10597   0.149   0.440   9.755 -0.6102 -0.9734 -1.4028
 1861Sol     MW10598   0.106   0.516   9.732  0.6107 -0.0128  0.0798
 1862Sol     OW10599   3.131   1.687   7.280  0.0500  0.4658 -0.8119
 1862Sol     HW10600   3.060   1.698   7.342  0.1209  0.7606 -0.7791
 1862Sol     HW10601   3.153   1.594   7.284  1.3855  0.8395  1.0831
 1862Sol     MW10602   3.127   1.680   7.286  0.3035  0.2736  0.1034
 1863Sol     OW10603   0.997   0.773   6.118  0.2611  0.4496  0.0138
 1863Sol     HW10604   1.074   0.827   6.101 -0.6007  1.2254 -1.5304
 1863Sol     HW10605   0.934   0.832   6.159  0.3708 -0.1188  1.0302
 1863Sol     MW10606   0.998   0.783   6.120 -0.0891  0.4166  0.1604
 1864Sol     OW10607   2.300   0.374   6.440 -0.6684 -0.2844  0.2386
 1864Sol     HW10608   2.236   0.445   6.440  0.3303  0.6259  0.8492
 1864Sol     HW10609   2.341   0.378   6.353 -0.4064  0.0768  0.3785
 1864Sol     MW10610   2.298   0.381   6.432  0.1231  0.1490 -0.1462
 1865Sol     OW10611   2.864   1.011   6.032 -0.1509 -0.3086  0.0386
 1865Sol     HW10612   2.907   0.989   6.115  2.8042  0.3566 -1.2899
 1865Sol     HW10613   2.908   1.091   6.003 -0.7283 -0.8968 -2.5091
 1865Sol     MW10614   2.872   1.016   6.037 -0.0851 -0.3729 -0.0690
 1866Sol     OW10615   0.612   0.062   3.185  0.2007  0.2925  0.1115
 1866Sol     HW10616   0.664   0.115   3.124  0.0229  1.3197  0.8302
 1866Sol     HW10617   0.522   0.094   3.174 -0.2256 -1.1673 -0.8008
 1866Sol     MW10618   0.608   0.070   3.178 -0.0628  0.8977 -0.6124
 1867Sol     OW10619   1.643   3.376   4.553 -0.6055  0.2866  0.1830
 1867Sol     HW10620   1.712   3.363   4.618 -0.6507 -0.8261  0.0158
 1867Sol     HW10621   1.562   3.352   4.598 -0.7321  0.3401 -0.0166
 1867Sol     MW10622   1.642   3.373   4.563 -0.2392 -0.0062  0.3214
 1868Sol     OW10623   2.743   1.445   7.219 -0.5005 -0.4452 -0.1936
 1868Sol     HW10624   2.749   1.513   7.152 -1.5258 -0.0053  0.1488
 1868Sol     HW10625   2.652   1.448   7.247  0.3563  0.6507  2.5657
 1868Sol     MW10626   2.736   1.452   7.215  0.2988  0.3640 -0.3437
 1869Sol     OW10627   2.431   2.128   8.584 -0.5589  0.1365 -0.6099
 1869Sol     HW10628   2.441   2.219   8.554 -1.4831  0.0430 -1.2084
 1869Sol     HW10629   2.500   2.117   8.650 -1.6934  1.9068  0.9332
 1869Sol     MW10630   2.438   2.135   8.587 -0.4488 -0.5725  0.1262
 1870Sol     OW10631   1.745   1.907   9.482  0.4693 -0.4615 -0.0160
 1870Sol     HW10632   1.786   1.824   9.461  1.0245 -0.1478 -0.1765
 1870Sol     HW10633   1.816   1.963   9.512  0.3864  0.4844 -1.5097
 1870Sol     MW10634   1.755   1.905   9.482  0.0606  0.2194 -0.4189
 1871Sol     OW10635   2.621   1.419   4.091  0.0853  0.8548 -0.5832
 1871Sol     HW10636   2.711   1.441   4.114  0.2153  0.2938 -0.5563
 1871Sol     HW10637   2.579   1.397   4.174  0.8189 -2.1390 -0.9654
 1871Sol     MW10638   2.625   1.419   4.100  0.6221  0.1720  0.5933
 1872Sol     OW10639   1.843   0.010   6.172 -0.5995 -0.4331 -0.1996
 1872Sol     HW10640   1.873   0.052   6.253 -0.3530 -0.2446 -0.3913
 1872Sol     HW10641   1.902  -0.065   6.162 -0.6704 -0.4928 -0.1727
 1872Sol     MW10642   1.851   0.007   6.179  0.3069 -0.0556 -0.0163
 1873Sol     OW10643   2.334   1.897   5.311 -0.3014 -0.7153  0.5170
 1873Sol     HW10644   2.391   1.820   5.301  2.3719  1.1102  1.0858
 1873Sol     HW10645   2.271   1.871   5.378  0.4489 -2.4761  0.5875
 1873Sol     MW10646   2.334   1.888   5.316 -0.1168 -0.3036 -0.3706
 1874Sol     OW10647   0.804   3.154   6.912  0.3016 -0.5485 -0.1964
 1874Sol     HW10648   0.750   3.211   6.857 -0.9124 -0.0111  1.5157
 1874Sol     HW10649   0.889   3.153   6.869 -0.4553  0.3599 -1.7490
 1874Sol     MW10650   0.806   3.159   6.903  0.2977  0.1824 -0.1462
 1875Sol     OW10651   0.814   1.045   3.141 -0.5039  0.2493  0.5245
 1875Sol     HW10652   0.802   1.137   3.119  1.1201  0.5542  0.8903
 1875Sol     HW10653   0.801   0.999   3.057  1.7735  1.0754 -0.3069
 1875Sol     MW10654   0.811   1.049   3.131  0.2018  0.2127  0.1841
 1876Sol     OW10655   1.800   3.163   6.492 -0.0023 -0.4987  0.0910
 1876Sol     HW10656   1.868   3.156   6.426 -1.5880 -1.2624 -1.4805
 1876Sol     HW10657   1.790   3.258   6.507  0.1879 -0.3130 -0.9459
 1876Sol     MW10658   1.805   3.171   6.488  0.5911  0.0992  0.1838
 1877Sol     OW10659   1.442   2.638   4.126  0.0211  0.8389 -0.3348
 1877Sol     HW10660   1.537   2.626   4.130 -0.1350 -0.1695  0.8482
 1877Sol     HW10661   1.421   2.688   4.206 -0.5131  0.5115 -0.2693
 1877Sol     MW10662   1.449   2.642   4.134 -0.2493  0.6477  0.7206
 1878Sol     OW10663   0.292   3.431   7.914 -0.2830  0.0344 -0.5007
 1878Sol     HW10664   0.263   3.418   8.004 -0.2299 -2.8348 -0.8282
 1878Sol     HW10665   0.210   3.444   7.865 -0.4165  0.2221 -0.2290
 1878Sol     MW10666   0.282   3.431   7.917  0.4230  0.6511  0.1883
 1879Sol     OW10667   2.146   0.056   7.642  0.1284 -0.2106 -0.1675
 1879Sol     HW10668   2.193   0.126   7.598 -1.0560  0.0451 -1.0568
 1879Sol     HW10669   2.172  -0.024   7.596 -1.4195  0.1031 -1.6227
 1879Sol     MW10670   2.152   0.055   7.634 -0.0332 -0.4527  0.0495
 1880Sol     OW10671   0.006   2.377   8.902 -0.6741  0.0373 -0.5743
 1880Sol     HW10672   0.056   2.438   8.847  0.9760 -0.5151  0.2521
 1880Sol     HW10673   0.019   2.409   8.991 -1.0766 -0.6219 -0.2724
 1880Sol     MW10674   0.012   2.385   8.905  0.3058 -1.0719  0.0770
 1881Sol     OW10675   1.147   1.146   6.263  0.0033 -0.1245  0.2078
 1881Sol     HW10676   1.144   1.134   6.357 -1.5935 -0.5989  0.1229
 1881Sol     HW10677   1.240   1.152   6.242  0.3599  0.2046  1.8280
 1881Sol     MW10678   1.155   1.145   6.269  0.4112 -0.6407 -0.5159
 1882Sol     OW10679   0.724   0.397   3.527  0.0580 -0.0640  0.7524
 1882Sol     HW10680   0.793   0.345   3.486  0.5252  2.6182 -1.9781
 1882Sol     HW10681   0.643   0.358   3.496  0.3362 -1.4757  1.7407
 1882Sol     MW10682   0.723   0.389   3.521  0.2291  0.0682  0.1397
 1883Sol     OW10683   2.702   2.728   5.537 -0.2997 -0.1695 -0.0405
 1883Sol     HW10684   2.629   2.667   5.526 -1.5086  1.1577  0.4914
 1883Sol     HW10685   2.775   2.687   5.490 -2.0730 -0.2988 -2.7766
 1883Sol     MW10686   2.702   2.719   5.532 -0.0767 -0.1391  0.0981
 1884Sol     OW10687   2.575   0.074   7.804 -0.0437  0.3136 -0.4813
 1884Sol     HW10688   2.488   0.051   7.836 -0.3557  1.2935 -0.5869
 1884Sol     HW10689   2.559   0.142   7.738  0.9191  1.9971  0.9716
 1884Sol     MW10690   2.566   0.078   7.801 -0.1668 -0.1722  0.1993
 1885Sol     OW10691   1.330   1.181   7.990  0.4357 -0.2192  0.5738
 1885Sol     HW10692   1.243   1.166   7.954 -0.0964 -0.9265  2.0756
 1885Sol     HW10693   1.390   1.161   7.918 -0.5793 -1.8107  0.1338
 1885Sol     MW10694   1.328   1.178   7.981  0.2117  0.2389  0.3931
 1886Sol     OW10695   0.724   1.323   6.079  0.0372 -0.1809  0.3275
 1886Sol     HW10696   0.812   1.284   6.078 -0.9446 -2.4388 -1.3575
 1886Sol     HW10697   0.675   1.271   6.143 -0.7659 -0.5127 -0.5532
 1886Sol     MW10698   0.728   1.315   6.085  0.3395  0.6772  0.4637
 1887Sol     OW10699   2.316   1.371   6.843  0.3126 -0.2651  0.0044
 1887Sol     HW10700   2.360   1.418   6.772  1.1499 -1.5218 -0.3190
 1887Sol     HW10701   2.385   1.320   6.884 -0.3597 -0.2830  1.1294
 1887Sol     MW10702   2.326   1.371   6.840  0.3328  0.0002 -0.0463
 1888Sol     OW10703   2.595   3.204   5.275 -0.5399 -0.3857 -0.2286
 1888Sol     HW10704   2.560   3.116   5.264 -0.9200 -0.1888 -0.5726
 1888Sol     HW10705   2.667   3.193   5.338 -0.0179 -1.0842 -0.9364
 1888Sol     MW10706   2.599   3.195   5.280 -0.2665 -0.1150  0.0685
 1889Sol     OW10707   2.321   1.914   9.259  0.2657 -0.2371  0.8189
 1889Sol     HW10708   2.276   1.917   9.344 -0.2725 -2.8761  0.6522
 1889Sol     HW10709   2.284   1.839   9.214  3.1940 -1.0955 -0.2632
 1889Sol     MW10710   2.314   1.908   9.263 -0.2316  0.0893  0.1886
 1890Sol     OW10711   1.086   0.379   8.395  0.3478  0.1323 -0.3481
 1890Sol     HW10712   1.045   0.428   8.324 -0.2562 -0.0906 -0.1501
 1890Sol     HW10713   1.149   0.440   8.433  0.3146  0.4169 -0.7521
 1890Sol     MW10714   1.088   0.389   8.392  0.1901  0.1319  0.0690
 1891Sol     OW10715   0.895   2.680   7.647 -0.1486 -0.0128  0.0031
 1891Sol     HW10716   0.802   2.670   7.668 -0.0954  0.4498  0.4813
 1891Sol     HW10717   0.914   2.772   7.665  0.7610 -0.4448  1.3842
 1891Sol     MW10718   0.889   2.687   7.650 -0.2194  0.5577 -0.1960
 1892Sol     OW10719   1.266   0.826   5.540  0.2206 -0.5504 -0.3192
 1892Sol     HW10720   1.221   0.906   5.513  1.2627  0.2481  0.2820
 1892Sol     HW10721   1.270   0.832   5.636 -2.7913 -2.9906  0.0313
 1892Sol     MW10722   1.262   0.834   5.546 -0.1589 -0.2675  0.4474
 1893Sol     OW10723   3.076   3.303   8.972 -0.0507  0.3799  0.3559
 1893Sol     HW10724   3.145   3.283   8.909 -0.0261 -1.4056  0.9181
 1893Sol     HW10725   3.119   3.295   9.057 -0.7049  0.2963  0.6787
 1893Sol     MW10726   3.086   3.301   8.974 -0.0730 -0.5427  0.3359
 1894Sol     OW10727   2.292   2.263   1.678  0.0727 -0.6087  0.2165
 1894Sol     HW10728   2.219   2.299   1.728 -1.3005 -1.8517 -0.8525
 1894Sol     HW10729   2.350   2.338   1.663 -2.5808  1.1799 -1.7306
 1894Sol     MW10730   2.291   2.273   1.681  0.3155 -0.2615  0.5158
 1895Sol     OW10731   1.048   2.098   4.352  0.4030 -0.3736  0.3252
 1895Sol     HW10732   1.040   2.139   4.439  1.9159  1.8650 -0.5442
 1895Sol     HW10733   1.131   2.132   4.317  0.9827 -3.0914 -1.0599
 1895Sol     MW10734   1.055   2.105   4.357 -0.2961  0.0081  0.8588
 1896Sol     OW10735   0.810   3.027   5.951  0.5737 -0.1406  0.2815
 1896Sol     HW10736   0.887   3.081   5.966  1.4235 -0.7950 -1.6479
 1896Sol     HW10737   0.824   2.987   5.866 -2.2748  0.3546 -0.4877
 1896Sol     MW10738   0.818   3.028   5.945  0.4911 -0.3762  0.6357
 1897Sol     OW10739   0.292   0.047   9.470  0.1551  0.7332  0.1747
 1897Sol     HW10740   0.341  -0.034   9.485  0.6942  1.0311  0.0201
 1897Sol     HW10741   0.217   0.019   9.416  0.9764  0.5296 -0.8766
 1897Sol     MW10742   0.289   0.037   9.466  0.1552 -0.0038  0.8049
 1898Sol     OW10743   0.405   0.957   1.740  0.3534  0.4681 -0.4984
 1898Sol     HW10744   0.475   0.923   1.796  0.7353  0.7045 -0.8365
 1898Sol     HW10745   0.444   0.961   1.652  0.1504  1.3071 -0.5521
 1898Sol     MW10746   0.415   0.954   1.737 -0.0993 -0.1151  0.1245
 1899Sol     OW10747   3.004   2.725   5.448  0.4493  0.5396 -0.0753
 1899Sol     HW10748   3.019   2.769   5.532  1.3272  0.1775 -0.0398
 1899Sol     HW10749   3.022   2.633   5.465 -0.1560  0.3459 -0.4675
 1899Sol     MW10750   3.007   2.721   5.457 -0.5901 -0.7219  0.6964
 1900Sol     OW10751   0.890   0.149   7.749  0.3368  0.2299 -0.6618
 1900Sol     HW10752   0.922   0.148   7.839  1.4089  0.4185 -1.0364
 1900Sol     HW10753   0.863   0.240   7.734  0.5678  0.2975 -0.6705
 1900Sol     MW10754   0.890   0.157   7.755 -0.6654  0.6101 -0.0069
 1901Sol     OW10755   1.031   2.220   5.756  0.5070  0.3019 -0.0886
 1901Sol     HW10756   1.052   2.239   5.847 -0.3115  0.5386  0.0537
 1901Sol     HW10757   1.049   2.126   5.746 -0.3768  0.0622  0.5849
 1901Sol     MW10758   1.035   2.213   5.763  0.4092 -0.6966  0.0061
 1902Sol     OW10759   1.960   0.369   2.681 -0.2726 -0.0348 -0.3840
 1902Sol     HW10760   1.969   0.443   2.621 -3.0509  0.6867  0.0312
 1902Sol     HW10761   1.868   0.344   2.675 -0.0804 -1.4156  1.8593
 1902Sol     MW10762   1.953   0.373   2.675 -0.3137 -0.5112 -0.9762
 1903Sol     OW10763   1.685   0.727   5.676  0.5299  0.4875  0.2274
 1903Sol     HW10764   1.632   0.783   5.619 -0.4275  0.3484  0.9777
 1903Sol     HW10765   1.638   0.726   5.759  2.2283  1.1909  1.2327
 1903Sol     MW10766   1.676   0.732   5.678 -0.0369  0.1415  0.0404
 1904Sol     OW10767   0.387   3.062   4.868  0.6097 -0.4356  0.6094
 1904Sol     HW10768   0.477   3.030   4.876  0.4887 -0.8087  0.4619
 1904Sol     HW10769   0.333   2.983   4.862  0.5251 -0.2104 -2.2616
 1904Sol     MW10770   0.390   3.052   4.868 -0.0295 -0.2565 -0.0181
 1905Sol     OW10771   0.733   3.209   3.875  0.3134  0.3768  0.4168
 1905Sol     HW10772   0.816   3.248   3.901  0.3438 -0.5024  1.7257
 1905Sol     HW10773   0.748   3.175   3.787  1.2163  0.5667  0.4957
 1905Sol     MW10774   0.742   3.209   3.870 -0.5733  0.4411  0.3673
 1906Sol     OW10775   1.240   3.149   9.097 -0.0615 -0.9547 -0.0737
 1906Sol     HW10776   1.305   3.079   9.092  1.5814  0.5388 -0.3181
 1906Sol     HW10777   1.218   3.167   9.005  0.8958  0.0586 -0.1212
 1906Sol     MW10778   1.244   3.144   9.088 -0.0572  0.0623 -0.3587
 1907Sol     OW10779   0.644   0.519   4.575  0.8624  0.0678  0.0563
 1907Sol     HW10780   0.731   0.558   4.578  1.1673 -0.7039  2.0622
 1907Sol     HW10781   0.588   0.584   4.617  1.0504 -0.8041  1.7056
 1907Sol     MW10782   0.646   0.528   4.579 -0.0111  0.3719 -0.2179
 1908Sol     OW10783   1.545   2.601   7.617 -0.2867 -0.1632 -0.1372
 1908Sol     HW10784   1.540   2.647   7.701 -0.9476 -0.6503  0.1020
 1908Sol     HW10785   1.619   2.542   7.626 -0.2226 -0.0590  0.0232
 1908Sol     MW10786   1.551   2.600   7.625  0.3170 -0.1549 -0.0950
 1909Sol     OW10787   1.323   1.625   9.591  0.1393 -0.5102  0.9188
 1909Sol     HW10788   1.358   1.640   9.503  1.4059 -0.6215  1.3912
 1909Sol     HW10789   1.248   1.567   9.578  1.5948 -2.2414  0.1186
 1909Sol     MW10790   1.319   1.621   9.582  0.3910  0.4537  0.3200
 1910Sol     OW10791   1.452   1.897   3.950 -0.3940  0.4119  0.4598
 1910Sol     HW10792   1.365   1.856   3.960 -0.6414  1.2963  2.1685
 1910Sol     HW10793   1.512   1.835   3.991 -0.2504 -0.0591 -0.4540
 1910Sol     MW10794   1.449   1.888   3.954 -0.0229  0.0833  0.0126
 1911Sol     OW10795   1.596   2.112   7.697 -0.0740 -0.2288  0.7956
 1911Sol     HW10796   1.545   2.164   7.759 -0.4685  2.4369 -1.6477
 1911Sol     HW10797   1.538   2.042   7.671 -0.5840 -0.2630  1.9935
 1911Sol     MW10798   1.586   2.111   7.700 -0.0907  0.7114 -0.3856
 1912Sol     OW10799   0.554   2.884   5.506 -0.2880  0.0552  0.2948
 1912Sol     HW10800   0.647   2.861   5.505  0.0472  1.4243 -1.6960
 1912Sol     HW10801   0.551   2.971   5.545 -0.5245  0.7711 -1.2712
 1912Sol     MW10802   0.562   2.890   5.509 -0.1229 -0.0132 -0.2301
 1913Sol     OW10803   2.759   2.078   2.465  0.5339 -0.3172  0.1443
 1913Sol     HW10804   2.776   2.030   2.546 -0.4023 -0.6065  0.1775
 1913Sol     HW10805   2.833   2.056   2.409  0.7913 -0.7384  0.6402
 1913Sol     MW10806   2.767   2.071   2.467  0.0693 -0.2597 -0.6093
 1914Sol     OW10807   1.073   3.368   3.513  0.0000 -0.5803  0.2431
 1914Sol     HW10808   1.151   3.340   3.465  0.5438 -1.5584  1.6625
 1914Sol     HW10809   1.009   3.299   3.498 -0.0148 -0.6169  0.4787
 1914Sol     MW10810   1.074   3.359   3.507 -0.3360  0.4117  0.6861
 1915Sol     OW10811   2.382   2.344   4.744 -0.2078 -0.0262  0.2943
 1915Sol     HW10812   2.465   2.299   4.725 -0.2130  0.4153 -0.8442
 1915Sol     HW10813   2.386   2.423   4.690 -1.1544  0.2397  0.6178
 1915Sol     MW10814   2.390   2.347   4.737 -0.1435  0.6231  0.2689
 1916Sol     OW10815   1.416   1.710   2.378 -0.6109 -0.7293  0.4215
 1916Sol     HW10816   1.495   1.714   2.433 -1.5572  1.1792  1.6804
 1916Sol     HW10817   1.443   1.659   2.302  0.9828 -2.7027  2.2424
 1916Sol     MW10818   1.426   1.706   2.376 -0.0803  1.0154 -0.2119
 1917Sol     OW10819   0.548   1.196   8.888  0.2662 -0.2506  0.3350
 1917Sol     HW10820   0.479   1.258   8.910  1.0744  0.2916  1.3858
 1917Sol     HW10821   0.565   1.149   8.970  1.5014 -0.0103  0.2237
 1917Sol     MW10822   0.543   1.197   8.898  0.2568  0.0475 -0.1482
 1918Sol     OW10823   0.706   0.158   2.939  0.2166  0.1107 -0.0776
 1918Sol     HW10824   0.772   0.127   2.876  0.7328 -0.7768  0.8909
 1918Sol     HW10825   0.718   0.253   2.941  2.8782 -0.2169  1.6382
 1918Sol     MW10826   0.713   0.163   2.933  0.0305 -0.6463 -0.2753
 1919Sol     OW10827   0.570   1.394   5.475 -0.0029 -0.5409  0.7480
 1919Sol     HW10828   0.559   1.301   5.457 -0.6498 -0.1946 -0.7436
 1919Sol     HW10829   0.520   1.438   5.406  1.0187  0.9284  0.9187
 1919Sol     MW10830   0.564   1.390   5.468  0.2550 -0.1003  0.5049
 1920Sol     OW10831   3.023   1.217   7.222 -0.6752 -0.2017  0.0214
 1920Sol     HW10832   2.941   1.181   7.188  0.5011 -0.8044 -2.3176
 1920Sol     HW10833   3.090   1.153   7.197  0.6685  0.8169  0.9007
 1920Sol     MW10834   3.022   1.208   7.217 -0.1089  0.0625 -0.0830
 1921Sol     OW10835   1.921   0.456   3.293 -0.1644  0.1325  0.4713
 1921Sol     HW10836   2.011   0.427   3.305  0.0892  0.2674 -1.0006
 1921Sol     HW10837   1.915   0.477   3.200 -1.5633  0.6455  0.6665
 1921Sol     MW10838   1.929   0.455   3.286 -0.4116 -0.1866  0.5999
 1922Sol     OW10839   2.735   2.807   5.873 -0.1761  0.6911  0.5843
 1922Sol     HW10840   2.720   2.881   5.813 -0.6410  1.3992  1.5624
 1922Sol     HW10841   2.723   2.844   5.960  1.3044 -0.1532  1.1529
 1922Sol     MW10842   2.732   2.817   5.875 -0.0436  0.2211  0.1908
 1923Sol     OW10843   1.063   0.439   4.708  0.3463 -0.1884 -0.1593
 1923Sol     HW10844   0.998   0.509   4.700  0.1487 -0.2062  1.2325
 1923Sol     HW10845   1.145   0.478   4.677  0.1027  0.4642  0.0250
 1923Sol     MW10846   1.065   0.449   4.704 -0.0738 -0.3707 -0.0149
 1924Sol     OW10847   2.410   2.189   7.151 -0.2242  0.5832 -0.1803
 1924Sol     HW10848   2.340   2.127   7.130 -2.2478  3.1413 -1.2945
 1924Sol     HW10849   2.388   2.219   7.240 -0.4112  1.1676 -0.4189
 1924Sol     MW10850   2.401   2.187   7.157 -0.6782 -0.1114 -0.4049
 1925Sol     OW10851   0.962   0.061   2.823 -0.1009 -0.2932 -0.3885
 1925Sol     HW10852   0.959   0.010   2.904  1.2512  0.1547 -0.0471
 1925Sol     HW10853   1.033   0.020   2.772 -1.3673 -0.9848 -1.6319
 1925Sol     MW10854   0.968   0.053   2.825 -0.2170 -0.0601 -0.1301
 1926Sol     OW10855   1.088   3.065   3.820 -0.3815 -0.2832  0.1022
 1926Sol     HW10856   1.118   3.043   3.908  0.7167 -1.0089 -0.4381
 1926Sol     HW10857   1.099   2.983   3.770  2.2136  1.0134 -1.5396
 1926Sol     MW10858   1.092   3.055   3.823  0.6104 -0.4996  0.0003
 1927Sol     OW10859   1.208   2.296   7.920 -0.5842 -0.3498 -0.2086
 1927Sol     HW10860   1.293   2.307   7.876 -0.2089  0.8167  0.7750
 1927Sol     HW10861   1.152   2.363   7.881 -0.2032  0.7987  1.1813
 1927Sol     MW10862   1.211   2.303   7.912 -0.1745  0.0614  0.7101
 1928Sol     OW10863   0.972   1.953   4.686  0.0129  0.7006  0.3934
 1928Sol     HW10864   1.028   1.889   4.729  0.6846  1.4786  0.7075
 1928Sol     HW10865   1.030   2.028   4.671 -0.5831  0.9762 -0.5718
 1928Sol     MW10866   0.982   1.954   4.688 -0.2085  0.3305  0.1676
 1929Sol     OW10867   0.107   0.113   4.755 -0.3504 -0.6820 -0.1515
 1929Sol     HW10868   0.164   0.113   4.831  0.5150 -0.7560 -0.7943
 1929Sol     HW10869   0.025   0.075   4.786  0.6470 -2.5305  0.2549
 1929Sol     MW10870   0.104   0.110   4.765 -0.1197 -0.2840  0.6436
 1930Sol     OW10871   3.181   1.349   2.663 -0.6111  0.0589  0.1915
 1930Sol     HW10872   3.242   1.277   2.682 -0.8852 -0.2371 -0.0416
 1930Sol     HW10873   3.156   1.383   2.749  1.6460  1.6739  0.2373
 1930Sol     MW10874   3.184   1.345   2.672  0.0459  0.1880 -0.1673
 1931Sol     OW10875   1.568   2.836   5.921  0.2607 -0.3241  0.3604
 1931Sol     HW10876   1.583   2.789   5.839  1.9583  0.8915 -0.0510
 1931Sol     HW10877   1.652   2.832   5.967 -0.1993  0.4481  1.2803
 1931Sol     MW10878   1.577   2.832   5.917  0.4426  0.2661 -0.0643
 1932Sol     OW10879   2.487   2.570   9.294 -1.1630  0.0532 -0.1541
 1932Sol     HW10880   2.420   2.530   9.237 -0.6577  0.5715 -1.1299
 1932Sol     HW10881   2.568   2.561   9.244 -0.0701 -2.5439  1.9255
 1932Sol     MW10882   2.488   2.565   9.284  0.3524  0.5934  0.5984
 1933Sol     OW10883   0.873   0.226   2.037 -0.1287  0.0806 -0.3019
 1933Sol     HW10884   0.816   0.218   1.960  0.7883 -1.1818 -0.8844
 1933Sol     HW10885   0.955   0.185   2.009  0.0492 -0.8418  1.5182
 1933Sol     MW10886   0.875   0.221   2.027 -0.5066 -0.1806  0.3141
 1934Sol     OW10887   0.582   1.340   4.355 -0.1173 -0.0620  0.3618
 1934Sol     HW10888   0.677   1.344   4.352 -0.1885  1.2210 -2.8554
 1934Sol     HW10889   0.556   1.427   4.385 -0.2796 -1.5152  4.7471
 1934Sol     MW10890   0.588   1.348   4.358  0.1021 -0.0513 -0.2934
 1935Sol     OW10891   1.899   1.705   4.757  0.3522  0.2199  0.0778
 1935Sol     HW10892   1.910   1.751   4.673 -0.4272  1.8608  0.8538
 1935Sol     HW10893   1.804   1.707   4.773  0.5061  0.0246  1.0384
 1935Sol     MW10894   1.891   1.710   4.751  0.1532 -0.5661 -0.0789
 1936Sol     OW10895   0.081   3.200   5.248 -0.1987 -0.1010  0.2511
 1936Sol     HW10896   0.037   3.116   5.238  1.7441 -1.1145  0.0292
 1936Sol     HW10897   0.057   3.249   5.170 -0.9566 -0.6318  0.1476
 1936Sol     MW10898   0.075   3.197   5.240 -0.1784  0.7448  0.3559
 1937Sol     OW10899   1.781   1.505   9.645  0.7216  0.3053 -0.2859
 1937Sol     HW10900   1.841   1.444   9.689  0.4287 -1.8627 -2.8223
 1937Sol     HW10901   1.694   1.476   9.672  0.6506  1.6106  0.9983
 1937Sol     MW10902   1.779   1.497   9.652 -0.0739  0.2380 -0.3375
 1938Sol     OW10903   1.507   3.368   3.438 -0.9834  0.2901  0.4111
 1938Sol     HW10904   1.559   3.288   3.434  0.4656  1.2408 -0.1608
 1938Sol     HW10905   1.434   3.352   3.378  1.3738  0.8300 -2.7319
 1938Sol     MW10906   1.505   3.359   3.433  0.4536  0.4418 -0.2998
 1939Sol     OW10907   1.433   2.006   3.691  0.4487  0.2732 -0.8168
 1939Sol     HW10908   1.484   2.083   3.666  1.0853 -0.3521 -1.4468
 1939Sol     HW10909   1.458   1.989   3.782 -1.3414  2.1174  0.0800
 1939Sol     MW10910   1.440   2.012   3.697  0.3660 -0.4543  0.4325
 1940Sol     OW10911   2.010   1.921   5.769  0.1840  0.0132  0.1665
 1940Sol     HW10912   2.064   1.996   5.742  0.1272 -0.2315 -0.6394
 1940Sol     HW10913   2.072   1.848   5.770  0.0140 -0.1305 -0.0582
 1940Sol     MW10914   2.021   1.921   5.767  0.5216 -0.7552 -0.3666
 1941Sol     OW10915   1.698   0.630   4.578  0.3847  0.2495  0.1797
 1941Sol     HW10916   1.792   0.649   4.571  0.6165 -0.6297  0.7578
 1941Sol     HW10917   1.686   0.604   4.670 -0.3856  0.1728  0.0571
 1941Sol     MW10918   1.706   0.629   4.586 -0.3434  0.6360 -0.3304
 1942Sol     OW10919   0.245   0.290   6.511  0.0692 -0.2988  0.7025
 1942Sol     HW10920   0.159   0.329   6.499 -0.6225 -2.2312 -0.9904
 1942Sol     HW10921   0.233   0.224   6.579  0.6412  0.5831  1.6908
 1942Sol     MW10922   0.237   0.287   6.516  0.2064  0.0781 -0.4005
 1943Sol     OW10923   0.640   2.702   7.743  0.7997 -0.3324 -0.4529
 1943Sol     HW10924   0.609   2.618   7.710 -1.9375 -0.6015  2.5667
 1943Sol     HW10925   0.602   2.767   7.684 -1.6311 -0.9507  0.3948
 1943Sol     MW10926   0.634   2.700   7.735 -0.0461  0.3545 -0.0083
 1944Sol     OW10927   1.453   2.969   3.248  0.4007  0.4039  0.3625
 1944Sol     HW10928   1.548   2.957   3.240  0.5228  1.6391 -0.0600
 1944Sol     HW10929   1.416   2.912   3.181  0.7696 -1.1096  1.4059
 1944Sol     MW10930   1.458   2.963   3.241 -0.4954  0.6258 -0.3334
 1945Sol     OW10931   1.351   3.288   8.487  0.1644  0.3770  0.2464
 1945Sol     HW10932   1.409   3.351   8.445  1.0700  0.0189  0.9480
 1945Sol     HW10933   1.297   3.340   8.546 -0.3971  0.7416 -0.5817
 1945Sol     MW10934   1.351   3.298   8.489 -0.2878 -0.2629  0.1370
 1946Sol     OW10935   1.442   2.356   7.816  0.5415 -0.1796  0.1087
 1946Sol     HW10936   1.483   2.425   7.868 -3.2898  0.9817  1.7266
 1946Sol     HW10937   1.424   2.398   7.731 -0.0034  0.2189  0.4194
 1946Sol     MW10938   1.444   2.366   7.813  0.5885  0.1038  1.2961
 1947Sol     OW10939   0.476   0.407   7.244  0.3524 -0.2618 -0.5010
 1947Sol     HW10940   0.477   0.315   7.272 -0.0609  0.9801  4.0258
 1947Sol     HW10941   0.568   0.427   7.227  0.8037 -0.8219  1.1677
 1947Sol     MW10942   0.485   0.401   7.245 -0.1220 -0.7109 -0.2607
 1948Sol     OW10943   2.776   2.205   7.357 -0.8065  0.5647  0.0078
 1948Sol     HW10944   2.767   2.146   7.282 -0.2226 -0.5665  0.8148
 1948Sol     HW10945   2.870   2.219   7.365 -0.8119  0.0290  1.0280
 1948Sol     MW10946   2.784   2.201   7.351  0.0109 -0.1827 -0.3059
 1949Sol     OW10947   1.566   2.603   7.928 -0.1690 -0.4187 -0.9960
 1949Sol     HW10948   1.647   2.585   7.976 -0.6851 -1.4448 -0.4975
 1949Sol     HW10949   1.499   2.611   7.995 -0.4583  0.6319 -1.3972
 1949Sol     MW10950   1.567   2.602   7.938  0.2874 -0.1196 -0.2291
 1950Sol     OW10951   3.134   3.430   7.304  0.1698 -0.3391 -0.4332
 1950Sol     HW10952   3.085   3.349   7.289  0.7768 -0.6748 -0.6487
 1950Sol     HW10953   3.079   3.499   7.268  0.3553 -0.8254 -1.6821
 1950Sol     MW10954   3.125   3.429   7.300  0.3380  0.2581 -0.2808
 1951Sol     OW10955   2.161   0.946   7.794 -0.0065  0.3256 -0.2134
 1951Sol     HW10956   2.127   0.998   7.721 -1.6624 -1.8295 -1.0246
 1951Sol     HW10957   2.201   1.010   7.853  0.3804  2.2114 -2.4730
 1951Sol     MW10958   2.162   0.956   7.793 -0.5410  0.5994  0.1014
 1952Sol     OW10959   1.861   1.596   5.874  0.3373 -0.3341  0.2274
 1952Sol     HW10960   1.863   1.506   5.841  0.7343 -1.0523  2.1707
 1952Sol     HW10961   1.934   1.600   5.936  0.4460  1.3998  0.0037
 1952Sol     MW10962   1.868   1.588   5.876  0.1956 -0.1815  0.5175
 1953Sol     OW10963   0.977   0.103   6.201  0.3971  0.4520  0.4125
 1953Sol     HW10964   0.907   0.048   6.166  0.5594 -0.1591  1.0481
 1953Sol     HW10965   0.945   0.193   6.187 -0.3713  0.1867  0.4189
 1953Sol     MW10966   0.967   0.106   6.196 -0.2864  0.9977 -0.1622
 1954Sol     OW10967   1.324   2.520   5.842  0.5712 -0.3354  0.1003
 1954Sol     HW10968   1.340   2.482   5.756  1.0900  1.0897 -0.4460
 1954Sol     HW10969   1.229   2.514   5.853  0.7261 -2.5369  0.3948
 1954Sol     MW10970   1.316   2.516   5.835  0.0609 -0.1532  0.2975
 1955Sol     OW10971   2.505   2.318   7.843  0.3911  0.3653 -0.1246
 1955Sol     HW10972   2.475   2.239   7.799 -0.1792  1.6506 -2.1312
 1955Sol     HW10973   2.424   2.364   7.867  0.7133  1.4597 -1.0945
 1955Sol     MW10974   2.495   2.315   7.842  0.1377  0.2041  0.0097
 1956Sol     OW10975   0.175   2.205   6.274 -0.2028 -0.0561 -0.2318
 1956Sol     HW10976   0.250   2.154   6.305 -0.7583 -1.1691 -0.6593
 1956Sol     HW10977   0.137   2.244   6.353  1.3650  1.2852 -0.1234
 1956Sol     MW10978   0.178   2.204   6.284 -0.3928  0.0010 -0.4074
 1957Sol     OW10979   3.215   0.866   9.398  0.4361  0.1509  0.5050
 1957Sol     HW10980   3.295   0.814   9.407  0.0510 -0.2396  1.6390
 1957Sol     HW10981   3.246   0.956   9.386  1.0423 -0.0376  0.6801
 1957Sol     MW10982   3.225   0.869   9.397 -0.1724 -0.0142 -0.3652
 1958Sol     OW10983   1.742   1.620   3.367  0.4140  0.2389 -0.1387
 1958Sol     HW10984   1.722   1.636   3.459 -1.0535  0.1640 -0.4315
 1958Sol     HW10985   1.803   1.547   3.369  2.0956  1.6330  0.8719
 1958Sol     MW10986   1.745   1.615   3.375  0.8433 -0.0083  0.7843
 1959Sol     OW10987   1.104   0.905   5.037  0.2051  0.0693  0.3383
 1959Sol     HW10988   1.183   0.934   5.082  0.9602  0.7178 -1.3442
 1959Sol     HW10989   1.076   0.827   5.085  2.0681 -0.3693  0.7515
 1959Sol     MW10990   1.109   0.900   5.045 -0.3074 -0.2424  0.0199
 1960Sol     OW10991   2.804   0.594   6.648 -0.0558 -0.0528  0.4948
 1960Sol     HW10992   2.782   0.506   6.619  1.9194 -0.3839 -0.0156
 1960Sol     HW10993   2.732   0.648   6.616 -0.2187 -1.1366 -1.0081
 1960Sol     MW10994   2.795   0.591   6.643 -0.0606 -0.0408 -0.5390
 1961Sol     OW10995   0.892   2.821   9.517 -0.1640  0.2622  0.6535
 1961Sol     HW10996   0.863   2.736   9.482  0.0542  0.3526  0.2517
 1961Sol     HW10997   0.974   2.801   9.562 -0.8938 -0.0170  1.8975
 1961Sol     MW10998   0.897   2.811   9.518 -0.5796 -0.2058 -0.4414
 1962Sol     OW10999   0.020   1.864   8.396 -0.8018 -0.1350  0.4047
 1962Sol     HW11000  -0.038   1.839   8.324 -0.9165  1.7026 -0.1660
 1962Sol     HW11001  -0.039   1.878   8.470 -0.7676 -1.2193  0.6437
 1962Sol     MW11002   0.010   1.863   8.396 -0.0072  0.0602 -0.3529
 1963Sol     OW11003   1.305   2.525   3.136 -0.3993 -0.1496  0.1933
 1963Sol     HW11004   1.368   2.453   3.135 -0.9200 -0.6057 -0.5824
 1963Sol     HW11005   1.224   2.486   3.170 -0.4657  0.2609  0.5133
 1963Sol     MW11006   1.303   2.516   3.139  0.0303 -0.1703 -0.1827
 1964Sol     OW11007   0.114   1.214   2.571 -0.1836 -0.2176 -0.1220
 1964Sol     HW11008   0.054   1.146   2.603 -0.3783  0.1566  0.3009
 1964Sol     HW11009   0.169   1.235   2.647 -0.4045  0.4062 -0.1359
 1964Sol     MW11010   0.114   1.209   2.581  0.4792 -0.6065  0.1343
 1965Sol     OW11011   1.335   0.265   8.291 -0.1527 -0.1324  0.3263
 1965Sol     HW11012   1.244   0.261   8.321  0.2841 -1.4373  1.4997
 1965Sol     HW11013   1.338   0.343   8.235 -1.6289  0.8099  1.5269
 1965Sol     MW11014   1.327   0.272   8.289 -0.1211  0.8473 -0.0620
 1966Sol     OW11015   1.550   2.558   4.516 -0.7641  0.0680  0.0288
 1966Sol     HW11016   1.520   2.629   4.458 -0.1607 -0.6359 -1.1476
 1966Sol     HW11017   1.628   2.524   4.474 -0.6565 -0.8451  0.9624
 1966Sol     MW11018   1.554   2.562   4.507  0.3785 -0.3226  0.1340
 1967Sol     OW11019   0.242   1.550   4.708 -0.7549 -0.0864 -0.4747
 1967Sol     HW11020   0.295   1.529   4.631  0.8084 -2.2875  1.1503
 1967Sol     HW11021   0.285   1.625   4.747  1.7723 -2.4013  1.3308
 1967Sol     MW11022   0.250   1.555   4.704 -0.3875  0.2287  0.3942
 1968Sol     OW11023   0.258   2.779   5.528  0.0937 -0.6083  0.0515
 1968Sol     HW11024   0.246   2.700   5.579 -1.8567 -0.4769 -0.1626
 1968Sol     HW11025   0.353   2.790   5.522  0.3571 -1.0043  3.0144
 1968Sol     MW11026   0.265   2.773   5.532 -0.3957 -0.6141 -0.2171
 1969Sol     OW11027   3.259   2.417   7.972 -0.5989  0.3446 -0.6331
 1969Sol     HW11028   3.223   2.370   8.047 -0.8510 -0.4198 -1.2205
 1969Sol     HW11029   3.228   2.507   7.981 -0.1647  0.3895  0.4761
 1969Sol     MW11030   3.253   2.421   7.979 -0.2766 -0.0209 -0.1474
 1970Sol     OW11031   0.466   2.799   6.807  0.4371  0.0384  0.1959
 1970Sol     HW11032   0.548   2.818   6.852  1.2982 -2.7701 -0.0430
 1970Sol     HW11033   0.419   2.741   6.867 -0.3397 -0.2321 -0.6705
 1970Sol     MW11034   0.469   2.795   6.816 -0.4962 -0.2977 -0.6759
 1971Sol     OW11035   2.980   0.241   3.702 -0.0289  0.3079 -0.6380
 1971Sol     HW11036   3.043   0.313   3.707  0.2365 -0.0803  2.8035
 1971Sol     HW11037   2.909   0.266   3.762 -0.1495 -2.0408  0.2674
 1971Sol     MW11038   2.979   0.249   3.708 -0.0207 -0.1389  0.4536
 1972Sol     OW11039   1.227   0.487   6.312  0.3115  0.7416  0.3250
 1972Sol     HW11040   1.197   0.400   6.285 -1.2921  1.3331  0.1363
 1972Sol     HW11041   1.309   0.501   6.265  0.0635 -0.2578 -0.4001
 1972Sol     MW11042   1.231   0.481   6.306 -0.3529 -0.1448 -0.7711
 1973Sol     OW11043   1.483   1.503   5.851  0.0515  0.1856  0.1791
 1973Sol     HW11044   1.542   1.475   5.782 -1.1902 -2.1191  0.0042
 1973Sol     HW11045   1.540   1.531   5.922  1.3440  2.1926 -1.5704
 1973Sol     MW11046   1.493   1.503   5.851 -0.7295  0.4784 -0.1505
 1974Sol     OW11047   1.019   1.893   9.269  0.2987  0.3138 -0.2948
 1974Sol     HW11048   1.027   1.960   9.201  0.3379  1.2994  0.6748
 1974Sol     HW11049   0.937   1.913   9.314  0.1591 -0.4705 -0.1807
 1974Sol     MW11050   1.012   1.900   9.267 -0.1646  0.4951  0.5307
 1975Sol     OW11051   2.351   2.939   4.100 -0.0506 -0.1772  0.0444
 1975Sol     HW11052   2.265   2.952   4.059  0.6717  0.3275 -1.3322
 1975Sol     HW11053   2.342   2.979   4.187 -0.2723  2.6640 -1.2377
 1975Sol     MW11054   2.342   2.944   4.104 -0.0886  0.0589  0.1533
 1976Sol     OW11055   0.008   2.267   9.258  0.1948 -0.4693  0.0525
 1976Sol     HW11056   0.021   2.175   9.234 -0.4875 -0.2077 -1.4061
 1976Sol     HW11057  -0.084   2.284   9.236  1.0726  1.3376 -2.4984
 1976Sol     MW11058   0.000   2.260   9.254  0.0377 -0.0259  0.6116
 1977Sol     OW11059   1.171   1.483  10.045 -0.0151  0.3147 -0.0719
 1977Sol     HW11060   1.158   1.498  10.139 -0.4627  0.3010 -0.1349
 1977Sol     HW11061   1.118   1.550  10.003  1.1370  1.1062 -0.3030
 1977Sol     MW11062   1.165   1.491  10.050 -0.2524 -0.0052 -0.4731
 1978Sol     OW11063   3.278   2.736   5.799 -0.0995 -1.1385  0.4744
 1978Sol     HW11064   3.320   2.816   5.766 -1.1651 -0.4470  0.7673
 1978Sol     HW11065   3.322   2.720   5.883  1.1759 -1.7401 -0.2817
 1978Sol     MW11066   3.286   2.742   5.804 -0.2748  1.0961 -0.2592
 1979Sol     OW11067   0.650   0.023   5.442  0.5504 -0.4950 -0.0523
 1979Sol     HW11068   0.668  -0.070   5.425 -0.0915 -0.5494 -0.4183
 1979Sol     HW11069   0.671   0.067   5.360  2.5350 -0.0854  0.6492
 1979Sol     MW11070   0.654   0.018   5.433  0.1638 -0.5853  0.0563
 1980Sol     OW11071   1.061   0.021   3.070 -0.5528 -0.4009 -0.0846
 1980Sol     HW11072   1.020  -0.059   3.104  0.9829 -1.2488 -0.2056
 1980Sol     HW11073   1.147  -0.007   3.040 -0.1403  1.2407 -0.4631
 1980Sol     MW11074   1.065   0.011   3.070  0.1660 -0.5195  0.3629
 1981Sol     OW11075   1.097   2.128   4.995 -0.1722 -0.2269  0.0302
 1981Sol     HW11076   1.128   2.190   4.928  0.4982  0.6709  1.1441
 1981Sol     HW11077   1.103   2.177   5.077 -1.3406 -1.1920  0.7054
 1981Sol     MW11078   1.100   2.138   4.996  0.1617  0.7283  0.1461
 1982Sol     OW11079   0.829   0.380   9.634 -0.2725  0.0935 -0.1761
 1982Sol     HW11080   0.768   0.440   9.675 -0.3451 -0.4685  0.5710
 1982Sol     HW11081   0.788   0.294   9.644  1.1843 -0.4420  1.4349
 1982Sol     MW11082   0.820   0.377   9.639 -0.8489 -0.5166  0.0104
 1983Sol     OW11083   2.237   0.114   8.129 -0.3905 -0.4908  0.2120
 1983Sol     HW11084   2.272   0.172   8.197 -0.1390  0.3543 -0.6350
 1983Sol     HW11085   2.142   0.117   8.140 -0.3648 -0.1064  0.3278
 1983Sol     MW11086   2.232   0.119   8.136  0.4741  0.1774 -0.0693
 1984Sol     OW11087   1.998   1.801   2.563 -0.2782 -0.1770  0.5585
 1984Sol     HW11088   2.091   1.794   2.580 -0.6971 -0.7971  2.7132
 1984Sol     HW11089   1.989   1.878   2.507  1.5372 -0.2714  0.1181
 1984Sol     MW11090   2.005   1.807   2.559  0.2224 -0.2992  0.4131
 1985Sol     OW11091   0.631   1.428   3.510 -0.0996  0.1764 -0.0179
 1985Sol     HW11092   0.635   1.504   3.569  0.2237  0.4887 -0.4411
 1985Sol     HW11093   0.578   1.364   3.558 -0.2042  0.5906  0.4298
 1985Sol     MW11094   0.626   1.429   3.520 -0.3191  0.8272 -0.6905
 1986Sol     OW11095   2.609   2.282   8.179 -1.0557 -0.2270 -0.3700
 1986Sol     HW11096   2.692   2.305   8.221 -1.4271 -1.5636  1.1416
 1986Sol     HW11097   2.597   2.349   8.111 -0.0016  1.4553  1.0733
 1986Sol     MW11098   2.615   2.290   8.176 -0.5431  1.1646  0.1844
 1987Sol     OW11099   1.478   2.214   8.099 -0.3782 -0.0845 -0.3727
 1987Sol     HW11100   1.438   2.156   8.035  1.5308 -0.9779 -0.7933
 1987Sol     HW11101   1.567   2.227   8.068 -0.5296  2.4682  0.1428
 1987Sol     MW11102   1.482   2.210   8.091 -0.1041 -0.7255 -0.2482
 1988Sol     OW11103   1.815   3.170   3.200 -0.2487 -0.0992  0.3925
 1988Sol     HW11104   1.807   3.242   3.138 -0.9672 -0.5133  0.0011
 1988Sol     HW11105   1.909   3.167   3.221  0.0788 -0.2784 -1.0574
 1988Sol     MW11106   1.823   3.176   3.196 -0.1971  0.3490  0.6611
 1989Sol     OW11107   2.568   3.340   4.252  0.3694  0.1530 -0.0466
 1989Sol     HW11108   2.490   3.342   4.308 -1.6114 -1.1883 -2.6217
 1989Sol     HW11109   2.622   3.271   4.289 -0.6566 -0.3613  0.5236
 1989Sol     MW11110   2.566   3.334   4.260 -0.3927  0.3738  0.0478
 1990Sol     OW11111   1.933   0.116   9.125  0.1304 -0.9500  0.1042
 1990Sol     HW11112   1.928   0.211   9.110  1.6273 -0.4296  2.7267
 1990Sol     HW11113   1.855   0.081   9.081 -0.1200  1.4166 -1.4069
 1990Sol     MW11114   1.925   0.121   9.120 -0.2985  0.0372 -0.0922
 1991Sol     OW11115   1.274   2.533   3.870  0.5093  0.0177  0.0383
 1991Sol     HW11116   1.310   2.568   3.952 -0.4156  3.1011 -0.8174
 1991Sol     HW11117   1.181   2.553   3.874  0.3356 -0.4103 -1.4792
 1991Sol     MW11118   1.269   2.538   3.878 -0.2059 -0.7322  0.1669
 1992Sol     OW11119   0.272   2.685   8.992  0.0350 -0.0889  0.4926
 1992Sol     HW11120   0.284   2.780   8.997 -0.6106  0.0437 -0.4428
 1992Sol     HW11121   0.360   2.650   9.000  0.3413  0.6156  0.2738
 1992Sol     MW11122   0.281   2.691   8.994  0.0526 -0.3103  0.2017
 1993Sol     OW11123   0.005   2.742   9.065  0.5631 -0.0880 -0.3805
 1993Sol     HW11124   0.023   2.764   9.156 -1.0939 -0.8137  0.1284
 1993Sol     HW11125   0.091   2.725   9.027  1.2159 -0.3633  1.1943
 1993Sol     MW11126   0.014   2.743   9.070 -0.3129  1.1042  0.4543
 1994Sol     OW11127   1.568   2.314   6.160 -0.0502  0.2714  0.3242
 1994Sol     HW11128   1.523   2.279   6.238 -0.2895 -1.1820 -0.4527
 1994Sol     HW11129   1.514   2.389   6.134 -0.2818  0.4334  1.2328
 1994Sol     MW11130   1.559   2.318   6.165 -0.0019  0.5635 -0.6306
 1995Sol     OW11131   0.005   2.132   2.360 -0.1917  0.4571  0.1354
 1995Sol     HW11132   0.068   2.086   2.305 -1.6780 -0.7672 -0.5847
 1995Sol     HW11133   0.007   2.085   2.443 -0.4412  0.1626 -0.0234
 1995Sol     MW11134   0.011   2.124   2.363  0.7014 -0.5084  0.7097
 1996Sol     OW11135   0.610   0.679   5.785 -0.5029  0.7880  0.2456
 1996Sol     HW11136   0.593   0.761   5.739 -1.5132  0.4447 -0.0158
 1996Sol     HW11137   0.614   0.613   5.715 -0.0496  0.5636  0.4835
 1996Sol     MW11138   0.609   0.681   5.774 -0.3130 -0.3668 -0.1116
 1997Sol     OW11139   1.179   1.715   5.676 -0.1916  0.2514  0.1327
 1997Sol     HW11140   1.138   1.801   5.663 -0.7667  0.1712  1.3736
 1997Sol     HW11141   1.245   1.730   5.744  0.8794  0.0675 -0.8504
 1997Sol     MW11142   1.181   1.724   5.681  0.5588 -0.0841 -0.7710
 1998Sol     OW11143   0.280   0.671   8.979  0.2184 -0.4276 -0.0735
 1998Sol     HW11144   0.350   0.736   8.970 -1.0200  0.8545 -0.5233
 1998Sol     HW11145   0.204   0.711   8.936 -0.7598 -1.8694  0.2861
 1998Sol     MW11146   0.280   0.680   8.974 -0.2739  0.1533  0.0881
 1999Sol     OW11147   2.986   0.312   2.087  0.0539  0.3195  0.0556
 1999Sol     HW11148   2.955   0.270   2.167 -0.5621 -0.3885 -0.5553
 1999Sol     HW11149   2.937   0.270   2.017 -0.0212  1.5209 -0.6279
 1999Sol     MW11150   2.979   0.305   2.088 -0.7397  0.2565 -0.2711
 2000Sol     OW11151   0.121   2.051   2.613  0.9968  0.5400 -0.7234
 2000Sol     HW11152   0.118   2.147   2.617 -0.5943  0.4508  0.4132
 2000Sol     HW11153   0.127   2.024   2.704  0.2325 -0.4859 -0.9759
 2000Sol     MW11154   0.122   2.058   2.621 -0.1706  0.2695 -0.2830
 2001Sol     OW11155   2.463   0.786   2.227  0.2360  0.2077 -0.4952
 2001Sol     HW11156   2.468   0.780   2.322 -1.1279 -1.8811 -0.5266
 2001Sol     HW11157   2.522   0.717   2.196  1.1580  1.2851 -1.1888
 2001Sol     MW11158   2.469   0.779   2.233 -0.5694  0.2552  0.2179
 2002Sol     OW11159   1.568   3.197   5.126  0.7321  0.1824 -0.3081
 2002Sol     HW11160   1.620   3.130   5.080  0.2982  0.7645 -1.6669
 2002Sol     HW11161   1.521   3.243   5.057  0.8565  1.7702  0.6294
 2002Sol     MW11162   1.568   3.195   5.116  0.0570 -0.3407  0.3299
 2003Sol     OW11163   1.214   0.752   4.088  0.1191 -0.0878 -0.0400
 2003Sol     HW11164   1.242   0.750   3.996  0.0521 -0.5927 -0.0546
 2003Sol     HW11165   1.251   0.672   4.125 -0.6698 -0.3751  0.1264
 2003Sol     MW11166   1.220   0.745   4.083 -0.1942  0.5302  0.0561
 2004Sol     OW11167   3.027   3.001   6.972  0.7299  0.1955 -0.3110
 2004Sol     HW11168   3.116   3.019   6.940  1.3314 -1.1278  0.5446
 2004Sol     HW11169   2.976   2.983   6.893  1.7044 -0.9775 -0.7003
 2004Sol     MW11170   3.031   3.001   6.962 -0.0731  0.3991  0.3945
 2005Sol     OW11171   2.006   1.771   4.353  0.2287 -0.3571 -0.2376
 2005Sol     HW11172   2.041   1.859   4.344  0.2582 -0.5236 -1.7798
 2005Sol     HW11173   2.080   1.713   4.335 -0.1000 -0.6987 -0.5031
 2005Sol     MW11174   2.015   1.774   4.351 -0.2133  0.2129  0.1076
 2006Sol     OW11175   1.392   2.662   8.129  0.1511 -0.4425  0.2760
 2006Sol     HW11176   1.444   2.680   8.208 -3.0838  0.8954  2.1932
 2006Sol     HW11177   1.343   2.582   8.151  0.7544 -1.2506 -1.2134
 2006Sol     MW11178   1.392   2.656   8.138  0.5603 -0.1104 -0.3514
 2007Sol     OW11179   1.630   2.060   4.622 -0.2081 -0.2978 -0.2984
 2007Sol     HW11180   1.699   2.110   4.666  0.0437 -0.2745 -0.7160
 2007Sol     HW11181   1.593   2.004   4.690  0.9792 -1.1301 -0.3303
 2007Sol     MW11182   1.633   2.060   4.632  0.3180 -0.0678 -0.1848
 2008Sol     OW11183   2.688   2.509   8.746 -0.5800 -0.5152 -0.3709
 2008Sol     HW11184   2.670   2.494   8.653 -0.0920  0.5637 -0.6524
 2008Sol     HW11185   2.778   2.541   8.748 -0.7853  0.0247  0.4164
 2008Sol     MW11186   2.694   2.511   8.738 -0.5853 -0.0516 -0.3966
 2009Sol     OW11187   3.044   0.288   6.659 -0.0008  0.2673 -0.2053
 2009Sol     HW11188   3.078   0.369   6.698  0.4871  0.2449 -0.5868
 2009Sol     HW11189   3.105   0.220   6.688  0.1447  0.1901 -0.6895
 2009Sol     MW11190   3.053   0.289   6.666 -0.0533  0.5800 -0.1093
 2010Sol     OW11191   3.013   2.862   5.694  0.6159  0.2784 -0.3954
 2010Sol     HW11192   3.093   2.859   5.746 -0.0157  0.8654  0.6290
 2010Sol     HW11193   2.946   2.895   5.755 -0.6125 -1.1377 -0.9460
 2010Sol     MW11194   3.014   2.864   5.704 -0.3248 -0.4607 -0.0467
 2011Sol     OW11195   0.239   2.868   6.188  0.1375 -0.3876 -0.1561
 2011Sol     HW11196   0.216   2.853   6.280  0.7928 -0.5569 -0.0148
 2011Sol     HW11197   0.193   2.948   6.164 -2.1620 -1.7612 -0.4529
 2011Sol     MW11198   0.233   2.874   6.194 -0.2829  0.2926 -0.2696
 2012Sol     OW11199   1.914   1.930   6.591 -0.3562 -0.2143 -0.4598
 2012Sol     HW11200   1.836   1.891   6.630 -0.3873  0.1418 -0.1607
 2012Sol     HW11201   1.893   1.938   6.498 -0.9122  0.4427 -0.2796
 2012Sol     MW11202   1.905   1.927   6.586  0.1070 -0.6768  0.1792
 2013Sol     OW11203   3.159   0.996   6.807 -0.4071  0.1478 -0.6438
 2013Sol     HW11204   3.113   1.079   6.793 -0.3047  0.2183 -0.5650
 2013Sol     HW11205   3.237   1.021   6.857 -1.2273 -0.2215  0.8546
 2013Sol     MW11206   3.162   1.006   6.810  0.4336 -0.4191 -0.2271
 2014Sol     OW11207   1.527   2.272   9.219 -1.1711 -0.1892 -0.5476
 2014Sol     HW11208   1.562   2.197   9.267 -0.1590  0.3869 -0.3660
 2014Sol     HW11209   1.439   2.246   9.195 -1.9687 -0.2196  2.2571
 2014Sol     MW11210   1.523   2.263   9.221  0.0674  0.1294 -0.3027
 2015Sol     OW11211   0.678   1.934   2.010 -0.1125  0.6462 -0.1052
 2015Sol     HW11212   0.616   1.900   2.075 -0.5055 -1.2897 -1.4212
 2015Sol     HW11213   0.691   1.861   1.949  0.6472  2.2275 -1.9052
 2015Sol     MW11214   0.673   1.924   2.010 -0.4074  0.2827  0.3113
 2016Sol     OW11215   0.978   0.125   8.446  0.4753  0.1424 -0.3815
 2016Sol     HW11216   0.940   0.109   8.359 -0.8672 -0.3782  0.3007
 2016Sol     HW11217   0.994   0.220   8.448  1.1915  0.0497 -1.4728
 2016Sol     MW11218   0.976   0.132   8.438  0.4490 -0.7078  0.2247
 2017Sol     OW11219   0.708   3.253   3.204  0.3397 -0.5228  0.3636
 2017Sol     HW11220   0.703   3.208   3.119 -1.0046 -0.6460  0.4939
 2017Sol     HW11221   0.669   3.339   3.187  2.3821  0.3978  0.2516
 2017Sol     MW11222   0.704   3.257   3.195  0.5486 -0.5765 -0.2876
 2018Sol     OW11223   3.138   1.302   9.127 -0.8949  0.2890 -0.1844
 2018Sol     HW11224   3.151   1.393   9.099  1.5327 -0.4664 -1.6422
 2018Sol     HW11225   3.149   1.250   9.048  2.4998 -1.6083  1.4232
 2018Sol     MW11226   3.140   1.306   9.118  0.2913 -0.1454  0.2906
 2019Sol     OW11227   0.366   1.015   8.104 -0.7943 -0.4462 -0.0493
 2019Sol     HW11228   0.306   1.090   8.097 -2.2178 -1.6654 -1.1736
 2019Sol     HW11229   0.315   0.947   8.147  0.7569 -0.5530  1.7104
 2019Sol     MW11230   0.356   1.016   8.107  0.1814 -0.0166 -0.0339
 2020Sol     OW11231   0.853   2.819   3.309 -0.1004  0.0617  0.2590
 2020Sol     HW11232   0.892   2.840   3.224  1.6564  2.1318  1.5128
 2020Sol     HW11233   0.826   2.727   3.301  2.4644 -0.5976 -1.6493
 2020Sol     MW11234   0.855   2.812   3.301 -0.2007 -0.4372 -0.4158
 2021Sol     OW11235   1.918   2.935   7.336  0.8030  0.3908  0.3236
 2021Sol     HW11236   1.934   2.936   7.241  2.5102  1.1417  0.5923
 2021Sol     HW11237   1.874   2.852   7.352 -0.9480  0.9573 -1.3440
 2021Sol     MW11238   1.916   2.927   7.329 -0.6381 -0.1093 -0.1394
 2022Sol     OW11239   2.597   0.186   2.349 -0.1177 -0.8355  0.0275
 2022Sol     HW11240   2.574   0.131   2.424 -0.2420 -1.4130 -0.4251
 2022Sol     HW11241   2.570   0.135   2.273  0.6878 -0.5830 -0.4396
 2022Sol     MW11242   2.593   0.176   2.349 -0.3818 -0.4746  0.9152
 2023Sol     OW11243   3.296   0.390   8.040 -0.2832  0.0287  0.3404
 2023Sol     HW11244   3.383   0.388   7.998 -0.3153  0.4392  0.2555
 2023Sol     HW11245   3.269   0.298   8.042  0.7609 -0.2648  1.6334
 2023Sol     MW11246   3.302   0.381   8.036  0.2109  0.3849  0.3023
 2024Sol     OW11247   2.332   3.246   2.658  0.0668  0.0042 -0.3314
 2024Sol     HW11248   2.353   3.287   2.574  0.1662 -0.3144 -0.4664
 2024Sol     HW11249   2.416   3.238   2.703  0.0794 -0.2283 -0.3912
 2024Sol     MW11250   2.341   3.249   2.654  0.1985  0.3260 -0.0652
 2025Sol     OW11251   0.623   2.824   6.589 -0.6552  0.6079 -0.2202
 2025Sol     HW11252   0.565   2.806   6.662 -0.2275  1.7699  0.4182
 2025Sol     HW11253   0.710   2.832   6.629  0.1149 -1.9217 -1.2480
 2025Sol     MW11254   0.626   2.823   6.599  0.2976  0.3246  1.0340
 2026Sol     OW11255   2.777   0.405   7.654  0.2901 -0.3012 -0.2685
 2026Sol     HW11256   2.816   0.485   7.618 -0.5428 -0.3468 -1.3067
 2026Sol     HW11257   2.825   0.389   7.735 -1.3019  2.7164  1.3446
 2026Sol     MW11258   2.785   0.411   7.658 -0.1768  0.1847  0.4806
 2027Sol     OW11259   0.182   2.068   5.301  0.0947 -0.5091  0.2494
 2027Sol     HW11260   0.092   2.071   5.336  0.8654 -0.4481  2.3267
 2027Sol     HW11261   0.219   2.153   5.324  0.8699 -0.7567 -0.0744
 2027Sol     MW11262   0.177   2.076   5.306 -0.2756 -0.0032  0.3845
 2028Sol     OW11263   1.335   1.541   2.618 -0.0347  0.2987 -0.7149
 2028Sol     HW11264   1.308   1.552   2.527 -1.4654 -1.1958 -0.5014
 2028Sol     HW11265   1.286   1.464   2.648 -0.4214  1.4401  1.6490
 2028Sol     MW11266   1.328   1.535   2.612  0.9584  0.1531  0.4237
 2029Sol     OW11267   1.035   1.040   2.820 -0.6021  0.1750  0.1787
 2029Sol     HW11268   1.071   1.017   2.906  0.1470 -0.1670 -0.2256
 2029Sol     HW11269   1.003   1.129   2.830  0.3432  0.4703  0.5417
 2029Sol     MW11270   1.035   1.046   2.829  0.3155 -0.5089 -0.9067
 2030Sol     OW11271   1.011   0.763   4.449 -0.6291 -0.0439 -0.3548
 2030Sol     HW11272   0.980   0.853   4.459  1.4621  0.7761 -0.9125
 2030Sol     HW11273   1.104   0.766   4.473 -0.8579 -2.3562  1.0314
 2030Sol     MW11274   1.017   0.771   4.452  0.0134 -0.3195 -0.2972
 2031Sol     OW11275   2.774   0.374   9.309 -0.2130  0.6196  0.4611
 2031Sol     HW11276   2.826   0.414   9.238 -1.3785  1.1938 -0.0785
 2031Sol     HW11277   2.716   0.312   9.265 -0.6508  0.6716  0.9607
 2031Sol     MW11278   2.774   0.372   9.298  0.3009  0.1392 -0.2441
 2032Sol     OW11279   0.471   1.674   2.670 -0.3929 -0.0385 -0.3654
 2032Sol     HW11280   0.416   1.606   2.632 -0.8497  0.3600 -0.4207
 2032Sol     HW11281   0.427   1.697   2.752  0.8051 -1.1837  0.6157
 2032Sol     MW11282   0.462   1.670   2.674 -0.1792  0.2198  0.0485
 2033Sol     OW11283   0.556   2.022   4.292  0.0555  0.4632 -0.2738
 2033Sol     HW11284   0.638   1.979   4.313 -1.4093 -1.9920  0.5672
 2033Sol     HW11285   0.561   2.039   4.198  2.2228  1.9462  0.0821
 2033Sol     MW11286   0.563   2.020   4.285 -0.2422 -0.1716  0.5763
 2034Sol     OW11287   0.403   1.858   5.109  0.2250 -0.0073 -0.6489
 2034Sol     HW11288   0.327   1.835   5.161  0.5398 -1.1473 -0.6864
 2034Sol     HW11289   0.386   1.948   5.080 -0.8034 -0.0319 -0.1334
 2034Sol     MW11290   0.395   1.864   5.111 -0.8405  0.1234  0.5020
 2035Sol     OW11291   2.470   2.793   9.028  0.3464  0.6889  0.3469
 2035Sol     HW11292   2.441   2.883   9.044  0.3842  0.9047 -0.7494
 2035Sol     HW11293   2.461   2.749   9.113 -1.8494  1.1085  0.3505
 2035Sol     MW11294   2.467   2.797   9.037  0.1614 -0.2566 -0.2041
 2036Sol     OW11295   2.094   0.504   9.287  0.6374 -1.4090 -0.0938
 2036Sol     HW11296   2.120   0.460   9.367  1.0292  0.5996  0.9272
 2036Sol     HW11297   2.146   0.585   9.286 -2.1804  0.4615 -0.3736
 2036Sol     MW11298   2.101   0.508   9.294 -0.2154  0.0355  0.0842
 2037Sol     OW11299   0.455   2.588   2.630  0.3165  0.2453 -0.1260
 2037Sol     HW11300   0.449   2.675   2.669  2.3536  0.0727  0.6348
 2037Sol     HW11301   0.504   2.536   2.694  0.8265 -0.9274 -1.4437
 2037Sol     MW11302   0.459   2.591   2.639  0.1174  0.0454 -0.0882
 2038Sol     OW11303   1.587   1.510   5.331 -0.1544  0.4784 -0.3684
 2038Sol     HW11304   1.611   1.566   5.405 -0.4827 -0.0350  0.1314
 2038Sol     HW11305   1.492   1.501   5.338 -0.0060 -0.8382  0.0677
 2038Sol     MW11306   1.581   1.514   5.338  0.2349 -0.1548  0.6724
 2039Sol     OW11307   0.526   3.326   1.830 -0.1950 -0.0507  0.3624
 2039Sol     HW11308   0.494   3.352   1.744 -0.5511  0.2951  0.5985
 2039Sol     HW11309   0.473   3.377   1.892  0.1578 -0.1892  0.7798
 2039Sol     MW11310   0.518   3.333   1.828  0.4641  0.0979  0.1123
 2040Sol     OW11311   2.193   0.318   5.286 -1.0223  0.1589 -0.3151
 2040Sol     HW11312   2.228   0.401   5.320  1.6795 -1.3601  0.7805
 2040Sol     HW11313   2.182   0.333   5.192  1.3109  1.1875 -0.4620
 2040Sol     MW11314   2.195   0.327   5.281  0.0856  0.3849  0.3284
 2041Sol     OW11315   0.134   0.560   4.036  0.5365 -0.2292 -0.5326
 2041Sol     HW11316   0.228   0.539   4.038  0.4961 -0.3910 -0.3179
 2041Sol     HW11317   0.094   0.497   4.097  0.3758  0.2613 -0.1290
 2041Sol     MW11318   0.139   0.552   4.042 -0.1619 -0.2975 -0.4320
 2042Sol     OW11319   2.168   1.170   9.584  0.4555  0.0968 -0.2679
 2042Sol     HW11320   2.077   1.144   9.595 -0.2587  2.5359  0.0362
 2042Sol     HW11321   2.219   1.093   9.610 -1.5021 -1.1141  0.0701
 2042Sol     MW11322   2.165   1.161   9.588  0.3515  0.2117 -0.6114
 2043Sol     OW11323   2.246   0.539   6.196 -0.2837 -0.1125 -0.1528
 2043Sol     HW11324   2.167   0.561   6.146  0.0066  0.6904 -0.2587
 2043Sol     HW11325   2.230   0.577   6.282 -0.4101 -0.7506  0.1043
 2043Sol     MW11326   2.237   0.544   6.199 -0.3462 -0.2457 -0.0943
 2044Sol     OW11327   0.369   0.724   6.466  0.4815  0.0817 -0.2132
 2044Sol     HW11328   0.293   0.667   6.456  0.0502  0.1249  2.3871
 2044Sol     HW11329   0.357   0.765   6.552  3.0516  0.6656 -0.0859
 2044Sol     MW11330   0.361   0.723   6.473  0.4189 -0.1665 -0.0962
 2045Sol     OW11331   0.148   3.245   3.819 -0.0724 -0.4278 -0.5211
 2045Sol     HW11332   0.094   3.249   3.740  0.4434 -2.6814 -1.0455
 2045Sol     HW11333   0.228   3.292   3.795  1.0126 -2.9863 -2.1897
 2045Sol     MW11334   0.151   3.249   3.810 -0.2454  0.2491  0.0977
 2046Sol     OW11335   1.312   1.453   4.962  0.3377 -0.3030 -0.2889
 2046Sol     HW11336   1.393   1.461   5.013 -0.6592  2.0125  1.0201
 2046Sol     HW11337   1.250   1.511   5.007 -1.6563 -1.0145 -2.0482
 2046Sol     MW11338   1.314   1.459   4.971  0.4176  0.3753 -0.3152
 2047Sol     OW11339   0.819   2.517   3.610  0.0546 -0.1198  0.6663
 2047Sol     HW11340   0.724   2.505   3.614  0.1292 -0.9123  0.1962
 2047Sol     HW11341   0.837   2.589   3.669 -0.9831  0.8379 -0.1674
 2047Sol     MW11342   0.812   2.522   3.615 -0.6428  0.2818  0.0988
 2048Sol     OW11343   3.297   2.205   6.944  0.9580 -0.3992 -0.1244
 2048Sol     HW11344   3.225   2.260   6.976  1.6385  1.4166 -1.6102
 2048Sol     HW11345   3.369   2.221   7.005  0.9219 -0.1800 -0.1376
 2048Sol     MW11346   3.297   2.212   6.952 -0.3908  0.5236  0.3167
 2049Sol     OW11347   3.195   2.286   7.671  0.1942  0.1225 -0.5574
 2049Sol     HW11348   3.257   2.358   7.660  0.3170  0.2438  0.9536
 2049Sol     HW11349   3.164   2.293   7.761 -0.5966 -1.0737 -0.7209
 2049Sol     MW11350   3.198   2.293   7.678  0.9766 -0.5417  0.1293
 2050Sol     OW11351   3.041   1.495   7.908  0.1743  0.2025  0.0406
 2050Sol     HW11352   3.091   1.537   7.978 -0.8011  1.4622 -0.0089
 2050Sol     HW11353   3.073   1.405   7.908  1.5204  0.6450  0.8714
 2050Sol     MW11354   3.049   1.491   7.914 -0.6747 -0.6805 -0.0887
 2051Sol     OW11355   1.941   0.482   1.413 -0.4121 -0.2483 -0.4683
 2051Sol     HW11356   1.939   0.443   1.326 -1.5336  0.7839 -0.9114
 2051Sol     HW11357   1.949   0.407   1.472  0.1082 -0.9723 -1.4412
 2051Sol     MW11358   1.942   0.472   1.411 -0.3603 -0.0168 -0.1831
 2052Sol     OW11359   1.493   1.810   8.062  0.9734 -0.5462 -0.6585
 2052Sol     HW11360   1.442   1.877   8.017 -0.0463 -1.5758 -1.0551
 2052Sol     HW11361   1.528   1.854   8.139  0.9447  0.6446 -1.3133
 2052Sol     MW11362   1.492   1.820   8.065 -0.0317  0.6912 -0.2286
 2053Sol     OW11363   1.673   2.870   5.441 -0.1359 -0.0532 -0.2071
 2053Sol     HW11364   1.605   2.806   5.462  2.2824 -3.2393 -1.6975
 2053Sol     HW11365   1.738   2.859   5.510  1.4247 -0.9534 -1.7928
 2053Sol     MW11366   1.672   2.864   5.449 -0.3533 -0.3204  0.5980
 2054Sol     OW11367   1.620   0.574   7.518 -0.2150  0.0407 -0.5125
 2054Sol     HW11368   1.537   0.528   7.509 -0.8691  0.9763  0.5607
 2054Sol     HW11369   1.652   0.584   7.429 -1.5838  0.2645 -0.9877
 2054Sol     MW11370   1.616   0.571   7.509 -0.4699 -0.2708  0.1951
 2055Sol     OW11371   3.039   1.535   5.193  0.6261 -0.8110 -0.6216
 2055Sol     HW11372   2.975   1.500   5.253  1.3534 -0.5727  0.3058
 2055Sol     HW11373   2.988   1.584   5.128  0.0074  1.3087  1.4055
 2055Sol     MW11374   3.029   1.536   5.192 -0.3935  0.1329  0.5846
 2056Sol     OW11375   1.256   2.214   2.079 -0.4733 -0.4616  0.1292
 2056Sol     HW11376   1.333   2.258   2.044  0.1674  0.2892  2.3668
 2056Sol     HW11377   1.270   2.121   2.059  0.2860 -0.1514 -0.7941
 2056Sol     MW11378   1.264   2.210   2.074 -0.1111 -0.3323  0.3041
 2057Sol     OW11379   1.465   1.615   6.688 -0.4680  0.4992  0.6210
 2057Sol     HW11380   1.411   1.630   6.765 -2.7074 -2.0352 -0.3848
 2057Sol     HW11381   1.532   1.554   6.717 -1.2525 -0.3764  0.6010
 2057Sol     MW11382   1.467   1.611   6.697  0.4938 -0.1505 -0.1229
 2058Sol     OW11383   2.136   1.224   8.513 -0.0694  0.5578 -0.1446
 2058Sol     HW11384   2.069   1.187   8.570  0.6085  0.7678  0.7980
 2058Sol     HW11385   2.089   1.288   8.460 -0.4651  1.3262  1.1128
 2058Sol     MW11386   2.126   1.227   8.513  0.2251 -0.0328 -0.1581
 2059Sol     OW11387   0.816   2.607   2.165  0.1659 -0.2205  0.0837
 2059Sol     HW11388   0.824   2.637   2.074 -2.1978  0.3409  0.0359
 2059Sol     HW11389   0.799   2.513   2.159 -1.5492  0.1006 -0.1174
 2059Sol     MW11390   0.815   2.602   2.156  0.5887  0.3862  0.7875
 2060Sol     OW11391   1.332   0.683   7.549 -0.5921  0.3327 -0.0152
 2060Sol     HW11392   1.262   0.678   7.484  1.1889 -0.2851 -1.9585
 2060Sol     HW11393   1.374   0.768   7.532  0.1442 -0.0157  0.0609
 2060Sol     MW11394   1.330   0.691   7.542 -0.2155 -0.0867 -0.2141
 2061Sol     OW11395   1.969   3.346   3.993 -0.0110  0.5110  0.2785
 2061Sol     HW11396   2.030   3.419   3.983 -0.6103  1.1113  0.9890
 2061Sol     HW11397   1.886   3.387   4.018 -0.7014 -0.3020 -0.6303
 2061Sol     MW11398   1.967   3.356   3.994 -0.0211 -0.2424 -0.0678
 2062Sol     OW11399   0.287   2.371   6.964 -0.1515 -0.3773 -0.1256
 2062Sol     HW11400   0.265   2.311   7.035  1.1653  0.4043  0.9727
 2062Sol     HW11401   0.377   2.350   6.941  0.1050  0.7480 -0.1776
 2062Sol     MW11402   0.293   2.364   6.968 -0.3350 -0.2485 -0.1727
 2063Sol     OW11403   1.401   0.685   7.266 -0.0963 -0.4013  0.2760
 2063Sol     HW11404   1.393   0.632   7.345  0.9817  0.4526  0.9864
 2063Sol     HW11405   1.470   0.642   7.214  1.7842  1.0183  1.4972
 2063Sol     MW11406   1.407   0.677   7.268  0.5124 -0.0928 -0.2181
 2064Sol     OW11407   1.245   2.698   5.238  0.0983  0.7138  0.1595
 2064Sol     HW11408   1.336   2.692   5.210 -0.0514  1.8364 -0.6055
 2064Sol     HW11409   1.197   2.722   5.159 -0.9926 -0.6689  0.3752
 2064Sol     MW11410   1.248   2.700   5.229 -0.1629  0.8574  0.1778
 2065Sol     OW11411   1.713   0.563   9.489  0.4370  0.0023  0.4300
 2065Sol     HW11412   1.740   0.574   9.398 -0.5020 -2.1257 -0.1287
 2065Sol     HW11413   1.624   0.600   9.491 -0.8408 -2.8580 -0.3369
 2065Sol     MW11414   1.707   0.567   9.481  0.3585  1.1542  0.0143
 2066Sol     OW11415   0.939   3.226   4.152  0.2123  0.2971 -0.0418
 2066Sol     HW11416   0.951   3.287   4.079  0.0745  0.6677  0.2406
 2066Sol     HW11417   0.927   3.283   4.229  1.4658 -0.0900  0.4522
 2066Sol     MW11418   0.939   3.237   4.153 -0.4162 -0.1952 -0.2834
 2067Sol     OW11419   0.625   1.766   4.549  1.0099  0.6767 -0.2223
 2067Sol     HW11420   0.676   1.701   4.597  1.0091 -0.1409 -1.3203
 2067Sol     HW11421   0.688   1.809   4.492  1.2612  2.5408  1.4027
 2067Sol     MW11422   0.635   1.764   4.548 -0.0606  0.1522  0.2329
 2068Sol     OW11423   2.441   3.426   9.479 -0.5153 -0.2958 -0.6131
 2068Sol     HW11424   2.393   3.497   9.437 -0.5763 -0.3248 -0.5946
 2068Sol     HW11425   2.373   3.374   9.522 -0.2588  1.0545  1.4977
 2068Sol     MW11426   2.430   3.427   9.479 -0.1893  0.0879  0.0942
 2069Sol     OW11427   2.395   2.447   6.485 -0.3219 -0.0300 -0.4061
 2069Sol     HW11428   2.345   2.405   6.555 -1.0404  0.4558 -0.6233
 2069Sol     HW11429   2.338   2.443   6.409  0.2274 -0.0383 -0.8195
 2069Sol     MW11430   2.385   2.443   6.485  0.1172 -0.2526 -0.2365
 2070Sol     OW11431   1.321   1.683   7.321 -0.5230  0.8456 -0.1539
 2070Sol     HW11432   1.319   1.778   7.307  1.5240  1.0809  1.0472
 2070Sol     HW11433   1.357   1.673   7.409 -0.0516 -1.0724 -0.5603
 2070Sol     MW11434   1.324   1.691   7.327  0.3088  0.1313 -0.0811
 2071Sol     OW11435   2.426   2.959   1.601  0.1907  0.4688  0.7791
 2071Sol     HW11436   2.442   2.976   1.508 -0.6754  1.3062  0.7635
 2071Sol     HW11437   2.502   2.911   1.631  1.5956  2.2696  0.1942
 2071Sol     MW11438   2.434   2.956   1.595 -0.1401 -0.0227 -0.3627
 2072Sol     OW11439   0.521   1.168   5.145  0.0355  0.2051 -0.0971
 2072Sol     HW11440   0.579   1.174   5.221  0.4299 -1.7294 -0.2079
 2072Sol     HW11441   0.507   1.074   5.133 -0.6749  0.5134 -1.9216
 2072Sol     MW11442   0.525   1.160   5.150 -0.4730 -0.1547  0.6969
 2073Sol     OW11443   0.828   2.720   2.417  0.3351 -0.4532  0.2640
 2073Sol     HW11444   0.827   2.645   2.477  0.2033 -0.3703  0.3661
 2073Sol     HW11445   0.802   2.683   2.332  0.1933 -0.5087  0.3311
 2073Sol     MW11446   0.825   2.710   2.415  0.0657  0.3043  0.2856
 2074Sol     OW11447   1.374   2.262   3.926  0.0330 -0.0530  0.7068
 2074Sol     HW11448   1.349   2.351   3.901 -2.7615 -0.6418  1.1968
 2074Sol     HW11449   1.438   2.236   3.860  0.6298  2.1592  0.3457
 2074Sol     MW11450   1.378   2.268   3.918 -0.6442  1.0288  0.1291
 2075Sol     OW11451   1.962   0.168   8.078 -0.9417  0.0355 -0.0501
 2075Sol     HW11452   1.880   0.196   8.117 -1.0691 -0.8985  0.3680
 2075Sol     HW11453   1.940   0.151   7.986 -1.6087 -1.7800  0.4182
 2075Sol     MW11454   1.953   0.169   8.073 -0.4156 -0.1183  0.0869
 2076Sol     OW11455   2.816   0.752   6.873  0.0306  0.2537  0.2709
 2076Sol     HW11456   2.902   0.784   6.903  1.4979  0.2178 -3.5540
 2076Sol     HW11457   2.837   0.691   6.802 -3.1432 -0.6311  0.0210
 2076Sol     MW11458   2.826   0.750   6.869  0.0537  0.0288 -0.0745
 2077Sol     OW11459   2.001   2.458   3.980 -0.1948 -0.3949  0.4698
 2077Sol     HW11460   1.958   2.513   3.914 -0.0279 -1.1836 -0.3032
 2077Sol     HW11461   2.081   2.427   3.938  0.0651 -0.6725  1.1529
 2077Sol     MW11462   2.004   2.460   3.971 -0.8732  0.0798  0.3130
 2078Sol     OW11463   2.084   2.988   2.975  0.2309  0.2711 -0.1868
 2078Sol     HW11464   2.092   3.006   3.069  0.2428  0.8630 -0.2962
 2078Sol     HW11465   2.108   3.071   2.934 -0.3918  0.1956 -0.6938
 2078Sol     MW11466   2.087   2.997   2.980 -0.1111  0.2002 -0.0401
 2079Sol     OW11467   0.057   1.446   1.864 -0.2402  0.1427 -0.5604
 2079Sol     HW11468   0.093   1.489   1.942  0.1976  1.3268 -1.4016
 2079Sol     HW11469  -0.001   1.511   1.825 -1.8179 -1.0770 -0.2777
 2079Sol     MW11470   0.055   1.456   1.868 -0.0486 -0.3643  0.1067
 2080Sol     OW11471   0.537   3.289   8.365 -0.1319 -0.3312 -0.2082
 2080Sol     HW11472   0.531   3.348   8.290 -1.2359 -0.1632 -0.0004
 2080Sol     HW11473   0.622   3.309   8.404 -0.4463  1.0717 -0.1891
 2080Sol     MW11474   0.544   3.296   8.362  0.1945 -0.7102  0.0814
 2081Sol     OW11475   1.367   3.440   4.638  0.4326 -0.5772 -0.9373
 2081Sol     HW11476   1.397   3.473   4.722 -0.9205 -3.5597  0.7920
 2081Sol     HW11477   1.301   3.504   4.610  0.7708  0.3548  0.3415
 2081Sol     MW11478   1.363   3.449   4.643 -0.0815 -0.4830 -0.6287
 2082Sol     OW11479   2.609   0.168   9.599 -0.3971  0.3881  0.4805
 2082Sol     HW11480   2.547   0.242   9.598 -0.0644  0.7019  1.7104
 2082Sol     HW11481   2.567   0.101   9.544 -1.0649  1.1997 -0.0274
 2082Sol     MW11482   2.599   0.169   9.594  0.1612 -0.1339  0.3499
 2083Sol     OW11483   2.791   0.585   3.018  0.1101 -0.6748  0.2953
 2083Sol     HW11484   2.874   0.621   3.050 -0.1325  0.7650 -0.6546
 2083Sol     HW11485   2.809   0.560   2.928 -0.8632  0.9471 -0.3625
 2083Sol     MW11486   2.800   0.586   3.013 -0.2499  0.1014  0.0227
 2084Sol     OW11487   2.472   0.212   1.680 -0.2423  0.0255 -0.2946
 2084Sol     HW11488   2.401   0.210   1.616  0.0733 -0.1833 -0.6400
 2084Sol     HW11489   2.507   0.301   1.674  0.2328 -0.1964 -0.9063
 2084Sol     MW11490   2.469   0.220   1.674 -0.1039 -0.0581  0.4641
 2085Sol     OW11491   2.849   1.409  10.110  0.0526 -0.1452 -0.2891
 2085Sol     HW11492   2.888   1.496  10.122 -0.9779  0.2987 -0.1218
 2085Sol     HW11493   2.875   1.361  10.189 -1.2150  0.7091  0.6691
 2085Sol     MW11494   2.855   1.412  10.118  0.0057 -0.4112 -0.1632
 2086Sol     OW11495   0.606   1.162   7.455 -0.3233  0.1190 -0.2940
 2086Sol     HW11496   0.602   1.079   7.407  0.9174 -1.0380  1.5662
 2086Sol     HW11497   0.539   1.217   7.413 -0.0440 -1.2392 -2.6001
 2086Sol     MW11498   0.599   1.160   7.447 -0.0980  0.1654 -0.8166
 2087Sol     OW11499   2.488   3.437   6.050  0.2141 -0.7378 -0.3988
 2087Sol     HW11500   2.476   3.476   5.964  2.3427  0.7430 -0.0631
 2087Sol     HW11501   2.577   3.402   6.049  1.1503  1.3825  1.9415
 2087Sol     MW11502   2.495   3.438   6.042 -0.0811  0.1875 -0.0698
 2088Sol     OW11503   2.012   2.261   2.946  0.2653  0.5796 -0.2221
 2088Sol     HW11504   1.955   2.247   3.022  0.7161 -0.8858 -0.1510
 2088Sol     HW11505   2.095   2.220   2.970  0.8829  1.3767 -0.9362
 2088Sol     MW11506   2.014   2.256   2.955  0.2963 -0.0351  0.5151
 2089Sol     OW11507   3.294   1.893   4.987 -0.1577  0.6077 -0.5829
 2089Sol     HW11508   3.291   1.805   5.025  1.5890  0.7477 -0.0766
 2089Sol     HW11509   3.205   1.926   4.997 -0.3391 -0.3328  1.0912
 2089Sol     MW11510   3.285   1.888   4.991  0.1966  0.0029 -0.4957
 2090Sol     OW11511   1.628   1.739   1.795 -0.5282 -0.5883  0.1872
 2090Sol     HW11512   1.536   1.748   1.769 -0.3925  1.1692  0.2093
 2090Sol     HW11513   1.635   1.791   1.876  0.7462  0.3195 -0.4862
 2090Sol     MW11514   1.620   1.745   1.800 -0.4462 -0.0365 -0.7611
 2091Sol     OW11515   1.580   1.347   9.096 -0.0543 -0.2787 -0.2054
 2091Sol     HW11516   1.631   1.371   9.172 -1.3925 -1.0020  0.9442
 2091Sol     HW11517   1.489   1.360   9.122 -0.4648  2.3153 -2.6696
 2091Sol     MW11518   1.576   1.350   9.105  0.4767 -0.2094  0.2605
 2092Sol     OW11519   3.298   0.246   6.993 -0.8522  0.0230 -0.2851
 2092Sol     HW11520   3.232   0.229   7.060  0.6945  0.2704  1.3276
 2092Sol     HW11521   3.316   0.340   7.001 -1.4153  0.2722 -1.7694
 2092Sol     MW11522   3.294   0.253   7.000  0.0657 -0.1332  0.5236
 2093Sol     OW11523   2.787   1.287   6.820  0.2408 -0.1018 -0.4101
 2093Sol     HW11524   2.747   1.365   6.782 -0.5949 -0.8374 -1.0637
 2093Sol     HW11525   2.868   1.319   6.861 -0.6192  1.2675  0.2463
 2093Sol     MW11526   2.791   1.297   6.820 -0.1128 -0.2060  0.1433
 2094Sol     OW11527   2.676   2.885   9.487  0.0134 -0.1650  0.6955
 2094Sol     HW11528   2.706   2.960   9.537 -0.4039  0.7172 -0.3455
 2094Sol     HW11529   2.755   2.835   9.468  0.3147  0.1032  1.2359
 2094Sol     MW11530   2.686   2.887   9.489 -0.4070 -0.6529 -0.6648
 2095Sol     OW11531   2.914   1.784   9.258 -0.2731  0.1077 -0.5607
 2095Sol     HW11532   2.856   1.859   9.255  1.2348  1.3435  0.3963
 2095Sol     HW11533   2.958   1.784   9.173  1.6221  1.8925  0.3723
 2095Sol     MW11534   2.913   1.791   9.250  0.3630 -0.1483 -0.2129
 2096Sol     OW11535   1.373   1.125   3.831  0.2923  0.1357  0.1668
 2096Sol     HW11536   1.320   1.051   3.802  1.4011 -0.4537 -0.3404
 2096Sol     HW11537   1.396   1.104   3.922 -0.9068  0.7254  0.6315
 2096Sol     MW11538   1.370   1.117   3.837  0.0438  0.0017  0.0211
 2097Sol     OW11539   2.177   1.696   7.838  0.1702  0.3487  0.1040
 2097Sol     HW11540   2.102   1.637   7.849 -0.3287  1.1506  1.1061
 2097Sol     HW11541   2.247   1.640   7.805 -0.0991 -0.9489  1.6654
 2097Sol     MW11542   2.176   1.685   7.836  0.3466 -0.5561  0.4432
 2098Sol     OW11543   1.487   2.350   7.375  0.2452 -0.0926 -0.2799
 2098Sol     HW11544   1.574   2.381   7.398  0.5321 -0.2143 -1.1819
 2098Sol     HW11545   1.428   2.403   7.429  0.8212  0.7636 -0.4754
 2098Sol     MW11546   1.489   2.358   7.382 -0.0168 -0.2973  0.2081
 2099Sol     OW11547   1.924   3.266   7.095 -0.0360 -0.0887  0.0252
 2099Sol     HW11548   1.873   3.345   7.113 -0.5169 -0.7645  1.6964
 2099Sol     HW11549   2.005   3.279   7.145  0.4784 -0.0466 -0.8062
 2099Sol     MW11550   1.927   3.274   7.101 -0.0265 -0.3405  0.9759
 2100Sol     OW11551   0.707   1.321   8.621 -0.5011 -0.2572  0.4883
 2100Sol     HW11552   0.775   1.265   8.585  1.0204  1.7554  0.1854
 2100Sol     HW11553   0.750   1.371   8.690 -2.0794 -0.1418  1.4343
 2100Sol     MW11554   0.717   1.321   8.624  0.4881  0.4910 -0.3193
 2101Sol     OW11555   0.742   2.671   8.143  0.1228 -0.0205 -0.4224
 2101Sol     HW11556   0.681   2.705   8.209  0.6912  0.0377  0.0781
 2101Sol     HW11557   0.808   2.624   8.193 -1.8772 -3.9098 -1.2518
 2101Sol     MW11558   0.742   2.670   8.153  0.6838  0.1445 -0.4765
 2102Sol     OW11559   1.811   2.214   5.502  0.0894  0.1013  0.6579
 2102Sol     HW11560   1.798   2.122   5.523 -0.2246  0.3263  1.4605
 2102Sol     HW11561   1.828   2.256   5.586 -1.8288  1.1179  0.5686
 2102Sol     MW11562   1.811   2.210   5.512  0.2219 -0.4991 -0.3097
 2103Sol     OW11563   2.405   0.744   6.115  0.3835 -0.8794  0.6000
 2103Sol     HW11564   2.338   0.682   6.143  0.7649 -0.0665  3.5275
 2103Sol     HW11565   2.478   0.689   6.085 -0.2170 -1.8089  0.8341
 2103Sol     MW11566   2.406   0.733   6.115  0.0448  0.1221  0.1602
 2104Sol     OW11567   1.757   1.907   2.685 -0.4370  0.6232  0.1503
 2104Sol     HW11568   1.731   1.968   2.616  0.7831 -0.7854 -1.6051
 2104Sol     HW11569   1.847   1.883   2.663 -0.6257 -1.1924  1.2423
 2104Sol     MW11570   1.762   1.910   2.677 -0.5025 -0.0763 -0.2321
 2105Sol     OW11571   1.183   1.056   9.676 -0.3725 -0.3094 -0.5488
 2105Sol     HW11572   1.169   1.111   9.753 -0.5263 -0.5288 -0.4193
 2105Sol     HW11573   1.100   1.059   9.629 -0.7407 -1.3081  0.0241
 2105Sol     MW11574   1.174   1.061   9.679 -0.2079  0.2734 -0.2589
 2106Sol     OW11575   0.392   3.219   7.546  0.0585 -0.3321  0.1161
 2106Sol     HW11576   0.368   3.259   7.462  0.0225  1.5813  0.9999
 2106Sol     HW11577   0.309   3.212   7.594  0.3631  0.5670  0.7986
 2106Sol     MW11578   0.382   3.222   7.543 -0.0440  0.1826  0.1909
 2107Sol     OW11579   3.144   1.534   5.584  0.1926 -0.1974 -0.3944
 2107Sol     HW11580   3.231   1.527   5.543  0.4368  1.5626 -0.2276
 2107Sol     HW11581   3.158   1.589   5.661 -0.9359 -0.5295  0.0571
 2107Sol     MW11582   3.153   1.538   5.587 -1.1221 -0.0416 -0.5863
 2108Sol     OW11583   2.218   0.751   7.410  0.2689 -0.5251 -0.7014
 2108Sol     HW11584   2.262   0.803   7.343  0.3641 -0.3798 -0.5245
 2108Sol     HW11585   2.255   0.781   7.493  0.0390 -0.5953 -0.5717
 2108Sol     MW11586   2.225   0.759   7.411  0.1363  1.2842 -0.1221
 2109Sol     OW11587   3.135   0.670   7.613 -0.2880  0.1192  0.2746
 2109Sol     HW11588   3.198   0.603   7.589  0.3271  0.9859 -0.5609
 2109Sol     HW11589   3.155   0.690   7.705  1.5283  1.3109 -0.3489
 2109Sol     MW11590   3.142   0.666   7.619  0.5210  0.3722 -0.5016
 2110Sol     OW11591   1.606   1.872   4.281  0.6153 -0.1825  0.0504
 2110Sol     HW11592   1.615   1.807   4.211  1.0350 -0.4029  0.3133
 2110Sol     HW11593   1.564   1.947   4.238 -0.1551 -0.7382 -0.1834
 2110Sol     MW11594   1.603   1.873   4.271  0.0152 -0.0031  0.4284
 2111Sol     OW11595   2.979   0.581   6.235  0.2572  0.1424  0.1919
 2111Sol     HW11596   3.041   0.654   6.228 -0.4226  0.7866  0.9612
 2111Sol     HW11597   3.028   0.513   6.281  0.5162  0.5153  0.4681
 2111Sol     MW11598   2.989   0.581   6.238 -0.2199  0.2923  0.2821
 2112Sol     OW11599   2.453   0.778   4.499 -0.5582  0.1211  0.0560
 2112Sol     HW11600   2.430   0.857   4.547  0.7325  0.3380  0.3209
 2112Sol     HW11601   2.446   0.707   4.563 -2.1702 -0.0474 -0.2986
 2112Sol     MW11602   2.450   0.778   4.509 -0.3019  0.0139 -0.5946
 2113Sol     OW11603   1.351   2.422   6.975  0.4125 -0.8617  0.1307
 2113Sol     HW11604   1.405   2.486   7.022  0.6270 -0.5479 -0.5399
 2113Sol     HW11605   1.325   2.359   7.042  1.2327 -0.7588  0.5461
 2113Sol     MW11606   1.353   2.422   6.986  0.2061 -0.6704 -0.0439
 2114Sol     OW11607   3.264   2.301   3.878 -0.1314  0.7125 -0.2043
 2114Sol     HW11608   3.280   2.350   3.797  0.6278 -1.5683 -1.4734
 2114Sol     HW11609   3.336   2.328   3.936 -1.7143  3.7722  0.4581
 2114Sol     MW11610   3.272   2.308   3.876 -0.1196 -0.5169  0.2692
 2115Sol     OW11611   0.361   0.916   6.013  0.2455  0.6719  0.1212
 2115Sol     HW11612   0.396   0.951   5.932 -1.2715  1.9125 -0.0207
 2115Sol     HW11613   0.379   0.822   6.009 -0.1991  0.6650 -1.8229
 2115Sol     MW11614   0.366   0.911   6.006  0.4528  0.6186 -0.1540
 2116Sol     OW11615   0.797   2.987   9.312  0.2435 -0.0700  0.3098
 2116Sol     HW11616   0.853   3.008   9.237 -1.5692 -1.3492 -1.4355
 2116Sol     HW11617   0.853   2.931   9.367  0.8431 -0.9715 -1.1867
 2116Sol     MW11618   0.807   2.984   9.310 -0.3681 -0.3493  0.2878
 2117Sol     OW11619   0.360   3.351   7.296  0.5222 -0.3444 -0.1578
 2117Sol     HW11620   0.388   3.443   7.295 -0.0986 -0.1638 -1.4516
 2117Sol     HW11621   0.336   3.332   7.206  3.0308 -2.5140 -0.4446
 2117Sol     MW11622   0.361   3.358   7.288 -0.2879  0.8037 -0.3341
 2118Sol     OW11623   1.135   3.358   2.264  0.5553 -0.7974  0.5199
 2118Sol     HW11624   1.086   3.388   2.341 -2.3779 -1.8052 -0.8693
 2118Sol     HW11625   1.159   3.268   2.284  0.5922 -0.7623  0.6327
 2118Sol     MW11626   1.133   3.353   2.273  0.6468 -0.1157  0.0580
 2119Sol     OW11627   1.246   1.728   5.411  0.4075  0.3925 -0.1447
 2119Sol     HW11628   1.162   1.743   5.367  0.9258  1.7597 -0.7096
 2119Sol     HW11629   1.223   1.716   5.503 -0.7604 -3.1446 -0.8358
 2119Sol     MW11630   1.236   1.729   5.415 -0.0057 -0.2986 -0.4088
 2120Sol     OW11631   1.781   2.067   4.396  0.0501  0.0485 -0.0813
 2120Sol     HW11632   1.719   2.080   4.468 -1.0008  1.2550 -1.1787
 2120Sol     HW11633   1.749   1.989   4.350 -0.7192  0.7020 -0.6798
 2120Sol     MW11634   1.773   2.061   4.398  0.5516  0.3021  0.4539
 2121Sol     OW11635   0.083   3.343   4.262  0.1730 -0.0223  0.0956
 2121Sol     HW11636   0.015   3.325   4.197  0.1930  1.4214 -0.3399
 2121Sol     HW11637   0.163   3.355   4.211 -0.0558  2.3775  0.2765
 2121Sol     MW11638   0.084   3.342   4.252 -0.9286 -0.0198 -0.4720
 2122Sol     OW11639   2.383   1.470   9.228 -0.1342 -0.1490 -0.1384
 2122Sol     HW11640   2.344   1.500   9.311 -1.6062 -1.2812 -0.3814
 2122Sol     HW11641   2.448   1.405   9.255  0.9094  1.0470  0.2343
 2122Sol     MW11642   2.385   1.467   9.238  0.0938  0.3827 -0.0218
 2123Sol     OW11643   1.884   2.336   8.264 -0.4473 -0.1421  0.0046
 2123Sol     HW11644   1.853   2.308   8.178 -0.9386  0.2874  0.0413
 2123Sol     HW11645   1.914   2.255   8.306 -2.8356 -0.8057  0.5261
 2123Sol     MW11646   1.884   2.326   8.260  0.1199  0.1912  0.0792
 2124Sol     OW11647   3.218   0.129   8.983 -0.8407  0.5490  0.3665
 2124Sol     HW11648   3.158   0.096   8.915  0.0713  0.9428 -0.6531
 2124Sol     HW11649   3.268   0.053   9.010 -0.8269  0.4934  0.1898
 2124Sol     MW11650   3.217   0.120   8.979  0.4725  0.1753  0.6521
 2125Sol     OW11651   2.786   2.433   5.195  0.8993 -0.5459  0.0240
 2125Sol     HW11652   2.872   2.475   5.188 -0.1619  1.6991 -0.0110
 2125Sol     HW11653   2.725   2.494   5.153 -0.9161 -1.4641  1.2300
 2125Sol     MW11654   2.788   2.442   5.191  0.0392  0.1262  0.9533
 2126Sol     OW11655   2.086   2.791   5.645  0.2833  0.4105 -0.4943
 2126Sol     HW11656   2.155   2.780   5.710 -1.0686 -0.8754  0.7565
 2126Sol     HW11657   2.071   2.703   5.610 -0.4973  0.7238 -0.9685
 2126Sol     MW11658   2.091   2.782   5.648  0.1362  0.6119 -0.4662
 2127Sol     OW11659   1.288   0.410   2.765  0.1545 -0.2289  0.1621
 2127Sol     HW11660   1.243   0.462   2.698  2.0617  1.4121  0.0781
 2127Sol     HW11661   1.219   0.383   2.825 -1.3873 -0.4911 -1.6622
 2127Sol     MW11662   1.278   0.413   2.764 -0.2164 -0.2971  0.4579
 2128Sol     OW11663   0.431   1.784   8.032 -0.1326 -0.1159 -0.3299
 2128Sol     HW11664   0.501   1.770   8.096  0.4938 -0.6505 -1.1332
 2128Sol     HW11665   0.352   1.793   8.086  0.2081 -1.6779  0.4657
 2128Sol     MW11666   0.430   1.784   8.043  0.1104 -0.2870  0.4207
 2129Sol     OW11667   0.756   1.920   5.598  0.1958  0.3151 -0.2110
 2129Sol     HW11668   0.695   1.846   5.593 -0.1760  0.6965 -1.6363
 2129Sol     HW11669   0.700   1.995   5.618  0.5832  0.2062  1.3088
 2129Sol     MW11670   0.746   1.920   5.599  0.6146  0.4787 -0.2318
 2130Sol     OW11671   1.108   2.550   9.539  0.2155  0.3057  0.4451
 2130Sol     HW11672   1.132   2.642   9.553 -0.7432  0.4103  1.5301
 2130Sol     HW11673   1.176   2.515   9.482  1.0250  1.4917  0.6734
 2130Sol     MW11674   1.117   2.555   9.535 -0.1446 -0.2099  0.0551
 2131Sol     OW11675   1.906   0.445   1.928  0.1986  0.5166  0.3916
 2131Sol     HW11676   1.906   0.533   1.891  1.4534  0.6357  0.6544
 2131Sol     HW11677   1.968   0.396   1.874 -0.1266 -0.0816  0.5469
 2131Sol     MW11678   1.911   0.448   1.920  0.0451 -0.4849  0.0058
 2132Sol     OW11679   0.428   1.829   8.430 -0.2547 -0.0479 -0.3321
 2132Sol     HW11680   0.476   1.796   8.353  0.7988  0.0420  0.2733
 2132Sol     HW11681   0.369   1.895   8.395 -0.0630 -0.2858 -1.1217
 2132Sol     MW11682   0.427   1.832   8.420 -0.0251 -0.3224  0.3170
 2133Sol     OW11683   1.291   1.822   6.094  0.0435 -0.7150 -0.1437
 2133Sol     HW11684   1.218   1.862   6.141  0.6685  0.5183 -0.1911
 2133Sol     HW11685   1.256   1.806   6.006 -1.0047 -2.6703  0.6048
 2133Sol     MW11686   1.281   1.824   6.090  0.1020  0.0025  0.0095
 2134Sol     OW11687   0.798   1.472   7.361  0.3895 -0.1661  0.1305
 2134Sol     HW11688   0.863   1.439   7.298  0.7130 -1.3738  1.0839
 2134Sol     HW11689   0.793   1.404   7.428 -1.5371  0.1227  0.3058
 2134Sol     MW11690   0.804   1.463   7.361  0.1685 -0.5581  0.1791
 2135Sol     OW11691   2.756   2.007   5.278  0.3709 -0.2409 -0.1083
 2135Sol     HW11692   2.779   2.016   5.186 -3.3755  1.2726 -0.9996
 2135Sol     HW11693   2.782   2.090   5.318 -0.6294  0.2407 -0.4434
 2135Sol     MW11694   2.761   2.015   5.273  0.4224 -0.4153 -0.3681
 2136Sol     OW11695   1.659   2.324   6.515  0.0825 -0.2802  0.1725
 2136Sol     HW11696   1.652   2.252   6.453 -0.4507  1.4668 -1.8913
 2136Sol     HW11697   1.751   2.349   6.513 -0.1007  0.3607 -0.6422
 2136Sol     MW11698   1.666   2.320   6.509 -0.6728  0.6287 -0.0153
 2137Sol     OW11699   2.212   1.492   4.062 -0.6411  0.0874 -0.0756
 2137Sol     HW11700   2.241   1.530   3.980  1.9406 -1.5894 -0.0113
 2137Sol     HW11701   2.171   1.409   4.037 -2.5408  0.9214  0.1300
 2137Sol     MW11702   2.211   1.488   4.053  0.0608 -0.3579 -0.6235
 2138Sol     OW11703   1.255   0.847   7.080  0.3860  1.0391 -0.8592
 2138Sol     HW11704   1.309   0.926   7.078  0.9360  0.6261 -2.8553
 2138Sol     HW11705   1.295   0.793   7.148 -0.2072  2.5833  0.7889
 2138Sol     MW11706   1.263   0.849   7.086  0.2427  0.1512  0.6687
 2139Sol     OW11707   2.637   1.493   6.720 -0.3523 -0.9501  0.1291
 2139Sol     HW11708   2.570   1.482   6.652 -0.0399 -1.1205 -0.1565
 2139Sol     HW11709   2.712   1.529   6.673 -0.6752  0.4618  0.6857
 2139Sol     MW11710   2.638   1.495   6.709 -0.0970 -0.5017 -0.5898
 2140Sol     OW11711   3.296   1.511   6.798 -0.1845  0.1435 -0.5967
 2140Sol     HW11712   3.213   1.557   6.811 -0.0503  0.1656  0.1781
 2140Sol     HW11713   3.351   1.574   6.751 -0.3929  0.3512 -0.5641
 2140Sol     MW11714   3.293   1.521   6.795  0.0292 -0.0480  0.8217
 2141Sol     OW11715   2.644   1.647   3.930  0.5124 -0.4708  0.1427
 2141Sol     HW11716   2.577   1.686   3.874  0.1833 -0.0075  0.8569
 2141Sol     HW11717   2.595   1.591   3.991  0.8208 -0.5665  0.3021
 2141Sol     MW11718   2.633   1.645   3.931  0.2238 -0.0141  0.6638
 2142Sol     OW11719   2.318   0.892   5.896 -0.2223 -0.0330 -0.3436
 2142Sol     HW11720   2.392   0.891   5.835 -1.7174 -1.4358 -2.1754
 2142Sol     HW11721   2.353   0.851   5.976  1.6111  1.3857 -0.3743
 2142Sol     MW11722   2.328   0.888   5.898 -0.0673 -0.0513 -0.5681
 2143Sol     OW11723   3.181   0.853   4.914 -0.1640 -0.4595  0.3642
 2143Sol     HW11724   3.218   0.920   4.857  1.3368 -1.4894  0.0916
 2143Sol     HW11725   3.110   0.897   4.961  1.6583  1.6744  1.1798
 2143Sol     MW11726   3.178   0.863   4.913  0.0785  0.0399  0.7848
 2144Sol     OW11727   1.863   2.617   8.352  0.4005 -0.1318  0.2725
 2144Sol     HW11728   1.850   2.529   8.388 -1.3432 -0.0408 -0.0922
 2144Sol     HW11729   1.791   2.669   8.388 -0.1934  0.4520 -1.7053
 2144Sol     MW11730   1.856   2.614   8.358  0.1050 -0.4178 -0.0482
 2145Sol     OW11731   1.010   0.210   5.559  0.2977  0.1161  0.2425
 2145Sol     HW11732   1.095   0.193   5.519  0.4539 -0.1159  0.6678
 2145Sol     HW11733   0.965   0.126   5.559 -0.3029  0.4287 -0.8290
 2145Sol     MW11734   1.014   0.201   5.556  0.3632 -0.1298  0.1348
 2146Sol     OW11735   1.478   0.088   4.862 -0.2651  0.1030 -0.0245
 2146Sol     HW11736   1.424   0.159   4.897 -1.2773 -0.3135 -0.7130
 2146Sol     HW11737   1.555   0.132   4.827  0.3161  0.6141  1.8478
 2146Sol     MW11738   1.480   0.098   4.862  0.3166 -0.3122 -0.4233
 2147Sol     OW11739   0.363   1.680   3.831  0.0214  0.1015 -0.6636
 2147Sol     HW11740   0.389   1.735   3.904 -0.7705  0.5120 -0.6855
 2147Sol     HW11741   0.434   1.617   3.821  0.2582  0.2247  0.2743
 2147Sol     MW11742   0.372   1.680   3.836  0.5184 -0.2647 -1.0835
 2148Sol     OW11743   0.457   0.860   8.936  0.0227 -0.0205 -0.2482
 2148Sol     HW11744   0.543   0.836   8.970  0.4446 -1.1625 -2.0440
 2148Sol     HW11745   0.476   0.907   8.855 -0.9624  2.6495  1.0281
 2148Sol     MW11746   0.466   0.862   8.932  0.4465 -0.2647  0.0243
 2149Sol     OW11747   3.316   3.251   3.117  1.0918  0.1322  0.5037
 2149Sol     HW11748   3.398   3.299   3.123 -0.0463  2.2014  0.1803
 2149Sol     HW11749   3.275   3.283   3.036  0.7391 -2.1263 -0.2364
 2149Sol     MW11750   3.319   3.259   3.110 -0.6918 -0.1121 -0.6324
 2150Sol     OW11751   0.876   0.556   8.249 -0.4765 -0.0551 -0.1932
 2150Sol     HW11752   0.872   0.629   8.188 -0.5577  0.0856 -0.0208
 2150Sol     HW11753   0.862   0.596   8.335 -1.5501 -0.4135 -0.1966
 2150Sol     MW11754   0.874   0.566   8.251  0.4654  0.3777  0.5584
 2151Sol     OW11755   2.575   2.118   4.018 -1.0940  0.3912 -0.3246
 2151Sol     HW11756   2.520   2.042   4.036  0.4088 -0.7128 -0.3159
 2151Sol     HW11757   2.600   2.108   3.926  1.0927 -0.4612  0.3258
 2151Sol     MW11758   2.572   2.111   4.011  0.1626  0.1237 -0.9818
 2152Sol     OW11759   2.123   1.635   3.469  0.2178 -0.7437  0.4655
 2152Sol     HW11760   2.167   1.613   3.551  1.9396 -1.0829 -0.5306
 2152Sol     HW11761   2.044   1.581   3.468  1.2438 -2.2713  0.9399
 2152Sol     MW11762   2.120   1.629   3.476  0.0634 -0.2291 -0.7861
 2153Sol     OW11763   1.375   3.113   8.035 -0.1149  0.5028 -0.0829
 2153Sol     HW11764   1.410   3.188   8.083  0.9944  0.0290 -0.1432
 2153Sol     HW11765   1.423   3.113   7.952 -0.8010  0.2887 -0.4885
 2153Sol     MW11766   1.382   3.120   8.032  0.1851 -0.0582 -0.4783
 2154Sol     OW11767   3.291   1.071   2.744  0.0285 -0.8483 -0.6985
 2154Sol     HW11768   3.278   1.083   2.838 -0.1102 -0.8581 -0.7166
 2154Sol     HW11769   3.203   1.068   2.707  0.0910 -0.2859 -0.8983
 2154Sol     MW11770   3.282   1.072   2.749 -0.0954  0.5535 -0.1794
 2155Sol     OW11771   2.913   1.357   8.149 -0.0440  0.0828  0.4203
 2155Sol     HW11772   2.989   1.416   8.154 -0.3696  0.7803 -2.3419
 2155Sol     HW11773   2.951   1.269   8.155  1.1351  0.3902 -1.8131
 2155Sol     MW11774   2.923   1.354   8.150 -0.1197  0.0540  0.6149
 2156Sol     OW11775   3.166   2.537   9.142 -0.2683  0.1743  0.8463
 2156Sol     HW11776   3.226   2.612   9.138  0.1087 -0.0645  1.9090
 2156Sol     HW11777   3.123   2.545   9.227 -1.3633  0.0475  0.3057
 2156Sol     MW11778   3.168   2.545   9.149  0.7061 -0.1804  0.3854
 2157Sol     OW11779   2.252   1.404   2.516 -0.4324 -0.1164 -0.5489
 2157Sol     HW11780   2.339   1.422   2.480 -0.4312  0.5940 -0.2073
 2157Sol     HW11781   2.250   1.309   2.528  0.9977  0.0520  1.2289
 2157Sol     MW11782   2.260   1.397   2.514 -0.2017 -0.0008 -0.2605
 2158Sol     OW11783   1.296   2.220   7.164 -0.2395  0.1441 -0.1667
 2158Sol     HW11784   1.362   2.266   7.217  0.4654 -0.7944 -0.2097
 2158Sol     HW11785   1.212   2.243   7.204  0.2863 -0.6004  1.4080
 2158Sol     MW11786   1.295   2.226   7.173 -0.1013  0.2497 -0.6181
 2159Sol     OW11787   2.273   0.551   7.734 -0.2819 -0.0624 -0.1267
 2159Sol     HW11788   2.259   0.512   7.820 -2.0377  0.1906 -0.2758
 2159Sol     HW11789   2.238   0.487   7.672 -0.1616  0.2940 -0.5701
 2159Sol     MW11790   2.268   0.542   7.736  0.4121 -0.3330  0.2606
 2160Sol     OW11791   1.941   2.789   6.783  0.1028 -0.7219 -1.0316
 2160Sol     HW11792   1.927   2.883   6.769 -0.9422 -0.6319  0.5235
 2160Sol     HW11793   1.933   2.751   6.696 -1.9172  0.3353 -1.3464
 2160Sol     MW11794   1.939   2.794   6.774  0.4458 -0.0760 -0.0348
 2161Sol     OW11795   1.643   0.773   1.830 -0.6575 -0.3827 -0.3017
 2161Sol     HW11796   1.619   0.829   1.903  0.8918 -0.3239  0.1695
 2161Sol     HW11797   1.620   0.684   1.860  1.3239 -0.5227  0.8414
 2161Sol     MW11798   1.638   0.770   1.839 -0.0569  0.1538  0.0873
 2162Sol     OW11799   0.918   1.722   2.209  0.0301  0.5925  0.7327
 2162Sol     HW11800   0.878   1.639   2.233  1.4905 -0.5061 -0.5381
 2162Sol     HW11801   0.910   1.726   2.114 -0.7908  2.3224  0.8568
 2162Sol     MW11802   0.914   1.715   2.203  0.0828 -0.1316 -0.3676
 2163Sol     OW11803   0.690   3.199   5.315  0.0291  1.1589 -0.2868
 2163Sol     HW11804   0.692   3.249   5.233 -1.1580 -0.0325 -1.0685
 2163Sol     HW11805   0.621   3.133   5.301  0.6800  0.1387  1.1919
 2163Sol     MW11806   0.684   3.197   5.306  0.0280  0.9988  0.6646
 2164Sol     OW11807   0.074   1.371   8.789  0.1023 -0.0243  0.0615
 2164Sol     HW11808   0.096   1.278   8.788  0.0382 -0.0368 -1.4001
 2164Sol     HW11809   0.141   1.411   8.845  0.9240 -0.7520 -0.3976
 2164Sol     MW11810   0.082   1.366   8.794  0.1527 -0.5515  0.0641
 2165Sol     OW11811   2.030   1.433   5.124 -0.6851  0.3745 -0.1421
 2165Sol     HW11812   1.980   1.426   5.043 -1.5403  1.7286  0.2542
 2165Sol     HW11813   1.964   1.453   5.191  0.1048 -0.0086  0.7623
 2165Sol     MW11814   2.019   1.434   5.123 -0.1504  0.5290  0.1273
 2166Sol     OW11815   2.822   2.414   6.072 -0.2696 -0.6892  0.3780
 2166Sol     HW11816   2.825   2.321   6.050  0.4132 -0.9249  1.4095
 2166Sol     HW11817   2.870   2.420   6.155 -1.3455  0.3989  0.9356
 2166Sol     MW11818   2.826   2.406   6.077  0.1795  0.2437 -0.4418
 2167Sol     OW11819   0.577   0.932   7.301 -0.0384 -0.4170  0.1087
 2167Sol     HW11820   0.552   0.981   7.223 -0.4681  0.7996  1.0082
 2167Sol     HW11821   0.641   0.868   7.269 -0.2071  0.0727 -1.2392
 2167Sol     MW11822   0.581   0.930   7.291  0.3173 -0.5661 -0.7722
 2168Sol     OW11823   3.311   3.044   4.273 -0.4348 -0.3188  0.5155
 2168Sol     HW11824   3.379   2.981   4.246 -0.3023  0.0100  0.0813
 2168Sol     HW11825   3.240   2.989   4.306 -0.3478 -0.7066  0.0658
 2168Sol     MW11826   3.311   3.033   4.273 -0.2321 -0.0593 -0.2970
 2169Sol     OW11827   3.122   1.828   1.894 -0.0731  0.4891 -0.1186
 2169Sol     HW11828   3.108   1.808   1.986 -0.6366 -1.6654 -0.6467
 2169Sol     HW11829   3.071   1.908   1.879 -1.1125  0.0715  1.0916
 2169Sol     MW11830   3.117   1.834   1.901  1.1349 -0.4294 -0.2877
 2170Sol     OW11831   1.178   0.981   7.344 -0.7169 -0.2910 -0.5316
 2170Sol     HW11832   1.169   1.016   7.256 -0.2783 -2.4458 -1.4558
 2170Sol     HW11833   1.224   1.050   7.393  0.9243  0.0537 -2.5274
 2170Sol     MW11834   1.181   0.990   7.341 -0.6539 -0.7208 -0.0807
 2171Sol     OW11835   2.843   0.919   9.545  0.5096  0.0362 -0.4012
 2171Sol     HW11836   2.905   0.859   9.589 -0.4127  0.5145  1.6269
 2171Sol     HW11837   2.785   0.862   9.495  1.2733 -0.5695 -0.6005
 2171Sol     MW11838   2.844   0.908   9.545 -0.3874  0.2620 -0.6207
 2172Sol     OW11839   3.097   2.601   9.420 -0.3205 -0.2476  0.1568
 2172Sol     HW11840   3.012   2.645   9.425  0.0883  0.5968 -0.1305
 2172Sol     HW11841   3.160   2.668   9.449  0.2106 -0.9681  0.6686
 2172Sol     MW11842   3.095   2.611   9.423 -0.8058 -0.2679 -0.1526
 2173Sol     OW11843   2.403   2.884   3.233  0.1166  0.1509  0.3805
 2173Sol     HW11844   2.420   2.939   3.309 -0.3095  0.5835  0.1661
 2173Sol     HW11845   2.382   2.798   3.269  3.2533 -0.5709  0.6564
 2173Sol     MW11846   2.403   2.881   3.243  0.3518  0.0243  0.0341
 2174Sol     OW11847   0.467   1.056   8.669  0.7206  0.3538  0.5153
 2174Sol     HW11848   0.504   1.102   8.594  0.0788  0.7852  0.4614
 2174Sol     HW11849   0.490   1.111   8.744 -0.6503  1.1467  0.3758
 2174Sol     MW11850   0.472   1.065   8.669  0.1019 -0.6706  0.7411
 2175Sol     OW11851   2.071   0.087   1.915 -0.2932 -0.1961  0.5029
 2175Sol     HW11852   2.155   0.134   1.914  1.6638 -3.4998  0.1910
 2175Sol     HW11853   2.051   0.075   2.008  0.7198 -1.1899  0.6187
 2175Sol     MW11854   2.077   0.090   1.923  0.1297  1.3018  0.0774
 2176Sol     OW11855   0.148   3.155   4.484 -0.5325 -0.0379  0.3056
 2176Sol     HW11856   0.161   3.246   4.459 -1.2004 -0.3786 -1.3435
 2176Sol     HW11857   0.072   3.126   4.433 -0.1309 -1.6042  0.5616
 2176Sol     MW11858   0.143   3.160   4.477  0.0727  0.4623 -0.0652
 2177Sol     OW11859   0.511   2.630   3.013  0.6856 -0.7633  0.2731
 2177Sol     HW11860   0.535   2.579   2.936 -0.0602 -0.7444  0.0146
 2177Sol     HW11861   0.416   2.616   3.022  0.2912  1.2578 -0.3366
 2177Sol     MW11862   0.504   2.624   3.007 -0.4055  0.3065  0.4530
 2178Sol     OW11863   0.560   0.546   2.562 -0.1507  0.2430 -0.2116
 2178Sol     HW11864   0.556   0.631   2.605 -2.3168  0.7884 -1.4083
 2178Sol     HW11865   0.619   0.558   2.488  0.4567  0.3796  0.2935
 2178Sol     MW11866   0.565   0.555   2.559 -0.0925 -0.1301 -0.0362
 2179Sol     OW11867   1.785   1.381   3.057 -0.0488 -0.3675 -0.2176
 2179Sol     HW11868   1.861   1.397   3.113 -0.6361  2.1371 -0.0639
 2179Sol     HW11869   1.795   1.443   2.985 -0.9880 -1.3073 -1.1750
 2179Sol     MW11870   1.792   1.388   3.056  0.0308 -0.2932 -0.4569
 2180Sol     OW11871   1.377   1.406   8.845 -0.1191 -0.3069 -0.0559
 2180Sol     HW11872   1.371   1.344   8.917  0.7939  0.3519  0.5954
 2180Sol     HW11873   1.424   1.481   8.881 -2.2268  1.2732 -0.5033
 2180Sol     MW11874   1.381   1.407   8.854  0.6207  0.0665  0.7674
 2181Sol     OW11875   1.537   1.300   5.663 -0.1586 -0.1982 -0.4351
 2181Sol     HW11876   1.624   1.339   5.654  0.1159 -0.9070 -0.9663
 2181Sol     HW11877   1.528   1.245   5.585  0.5106 -3.1758  1.4987
 2181Sol     MW11878   1.544   1.299   5.655 -0.1357 -0.6466  0.1338
 2182Sol     OW11879   2.243   3.126   8.274  0.3044 -0.4593 -0.1399
 2182Sol     HW11880   2.190   3.180   8.333 -0.6006 -0.1504 -1.2112
 2182Sol     HW11881   2.290   3.066   8.332  1.0796  1.2529  1.0454
 2182Sol     MW11882   2.242   3.126   8.285 -0.5767  0.5552 -0.1640
 2183Sol     OW11883   0.642   2.938   4.775 -0.1654 -0.1725  0.0756
 2183Sol     HW11884   0.703   2.956   4.847  0.0619 -0.7675  0.0336
 2183Sol     HW11885   0.653   3.012   4.715  0.6328 -0.3520 -0.0098
 2183Sol     MW11886   0.648   2.947   4.776  0.8046  0.1457 -0.6452
 2184Sol     OW11887   2.275   0.564   1.915 -0.2416 -0.3840  0.0905
 2184Sol     HW11888   2.322   0.647   1.926  0.8190 -1.0811  0.9505
 2184Sol     HW11889   2.287   0.519   1.999 -2.4545 -0.5949  0.3269
 2184Sol     MW11890   2.280   0.568   1.924 -0.4663  0.9056  0.0770
 2185Sol     OW11891   2.269   1.163   7.970  0.1546  0.3664  0.5779
 2185Sol     HW11892   2.298   1.182   8.059  0.2354  4.5892 -0.2553
 2185Sol     HW11893   2.339   1.196   7.914  0.1630 -2.3355 -1.1013
 2185Sol     MW11894   2.278   1.168   7.973  0.2468  0.2859 -0.4290
 2186Sol     OW11895   2.489   2.145   2.369  0.4749  0.0783  0.1411
 2186Sol     HW11896   2.468   2.053   2.386 -0.1980  0.3523  0.8395
 2186Sol     HW11897   2.583   2.152   2.385  0.5883 -0.5624 -0.2483
 2186Sol     MW11898   2.496   2.137   2.372 -0.1363  0.3377 -0.2953
 2187Sol     OW11899   0.805   2.343   4.518  0.1028 -0.5839  0.2170
 2187Sol     HW11900   0.794   2.248   4.517  0.6342 -0.7513 -4.9739
 2187Sol     HW11901   0.734   2.376   4.463  2.6124  1.5431 -1.9087
 2187Sol     MW11902   0.798   2.338   4.513  0.4802  1.1160 -0.4561
 2188Sol     OW11903   1.648   3.219   6.130 -0.0999  0.0382 -0.2626
 2188Sol     HW11904   1.666   3.312   6.144  0.5309 -0.2117  0.6252
 2188Sol     HW11905   1.734   3.177   6.135 -0.3884 -0.5991 -0.5945
 2188Sol     MW11906   1.657   3.223   6.132 -0.0932  0.3942  0.3022
 2189Sol     OW11907   2.672   3.142   4.417  0.3801  0.1939  0.0763
 2189Sol     HW11908   2.728   3.065   4.411  0.2824 -0.0221  1.7004
 2189Sol     HW11909   2.588   3.109   4.448  0.6216  1.0556  1.7211
 2189Sol     MW11910   2.669   3.132   4.419  0.0007 -0.8683  0.4468
 2190Sol     OW11911   1.112   0.114   5.924  0.0818 -0.4944 -0.0791
 2190Sol     HW11912   1.097   0.095   6.016  0.3445 -1.2362 -0.1878
 2190Sol     HW11913   1.027   0.143   5.891 -0.0797 -0.5044  0.3293
 2190Sol     MW11914   1.103   0.115   5.929  0.0723 -0.4177 -0.2267
 2191Sol     OW11915   1.098   0.165   4.869 -0.3885 -0.1259  0.3763
 2191Sol     HW11916   1.053   0.243   4.902 -1.1834  0.1633 -1.3275
 2191Sol     HW11917   1.117   0.185   4.778  0.3801 -1.5111  0.2181
 2191Sol     MW11918   1.096   0.174   4.864 -0.1464 -0.4323  0.6632
 2192Sol     OW11919   0.873   1.576   2.703  0.0716 -0.6007  0.4964
 2192Sol     HW11920   0.939   1.617   2.759  1.4307  1.9225 -2.7624
 2192Sol     HW11921   0.804   1.643   2.697  0.7105 -0.1334 -2.0986
 2192Sol     MW11922   0.873   1.586   2.708  0.8709  0.3011 -0.0018
 2193Sol     OW11923   0.379   0.694   7.970  0.0869  0.6407  0.0861
 2193Sol     HW11924   0.353   0.687   8.062  1.2307 -1.2057  0.2785
 2193Sol     HW11925   0.316   0.639   7.924  0.2485  0.6183 -0.1045
 2193Sol     MW11926   0.371   0.688   7.974  0.4018 -0.3393  0.0819
 2194Sol     OW11927   2.979   0.751   4.734  0.3313  0.1519  0.7945
 2194Sol     HW11928   3.057   0.715   4.692  0.2361  1.4602 -0.5341
 2194Sol     HW11929   3.012   0.795   4.812  1.1126  1.7530 -0.3979
 2194Sol     MW11930   2.989   0.752   4.737  0.2709 -0.1203 -0.4804
 2195Sol     OW11931   2.004   0.179   5.435 -0.4684 -0.5227  0.1217
 2195Sol     HW11932   2.087   0.225   5.421 -1.8260  2.1363  0.4942
 2195Sol     HW11933   2.028   0.086   5.432  2.0401  0.1267 -2.6277
 2195Sol     MW11934   2.014   0.175   5.434  0.3577 -0.8837 -0.0088
 2196Sol     OW11935   3.104   2.232   2.486  0.3015 -0.4943  0.0250
 2196Sol     HW11936   3.182   2.268   2.444 -0.7926  1.1489 -0.6320
 2196Sol     HW11937   3.084   2.153   2.436 -0.5218  1.0064 -2.0806
 2196Sol     MW11938   3.110   2.228   2.478 -0.1222  0.1162 -0.0549
 2197Sol     OW11939   1.738   0.414   4.395 -0.0523 -0.1324 -0.4026
 2197Sol     HW11940   1.708   0.493   4.440 -1.2402  0.8748 -2.8573
 2197Sol     HW11941   1.686   0.344   4.433 -0.0623  0.4627  0.7338
 2197Sol     MW11942   1.731   0.415   4.403 -0.2683 -0.1318  0.0129
 2198Sol     OW11943   1.379   2.155   8.650 -0.7902 -0.5487 -0.3326
 2198Sol     HW11944   1.452   2.126   8.596 -1.8752 -0.2419 -2.0005
 2198Sol     HW11945   1.385   2.251   8.648 -0.3610 -0.5508  0.7554
 2198Sol     MW11946   1.386   2.161   8.645  0.2816  0.4614 -0.3591
 2199Sol     OW11947   1.531   2.860   7.482 -0.0815  0.3018  0.0927
 2199Sol     HW11948   1.446   2.872   7.439  0.4057 -0.3174 -1.0729
 2199Sol     HW11949   1.530   2.770   7.512  0.3131  0.1770 -0.2640
 2199Sol     MW11950   1.524   2.853   7.481  0.2568  0.1327 -0.1374
 2200Sol     OW11951   2.844   1.928   6.781  0.5872 -0.1565 -0.4362
 2200Sol     HW11952   2.835   1.904   6.873  1.4816 -2.4045 -0.8962
 2200Sol     HW11953   2.931   1.968   6.775  1.1175 -1.3017 -0.5405
 2200Sol     MW11954   2.851   1.930   6.789 -0.1719 -0.1626  0.0160
 2201Sol     OW11955   1.157   1.629   6.837 -0.2725 -0.0057  0.3271
 2201Sol     HW11956   1.159   1.580   6.919  0.4649  1.1272  1.0010
 2201Sol     HW11957   1.119   1.568   6.774  3.8167 -2.7606  0.3037
 2201Sol     MW11958   1.154   1.619   6.839  0.1701 -0.0463  0.0672
 2202Sol     OW11959   2.109   1.155   3.326 -0.1204  0.3605 -0.6178
 2202Sol     HW11960   2.110   1.150   3.422  0.0819 -2.3105 -0.7463
 2202Sol     HW11961   2.166   1.229   3.306 -0.2617  1.0373  1.3192
 2202Sol     MW11962   2.114   1.161   3.333  0.4871  0.1728 -0.6471
 2203Sol     OW11963   0.395   1.744   4.328  0.2152  0.0283  0.1081
 2203Sol     HW11964   0.404   1.734   4.233  0.3361 -0.9372  0.2183
 2203Sol     HW11965   0.426   1.833   4.345  1.4282 -0.2488 -0.5985
 2203Sol     MW11966   0.399   1.751   4.321  0.7815  0.0629 -0.1387
 2204Sol     OW11967   1.979   0.875   6.015 -0.1234  0.2508 -0.3434
 2204Sol     HW11968   1.892   0.914   6.009  0.0432  0.2957 -2.8855
 2204Sol     HW11969   2.039   0.949   6.021 -0.1768  0.2583  0.0723
 2204Sol     MW11970   1.976   0.885   6.015  0.0935 -0.3884  0.1689
 2205Sol     OW11971   2.165   0.790   9.010 -0.1773  0.3078 -0.4489
 2205Sol     HW11972   2.222   0.812   9.084  2.1517 -0.9253 -1.8178
 2205Sol     HW11973   2.225   0.781   8.936 -2.2868 -0.1031 -2.1386
 2205Sol     MW11974   2.175   0.791   9.010 -0.0134 -0.2419  0.8262
 2206Sol     OW11975   2.537   0.938   1.567  0.6408 -0.6262  0.3458
 2206Sol     HW11976   2.577   0.924   1.653 -0.2015 -1.8404  0.5521
 2206Sol     HW11977   2.468   1.002   1.583  1.1910 -0.0354  0.3669
 2206Sol     MW11978   2.534   0.942   1.576 -0.1630  0.8796  0.1893
 2207Sol     OW11979   1.663   0.657   8.997 -0.0368 -0.0022  0.7196
 2207Sol     HW11980   1.743   0.705   8.974 -1.5134  1.0428 -2.5215
 2207Sol     HW11981   1.694   0.569   9.020  1.9958  0.1716 -1.1959
 2207Sol     MW11982   1.673   0.654   8.997  0.1663  0.2611 -0.4482
 2208Sol     OW11983   2.633   0.566   2.169  0.0664 -0.0349  0.4412
 2208Sol     HW11984   2.673   0.515   2.239 -0.6753  1.5398  2.0503
 2208Sol     HW11985   2.654   0.518   2.089  2.2424 -1.0538  1.5817
 2208Sol     MW11986   2.638   0.557   2.168 -0.0485  0.1400 -0.3470
 2209Sol     OW11987   0.802   2.967   1.952  0.0807 -0.4905  0.1312
 2209Sol     HW11988   0.840   2.991   2.036 -1.1017  0.1845  0.4700
 2209Sol     HW11989   0.798   2.871   1.954 -0.0323 -0.4689  0.8745
 2209Sol     MW11990   0.805   2.960   1.960 -0.1126  0.1970  0.7876
 2210Sol     OW11991   3.064   2.432   8.890 -0.3756 -0.1070  0.2614
 2210Sol     HW11992   3.079   2.479   8.972 -0.0079 -0.9791  0.6921
 2210Sol     HW11993   3.148   2.393   8.868 -0.5318 -0.0785 -0.4063
 2210Sol     MW11994   3.073   2.433   8.896 -0.5692 -0.2333  0.2627
 2211Sol     OW11995   1.827   3.189   9.416 -0.3737  0.0609  0.4696
 2211Sol     HW11996   1.832   3.097   9.443  0.4893  0.2068  0.8078
 2211Sol     HW11997   1.873   3.191   9.332  0.1572  0.2952  0.7619
 2211Sol     MW11998   1.832   3.181   9.411  0.1498  0.2737  0.0029
 2212Sol     OW11999   0.412   0.465   8.832 -0.7652 -0.3557 -0.4422
 2212Sol     HW12000   0.356   0.396   8.796 -1.1340 -0.3784  0.1627
 2212Sol     HW12001   0.352   0.522   8.879 -0.1573 -0.9987  1.1627
 2212Sol     MW12002   0.402   0.464   8.833 -0.9895  0.3626  0.2940
 2213Sol     OW12003   3.042   0.660   2.878 -0.0763  0.3603 -0.4661
 2213Sol     HW12004   2.963   0.645   2.825 -1.1026  1.3158  0.7574
 2213Sol     HW12005   3.112   0.614   2.831 -1.5775 -1.4639 -0.9504
 2213Sol     MW12006   3.041   0.655   2.869 -0.0337  0.7747 -0.5142
 2214Sol     OW12007   0.319   0.170   5.228 -0.4155 -0.6432 -0.2976
 2214Sol     HW12008   0.333   0.263   5.213 -2.1671 -0.1595  0.8468
 2214Sol     HW12009   0.401   0.139   5.266 -0.2637  0.7249  0.5210
 2214Sol     MW12010   0.328   0.175   5.230  0.8667 -0.0654  0.0356
 2215Sol     OW12011   0.316   0.973   4.318 -0.2643 -0.1794 -0.6098
 2215Sol     HW12012   0.330   0.900   4.258  0.0528  0.7854 -1.7449
 2215Sol     HW12013   0.290   1.046   4.261 -0.5637  0.5886  0.4938
 2215Sol     MW12014   0.315   0.973   4.307  0.0436  0.0589 -0.4860
 2216Sol     OW12015   0.202   2.317   8.358 -0.2991 -0.0897 -0.4366
 2216Sol     HW12016   0.276   2.366   8.396  0.2408 -0.1853 -1.3583
 2216Sol     HW12017   0.125   2.353   8.403  0.2724  0.2486  0.2917
 2216Sol     MW12018   0.202   2.325   8.366 -0.3617 -0.1348  0.9955
 2217Sol     OW12019   3.074   3.217   3.835 -0.4201 -0.6211 -0.4426
 2217Sol     HW12020   3.053   3.124   3.830  2.1628 -1.2116 -1.3534
 2217Sol     HW12021   3.100   3.231   3.926  0.4455 -1.1156 -0.6030
 2217Sol     MW12022   3.075   3.210   3.842 -0.1495 -0.3865  0.3202
 2218Sol     OW12023   2.946   1.452   9.326  0.2506 -0.5189 -0.6912
 2218Sol     HW12024   3.011   1.429   9.259  0.7915 -1.1739  0.0503
 2218Sol     HW12025   2.913   1.368   9.357 -0.8278 -0.1883 -0.9396
 2218Sol     MW12026   2.949   1.442   9.322 -0.5001  1.1467 -0.0940
 2219Sol     OW12027   2.477   0.714   2.886 -0.3383  0.0923 -0.1512
 2219Sol     HW12028   2.468   0.627   2.926 -2.8720  0.3598 -0.0546
 2219Sol     HW12029   2.506   0.695   2.796  1.1906 -0.7296  0.4990
 2219Sol     MW12030   2.479   0.704   2.881 -0.0419 -0.1046  0.6879
 2220Sol     OW12031   2.036   0.639   6.670 -0.1681 -0.6287 -0.1461
 2220Sol     HW12032   1.966   0.635   6.735 -0.4028 -0.4051 -0.3829
 2220Sol     HW12033   2.082   0.721   6.690  0.8160 -1.4035  0.8123
 2220Sol     MW12034   2.034   0.646   6.677 -0.1132 -0.6971 -0.3499
 2221Sol     OW12035   0.709   1.680   7.818  0.0277  0.1226 -0.4400
 2221Sol     HW12036   0.655   1.748   7.858  0.8447  0.3231  0.3449
 2221Sol     HW12037   0.746   1.632   7.893  1.3411  0.3116 -0.9642
 2221Sol     MW12038   0.707   1.682   7.829  0.3613  0.3616 -0.0993
 2222Sol     OW12039   2.931   1.858   8.116  0.3416  0.8536 -0.4350
 2222Sol     HW12040   2.838   1.865   8.140  0.2381 -0.6673 -0.3784
 2222Sol     HW12041   2.930   1.841   8.022  0.5684  0.6344 -0.3961
 2222Sol     MW12042   2.922   1.857   8.110  0.4330 -0.1852 -0.6920
 2223Sol     OW12043   1.486   0.015   6.588 -0.3098 -0.3963 -0.2401
 2223Sol     HW12044   1.485  -0.065   6.536  0.1836  0.3521 -1.4313
 2223Sol     HW12045   1.475  -0.014   6.678 -1.5150 -1.6939 -0.7985
 2223Sol     MW12046   1.485   0.005   6.591  0.2024  0.7786 -0.6391
 2224Sol     OW12047   2.389   0.796   1.954 -0.4646  0.1597  0.0072
 2224Sol     HW12048   2.385   0.802   2.049  0.5927  1.9447 -0.0391
 2224Sol     HW12049   2.329   0.864   1.923  0.1082  0.3875 -0.6033
 2224Sol     MW12050   2.383   0.803   1.960 -0.3020  0.1511 -0.4242
 2225Sol     OW12051   0.407   0.810   8.486  0.3295  0.2268 -0.9661
 2225Sol     HW12052   0.329   0.843   8.530  2.6778  0.7136  3.1187
 2225Sol     HW12053   0.445   0.887   8.443  1.2775  1.1703  1.4491
 2225Sol     MW12054   0.404   0.820   8.486 -0.0400  0.2628 -0.2771
 2226Sol     OW12055   0.046   2.571   2.228 -0.6938  0.0747  0.2103
 2226Sol     HW12056  -0.017   2.584   2.298 -1.6902 -0.2788 -0.6044
 2226Sol     HW12057   0.031   2.480   2.199 -1.5308  0.7788 -1.6440
 2226Sol     MW12058   0.039   2.564   2.231  0.2596  0.2471 -0.2185
 2227Sol     OW12059   1.836   2.414   3.299  0.1044 -0.3257 -0.5844
 2227Sol     HW12060   1.863   2.477   3.231 -1.2090  1.0234  0.1246
 2227Sol     HW12061   1.846   2.329   3.257  1.7786  0.3467 -1.6194
 2227Sol     MW12062   1.840   2.412   3.289 -0.2872 -0.3243 -0.1377
 2228Sol     OW12063   0.641   2.480   2.802  0.2552 -0.0333 -0.1862
 2228Sol     HW12064   0.718   2.500   2.853 -1.1921  1.5784  1.4256
 2228Sol     HW12065   0.667   2.407   2.746  2.8065  0.2686  0.5760
 2228Sol     MW12066   0.650   2.475   2.801 -0.0088  0.1195  0.2390
 2229Sol     OW12067   0.853   2.357   6.872  0.3782  0.5991 -0.7092
 2229Sol     HW12068   0.894   2.341   6.787  0.4578  2.2271 -1.0055
 2229Sol     HW12069   0.912   2.419   6.915 -0.4963  1.0324 -0.1272
 2229Sol     MW12070   0.862   2.361   6.868 -0.2873 -0.1623  0.6819
 2230Sol     OW12071   2.501   1.104   3.233 -0.0830  0.2094 -0.2488
 2230Sol     HW12072   2.557   1.040   3.277 -0.4401 -0.0973 -0.2454
 2230Sol     HW12073   2.547   1.123   3.151  0.9737  1.3535  0.5771
 2230Sol     MW12074   2.510   1.100   3.230  0.2539  0.9493  0.2244
 2231Sol     OW12075   1.304   0.441   2.119  0.0611  0.0978  0.7046
 2231Sol     HW12076   1.293   0.532   2.092  0.4523 -0.3685 -1.1081
 2231Sol     HW12077   1.281   0.390   2.041 -1.4663 -1.4031  2.1326
 2231Sol     MW12078   1.301   0.445   2.109 -0.0778  0.0008  0.4772
 2232Sol     OW12079   0.724   2.248   7.932  0.7037 -0.5707 -0.2855
 2232Sol     HW12080   0.704   2.335   7.967  2.5344 -0.2843  0.1014
 2232Sol     HW12081   0.650   2.227   7.876 -0.0232  1.0025  0.0522
 2232Sol     MW12082   0.716   2.254   7.930 -0.0646 -0.3919 -0.0084
 2233Sol     OW12083   0.097   0.817   4.528  0.3529  0.1098  0.6115
 2233Sol     HW12084   0.164   0.777   4.472  0.7583 -0.4523  1.4940
 2233Sol     HW12085   0.141   0.831   4.612 -0.0182  1.7072  0.5507
 2233Sol     MW12086   0.107   0.815   4.530  0.1047  0.0950 -0.2085
 2234Sol     OW12087   2.387   1.973   5.894 -0.2909  0.0806  0.0273
 2234Sol     HW12088   2.339   2.052   5.919  1.7069  1.4336 -0.2929
 2234Sol     HW12089   2.448   1.959   5.967 -0.7000 -1.2276  0.1216
 2234Sol     MW12090   2.388   1.979   5.903 -0.2459 -0.2108  0.0384
 2235Sol     OW12091   1.504   0.883   4.865 -0.1145 -0.0707 -0.1705
 2235Sol     HW12092   1.504   0.955   4.802 -1.2918  2.0047  2.0900
 2235Sol     HW12093   1.587   0.890   4.911 -0.6084  0.4369  0.6650
 2235Sol     MW12094   1.511   0.890   4.864  0.6466  0.2525 -0.4845
 2236Sol     OW12095   1.119   1.335   5.238 -0.0364  0.6386  0.3682
 2236Sol     HW12096   1.169   1.401   5.286  0.0466  0.2930  0.7541
 2236Sol     HW12097   1.031   1.371   5.233  0.1717  1.1059 -0.0428
 2236Sol     MW12098   1.116   1.344   5.241 -0.0816  0.1801 -0.1363
 2237Sol     OW12099   2.349   2.474   4.499 -0.3175 -0.2917  0.3433
 2237Sol     HW12100   2.420   2.496   4.438 -0.7557  1.7539  0.5308
 2237Sol     HW12101   2.346   2.378   4.498  0.5683 -0.3467 -1.8411
 2237Sol     MW12102   2.355   2.468   4.493  0.2292  0.1483  0.1756
 2238Sol     OW12103   1.757   1.251   7.704 -0.3985  0.0803  0.3781
 2238Sol     HW12104   1.785   1.191   7.634 -1.6217 -0.0726  0.0024
 2238Sol     HW12105   1.768   1.200   7.785 -0.1849 -0.1976  0.1755
 2238Sol     MW12106   1.760   1.241   7.705  0.5728 -0.3396 -0.2177
 2239Sol     OW12107   0.263   3.444   1.963 -0.2641 -0.8204  0.2218
 2239Sol     HW12108   0.242   3.354   1.938 -0.0277 -0.9644  0.5352
 2239Sol     HW12109   0.184   3.477   2.005 -0.6817 -0.5588 -0.7696
 2239Sol     MW12110   0.254   3.439   1.964 -0.0134  0.5505  0.7267
 2240Sol     OW12111   0.956   2.404   9.174 -0.3910  0.3216 -0.0931
 2240Sol     HW12112   1.049   2.388   9.187 -0.4262  2.0406  2.6524
 2240Sol     HW12113   0.951   2.495   9.144 -1.1995  0.2322 -0.2554
 2240Sol     MW12114   0.964   2.410   9.172 -0.5479  0.1519  0.0279
 2241Sol     OW12115   0.544   2.230   5.154 -0.1933  0.1274  0.2196
 2241Sol     HW12116   0.571   2.170   5.223  1.3793  0.7072  0.1307
 2241Sol     HW12117   0.618   2.231   5.093 -1.7455 -0.7797 -1.7543
 2241Sol     MW12118   0.553   2.224   5.154 -0.0274  0.0284  0.9897
 2242Sol     OW12119   1.597   1.459   2.579  0.3495  0.3142  0.1037
 2242Sol     HW12120   1.506   1.463   2.608  0.2451 -0.5823 -0.0820
 2242Sol     HW12121   1.617   1.548   2.551 -0.1161  0.7809  1.2136
 2242Sol     MW12122   1.591   1.468   2.579 -0.9356 -0.3027 -0.0094
 2243Sol     OW12123   2.874   2.146   6.314 -0.0547  0.8913  0.2169
 2243Sol     HW12124   2.871   2.135   6.219 -0.0149  0.4727  0.2628
 2243Sol     HW12125   2.949   2.094   6.342 -1.1425 -0.4673  0.6697
 2243Sol     MW12126   2.880   2.140   6.308  0.3527  0.1657 -0.0973
 2244Sol     OW12127   0.637   0.665   6.440 -0.0183  0.0328  0.3958
 2244Sol     HW12128   0.555   0.711   6.423  0.2327  0.7626  1.1349
 2244Sol     HW12129   0.618   0.611   6.516  0.2969  0.4928  0.8022
 2244Sol     MW12130   0.628   0.664   6.445 -0.4226  0.8254  0.2938
 2245Sol     OW12131   2.116   2.941   8.875  0.2900  0.4730 -0.1280
 2245Sol     HW12132   2.177   2.975   8.942  0.2885 -1.5743  0.9349
 2245Sol     HW12133   2.033   2.930   8.922  0.2117 -0.6867 -0.5472
 2245Sol     MW12134   2.114   2.943   8.886 -0.2080 -0.2187 -0.3912
 2246Sol     OW12135   1.485   0.600   2.423 -0.2801  0.4965 -0.0842
 2246Sol     HW12136   1.502   0.572   2.513 -0.4565 -0.9546 -0.4911
 2246Sol     HW12137   1.525   0.532   2.368 -1.8202  0.3571 -1.0784
 2246Sol     MW12138   1.490   0.591   2.426 -0.2143 -0.0144 -0.1956
 2247Sol     OW12139   2.987   1.972   4.120 -0.4581 -0.1820  0.1936
 2247Sol     HW12140   3.024   1.993   4.034  2.2709  0.5954  1.4993
 2247Sol     HW12141   2.974   1.877   4.118  0.4001 -0.2902 -0.7662
 2247Sol     MW12142   2.989   1.965   4.112  0.3629 -0.2447  0.0592
 2248Sol     OW12143   2.041   1.147   7.066  0.6088  0.1766 -0.0071
 2248Sol     HW12144   2.080   1.173   6.983  1.0019 -1.2614 -0.2766
 2248Sol     HW12145   2.007   1.059   7.050  0.6907 -0.1043  1.3627
 2248Sol     MW12146   2.041   1.142   7.057  0.3090 -0.9372  0.0572
 2249Sol     OW12147   1.700   2.703   9.053  0.2314 -0.1891 -0.0818
 2249Sol     HW12148   1.733   2.625   9.098 -0.1233 -0.0004  0.5206
 2249Sol     HW12149   1.652   2.751   9.121 -1.1831 -0.4043 -0.8940
 2249Sol     MW12150   1.698   2.700   9.063 -0.0028 -0.2624 -0.0855
 2250Sol     OW12151   1.176   2.085   3.599 -0.1714 -0.0992 -0.1614
 2250Sol     HW12152   1.253   2.053   3.645  0.1587 -0.4183 -0.9373
 2250Sol     HW12153   1.122   2.124   3.668  0.3614 -0.4881  0.4831
 2250Sol     MW12154   1.178   2.085   3.609 -0.3209 -0.0991 -0.3033
 2251Sol     OW12155   3.061   0.561   3.176 -0.0683  0.6841  0.1516
 2251Sol     HW12156   3.072   0.526   3.264 -0.3749  0.5313  0.1316
 2251Sol     HW12157   3.074   0.656   3.186 -1.7726  0.8942  0.6864
 2251Sol     MW12158   3.063   0.567   3.185  0.5304 -0.3400 -0.1684
 2252Sol     OW12159   2.354   0.820   5.186 -0.3808 -0.4414  0.2125
 2252Sol     HW12160   2.290   0.890   5.183  0.8126  0.6280 -0.7273
 2252Sol     HW12161   2.365   0.801   5.280 -2.2558 -0.8446  0.3666
 2252Sol     MW12162   2.350   0.824   5.194  0.1073 -0.3425  0.0981
 2253Sol     OW12163   3.276   2.370   3.068 -0.2354  0.1904  0.5162
 2253Sol     HW12164   3.364   2.348   3.097  0.3374 -0.8204 -1.8864
 2253Sol     HW12165   3.257   2.308   2.998 -2.0828  1.6836 -0.3567
 2253Sol     MW12166   3.282   2.363   3.065  0.1690 -0.6075  0.3494
 2254Sol     OW12167   0.517   1.504   6.189 -0.8878  0.4266 -0.5049
 2254Sol     HW12168   0.461   1.428   6.205 -0.1674  0.1197  0.6050
 2254Sol     HW12169   0.598   1.467   6.155  0.1901  0.5170  1.8756
 2254Sol     MW12170   0.519   1.494   6.187 -0.0039  0.3368 -0.0219
 2255Sol     OW12171   2.588   0.536   5.997  0.2602 -0.0533 -0.2351
 2255Sol     HW12172   2.594   0.617   5.945 -0.8203  1.0108  1.2606
 2255Sol     HW12173   2.537   0.477   5.942  1.0059  0.2850 -1.3190
 2255Sol     MW12174   2.584   0.538   5.987  0.1977 -0.7030  0.0851
 2256Sol     OW12175   0.818   0.950   2.181 -0.4246 -0.4267 -0.4373
 2256Sol     HW12176   0.845   1.033   2.218 -0.3509 -1.0331  0.8898
 2256Sol     HW12177   0.805   0.968   2.088  1.7046  0.5457 -0.5532
 2256Sol     MW12178   0.819   0.959   2.176 -0.5420 -0.1233  0.7337
 2257Sol     OW12179   2.749   3.319   7.911  0.6565  0.2959  0.2965
 2257Sol     HW12180   2.813   3.300   7.842  0.4713  1.4711 -0.2043
 2257Sol     HW12181   2.681   3.369   7.867 -0.6457 -0.9741  0.8159
 2257Sol     MW12182   2.749   3.321   7.901 -0.0813  0.5827  0.2115
 2258Sol     OW12183   1.690   1.274   4.919 -0.2913 -0.0634 -0.3692
 2258Sol     HW12184   1.650   1.345   4.969  0.5036 -0.4256  0.7891
 2258Sol     HW12185   1.617   1.213   4.903 -0.4626 -0.1431  0.6973
 2258Sol     MW12186   1.680   1.275   4.922 -0.1730 -0.1618  0.1749
 2259Sol     OW12187   0.993   2.523   3.854 -0.1899  0.1637 -0.5258
 2259Sol     HW12188   0.982   2.519   3.949  0.2233 -0.6739 -0.5044
 2259Sol     HW12189   0.966   2.611   3.830 -0.8267  0.1995  0.3048
 2259Sol     MW12190   0.990   2.530   3.860  0.4964 -0.7569 -0.4474
 2260Sol     OW12191   0.686   2.230   4.901 -0.3698 -0.0180  0.3009
 2260Sol     HW12192   0.661   2.201   4.813  0.6817  2.3935 -0.8267
 2260Sol     HW12193   0.667   2.323   4.902  0.6815  0.1992  2.2752
 2260Sol     MW12194   0.682   2.235   4.893 -0.6084 -0.3200  0.0265
 2261Sol     OW12195   3.271   1.590   3.972  0.0715 -0.0743 -0.1315
 2261Sol     HW12196   3.266   1.587   3.876 -0.7150  1.5864 -0.1688
 2261Sol     HW12197   3.334   1.660   3.990  2.5600 -2.4041  0.5777
 2261Sol     MW12198   3.276   1.596   3.965  0.4701  0.3090 -0.1089
 2262Sol     OW12199   0.119   1.157   3.446 -0.4783  0.1630  0.3572
 2262Sol     HW12200   0.098   1.134   3.356  1.7223  0.9999 -0.3892
 2262Sol     HW12201   0.214   1.147   3.453 -0.5884  0.3031  2.5261
 2262Sol     MW12202   0.126   1.154   3.439 -0.0656  0.2359 -0.1961
 2263Sol     OW12203   2.931   1.322   7.447  0.3408  0.1157  0.2260
 2263Sol     HW12204   2.869   1.385   7.412 -1.1913 -1.4978 -0.0306
 2263Sol     HW12205   2.959   1.271   7.371 -1.2398 -1.8898  0.9403
 2263Sol     MW12206   2.928   1.323   7.437 -0.6097 -0.1619 -0.2210
 2264Sol     OW12207   2.885   2.657   4.066 -0.0877 -0.1664  0.3485
 2264Sol     HW12208   2.822   2.700   4.124  2.3321  2.3031  1.2584
 2264Sol     HW12209   2.967   2.658   4.114  1.4008 -0.3438 -2.0827
 2264Sol     MW12210   2.887   2.661   4.075  0.3786 -0.2375 -0.2636
 2265Sol     OW12211   0.610   0.544   7.912  0.2121 -0.2629 -0.3670
 2265Sol     HW12212   0.592   0.579   7.825  0.9459 -1.0343 -0.8363
 2265Sol     HW12213   0.534   0.569   7.964 -0.1411  0.3712 -1.1781
 2265Sol     MW12214   0.602   0.550   7.909  0.1656 -0.2144 -0.0431
 2266Sol     OW12215   0.461   3.340   8.741 -0.2662  0.1497 -0.0684
 2266Sol     HW12216   0.555   3.324   8.748 -0.1368  1.9536  3.1364
 2266Sol     HW12217   0.454   3.422   8.691 -0.0692  0.7262  0.8437
 2266Sol     MW12218   0.469   3.346   8.737  0.1312 -0.7119  0.4058
 2267Sol     OW12219   2.489   3.445   8.171 -0.3700 -0.0492  0.1698
 2267Sol     HW12220   2.410   3.492   8.145 -0.7288 -1.7733 -2.0274
 2267Sol     HW12221   2.552   3.465   8.102  0.8913  0.7071  1.5171
 2267Sol     MW12222   2.488   3.451   8.162  0.3015  0.2149 -0.1114
 2268Sol     OW12223   1.734   1.406   6.234 -0.2754  0.2927  0.0450
 2268Sol     HW12224   1.770   1.466   6.301  1.0593  1.6296 -1.8050
 2268Sol     HW12225   1.692   1.464   6.171  0.2937 -0.7860 -1.3421
 2268Sol     MW12226   1.734   1.417   6.234 -0.3958 -0.3910  0.1053
 2269Sol     OW12227   1.155   2.739   2.556  0.1329 -0.2839 -0.4286
 2269Sol     HW12228   1.168   2.829   2.527  0.5063 -0.6951 -1.5486
 2269Sol     HW12229   1.143   2.689   2.475 -1.9905 -0.9436  0.2453
 2269Sol     MW12230   1.155   2.743   2.546  0.4730 -0.0275  0.1410
 2270Sol     OW12231   0.157   0.194   7.279 -0.0697 -0.0071  0.3631
 2270Sol     HW12232   0.179   0.281   7.312 -0.9010  0.7584 -1.0173
 2270Sol     HW12233   0.206   0.187   7.197  0.8835 -1.3132  1.0205
 2270Sol     MW12234   0.164   0.201   7.274 -0.4186 -0.6258  0.1766
 2271Sol     OW12235   1.171   0.928   3.049  0.4821  0.5589  0.4233
 2271Sol     HW12236   1.160   0.854   3.108  1.1750 -0.9674 -1.3287
 2271Sol     HW12237   1.239   0.981   3.089  0.2870  0.0214  1.4621
 2271Sol     MW12238   1.176   0.926   3.058  0.0865 -0.7340 -0.0794
 2272Sol     OW12239   1.222   1.067   2.138 -0.5021  0.1460  0.1629
 2272Sol     HW12240   1.184   0.979   2.146 -0.4599  0.1610  0.5394
 2272Sol     HW12241   1.147   1.123   2.119 -0.5941  0.0939  0.3653
 2272Sol     MW12242   1.212   1.064   2.137 -0.2147  0.2217  0.2530
 2273Sol     OW12243   0.509   2.500   5.457  0.0698 -0.4254  0.6412
 2273Sol     HW12244   0.496   2.543   5.372  0.8592  0.1492  0.8078
 2273Sol     HW12245   0.603   2.498   5.469  0.0058 -1.5528  0.9823
 2273Sol     MW12246   0.516   2.504   5.451 -0.2080 -0.1727  0.1240
 2274Sol     OW12247   1.329   0.343   9.414  0.1950 -0.1291  0.5464
 2274Sol     HW12248   1.403   0.291   9.446  0.1368  0.2045  1.2326
 2274Sol     HW12249   1.254   0.283   9.418  0.3075 -0.2759  0.4501
 2274Sol     MW12250   1.329   0.333   9.417 -0.7718  0.0193 -0.3897
 2275Sol     OW12251   0.328   3.217   5.430  0.0027 -0.2744 -0.3628
 2275Sol     HW12252   0.371   3.145   5.384 -0.1837  0.4938 -1.7570
 2275Sol     HW12253   0.264   3.251   5.368 -1.2622 -0.1465  0.9998
 2275Sol     MW12254   0.326   3.214   5.420  0.4331  0.7603 -0.1941
 2276Sol     OW12255   0.298   3.110   8.797 -0.8526 -0.3224 -0.2881
 2276Sol     HW12256   0.330   3.196   8.770 -1.7759 -0.3961 -1.6855
 2276Sol     HW12257   0.205   3.123   8.814 -0.9943 -1.0285 -0.4848
 2276Sol     MW12258   0.292   3.119   8.796 -0.4115  0.3746 -0.1996
 2277Sol     OW12259   1.583   0.607   8.066  0.5910  0.1333  0.1811
 2277Sol     HW12260   1.657   0.568   8.019 -0.1439  0.8217 -1.6171
 2277Sol     HW12261   1.556   0.680   8.010 -2.1418 -0.7813  0.2426
 2277Sol     MW12262   1.587   0.610   8.057 -0.8236  0.3237  0.2889
 2278Sol     OW12263   1.951   2.002   2.373  0.3168  0.4633 -0.2115
 2278Sol     HW12264   2.021   2.051   2.330  0.3665  0.4831 -0.1096
 2278Sol     HW12265   1.880   2.065   2.383  0.8250  0.8534  1.0183
 2278Sol     MW12266   1.951   2.012   2.370  0.7156 -0.5636 -0.1416
 2279Sol     OW12267   0.827   2.004   2.787  0.9147 -0.1284 -0.1116
 2279Sol     HW12268   0.814   1.927   2.732  1.8569 -0.7326  0.5012
 2279Sol     HW12269   0.915   2.035   2.764  0.7745  0.4139  0.0777
 2279Sol     MW12270   0.834   2.000   2.780 -0.5824  0.6250  0.1670
 2280Sol     OW12271   0.824   1.283   7.558  0.0909 -0.2188  0.1483
 2280Sol     HW12272   0.883   1.232   7.614  0.3334 -1.4296 -1.1720
 2280Sol     HW12273   0.744   1.230   7.554  0.2079 -0.3214 -0.9286
 2280Sol     MW12274   0.822   1.274   7.563  0.1443  0.9879  0.0125
 2281Sol     OW12275   2.445   0.552   4.667 -0.0464  0.2058 -0.2428
 2281Sol     HW12276   2.513   0.507   4.618 -0.1756 -1.1902  0.8405
 2281Sol     HW12277   2.470   0.542   4.759 -1.3883  0.2124  0.1375
 2281Sol     MW12278   2.453   0.547   4.671  0.1044  0.0213  0.4721
 2282Sol     OW12279   2.917   0.144   8.296 -0.3020  0.3225  0.3152
 2282Sol     HW12280   2.876   0.217   8.251 -0.7743 -0.3127 -0.2956
 2282Sol     HW12281   2.860   0.126   8.371 -1.3888 -0.8167 -0.7527
 2282Sol     MW12282   2.908   0.149   8.299 -0.1367 -0.2097 -0.3205
 2283Sol     OW12283   1.909   0.172   5.952  0.3267  0.1081 -0.0985
 2283Sol     HW12284   1.882   0.131   6.035  0.7587 -0.7845 -0.3960
 2283Sol     HW12285   1.835   0.157   5.893 -0.2629  1.3263  0.3070
 2283Sol     MW12286   1.900   0.167   5.954  0.1883  0.2341  0.2156
 2284Sol     OW12287   1.938   3.007   5.098  0.0671 -0.1182 -0.0350
 2284Sol     HW12288   1.958   3.055   5.179  0.7745 -1.3744  0.5470
 2284Sol     HW12289   1.924   2.917   5.127  0.5492 -0.6198 -1.3533
 2284Sol     MW12290   1.938   3.003   5.108  0.1580 -0.1654  0.0175
 2285Sol     OW12291   1.547   0.875   7.949 -0.6106  0.2352 -0.1645
 2285Sol     HW12292   1.464   0.839   7.918 -0.8843 -0.0363  0.8522
 2285Sol     HW12293   1.535   0.970   7.944 -0.6076  0.1962 -0.9733
 2285Sol     MW12294   1.538   0.881   7.946 -0.1388  0.1238 -0.3919
 2286Sol     OW12295   0.765   2.183   9.258  1.1142  0.3429  0.0403
 2286Sol     HW12296   0.693   2.237   9.292  0.7307  0.0881 -0.3615
 2286Sol     HW12297   0.829   2.245   9.224  0.0673  0.5192 -1.6586
 2286Sol     MW12298   0.764   2.193   9.258  0.5563 -0.0085  0.4080
 2287Sol     OW12299   0.840   2.203   2.381 -0.1885  0.8565  0.5093
 2287Sol     HW12300   0.863   2.110   2.379 -0.2549  0.8375  0.6359
 2287Sol     HW12301   0.766   2.208   2.442 -0.8087  0.8509 -0.2412
 2287Sol     MW12302   0.836   2.195   2.386  0.2323 -0.2509 -0.5715
 2288Sol     OW12303   2.526   2.969   7.777  0.2619 -0.6437 -0.2112
 2288Sol     HW12304   2.454   3.002   7.830 -0.4188  0.5654 -1.8222
 2288Sol     HW12305   2.583   2.923   7.838 -0.8893  0.0471  1.4031
 2288Sol     MW12306   2.525   2.968   7.787 -0.2057  0.0236 -0.2870
 2289Sol     OW12307   2.214   2.407   5.803  0.4502  0.0746  0.1480
 2289Sol     HW12308   2.188   2.322   5.768 -0.0532  0.7350 -1.1509
 2289Sol     HW12309   2.132   2.456   5.810  0.5809  0.0408  2.0779
 2289Sol     MW12310   2.204   2.404   5.800 -0.7822 -0.0777 -0.6255
 2290Sol     OW12311   0.987   1.243   6.047  0.3189  0.4336  0.4786
 2290Sol     HW12312   1.026   1.213   6.130 -0.8037  1.2796  1.3230
 2290Sol     HW12313   1.030   1.327   6.030 -0.3694  0.8712  0.8743
 2290Sol     MW12314   0.995   1.248   6.053  0.1885 -0.0745  0.3627
 2291Sol     OW12315   2.526   1.622   7.610  0.1634  0.1576 -0.5871
 2291Sol     HW12316   2.560   1.695   7.559 -0.3011 -0.2960 -1.5615
 2291Sol     HW12317   2.582   1.619   7.688  0.0381  1.6863 -0.4276
 2291Sol     MW12318   2.534   1.628   7.612 -0.3646  0.1569 -0.0475
 2292Sol     OW12319   1.709   0.244   2.685  0.0406 -0.0687  0.4104
 2292Sol     HW12320   1.706   0.209   2.774  0.0327 -1.6923 -0.2262
 2292Sol     HW12321   1.728   0.169   2.630  0.1879  0.9590 -0.9607
 2292Sol     MW12322   1.710   0.235   2.688  0.2034  0.3975  0.1914
 2293Sol     OW12323   1.920   0.719   8.933 -0.2486 -0.3422  0.0676
 2293Sol     HW12324   2.014   0.733   8.943 -0.7726  3.1924  0.8088
 2293Sol     HW12325   1.898   0.764   8.851 -1.6415  1.0626  1.1708
 2293Sol     MW12326   1.926   0.725   8.926 -0.3287 -1.1081  0.3638
 2294Sol     OW12327   1.648   1.620   5.579 -0.1854 -0.3507 -0.2084
 2294Sol     HW12328   1.740   1.633   5.601  0.1304 -1.0231 -1.0927
 2294Sol     HW12329   1.608   1.706   5.588  0.7666  0.1727 -0.8868
 2294Sol     MW12330   1.652   1.629   5.582  0.2028  0.1009 -0.6819
 2295Sol     OW12331   2.920   0.398   9.057 -0.4980  0.1384 -0.4005
 2295Sol     HW12332   2.993   0.421   9.000  0.6882 -4.1104 -0.7522
 2295Sol     HW12333   2.843   0.406   9.002  0.4895 -2.5145 -2.2746
 2295Sol     MW12334   2.920   0.401   9.047 -0.1237 -0.1408 -0.6271
 2296Sol     OW12335   1.484   2.533   6.451 -0.2157 -0.2164 -0.3813
 2296Sol     HW12336   1.548   2.463   6.462 -1.3607 -1.0004  1.5055
 2296Sol     HW12337   1.432   2.506   6.376  1.0713 -0.0165 -1.3654
 2296Sol     MW12338   1.485   2.524   6.446 -0.3446  0.0880  0.0561
 2297Sol     OW12339   2.656   2.814   7.969 -0.3771 -0.0564  0.1470
 2297Sol     HW12340   2.722   2.814   7.900  0.7543  0.6702  1.2148
 2297Sol     HW12341   2.661   2.901   8.007 -2.3587  0.2030 -0.1279
 2297Sol     MW12342   2.662   2.821   7.966 -0.4687  0.0743 -0.1712
 2298Sol     OW12343   0.915   1.138   5.066 -0.1415  0.0014 -0.0422
 2298Sol     HW12344   0.899   1.179   4.981  0.0246 -2.7063 -1.4561
 2298Sol     HW12345   0.995   1.086   5.053  0.3673  0.2124  2.0285
 2298Sol     MW12346   0.921   1.137   5.057  0.1432 -0.2991  0.1894
 2299Sol     OW12347   0.040   0.258   3.215  0.1103 -0.2949 -0.5430
 2299Sol     HW12348  -0.002   0.193   3.272  1.5018  0.2993  1.2119
 2299Sol     HW12349   0.120   0.215   3.184  1.8990  1.0668  1.9439
 2299Sol     MW12350   0.043   0.248   3.218 -0.6834  0.1379  0.1791
 2300Sol     OW12351   2.838   0.108   5.447  0.2735 -0.4401  0.6921
 2300Sol     HW12352   2.844   0.022   5.488 -1.2675  0.0083  1.8808
 2300Sol     HW12353   2.904   0.105   5.377  0.1261 -2.6237  0.6026
 2300Sol     MW12354   2.845   0.100   5.445 -0.6421  0.1699 -0.3719
 2301Sol     OW12355   1.588   1.503   5.036  0.4390  0.1660 -0.1007
 2301Sol     HW12356   1.585   1.502   5.132 -0.0399 -0.0285 -0.1148
 2301Sol     HW12357   1.656   1.567   5.015  0.3896  0.3761  0.3665
 2301Sol     MW12358   1.594   1.509   5.043  0.7386 -0.1715 -0.0871
 2302Sol     OW12359   0.582   1.800   9.453  0.7076  0.3563  0.5949
 2302Sol     HW12360   0.504   1.846   9.424  1.4498  0.5599 -1.1473
 2302Sol     HW12361   0.550   1.737   9.517 -1.2516 -1.2649 -1.8875
 2302Sol     MW12362   0.573   1.798   9.456  0.3936 -0.1754 -0.1268
 2303Sol     OW12363   2.543   1.201   4.774 -0.2577  0.0779  0.1637
 2303Sol     HW12364   2.586   1.234   4.854 -0.8017 -2.3462  1.5286
 2303Sol     HW12365   2.608   1.214   4.705 -0.0910  2.9796  0.8065
 2303Sol     MW12366   2.553   1.205   4.775  0.3703  0.1568 -0.2579
 2304Sol     OW12367   3.286   2.782   9.461  0.1035  0.3380 -0.5724
 2304Sol     HW12368   3.372   2.775   9.419 -0.3243  1.9270 -1.7374
 2304Sol     HW12369   3.236   2.839   9.403 -0.9728  1.3621  1.3439
 2304Sol     MW12370   3.290   2.786   9.452 -0.4689 -0.3646  0.1217
 2305Sol     OW12371   1.598   0.503   6.902 -0.1179  0.4741 -0.3161
 2305Sol     HW12372   1.525   0.442   6.896 -0.6316  1.0757 -0.2701
 2305Sol     HW12373   1.612   0.514   6.996  0.4055 -0.0809 -0.3281
 2305Sol     MW12374   1.593   0.499   6.910 -0.4047 -0.4075 -0.4832
 2306Sol     OW12375   1.838   1.155   7.452 -0.1039  0.3505 -0.0252
 2306Sol     HW12376   1.930   1.135   7.467  0.0759  1.3751  0.2838
 2306Sol     HW12377   1.806   1.083   7.398  0.7210 -0.3308  0.3849
 2306Sol     MW12378   1.843   1.147   7.449 -0.5842 -0.1923 -0.5526
 2307Sol     OW12379   0.155   2.162   7.142  0.5142  0.4182 -0.3030
 2307Sol     HW12380   0.199   2.218   7.207  0.8488 -0.6580  0.4121
 2307Sol     HW12381   0.158   2.074   7.180  1.0791 -0.3041 -1.9770
 2307Sol     MW12382   0.159   2.159   7.152 -0.0580  0.1105 -0.4374
 2308Sol     OW12383   2.497   1.322   7.836 -0.1667  0.2317 -0.3871
 2308Sol     HW12384   2.531   1.305   7.748 -0.0923 -0.2146 -0.2734
 2308Sol     HW12385   2.575   1.348   7.887 -0.4128  1.7781 -0.7727
 2308Sol     MW12386   2.507   1.323   7.833  0.7172  0.2566 -0.5090
 2309Sol     OW12387   1.417   2.784   4.344  0.0046 -0.2436  0.1495
 2309Sol     HW12388   1.501   2.828   4.335 -0.5523  0.7714 -0.0882
 2309Sol     HW12389   1.352   2.853   4.333 -0.9620 -1.6064 -3.3272
 2309Sol     MW12390   1.419   2.794   4.342 -0.0388  0.0095  0.3001
 2310Sol     OW12391   2.367   2.297   4.193 -0.0728 -0.1157  0.3070
 2310Sol     HW12392   2.454   2.302   4.153 -0.0739  1.9905  0.5480
 2310Sol     HW12393   2.383   2.259   4.280  0.6068  0.2407  0.3432
 2310Sol     MW12394   2.376   2.294   4.197 -0.1149 -0.1632 -0.4877
 2311Sol     OW12395   0.015   0.086   2.032 -0.7617  0.1241 -0.2152
 2311Sol     HW12396   0.039   0.162   2.085 -0.4702 -1.4807  2.0203
 2311Sol     HW12397  -0.071   0.108   1.996 -0.6394  1.5398  0.3359
 2311Sol     MW12398   0.009   0.095   2.033  0.2343 -0.1202 -0.0573
 2312Sol     OW12399   1.117   0.381   7.350 -0.2120 -0.0837  0.3138
 2312Sol     HW12400   1.110   0.286   7.355 -0.6324 -0.0471  0.4795
 2312Sol     HW12401   1.046   0.413   7.406 -1.2652  0.3377 -1.2510
 2312Sol     MW12402   1.110   0.376   7.356  0.3327 -0.1724 -0.8381
 2313Sol     OW12403   0.112   0.680   7.244 -0.2956  0.2386 -0.6160
 2313Sol     HW12404   0.163   0.753   7.210  0.4436  1.0875  2.1363
 2313Sol     HW12405   0.028   0.720   7.269  0.5688  0.4800  2.0841
 2313Sol     MW12406   0.109   0.691   7.243  0.5291  0.1694  0.7129
 2314Sol     OW12407   2.288   1.331   5.181 -0.2222  0.6342  0.1791
 2314Sol     HW12408   2.285   1.357   5.273  0.3783  0.9366  0.1204
 2314Sol     HW12409   2.215   1.377   5.140 -0.5468  0.4275  0.5180
 2314Sol     MW12410   2.281   1.337   5.186 -0.1810  0.1655  0.3639
 2315Sol     OW12411   1.159   3.069   4.093 -0.2255 -0.4020 -0.2130
 2315Sol     HW12412   1.223   3.133   4.062  0.0851 -0.2366  0.7492
 2315Sol     HW12413   1.091   3.121   4.134  0.1601 -0.6849  0.8191
 2315Sol     MW12414   1.159   3.079   4.094 -0.0933 -0.4518 -0.2013
 2316Sol     OW12415   2.167   2.741   4.823  0.4500 -0.1833 -0.0988
 2316Sol     HW12416   2.240   2.699   4.778  1.3446  0.0767  1.0570
 2316Sol     HW12417   2.093   2.735   4.763  1.1538 -1.4129 -0.8420
 2316Sol     MW12418   2.167   2.737   4.814 -0.1177  0.6138  0.7226
 2317Sol     OW12419   1.899   3.044   3.585  0.0149 -0.0649  0.6177
 2317Sol     HW12420   1.983   3.019   3.546 -0.3887  2.2689 -1.9456
 2317Sol     HW12421   1.922   3.089   3.666  1.2204  0.1686  0.1484
 2317Sol     MW12422   1.909   3.046   3.588  0.0088  0.0932  0.0310
 2318Sol     OW12423   0.559   2.299   6.163  0.4311 -0.3250 -0.0899
 2318Sol     HW12424   0.556   2.388   6.196 -0.9796 -0.1722 -0.5804
 2318Sol     HW12425   0.514   2.303   6.078  2.9156 -0.9390 -1.4881
 2318Sol     MW12426   0.555   2.307   6.158  0.8636  0.1349  0.2928
 2319Sol     OW12427   2.815   2.712   6.912 -0.0080  0.4586 -0.1902
 2319Sol     HW12428   2.879   2.765   6.864  2.0587  0.6214  2.6187
 2319Sol     HW12429   2.854   2.701   6.999 -1.5405 -3.5848  0.0790
 2319Sol     MW12430   2.825   2.716   6.916  0.0575 -0.2766 -0.6356
 2320Sol     OW12431   1.155   1.970   8.288  0.2117  0.3359  0.0781
 2320Sol     HW12432   1.169   2.062   8.313  0.6379  0.2023  0.3400
 2320Sol     HW12433   1.121   1.974   8.199  1.3994  0.7034 -0.3654
 2320Sol     MW12434   1.154   1.979   8.283 -0.6121 -0.0155  0.0289
 2321Sol     OW12435   2.282   1.215   8.245  0.3520 -0.2963 -0.0741
 2321Sol     HW12436   2.234   1.133   8.233 -0.7366  0.2481  0.4722
 2321Sol     HW12437   2.264   1.240   8.336 -2.4893  2.4898 -1.2883
 2321Sol     MW12438   2.276   1.210   8.252 -0.1430 -0.0515 -0.5040
 2322Sol     OW12439   2.743   0.096   4.592 -0.1508  0.3664 -0.1117
 2322Sol     HW12440   2.787   0.167   4.544 -1.3690  0.6747 -0.8141
 2322Sol     HW12441   2.754   0.119   4.684  0.3592  0.9199 -0.3034
 2322Sol     MW12442   2.748   0.105   4.596 -0.7728 -0.1208 -0.2468
 2323Sol     OW12443   2.927   2.177   3.759  0.2908 -0.0465 -0.5574
 2323Sol     HW12444   3.008   2.137   3.791  0.1501 -0.3768 -0.6118
 2323Sol     HW12445   2.908   2.247   3.823 -0.4242 -1.2188  0.5418
 2323Sol     MW12446   2.933   2.180   3.768 -0.2969 -0.1255  0.3594
 2324Sol     OW12447   1.318   0.717   2.082 -0.3702 -0.5124  0.5674
 2324Sol     HW12448   1.321   0.791   2.020 -0.6600 -1.1240 -0.1876
 2324Sol     HW12449   1.274   0.752   2.159 -1.0697 -0.0642 -0.0309
 2324Sol     MW12450   1.314   0.727   2.083 -0.3411  0.2688 -0.0696
 2325Sol     OW12451   1.686   2.172   2.138  0.1461  0.1799  0.3025
 2325Sol     HW12452   1.651   2.084   2.150 -1.2678  0.5752 -0.8266
 2325Sol     HW12453   1.777   2.159   2.110  0.0995 -0.8915  0.6370
 2325Sol     MW12454   1.691   2.163   2.137  0.5994  0.1129  0.3412
 2326Sol     OW12455   2.525   3.079   6.815  0.2804 -0.4407 -0.2076
 2326Sol     HW12456   2.438   3.078   6.853 -0.7374 -2.4280 -2.4352
 2326Sol     HW12457   2.556   2.989   6.825  0.7140 -0.5470 -2.3525
 2326Sol     MW12458   2.520   3.070   6.819  0.0951 -0.0733  0.5204
 2327Sol     OW12459   0.337   1.294   4.119  0.7739 -0.1882 -0.5214
 2327Sol     HW12460   0.386   1.346   4.055  2.1693 -0.3630  0.3853
 2327Sol     HW12461   0.404   1.250   4.171 -0.3447 -0.3101  0.8547
 2327Sol     MW12462   0.347   1.295   4.118  0.0884 -0.1285 -0.3064
 2328Sol     OW12463   2.179   2.242   9.554 -0.0829  0.5411 -0.1992
 2328Sol     HW12464   2.273   2.242   9.575 -0.1448 -2.5165  0.2760
 2328Sol     HW12465   2.170   2.310   9.486  2.4496  0.9565 -0.1789
 2328Sol     MW12466   2.187   2.248   9.549 -0.3639 -0.1765  0.5769
 2329Sol     OW12467   1.415   0.208   4.308  1.0077 -0.3419  0.5948
 2329Sol     HW12468   1.456   0.278   4.257 -1.1481 -0.6822 -1.6868
 2329Sol     HW12469   1.339   0.249   4.348 -0.3849 -1.3647 -0.9164
 2329Sol     MW12470   1.412   0.218   4.307 -0.7516  0.0148 -0.3187
 2330Sol     OW12471   0.375   3.319   3.377  0.1443 -0.0739  0.0532
 2330Sol     HW12472   0.351   3.406   3.410 -0.0511 -0.8512  2.0210
 2330Sol     HW12473   0.328   3.311   3.294 -1.8865  0.6852  1.1023
 2330Sol     MW12474   0.369   3.326   3.372  0.1209 -0.1973  0.7498
 2331Sol     OW12475   2.286   0.478   2.633 -0.4052  0.4252 -0.2184
 2331Sol     HW12476   2.324   0.390   2.633  3.0367  1.8418  0.4117
 2331Sol     HW12477   2.250   0.489   2.721 -0.3214 -0.1382 -0.1143
 2331Sol     MW12478   2.286   0.471   2.641  0.4841  0.0812 -0.4050
 2332Sol     OW12479   2.185   3.291   7.480 -0.0141 -0.1939  0.0899
 2332Sol     HW12480   2.166   3.311   7.388 -1.7391 -0.0922  0.4452
 2332Sol     HW12481   2.144   3.205   7.494 -1.7559  0.8063  1.3478
 2332Sol     MW12482   2.180   3.285   7.473  0.1770 -0.2781 -0.2168
 2333Sol     OW12483   3.010   0.485   8.050 -0.0526  0.2918  0.0093
 2333Sol     HW12484   3.090   0.448   8.088 -1.2509 -1.2969  1.0637
 2333Sol     HW12485   2.962   0.410   8.015 -1.1467  1.2020 -0.4956
 2333Sol     MW12486   3.013   0.475   8.051 -0.2947 -0.5251  0.0056
 2334Sol     OW12487   1.155   2.092   6.525  0.1914 -0.3627  0.1137
 2334Sol     HW12488   1.163   2.049   6.610  2.6750  2.3471  1.3077
 2334Sol     HW12489   1.081   2.152   6.536  0.9356  0.4685  0.5670
 2334Sol     MW12490   1.149   2.093   6.533  0.3192 -0.0137  1.0654
 2335Sol     OW12491   1.437   1.894   3.333 -1.0078 -0.2825  0.4724
 2335Sol     HW12492   1.445   1.952   3.258 -1.9945 -1.2822 -0.4191
 2335Sol     HW12493   1.346   1.905   3.362 -1.4404 -1.9802 -0.2039
 2335Sol     MW12494   1.430   1.900   3.329 -0.2644 -0.0649 -0.5315
 2336Sol     OW12495   1.346   2.887   6.084  0.5249  0.1041 -0.3123
 2336Sol     HW12496   1.272   2.827   6.078  1.5454 -1.2722  0.5317
 2336Sol     HW12497   1.415   2.846   6.031  1.5748 -0.0242  1.1206
 2336Sol     MW12498   1.345   2.878   6.079 -0.3200  0.3696 -0.4603
 2337Sol     OW12499   1.160   3.139   5.295 -0.7344 -0.0743  0.5205
 2337Sol     HW12500   1.129   3.197   5.365 -0.7590 -0.0057  0.4527
 2337Sol     HW12501   1.255   3.144   5.300 -0.7273  1.3162 -0.5921
 2337Sol     MW12502   1.166   3.145   5.302  0.0842 -0.0404  0.4801
 2338Sol     OW12503   1.551   3.094   9.360  0.0360  0.9589 -0.2221
 2338Sol     HW12504   1.622   3.152   9.387  0.1475  1.4543 -1.5414
 2338Sol     HW12505   1.481   3.154   9.334  1.1784  0.6049 -4.4295
 2338Sol     MW12506   1.551   3.105   9.360  0.0658  0.2822 -0.2008
 2339Sol     OW12507   1.643   2.644   6.144 -0.2388 -0.3480  0.7697
 2339Sol     HW12508   1.553   2.612   6.142 -0.8080  1.1878  0.9564
 2339Sol     HW12509   1.638   2.726   6.193  1.1920 -0.0340  0.4111
 2339Sol     MW12510   1.634   2.649   6.148 -0.0973  0.0048  0.2071
 2340Sol     OW12511   1.456   2.623   2.352  0.0066 -0.5805  0.3485
 2340Sol     HW12512   1.522   2.563   2.317  1.5189  0.7811  0.7514
 2340Sol     HW12513   1.411   2.657   2.275  1.7713  0.6633 -0.1751
 2340Sol     MW12514   1.458   2.621   2.342  0.3939 -0.0371 -0.4311
 2341Sol     OW12515   1.521   2.948   9.704  0.1559 -0.1574 -0.5739
 2341Sol     HW12516   1.519   2.896   9.624 -0.3315 -2.1053  0.6804
 2341Sol     HW12517   1.613   2.974   9.714  0.1491  0.4254 -1.9484
 2341Sol     MW12518   1.529   2.946   9.698 -0.1639  0.5140 -0.1456
 2342Sol     OW12519   2.843   2.420   8.266 -0.4543 -0.0149 -0.1425
 2342Sol     HW12520   2.898   2.495   8.246 -0.0537 -0.6810 -1.5657
 2342Sol     HW12521   2.898   2.343   8.249 -1.2605 -0.6542  0.0678
 2342Sol     MW12522   2.853   2.419   8.263  0.3040 -0.6945  0.3555
 2343Sol     OW12523   1.902   0.029   7.467 -0.2908  0.2380  0.0896
 2343Sol     HW12524   1.983   0.028   7.518  0.0029 -1.0584 -0.3802
 2343Sol     HW12525   1.835   0.003   7.530 -0.3611  1.3880  0.4983
 2343Sol     MW12526   1.903   0.026   7.478  0.4650 -0.1013  0.2216
 2344Sol     OW12527   1.657   1.486   1.930  0.3896  0.4255  0.0280
 2344Sol     HW12528   1.646   1.557   1.868  0.1859  0.2697 -0.1127
 2344Sol     HW12529   1.752   1.476   1.938  0.4155 -0.4557 -1.2812
 2344Sol     MW12530   1.664   1.491   1.926  0.3419 -0.6621 -0.2989
 2345Sol     OW12531   0.530   0.309   2.235 -0.8581 -0.1082 -0.5327
 2345Sol     HW12532   0.446   0.354   2.248 -0.9608 -0.8669  1.5002
 2345Sol     HW12533   0.541   0.254   2.312  1.3680 -0.2780 -0.9280
 2345Sol     MW12534   0.523   0.308   2.243 -0.5163  0.5550 -0.6693
 2346Sol     OW12535   2.360   0.948   9.629 -0.5949 -0.1244  0.0932
 2346Sol     HW12536   2.351   0.854   9.611 -1.2298  0.1715 -1.2410
 2346Sol     HW12537   2.442   0.955   9.677 -0.2433 -1.3073 -0.2985
 2346Sol     MW12538   2.367   0.940   9.631  0.3818  0.1412  0.0741
 2347Sol     OW12539   1.769   1.839   7.532  0.1944  0.2609  0.6087
 2347Sol     HW12540   1.688   1.836   7.583  1.4060  1.5497  2.6815
 2347Sol     HW12541   1.837   1.861   7.596  2.3513 -1.7694 -0.9142
 2347Sol     MW12542   1.767   1.841   7.542 -0.8352  0.2205 -0.2858
 2348Sol     OW12543   2.234   0.018   6.405 -0.3984  0.0417 -0.3395
 2348Sol     HW12544   2.197  -0.070   6.401 -0.2340 -0.1009  0.9951
 2348Sol     HW12545   2.177   0.065   6.465  0.5809  0.3240  0.3770
 2348Sol     MW12546   2.226   0.014   6.410 -0.0962  0.6084  0.2587
 2349Sol     OW12547   1.521   2.724   5.655  0.0805 -0.4793 -0.5799
 2349Sol     HW12548   1.448   2.782   5.634 -0.5646 -1.3573 -0.7788
 2349Sol     HW12549   1.490   2.637   5.630  0.1189 -1.2632  1.9954
 2349Sol     MW12550   1.512   2.722   5.651 -0.2409 -0.2878  0.4776
 2350Sol     OW12551   2.970   3.347   6.847  0.0849 -0.1944 -0.2366
 2350Sol     HW12552   3.055   3.319   6.882  0.1960 -0.5933 -0.8229
 2350Sol     HW12553   2.957   3.436   6.883  0.2943 -0.5106  0.6386
 2350Sol     MW12554   2.976   3.353   6.854  0.1598 -0.5281 -0.3594
 2351Sol     OW12555   0.054   0.894   2.233  0.3849  0.7119  0.0639
 2351Sol     HW12556  -0.036   0.874   2.209  0.6337 -0.7178  0.2884
 2351Sol     HW12557   0.107   0.837   2.177  1.0794  0.1849  1.2340
 2351Sol     MW12558   0.051   0.887   2.226  0.0559  0.2056  0.0671
 2352Sol     OW12559   3.172   1.641   4.614 -0.3481  0.1702  0.2257
 2352Sol     HW12560   3.093   1.604   4.575 -0.6335  0.1596  0.8193
 2352Sol     HW12561   3.234   1.647   4.541 -0.6923 -0.3846 -0.1167
 2352Sol     MW12562   3.171   1.638   4.604 -0.3463 -0.0623  0.3315
 2353Sol     OW12563   1.513   3.074   7.783 -0.1772 -0.3570 -0.0579
 2353Sol     HW12564   1.531   2.980   7.778 -0.0566 -0.4236  1.5404
 2353Sol     HW12565   1.600   3.115   7.787 -0.2643 -0.3872  2.6515
 2353Sol     MW12566   1.523   3.069   7.783  0.3978  0.3345 -0.2563
 2354Sol     OW12567   0.085   2.234   9.533 -0.1050  0.5317  0.4640
 2354Sol     HW12568   0.079   2.214   9.440  0.9011 -1.6913  0.8278
 2354Sol     HW12569   0.178   2.219   9.554 -0.5340  0.0095  2.0216
 2354Sol     MW12570   0.093   2.231   9.527  0.9686 -0.3904  0.0843
 2355Sol     OW12571   3.127   1.102   3.277 -0.7051 -0.0039  0.4029
 2355Sol     HW12572   3.098   1.020   3.238 -0.1067  0.1452 -0.3708
 2355Sol     HW12573   3.060   1.166   3.249 -0.7186 -0.0597  0.3072
 2355Sol     MW12574   3.118   1.101   3.271 -0.0516 -0.4319 -0.4499
 2356Sol     OW12575   1.528   2.746   9.519 -0.3438  0.2266  0.2937
 2356Sol     HW12576   1.543   2.655   9.543  1.0348  0.2775 -0.3617
 2356Sol     HW12577   1.562   2.754   9.431 -2.0840  0.9512 -0.3474
 2356Sol     MW12578   1.532   2.739   9.514 -0.2695  0.4603 -0.2097
 2357Sol     OW12579   0.659   0.848   3.777  0.1246 -0.3217 -0.0037
 2357Sol     HW12580   0.710   0.928   3.767 -1.8656  0.8819 -0.7871
 2357Sol     HW12581   0.659   0.831   3.871  1.6310 -0.1346  0.0382
 2357Sol     MW12582   0.663   0.854   3.784 -0.3380  0.1518 -0.8609
 2358Sol     OW12583   2.997   2.834   7.869  0.5028 -0.4434  0.1595
 2358Sol     HW12584   2.924   2.800   7.817 -0.2982 -0.1630  1.0707
 2358Sol     HW12585   3.026   2.912   7.822 -0.3698 -0.0578  0.2438
 2358Sol     MW12586   2.993   2.838   7.860  0.3635 -0.6961  0.2297
 2359Sol     OW12587   0.224   1.595   2.029 -0.1511 -0.0840  0.3547
 2359Sol     HW12588   0.179   1.647   1.963 -0.5350  0.5722  1.1375
 2359Sol     HW12589   0.197   1.632   2.113  0.4731 -0.7992  0.8838
 2359Sol     MW12590   0.218   1.603   2.031 -0.3845  0.3368  0.2328
 2360Sol     OW12591   0.961   1.686   4.239 -0.4481 -0.5055  0.3340
 2360Sol     HW12592   1.046   1.726   4.256  0.0986 -1.8105  0.7292
 2360Sol     HW12593   0.977   1.624   4.168 -1.5703  0.9260 -1.1995
 2360Sol     MW12594   0.970   1.684   4.235 -0.4880  0.2710 -0.1787
 2361Sol     OW12595   1.982   0.889   5.501 -0.8556 -0.2887  0.4990
 2361Sol     HW12596   1.998   0.859   5.590 -1.5837 -0.2766  0.6410
 2361Sol     HW12597   1.956   0.811   5.453 -1.9693 -0.0328  0.6750
 2361Sol     MW12598   1.981   0.879   5.504 -0.0266  0.0580 -0.6440
 2362Sol     OW12599   1.824   1.769   2.043  0.1730  0.1302 -0.4707
 2362Sol     HW12600   1.828   1.684   1.999  0.0702 -0.3363  0.4122
 2362Sol     HW12601   1.904   1.813   2.016  0.0858 -0.1233 -1.1710
 2362Sol     MW12602   1.831   1.765   2.036  0.1267  0.0384  0.5889
 2363Sol     OW12603   1.879   2.148   4.727  0.3174 -0.3980  0.2960
 2363Sol     HW12604   1.953   2.097   4.693 -0.1149 -1.1633  0.4907
 2363Sol     HW12605   1.887   2.141   4.822  0.0608 -0.3964  0.3191
 2363Sol     MW12606   1.886   2.143   4.733 -0.5762  0.8672 -0.5641
 2364Sol     OW12607   1.033   2.058   3.140  0.3922  0.2855  0.1428
 2364Sol     HW12608   1.122   2.045   3.106  0.5332  0.7917  0.3094
 2364Sol     HW12609   0.981   1.989   3.099  0.3557  1.4504 -1.8296
 2364Sol     MW12610   1.037   2.051   3.134 -0.1408  0.5917  0.0074
 2365Sol     OW12611   2.286   1.977   8.816  0.4398  0.0718  0.3255
 2365Sol     HW12612   2.214   1.915   8.828  0.6335 -0.2420 -0.1190
 2365Sol     HW12613   2.308   1.970   8.723  0.5421  0.7190  0.3003
 2365Sol     MW12614   2.281   1.970   8.809  0.1360 -0.3486 -0.0269
 2366Sol     OW12615   1.247   2.038   9.331 -0.0309 -0.0013 -0.0715
 2366Sol     HW12616   1.294   2.026   9.249 -1.1160 -2.9229 -0.3273
 2366Sol     HW12617   1.161   1.998   9.316 -1.0365  1.3387  1.7976
 2366Sol     MW12618   1.243   2.033   9.323  0.0026 -0.6336  0.6171
 2367Sol     OW12619   1.880   2.553   3.760 -1.0090 -0.2997 -0.2635
 2367Sol     HW12620   1.929   2.517   3.686  0.9648 -0.6949  1.2060
 2367Sol     HW12621   1.861   2.644   3.735  0.4485 -0.1577 -0.8803
 2367Sol     MW12622   1.883   2.558   3.751  0.1872  0.0158  0.9058
 2368Sol     OW12623   0.445   0.248   9.352  0.0621 -0.2720  0.0924
 2368Sol     HW12624   0.419   0.168   9.398  1.6783 -0.7577  0.1691
 2368Sol     HW12625   0.396   0.317   9.397 -0.6291 -1.0944  0.6375
 2368Sol     MW12626   0.438   0.247   9.360 -0.3551 -0.1342  0.2406
 2369Sol     OW12627   0.371   1.199   1.906 -0.3758  0.0640 -0.0278
 2369Sol     HW12628   0.275   1.203   1.911 -0.2949  1.8821  0.1980
 2369Sol     HW12629   0.389   1.136   1.837 -1.7261 -1.6256  1.1105
 2369Sol     MW12630   0.364   1.194   1.901  0.0006  0.0301  0.0823
 2370Sol     OW12631   0.519   1.064   2.982 -0.0156 -0.0090 -0.6503
 2370Sol     HW12632   0.562   1.003   2.922  0.3125 -0.8776  0.4385
 2370Sol     HW12633   0.426   1.038   2.980  0.4838 -2.1405  1.6099
 2370Sol     MW12634   0.514   1.056   2.976  0.0926  0.3233 -0.1006
 2371Sol     OW12635   2.600   3.179   2.514  0.0299 -0.1624  0.0080
 2371Sol     HW12636   2.547   3.247   2.472  0.4392  0.2105  0.0886
 2371Sol     HW12637   2.542   3.104   2.521 -0.1159 -0.1524 -1.0109
 2371Sol     MW12638   2.590   3.178   2.511  0.4676 -0.1935 -0.3058
 2372Sol     OW12639   2.242   0.963   2.529 -0.4454 -1.2789  0.1945
 2372Sol     HW12640   2.158   0.948   2.487 -0.8664 -0.3167  0.6561
 2372Sol     HW12641   2.220   0.977   2.621  0.0058  0.8987 -0.0066
 2372Sol     MW12642   2.233   0.963   2.534  0.2304 -0.0566 -0.2766
 2373Sol     OW12643   3.262   0.987   3.605 -0.5314 -0.3834 -0.2321
 2373Sol     HW12644   3.200   1.042   3.653 -0.2297 -1.0807  0.9873
 2373Sol     HW12645   3.305   1.047   3.544 -1.2430  0.4305  0.0502
 2373Sol     MW12646   3.260   0.997   3.604 -0.0939 -0.2783 -0.6993
 2374Sol     OW12647   1.198   1.718   2.173  0.5076 -0.3058 -0.3860
 2374Sol     HW12648   1.105   1.723   2.191  0.4179 -0.1537 -0.8862
 2374Sol     HW12649   1.237   1.688   2.255  0.1699  0.9186  0.2407
 2374Sol     MW12650   1.193   1.716   2.182  0.1544  0.0447 -0.0496
 2375Sol     OW12651   1.318   1.479   5.353 -0.1380 -0.0932 -0.1162
 2375Sol     HW12652   1.306   1.441   5.440  0.1598  0.3037  0.0969
 2375Sol     HW12653   1.298   1.572   5.364 -1.4281 -0.2799 -0.7545
 2375Sol     MW12654   1.315   1.484   5.362 -0.1346 -0.5945  0.2996
 2376Sol     OW12655   0.064   0.740   7.997 -0.2856 -0.5643  0.0216
 2376Sol     HW12656   0.094   0.660   7.954  1.7606  0.9590 -1.4799
 2376Sol     HW12657   0.046   0.800   7.925 -0.3958  0.7986  1.1864
 2376Sol     MW12658   0.065   0.738   7.987  0.3848  0.0751 -0.4766
 2377Sol     OW12659   2.700   0.769   4.830 -0.2224 -0.0968  0.2451
 2377Sol     HW12660   2.659   0.684   4.844  0.4940 -0.5839 -0.5165
 2377Sol     HW12661   2.769   0.752   4.765 -0.1139  1.0743  0.0313
 2377Sol     MW12662   2.703   0.760   4.825  0.5570 -0.2374  0.0045
 2378Sol     OW12663   2.149   3.340   3.512 -0.0252 -0.6059 -0.1785
 2378Sol     HW12664   2.182   3.291   3.586 -0.7152 -3.0089 -1.4006
 2378Sol     HW12665   2.191   3.300   3.436 -1.6138 -0.1920 -1.3114
 2378Sol     MW12666   2.155   3.332   3.511 -0.7522  0.4937 -0.5841
 2379Sol     OW12667   0.086   2.952   5.661  0.0249  0.5497 -0.0746
 2379Sol     HW12668   0.130   2.996   5.734  0.4092 -1.3355  0.8653
 2379Sol     HW12669   0.155   2.900   5.620 -0.2784  1.2898 -1.5654
 2379Sol     MW12670   0.096   2.951   5.664  0.2073  0.6670  0.0096
 2380Sol     OW12671   2.692   0.526   4.031  0.1753  0.4486  0.6691
 2380Sol     HW12672   2.730   0.611   4.055  1.1433  0.2200  0.0039
 2380Sol     HW12673   2.683   0.479   4.113  1.2376  0.5649  0.8628
 2380Sol     MW12674   2.695   0.529   4.040  0.1461  0.1564  0.4181
 2381Sol     OW12675   0.648   1.693   1.876 -0.6472 -0.0978 -0.0581
 2381Sol     HW12676   0.616   1.608   1.905 -1.5082  0.7827  1.6632
 2381Sol     HW12677   0.592   1.716   1.801 -1.4600 -0.3532  0.4615
 2381Sol     MW12678   0.640   1.688   1.872 -0.0597  0.1435 -0.2307
 2382Sol     OW12679   1.591   0.586   2.038  0.0495  0.4064  0.5158
 2382Sol     HW12680   1.517   0.644   2.057 -0.4644 -0.9489  2.7756
 2382Sol     HW12681   1.583   0.515   2.101  0.9069 -1.9457 -1.9171
 2382Sol     MW12682   1.584   0.585   2.045  0.1588 -0.1531  0.0482
 2383Sol     OW12683   1.421   0.018   6.096  0.4613 -0.0238  0.6051
 2383Sol     HW12684   1.441  -0.017   6.008 -0.5149  3.1269 -0.9285
 2383Sol     HW12685   1.335  -0.018   6.117 -0.2608  0.9212 -0.6843
 2383Sol     MW12686   1.415   0.011   6.090 -0.0416  0.6155 -0.4767
 2384Sol     OW12687   1.324   1.946   2.056 -0.2139  0.1874 -0.2927
 2384Sol     HW12688   1.415   1.918   2.060  0.0297  0.8724 -0.8660
 2384Sol     HW12689   1.275   1.878   2.102  0.5709 -0.2473 -0.1009
 2384Sol     MW12690   1.327   1.938   2.061 -0.2674 -0.0052  0.2889
 2385Sol     OW12691   1.360   2.443   9.022 -0.4533 -0.2835  0.1948
 2385Sol     HW12692   1.374   2.354   8.987 -3.2188 -0.1983 -1.2589
 2385Sol     HW12693   1.299   2.431   9.094 -0.7541  0.4365  0.0587
 2385Sol     MW12694   1.356   2.434   9.025  0.3909  0.6034  0.0728
 2386Sol     OW12695   0.154   1.460   6.457  0.0472  0.2372 -0.3539
 2386Sol     HW12696   0.234   1.500   6.492 -0.3676  0.6491  0.1381
 2386Sol     HW12697   0.125   1.401   6.527 -0.5951  0.7989 -0.1479
 2386Sol     MW12698   0.159   1.458   6.467  0.1204  0.0348 -0.3770
 2387Sol     OW12699   2.680   2.791   2.416  0.4216 -0.1037 -0.0486
 2387Sol     HW12700   2.751   2.825   2.363  0.8909  2.8886  2.3518
 2387Sol     HW12701   2.723   2.754   2.493 -0.5249  0.1219  0.5921
 2387Sol     MW12702   2.690   2.790   2.418  0.2997 -0.0643  0.3372
 2388Sol     OW12703   2.327   1.298   6.302  0.0898  0.2107  0.3271
 2388Sol     HW12704   2.415   1.284   6.336  0.7828  0.5685 -1.2411
 2388Sol     HW12705   2.275   1.225   6.335  2.1651 -2.8143 -2.7510
 2388Sol     MW12706   2.330   1.291   6.308  0.3559 -0.4278  0.3932
 2389Sol     OW12707   0.923   3.377   9.651  0.1590 -0.4513  0.7088
 2389Sol     HW12708   0.900   3.292   9.689 -2.5367 -0.2950 -0.5200
 2389Sol     HW12709   0.840   3.422   9.640  1.3536  1.4354 -0.8362
 2389Sol     MW12710   0.914   3.373   9.653 -0.3248 -0.2017 -0.2816
 2390Sol     OW12711   2.749   2.454   9.416 -0.2537  0.2519  0.5994
 2390Sol     HW12712   2.826   2.401   9.437 -0.7590 -0.8258 -0.2208
 2390Sol     HW12713   2.692   2.446   9.492  0.5403  1.2565  1.3180
 2390Sol     MW12714   2.751   2.448   9.424  0.2273  0.9760 -0.2110
 2391Sol     OW12715   2.747   3.277   7.523  0.1977 -0.3520  0.5442
 2391Sol     HW12716   2.672   3.218   7.514 -0.1198  0.0151  0.7632
 2391Sol     HW12717   2.759   3.315   7.436  0.4593 -0.8127  0.3827
 2391Sol     MW12718   2.741   3.275   7.514 -0.0322  0.3663  0.0539
 2392Sol     OW12719   2.709   1.306   9.060 -0.0141 -0.1198 -0.5983
 2392Sol     HW12720   2.707   1.394   9.022 -0.6617  0.3055  0.3901
 2392Sol     HW12721   2.658   1.314   9.141  1.5963 -0.9293  0.5195
 2392Sol     MW12722   2.704   1.314   9.064 -0.4324  0.4292  0.0035
 2393Sol     OW12723   0.659   0.399   9.273 -0.2122 -0.0875  0.5262
 2393Sol     HW12724   0.594   0.351   9.325 -0.0442 -1.4595 -0.4959
 2393Sol     HW12725   0.633   0.382   9.182 -0.6546  2.4861  0.1315
 2393Sol     MW12726   0.651   0.393   9.270  0.0790 -0.5208  0.4046
 2394Sol     OW12727   1.890   0.931   3.763  0.3299 -0.1621  0.4724
 2394Sol     HW12728   1.909   0.840   3.741  1.0802 -0.0356  0.5876
 2394Sol     HW12729   1.847   0.966   3.685  0.6364 -0.4346  0.1817
 2394Sol     MW12730   1.888   0.926   3.754  0.0851  0.0114 -0.1278
 2395Sol     OW12731   0.616   1.624   5.185  0.2776  0.1206  0.4673
 2395Sol     HW12732   0.611   1.620   5.090 -0.1843 -0.6708  0.5197
 2395Sol     HW12733   0.639   1.715   5.204 -1.7205  0.8175 -0.3350
 2395Sol     MW12734   0.617   1.632   5.179 -0.0898 -0.4516 -0.0218
 2396Sol     OW12735   2.552   3.269   3.993  0.1869  0.4860  0.4491
 2396Sol     HW12736   2.539   3.174   3.987 -0.2987  0.6055 -0.2969
 2396Sol     HW12737   2.581   3.282   4.084 -0.1460 -0.3252  0.6818
 2396Sol     MW12738   2.554   3.261   4.001 -0.1569 -0.4465 -0.1139
 2397Sol     OW12739   3.134   1.374   8.689  0.3098 -0.1953  0.0097
 2397Sol     HW12740   3.207   1.391   8.748  0.2013 -1.1514  0.4350
 2397Sol     HW12741   3.064   1.432   8.720 -0.1268 -1.5068  1.5694
 2397Sol     MW12742   3.134   1.381   8.697 -0.0836 -0.4075  0.0599
 2398Sol     OW12743   2.134   3.258   5.683 -0.5394 -0.2131 -0.4014
 2398Sol     HW12744   2.154   3.341   5.727  0.7849 -0.9142  0.3511
 2398Sol     HW12745   2.041   3.242   5.701 -0.6248  0.7590  0.0218
 2398Sol     MW12746   2.127   3.264   5.688 -0.2913  0.0478 -0.2339
 2399Sol     OW12747   0.754   1.769   6.426 -0.5445  0.1297 -0.1132
 2399Sol     HW12748   0.777   1.805   6.511 -0.5408 -0.4152  0.1202
 2399Sol     HW12749   0.681   1.709   6.444 -0.0573 -0.5515 -0.3788
 2399Sol     MW12750   0.749   1.767   6.435 -0.1458 -0.3180  0.3033
 2400Sol     OW12751   2.421   2.991   3.737 -0.2463  0.2818  0.0077
 2400Sol     HW12752   2.349   2.932   3.759  0.8363 -0.7936  0.7681
 2400Sol     HW12753   2.490   2.969   3.800  1.7465 -0.6130 -2.3641
 2400Sol     MW12754   2.421   2.983   3.744 -0.4790  0.0484 -0.4059
 2401Sol     OW12755   0.549   1.890   6.182 -0.4727  0.1637  0.6301
 2401Sol     HW12756   0.604   1.824   6.138 -0.4858 -0.4566  1.5410
 2401Sol     HW12757   0.508   1.842   6.254  1.2909  1.7038  2.7186
 2401Sol     MW12758   0.551   1.879   6.184  0.0770 -0.3799  0.0096
 2402Sol     OW12759   2.181   2.607   5.092 -0.2352  0.0074 -0.3219
 2402Sol     HW12760   2.179   2.661   5.013 -1.1424 -0.4343 -0.6043
 2402Sol     HW12761   2.233   2.531   5.068 -1.6387 -0.7763 -0.9212
 2402Sol     MW12762   2.185   2.605   5.083  0.0852 -0.0940 -0.4072
 2403Sol     OW12763   1.485   3.292   8.207 -0.5288 -0.2872  0.0829
 2403Sol     HW12764   1.571   3.253   8.191 -1.3905 -0.9878 -3.1371
 2403Sol     HW12765   1.498   3.386   8.191 -0.5716 -0.5266 -1.4230
 2403Sol     MW12766   1.494   3.297   8.204 -0.4133  0.2876 -0.1966
 2404Sol     OW12767   0.254   0.384   7.600  0.1648 -0.3169  0.0003
 2404Sol     HW12768   0.235   0.393   7.506 -2.7810 -1.2159  0.4730
 2404Sol     HW12769   0.227   0.295   7.621  1.5557 -0.3897  1.5751
 2404Sol     MW12770   0.250   0.377   7.593 -0.4464  0.2669 -0.2156
 2405Sol     OW12771   3.003   2.323   9.479  0.0943 -0.5093  0.5896
 2405Sol     HW12772   3.056   2.401   9.466 -0.8851  0.4617  2.2556
 2405Sol     HW12773   3.056   2.268   9.537 -0.3133  0.0739  1.5329
 2405Sol     MW12774   3.013   2.325   9.483  0.3410  0.2087  0.1132
 2406Sol     OW12775   0.682   3.351   2.618 -0.3762 -0.1111  0.3684
 2406Sol     HW12776   0.701   3.258   2.631 -1.9856 -0.4200  0.7076
 2406Sol     HW12777   0.640   3.378   2.699  0.7128  1.0932  0.5281
 2406Sol     MW12778   0.680   3.345   2.626 -0.8128  0.5033  0.2516
 2407Sol     OW12779   2.054   2.280   7.266 -0.2921  0.6193  0.1327
 2407Sol     HW12780   2.028   2.192   7.293  1.3647 -0.1751 -0.7714
 2407Sol     HW12781   1.991   2.338   7.310 -1.4395 -1.0007  0.6964
 2407Sol     MW12782   2.046   2.277   7.272 -0.5593  0.0824 -0.1265
 2408Sol     OW12783   1.094   2.531   7.797 -0.0384  0.3907 -0.6320
 2408Sol     HW12784   1.143   2.612   7.811  0.1014  0.3525 -0.8954
 2408Sol     HW12785   1.019   2.557   7.744 -0.4006  0.4803 -0.0771
 2408Sol     MW12786   1.092   2.540   7.794  0.9944  0.1771 -0.1781
 2409Sol     OW12787   0.798   0.256   2.656 -0.1438  0.1895  0.7576
 2409Sol     HW12788   0.863   0.196   2.693 -0.3657  0.3850  1.4633
 2409Sol     HW12789   0.826   0.343   2.686 -1.5552  0.1404  2.2911
 2409Sol     MW12790   0.807   0.259   2.662  0.1834 -0.0728 -0.0290
 2410Sol     OW12791   1.521   1.152   3.445 -0.2751  0.2007 -0.2456
 2410Sol     HW12792   1.590   1.179   3.384 -0.9381 -0.5990 -1.3724
 2410Sol     HW12793   1.448   1.126   3.388 -0.4710 -1.7421  0.8579
 2410Sol     MW12794   1.521   1.152   3.434 -0.6036  0.2508 -0.3317
 2411Sol     OW12795   0.890   1.199   8.383  0.2642 -1.1070  0.0234
 2411Sol     HW12796   0.914   1.203   8.291 -0.9431 -2.9128 -0.4068
 2411Sol     HW12797   0.972   1.213   8.430  1.1702 -1.7032 -1.3517
 2411Sol     MW12798   0.899   1.200   8.379  0.3347 -0.1967  0.4114
 2412Sol     OW12799   0.602   1.140   5.409 -0.2372  0.3117  0.2481
 2412Sol     HW12800   0.581   1.047   5.415 -1.6531  0.7114  1.6843
 2412Sol     HW12801   0.697   1.144   5.419 -0.3549 -0.8407  1.8879
 2412Sol     MW12802   0.609   1.132   5.410 -0.6272 -0.4576 -0.2523
 2413Sol     OW12803   0.134   1.097   5.689 -0.2057  0.3042 -0.4446
 2413Sol     HW12804   0.152   1.069   5.600 -1.0962  0.1620 -0.5833
 2413Sol     HW12805   0.165   1.187   5.693  0.4890  0.0807 -0.6859
 2413Sol     MW12806   0.138   1.103   5.682 -0.0468 -0.3639  0.4883
 2414Sol     OW12807   2.067   2.277   5.429  0.0305 -0.5127  0.0256
 2414Sol     HW12808   1.974   2.257   5.416 -0.2506  0.6540  0.2061
 2414Sol     HW12809   2.068   2.367   5.461  1.1841 -0.7608  0.7177
 2414Sol     MW12810   2.059   2.283   5.431 -0.3901 -0.6412  0.6654
 2415Sol     OW12811   1.671   1.714   2.521  0.0607 -0.1899 -0.2954
 2415Sol     HW12812   1.679   1.780   2.590 -1.6491  1.7790 -1.9098
 2415Sol     HW12813   1.756   1.715   2.477 -0.4957  2.2313 -1.3898
 2415Sol     MW12814   1.679   1.720   2.523 -0.3793 -0.3453 -0.2287
 2416Sol     OW12815   1.842   2.850   2.573 -0.3602  0.6290 -0.2234
 2416Sol     HW12816   1.866   2.887   2.658 -0.9678 -1.2532  0.7917
 2416Sol     HW12817   1.746   2.861   2.569 -0.4475 -0.1533 -0.2512
 2416Sol     MW12818   1.835   2.855   2.580  0.1641 -0.3494 -0.0366
 2417Sol     OW12819   2.172   1.005   9.241  0.4271 -0.1049 -0.2947
 2417Sol     HW12820   2.138   1.062   9.172  0.1446 -0.6614 -0.6148
 2417Sol     HW12821   2.095   0.979   9.291  0.3751 -1.3782 -1.0287
 2417Sol     MW12822   2.162   1.008   9.240  0.1247  0.2170  0.3642
 2418Sol     OW12823   1.005   1.835   7.835 -0.5481  0.0076 -0.6540
 2418Sol     HW12824   1.055   1.786   7.769  0.3474  1.4301 -1.0597
 2418Sol     HW12825   0.957   1.900   7.785 -1.0770  0.0952 -0.0348
 2418Sol     MW12826   1.006   1.836   7.825  0.9823  0.2432 -0.4391
 2419Sol     OW12827   1.079   2.443   4.388  0.2651 -0.2994 -0.0336
 2419Sol     HW12828   1.116   2.524   4.423 -1.7797  1.1769 -1.1796
 2419Sol     HW12829   0.993   2.435   4.430  0.0546 -1.3752 -0.6447
 2419Sol     MW12830   1.075   2.449   4.395 -0.6866 -0.9075 -0.0446
 2420Sol     OW12831   2.989   1.823   4.763 -0.5755 -0.1528  0.0542
 2420Sol     HW12832   3.032   1.906   4.781 -2.0520  0.8144 -0.6977
 2420Sol     HW12833   3.032   1.789   4.684 -0.7062  0.4439 -0.2730
 2420Sol     MW12834   2.996   1.827   4.758  0.0508 -0.0125 -0.5494
 2421Sol     OW12835   1.906   1.690   5.604 -0.1582 -0.3275  0.2348
 2421Sol     HW12836   1.940   1.603   5.583  1.6556 -0.0530  1.8331
 2421Sol     HW12837   1.920   1.698   5.699  0.9325  2.2213 -0.1136
 2421Sol     MW12838   1.910   1.682   5.611 -0.0252 -0.2052  0.0278
 2422Sol     OW12839   3.188   2.075   5.808 -0.5322 -0.2458 -0.0056
 2422Sol     HW12840   3.178   2.041   5.897  1.2662 -1.5381 -0.2859
 2422Sol     HW12841   3.102   2.112   5.787 -1.8878 -2.6251  1.1343
 2422Sol     MW12842   3.179   2.076   5.814 -0.0900  0.1685 -0.7476
 2423Sol     OW12843   1.443   2.103   2.553 -0.2507 -0.0115 -0.2040
 2423Sol     HW12844   1.442   2.168   2.624  0.3791  0.3628 -0.5330
 2423Sol     HW12845   1.401   2.147   2.479 -1.9609 -0.8071  0.2802
 2423Sol     MW12846   1.439   2.113   2.553  0.5163 -0.2808 -0.2577
 2424Sol     OW12847   0.714   2.901   6.913 -0.0540  0.6571 -0.2704
 2424Sol     HW12848   0.738   2.993   6.910  0.0203  0.6666  0.4157
 2424Sol     HW12849   0.719   2.878   7.006 -1.4868  0.3286 -0.2631
 2424Sol     MW12850   0.717   2.907   6.921  0.3660 -0.2854  0.5871
 2425Sol     OW12851   1.915   3.401   8.254  0.4765  0.2675 -0.0453
 2425Sol     HW12852   1.921   3.478   8.198 -1.0860  0.8275  0.5419
 2425Sol     HW12853   1.935   3.434   8.342 -0.6397  0.1117  0.2764
 2425Sol     MW12854   1.918   3.411   8.257  0.7371  0.2933 -0.0236
 2426Sol     OW12855   0.878   0.861   7.656  0.3433 -0.2651 -0.6716
 2426Sol     HW12856   0.791   0.896   7.678  0.1580 -1.2522  0.2605
 2426Sol     HW12857   0.859   0.789   7.596  0.5716 -0.0644 -0.9838
 2426Sol     MW12858   0.868   0.858   7.653  0.1196  0.4119 -0.7013
 2427Sol     OW12859   0.601   0.990   7.696  0.2997 -0.4556 -0.3625
 2427Sol     HW12860   0.584   1.070   7.646  0.8499 -0.3914 -0.4472
 2427Sol     HW12861   0.534   0.990   7.765  0.5778  0.3129 -0.0856
 2427Sol     MW12862   0.593   0.997   7.698 -0.0470 -0.3121  0.1243
 2428Sol     OW12863   2.411   0.100   8.727 -0.2385 -0.3873 -0.7779
 2428Sol     HW12864   2.401   0.007   8.707  0.5582 -0.3706 -1.2890
 2428Sol     HW12865   2.323   0.130   8.750 -0.2383 -1.6383  0.9854
 2428Sol     MW12866   2.403   0.095   8.727  0.1045  0.3293 -0.2055
 2429Sol     OW12867   1.797   1.306   2.698 -0.3208  0.6076 -0.1477
 2429Sol     HW12868   1.728   1.366   2.670 -0.6068  0.5930  0.5031
 2429Sol     HW12869   1.878   1.359   2.693 -0.0894  0.0807 -2.6740
 2429Sol     MW12870   1.798   1.316   2.695  0.0688  0.3494  0.4710
 2430Sol     OW12871   0.279   1.338   5.675 -0.7856 -0.0812  0.1111
 2430Sol     HW12872   0.274   1.347   5.580 -0.8028 -2.2687 -0.1345
 2430Sol     HW12873   0.336   1.409   5.703 -1.0171  0.7604 -1.5052
 2430Sol     MW12874   0.284   1.345   5.669  0.0562 -0.0855  0.3369
 2431Sol     OW12875   0.041   2.734   3.000  0.5230  0.1101  0.3158
 2431Sol     HW12876  -0.037   2.714   3.053 -0.0374  0.8767 -0.2106
 2431Sol     HW12877   0.049   2.829   3.005 -0.6677  0.3906 -2.5769
 2431Sol     MW12878   0.035   2.740   3.005  0.0355  0.0726 -0.3185
 2432Sol     OW12879   2.919   3.272   6.324 -0.0300  0.0050 -0.2254
 2432Sol     HW12880   2.844   3.322   6.291  0.7460  0.6269 -1.0921
 2432Sol     HW12881   2.981   3.339   6.354  0.3463 -0.4856  0.1064
 2432Sol     MW12882   2.918   3.283   6.323  0.6736 -0.1776 -0.3958
 2433Sol     OW12883   0.459   1.679   4.899 -0.3919  0.4830 -0.1846
 2433Sol     HW12884   0.432   1.742   4.965  2.5396  0.8700  0.7090
 2433Sol     HW12885   0.494   1.732   4.828 -1.1933 -0.0347 -0.9877
 2433Sol     MW12886   0.460   1.689   4.898  0.1335 -0.2669  0.0560
 2434Sol     OW12887   0.457   0.728   4.612  0.2711 -0.2834 -0.4625
 2434Sol     HW12888   0.430   0.723   4.521  0.6967 -2.0003 -0.5101
 2434Sol     HW12889   0.377   0.710   4.662 -0.0094  0.8689 -0.4722
 2434Sol     MW12890   0.448   0.726   4.609 -0.2576 -0.1739  0.2143
 2435Sol     OW12891   3.079   1.158   9.714  0.1161 -0.2188 -0.7785
 2435Sol     HW12892   3.018   1.117   9.652 -0.2743 -0.7477 -0.0565
 2435Sol     HW12893   3.102   1.241   9.673  0.0711 -0.6781 -1.7589
 2435Sol     MW12894   3.076   1.162   9.705  0.0080  0.7770 -0.5806
 2436Sol     OW12895   3.275   0.671   6.597 -0.5198  0.9537  0.2782
 2436Sol     HW12896   3.262   0.765   6.582 -2.6692  0.7711  0.7725
 2436Sol     HW12897   3.361   0.665   6.638 -0.1909  2.6735 -0.1087
 2436Sol     MW12898   3.281   0.679   6.599  0.0691  0.0573  0.3787
 2437Sol     OW12899   0.150   0.858   1.821 -0.1315 -0.1449  0.2093
 2437Sol     HW12900   0.097   0.926   1.780  1.1494  0.6423 -0.1692
 2437Sol     HW12901   0.240   0.886   1.807  0.4215 -2.0305 -0.1128
 2437Sol     MW12902   0.153   0.866   1.816  0.0650  0.4604  0.3604
 2438Sol     OW12903   3.176   1.260   7.890  0.1315  0.6298 -0.1295
 2438Sol     HW12904   3.174   1.217   7.975 -0.4558 -0.5111 -0.7171
 2438Sol     HW12905   3.145   1.194   7.828 -0.4473  1.7738 -1.0872
 2438Sol     MW12906   3.173   1.251   7.892 -0.2554  0.4168  0.0040
 2439Sol     OW12907   1.740   3.354   1.707  0.3120 -0.0801  0.3346
 2439Sol     HW12908   1.783   3.434   1.738  0.5467 -0.6551  1.5482
 2439Sol     HW12909   1.768   3.287   1.769 -0.5386 -0.9318 -0.1915
 2439Sol     MW12910   1.746   3.355   1.716 -0.1506 -0.0080 -0.6632
 2440Sol     OW12911   2.136   2.098   5.237 -0.4854  0.2521 -0.4638
 2440Sol     HW12912   2.215   2.050   5.264 -0.0270 -0.1207 -2.3948
 2440Sol     HW12913   2.118   2.157   5.310  1.6626  0.4496 -0.0458
 2440Sol     MW12914   2.141   2.099   5.246  0.5208  0.0732 -0.7193
 2441Sol     OW12915   0.357   1.494   2.423  0.1209  0.4752 -0.0170
 2441Sol     HW12916   0.275   1.471   2.379  1.1465  0.4503 -1.9375
 2441Sol     HW12917   0.418   1.515   2.353  2.5875 -2.0677  1.2589
 2441Sol     MW12918   0.355   1.494   2.413 -0.5165 -0.6631  0.5780
 2442Sol     OW12919   2.476   0.367   6.224 -0.0926 -0.3443  0.2812
 2442Sol     HW12920   2.465   0.458   6.196  1.3948 -0.7651 -1.8055
 2442Sol     HW12921   2.426   0.316   6.160 -0.8835 -1.0215  1.4121
 2442Sol     MW12922   2.471   0.370   6.216 -0.2695 -0.0049  0.0044
 2443Sol     OW12923   1.788   1.126   7.962 -0.2986  0.2934 -0.0277
 2443Sol     HW12924   1.854   1.169   8.017 -0.7692  0.8044  0.1463
 2443Sol     HW12925   1.829   1.044   7.934  0.1942  0.3445  0.5402
 2443Sol     MW12926   1.798   1.123   7.965  0.4214 -0.0823 -0.6907
 2444Sol     OW12927   0.039   2.995   3.094 -0.0537  0.0961 -0.1753
 2444Sol     HW12928   0.033   3.083   3.056  0.3894  0.2733  0.1550
 2444Sol     HW12929  -0.014   2.999   3.173 -1.2972 -0.3883 -0.9773
 2444Sol     MW12930   0.034   3.003   3.097 -0.0764  0.0703  0.2610
 2445Sol     OW12931   1.553   0.309   2.971 -0.1262 -0.1141 -0.0332
 2445Sol     HW12932   1.602   0.244   3.021  0.8794  0.1172 -0.7175
 2445Sol     HW12933   1.611   0.385   2.966 -1.8010  1.3582  1.8997
 2445Sol     MW12934   1.562   0.310   2.975  0.3965  0.3290 -0.3772
 2446Sol     OW12935   1.519   1.651   3.215 -0.2165 -0.1795  0.4051
 2446Sol     HW12936   1.596   1.616   3.260  1.1069  0.6077 -1.2071
 2446Sol     HW12937   1.507   1.738   3.253 -0.0225 -0.1055  0.2929
 2446Sol     MW12938   1.525   1.655   3.223  0.3849 -0.2457 -0.4642
 2447Sol     OW12939   3.176   0.274   1.872  0.3267 -0.1261 -0.6551
 2447Sol     HW12940   3.149   0.265   1.963  1.4389  0.3230 -0.2721
 2447Sol     HW12941   3.117   0.217   1.823 -1.0388  0.5296  0.2052
 2447Sol     MW12942   3.168   0.268   1.875  0.0979 -0.2000 -0.3443
 2448Sol     OW12943   0.432   1.834   4.046 -0.2937  0.1843  0.1367
 2448Sol     HW12944   0.522   1.867   4.045 -0.5941  1.0260 -0.5026
 2448Sol     HW12945   0.379   1.909   4.018 -1.0671 -0.6755 -0.7636
 2448Sol     MW12946   0.435   1.844   4.043 -0.5350  0.2120 -0.4318
 2449Sol     OW12947   1.881   1.710   2.289  0.3393  0.1120  0.6194
 2449Sol     HW12948   1.851   1.725   2.199 -1.1025  0.4219  1.1379
 2449Sol     HW12949   1.908   1.796   2.320 -1.2715  0.4125  1.2227
 2449Sol     MW12950   1.881   1.719   2.284  0.0579 -0.1503  0.0273
 2450Sol     OW12951   2.314   1.876   3.678  0.3469  0.0667  0.0749
 2450Sol     HW12952   2.389   1.919   3.637  0.4677 -2.4218 -2.4766
 2450Sol     HW12953   2.239   1.900   3.624  0.1375 -1.4491 -0.3473
 2450Sol     MW12954   2.314   1.882   3.670  0.0812 -0.2003 -0.7121
 2451Sol     OW12955   1.646   3.156   8.927  0.4851  0.2838  0.3325
 2451Sol     HW12956   1.696   3.164   8.846 -0.9579  1.7104 -0.4504
 2451Sol     HW12957   1.556   3.136   8.899  0.2520 -0.6313  1.6389
 2451Sol     MW12958   1.642   3.155   8.918 -0.1930 -0.0872  0.4579
 2452Sol     OW12959   1.756   0.168   9.710  0.1153 -0.2514 -0.1561
 2452Sol     HW12960   1.851   0.159   9.719  0.0723  0.1625  0.8932
 2452Sol     HW12961   1.729   0.092   9.661  0.7223 -1.5933  1.5275
 2452Sol     MW12962   1.762   0.161   9.707 -0.1544 -0.5888 -0.1341
 2453Sol     OW12963   1.817   0.521   4.821 -0.3701 -0.2178 -0.0569
 2453Sol     HW12964   1.841   0.557   4.906 -0.3432  1.2263 -0.6607
 2453Sol     HW12965   1.895   0.535   4.767 -1.1812  0.9222 -0.9390
 2453Sol     MW12966   1.826   0.525   4.824  0.0389 -0.4597  0.1392
 2454Sol     OW12967   0.610   2.912   8.216 -0.2587 -0.4935 -0.3539
 2454Sol     HW12968   0.586   2.905   8.124  0.2070  1.3152 -0.6385
 2454Sol     HW12969   0.686   2.971   8.217 -1.2654  0.8292  1.3261
 2454Sol     MW12970   0.615   2.917   8.208  0.9516 -0.1204  0.1667
 2455Sol     OW12971   2.160   3.294   9.258  0.6473 -0.5355  0.4413
 2455Sol     HW12972   2.195   3.359   9.197  1.2885 -0.7834  0.5424
 2455Sol     HW12973   2.080   3.262   9.215  1.1315 -0.7530 -0.3036
 2455Sol     MW12974   2.156   3.297   9.248  0.6311 -0.0802 -0.0910
 2456Sol     OW12975   1.941   2.096   9.616  0.2187  0.5679  0.2969
 2456Sol     HW12976   2.017   2.154   9.610  0.0058  0.7879 -0.2606
 2456Sol     HW12977   1.945   2.061   9.705  0.7942  0.8248  0.3729
 2456Sol     MW12978   1.948   2.098   9.624  0.1577 -0.2728  0.3594
 2457Sol     OW12979   2.677   0.791   4.354  0.2857  0.2250 -0.0128
 2457Sol     HW12980   2.604   0.767   4.411 -0.2592  2.5386  0.3178
 2457Sol     HW12981   2.754   0.758   4.400 -0.4038 -0.8536  0.4131
 2457Sol     MW12982   2.677   0.786   4.363  0.8378  0.2938  0.0345
 2458Sol     OW12983   0.988   3.277   8.753  0.8270 -0.1404 -0.8151
 2458Sol     HW12984   0.955   3.349   8.806  2.4722 -0.1244  0.2241
 2458Sol     HW12985   0.918   3.211   8.756  0.0365  0.7077 -0.3532
 2458Sol     MW12986   0.979   3.277   8.758 -0.2019 -0.0051  0.0337
 2459Sol     OW12987   2.696   2.142   2.911 -0.1961  0.2612 -0.3853
 2459Sol     HW12988   2.779   2.171   2.949  0.6270 -0.6146 -1.5197
 2459Sol     HW12989   2.653   2.223   2.883  0.9754  0.5851 -1.2506
 2459Sol     MW12990   2.699   2.152   2.912  0.1269 -0.6842  0.2094
 2460Sol     OW12991   1.210   1.912   8.740  0.3376 -0.0127  0.3266
 2460Sol     HW12992   1.177   1.868   8.662 -0.0273  0.1197  0.4065
 2460Sol     HW12993   1.270   1.979   8.707 -1.2365  1.2860  0.0677
 2460Sol     MW12994   1.212   1.914   8.730 -0.4625  0.3045  0.0458
 2461Sol     OW12995   1.693   0.026   5.458  0.5133  0.3442 -0.0493
 2461Sol     HW12996   1.601   0.048   5.444  0.3935 -0.8789 -1.2830
 2461Sol     HW12997   1.733   0.108   5.488 -0.7035  1.2104 -0.7472
 2461Sol     MW12998   1.688   0.036   5.460  0.1102  0.4342 -0.1438
 2462Sol     OW12999   0.547   0.399   7.564  0.0966 -0.0165  0.9781
 2462Sol     HW13000   0.580   0.480   7.526  0.0306  0.0613  1.0870
 2462Sol     HW13001   0.460   0.421   7.598 -0.8385 -0.6772 -0.9254
 2462Sol     MW13002   0.542   0.408   7.564  0.1284  0.2754 -0.2712
 2463Sol     OW13003   2.269   2.812   5.829  0.0051 -0.3352 -0.2395
 2463Sol     HW13004   2.301   2.893   5.789 -1.9329 -0.4295 -2.0310
 2463Sol     HW13005   2.349   2.765   5.854  1.1487  1.8574  0.2945
 2463Sol     MW13006   2.279   2.815   5.827  0.5571 -0.3064  0.0847
 2464Sol     OW13007   0.888   0.090   8.170  0.0226  0.1207 -0.0107
 2464Sol     HW13008   0.815   0.149   8.189  0.6934  0.8628  0.3036
 2464Sol     HW13009   0.847   0.011   8.134 -0.9230  0.5602  0.0938
 2464Sol     MW13010   0.878   0.088   8.169 -0.1791  0.2079 -0.2403
 2465Sol     OW13011   1.959   2.624   9.583  0.1865 -0.4711  0.1152
 2465Sol     HW13012   1.954   2.587   9.672 -0.6843  0.0153  0.2723
 2465Sol     HW13013   1.912   2.562   9.528 -0.9819  0.2024  0.3232
 2465Sol     MW13014   1.954   2.615   9.586  0.4351  0.3372  1.0957
 2466Sol     OW13015   0.175   1.131   6.123 -0.0892 -0.2864 -0.3618
 2466Sol     HW13016   0.218   1.047   6.109  2.2256  0.6700  0.7815
 2466Sol     HW13017   0.146   1.129   6.214  0.0394  0.1663 -0.3072
 2466Sol     MW13018   0.176   1.124   6.130  0.5816 -0.0167  0.3983
 2467Sol     OW13019   2.207   2.938   1.753 -0.2041 -0.6751 -0.6487
 2467Sol     HW13020   2.134   2.957   1.693 -0.0205  0.0219 -0.6549
 2467Sol     HW13021   2.285   2.955   1.701 -0.0434  0.1848 -0.1326
 2467Sol     MW13022   2.207   2.941   1.743  0.6879 -0.1508 -0.0197
 2468Sol     OW13023   1.867   0.424   5.232  0.4187 -0.8581  0.6180
 2468Sol     HW13024   1.827   0.367   5.166  0.7835 -1.9634  1.3194
 2468Sol     HW13025   1.943   0.374   5.263  0.3588 -0.2829  1.7371
 2468Sol     MW13026   1.870   0.414   5.229  0.5460 -0.1449  0.3828
 2469Sol     OW13027   1.759   0.239   3.692 -0.0186 -0.1109  0.1409
 2469Sol     HW13028   1.822   0.304   3.661 -0.2120  1.4099  2.8344
 2469Sol     HW13029   1.806   0.190   3.760 -0.7982 -0.9357  0.0969
 2469Sol     MW13030   1.769   0.240   3.695 -0.1635  0.4598  0.3323
 2470Sol     OW13031   1.984   2.964   1.605 -0.3270  0.5330 -0.3972
 2470Sol     HW13032   1.944   2.992   1.523 -1.0046  0.0911 -0.2314
 2470Sol     HW13033   1.957   2.872   1.614  0.0486  0.4714  0.1307
 2470Sol     MW13034   1.978   2.958   1.598  0.0003  0.2101  0.2533
 2471Sol     OW13035   1.727   0.040   4.123 -0.2442 -0.1941  0.0654
 2471Sol     HW13036   1.678   0.122   4.120 -0.4210 -0.3426 -1.2834
 2471Sol     HW13037   1.664  -0.026   4.097 -0.0759 -0.7629  1.0667
 2471Sol     MW13038   1.717   0.042   4.121 -0.2836  0.2636 -0.0773
 2472Sol     OW13039   1.129   3.245   7.715  0.4157 -0.6477  0.4743
 2472Sol     HW13040   1.217   3.272   7.688  0.6665 -0.8301  1.1006
 2472Sol     HW13041   1.126   3.262   7.809 -0.1447 -0.8383  0.4929
 2472Sol     MW13042   1.136   3.249   7.721 -0.4903  0.4177 -0.4350
 2473Sol     OW13043   3.095   0.604   8.916 -0.8002 -0.2058  0.5919
 2473Sol     HW13044   3.019   0.661   8.905  0.8910  2.0770  0.3589
 2473Sol     HW13045   3.147   0.647   8.984  1.0985 -0.8522 -0.4425
 2473Sol     MW13046   3.093   0.613   8.921  0.3251  0.3976 -0.3110
 2474Sol     OW13047   1.355   1.481   4.035  0.4363 -0.7256  0.7419
 2474Sol     HW13048   1.408   1.480   3.956  1.1366 -0.9612  1.2120
 2474Sol     HW13049   1.287   1.415   4.019  0.6662 -0.8785  0.4055
 2474Sol     MW13050   1.353   1.475   4.026 -0.5534  0.0482  0.3329
 2475Sol     OW13051   2.520   1.734   9.238 -0.2470 -0.2519  0.0110
 2475Sol     HW13052   2.458   1.807   9.242  0.2939  0.1087  2.3260
 2475Sol     HW13053   2.545   1.729   9.145 -2.8047  0.3548 -0.7421
 2475Sol     MW13054   2.517   1.741   9.230  0.4158  0.0047 -0.1456
 2476Sol     OW13055   3.112   1.173   8.878  0.0656 -0.1592 -0.4936
 2476Sol     HW13056   3.112   1.234   8.805 -0.0164  0.0838 -0.2929
 2476Sol     HW13057   3.144   1.091   8.841 -0.2830 -0.1270 -0.8735
 2476Sol     MW13058   3.115   1.171   8.868 -0.0988  0.3039  0.1828
 2477Sol     OW13059   1.352   2.904   9.064  0.0997 -0.8695 -0.1766
 2477Sol     HW13060   1.270   2.872   9.103 -0.0084  0.6716  0.9513
 2477Sol     HW13061   1.343   2.886   8.971 -1.5902 -0.6436 -0.0838
 2477Sol     MW13062   1.343   2.900   9.059  0.4091  0.1823  0.1649
 2478Sol     OW13063   2.655   0.513   3.679 -0.1457 -0.4701  0.4866
 2478Sol     HW13064   2.723   0.565   3.720  0.1113  0.2601 -0.8253
 2478Sol     HW13065   2.691   0.489   3.594 -0.8750 -1.4926  0.4520
 2478Sol     MW13066   2.664   0.515   3.675 -0.3480  0.3166  0.2992
 2479Sol     OW13067   0.391   2.533   5.184  0.5703  0.3810 -0.7090
 2479Sol     HW13068   0.395   2.488   5.099 -1.0636 -0.4056 -0.3830
 2479Sol     HW13069   0.312   2.499   5.225  2.0563 -0.2348  1.7083
 2479Sol     MW13070   0.385   2.526   5.180 -0.3218 -0.0666 -0.0388
 2480Sol     OW13071   2.810   1.676   3.204 -0.2785  0.4170 -0.4948
 2480Sol     HW13072   2.869   1.737   3.159  1.5071 -0.4272  0.6207
 2480Sol     HW13073   2.819   1.594   3.155  0.1889  0.0301  0.2303
 2480Sol     MW13074   2.816   1.674   3.195  0.1618 -1.0117 -0.4003
 2481Sol     OW13075   1.174   2.946   2.074 -0.6683  0.3881  0.0384
 2481Sol     HW13076   1.171   3.013   2.142 -2.1368 -1.8740  2.2974
 2481Sol     HW13077   1.086   2.947   2.035 -0.1437  0.9863 -1.1354
 2481Sol     MW13078   1.166   2.952   2.077 -0.3370  0.0193 -0.5903
 2482Sol     OW13079   2.835   1.133   7.637  0.8056 -0.0505  0.4149
 2482Sol     HW13080   2.872   1.208   7.591 -0.2151 -0.0801 -0.4701
 2482Sol     HW13081   2.748   1.162   7.664  0.1798 -1.0936 -0.4291
 2482Sol     MW13082   2.831   1.142   7.635 -0.5057  0.0393  0.4662
 2483Sol     OW13083   0.499   1.537   5.704  0.2275 -0.1470 -0.2882
 2483Sol     HW13084   0.537   1.474   5.643  1.6558  0.0525  0.3680
 2483Sol     HW13085   0.573   1.567   5.756 -1.0878 -1.0437  2.2034
 2483Sol     MW13086   0.509   1.534   5.703  1.0383 -0.5357  0.4140
 2484Sol     OW13087   0.039   1.740   2.982  0.2324 -0.6265 -0.3769
 2484Sol     HW13088  -0.052   1.716   2.967  0.0763  0.6769 -1.6966
 2484Sol     HW13089   0.046   1.752   3.076 -1.2261  0.2474 -0.3607
 2484Sol     MW13090   0.032   1.739   2.989  0.0786 -0.2656 -0.8025
 2485Sol     OW13091   2.023   0.314   8.578 -0.2323 -0.0359  1.0499
 2485Sol     HW13092   1.938   0.347   8.548  0.5793  0.6526 -0.5671
 2485Sol     HW13093   2.014   0.306   8.673 -2.0610  0.1505  0.9030
 2485Sol     MW13094   2.015   0.316   8.584 -0.3822  0.6092 -0.0233
 2486Sol     OW13095   2.106   1.381   1.812 -0.0772 -0.3600  0.2061
 2486Sol     HW13096   2.181   1.328   1.835 -0.6039 -0.9518  0.5833
 2486Sol     HW13097   2.043   1.319   1.773 -0.2784  0.1625 -0.3207
 2486Sol     MW13098   2.107   1.371   1.810 -0.1692  0.1998  0.1908
 2487Sol     OW13099   1.947   1.112   2.805  0.4982 -0.9411 -0.1501
 2487Sol     HW13100   1.954   1.035   2.748 -1.0368 -0.6341 -0.7858
 2487Sol     HW13101   1.879   1.165   2.765  0.9031  0.3188  0.8036
 2487Sol     MW13102   1.941   1.110   2.797 -0.1324  0.2284 -0.5360
 2488Sol     OW13103   0.639   2.117   4.048 -0.6316 -0.0200  0.1537
 2488Sol     HW13104   0.614   2.111   3.956  0.5746  0.6080 -0.2198
 2488Sol     HW13105   0.719   2.065   4.055 -1.4662 -1.2040  1.1350
 2488Sol     MW13106   0.644   2.112   4.041 -0.6188 -0.7616 -0.2577
 2489Sol     OW13107   2.622   2.065   3.330 -0.0731 -0.2988 -0.4531
 2489Sol     HW13108   2.544   2.107   3.293  0.2708  0.7557  0.0037
 2489Sol     HW13109   2.624   1.979   3.288 -0.8627  0.0757 -1.3030
 2489Sol     MW13110   2.615   2.061   3.323 -0.4049  0.4545 -0.3645
 2490Sol     OW13111   1.815   1.204   2.405  0.4745  0.1505  0.5103
 2490Sol     HW13112   1.721   1.188   2.403  0.4327  0.3856  0.5669
 2490Sol     HW13113   1.831   1.246   2.489  0.7689 -0.7259  0.8944
 2490Sol     MW13114   1.808   1.206   2.412  0.0526 -0.5253 -0.0646
 2491Sol     OW13115   2.374   2.665   4.125  0.6342 -0.2695 -0.2797
 2491Sol     HW13116   2.355   2.754   4.096 -1.1164 -1.0362 -1.5454
 2491Sol     HW13117   2.429   2.677   4.203 -2.4459  1.9807  1.6533
 2491Sol     MW13118   2.378   2.674   4.129  0.8642  0.3347 -0.3246
 2492Sol     OW13119   0.894   0.612   4.631 -0.4617 -0.3715 -0.0569
 2492Sol     HW13120   0.935   0.647   4.552  0.7385 -1.8326 -0.0920
 2492Sol     HW13121   0.881   0.689   4.687  0.2863  0.4260 -0.9544
 2492Sol     MW13122   0.896   0.622   4.629 -0.3154 -0.2678 -0.7443
 2493Sol     OW13123   3.312   0.775   3.955  0.0985 -0.0499 -0.3818
 2493Sol     HW13124   3.371   0.703   3.979  0.3461  1.0763  2.7049
 2493Sol     HW13125   3.371   0.845   3.927 -0.0097 -0.2547 -1.1281
 2493Sol     MW13126   3.323   0.775   3.955 -0.3147  0.2159  0.5974
 2494Sol     OW13127   0.335   3.053   4.150 -0.0235  0.4142 -0.1616
 2494Sol     HW13128   0.405   3.067   4.213  0.5163  0.9413 -0.8718
 2494Sol     HW13129   0.325   3.138   4.106  0.1390 -0.1653 -1.3272
 2494Sol     MW13130   0.340   3.062   4.152 -0.3267 -0.1172 -0.0856
 2495Sol     OW13131   0.320   3.393   9.010 -0.3693 -0.4147  0.4444
 2495Sol     HW13132   0.362   3.372   8.927  0.3634 -0.3398  0.7903
 2495Sol     HW13133   0.376   3.461   9.049  0.8405 -2.3945  2.2582
 2495Sol     MW13134   0.329   3.398   9.006  0.4934  0.2282 -0.3242
 2496Sol     OW13135   2.940   1.936   4.431  0.9919  0.2578  0.0065
 2496Sol     HW13136   2.942   1.938   4.335 -1.7010  1.7236 -0.0674
 2496Sol     HW13137   2.912   1.847   4.453  0.1190  0.3792 -0.6127
 2496Sol     MW13138   2.938   1.928   4.424  0.3616  0.1595 -0.3066
 2497Sol     OW13139   3.058   0.879   7.031 -0.0231  0.0511  0.1214
 2497Sol     HW13140   3.088   0.788   7.024  0.0276  0.0196  0.6779
 2497Sol     HW13141   3.093   0.922   6.954  1.0538 -0.0983  0.5161
 2497Sol     MW13142   3.063   0.875   7.024 -0.4909  0.1989  0.4020
 2498Sol     OW13143   2.222   2.783   3.769 -0.3681 -0.4235 -0.2068
 2498Sol     HW13144   2.164   2.803   3.842 -1.5790 -1.8231 -0.7461
 2498Sol     HW13145   2.268   2.703   3.796 -1.3754 -1.3756 -1.2705
 2498Sol     MW13146   2.221   2.778   3.778 -0.1592  0.0904  0.2194
 2499Sol     OW13147   0.673   2.759   4.588  0.1329  0.2862  0.1038
 2499Sol     HW13148   0.706   2.684   4.638 -0.8537 -0.4073 -0.2561
 2499Sol     HW13149   0.657   2.826   4.654 -0.2086 -0.2801  0.6029
 2499Sol     MW13150   0.674   2.758   4.599 -0.6657  0.0359  0.1656
 2500Sol     OW13151   0.853   0.205   7.306  0.3055  0.1760 -0.3115
 2500Sol     HW13152   0.828   0.126   7.355 -1.1996  0.6893 -0.2110
 2500Sol     HW13153   0.922   0.175   7.247 -0.9185 -1.4881 -0.9666
 2500Sol     MW13154   0.857   0.195   7.305 -0.2109 -0.3425  0.2284
 2501Sol     OW13155   0.133   2.323   2.626  0.5438 -0.4193 -0.1587
 2501Sol     HW13156   0.155   2.408   2.663 -0.8249 -0.3695  0.5487
 2501Sol     HW13157   0.163   2.328   2.535  0.7150  0.7093 -0.0455
 2501Sol     MW13158   0.138   2.331   2.621  0.2202  0.0956 -0.0105
 2502Sol     OW13159   1.887   1.426   2.229  0.3728  0.3138 -0.1359
 2502Sol     HW13160   1.879   1.360   2.298  1.1458  0.7612  0.3873
 2502Sol     HW13161   1.878   1.510   2.275  0.1513  0.5965 -0.6880
 2502Sol     MW13162   1.885   1.428   2.240 -0.1390 -0.6645 -0.2955
 2503Sol     OW13163   0.862   0.814   9.308 -0.5048 -0.4386  0.1836
 2503Sol     HW13164   0.793   0.832   9.373 -0.7621  0.3559 -0.3044
 2503Sol     HW13165   0.879   0.899   9.267  0.4614 -0.7200 -0.0025
 2503Sol     MW13166   0.857   0.823   9.310  0.3500  0.2334 -0.1547
 2504Sol     OW13167   2.845   3.067   1.579 -0.0165 -0.2898 -0.2757
 2504Sol     HW13168   2.846   3.161   1.600  0.8445 -0.5479  0.8601
 2504Sol     HW13169   2.768   3.033   1.625 -0.4053 -0.1333 -0.7937
 2504Sol     MW13170   2.838   3.073   1.585 -0.6243  0.5845 -0.0941
 2505Sol     OW13171   3.254   0.123   8.034  0.4951  0.4826 -0.1273
 2505Sol     HW13172   3.343   0.112   8.000  0.4461 -0.2058 -0.0328
 2505Sol     HW13173   3.198   0.092   7.963  0.3499  0.4305  0.0116
 2505Sol     MW13174   3.257   0.119   8.024 -0.6143  0.0248 -0.3299
 2506Sol     OW13175   2.832   3.130   5.407 -0.4166  0.0165 -0.4936
 2506Sol     HW13176   2.897   3.080   5.357 -0.5508 -1.6022  0.8977
 2506Sol     HW13177   2.881   3.204   5.442  0.4891 -0.7429 -0.1341
 2506Sol     MW13178   2.842   3.132   5.405 -0.0610 -0.7352  0.0684
 2507Sol     OW13179   0.583   2.148   5.595 -0.1360  0.5053  0.1301
 2507Sol     HW13180   0.643   2.183   5.661  0.0140  2.3073 -0.9370
 2507Sol     HW13181   0.508   2.208   5.596  0.6777  1.6315 -2.6148
 2507Sol     MW13182   0.581   2.156   5.601  0.0228  0.2429  0.7730
 2508Sol     OW13183   0.220   0.456   7.338  0.8446  0.1112  0.9810
 2508Sol     HW13184   0.312   0.469   7.316  0.2654 -1.1939 -2.3889
 2508Sol     HW13185   0.174   0.525   7.291 -0.2725 -1.7820 -0.7806
 2508Sol     MW13186   0.224   0.463   7.332  0.6097 -0.0655 -0.0510
 2509Sol     OW13187   1.972   0.590   5.425 -0.5105  0.4222 -0.2894
 2509Sol     HW13188   1.921   0.582   5.505 -0.6878  0.3406 -0.4101
 2509Sol     HW13189   1.920   0.544   5.359  0.7021 -1.4569  0.0224
 2509Sol     MW13190   1.963   0.585   5.426 -0.0822  0.0906  0.2100
 2510Sol     OW13191   0.923   1.706   1.937  0.0473  0.2091  0.3574
 2510Sol     HW13192   0.839   1.723   1.894  1.0437  2.0672 -0.9065
 2510Sol     HW13193   0.986   1.762   1.891  1.8445 -0.5702  1.7919
 2510Sol     MW13194   0.921   1.713   1.929  0.0288  0.6884  0.6010
 2511Sol     OW13195   1.550   2.486   9.580 -0.0425  0.1568 -0.4089
 2511Sol     HW13196   1.477   2.471   9.640 -0.2776 -0.3225 -0.8066
 2511Sol     HW13197   1.601   2.405   9.583  0.8490  0.7431  0.3757
 2511Sol     MW13198   1.548   2.478   9.585  0.0795  0.6081 -0.2332
 2512Sol     OW13199   1.425   3.084   5.324 -0.0738  0.2435 -0.3583
 2512Sol     HW13200   1.487   3.126   5.264 -0.2725 -0.1075 -0.8232
 2512Sol     HW13201   1.461   3.099   5.411  0.9368 -0.3743 -0.6470
 2512Sol     MW13202   1.434   3.089   5.326 -0.0419  1.0588 -0.4690
 2513Sol     OW13203   2.024   3.132   3.813  0.0316  0.1383 -0.5105
 2513Sol     HW13204   2.111   3.163   3.788  0.6431 -0.6330  0.6274
 2513Sol     HW13205   1.988   3.203   3.865  0.9201 -0.5115  1.0082
 2513Sol     MW13206   2.029   3.141   3.815  0.0855  0.4465 -0.5651
 2514Sol     OW13207   2.028   2.427   2.616 -0.3914  0.3124 -0.4680
 2514Sol     HW13208   2.120   2.401   2.617 -0.8154 -1.2465 -0.6598
 2514Sol     HW13209   1.989   2.380   2.689 -1.1493  0.5276 -0.7294
 2514Sol     MW13210   2.033   2.420   2.622  0.3570 -0.2054  0.0418
 2515Sol     OW13211   1.355   3.278   6.456 -0.2162 -0.1480 -0.6768
 2515Sol     HW13212   1.261   3.264   6.447 -0.4778  0.7874  0.5262
 2515Sol     HW13213   1.392   3.243   6.375 -1.6989  0.5513 -1.6716
 2515Sol     MW13214   1.350   3.273   6.448  0.2862  0.4424  0.0903
 2516Sol     OW13215   1.927   0.569   7.184 -0.0465 -0.4191 -0.1928
 2516Sol     HW13216   1.987   0.602   7.117  0.5843 -1.3309 -0.0772
 2516Sol     HW13217   1.946   0.624   7.261 -0.2358  0.1199 -0.5289
 2516Sol     MW13218   1.934   0.577   7.185 -0.2541 -0.6288  0.5077
 2517Sol     OW13219   3.204   2.456   2.726  0.1086  0.3776  0.3305
 2517Sol     HW13220   3.224   2.369   2.760  1.4489  0.4971 -0.1128
 2517Sol     HW13221   3.278   2.510   2.754 -0.9989  1.5238  1.1304
 2517Sol     MW13222   3.212   2.453   2.732  0.0655  0.4092  0.1581
 2518Sol     OW13223   2.660   2.852   1.655 -0.5462  0.4689 -0.1122
 2518Sol     HW13224   2.661   2.837   1.749  1.8787 -0.0172 -0.1821
 2518Sol     HW13225   2.729   2.795   1.621 -2.6773 -0.8865 -2.4401
 2518Sol     MW13226   2.666   2.845   1.660 -0.0157 -0.8315 -1.2036
 2519Sol     OW13227   1.821   2.925   6.039  0.0193 -0.5364 -0.4773
 2519Sol     HW13228   1.887   2.863   6.011 -0.0825 -1.3076  0.9354
 2519Sol     HW13229   1.831   2.999   5.980  2.2424 -0.5688 -0.1858
 2519Sol     MW13230   1.827   2.926   6.032  0.1071 -0.0635 -0.0650
 2520Sol     OW13231   1.787   2.800   3.693 -0.6859 -0.3670 -0.6275
 2520Sol     HW13232   1.805   2.886   3.654  0.4134 -1.1106 -1.7710
 2520Sol     HW13233   1.783   2.817   3.787  0.2789  0.8167 -0.7931
 2520Sol     MW13234   1.788   2.809   3.698 -0.0480  0.5500 -0.2283
 2521Sol     OW13235   2.671   0.433   8.743  0.8023  0.1300 -0.3431
 2521Sol     HW13236   2.598   0.407   8.687 -0.1017 -0.8049  1.2522
 2521Sol     HW13237   2.654   0.391   8.827  1.3924  2.6394  1.0974
 2521Sol     MW13238   2.663   0.427   8.746 -0.1981  0.2296 -1.1588
 2522Sol     OW13239   2.595   0.666   3.211 -0.3855 -0.4626  0.4647
 2522Sol     HW13240   2.641   0.647   3.129 -1.0203 -0.0306 -0.0010
 2522Sol     HW13241   2.641   0.742   3.247 -0.4628 -0.3063  0.2289
 2522Sol     MW13242   2.603   0.671   3.207  0.6498 -0.4389  0.1231
 2523Sol     OW13243   1.513   1.920   2.899 -0.1803  0.0434  0.0211
 2523Sol     HW13244   1.594   1.932   2.850 -0.0771  1.2822  0.4779
 2523Sol     HW13245   1.472   1.843   2.860  1.0686 -0.4104 -0.4088
 2523Sol     MW13246   1.517   1.915   2.891 -0.3699  0.1921 -0.2591
 2524Sol     OW13247   2.827   3.179   9.024  0.4452  0.3325 -0.0601
 2524Sol     HW13248   2.754   3.214   8.974  0.3994  1.1086  0.5505
 2524Sol     HW13249   2.900   3.239   9.007  0.6380  0.1793  0.2098
 2524Sol     MW13250   2.827   3.187   9.018 -0.0628  0.0879 -1.0263
 2525Sol     OW13251   0.454   3.043   5.244 -0.5369  0.4367  0.1076
 2525Sol     HW13252   0.414   3.097   5.175 -2.3998  1.4223  1.9225
 2525Sol     HW13253   0.400   2.964   5.246 -0.9520  0.7433  0.9579
 2525Sol     MW13254   0.445   3.041   5.238 -0.3975 -0.0854  1.2597
 2526Sol     OW13255   2.272   2.308   6.679  0.3634 -0.0899  0.5656
 2526Sol     HW13256   2.203   2.245   6.658 -0.5731  0.9214  0.5309
 2526Sol     HW13257   2.244   2.347   6.761  1.8351 -0.9622  1.5028
 2526Sol     MW13258   2.263   2.306   6.684  0.5865  0.2641  0.0645
 2527Sol     OW13259   0.724   1.720   6.049  0.1163 -0.0045 -0.1534
 2527Sol     HW13260   0.805   1.741   6.097  0.6953 -0.4579 -0.9230
 2527Sol     HW13261   0.749   1.648   5.990 -1.4658 -1.8769  1.3864
 2527Sol     MW13262   0.734   1.715   6.048 -0.4788 -0.0644 -0.5997
 2528Sol     OW13263   2.488   0.165   6.599  0.2394  0.3322 -0.5837
 2528Sol     HW13264   2.513   0.115   6.521 -0.2059 -0.3907 -0.2645
 2528Sol     HW13265   2.429   0.232   6.565 -0.3972 -0.3243 -0.7971
 2528Sol     MW13266   2.485   0.166   6.589 -0.0027 -0.3038 -0.2051
 2529Sol     OW13267   2.287   2.264   2.603 -0.2113  0.3128 -0.2163
 2529Sol     HW13268   2.305   2.201   2.533  1.8119 -0.4805  0.9874
 2529Sol     HW13269   2.343   2.339   2.582  0.6126 -0.0433  0.7085
 2529Sol     MW13270   2.293   2.265   2.595  0.0408 -0.3252 -0.0032
 2530Sol     OW13271   0.030   0.016   5.484 -0.2081  0.1933 -0.1599
 2530Sol     HW13272   0.033  -0.079   5.481 -0.3697  0.2084 -0.9102
 2530Sol     HW13273  -0.052   0.037   5.528  0.0690 -0.0192  0.4559
 2530Sol     MW13274   0.023   0.010   5.487  0.4985  0.8842  0.2568
 2531Sol     OW13275   2.785   0.298   3.913  0.0353  0.0175 -0.2388
 2531Sol     HW13276   2.742   0.382   3.928  1.3932  1.2259 -2.9380
 2531Sol     HW13277   2.761   0.246   3.990 -1.3477  2.6282  1.1827
 2531Sol     MW13278   2.779   0.301   3.922 -0.1043  0.0957 -0.0393
 2532Sol     OW13279   1.812   0.252   5.600 -0.0359  0.1748 -0.8541
 2532Sol     HW13280   1.825   0.344   5.622  1.5763 -0.4289  0.8248
 2532Sol     HW13281   1.884   0.231   5.540 -1.0311  0.2763 -2.1017
 2532Sol     MW13282   1.819   0.258   5.596  0.3586 -0.2001  0.3530
 2533Sol     OW13283   1.034   0.837   3.843 -0.3083 -0.5378  0.2967
 2533Sol     HW13284   1.124   0.815   3.822 -0.7835 -2.4681  0.2303
 2533Sol     HW13285   0.981   0.768   3.802 -1.8285  0.6927  0.1283
 2533Sol     MW13286   1.037   0.829   3.838  0.5552 -0.1294 -0.1558
 2534Sol     OW13287   0.780   2.996   4.248  0.4091  0.4310 -0.2018
 2534Sol     HW13288   0.839   3.052   4.197 -0.3074  0.9545 -0.4644
 2534Sol     HW13289   0.834   2.965   4.321  1.7289 -1.1420 -1.8231
 2534Sol     MW13290   0.790   2.999   4.250 -0.5775  0.0717  0.8623
 2535Sol     OW13291   2.825   1.070   6.643 -0.0748  0.2551  0.0518
 2535Sol     HW13292   2.790   1.142   6.695 -1.5294  0.9594 -1.8295
 2535Sol     HW13293   2.919   1.088   6.637 -0.2493  1.3650  0.5516
 2535Sol     MW13294   2.831   1.078   6.647 -0.1149 -0.5053 -0.1553
 2536Sol     OW13295   1.101   2.277   5.207  0.5239 -0.2368 -0.6933
 2536Sol     HW13296   1.168   2.326   5.256 -0.6286  0.1754  0.5015
 2536Sol     HW13297   1.047   2.345   5.166  0.2727 -0.5490 -0.8803
 2536Sol     MW13298   1.102   2.288   5.208  0.1769 -0.0586  0.0781
 2537Sol     OW13299   1.382   1.476   4.325  0.2721  0.0372 -0.7555
 2537Sol     HW13300   1.316   1.407   4.337 -1.0470  1.4757  0.3930
 2537Sol     HW13301   1.390   1.485   4.230 -0.2343 -1.0529 -0.9112
 2537Sol     MW13302   1.376   1.470   4.317 -0.6268  0.8846 -0.2558
 2538Sol     OW13303   2.483   1.635   4.981 -0.6231 -0.0943  0.1847
 2538Sol     HW13304   2.526   1.721   4.988  1.6668 -1.2834  1.2765
 2538Sol     HW13305   2.525   1.582   5.048 -1.5504 -2.2673 -0.9168
 2538Sol     MW13306   2.491   1.638   4.987 -0.2594  0.4746 -0.4775
 2539Sol     OW13307   0.755   2.245   5.788  0.9978  0.1675 -0.6729
 2539Sol     HW13308   0.729   2.174   5.846 -1.1087 -0.6320 -2.5356
 2539Sol     HW13309   0.846   2.226   5.766  1.0994 -0.7700  0.5027
 2539Sol     MW13310   0.761   2.237   5.791  0.0084 -0.4018 -0.1867
 2540Sol     OW13311   2.763   1.161   7.104  0.4275 -0.2627  0.2447
 2540Sol     HW13312   2.722   1.221   7.167  1.5408  1.3137 -0.5258
 2540Sol     HW13313   2.714   1.174   7.023 -0.6518 -1.9067  0.5953
 2540Sol     MW13314   2.755   1.167   7.103 -0.2708 -0.2827 -0.1974
 2541Sol     OW13315   1.178   1.284   4.319 -0.2624  0.0687  0.3467
 2541Sol     HW13316   1.180   1.207   4.263 -0.6570  0.4077 -0.1358
 2541Sol     HW13317   1.087   1.314   4.317  0.1623  1.3500 -0.5866
 2541Sol     MW13318   1.170   1.280   4.314  0.1855  0.2213  0.5380
 2542Sol     OW13319   2.941   1.827   6.158  0.5201  0.4504 -0.2267
 2542Sol     HW13320   2.924   1.743   6.115  0.1421  0.9601 -1.0711
 2542Sol     HW13321   2.931   1.808   6.252 -1.8765  0.0716 -0.5245
 2542Sol     MW13322   2.939   1.818   6.163  0.1047  0.3009  0.2081
 2543Sol     OW13323   3.102   3.430   3.643 -1.0068  0.2961 -0.2744
 2543Sol     HW13324   3.110   3.518   3.679 -4.0196  1.3970 -2.1164
 2543Sol     HW13325   3.102   3.373   3.719 -0.4789  2.0061  1.0478
 2543Sol     MW13326   3.103   3.433   3.653 -0.5195  0.3234 -0.1829
 2544Sol     OW13327   1.266   2.305   9.613 -0.5890  0.8382 -0.4753
 2544Sol     HW13328   1.172   2.297   9.598 -0.5089 -1.0983 -0.1476
 2544Sol     HW13329   1.274   2.368   9.684 -1.6621  0.8604 -0.3632
 2544Sol     MW13330   1.258   2.310   9.618 -0.2389  0.6493 -0.0022
 2545Sol     OW13331   1.150   0.141   4.133 -0.3363  0.1723  0.4082
 2545Sol     HW13332   1.071   0.169   4.087 -0.2333  2.5720  1.5898
 2545Sol     HW13333   1.219   0.197   4.098  0.4856 -0.6507  0.6928
 2545Sol     MW13334   1.149   0.149   4.126 -0.5171 -0.7603 -0.4501
 2546Sol     OW13335   0.609   0.532   9.728 -0.4201  0.2638  0.5013
 2546Sol     HW13336   0.595   0.593   9.656 -1.1796  1.0301  1.3003
 2546Sol     HW13337   0.523   0.494   9.746 -0.3455  0.4895  1.3738
 2546Sol     MW13338   0.600   0.534   9.723  0.6365  0.2191  0.1436
 2547Sol     OW13339   1.955   2.871   6.255 -0.0377  0.0312  0.8009
 2547Sol     HW13340   1.902   2.898   6.180  0.2738  0.5686  0.7708
 2547Sol     HW13341   2.002   2.794   6.225 -0.9429 -0.5612  0.8872
 2547Sol     MW13342   1.954   2.867   6.246  0.1652 -0.4873 -1.0018
 2548Sol     OW13343   2.495   3.379   2.967  0.3753  0.2584  0.1854
 2548Sol     HW13344   2.453   3.465   2.957 -0.2452 -0.2284 -1.6057
 2548Sol     HW13345   2.573   3.396   3.019  1.3916  2.2922 -1.9221
 2548Sol     MW13346   2.498   3.388   2.971 -0.0420 -0.3887 -0.6205
 2549Sol     OW13347   1.760   2.709   7.341 -0.1742 -0.0744 -0.2823
 2549Sol     HW13348   1.694   2.778   7.339  1.2434  1.2856 -0.5251
 2549Sol     HW13349   1.752   2.666   7.256 -0.0363  0.7608 -0.7194
 2549Sol     MW13350   1.753   2.711   7.333  0.2372 -0.3575 -0.3516
 2550Sol     OW13351   2.310   3.272   3.310  0.3293 -0.1561  0.3410
 2550Sol     HW13352   2.386   3.241   3.359  1.7446  2.0107 -0.4157
 2550Sol     HW13353   2.340   3.353   3.268 -1.8614 -0.2094 -1.4043
 2550Sol     MW13354   2.320   3.276   3.311 -0.4785  0.2439 -0.7549
 2551Sol     OW13355   1.102   0.763   3.517  0.1579  0.2590 -0.0752
 2551Sol     HW13356   1.045   0.839   3.504 -0.6577 -0.4832 -0.9089
 2551Sol     HW13357   1.051   0.703   3.571 -0.1529 -0.7032 -1.3986
 2551Sol     MW13358   1.092   0.764   3.521  0.0555  0.1508 -0.5099
 2552Sol     OW13359   2.664   2.152   7.068 -0.6134  0.0678 -0.4628
 2552Sol     HW13360   2.687   2.207   6.994  1.1915  0.3853  0.2884
 2552Sol     HW13361   2.575   2.178   7.091 -0.4139  1.4632 -1.1962
 2552Sol     MW13362   2.658   2.159   7.064 -0.4538 -0.7033 -0.6528
 2553Sol     OW13363   1.161   1.326   3.892 -0.2804 -0.2779  0.1640
 2553Sol     HW13364   1.205   1.243   3.871 -1.9128 -1.5554  1.6065
 2553Sol     HW13365   1.115   1.349   3.811 -1.4225 -1.8515  0.3337
 2553Sol     MW13366   1.161   1.320   3.883 -0.2959 -0.3128 -0.5918
 2554Sol     OW13367   1.325   1.720   2.831 -0.0518 -0.3966  0.1084
 2554Sol     HW13368   1.320   1.656   2.761  0.8521 -0.5096  0.1476
 2554Sol     HW13369   1.300   1.803   2.790 -0.5754 -0.6519 -0.0911
 2554Sol     MW13370   1.322   1.722   2.821  0.0434  0.1188 -0.0037
 2555Sol     OW13371   0.519   0.851   2.570  0.3643  0.2912  0.4915
 2555Sol     HW13372   0.460   0.924   2.553 -1.2586 -0.9228  0.7602
 2555Sol     HW13373   0.562   0.835   2.486 -2.0226 -0.8038 -0.5642
 2555Sol     MW13374   0.518   0.856   2.561 -0.0826 -0.2291  0.4557
 2556Sol     OW13375   1.013   2.465   5.597 -0.1194 -0.3113  0.2999
 2556Sol     HW13376   1.024   2.524   5.671 -1.5900 -0.8936  0.9813
 2556Sol     HW13377   1.034   2.379   5.631 -0.4154 -0.5282 -0.0593
 2556Sol     MW13378   1.016   2.463   5.606 -0.2627 -0.0526  0.0899
 2557Sol     OW13379   2.340   2.811   8.794 -0.7303  0.3664 -0.1312
 2557Sol     HW13380   2.250   2.836   8.812 -0.7515  0.5656 -0.5056
 2557Sol     HW13381   2.382   2.807   8.880 -1.1043  0.2271  0.0459
 2557Sol     MW13382   2.336   2.813   8.803  0.2436  0.0217 -0.6165
 2558Sol     OW13383   2.188   2.308   3.532 -0.0494  0.2038 -0.2198
 2558Sol     HW13384   2.273   2.308   3.488 -0.3327 -0.6663 -0.7801
 2558Sol     HW13385   2.196   2.243   3.601 -0.0480  0.5862  0.1391
 2558Sol     MW13386   2.196   2.302   3.534  0.1278 -0.3445 -0.1860
 2559Sol     OW13387   1.139   2.782   6.783  0.1111  0.1496 -0.2952
 2559Sol     HW13388   1.230   2.776   6.755  0.5320  2.2778  0.5337
 2559Sol     HW13389   1.137   2.854   6.846 -1.5319 -1.9899  2.2125
 2559Sol     MW13390   1.147   2.788   6.786  0.0476  0.2137 -0.0935
 2560Sol     OW13391   2.077   0.871   5.758  0.0710 -0.8616 -0.1913
 2560Sol     HW13392   2.023   0.883   5.836 -1.5409  2.2757 -1.6480
 2560Sol     HW13393   2.167   0.868   5.790 -0.7142 -2.1150  1.9513
 2560Sol     MW13394   2.080   0.872   5.768 -0.3376  0.1838 -0.1132
 2561Sol     OW13395   2.899   2.695   1.645  0.4655 -0.0588 -0.1189
 2561Sol     HW13396   2.973   2.756   1.633  1.0514 -0.7701 -0.1568
 2561Sol     HW13397   2.905   2.669   1.736  1.3067 -1.4505 -0.5599
 2561Sol     MW13398   2.907   2.698   1.652 -0.1382 -0.0210  0.4345
 2562Sol     OW13399   0.883   1.065   7.298 -0.1319 -0.0810  0.0018
 2562Sol     HW13400   0.976   1.041   7.289  0.5718  2.2058  0.9541
 2562Sol     HW13401   0.876   1.102   7.386 -1.4556  1.8251 -0.8694
 2562Sol     MW13402   0.891   1.066   7.305  0.2301  0.4231 -0.2396
 2563Sol     OW13403   0.312   2.934   8.593  0.5015 -0.2047  0.1973
 2563Sol     HW13404   0.315   3.005   8.657 -1.7505  2.2611 -2.2485
 2563Sol     HW13405   0.374   2.961   8.525 -0.5470 -0.4344 -0.8660
 2563Sol     MW13406   0.318   2.943   8.593  0.4950  1.0796  0.0266
 2564Sol     OW13407   0.844   1.744   3.306 -0.3757  0.0890 -0.1258
 2564Sol     HW13408   0.798   1.814   3.261  1.1692  1.9877  1.1580
 2564Sol     HW13409   0.926   1.734   3.258 -0.3585 -0.4809  0.0199
 2564Sol     MW13410   0.847   1.749   3.298  0.2932 -0.0511  0.3297
 2565Sol     OW13411   2.511   2.643   5.858 -0.0667 -1.1497  0.4236
 2565Sol     HW13412   2.585   2.703   5.854 -1.1675  0.2375  0.6578
 2565Sol     HW13413   2.517   2.604   5.945 -0.8117  0.5144  1.2268
 2565Sol     MW13414   2.518   2.645   5.865 -0.0852  0.2639 -0.1686
 2566Sol     OW13415   0.742   0.927   5.123  0.1922  0.1453  0.2016
 2566Sol     HW13416   0.765   1.017   5.147  2.4043 -0.4093  0.3398
 2566Sol     HW13417   0.792   0.873   5.185 -0.0028 -1.1841 -0.7793
 2566Sol     MW13418   0.749   0.930   5.131  0.4151  0.4057  0.1136
 2567Sol     OW13419   2.443   1.644   5.305  0.2853  0.1262  0.6638
 2567Sol     HW13420   2.388   1.585   5.355  0.4682 -1.0429 -0.4740
 2567Sol     HW13421   2.520   1.591   5.282  1.2299  1.3162  1.0615
 2567Sol     MW13422   2.445   1.634   5.307 -0.4375  0.1662 -0.4549
 2568Sol     OW13423   0.290   2.254   4.150  0.7613  0.9949 -0.0989
 2568Sol     HW13424   0.376   2.282   4.181  0.3900  0.5629  1.3778
 2568Sol     HW13425   0.229   2.292   4.213 -0.0886  0.8299 -0.8136
 2568Sol     MW13426   0.292   2.260   4.159  1.0213  0.0316 -0.2194
 2569Sol     OW13427   1.433   1.451   9.951 -0.3910  0.2271  0.5780
 2569Sol     HW13428   1.352   1.459  10.001 -1.2717 -0.2279 -0.7448
 2569Sol     HW13429   1.459   1.541   9.933 -1.1429  0.3658  0.1616
 2569Sol     MW13430   1.428   1.460   9.954 -0.3770  0.2893  0.1058
 2570Sol     OW13431   0.615   0.800   2.316  0.2208  0.1454  0.1857
 2570Sol     HW13432   0.687   0.856   2.285  0.6741 -0.2578  0.4900
 2570Sol     HW13433   0.649   0.711   2.307 -0.3044 -0.0549  0.1865
 2570Sol     MW13434   0.625   0.797   2.312  0.2239  0.0981  0.0646
 2571Sol     OW13435   1.903   0.468   6.300 -0.0970 -0.2171 -0.5083
 2571Sol     HW13436   1.926   0.510   6.217 -1.8652 -0.9767 -1.3940
 2571Sol     HW13437   1.819   0.506   6.324  0.7668  0.5631  1.3460
 2571Sol     MW13438   1.898   0.475   6.295  0.7036  0.5064 -0.4520
 2572Sol     OW13439   1.796   2.494   4.376 -0.1035 -0.0207 -0.5678
 2572Sol     HW13440   1.848   2.457   4.447 -1.2751 -1.0979 -0.2435
 2572Sol     HW13441   1.770   2.419   4.323  0.6442  0.7586 -2.0882
 2572Sol     MW13442   1.798   2.484   4.377 -0.6119  0.5825  0.3330
 2573Sol     OW13443   0.223   1.526   9.378 -1.1793  0.4960  0.0408
 2573Sol     HW13444   0.172   1.447   9.394 -1.0920  0.4613  0.1400
 2573Sol     HW13445   0.305   1.496   9.341 -1.0006  0.5194  0.4216
 2573Sol     MW13446   0.225   1.516   9.376  0.2777 -0.1160  0.3830
 2574Sol     OW13447   0.757   2.803   6.112  0.4675  0.4160 -0.3410
 2574Sol     HW13448   0.785   2.879   6.062  1.5904  0.6804  0.6803
 2574Sol     HW13449   0.762   2.730   6.050 -1.1181  1.2304 -1.4730
 2574Sol     MW13450   0.760   2.803   6.102  0.7727  0.4533 -0.1783
 2575Sol     OW13451   3.251   1.147   3.015 -0.2693  0.1044 -0.4032
 2575Sol     HW13452   3.209   1.233   3.009 -0.2876  0.2905  1.7918
 2575Sol     HW13453   3.208   1.105   3.090 -0.0626 -1.7185 -1.2835
 2575Sol     MW13454   3.243   1.151   3.021  0.0062 -0.1396  0.1404
 2576Sol     OW13455   1.017   2.995   9.120 -0.0662 -0.1655 -0.1021
 2576Sol     HW13456   0.979   3.031   9.040  0.5191 -0.5159 -0.5429
 2576Sol     HW13457   1.105   3.032   9.125 -0.3638  0.4546  0.7937
 2576Sol     MW13458   1.021   3.001   9.114  0.0197 -0.1203 -0.4774
 2577Sol     OW13459   0.643   3.137   7.576  0.1938  0.1587 -0.9453
 2577Sol     HW13460   0.557   3.178   7.566 -0.2628 -0.2980  0.9299
 2577Sol     HW13461   0.690   3.194   7.637  1.3213  0.5393 -2.1449
 2577Sol     MW13462   0.639   3.146   7.580  0.4191 -0.0963 -0.1764
 2578Sol     OW13463   2.303   0.723   9.257 -0.0189 -1.0215 -0.5243
 2578Sol     HW13464   2.362   0.791   9.225  0.5072 -0.9953  0.5110
 2578Sol     HW13465   2.295   0.739   9.350  0.5510 -2.7062 -0.1671
 2578Sol     MW13466   2.308   0.730   9.262 -0.4876  0.4383 -0.6544
 2579Sol     OW13467   3.309   1.311   7.009  0.1431  0.2322  0.0132
 2579Sol     HW13468   3.371   1.332   7.079 -0.1540 -2.0341  0.9898
 2579Sol     HW13469   3.333   1.369   6.937  2.0116  0.8845  1.1399
 2579Sol     MW13470   3.317   1.318   7.009  0.0132  0.5153  0.3059
 2580Sol     OW13471   0.003   1.536   4.835 -0.0666 -0.0543 -0.1176
 2580Sol     HW13472  -0.053   1.580   4.771  0.6572  1.0928  0.0221
 2580Sol     HW13473   0.087   1.526   4.790 -0.2139 -1.2964 -0.1405
 2580Sol     MW13474   0.006   1.539   4.825 -0.0789 -0.3758 -0.1856
 2581Sol     OW13475   1.662   2.796   8.404  0.2137  0.0843  0.0164
 2581Sol     HW13476   1.638   2.862   8.339  0.3851 -0.2363 -0.3716
 2581Sol     HW13477   1.588   2.736   8.406  0.8512 -0.7494 -0.9790
 2581Sol     MW13478   1.653   2.797   8.399 -0.0794  0.8059  0.3766
 2582Sol     OW13479   2.348   1.668   5.617  0.1033  0.5285 -0.0061
 2582Sol     HW13480   2.339   1.679   5.712  1.5350 -0.7184  0.2913
 2582Sol     HW13481   2.435   1.700   5.597 -0.1968  0.7964 -0.9122
 2582Sol     MW13482   2.355   1.672   5.624  0.4732  1.0834  0.0382
 2583Sol     OW13483   1.149   2.169   4.034 -0.1677  0.7164  0.3388
 2583Sol     HW13484   1.188   2.206   4.113  1.7146  0.1522 -0.3075
 2583Sol     HW13485   1.210   2.193   3.964 -0.5348 -0.9333 -0.5564
 2583Sol     MW13486   1.158   2.175   4.035  0.1250  0.2997 -0.2012
 2584Sol     OW13487   1.386   3.259   7.629 -0.0914  0.0161  0.2916
 2584Sol     HW13488   1.433   3.194   7.680 -0.8570  1.2773  2.6634
 2584Sol     HW13489   1.439   3.269   7.549  1.1032 -1.9938  0.7894
 2584Sol     MW13490   1.395   3.254   7.626  0.8345  0.0904 -0.1035
 2585Sol     OW13491   2.232   2.959   6.657  0.2173  0.6822 -0.0888
 2585Sol     HW13492   2.138   2.945   6.661  0.6135 -1.7951  1.2321
 2585Sol     HW13493   2.251   3.019   6.729 -0.1418 -0.0649  0.6320
 2585Sol     MW13494   2.225   2.964   6.664 -0.3088  0.8320  0.2626
 2586Sol     OW13495   1.149   2.806   9.604  0.2705 -0.1417  0.7670
 2586Sol     HW13496   1.166   2.778   9.693 -0.3918  0.9593  1.2643
 2586Sol     HW13497   1.188   2.894   9.598  0.6294 -0.3541 -0.1353
 2586Sol     MW13498   1.154   2.812   9.611  0.2742 -0.0528  0.0191
 2587Sol     OW13499   1.584   1.909   2.132  0.1407  0.6553  0.3250
 2587Sol     HW13500   1.668   1.864   2.124 -0.0058  0.6913 -1.7557
 2587Sol     HW13501   1.548   1.877   2.214  1.2519 -0.9722  0.2197
 2587Sol     MW13502   1.588   1.902   2.139 -0.1230 -0.4674 -0.2827
 2588Sol     OW13503   0.717   3.165   8.713 -0.0630 -0.1250  0.2543
 2588Sol     HW13504   0.744   3.215   8.637 -0.7060 -1.3271 -0.7800
 2588Sol     HW13505   0.661   3.096   8.678  1.0789 -1.7731  1.6002
 2588Sol     MW13506   0.714   3.163   8.703  0.4449  0.0528  0.1847
 2589Sol     OW13507   0.468   1.560   6.447 -0.3742  0.4011  0.2346
 2589Sol     HW13508   0.439   1.649   6.424  1.7883  0.8924 -0.6728
 2589Sol     HW13509   0.496   1.523   6.364 -0.2565 -0.7689  0.7971
 2589Sol     MW13510   0.468   1.565   6.437  0.4900  0.3336  0.0765
 2590Sol     OW13511   0.113   2.313   5.563 -0.7254 -0.1356  0.0772
 2590Sol     HW13512   0.085   2.223   5.584 -0.1128 -0.5192 -0.7129
 2590Sol     HW13513   0.208   2.307   5.554 -0.6212  0.7154  0.5951
 2590Sol     MW13514   0.119   2.304   5.564  0.2042  0.7833  0.3017
 2591Sol     OW13515   0.883   2.964   5.019 -0.1331  0.6623 -0.4450
 2591Sol     HW13516   0.946   3.036   5.010  0.0545  0.4096 -1.2774
 2591Sol     HW13517   0.936   2.885   5.002 -0.7218  0.4651 -1.3817
 2591Sol     MW13518   0.894   2.963   5.016 -0.6709 -0.6580 -0.4731
 2592Sol     OW13519   2.316   1.677   5.905 -0.5129 -0.0731 -0.1750
 2592Sol     HW13520   2.323   1.772   5.911 -1.8262  0.1388 -1.7754
 2592Sol     HW13521   2.230   1.657   5.943 -0.8469 -0.4815 -1.1353
 2592Sol     MW13522   2.309   1.684   5.909 -0.9914 -0.7950 -0.0865
 2593Sol     OW13523   3.295   3.256   2.076  0.3814  0.2842 -0.3653
 2593Sol     HW13524   3.292   3.345   2.041 -1.3673 -0.6887 -2.8195
 2593Sol     HW13525   3.290   3.267   2.171  0.8713  2.8221 -0.6092
 2593Sol     MW13526   3.294   3.265   2.081 -0.0125  0.1686 -0.2993
 2594Sol     OW13527   3.264   0.010   6.487 -0.5790 -0.0905 -0.3242
 2594Sol     HW13528   3.250   0.065   6.564 -2.0567  1.3571 -1.5840
 2594Sol     HW13529   3.185   0.021   6.435  0.2907 -1.2351 -1.9321
 2594Sol     MW13530   3.256   0.016   6.489 -0.8240 -0.3275 -0.3635
 2595Sol     OW13531   2.931   0.618   5.812 -0.0711 -0.7630  0.2539
 2595Sol     HW13532   3.020   0.625   5.848  0.2045 -3.1988  0.1653
 2595Sol     HW13533   2.941   0.562   5.735 -1.4334  0.3483 -0.7402
 2595Sol     MW13534   2.940   0.613   5.808  0.6049  0.1344  0.0223
 2596Sol     OW13535   0.689   3.158   3.596  0.4639  0.7576  0.3332
 2596Sol     HW13536   0.636   3.138   3.519 -0.0283 -3.3376  1.6074
 2596Sol     HW13537   0.779   3.151   3.565  0.2680  1.6311 -0.4441
 2596Sol     MW13538   0.692   3.155   3.586  0.0449  0.2789  0.2449
 2597Sol     OW13539   2.053   2.550   5.497  0.4145 -0.0233 -0.0902
 2597Sol     HW13540   2.074   2.605   5.421  1.1359 -2.8819 -2.0351
 2597Sol     HW13541   1.959   2.565   5.512  1.0201  3.3394  0.8229
 2597Sol     MW13542   2.046   2.557   5.492 -0.2397  0.1044  0.2233
 2598Sol     OW13543   0.071   1.340   9.488  0.1594 -0.6546 -0.0989
 2598Sol     HW13544   0.123   1.272   9.530 -0.1361 -1.2033 -0.6008
 2598Sol     HW13545  -0.009   1.294   9.460 -0.8616  0.2838  1.1770
 2598Sol     MW13546   0.068   1.330   9.489 -0.0906  0.8333 -0.1564
 2599Sol     OW13547   0.968   0.571   6.313 -0.6407 -0.9968 -0.1376
 2599Sol     HW13548   1.057   0.535   6.315  0.4650  1.6795  3.4693
 2599Sol     HW13549   0.971   0.639   6.246 -0.4532 -2.0604 -1.2169
 2599Sol     MW13550   0.976   0.574   6.307 -0.5328  0.2695  0.2472
 2600Sol     OW13551   1.399   3.375   8.912 -0.1766 -0.5495 -0.1748
 2600Sol     HW13552   1.428   3.392   9.001  0.0091 -1.4684 -0.0542
 2600Sol     HW13553   1.402   3.461   8.869  1.9699 -0.4756  0.0586
 2600Sol     MW13554   1.402   3.385   8.916 -0.1473  0.6774 -0.0785
 2601Sol     OW13555   1.575   2.820   1.990  0.2018  0.0983  0.2051
 2601Sol     HW13556   1.500   2.863   1.947 -0.4368  1.3342  2.4645
 2601Sol     HW13557   1.647   2.882   1.981  0.2087  0.1235  0.4236
 2601Sol     MW13558   1.574   2.830   1.985  0.6010 -0.6301 -0.0312
 2602Sol     OW13559   1.831   1.471   4.539  0.2783 -0.0853  0.2817
 2602Sol     HW13560   1.751   1.418   4.533  0.5338 -0.4414  0.0240
 2602Sol     HW13561   1.799   1.562   4.541 -0.0271 -0.0456 -3.0236
 2602Sol     MW13562   1.821   1.475   4.538 -0.9096 -0.1017  0.1384
 2603Sol     OW13563   2.618   2.113   8.780  0.4241 -0.3102 -0.0664
 2603Sol     HW13564   2.680   2.180   8.808  2.5874 -1.5734 -1.6644
 2603Sol     HW13565   2.644   2.034   8.828 -1.2089 -0.3883  0.7362
 2603Sol     MW13566   2.626   2.112   8.787  0.3989  0.0230  0.9666
 2604Sol     OW13567   3.308   2.822   4.990  0.6204  0.6255  0.4217
 2604Sol     HW13568   3.294   2.727   4.992  0.0208  0.6870 -0.4404
 2604Sol     HW13569   3.264   2.851   4.910  1.6185  1.5033  0.1713
 2604Sol     MW13570   3.303   2.816   4.983  0.5476  0.3917 -0.1410
 2605Sol     OW13571   1.971   0.315   4.291  0.0987  0.1812  0.0739
 2605Sol     HW13572   2.030   0.388   4.274 -0.7883  1.0596  0.7207
 2605Sol     HW13573   1.897   0.354   4.338 -0.5339 -1.0724  0.1427
 2605Sol     MW13574   1.969   0.325   4.294 -0.0968  0.2113 -0.3346
 2606Sol     OW13575   2.025   2.911   7.756 -0.4480  0.1278  0.4701
 2606Sol     HW13576   2.086   2.838   7.747  0.4516  0.9666 -0.4665
 2606Sol     HW13577   2.080   2.985   7.783 -1.3052  0.5255  1.1534
 2606Sol     MW13578   2.036   2.911   7.757  0.4103 -0.4510  0.7558
 2607Sol     OW13579   0.691   1.891   6.892 -0.3244 -0.5355  0.0565
 2607Sol     HW13580   0.703   1.870   6.984  0.3097  0.9950  0.3483
 2607Sol     HW13581   0.651   1.978   6.892  1.3918  0.3053 -1.1018
 2607Sol     MW13582   0.689   1.897   6.900  0.1999  0.3599 -0.1492
 2608Sol     OW13583   2.660   2.040   4.436 -0.3603 -0.4091 -0.3726
 2608Sol     HW13584   2.716   2.059   4.361 -0.6725 -0.5446 -0.6403
 2608Sol     HW13585   2.719   2.002   4.502 -0.3280 -1.5148 -1.0361
 2608Sol     MW13586   2.670   2.038   4.436 -0.1223 -0.2940 -0.0087
 2609Sol     OW13587   1.700   0.400   9.079 -0.3269 -0.7316 -0.2873
 2609Sol     HW13588   1.738   0.423   9.164 -1.2320 -0.0547 -0.0514
 2609Sol     HW13589   1.607   0.387   9.098 -0.7628  0.6739 -1.4008
 2609Sol     MW13590   1.695   0.401   9.089 -0.0059  0.9201 -0.4982
 2610Sol     OW13591   0.768   1.744   7.418 -0.2300  0.0341  0.3782
 2610Sol     HW13592   0.735   1.775   7.334  1.7980 -1.5586 -1.0471
 2610Sol     HW13593   0.783   1.650   7.405  1.6662  0.0728  1.9866
 2610Sol     MW13594   0.766   1.738   7.409 -0.3151  0.2484 -0.2006
 2611Sol     OW13595   3.055   3.229   4.452  0.2796  0.2952  0.3627
 2611Sol     HW13596   3.017   3.272   4.375 -0.2682 -0.1708  0.3720
 2611Sol     HW13597   2.997   3.252   4.524 -1.9799 -3.2407 -0.2414
 2611Sol     MW13598   3.047   3.235   4.451  0.0526 -0.4079 -0.1525
 2612Sol     OW13599   3.111   2.015   6.862  0.2331 -0.1341  0.0227
 2612Sol     HW13600   3.162   2.089   6.895  1.0429 -0.6486 -0.0591
 2612Sol     HW13601   3.111   1.952   6.935 -1.1205  0.2672  0.3848
 2612Sol     MW13602   3.116   2.016   6.872 -0.2635  0.6760 -0.3773
 2613Sol     OW13603   0.640   3.206   9.184 -0.3233  0.3183 -0.1467
 2613Sol     HW13604   0.670   3.141   9.247  0.5990  1.1489  0.3001
 2613Sol     HW13605   0.546   3.210   9.196 -0.1121  0.7920  1.5015
 2613Sol     MW13606   0.635   3.200   9.190  0.2139  0.4397  0.7817
 2614Sol     OW13607   2.035   0.769   4.112 -0.7381 -0.0782 -0.3310
 2614Sol     HW13608   2.039   0.827   4.189  0.9607  0.1350 -0.5599
 2614Sol     HW13609   2.041   0.681   4.149 -0.6806 -0.0023 -0.1528
 2614Sol     MW13610   2.036   0.767   4.123  0.3570 -0.1651 -0.3282
 2615Sol     OW13611   0.353   0.667   9.639  0.3156  0.0721  0.2298
 2615Sol     HW13612   0.293   0.628   9.703  0.9041  0.2447  0.8982
 2615Sol     HW13613   0.323   0.757   9.629  0.0930 -0.0161  0.1020
 2615Sol     MW13614   0.345   0.671   9.644 -0.3127  0.1496  0.3852
 2616Sol     OW13615   2.488   2.476   2.541  0.0200  0.5586  0.1055
 2616Sol     HW13616   2.566   2.437   2.500 -0.7936 -2.2887  1.1437
 2616Sol     HW13617   2.523   2.534   2.609  1.2712  0.8244 -0.7551
 2616Sol     MW13618   2.498   2.478   2.544  0.0578 -0.0551 -0.1180
 2617Sol     OW13619   1.567   1.964   9.718 -0.0060  0.4457 -0.4028
 2617Sol     HW13620   1.542   2.017   9.642  0.7216  0.0005 -0.9542
 2617Sol     HW13621   1.626   1.898   9.683  2.7624  2.0669  1.0001
 2617Sol     MW13622   1.570   1.963   9.708 -0.3620 -0.3130  0.0285
 2618Sol     OW13623   0.718   2.588   5.138 -0.0724 -0.2400 -0.0729
 2618Sol     HW13624   0.747   2.563   5.226 -3.2140 -0.5886  0.9319
 2618Sol     HW13625   0.673   2.672   5.151 -4.4823 -2.4020 -0.4713
 2618Sol     MW13626   0.717   2.593   5.147  0.0974 -0.0898  0.3383
 2619Sol     OW13627   0.807   2.162   1.968 -0.4288  0.5583  0.2776
 2619Sol     HW13628   0.772   2.076   1.992  1.2211 -0.2270 -0.0186
 2619Sol     HW13629   0.882   2.142   1.913 -1.2875  2.2623 -1.5493
 2619Sol     MW13630   0.811   2.152   1.965  0.1115 -0.3637 -0.6869
 2620Sol     OW13631   1.758   2.501   4.926 -0.0027  0.3973  0.2155
 2620Sol     HW13632   1.848   2.532   4.933  0.7757 -1.4252 -1.3243
 2620Sol     HW13633   1.734   2.477   5.015  1.8025 -1.1169  0.3346
 2620Sol     MW13634   1.764   2.502   4.934 -0.2502 -0.2686 -0.0729
 2621Sol     OW13635   2.139   2.335   4.364  0.0985 -0.0627  0.2285
 2621Sol     HW13636   2.101   2.422   4.370 -0.2818 -0.2684  0.9051
 2621Sol     HW13637   2.210   2.343   4.300  0.2956  0.8142  0.5572
 2621Sol     MW13638   2.142   2.343   4.359  0.4925  0.7408  0.4483
 2622Sol     OW13639   2.994   1.717   8.690  0.8911  1.1800  0.2385
 2622Sol     HW13640   2.933   1.781   8.653 -1.4871 -1.7203 -1.1091
 2622Sol     HW13641   3.026   1.667   8.614  0.6414 -0.9326  1.4689
 2622Sol     MW13642   2.992   1.718   8.680 -0.5567  1.0065 -0.9530
 2623Sol     OW13643   2.083   1.937   4.757 -0.1455 -0.0023  0.1071
 2623Sol     HW13644   2.157   1.961   4.813 -1.2830  1.1878  1.1336
 2623Sol     HW13645   2.039   1.867   4.805 -1.9861  2.0249  1.5057
 2623Sol     MW13646   2.086   1.933   4.766  0.3042  0.1081 -0.4627
 2624Sol     OW13647   2.158   0.176   2.761  0.4889 -0.0782 -0.5266
 2624Sol     HW13648   2.093   0.238   2.729 -0.8698 -2.4803 -2.6145
 2624Sol     HW13649   2.107   0.113   2.812  2.2064  1.9196  3.9088
 2624Sol     MW13650   2.148   0.176   2.763  0.7347  0.1396  0.1732
 2625Sol     OW13651   0.633   1.036   5.971 -0.2409  0.3500  0.1520
 2625Sol     HW13652   0.666   0.947   5.962  0.8186  0.9237 -1.8999
 2625Sol     HW13653   0.607   1.042   6.063  0.4437 -1.8017  0.5250
 2625Sol     MW13654   0.634   1.029   5.979 -0.9222  0.3407 -0.5279
 2626Sol     OW13655   0.477   1.315   2.966  0.2024 -0.7755  0.1608
 2626Sol     HW13656   0.545   1.372   2.930 -1.4944 -0.0771 -2.0697
 2626Sol     HW13657   0.520   1.229   2.973  1.9943  0.1672  1.0415
 2626Sol     MW13658   0.487   1.312   2.963  0.0363  0.6155  0.0780
 2627Sol     OW13659   1.060   2.329   6.044  0.1459  0.4233  0.3012
 2627Sol     HW13660   1.140   2.286   6.074  1.0188  0.1299 -2.3040
 2627Sol     HW13661   0.990   2.275   6.079  1.1843 -1.6491 -0.6785
 2627Sol     MW13662   1.061   2.320   6.050 -0.1887  0.2550  0.0443
 2628Sol     OW13663   1.579   0.467   2.662  0.5949  0.2991  0.5254
 2628Sol     HW13664   1.516   0.466   2.734 -0.8037  1.1890 -0.6599
 2628Sol     HW13665   1.613   0.377   2.659 -1.3392 -0.4597  0.5843
 2628Sol     MW13666   1.576   0.459   2.668  0.4284  0.3325 -0.7707
 2629Sol     OW13667   1.511   1.103   6.683  0.2382  0.2049 -0.5264
 2629Sol     HW13668   1.545   1.093   6.772  1.9568  1.1823 -1.0680
 2629Sol     HW13669   1.421   1.135   6.696  0.4003  0.1319  0.8482
 2629Sol     MW13670   1.506   1.105   6.692 -0.4131 -0.1354 -0.1305
 2630Sol     OW13671   0.740   2.183   7.540 -0.2933 -0.5618 -0.1300
 2630Sol     HW13672   0.764   2.113   7.600  1.3318  0.8095  0.8489
 2630Sol     HW13673   0.712   2.255   7.597 -1.5772 -0.2556 -1.1109
 2630Sol     MW13674   0.739   2.183   7.550  0.1263 -0.1427  0.2655
 2631Sol     OW13675   2.907   2.915   2.270  0.8285 -0.1077  0.4855
 2631Sol     HW13676   2.887   3.007   2.288  1.0399 -0.2506  1.4739
 2631Sol     HW13677   2.936   2.915   2.179 -0.9137  0.5284 -0.0903
 2631Sol     MW13678   2.908   2.924   2.264  0.2156  0.8061 -0.1786
 2632Sol     OW13679   0.545   2.893   7.587 -0.1617  0.7269 -0.0928
 2632Sol     HW13680   0.468   2.905   7.531 -1.0302  1.0099  1.1467
 2632Sol     HW13681   0.587   2.978   7.588 -0.1761  0.7371 -0.2648
 2632Sol     MW13682   0.542   2.901   7.582 -0.6665  0.2356 -0.3017
 2633Sol     OW13683   2.977   0.098   6.425  0.0692 -0.3176 -0.2254
 2633Sol     HW13684   2.910   0.115   6.358 -0.3660  0.4786  0.4111
 2633Sol     HW13685   2.929   0.091   6.507  0.6739 -0.6121  0.1103
 2633Sol     MW13686   2.967   0.099   6.426 -0.1130 -0.0706 -0.4303
 2634Sol     OW13687   1.671   3.331   2.020  0.6421 -0.6676  0.1380
 2634Sol     HW13688   1.667   3.257   1.960  1.2315 -0.3185 -0.3406
 2634Sol     HW13689   1.670   3.292   2.107  0.7263 -1.2277 -0.1096
 2634Sol     MW13690   1.671   3.321   2.022  0.5641 -0.0470 -0.3653
 2635Sol     OW13691   1.615   1.693   4.064  0.7900  0.0456  0.5486
 2635Sol     HW13692   1.575   1.628   4.006  1.6465  1.1093 -1.2719
 2635Sol     HW13693   1.695   1.651   4.095  0.1343 -0.6759  1.2910
 2635Sol     MW13694   1.619   1.684   4.062 -0.5511 -0.2778 -0.3507
 2636Sol     OW13695   1.339   0.471   8.100  0.0662 -0.0577 -0.1354
 2636Sol     HW13696   1.427   0.507   8.109 -0.4847  1.5197 -0.8775
 2636Sol     HW13697   1.328   0.456   8.006 -0.1107 -1.1490  0.0545
 2636Sol     MW13698   1.346   0.473   8.092  0.1509 -0.7983 -0.4154
 2637Sol     OW13699   2.626   0.111   4.092  0.0486  0.7159 -0.8709
 2637Sol     HW13700   2.694   0.054   4.056  0.8615  1.0769  0.0656
 2637Sol     HW13701   2.571   0.053   4.144  1.3361  0.8758  0.7371
 2637Sol     MW13702   2.628   0.101   4.093  0.4480  0.0340 -0.1624
 2638Sol     OW13703   2.923   2.636   1.926 -0.3540  0.0005 -0.5252
 2638Sol     HW13704   2.985   2.577   1.884  0.7215  1.5571 -1.1697
 2638Sol     HW13705   2.921   2.609   2.018 -0.9178 -1.8980 -1.0894
 2638Sol     MW13706   2.928   2.629   1.930 -0.1630  0.3465 -0.0270
 2639Sol     OW13707   1.868   3.113   1.854  0.4319 -0.0639 -0.3898
 2639Sol     HW13708   1.871   3.070   1.768  1.3868 -0.7043 -0.0483
 2639Sol     HW13709   1.868   3.040   1.916  0.4592  0.4116  0.1605
 2639Sol     MW13710   1.868   3.102   1.852 -0.2000  0.6687 -0.4662
 2640Sol     OW13711   2.298   1.551   3.145 -0.6308 -0.2406  0.3421
 2640Sol     HW13712   2.326   1.577   3.233 -0.4017 -0.6742  0.3995
 2640Sol     HW13713   2.347   1.608   3.086  1.9237 -2.3130  0.3538
 2640Sol     MW13714   2.305   1.558   3.148  0.1562  0.0809  0.3530
 2641Sol     OW13715   2.198   0.262   2.310  0.2160 -0.8856 -0.6545
 2641Sol     HW13716   2.163   0.338   2.356 -1.3719 -1.5835 -0.6871
 2641Sol     HW13717   2.244   0.212   2.377 -1.1900 -1.3587 -0.0301
 2641Sol     MW13718   2.199   0.265   2.320 -0.2576  0.1435  0.1477
 2642Sol     OW13719   1.967   2.261   6.002  0.2048 -0.5317 -0.2062
 2642Sol     HW13720   2.062   2.246   5.999  0.3595  0.7254 -2.9054
 2642Sol     HW13721   1.957   2.346   6.043  0.0691 -1.8084  2.4877
 2642Sol     MW13722   1.975   2.267   6.005  0.4727  0.3135 -0.1335
 2643Sol     OW13723   2.186   2.700   7.275  0.3453  0.3625  0.0379
 2643Sol     HW13724   2.162   2.608   7.261  2.7238 -0.2218 -0.4620
 2643Sol     HW13725   2.141   2.748   7.206  0.0190 -0.5712 -0.4091
 2643Sol     MW13726   2.180   2.696   7.268 -0.9086  0.6313  0.0865
 2644Sol     OW13727   2.349   0.750   8.778  0.3002 -0.1648  0.0713
 2644Sol     HW13728   2.369   0.843   8.781  1.5975 -0.3334 -2.2201
 2644Sol     HW13729   2.432   0.706   8.798 -0.0233 -0.8492 -0.0551
 2644Sol     MW13730   2.358   0.754   8.780 -0.4655 -0.0590 -0.4866
 2645Sol     OW13731   0.976   2.236   3.782  0.4401 -0.1351  0.0788
 2645Sol     HW13732   1.018   2.207   3.862  1.1962 -0.8680 -0.5737
 2645Sol     HW13733   0.970   2.331   3.791  2.2128 -0.0127  0.1925
 2645Sol     MW13734   0.979   2.242   3.790 -0.0028  0.3839 -0.4036
 2646Sol     OW13735   3.331   0.981   4.135  0.0312  0.5296  0.6835
 2646Sol     HW13736   3.314   0.899   4.089 -1.6096  0.6392  1.0687
 2646Sol     HW13737   3.331   0.957   4.228  0.9894  0.7188  0.7372
 2646Sol     MW13738   3.329   0.972   4.139  0.1272  0.6266 -0.0898
 2647Sol     OW13739   1.646   2.725   6.606  0.4935 -0.0014  0.3410
 2647Sol     HW13740   1.581   2.688   6.546 -0.4808  0.0060  1.3791
 2647Sol     HW13741   1.725   2.735   6.553 -0.2140 -0.4618 -0.8069
 2647Sol     MW13742   1.647   2.722   6.596  0.0794 -0.2130  0.2592
 2648Sol     OW13743   1.608   2.521   5.870 -0.1433  0.6343  0.1143
 2648Sol     HW13744   1.625   2.530   5.964 -1.8731  1.9344  0.3336
 2648Sol     HW13745   1.520   2.556   5.859  0.4243  1.4259 -2.1470
 2648Sol     MW13746   1.602   2.525   5.878 -0.0953 -0.1554  0.2609
 2649Sol     OW13747   1.624   0.193   4.513  0.9265 -0.3833 -0.3055
 2649Sol     HW13748   1.556   0.207   4.446 -1.3632 -0.4704  1.9192
 2649Sol     HW13749   1.610   0.103   4.542  2.3270 -0.5576 -0.1657
 2649Sol     MW13750   1.616   0.187   4.509  0.1832 -0.8042 -0.1358
 2650Sol     OW13751   3.196   0.061   8.298 -0.1165 -0.4557 -0.0354
 2650Sol     HW13752   3.204   0.062   8.203  1.3739 -0.4285  0.0840
 2650Sol     HW13753   3.108   0.097   8.315 -1.0988 -2.1303 -1.4511
 2650Sol     MW13754   3.189   0.064   8.291 -0.1050 -0.7046  0.0530
 2651Sol     OW13755   2.483   0.912   9.155 -0.1861  0.4331  0.0931
 2651Sol     HW13756   2.451   0.971   9.223 -0.6052 -0.8848  1.0652
 2651Sol     HW13757   2.475   0.962   9.073 -1.6902  1.2577  0.7331
 2651Sol     MW13758   2.479   0.922   9.154 -0.5664 -0.6013 -0.5922
 2652Sol     OW13759   1.312   1.351   6.532 -0.0736  0.2684  0.0400
 2652Sol     HW13760   1.394   1.384   6.569  0.3413 -1.1398  0.4074
 2652Sol     HW13761   1.285   1.281   6.592 -1.1163  0.1806 -0.5221
 2652Sol     MW13762   1.317   1.347   6.540 -0.0210 -0.7345  0.0139
 2653Sol     OW13763   2.591   2.449   9.648 -0.4774  0.1093  0.0696
 2653Sol     HW13764   2.652   2.467   9.720 -1.4721 -1.5213  1.3301
 2653Sol     HW13765   2.553   2.535   9.627  1.5972  1.0027 -0.1650
 2653Sol     MW13766   2.593   2.459   9.652 -0.0373 -0.9539  0.1324
 2654Sol     OW13767   1.080   0.144   7.978 -0.2323  0.4510  0.5133
 2654Sol     HW13768   1.111   0.057   7.955 -1.0930  0.0524  0.8190
 2654Sol     HW13769   1.030   0.131   8.059  0.4576  1.3845  1.1101
 2654Sol     MW13770   1.078   0.135   7.983 -0.4409  0.7126 -0.0392
 2655Sol     OW13771   1.517   1.565   7.820 -0.1710 -0.1541  0.5461
 2655Sol     HW13772   1.537   1.498   7.884 -2.1186  0.8387  2.2689
 2655Sol     HW13773   1.581   1.634   7.836  1.6023 -1.4022 -0.9861
 2655Sol     MW13774   1.524   1.565   7.827 -0.2108  0.5170  0.2549
 2656Sol     OW13775   1.924   2.399   4.601  0.1936  0.5915  0.0460
 2656Sol     HW13776   1.959   2.310   4.599 -0.4841  0.3311 -1.0299
 2656Sol     HW13777   1.861   2.399   4.673  1.6248  0.7779  1.3310
 2656Sol     MW13778   1.921   2.391   4.607  0.1193  0.5907  0.5734
 2657Sol     OW13779   0.749   2.149   6.555 -0.2462  0.0646 -0.1947
 2657Sol     HW13780   0.800   2.224   6.586 -1.7692  1.1704 -0.3168
 2657Sol     HW13781   0.664   2.158   6.597 -1.1072 -0.4968 -1.7527
 2657Sol     MW13782   0.746   2.156   6.561 -0.0142 -0.0998  0.1581
 2658Sol     OW13783   0.265   2.372   3.413 -0.6665 -0.5150 -0.6877
 2658Sol     HW13784   0.192   2.433   3.401  0.3276  1.0411  0.9340
 2658Sol     HW13785   0.244   2.324   3.493 -1.3671 -2.2351 -1.8696
 2658Sol     MW13786   0.257   2.373   3.419 -0.5504 -0.1647  0.0337
 2659Sol     OW13787   2.964   0.975   8.020  0.3723 -0.0888  0.0333
 2659Sol     HW13788   2.875   1.007   8.004  0.0567 -1.5095 -1.2549
 2659Sol     HW13789   2.952   0.882   8.042  1.6851 -1.0246 -2.8649
 2659Sol     MW13790   2.955   0.969   8.020  0.3065  0.4508 -0.1841
 2660Sol     OW13791   2.084   0.133   3.386  0.5210 -0.2345 -0.7642
 2660Sol     HW13792   2.068   0.066   3.452  0.0619 -0.3320 -0.9667
 2660Sol     HW13793   2.133   0.201   3.432 -0.1349 -0.1194 -0.2147
 2660Sol     MW13794   2.087   0.133   3.396  0.3813 -0.3813  0.2037
 2661Sol     OW13795   0.739   3.287   5.067 -0.2163 -0.7540 -0.4590
 2661Sol     HW13796   0.746   3.267   4.973  1.9542 -0.4397 -0.3955
 2661Sol     HW13797   0.829   3.283   5.099 -0.4870  2.5625  0.8875
 2661Sol     MW13798   0.748   3.285   5.061  0.3917  0.3576  0.4785
 2662Sol     OW13799   0.137   2.987   7.180  0.2269  0.0719  0.3398
 2662Sol     HW13800   0.166   3.033   7.101  0.0825 -0.4950 -0.0480
 2662Sol     HW13801   0.108   2.902   7.148 -0.0039 -0.0911  0.9860
 2662Sol     MW13802   0.137   2.983   7.170  0.0738 -0.1826  0.1186
 2663Sol     OW13803   1.327   0.599   9.341 -0.3646 -0.0333 -0.1756
 2663Sol     HW13804   1.235   0.621   9.351 -0.7928 -1.4107 -0.9678
 2663Sol     HW13805   1.337   0.515   9.384  0.5705  0.1835  0.0517
 2663Sol     MW13806   1.320   0.594   9.346 -0.2115 -0.5009  0.1823
 2664Sol     OW13807   2.934   2.945   4.830  0.1786 -0.0150 -0.2479
 2664Sol     HW13808   2.870   3.015   4.821 -0.9001 -1.1846 -1.8905
 2664Sol     HW13809   2.903   2.894   4.905  0.9093  1.1548  0.8860
 2664Sol     MW13810   2.926   2.947   4.836  0.1785  0.0662  0.3204
 2665Sol     OW13811   2.732   2.472   3.097  0.1430 -0.1937 -0.5274
 2665Sol     HW13812   2.826   2.461   3.115  0.0553  1.3113  0.9526
 2665Sol     HW13813   2.717   2.566   3.105 -0.9503 -0.0533 -3.6095
 2665Sol     MW13814   2.739   2.479   3.099 -0.0073 -0.0723 -0.9053
 2666Sol     OW13815   2.842   0.863   3.504 -0.0979  0.2137  0.1885
 2666Sol     HW13816   2.924   0.821   3.532  0.1712  0.9490  0.5157
 2666Sol     HW13817   2.801   0.892   3.586 -0.3832  0.4071 -0.0246
 2666Sol     MW13818   2.846   0.862   3.514 -0.1245  0.2137 -0.1320
 2667Sol     OW13819   2.976   1.415   2.495  0.4514  0.0546  0.2056
 2667Sol     HW13820   3.036   1.368   2.553  1.0528 -0.0776 -0.5311
 2667Sol     HW13821   3.026   1.432   2.416  0.1739  1.7373  0.3612
 2667Sol     MW13822   2.986   1.413   2.493  0.4645  0.6363 -0.0443
 2668Sol     OW13823   2.455   0.034   2.156  0.1964 -0.2289 -0.0673
 2668Sol     HW13824   2.493  -0.037   2.104  0.1325 -0.1808 -0.1796
 2668Sol     HW13825   2.413   0.091   2.092 -0.4837 -0.5399  0.0962
 2668Sol     MW13826   2.455   0.032   2.146  0.2695 -0.2188  0.5591
 2669Sol     OW13827   0.150   0.356   3.549  0.1561  0.1270 -0.4222
 2669Sol     HW13828   0.143   0.386   3.640  1.0542 -1.1327  0.0924
 2669Sol     HW13829   0.098   0.418   3.499  0.4021  1.3774  0.8385
 2669Sol     MW13830   0.145   0.364   3.553 -0.3366 -0.0148 -0.5846
 2670Sol     OW13831   3.249   1.582   6.394  0.2337 -0.8932 -0.0530
 2670Sol     HW13832   3.189   1.523   6.440  1.0100 -2.2438 -0.7446
 2670Sol     HW13833   3.331   1.533   6.389  0.9936  0.3968 -0.3213
 2670Sol     MW13834   3.251   1.572   6.398 -0.2766  0.1306 -0.9340
 2671Sol     OW13835   0.809   1.268   4.869  0.2499 -0.5978 -0.2307
 2671Sol     HW13836   0.794   1.345   4.924 -0.9989 -1.9530  1.3734
 2671Sol     HW13837   0.721   1.241   4.842  0.4955 -2.6892  0.9666
 2671Sol     MW13838   0.800   1.272   4.872 -0.1567  0.6676  0.6736
 2672Sol     OW13839   0.719   0.881   4.079 -0.2365  0.1757  0.6960
 2672Sol     HW13840   0.770   0.813   4.125  1.1322  1.8257  1.6723
 2672Sol     HW13841   0.783   0.949   4.060 -1.2320  0.4535 -1.8454
 2672Sol     MW13842   0.730   0.881   4.081  0.0395  0.8830  0.1144
 2673Sol     OW13843   0.738   1.606   9.037 -0.1337 -0.4111  0.3517
 2673Sol     HW13844   0.734   1.601   9.133 -0.1083 -2.1162  0.2924
 2673Sol     HW13845   0.651   1.634   9.011 -0.1130  0.1491  0.8883
 2673Sol     MW13846   0.730   1.608   9.044 -0.3741 -0.1500 -0.1035
 2674Sol     OW13847   0.937   0.408   9.218 -0.3147 -0.7853  0.1541
 2674Sol     HW13848   0.959   0.386   9.128 -0.4940  1.0128 -0.3448
 2674Sol     HW13849   0.843   0.389   9.225 -0.4003 -0.4890 -0.1781
 2674Sol     MW13850   0.931   0.404   9.211 -1.1414  0.1102 -0.6524
 2675Sol     OW13851   3.046   1.472   6.016  0.0695  0.4741  0.3174
 2675Sol     HW13852   2.955   1.485   5.990  0.0623 -2.0164 -1.1144
 2675Sol     HW13853   3.096   1.530   5.958 -0.4786  0.3683 -0.2707
 2675Sol     MW13854   3.042   1.478   6.008 -0.0545 -0.1368  0.2879
 2676Sol     OW13855   3.145   0.988   1.904  0.4333 -0.3840 -0.9256
 2676Sol     HW13856   3.080   1.028   1.846 -0.1035  2.2512  1.4234
 2676Sol     HW13857   3.095   0.956   1.979  1.0815 -4.0263 -1.9225
 2676Sol     MW13858   3.135   0.989   1.905 -0.0864  0.1553  0.0183
 2677Sol     OW13859   2.624   2.601   5.019  0.1644  0.2833 -0.3349
 2677Sol     HW13860   2.644   2.567   4.932  0.4022 -0.6332  0.0718
 2677Sol     HW13861   2.534   2.572   5.036 -1.0983  3.2407 -1.6032
 2677Sol     MW13862   2.617   2.595   5.013 -0.2069  0.2558  0.6348
 2678Sol     OW13863   0.139   1.098   8.759 -0.1743  0.8632  0.0972
 2678Sol     HW13864   0.110   1.059   8.841  1.2363  0.6360  0.4953
 2678Sol     HW13865   0.225   1.059   8.743 -0.2355  1.2463 -1.2568
 2678Sol     MW13866   0.144   1.091   8.765 -0.0320  0.8243  0.5109
 2679Sol     OW13867   2.593   1.914   6.092  0.1393  0.1159 -0.2275
 2679Sol     HW13868   2.684   1.885   6.099  0.2988  0.8956  1.1982
 2679Sol     HW13869   2.596   2.008   6.109 -0.7990  0.3455 -1.2658
 2679Sol     MW13870   2.601   1.920   6.094 -0.0402 -0.0372  0.2114
 2680Sol     OW13871   2.024   2.437   7.038 -0.4174  0.1846  0.5472
 2680Sol     HW13872   2.113   2.441   7.004 -0.7045  0.3433 -0.1997
 2680Sol     HW13873   2.024   2.362   7.098 -0.8655 -2.5210 -2.6842
 2680Sol     MW13874   2.032   2.431   7.040 -0.1084 -0.5324 -0.2511
 2681Sol     OW13875   1.615   1.364   7.998 -0.2148 -0.0351 -0.4654
 2681Sol     HW13876   1.672   1.403   7.932  1.3325 -0.4891  0.5938
 2681Sol     HW13877   1.654   1.278   8.015  0.2233  0.6453  2.0730
 2681Sol     MW13878   1.623   1.360   7.993 -0.5497 -0.3690 -0.2077
 2682Sol     OW13879   2.373   3.291   8.636 -0.1154  0.1850 -0.6345
 2682Sol     HW13880   2.410   3.207   8.661 -1.7252 -0.5728 -0.7441
 2682Sol     HW13881   2.430   3.323   8.566 -0.4044 -1.5679 -1.6992
 2682Sol     MW13882   2.381   3.286   8.632 -0.4873 -0.0287 -0.6387
 2683Sol     OW13883   0.488   2.215   7.771  0.2700 -0.4265 -0.2348
 2683Sol     HW13884   0.483   2.120   7.765 -0.9727 -0.4152  0.4776
 2683Sol     HW13885   0.409   2.240   7.818 -0.2768  1.1004 -1.9163
 2683Sol     MW13886   0.481   2.209   7.775 -0.1042  0.6859 -0.2773
 2684Sol     OW13887   3.042   0.754   9.595  0.8345  0.0764  0.1321
 2684Sol     HW13888   3.106   0.768   9.525  1.4931  0.3736  0.7901
 2684Sol     HW13889   3.009   0.665   9.580 -1.5751  1.3294 -2.6128
 2684Sol     MW13890   3.045   0.747   9.588 -0.2568  0.4901 -0.3125
 2685Sol     OW13891   0.313   1.318   6.286 -0.6902  0.1293 -0.6501
 2685Sol     HW13892   0.265   1.258   6.229 -0.8605  0.9611 -1.3911
 2685Sol     HW13893   0.252   1.390   6.302  0.0264  0.8085 -0.9510
 2685Sol     MW13894   0.303   1.319   6.282  0.0411  0.2684  0.0152
 2686Sol     OW13895   1.407   2.339   8.335 -0.3508  0.0677  0.0168
 2686Sol     HW13896   1.445   2.289   8.262 -0.4905 -0.1775  0.1127
 2686Sol     HW13897   1.333   2.286   8.364  0.0699 -0.1326  0.7359
 2686Sol     MW13898   1.404   2.330   8.331  0.3912 -0.0733  0.2996
 2687Sol     OW13899   1.108   0.929   4.749 -0.4196  0.6864 -0.0914
 2687Sol     HW13900   1.091   1.015   4.712 -0.6153  0.5949 -0.2168
 2687Sol     HW13901   1.129   0.945   4.841  1.6444  1.0775 -0.5970
 2687Sol     MW13902   1.108   0.938   4.754 -0.2083  0.0514 -0.4515
 2688Sol     OW13903   3.056   2.455   1.772 -0.2737  0.0305 -0.1112
 2688Sol     HW13904   3.037   2.371   1.730 -0.9412 -0.3258  0.8807
 2688Sol     HW13905   3.149   2.451   1.793 -0.4513 -0.7757  0.5798
 2688Sol     MW13906   3.062   2.447   1.770  0.5335 -0.7161  0.3772
 2689Sol     OW13907   2.940   2.621   8.704 -0.0516 -0.3448 -0.8377
 2689Sol     HW13908   2.981   2.559   8.764  0.7867  0.1430 -0.8918
 2689Sol     HW13909   3.002   2.694   8.699 -0.7084  0.1894 -1.3012
 2689Sol     MW13910   2.949   2.622   8.709 -0.0519 -0.0061  0.0762
 2690Sol     OW13911   2.371   2.423   3.074  0.9126  0.0902  0.6941
 2690Sol     HW13912   2.345   2.339   3.112 -1.0342  0.8393  1.0449
 2690Sol     HW13913   2.453   2.403   3.029  0.4550 -2.0166  0.7094
 2690Sol     MW13914   2.376   2.413   3.074  0.0872  0.4022  0.1807
 2691Sol     OW13915   3.214   0.503   8.700 -0.2024  0.0866 -0.3859
 2691Sol     HW13916   3.179   0.537   8.782  1.8689  0.1017  0.5097
 2691Sol     HW13917   3.144   0.519   8.636 -1.7384  0.2827  1.3047
 2691Sol     MW13918   3.205   0.508   8.702  0.3849  0.1571 -0.2934
 2692Sol     OW13919   0.570   0.700   7.668 -0.3295  0.2838  0.0610
 2692Sol     HW13920   0.644   0.694   7.608 -0.7383 -0.0194 -0.4155
 2692Sol     HW13921   0.567   0.792   7.694  0.7387  0.1237  0.7516
 2692Sol     MW13922   0.576   0.708   7.665  0.2841  0.6984  0.0831
 2693Sol     OW13923   1.238   2.776   7.803  0.3651 -0.0047  0.1599
 2693Sol     HW13924   1.230   2.828   7.883 -0.0870 -1.4443  1.0571
 2693Sol     HW13925   1.214   2.837   7.733 -0.0573  1.0292  1.1901
 2693Sol     MW13926   1.235   2.786   7.804 -0.3410 -0.5217 -0.5459
 2694Sol     OW13927   1.365   2.079   9.877  0.1517 -0.5379 -0.4603
 2694Sol     HW13928   1.290   2.060   9.820  0.7703 -1.4731 -0.9602
 2694Sol     HW13929   1.436   2.026   9.842  0.8118 -0.3420  0.5707
 2694Sol     MW13930   1.365   2.073   9.869  0.2682  0.1079 -0.5998
 2695Sol     OW13931   2.120   0.883   6.763  0.4966  0.4104 -0.4186
 2695Sol     HW13932   2.084   0.964   6.799 -0.3447  0.0038 -0.3138
 2695Sol     HW13933   2.181   0.911   6.695  3.2705  1.2297  2.3027
 2695Sol     MW13934   2.122   0.893   6.760  0.2158 -0.4960 -0.6112
 2696Sol     OW13935   3.096   0.088   8.722 -0.2815 -0.6137  0.5350
 2696Sol     HW13936   3.089   0.004   8.677  0.3667 -0.3291 -0.0996
 2696Sol     HW13937   3.177   0.127   8.689  0.4869 -0.6285  2.3169
 2696Sol     MW13938   3.103   0.084   8.715 -0.0548 -0.2347 -0.0717
 2697Sol     OW13939   0.840   0.954   5.618 -0.1866  0.0945 -0.6562
 2697Sol     HW13940   0.897   0.884   5.651  0.8897 -0.1379 -2.9563
 2697Sol     HW13941   0.863   1.030   5.672  0.3447 -0.7075  0.2688
 2697Sol     MW13942   0.847   0.955   5.626 -0.0569 -0.0096 -0.2244
 2698Sol     OW13943   1.513   2.605   5.113  1.1176 -0.0069 -0.0659
 2698Sol     HW13944   1.545   2.617   5.024  1.3591 -0.4178 -0.0321
 2698Sol     HW13945   1.510   2.693   5.150 -2.3479  0.6352 -1.6359
 2698Sol     MW13946   1.515   2.614   5.109  0.6686  0.4104  0.1515
 2699Sol     OW13947   0.678   0.985   2.734 -0.4876 -0.1542 -0.2668
 2699Sol     HW13948   0.711   1.063   2.689 -1.1285 -0.1921 -0.8183
 2699Sol     HW13949   0.624   0.941   2.668 -0.9274 -0.5454  0.3526
 2699Sol     MW13950   0.676   0.988   2.724 -0.3845  0.3056 -0.0937
 2700Sol     OW13951   1.345   1.766   4.754  0.7339 -0.1728  0.2392
 2700Sol     HW13952   1.341   1.775   4.659 -1.2704  1.3615  0.4393
 2700Sol     HW13953   1.254   1.757   4.781  1.3015 -0.8290  2.0048
 2700Sol     MW13954   1.336   1.766   4.748 -0.1418  0.5471 -0.0498
 2701Sol     OW13955   1.986   3.228   7.887  0.0805 -0.3545  0.6099
 2701Sol     HW13956   2.014   3.177   7.963  0.3890  1.6209  1.8408
 2701Sol     HW13957   1.956   3.311   7.923 -0.8107  0.2047 -1.3354
 2701Sol     MW13958   1.985   3.231   7.897  0.4730 -0.3371 -0.8451
 2702Sol     OW13959   0.528   0.965   1.470  0.2193 -0.4686 -0.3169
 2702Sol     HW13960   0.484   1.045   1.498  0.9759  0.8460 -2.7952
 2702Sol     HW13961   0.462   0.918   1.419  0.6523 -0.0921 -1.2208
 2702Sol     MW13962   0.518   0.968   1.468  0.4931  0.0912  0.0757
 2703Sol     OW13963   3.250   2.652   6.837 -0.4279 -0.7626  0.0102
 2703Sol     HW13964   3.238   2.559   6.814  1.2960 -0.4794 -2.3393
 2703Sol     HW13965   3.174   2.696   6.801 -0.9617 -1.1864  0.6121
 2703Sol     MW13966   3.242   2.647   6.831  0.2021  0.1585  0.3068
 2704Sol     OW13967   0.943   1.764   3.858 -0.3001  0.5157  0.2101
 2704Sol     HW13968   0.953   1.670   3.843 -1.5166  0.6762 -1.7560
 2704Sol     HW13969   0.951   1.803   3.771  4.4500  2.6698  1.4217
 2704Sol     MW13970   0.945   1.760   3.849  0.2872 -0.6762 -0.4595
 2705Sol     OW13971   1.350   0.812   2.885  0.0772  0.2540 -0.5746
 2705Sol     HW13972   1.396   0.883   2.838 -0.3189  0.8739 -0.0238
 2705Sol     HW13973   1.293   0.857   2.947  0.2096 -0.5591  0.1473
 2705Sol     MW13974   1.349   0.822   2.886  0.0694 -0.3248 -0.1019
 2706Sol     OW13975   1.830   2.008   6.014  0.3819  0.1507  0.1789
 2706Sol     HW13976   1.860   1.943   5.951 -0.6396 -0.0103 -0.1559
 2706Sol     HW13977   1.881   2.087   5.994 -1.0856  0.6227 -1.9703
 2706Sol     MW13978   1.837   2.009   6.006  0.5480 -0.3437  0.2826
 2707Sol     OW13979   2.490   1.483   2.410  0.0487  0.5677 -0.1279
 2707Sol     HW13980   2.413   1.513   2.362  0.0278  2.1897  0.9024
 2707Sol     HW13981   2.563   1.532   2.371 -0.0016  2.0871  1.6374
 2707Sol     MW13982   2.490   1.490   2.402  0.0612  0.3364 -0.6359
 2708Sol     OW13983   1.689   2.605   8.694  0.0984 -0.6214 -0.0378
 2708Sol     HW13984   1.643   2.642   8.769 -0.5981 -2.7620  0.6353
 2708Sol     HW13985   1.766   2.660   8.683 -1.2969  1.4570  0.4338
 2708Sol     MW13986   1.692   2.613   8.700 -0.0640 -0.2885  0.1947
 2709Sol     OW13987   2.017   1.987   6.925  0.0037  0.5385 -0.2633
 2709Sol     HW13988   2.010   1.903   6.879 -0.0096  0.4386 -0.0773
 2709Sol     HW13989   1.943   2.037   6.893 -0.3610  0.2422  0.1155
 2709Sol     MW13990   2.010   1.984   6.918  0.1162  0.3425  0.1581
 2710Sol     OW13991   1.712   0.945   2.834 -0.3253 -0.3447  0.4202
 2710Sol     HW13992   1.795   0.987   2.855  0.2739 -1.1877 -0.2220
 2710Sol     HW13993   1.734   0.880   2.767 -1.6109 -0.1107 -0.2511
 2710Sol     MW13994   1.721   0.943   2.830 -0.0592  0.1770  0.4547
 2711Sol     OW13995   1.868   2.223   3.995  0.1153  0.0267  0.0518
 2711Sol     HW13996   1.817   2.217   4.076 -0.2805 -1.9056 -0.3119
 2711Sol     HW13997   1.916   2.306   4.003  1.1748 -0.8018  2.9161
 2711Sol     MW13998   1.868   2.230   4.003 -0.3871  0.0960 -0.4779
 2712Sol     OW13999   2.209   2.754   9.627 -0.3703  0.0531  0.8493
 2712Sol     HW14000   2.296   2.719   9.609  0.0298  0.0444  2.7443
 2712Sol     HW14001   2.150   2.700   9.575  0.6219 -0.8826  0.6895
 2712Sol     MW14002   2.211   2.746   9.621 -0.2885 -0.1494  0.2660
 2713Sol     OW14003   1.007   3.229   8.382  0.4046  0.2402  0.0756
 2713Sol     HW14004   1.054   3.268   8.308  0.7422  0.0780  0.2046
 2713Sol     HW14005   1.075   3.191   8.437  0.0831 -0.4072  0.0274
 2713Sol     MW14006   1.017   3.229   8.381  0.2548 -0.4920 -0.2780
 2714Sol     OW14007   1.106   0.717   7.421  0.4399  0.1516  0.0807
 2714Sol     HW14008   1.123   0.808   7.395  0.2968  0.5604  1.4006
 2714Sol     HW14009   1.054   0.681   7.349  1.2037  0.8601 -0.8484
 2714Sol     MW14010   1.103   0.722   7.412 -0.0240  0.1631 -0.2575
 2715Sol     OW14011   2.555   2.572   4.352 -0.3106  0.2916 -0.4140
 2715Sol     HW14012   2.577   2.526   4.271 -0.9501 -0.9427  0.0918
 2715Sol     HW14013   2.624   2.547   4.414  1.6593  3.3239 -1.2984
 2715Sol     MW14014   2.563   2.565   4.351  0.0661 -0.6198  0.4385
 2716Sol     OW14015   0.366   2.799   3.286  0.2212 -0.1258 -0.5107
 2716Sol     HW14016   0.374   2.706   3.304  0.0476  0.5089  3.0819
 2716Sol     HW14017   0.445   2.838   3.322  0.2702  1.1458 -1.9318
 2716Sol     MW14018   0.374   2.794   3.291  0.1306 -0.0119 -0.0843
 2717Sol     OW14019   0.465   1.571   2.194  0.0801 -0.0906 -0.2006
 2717Sol     HW14020   0.391   1.537   2.144  1.2396 -0.6184 -1.6010
 2717Sol     HW14021   0.450   1.665   2.197 -1.4441 -0.3465  0.8736
 2717Sol     MW14022   0.457   1.576   2.190 -0.1956 -0.3774 -0.2553
 2718Sol     OW14023   1.329   2.287   6.432  0.4223  0.1043  0.2294
 2718Sol     HW14024   1.287   2.204   6.452 -1.6970  0.9509 -0.5609
 2718Sol     HW14025   1.325   2.336   6.514  2.4952 -0.8626  0.9566
 2718Sol     MW14026   1.325   2.284   6.441 -0.1479  0.3610  0.5325
 2719Sol     OW14027   2.945   0.282   2.864  0.5780  0.2196  0.0300
 2719Sol     HW14028   3.017   0.308   2.921 -0.5286  2.3938  0.5017
 2719Sol     HW14029   2.971   0.313   2.777 -0.1586  1.7785  0.3564
 2719Sol     MW14030   2.954   0.287   2.861  0.0646 -0.2628 -0.2363
 2720Sol     OW14031   0.803   1.942   8.173 -0.1325  0.2549  0.1905
 2720Sol     HW14032   0.742   1.899   8.234 -1.1717  0.5066 -0.6576
 2720Sol     HW14033   0.870   1.876   8.156  0.3586  0.2839  1.8512
 2720Sol     MW14034   0.804   1.932   8.177 -0.1725 -0.2607 -0.3335
 2721Sol     OW14035   2.652   2.189   3.755  0.1551  0.0184 -0.0902
 2721Sol     HW14036   2.630   2.281   3.742 -0.1335 -0.3308 -2.3383
 2721Sol     HW14037   2.742   2.181   3.724 -0.0814 -0.6027 -0.6297
 2721Sol     MW14038   2.658   2.196   3.751  0.1694 -0.3360 -0.3697
 2722Sol     OW14039   1.722   1.711   7.897 -0.2515 -0.1675 -0.0810
 2722Sol     HW14040   1.737   1.804   7.913 -1.6133  0.1200 -0.4242
 2722Sol     HW14041   1.704   1.675   7.984 -2.0143  0.3277 -0.2323
 2722Sol     MW14042   1.722   1.716   7.906  0.1949 -0.0798  0.2630
 2723Sol     OW14043   1.464   0.182   5.215  0.0568 -0.0709 -0.1692
 2723Sol     HW14044   1.519   0.105   5.200 -0.2957 -0.6340  1.3865
 2723Sol     HW14045   1.476   0.235   5.136 -1.5966 -2.8611 -2.4212
 2723Sol     MW14046   1.470   0.180   5.206 -0.2148  0.6428  0.0640
 2724Sol     OW14047   0.178   1.947   8.056 -0.5609  0.1426  0.3881
 2724Sol     HW14048   0.139   2.024   8.098 -1.5574  1.0105 -2.0539
 2724Sol     HW14049   0.187   1.971   7.964  0.3000 -2.2104 -0.1793
 2724Sol     MW14050   0.175   1.956   8.052 -0.4555  0.3297 -0.1756
 2725Sol     OW14051   0.721   3.126   2.976  0.3802  0.5518 -0.1650
 2725Sol     HW14052   0.748   3.123   2.884  1.0368  0.0620  0.0362
 2725Sol     HW14053   0.665   3.050   2.987  3.5564 -1.7885  0.8118
 2725Sol     MW14054   0.719   3.119   2.969 -0.0974  0.0314 -0.1167
 2726Sol     OW14055   0.883   2.975   7.684 -0.5836  0.3230  0.3261
 2726Sol     HW14056   0.820   3.035   7.643 -0.0001  0.4726 -0.3509
 2726Sol     HW14057   0.837   2.944   7.762 -1.2167  1.0087  0.2434
 2726Sol     MW14058   0.873   2.978   7.687  0.0216  0.3992  0.0103
 2727Sol     OW14059   3.324   0.776   2.971 -0.3374  0.0417 -0.3070
 2727Sol     HW14060   3.394   0.762   2.907 -0.6574 -1.6589 -0.3229
 2727Sol     HW14061   3.250   0.724   2.938 -1.7493  2.1129 -0.4942
 2727Sol     MW14062   3.323   0.770   2.962 -0.2983 -0.4576 -0.4363
 2728Sol     OW14063   1.363   2.141   4.513  0.5849  0.3311  0.3224
 2728Sol     HW14064   1.434   2.150   4.577  0.2916 -0.2455  0.7411
 2728Sol     HW14065   1.353   2.047   4.501  0.9051  0.4435 -0.8929
 2728Sol     MW14066   1.368   2.134   4.518 -0.6004  0.1757 -0.0117
 2729Sol     OW14067   1.212   1.020   4.150  0.1575  0.5262  0.6880
 2729Sol     HW14068   1.195   0.933   4.115  0.3966  0.0225  1.8008
 2729Sol     HW14069   1.306   1.033   4.138 -0.0558  1.0596 -0.4291
 2729Sol     MW14070   1.219   1.014   4.146 -0.4651 -0.2709  0.8464
 2730Sol     OW14071   2.696   1.584   9.414 -0.3939 -0.5945  0.6076
 2730Sol     HW14072   2.626   1.607   9.354 -0.8195 -1.5955  0.7102
 2730Sol     HW14073   2.765   1.548   9.358  0.5783  1.5811  0.3628
 2730Sol     MW14074   2.696   1.582   9.404 -0.3596 -0.5184  0.3108
 2731Sol     OW14075   1.734   1.866   8.738 -0.2062 -0.5958  0.3559
 2731Sol     HW14076   1.716   1.960   8.738  0.1545 -0.4974  2.5691
 2731Sol     HW14077   1.653   1.825   8.708 -0.4323  0.4037 -0.4010
 2731Sol     MW14078   1.725   1.870   8.736 -0.3833 -0.4298 -0.1761
 2732Sol     OW14079   0.069   1.803   5.691  0.3516  0.8306 -0.1379
 2732Sol     HW14080   0.032   1.751   5.619 -2.1867 -0.3515  1.9182
 2732Sol     HW14081   0.042   1.892   5.672 -0.5635  0.4781 -0.5326
 2732Sol     MW14082   0.063   1.806   5.683 -0.1510 -0.8429 -0.7848
 2733Sol     OW14083   2.643   3.241   8.838 -0.5290 -0.5878  0.2244
 2733Sol     HW14084   2.613   3.163   8.790 -2.0937 -0.2580  0.6260
 2733Sol     HW14085   2.647   3.310   8.772  2.3391 -1.3406 -0.4419
 2733Sol     MW14086   2.640   3.240   8.828 -0.4194 -0.1231  0.4315
 2734Sol     OW14087   1.718   0.538   2.997  0.1994  0.0009  0.5944
 2734Sol     HW14088   1.692   0.572   3.082  0.8679  0.6046  0.5651
 2734Sol     HW14089   1.651   0.570   2.937  0.6784  1.0640  0.6105
 2734Sol     MW14090   1.710   0.544   2.999  0.6597 -0.0485 -0.2553
 2735Sol     OW14091   1.894   0.994   6.381  0.1523 -0.6018 -0.1504
 2735Sol     HW14092   1.885   0.914   6.434 -0.9530 -0.5815 -0.2924
 2735Sol     HW14093   1.870   0.966   6.293  0.2921 -0.2302 -0.3043
 2735Sol     MW14094   1.891   0.984   6.378 -0.3915 -0.3616  0.1550
 2736Sol     OW14095   1.473   0.123   7.368  0.2102  0.4746  0.3341
 2736Sol     HW14096   1.504   0.033   7.371 -0.5493  0.0375 -2.8305
 2736Sol     HW14097   1.379   0.115   7.351  0.2284  1.8629 -0.4952
 2736Sol     MW14098   1.467   0.114   7.367  0.6122  0.4524 -0.3726
 2737Sol     OW14099   0.169   1.129   3.131 -0.6934  0.4815  0.2769
 2737Sol     HW14100   0.217   1.211   3.147  0.0505  0.6023 -2.3311
 2737Sol     HW14101   0.089   1.157   3.086 -2.3327  0.0915  2.8392
 2737Sol     MW14102   0.166   1.139   3.128 -0.2057 -0.4480  0.2906
 2738Sol     OW14103   2.934   2.827   9.477  0.1030 -0.1452  0.3735
 2738Sol     HW14104   2.964   2.825   9.568 -1.6521  0.9239  0.9956
 2738Sol     HW14105   2.962   2.913   9.445 -1.0999  0.3418  0.5758
 2738Sol     MW14106   2.939   2.835   9.483 -0.0439  0.1930 -0.7510
 2739Sol     OW14107   3.283   0.483   9.518 -0.0218 -0.5561 -0.0284
 2739Sol     HW14108   3.290   0.388   9.515 -1.4991 -0.6381 -1.0192
 2739Sol     HW14109   3.218   0.505   9.452  0.1106  1.1282  0.3763
 2739Sol     MW14110   3.278   0.477   9.512  0.6535  0.1452 -0.1892
 2740Sol     OW14111   0.929   1.927   2.409 -0.5722 -0.3033 -0.0667
 2740Sol     HW14112   0.911   1.894   2.321 -0.5380 -1.4004  0.3317
 2740Sol     HW14113   1.024   1.920   2.418 -0.6032 -0.4465  0.1545
 2740Sol     MW14114   0.936   1.923   2.402 -0.0326  0.5241 -0.0677
 2741Sol     OW14115   2.929   2.403   3.395  0.0833 -0.4376  0.6109
 2741Sol     HW14116   2.953   2.439   3.310 -0.0713 -2.5947 -0.3725
 2741Sol     HW14117   3.010   2.403   3.445  0.2060  0.6890  0.4213
 2741Sol     MW14118   2.938   2.406   3.392  0.6908 -0.4328  0.0866
 2742Sol     OW14119   0.357   2.605   9.780 -0.0817  0.3207  0.1222
 2742Sol     HW14120   0.299   2.583   9.707 -0.6299  0.5807  0.4719
 2742Sol     HW14121   0.328   2.548   9.851  0.2892  0.2422  0.2104
 2742Sol     MW14122   0.349   2.598   9.780 -0.1117  0.2921  0.0013
 2743Sol     OW14123   0.846   0.776   8.837  0.3815  0.1938  0.0177
 2743Sol     HW14124   0.794   0.768   8.917  1.0323  0.9485  0.5226
 2743Sol     HW14125   0.781   0.779   8.766 -0.2135  0.0675  0.5610
 2743Sol     MW14126   0.835   0.776   8.837 -0.1188  0.3983  0.2329
 2744Sol     OW14127   0.635   1.479   6.668 -0.0071 -0.3301 -0.3856
 2744Sol     HW14128   0.617   1.570   6.644  0.0826 -0.8940 -2.6660
 2744Sol     HW14129   0.550   1.435   6.659  0.0103 -0.5426  0.4433
 2744Sol     MW14130   0.625   1.483   6.665 -0.2322  0.4861 -0.2067
 2745Sol     OW14131   3.179   3.248   4.134  0.0658 -0.0460  0.3787
 2745Sol     HW14132   3.096   3.249   4.181  0.0285 -3.8263  0.4893
 2745Sol     HW14133   3.228   3.176   4.173  1.2016 -1.3918 -3.3826
 2745Sol     MW14134   3.176   3.242   4.142  0.3636  0.0542 -0.2983
 2746Sol     OW14135   1.061   0.678   5.173 -0.2278  0.1619  0.1637
 2746Sol     HW14136   0.986   0.685   5.232 -2.4055 -2.3357 -2.1472
 2746Sol     HW14137   1.137   0.677   5.230 -2.1452 -0.4440  2.7936
 2746Sol     MW14138   1.061   0.679   5.183  0.1195  0.2030  0.0728
 2747Sol     OW14139   2.222   0.211   1.555 -0.6281  0.5444  0.1121
 2747Sol     HW14140   2.139   0.176   1.525 -0.2274 -1.5661  1.3457
 2747Sol     HW14141   2.200   0.296   1.593 -2.5056 -0.6871  1.8922
 2747Sol     MW14142   2.213   0.216   1.556  0.3931  0.3265  0.7391
 2748Sol     OW14143   3.201   3.081   8.643  0.4923 -0.4145 -0.2331
 2748Sol     HW14144   3.243   3.120   8.566 -2.2625 -0.4077 -1.8170
 2748Sol     HW14145   3.176   2.993   8.614 -0.9806 -0.2486  0.4842
 2748Sol     MW14146   3.203   3.076   8.633 -0.5643 -0.1904  0.4563
 2749Sol     OW14147   2.492   0.373   5.784 -0.8014 -0.1899  0.5189
 2749Sol     HW14148   2.453   0.285   5.787  0.0433 -0.6023 -0.2276
 2749Sol     HW14149   2.482   0.400   5.693  1.5084 -0.7153  0.0658
 2749Sol     MW14150   2.487   0.367   5.776 -0.0617 -0.0024 -0.7183
 2750Sol     OW14151   0.687   2.321   1.510 -0.0949  0.0551  0.5326
 2750Sol     HW14152   0.602   2.341   1.470 -0.6556 -2.1178  0.6034
 2750Sol     HW14153   0.666   2.294   1.599  0.5015 -2.0656  0.0580
 2750Sol     MW14154   0.678   2.320   1.514 -0.3778  0.3019  0.7198
 2751Sol     OW14155   0.778   0.124   4.479  0.0572  0.1794  0.4670
 2751Sol     HW14156   0.839   0.193   4.455 -0.3559 -0.3127 -2.2422
 2751Sol     HW14157   0.810   0.046   4.433 -0.4538 -1.0224  2.0863
 2751Sol     MW14158   0.786   0.123   4.473 -0.0588 -0.7348  0.0856
 2752Sol     OW14159   2.796   1.048   3.723  0.6081  0.4152 -0.2415
 2752Sol     HW14160   2.878   1.047   3.772  0.4872  1.5836 -0.0067
 2752Sol     HW14161   2.739   1.107   3.773  0.1731  0.8881 -1.2937
 2752Sol     MW14162   2.798   1.053   3.732 -0.2892  0.1217  0.4806
 2753Sol     OW14163   2.883   1.826   7.837 -0.1551 -0.1008  0.1724
 2753Sol     HW14164   2.820   1.895   7.860  0.2845  0.8142 -1.2821
 2753Sol     HW14165   2.935   1.864   7.767  0.6953 -1.6071 -0.0307
 2753Sol     MW14166   2.882   1.836   7.833  0.0439 -0.5595  0.1858
 2754Sol     OW14167   2.954   3.389   8.115 -0.1794  0.0490 -0.5510
 2754Sol     HW14168   2.920   3.451   8.179  0.6786  3.3046 -3.1185
 2754Sol     HW14169   2.876   3.358   8.068 -0.6493 -1.1972  0.9974
 2754Sol     MW14170   2.944   3.392   8.116  0.0338  0.0795  0.5589
 2755Sol     OW14171   0.073   2.162   8.730 -0.2131  0.9534  0.1477
 2755Sol     HW14172   0.146   2.208   8.690  1.4280 -0.0597  1.8818
 2755Sol     HW14173   0.047   2.217   8.804 -1.0039  1.1548 -0.2744
 2755Sol     MW14174   0.077   2.171   8.733  0.3162 -0.2929 -0.1646
 2756Sol     OW14175   2.550   0.894   6.829 -0.2535 -0.6347  0.6300
 2756Sol     HW14176   2.554   0.913   6.736 -1.9049  0.4950  0.7647
 2756Sol     HW14177   2.638   0.866   6.852  1.1301  2.5574 -0.5399
 2756Sol     MW14178   2.558   0.893   6.823 -0.2460 -0.0908  0.1457
 2757Sol     OW14179   0.859   0.729   8.025 -0.5448 -0.1715 -0.0432
 2757Sol     HW14180   0.801   0.790   8.071 -0.5394 -0.0916 -0.1447
 2757Sol     HW14181   0.800   0.660   7.994 -0.3529 -0.9660  1.3301
 2757Sol     MW14182   0.848   0.728   8.026 -0.1498 -0.1007 -0.5847
 2758Sol     OW14183   1.367   0.017   3.788 -0.1787 -0.5849 -0.1412
 2758Sol     HW14184   1.414   0.067   3.721 -1.9835 -0.7728 -1.5968
 2758Sol     HW14185   1.393  -0.074   3.772 -0.6805 -0.6398 -0.6467
 2758Sol     MW14186   1.374   0.014   3.780 -0.0711 -0.2455 -0.5149
 2759Sol     OW14187   1.638   3.335   2.783 -0.3896  0.5342  0.2047
 2759Sol     HW14188   1.670   3.379   2.704 -0.4358  0.3697  0.0941
 2759Sol     HW14189   1.555   3.378   2.802 -0.2493  0.7573  0.3185
 2759Sol     MW14190   1.633   3.343   2.778 -0.0352  0.3036 -0.6356
 2760Sol     OW14191   2.064   3.234   4.243  0.2012 -0.0527  0.0614
 2760Sol     HW14192   2.038   3.265   4.156 -0.5179  0.3265  0.4044
 2760Sol     HW14193   1.998   3.271   4.302  0.0390 -1.2514  0.6308
 2760Sol     MW14194   2.056   3.240   4.240  0.2222 -0.6200  0.2478
 2761Sol     OW14195   2.037   3.081   7.550  0.2676 -0.1892 -0.0505
 2761Sol     HW14196   2.016   3.047   7.463 -1.9321 -1.2272  0.8732
 2761Sol     HW14197   2.025   3.007   7.609 -0.6607  1.1435  1.4644
 2761Sol     MW14198   2.034   3.072   7.548  0.3070 -0.5367  0.8884
 2762Sol     OW14199   2.499   1.185   8.952 -0.2012  0.0663  0.2081
 2762Sol     HW14200   2.583   1.213   8.988  0.1422  1.0987 -1.3571
 2762Sol     HW14201   2.444   1.263   8.955  0.6314  0.9297 -3.7708
 2762Sol     MW14202   2.502   1.194   8.956 -0.1023 -0.1597 -0.4167
 2763Sol     OW14203   3.276   1.635   5.076 -0.4036  1.2469  0.2857
 2763Sol     HW14204   3.195   1.595   5.110 -0.2469  0.9957  0.3650
 2763Sol     HW14205   3.298   1.583   4.999  0.4150  0.4765  1.0359
 2763Sol     MW14206   3.270   1.627   5.073 -0.4805 -0.2514  0.0591
 2764Sol     OW14207   3.012   1.565   8.468  0.0475  0.1254 -0.6293
 2764Sol     HW14208   3.040   1.492   8.524 -0.1251  0.2054 -0.4373
 2764Sol     HW14209   3.027   1.533   8.379  2.5360  0.8741 -0.5222
 2764Sol     MW14210   3.016   1.555   8.465 -0.5095 -0.7064 -0.4004
 2765Sol     OW14211   1.025   0.735   5.661 -0.2446  0.1796  0.5144
 2765Sol     HW14212   1.097   0.748   5.599 -1.3855 -1.1538 -1.0954
 2765Sol     HW14213   1.048   0.654   5.707 -0.0172  0.5115  0.9904
 2765Sol     MW14214   1.034   0.729   5.660 -0.5290  0.8625 -0.1718
 2766Sol     OW14215   1.380   1.402   1.839  0.8513 -0.0976 -0.3060
 2766Sol     HW14216   1.351   1.491   1.821 -0.4513  0.1974  2.8319
 2766Sol     HW14217   1.475   1.410   1.852  0.7797  0.8017 -0.3027
 2766Sol     MW14218   1.386   1.411   1.839 -0.2860 -0.1738 -0.0415
 2767Sol     OW14219   0.821   2.560   4.713  0.0696 -0.4122  0.2663
 2767Sol     HW14220   0.773   2.544   4.794 -0.9038 -0.0654 -0.2423
 2767Sol     HW14221   0.827   2.475   4.670  0.8809 -0.6612  0.8519
 2767Sol     MW14222   0.817   2.551   4.717 -0.4704  0.3375  0.6687
 2768Sol     OW14223   1.153   3.035   8.565 -0.4895 -0.2879 -0.0534
 2768Sol     HW14224   1.216   3.052   8.494 -1.0917 -1.6355 -0.9224
 2768Sol     HW14225   1.206   3.041   8.645  0.3110  0.6868 -0.6326
 2768Sol     MW14226   1.163   3.037   8.565 -0.2759  0.2895  0.1199
 2769Sol     OW14227   0.133   1.771   7.030 -0.6166  0.7424 -0.2330
 2769Sol     HW14228   0.158   1.806   7.116 -0.5014 -0.6138  0.3056
 2769Sol     HW14229   0.201   1.706   7.010 -1.1919  0.3302 -0.8890
 2769Sol     MW14230   0.142   1.768   7.036  0.3942 -0.3641  0.4671
 2770Sol     OW14231   2.176   1.913   9.500  0.4546  0.7954  0.1853
 2770Sol     HW14232   2.254   1.940   9.549  0.3970 -0.0404  0.7596
 2770Sol     HW14233   2.124   1.992   9.491  1.1130  1.2443  0.2872
 2770Sol     MW14234   2.179   1.922   9.504  0.2873 -0.2630 -0.2546
 2771Sol     OW14235   3.118   0.109   5.596 -0.2026  0.2542  0.2726
 2771Sol     HW14236   3.031   0.079   5.569  0.8993 -1.6798 -1.3320
 2771Sol     HW14237   3.136   0.061   5.677  0.2509 -1.0837 -0.5923
 2771Sol     MW14238   3.112   0.102   5.601  0.3194  0.1473  0.0357
 2772Sol     OW14239   0.080   1.807   3.258 -0.3141 -0.4133  0.1139
 2772Sol     HW14240   0.128   1.767   3.331  0.6230 -0.7009 -0.6410
 2772Sol     HW14241   0.042   1.886   3.296  2.1881  0.7488  0.3679
 2772Sol     MW14242   0.081   1.811   3.268  0.0549 -0.0511 -0.5294
 2773Sol     OW14243   3.239   2.971   3.329  0.1164  0.1374 -0.6309
 2773Sol     HW14244   3.326   2.955   3.365  0.0615  0.6166 -0.2832
 2773Sol     HW14245   3.180   2.924   3.387  0.0200  0.9802 -0.0437
 2773Sol     MW14246   3.242   2.965   3.337  0.1179  0.7277  0.1356
 2774Sol     OW14247   2.239   0.312   4.086  0.2607  0.0731  0.0884
 2774Sol     HW14248   2.314   0.343   4.136  0.6866  0.1141 -0.5680
 2774Sol     HW14249   2.229   0.376   4.016 -0.2856 -0.0249  0.0754
 2774Sol     MW14250   2.245   0.321   4.084  0.1679 -0.3556  0.1522
 2775Sol     OW14251   2.396   1.086   9.370 -0.4695 -0.0774 -0.0698
 2775Sol     HW14252   2.402   1.059   9.462 -1.1898  1.6503  0.5036
 2775Sol     HW14253   2.306   1.066   9.344 -0.5542  0.3356 -0.1006
 2775Sol     MW14254   2.388   1.082   9.376  0.2724  0.1500  0.3670
 2776Sol     OW14255   3.303   1.050   4.414 -0.1713  0.1202 -0.5089
 2776Sol     HW14256   3.374   0.999   4.455  0.5296  1.4394 -0.0667
 2776Sol     HW14257   3.346   1.128   4.380 -1.4024  0.9147 -0.2780
 2776Sol     MW14258   3.313   1.052   4.415 -0.3991  0.2262  0.3574
 2777Sol     OW14259   1.469   1.169   4.825 -0.0481 -0.0280  0.1418
 2777Sol     HW14260   1.447   1.226   4.752 -1.0414 -1.1273 -0.4397
 2777Sol     HW14261   1.394   1.177   4.885  0.7080  0.7812  0.9914
 2777Sol     MW14262   1.460   1.175   4.824  0.1780  0.1183 -0.2284
 2778Sol     OW14263   2.525   2.717   6.589 -1.0253  0.8613  0.4161
 2778Sol     HW14264   2.488   2.781   6.528 -1.7793  1.6176  1.6515
 2778Sol     HW14265   2.496   2.633   6.555 -1.2631  1.2581 -0.3892
 2778Sol     MW14266   2.519   2.715   6.580  0.2965 -0.0294  0.2002
 2779Sol     OW14267   0.795   0.473   8.801  0.0118  0.4492 -0.3173
 2779Sol     HW14268   0.872   0.455   8.855 -1.2183  0.4154  1.4588
 2779Sol     HW14269   0.780   0.567   8.813 -0.5113  0.3594 -0.2529
 2779Sol     MW14270   0.801   0.480   8.807  0.2553 -0.0001 -0.5678
 2780Sol     OW14271   0.276   2.811   5.162  0.0440  0.1415  0.6083
 2780Sol     HW14272   0.254   2.826   5.070  1.7469  1.2541  0.3430
 2780Sol     HW14273   0.313   2.722   5.163 -1.8056 -0.6564  0.5954
 2780Sol     MW14274   0.278   2.804   5.154  0.3994 -0.2153  0.5842
 2781Sol     OW14275   1.990   3.247   6.082  0.0377 -0.1902  0.3453
 2781Sol     HW14276   2.073   3.257   6.036 -0.0358 -1.4018 -0.0753
 2781Sol     HW14277   2.014   3.208   6.166  0.3816  3.7937  2.1762
 2781Sol     MW14278   1.999   3.244   6.085  0.3969  0.5056 -0.2168
 2782Sol     OW14279   0.725   0.739   9.071  0.0269  0.0657 -0.3320
 2782Sol     HW14280   0.768   0.767   9.152 -0.4122 -0.9448  0.2561
 2782Sol     HW14281   0.641   0.703   9.099  0.0259 -0.6308 -1.1895
 2782Sol     MW14282   0.722   0.738   9.081  0.4337 -0.0874  0.5715
 2783Sol     OW14283   0.142   1.333   3.876  0.0671  0.2019 -0.6683
 2783Sol     HW14284   0.188   1.340   3.960 -0.4386  1.4986 -0.4794
 2783Sol     HW14285   0.060   1.287   3.897  0.7438 -1.0892 -0.7973
 2783Sol     MW14286   0.139   1.330   3.886 -0.0505 -0.4139  0.1330
 2784Sol     OW14287   2.550   2.811   6.973  0.0263 -0.1422 -0.0541
 2784Sol     HW14288   2.491   2.773   6.908 -0.6550 -2.8117  2.0086
 2784Sol     HW14289   2.637   2.785   6.944 -0.0010  1.3537 -1.5487
 2784Sol     MW14290   2.552   2.805   6.965 -0.1548 -0.1786  0.3626
 2785Sol     OW14291   3.249   0.094   6.776 -0.2778 -0.0003 -0.0133
 2785Sol     HW14292   3.260   0.153   6.851  1.7523 -1.7388  1.1132
 2785Sol     HW14293   3.212   0.014   6.815 -1.7062  0.0051 -1.3108
 2785Sol     MW14294   3.247   0.092   6.786 -0.6669 -0.2829 -0.1769
 2786Sol     OW14295   0.871   1.830   3.574  0.3574  0.1221  0.0032
 2786Sol     HW14296   0.830   1.915   3.591  0.1308  0.3362 -1.5196
 2786Sol     HW14297   0.862   1.818   3.480  0.5875 -1.5005  0.1749
 2786Sol     MW14298   0.867   1.836   3.567  0.1608 -0.8236 -0.2855
 2787Sol     OW14299   0.883   1.292   3.031 -0.5703  0.1836  0.4009
 2787Sol     HW14300   0.891   1.304   2.937  2.5791 -1.5167  0.3832
 2787Sol     HW14301   0.872   1.380   3.066 -1.5717  0.8388 -1.5249
 2787Sol     MW14302   0.883   1.301   3.026 -0.4898  0.5149 -0.1604
 2788Sol     OW14303   1.132   1.289   8.512 -0.1872  0.2896  0.2660
 2788Sol     HW14304   1.088   1.285   8.597 -1.4883  0.6449 -0.3690
 2788Sol     HW14305   1.225   1.296   8.533 -0.3633 -1.1472  1.6407
 2788Sol     MW14306   1.136   1.289   8.522  0.5634  0.5101 -0.5506
 2789Sol     OW14307   1.527   1.945   4.858 -0.1711  0.9086 -0.0305
 2789Sol     HW14308   1.578   1.867   4.880  0.6569  0.9081 -1.8396
 2789Sol     HW14309   1.440   1.911   4.835  0.1425  0.5188 -0.6684
 2789Sol     MW14310   1.524   1.935   4.858  0.3118 -0.5895 -0.0574
 2790Sol     OW14311   2.831   0.412   6.068  0.1635 -0.7706 -0.5904
 2790Sol     HW14312   2.757   0.463   6.034 -0.2696 -2.0090 -1.5566
 2790Sol     HW14313   2.886   0.476   6.112 -0.9102  0.3612 -0.8583
 2790Sol     MW14314   2.829   0.422   6.069  0.3397  0.4732  0.0425
 2791Sol     OW14315   2.683   2.477   7.334  0.0510 -0.0218  0.7831
 2791Sol     HW14316   2.698   2.384   7.346 -0.3220 -0.3131 -1.0096
 2791Sol     HW14317   2.594   2.492   7.367 -0.3694 -0.5246 -0.1313
 2791Sol     MW14318   2.676   2.470   7.338  0.2183 -0.1064 -0.3261
 2792Sol     OW14319   0.300   2.416   9.987 -0.9795  0.5571 -0.2488
 2792Sol     HW14320   0.246   2.435  10.063 -1.8952 -1.1281 -0.4556
 2792Sol     HW14321   0.253   2.347   9.940  2.6155 -2.9756  1.0171
 2792Sol     MW14322   0.291   2.411   9.990 -0.3837  0.5554  0.1724
 2793Sol     OW14323   0.623   1.739   8.241  0.6716  0.1870 -0.0610
 2793Sol     HW14324   0.646   1.664   8.187  0.2246  0.0819 -0.1091
 2793Sol     HW14325   0.673   1.728   8.322 -0.3727 -0.8470  0.4520
 2793Sol     MW14326   0.629   1.732   8.244  0.2850 -0.5528  0.1400
 2794Sol     OW14327   2.834   3.073   6.466 -0.0603  0.3406 -0.2561
 2794Sol     HW14328   2.869   3.150   6.420  0.0736  0.2474 -0.3104
 2794Sol     HW14329   2.903   3.007   6.459 -0.0212  0.3399  0.1151
 2794Sol     MW14330   2.843   3.074   6.462 -0.5623  0.2015 -0.0728
 2795Sol     OW14331   2.779   1.333   7.884  0.3027 -0.2458 -0.6088
 2795Sol     HW14332   2.845   1.370   7.942  1.0285 -1.2131 -0.8029
 2795Sol     HW14333   2.765   1.244   7.918 -2.0332  0.4544  0.3857
 2795Sol     MW14334   2.783   1.328   7.892 -0.2665  0.2262  0.3958
 2796Sol     OW14335   2.924   0.850   8.894  0.6686  0.5775 -0.4437
 2796Sol     HW14336   2.880   0.932   8.919 -0.7681 -0.0305 -0.9537
 2796Sol     HW14337   2.878   0.820   8.817  2.4867  0.2967 -1.4589
 2796Sol     MW14338   2.916   0.855   8.890  0.1690 -0.0725  0.3227
 2797Sol     OW14339   0.890   1.551   4.914  0.2295  0.0920  0.2568
 2797Sol     HW14340   0.825   1.620   4.927  0.3487  0.0707  0.9782
 2797Sol     HW14341   0.938   1.547   4.997 -0.2263 -1.3043  0.4720
 2797Sol     MW14342   0.888   1.556   4.923 -0.2325 -0.1208  0.0536
 2798Sol     OW14343   1.129   1.863   6.701 -0.0166 -0.6248  0.4274
 2798Sol     HW14344   1.142   1.791   6.763 -1.4610 -0.5136  0.8768
 2798Sol     HW14345   1.034   1.867   6.688  0.1611  0.2759 -0.6984
 2798Sol     MW14346   1.122   1.857   6.705  0.1695 -0.2218  0.1467
 2799Sol     OW14347   1.387   1.752   5.846  0.9409 -0.2026 -0.9108
 2799Sol     HW14348   1.428   1.666   5.849  2.6839  0.5949 -1.2304
 2799Sol     HW14349   1.423   1.793   5.768  1.2009  1.3338 -0.0136
 2799Sol     MW14350   1.394   1.748   5.839 -0.1429  0.2083 -0.1924
 2800Sol     OW14351   1.378   2.861   6.658  0.0163  0.5590  0.2128
 2800Sol     HW14352   1.330   2.846   6.577 -0.0334 -1.2389  0.5546
 2800Sol     HW14353   1.470   2.848   6.634  0.0624  0.7613  0.2790
 2800Sol     MW14354   1.382   2.858   6.649 -0.3760  0.1113  0.2492
 2801Sol     OW14355   1.761   1.294   6.946 -0.3544 -0.0387 -0.8648
 2801Sol     HW14356   1.800   1.378   6.970  0.1175 -0.2075 -1.0296
 2801Sol     HW14357   1.726   1.308   6.858 -0.1302 -0.0655 -0.9566
 2801Sol     MW14358   1.761   1.303   6.940  0.3624  0.3883  0.0099
 2802Sol     OW14359   0.830   3.307   7.653 -0.4922 -0.2747  0.3912
 2802Sol     HW14360   0.912   3.269   7.685 -0.5948 -0.2017  0.7463
 2802Sol     HW14361   0.835   3.400   7.679 -1.3650 -0.5940  1.7938
 2802Sol     MW14362   0.838   3.312   7.658  0.2117  0.0820  0.3482
 2803Sol     OW14363   1.132   0.524   2.563 -0.1600 -0.1782 -0.1314
 2803Sol     HW14364   1.151   0.463   2.491  0.9027 -0.6372  0.5361
 2803Sol     HW14365   1.099   0.602   2.519  3.0935  0.5826 -1.3193
 2803Sol     MW14366   1.130   0.525   2.553  0.3866 -0.0125  0.1047
 2804Sol     OW14367   0.963   0.289   4.362 -0.3428 -0.1176 -0.4139
 2804Sol     HW14368   1.057   0.310   4.366 -0.4543  0.1008  1.6787
 2804Sol     HW14369   0.927   0.354   4.303  0.4432  1.3804  0.7051
 2804Sol     MW14370   0.968   0.296   4.357  0.5775  0.2346  0.4258
 2805Sol     OW14371   0.009   2.062   5.595  0.4585  0.0977  0.0055
 2805Sol     HW14372  -0.059   2.068   5.662 -0.4988 -0.2542 -0.9089
 2805Sol     HW14373  -0.040   2.048   5.513  1.6556 -0.5828 -0.6039
 2805Sol     MW14374  -0.002   2.061   5.593  0.0400  0.3275  0.2881
 2806Sol     OW14375   1.963   2.556   5.814  0.1624 -0.8514 -0.3086
 2806Sol     HW14376   1.940   2.584   5.903 -0.6761 -1.1659 -0.4243
 2806Sol     HW14377   1.879   2.547   5.769  0.6578  0.7651 -1.5862
 2806Sol     MW14378   1.954   2.558   5.818 -0.3448  0.3421 -0.3118
 2807Sol     OW14379   2.741   3.386   8.637  0.0237  0.1964  0.3604
 2807Sol     HW14380   2.702   3.397   8.550  0.8783  2.9406  0.2576
 2807Sol     HW14381   2.781   3.300   8.635 -1.7764 -0.6377 -1.2312
 2807Sol     MW14382   2.741   3.380   8.629  0.1788 -0.5013  0.4962
 2808Sol     OW14383   2.722   0.923   3.282 -0.0443 -0.4570  0.8662
 2808Sol     HW14384   2.764   0.903   3.366  0.1246 -0.5551  0.7583
 2808Sol     HW14385   2.795   0.937   3.222 -0.1602  0.6900  0.9868
 2808Sol     MW14386   2.732   0.922   3.284  0.3669 -0.3050 -0.3275
 2809Sol     OW14387   1.379   3.242   7.140 -0.4022 -0.2428 -0.3034
 2809Sol     HW14388   1.378   3.147   7.139 -0.1321 -0.2454 -0.3464
 2809Sol     HW14389   1.456   3.266   7.088  1.6144 -0.0675  2.6069
 2809Sol     MW14390   1.386   3.236   7.136 -0.2117  0.3112 -0.1174
 2810Sol     OW14391   1.116   1.284   9.832 -0.3093  0.2029  0.0781
 2810Sol     HW14392   1.021   1.293   9.822 -0.7254 -0.7683  2.7152
 2810Sol     HW14393   1.138   1.345   9.901  1.2336  1.3840 -1.4283
 2810Sol     MW14394   1.109   1.290   9.837  0.7635 -0.1802  0.8002
 2811Sol     OW14395   0.066   0.787   5.295  0.0663 -0.1499 -0.1912
 2811Sol     HW14396   0.139   0.756   5.242  1.4663  0.7928  1.1348
 2811Sol     HW14397   0.002   0.716   5.291  0.9471 -0.8901 -1.5831
 2811Sol     MW14398   0.067   0.778   5.290 -0.6340 -0.0058  0.0628
 2812Sol     OW14399   1.848   1.937   3.660  0.1039 -0.8333 -0.6207
 2812Sol     HW14400   1.792   1.975   3.727  1.2672 -2.1725  1.1517
 2812Sol     HW14401   1.801   1.953   3.578 -0.2892  2.7736  0.2423
 2812Sol     MW14402   1.839   1.942   3.659  0.2930 -0.6056  0.1779
 2813Sol     OW14403   1.224   0.394   5.275 -0.0776  0.1004  0.3770
 2813Sol     HW14404   1.253   0.483   5.290  0.4242  0.4063 -2.3603
 2813Sol     HW14405   1.289   0.340   5.320  1.3217  1.0070 -0.5184
 2813Sol     MW14406   1.232   0.397   5.281  0.1931 -0.0446 -0.5047
 2814Sol     OW14407   2.581   3.174   6.430  0.4006 -0.1024 -0.4933
 2814Sol     HW14408   2.590   3.218   6.514  1.9233  1.8577 -1.6156
 2814Sol     HW14409   2.669   3.140   6.411 -0.4370 -2.4760 -0.2878
 2814Sol     MW14410   2.590   3.175   6.436 -0.3688 -0.4194  0.5259
 2815Sol     OW14411   0.798   1.238   2.098  0.0814  0.1951 -0.2120
 2815Sol     HW14412   0.730   1.191   2.050  0.9494  0.1019 -1.3898
 2815Sol     HW14413   0.752   1.280   2.171 -1.1342 -0.3219 -0.6694
 2815Sol     MW14414   0.788   1.238   2.100 -0.7054  0.0231 -0.2291
 2816Sol     OW14415   1.082   2.898   5.365 -0.3681 -0.0032  0.4601
 2816Sol     HW14416   1.141   2.836   5.323 -0.3362  1.0531 -1.0853
 2816Sol     HW14417   1.115   2.984   5.339 -0.1721  0.6968  2.8894
 2816Sol     MW14418   1.090   2.900   5.359 -0.0276  0.0450 -0.7198
 2817Sol     OW14419   2.727   0.770   6.231 -0.5098  0.0400 -0.4367
 2817Sol     HW14420   2.766   0.711   6.166  0.4023 -1.4138  1.3879
 2817Sol     HW14421   2.798   0.829   6.256  0.0074 -1.2970  1.3752
 2817Sol     MW14422   2.737   0.770   6.227 -0.3020  0.0558 -0.4490
 2818Sol     OW14423   1.091   3.317   5.517  0.0610 -0.3269  0.5276
 2818Sol     HW14424   1.024   3.251   5.536  0.4168 -0.7577  0.3074
 2818Sol     HW14425   1.140   3.326   5.599  0.7332 -1.1819  0.2330
 2818Sol     MW14426   1.089   3.312   5.526  0.0148 -0.1218 -0.3430
 2819Sol     OW14427   2.732   0.664   7.129  0.0490  0.3930  0.1680
 2819Sol     HW14428   2.756   0.685   7.038 -1.5364 -1.4051 -0.7099
 2819Sol     HW14429   2.702   0.747   7.165 -0.4388  0.8955 -1.3315
 2819Sol     MW14430   2.732   0.673   7.124  0.4826 -0.1241  0.3033
 2820Sol     OW14431   2.655   3.328   6.988 -0.6865 -0.1656 -0.6555
 2820Sol     HW14432   2.714   3.291   6.923  0.0369 -0.3592  0.0995
 2820Sol     HW14433   2.655   3.422   6.970 -1.6304 -0.3732 -1.8426
 2820Sol     MW14434   2.660   3.333   6.981 -0.0506 -0.7607 -0.4173
 2821Sol     OW14435   2.116   1.083   8.974  0.2711  0.3550 -0.3876
 2821Sol     HW14436   2.059   1.110   8.901  1.1480 -0.2751 -1.3106
 2821Sol     HW14437   2.104   0.989   8.981 -0.4169  0.5148  0.8265
 2821Sol     MW14438   2.110   1.077   8.968 -0.1237  0.3456 -0.9378
 2822Sol     OW14439   2.508   1.333   4.338 -0.3610  0.5964  0.2764
 2822Sol     HW14440   2.414   1.326   4.354 -0.3372 -1.2908 -0.3172
 2822Sol     HW14441   2.543   1.248   4.365  1.2716  1.4888  1.0491
 2822Sol     MW14442   2.503   1.325   4.342 -0.5398  0.3096  0.4278
 2823Sol     OW14443   0.980   2.490   5.095 -0.5521 -0.3441 -0.1336
 2823Sol     HW14444   0.996   2.500   5.001  1.8365  0.8173  0.3633
 2823Sol     HW14445   0.918   2.560   5.116  0.4502  0.6813 -0.5059
 2823Sol     MW14446   0.976   2.497   5.088 -0.3256 -0.5245 -0.3682
 2824Sol     OW14447   0.826   3.205   5.573  0.3029 -0.0939 -0.0975
 2824Sol     HW14448   0.740   3.204   5.614 -0.5074  1.1389 -1.7102
 2824Sol     HW14449   0.808   3.215   5.480  2.1408 -1.4606 -0.6442
 2824Sol     MW14450   0.817   3.206   5.568  0.8227  0.4608  0.1439
 2825Sol     OW14451   0.611   1.098   9.141  0.1445 -0.4397  0.5206
 2825Sol     HW14452   0.613   1.188   9.175  0.9066 -0.1802 -0.1737
 2825Sol     HW14453   0.683   1.054   9.185  1.8180  0.1901 -1.4645
 2825Sol     MW14454   0.617   1.102   9.148  0.1625  0.4352 -0.4376
 2826Sol     OW14455   0.914   2.459   6.395  0.3151 -0.0845 -0.6836
 2826Sol     HW14456   0.904   2.410   6.314  0.4231  0.1555 -0.8434
 2826Sol     HW14457   0.863   2.539   6.381 -0.9676 -0.7610  0.0821
 2826Sol     MW14458   0.909   2.462   6.387 -0.4203 -0.1770 -0.3680
 2827Sol     OW14459   2.958   0.212   5.915  0.3487 -0.0602 -0.0587
 2827Sol     HW14460   2.912   0.224   5.832 -0.9705  0.1070  0.6795
 2827Sol     HW14461   2.909   0.266   5.977  2.2890  1.1290  0.4968
 2827Sol     MW14462   2.950   0.218   5.913 -0.1518  0.5067  0.0449
 2828Sol     OW14463   2.283   1.248   4.700 -0.3289 -0.1641 -0.1636
 2828Sol     HW14464   2.371   1.249   4.737 -0.4601  1.9255  0.1520
 2828Sol     HW14465   2.297   1.237   4.606  0.2985  0.6547 -0.1710
 2828Sol     MW14466   2.292   1.247   4.695  0.7432 -0.8396  0.2497
 2829Sol     OW14467   2.224   0.154   7.216  0.0065 -0.2646  0.7867
 2829Sol     HW14468   2.276   0.174   7.294 -1.4299  1.8825  1.2447
 2829Sol     HW14469   2.144   0.207   7.227 -1.6070 -2.3618 -0.5997
 2829Sol     MW14470   2.221   0.161   7.224  0.4399  0.0497 -0.5811
 2830Sol     OW14471   3.037   2.543   3.721 -0.1027  0.2407  0.2206
 2830Sol     HW14472   2.983   2.516   3.795  0.4179 -0.2458  0.4325
 2830Sol     HW14473   3.056   2.461   3.675 -0.7696  0.5922 -0.6871
 2830Sol     MW14474   3.034   2.533   3.723 -0.4739  0.6073 -0.7831
 2831Sol     OW14475   1.107   1.602   5.113  0.3002 -0.2416  0.2952
 2831Sol     HW14476   1.142   1.691   5.123  0.4677 -0.1635 -0.9612
 2831Sol     HW14477   1.035   1.598   5.176  2.6566 -0.4985  3.1237
 2831Sol     MW14478   1.104   1.610   5.120 -0.2020  0.2287 -0.3018
 2832Sol     OW14479   0.057   1.421   2.411  0.5940 -0.0766  0.4885
 2832Sol     HW14480   0.059   1.358   2.483  0.5255  0.1569  0.6972
 2832Sol     HW14481   0.030   1.503   2.452 -0.6740 -0.2289 -0.0278
 2832Sol     MW14482   0.055   1.423   2.421  0.4224  0.2012 -0.4055
 2833Sol     OW14483   0.051   2.071   7.685 -0.2408  0.2861  0.5290
 2833Sol     HW14484   0.101   2.131   7.740  0.9662  0.8900 -1.1489
 2833Sol     HW14485  -0.028   2.119   7.662  1.7558  2.2188 -2.6616
 2833Sol     MW14486   0.049   2.081   7.688  0.1300 -0.3696 -0.0293
 2834Sol     OW14487   0.082   0.339   2.139  0.8143  0.4873  1.0935
 2834Sol     HW14488   0.024   0.415   2.144  0.7010  0.8224 -3.4454
 2834Sol     HW14489   0.155   0.361   2.197  0.5689  3.9476  0.2003
 2834Sol     MW14490   0.084   0.348   2.144  0.2902  0.2445  0.3365
 2835Sol     OW14491   0.676   2.970   9.652 -0.3223 -0.2527  0.5238
 2835Sol     HW14492   0.724   2.888   9.640  0.1932 -0.0618  1.2280
 2835Sol     HW14493   0.590   2.943   9.685  0.1652 -0.4742  1.6631
 2835Sol     MW14494   0.673   2.960   9.654 -0.3396 -0.1813  0.3707
 2836Sol     OW14495   1.619   1.372   6.666  0.4218  0.0018  0.1054
 2836Sol     HW14496   1.570   1.290   6.655 -0.8506  0.8364 -0.6437
 2836Sol     HW14497   1.709   1.349   6.644  0.2603 -1.4263  0.8857
 2836Sol     MW14498   1.622   1.362   6.663  0.1880 -0.2320 -0.1448
 2837Sol     OW14499   0.141   2.885   2.626  0.5024 -0.3765 -0.6578
 2837Sol     HW14500   0.169   2.834   2.550 -0.0091 -1.1650 -0.3103
 2837Sol     HW14501   0.216   2.881   2.686  1.0739  0.5996 -1.2866
 2837Sol     MW14502   0.151   2.880   2.625 -0.1753 -0.0748 -0.4322
 2838Sol     OW14503   0.827   1.240   9.728  0.2034 -0.0695 -0.3727
 2838Sol     HW14504   0.797   1.329   9.710 -0.0274  0.0615  0.6038
 2838Sol     HW14505   0.750   1.186   9.713  0.3015 -0.0853 -0.8157
 2838Sol     MW14506   0.817   1.243   9.725 -0.0882  0.3750  1.0484
 2839Sol     OW14507   2.869   0.224   9.560 -0.4033 -0.4902  0.0488
 2839Sol     HW14508   2.784   0.210   9.601 -0.6484  0.8913  0.0411
 2839Sol     HW14509   2.849   0.269   9.478  0.1121 -2.8653 -1.4237
 2839Sol     MW14510   2.860   0.227   9.556  0.6307 -0.0153  0.2890
 2840Sol     OW14511   2.490   1.503   7.350 -0.0012  0.2618 -0.0260
 2840Sol     HW14512   2.510   1.525   7.440 -1.3288  0.3017  0.2749
 2840Sol     HW14513   2.439   1.422   7.355  0.6697 -0.2261 -0.8024
 2840Sol     MW14514   2.487   1.498   7.358 -0.1066 -0.7286  0.2663
 2841Sol     OW14515   1.942   2.138   2.043 -0.2686  0.0574  0.1894
 2841Sol     HW14516   1.967   2.056   2.001  0.2350  0.3282 -0.0535
 2841Sol     HW14517   2.003   2.147   2.116 -0.6655 -0.0483  0.5330
 2841Sol     MW14518   1.950   2.132   2.046  0.8380  0.3632 -0.1947
 2842Sol     OW14519   1.529   0.966   2.309 -0.2119 -0.0582 -0.3417
 2842Sol     HW14520   1.567   1.053   2.297  1.1622 -0.5315  0.4401
 2842Sol     HW14521   1.473   0.976   2.387  0.0915  0.0693 -0.1397
 2842Sol     MW14522   1.527   0.975   2.315 -0.6469  0.2253  0.7799
 2843Sol     OW14523   1.293   1.171   4.549  0.3851 -0.0133  0.0987
 2843Sol     HW14524   1.277   1.231   4.621  0.3208 -0.6712  0.6433
 2843Sol     HW14525   1.243   1.207   4.476 -1.3965 -0.5378  1.0112
 2843Sol     MW14526   1.287   1.179   4.549 -0.2547 -0.1903  0.4936
 2844Sol     OW14527   2.828   0.561   2.733 -0.3244  0.0807  0.3597
 2844Sol     HW14528   2.868   0.497   2.674 -0.0967  1.3258 -0.8613
 2844Sol     HW14529   2.745   0.584   2.691  0.3066  1.7438 -0.0117
 2844Sol     MW14530   2.824   0.558   2.724 -0.3867 -0.4175  0.7049
 2845Sol     OW14531   0.936   3.121   3.532  0.1776 -0.1430  0.3049
 2845Sol     HW14532   0.968   3.121   3.622  0.6211  0.1429  0.1533
 2845Sol     HW14533   0.977   3.045   3.492  0.3669  0.0076  0.2129
 2845Sol     MW14534   0.943   3.114   3.536  0.4969 -0.4184  0.6407
 2846Sol     OW14535   0.465   0.168   9.087 -0.7933 -0.5425 -0.2291
 2846Sol     HW14536   0.519   0.245   9.068 -1.5275  0.1574  0.4749
 2846Sol     HW14537   0.436   0.182   9.177 -0.8811 -1.6832 -0.0826
 2846Sol     MW14538   0.467   0.176   9.094 -0.6728 -0.0217  0.1892
 2847Sol     OW14539   0.678   2.018   3.247 -0.1455 -0.1023  0.0478
 2847Sol     HW14540   0.665   2.112   3.257  2.0527  0.1861  0.4230
 2847Sol     HW14541   0.744   2.010   3.179  1.3420 -1.2775  1.5792
 2847Sol     MW14542   0.683   2.025   3.242  0.1205 -0.1836  0.9462
 2848Sol     OW14543   1.505   2.928   8.674 -0.2005 -0.0741 -0.3130
 2848Sol     HW14544   1.601   2.926   8.669 -0.1300  1.2849  0.4147
 2848Sol     HW14545   1.478   2.972   8.594 -0.2739 -1.2658 -0.9607
 2848Sol     MW14546   1.512   2.932   8.666 -0.3112 -0.4514  0.0947
 2849Sol     OW14547   0.517   0.017   8.145 -0.2341 -0.1408 -0.2558
 2849Sol     HW14548   0.426   0.009   8.118 -0.1967 -0.2137 -0.3588
 2849Sol     HW14549   0.553   0.086   8.091 -0.7512  1.2434  1.1285
 2849Sol     MW14550   0.512   0.022   8.138  0.1572 -0.1213 -0.2460
 2850Sol     OW14551   0.566   2.029   8.636  0.2316 -0.3578  0.1104
 2850Sol     HW14552   0.628   1.958   8.621  2.4661  1.0086  2.5849
 2850Sol     HW14553   0.494   2.011   8.575  1.1794 -4.1730 -0.0054
 2850Sol     MW14554   0.565   2.021   8.629 -0.4299 -0.7232  0.0541
 2851Sol     OW14555   1.565   2.965   8.229 -0.0864 -0.0167  0.2736
 2851Sol     HW14556   1.635   3.030   8.225 -0.5917  0.5544  0.7422
 2851Sol     HW14557   1.503   2.992   8.161  0.2980 -0.7011 -0.3553
 2851Sol     MW14558   1.566   2.973   8.222 -0.1459  0.4170 -0.1120
 2852Sol     OW14559   2.223   0.079   9.108 -0.3498 -0.0631 -0.0640
 2852Sol     HW14560   2.276   0.087   9.029 -1.4100  0.5746 -0.7177
 2852Sol     HW14561   2.134   0.099   9.080 -0.8932 -0.8162  1.0897
 2852Sol     MW14562   2.220   0.082   9.099 -0.4823 -0.1881 -0.2372
 2853Sol     OW14563   2.360   0.882   7.219 -0.1586  0.0022 -0.2032
 2853Sol     HW14564   2.455   0.883   7.229 -0.2719  0.7120  0.8769
 2853Sol     HW14565   2.345   0.839   7.135  1.0953 -0.5431 -0.1503
 2853Sol     MW14566   2.367   0.878   7.212 -0.9202 -0.3784  0.0648
 2854Sol     OW14567   0.368   0.377   3.388 -0.0849  0.7585 -0.1378
 2854Sol     HW14568   0.281   0.358   3.423  0.5171  2.5505  2.4283
 2854Sol     HW14569   0.419   0.298   3.405 -0.5921  0.5483  0.4175
 2854Sol     MW14570   0.365   0.368   3.392 -0.0162  0.0641 -0.8493
 2855Sol     OW14571   3.273   2.968   5.264  0.1136 -0.0511 -0.1287
 2855Sol     HW14572   3.316   2.904   5.320 -1.3597 -0.2382  0.8257
 2855Sol     HW14573   3.277   2.930   5.176  0.6599 -0.6993  0.1764
 2855Sol     MW14574   3.277   2.959   5.261 -0.4557  0.2557  0.0885
 2856Sol     OW14575   1.546   0.358   6.439  0.2374 -0.1516  0.0671
 2856Sol     HW14576   1.455   0.339   6.460  0.5916 -0.1620  1.6550
 2856Sol     HW14577   1.572   0.289   6.378 -0.8959  0.0277 -0.6296
 2856Sol     MW14578   1.541   0.350   6.435  0.1939 -0.2602  0.0312
 2857Sol     OW14579   0.462   1.761   3.107  0.1623  0.1317 -0.4389
 2857Sol     HW14580   0.446   1.722   3.193  0.2038  1.3083  0.1042
 2857Sol     HW14581   0.543   1.720   3.077  0.8763  0.7084  0.6693
 2857Sol     MW14582   0.468   1.753   3.112  0.2392  0.2814 -0.5180
 2858Sol     OW14583   2.136   3.024   9.567 -0.2717 -0.1682 -0.1644
 2858Sol     HW14584   2.042   3.017   9.549 -0.5539  0.1790  1.0979
 2858Sol     HW14585   2.161   2.938   9.600 -0.0793 -0.3412 -0.7481
 2858Sol     MW14586   2.129   3.016   9.568 -0.3000  0.2493 -0.3571
 2859Sol     OW14587   0.374   0.934   7.843  0.4968  0.0968 -0.3517
 2859Sol     HW14588   0.356   0.842   7.863  0.7102 -0.4292 -2.4370
 2859Sol     HW14589   0.372   0.978   7.928 -1.4999 -1.4967  0.4739
 2859Sol     MW14590   0.372   0.930   7.853 -0.0648  0.0228  0.5201
 2860Sol     OW14591   1.449   1.717   9.340  0.2187  0.3850 -0.0833
 2860Sol     HW14592   1.522   1.743   9.283 -0.1578 -1.1001 -1.2777
 2860Sol     HW14593   1.391   1.793   9.342  1.6710  1.4911  0.6884
 2860Sol     MW14594   1.450   1.726   9.335 -0.2886  0.3761 -0.2887
 2861Sol     OW14595   0.085   2.485   4.029  0.1928  0.0908 -0.0013
 2861Sol     HW14596   0.171   2.496   3.987  1.7149 -0.4020  2.8059
 2861Sol     HW14597   0.106   2.474   4.122 -3.0430  1.4675  0.9510
 2861Sol     MW14598   0.095   2.485   4.034  0.3546  0.0779  0.0957
 2862Sol     OW14599   1.848   2.979   8.992 -0.1023  0.6149  0.3394
 2862Sol     HW14600   1.777   3.040   8.972  0.6011  1.7145  1.1450
 2862Sol     HW14601   1.804   2.898   9.017 -1.0372  0.1913 -2.4619
 2862Sol     MW14602   1.838   2.978   8.992 -0.5327  0.7022  0.1614
 2863Sol     OW14603   2.308   0.998   8.542  0.1809 -0.1867 -0.4005
 2863Sol     HW14604   2.248   1.070   8.527 -0.4708 -0.7172 -0.3415
 2863Sol     HW14605   2.326   1.000   8.636 -2.0238 -1.8083  0.0923
 2863Sol     MW14606   2.304   1.004   8.549  0.1188  0.2772  0.5837
 2864Sol     OW14607   0.530   1.104   9.582 -0.1297 -0.1352 -0.0267
 2864Sol     HW14608   0.561   1.131   9.495 -0.9834 -3.6682 -1.4789
 2864Sol     HW14609   0.451   1.156   9.596 -1.1767 -1.0453 -2.3199
 2864Sol     MW14610   0.526   1.111   9.576 -0.2808 -1.0170  0.4813
 2865Sol     OW14611   1.154   3.402   6.970 -0.3811  0.0819 -0.7543
 2865Sol     HW14612   1.170   3.317   7.010 -1.1100  0.0897 -0.4281
 2865Sol     HW14613   1.139   3.383   6.878 -2.1995 -0.3526 -0.4000
 2865Sol     MW14614   1.154   3.393   6.966  0.0877  0.2229  0.0751
 2866Sol     OW14615   0.262   2.498   3.797  0.3282 -0.2655 -0.3550
 2866Sol     HW14616   0.357   2.503   3.790  0.5770 -0.5151  2.2040
 2866Sol     HW14617   0.231   2.586   3.774  1.1002 -0.4036 -1.9661
 2866Sol     MW14618   0.267   2.506   3.794 -0.2035  0.2308 -0.0873
 2867Sol     OW14619   0.584   2.869   3.404  0.5893  0.1628 -0.0788
 2867Sol     HW14620   0.573   2.963   3.387  1.4452  0.4054  0.6546
 2867Sol     HW14621   0.669   2.848   3.367 -0.0403 -0.5563 -1.1374
 2867Sol     MW14622   0.590   2.876   3.399  0.3609  0.6246  0.3647
 2868Sol     OW14623   1.145   2.973   7.628  0.3022  0.0159 -0.4693
 2868Sol     HW14624   1.060   2.957   7.667  1.2457  0.8367  1.9947
 2868Sol     HW14625   1.162   3.066   7.644  1.3378  0.0302 -1.5811
 2868Sol     MW14626   1.139   2.980   7.633  0.2670  0.0522 -0.0914
 2869Sol     OW14627   1.158   1.141   5.698 -0.2327  0.3111 -0.2780
 2869Sol     HW14628   1.218   1.074   5.731  0.6252  0.4861 -1.4859
 2869Sol     HW14629   1.086   1.141   5.762  0.5736 -0.5656  0.6557
 2869Sol     MW14630   1.157   1.135   5.707  0.2505 -0.2217 -0.1534
 2870Sol     OW14631   0.460   1.080   7.085 -0.3219  0.1290 -0.4640
 2870Sol     HW14632   0.549   1.112   7.077 -0.8319  1.7592  0.2486
 2870Sol     HW14633   0.413   1.148   7.133 -2.0935 -0.4369 -1.3145
 2870Sol     MW14634   0.464   1.089   7.089  0.1370  0.0184  0.4042
 2871Sol     OW14635   3.311   2.330   2.159  0.0921  0.2380 -0.7387
 2871Sol     HW14636   3.224   2.326   2.120 -0.2285  0.5403 -0.0693
 2871Sol     HW14637   3.313   2.257   2.221  0.1403  0.5260 -0.3984
 2871Sol     MW14638   3.304   2.323   2.161  0.5011  0.1678  0.2932
 2872Sol     OW14639   1.388   3.167   3.031  0.8386  0.5959  0.3018
 2872Sol     HW14640   1.413   3.111   3.104 -1.0602 -0.9682 -0.2268
 2872Sol     HW14641   1.362   3.250   3.073  0.2508 -0.1151  1.3773
 2872Sol     MW14642   1.388   3.170   3.042  0.4138  0.5031 -0.3848
 2873Sol     OW14643   3.215   2.370   6.019  0.3983 -0.0838  0.2679
 2873Sol     HW14644   3.310   2.366   6.020  0.3954 -0.3577 -0.3844
 2873Sol     HW14645   3.193   2.402   5.932 -0.1765 -2.0422 -0.3271
 2873Sol     MW14646   3.221   2.373   6.012  0.3741  0.1324 -0.1161
 2874Sol     OW14647   1.461   0.329   7.698  0.0750  0.0540  0.3991
 2874Sol     HW14648   1.415   0.343   7.615  0.9659  0.7072  0.0138
 2874Sol     HW14649   1.392   0.336   7.765 -0.3881  1.0331 -0.1731
 2874Sol     MW14650   1.451   0.331   7.697  0.6869 -0.3764 -0.3936
 2875Sol     OW14651   1.213   0.921   6.064  0.0177  0.3054 -0.9119
 2875Sol     HW14652   1.272   0.912   6.138 -0.2415  1.7687 -0.5128
 2875Sol     HW14653   1.162   1.000   6.083 -2.6695 -1.3580 -0.8081
 2875Sol     MW14654   1.213   0.927   6.072  0.6088  0.8847  0.4831
 2876Sol     OW14655   1.681   2.852   7.836 -0.3320  0.2920  0.5378
 2876Sol     HW14656   1.771   2.844   7.867 -0.2156  0.6945  0.3063
 2876Sol     HW14657   1.634   2.782   7.882  0.2199 -0.3101  0.2021
 2876Sol     MW14658   1.685   2.845   7.843 -0.3452  0.3241 -0.3252
 2877Sol     OW14659   3.087   2.268   5.267  0.5942 -0.1384  0.1742
 2877Sol     HW14660   3.028   2.211   5.217 -1.0606  0.3853  1.4986
 2877Sol     HW14661   3.127   2.325   5.201 -2.5218  1.4123 -0.4574
 2877Sol     MW14662   3.085   2.268   5.256 -0.3992  0.2558 -0.0485
 2878Sol     OW14663   2.805   1.918   8.594 -0.7408  0.4244 -0.1176
 2878Sol     HW14664   2.725   1.925   8.542 -1.4651  1.6235  1.1442
 2878Sol     HW14665   2.776   1.928   8.685  0.8003  0.5141  0.3775
 2878Sol     MW14666   2.795   1.919   8.597 -0.2054  0.2470  0.4088
 2879Sol     OW14667   0.810   2.726   6.380  0.0236 -0.0336 -0.7030
 2879Sol     HW14668   0.756   2.768   6.448  0.7889  0.2107 -0.2371
 2879Sol     HW14669   0.789   2.773   6.300 -0.1749  0.3172 -0.4467
 2879Sol     MW14670   0.803   2.734   6.379 -0.0652 -0.1436 -0.2712
 2880Sol     OW14671   1.430   2.756   2.817  0.2335 -0.1296  0.2343
 2880Sol     HW14672   1.444   2.695   2.746 -0.4376 -0.1961  0.1498
 2880Sol     HW14673   1.426   2.842   2.775 -2.8837 -0.4126 -0.1911
 2880Sol     MW14674   1.431   2.759   2.807  0.0576  0.8330  0.0314
 2881Sol     OW14675   0.216   3.174   1.993 -0.1299 -0.0207  0.7526
 2881Sol     HW14676   0.125   3.172   2.024 -0.9338 -1.7149 -1.6207
 2881Sol     HW14677   0.258   3.102   2.039 -0.7687 -1.1536 -0.4136
 2881Sol     MW14678   0.211   3.168   2.000  0.5516 -0.3953  0.1621
 2882Sol     OW14679   3.129   1.067   1.515 -0.1852  0.7062 -0.1222
 2882Sol     HW14680   3.065   1.139   1.523 -0.2973  0.7831 -1.5651
 2882Sol     HW14681   3.075   0.988   1.513 -0.2908  0.8020 -1.8474
 2882Sol     MW14682   3.118   1.067   1.516 -0.1016 -0.4876 -0.1905
 2883Sol     OW14683   1.762   3.451   6.510  0.1966  0.4343 -0.3180
 2883Sol     HW14684   1.791   3.525   6.456  0.8408  0.3120 -0.1404
 2883Sol     HW14685   1.671   3.472   6.531  0.5900  1.5431  0.3400
 2883Sol     MW14686   1.757   3.460   6.507  0.3791  0.0845 -0.1613
 2884Sol     OW14687   2.454   1.279   5.886  0.0125 -0.7372 -0.5516
 2884Sol     HW14688   2.506   1.205   5.919 -0.4258 -0.7075  0.2223
 2884Sol     HW14689   2.426   1.251   5.799  0.2458 -1.2877 -0.4574
 2884Sol     MW14690   2.456   1.269   5.881 -0.2333 -0.0141  0.1198
 2885Sol     OW14691   0.215   1.577   4.050 -0.6378  0.6016 -0.8488
 2885Sol     HW14692   0.139   1.528   4.021  0.5527 -0.8530 -1.6178
 2885Sol     HW14693   0.270   1.585   3.972  0.2982  1.0390 -0.1637
 2885Sol     MW14694   0.213   1.573   4.040  0.6207 -0.0008  0.4647
 2886Sol     OW14695   1.081   3.229   6.492  0.3473 -0.5046 -0.6053
 2886Sol     HW14696   1.009   3.193   6.439 -0.1258  1.0569 -1.0516
 2886Sol     HW14697   1.055   3.210   6.583  0.3147 -1.6520 -0.8499
 2886Sol     MW14698   1.072   3.224   6.496  0.4004 -0.3655  0.6445
 2887Sol     OW14699   3.114   0.851   2.157  0.3092 -0.0122 -0.0786
 2887Sol     HW14700   3.084   0.760   2.158  0.4721 -0.1107 -2.3742
 2887Sol     HW14701   3.034   0.903   2.159  0.2047 -0.1967  0.8575
 2887Sol     MW14702   3.104   0.847   2.157  0.3845  0.0147 -0.2248
 2888Sol     OW14703   0.211   2.510   9.585 -0.0242  0.0260  0.0125
 2888Sol     HW14704   0.125   2.518   9.544 -0.1039  1.5348  0.4394
 2888Sol     HW14705   0.214   2.420   9.618 -0.9475 -0.4203 -1.0596
 2888Sol     MW14706   0.203   2.503   9.584 -0.0605 -0.6421  0.3092
 2889Sol     OW14707   0.761   1.320   9.250 -0.0688 -0.1474  0.5931
 2889Sol     HW14708   0.835   1.350   9.198  0.1347 -0.2016  0.8473
 2889Sol     HW14709   0.730   1.399   9.295 -0.6773  0.0332 -0.1380
 2889Sol     MW14710   0.765   1.330   9.250  0.4913  0.0330  0.3349
 2890Sol     OW14711   1.524   0.656   8.755  0.2814 -0.3313  0.5177
 2890Sol     HW14712   1.443   0.682   8.800  0.8300  1.7777  0.3473
 2890Sol     HW14713   1.591   0.658   8.824  0.6213  0.3175  0.1793
 2890Sol     MW14714   1.523   0.659   8.765  0.1341 -0.1335  0.3369
 2891Sol     OW14715   2.905   1.452   3.068  1.0442 -0.0599  0.2332
 2891Sol     HW14716   2.883   1.378   3.125  2.6663 -1.3701 -0.7874
 2891Sol     HW14717   2.844   1.444   2.994 -0.0243  0.7252  1.0284
 2891Sol     MW14718   2.897   1.445   3.066  0.2134  0.3942  0.0936
 2892Sol     OW14719   3.076   3.452   1.991 -0.2260 -0.6937  0.7378
 2892Sol     HW14720   3.046   3.391   2.058  0.7270  0.2205  2.0316
 2892Sol     HW14721   3.010   3.521   1.989  0.8963  0.4746  2.4225
 2892Sol     MW14722   3.068   3.453   1.997  0.2658  0.1603  0.4502
 2893Sol     OW14723   1.384   0.425   7.418 -0.2882  0.9573 -0.1691
 2893Sol     HW14724   1.289   0.433   7.411 -0.4089  0.8407  1.3234
 2893Sol     HW14725   1.404   0.341   7.375 -0.7465  1.4153 -1.3043
 2893Sol     MW14726   1.377   0.418   7.413  0.2048  1.0279  0.2680
 2894Sol     OW14727   2.893   0.187   2.309 -0.1185 -0.4765  0.3850
 2894Sol     HW14728   2.797   0.184   2.316 -0.5288  1.2982 -3.1897
 2894Sol     HW14729   2.921   0.096   2.321 -2.4463 -1.3335 -0.3124
 2894Sol     MW14730   2.887   0.179   2.310  0.1914 -0.3329 -0.6974
 2895Sol     OW14731   0.570   0.272   5.791 -0.5193  0.3922  0.0276
 2895Sol     HW14732   0.574   0.179   5.815 -0.3127  0.4450  0.2091
 2895Sol     HW14733   0.545   0.272   5.699  0.7040  0.1099 -0.3133
 2895Sol     MW14734   0.568   0.263   5.785  0.3976  0.0887  0.2147
 2896Sol     OW14735   0.236   0.963   4.893 -0.2024  0.1033  0.0264
 2896Sol     HW14736   0.317   0.951   4.942  0.4103 -1.1799 -1.2721
 2896Sol     HW14737   0.172   0.988   4.960  0.8253 -0.6838  1.3466
 2896Sol     MW14738   0.237   0.964   4.904  0.6531 -0.1042  0.5997
 2897Sol     OW14739   0.054   0.239   8.420 -0.4583 -0.4675 -0.2103
 2897Sol     HW14740   0.005   0.170   8.374 -0.8083 -1.1976  1.2448
 2897Sol     HW14741   0.029   0.320   8.375 -2.1844 -0.9562 -0.1665
 2897Sol     MW14742   0.048   0.240   8.412 -0.2161 -0.0780  0.0463
 2898Sol     OW14743   0.179   3.117   2.488  0.1176 -0.3597 -0.2727
 2898Sol     HW14744   0.140   3.056   2.551 -1.7043  0.8361 -0.1968
 2898Sol     HW14745   0.182   3.068   2.406  0.6120 -1.2379  0.2531
 2898Sol     MW14746   0.176   3.107   2.486  0.1874  0.4927  0.4445
 2899Sol     OW14747   0.539   0.599   1.875 -0.0173 -0.7442 -0.7875
 2899Sol     HW14748   0.616   0.551   1.907 -0.7652 -1.6369 -0.3166
 2899Sol     HW14749   0.564   0.691   1.883  2.5050 -1.0140 -4.3534
 2899Sol     MW14750   0.548   0.603   1.879  0.3532 -0.1747 -0.2790
 2900Sol     OW14751   0.675   0.731   1.478  0.1408 -0.1268 -0.4900
 2900Sol     HW14752   0.635   0.816   1.459  0.1550  0.0645  0.2861
 2900Sol     HW14753   0.602   0.676   1.507 -0.0569 -0.7479 -2.1616
 2900Sol     MW14754   0.665   0.734   1.479  0.1378 -0.5377 -0.7791
 2901Sol     OW14755   3.035   2.858   9.712 -0.3957 -0.1361  0.6809
 2901Sol     HW14756   3.130   2.847   9.712 -0.3946 -0.1214  0.9035
 2901Sol     HW14757   3.020   2.943   9.753 -0.5693 -0.6579  1.6987
 2901Sol     MW14758   3.042   2.865   9.715 -0.1982  0.0047  0.3780
 2902Sol     OW14759   1.484   3.119   1.935 -0.1191  0.6376  0.1155
 2902Sol     HW14760   1.430   3.188   1.898 -2.0192  0.2274  2.0494
 2902Sol     HW14761   1.444   3.037   1.905 -1.9219  0.2923  3.2888
 2902Sol     MW14762   1.476   3.118   1.929  0.1521 -0.2820  0.1262
 2903Sol     OW14763   2.633   1.432   6.133  0.2750 -0.4411  0.1546
 2903Sol     HW14764   2.608   1.461   6.221  0.6662 -0.5391  0.2995
 2903Sol     HW14765   2.622   1.337   6.135 -0.3039 -0.3788 -0.0919
 2903Sol     MW14766   2.630   1.426   6.141  0.3144  0.5633  0.3510
 2904Sol     OW14767   0.221   0.320   4.648  0.0252 -0.1793 -0.5153
 2904Sol     HW14768   0.290   0.321   4.713 -2.6163  2.6048  2.4207
 2904Sol     HW14769   0.165   0.246   4.673 -0.8400  0.7215  0.2457
 2904Sol     MW14770   0.222   0.313   4.656  0.2882  0.0050 -0.3842
 2905Sol     OW14771   2.459   1.680   6.182 -0.1960 -0.1142  0.1425
 2905Sol     HW14772   2.465   1.634   6.098 -0.3367 -0.2670  0.2153
 2905Sol     HW14773   2.484   1.770   6.162 -1.8220  0.2343 -0.3902
 2905Sol     MW14774   2.461   1.684   6.172 -0.3599  0.0207 -0.1550
 2906Sol     OW14775   3.309   2.115   3.572  0.6347  0.3213  0.0408
 2906Sol     HW14776   3.281   2.032   3.610  1.1212 -0.4146 -1.1987
 2906Sol     HW14777   3.393   2.134   3.614  1.2756 -0.5974 -0.8262
 2906Sol     MW14778   3.314   2.109   3.579 -0.0684  0.5602 -0.1630
 2907Sol     OW14779   1.660   0.312   4.132 -0.2721  0.5007 -0.0481
 2907Sol     HW14780   1.682   0.359   4.212  0.8606 -0.1653  0.0401
 2907Sol     HW14781   1.641   0.380   4.068  0.2606  1.0482  0.3795
 2907Sol     MW14782   1.660   0.322   4.134  0.2078  0.3914 -0.2007
 2908Sol     OW14783   1.991   0.811   2.783  0.6620  0.4864  0.1754
 2908Sol     HW14784   1.934   0.773   2.849  0.6579 -1.3085 -0.8194
 2908Sol     HW14785   2.076   0.822   2.827  0.7348 -0.9404  0.4130
 2908Sol     MW14786   1.994   0.808   2.793  0.1121  0.3132  0.1430
 2909Sol     OW14787   1.535   1.722   6.943 -0.1381 -0.5589  0.0743
 2909Sol     HW14788   1.539   1.801   6.997 -0.0891 -0.5894  0.1163
 2909Sol     HW14789   1.520   1.651   7.006  0.3342 -0.6444  0.0941
 2909Sol     MW14790   1.534   1.723   6.954  0.2604 -0.0414 -0.3368
 2910Sol     OW14791   0.145   1.741   2.232 -0.2160 -0.1585 -0.0238
 2910Sol     HW14792   0.149   1.755   2.327 -0.2872  1.3606 -0.2297
 2910Sol     HW14793   0.130   1.828   2.196 -0.9903 -0.8433 -1.3861
 2910Sol     MW14794   0.144   1.750   2.237 -0.4957 -0.1126 -0.0217
 2911Sol     OW14795   1.827   0.683   6.873 -0.9137 -0.2442 -0.9658
 2911Sol     HW14796   1.806   0.753   6.812 -0.8743  1.3159  0.7520
 2911Sol     HW14797   1.753   0.622   6.868  0.5790 -1.8837 -4.9398
 2911Sol     MW14798   1.819   0.684   6.867 -0.2183 -0.3349  0.6567
 2912Sol     OW14799   1.692   0.907   4.070  0.2171 -0.4850 -0.4917
 2912Sol     HW14800   1.676   0.883   4.161 -0.4034 -2.4396 -1.1091
 2912Sol     HW14801   1.742   0.835   4.034 -2.9512 -1.6600 -2.7738
 2912Sol     MW14802   1.695   0.899   4.075 -0.4729 -0.1078 -0.4322
 2913Sol     OW14803   1.128   2.712   4.489 -0.2596 -0.8433  0.1751
 2913Sol     HW14804   1.206   2.751   4.450  0.8094  0.1540  3.1468
 2913Sol     HW14805   1.063   2.782   4.488 -0.0294 -0.6159  0.7054
 2913Sol     MW14806   1.129   2.722   4.486 -0.1138  0.0234 -0.0351
 2914Sol     OW14807   1.027   3.184   2.599  0.1171  0.0629 -0.0814
 2914Sol     HW14808   1.073   3.228   2.671 -0.1370 -0.7194  0.5688
 2914Sol     HW14809   0.989   3.256   2.547  1.2231  0.6743 -0.0632
 2914Sol     MW14810   1.027   3.195   2.601 -0.1943  0.7027  0.7261
 2915Sol     OW14811   1.274   2.262   4.261  0.0864  0.1719  0.3079
 2915Sol     HW14812   1.305   2.261   4.352  0.5777  1.5156  0.1597
 2915Sol     HW14813   1.251   2.353   4.244  1.1566  0.1714 -1.3125
 2915Sol     MW14814   1.275   2.270   4.268 -0.7742 -0.1471  0.4948
 2916Sol     OW14815   0.170   2.529   7.833 -0.0369 -0.1814  0.2051
 2916Sol     HW14816   0.129   2.517   7.747 -0.1289 -0.2899  0.2661
 2916Sol     HW14817   0.105   2.500   7.896 -0.2928  0.6885  0.3505
 2916Sol     MW14818   0.161   2.526   7.831 -0.5179  0.1538  0.3225
 2917Sol     OW14819   2.993   3.230   3.497  0.2648  0.5510 -0.0504
 2917Sol     HW14820   3.024   3.314   3.532  1.4201  0.9584 -2.0043
 2917Sol     HW14821   3.008   3.169   3.569  0.7657  1.7390  0.8921
 2917Sol     MW14822   2.997   3.232   3.507  0.1871 -0.5020 -0.1184
 2918Sol     OW14823   0.021   0.108   3.941  0.5894  0.6756 -0.0973
 2918Sol     HW14824   0.050   0.030   3.893 -0.4367  0.3822 -0.2450
 2918Sol     HW14825   0.078   0.111   4.018 -1.0959 -1.7106  1.2780
 2918Sol     MW14826   0.029   0.101   3.944 -0.2392 -0.3584  0.4253
 2919Sol     OW14827   3.089   2.039   6.588 -0.6343 -0.4943 -0.0742
 2919Sol     HW14828   3.072   2.131   6.565 -1.3001 -0.4899  0.4489
 2919Sol     HW14829   3.113   2.042   6.680  3.6555 -0.2976 -1.0825
 2919Sol     MW14830   3.090   2.048   6.594  0.1579 -0.5005  0.1210
 2920Sol     OW14831   1.836   1.561   4.166  0.3286 -0.1661 -0.0871
 2920Sol     HW14832   1.895   1.606   4.106 -0.0506 -0.2834 -0.5505
 2920Sol     HW14833   1.854   1.600   4.252  1.2513 -0.3773 -0.1819
 2920Sol     MW14834   1.843   1.569   4.169 -0.3366  0.1605 -0.7449
 2921Sol     OW14835   0.112   1.071   6.380  0.1740  0.4734  0.4193
 2921Sol     HW14836   0.054   1.025   6.440 -0.4057  0.3382 -0.2334
 2921Sol     HW14837   0.200   1.056   6.414 -0.0397 -0.8042  0.4145
 2921Sol     MW14838   0.115   1.066   6.388  0.0121  0.0781 -0.3262
 2922Sol     OW14839   1.939   0.976   8.448  0.0812  0.0207  0.0442
 2922Sol     HW14840   1.867   1.019   8.402  0.4351  1.8675  1.1299
 2922Sol     HW14841   2.010   0.975   8.385 -0.1811  0.3435 -0.2635
 2922Sol     MW14842   1.939   0.980   8.438 -0.3871 -0.2189 -0.1888
 2923Sol     OW14843   1.524   1.869   5.614  0.2349  0.1766 -0.2385
 2923Sol     HW14844   1.601   1.926   5.602 -0.0116  0.5297 -0.1648
 2923Sol     HW14845   1.451   1.921   5.581 -0.2964  0.7243  1.7369
 2923Sol     MW14846   1.525   1.879   5.610  0.6846  0.2686  0.0288
 2924Sol     OW14847   0.893   1.060   9.212  0.4014 -0.1215  0.0644
 2924Sol     HW14848   0.919   1.069   9.120 -0.2287  0.2105 -0.0851
 2924Sol     HW14849   0.886   1.150   9.244 -0.4444 -0.2016  0.1261
 2924Sol     MW14850   0.895   1.069   9.207  0.0470  0.4232 -0.0377
 2925Sol     OW14851   2.294   1.777   2.589  0.6185  0.3633 -0.2374
 2925Sol     HW14852   2.362   1.804   2.526 -0.3284 -0.0433 -1.4515
 2925Sol     HW14853   2.336   1.708   2.640  0.7933 -0.6378 -1.6868
 2925Sol     MW14854   2.304   1.773   2.588 -0.5926  0.5909 -0.5479
 2926Sol     OW14855   1.953   1.518   7.829  0.4407 -0.0313 -0.4238
 2926Sol     HW14856   1.935   1.439   7.777 -0.1421 -0.4219  0.3597
 2926Sol     HW14857   1.870   1.565   7.832  0.1658 -0.5913  1.1088
 2926Sol     MW14858   1.944   1.515   7.825 -0.0752 -0.0841 -0.1055
 2927Sol     OW14859   0.749   1.489   3.252  0.8520 -0.1041 -0.1818
 2927Sol     HW14860   0.701   1.434   3.314  0.5895  0.8318  0.4622
 2927Sol     HW14861   0.790   1.556   3.307  0.9314  0.5083 -0.9813
 2927Sol     MW14862   0.748   1.490   3.263  0.0415  0.1969  0.2198
 2928Sol     OW14863   0.312   1.709   2.885 -0.4001  0.0919  0.2892
 2928Sol     HW14864   0.222   1.685   2.906 -0.5034 -0.7393 -1.0224
 2928Sol     HW14865   0.346   1.748   2.966 -1.9535  0.5042  0.7615
 2928Sol     MW14866   0.307   1.710   2.894 -0.2246 -0.3269  0.1058
 2929Sol     OW14867   0.201   2.829   7.387 -0.0702 -0.3712 -0.2900
 2929Sol     HW14868   0.160   2.871   7.462 -0.2040  0.3232 -0.7467
 2929Sol     HW14869   0.203   2.896   7.319 -1.0136 -1.3165 -1.2903
 2929Sol     MW14870   0.197   2.838   7.387 -0.0859 -0.2562 -0.2306
 2930Sol     OW14871   2.300   2.999   9.081  0.2275 -0.2492 -0.4106
 2930Sol     HW14872   2.331   3.088   9.062 -1.6419  0.6073  0.4650
 2930Sol     HW14873   2.304   2.991   9.176  0.8769 -1.3089 -0.5108
 2930Sol     MW14874   2.304   3.006   9.088 -0.1617 -0.1872  0.2657
 2931Sol     OW14875   0.937   1.041   4.004 -0.7842  0.0493  0.1748
 2931Sol     HW14876   0.975   0.974   3.946  0.0399  1.3756 -0.8463
 2931Sol     HW14877   1.003   1.056   4.071 -0.3389  0.8692 -0.4299
 2931Sol     MW14878   0.946   1.036   4.005 -0.2067  0.7386  0.1872
 2932Sol     OW14879   1.374   3.317   4.953 -0.2857 -0.0787  0.5508
 2932Sol     HW14880   1.416   3.399   4.927 -0.9830  0.8403  2.2539
 2932Sol     HW14881   1.309   3.343   5.019 -0.6777 -1.9681  0.9358
 2932Sol     MW14882   1.372   3.327   4.957  0.3475  0.3319 -0.0993
 2933Sol     OW14883   0.385   1.130   3.896  0.3522 -0.0230  0.1589
 2933Sol     HW14884   0.305   1.084   3.873 -0.4876  1.6627 -0.3227
 2933Sol     HW14885   0.370   1.162   3.985 -0.3212  2.0162 -0.6631
 2933Sol     MW14886   0.377   1.129   3.902 -0.0241 -0.3592 -0.2477
 2934Sol     OW14887   0.877   0.803   5.375 -0.6976 -0.6271  0.0061
 2934Sol     HW14888   0.876   0.742   5.449  1.6858 -1.4589 -0.6093
 2934Sol     HW14889   0.893   0.889   5.415  3.1128 -1.3848  0.3516
 2934Sol     MW14890   0.879   0.805   5.385 -0.2735  0.1340  0.0514
 2935Sol     OW14891   2.982   0.502   9.581 -0.2120 -0.2696  0.8284
 2935Sol     HW14892   3.003   0.506   9.488  0.3597 -1.7500  0.8761
 2935Sol     HW14893   2.961   0.410   9.597 -1.7327  0.2495  1.8634
 2935Sol     MW14894   2.982   0.494   9.574  0.0238 -0.0577 -0.3197
 2936Sol     OW14895   2.296   0.151   6.169 -0.4984 -0.3165  0.2971
 2936Sol     HW14896   2.269   0.138   6.260 -1.4579 -0.3826  0.0094
 2936Sol     HW14897   2.351   0.075   6.149  0.7571  0.3357  1.2064
 2936Sol     MW14898   2.299   0.143   6.175 -0.3317  0.2472 -0.1266
 2937Sol     OW14899   1.318   2.795   8.820 -0.0855  0.1143  0.0377
 2937Sol     HW14900   1.382   2.851   8.775  1.3167 -0.0534  1.7460
 2937Sol     HW14901   1.371   2.726   8.860 -1.6320 -1.4890 -0.6275
 2937Sol     MW14902   1.328   2.794   8.820 -0.4142  0.2561 -0.0517
 2938Sol     OW14903   1.543   3.112   5.600 -0.6126  0.2196  0.1808
 2938Sol     HW14904   1.596   3.050   5.551  1.0752  1.7935 -0.0325
 2938Sol     HW14905   1.520   3.066   5.680  3.8288  0.5827  1.7886
 2938Sol     MW14906   1.545   3.103   5.602 -0.4633 -0.4734 -0.3724
 2939Sol     OW14907   3.079   1.241   6.718  0.4773  0.2102  0.3733
 2939Sol     HW14908   3.063   1.299   6.792  2.4628  1.3693 -0.0486
 2939Sol     HW14909   3.071   1.297   6.641  0.3815 -0.5306 -0.1647
 2939Sol     MW14910   3.077   1.251   6.717  0.7340 -0.8092 -0.1958
 2940Sol     OW14911   1.724   1.172   3.259 -1.0517  0.3180 -0.1864
 2940Sol     HW14912   1.811   1.131   3.251  0.0027  2.1440  1.3764
 2940Sol     HW14913   1.732   1.253   3.208 -1.4060  1.1153  1.0038
 2940Sol     MW14914   1.733   1.176   3.254 -0.1396  0.4851 -0.3102
 2941Sol     OW14915   3.221   1.636   2.173 -0.1834 -0.5975 -0.2460
 2941Sol     HW14916   3.301   1.659   2.220 -1.8883  3.4530  0.8960
 2941Sol     HW14917   3.199   1.548   2.204  1.0083  0.3239  3.4166
 2941Sol     MW14918   3.226   1.630   2.180  0.3024 -0.2377  0.1856
 2942Sol     OW14919   1.759   2.256   8.021 -0.0939  0.2883 -0.7209
 2942Sol     HW14920   1.777   2.168   7.988  1.4372 -0.0248  0.8766
 2942Sol     HW14921   1.801   2.315   7.958 -0.6332 -0.1361 -1.4842
 2942Sol     MW14922   1.764   2.254   8.012  0.4040 -0.2176 -0.4608
 2943Sol     OW14923   0.210   2.252   3.661  0.5088  0.1853  0.3774
 2943Sol     HW14924   0.294   2.208   3.649  0.6679  0.8947 -1.2288
 2943Sol     HW14925   0.233   2.335   3.704  0.3680 -0.6033  2.0191
 2943Sol     MW14926   0.220   2.256   3.664 -0.8060 -0.2144 -0.6198
 2944Sol     OW14927   3.260   0.666   2.634  0.1592  0.0704  0.2890
 2944Sol     HW14928   3.257   0.588   2.690  1.8357 -0.2370 -0.0182
 2944Sol     HW14929   3.230   0.636   2.548 -1.6170  0.3536  0.7943
 2944Sol     MW14930   3.257   0.656   2.631 -0.0429  0.3442  0.0992
 2945Sol     OW14931   2.350   3.403   6.672  0.5086  0.5293  0.1831
 2945Sol     HW14932   2.282   3.431   6.733 -0.1613  0.3364 -0.4613
 2945Sol     HW14933   2.393   3.485   6.646  0.1897  0.7050  0.2052
 2945Sol     MW14934   2.348   3.413   6.675 -0.4768 -0.0234  0.6453
 2946Sol     OW14935   0.630   1.373   2.305 -0.0000  0.0370 -0.2052
 2946Sol     HW14936   0.687   1.437   2.348 -0.7994  2.0412 -2.0690
 2946Sol     HW14937   0.562   1.425   2.263 -1.8994 -2.1812 -0.0022
 2946Sol     MW14938   0.629   1.383   2.305 -0.6517 -0.1103  0.0120
 2947Sol     OW14939   2.079   0.598   4.329  0.0468  0.5747  0.4183
 2947Sol     HW14940   2.107   0.690   4.326  1.1017  0.2406 -0.8566
 2947Sol     HW14941   2.140   0.557   4.391  1.1638  0.2578 -0.8529
 2947Sol     MW14942   2.087   0.603   4.334  0.2945 -0.1980  0.2629
 2948Sol     OW14943   1.660   0.284   7.244  0.2678 -0.7904 -0.4810
 2948Sol     HW14944   1.730   0.224   7.217 -0.2801 -2.4561  1.6522
 2948Sol     HW14945   1.602   0.230   7.298  0.1263  1.7918  2.0697
 2948Sol     MW14946   1.661   0.274   7.247 -0.1999  0.0985  0.3758
 2949Sol     OW14947   1.349   2.015   7.939 -0.1671 -0.1095 -0.0936
 2949Sol     HW14948   1.256   2.020   7.963 -0.3770  1.6679 -1.2026
 2949Sol     HW14949   1.349   2.004   7.844  0.7475 -1.3384  0.0428
 2949Sol     MW14950   1.341   2.015   7.933 -0.4607  0.3225 -0.5188
 2950Sol     OW14951   0.270   2.297   6.682  0.1499  0.6366 -0.9280
 2950Sol     HW14952   0.254   2.320   6.774  0.3640 -1.3229 -0.3915
 2950Sol     HW14953   0.184   2.305   6.641 -0.4434 -0.8393 -0.0226
 2950Sol     MW14954   0.260   2.300   6.687 -0.1223  0.0001 -0.1498
 2951Sol     OW14955   2.898   1.503   8.787 -0.1623 -0.5229  0.3115
 2951Sol     HW14956   2.857   1.521   8.871 -0.5465  0.5541 -0.1103
 2951Sol     HW14957   2.906   1.588   8.745  0.1161 -1.0449 -0.7083
 2951Sol     MW14958   2.895   1.512   8.791 -0.2270  0.5071  0.9401
 2952Sol     OW14959   2.996   2.986   3.015  0.8355  0.2889  0.2240
 2952Sol     HW14960   3.030   3.028   3.094  0.2600  1.0135  0.0939
 2952Sol     HW14961   2.918   3.037   2.993  0.0985 -0.8694  0.0885
 2952Sol     MW14962   2.992   2.994   3.021 -0.2300  0.1226 -0.2016
 2953Sol     OW14963   1.360   3.443   3.077 -0.0432  0.5272  0.6075
 2953Sol     HW14964   1.391   3.514   3.133  0.9797 -0.4741  1.3233
 2953Sol     HW14965   1.399   3.461   2.991  1.5743 -0.0657  1.1995
 2953Sol     MW14966   1.366   3.451   3.074 -0.0543  0.3569 -0.2451
 2954Sol     OW14967   2.266   0.294   8.347 -0.3086  0.0777  0.0251
 2954Sol     HW14968   2.223   0.262   8.427 -0.3412  1.3494  0.5336
 2954Sol     HW14969   2.257   0.390   8.352  0.2286  0.1994 -1.2025
 2954Sol     MW14970   2.261   0.300   8.355  0.3732 -0.8003 -0.7209
 2955Sol     OW14971   2.717   3.321   7.260 -0.3480 -0.5745 -0.3605
 2955Sol     HW14972   2.676   3.234   7.266  0.7232 -1.0349  0.4735
 2955Sol     HW14973   2.716   3.341   7.167 -2.9940 -0.3083 -0.3232
 2955Sol     MW14974   2.713   3.315   7.253 -0.3001  0.2665 -0.2464
 2956Sol     OW14975   3.069   1.039   7.777 -0.4739  0.2249 -0.6609
 2956Sol     HW14976   2.990   1.066   7.729  0.0041  0.2105 -1.4692
 2956Sol     HW14977   3.037   1.013   7.863 -0.9737  3.4261  0.1832
 2956Sol     MW14978   3.059   1.039   7.780  0.6665  0.4023 -0.7098
 2957Sol     OW14979   2.106   2.616   4.220  0.2730  0.3343 -0.3284
 2957Sol     HW14980   2.054   2.577   4.150 -0.1185 -0.8024  0.5705
 2957Sol     HW14981   2.197   2.606   4.192  0.1660 -1.1574 -0.1546
 2957Sol     MW14982   2.110   2.612   4.211  0.0709 -0.1201  0.1184
 2958Sol     OW14983   2.769   1.255   2.621  0.2153  0.0146 -0.5040
 2958Sol     HW14984   2.717   1.335   2.627  1.3515  0.6429  1.2478
 2958Sol     HW14985   2.837   1.274   2.557  0.4961  0.4589 -0.0728
 2958Sol     MW14986   2.770   1.264   2.616  0.4801  0.1746  0.7399
 2959Sol     OW14987   1.680   3.439   5.181  0.4247  0.2808 -0.5055
 2959Sol     HW14988   1.718   3.449   5.268 -0.0133  1.4670 -0.4508
 2959Sol     HW14989   1.653   3.347   5.178 -0.6008  0.5092  1.0344
 2959Sol     MW14990   1.681   3.431   5.189 -1.3759 -0.0932  0.2574
 2960Sol     OW14991   3.244   2.052   5.352  0.2265  0.5372 -0.1817
 2960Sol     HW14992   3.209   1.974   5.308 -2.9469  2.1545 -0.6947
 2960Sol     HW14993   3.205   2.125   5.305  0.7220  2.3952  2.1969
 2960Sol     MW14994   3.237   2.052   5.344 -0.3485 -0.1733 -0.1780
 2961Sol     OW14995   0.564   2.333   9.390 -0.5304  0.2186  0.2013
 2961Sol     HW14996   0.569   2.415   9.439 -0.6468  0.4089 -0.1021
 2961Sol     HW14997   0.523   2.357   9.307 -0.6788 -0.1676  0.1577
 2961Sol     MW14998   0.560   2.342   9.387 -0.2225 -0.4474  0.1804
 2962Sol     OW14999   1.134   2.625   8.651  0.2590  0.1564  0.3872
 2962Sol     HW15000   1.186   2.688   8.699  1.5179  1.7728 -2.9535
 2962Sol     HW15001   1.192   2.549   8.639 -0.0105 -0.1932  1.2751
 2962Sol     MW15002   1.143   2.624   8.654  0.7382 -0.5196  0.4835
 2963Sol     OW15003   2.934   2.401   2.325  0.0394 -0.1275  0.5230
 2963Sol     HW15004   2.864   2.380   2.387 -0.4904  2.0790  0.7286
 2963Sol     HW15005   3.015   2.380   2.372 -0.4044  0.3415  1.5067
 2963Sol     MW15006   2.935   2.398   2.335 -0.4414  0.3817 -0.3480
 2964Sol     OW15007   1.013   1.933   5.711 -0.0771  0.4289  0.3075
 2964Sol     HW15008   0.931   1.913   5.667  0.3921  0.4770 -0.5966
 2964Sol     HW15009   0.990   1.940   5.804 -1.1176  0.6188  0.0345
 2964Sol     MW15010   1.004   1.932   5.716  0.3222  0.8539  0.6548
 2965Sol     OW15011   2.359   2.247   2.136  0.4468 -0.1297 -0.0123
 2965Sol     HW15012   2.382   2.338   2.118 -1.5882  0.6258  0.9610
 2965Sol     HW15013   2.408   2.225   2.216 -0.1238  0.5805  0.5419
 2965Sol     MW15014   2.365   2.253   2.142 -0.0229  0.2565  0.4141
 2966Sol     OW15015   0.219   2.946   3.679  0.2897 -0.2335 -0.0909
 2966Sol     HW15016   0.255   2.978   3.762 -0.2369 -0.8713  0.3949
 2966Sol     HW15017   0.229   2.851   3.685  0.3099 -0.2737 -0.7891
 2966Sol     MW15018   0.223   2.940   3.687 -0.0276 -0.0715 -0.5480
 2967Sol     OW15019   2.859   0.074   8.907 -0.5981 -0.5811  0.1011
 2967Sol     HW15020   2.934   0.108   8.860 -0.9094  0.7954  0.5901
 2967Sol     HW15021   2.818   0.012   8.845  0.3465 -0.5801 -0.5326
 2967Sol     MW15022   2.862   0.071   8.897 -0.2916  0.0078 -0.0358
 2968Sol     OW15023   1.496   1.016   4.436 -0.4573 -0.1381  0.2843
 2968Sol     HW15024   1.432   1.068   4.485 -0.2053 -0.8912  1.4594
 2968Sol     HW15025   1.532   1.075   4.370 -1.9976  0.4316 -0.0438
 2968Sol     MW15026   1.494   1.026   4.435 -0.0451  0.3068  0.3203
 2969Sol     OW15027   1.675   2.474   2.272 -0.2681 -0.5814 -0.0763
 2969Sol     HW15028   1.729   2.491   2.349 -0.7986 -0.4402  0.2715
 2969Sol     HW15029   1.691   2.382   2.251 -1.7332 -1.2471  1.5023
 2969Sol     MW15030   1.681   2.467   2.277 -0.1499  0.3607 -0.6038
 2970Sol     OW15031   1.217   0.186   9.093  0.1503  0.4979 -0.0398
 2970Sol     HW15032   1.156   0.258   9.080 -0.6288  0.5471  3.5150
 2970Sol     HW15033   1.163   0.114   9.125  1.3927 -0.6668 -0.5200
 2970Sol     MW15034   1.207   0.186   9.095 -0.5628  0.0918  0.2127
 2971Sol     OW15035   1.532   0.854   5.488  0.0056  0.1670 -0.4806
 2971Sol     HW15036   1.439   0.836   5.503  0.4365 -1.2152  0.6732
 2971Sol     HW15037   1.553   0.804   5.409 -0.1475  0.1947 -0.5403
 2971Sol     MW15038   1.526   0.848   5.482  0.5315  0.0276  0.9581
 2972Sol     OW15039   2.559   3.113   5.823  0.1857 -0.0148  0.5556
 2972Sol     HW15040   2.623   3.068   5.767 -0.7130 -1.8127  0.9489
 2972Sol     HW15041   2.479   3.116   5.771 -0.1325 -0.0564  1.0374
 2972Sol     MW15042   2.558   3.109   5.813  0.1941 -0.0986 -0.4510
 2973Sol     OW15043   0.463   0.266   6.126 -0.4117  0.5925  0.1242
 2973Sol     HW15044   0.510   0.346   6.146  0.0980 -0.0067  1.3736
 2973Sol     HW15045   0.477   0.252   6.032  0.8942  1.0641  0.2433
 2973Sol     MW15046   0.468   0.272   6.119  0.2426 -0.3953  0.6373
 2974Sol     OW15047   0.755   0.443   7.223 -0.7513  0.0859 -0.0969
 2974Sol     HW15048   0.781   0.353   7.238  2.5277  0.7696 -1.2581
 2974Sol     HW15049   0.743   0.449   7.128 -0.9992  0.8799 -0.0213
 2974Sol     MW15050   0.756   0.436   7.216  0.3217 -0.0236  0.5439
 2975Sol     OW15051   0.637   2.862   8.872  0.1376  0.5957  0.1861
 2975Sol     HW15052   0.689   2.787   8.843  0.3660 -0.5903  3.5457
 2975Sol     HW15053   0.700   2.933   8.880 -0.0192  1.1357 -2.6455
 2975Sol     MW15054   0.647   2.862   8.870  0.0015 -0.7741  0.3212
 2976Sol     OW15055   1.068   2.341   2.483  0.3132 -0.2935 -0.2907
 2976Sol     HW15056   0.994   2.294   2.445 -1.0854  0.2370  1.7344
 2976Sol     HW15057   1.064   2.429   2.445 -3.5096  1.5517  3.9596
 2976Sol     MW15058   1.061   2.345   2.476  0.1262 -0.6129  0.7476
 2977Sol     OW15059   0.723   1.608   9.325 -0.6239 -0.4257  0.1023
 2977Sol     HW15060   0.810   1.620   9.364 -0.4954 -0.7702 -0.0695
 2977Sol     HW15061   0.676   1.688   9.346 -0.4743 -0.5046  0.7453
 2977Sol     MW15062   0.727   1.616   9.330  0.3838  0.1252 -0.2668
 2978Sol     OW15063   1.178   3.348   6.147 -0.1053  0.6615  0.2976
 2978Sol     HW15064   1.094   3.376   6.185 -0.1214  1.0709 -0.0341
 2978Sol     HW15065   1.195   3.263   6.187 -0.9550  0.3254 -0.0408
 2978Sol     MW15066   1.172   3.343   6.154 -0.0068 -0.5098  0.5733
 2979Sol     OW15067   2.382   2.561   3.864 -0.1479  0.1563  0.0389
 2979Sol     HW15068   2.359   2.469   3.878  0.4486  0.0845  0.5744
 2979Sol     HW15069   2.388   2.598   3.952  1.3911  0.2618 -0.1061
 2979Sol     MW15070   2.380   2.556   3.873  0.1267  0.3776 -0.6830
 2980Sol     OW15071   0.319   0.915   6.672  0.2494 -0.2992 -0.5700
 2980Sol     HW15072   0.388   0.904   6.737 -0.5381 -1.3086  0.0993
 2980Sol     HW15073   0.257   0.976   6.712  0.5595  0.3184 -1.0219
 2980Sol     MW15074   0.320   0.919   6.681 -0.1074 -0.1131  0.1797
 2981Sol     OW15075   2.964   3.343   9.375 -0.4672  0.3078 -0.1119
 2981Sol     HW15076   2.932   3.407   9.312 -0.9108 -0.2310 -0.4367
 2981Sol     HW15077   2.886   3.296   9.403 -0.2340  0.3455  0.6229
 2981Sol     MW15078   2.954   3.345   9.372 -0.0266  0.7187  0.1148
 2982Sol     OW15079   0.420   3.252   9.463  0.2067  0.7739  0.1340
 2982Sol     HW15080   0.387   3.207   9.385 -1.1973  2.0702 -0.0465
 2982Sol     HW15081   0.514   3.235   9.463 -0.1984 -1.6320 -0.2649
 2982Sol     MW15082   0.425   3.246   9.456 -0.2255  0.2028 -0.5884
 2983Sol     OW15083   0.869   0.122   6.780 -0.4229 -0.3173  0.0019
 2983Sol     HW15084   0.942   0.060   6.787 -1.3450 -1.6224 -1.8174
 2983Sol     HW15085   0.838   0.113   6.690 -1.4337  1.8318  0.1056
 2983Sol     MW15086   0.873   0.116   6.772  0.5741 -0.5364 -0.3878
 2984Sol     OW15087   0.193   1.229   8.100 -0.2834  0.1362  0.5130
 2984Sol     HW15088   0.116   1.207   8.151  1.0897 -2.3833  1.5606
 2984Sol     HW15089   0.247   1.281   8.159 -0.1477 -0.0440  0.5478
 2984Sol     MW15090   0.191   1.232   8.110 -0.4482 -0.1966 -0.0990
 2985Sol     OW15091   2.470   0.339   8.588 -0.2469 -0.0293 -0.1085
 2985Sol     HW15092   2.444   0.248   8.607  0.7923 -0.2133  0.4756
 2985Sol     HW15093   2.388   0.383   8.565 -1.0764 -0.6200  1.6156
 2985Sol     MW15094   2.460   0.334   8.588  0.1511 -0.0418 -0.1457
 2986Sol     OW15095   1.473   2.598   7.171  0.0937 -0.1215  0.3196
 2986Sol     HW15096   1.437   2.587   7.259  1.7677  0.3390  1.0780
 2986Sol     HW15097   1.556   2.550   7.173 -0.8944 -2.0319 -1.7145
 2986Sol     MW15098   1.477   2.593   7.179  0.5048  1.1329 -0.2455
 2987Sol     OW15099   0.301   1.175   7.317 -0.4158 -0.3721  0.5090
 2987Sol     HW15100   0.340   1.209   7.398  1.3203 -1.3608  0.1232
 2987Sol     HW15101   0.248   1.100   7.346 -1.0842  0.2498  0.9039
 2987Sol     MW15102   0.300   1.171   7.327  0.0649  0.1724 -0.0311
 2988Sol     OW15103   1.911   0.585   7.928  0.2692  0.8634 -0.3769
 2988Sol     HW15104   1.835   0.546   7.884 -0.5566  1.5527  0.4125
 2988Sol     HW15105   1.983   0.526   7.907 -0.5976 -0.1163 -0.6799
 2988Sol     MW15106   1.910   0.576   7.922 -0.6904  0.5509  0.1650
 2989Sol     OW15107   0.400   0.958   6.282 -0.4052  0.1229  0.0761
 2989Sol     HW15108   0.389   0.870   6.317 -1.0183  0.1462 -0.0407
 2989Sol     HW15109   0.400   0.947   6.187  1.0951  0.0772  0.0786
 2989Sol     MW15110   0.399   0.950   6.276  0.3213 -0.0219 -0.0974
 2990Sol     OW15111   0.402   0.213   3.862  0.0169 -0.1257  0.2519
 2990Sol     HW15112   0.479   0.270   3.870 -0.4140  0.3595  1.0171
 2990Sol     HW15113   0.365   0.212   3.950  1.1366 -3.1553  0.7427
 2990Sol     MW15114   0.406   0.218   3.871 -0.6245 -0.8061 -0.0516
 2991Sol     OW15115   1.196   3.379   2.726 -0.8232 -0.0897  0.7361
 2991Sol     HW15116   1.275   3.365   2.674 -1.0783  0.8801  0.0572
 2991Sol     HW15117   1.188   3.301   2.781  0.7126 -0.0977  0.9582
 2991Sol     MW15118   1.202   3.371   2.726  0.0102  0.5942  0.9386
 2992Sol     OW15119   0.997   1.825   5.334  0.0354  0.2728 -0.2262
 2992Sol     HW15120   0.901   1.823   5.332  0.0653  0.1714 -1.3347
 2992Sol     HW15121   1.018   1.910   5.373 -0.5034  0.1395  0.3693
 2992Sol     MW15122   0.990   1.833   5.338 -0.4304 -0.1144  0.0174
 2993Sol     OW15123   1.848   0.624   9.256  0.0892 -0.1299  0.4391
 2993Sol     HW15124   1.933   0.579   9.261  1.0448  1.6646  0.6040
 2993Sol     HW15125   1.843   0.655   9.166 -1.4820 -2.2748 -0.2527
 2993Sol     MW15126   1.856   0.623   9.248 -0.2446 -0.1490 -0.4690
 2994Sol     OW15127   0.495   1.426   3.918 -0.2101  0.2690  0.1930
 2994Sol     HW15128   0.480   1.351   3.861 -0.4824  0.9402 -0.6352
 2994Sol     HW15129   0.587   1.418   3.945 -0.5352 -0.9120  0.9370
 2994Sol     MW15130   0.502   1.419   3.915  0.3967 -0.5871  0.1085
 2995Sol     OW15131   2.009   2.007   4.035  0.5700  0.1533  0.5830
 2995Sol     HW15132   1.950   2.078   4.009  0.2340 -0.6715 -0.9315
 2995Sol     HW15133   2.022   2.020   4.129 -0.3447  1.5857  0.5191
 2995Sol     MW15134   2.005   2.014   4.041 -0.4730 -0.0234  0.5558
 2996Sol     OW15135   3.137   2.800   8.713 -0.2184 -0.4782 -0.1383
 2996Sol     HW15136   3.218   2.792   8.664 -0.8595  0.0752 -1.3181
 2996Sol     HW15137   3.159   2.855   8.788  0.3371  0.2941 -0.8561
 2996Sol     MW15138   3.146   2.804   8.715  0.2487  0.8191 -0.1986
 2997Sol     OW15139   0.202   0.104   7.626  0.3667 -0.5665  0.5367
 2997Sol     HW15140   0.141   0.054   7.571 -1.3861  0.9526  1.0186
 2997Sol     HW15141   0.286   0.097   7.582 -1.0093  0.6467 -2.4027
 2997Sol     MW15142   0.204   0.099   7.617  0.6349  0.3237 -0.0227
 2998Sol     OW15143   2.643   1.801   4.264  0.0100 -0.6921 -0.1988
 2998Sol     HW15144   2.643   1.726   4.323 -0.0850 -0.8071 -0.3447
 2998Sol     HW15145   2.646   1.878   4.322 -2.6447 -0.7315  0.0320
 2998Sol     MW15146   2.643   1.801   4.274  0.3529  0.2657 -0.0474
 2999Sol     OW15147   2.057   0.151   3.735 -0.1219  0.0937  0.3131
 2999Sol     HW15148   2.152   0.162   3.742 -0.1517  1.0299 -0.6776
 2999Sol     HW15149   2.023   0.184   3.818  0.5157 -1.7384  1.3485
 2999Sol     MW15150   2.062   0.155   3.743  0.1137 -0.1120 -0.0315
 3000Sol     OW15151   3.277   1.187   3.971  0.2000  0.0552  0.1847
 3000Sol     HW15152   3.235   1.246   4.033  2.5847  0.5544  1.3920
 3000Sol     HW15153   3.301   1.111   4.024  1.8658  0.2987 -0.2025
 3000Sol     MW15154   3.275   1.185   3.982  0.4823  0.3873 -0.1114
 3001Sol     OW15155   0.216   3.374   5.862  0.4402 -0.1244 -0.0698
 3001Sol     HW15156   0.230   3.454   5.912  2.0104  0.2119 -0.9897
 3001Sol     HW15157   0.261   3.390   5.779 -0.9870 -1.1759 -1.0699
 3001Sol     MW15158   0.221   3.383   5.859 -0.0673 -0.4354  0.0794
   3.33300   3.45460  11.42010
