[ moleculetype ]
; Name   nrexcl
Sil     2

[ atoms ]
;  nr  type  resnr  resid  atom  cgnr  charge    mass
1	Ob	1	Sil	Ob	1	-0.550000011920929	15.999
2	Ob	1	Sil	Ob	2	-0.550000011920929	15.999
3	Ob	1	Sil	Ob	3	-0.550000011920929	15.999
4	Ob	1	Sil	Ob	4	-0.550000011920929	15.999
5	Ob	1	Sil	Ob	5	-0.550000011920929	15.999
6	Ob	1	Sil	Ob	6	-0.550000011920929	15.999
7	Ob	1	Sil	Ob	7	-0.550000011920929	15.999
8	Ob	1	Sil	Ob	8	-0.550000011920929	15.999
9	Ob	1	Sil	Ob	9	-0.550000011920929	15.999
10	Ob	1	Sil	Ob	10	-0.550000011920929	15.999
11	Ob	1	Sil	Ob	11	-0.550000011920929	15.999
12	Ob	1	Sil	Ob	12	-0.550000011920929	15.999
13	Ob	1	Sil	Ob	13	-0.550000011920929	15.999
14	Ob	1	Sil	Ob	14	-0.550000011920929	15.999
15	Ob	1	Sil	Ob	15	-0.550000011920929	15.999
16	Ob	1	Sil	Ob	16	-0.550000011920929	15.999
17	Ob	1	Sil	Ob	17	-0.550000011920929	15.999
18	Ob	1	Sil	Ob	18	-0.550000011920929	15.999
19	Ob	1	Sil	Ob	19	-0.550000011920929	15.999
20	Ob	1	Sil	Ob	20	-0.550000011920929	15.999
21	Ob	1	Sil	Ob	21	-0.550000011920929	15.999
22	Ob	1	Sil	Ob	22	-0.550000011920929	15.999
23	Ob	1	Sil	Ob	23	-0.550000011920929	15.999
24	Ob	1	Sil	Ob	24	-0.550000011920929	15.999
25	Ob	1	Sil	Ob	25	-0.550000011920929	15.999
26	Ob	1	Sil	Ob	26	-0.550000011920929	15.999
27	Ob	1	Sil	Ob	27	-0.550000011920929	15.999
28	Ob	1	Sil	Ob	28	-0.550000011920929	15.999
29	Ob	1	Sil	Ob	29	-0.550000011920929	15.999
30	Ob	1	Sil	Ob	30	-0.550000011920929	15.999
31	Ob	1	Sil	Ob	31	-0.550000011920929	15.999
32	Ob	1	Sil	Ob	32	-0.550000011920929	15.999
33	Ob	1	Sil	Ob	33	-0.550000011920929	15.999
34	Ob	1	Sil	Ob	34	-0.550000011920929	15.999
35	Ob	1	Sil	Ob	35	-0.550000011920929	15.999
36	Ob	1	Sil	Ob	36	-0.550000011920929	15.999
37	Ob	1	Sil	Ob	37	-0.550000011920929	15.999
38	Ob	1	Sil	Ob	38	-0.550000011920929	15.999
39	Ob	1	Sil	Ob	39	-0.550000011920929	15.999
40	Ob	1	Sil	Ob	40	-0.550000011920929	15.999
41	Ob	1	Sil	Ob	41	-0.550000011920929	15.999
42	Ob	1	Sil	Ob	42	-0.550000011920929	15.999
43	Ob	1	Sil	Ob	43	-0.550000011920929	15.999
44	Ob	1	Sil	Ob	44	-0.550000011920929	15.999
45	Ob	1	Sil	Ob	45	-0.550000011920929	15.999
46	Ob	1	Sil	Ob	46	-0.550000011920929	15.999
47	Ob	1	Sil	Ob	47	-0.550000011920929	15.999
48	Ob	1	Sil	Ob	48	-0.550000011920929	15.999
49	Ob	1	Sil	Ob	49	-0.550000011920929	15.999
50	Ob	1	Sil	Ob	50	-0.550000011920929	15.999
51	Ob	1	Sil	Ob	51	-0.550000011920929	15.999
52	Ob	1	Sil	Ob	52	-0.550000011920929	15.999
53	Ob	1	Sil	Ob	53	-0.550000011920929	15.999
54	Ob	1	Sil	Ob	54	-0.550000011920929	15.999
55	Ob	1	Sil	Ob	55	-0.550000011920929	15.999
56	Ob	1	Sil	Ob	56	-0.550000011920929	15.999
57	Ob	1	Sil	Ob	57	-0.550000011920929	15.999
58	Ob	1	Sil	Ob	58	-0.550000011920929	15.999
59	Ob	1	Sil	Ob	59	-0.550000011920929	15.999
60	Ob	1	Sil	Ob	60	-0.550000011920929	15.999
61	Ob	1	Sil	Ob	61	-0.550000011920929	15.999
62	Ob	1	Sil	Ob	62	-0.550000011920929	15.999
63	Ob	1	Sil	Ob	63	-0.550000011920929	15.999
64	Ob	1	Sil	Ob	64	-0.550000011920929	15.999
65	Ob	1	Sil	Ob	65	-0.550000011920929	15.999
66	Ob	1	Sil	Ob	66	-0.550000011920929	15.999
67	Ob	1	Sil	Ob	67	-0.550000011920929	15.999
68	Ob	1	Sil	Ob	68	-0.550000011920929	15.999
69	Ob	1	Sil	Ob	69	-0.550000011920929	15.999
70	Ob	1	Sil	Ob	70	-0.550000011920929	15.999
71	Ob	1	Sil	Ob	71	-0.550000011920929	15.999
72	Ob	1	Sil	Ob	72	-0.550000011920929	15.999
73	Ob	1	Sil	Ob	73	-0.550000011920929	15.999
74	Ob	1	Sil	Ob	74	-0.550000011920929	15.999
75	Ob	1	Sil	Ob	75	-0.550000011920929	15.999
76	Ob	1	Sil	Ob	76	-0.550000011920929	15.999
77	Ob	1	Sil	Ob	77	-0.550000011920929	15.999
78	Ob	1	Sil	Ob	78	-0.550000011920929	15.999
79	Ob	1	Sil	Ob	79	-0.550000011920929	15.999
80	Ob	1	Sil	Ob	80	-0.550000011920929	15.999
81	Ob	1	Sil	Ob	81	-0.550000011920929	15.999
82	Ob	1	Sil	Ob	82	-0.550000011920929	15.999
83	Ob	1	Sil	Ob	83	-0.550000011920929	15.999
84	Ob	1	Sil	Ob	84	-0.550000011920929	15.999
85	Ob	1	Sil	Ob	85	-0.550000011920929	15.999
86	Ob	1	Sil	Ob	86	-0.550000011920929	15.999
87	Ob	1	Sil	Ob	87	-0.550000011920929	15.999
88	Ob	1	Sil	Ob	88	-0.550000011920929	15.999
89	Ob	1	Sil	Ob	89	-0.550000011920929	15.999
90	Ob	1	Sil	Ob	90	-0.550000011920929	15.999
91	Ob	1	Sil	Ob	91	-0.550000011920929	15.999
92	Ob	1	Sil	Ob	92	-0.550000011920929	15.999
93	Ob	1	Sil	Ob	93	-0.550000011920929	15.999
94	Ob	1	Sil	Ob	94	-0.550000011920929	15.999
95	Ob	1	Sil	Ob	95	-0.550000011920929	15.999
96	Ob	1	Sil	Ob	96	-0.550000011920929	15.999
97	Ob	1	Sil	Ob	97	-0.550000011920929	15.999
98	Ob	1	Sil	Ob	98	-0.550000011920929	15.999
99	Ob	1	Sil	Ob	99	-0.550000011920929	15.999
100	Ob	1	Sil	Ob	100	-0.550000011920929	15.999
101	Ob	1	Sil	Ob	101	-0.550000011920929	15.999
102	Ob	1	Sil	Ob	102	-0.550000011920929	15.999
103	Ob	1	Sil	Ob	103	-0.550000011920929	15.999
104	Ob	1	Sil	Ob	104	-0.550000011920929	15.999
105	Ob	1	Sil	Ob	105	-0.550000011920929	15.999
106	Ob	1	Sil	Ob	106	-0.550000011920929	15.999
107	Ob	1	Sil	Ob	107	-0.550000011920929	15.999
108	Ob	1	Sil	Ob	108	-0.550000011920929	15.999
109	Ob	1	Sil	Ob	109	-0.550000011920929	15.999
110	Ob	1	Sil	Ob	110	-0.550000011920929	15.999
111	Ob	1	Sil	Ob	111	-0.550000011920929	15.999
112	Ob	1	Sil	Ob	112	-0.550000011920929	15.999
113	Ob	1	Sil	Ob	113	-0.550000011920929	15.999
114	Ob	1	Sil	Ob	114	-0.550000011920929	15.999
115	Ob	1	Sil	Ob	115	-0.550000011920929	15.999
116	Ob	1	Sil	Ob	116	-0.550000011920929	15.999
117	Ob	1	Sil	Ob	117	-0.550000011920929	15.999
118	Ob	1	Sil	Ob	118	-0.550000011920929	15.999
119	Ob	1	Sil	Ob	119	-0.550000011920929	15.999
120	Ob	1	Sil	Ob	120	-0.550000011920929	15.999
121	Ob	1	Sil	Ob	121	-0.550000011920929	15.999
122	Ob	1	Sil	Ob	122	-0.550000011920929	15.999
123	Ob	1	Sil	Ob	123	-0.550000011920929	15.999
124	Ob	1	Sil	Ob	124	-0.550000011920929	15.999
125	Ob	1	Sil	Ob	125	-0.550000011920929	15.999
126	Ob	1	Sil	Ob	126	-0.550000011920929	15.999
127	Ob	1	Sil	Ob	127	-0.550000011920929	15.999
128	Ob	1	Sil	Ob	128	-0.550000011920929	15.999
129	Ob	1	Sil	Ob	129	-0.550000011920929	15.999
130	Ob	1	Sil	Ob	130	-0.550000011920929	15.999
131	Ob	1	Sil	Ob	131	-0.550000011920929	15.999
132	Ob	1	Sil	Ob	132	-0.550000011920929	15.999
133	Ob	1	Sil	Ob	133	-0.550000011920929	15.999
134	Ob	1	Sil	Ob	134	-0.550000011920929	15.999
135	Ob	1	Sil	Ob	135	-0.550000011920929	15.999
136	Ob	1	Sil	Ob	136	-0.550000011920929	15.999
137	Ob	1	Sil	Ob	137	-0.550000011920929	15.999
138	Ob	1	Sil	Ob	138	-0.550000011920929	15.999
139	Ob	1	Sil	Ob	139	-0.550000011920929	15.999
140	Ob	1	Sil	Ob	140	-0.550000011920929	15.999
141	Ob	1	Sil	Ob	141	-0.550000011920929	15.999
142	Ob	1	Sil	Ob	142	-0.550000011920929	15.999
143	Ob	1	Sil	Ob	143	-0.550000011920929	15.999
144	Ob	1	Sil	Ob	144	-0.550000011920929	15.999
145	Ob	1	Sil	Ob	145	-0.550000011920929	15.999
146	Ob	1	Sil	Ob	146	-0.550000011920929	15.999
147	Ob	1	Sil	Ob	147	-0.550000011920929	15.999
148	Ob	1	Sil	Ob	148	-0.550000011920929	15.999
149	Ob	1	Sil	Ob	149	-0.550000011920929	15.999
150	Ob	1	Sil	Ob	150	-0.550000011920929	15.999
151	Ob	1	Sil	Ob	151	-0.550000011920929	15.999
152	Ob	1	Sil	Ob	152	-0.550000011920929	15.999
153	Ob	1	Sil	Ob	153	-0.550000011920929	15.999
154	Ob	1	Sil	Ob	154	-0.550000011920929	15.999
155	Ob	1	Sil	Ob	155	-0.550000011920929	15.999
156	Ob	1	Sil	Ob	156	-0.550000011920929	15.999
157	Ob	1	Sil	Ob	157	-0.550000011920929	15.999
158	Ob	1	Sil	Ob	158	-0.550000011920929	15.999
159	Ob	1	Sil	Ob	159	-0.550000011920929	15.999
160	Ob	1	Sil	Ob	160	-0.550000011920929	15.999
161	Ob	1	Sil	Ob	161	-0.550000011920929	15.999
162	Ob	1	Sil	Ob	162	-0.550000011920929	15.999
163	Ob	1	Sil	Ob	163	-0.550000011920929	15.999
164	Ob	1	Sil	Ob	164	-0.550000011920929	15.999
165	Ob	1	Sil	Ob	165	-0.550000011920929	15.999
166	Ob	1	Sil	Ob	166	-0.550000011920929	15.999
167	Ob	1	Sil	Ob	167	-0.550000011920929	15.999
168	Ob	1	Sil	Ob	168	-0.550000011920929	15.999
169	Ob	1	Sil	Ob	169	-0.550000011920929	15.999
170	Ob	1	Sil	Ob	170	-0.550000011920929	15.999
171	Ob	1	Sil	Ob	171	-0.550000011920929	15.999
172	Ob	1	Sil	Ob	172	-0.550000011920929	15.999
173	Ob	1	Sil	Ob	173	-0.550000011920929	15.999
174	Ob	1	Sil	Ob	174	-0.550000011920929	15.999
175	Ob	1	Sil	Ob	175	-0.550000011920929	15.999
176	Ob	1	Sil	Ob	176	-0.550000011920929	15.999
177	Ob	1	Sil	Ob	177	-0.550000011920929	15.999
178	Ob	1	Sil	Ob	178	-0.550000011920929	15.999
179	Ob	1	Sil	Ob	179	-0.550000011920929	15.999
180	Ob	1	Sil	Ob	180	-0.550000011920929	15.999
181	Ob	1	Sil	Ob	181	-0.550000011920929	15.999
182	Ob	1	Sil	Ob	182	-0.550000011920929	15.999
183	Ob	1	Sil	Ob	183	-0.550000011920929	15.999
184	Ob	1	Sil	Ob	184	-0.550000011920929	15.999
185	Ob	1	Sil	Ob	185	-0.550000011920929	15.999
186	Ob	1	Sil	Ob	186	-0.550000011920929	15.999
187	Ob	1	Sil	Ob	187	-0.550000011920929	15.999
188	Ob	1	Sil	Ob	188	-0.550000011920929	15.999
189	Ob	1	Sil	Ob	189	-0.550000011920929	15.999
190	Ob	1	Sil	Ob	190	-0.550000011920929	15.999
191	Ob	1	Sil	Ob	191	-0.550000011920929	15.999
192	Ob	1	Sil	Ob	192	-0.550000011920929	15.999
193	Ob	1	Sil	Ob	193	-0.550000011920929	15.999
194	Ob	1	Sil	Ob	194	-0.550000011920929	15.999
195	Ob	1	Sil	Ob	195	-0.550000011920929	15.999
196	Ob	1	Sil	Ob	196	-0.550000011920929	15.999
197	Ob	1	Sil	Ob	197	-0.550000011920929	15.999
198	Ob	1	Sil	Ob	198	-0.550000011920929	15.999
199	Ob	1	Sil	Ob	199	-0.550000011920929	15.999
200	Ob	1	Sil	Ob	200	-0.550000011920929	15.999
201	Ob	1	Sil	Ob	201	-0.550000011920929	15.999
202	Ob	1	Sil	Ob	202	-0.550000011920929	15.999
203	Ob	1	Sil	Ob	203	-0.550000011920929	15.999
204	Ob	1	Sil	Ob	204	-0.550000011920929	15.999
205	Ob	1	Sil	Ob	205	-0.550000011920929	15.999
206	Ob	1	Sil	Ob	206	-0.550000011920929	15.999
207	Ob	1	Sil	Ob	207	-0.550000011920929	15.999
208	Ob	1	Sil	Ob	208	-0.550000011920929	15.999
209	Ob	1	Sil	Ob	209	-0.550000011920929	15.999
210	Ob	1	Sil	Ob	210	-0.550000011920929	15.999
211	Ob	1	Sil	Ob	211	-0.550000011920929	15.999
212	Ob	1	Sil	Ob	212	-0.550000011920929	15.999
213	Ob	1	Sil	Ob	213	-0.550000011920929	15.999
214	Ob	1	Sil	Ob	214	-0.550000011920929	15.999
215	Ob	1	Sil	Ob	215	-0.550000011920929	15.999
216	Ob	1	Sil	Ob	216	-0.550000011920929	15.999
217	Ob	1	Sil	Ob	217	-0.550000011920929	15.999
218	Ob	1	Sil	Ob	218	-0.550000011920929	15.999
219	Ob	1	Sil	Ob	219	-0.550000011920929	15.999
220	Ob	1	Sil	Ob	220	-0.550000011920929	15.999
221	Ob	1	Sil	Ob	221	-0.550000011920929	15.999
222	Ob	1	Sil	Ob	222	-0.550000011920929	15.999
223	Ob	1	Sil	Ob	223	-0.550000011920929	15.999
224	Ob	1	Sil	Ob	224	-0.550000011920929	15.999
225	Ob	1	Sil	Ob	225	-0.550000011920929	15.999
226	Ob	1	Sil	Ob	226	-0.550000011920929	15.999
227	Ob	1	Sil	Ob	227	-0.550000011920929	15.999
228	Ob	1	Sil	Ob	228	-0.550000011920929	15.999
229	Ob	1	Sil	Ob	229	-0.550000011920929	15.999
230	Ob	1	Sil	Ob	230	-0.550000011920929	15.999
231	Ob	1	Sil	Ob	231	-0.550000011920929	15.999
232	Ob	1	Sil	Ob	232	-0.550000011920929	15.999
233	Ob	1	Sil	Ob	233	-0.550000011920929	15.999
234	Ob	1	Sil	Ob	234	-0.550000011920929	15.999
235	Ob	1	Sil	Ob	235	-0.550000011920929	15.999
236	Ob	1	Sil	Ob	236	-0.550000011920929	15.999
237	Ob	1	Sil	Ob	237	-0.550000011920929	15.999
238	Ob	1	Sil	Ob	238	-0.550000011920929	15.999
239	Ob	1	Sil	Ob	239	-0.550000011920929	15.999
240	Ob	1	Sil	Ob	240	-0.550000011920929	15.999
241	Ob	1	Sil	Ob	241	-0.550000011920929	15.999
242	Ob	1	Sil	Ob	242	-0.550000011920929	15.999
243	Ob	1	Sil	Ob	243	-0.550000011920929	15.999
244	Ob	1	Sil	Ob	244	-0.550000011920929	15.999
245	Ob	1	Sil	Ob	245	-0.550000011920929	15.999
246	Ob	1	Sil	Ob	246	-0.550000011920929	15.999
247	Ob	1	Sil	Ob	247	-0.550000011920929	15.999
248	Ob	1	Sil	Ob	248	-0.550000011920929	15.999
249	Ob	1	Sil	Ob	249	-0.550000011920929	15.999
250	Ob	1	Sil	Ob	250	-0.550000011920929	15.999
251	Ob	1	Sil	Ob	251	-0.550000011920929	15.999
252	Ob	1	Sil	Ob	252	-0.550000011920929	15.999
253	Ob	1	Sil	Ob	253	-0.550000011920929	15.999
254	Ob	1	Sil	Ob	254	-0.550000011920929	15.999
255	Ob	1	Sil	Ob	255	-0.550000011920929	15.999
256	Ob	1	Sil	Ob	256	-0.550000011920929	15.999
257	Ob	1	Sil	Ob	257	-0.550000011920929	15.999
258	Ob	1	Sil	Ob	258	-0.550000011920929	15.999
259	Ob	1	Sil	Ob	259	-0.550000011920929	15.999
260	Ob	1	Sil	Ob	260	-0.550000011920929	15.999
261	Ob	1	Sil	Ob	261	-0.550000011920929	15.999
262	Ob	1	Sil	Ob	262	-0.550000011920929	15.999
263	Ob	1	Sil	Ob	263	-0.550000011920929	15.999
264	Ob	1	Sil	Ob	264	-0.550000011920929	15.999
265	Ob	1	Sil	Ob	265	-0.550000011920929	15.999
266	Ob	1	Sil	Ob	266	-0.550000011920929	15.999
267	Ob	1	Sil	Ob	267	-0.550000011920929	15.999
268	Ob	1	Sil	Ob	268	-0.550000011920929	15.999
269	Ob	1	Sil	Ob	269	-0.550000011920929	15.999
270	Ob	1	Sil	Ob	270	-0.550000011920929	15.999
271	Ob	1	Sil	Ob	271	-0.550000011920929	15.999
272	Ob	1	Sil	Ob	272	-0.550000011920929	15.999
273	Ob	1	Sil	Ob	273	-0.550000011920929	15.999
274	Ob	1	Sil	Ob	274	-0.550000011920929	15.999
275	Ob	1	Sil	Ob	275	-0.550000011920929	15.999
276	Ob	1	Sil	Ob	276	-0.550000011920929	15.999
277	Ob	1	Sil	Ob	277	-0.550000011920929	15.999
278	Ob	1	Sil	Ob	278	-0.550000011920929	15.999
279	Ob	1	Sil	Ob	279	-0.550000011920929	15.999
280	Ob	1	Sil	Ob	280	-0.550000011920929	15.999
281	Ob	1	Sil	Ob	281	-0.550000011920929	15.999
282	Ob	1	Sil	Ob	282	-0.550000011920929	15.999
283	Ob	1	Sil	Ob	283	-0.550000011920929	15.999
284	Ob	1	Sil	Ob	284	-0.550000011920929	15.999
285	Ob	1	Sil	Ob	285	-0.550000011920929	15.999
286	Ob	1	Sil	Ob	286	-0.550000011920929	15.999
287	Ob	1	Sil	Ob	287	-0.550000011920929	15.999
288	Ob	1	Sil	Ob	288	-0.550000011920929	15.999
289	Ob	1	Sil	Ob	289	-0.550000011920929	15.999
290	Ob	1	Sil	Ob	290	-0.550000011920929	15.999
291	Ob	1	Sil	Ob	291	-0.550000011920929	15.999
292	Ob	1	Sil	Ob	292	-0.550000011920929	15.999
293	Ob	1	Sil	Ob	293	-0.550000011920929	15.999
294	Ob	1	Sil	Ob	294	-0.550000011920929	15.999
295	Ob	1	Sil	Ob	295	-0.550000011920929	15.999
296	Ob	1	Sil	Ob	296	-0.550000011920929	15.999
297	Ob	1	Sil	Ob	297	-0.550000011920929	15.999
298	Ob	1	Sil	Ob	298	-0.550000011920929	15.999
299	Ob	1	Sil	Ob	299	-0.550000011920929	15.999
300	Ob	1	Sil	Ob	300	-0.550000011920929	15.999
301	Ob	1	Sil	Ob	301	-0.550000011920929	15.999
302	Ob	1	Sil	Ob	302	-0.550000011920929	15.999
303	Ob	1	Sil	Ob	303	-0.550000011920929	15.999
304	Ob	1	Sil	Ob	304	-0.550000011920929	15.999
305	Ob	1	Sil	Ob	305	-0.550000011920929	15.999
306	Ob	1	Sil	Ob	306	-0.550000011920929	15.999
307	Ob	1	Sil	Ob	307	-0.550000011920929	15.999
308	Ob	1	Sil	Ob	308	-0.550000011920929	15.999
309	Ob	1	Sil	Ob	309	-0.550000011920929	15.999
310	Ob	1	Sil	Ob	310	-0.550000011920929	15.999
311	Ob	1	Sil	Ob	311	-0.550000011920929	15.999
312	Ob	1	Sil	Ob	312	-0.550000011920929	15.999
313	Ob	1	Sil	Ob	313	-0.550000011920929	15.999
314	Ob	1	Sil	Ob	314	-0.550000011920929	15.999
315	Ob	1	Sil	Ob	315	-0.550000011920929	15.999
316	Ob	1	Sil	Ob	316	-0.550000011920929	15.999
317	Ob	1	Sil	Ob	317	-0.550000011920929	15.999
318	Ob	1	Sil	Ob	318	-0.550000011920929	15.999
319	Ob	1	Sil	Ob	319	-0.550000011920929	15.999
320	Ob	1	Sil	Ob	320	-0.550000011920929	15.999
321	Ob	1	Sil	Ob	321	-0.550000011920929	15.999
322	Ob	1	Sil	Ob	322	-0.550000011920929	15.999
323	Ob	1	Sil	Ob	323	-0.550000011920929	15.999
324	Ob	1	Sil	Ob	324	-0.550000011920929	15.999
325	Ob	1	Sil	Ob	325	-0.550000011920929	15.999
326	Ob	1	Sil	Ob	326	-0.550000011920929	15.999
327	Ob	1	Sil	Ob	327	-0.550000011920929	15.999
328	Ob	1	Sil	Ob	328	-0.550000011920929	15.999
329	Ob	1	Sil	Ob	329	-0.550000011920929	15.999
330	Ob	1	Sil	Ob	330	-0.550000011920929	15.999
331	Ob	1	Sil	Ob	331	-0.550000011920929	15.999
332	Ob	1	Sil	Ob	332	-0.550000011920929	15.999
333	Ob	1	Sil	Ob	333	-0.550000011920929	15.999
334	Ob	1	Sil	Ob	334	-0.550000011920929	15.999
335	Ob	1	Sil	Ob	335	-0.550000011920929	15.999
336	Ob	1	Sil	Ob	336	-0.550000011920929	15.999
337	Ob	1	Sil	Ob	337	-0.550000011920929	15.999
338	Ob	1	Sil	Ob	338	-0.550000011920929	15.999
339	Ob	1	Sil	Ob	339	-0.550000011920929	15.999
340	Ob	1	Sil	Ob	340	-0.550000011920929	15.999
341	Ob	1	Sil	Ob	341	-0.550000011920929	15.999
342	Ob	1	Sil	Ob	342	-0.550000011920929	15.999
343	Ob	1	Sil	Ob	343	-0.550000011920929	15.999
344	Ob	1	Sil	Ob	344	-0.550000011920929	15.999
345	Ob	1	Sil	Ob	345	-0.550000011920929	15.999
346	Ob	1	Sil	Ob	346	-0.550000011920929	15.999
347	Ob	1	Sil	Ob	347	-0.550000011920929	15.999
348	Ob	1	Sil	Ob	348	-0.550000011920929	15.999
349	Ob	1	Sil	Ob	349	-0.550000011920929	15.999
350	Ob	1	Sil	Ob	350	-0.550000011920929	15.999
351	Ob	1	Sil	Ob	351	-0.550000011920929	15.999
352	Ob	1	Sil	Ob	352	-0.550000011920929	15.999
353	Ob	1	Sil	Ob	353	-0.550000011920929	15.999
354	Ob	1	Sil	Ob	354	-0.550000011920929	15.999
355	Ob	1	Sil	Ob	355	-0.550000011920929	15.999
356	Ob	1	Sil	Ob	356	-0.550000011920929	15.999
357	Ob	1	Sil	Ob	357	-0.550000011920929	15.999
358	Ob	1	Sil	Ob	358	-0.550000011920929	15.999
359	Ob	1	Sil	Ob	359	-0.550000011920929	15.999
360	Ob	1	Sil	Ob	360	-0.550000011920929	15.999
361	Ob	1	Sil	Ob	361	-0.550000011920929	15.999
362	Ob	1	Sil	Ob	362	-0.550000011920929	15.999
363	Ob	1	Sil	Ob	363	-0.550000011920929	15.999
364	Ob	1	Sil	Ob	364	-0.550000011920929	15.999
365	Ob	1	Sil	Ob	365	-0.550000011920929	15.999
366	Ob	1	Sil	Ob	366	-0.550000011920929	15.999
367	Ob	1	Sil	Ob	367	-0.550000011920929	15.999
368	Ob	1	Sil	Ob	368	-0.550000011920929	15.999
369	Ob	1	Sil	Ob	369	-0.550000011920929	15.999
370	Ob	1	Sil	Ob	370	-0.550000011920929	15.999
371	Ob	1	Sil	Ob	371	-0.550000011920929	15.999
372	Ob	1	Sil	Ob	372	-0.550000011920929	15.999
373	Ob	1	Sil	Ob	373	-0.550000011920929	15.999
374	Ob	1	Sil	Ob	374	-0.550000011920929	15.999
375	Ob	1	Sil	Ob	375	-0.550000011920929	15.999
376	Ob	1	Sil	Ob	376	-0.550000011920929	15.999
377	Ob	1	Sil	Ob	377	-0.550000011920929	15.999
378	Ob	1	Sil	Ob	378	-0.550000011920929	15.999
379	Ob	1	Sil	Ob	379	-0.550000011920929	15.999
380	Ob	1	Sil	Ob	380	-0.550000011920929	15.999
381	Ob	1	Sil	Ob	381	-0.550000011920929	15.999
382	Ob	1	Sil	Ob	382	-0.550000011920929	15.999
383	Ob	1	Sil	Ob	383	-0.550000011920929	15.999
384	Ob	1	Sil	Ob	384	-0.550000011920929	15.999
385	Ob	1	Sil	Ob	385	-0.550000011920929	15.999
386	Ob	1	Sil	Ob	386	-0.550000011920929	15.999
387	Ob	1	Sil	Ob	387	-0.550000011920929	15.999
388	Ob	1	Sil	Ob	388	-0.550000011920929	15.999
389	Ob	1	Sil	Ob	389	-0.550000011920929	15.999
390	Ob	1	Sil	Ob	390	-0.550000011920929	15.999
391	Ob	1	Sil	Ob	391	-0.550000011920929	15.999
392	Ob	1	Sil	Ob	392	-0.550000011920929	15.999
393	Ob	1	Sil	Ob	393	-0.550000011920929	15.999
394	Ob	1	Sil	Ob	394	-0.550000011920929	15.999
395	Ob	1	Sil	Ob	395	-0.550000011920929	15.999
396	Ob	1	Sil	Ob	396	-0.550000011920929	15.999
397	Ob	1	Sil	Ob	397	-0.550000011920929	15.999
398	Ob	1	Sil	Ob	398	-0.550000011920929	15.999
399	Ob	1	Sil	Ob	399	-0.550000011920929	15.999
400	Ob	1	Sil	Ob	400	-0.550000011920929	15.999
401	Ob	1	Sil	Ob	401	-0.550000011920929	15.999
402	Ob	1	Sil	Ob	402	-0.550000011920929	15.999
403	Ob	1	Sil	Ob	403	-0.550000011920929	15.999
404	Ob	1	Sil	Ob	404	-0.550000011920929	15.999
405	Ob	1	Sil	Ob	405	-0.550000011920929	15.999
406	Ob	1	Sil	Ob	406	-0.550000011920929	15.999
407	Ob	1	Sil	Ob	407	-0.550000011920929	15.999
408	Ob	1	Sil	Ob	408	-0.550000011920929	15.999
409	Ob	1	Sil	Ob	409	-0.550000011920929	15.999
410	Ob	1	Sil	Ob	410	-0.550000011920929	15.999
411	Ob	1	Sil	Ob	411	-0.550000011920929	15.999
412	Ob	1	Sil	Ob	412	-0.550000011920929	15.999
413	Ob	1	Sil	Ob	413	-0.550000011920929	15.999
414	Ob	1	Sil	Ob	414	-0.550000011920929	15.999
415	Ob	1	Sil	Ob	415	-0.550000011920929	15.999
416	Ob	1	Sil	Ob	416	-0.550000011920929	15.999
417	Ob	1	Sil	Ob	417	-0.550000011920929	15.999
418	Ob	1	Sil	Ob	418	-0.550000011920929	15.999
419	Ob	1	Sil	Ob	419	-0.550000011920929	15.999
420	Ob	1	Sil	Ob	420	-0.550000011920929	15.999
421	Ob	1	Sil	Ob	421	-0.550000011920929	15.999
422	Ob	1	Sil	Ob	422	-0.550000011920929	15.999
423	Ob	1	Sil	Ob	423	-0.550000011920929	15.999
424	Ob	1	Sil	Ob	424	-0.550000011920929	15.999
425	Ob	1	Sil	Ob	425	-0.550000011920929	15.999
426	Ob	1	Sil	Ob	426	-0.550000011920929	15.999
427	Ob	1	Sil	Ob	427	-0.550000011920929	15.999
428	Ob	1	Sil	Ob	428	-0.550000011920929	15.999
429	Ob	1	Sil	Ob	429	-0.550000011920929	15.999
430	Ob	1	Sil	Ob	430	-0.550000011920929	15.999
431	Ob	1	Sil	Ob	431	-0.550000011920929	15.999
432	Ob	1	Sil	Ob	432	-0.550000011920929	15.999
433	Ob	1	Sil	Ob	433	-0.550000011920929	15.999
434	Ob	1	Sil	Ob	434	-0.550000011920929	15.999
435	Ob	1	Sil	Ob	435	-0.550000011920929	15.999
436	Ob	1	Sil	Ob	436	-0.550000011920929	15.999
437	Ob	1	Sil	Ob	437	-0.550000011920929	15.999
438	Ob	1	Sil	Ob	438	-0.550000011920929	15.999
439	Ob	1	Sil	Ob	439	-0.550000011920929	15.999
440	Ob	1	Sil	Ob	440	-0.550000011920929	15.999
441	Ob	1	Sil	Ob	441	-0.550000011920929	15.999
442	Ob	1	Sil	Ob	442	-0.550000011920929	15.999
443	Ob	1	Sil	Ob	443	-0.550000011920929	15.999
444	Ob	1	Sil	Ob	444	-0.550000011920929	15.999
445	Ob	1	Sil	Ob	445	-0.550000011920929	15.999
446	Ob	1	Sil	Ob	446	-0.550000011920929	15.999
447	Ob	1	Sil	Ob	447	-0.550000011920929	15.999
448	Ob	1	Sil	Ob	448	-0.550000011920929	15.999
449	Ob	1	Sil	Ob	449	-0.550000011920929	15.999
450	Ob	1	Sil	Ob	450	-0.550000011920929	15.999
451	Ob	1	Sil	Ob	451	-0.550000011920929	15.999
452	Ob	1	Sil	Ob	452	-0.550000011920929	15.999
453	Ob	1	Sil	Ob	453	-0.550000011920929	15.999
454	Ob	1	Sil	Ob	454	-0.550000011920929	15.999
455	Ob	1	Sil	Ob	455	-0.550000011920929	15.999
456	Ob	1	Sil	Ob	456	-0.550000011920929	15.999
457	Ob	1	Sil	Ob	457	-0.550000011920929	15.999
458	Ob	1	Sil	Ob	458	-0.550000011920929	15.999
459	Ob	1	Sil	Ob	459	-0.550000011920929	15.999
460	Ob	1	Sil	Ob	460	-0.550000011920929	15.999
461	Ob	1	Sil	Ob	461	-0.550000011920929	15.999
462	Ob	1	Sil	Ob	462	-0.550000011920929	15.999
463	Ob	1	Sil	Ob	463	-0.550000011920929	15.999
464	Ob	1	Sil	Ob	464	-0.550000011920929	15.999
465	Ob	1	Sil	Ob	465	-0.550000011920929	15.999
466	Ob	1	Sil	Ob	466	-0.550000011920929	15.999
467	Ob	1	Sil	Ob	467	-0.550000011920929	15.999
468	Ob	1	Sil	Ob	468	-0.550000011920929	15.999
469	Ob	1	Sil	Ob	469	-0.550000011920929	15.999
470	Ob	1	Sil	Ob	470	-0.550000011920929	15.999
471	Ob	1	Sil	Ob	471	-0.550000011920929	15.999
472	Ob	1	Sil	Ob	472	-0.550000011920929	15.999
473	Ob	1	Sil	Ob	473	-0.550000011920929	15.999
474	Ob	1	Sil	Ob	474	-0.550000011920929	15.999
475	Ob	1	Sil	Ob	475	-0.550000011920929	15.999
476	Ob	1	Sil	Ob	476	-0.550000011920929	15.999
477	Ob	1	Sil	Ob	477	-0.550000011920929	15.999
478	Ob	1	Sil	Ob	478	-0.550000011920929	15.999
479	Ob	1	Sil	Ob	479	-0.550000011920929	15.999
480	Ob	1	Sil	Ob	480	-0.550000011920929	15.999
481	Ob	1	Sil	Ob	481	-0.550000011920929	15.999
482	Ob	1	Sil	Ob	482	-0.550000011920929	15.999
483	Ob	1	Sil	Ob	483	-0.550000011920929	15.999
484	Ob	1	Sil	Ob	484	-0.550000011920929	15.999
485	Ob	1	Sil	Ob	485	-0.550000011920929	15.999
486	Ob	1	Sil	Ob	486	-0.550000011920929	15.999
487	Ob	1	Sil	Ob	487	-0.550000011920929	15.999
488	Ob	1	Sil	Ob	488	-0.550000011920929	15.999
489	Ob	1	Sil	Ob	489	-0.550000011920929	15.999
490	Ob	1	Sil	Ob	490	-0.550000011920929	15.999
491	Ob	1	Sil	Ob	491	-0.550000011920929	15.999
492	Ob	1	Sil	Ob	492	-0.550000011920929	15.999
493	Ob	1	Sil	Ob	493	-0.550000011920929	15.999
494	Ob	1	Sil	Ob	494	-0.550000011920929	15.999
495	Ob	1	Sil	Ob	495	-0.550000011920929	15.999
496	Ob	1	Sil	Ob	496	-0.550000011920929	15.999
497	Ob	1	Sil	Ob	497	-0.550000011920929	15.999
498	Ob	1	Sil	Ob	498	-0.550000011920929	15.999
499	Ob	1	Sil	Ob	499	-0.550000011920929	15.999
500	Ob	1	Sil	Ob	500	-0.550000011920929	15.999
501	Ob	1	Sil	Ob	501	-0.550000011920929	15.999
502	Ob	1	Sil	Ob	502	-0.550000011920929	15.999
503	Ob	1	Sil	Ob	503	-0.550000011920929	15.999
504	Ob	1	Sil	Ob	504	-0.550000011920929	15.999
505	Ob	1	Sil	Ob	505	-0.550000011920929	15.999
506	Ob	1	Sil	Ob	506	-0.550000011920929	15.999
507	Ob	1	Sil	Ob	507	-0.550000011920929	15.999
508	Ob	1	Sil	Ob	508	-0.550000011920929	15.999
509	Ob	1	Sil	Ob	509	-0.550000011920929	15.999
510	Ob	1	Sil	Ob	510	-0.550000011920929	15.999
511	Ob	1	Sil	Ob	511	-0.550000011920929	15.999
512	Ob	1	Sil	Ob	512	-0.550000011920929	15.999
513	Ob	1	Sil	Ob	513	-0.550000011920929	15.999
514	Ob	1	Sil	Ob	514	-0.550000011920929	15.999
515	Ob	1	Sil	Ob	515	-0.550000011920929	15.999
516	Ob	1	Sil	Ob	516	-0.550000011920929	15.999
517	Ob	1	Sil	Ob	517	-0.550000011920929	15.999
518	Ob	1	Sil	Ob	518	-0.550000011920929	15.999
519	Ob	1	Sil	Ob	519	-0.550000011920929	15.999
520	Ob	1	Sil	Ob	520	-0.550000011920929	15.999
521	Ob	1	Sil	Ob	521	-0.550000011920929	15.999
522	Ob	1	Sil	Ob	522	-0.550000011920929	15.999
523	Ob	1	Sil	Ob	523	-0.550000011920929	15.999
524	Ob	1	Sil	Ob	524	-0.550000011920929	15.999
525	Ob	1	Sil	Ob	525	-0.550000011920929	15.999
526	Ob	1	Sil	Ob	526	-0.550000011920929	15.999
527	Ob	1	Sil	Ob	527	-0.550000011920929	15.999
528	Ob	1	Sil	Ob	528	-0.550000011920929	15.999
529	Ob	1	Sil	Ob	529	-0.550000011920929	15.999
530	Ob	1	Sil	Ob	530	-0.550000011920929	15.999
531	Ob	1	Sil	Ob	531	-0.550000011920929	15.999
532	Ob	1	Sil	Ob	532	-0.550000011920929	15.999
533	Ob	1	Sil	Ob	533	-0.550000011920929	15.999
534	Ob	1	Sil	Ob	534	-0.550000011920929	15.999
535	Ob	1	Sil	Ob	535	-0.550000011920929	15.999
536	Ob	1	Sil	Ob	536	-0.550000011920929	15.999
537	Ob	1	Sil	Ob	537	-0.550000011920929	15.999
538	Ob	1	Sil	Ob	538	-0.550000011920929	15.999
539	Ob	1	Sil	Ob	539	-0.550000011920929	15.999
540	Ob	1	Sil	Ob	540	-0.550000011920929	15.999
541	Ob	1	Sil	Ob	541	-0.550000011920929	15.999
542	Ob	1	Sil	Ob	542	-0.550000011920929	15.999
543	Ob	1	Sil	Ob	543	-0.550000011920929	15.999
544	Ob	1	Sil	Ob	544	-0.550000011920929	15.999
545	Ob	1	Sil	Ob	545	-0.550000011920929	15.999
546	Ob	1	Sil	Ob	546	-0.550000011920929	15.999
547	Ob	1	Sil	Ob	547	-0.550000011920929	15.999
548	Ob	1	Sil	Ob	548	-0.550000011920929	15.999
549	Ob	1	Sil	Ob	549	-0.550000011920929	15.999
550	Ob	1	Sil	Ob	550	-0.550000011920929	15.999
551	Ob	1	Sil	Ob	551	-0.550000011920929	15.999
552	Ob	1	Sil	Ob	552	-0.550000011920929	15.999
553	Ob	1	Sil	Ob	553	-0.550000011920929	15.999
554	Ob	1	Sil	Ob	554	-0.550000011920929	15.999
555	Ob	1	Sil	Ob	555	-0.550000011920929	15.999
556	Ob	1	Sil	Ob	556	-0.550000011920929	15.999
557	Ob	1	Sil	Ob	557	-0.550000011920929	15.999
558	Ob	1	Sil	Ob	558	-0.550000011920929	15.999
559	Ob	1	Sil	Ob	559	-0.550000011920929	15.999
560	Ob	1	Sil	Ob	560	-0.550000011920929	15.999
561	Ob	1	Sil	Ob	561	-0.550000011920929	15.999
562	Ob	1	Sil	Ob	562	-0.550000011920929	15.999
563	Ob	1	Sil	Ob	563	-0.550000011920929	15.999
564	Ob	1	Sil	Ob	564	-0.550000011920929	15.999
565	Ob	1	Sil	Ob	565	-0.550000011920929	15.999
566	Ob	1	Sil	Ob	566	-0.550000011920929	15.999
567	Ob	1	Sil	Ob	567	-0.550000011920929	15.999
568	Ob	1	Sil	Ob	568	-0.550000011920929	15.999
569	Ob	1	Sil	Ob	569	-0.550000011920929	15.999
570	Ob	1	Sil	Ob	570	-0.550000011920929	15.999
571	Ob	1	Sil	Ob	571	-0.550000011920929	15.999
572	Ob	1	Sil	Ob	572	-0.550000011920929	15.999
573	Ob	1	Sil	Ob	573	-0.550000011920929	15.999
574	Ob	1	Sil	Ob	574	-0.550000011920929	15.999
575	Ob	1	Sil	Ob	575	-0.550000011920929	15.999
576	Ob	1	Sil	Ob	576	-0.550000011920929	15.999
577	Ob	1	Sil	Ob	577	-0.550000011920929	15.999
578	Ob	1	Sil	Ob	578	-0.550000011920929	15.999
579	Ob	1	Sil	Ob	579	-0.550000011920929	15.999
580	Ob	1	Sil	Ob	580	-0.550000011920929	15.999
581	Ob	1	Sil	Ob	581	-0.550000011920929	15.999
582	Ob	1	Sil	Ob	582	-0.550000011920929	15.999
583	Ob	1	Sil	Ob	583	-0.550000011920929	15.999
584	Ob	1	Sil	Ob	584	-0.550000011920929	15.999
585	Ob	1	Sil	Ob	585	-0.550000011920929	15.999
586	Ob	1	Sil	Ob	586	-0.550000011920929	15.999
587	Ob	1	Sil	Ob	587	-0.550000011920929	15.999
588	Ob	1	Sil	Ob	588	-0.550000011920929	15.999
589	Ob	1	Sil	Ob	589	-0.550000011920929	15.999
590	Ob	1	Sil	Ob	590	-0.550000011920929	15.999
591	Ob	1	Sil	Ob	591	-0.550000011920929	15.999
592	Ob	1	Sil	Ob	592	-0.550000011920929	15.999
593	Ob	1	Sil	Ob	593	-0.550000011920929	15.999
594	Ob	1	Sil	Ob	594	-0.550000011920929	15.999
595	Ob	1	Sil	Ob	595	-0.550000011920929	15.999
596	Ob	1	Sil	Ob	596	-0.550000011920929	15.999
597	Ob	1	Sil	Ob	597	-0.550000011920929	15.999
598	Ob	1	Sil	Ob	598	-0.550000011920929	15.999
599	Ob	1	Sil	Ob	599	-0.550000011920929	15.999
600	Ob	1	Sil	Ob	600	-0.550000011920929	15.999
601	Ob	1	Sil	Ob	601	-0.550000011920929	15.999
602	Ob	1	Sil	Ob	602	-0.550000011920929	15.999
603	Ob	1	Sil	Ob	603	-0.550000011920929	15.999
604	Ob	1	Sil	Ob	604	-0.550000011920929	15.999
605	Ob	1	Sil	Ob	605	-0.550000011920929	15.999
606	Ob	1	Sil	Ob	606	-0.550000011920929	15.999
607	Ob	1	Sil	Ob	607	-0.550000011920929	15.999
608	Ob	1	Sil	Ob	608	-0.550000011920929	15.999
609	Ob	1	Sil	Ob	609	-0.550000011920929	15.999
610	Ob	1	Sil	Ob	610	-0.550000011920929	15.999
611	Ob	1	Sil	Ob	611	-0.550000011920929	15.999
612	Ob	1	Sil	Ob	612	-0.550000011920929	15.999
613	Ob	1	Sil	Ob	613	-0.550000011920929	15.999
614	Ob	1	Sil	Ob	614	-0.550000011920929	15.999
615	Ob	1	Sil	Ob	615	-0.550000011920929	15.999
616	Ob	1	Sil	Ob	616	-0.550000011920929	15.999
617	Ob	1	Sil	Ob	617	-0.550000011920929	15.999
618	Ob	1	Sil	Ob	618	-0.550000011920929	15.999
619	Ob	1	Sil	Ob	619	-0.550000011920929	15.999
620	Ob	1	Sil	Ob	620	-0.550000011920929	15.999
621	Ob	1	Sil	Ob	621	-0.550000011920929	15.999
622	Ob	1	Sil	Ob	622	-0.550000011920929	15.999
623	Ob	1	Sil	Ob	623	-0.550000011920929	15.999
624	Ob	1	Sil	Ob	624	-0.550000011920929	15.999
625	Ob	1	Sil	Ob	625	-0.550000011920929	15.999
626	Ob	1	Sil	Ob	626	-0.550000011920929	15.999
627	Ob	1	Sil	Ob	627	-0.550000011920929	15.999
628	Ob	1	Sil	Ob	628	-0.550000011920929	15.999
629	Ob	1	Sil	Ob	629	-0.550000011920929	15.999
630	Ob	1	Sil	Ob	630	-0.550000011920929	15.999
631	Ob	1	Sil	Ob	631	-0.550000011920929	15.999
632	Ob	1	Sil	Ob	632	-0.550000011920929	15.999
633	Ob	1	Sil	Ob	633	-0.550000011920929	15.999
634	Ob	1	Sil	Ob	634	-0.550000011920929	15.999
635	Ob	1	Sil	Ob	635	-0.550000011920929	15.999
636	Ob	1	Sil	Ob	636	-0.550000011920929	15.999
637	Ob	1	Sil	Ob	637	-0.550000011920929	15.999
638	Ob	1	Sil	Ob	638	-0.550000011920929	15.999
639	Ob	1	Sil	Ob	639	-0.550000011920929	15.999
640	Ob	1	Sil	Ob	640	-0.550000011920929	15.999
641	Ob	1	Sil	Ob	641	-0.550000011920929	15.999
642	Ob	1	Sil	Ob	642	-0.550000011920929	15.999
643	Ob	1	Sil	Ob	643	-0.550000011920929	15.999
644	Ob	1	Sil	Ob	644	-0.550000011920929	15.999
645	Ob	1	Sil	Ob	645	-0.550000011920929	15.999
646	Ob	1	Sil	Ob	646	-0.550000011920929	15.999
647	Ob	1	Sil	Ob	647	-0.550000011920929	15.999
648	Ob	1	Sil	Ob	648	-0.550000011920929	15.999
649	Ob	1	Sil	Ob	649	-0.550000011920929	15.999
650	Ob	1	Sil	Ob	650	-0.550000011920929	15.999
651	Ob	1	Sil	Ob	651	-0.550000011920929	15.999
652	Ob	1	Sil	Ob	652	-0.550000011920929	15.999
653	Ob	1	Sil	Ob	653	-0.550000011920929	15.999
654	Ob	1	Sil	Ob	654	-0.550000011920929	15.999
655	Ob	1	Sil	Ob	655	-0.550000011920929	15.999
656	Ob	1	Sil	Ob	656	-0.550000011920929	15.999
657	Ob	1	Sil	Ob	657	-0.550000011920929	15.999
658	Ob	1	Sil	Ob	658	-0.550000011920929	15.999
659	Ob	1	Sil	Ob	659	-0.550000011920929	15.999
660	Ob	1	Sil	Ob	660	-0.550000011920929	15.999
661	Ob	1	Sil	Ob	661	-0.550000011920929	15.999
662	Ob	1	Sil	Ob	662	-0.550000011920929	15.999
663	Ob	1	Sil	Ob	663	-0.550000011920929	15.999
664	Ob	1	Sil	Ob	664	-0.550000011920929	15.999
665	Ob	1	Sil	Ob	665	-0.550000011920929	15.999
666	Ob	1	Sil	Ob	666	-0.550000011920929	15.999
667	Ob	1	Sil	Ob	667	-0.550000011920929	15.999
668	Ob	1	Sil	Ob	668	-0.550000011920929	15.999
669	Ob	1	Sil	Ob	669	-0.550000011920929	15.999
670	Ob	1	Sil	Ob	670	-0.550000011920929	15.999
671	Ob	1	Sil	Ob	671	-0.550000011920929	15.999
672	Ob	1	Sil	Ob	672	-0.550000011920929	15.999
673	Ob	1	Sil	Ob	673	-0.550000011920929	15.999
674	Ob	1	Sil	Ob	674	-0.550000011920929	15.999
675	Ob	1	Sil	Ob	675	-0.550000011920929	15.999
676	Ob	1	Sil	Ob	676	-0.550000011920929	15.999
677	Ob	1	Sil	Ob	677	-0.550000011920929	15.999
678	Ob	1	Sil	Ob	678	-0.550000011920929	15.999
679	Ob	1	Sil	Ob	679	-0.550000011920929	15.999
680	Ob	1	Sil	Ob	680	-0.550000011920929	15.999
681	Ob	1	Sil	Ob	681	-0.550000011920929	15.999
682	Ob	1	Sil	Ob	682	-0.550000011920929	15.999
683	Ob	1	Sil	Ob	683	-0.550000011920929	15.999
684	Ob	1	Sil	Ob	684	-0.550000011920929	15.999
685	Ob	1	Sil	Ob	685	-0.550000011920929	15.999
686	Ob	1	Sil	Ob	686	-0.550000011920929	15.999
687	Ob	1	Sil	Ob	687	-0.550000011920929	15.999
688	Ob	1	Sil	Ob	688	-0.550000011920929	15.999
689	Ob	1	Sil	Ob	689	-0.550000011920929	15.999
690	Ob	1	Sil	Ob	690	-0.550000011920929	15.999
691	Ob	1	Sil	Ob	691	-0.550000011920929	15.999
692	Ob	1	Sil	Ob	692	-0.550000011920929	15.999
693	Ob	1	Sil	Ob	693	-0.550000011920929	15.999
694	Ob	1	Sil	Ob	694	-0.550000011920929	15.999
695	Ob	1	Sil	Ob	695	-0.550000011920929	15.999
696	Ob	1	Sil	Ob	696	-0.550000011920929	15.999
697	Ob	1	Sil	Ob	697	-0.550000011920929	15.999
698	Ob	1	Sil	Ob	698	-0.550000011920929	15.999
699	Ob	1	Sil	Ob	699	-0.550000011920929	15.999
700	Ob	1	Sil	Ob	700	-0.550000011920929	15.999
701	Ob	1	Sil	Ob	701	-0.550000011920929	15.999
702	Ob	1	Sil	Ob	702	-0.550000011920929	15.999
703	Ob	1	Sil	Ob	703	-0.550000011920929	15.999
704	Ob	1	Sil	Ob	704	-0.550000011920929	15.999
705	Ob	1	Sil	Ob	705	-0.550000011920929	15.999
706	Ob	1	Sil	Ob	706	-0.550000011920929	15.999
707	Ob	1	Sil	Ob	707	-0.550000011920929	15.999
708	Ob	1	Sil	Ob	708	-0.550000011920929	15.999
709	Ob	1	Sil	Ob	709	-0.550000011920929	15.999
710	Ob	1	Sil	Ob	710	-0.550000011920929	15.999
711	Ob	1	Sil	Ob	711	-0.550000011920929	15.999
712	Ob	1	Sil	Ob	712	-0.550000011920929	15.999
713	Ob	1	Sil	Ob	713	-0.550000011920929	15.999
714	Ob	1	Sil	Ob	714	-0.550000011920929	15.999
715	Ob	1	Sil	Ob	715	-0.550000011920929	15.999
716	Ob	1	Sil	Ob	716	-0.550000011920929	15.999
717	Ob	1	Sil	Ob	717	-0.550000011920929	15.999
718	Ob	1	Sil	Ob	718	-0.550000011920929	15.999
719	Ob	1	Sil	Ob	719	-0.550000011920929	15.999
720	Ob	1	Sil	Ob	720	-0.550000011920929	15.999
721	Ob	1	Sil	Ob	721	-0.550000011920929	15.999
722	Ob	1	Sil	Ob	722	-0.550000011920929	15.999
723	Ob	1	Sil	Ob	723	-0.550000011920929	15.999
724	Ob	1	Sil	Ob	724	-0.550000011920929	15.999
725	Ob	1	Sil	Ob	725	-0.550000011920929	15.999
726	Ob	1	Sil	Ob	726	-0.550000011920929	15.999
727	Ob	1	Sil	Ob	727	-0.550000011920929	15.999
728	Ob	1	Sil	Ob	728	-0.550000011920929	15.999
729	Ob	1	Sil	Ob	729	-0.550000011920929	15.999
730	Ob	1	Sil	Ob	730	-0.550000011920929	15.999
731	Ob	1	Sil	Ob	731	-0.550000011920929	15.999
732	Ob	1	Sil	Ob	732	-0.550000011920929	15.999
733	Ob	1	Sil	Ob	733	-0.550000011920929	15.999
734	Ob	1	Sil	Ob	734	-0.550000011920929	15.999
735	Ob	1	Sil	Ob	735	-0.550000011920929	15.999
736	Ob	1	Sil	Ob	736	-0.550000011920929	15.999
737	Ob	1	Sil	Ob	737	-0.550000011920929	15.999
738	Ob	1	Sil	Ob	738	-0.550000011920929	15.999
739	Ob	1	Sil	Ob	739	-0.550000011920929	15.999
740	Ob	1	Sil	Ob	740	-0.550000011920929	15.999
741	Ob	1	Sil	Ob	741	-0.550000011920929	15.999
742	Ob	1	Sil	Ob	742	-0.550000011920929	15.999
743	Ob	1	Sil	Ob	743	-0.550000011920929	15.999
744	Ob	1	Sil	Ob	744	-0.550000011920929	15.999
745	Ob	1	Sil	Ob	745	-0.550000011920929	15.999
746	Ob	1	Sil	Ob	746	-0.550000011920929	15.999
747	Ob	1	Sil	Ob	747	-0.550000011920929	15.999
748	Ob	1	Sil	Ob	748	-0.550000011920929	15.999
749	Ob	1	Sil	Ob	749	-0.550000011920929	15.999
750	Ob	1	Sil	Ob	750	-0.550000011920929	15.999
751	Ob	1	Sil	Ob	751	-0.550000011920929	15.999
752	Ob	1	Sil	Ob	752	-0.550000011920929	15.999
753	Ob	1	Sil	Ob	753	-0.550000011920929	15.999
754	Ob	1	Sil	Ob	754	-0.550000011920929	15.999
755	Ob	1	Sil	Ob	755	-0.550000011920929	15.999
756	Ob	1	Sil	Ob	756	-0.550000011920929	15.999
757	Ob	1	Sil	Ob	757	-0.550000011920929	15.999
758	Ob	1	Sil	Ob	758	-0.550000011920929	15.999
759	Ob	1	Sil	Ob	759	-0.550000011920929	15.999
760	Ob	1	Sil	Ob	760	-0.550000011920929	15.999
761	Ob	1	Sil	Ob	761	-0.550000011920929	15.999
762	Ob	1	Sil	Ob	762	-0.550000011920929	15.999
763	Ob	1	Sil	Ob	763	-0.550000011920929	15.999
764	Ob	1	Sil	Ob	764	-0.550000011920929	15.999
765	Ob	1	Sil	Ob	765	-0.550000011920929	15.999
766	Ob	1	Sil	Ob	766	-0.550000011920929	15.999
767	Ob	1	Sil	Ob	767	-0.550000011920929	15.999
768	Ob	1	Sil	Ob	768	-0.550000011920929	15.999
769	Ob	1	Sil	Ob	769	-0.550000011920929	15.999
770	Ob	1	Sil	Ob	770	-0.550000011920929	15.999
771	Ob	1	Sil	Ob	771	-0.550000011920929	15.999
772	Ob	1	Sil	Ob	772	-0.550000011920929	15.999
773	Ob	1	Sil	Ob	773	-0.550000011920929	15.999
774	Ob	1	Sil	Ob	774	-0.550000011920929	15.999
775	Ob	1	Sil	Ob	775	-0.550000011920929	15.999
776	Ob	1	Sil	Ob	776	-0.550000011920929	15.999
777	Ob	1	Sil	Ob	777	-0.550000011920929	15.999
778	Ob	1	Sil	Ob	778	-0.550000011920929	15.999
779	Ob	1	Sil	Ob	779	-0.550000011920929	15.999
780	Ob	1	Sil	Ob	780	-0.550000011920929	15.999
781	Ob	1	Sil	Ob	781	-0.550000011920929	15.999
782	Ob	1	Sil	Ob	782	-0.550000011920929	15.999
783	Ob	1	Sil	Ob	783	-0.550000011920929	15.999
784	Ob	1	Sil	Ob	784	-0.550000011920929	15.999
785	Ob	1	Sil	Ob	785	-0.550000011920929	15.999
786	Ob	1	Sil	Ob	786	-0.550000011920929	15.999
787	Ob	1	Sil	Ob	787	-0.550000011920929	15.999
788	Ob	1	Sil	Ob	788	-0.550000011920929	15.999
789	Ob	1	Sil	Ob	789	-0.550000011920929	15.999
790	Ob	1	Sil	Ob	790	-0.550000011920929	15.999
791	Ob	1	Sil	Ob	791	-0.550000011920929	15.999
792	Ob	1	Sil	Ob	792	-0.550000011920929	15.999
793	Ob	1	Sil	Ob	793	-0.550000011920929	15.999
794	Ob	1	Sil	Ob	794	-0.550000011920929	15.999
795	Ob	1	Sil	Ob	795	-0.550000011920929	15.999
796	Ob	1	Sil	Ob	796	-0.550000011920929	15.999
797	Ob	1	Sil	Ob	797	-0.550000011920929	15.999
798	Ob	1	Sil	Ob	798	-0.550000011920929	15.999
799	Ob	1	Sil	Ob	799	-0.550000011920929	15.999
800	Ob	1	Sil	Ob	800	-0.550000011920929	15.999
801	Ob	1	Sil	Ob	801	-0.550000011920929	15.999
802	Ob	1	Sil	Ob	802	-0.550000011920929	15.999
803	Ob	1	Sil	Ob	803	-0.550000011920929	15.999
804	Ob	1	Sil	Ob	804	-0.550000011920929	15.999
805	Ob	1	Sil	Ob	805	-0.550000011920929	15.999
806	Ob	1	Sil	Ob	806	-0.550000011920929	15.999
807	Ob	1	Sil	Ob	807	-0.550000011920929	15.999
808	Ob	1	Sil	Ob	808	-0.550000011920929	15.999
809	Ob	1	Sil	Ob	809	-0.550000011920929	15.999
810	Ob	1	Sil	Ob	810	-0.550000011920929	15.999
811	Ob	1	Sil	Ob	811	-0.550000011920929	15.999
812	Ob	1	Sil	Ob	812	-0.550000011920929	15.999
813	Ob	1	Sil	Ob	813	-0.550000011920929	15.999
814	Ob	1	Sil	Ob	814	-0.550000011920929	15.999
815	Ob	1	Sil	Ob	815	-0.550000011920929	15.999
816	Ob	1	Sil	Ob	816	-0.550000011920929	15.999
817	Ob	1	Sil	Ob	817	-0.550000011920929	15.999
818	Ob	1	Sil	Ob	818	-0.550000011920929	15.999
819	Ob	1	Sil	Ob	819	-0.550000011920929	15.999
820	Ob	1	Sil	Ob	820	-0.550000011920929	15.999
821	Ob	1	Sil	Ob	821	-0.550000011920929	15.999
822	Ob	1	Sil	Ob	822	-0.550000011920929	15.999
823	Ob	1	Sil	Ob	823	-0.550000011920929	15.999
824	Ob	1	Sil	Ob	824	-0.550000011920929	15.999
825	Ob	1	Sil	Ob	825	-0.550000011920929	15.999
826	Ob	1	Sil	Ob	826	-0.550000011920929	15.999
827	Ob	1	Sil	Ob	827	-0.550000011920929	15.999
828	Ob	1	Sil	Ob	828	-0.550000011920929	15.999
829	Ob	1	Sil	Ob	829	-0.550000011920929	15.999
830	Ob	1	Sil	Ob	830	-0.550000011920929	15.999
831	Ob	1	Sil	Ob	831	-0.550000011920929	15.999
832	Ob	1	Sil	Ob	832	-0.550000011920929	15.999
833	Ob	1	Sil	Ob	833	-0.550000011920929	15.999
834	Ob	1	Sil	Ob	834	-0.550000011920929	15.999
835	Ob	1	Sil	Ob	835	-0.550000011920929	15.999
836	Ob	1	Sil	Ob	836	-0.550000011920929	15.999
837	Ob	1	Sil	Ob	837	-0.550000011920929	15.999
838	Ob	1	Sil	Ob	838	-0.550000011920929	15.999
839	Ob	1	Sil	Ob	839	-0.550000011920929	15.999
840	Ob	1	Sil	Ob	840	-0.550000011920929	15.999
841	Ob	1	Sil	Ob	841	-0.550000011920929	15.999
842	Ob	1	Sil	Ob	842	-0.550000011920929	15.999
843	Ob	1	Sil	Ob	843	-0.550000011920929	15.999
844	Ob	1	Sil	Ob	844	-0.550000011920929	15.999
845	Ob	1	Sil	Ob	845	-0.550000011920929	15.999
846	Ob	1	Sil	Ob	846	-0.550000011920929	15.999
847	Ob	1	Sil	Ob	847	-0.550000011920929	15.999
848	Ob	1	Sil	Ob	848	-0.550000011920929	15.999
849	Ob	1	Sil	Ob	849	-0.550000011920929	15.999
850	Ob	1	Sil	Ob	850	-0.550000011920929	15.999
851	Ob	1	Sil	Ob	851	-0.550000011920929	15.999
852	Ob	1	Sil	Ob	852	-0.550000011920929	15.999
853	Ob	1	Sil	Ob	853	-0.550000011920929	15.999
854	Ob	1	Sil	Ob	854	-0.550000011920929	15.999
855	Ob	1	Sil	Ob	855	-0.550000011920929	15.999
856	Ob	1	Sil	Ob	856	-0.550000011920929	15.999
857	Ob	1	Sil	Ob	857	-0.550000011920929	15.999
858	Ob	1	Sil	Ob	858	-0.550000011920929	15.999
859	Ob	1	Sil	Ob	859	-0.550000011920929	15.999
860	Ob	1	Sil	Ob	860	-0.550000011920929	15.999
861	Ob	1	Sil	Ob	861	-0.550000011920929	15.999
862	Ob	1	Sil	Ob	862	-0.550000011920929	15.999
863	Ob	1	Sil	Ob	863	-0.550000011920929	15.999
864	Ob	1	Sil	Ob	864	-0.550000011920929	15.999
865	Ob	1	Sil	Ob	865	-0.550000011920929	15.999
866	Ob	1	Sil	Ob	866	-0.550000011920929	15.999
867	Ob	1	Sil	Ob	867	-0.550000011920929	15.999
868	Ob	1	Sil	Ob	868	-0.550000011920929	15.999
869	Ob	1	Sil	Ob	869	-0.550000011920929	15.999
870	Ob	1	Sil	Ob	870	-0.550000011920929	15.999
871	Ob	1	Sil	Ob	871	-0.550000011920929	15.999
872	Ob	1	Sil	Ob	872	-0.550000011920929	15.999
873	Ob	1	Sil	Ob	873	-0.550000011920929	15.999
874	Ob	1	Sil	Ob	874	-0.550000011920929	15.999
875	Ob	1	Sil	Ob	875	-0.550000011920929	15.999
876	Ob	1	Sil	Ob	876	-0.550000011920929	15.999
877	Ob	1	Sil	Ob	877	-0.550000011920929	15.999
878	Ob	1	Sil	Ob	878	-0.550000011920929	15.999
879	Ob	1	Sil	Ob	879	-0.550000011920929	15.999
880	Ob	1	Sil	Ob	880	-0.550000011920929	15.999
881	Ob	1	Sil	Ob	881	-0.550000011920929	15.999
882	Ob	1	Sil	Ob	882	-0.550000011920929	15.999
883	Ob	1	Sil	Ob	883	-0.550000011920929	15.999
884	Ob	1	Sil	Ob	884	-0.550000011920929	15.999
885	Ob	1	Sil	Ob	885	-0.550000011920929	15.999
886	Ob	1	Sil	Ob	886	-0.550000011920929	15.999
887	Ob	1	Sil	Ob	887	-0.550000011920929	15.999
888	Ob	1	Sil	Ob	888	-0.550000011920929	15.999
889	Ob	1	Sil	Ob	889	-0.550000011920929	15.999
890	Ob	1	Sil	Ob	890	-0.550000011920929	15.999
891	Ob	1	Sil	Ob	891	-0.550000011920929	15.999
892	Ob	1	Sil	Ob	892	-0.550000011920929	15.999
893	Ob	1	Sil	Ob	893	-0.550000011920929	15.999
894	Ob	1	Sil	Ob	894	-0.550000011920929	15.999
895	Ob	1	Sil	Ob	895	-0.550000011920929	15.999
896	Ob	1	Sil	Ob	896	-0.550000011920929	15.999
897	Ob	1	Sil	Ob	897	-0.550000011920929	15.999
898	Ob	1	Sil	Ob	898	-0.550000011920929	15.999
899	Ob	1	Sil	Ob	899	-0.550000011920929	15.999
900	Ob	1	Sil	Ob	900	-0.550000011920929	15.999
901	Ob	1	Sil	Ob	901	-0.550000011920929	15.999
902	Ob	1	Sil	Ob	902	-0.550000011920929	15.999
903	Ob	1	Sil	Ob	903	-0.550000011920929	15.999
904	Ob	1	Sil	Ob	904	-0.550000011920929	15.999
905	Ob	1	Sil	Ob	905	-0.550000011920929	15.999
906	Ob	1	Sil	Ob	906	-0.550000011920929	15.999
907	Ob	1	Sil	Ob	907	-0.550000011920929	15.999
908	Ob	1	Sil	Ob	908	-0.550000011920929	15.999
909	Ob	1	Sil	Ob	909	-0.550000011920929	15.999
910	Ob	1	Sil	Ob	910	-0.550000011920929	15.999
911	Ob	1	Sil	Ob	911	-0.550000011920929	15.999
912	Ob	1	Sil	Ob	912	-0.550000011920929	15.999
913	Ob	1	Sil	Ob	913	-0.550000011920929	15.999
914	Ob	1	Sil	Ob	914	-0.550000011920929	15.999
915	Ob	1	Sil	Ob	915	-0.550000011920929	15.999
916	Ob	1	Sil	Ob	916	-0.550000011920929	15.999
917	Ob	1	Sil	Ob	917	-0.550000011920929	15.999
918	Ob	1	Sil	Ob	918	-0.550000011920929	15.999
919	Ob	1	Sil	Ob	919	-0.550000011920929	15.999
920	Ob	1	Sil	Ob	920	-0.550000011920929	15.999
921	Ob	1	Sil	Ob	921	-0.550000011920929	15.999
922	Ob	1	Sil	Ob	922	-0.550000011920929	15.999
923	Ob	1	Sil	Ob	923	-0.550000011920929	15.999
924	Ob	1	Sil	Ob	924	-0.550000011920929	15.999
925	Ob	1	Sil	Ob	925	-0.550000011920929	15.999
926	Ob	1	Sil	Ob	926	-0.550000011920929	15.999
927	Ob	1	Sil	Ob	927	-0.550000011920929	15.999
928	Ob	1	Sil	Ob	928	-0.550000011920929	15.999
929	Ob	1	Sil	Ob	929	-0.550000011920929	15.999
930	Ob	1	Sil	Ob	930	-0.550000011920929	15.999
931	Ob	1	Sil	Ob	931	-0.550000011920929	15.999
932	Ob	1	Sil	Ob	932	-0.550000011920929	15.999
933	Ob	1	Sil	Ob	933	-0.550000011920929	15.999
934	Ob	1	Sil	Ob	934	-0.550000011920929	15.999
935	Ob	1	Sil	Ob	935	-0.550000011920929	15.999
936	Ob	1	Sil	Ob	936	-0.550000011920929	15.999
937	Ob	1	Sil	Ob	937	-0.550000011920929	15.999
938	Ob	1	Sil	Ob	938	-0.550000011920929	15.999
939	Ob	1	Sil	Ob	939	-0.550000011920929	15.999
940	Ob	1	Sil	Ob	940	-0.550000011920929	15.999
941	Ob	1	Sil	Ob	941	-0.550000011920929	15.999
942	Ob	1	Sil	Ob	942	-0.550000011920929	15.999
943	Ob	1	Sil	Ob	943	-0.550000011920929	15.999
944	Ob	1	Sil	Ob	944	-0.550000011920929	15.999
945	Ob	1	Sil	Ob	945	-0.550000011920929	15.999
946	Ob	1	Sil	Ob	946	-0.550000011920929	15.999
947	Ob	1	Sil	Ob	947	-0.550000011920929	15.999
948	Ob	1	Sil	Ob	948	-0.550000011920929	15.999
949	Ob	1	Sil	Ob	949	-0.550000011920929	15.999
950	Ob	1	Sil	Ob	950	-0.550000011920929	15.999
951	Ob	1	Sil	Ob	951	-0.550000011920929	15.999
952	Ob	1	Sil	Ob	952	-0.550000011920929	15.999
953	Ob	1	Sil	Ob	953	-0.550000011920929	15.999
954	Ob	1	Sil	Ob	954	-0.550000011920929	15.999
955	Ob	1	Sil	Ob	955	-0.550000011920929	15.999
956	Ob	1	Sil	Ob	956	-0.550000011920929	15.999
957	Ob	1	Sil	Ob	957	-0.550000011920929	15.999
958	Ob	1	Sil	Ob	958	-0.550000011920929	15.999
959	Ob	1	Sil	Ob	959	-0.550000011920929	15.999
960	Ob	1	Sil	Ob	960	-0.550000011920929	15.999
961	Ob	1	Sil	Ob	961	-0.550000011920929	15.999
962	Ob	1	Sil	Ob	962	-0.550000011920929	15.999
963	Ob	1	Sil	Ob	963	-0.550000011920929	15.999
964	Ob	1	Sil	Ob	964	-0.550000011920929	15.999
965	Ob	1	Sil	Ob	965	-0.550000011920929	15.999
966	Ob	1	Sil	Ob	966	-0.550000011920929	15.999
967	Ob	1	Sil	Ob	967	-0.550000011920929	15.999
968	Ob	1	Sil	Ob	968	-0.550000011920929	15.999
969	Ob	1	Sil	Ob	969	-0.550000011920929	15.999
970	Ob	1	Sil	Ob	970	-0.550000011920929	15.999
971	Ob	1	Sil	Ob	971	-0.550000011920929	15.999
972	Ob	1	Sil	Ob	972	-0.550000011920929	15.999
973	Ob	1	Sil	Ob	973	-0.550000011920929	15.999
974	Ob	1	Sil	Ob	974	-0.550000011920929	15.999
975	Ob	1	Sil	Ob	975	-0.550000011920929	15.999
976	Ob	1	Sil	Ob	976	-0.550000011920929	15.999
977	Ob	1	Sil	Ob	977	-0.550000011920929	15.999
978	Ob	1	Sil	Ob	978	-0.550000011920929	15.999
979	Ob	1	Sil	Ob	979	-0.550000011920929	15.999
980	Ob	1	Sil	Ob	980	-0.550000011920929	15.999
981	Ob	1	Sil	Ob	981	-0.550000011920929	15.999
982	Ob	1	Sil	Ob	982	-0.550000011920929	15.999
983	Ob	1	Sil	Ob	983	-0.550000011920929	15.999
984	Ob	1	Sil	Ob	984	-0.550000011920929	15.999
985	Ob	1	Sil	Ob	985	-0.550000011920929	15.999
986	Ob	1	Sil	Ob	986	-0.550000011920929	15.999
987	Ob	1	Sil	Ob	987	-0.550000011920929	15.999
988	Ob	1	Sil	Ob	988	-0.550000011920929	15.999
989	Ob	1	Sil	Ob	989	-0.550000011920929	15.999
990	Ob	1	Sil	Ob	990	-0.550000011920929	15.999
991	Ob	1	Sil	Ob	991	-0.550000011920929	15.999
992	Ob	1	Sil	Ob	992	-0.550000011920929	15.999
993	Ob	1	Sil	Ob	993	-0.550000011920929	15.999
994	Ob	1	Sil	Ob	994	-0.550000011920929	15.999
995	Ob	1	Sil	Ob	995	-0.550000011920929	15.999
996	Ob	1	Sil	Ob	996	-0.550000011920929	15.999
997	Ob	1	Sil	Ob	997	-0.550000011920929	15.999
998	Ob	1	Sil	Ob	998	-0.550000011920929	15.999
999	Ob	1	Sil	Ob	999	-0.550000011920929	15.999
1000	Ob	1	Sil	Ob	1000	-0.550000011920929	15.999
1001	Ob	1	Sil	Ob	1001	-0.550000011920929	15.999
1002	Ob	1	Sil	Ob	1002	-0.550000011920929	15.999
1003	Ob	1	Sil	Ob	1003	-0.550000011920929	15.999
1004	Ob	1	Sil	Ob	1004	-0.550000011920929	15.999
1005	Ob	1	Sil	Ob	1005	-0.550000011920929	15.999
1006	Ob	1	Sil	Ob	1006	-0.550000011920929	15.999
1007	Ob	1	Sil	Ob	1007	-0.550000011920929	15.999
1008	Ob	1	Sil	Ob	1008	-0.550000011920929	15.999
1009	Ob	1	Sil	Ob	1009	-0.550000011920929	15.999
1010	Ob	1	Sil	Ob	1010	-0.550000011920929	15.999
1011	Ob	1	Sil	Ob	1011	-0.550000011920929	15.999
1012	Ob	1	Sil	Ob	1012	-0.550000011920929	15.999
1013	Ob	1	Sil	Ob	1013	-0.550000011920929	15.999
1014	Ob	1	Sil	Ob	1014	-0.550000011920929	15.999
1015	Ob	1	Sil	Ob	1015	-0.550000011920929	15.999
1016	Ob	1	Sil	Ob	1016	-0.550000011920929	15.999
1017	Ob	1	Sil	Ob	1017	-0.550000011920929	15.999
1018	Ob	1	Sil	Ob	1018	-0.550000011920929	15.999
1019	Ob	1	Sil	Ob	1019	-0.550000011920929	15.999
1020	Ob	1	Sil	Ob	1020	-0.550000011920929	15.999
1021	Ob	1	Sil	Ob	1021	-0.550000011920929	15.999
1022	Ob	1	Sil	Ob	1022	-0.550000011920929	15.999
1023	Ob	1	Sil	Ob	1023	-0.550000011920929	15.999
1024	Ob	1	Sil	Ob	1024	-0.550000011920929	15.999
1025	Ob	1	Sil	Ob	1025	-0.550000011920929	15.999
1026	Ob	1	Sil	Ob	1026	-0.550000011920929	15.999
1027	Ob	1	Sil	Ob	1027	-0.550000011920929	15.999
1028	Ob	1	Sil	Ob	1028	-0.550000011920929	15.999
1029	Ob	1	Sil	Ob	1029	-0.550000011920929	15.999
1030	Ob	1	Sil	Ob	1030	-0.550000011920929	15.999
1031	Ob	1	Sil	Ob	1031	-0.550000011920929	15.999
1032	Ob	1	Sil	Ob	1032	-0.550000011920929	15.999
1033	Ob	1	Sil	Ob	1033	-0.550000011920929	15.999
1034	Ob	1	Sil	Ob	1034	-0.550000011920929	15.999
1035	Ob	1	Sil	Ob	1035	-0.550000011920929	15.999
1036	Ob	1	Sil	Ob	1036	-0.550000011920929	15.999
1037	Ob	1	Sil	Ob	1037	-0.550000011920929	15.999
1038	Ob	1	Sil	Ob	1038	-0.550000011920929	15.999
1039	Ob	1	Sil	Ob	1039	-0.550000011920929	15.999
1040	Ob	1	Sil	Ob	1040	-0.550000011920929	15.999
1041	Ob	1	Sil	Ob	1041	-0.550000011920929	15.999
1042	Ob	1	Sil	Ob	1042	-0.550000011920929	15.999
1043	Ob	1	Sil	Ob	1043	-0.550000011920929	15.999
1044	Ob	1	Sil	Ob	1044	-0.550000011920929	15.999
1045	Ob	1	Sil	Ob	1045	-0.550000011920929	15.999
1046	Ob	1	Sil	Ob	1046	-0.550000011920929	15.999
1047	Ob	1	Sil	Ob	1047	-0.550000011920929	15.999
1048	Ob	1	Sil	Ob	1048	-0.550000011920929	15.999
1049	Ob	1	Sil	Ob	1049	-0.550000011920929	15.999
1050	Ob	1	Sil	Ob	1050	-0.550000011920929	15.999
1051	Ob	1	Sil	Ob	1051	-0.550000011920929	15.999
1052	Ob	1	Sil	Ob	1052	-0.550000011920929	15.999
1053	Ob	1	Sil	Ob	1053	-0.550000011920929	15.999
1054	Ob	1	Sil	Ob	1054	-0.550000011920929	15.999
1055	Ob	1	Sil	Ob	1055	-0.550000011920929	15.999
1056	Ob	1	Sil	Ob	1056	-0.550000011920929	15.999
1057	Ob	1	Sil	Ob	1057	-0.550000011920929	15.999
1058	Ob	1	Sil	Ob	1058	-0.550000011920929	15.999
1059	Ob	1	Sil	Ob	1059	-0.550000011920929	15.999
1060	Ob	1	Sil	Ob	1060	-0.550000011920929	15.999
1061	Ob	1	Sil	Ob	1061	-0.550000011920929	15.999
1062	Ob	1	Sil	Ob	1062	-0.550000011920929	15.999
1063	Ob	1	Sil	Ob	1063	-0.550000011920929	15.999
1064	Ob	1	Sil	Ob	1064	-0.550000011920929	15.999
1065	Ob	1	Sil	Ob	1065	-0.550000011920929	15.999
1066	Ob	1	Sil	Ob	1066	-0.550000011920929	15.999
1067	Ob	1	Sil	Ob	1067	-0.550000011920929	15.999
1068	Ob	1	Sil	Ob	1068	-0.550000011920929	15.999
1069	Ob	1	Sil	Ob	1069	-0.550000011920929	15.999
1070	Ob	1	Sil	Ob	1070	-0.550000011920929	15.999
1071	Ob	1	Sil	Ob	1071	-0.550000011920929	15.999
1072	Ob	1	Sil	Ob	1072	-0.550000011920929	15.999
1073	Ob	1	Sil	Ob	1073	-0.550000011920929	15.999
1074	Ob	1	Sil	Ob	1074	-0.550000011920929	15.999
1075	Ob	1	Sil	Ob	1075	-0.550000011920929	15.999
1076	Ob	1	Sil	Ob	1076	-0.550000011920929	15.999
1077	Ob	1	Sil	Ob	1077	-0.550000011920929	15.999
1078	Ob	1	Sil	Ob	1078	-0.550000011920929	15.999
1079	Ob	1	Sil	Ob	1079	-0.550000011920929	15.999
1080	Ob	1	Sil	Ob	1080	-0.550000011920929	15.999
1081	Ob	1	Sil	Ob	1081	-0.550000011920929	15.999
1082	Ob	1	Sil	Ob	1082	-0.550000011920929	15.999
1083	Ob	1	Sil	Ob	1083	-0.550000011920929	15.999
1084	Ob	1	Sil	Ob	1084	-0.550000011920929	15.999
1085	Ob	1	Sil	Ob	1085	-0.550000011920929	15.999
1086	Ob	1	Sil	Ob	1086	-0.550000011920929	15.999
1087	Ob	1	Sil	Ob	1087	-0.550000011920929	15.999
1088	Ob	1	Sil	Ob	1088	-0.550000011920929	15.999
1089	Ob	1	Sil	Ob	1089	-0.550000011920929	15.999
1090	Ob	1	Sil	Ob	1090	-0.550000011920929	15.999
1091	Ob	1	Sil	Ob	1091	-0.550000011920929	15.999
1092	Ob	1	Sil	Ob	1092	-0.550000011920929	15.999
1093	Ob	1	Sil	Ob	1093	-0.550000011920929	15.999
1094	Ob	1	Sil	Ob	1094	-0.550000011920929	15.999
1095	Ob	1	Sil	Ob	1095	-0.550000011920929	15.999
1096	Ob	1	Sil	Ob	1096	-0.550000011920929	15.999
1097	Ob	1	Sil	Ob	1097	-0.550000011920929	15.999
1098	Ob	1	Sil	Ob	1098	-0.550000011920929	15.999
1099	Ob	1	Sil	Ob	1099	-0.550000011920929	15.999
1100	Ob	1	Sil	Ob	1100	-0.550000011920929	15.999
1101	Ob	1	Sil	Ob	1101	-0.550000011920929	15.999
1102	Ob	1	Sil	Ob	1102	-0.550000011920929	15.999
1103	Ob	1	Sil	Ob	1103	-0.550000011920929	15.999
1104	Ob	1	Sil	Ob	1104	-0.550000011920929	15.999
1105	Ob	1	Sil	Ob	1105	-0.550000011920929	15.999
1106	Ob	1	Sil	Ob	1106	-0.550000011920929	15.999
1107	Ob	1	Sil	Ob	1107	-0.550000011920929	15.999
1108	Ob	1	Sil	Ob	1108	-0.550000011920929	15.999
1109	Ob	1	Sil	Ob	1109	-0.550000011920929	15.999
1110	Ob	1	Sil	Ob	1110	-0.550000011920929	15.999
1111	Ob	1	Sil	Ob	1111	-0.550000011920929	15.999
1112	Ob	1	Sil	Ob	1112	-0.550000011920929	15.999
1113	Ob	1	Sil	Ob	1113	-0.550000011920929	15.999
1114	Ob	1	Sil	Ob	1114	-0.550000011920929	15.999
1115	Ob	1	Sil	Ob	1115	-0.550000011920929	15.999
1116	Ob	1	Sil	Ob	1116	-0.550000011920929	15.999
1117	Ob	1	Sil	Ob	1117	-0.550000011920929	15.999
1118	Ob	1	Sil	Ob	1118	-0.550000011920929	15.999
1119	Ob	1	Sil	Ob	1119	-0.550000011920929	15.999
1120	Ob	1	Sil	Ob	1120	-0.550000011920929	15.999
1121	Ob	1	Sil	Ob	1121	-0.550000011920929	15.999
1122	Ob	1	Sil	Ob	1122	-0.550000011920929	15.999
1123	Ob	1	Sil	Ob	1123	-0.550000011920929	15.999
1124	Ob	1	Sil	Ob	1124	-0.550000011920929	15.999
1125	Ob	1	Sil	Ob	1125	-0.550000011920929	15.999
1126	Ob	1	Sil	Ob	1126	-0.550000011920929	15.999
1127	Ob	1	Sil	Ob	1127	-0.550000011920929	15.999
1128	Ob	1	Sil	Ob	1128	-0.550000011920929	15.999
1129	Ob	1	Sil	Ob	1129	-0.550000011920929	15.999
1130	Ob	1	Sil	Ob	1130	-0.550000011920929	15.999
1131	Ob	1	Sil	Ob	1131	-0.550000011920929	15.999
1132	Ob	1	Sil	Ob	1132	-0.550000011920929	15.999
1133	Ob	1	Sil	Ob	1133	-0.550000011920929	15.999
1134	Ob	1	Sil	Ob	1134	-0.550000011920929	15.999
1135	Ob	1	Sil	Ob	1135	-0.550000011920929	15.999
1136	Ob	1	Sil	Ob	1136	-0.550000011920929	15.999
1137	Ob	1	Sil	Ob	1137	-0.550000011920929	15.999
1138	Ob	1	Sil	Ob	1138	-0.550000011920929	15.999
1139	Ob	1	Sil	Ob	1139	-0.550000011920929	15.999
1140	Ob	1	Sil	Ob	1140	-0.550000011920929	15.999
1141	Ob	1	Sil	Ob	1141	-0.550000011920929	15.999
1142	Ob	1	Sil	Ob	1142	-0.550000011920929	15.999
1143	Ob	1	Sil	Ob	1143	-0.550000011920929	15.999
1144	Ob	1	Sil	Ob	1144	-0.550000011920929	15.999
1145	Ob	1	Sil	Ob	1145	-0.550000011920929	15.999
1146	Ob	1	Sil	Ob	1146	-0.550000011920929	15.999
1147	Ob	1	Sil	Ob	1147	-0.550000011920929	15.999
1148	Ob	1	Sil	Ob	1148	-0.550000011920929	15.999
1149	Ob	1	Sil	Ob	1149	-0.550000011920929	15.999
1150	Ob	1	Sil	Ob	1150	-0.550000011920929	15.999
1151	Ob	1	Sil	Ob	1151	-0.550000011920929	15.999
1152	Ob	1	Sil	Ob	1152	-0.550000011920929	15.999
1153	Ob	1	Sil	Ob	1153	-0.550000011920929	15.999
1154	Ob	1	Sil	Ob	1154	-0.550000011920929	15.999
1155	Ob	1	Sil	Ob	1155	-0.550000011920929	15.999
1156	Ob	1	Sil	Ob	1156	-0.550000011920929	15.999
1157	Ob	1	Sil	Ob	1157	-0.550000011920929	15.999
1158	Ob	1	Sil	Ob	1158	-0.550000011920929	15.999
1159	Ob	1	Sil	Ob	1159	-0.550000011920929	15.999
1160	Ob	1	Sil	Ob	1160	-0.550000011920929	15.999
1161	Ob	1	Sil	Ob	1161	-0.550000011920929	15.999
1162	Ob	1	Sil	Ob	1162	-0.550000011920929	15.999
1163	Ob	1	Sil	Ob	1163	-0.550000011920929	15.999
1164	Ob	1	Sil	Ob	1164	-0.550000011920929	15.999
1165	Ob	1	Sil	Ob	1165	-0.550000011920929	15.999
1166	Ob	1	Sil	Ob	1166	-0.550000011920929	15.999
1167	Ob	1	Sil	Ob	1167	-0.550000011920929	15.999
1168	Ob	1	Sil	Ob	1168	-0.550000011920929	15.999
1169	Ob	1	Sil	Ob	1169	-0.550000011920929	15.999
1170	Ob	1	Sil	Ob	1170	-0.550000011920929	15.999
1171	Ob	1	Sil	Ob	1171	-0.550000011920929	15.999
1172	Ob	1	Sil	Ob	1172	-0.550000011920929	15.999
1173	Ob	1	Sil	Ob	1173	-0.550000011920929	15.999
1174	Ob	1	Sil	Ob	1174	-0.550000011920929	15.999
1175	Ob	1	Sil	Ob	1175	-0.550000011920929	15.999
1176	Ob	1	Sil	Ob	1176	-0.550000011920929	15.999
1177	Ob	1	Sil	Ob	1177	-0.550000011920929	15.999
1178	Ob	1	Sil	Ob	1178	-0.550000011920929	15.999
1179	Ob	1	Sil	Ob	1179	-0.550000011920929	15.999
1180	Ob	1	Sil	Ob	1180	-0.550000011920929	15.999
1181	Ob	1	Sil	Ob	1181	-0.550000011920929	15.999
1182	Ob	1	Sil	Ob	1182	-0.550000011920929	15.999
1183	Ob	1	Sil	Ob	1183	-0.550000011920929	15.999
1184	Ob	1	Sil	Ob	1184	-0.550000011920929	15.999
1185	Ob	1	Sil	Ob	1185	-0.550000011920929	15.999
1186	Ob	1	Sil	Ob	1186	-0.550000011920929	15.999
1187	Ob	1	Sil	Ob	1187	-0.550000011920929	15.999
1188	Ob	1	Sil	Ob	1188	-0.550000011920929	15.999
1189	Ob	1	Sil	Ob	1189	-0.550000011920929	15.999
1190	Ob	1	Sil	Ob	1190	-0.550000011920929	15.999
1191	Ob	1	Sil	Ob	1191	-0.550000011920929	15.999
1192	Ob	1	Sil	Ob	1192	-0.550000011920929	15.999
1193	Ob	1	Sil	Ob	1193	-0.550000011920929	15.999
1194	Ob	1	Sil	Ob	1194	-0.550000011920929	15.999
1195	Ob	1	Sil	Ob	1195	-0.550000011920929	15.999
1196	Ob	1	Sil	Ob	1196	-0.550000011920929	15.999
1197	Ob	1	Sil	Ob	1197	-0.550000011920929	15.999
1198	Ob	1	Sil	Ob	1198	-0.550000011920929	15.999
1199	Ob	1	Sil	Ob	1199	-0.550000011920929	15.999
1200	Ob	1	Sil	Ob	1200	-0.550000011920929	15.999
1201	Ob	1	Sil	Ob	1201	-0.550000011920929	15.999
1202	Ob	1	Sil	Ob	1202	-0.550000011920929	15.999
1203	Ob	1	Sil	Ob	1203	-0.550000011920929	15.999
1204	Ob	1	Sil	Ob	1204	-0.550000011920929	15.999
1205	Ob	1	Sil	Ob	1205	-0.550000011920929	15.999
1206	Ob	1	Sil	Ob	1206	-0.550000011920929	15.999
1207	Ob	1	Sil	Ob	1207	-0.550000011920929	15.999
1208	Ob	1	Sil	Ob	1208	-0.550000011920929	15.999
1209	Ob	1	Sil	Ob	1209	-0.550000011920929	15.999
1210	Ob	1	Sil	Ob	1210	-0.550000011920929	15.999
1211	Ob	1	Sil	Ob	1211	-0.550000011920929	15.999
1212	Ob	1	Sil	Ob	1212	-0.550000011920929	15.999
1213	Ob	1	Sil	Ob	1213	-0.550000011920929	15.999
1214	Ob	1	Sil	Ob	1214	-0.550000011920929	15.999
1215	Ob	1	Sil	Ob	1215	-0.550000011920929	15.999
1216	Ob	1	Sil	Ob	1216	-0.550000011920929	15.999
1217	Ob	1	Sil	Ob	1217	-0.550000011920929	15.999
1218	Ob	1	Sil	Ob	1218	-0.550000011920929	15.999
1219	Ob	1	Sil	Ob	1219	-0.550000011920929	15.999
1220	Ob	1	Sil	Ob	1220	-0.550000011920929	15.999
1221	Ob	1	Sil	Ob	1221	-0.550000011920929	15.999
1222	Ob	1	Sil	Ob	1222	-0.550000011920929	15.999
1223	Ob	1	Sil	Ob	1223	-0.550000011920929	15.999
1224	Ob	1	Sil	Ob	1224	-0.550000011920929	15.999
1225	Ob	1	Sil	Ob	1225	-0.550000011920929	15.999
1226	Ob	1	Sil	Ob	1226	-0.550000011920929	15.999
1227	Ob	1	Sil	Ob	1227	-0.550000011920929	15.999
1228	Ob	1	Sil	Ob	1228	-0.550000011920929	15.999
1229	Ob	1	Sil	Ob	1229	-0.550000011920929	15.999
1230	Ob	1	Sil	Ob	1230	-0.550000011920929	15.999
1231	Ob	1	Sil	Ob	1231	-0.550000011920929	15.999
1232	Ob	1	Sil	Ob	1232	-0.550000011920929	15.999
1233	Ob	1	Sil	Ob	1233	-0.550000011920929	15.999
1234	Ob	1	Sil	Ob	1234	-0.550000011920929	15.999
1235	Ob	1	Sil	Ob	1235	-0.550000011920929	15.999
1236	Ob	1	Sil	Ob	1236	-0.550000011920929	15.999
1237	Ob	1	Sil	Ob	1237	-0.550000011920929	15.999
1238	Ob	1	Sil	Ob	1238	-0.550000011920929	15.999
1239	Ob	1	Sil	Ob	1239	-0.550000011920929	15.999
1240	Ob	1	Sil	Ob	1240	-0.550000011920929	15.999
1241	Ob	1	Sil	Ob	1241	-0.550000011920929	15.999
1242	Ob	1	Sil	Ob	1242	-0.550000011920929	15.999
1243	Ob	1	Sil	Ob	1243	-0.550000011920929	15.999
1244	Ob	1	Sil	Ob	1244	-0.550000011920929	15.999
1245	Ob	1	Sil	Ob	1245	-0.550000011920929	15.999
1246	Ob	1	Sil	Ob	1246	-0.550000011920929	15.999
1247	Ob	1	Sil	Ob	1247	-0.550000011920929	15.999
1248	Ob	1	Sil	Ob	1248	-0.550000011920929	15.999
1249	Ob	1	Sil	Ob	1249	-0.550000011920929	15.999
1250	Ob	1	Sil	Ob	1250	-0.550000011920929	15.999
1251	Ob	1	Sil	Ob	1251	-0.550000011920929	15.999
1252	Ob	1	Sil	Ob	1252	-0.550000011920929	15.999
1253	Ob	1	Sil	Ob	1253	-0.550000011920929	15.999
1254	Ob	1	Sil	Ob	1254	-0.550000011920929	15.999
1255	Ob	1	Sil	Ob	1255	-0.550000011920929	15.999
1256	Ob	1	Sil	Ob	1256	-0.550000011920929	15.999
1257	Ob	1	Sil	Ob	1257	-0.550000011920929	15.999
1258	Ob	1	Sil	Ob	1258	-0.550000011920929	15.999
1259	Ob	1	Sil	Ob	1259	-0.550000011920929	15.999
1260	Ob	1	Sil	Ob	1260	-0.550000011920929	15.999
1261	Ob	1	Sil	Ob	1261	-0.550000011920929	15.999
1262	Ob	1	Sil	Ob	1262	-0.550000011920929	15.999
1263	Ob	1	Sil	Ob	1263	-0.550000011920929	15.999
1264	Ob	1	Sil	Ob	1264	-0.550000011920929	15.999
1265	Ob	1	Sil	Ob	1265	-0.550000011920929	15.999
1266	Ob	1	Sil	Ob	1266	-0.550000011920929	15.999
1267	Ob	1	Sil	Ob	1267	-0.550000011920929	15.999
1268	Ob	1	Sil	Ob	1268	-0.550000011920929	15.999
1269	Ob	1	Sil	Ob	1269	-0.550000011920929	15.999
1270	Ob	1	Sil	Ob	1270	-0.550000011920929	15.999
1271	Ob	1	Sil	Ob	1271	-0.550000011920929	15.999
1272	Ob	1	Sil	Ob	1272	-0.550000011920929	15.999
1273	Ob	1	Sil	Ob	1273	-0.550000011920929	15.999
1274	Ob	1	Sil	Ob	1274	-0.550000011920929	15.999
1275	Ob	1	Sil	Ob	1275	-0.550000011920929	15.999
1276	Ob	1	Sil	Ob	1276	-0.550000011920929	15.999
1277	Ob	1	Sil	Ob	1277	-0.550000011920929	15.999
1278	Ob	1	Sil	Ob	1278	-0.550000011920929	15.999
1279	Ob	1	Sil	Ob	1279	-0.550000011920929	15.999
1280	Ob	1	Sil	Ob	1280	-0.550000011920929	15.999
1281	Ob	1	Sil	Ob	1281	-0.550000011920929	15.999
1282	Ob	1	Sil	Ob	1282	-0.550000011920929	15.999
1283	Ob	1	Sil	Ob	1283	-0.550000011920929	15.999
1284	Ob	1	Sil	Ob	1284	-0.550000011920929	15.999
1285	Ob	1	Sil	Ob	1285	-0.550000011920929	15.999
1286	Ob	1	Sil	Ob	1286	-0.550000011920929	15.999
1287	Ob	1	Sil	Ob	1287	-0.550000011920929	15.999
1288	Ob	1	Sil	Ob	1288	-0.550000011920929	15.999
1289	Ob	1	Sil	Ob	1289	-0.550000011920929	15.999
1290	Ob	1	Sil	Ob	1290	-0.550000011920929	15.999
1291	Ob	1	Sil	Ob	1291	-0.550000011920929	15.999
1292	Ob	1	Sil	Ob	1292	-0.550000011920929	15.999
1293	Ob	1	Sil	Ob	1293	-0.550000011920929	15.999
1294	Ob	1	Sil	Ob	1294	-0.550000011920929	15.999
1295	Ob	1	Sil	Ob	1295	-0.550000011920929	15.999
1296	Ob	1	Sil	Ob	1296	-0.550000011920929	15.999
1297	Ob	1	Sil	Ob	1297	-0.550000011920929	15.999
1298	Ob	1	Sil	Ob	1298	-0.550000011920929	15.999
1299	Ob	1	Sil	Ob	1299	-0.550000011920929	15.999
1300	Ob	1	Sil	Ob	1300	-0.550000011920929	15.999
1301	Ob	1	Sil	Ob	1301	-0.550000011920929	15.999
1302	Ob	1	Sil	Ob	1302	-0.550000011920929	15.999
1303	Ob	1	Sil	Ob	1303	-0.550000011920929	15.999
1304	Ob	1	Sil	Ob	1304	-0.550000011920929	15.999
1305	Ob	1	Sil	Ob	1305	-0.550000011920929	15.999
1306	Ob	1	Sil	Ob	1306	-0.550000011920929	15.999
1307	Ob	1	Sil	Ob	1307	-0.550000011920929	15.999
1308	Ob	1	Sil	Ob	1308	-0.550000011920929	15.999
1309	Ob	1	Sil	Ob	1309	-0.550000011920929	15.999
1310	Ob	1	Sil	Ob	1310	-0.550000011920929	15.999
1311	Ob	1	Sil	Ob	1311	-0.550000011920929	15.999
1312	Ob	1	Sil	Ob	1312	-0.550000011920929	15.999
1313	Ob	1	Sil	Ob	1313	-0.550000011920929	15.999
1314	Ob	1	Sil	Ob	1314	-0.550000011920929	15.999
1315	Ob	1	Sil	Ob	1315	-0.550000011920929	15.999
1316	Ob	1	Sil	Ob	1316	-0.550000011920929	15.999
1317	Ob	1	Sil	Ob	1317	-0.550000011920929	15.999
1318	Ob	1	Sil	Ob	1318	-0.550000011920929	15.999
1319	Ob	1	Sil	Ob	1319	-0.550000011920929	15.999
1320	Ob	1	Sil	Ob	1320	-0.550000011920929	15.999
1321	Ob	1	Sil	Ob	1321	-0.550000011920929	15.999
1322	Ob	1	Sil	Ob	1322	-0.550000011920929	15.999
1323	Ob	1	Sil	Ob	1323	-0.550000011920929	15.999
1324	Ob	1	Sil	Ob	1324	-0.550000011920929	15.999
1325	Ob	1	Sil	Ob	1325	-0.550000011920929	15.999
1326	Ob	1	Sil	Ob	1326	-0.550000011920929	15.999
1327	Ob	1	Sil	Ob	1327	-0.550000011920929	15.999
1328	Ob	1	Sil	Ob	1328	-0.550000011920929	15.999
1329	Ob	1	Sil	Ob	1329	-0.550000011920929	15.999
1330	Ob	1	Sil	Ob	1330	-0.550000011920929	15.999
1331	Ob	1	Sil	Ob	1331	-0.550000011920929	15.999
1332	Ob	1	Sil	Ob	1332	-0.550000011920929	15.999
1333	Ob	1	Sil	Ob	1333	-0.550000011920929	15.999
1334	Ob	1	Sil	Ob	1334	-0.550000011920929	15.999
1335	Ob	1	Sil	Ob	1335	-0.550000011920929	15.999
1336	Ob	1	Sil	Ob	1336	-0.550000011920929	15.999
1337	Ob	1	Sil	Ob	1337	-0.550000011920929	15.999
1338	Ob	1	Sil	Ob	1338	-0.550000011920929	15.999
1339	Ob	1	Sil	Ob	1339	-0.550000011920929	15.999
1340	Ob	1	Sil	Ob	1340	-0.550000011920929	15.999
1341	Ob	1	Sil	Ob	1341	-0.550000011920929	15.999
1342	Ob	1	Sil	Ob	1342	-0.550000011920929	15.999
1343	Ob	1	Sil	Ob	1343	-0.550000011920929	15.999
1344	Ob	1	Sil	Ob	1344	-0.550000011920929	15.999
1345	Ob	1	Sil	Ob	1345	-0.550000011920929	15.999
1346	Ob	1	Sil	Ob	1346	-0.550000011920929	15.999
1347	Ob	1	Sil	Ob	1347	-0.550000011920929	15.999
1348	Ob	1	Sil	Ob	1348	-0.550000011920929	15.999
1349	Ob	1	Sil	Ob	1349	-0.550000011920929	15.999
1350	Ob	1	Sil	Ob	1350	-0.550000011920929	15.999
1351	Ob	1	Sil	Ob	1351	-0.550000011920929	15.999
1352	Ob	1	Sil	Ob	1352	-0.550000011920929	15.999
1353	Ob	1	Sil	Ob	1353	-0.550000011920929	15.999
1354	Ob	1	Sil	Ob	1354	-0.550000011920929	15.999
1355	Ob	1	Sil	Ob	1355	-0.550000011920929	15.999
1356	Ob	1	Sil	Ob	1356	-0.550000011920929	15.999
1357	Ob	1	Sil	Ob	1357	-0.550000011920929	15.999
1358	Ob	1	Sil	Ob	1358	-0.550000011920929	15.999
1359	Ob	1	Sil	Ob	1359	-0.550000011920929	15.999
1360	Ob	1	Sil	Ob	1360	-0.550000011920929	15.999
1361	Ob	1	Sil	Ob	1361	-0.550000011920929	15.999
1362	Ob	1	Sil	Ob	1362	-0.550000011920929	15.999
1363	Ob	1	Sil	Ob	1363	-0.550000011920929	15.999
1364	Ob	1	Sil	Ob	1364	-0.550000011920929	15.999
1365	Ob	1	Sil	Ob	1365	-0.550000011920929	15.999
1366	Ob	1	Sil	Ob	1366	-0.550000011920929	15.999
1367	Ob	1	Sil	Ob	1367	-0.550000011920929	15.999
1368	Ob	1	Sil	Ob	1368	-0.550000011920929	15.999
1369	Ob	1	Sil	Ob	1369	-0.550000011920929	15.999
1370	Ob	1	Sil	Ob	1370	-0.550000011920929	15.999
1371	Ob	1	Sil	Ob	1371	-0.550000011920929	15.999
1372	Ob	1	Sil	Ob	1372	-0.550000011920929	15.999
1373	Ob	1	Sil	Ob	1373	-0.550000011920929	15.999
1374	Ob	1	Sil	Ob	1374	-0.550000011920929	15.999
1375	Ob	1	Sil	Ob	1375	-0.550000011920929	15.999
1376	Ob	1	Sil	Ob	1376	-0.550000011920929	15.999
1377	Ob	1	Sil	Ob	1377	-0.550000011920929	15.999
1378	Ob	1	Sil	Ob	1378	-0.550000011920929	15.999
1379	Ob	1	Sil	Ob	1379	-0.550000011920929	15.999
1380	Ob	1	Sil	Ob	1380	-0.550000011920929	15.999
1381	Ob	1	Sil	Ob	1381	-0.550000011920929	15.999
1382	Ob	1	Sil	Ob	1382	-0.550000011920929	15.999
1383	Ob	1	Sil	Ob	1383	-0.550000011920929	15.999
1384	Ob	1	Sil	Ob	1384	-0.550000011920929	15.999
1385	Ob	1	Sil	Ob	1385	-0.550000011920929	15.999
1386	Ob	1	Sil	Ob	1386	-0.550000011920929	15.999
1387	Ob	1	Sil	Ob	1387	-0.550000011920929	15.999
1388	Ob	1	Sil	Ob	1388	-0.550000011920929	15.999
1389	Ob	1	Sil	Ob	1389	-0.550000011920929	15.999
1390	Ob	1	Sil	Ob	1390	-0.550000011920929	15.999
1391	Ob	1	Sil	Ob	1391	-0.550000011920929	15.999
1392	Ob	1	Sil	Ob	1392	-0.550000011920929	15.999
1393	Ob	1	Sil	Ob	1393	-0.550000011920929	15.999
1394	Ob	1	Sil	Ob	1394	-0.550000011920929	15.999
1395	Ob	1	Sil	Ob	1395	-0.550000011920929	15.999
1396	Ob	1	Sil	Ob	1396	-0.550000011920929	15.999
1397	Ob	1	Sil	Ob	1397	-0.550000011920929	15.999
1398	Ob	1	Sil	Ob	1398	-0.550000011920929	15.999
1399	Ob	1	Sil	Ob	1399	-0.550000011920929	15.999
1400	Ob	1	Sil	Ob	1400	-0.550000011920929	15.999
1401	Ob	1	Sil	Ob	1401	-0.550000011920929	15.999
1402	Ob	1	Sil	Ob	1402	-0.550000011920929	15.999
1403	Ob	1	Sil	Ob	1403	-0.550000011920929	15.999
1404	Ob	1	Sil	Ob	1404	-0.550000011920929	15.999
1405	Ob	1	Sil	Ob	1405	-0.550000011920929	15.999
1406	Ob	1	Sil	Ob	1406	-0.550000011920929	15.999
1407	Ob	1	Sil	Ob	1407	-0.550000011920929	15.999
1408	Ob	1	Sil	Ob	1408	-0.550000011920929	15.999
1409	Ob	1	Sil	Ob	1409	-0.550000011920929	15.999
1410	Ob	1	Sil	Ob	1410	-0.550000011920929	15.999
1411	Ob	1	Sil	Ob	1411	-0.550000011920929	15.999
1412	Ob	1	Sil	Ob	1412	-0.550000011920929	15.999
1413	Ob	1	Sil	Ob	1413	-0.550000011920929	15.999
1414	Ob	1	Sil	Ob	1414	-0.550000011920929	15.999
1415	Ob	1	Sil	Ob	1415	-0.550000011920929	15.999
1416	Ob	1	Sil	Ob	1416	-0.550000011920929	15.999
1417	Ob	1	Sil	Ob	1417	-0.550000011920929	15.999
1418	Ob	1	Sil	Ob	1418	-0.550000011920929	15.999
1419	Ob	1	Sil	Ob	1419	-0.550000011920929	15.999
1420	Ob	1	Sil	Ob	1420	-0.550000011920929	15.999
1421	Ob	1	Sil	Ob	1421	-0.550000011920929	15.999
1422	Ob	1	Sil	Ob	1422	-0.550000011920929	15.999
1423	Ob	1	Sil	Ob	1423	-0.550000011920929	15.999
1424	Ob	1	Sil	Ob	1424	-0.550000011920929	15.999
1425	Ob	1	Sil	Ob	1425	-0.550000011920929	15.999
1426	Ob	1	Sil	Ob	1426	-0.550000011920929	15.999
1427	Ob	1	Sil	Ob	1427	-0.550000011920929	15.999
1428	Ob	1	Sil	Ob	1428	-0.550000011920929	15.999
1429	Ob	1	Sil	Ob	1429	-0.550000011920929	15.999
1430	Ob	1	Sil	Ob	1430	-0.550000011920929	15.999
1431	Ob	1	Sil	Ob	1431	-0.550000011920929	15.999
1432	Ob	1	Sil	Ob	1432	-0.550000011920929	15.999
1433	Ob	1	Sil	Ob	1433	-0.550000011920929	15.999
1434	Ob	1	Sil	Ob	1434	-0.550000011920929	15.999
1435	Ob	1	Sil	Ob	1435	-0.550000011920929	15.999
1436	Ob	1	Sil	Ob	1436	-0.550000011920929	15.999
1437	Ob	1	Sil	Ob	1437	-0.550000011920929	15.999
1438	Ob	1	Sil	Ob	1438	-0.550000011920929	15.999
1439	Ob	1	Sil	Ob	1439	-0.550000011920929	15.999
1440	Ob	1	Sil	Ob	1440	-0.550000011920929	15.999
1441	Ob	1	Sil	Ob	1441	-0.550000011920929	15.999
1442	Ob	1	Sil	Ob	1442	-0.550000011920929	15.999
1443	Ob	1	Sil	Ob	1443	-0.550000011920929	15.999
1444	Ob	1	Sil	Ob	1444	-0.550000011920929	15.999
1445	Ob	1	Sil	Ob	1445	-0.550000011920929	15.999
1446	Ob	1	Sil	Ob	1446	-0.550000011920929	15.999
1447	Ob	1	Sil	Ob	1447	-0.550000011920929	15.999
1448	Ob	1	Sil	Ob	1448	-0.550000011920929	15.999
1449	Ob	1	Sil	Ob	1449	-0.550000011920929	15.999
1450	Ob	1	Sil	Ob	1450	-0.550000011920929	15.999
1451	Ob	1	Sil	Ob	1451	-0.550000011920929	15.999
1452	Ob	1	Sil	Ob	1452	-0.550000011920929	15.999
1453	Ob	1	Sil	Ob	1453	-0.550000011920929	15.999
1454	Ob	1	Sil	Ob	1454	-0.550000011920929	15.999
1455	Ob	1	Sil	Ob	1455	-0.550000011920929	15.999
1456	Ob	1	Sil	Ob	1456	-0.550000011920929	15.999
1457	Ob	1	Sil	Ob	1457	-0.550000011920929	15.999
1458	Ob	1	Sil	Ob	1458	-0.550000011920929	15.999
1459	Ob	1	Sil	Ob	1459	-0.550000011920929	15.999
1460	Ob	1	Sil	Ob	1460	-0.550000011920929	15.999
1461	Ob	1	Sil	Ob	1461	-0.550000011920929	15.999
1462	Ob	1	Sil	Ob	1462	-0.550000011920929	15.999
1463	Ob	1	Sil	Ob	1463	-0.550000011920929	15.999
1464	Ob	1	Sil	Ob	1464	-0.550000011920929	15.999
1465	Ob	1	Sil	Ob	1465	-0.550000011920929	15.999
1466	Ob	1	Sil	Ob	1466	-0.550000011920929	15.999
1467	Ob	1	Sil	Ob	1467	-0.550000011920929	15.999
1468	Ob	1	Sil	Ob	1468	-0.550000011920929	15.999
1469	Ob	1	Sil	Ob	1469	-0.550000011920929	15.999
1470	Ob	1	Sil	Ob	1470	-0.550000011920929	15.999
1471	Ob	1	Sil	Ob	1471	-0.550000011920929	15.999
1472	Ob	1	Sil	Ob	1472	-0.550000011920929	15.999
1473	Ob	1	Sil	Ob	1473	-0.550000011920929	15.999
1474	Ob	1	Sil	Ob	1474	-0.550000011920929	15.999
1475	Ob	1	Sil	Ob	1475	-0.550000011920929	15.999
1476	Ob	1	Sil	Ob	1476	-0.550000011920929	15.999
1477	Ob	1	Sil	Ob	1477	-0.550000011920929	15.999
1478	Ob	1	Sil	Ob	1478	-0.550000011920929	15.999
1479	Ob	1	Sil	Ob	1479	-0.550000011920929	15.999
1480	Ob	1	Sil	Ob	1480	-0.550000011920929	15.999
1481	Ob	1	Sil	Ob	1481	-0.550000011920929	15.999
1482	Ob	1	Sil	Ob	1482	-0.550000011920929	15.999
1483	Ob	1	Sil	Ob	1483	-0.550000011920929	15.999
1484	Ob	1	Sil	Ob	1484	-0.550000011920929	15.999
1485	Ob	1	Sil	Ob	1485	-0.550000011920929	15.999
1486	Ob	1	Sil	Ob	1486	-0.550000011920929	15.999
1487	Ob	1	Sil	Ob	1487	-0.550000011920929	15.999
1488	Ob	1	Sil	Ob	1488	-0.550000011920929	15.999
1489	Ob	1	Sil	Ob	1489	-0.550000011920929	15.999
1490	Ob	1	Sil	Ob	1490	-0.550000011920929	15.999
1491	Ob	1	Sil	Ob	1491	-0.550000011920929	15.999
1492	Ob	1	Sil	Ob	1492	-0.550000011920929	15.999
1493	Ob	1	Sil	Ob	1493	-0.550000011920929	15.999
1494	Ob	1	Sil	Ob	1494	-0.550000011920929	15.999
1495	Ob	1	Sil	Ob	1495	-0.550000011920929	15.999
1496	Ob	1	Sil	Ob	1496	-0.550000011920929	15.999
1497	Ob	1	Sil	Ob	1497	-0.550000011920929	15.999
1498	Ob	1	Sil	Ob	1498	-0.550000011920929	15.999
1499	Ob	1	Sil	Ob	1499	-0.550000011920929	15.999
1500	Ob	1	Sil	Ob	1500	-0.550000011920929	15.999
1501	Ob	1	Sil	Ob	1501	-0.550000011920929	15.999
1502	Ob	1	Sil	Ob	1502	-0.550000011920929	15.999
1503	Ob	1	Sil	Ob	1503	-0.550000011920929	15.999
1504	Ob	1	Sil	Ob	1504	-0.550000011920929	15.999
1505	Ob	1	Sil	Ob	1505	-0.550000011920929	15.999
1506	Ob	1	Sil	Ob	1506	-0.550000011920929	15.999
1507	Ob	1	Sil	Ob	1507	-0.550000011920929	15.999
1508	Ob	1	Sil	Ob	1508	-0.550000011920929	15.999
1509	Ob	1	Sil	Ob	1509	-0.550000011920929	15.999
1510	Ob	1	Sil	Ob	1510	-0.550000011920929	15.999
1511	Ob	1	Sil	Ob	1511	-0.550000011920929	15.999
1512	Ob	1	Sil	Ob	1512	-0.550000011920929	15.999
1513	Ob	1	Sil	Ob	1513	-0.550000011920929	15.999
1514	Ob	1	Sil	Ob	1514	-0.550000011920929	15.999
1515	Ob	1	Sil	Ob	1515	-0.550000011920929	15.999
1516	Ob	1	Sil	Ob	1516	-0.550000011920929	15.999
1517	Ob	1	Sil	Ob	1517	-0.550000011920929	15.999
1518	Ob	1	Sil	Ob	1518	-0.550000011920929	15.999
1519	Ob	1	Sil	Ob	1519	-0.550000011920929	15.999
1520	Ob	1	Sil	Ob	1520	-0.550000011920929	15.999
1521	Ob	1	Sil	Ob	1521	-0.550000011920929	15.999
1522	Ob	1	Sil	Ob	1522	-0.550000011920929	15.999
1523	Ob	1	Sil	Ob	1523	-0.550000011920929	15.999
1524	Ob	1	Sil	Ob	1524	-0.550000011920929	15.999
1525	Ob	1	Sil	Ob	1525	-0.550000011920929	15.999
1526	Ob	1	Sil	Ob	1526	-0.550000011920929	15.999
1527	Ob	1	Sil	Ob	1527	-0.550000011920929	15.999
1528	Ob	1	Sil	Ob	1528	-0.550000011920929	15.999
1529	Ob	1	Sil	Ob	1529	-0.550000011920929	15.999
1530	Ob	1	Sil	Ob	1530	-0.550000011920929	15.999
1531	Ob	1	Sil	Ob	1531	-0.550000011920929	15.999
1532	Ob	1	Sil	Ob	1532	-0.550000011920929	15.999
1533	Ob	1	Sil	Ob	1533	-0.550000011920929	15.999
1534	Ob	1	Sil	Ob	1534	-0.550000011920929	15.999
1535	Ob	1	Sil	Ob	1535	-0.550000011920929	15.999
1536	Ob	1	Sil	Ob	1536	-0.550000011920929	15.999
1537	Ob	1	Sil	Ob	1537	-0.550000011920929	15.999
1538	Ob	1	Sil	Ob	1538	-0.550000011920929	15.999
1539	Ob	1	Sil	Ob	1539	-0.550000011920929	15.999
1540	Ob	1	Sil	Ob	1540	-0.550000011920929	15.999
1541	Ob	1	Sil	Ob	1541	-0.550000011920929	15.999
1542	Ob	1	Sil	Ob	1542	-0.550000011920929	15.999
1543	Ob	1	Sil	Ob	1543	-0.550000011920929	15.999
1544	Ob	1	Sil	Ob	1544	-0.550000011920929	15.999
1545	Ob	1	Sil	Ob	1545	-0.550000011920929	15.999
1546	Ob	1	Sil	Ob	1546	-0.550000011920929	15.999
1547	Ob	1	Sil	Ob	1547	-0.550000011920929	15.999
1548	Ob	1	Sil	Ob	1548	-0.550000011920929	15.999
1549	Ob	1	Sil	Ob	1549	-0.550000011920929	15.999
1550	Ob	1	Sil	Ob	1550	-0.550000011920929	15.999
1551	Ob	1	Sil	Ob	1551	-0.550000011920929	15.999
1552	Ob	1	Sil	Ob	1552	-0.550000011920929	15.999
1553	Ob	1	Sil	Ob	1553	-0.550000011920929	15.999
1554	Ob	1	Sil	Ob	1554	-0.550000011920929	15.999
1555	Ob	1	Sil	Ob	1555	-0.550000011920929	15.999
1556	Ob	1	Sil	Ob	1556	-0.550000011920929	15.999
1557	Ob	1	Sil	Ob	1557	-0.550000011920929	15.999
1558	Ob	1	Sil	Ob	1558	-0.550000011920929	15.999
1559	Ob	1	Sil	Ob	1559	-0.550000011920929	15.999
1560	Ob	1	Sil	Ob	1560	-0.550000011920929	15.999
1561	Ob	1	Sil	Ob	1561	-0.550000011920929	15.999
1562	Ob	1	Sil	Ob	1562	-0.550000011920929	15.999
1563	Ob	1	Sil	Ob	1563	-0.550000011920929	15.999
1564	Ob	1	Sil	Ob	1564	-0.550000011920929	15.999
1565	Ob	1	Sil	Ob	1565	-0.550000011920929	15.999
1566	Ob	1	Sil	Ob	1566	-0.550000011920929	15.999
1567	Ob	1	Sil	Ob	1567	-0.550000011920929	15.999
1568	Ob	1	Sil	Ob	1568	-0.550000011920929	15.999
1569	Ob	1	Sil	Ob	1569	-0.550000011920929	15.999
1570	Ob	1	Sil	Ob	1570	-0.550000011920929	15.999
1571	Ob	1	Sil	Ob	1571	-0.550000011920929	15.999
1572	Ob	1	Sil	Ob	1572	-0.550000011920929	15.999
1573	Ob	1	Sil	Ob	1573	-0.550000011920929	15.999
1574	Ob	1	Sil	Ob	1574	-0.550000011920929	15.999
1575	Ob	1	Sil	Ob	1575	-0.550000011920929	15.999
1576	Ob	1	Sil	Ob	1576	-0.550000011920929	15.999
1577	Ob	1	Sil	Ob	1577	-0.550000011920929	15.999
1578	Ob	1	Sil	Ob	1578	-0.550000011920929	15.999
1579	Ob	1	Sil	Ob	1579	-0.550000011920929	15.999
1580	Ob	1	Sil	Ob	1580	-0.550000011920929	15.999
1581	Ob	1	Sil	Ob	1581	-0.550000011920929	15.999
1582	Ob	1	Sil	Ob	1582	-0.550000011920929	15.999
1583	Ob	1	Sil	Ob	1583	-0.550000011920929	15.999
1584	Ob	1	Sil	Ob	1584	-0.550000011920929	15.999
1585	Ob	1	Sil	Ob	1585	-0.550000011920929	15.999
1586	Ob	1	Sil	Ob	1586	-0.550000011920929	15.999
1587	Ob	1	Sil	Ob	1587	-0.550000011920929	15.999
1588	Ob	1	Sil	Ob	1588	-0.550000011920929	15.999
1589	Ob	1	Sil	Ob	1589	-0.550000011920929	15.999
1590	Ob	1	Sil	Ob	1590	-0.550000011920929	15.999
1591	Ob	1	Sil	Ob	1591	-0.550000011920929	15.999
1592	Ob	1	Sil	Ob	1592	-0.550000011920929	15.999
1593	Ob	1	Sil	Ob	1593	-0.550000011920929	15.999
1594	Ob	1	Sil	Ob	1594	-0.550000011920929	15.999
1595	Ob	1	Sil	Ob	1595	-0.550000011920929	15.999
1596	Ob	1	Sil	Ob	1596	-0.550000011920929	15.999
1597	Ob	1	Sil	Ob	1597	-0.550000011920929	15.999
1598	Ob	1	Sil	Ob	1598	-0.550000011920929	15.999
1599	Ob	1	Sil	Ob	1599	-0.550000011920929	15.999
1600	Ob	1	Sil	Ob	1600	-0.550000011920929	15.999
1601	Ob	1	Sil	Ob	1601	-0.550000011920929	15.999
1602	Ob	1	Sil	Ob	1602	-0.550000011920929	15.999
1603	Ob	1	Sil	Ob	1603	-0.550000011920929	15.999
1604	Ob	1	Sil	Ob	1604	-0.550000011920929	15.999
1605	Ob	1	Sil	Ob	1605	-0.550000011920929	15.999
1606	Ob	1	Sil	Ob	1606	-0.550000011920929	15.999
1607	Ob	1	Sil	Ob	1607	-0.550000011920929	15.999
1608	Ob	1	Sil	Ob	1608	-0.550000011920929	15.999
1609	Ob	1	Sil	Ob	1609	-0.550000011920929	15.999
1610	Ob	1	Sil	Ob	1610	-0.550000011920929	15.999
1611	Ob	1	Sil	Ob	1611	-0.550000011920929	15.999
1612	Ob	1	Sil	Ob	1612	-0.550000011920929	15.999
1613	Ob	1	Sil	Ob	1613	-0.550000011920929	15.999
1614	Ob	1	Sil	Ob	1614	-0.550000011920929	15.999
1615	Ob	1	Sil	Ob	1615	-0.550000011920929	15.999
1616	Ob	1	Sil	Ob	1616	-0.550000011920929	15.999
1617	Ob	1	Sil	Ob	1617	-0.550000011920929	15.999
1618	Ob	1	Sil	Ob	1618	-0.550000011920929	15.999
1619	Ob	1	Sil	Ob	1619	-0.550000011920929	15.999
1620	Ob	1	Sil	Ob	1620	-0.550000011920929	15.999
1621	Ob	1	Sil	Ob	1621	-0.550000011920929	15.999
1622	Ob	1	Sil	Ob	1622	-0.550000011920929	15.999
1623	Ob	1	Sil	Ob	1623	-0.550000011920929	15.999
1624	Ob	1	Sil	Ob	1624	-0.550000011920929	15.999
1625	Ob	1	Sil	Ob	1625	-0.550000011920929	15.999
1626	Ob	1	Sil	Ob	1626	-0.550000011920929	15.999
1627	Ob	1	Sil	Ob	1627	-0.550000011920929	15.999
1628	Ob	1	Sil	Ob	1628	-0.550000011920929	15.999
1629	Ob	1	Sil	Ob	1629	-0.550000011920929	15.999
1630	Ob	1	Sil	Ob	1630	-0.550000011920929	15.999
1631	Ob	1	Sil	Ob	1631	-0.550000011920929	15.999
1632	Ob	1	Sil	Ob	1632	-0.550000011920929	15.999
1633	Ob	1	Sil	Ob	1633	-0.550000011920929	15.999
1634	Ob	1	Sil	Ob	1634	-0.550000011920929	15.999
1635	Ob	1	Sil	Ob	1635	-0.550000011920929	15.999
1636	Ob	1	Sil	Ob	1636	-0.550000011920929	15.999
1637	Ob	1	Sil	Ob	1637	-0.550000011920929	15.999
1638	Ob	1	Sil	Ob	1638	-0.550000011920929	15.999
1639	Ob	1	Sil	Ob	1639	-0.550000011920929	15.999
1640	Ob	1	Sil	Ob	1640	-0.550000011920929	15.999
1641	Ob	1	Sil	Ob	1641	-0.550000011920929	15.999
1642	Ob	1	Sil	Ob	1642	-0.550000011920929	15.999
1643	Ob	1	Sil	Ob	1643	-0.550000011920929	15.999
1644	Ob	1	Sil	Ob	1644	-0.550000011920929	15.999
1645	Ob	1	Sil	Ob	1645	-0.550000011920929	15.999
1646	Ob	1	Sil	Ob	1646	-0.550000011920929	15.999
1647	Ob	1	Sil	Ob	1647	-0.550000011920929	15.999
1648	Ob	1	Sil	Ob	1648	-0.550000011920929	15.999
1649	Ob	1	Sil	Ob	1649	-0.550000011920929	15.999
1650	Ob	1	Sil	Ob	1650	-0.550000011920929	15.999
1651	Ob	1	Sil	Ob	1651	-0.550000011920929	15.999
1652	Ob	1	Sil	Ob	1652	-0.550000011920929	15.999
1653	Ob	1	Sil	Ob	1653	-0.550000011920929	15.999
1654	Ob	1	Sil	Ob	1654	-0.550000011920929	15.999
1655	Ob	1	Sil	Ob	1655	-0.550000011920929	15.999
1656	Ob	1	Sil	Ob	1656	-0.550000011920929	15.999
1657	Ob	1	Sil	Ob	1657	-0.550000011920929	15.999
1658	Ob	1	Sil	Ob	1658	-0.550000011920929	15.999
1659	Ob	1	Sil	Ob	1659	-0.550000011920929	15.999
1660	Ob	1	Sil	Ob	1660	-0.550000011920929	15.999
1661	Ob	1	Sil	Ob	1661	-0.550000011920929	15.999
1662	Ob	1	Sil	Ob	1662	-0.550000011920929	15.999
1663	Ob	1	Sil	Ob	1663	-0.550000011920929	15.999
1664	Ob	1	Sil	Ob	1664	-0.550000011920929	15.999
1665	Ob	1	Sil	Ob	1665	-0.550000011920929	15.999
1666	Ob	1	Sil	Ob	1666	-0.550000011920929	15.999
1667	Ob	1	Sil	Ob	1667	-0.550000011920929	15.999
1668	Ob	1	Sil	Ob	1668	-0.550000011920929	15.999
1669	Ob	1	Sil	Ob	1669	-0.550000011920929	15.999
1670	Ob	1	Sil	Ob	1670	-0.550000011920929	15.999
1671	Ob	1	Sil	Ob	1671	-0.550000011920929	15.999
1672	Ob	1	Sil	Ob	1672	-0.550000011920929	15.999
1673	Ob	1	Sil	Ob	1673	-0.550000011920929	15.999
1674	Ob	1	Sil	Ob	1674	-0.550000011920929	15.999
1675	Ob	1	Sil	Ob	1675	-0.550000011920929	15.999
1676	Ob	1	Sil	Ob	1676	-0.550000011920929	15.999
1677	Ob	1	Sil	Ob	1677	-0.550000011920929	15.999
1678	Ob	1	Sil	Ob	1678	-0.550000011920929	15.999
1679	Ob	1	Sil	Ob	1679	-0.550000011920929	15.999
1680	Ob	1	Sil	Ob	1680	-0.550000011920929	15.999
1681	Ob	1	Sil	Ob	1681	-0.550000011920929	15.999
1682	Ob	1	Sil	Ob	1682	-0.550000011920929	15.999
1683	Ob	1	Sil	Ob	1683	-0.550000011920929	15.999
1684	Ob	1	Sil	Ob	1684	-0.550000011920929	15.999
1685	Ob	1	Sil	Ob	1685	-0.550000011920929	15.999
1686	Ob	1	Sil	Ob	1686	-0.550000011920929	15.999
1687	Ob	1	Sil	Ob	1687	-0.550000011920929	15.999
1688	Ob	1	Sil	Ob	1688	-0.550000011920929	15.999
1689	Ob	1	Sil	Ob	1689	-0.550000011920929	15.999
1690	Ob	1	Sil	Ob	1690	-0.550000011920929	15.999
1691	Ob	1	Sil	Ob	1691	-0.550000011920929	15.999
1692	Ob	1	Sil	Ob	1692	-0.550000011920929	15.999
1693	Ob	1	Sil	Ob	1693	-0.550000011920929	15.999
1694	Ob	1	Sil	Ob	1694	-0.550000011920929	15.999
1695	Ob	1	Sil	Ob	1695	-0.550000011920929	15.999
1696	Ob	1	Sil	Ob	1696	-0.550000011920929	15.999
1697	Ob	1	Sil	Ob	1697	-0.550000011920929	15.999
1698	Ob	1	Sil	Ob	1698	-0.550000011920929	15.999
1699	Ob	1	Sil	Ob	1699	-0.550000011920929	15.999
1700	Ob	1	Sil	Ob	1700	-0.550000011920929	15.999
1701	Cm	1	Sil	Cm	1701	-0.3499999940395355	12.011
1702	Cm	1	Sil	Cm	1702	-0.3499999940395355	12.011
1703	Cm	1	Sil	Cm	1703	-0.3499999940395355	12.011
1704	Cm	1	Sil	Cm	1704	-0.3499999940395355	12.011
1705	Cm	1	Sil	Cm	1705	-0.3499999940395355	12.011
1706	Cm	1	Sil	Cm	1706	-0.3499999940395355	12.011
1707	Cm	1	Sil	Cm	1707	-0.3499999940395355	12.011
1708	Cm	1	Sil	Cm	1708	-0.3499999940395355	12.011
1709	Cm	1	Sil	Cm	1709	-0.3499999940395355	12.011
1710	Cm	1	Sil	Cm	1710	-0.3499999940395355	12.011
1711	Cm	1	Sil	Cm	1711	-0.3499999940395355	12.011
1712	Cm	1	Sil	Cm	1712	-0.3499999940395355	12.011
1713	Cm	1	Sil	Cm	1713	-0.3499999940395355	12.011
1714	Cm	1	Sil	Cm	1714	-0.3499999940395355	12.011
1715	Cm	1	Sil	Cm	1715	-0.3499999940395355	12.011
1716	Cm	1	Sil	Cm	1716	-0.3499999940395355	12.011
1717	Cm	1	Sil	Cm	1717	-0.3499999940395355	12.011
1718	Cm	1	Sil	Cm	1718	-0.3499999940395355	12.011
1719	Cm	1	Sil	Cm	1719	-0.3499999940395355	12.011
1720	Cm	1	Sil	Cm	1720	-0.3499999940395355	12.011
1721	Cm	1	Sil	Cm	1721	-0.3499999940395355	12.011
1722	Cm	1	Sil	Cm	1722	-0.3499999940395355	12.011
1723	Cm	1	Sil	Cm	1723	-0.3499999940395355	12.011
1724	Cm	1	Sil	Cm	1724	-0.3499999940395355	12.011
1725	Cm	1	Sil	Cm	1725	-0.3499999940395355	12.011
1726	Cm	1	Sil	Cm	1726	-0.3499999940395355	12.011
1727	Cm	1	Sil	Cm	1727	-0.3499999940395355	12.011
1728	Cm	1	Sil	Cm	1728	-0.3499999940395355	12.011
1729	Cm	1	Sil	Cm	1729	-0.3499999940395355	12.011
1730	Cm	1	Sil	Cm	1730	-0.3499999940395355	12.011
1731	Cm	1	Sil	Cm	1731	-0.3499999940395355	12.011
1732	Cm	1	Sil	Cm	1732	-0.3499999940395355	12.011
1733	Cm	1	Sil	Cm	1733	-0.3499999940395355	12.011
1734	Cm	1	Sil	Cm	1734	-0.3499999940395355	12.011
1735	Cm	1	Sil	Cm	1735	-0.3499999940395355	12.011
1736	Cm	1	Sil	Cm	1736	-0.3499999940395355	12.011
1737	Cm	1	Sil	Cm	1737	-0.3499999940395355	12.011
1738	Cm	1	Sil	Cm	1738	-0.3499999940395355	12.011
1739	Cm	1	Sil	Cm	1739	-0.3499999940395355	12.011
1740	Cm	1	Sil	Cm	1740	-0.3499999940395355	12.011
1741	Cm	1	Sil	Cm	1741	-0.3499999940395355	12.011
1742	Cm	1	Sil	Cm	1742	-0.3499999940395355	12.011
1743	Cm	1	Sil	Cm	1743	-0.3499999940395355	12.011
1744	Cm	1	Sil	Cm	1744	-0.3499999940395355	12.011
1745	Cm	1	Sil	Cm	1745	-0.3499999940395355	12.011
1746	Cm	1	Sil	Cm	1746	-0.3499999940395355	12.011
1747	Cm	1	Sil	Cm	1747	-0.3499999940395355	12.011
1748	Cm	1	Sil	Cm	1748	-0.3499999940395355	12.011
1749	Cm	1	Sil	Cm	1749	-0.3499999940395355	12.011
1750	Cm	1	Sil	Cm	1750	-0.3499999940395355	12.011
1751	Cm	1	Sil	Cm	1751	-0.3499999940395355	12.011
1752	Cm	1	Sil	Cm	1752	-0.3499999940395355	12.011
1753	Cm	1	Sil	Cm	1753	-0.3499999940395355	12.011
1754	Cm	1	Sil	Cm	1754	-0.3499999940395355	12.011
1755	Cm	1	Sil	Cm	1755	-0.3499999940395355	12.011
1756	Cm	1	Sil	Cm	1756	-0.3499999940395355	12.011
1757	Cm	1	Sil	Cm	1757	-0.3499999940395355	12.011
1758	Cm	1	Sil	Cm	1758	-0.3499999940395355	12.011
1759	Cm	1	Sil	Cm	1759	-0.3499999940395355	12.011
1760	Cm	1	Sil	Cm	1760	-0.3499999940395355	12.011
1761	Cm	1	Sil	Cm	1761	-0.3499999940395355	12.011
1762	Cm	1	Sil	Cm	1762	-0.3499999940395355	12.011
1763	Cm	1	Sil	Cm	1763	-0.3499999940395355	12.011
1764	Cm	1	Sil	Cm	1764	-0.3499999940395355	12.011
1765	Cm	1	Sil	Cm	1765	-0.3499999940395355	12.011
1766	Cm	1	Sil	Cm	1766	-0.3499999940395355	12.011
1767	Cm	1	Sil	Cm	1767	-0.3499999940395355	12.011
1768	Cm	1	Sil	Cm	1768	-0.3499999940395355	12.011
1769	Cm	1	Sil	Cm	1769	-0.3499999940395355	12.011
1770	Cm	1	Sil	Cm	1770	-0.3499999940395355	12.011
1771	Cm	1	Sil	Cm	1771	-0.3499999940395355	12.011
1772	Cm	1	Sil	Cm	1772	-0.3499999940395355	12.011
1773	Cm	1	Sil	Cm	1773	-0.3499999940395355	12.011
1774	Cm	1	Sil	Cm	1774	-0.3499999940395355	12.011
1775	Cm	1	Sil	Cm	1775	-0.3499999940395355	12.011
1776	Cm	1	Sil	Cm	1776	-0.3499999940395355	12.011
1777	Cm	1	Sil	Cm	1777	-0.3499999940395355	12.011
1778	Cm	1	Sil	Cm	1778	-0.3499999940395355	12.011
1779	Cm	1	Sil	Cm	1779	-0.3499999940395355	12.011
1780	Cm	1	Sil	Cm	1780	-0.3499999940395355	12.011
1781	Cm	1	Sil	Cm	1781	-0.3499999940395355	12.011
1782	Cm	1	Sil	Cm	1782	-0.3499999940395355	12.011
1783	Cm	1	Sil	Cm	1783	-0.3499999940395355	12.011
1784	Cm	1	Sil	Cm	1784	-0.3499999940395355	12.011
1785	Cm	1	Sil	Cm	1785	-0.3499999940395355	12.011
1786	Cm	1	Sil	Cm	1786	-0.3499999940395355	12.011
1787	Cm	1	Sil	Cm	1787	-0.3499999940395355	12.011
1788	Cm	1	Sil	Cm	1788	-0.3499999940395355	12.011
1789	Cm	1	Sil	Cm	1789	-0.3499999940395355	12.011
1790	Cm	1	Sil	Cm	1790	-0.3499999940395355	12.011
1791	Cm	1	Sil	Cm	1791	-0.3499999940395355	12.011
1792	Cm	1	Sil	Cm	1792	-0.3499999940395355	12.011
1793	Cm	1	Sil	Cm	1793	-0.3499999940395355	12.011
1794	Cm	1	Sil	Cm	1794	-0.3499999940395355	12.011
1795	Cm	1	Sil	Cm	1795	-0.3499999940395355	12.011
1796	Cm	1	Sil	Cm	1796	-0.3499999940395355	12.011
1797	Cm	1	Sil	Cm	1797	-0.3499999940395355	12.011
1798	Cm	1	Sil	Cm	1798	-0.3499999940395355	12.011
1799	Cm	1	Sil	Cm	1799	-0.3499999940395355	12.011
1800	Cm	1	Sil	Cm	1800	-0.3499999940395355	12.011
1801	Cm	1	Sil	Cm	1801	-0.3499999940395355	12.011
1802	Cm	1	Sil	Cm	1802	-0.3499999940395355	12.011
1803	Cm	1	Sil	Cm	1803	-0.3499999940395355	12.011
1804	Cm	1	Sil	Cm	1804	-0.3499999940395355	12.011
1805	Cm	1	Sil	Cm	1805	-0.3499999940395355	12.011
1806	Cm	1	Sil	Cm	1806	-0.3499999940395355	12.011
1807	Cm	1	Sil	Cm	1807	-0.3499999940395355	12.011
1808	Cm	1	Sil	Cm	1808	-0.3499999940395355	12.011
1809	Cm	1	Sil	Cm	1809	-0.3499999940395355	12.011
1810	Cm	1	Sil	Cm	1810	-0.3499999940395355	12.011
1811	Cm	1	Sil	Cm	1811	-0.3499999940395355	12.011
1812	Cm	1	Sil	Cm	1812	-0.3499999940395355	12.011
1813	Cm	1	Sil	Cm	1813	-0.3499999940395355	12.011
1814	Cm	1	Sil	Cm	1814	-0.3499999940395355	12.011
1815	Cm	1	Sil	Cm	1815	-0.3499999940395355	12.011
1816	Cm	1	Sil	Cm	1816	-0.3499999940395355	12.011
1817	Cm	1	Sil	Cm	1817	-0.3499999940395355	12.011
1818	Cm	1	Sil	Cm	1818	-0.3499999940395355	12.011
1819	Cm	1	Sil	Cm	1819	-0.3499999940395355	12.011
1820	Cm	1	Sil	Cm	1820	-0.3499999940395355	12.011
1821	Cm	1	Sil	Cm	1821	-0.3499999940395355	12.011
1822	Cm	1	Sil	Cm	1822	-0.3499999940395355	12.011
1823	Cm	1	Sil	Cm	1823	-0.3499999940395355	12.011
1824	Cm	1	Sil	Cm	1824	-0.3499999940395355	12.011
1825	Cm	1	Sil	Cm	1825	-0.3499999940395355	12.011
1826	Cm	1	Sil	Cm	1826	-0.3499999940395355	12.011
1827	Cm	1	Sil	Cm	1827	-0.3499999940395355	12.011
1828	Cm	1	Sil	Cm	1828	-0.3499999940395355	12.011
1829	Cm	1	Sil	Cm	1829	-0.3499999940395355	12.011
1830	Cm	1	Sil	Cm	1830	-0.3499999940395355	12.011
1831	Cm	1	Sil	Cm	1831	-0.3499999940395355	12.011
1832	Cm	1	Sil	Cm	1832	-0.3499999940395355	12.011
1833	Cm	1	Sil	Cm	1833	-0.3499999940395355	12.011
1834	Cm	1	Sil	Cm	1834	-0.3499999940395355	12.011
1835	Cm	1	Sil	Cm	1835	-0.3499999940395355	12.011
1836	Cm	1	Sil	Cm	1836	-0.3499999940395355	12.011
1837	Cm	1	Sil	Cm	1837	-0.3499999940395355	12.011
1838	Cm	1	Sil	Cm	1838	-0.3499999940395355	12.011
1839	Cm	1	Sil	Cm	1839	-0.3499999940395355	12.011
1840	Cm	1	Sil	Cm	1840	-0.3499999940395355	12.011
1841	Cm	1	Sil	Cm	1841	-0.3499999940395355	12.011
1842	Cm	1	Sil	Cm	1842	-0.3499999940395355	12.011
1843	Cm	1	Sil	Cm	1843	-0.3499999940395355	12.011
1844	Cm	1	Sil	Cm	1844	-0.3499999940395355	12.011
1845	Cm	1	Sil	Cm	1845	-0.3499999940395355	12.011
1846	Cm	1	Sil	Cm	1846	-0.3499999940395355	12.011
1847	Cm	1	Sil	Cm	1847	-0.3499999940395355	12.011
1848	Cm	1	Sil	Cm	1848	-0.3499999940395355	12.011
1849	Cm	1	Sil	Cm	1849	-0.3499999940395355	12.011
1850	Cm	1	Sil	Cm	1850	-0.3499999940395355	12.011
1851	Cm	1	Sil	Cm	1851	-0.3499999940395355	12.011
1852	Cm	1	Sil	Cm	1852	-0.3499999940395355	12.011
1853	Cm	1	Sil	Cm	1853	-0.3499999940395355	12.011
1854	Cm	1	Sil	Cm	1854	-0.3499999940395355	12.011
1855	Cm	1	Sil	Cm	1855	-0.3499999940395355	12.011
1856	Cm	1	Sil	Cm	1856	-0.3499999940395355	12.011
1857	Cm	1	Sil	Cm	1857	-0.3499999940395355	12.011
1858	Cm	1	Sil	Cm	1858	-0.3499999940395355	12.011
1859	Cm	1	Sil	Cm	1859	-0.3499999940395355	12.011
1860	Cm	1	Sil	Cm	1860	-0.3499999940395355	12.011
1861	Cm	1	Sil	Cm	1861	-0.3499999940395355	12.011
1862	Cm	1	Sil	Cm	1862	-0.3499999940395355	12.011
1863	Cm	1	Sil	Cm	1863	-0.3499999940395355	12.011
1864	Cm	1	Sil	Cm	1864	-0.3499999940395355	12.011
1865	Cm	1	Sil	Cm	1865	-0.3499999940395355	12.011
1866	Cm	1	Sil	Cm	1866	-0.3499999940395355	12.011
1867	Cm	1	Sil	Cm	1867	-0.3499999940395355	12.011
1868	Cm	1	Sil	Cm	1868	-0.3499999940395355	12.011
1869	Sib	1	Sil	Sib	1869	1.100000023841858	28.0855
1870	Sib	1	Sil	Sib	1870	1.100000023841858	28.0855
1871	Sim	1	Sil	Sim	1871	0.9110000133514404	28.0855
1872	Sib	1	Sil	Sib	1872	1.100000023841858	28.0855
1873	Sib	1	Sil	Sib	1873	1.100000023841858	28.0855
1874	Sib	1	Sil	Sib	1874	1.100000023841858	28.0855
1875	Sim	1	Sil	Sim	1875	0.9110000133514404	28.0855
1876	Sib	1	Sil	Sib	1876	1.100000023841858	28.0855
1877	Sib	1	Sil	Sib	1877	1.100000023841858	28.0855
1878	Sib	1	Sil	Sib	1878	1.100000023841858	28.0855
1879	Sib	1	Sil	Sib	1879	1.100000023841858	28.0855
1880	Sib	1	Sil	Sib	1880	1.100000023841858	28.0855
1881	Sim	1	Sil	Sim	1881	0.9110000133514404	28.0855
1882	Sib	1	Sil	Sib	1882	1.100000023841858	28.0855
1883	Sib	1	Sil	Sib	1883	1.100000023841858	28.0855
1884	Sib	1	Sil	Sib	1884	1.100000023841858	28.0855
1885	Sim	1	Sil	Sim	1885	0.9110000133514404	28.0855
1886	Sib	1	Sil	Sib	1886	1.100000023841858	28.0855
1887	Sib	1	Sil	Sib	1887	1.100000023841858	28.0855
1888	Sib	1	Sil	Sib	1888	1.100000023841858	28.0855
1889	Sib	1	Sil	Sib	1889	1.100000023841858	28.0855
1890	Sim	1	Sil	Sim	1890	0.9110000133514404	28.0855
1891	Sib	1	Sil	Sib	1891	1.100000023841858	28.0855
1892	Sim	1	Sil	Sim	1892	0.9110000133514404	28.0855
1893	Sib	1	Sil	Sib	1893	1.100000023841858	28.0855
1894	Sib	1	Sil	Sib	1894	1.100000023841858	28.0855
1895	Sib	1	Sil	Sib	1895	1.100000023841858	28.0855
1896	Sib	1	Sil	Sib	1896	1.100000023841858	28.0855
1897	Sib	1	Sil	Sib	1897	1.100000023841858	28.0855
1898	Sim	1	Sil	Sim	1898	0.722000002861023	28.0855
1899	Sim	1	Sil	Sim	1899	0.9110000133514404	28.0855
1900	Sib	1	Sil	Sib	1900	1.100000023841858	28.0855
1901	Sim	1	Sil	Sim	1901	0.9110000133514404	28.0855
1902	Sib	1	Sil	Sib	1902	1.100000023841858	28.0855
1903	Sib	1	Sil	Sib	1903	1.100000023841858	28.0855
1904	Sim	1	Sil	Sim	1904	0.9110000133514404	28.0855
1905	Sib	1	Sil	Sib	1905	1.100000023841858	28.0855
1906	Sib	1	Sil	Sib	1906	1.100000023841858	28.0855
1907	Sib	1	Sil	Sib	1907	1.100000023841858	28.0855
1908	Sib	1	Sil	Sib	1908	1.100000023841858	28.0855
1909	Sib	1	Sil	Sib	1909	1.100000023841858	28.0855
1910	Sib	1	Sil	Sib	1910	1.100000023841858	28.0855
1911	Sib	1	Sil	Sib	1911	1.100000023841858	28.0855
1912	Sib	1	Sil	Sib	1912	1.100000023841858	28.0855
1913	Sib	1	Sil	Sib	1913	1.100000023841858	28.0855
1914	Sib	1	Sil	Sib	1914	1.100000023841858	28.0855
1915	Sib	1	Sil	Sib	1915	1.100000023841858	28.0855
1916	Sib	1	Sil	Sib	1916	1.100000023841858	28.0855
1917	Sib	1	Sil	Sib	1917	1.100000023841858	28.0855
1918	Sib	1	Sil	Sib	1918	1.100000023841858	28.0855
1919	Sib	1	Sil	Sib	1919	1.100000023841858	28.0855
1920	Sib	1	Sil	Sib	1920	1.100000023841858	28.0855
1921	Sib	1	Sil	Sib	1921	1.100000023841858	28.0855
1922	Sib	1	Sil	Sib	1922	1.100000023841858	28.0855
1923	Sim	1	Sil	Sim	1923	0.9110000133514404	28.0855
1924	Sib	1	Sil	Sib	1924	1.100000023841858	28.0855
1925	Sib	1	Sil	Sib	1925	1.100000023841858	28.0855
1926	Sib	1	Sil	Sib	1926	1.100000023841858	28.0855
1927	Sib	1	Sil	Sib	1927	1.100000023841858	28.0855
1928	Sim	1	Sil	Sim	1928	0.9110000133514404	28.0855
1929	Sib	1	Sil	Sib	1929	1.100000023841858	28.0855
1930	Sib	1	Sil	Sib	1930	1.100000023841858	28.0855
1931	Sib	1	Sil	Sib	1931	1.100000023841858	28.0855
1932	Sib	1	Sil	Sib	1932	1.100000023841858	28.0855
1933	Sib	1	Sil	Sib	1933	1.100000023841858	28.0855
1934	Sib	1	Sil	Sib	1934	1.100000023841858	28.0855
1935	Sib	1	Sil	Sib	1935	1.100000023841858	28.0855
1936	Sib	1	Sil	Sib	1936	1.100000023841858	28.0855
1937	Sib	1	Sil	Sib	1937	1.100000023841858	28.0855
1938	Sim	1	Sil	Sim	1938	0.9110000133514404	28.0855
1939	Sim	1	Sil	Sim	1939	0.9110000133514404	28.0855
1940	Sib	1	Sil	Sib	1940	1.100000023841858	28.0855
1941	Sim	1	Sil	Sim	1941	0.9110000133514404	28.0855
1942	Sib	1	Sil	Sib	1942	1.100000023841858	28.0855
1943	Sib	1	Sil	Sib	1943	1.100000023841858	28.0855
1944	Sim	1	Sil	Sim	1944	0.9110000133514404	28.0855
1945	Sib	1	Sil	Sib	1945	1.100000023841858	28.0855
1946	Sib	1	Sil	Sib	1946	1.100000023841858	28.0855
1947	Sib	1	Sil	Sib	1947	1.100000023841858	28.0855
1948	Sib	1	Sil	Sib	1948	1.100000023841858	28.0855
1949	Sib	1	Sil	Sib	1949	1.100000023841858	28.0855
1950	Sib	1	Sil	Sib	1950	1.100000023841858	28.0855
1951	Sib	1	Sil	Sib	1951	1.100000023841858	28.0855
1952	Sib	1	Sil	Sib	1952	1.100000023841858	28.0855
1953	Sib	1	Sil	Sib	1953	1.100000023841858	28.0855
1954	Sib	1	Sil	Sib	1954	1.100000023841858	28.0855
1955	Sib	1	Sil	Sib	1955	1.100000023841858	28.0855
1956	Sib	1	Sil	Sib	1956	1.100000023841858	28.0855
1957	Sib	1	Sil	Sib	1957	1.100000023841858	28.0855
1958	Sib	1	Sil	Sib	1958	1.100000023841858	28.0855
1959	Sib	1	Sil	Sib	1959	1.100000023841858	28.0855
1960	Sib	1	Sil	Sib	1960	1.100000023841858	28.0855
1961	Sib	1	Sil	Sib	1961	1.100000023841858	28.0855
1962	Sib	1	Sil	Sib	1962	1.100000023841858	28.0855
1963	Sib	1	Sil	Sib	1963	1.100000023841858	28.0855
1964	Sib	1	Sil	Sib	1964	1.100000023841858	28.0855
1965	Sib	1	Sil	Sib	1965	1.100000023841858	28.0855
1966	Sib	1	Sil	Sib	1966	1.100000023841858	28.0855
1967	Sib	1	Sil	Sib	1967	1.100000023841858	28.0855
1968	Sib	1	Sil	Sib	1968	1.100000023841858	28.0855
1969	Sib	1	Sil	Sib	1969	1.100000023841858	28.0855
1970	Sim	1	Sil	Sim	1970	0.9110000133514404	28.0855
1971	Sib	1	Sil	Sib	1971	1.100000023841858	28.0855
1972	Sib	1	Sil	Sib	1972	1.100000023841858	28.0855
1973	Sib	1	Sil	Sib	1973	1.100000023841858	28.0855
1974	Sib	1	Sil	Sib	1974	1.100000023841858	28.0855
1975	Sib	1	Sil	Sib	1975	1.100000023841858	28.0855
1976	Sib	1	Sil	Sib	1976	1.100000023841858	28.0855
1977	Sib	1	Sil	Sib	1977	1.100000023841858	28.0855
1978	Sib	1	Sil	Sib	1978	1.100000023841858	28.0855
1979	Sib	1	Sil	Sib	1979	1.100000023841858	28.0855
1980	Sib	1	Sil	Sib	1980	1.100000023841858	28.0855
1981	Sib	1	Sil	Sib	1981	1.100000023841858	28.0855
1982	Sib	1	Sil	Sib	1982	1.100000023841858	28.0855
1983	Sib	1	Sil	Sib	1983	1.100000023841858	28.0855
1984	Sim	1	Sil	Sim	1984	0.9110000133514404	28.0855
1985	Sib	1	Sil	Sib	1985	1.100000023841858	28.0855
1986	Sim	1	Sil	Sim	1986	0.9110000133514404	28.0855
1987	Sib	1	Sil	Sib	1987	1.100000023841858	28.0855
1988	Sim	1	Sil	Sim	1988	0.9110000133514404	28.0855
1989	Sib	1	Sil	Sib	1989	1.100000023841858	28.0855
1990	Sim	1	Sil	Sim	1990	0.9110000133514404	28.0855
1991	Sib	1	Sil	Sib	1991	1.100000023841858	28.0855
1992	Sib	1	Sil	Sib	1992	1.100000023841858	28.0855
1993	Sib	1	Sil	Sib	1993	1.100000023841858	28.0855
1994	Sib	1	Sil	Sib	1994	1.100000023841858	28.0855
1995	Sib	1	Sil	Sib	1995	1.100000023841858	28.0855
1996	Sib	1	Sil	Sib	1996	1.100000023841858	28.0855
1997	Sib	1	Sil	Sib	1997	1.100000023841858	28.0855
1998	Sib	1	Sil	Sib	1998	1.100000023841858	28.0855
1999	Sim	1	Sil	Sim	1999	0.9110000133514404	28.0855
2000	Sib	1	Sil	Sib	2000	1.100000023841858	28.0855
2001	Sib	1	Sil	Sib	2001	1.100000023841858	28.0855
2002	Sib	1	Sil	Sib	2002	1.100000023841858	28.0855
2003	Sib	1	Sil	Sib	2003	1.100000023841858	28.0855
2004	Sib	1	Sil	Sib	2004	1.100000023841858	28.0855
2005	Sib	1	Sil	Sib	2005	1.100000023841858	28.0855
2006	Sib	1	Sil	Sib	2006	1.100000023841858	28.0855
2007	Sib	1	Sil	Sib	2007	1.100000023841858	28.0855
2008	Sib	1	Sil	Sib	2008	1.100000023841858	28.0855
2009	Sib	1	Sil	Sib	2009	1.100000023841858	28.0855
2010	Sim	1	Sil	Sim	2010	0.9110000133514404	28.0855
2011	Sib	1	Sil	Sib	2011	1.100000023841858	28.0855
2012	Sib	1	Sil	Sib	2012	1.100000023841858	28.0855
2013	Sib	1	Sil	Sib	2013	1.100000023841858	28.0855
2014	Sib	1	Sil	Sib	2014	1.100000023841858	28.0855
2015	Sib	1	Sil	Sib	2015	1.100000023841858	28.0855
2016	Sib	1	Sil	Sib	2016	1.100000023841858	28.0855
2017	Sim	1	Sil	Sim	2017	0.9110000133514404	28.0855
2018	Sib	1	Sil	Sib	2018	1.100000023841858	28.0855
2019	Sib	1	Sil	Sib	2019	1.100000023841858	28.0855
2020	Sib	1	Sil	Sib	2020	1.100000023841858	28.0855
2021	Sib	1	Sil	Sib	2021	1.100000023841858	28.0855
2022	Sib	1	Sil	Sib	2022	1.100000023841858	28.0855
2023	Sib	1	Sil	Sib	2023	1.100000023841858	28.0855
2024	Sib	1	Sil	Sib	2024	1.100000023841858	28.0855
2025	Sib	1	Sil	Sib	2025	1.100000023841858	28.0855
2026	Sim	1	Sil	Sim	2026	0.9110000133514404	28.0855
2027	Sib	1	Sil	Sib	2027	1.100000023841858	28.0855
2028	Sib	1	Sil	Sib	2028	1.100000023841858	28.0855
2029	Sib	1	Sil	Sib	2029	1.100000023841858	28.0855
2030	Sib	1	Sil	Sib	2030	1.100000023841858	28.0855
2031	Sib	1	Sil	Sib	2031	1.100000023841858	28.0855
2032	Sim	1	Sil	Sim	2032	0.9110000133514404	28.0855
2033	Sib	1	Sil	Sib	2033	1.100000023841858	28.0855
2034	Sib	1	Sil	Sib	2034	1.100000023841858	28.0855
2035	Sib	1	Sil	Sib	2035	1.100000023841858	28.0855
2036	Sib	1	Sil	Sib	2036	1.100000023841858	28.0855
2037	Sim	1	Sil	Sim	2037	0.9110000133514404	28.0855
2038	Sib	1	Sil	Sib	2038	1.100000023841858	28.0855
2039	Sim	1	Sil	Sim	2039	0.9110000133514404	28.0855
2040	Sib	1	Sil	Sib	2040	1.100000023841858	28.0855
2041	Sib	1	Sil	Sib	2041	1.100000023841858	28.0855
2042	Sim	1	Sil	Sim	2042	0.9110000133514404	28.0855
2043	Sib	1	Sil	Sib	2043	1.100000023841858	28.0855
2044	Sib	1	Sil	Sib	2044	1.100000023841858	28.0855
2045	Sim	1	Sil	Sim	2045	0.9110000133514404	28.0855
2046	Sim	1	Sil	Sim	2046	0.9110000133514404	28.0855
2047	Sib	1	Sil	Sib	2047	1.100000023841858	28.0855
2048	Sib	1	Sil	Sib	2048	1.100000023841858	28.0855
2049	Sib	1	Sil	Sib	2049	1.100000023841858	28.0855
2050	Sib	1	Sil	Sib	2050	1.100000023841858	28.0855
2051	Sib	1	Sil	Sib	2051	1.100000023841858	28.0855
2052	Sim	1	Sil	Sim	2052	0.9110000133514404	28.0855
2053	Sib	1	Sil	Sib	2053	1.100000023841858	28.0855
2054	Sib	1	Sil	Sib	2054	1.100000023841858	28.0855
2055	Sib	1	Sil	Sib	2055	1.100000023841858	28.0855
2056	Sib	1	Sil	Sib	2056	1.100000023841858	28.0855
2057	Sib	1	Sil	Sib	2057	1.100000023841858	28.0855
2058	Sib	1	Sil	Sib	2058	1.100000023841858	28.0855
2059	Sib	1	Sil	Sib	2059	1.100000023841858	28.0855
2060	Sib	1	Sil	Sib	2060	1.100000023841858	28.0855
2061	Sim	1	Sil	Sim	2061	0.722000002861023	28.0855
2062	Sib	1	Sil	Sib	2062	1.100000023841858	28.0855
2063	Sib	1	Sil	Sib	2063	1.100000023841858	28.0855
2064	Sib	1	Sil	Sib	2064	1.100000023841858	28.0855
2065	Sib	1	Sil	Sib	2065	1.100000023841858	28.0855
2066	Sib	1	Sil	Sib	2066	1.100000023841858	28.0855
2067	Sib	1	Sil	Sib	2067	1.100000023841858	28.0855
2068	Sib	1	Sil	Sib	2068	1.100000023841858	28.0855
2069	Sib	1	Sil	Sib	2069	1.100000023841858	28.0855
2070	Sim	1	Sil	Sim	2070	0.9110000133514404	28.0855
2071	Sib	1	Sil	Sib	2071	1.100000023841858	28.0855
2072	Sib	1	Sil	Sib	2072	1.100000023841858	28.0855
2073	Sib	1	Sil	Sib	2073	1.100000023841858	28.0855
2074	Sib	1	Sil	Sib	2074	1.100000023841858	28.0855
2075	Sib	1	Sil	Sib	2075	1.100000023841858	28.0855
2076	Sib	1	Sil	Sib	2076	1.100000023841858	28.0855
2077	Sib	1	Sil	Sib	2077	1.100000023841858	28.0855
2078	Sib	1	Sil	Sib	2078	1.100000023841858	28.0855
2079	Sib	1	Sil	Sib	2079	1.100000023841858	28.0855
2080	Sib	1	Sil	Sib	2080	1.100000023841858	28.0855
2081	Sim	1	Sil	Sim	2081	0.9110000133514404	28.0855
2082	Sim	1	Sil	Sim	2082	0.9110000133514404	28.0855
2083	Sim	1	Sil	Sim	2083	0.9110000133514404	28.0855
2084	Sib	1	Sil	Sib	2084	1.100000023841858	28.0855
2085	Sib	1	Sil	Sib	2085	1.100000023841858	28.0855
2086	Sim	1	Sil	Sim	2086	0.9110000133514404	28.0855
2087	Sim	1	Sil	Sim	2087	0.9110000133514404	28.0855
2088	Sib	1	Sil	Sib	2088	1.100000023841858	28.0855
2089	Sib	1	Sil	Sib	2089	1.100000023841858	28.0855
2090	Sim	1	Sil	Sim	2090	0.9110000133514404	28.0855
2091	Sib	1	Sil	Sib	2091	1.100000023841858	28.0855
2092	Sib	1	Sil	Sib	2092	1.100000023841858	28.0855
2093	Sib	1	Sil	Sib	2093	1.100000023841858	28.0855
2094	Sib	1	Sil	Sib	2094	1.100000023841858	28.0855
2095	Sim	1	Sil	Sim	2095	0.9110000133514404	28.0855
2096	Sib	1	Sil	Sib	2096	1.100000023841858	28.0855
2097	Sib	1	Sil	Sib	2097	1.100000023841858	28.0855
2098	Sim	1	Sil	Sim	2098	0.9110000133514404	28.0855
2099	Sib	1	Sil	Sib	2099	1.100000023841858	28.0855
2100	Sib	1	Sil	Sib	2100	1.100000023841858	28.0855
2101	Sim	1	Sil	Sim	2101	0.9110000133514404	28.0855
2102	Sib	1	Sil	Sib	2102	1.100000023841858	28.0855
2103	Sib	1	Sil	Sib	2103	1.100000023841858	28.0855
2104	Sib	1	Sil	Sib	2104	1.100000023841858	28.0855
2105	Sim	1	Sil	Sim	2105	0.9110000133514404	28.0855
2106	Sib	1	Sil	Sib	2106	1.100000023841858	28.0855
2107	Sib	1	Sil	Sib	2107	1.100000023841858	28.0855
2108	Sib	1	Sil	Sib	2108	1.100000023841858	28.0855
2109	Sib	1	Sil	Sib	2109	1.100000023841858	28.0855
2110	Sim	1	Sil	Sim	2110	0.9110000133514404	28.0855
2111	Sib	1	Sil	Sib	2111	1.100000023841858	28.0855
2112	Sim	1	Sil	Sim	2112	0.9110000133514404	28.0855
2113	Sib	1	Sil	Sib	2113	1.100000023841858	28.0855
2114	Sib	1	Sil	Sib	2114	1.100000023841858	28.0855
2115	Sib	1	Sil	Sib	2115	1.100000023841858	28.0855
2116	Sib	1	Sil	Sib	2116	1.100000023841858	28.0855
2117	Sib	1	Sil	Sib	2117	1.100000023841858	28.0855
2118	Sim	1	Sil	Sim	2118	0.9110000133514404	28.0855
2119	Sim	1	Sil	Sim	2119	0.9110000133514404	28.0855
2120	Sib	1	Sil	Sib	2120	1.100000023841858	28.0855
2121	Sim	1	Sil	Sim	2121	0.9110000133514404	28.0855
2122	Sib	1	Sil	Sib	2122	1.100000023841858	28.0855
2123	Sib	1	Sil	Sib	2123	1.100000023841858	28.0855
2124	Sib	1	Sil	Sib	2124	1.100000023841858	28.0855
2125	Sib	1	Sil	Sib	2125	1.100000023841858	28.0855
2126	Sib	1	Sil	Sib	2126	1.100000023841858	28.0855
2127	Sib	1	Sil	Sib	2127	1.100000023841858	28.0855
2128	Sib	1	Sil	Sib	2128	1.100000023841858	28.0855
2129	Sib	1	Sil	Sib	2129	1.100000023841858	28.0855
2130	Sib	1	Sil	Sib	2130	1.100000023841858	28.0855
2131	Sib	1	Sil	Sib	2131	1.100000023841858	28.0855
2132	Sib	1	Sil	Sib	2132	1.100000023841858	28.0855
2133	Sib	1	Sil	Sib	2133	1.100000023841858	28.0855
2134	Sib	1	Sil	Sib	2134	1.100000023841858	28.0855
2135	Sib	1	Sil	Sib	2135	1.100000023841858	28.0855
2136	Sib	1	Sil	Sib	2136	1.100000023841858	28.0855
2137	Sib	1	Sil	Sib	2137	1.100000023841858	28.0855
2138	Sib	1	Sil	Sib	2138	1.100000023841858	28.0855
2139	Sib	1	Sil	Sib	2139	1.100000023841858	28.0855
2140	Sib	1	Sil	Sib	2140	1.100000023841858	28.0855
2141	Sib	1	Sil	Sib	2141	1.100000023841858	28.0855
2142	Sib	1	Sil	Sib	2142	1.100000023841858	28.0855
2143	Sim	1	Sil	Sim	2143	0.9110000133514404	28.0855
2144	Sib	1	Sil	Sib	2144	1.100000023841858	28.0855
2145	Sib	1	Sil	Sib	2145	1.100000023841858	28.0855
2146	Sib	1	Sil	Sib	2146	1.100000023841858	28.0855
2147	Sib	1	Sil	Sib	2147	1.100000023841858	28.0855
2148	Sim	1	Sil	Sim	2148	0.9110000133514404	28.0855
2149	Sib	1	Sil	Sib	2149	1.100000023841858	28.0855
2150	Sib	1	Sil	Sib	2150	1.100000023841858	28.0855
2151	Sib	1	Sil	Sib	2151	1.100000023841858	28.0855
2152	Sib	1	Sil	Sib	2152	1.100000023841858	28.0855
2153	Sib	1	Sil	Sib	2153	1.100000023841858	28.0855
2154	Sib	1	Sil	Sib	2154	1.100000023841858	28.0855
2155	Sib	1	Sil	Sib	2155	1.100000023841858	28.0855
2156	Sib	1	Sil	Sib	2156	1.100000023841858	28.0855
2157	Sib	1	Sil	Sib	2157	1.100000023841858	28.0855
2158	Sib	1	Sil	Sib	2158	1.100000023841858	28.0855
2159	Sim	1	Sil	Sim	2159	0.9110000133514404	28.0855
2160	Sim	1	Sil	Sim	2160	0.9110000133514404	28.0855
2161	Sib	1	Sil	Sib	2161	1.100000023841858	28.0855
2162	Sim	1	Sil	Sim	2162	0.9110000133514404	28.0855
2163	Sib	1	Sil	Sib	2163	1.100000023841858	28.0855
2164	Sib	1	Sil	Sib	2164	1.100000023841858	28.0855
2165	Sim	1	Sil	Sim	2165	0.9110000133514404	28.0855
2166	Sib	1	Sil	Sib	2166	1.100000023841858	28.0855
2167	Sib	1	Sil	Sib	2167	1.100000023841858	28.0855
2168	Sib	1	Sil	Sib	2168	1.100000023841858	28.0855
2169	Sib	1	Sil	Sib	2169	1.100000023841858	28.0855
2170	Sib	1	Sil	Sib	2170	1.100000023841858	28.0855
2171	Sib	1	Sil	Sib	2171	1.100000023841858	28.0855
2172	Sib	1	Sil	Sib	2172	1.100000023841858	28.0855
2173	Sib	1	Sil	Sib	2173	1.100000023841858	28.0855
2174	Sib	1	Sil	Sib	2174	1.100000023841858	28.0855
2175	Sib	1	Sil	Sib	2175	1.100000023841858	28.0855
2176	Sib	1	Sil	Sib	2176	1.100000023841858	28.0855
2177	Sib	1	Sil	Sib	2177	1.100000023841858	28.0855
2178	Sib	1	Sil	Sib	2178	1.100000023841858	28.0855
2179	Sib	1	Sil	Sib	2179	1.100000023841858	28.0855
2180	Sib	1	Sil	Sib	2180	1.100000023841858	28.0855
2181	Sib	1	Sil	Sib	2181	1.100000023841858	28.0855
2182	Sib	1	Sil	Sib	2182	1.100000023841858	28.0855
2183	Sib	1	Sil	Sib	2183	1.100000023841858	28.0855
2184	Sib	1	Sil	Sib	2184	1.100000023841858	28.0855
2185	Sib	1	Sil	Sib	2185	1.100000023841858	28.0855
2186	Sib	1	Sil	Sib	2186	1.100000023841858	28.0855
2187	Sib	1	Sil	Sib	2187	1.100000023841858	28.0855
2188	Sib	1	Sil	Sib	2188	1.100000023841858	28.0855
2189	Sib	1	Sil	Sib	2189	1.100000023841858	28.0855
2190	Sib	1	Sil	Sib	2190	1.100000023841858	28.0855
2191	Sib	1	Sil	Sib	2191	1.100000023841858	28.0855
2192	Sim	1	Sil	Sim	2192	0.9110000133514404	28.0855
2193	Sib	1	Sil	Sib	2193	1.100000023841858	28.0855
2194	Sib	1	Sil	Sib	2194	1.100000023841858	28.0855
2195	Sib	1	Sil	Sib	2195	1.100000023841858	28.0855
2196	Sib	1	Sil	Sib	2196	1.100000023841858	28.0855
2197	Sib	1	Sil	Sib	2197	1.100000023841858	28.0855
2198	Sib	1	Sil	Sib	2198	1.100000023841858	28.0855
2199	Sib	1	Sil	Sib	2199	1.100000023841858	28.0855
2200	Sib	1	Sil	Sib	2200	1.100000023841858	28.0855
2201	Sib	1	Sil	Sib	2201	1.100000023841858	28.0855
2202	Sib	1	Sil	Sib	2202	1.100000023841858	28.0855
2203	Sib	1	Sil	Sib	2203	1.100000023841858	28.0855
2204	Sib	1	Sil	Sib	2204	1.100000023841858	28.0855
2205	Sib	1	Sil	Sib	2205	1.100000023841858	28.0855
2206	Sim	1	Sil	Sim	2206	0.9110000133514404	28.0855
2207	Sib	1	Sil	Sib	2207	1.100000023841858	28.0855
2208	Sim	1	Sil	Sim	2208	0.9110000133514404	28.0855
2209	Sib	1	Sil	Sib	2209	1.100000023841858	28.0855
2210	Sib	1	Sil	Sib	2210	1.100000023841858	28.0855
2211	Sib	1	Sil	Sib	2211	1.100000023841858	28.0855
2212	Sim	1	Sil	Sim	2212	0.9110000133514404	28.0855
2213	Sib	1	Sil	Sib	2213	1.100000023841858	28.0855
2214	Sib	1	Sil	Sib	2214	1.100000023841858	28.0855
2215	Sib	1	Sil	Sib	2215	1.100000023841858	28.0855
2216	Sib	1	Sil	Sib	2216	1.100000023841858	28.0855
2217	Sib	1	Sil	Sib	2217	1.100000023841858	28.0855
2218	Sib	1	Sil	Sib	2218	1.100000023841858	28.0855
2219	Sib	1	Sil	Sib	2219	1.100000023841858	28.0855
2220	Sim	1	Sil	Sim	2220	0.9110000133514404	28.0855
2221	Sim	1	Sil	Sim	2221	0.9110000133514404	28.0855
2222	Sib	1	Sil	Sib	2222	1.100000023841858	28.0855
2223	Sib	1	Sil	Sib	2223	1.100000023841858	28.0855
2224	Sib	1	Sil	Sib	2224	1.100000023841858	28.0855
2225	Sib	1	Sil	Sib	2225	1.100000023841858	28.0855
2226	Sib	1	Sil	Sib	2226	1.100000023841858	28.0855
2227	Sib	1	Sil	Sib	2227	1.100000023841858	28.0855
2228	Sib	1	Sil	Sib	2228	1.100000023841858	28.0855
2229	Sib	1	Sil	Sib	2229	1.100000023841858	28.0855
2230	Sib	1	Sil	Sib	2230	1.100000023841858	28.0855
2231	Sib	1	Sil	Sib	2231	1.100000023841858	28.0855
2232	Sim	1	Sil	Sim	2232	0.9110000133514404	28.0855
2233	Sib	1	Sil	Sib	2233	1.100000023841858	28.0855
2234	Sib	1	Sil	Sib	2234	1.100000023841858	28.0855
2235	Sib	1	Sil	Sib	2235	1.100000023841858	28.0855
2236	Sib	1	Sil	Sib	2236	1.100000023841858	28.0855
2237	Sib	1	Sil	Sib	2237	1.100000023841858	28.0855
2238	Sib	1	Sil	Sib	2238	1.100000023841858	28.0855
2239	Sim	1	Sil	Sim	2239	0.9110000133514404	28.0855
2240	Sib	1	Sil	Sib	2240	1.100000023841858	28.0855
2241	Sib	1	Sil	Sib	2241	1.100000023841858	28.0855
2242	Sib	1	Sil	Sib	2242	1.100000023841858	28.0855
2243	Sib	1	Sil	Sib	2243	1.100000023841858	28.0855
2244	Sib	1	Sil	Sib	2244	1.100000023841858	28.0855
2245	Sib	1	Sil	Sib	2245	1.100000023841858	28.0855
2246	Sib	1	Sil	Sib	2246	1.100000023841858	28.0855
2247	Sib	1	Sil	Sib	2247	1.100000023841858	28.0855
2248	Sim	1	Sil	Sim	2248	0.9110000133514404	28.0855
2249	Sib	1	Sil	Sib	2249	1.100000023841858	28.0855
2250	Sib	1	Sil	Sib	2250	1.100000023841858	28.0855
2251	Sib	1	Sil	Sib	2251	1.100000023841858	28.0855
2252	Sib	1	Sil	Sib	2252	1.100000023841858	28.0855
2253	Sib	1	Sil	Sib	2253	1.100000023841858	28.0855
2254	Sim	1	Sil	Sim	2254	0.9110000133514404	28.0855
2255	Sib	1	Sil	Sib	2255	1.100000023841858	28.0855
2256	Sib	1	Sil	Sib	2256	1.100000023841858	28.0855
2257	Sib	1	Sil	Sib	2257	1.100000023841858	28.0855
2258	Sib	1	Sil	Sib	2258	1.100000023841858	28.0855
2259	Sim	1	Sil	Sim	2259	0.9110000133514404	28.0855
2260	Sib	1	Sil	Sib	2260	1.100000023841858	28.0855
2261	Sim	1	Sil	Sim	2261	0.9110000133514404	28.0855
2262	Sib	1	Sil	Sib	2262	1.100000023841858	28.0855
2263	Sib	1	Sil	Sib	2263	1.100000023841858	28.0855
2264	Sim	1	Sil	Sim	2264	0.9110000133514404	28.0855
2265	Sib	1	Sil	Sib	2265	1.100000023841858	28.0855
2266	Sib	1	Sil	Sib	2266	1.100000023841858	28.0855
2267	Sim	1	Sil	Sim	2267	0.9110000133514404	28.0855
2268	Sim	1	Sil	Sim	2268	0.9110000133514404	28.0855
2269	Sib	1	Sil	Sib	2269	1.100000023841858	28.0855
2270	Sib	1	Sil	Sib	2270	1.100000023841858	28.0855
2271	Sib	1	Sil	Sib	2271	1.100000023841858	28.0855
2272	Sib	1	Sil	Sib	2272	1.100000023841858	28.0855
2273	Sib	1	Sil	Sib	2273	1.100000023841858	28.0855
2274	Sim	1	Sil	Sim	2274	0.9110000133514404	28.0855
2275	Sib	1	Sil	Sib	2275	1.100000023841858	28.0855
2276	Sib	1	Sil	Sib	2276	1.100000023841858	28.0855
2277	Sib	1	Sil	Sib	2277	1.100000023841858	28.0855
2278	Sib	1	Sil	Sib	2278	1.100000023841858	28.0855
2279	Sib	1	Sil	Sib	2279	1.100000023841858	28.0855
2280	Sib	1	Sil	Sib	2280	1.100000023841858	28.0855
2281	Sib	1	Sil	Sib	2281	1.100000023841858	28.0855
2282	Sib	1	Sil	Sib	2282	1.100000023841858	28.0855
2283	Sim	1	Sil	Sim	2283	0.9110000133514404	28.0855
2284	Sib	1	Sil	Sib	2284	1.100000023841858	28.0855
2285	Sib	1	Sil	Sib	2285	1.100000023841858	28.0855
2286	Sib	1	Sil	Sib	2286	1.100000023841858	28.0855
2287	Sim	1	Sil	Sim	2287	0.9110000133514404	28.0855
2288	Sim	1	Sil	Sim	2288	0.9110000133514404	28.0855
2289	Sib	1	Sil	Sib	2289	1.100000023841858	28.0855
2290	Sib	1	Sil	Sib	2290	1.100000023841858	28.0855
2291	Sib	1	Sil	Sib	2291	1.100000023841858	28.0855
2292	Sib	1	Sil	Sib	2292	1.100000023841858	28.0855
2293	Sim	1	Sil	Sim	2293	0.9110000133514404	28.0855
2294	Sib	1	Sil	Sib	2294	1.100000023841858	28.0855
2295	Sib	1	Sil	Sib	2295	1.100000023841858	28.0855
2296	Sib	1	Sil	Sib	2296	1.100000023841858	28.0855
2297	Sib	1	Sil	Sib	2297	1.100000023841858	28.0855
2298	Sib	1	Sil	Sib	2298	1.100000023841858	28.0855
2299	Sib	1	Sil	Sib	2299	1.100000023841858	28.0855
2300	Sib	1	Sil	Sib	2300	1.100000023841858	28.0855
2301	Sib	1	Sil	Sib	2301	1.100000023841858	28.0855
2302	Sib	1	Sil	Sib	2302	1.100000023841858	28.0855
2303	Sib	1	Sil	Sib	2303	1.100000023841858	28.0855
2304	Sim	1	Sil	Sim	2304	0.9110000133514404	28.0855
2305	Sim	1	Sil	Sim	2305	0.9110000133514404	28.0855
2306	Sim	1	Sil	Sim	2306	0.9110000133514404	28.0855
2307	Sib	1	Sil	Sib	2307	1.100000023841858	28.0855
2308	Sib	1	Sil	Sib	2308	1.100000023841858	28.0855
2309	Sim	1	Sil	Sim	2309	0.9110000133514404	28.0855
2310	Sim	1	Sil	Sim	2310	0.9110000133514404	28.0855
2311	Sib	1	Sil	Sib	2311	1.100000023841858	28.0855
2312	Sib	1	Sil	Sib	2312	1.100000023841858	28.0855
2313	Sim	1	Sil	Sim	2313	0.9110000133514404	28.0855
2314	Sib	1	Sil	Sib	2314	1.100000023841858	28.0855
2315	Sib	1	Sil	Sib	2315	1.100000023841858	28.0855
2316	Sib	1	Sil	Sib	2316	1.100000023841858	28.0855
2317	Sim	1	Sil	Sim	2317	0.9110000133514404	28.0855
2318	Sib	1	Sil	Sib	2318	1.100000023841858	28.0855
2319	Sib	1	Sil	Sib	2319	1.100000023841858	28.0855
2320	Sim	1	Sil	Sim	2320	0.9110000133514404	28.0855
2321	Sib	1	Sil	Sib	2321	1.100000023841858	28.0855
2322	Sib	1	Sil	Sib	2322	1.100000023841858	28.0855
2323	Sim	1	Sil	Sim	2323	0.9110000133514404	28.0855
2324	Sib	1	Sil	Sib	2324	1.100000023841858	28.0855
2325	Sib	1	Sil	Sib	2325	1.100000023841858	28.0855
2326	Sib	1	Sil	Sib	2326	1.100000023841858	28.0855
2327	Sim	1	Sil	Sim	2327	0.9110000133514404	28.0855
2328	Sib	1	Sil	Sib	2328	1.100000023841858	28.0855
2329	Sib	1	Sil	Sib	2329	1.100000023841858	28.0855
2330	Sib	1	Sil	Sib	2330	1.100000023841858	28.0855
2331	Sib	1	Sil	Sib	2331	1.100000023841858	28.0855
2332	Sim	1	Sil	Sim	2332	0.9110000133514404	28.0855
2333	Sib	1	Sil	Sib	2333	1.100000023841858	28.0855
2334	Sim	1	Sil	Sim	2334	0.9110000133514404	28.0855
2335	Sib	1	Sil	Sib	2335	1.100000023841858	28.0855
2336	Sib	1	Sil	Sib	2336	1.100000023841858	28.0855
2337	Sib	1	Sil	Sib	2337	1.100000023841858	28.0855
2338	Sib	1	Sil	Sib	2338	1.100000023841858	28.0855
2339	Sib	1	Sil	Sib	2339	1.100000023841858	28.0855
2340	Sim	1	Sil	Sim	2340	0.722000002861023	28.0855
2341	Sim	1	Sil	Sim	2341	0.9110000133514404	28.0855
2342	Sib	1	Sil	Sib	2342	1.100000023841858	28.0855
2343	Sim	1	Sil	Sim	2343	0.9110000133514404	28.0855
2344	Sib	1	Sil	Sib	2344	1.100000023841858	28.0855
2345	Sib	1	Sil	Sib	2345	1.100000023841858	28.0855
2346	Sim	1	Sil	Sim	2346	0.9110000133514404	28.0855
2347	Sib	1	Sil	Sib	2347	1.100000023841858	28.0855
2348	Sib	1	Sil	Sib	2348	1.100000023841858	28.0855
2349	Sib	1	Sil	Sib	2349	1.100000023841858	28.0855
2350	Sib	1	Sil	Sib	2350	1.100000023841858	28.0855
2351	Sib	1	Sil	Sib	2351	1.100000023841858	28.0855
2352	Sib	1	Sil	Sib	2352	1.100000023841858	28.0855
2353	Sib	1	Sil	Sib	2353	1.100000023841858	28.0855
2354	Sib	1	Sil	Sib	2354	1.100000023841858	28.0855
2355	Sib	1	Sil	Sib	2355	1.100000023841858	28.0855
2356	Sib	1	Sil	Sib	2356	1.100000023841858	28.0855
2357	Sib	1	Sil	Sib	2357	1.100000023841858	28.0855
2358	Sib	1	Sil	Sib	2358	1.100000023841858	28.0855
2359	Sib	1	Sil	Sib	2359	1.100000023841858	28.0855
2360	Sib	1	Sil	Sib	2360	1.100000023841858	28.0855
2361	Sib	1	Sil	Sib	2361	1.100000023841858	28.0855
2362	Sib	1	Sil	Sib	2362	1.100000023841858	28.0855
2363	Sib	1	Sil	Sib	2363	1.100000023841858	28.0855
2364	Sib	1	Sil	Sib	2364	1.100000023841858	28.0855
2365	Sim	1	Sil	Sim	2365	0.9110000133514404	28.0855
2366	Sib	1	Sil	Sib	2366	1.100000023841858	28.0855
2367	Sib	1	Sil	Sib	2367	1.100000023841858	28.0855
2368	Sib	1	Sil	Sib	2368	1.100000023841858	28.0855
2369	Sib	1	Sil	Sib	2369	1.100000023841858	28.0855
2370	Sim	1	Sil	Sim	2370	0.9110000133514404	28.0855
2371	Sib	1	Sil	Sib	2371	1.100000023841858	28.0855
2372	Sib	1	Sil	Sib	2372	1.100000023841858	28.0855
2373	Sib	1	Sil	Sib	2373	1.100000023841858	28.0855
2374	Sib	1	Sil	Sib	2374	1.100000023841858	28.0855
2375	Sib	1	Sil	Sib	2375	1.100000023841858	28.0855
2376	Sib	1	Sil	Sib	2376	1.100000023841858	28.0855
2377	Sib	1	Sil	Sib	2377	1.100000023841858	28.0855
2378	Sib	1	Sil	Sib	2378	1.100000023841858	28.0855
2379	Sib	1	Sil	Sib	2379	1.100000023841858	28.0855
2380	Sim	1	Sil	Sim	2380	0.9110000133514404	28.0855
2381	Sim	1	Sil	Sim	2381	0.9110000133514404	28.0855
2382	Sib	1	Sil	Sib	2382	1.100000023841858	28.0855
2383	Sim	1	Sil	Sim	2383	0.9110000133514404	28.0855
2384	Sib	1	Sil	Sib	2384	1.100000023841858	28.0855
2385	Sib	1	Sil	Sib	2385	1.100000023841858	28.0855
2386	Sim	1	Sil	Sim	2386	0.9110000133514404	28.0855
2387	Sib	1	Sil	Sib	2387	1.100000023841858	28.0855
2388	Sib	1	Sil	Sib	2388	1.100000023841858	28.0855
2389	Sib	1	Sil	Sib	2389	1.100000023841858	28.0855
2390	Sib	1	Sil	Sib	2390	1.100000023841858	28.0855
2391	Sib	1	Sil	Sib	2391	1.100000023841858	28.0855
2392	Sib	1	Sil	Sib	2392	1.100000023841858	28.0855
2393	Sib	1	Sil	Sib	2393	1.100000023841858	28.0855
2394	Sib	1	Sil	Sib	2394	1.100000023841858	28.0855
2395	Sib	1	Sil	Sib	2395	1.100000023841858	28.0855
2396	Sib	1	Sil	Sib	2396	1.100000023841858	28.0855
2397	Sib	1	Sil	Sib	2397	1.100000023841858	28.0855
2398	Sib	1	Sil	Sib	2398	1.100000023841858	28.0855
2399	Sib	1	Sil	Sib	2399	1.100000023841858	28.0855
2400	Sib	1	Sil	Sib	2400	1.100000023841858	28.0855
2401	Sib	1	Sil	Sib	2401	1.100000023841858	28.0855
2402	Sib	1	Sil	Sib	2402	1.100000023841858	28.0855
2403	Sib	1	Sil	Sib	2403	1.100000023841858	28.0855
2404	Sib	1	Sil	Sib	2404	1.100000023841858	28.0855
2405	Sib	1	Sil	Sib	2405	1.100000023841858	28.0855
2406	Sib	1	Sil	Sib	2406	1.100000023841858	28.0855
2407	Sib	1	Sil	Sib	2407	1.100000023841858	28.0855
2408	Sib	1	Sil	Sib	2408	1.100000023841858	28.0855
2409	Sib	1	Sil	Sib	2409	1.100000023841858	28.0855
2410	Sib	1	Sil	Sib	2410	1.100000023841858	28.0855
2411	Sib	1	Sil	Sib	2411	1.100000023841858	28.0855
2412	Sim	1	Sil	Sim	2412	0.9110000133514404	28.0855
2413	Sib	1	Sil	Sib	2413	1.100000023841858	28.0855
2414	Sib	1	Sil	Sib	2414	1.100000023841858	28.0855
2415	Sib	1	Sil	Sib	2415	1.100000023841858	28.0855
2416	Sib	1	Sil	Sib	2416	1.100000023841858	28.0855
2417	Sib	1	Sil	Sib	2417	1.100000023841858	28.0855
2418	Sib	1	Sil	Sib	2418	1.100000023841858	28.0855
2419	Sib	1	Sil	Sib	2419	1.100000023841858	28.0855
2420	Sib	1	Sil	Sib	2420	1.100000023841858	28.0855
2421	Sib	1	Sil	Sib	2421	1.100000023841858	28.0855
2422	Sib	1	Sil	Sib	2422	1.100000023841858	28.0855
2423	Sib	1	Sil	Sib	2423	1.100000023841858	28.0855
2424	Sib	1	Sil	Sib	2424	1.100000023841858	28.0855
2425	Sib	1	Sil	Sib	2425	1.100000023841858	28.0855
2426	Sim	1	Sil	Sim	2426	0.9110000133514404	28.0855
2427	Sib	1	Sil	Sib	2427	1.100000023841858	28.0855
2428	Sim	1	Sil	Sim	2428	0.9110000133514404	28.0855
2429	Sib	1	Sil	Sib	2429	1.100000023841858	28.0855
2430	Sim	1	Sil	Sim	2430	0.9110000133514404	28.0855
2431	Sib	1	Sil	Sib	2431	1.100000023841858	28.0855
2432	Sim	1	Sil	Sim	2432	0.9110000133514404	28.0855
2433	Sib	1	Sil	Sib	2433	1.100000023841858	28.0855
2434	Sib	1	Sil	Sib	2434	1.100000023841858	28.0855
2435	Sib	1	Sil	Sib	2435	1.100000023841858	28.0855
2436	Sib	1	Sil	Sib	2436	1.100000023841858	28.0855
2437	Sib	1	Sil	Sib	2437	1.100000023841858	28.0855
2438	Sib	1	Sil	Sib	2438	1.100000023841858	28.0855
2439	Sib	1	Sil	Sib	2439	1.100000023841858	28.0855
2440	Sib	1	Sil	Sib	2440	1.100000023841858	28.0855
2441	Sim	1	Sil	Sim	2441	0.722000002861023	28.0855
2442	Sib	1	Sil	Sib	2442	1.100000023841858	28.0855
2443	Sib	1	Sil	Sib	2443	1.100000023841858	28.0855
2444	Sib	1	Sil	Sib	2444	1.100000023841858	28.0855
2445	Sib	1	Sil	Sib	2445	1.100000023841858	28.0855
2446	Sib	1	Sil	Sib	2446	1.100000023841858	28.0855
2447	Sib	1	Sil	Sib	2447	1.100000023841858	28.0855
2448	Sib	1	Sil	Sib	2448	1.100000023841858	28.0855
2449	Sib	1	Sil	Sib	2449	1.100000023841858	28.0855
2450	Sib	1	Sil	Sib	2450	1.100000023841858	28.0855
2451	Sib	1	Sil	Sib	2451	1.100000023841858	28.0855
2452	Sim	1	Sil	Sim	2452	0.9110000133514404	28.0855
2453	Sib	1	Sil	Sib	2453	1.100000023841858	28.0855
2454	Sib	1	Sil	Sib	2454	1.100000023841858	28.0855
2455	Sib	1	Sil	Sib	2455	1.100000023841858	28.0855
2456	Sib	1	Sil	Sib	2456	1.100000023841858	28.0855
2457	Sib	1	Sil	Sib	2457	1.100000023841858	28.0855
2458	Sib	1	Sil	Sib	2458	1.100000023841858	28.0855
2459	Sim	1	Sil	Sim	2459	0.9110000133514404	28.0855
2460	Sib	1	Sil	Sib	2460	1.100000023841858	28.0855
2461	Sib	1	Sil	Sib	2461	1.100000023841858	28.0855
2462	Sib	1	Sil	Sib	2462	1.100000023841858	28.0855
2463	Sib	1	Sil	Sib	2463	1.100000023841858	28.0855
2464	Sib	1	Sil	Sib	2464	1.100000023841858	28.0855
2465	Sib	1	Sil	Sib	2465	1.100000023841858	28.0855
2466	Sib	1	Sil	Sib	2466	1.100000023841858	28.0855
2467	Sib	1	Sil	Sib	2467	1.100000023841858	28.0855
2468	Sim	1	Sil	Sim	2468	0.9110000133514404	28.0855
2469	Sib	1	Sil	Sib	2469	1.100000023841858	28.0855
2470	Sib	1	Sil	Sib	2470	1.100000023841858	28.0855
2471	Sib	1	Sil	Sib	2471	1.100000023841858	28.0855
2472	Sib	1	Sil	Sib	2472	1.100000023841858	28.0855
2473	Sib	1	Sil	Sib	2473	1.100000023841858	28.0855
2474	Sim	1	Sil	Sim	2474	0.9110000133514404	28.0855
2475	Sib	1	Sil	Sib	2475	1.100000023841858	28.0855
2476	Sib	1	Sil	Sib	2476	1.100000023841858	28.0855
2477	Sib	1	Sil	Sib	2477	1.100000023841858	28.0855
2478	Sib	1	Sil	Sib	2478	1.100000023841858	28.0855
2479	Sim	1	Sil	Sim	2479	0.9110000133514404	28.0855
2480	Sib	1	Sil	Sib	2480	1.100000023841858	28.0855
2481	Sim	1	Sil	Sim	2481	0.9110000133514404	28.0855
2482	Sib	1	Sil	Sib	2482	1.100000023841858	28.0855
2483	Sib	1	Sil	Sib	2483	1.100000023841858	28.0855
2484	Sim	1	Sil	Sim	2484	0.9110000133514404	28.0855
2485	Sib	1	Sil	Sib	2485	1.100000023841858	28.0855
2486	Sib	1	Sil	Sib	2486	1.100000023841858	28.0855
2487	Sim	1	Sil	Sim	2487	0.9110000133514404	28.0855
2488	Sim	1	Sil	Sim	2488	0.9110000133514404	28.0855
2489	Sib	1	Sil	Sib	2489	1.100000023841858	28.0855
2490	Sib	1	Sil	Sib	2490	1.100000023841858	28.0855
2491	Sib	1	Sil	Sib	2491	1.100000023841858	28.0855
2492	Sib	1	Sil	Sib	2492	1.100000023841858	28.0855
2493	Sib	1	Sil	Sib	2493	1.100000023841858	28.0855
2494	Sim	1	Sil	Sim	2494	0.722000002861023	28.0855
2495	Sib	1	Sil	Sib	2495	1.100000023841858	28.0855
2496	Sib	1	Sil	Sib	2496	1.100000023841858	28.0855
2497	Sib	1	Sil	Sib	2497	1.100000023841858	28.0855
2498	Sib	1	Sil	Sib	2498	1.100000023841858	28.0855
2499	Sib	1	Sil	Sib	2499	1.100000023841858	28.0855
2500	Sib	1	Sil	Sib	2500	1.100000023841858	28.0855
2501	Sib	1	Sil	Sib	2501	1.100000023841858	28.0855
2502	Sib	1	Sil	Sib	2502	1.100000023841858	28.0855
2503	Sim	1	Sil	Sim	2503	0.722000002861023	28.0855
2504	Sib	1	Sil	Sib	2504	1.100000023841858	28.0855
2505	Sib	1	Sil	Sib	2505	1.100000023841858	28.0855
2506	Sib	1	Sil	Sib	2506	1.100000023841858	28.0855
2507	Sim	1	Sil	Sim	2507	0.9110000133514404	28.0855
2508	Sib	1	Sil	Sib	2508	1.100000023841858	28.0855
2509	Sib	1	Sil	Sib	2509	1.100000023841858	28.0855
2510	Sib	1	Sil	Sib	2510	1.100000023841858	28.0855
2511	Sib	1	Sil	Sib	2511	1.100000023841858	28.0855
2512	Sim	1	Sil	Sim	2512	0.9110000133514404	28.0855
2513	Sib	1	Sil	Sib	2513	1.100000023841858	28.0855
2514	Sib	1	Sil	Sib	2514	1.100000023841858	28.0855
2515	Sib	1	Sil	Sib	2515	1.100000023841858	28.0855
2516	Sib	1	Sil	Sib	2516	1.100000023841858	28.0855
2517	Sib	1	Sil	Sib	2517	1.100000023841858	28.0855
2518	Sib	1	Sil	Sib	2518	1.100000023841858	28.0855
2519	Sib	1	Sil	Sib	2519	1.100000023841858	28.0855
2520	Sib	1	Sil	Sib	2520	1.100000023841858	28.0855
2521	Sib	1	Sil	Sib	2521	1.100000023841858	28.0855
2522	Sib	1	Sil	Sib	2522	1.100000023841858	28.0855
2523	Sim	1	Sil	Sim	2523	0.9110000133514404	28.0855
2524	Sim	1	Sil	Sim	2524	0.9110000133514404	28.0855
2525	Sim	1	Sil	Sim	2525	0.9110000133514404	28.0855
2526	Sib	1	Sil	Sib	2526	1.100000023841858	28.0855
2527	Sim	1	Sil	Sim	2527	0.9110000133514404	28.0855
2528	Sim	1	Sil	Sim	2528	0.9110000133514404	28.0855
2529	Sib	1	Sil	Sib	2529	1.100000023841858	28.0855
2530	Sib	1	Sil	Sib	2530	1.100000023841858	28.0855
2531	Sim	1	Sil	Sim	2531	0.9110000133514404	28.0855
2532	Sib	1	Sil	Sib	2532	1.100000023841858	28.0855
2533	Sib	1	Sil	Sib	2533	1.100000023841858	28.0855
2534	Sib	1	Sil	Sib	2534	1.100000023841858	28.0855
2535	Sib	1	Sil	Sib	2535	1.100000023841858	28.0855
2536	Sim	1	Sil	Sim	2536	0.9110000133514404	28.0855
2537	Sib	1	Sil	Sib	2537	1.100000023841858	28.0855
2538	Sib	1	Sil	Sib	2538	1.100000023841858	28.0855
2539	Sim	1	Sil	Sim	2539	0.9110000133514404	28.0855
2540	Sib	1	Sil	Sib	2540	1.100000023841858	28.0855
2541	Sib	1	Sil	Sib	2541	1.100000023841858	28.0855
2542	Sim	1	Sil	Sim	2542	0.9110000133514404	28.0855
2543	Sib	1	Sil	Sib	2543	1.100000023841858	28.0855
2544	Sib	1	Sil	Sib	2544	1.100000023841858	28.0855
2545	Sib	1	Sil	Sib	2545	1.100000023841858	28.0855
2546	Sim	1	Sil	Sim	2546	0.9110000133514404	28.0855
2547	Sib	1	Sil	Sib	2547	1.100000023841858	28.0855
2548	Sib	1	Sil	Sib	2548	1.100000023841858	28.0855
2549	Sib	1	Sil	Sib	2549	1.100000023841858	28.0855
2550	Sib	1	Sil	Sib	2550	1.100000023841858	28.0855
2551	Sim	1	Sil	Sim	2551	0.9110000133514404	28.0855
2552	Sib	1	Sil	Sib	2552	1.100000023841858	28.0855
2553	Sim	1	Sil	Sim	2553	0.9110000133514404	28.0855
2554	Sib	1	Sil	Sib	2554	1.100000023841858	28.0855
2555	Sib	1	Sil	Sib	2555	1.100000023841858	28.0855
2556	Sib	1	Sil	Sib	2556	1.100000023841858	28.0855
2557	Sib	1	Sil	Sib	2557	1.100000023841858	28.0855
2558	Sib	1	Sil	Sib	2558	1.100000023841858	28.0855
2559	Sim	1	Sil	Sim	2559	0.9110000133514404	28.0855
2560	Sim	1	Sil	Sim	2560	0.9110000133514404	28.0855
2561	Sib	1	Sil	Sib	2561	1.100000023841858	28.0855
2562	Sim	1	Sil	Sim	2562	0.9110000133514404	28.0855
2563	Sib	1	Sil	Sib	2563	1.100000023841858	28.0855
2564	Sib	1	Sil	Sib	2564	1.100000023841858	28.0855
2565	Sim	1	Sil	Sim	2565	0.9110000133514404	28.0855
2566	Sib	1	Sil	Sib	2566	1.100000023841858	28.0855
2567	Sib	1	Sil	Sib	2567	1.100000023841858	28.0855
2568	Sib	1	Sil	Sib	2568	1.100000023841858	28.0855
2569	Sib	1	Sil	Sib	2569	1.100000023841858	28.0855
2570	Sib	1	Sil	Sib	2570	1.100000023841858	28.0855
2571	Sib	1	Sil	Sib	2571	1.100000023841858	28.0855
2572	Sib	1	Sil	Sib	2572	1.100000023841858	28.0855
2573	Sib	1	Sil	Sib	2573	1.100000023841858	28.0855
2574	Sib	1	Sil	Sib	2574	1.100000023841858	28.0855
2575	Sib	1	Sil	Sib	2575	1.100000023841858	28.0855
2576	Sib	1	Sil	Sib	2576	1.100000023841858	28.0855
2577	Sib	1	Sil	Sib	2577	1.100000023841858	28.0855
2578	Sib	1	Sil	Sib	2578	1.100000023841858	28.0855
2579	Sib	1	Sil	Sib	2579	1.100000023841858	28.0855
2580	Sib	1	Sil	Sib	2580	1.100000023841858	28.0855
2581	Sib	1	Sil	Sib	2581	1.100000023841858	28.0855
2582	Sib	1	Sil	Sib	2582	1.100000023841858	28.0855
2583	Sib	1	Sil	Sib	2583	1.100000023841858	28.0855
2584	Sim	1	Sil	Sim	2584	0.9110000133514404	28.0855
2585	Sib	1	Sil	Sib	2585	1.100000023841858	28.0855
2586	Sib	1	Sil	Sib	2586	1.100000023841858	28.0855
2587	Sib	1	Sil	Sib	2587	1.100000023841858	28.0855
2588	Sib	1	Sil	Sib	2588	1.100000023841858	28.0855
2589	Sim	1	Sil	Sim	2589	0.9110000133514404	28.0855
2590	Sib	1	Sil	Sib	2590	1.100000023841858	28.0855
2591	Sib	1	Sil	Sib	2591	1.100000023841858	28.0855
2592	Sib	1	Sil	Sib	2592	1.100000023841858	28.0855
2593	Sib	1	Sil	Sib	2593	1.100000023841858	28.0855
2594	Sib	1	Sil	Sib	2594	1.100000023841858	28.0855
2595	Sib	1	Sil	Sib	2595	1.100000023841858	28.0855
2596	Sib	1	Sil	Sib	2596	1.100000023841858	28.0855
2597	Sib	1	Sil	Sib	2597	1.100000023841858	28.0855
2598	Sib	1	Sil	Sib	2598	1.100000023841858	28.0855
2599	Sib	1	Sil	Sib	2599	1.100000023841858	28.0855
2600	Sim	1	Sil	Sim	2600	0.9110000133514404	28.0855
2601	Sim	1	Sil	Sim	2601	0.9110000133514404	28.0855
2602	Sib	1	Sil	Sib	2602	1.100000023841858	28.0855
2603	Sim	1	Sil	Sim	2603	0.9110000133514404	28.0855
2604	Sib	1	Sil	Sib	2604	1.100000023841858	28.0855
2605	Sib	1	Sil	Sib	2605	1.100000023841858	28.0855
2606	Sim	1	Sil	Sim	2606	0.9110000133514404	28.0855
2607	Sib	1	Sil	Sib	2607	1.100000023841858	28.0855
2608	Sib	1	Sil	Sib	2608	1.100000023841858	28.0855
2609	Sib	1	Sil	Sib	2609	1.100000023841858	28.0855
2610	Sib	1	Sil	Sib	2610	1.100000023841858	28.0855
2611	Sib	1	Sil	Sib	2611	1.100000023841858	28.0855
2612	Sib	1	Sil	Sib	2612	1.100000023841858	28.0855
2613	Sib	1	Sil	Sib	2613	1.100000023841858	28.0855
2614	Sib	1	Sil	Sib	2614	1.100000023841858	28.0855
2615	Sib	1	Sil	Sib	2615	1.100000023841858	28.0855
2616	Sib	1	Sil	Sib	2616	1.100000023841858	28.0855
2617	Sib	1	Sil	Sib	2617	1.100000023841858	28.0855
2618	Sib	1	Sil	Sib	2618	1.100000023841858	28.0855
2619	Sib	1	Sil	Sib	2619	1.100000023841858	28.0855
2620	Sib	1	Sil	Sib	2620	1.100000023841858	28.0855
2621	Sib	1	Sil	Sib	2621	1.100000023841858	28.0855
2622	Sib	1	Sil	Sib	2622	1.100000023841858	28.0855
2623	Sib	1	Sil	Sib	2623	1.100000023841858	28.0855
2624	Sib	1	Sil	Sib	2624	1.100000023841858	28.0855
2625	Sib	1	Sil	Sib	2625	1.100000023841858	28.0855
2626	Sib	1	Sil	Sib	2626	1.100000023841858	28.0855
2627	Sib	1	Sil	Sib	2627	1.100000023841858	28.0855
2628	Sib	1	Sil	Sib	2628	1.100000023841858	28.0855
2629	Sib	1	Sil	Sib	2629	1.100000023841858	28.0855
2630	Sib	1	Sil	Sib	2630	1.100000023841858	28.0855
2631	Sib	1	Sil	Sib	2631	1.100000023841858	28.0855
2632	Sib	1	Sil	Sib	2632	1.100000023841858	28.0855
2633	Sim	1	Sil	Sim	2633	0.9110000133514404	28.0855
2634	Sib	1	Sil	Sib	2634	1.100000023841858	28.0855
2635	Sib	1	Sil	Sib	2635	1.100000023841858	28.0855
2636	Sib	1	Sil	Sib	2636	1.100000023841858	28.0855
2637	Sib	1	Sil	Sib	2637	1.100000023841858	28.0855
2638	Sib	1	Sil	Sib	2638	1.100000023841858	28.0855
2639	Sib	1	Sil	Sib	2639	1.100000023841858	28.0855
2640	Sib	1	Sil	Sib	2640	1.100000023841858	28.0855
2641	Sib	1	Sil	Sib	2641	1.100000023841858	28.0855
2642	Sib	1	Sil	Sib	2642	1.100000023841858	28.0855
2643	Sib	1	Sil	Sib	2643	1.100000023841858	28.0855
2644	Sib	1	Sil	Sib	2644	1.100000023841858	28.0855
2645	Sib	1	Sil	Sib	2645	1.100000023841858	28.0855
2646	Sib	1	Sil	Sib	2646	1.100000023841858	28.0855
2647	Sim	1	Sil	Sim	2647	0.9110000133514404	28.0855
2648	Sib	1	Sil	Sib	2648	1.100000023841858	28.0855
2649	Sim	1	Sil	Sim	2649	0.9110000133514404	28.0855
2650	Sib	1	Sil	Sib	2650	1.100000023841858	28.0855
2651	Sim	1	Sil	Sim	2651	0.9110000133514404	28.0855
2652	Sib	1	Sil	Sib	2652	1.100000023841858	28.0855
2653	Sim	1	Sil	Sim	2653	0.9110000133514404	28.0855
2654	Sib	1	Sil	Sib	2654	1.100000023841858	28.0855
2655	Sib	1	Sil	Sib	2655	1.100000023841858	28.0855
2656	Sib	1	Sil	Sib	2656	1.100000023841858	28.0855
2657	Sib	1	Sil	Sib	2657	1.100000023841858	28.0855
2658	Sib	1	Sil	Sib	2658	1.100000023841858	28.0855
2659	Sib	1	Sil	Sib	2659	1.100000023841858	28.0855
2660	Sib	1	Sil	Sib	2660	1.100000023841858	28.0855
2661	Sim	1	Sil	Sim	2661	0.9110000133514404	28.0855
2662	Sim	1	Sil	Sim	2662	0.9110000133514404	28.0855
2663	Sib	1	Sil	Sib	2663	1.100000023841858	28.0855
2664	Sib	1	Sil	Sib	2664	1.100000023841858	28.0855
2665	Sib	1	Sil	Sib	2665	1.100000023841858	28.0855
2666	Sib	1	Sil	Sib	2666	1.100000023841858	28.0855
2667	Sib	1	Sil	Sib	2667	1.100000023841858	28.0855
2668	Sib	1	Sil	Sib	2668	1.100000023841858	28.0855
2669	Sib	1	Sil	Sib	2669	1.100000023841858	28.0855
2670	Sib	1	Sil	Sib	2670	1.100000023841858	28.0855
2671	Sib	1	Sil	Sib	2671	1.100000023841858	28.0855
2672	Sib	1	Sil	Sib	2672	1.100000023841858	28.0855
2673	Sim	1	Sil	Sim	2673	0.9110000133514404	28.0855
2674	Sib	1	Sil	Sib	2674	1.100000023841858	28.0855
2675	Sib	1	Sil	Sib	2675	1.100000023841858	28.0855
2676	Sib	1	Sil	Sib	2676	1.100000023841858	28.0855
2677	Sib	1	Sil	Sib	2677	1.100000023841858	28.0855
2678	Sib	1	Sil	Sib	2678	1.100000023841858	28.0855
2679	Sib	1	Sil	Sib	2679	1.100000023841858	28.0855
2680	Sim	1	Sil	Sim	2680	0.9110000133514404	28.0855
2681	Sib	1	Sil	Sib	2681	1.100000023841858	28.0855
2682	Sib	1	Sil	Sib	2682	1.100000023841858	28.0855
2683	Sib	1	Sil	Sib	2683	1.100000023841858	28.0855
2684	Sib	1	Sil	Sib	2684	1.100000023841858	28.0855
2685	Sib	1	Sil	Sib	2685	1.100000023841858	28.0855
2686	Sib	1	Sil	Sib	2686	1.100000023841858	28.0855
2687	Sib	1	Sil	Sib	2687	1.100000023841858	28.0855
2688	Sib	1	Sil	Sib	2688	1.100000023841858	28.0855
2689	Sim	1	Sil	Sim	2689	0.9110000133514404	28.0855
2690	Sib	1	Sil	Sib	2690	1.100000023841858	28.0855
2691	Sib	1	Sil	Sib	2691	1.100000023841858	28.0855
2692	Sib	1	Sil	Sib	2692	1.100000023841858	28.0855
2693	Sib	1	Sil	Sib	2693	1.100000023841858	28.0855
2694	Sib	1	Sil	Sib	2694	1.100000023841858	28.0855
2695	Sim	1	Sil	Sim	2695	0.9110000133514404	28.0855
2696	Sib	1	Sil	Sib	2696	1.100000023841858	28.0855
2697	Sib	1	Sil	Sib	2697	1.100000023841858	28.0855
2698	Sib	1	Sil	Sib	2698	1.100000023841858	28.0855
2699	Sib	1	Sil	Sib	2699	1.100000023841858	28.0855
2700	Sim	1	Sil	Sim	2700	0.9110000133514404	28.0855
2701	Sib	1	Sil	Sib	2701	1.100000023841858	28.0855
2702	Sim	1	Sil	Sim	2702	0.9110000133514404	28.0855
2703	Sib	1	Sil	Sib	2703	1.100000023841858	28.0855
2704	Sib	1	Sil	Sib	2704	1.100000023841858	28.0855
2705	Sim	1	Sil	Sim	2705	0.9110000133514404	28.0855
2706	Sib	1	Sil	Sib	2706	1.100000023841858	28.0855
2707	Sib	1	Sil	Sib	2707	1.100000023841858	28.0855
2708	Sim	1	Sil	Sim	2708	0.9110000133514404	28.0855
2709	Sim	1	Sil	Sim	2709	0.9110000133514404	28.0855
2710	Sib	1	Sil	Sib	2710	1.100000023841858	28.0855
2711	Sib	1	Sil	Sib	2711	1.100000023841858	28.0855
2712	Sib	1	Sil	Sib	2712	1.100000023841858	28.0855
2713	Sib	1	Sil	Sib	2713	1.100000023841858	28.0855
2714	Sib	1	Sil	Sib	2714	1.100000023841858	28.0855
2715	Sim	1	Sil	Sim	2715	0.9110000133514404	28.0855
2716	Sib	1	Sil	Sib	2716	1.100000023841858	28.0855
2717	Sib	1	Sil	Sib	2717	1.100000023841858	28.0855
2718	Sib	1	Sil	Sib	2718	1.100000023841858	28.0855
2719	Sib	1	Sil	Sib	2719	1.100000023841858	28.0855
2720	Sib	1	Sil	Sib	2720	1.100000023841858	28.0855
2721	Sib	1	Sil	Sib	2721	1.100000023841858	28.0855
2722	Sib	1	Sil	Sib	2722	1.100000023841858	28.0855
2723	Sib	1	Sil	Sib	2723	1.100000023841858	28.0855
2724	Sim	1	Sil	Sim	2724	0.9110000133514404	28.0855
2725	Sib	1	Sil	Sib	2725	1.100000023841858	28.0855
2726	Sib	1	Sil	Sib	2726	1.100000023841858	28.0855
2727	Sib	1	Sil	Sib	2727	1.100000023841858	28.0855
2728	Sib	1	Sil	Sib	2728	1.100000023841858	28.0855
2729	Sib	1	Sil	Sib	2729	1.100000023841858	28.0855
2730	Sib	1	Sil	Sib	2730	1.100000023841858	28.0855
2731	Sib	1	Sil	Sib	2731	1.100000023841858	28.0855
2732	Sib	1	Sil	Sib	2732	1.100000023841858	28.0855
2733	Sib	1	Sil	Sib	2733	1.100000023841858	28.0855
2734	Sim	1	Sil	Sim	2734	0.9110000133514404	28.0855
2735	Sib	1	Sil	Sib	2735	1.100000023841858	28.0855
2736	Sib	1	Sil	Sib	2736	1.100000023841858	28.0855
2737	Sib	1	Sil	Sib	2737	1.100000023841858	28.0855
2738	Sib	1	Sil	Sib	2738	1.100000023841858	28.0855
2739	Sib	1	Sil	Sib	2739	1.100000023841858	28.0855
2740	Sib	1	Sil	Sib	2740	1.100000023841858	28.0855
2741	Sib	1	Sil	Sib	2741	1.100000023841858	28.0855
2742	Sib	1	Sil	Sib	2742	1.100000023841858	28.0855
2743	Sib	1	Sil	Sib	2743	1.100000023841858	28.0855
2744	Sib	1	Sil	Sib	2744	1.100000023841858	28.0855
2745	Sim	1	Sil	Sim	2745	0.9110000133514404	28.0855
2746	Sim	1	Sil	Sim	2746	0.9110000133514404	28.0855
2747	Sim	1	Sil	Sim	2747	0.9110000133514404	28.0855
2748	Sib	1	Sil	Sib	2748	1.100000023841858	28.0855
2749	Sim	1	Sil	Sim	2749	0.9110000133514404	28.0855
2750	Sim	1	Sil	Sim	2750	0.9110000133514404	28.0855
2751	Sib	1	Sil	Sib	2751	1.100000023841858	28.0855
2752	Sib	1	Sil	Sib	2752	1.100000023841858	28.0855
2753	Sib	1	Sil	Sib	2753	1.100000023841858	28.0855
2754	Sib	1	Sil	Sib	2754	1.100000023841858	28.0855
2755	Sib	1	Sil	Sib	2755	1.100000023841858	28.0855
2756	Sib	1	Sil	Sib	2756	1.100000023841858	28.0855
2757	Sib	1	Sil	Sib	2757	1.100000023841858	28.0855
2758	Sib	1	Sil	Sib	2758	1.100000023841858	28.0855
2759	Sib	1	Sil	Sib	2759	1.100000023841858	28.0855
2760	Sib	1	Sil	Sib	2760	1.100000023841858	28.0855
2761	Hm	1	Sil	Hm	2761	0.08799999952316284	1.00784
2762	Hm	1	Sil	Hm	2762	0.08799999952316284	1.00784
2763	Hm	1	Sil	Hm	2763	0.08799999952316284	1.00784
2764	Hm	1	Sil	Hm	2764	0.08799999952316284	1.00784
2765	Hm	1	Sil	Hm	2765	0.08799999952316284	1.00784
2766	Hm	1	Sil	Hm	2766	0.08799999952316284	1.00784
2767	Hm	1	Sil	Hm	2767	0.08799999952316284	1.00784
2768	Hm	1	Sil	Hm	2768	0.08799999952316284	1.00784
2769	Hm	1	Sil	Hm	2769	0.08799999952316284	1.00784
2770	Hm	1	Sil	Hm	2770	0.08799999952316284	1.00784
2771	Hm	1	Sil	Hm	2771	0.08799999952316284	1.00784
2772	Hm	1	Sil	Hm	2772	0.08799999952316284	1.00784
2773	Hm	1	Sil	Hm	2773	0.08799999952316284	1.00784
2774	Hm	1	Sil	Hm	2774	0.08799999952316284	1.00784
2775	Hm	1	Sil	Hm	2775	0.08799999952316284	1.00784
2776	Hm	1	Sil	Hm	2776	0.08799999952316284	1.00784
2777	Hm	1	Sil	Hm	2777	0.08799999952316284	1.00784
2778	Hm	1	Sil	Hm	2778	0.08799999952316284	1.00784
2779	Hm	1	Sil	Hm	2779	0.08799999952316284	1.00784
2780	Hm	1	Sil	Hm	2780	0.08799999952316284	1.00784
2781	Hm	1	Sil	Hm	2781	0.08799999952316284	1.00784
2782	Hm	1	Sil	Hm	2782	0.08799999952316284	1.00784
2783	Hm	1	Sil	Hm	2783	0.08799999952316284	1.00784
2784	Hm	1	Sil	Hm	2784	0.08799999952316284	1.00784
2785	Hm	1	Sil	Hm	2785	0.08799999952316284	1.00784
2786	Hm	1	Sil	Hm	2786	0.08799999952316284	1.00784
2787	Hm	1	Sil	Hm	2787	0.08799999952316284	1.00784
2788	Hm	1	Sil	Hm	2788	0.08799999952316284	1.00784
2789	Hm	1	Sil	Hm	2789	0.08799999952316284	1.00784
2790	Hm	1	Sil	Hm	2790	0.08799999952316284	1.00784
2791	Hm	1	Sil	Hm	2791	0.08799999952316284	1.00784
2792	Hm	1	Sil	Hm	2792	0.08799999952316284	1.00784
2793	Hm	1	Sil	Hm	2793	0.08799999952316284	1.00784
2794	Hm	1	Sil	Hm	2794	0.08799999952316284	1.00784
2795	Hm	1	Sil	Hm	2795	0.08799999952316284	1.00784
2796	Hm	1	Sil	Hm	2796	0.08799999952316284	1.00784
2797	Hm	1	Sil	Hm	2797	0.08799999952316284	1.00784
2798	Hm	1	Sil	Hm	2798	0.08799999952316284	1.00784
2799	Hm	1	Sil	Hm	2799	0.08799999952316284	1.00784
2800	Hm	1	Sil	Hm	2800	0.08799999952316284	1.00784
2801	Hm	1	Sil	Hm	2801	0.08799999952316284	1.00784
2802	Hm	1	Sil	Hm	2802	0.08799999952316284	1.00784
2803	Hm	1	Sil	Hm	2803	0.08799999952316284	1.00784
2804	Hm	1	Sil	Hm	2804	0.08799999952316284	1.00784
2805	Hm	1	Sil	Hm	2805	0.08799999952316284	1.00784
2806	Hm	1	Sil	Hm	2806	0.08799999952316284	1.00784
2807	Hm	1	Sil	Hm	2807	0.08799999952316284	1.00784
2808	Hm	1	Sil	Hm	2808	0.08799999952316284	1.00784
2809	Hm	1	Sil	Hm	2809	0.08799999952316284	1.00784
2810	Hm	1	Sil	Hm	2810	0.08799999952316284	1.00784
2811	Hm	1	Sil	Hm	2811	0.08799999952316284	1.00784
2812	Hm	1	Sil	Hm	2812	0.08799999952316284	1.00784
2813	Hm	1	Sil	Hm	2813	0.08799999952316284	1.00784
2814	Hm	1	Sil	Hm	2814	0.08799999952316284	1.00784
2815	Hm	1	Sil	Hm	2815	0.08799999952316284	1.00784
2816	Hm	1	Sil	Hm	2816	0.08799999952316284	1.00784
2817	Hm	1	Sil	Hm	2817	0.08799999952316284	1.00784
2818	Hm	1	Sil	Hm	2818	0.08799999952316284	1.00784
2819	Hm	1	Sil	Hm	2819	0.08799999952316284	1.00784
2820	Hm	1	Sil	Hm	2820	0.08799999952316284	1.00784
2821	Hm	1	Sil	Hm	2821	0.08799999952316284	1.00784
2822	Hm	1	Sil	Hm	2822	0.08799999952316284	1.00784
2823	Hm	1	Sil	Hm	2823	0.08799999952316284	1.00784
2824	Hm	1	Sil	Hm	2824	0.08799999952316284	1.00784
2825	Hm	1	Sil	Hm	2825	0.08799999952316284	1.00784
2826	Hm	1	Sil	Hm	2826	0.08799999952316284	1.00784
2827	Hm	1	Sil	Hm	2827	0.08799999952316284	1.00784
2828	Hm	1	Sil	Hm	2828	0.08799999952316284	1.00784
2829	Hm	1	Sil	Hm	2829	0.08799999952316284	1.00784
2830	Hm	1	Sil	Hm	2830	0.08799999952316284	1.00784
2831	Hm	1	Sil	Hm	2831	0.08799999952316284	1.00784
2832	Hm	1	Sil	Hm	2832	0.08799999952316284	1.00784
2833	Hm	1	Sil	Hm	2833	0.08799999952316284	1.00784
2834	Hm	1	Sil	Hm	2834	0.08799999952316284	1.00784
2835	Hm	1	Sil	Hm	2835	0.08799999952316284	1.00784
2836	Hm	1	Sil	Hm	2836	0.08799999952316284	1.00784
2837	Hm	1	Sil	Hm	2837	0.08799999952316284	1.00784
2838	Hm	1	Sil	Hm	2838	0.08799999952316284	1.00784
2839	Hm	1	Sil	Hm	2839	0.08799999952316284	1.00784
2840	Hm	1	Sil	Hm	2840	0.08799999952316284	1.00784
2841	Hm	1	Sil	Hm	2841	0.08799999952316284	1.00784
2842	Hm	1	Sil	Hm	2842	0.08799999952316284	1.00784
2843	Hm	1	Sil	Hm	2843	0.08799999952316284	1.00784
2844	Hm	1	Sil	Hm	2844	0.08799999952316284	1.00784
2845	Hm	1	Sil	Hm	2845	0.08799999952316284	1.00784
2846	Hm	1	Sil	Hm	2846	0.08799999952316284	1.00784
2847	Hm	1	Sil	Hm	2847	0.08799999952316284	1.00784
2848	Hm	1	Sil	Hm	2848	0.08799999952316284	1.00784
2849	Hm	1	Sil	Hm	2849	0.08799999952316284	1.00784
2850	Hm	1	Sil	Hm	2850	0.08799999952316284	1.00784
2851	Hm	1	Sil	Hm	2851	0.08799999952316284	1.00784
2852	Hm	1	Sil	Hm	2852	0.08799999952316284	1.00784
2853	Hm	1	Sil	Hm	2853	0.08799999952316284	1.00784
2854	Hm	1	Sil	Hm	2854	0.08799999952316284	1.00784
2855	Hm	1	Sil	Hm	2855	0.08799999952316284	1.00784
2856	Hm	1	Sil	Hm	2856	0.08799999952316284	1.00784
2857	Hm	1	Sil	Hm	2857	0.08799999952316284	1.00784
2858	Hm	1	Sil	Hm	2858	0.08799999952316284	1.00784
2859	Hm	1	Sil	Hm	2859	0.08799999952316284	1.00784
2860	Hm	1	Sil	Hm	2860	0.08799999952316284	1.00784
2861	Hm	1	Sil	Hm	2861	0.08799999952316284	1.00784
2862	Hm	1	Sil	Hm	2862	0.08799999952316284	1.00784
2863	Hm	1	Sil	Hm	2863	0.08799999952316284	1.00784
2864	Hm	1	Sil	Hm	2864	0.08799999952316284	1.00784
2865	Hm	1	Sil	Hm	2865	0.08799999952316284	1.00784
2866	Hm	1	Sil	Hm	2866	0.08799999952316284	1.00784
2867	Hm	1	Sil	Hm	2867	0.08799999952316284	1.00784
2868	Hm	1	Sil	Hm	2868	0.08799999952316284	1.00784
2869	Hm	1	Sil	Hm	2869	0.08799999952316284	1.00784
2870	Hm	1	Sil	Hm	2870	0.08799999952316284	1.00784
2871	Hm	1	Sil	Hm	2871	0.08799999952316284	1.00784
2872	Hm	1	Sil	Hm	2872	0.08799999952316284	1.00784
2873	Hm	1	Sil	Hm	2873	0.08799999952316284	1.00784
2874	Hm	1	Sil	Hm	2874	0.08799999952316284	1.00784
2875	Hm	1	Sil	Hm	2875	0.08799999952316284	1.00784
2876	Hm	1	Sil	Hm	2876	0.08799999952316284	1.00784
2877	Hm	1	Sil	Hm	2877	0.08799999952316284	1.00784
2878	Hm	1	Sil	Hm	2878	0.08799999952316284	1.00784
2879	Hm	1	Sil	Hm	2879	0.08799999952316284	1.00784
2880	Hm	1	Sil	Hm	2880	0.08799999952316284	1.00784
2881	Hm	1	Sil	Hm	2881	0.08799999952316284	1.00784
2882	Hm	1	Sil	Hm	2882	0.08799999952316284	1.00784
2883	Hm	1	Sil	Hm	2883	0.08799999952316284	1.00784
2884	Hm	1	Sil	Hm	2884	0.08799999952316284	1.00784
2885	Hm	1	Sil	Hm	2885	0.08799999952316284	1.00784
2886	Hm	1	Sil	Hm	2886	0.08799999952316284	1.00784
2887	Hm	1	Sil	Hm	2887	0.08799999952316284	1.00784
2888	Hm	1	Sil	Hm	2888	0.08799999952316284	1.00784
2889	Hm	1	Sil	Hm	2889	0.08799999952316284	1.00784
2890	Hm	1	Sil	Hm	2890	0.08799999952316284	1.00784
2891	Hm	1	Sil	Hm	2891	0.08799999952316284	1.00784
2892	Hm	1	Sil	Hm	2892	0.08799999952316284	1.00784
2893	Hm	1	Sil	Hm	2893	0.08799999952316284	1.00784
2894	Hm	1	Sil	Hm	2894	0.08799999952316284	1.00784
2895	Hm	1	Sil	Hm	2895	0.08799999952316284	1.00784
2896	Hm	1	Sil	Hm	2896	0.08799999952316284	1.00784
2897	Hm	1	Sil	Hm	2897	0.08799999952316284	1.00784
2898	Hm	1	Sil	Hm	2898	0.08799999952316284	1.00784
2899	Hm	1	Sil	Hm	2899	0.08799999952316284	1.00784
2900	Hm	1	Sil	Hm	2900	0.08799999952316284	1.00784
2901	Hm	1	Sil	Hm	2901	0.08799999952316284	1.00784
2902	Hm	1	Sil	Hm	2902	0.08799999952316284	1.00784
2903	Hm	1	Sil	Hm	2903	0.08799999952316284	1.00784
2904	Hm	1	Sil	Hm	2904	0.08799999952316284	1.00784
2905	Hm	1	Sil	Hm	2905	0.08799999952316284	1.00784
2906	Hm	1	Sil	Hm	2906	0.08799999952316284	1.00784
2907	Hm	1	Sil	Hm	2907	0.08799999952316284	1.00784
2908	Hm	1	Sil	Hm	2908	0.08799999952316284	1.00784
2909	Hm	1	Sil	Hm	2909	0.08799999952316284	1.00784
2910	Hm	1	Sil	Hm	2910	0.08799999952316284	1.00784
2911	Hm	1	Sil	Hm	2911	0.08799999952316284	1.00784
2912	Hm	1	Sil	Hm	2912	0.08799999952316284	1.00784
2913	Hm	1	Sil	Hm	2913	0.08799999952316284	1.00784
2914	Hm	1	Sil	Hm	2914	0.08799999952316284	1.00784
2915	Hm	1	Sil	Hm	2915	0.08799999952316284	1.00784
2916	Hm	1	Sil	Hm	2916	0.08799999952316284	1.00784
2917	Hm	1	Sil	Hm	2917	0.08799999952316284	1.00784
2918	Hm	1	Sil	Hm	2918	0.08799999952316284	1.00784
2919	Hm	1	Sil	Hm	2919	0.08799999952316284	1.00784
2920	Hm	1	Sil	Hm	2920	0.08799999952316284	1.00784
2921	Hm	1	Sil	Hm	2921	0.08799999952316284	1.00784
2922	Hm	1	Sil	Hm	2922	0.08799999952316284	1.00784
2923	Hm	1	Sil	Hm	2923	0.08799999952316284	1.00784
2924	Hm	1	Sil	Hm	2924	0.08799999952316284	1.00784
2925	Hm	1	Sil	Hm	2925	0.08799999952316284	1.00784
2926	Hm	1	Sil	Hm	2926	0.08799999952316284	1.00784
2927	Hm	1	Sil	Hm	2927	0.08799999952316284	1.00784
2928	Hm	1	Sil	Hm	2928	0.08799999952316284	1.00784
2929	Hm	1	Sil	Hm	2929	0.08799999952316284	1.00784
2930	Hm	1	Sil	Hm	2930	0.08799999952316284	1.00784
2931	Hm	1	Sil	Hm	2931	0.08799999952316284	1.00784
2932	Hm	1	Sil	Hm	2932	0.08799999952316284	1.00784
2933	Hm	1	Sil	Hm	2933	0.08799999952316284	1.00784
2934	Hm	1	Sil	Hm	2934	0.08799999952316284	1.00784
2935	Hm	1	Sil	Hm	2935	0.08799999952316284	1.00784
2936	Hm	1	Sil	Hm	2936	0.08799999952316284	1.00784
2937	Hm	1	Sil	Hm	2937	0.08799999952316284	1.00784
2938	Hm	1	Sil	Hm	2938	0.08799999952316284	1.00784
2939	Hm	1	Sil	Hm	2939	0.08799999952316284	1.00784
2940	Hm	1	Sil	Hm	2940	0.08799999952316284	1.00784
2941	Hm	1	Sil	Hm	2941	0.08799999952316284	1.00784
2942	Hm	1	Sil	Hm	2942	0.08799999952316284	1.00784
2943	Hm	1	Sil	Hm	2943	0.08799999952316284	1.00784
2944	Hm	1	Sil	Hm	2944	0.08799999952316284	1.00784
2945	Hm	1	Sil	Hm	2945	0.08799999952316284	1.00784
2946	Hm	1	Sil	Hm	2946	0.08799999952316284	1.00784
2947	Hm	1	Sil	Hm	2947	0.08799999952316284	1.00784
2948	Hm	1	Sil	Hm	2948	0.08799999952316284	1.00784
2949	Hm	1	Sil	Hm	2949	0.08799999952316284	1.00784
2950	Hm	1	Sil	Hm	2950	0.08799999952316284	1.00784
2951	Hm	1	Sil	Hm	2951	0.08799999952316284	1.00784
2952	Hm	1	Sil	Hm	2952	0.08799999952316284	1.00784
2953	Hm	1	Sil	Hm	2953	0.08799999952316284	1.00784
2954	Hm	1	Sil	Hm	2954	0.08799999952316284	1.00784
2955	Hm	1	Sil	Hm	2955	0.08799999952316284	1.00784
2956	Hm	1	Sil	Hm	2956	0.08799999952316284	1.00784
2957	Hm	1	Sil	Hm	2957	0.08799999952316284	1.00784
2958	Hm	1	Sil	Hm	2958	0.08799999952316284	1.00784
2959	Hm	1	Sil	Hm	2959	0.08799999952316284	1.00784
2960	Hm	1	Sil	Hm	2960	0.08799999952316284	1.00784
2961	Hm	1	Sil	Hm	2961	0.08799999952316284	1.00784
2962	Hm	1	Sil	Hm	2962	0.08799999952316284	1.00784
2963	Hm	1	Sil	Hm	2963	0.08799999952316284	1.00784
2964	Hm	1	Sil	Hm	2964	0.08799999952316284	1.00784
2965	Hm	1	Sil	Hm	2965	0.08799999952316284	1.00784
2966	Hm	1	Sil	Hm	2966	0.08799999952316284	1.00784
2967	Hm	1	Sil	Hm	2967	0.08799999952316284	1.00784
2968	Hm	1	Sil	Hm	2968	0.08799999952316284	1.00784
2969	Hm	1	Sil	Hm	2969	0.08799999952316284	1.00784
2970	Hm	1	Sil	Hm	2970	0.08799999952316284	1.00784
2971	Hm	1	Sil	Hm	2971	0.08799999952316284	1.00784
2972	Hm	1	Sil	Hm	2972	0.08799999952316284	1.00784
2973	Hm	1	Sil	Hm	2973	0.08799999952316284	1.00784
2974	Hm	1	Sil	Hm	2974	0.08799999952316284	1.00784
2975	Hm	1	Sil	Hm	2975	0.08799999952316284	1.00784
2976	Hm	1	Sil	Hm	2976	0.08799999952316284	1.00784
2977	Hm	1	Sil	Hm	2977	0.08799999952316284	1.00784
2978	Hm	1	Sil	Hm	2978	0.08799999952316284	1.00784
2979	Hm	1	Sil	Hm	2979	0.08799999952316284	1.00784
2980	Hm	1	Sil	Hm	2980	0.08799999952316284	1.00784
2981	Hm	1	Sil	Hm	2981	0.08799999952316284	1.00784
2982	Hm	1	Sil	Hm	2982	0.08799999952316284	1.00784
2983	Hm	1	Sil	Hm	2983	0.08799999952316284	1.00784
2984	Hm	1	Sil	Hm	2984	0.08799999952316284	1.00784
2985	Hm	1	Sil	Hm	2985	0.08799999952316284	1.00784
2986	Hm	1	Sil	Hm	2986	0.08799999952316284	1.00784
2987	Hm	1	Sil	Hm	2987	0.08799999952316284	1.00784
2988	Hm	1	Sil	Hm	2988	0.08799999952316284	1.00784
2989	Hm	1	Sil	Hm	2989	0.08799999952316284	1.00784
2990	Hm	1	Sil	Hm	2990	0.08799999952316284	1.00784
2991	Hm	1	Sil	Hm	2991	0.08799999952316284	1.00784
2992	Hm	1	Sil	Hm	2992	0.08799999952316284	1.00784
2993	Hm	1	Sil	Hm	2993	0.08799999952316284	1.00784
2994	Hm	1	Sil	Hm	2994	0.08799999952316284	1.00784
2995	Hm	1	Sil	Hm	2995	0.08799999952316284	1.00784
2996	Hm	1	Sil	Hm	2996	0.08799999952316284	1.00784
2997	Hm	1	Sil	Hm	2997	0.08799999952316284	1.00784
2998	Hm	1	Sil	Hm	2998	0.08799999952316284	1.00784
2999	Hm	1	Sil	Hm	2999	0.08799999952316284	1.00784
3000	Hm	1	Sil	Hm	3000	0.08799999952316284	1.00784
3001	Hm	1	Sil	Hm	3001	0.08799999952316284	1.00784
3002	Hm	1	Sil	Hm	3002	0.08799999952316284	1.00784
3003	Hm	1	Sil	Hm	3003	0.08799999952316284	1.00784
3004	Hm	1	Sil	Hm	3004	0.08799999952316284	1.00784
3005	Hm	1	Sil	Hm	3005	0.08799999952316284	1.00784
3006	Hm	1	Sil	Hm	3006	0.08799999952316284	1.00784
3007	Hm	1	Sil	Hm	3007	0.08799999952316284	1.00784
3008	Hm	1	Sil	Hm	3008	0.08799999952316284	1.00784
3009	Hm	1	Sil	Hm	3009	0.08799999952316284	1.00784
3010	Hm	1	Sil	Hm	3010	0.08799999952316284	1.00784
3011	Hm	1	Sil	Hm	3011	0.08799999952316284	1.00784
3012	Hm	1	Sil	Hm	3012	0.08799999952316284	1.00784
3013	Hm	1	Sil	Hm	3013	0.08799999952316284	1.00784
3014	Hm	1	Sil	Hm	3014	0.08799999952316284	1.00784
3015	Hm	1	Sil	Hm	3015	0.08799999952316284	1.00784
3016	Hm	1	Sil	Hm	3016	0.08799999952316284	1.00784
3017	Hm	1	Sil	Hm	3017	0.08799999952316284	1.00784
3018	Hm	1	Sil	Hm	3018	0.08799999952316284	1.00784
3019	Hm	1	Sil	Hm	3019	0.08799999952316284	1.00784
3020	Hm	1	Sil	Hm	3020	0.08799999952316284	1.00784
3021	Hm	1	Sil	Hm	3021	0.08799999952316284	1.00784
3022	Hm	1	Sil	Hm	3022	0.08799999952316284	1.00784
3023	Hm	1	Sil	Hm	3023	0.08799999952316284	1.00784
3024	Hm	1	Sil	Hm	3024	0.08799999952316284	1.00784
3025	Hm	1	Sil	Hm	3025	0.08799999952316284	1.00784
3026	Hm	1	Sil	Hm	3026	0.08799999952316284	1.00784
3027	Hm	1	Sil	Hm	3027	0.08799999952316284	1.00784
3028	Hm	1	Sil	Hm	3028	0.08799999952316284	1.00784
3029	Hm	1	Sil	Hm	3029	0.08799999952316284	1.00784
3030	Hm	1	Sil	Hm	3030	0.08799999952316284	1.00784
3031	Hm	1	Sil	Hm	3031	0.08799999952316284	1.00784
3032	Hm	1	Sil	Hm	3032	0.08799999952316284	1.00784
3033	Hm	1	Sil	Hm	3033	0.08799999952316284	1.00784
3034	Hm	1	Sil	Hm	3034	0.08799999952316284	1.00784
3035	Hm	1	Sil	Hm	3035	0.08799999952316284	1.00784
3036	Hm	1	Sil	Hm	3036	0.08799999952316284	1.00784
3037	Hm	1	Sil	Hm	3037	0.08799999952316284	1.00784
3038	Hm	1	Sil	Hm	3038	0.08799999952316284	1.00784
3039	Hm	1	Sil	Hm	3039	0.08799999952316284	1.00784
3040	Hm	1	Sil	Hm	3040	0.08799999952316284	1.00784
3041	Hm	1	Sil	Hm	3041	0.08799999952316284	1.00784
3042	Hm	1	Sil	Hm	3042	0.08799999952316284	1.00784
3043	Hm	1	Sil	Hm	3043	0.08799999952316284	1.00784
3044	Hm	1	Sil	Hm	3044	0.08799999952316284	1.00784
3045	Hm	1	Sil	Hm	3045	0.08799999952316284	1.00784
3046	Hm	1	Sil	Hm	3046	0.08799999952316284	1.00784
3047	Hm	1	Sil	Hm	3047	0.08799999952316284	1.00784
3048	Hm	1	Sil	Hm	3048	0.08799999952316284	1.00784
3049	Hm	1	Sil	Hm	3049	0.08799999952316284	1.00784
3050	Hm	1	Sil	Hm	3050	0.08799999952316284	1.00784
3051	Hm	1	Sil	Hm	3051	0.08799999952316284	1.00784
3052	Hm	1	Sil	Hm	3052	0.08799999952316284	1.00784
3053	Hm	1	Sil	Hm	3053	0.08799999952316284	1.00784
3054	Hm	1	Sil	Hm	3054	0.08799999952316284	1.00784
3055	Hm	1	Sil	Hm	3055	0.08799999952316284	1.00784
3056	Hm	1	Sil	Hm	3056	0.08799999952316284	1.00784
3057	Hm	1	Sil	Hm	3057	0.08799999952316284	1.00784
3058	Hm	1	Sil	Hm	3058	0.08799999952316284	1.00784
3059	Hm	1	Sil	Hm	3059	0.08799999952316284	1.00784
3060	Hm	1	Sil	Hm	3060	0.08799999952316284	1.00784
3061	Hm	1	Sil	Hm	3061	0.08799999952316284	1.00784
3062	Hm	1	Sil	Hm	3062	0.08799999952316284	1.00784
3063	Hm	1	Sil	Hm	3063	0.08799999952316284	1.00784
3064	Hm	1	Sil	Hm	3064	0.08799999952316284	1.00784
3065	Hm	1	Sil	Hm	3065	0.08799999952316284	1.00784
3066	Hm	1	Sil	Hm	3066	0.08799999952316284	1.00784
3067	Hm	1	Sil	Hm	3067	0.08799999952316284	1.00784
3068	Hm	1	Sil	Hm	3068	0.08799999952316284	1.00784
3069	Hm	1	Sil	Hm	3069	0.08799999952316284	1.00784
3070	Hm	1	Sil	Hm	3070	0.08799999952316284	1.00784
3071	Hm	1	Sil	Hm	3071	0.08799999952316284	1.00784
3072	Hm	1	Sil	Hm	3072	0.08799999952316284	1.00784
3073	Hm	1	Sil	Hm	3073	0.08799999952316284	1.00784
3074	Hm	1	Sil	Hm	3074	0.08799999952316284	1.00784
3075	Hm	1	Sil	Hm	3075	0.08799999952316284	1.00784
3076	Hm	1	Sil	Hm	3076	0.08799999952316284	1.00784
3077	Hm	1	Sil	Hm	3077	0.08799999952316284	1.00784
3078	Hm	1	Sil	Hm	3078	0.08799999952316284	1.00784
3079	Hm	1	Sil	Hm	3079	0.08799999952316284	1.00784
3080	Hm	1	Sil	Hm	3080	0.08799999952316284	1.00784
3081	Hm	1	Sil	Hm	3081	0.08799999952316284	1.00784
3082	Hm	1	Sil	Hm	3082	0.08799999952316284	1.00784
3083	Hm	1	Sil	Hm	3083	0.08799999952316284	1.00784
3084	Hm	1	Sil	Hm	3084	0.08799999952316284	1.00784
3085	Hm	1	Sil	Hm	3085	0.08799999952316284	1.00784
3086	Hm	1	Sil	Hm	3086	0.08799999952316284	1.00784
3087	Hm	1	Sil	Hm	3087	0.08799999952316284	1.00784
3088	Hm	1	Sil	Hm	3088	0.08799999952316284	1.00784
3089	Hm	1	Sil	Hm	3089	0.08799999952316284	1.00784
3090	Hm	1	Sil	Hm	3090	0.08799999952316284	1.00784
3091	Hm	1	Sil	Hm	3091	0.08799999952316284	1.00784
3092	Hm	1	Sil	Hm	3092	0.08799999952316284	1.00784
3093	Hm	1	Sil	Hm	3093	0.08799999952316284	1.00784
3094	Hm	1	Sil	Hm	3094	0.08799999952316284	1.00784
3095	Hm	1	Sil	Hm	3095	0.08799999952316284	1.00784
3096	Hm	1	Sil	Hm	3096	0.08799999952316284	1.00784
3097	Hm	1	Sil	Hm	3097	0.08799999952316284	1.00784
3098	Hm	1	Sil	Hm	3098	0.08799999952316284	1.00784
3099	Hm	1	Sil	Hm	3099	0.08799999952316284	1.00784
3100	Hm	1	Sil	Hm	3100	0.08799999952316284	1.00784
3101	Hm	1	Sil	Hm	3101	0.08799999952316284	1.00784
3102	Hm	1	Sil	Hm	3102	0.08799999952316284	1.00784
3103	Hm	1	Sil	Hm	3103	0.08799999952316284	1.00784
3104	Hm	1	Sil	Hm	3104	0.08799999952316284	1.00784
3105	Hm	1	Sil	Hm	3105	0.08799999952316284	1.00784
3106	Hm	1	Sil	Hm	3106	0.08799999952316284	1.00784
3107	Hm	1	Sil	Hm	3107	0.08799999952316284	1.00784
3108	Hm	1	Sil	Hm	3108	0.08799999952316284	1.00784
3109	Hm	1	Sil	Hm	3109	0.08799999952316284	1.00784
3110	Hm	1	Sil	Hm	3110	0.08799999952316284	1.00784
3111	Hm	1	Sil	Hm	3111	0.08799999952316284	1.00784
3112	Hm	1	Sil	Hm	3112	0.08799999952316284	1.00784
3113	Hm	1	Sil	Hm	3113	0.08799999952316284	1.00784
3114	Hm	1	Sil	Hm	3114	0.08799999952316284	1.00784
3115	Hm	1	Sil	Hm	3115	0.08799999952316284	1.00784
3116	Hm	1	Sil	Hm	3116	0.08799999952316284	1.00784
3117	Hm	1	Sil	Hm	3117	0.08799999952316284	1.00784
3118	Hm	1	Sil	Hm	3118	0.08799999952316284	1.00784
3119	Hm	1	Sil	Hm	3119	0.08799999952316284	1.00784
3120	Hm	1	Sil	Hm	3120	0.08799999952316284	1.00784
3121	Hm	1	Sil	Hm	3121	0.08799999952316284	1.00784
3122	Hm	1	Sil	Hm	3122	0.08799999952316284	1.00784
3123	Hm	1	Sil	Hm	3123	0.08799999952316284	1.00784
3124	Hm	1	Sil	Hm	3124	0.08799999952316284	1.00784
3125	Hm	1	Sil	Hm	3125	0.08799999952316284	1.00784
3126	Hm	1	Sil	Hm	3126	0.08799999952316284	1.00784
3127	Hm	1	Sil	Hm	3127	0.08799999952316284	1.00784
3128	Hm	1	Sil	Hm	3128	0.08799999952316284	1.00784
3129	Hm	1	Sil	Hm	3129	0.08799999952316284	1.00784
3130	Hm	1	Sil	Hm	3130	0.08799999952316284	1.00784
3131	Hm	1	Sil	Hm	3131	0.08799999952316284	1.00784
3132	Hm	1	Sil	Hm	3132	0.08799999952316284	1.00784
3133	Hm	1	Sil	Hm	3133	0.08799999952316284	1.00784
3134	Hm	1	Sil	Hm	3134	0.08799999952316284	1.00784
3135	Hm	1	Sil	Hm	3135	0.08799999952316284	1.00784
3136	Hm	1	Sil	Hm	3136	0.08799999952316284	1.00784
3137	Hm	1	Sil	Hm	3137	0.08799999952316284	1.00784
3138	Hm	1	Sil	Hm	3138	0.08799999952316284	1.00784
3139	Hm	1	Sil	Hm	3139	0.08799999952316284	1.00784
3140	Hm	1	Sil	Hm	3140	0.08799999952316284	1.00784
3141	Hm	1	Sil	Hm	3141	0.08799999952316284	1.00784
3142	Hm	1	Sil	Hm	3142	0.08799999952316284	1.00784
3143	Hm	1	Sil	Hm	3143	0.08799999952316284	1.00784
3144	Hm	1	Sil	Hm	3144	0.08799999952316284	1.00784
3145	Hm	1	Sil	Hm	3145	0.08799999952316284	1.00784
3146	Hm	1	Sil	Hm	3146	0.08799999952316284	1.00784
3147	Hm	1	Sil	Hm	3147	0.08799999952316284	1.00784
3148	Hm	1	Sil	Hm	3148	0.08799999952316284	1.00784
3149	Hm	1	Sil	Hm	3149	0.08799999952316284	1.00784
3150	Hm	1	Sil	Hm	3150	0.08799999952316284	1.00784
3151	Hm	1	Sil	Hm	3151	0.08799999952316284	1.00784
3152	Hm	1	Sil	Hm	3152	0.08799999952316284	1.00784
3153	Hm	1	Sil	Hm	3153	0.08799999952316284	1.00784
3154	Hm	1	Sil	Hm	3154	0.08799999952316284	1.00784
3155	Hm	1	Sil	Hm	3155	0.08799999952316284	1.00784
3156	Hm	1	Sil	Hm	3156	0.08799999952316284	1.00784
3157	Hm	1	Sil	Hm	3157	0.08799999952316284	1.00784
3158	Hm	1	Sil	Hm	3158	0.08799999952316284	1.00784
3159	Hm	1	Sil	Hm	3159	0.08799999952316284	1.00784
3160	Hm	1	Sil	Hm	3160	0.08799999952316284	1.00784
3161	Hm	1	Sil	Hm	3161	0.08799999952316284	1.00784
3162	Hm	1	Sil	Hm	3162	0.08799999952316284	1.00784
3163	Hm	1	Sil	Hm	3163	0.08799999952316284	1.00784
3164	Hm	1	Sil	Hm	3164	0.08799999952316284	1.00784
3165	Hm	1	Sil	Hm	3165	0.08799999952316284	1.00784
3166	Hm	1	Sil	Hm	3166	0.08799999952316284	1.00784
3167	Hm	1	Sil	Hm	3167	0.08799999952316284	1.00784
3168	Hm	1	Sil	Hm	3168	0.08799999952316284	1.00784
3169	Hm	1	Sil	Hm	3169	0.08799999952316284	1.00784
3170	Hm	1	Sil	Hm	3170	0.08799999952316284	1.00784
3171	Hm	1	Sil	Hm	3171	0.08799999952316284	1.00784
3172	Hm	1	Sil	Hm	3172	0.08799999952316284	1.00784
3173	Hm	1	Sil	Hm	3173	0.08799999952316284	1.00784
3174	Hm	1	Sil	Hm	3174	0.08799999952316284	1.00784
3175	Hm	1	Sil	Hm	3175	0.08799999952316284	1.00784
3176	Hm	1	Sil	Hm	3176	0.08799999952316284	1.00784
3177	Hm	1	Sil	Hm	3177	0.08799999952316284	1.00784
3178	Hm	1	Sil	Hm	3178	0.08799999952316284	1.00784
3179	Hm	1	Sil	Hm	3179	0.08799999952316284	1.00784
3180	Hm	1	Sil	Hm	3180	0.08799999952316284	1.00784
3181	Hm	1	Sil	Hm	3181	0.08799999952316284	1.00784
3182	Hm	1	Sil	Hm	3182	0.08799999952316284	1.00784
3183	Hm	1	Sil	Hm	3183	0.08799999952316284	1.00784
3184	Hm	1	Sil	Hm	3184	0.08799999952316284	1.00784
3185	Hm	1	Sil	Hm	3185	0.08799999952316284	1.00784
3186	Hm	1	Sil	Hm	3186	0.08799999952316284	1.00784
3187	Hm	1	Sil	Hm	3187	0.08799999952316284	1.00784
3188	Hm	1	Sil	Hm	3188	0.08799999952316284	1.00784
3189	Hm	1	Sil	Hm	3189	0.08799999952316284	1.00784
3190	Hm	1	Sil	Hm	3190	0.08799999952316284	1.00784
3191	Hm	1	Sil	Hm	3191	0.08799999952316284	1.00784
3192	Hm	1	Sil	Hm	3192	0.08799999952316284	1.00784
3193	Hm	1	Sil	Hm	3193	0.08799999952316284	1.00784
3194	Hm	1	Sil	Hm	3194	0.08799999952316284	1.00784
3195	Hm	1	Sil	Hm	3195	0.08799999952316284	1.00784
3196	Hm	1	Sil	Hm	3196	0.08799999952316284	1.00784
3197	Hm	1	Sil	Hm	3197	0.08799999952316284	1.00784
3198	Hm	1	Sil	Hm	3198	0.08799999952316284	1.00784
3199	Hm	1	Sil	Hm	3199	0.08799999952316284	1.00784
3200	Hm	1	Sil	Hm	3200	0.08799999952316284	1.00784
3201	Hm	1	Sil	Hm	3201	0.08799999952316284	1.00784
3202	Hm	1	Sil	Hm	3202	0.08799999952316284	1.00784
3203	Hm	1	Sil	Hm	3203	0.08799999952316284	1.00784
3204	Hm	1	Sil	Hm	3204	0.08799999952316284	1.00784
3205	Hm	1	Sil	Hm	3205	0.08799999952316284	1.00784
3206	Hm	1	Sil	Hm	3206	0.08799999952316284	1.00784
3207	Hm	1	Sil	Hm	3207	0.08799999952316284	1.00784
3208	Hm	1	Sil	Hm	3208	0.08799999952316284	1.00784
3209	Hm	1	Sil	Hm	3209	0.08799999952316284	1.00784
3210	Hm	1	Sil	Hm	3210	0.08799999952316284	1.00784
3211	Hm	1	Sil	Hm	3211	0.08799999952316284	1.00784
3212	Hm	1	Sil	Hm	3212	0.08799999952316284	1.00784
3213	Hm	1	Sil	Hm	3213	0.08799999952316284	1.00784
3214	Hm	1	Sil	Hm	3214	0.08799999952316284	1.00784
3215	Hm	1	Sil	Hm	3215	0.08799999952316284	1.00784
3216	Hm	1	Sil	Hm	3216	0.08799999952316284	1.00784
3217	Hm	1	Sil	Hm	3217	0.08799999952316284	1.00784
3218	Hm	1	Sil	Hm	3218	0.08799999952316284	1.00784
3219	Hm	1	Sil	Hm	3219	0.08799999952316284	1.00784
3220	Hm	1	Sil	Hm	3220	0.08799999952316284	1.00784
3221	Hm	1	Sil	Hm	3221	0.08799999952316284	1.00784
3222	Hm	1	Sil	Hm	3222	0.08799999952316284	1.00784
3223	Hm	1	Sil	Hm	3223	0.08799999952316284	1.00784
3224	Hm	1	Sil	Hm	3224	0.08799999952316284	1.00784
3225	Hm	1	Sil	Hm	3225	0.08799999952316284	1.00784
3226	Hm	1	Sil	Hm	3226	0.08799999952316284	1.00784
3227	Hm	1	Sil	Hm	3227	0.08799999952316284	1.00784
3228	Hm	1	Sil	Hm	3228	0.08799999952316284	1.00784
3229	Hm	1	Sil	Hm	3229	0.08799999952316284	1.00784
3230	Hm	1	Sil	Hm	3230	0.08799999952316284	1.00784
3231	Hm	1	Sil	Hm	3231	0.08799999952316284	1.00784
3232	Hm	1	Sil	Hm	3232	0.08799999952316284	1.00784
3233	Hm	1	Sil	Hm	3233	0.08799999952316284	1.00784
3234	Hm	1	Sil	Hm	3234	0.08799999952316284	1.00784
3235	Hm	1	Sil	Hm	3235	0.08799999952316284	1.00784
3236	Hm	1	Sil	Hm	3236	0.08799999952316284	1.00784
3237	Hm	1	Sil	Hm	3237	0.08799999952316284	1.00784
3238	Hm	1	Sil	Hm	3238	0.08799999952316284	1.00784
3239	Hm	1	Sil	Hm	3239	0.08799999952316284	1.00784
3240	Hm	1	Sil	Hm	3240	0.08799999952316284	1.00784
3241	Hm	1	Sil	Hm	3241	0.08799999952316284	1.00784
3242	Hm	1	Sil	Hm	3242	0.08799999952316284	1.00784
3243	Hm	1	Sil	Hm	3243	0.08799999952316284	1.00784
3244	Hm	1	Sil	Hm	3244	0.08799999952316284	1.00784
3245	Hm	1	Sil	Hm	3245	0.08799999952316284	1.00784
3246	Hm	1	Sil	Hm	3246	0.08799999952316284	1.00784
3247	Hm	1	Sil	Hm	3247	0.08799999952316284	1.00784
3248	Hm	1	Sil	Hm	3248	0.08799999952316284	1.00784
3249	Hm	1	Sil	Hm	3249	0.08799999952316284	1.00784
3250	Hm	1	Sil	Hm	3250	0.08799999952316284	1.00784
3251	Hm	1	Sil	Hm	3251	0.08799999952316284	1.00784
3252	Hm	1	Sil	Hm	3252	0.08799999952316284	1.00784
3253	Hm	1	Sil	Hm	3253	0.08799999952316284	1.00784
3254	Hm	1	Sil	Hm	3254	0.08799999952316284	1.00784
3255	Hm	1	Sil	Hm	3255	0.08799999952316284	1.00784
3256	Hm	1	Sil	Hm	3256	0.08799999952316284	1.00784
3257	Hm	1	Sil	Hm	3257	0.08799999952316284	1.00784
3258	Hm	1	Sil	Hm	3258	0.08799999952316284	1.00784
3259	Hm	1	Sil	Hm	3259	0.08799999952316284	1.00784
3260	Hm	1	Sil	Hm	3260	0.08799999952316284	1.00784
3261	Hm	1	Sil	Hm	3261	0.08799999952316284	1.00784
3262	Hm	1	Sil	Hm	3262	0.08799999952316284	1.00784
3263	Hm	1	Sil	Hm	3263	0.08799999952316284	1.00784
3264	Hm	1	Sil	Hm	3264	0.08799999952316284	1.00784

[ bonds ]
;  ai   aj  funct   c0         c1
1	2015	1	0.165	238488.0
1	2057	1	0.165	238488.0
2	1877	1	0.165	238488.0
2	1879	1	0.165	238488.0
3	1905	1	0.165	238488.0
3	1927	1	0.165	238488.0
4	1975	1	0.165	238488.0
4	2021	1	0.165	238488.0
5	1989	1	0.165	238488.0
5	2011	1	0.165	238488.0
6	1967	1	0.165	238488.0
6	2155	1	0.165	238488.0
7	1943	1	0.165	238488.0
7	1987	1	0.165	238488.0
8	1876	1	0.165	238488.0
8	2064	1	0.165	238488.0
9	1920	1	0.165	238488.0
9	1989	1	0.165	238488.0
10	1932	1	0.165	238488.0
10	2040	1	0.165	238488.0
11	2052	1	0.165	238488.0
11	2066	1	0.165	238488.0
12	2025	1	0.165	238488.0
12	2070	1	0.165	238488.0
13	1874	1	0.165	238488.0
13	2387	1	0.165	238488.0
14	1945	1	0.165	238488.0
14	2153	1	0.165	238488.0
15	1889	1	0.165	238488.0
15	2073	1	0.165	238488.0
16	1875	1	0.165	238488.0
16	2035	1	0.165	238488.0
17	1931	1	0.165	238488.0
17	2002	1	0.165	238488.0
18	1900	1	0.165	238488.0
18	2077	1	0.165	238488.0
19	1944	1	0.165	238488.0
19	1966	1	0.165	238488.0
20	1906	1	0.165	238488.0
20	1962	1	0.165	238488.0
21	2080	1	0.165	238488.0
21	2378	1	0.165	238488.0
22	1880	1	0.165	238488.0
22	1966	1	0.165	238488.0
23	1882	1	0.165	238488.0
23	1953	1	0.165	238488.0
24	1883	1	0.165	238488.0
24	1927	1	0.165	238488.0
25	1960	1	0.165	238488.0
25	2069	1	0.165	238488.0
26	1883	1	0.165	238488.0
26	1906	1	0.165	238488.0
27	2066	1	0.165	238488.0
27	2075	1	0.165	238488.0
28	2008	1	0.165	238488.0
28	2362	1	0.165	238488.0
29	1897	1	0.165	238488.0
29	1996	1	0.165	238488.0
30	1906	1	0.165	238488.0
30	2023	1	0.165	238488.0
31	1931	1	0.165	238488.0
31	2504	1	0.165	238488.0
32	1959	1	0.165	238488.0
32	1992	1	0.165	238488.0
33	1931	1	0.165	238488.0
33	1962	1	0.165	238488.0
34	1913	1	0.165	238488.0
34	2038	1	0.165	238488.0
35	2059	1	0.165	238488.0
35	2170	1	0.165	238488.0
36	1894	1	0.165	238488.0
36	2283	1	0.165	238488.0
37	1882	1	0.165	238488.0
37	1914	1	0.165	238488.0
38	2048	1	0.165	238488.0
38	2076	1	0.165	238488.0
39	1870	1	0.165	238488.0
39	1896	1	0.165	238488.0
40	1997	1	0.165	238488.0
40	2356	1	0.165	238488.0
41	1963	1	0.165	238488.0
41	2003	1	0.165	238488.0
42	2021	1	0.165	238488.0
42	2079	1	0.165	238488.0
43	1918	1	0.165	238488.0
43	1934	1	0.165	238488.0
44	1899	1	0.165	238488.0
44	2023	1	0.165	238488.0
45	2034	1	0.165	238488.0
45	2078	1	0.165	238488.0
46	2386	1	0.165	238488.0
46	2759	1	0.165	238488.0
47	2018	1	0.165	238488.0
47	2026	1	0.165	238488.0
48	1910	1	0.165	238488.0
48	2313	1	0.165	238488.0
49	1907	1	0.165	238488.0
49	1981	1	0.165	238488.0
50	1895	1	0.165	238488.0
50	2004	1	0.165	238488.0
51	1963	1	0.165	238488.0
51	1996	1	0.165	238488.0
52	1985	1	0.165	238488.0
52	2077	1	0.165	238488.0
53	2042	1	0.165	238488.0
53	2047	1	0.165	238488.0
54	1921	1	0.165	238488.0
54	2058	1	0.165	238488.0
55	1897	1	0.165	238488.0
55	2008	1	0.165	238488.0
56	1887	1	0.165	238488.0
56	2050	1	0.165	238488.0
57	1952	1	0.165	238488.0
57	2069	1	0.165	238488.0
58	1895	1	0.165	238488.0
58	2055	1	0.165	238488.0
59	1889	1	0.165	238488.0
59	1950	1	0.165	238488.0
60	1907	1	0.165	238488.0
60	2036	1	0.165	238488.0
61	1909	1	0.165	238488.0
61	1959	1	0.165	238488.0
62	2030	1	0.165	238488.0
62	2419	1	0.165	238488.0
63	1910	1	0.165	238488.0
63	2045	1	0.165	238488.0
64	1942	1	0.165	238488.0
64	1965	1	0.165	238488.0
65	1982	1	0.165	238488.0
65	1997	1	0.165	238488.0
66	1905	1	0.165	238488.0
66	2040	1	0.165	238488.0
67	1872	1	0.165	238488.0
67	1915	1	0.165	238488.0
68	1884	1	0.165	238488.0
68	1932	1	0.165	238488.0
69	1971	1	0.165	238488.0
69	2038	1	0.165	238488.0
70	1905	1	0.165	238488.0
70	1935	1	0.165	238488.0
71	1912	1	0.165	238488.0
71	1969	1	0.165	238488.0
72	2034	1	0.165	238488.0
72	2049	1	0.165	238488.0
73	1884	1	0.165	238488.0
73	1887	1	0.165	238488.0
74	1951	1	0.165	238488.0
74	1972	1	0.165	238488.0
75	2054	1	0.165	238488.0
75	2076	1	0.165	238488.0
76	1945	1	0.165	238488.0
76	1953	1	0.165	238488.0
77	1872	1	0.165	238488.0
77	2076	1	0.165	238488.0
78	1924	1	0.165	238488.0
78	1988	1	0.165	238488.0
79	1899	1	0.165	238488.0
79	2071	1	0.165	238488.0
80	1940	1	0.165	238488.0
80	1987	1	0.165	238488.0
81	1951	1	0.165	238488.0
81	2024	1	0.165	238488.0
82	1979	1	0.165	238488.0
82	2054	1	0.165	238488.0
83	1976	1	0.165	238488.0
83	2067	1	0.165	238488.0
84	1884	1	0.165	238488.0
84	1915	1	0.165	238488.0
85	1886	1	0.165	238488.0
85	1921	1	0.165	238488.0
86	1893	1	0.165	238488.0
86	1926	1	0.165	238488.0
87	1910	1	0.165	238488.0
87	1967	1	0.165	238488.0
88	1992	1	0.165	238488.0
88	2008	1	0.165	238488.0
89	1996	1	0.165	238488.0
89	2056	1	0.165	238488.0
90	1874	1	0.165	238488.0
90	1919	1	0.165	238488.0
91	2020	1	0.165	238488.0
91	2064	1	0.165	238488.0
92	1875	1	0.165	238488.0
92	2017	1	0.165	238488.0
93	1876	1	0.165	238488.0
93	1972	1	0.165	238488.0
94	1997	1	0.165	238488.0
94	2504	1	0.165	238488.0
95	1910	1	0.165	238488.0
95	2407	1	0.165	238488.0
96	1942	1	0.165	238488.0
96	2012	1	0.165	238488.0
97	1955	1	0.165	238488.0
97	2022	1	0.165	238488.0
98	1976	1	0.165	238488.0
98	2050	1	0.165	238488.0
99	1909	1	0.165	238488.0
99	1973	1	0.165	238488.0
100	1892	1	0.165	238488.0
100	1922	1	0.165	238488.0
101	1923	1	0.165	238488.0
101	2037	1	0.165	238488.0
102	1924	1	0.165	238488.0
102	2416	1	0.165	238488.0
103	1950	1	0.165	238488.0
103	2043	1	0.165	238488.0
104	1990	1	0.165	238488.0
104	2023	1	0.165	238488.0
105	1904	1	0.165	238488.0
105	1928	1	0.165	238488.0
106	2000	1	0.165	238488.0
106	2083	1	0.165	238488.0
107	1898	1	0.165	238488.0
107	1941	1	0.165	238488.0
108	2013	1	0.165	238488.0
108	2020	1	0.165	238488.0
109	1939	1	0.165	238488.0
109	1998	1	0.165	238488.0
110	1906	1	0.165	238488.0
110	2050	1	0.165	238488.0
111	1956	1	0.165	238488.0
111	2051	1	0.165	238488.0
112	1980	1	0.165	238488.0
112	1982	1	0.165	238488.0
113	1927	1	0.165	238488.0
113	1928	1	0.165	238488.0
114	1897	1	0.165	238488.0
114	1959	1	0.165	238488.0
115	1892	1	0.165	238488.0
115	2012	1	0.165	238488.0
116	1902	1	0.165	238488.0
116	1926	1	0.165	238488.0
117	1964	1	0.165	238488.0
117	2000	1	0.165	238488.0
118	1911	1	0.165	238488.0
118	1932	1	0.165	238488.0
119	1933	1	0.165	238488.0
119	1947	1	0.165	238488.0
120	1914	1	0.165	238488.0
120	1949	1	0.165	238488.0
121	1947	1	0.165	238488.0
121	1992	1	0.165	238488.0
122	2037	1	0.165	238488.0
122	2059	1	0.165	238488.0
123	1900	1	0.165	238488.0
123	1907	1	0.165	238488.0
124	1989	1	0.165	238488.0
124	2451	1	0.165	238488.0
125	1889	1	0.165	238488.0
125	2041	1	0.165	238488.0
126	2011	1	0.165	238488.0
126	2139	1	0.165	238488.0
127	1911	1	0.165	238488.0
127	1937	1	0.165	238488.0
128	1894	1	0.165	238488.0
128	1998	1	0.165	238488.0
129	1912	1	0.165	238488.0
129	1955	1	0.165	238488.0
130	2004	1	0.165	238488.0
130	2350	1	0.165	238488.0
131	1967	1	0.165	238488.0
131	2384	1	0.165	238488.0
132	1970	1	0.165	238488.0
132	1990	1	0.165	238488.0
133	1993	1	0.165	238488.0
133	2061	1	0.165	238488.0
134	1960	1	0.165	238488.0
134	2075	1	0.165	238488.0
135	1971	1	0.165	238488.0
135	2023	1	0.165	238488.0
136	1873	1	0.165	238488.0
136	1956	1	0.165	238488.0
137	1892	1	0.165	238488.0
137	1938	1	0.165	238488.0
138	2018	1	0.165	238488.0
138	2055	1	0.165	238488.0
139	1922	1	0.165	238488.0
139	2060	1	0.165	238488.0
140	1915	1	0.165	238488.0
140	2330	1	0.165	238488.0
141	1880	1	0.165	238488.0
141	2755	1	0.165	238488.0
142	1991	1	0.165	238488.0
142	2149	1	0.165	238488.0
143	2022	1	0.165	238488.0
143	2031	1	0.165	238488.0
144	1972	1	0.165	238488.0
144	2021	1	0.165	238488.0
145	2046	1	0.165	238488.0
145	2526	1	0.165	238488.0
146	1962	1	0.165	238488.0
146	2030	1	0.165	238488.0
147	1975	1	0.165	238488.0
147	2022	1	0.165	238488.0
148	1977	1	0.165	238488.0
148	2062	1	0.165	238488.0
149	1991	1	0.165	238488.0
149	2019	1	0.165	238488.0
150	1901	1	0.165	238488.0
150	2060	1	0.165	238488.0
151	1873	1	0.165	238488.0
151	1891	1	0.165	238488.0
152	2001	1	0.165	238488.0
152	2002	1	0.165	238488.0
153	1985	1	0.165	238488.0
153	2015	1	0.165	238488.0
154	1881	1	0.165	238488.0
154	1931	1	0.165	238488.0
155	1921	1	0.165	238488.0
155	1938	1	0.165	238488.0
156	1879	1	0.165	238488.0
156	1962	1	0.165	238488.0
157	2073	1	0.165	238488.0
157	2416	1	0.165	238488.0
158	1917	1	0.165	238488.0
158	2027	1	0.165	238488.0
159	1877	1	0.165	238488.0
159	2005	1	0.165	238488.0
160	1930	1	0.165	238488.0
160	2062	1	0.165	238488.0
161	1948	1	0.165	238488.0
161	2013	1	0.165	238488.0
162	2043	1	0.165	238488.0
162	2044	1	0.165	238488.0
163	2031	1	0.165	238488.0
163	2078	1	0.165	238488.0
164	1983	1	0.165	238488.0
164	2028	1	0.165	238488.0
165	1940	1	0.165	238488.0
165	2078	1	0.165	238488.0
166	1911	1	0.165	238488.0
166	2029	1	0.165	238488.0
167	1935	1	0.165	238488.0
167	2029	1	0.165	238488.0
168	1983	1	0.165	238488.0
168	2044	1	0.165	238488.0
169	1872	1	0.165	238488.0
169	1965	1	0.165	238488.0
170	1893	1	0.165	238488.0
170	1957	1	0.165	238488.0
171	1957	1	0.165	238488.0
171	1968	1	0.165	238488.0
172	1909	1	0.165	238488.0
172	1983	1	0.165	238488.0
173	1879	1	0.165	238488.0
173	1902	1	0.165	238488.0
174	1875	1	0.165	238488.0
174	2026	1	0.165	238488.0
175	1917	1	0.165	238488.0
175	1936	1	0.165	238488.0
176	2057	1	0.165	238488.0
176	2074	1	0.165	238488.0
177	1969	1	0.165	238488.0
177	2025	1	0.165	238488.0
178	1885	1	0.165	238488.0
178	2412	1	0.165	238488.0
179	2017	1	0.165	238488.0
179	2234	1	0.165	238488.0
180	1943	1	0.165	238488.0
180	1946	1	0.165	238488.0
181	1955	1	0.165	238488.0
181	1982	1	0.165	238488.0
182	2003	1	0.165	238488.0
182	2074	1	0.165	238488.0
183	1912	1	0.165	238488.0
183	1958	1	0.165	238488.0
184	1968	1	0.165	238488.0
184	2018	1	0.165	238488.0
185	1999	1	0.165	238488.0
185	2032	1	0.165	238488.0
186	1872	1	0.165	238488.0
186	1920	1	0.165	238488.0
187	1890	1	0.165	238488.0
187	2033	1	0.165	238488.0
188	1893	1	0.165	238488.0
188	1969	1	0.165	238488.0
189	1891	1	0.165	238488.0
189	2035	1	0.165	238488.0
190	2006	1	0.165	238488.0
190	2019	1	0.165	238488.0
191	1870	1	0.165	238488.0
191	1893	1	0.165	238488.0
192	1900	1	0.165	238488.0
192	2067	1	0.165	238488.0
193	1973	1	0.165	238488.0
193	2073	1	0.165	238488.0
194	1958	1	0.165	238488.0
194	2031	1	0.165	238488.0
195	1913	1	0.165	238488.0
195	1925	1	0.165	238488.0
196	2065	1	0.165	238488.0
196	2066	1	0.165	238488.0
197	2047	1	0.165	238488.0
197	2049	1	0.165	238488.0
198	2010	1	0.165	238488.0
198	2047	1	0.165	238488.0
199	1916	1	0.165	238488.0
199	2047	1	0.165	238488.0
200	1949	1	0.165	238488.0
200	1978	1	0.165	238488.0
201	1878	1	0.165	238488.0
201	1999	1	0.165	238488.0
202	1895	1	0.165	238488.0
202	1968	1	0.165	238488.0
203	2014	1	0.165	238488.0
203	2754	1	0.165	238488.0
204	1905	1	0.165	238488.0
204	2067	1	0.165	238488.0
205	2073	1	0.165	238488.0
205	2367	1	0.165	238488.0
206	1926	1	0.165	238488.0
206	2391	1	0.165	238488.0
207	1971	1	0.165	238488.0
207	2040	1	0.165	238488.0
208	1876	1	0.165	238488.0
208	1954	1	0.165	238488.0
209	2074	1	0.165	238488.0
209	2077	1	0.165	238488.0
210	1908	1	0.165	238488.0
210	2045	1	0.165	238488.0
211	1954	1	0.165	238488.0
211	2044	1	0.165	238488.0
212	1913	1	0.165	238488.0
212	1937	1	0.165	238488.0
213	1886	1	0.165	238488.0
213	1922	1	0.165	238488.0
214	1903	1	0.165	238488.0
214	2044	1	0.165	238488.0
215	1930	1	0.165	238488.0
215	2043	1	0.165	238488.0
216	1940	1	0.165	238488.0
216	1978	1	0.165	238488.0
217	1935	1	0.165	238488.0
217	2038	1	0.165	238488.0
218	1884	1	0.165	238488.0
218	2415	1	0.165	238488.0
219	1917	1	0.165	238488.0
219	1946	1	0.165	238488.0
220	1888	1	0.165	238488.0
220	1897	1	0.165	238488.0
221	1943	1	0.165	238488.0
221	2087	1	0.165	238488.0
222	1999	1	0.165	238488.0
222	2066	1	0.165	238488.0
223	1952	1	0.165	238488.0
223	2754	1	0.165	238488.0
224	1913	1	0.165	238488.0
224	2336	1	0.165	238488.0
225	1989	1	0.165	238488.0
225	2375	1	0.165	238488.0
226	1964	1	0.165	238488.0
226	2110	1	0.165	238488.0
227	1909	1	0.165	238488.0
227	1978	1	0.165	238488.0
228	2019	1	0.165	238488.0
228	2444	1	0.165	238488.0
229	1966	1	0.165	238488.0
229	1980	1	0.165	238488.0
230	2003	1	0.165	238488.0
230	2028	1	0.165	238488.0
231	1885	1	0.165	238488.0
231	2006	1	0.165	238488.0
232	1936	1	0.165	238488.0
232	2153	1	0.165	238488.0
233	1886	1	0.165	238488.0
233	2076	1	0.165	238488.0
234	1896	1	0.165	238488.0
234	2035	1	0.165	238488.0
235	2527	1	0.165	238488.0
235	2752	1	0.165	238488.0
236	1952	1	0.165	238488.0
236	2217	1	0.165	238488.0
237	1929	1	0.165	238488.0
237	1994	1	0.165	238488.0
238	1885	1	0.165	238488.0
238	1950	1	0.165	238488.0
239	1964	1	0.165	238488.0
239	2087	1	0.165	238488.0
240	1918	1	0.165	238488.0
240	2083	1	0.165	238488.0
241	1953	1	0.165	238488.0
241	2019	1	0.165	238488.0
242	1985	1	0.165	238488.0
242	2003	1	0.165	238488.0
243	1964	1	0.165	238488.0
243	2752	1	0.165	238488.0
244	1917	1	0.165	238488.0
244	2168	1	0.165	238488.0
245	1887	1	0.165	238488.0
245	1912	1	0.165	238488.0
246	1887	1	0.165	238488.0
246	1979	1	0.165	238488.0
247	1918	1	0.165	238488.0
247	2053	1	0.165	238488.0
248	1870	1	0.165	238488.0
248	1955	1	0.165	238488.0
249	1915	1	0.165	238488.0
249	1926	1	0.165	238488.0
250	1959	1	0.165	238488.0
250	2009	1	0.165	238488.0
251	2083	1	0.165	238488.0
251	2159	1	0.165	238488.0
252	1882	1	0.165	238488.0
252	1987	1	0.165	238488.0
253	1882	1	0.165	238488.0
253	1930	1	0.165	238488.0
254	1947	1	0.165	238488.0
254	2072	1	0.165	238488.0
255	1981	1	0.165	238488.0
255	2072	1	0.165	238488.0
256	2011	1	0.165	238488.0
256	2048	1	0.165	238488.0
257	1911	1	0.165	238488.0
257	2011	1	0.165	238488.0
258	1898	1	0.165	238488.0
258	1952	1	0.165	238488.0
259	1985	1	0.165	238488.0
259	2072	1	0.165	238488.0
260	2008	1	0.165	238488.0
260	2094	1	0.165	238488.0
261	1902	1	0.165	238488.0
261	2030	1	0.165	238488.0
262	1949	1	0.165	238488.0
262	1977	1	0.165	238488.0
263	1881	1	0.165	238488.0
263	1941	1	0.165	238488.0
264	1896	1	0.165	238488.0
264	2005	1	0.165	238488.0
265	1966	1	0.165	238488.0
265	1968	1	0.165	238488.0
266	1888	1	0.165	238488.0
266	1978	1	0.165	238488.0
267	1994	1	0.165	238488.0
267	2367	1	0.165	238488.0
268	2033	1	0.165	238488.0
268	2056	1	0.165	238488.0
269	1891	1	0.165	238488.0
269	1934	1	0.165	238488.0
270	1982	1	0.165	238488.0
270	2005	1	0.165	238488.0
271	2029	1	0.165	238488.0
271	2292	1	0.165	238488.0
272	1943	1	0.165	238488.0
272	1956	1	0.165	238488.0
273	1946	1	0.165	238488.0
273	2016	1	0.165	238488.0
274	1957	1	0.165	238488.0
274	2039	1	0.165	238488.0
275	2021	1	0.165	238488.0
275	2027	1	0.165	238488.0
276	2013	1	0.165	238488.0
276	2024	1	0.165	238488.0
277	1894	1	0.165	238488.0
277	1929	1	0.165	238488.0
278	2039	1	0.165	238488.0
278	2426	1	0.165	238488.0
279	1908	1	0.165	238488.0
279	1984	1	0.165	238488.0
280	2049	1	0.165	238488.0
280	2063	1	0.165	238488.0
281	1923	1	0.165	238488.0
281	2071	1	0.165	238488.0
282	1878	1	0.165	238488.0
282	2032	1	0.165	238488.0
283	1869	1	0.165	238488.0
283	1886	1	0.165	238488.0
284	1986	1	0.165	238488.0
284	2010	1	0.165	238488.0
285	1924	1	0.165	238488.0
285	1939	1	0.165	238488.0
286	1954	1	0.165	238488.0
286	1961	1	0.165	238488.0
287	1874	1	0.165	238488.0
287	1980	1	0.165	238488.0
288	1923	1	0.165	238488.0
288	1995	1	0.165	238488.0
289	1874	1	0.165	238488.0
289	1880	1	0.165	238488.0
290	2077	1	0.165	238488.0
290	2229	1	0.165	238488.0
291	1967	1	0.165	238488.0
291	2081	1	0.165	238488.0
292	1970	1	0.165	238488.0
292	1974	1	0.165	238488.0
293	1879	1	0.165	238488.0
293	2050	1	0.165	238488.0
294	1903	1	0.165	238488.0
294	1948	1	0.165	238488.0
295	1960	1	0.165	238488.0
295	2007	1	0.165	238488.0
296	1975	1	0.165	238488.0
296	2007	1	0.165	238488.0
297	2068	1	0.165	238488.0
297	2069	1	0.165	238488.0
298	2072	1	0.165	238488.0
298	2302	1	0.165	238488.0
299	1992	1	0.165	238488.0
299	1996	1	0.165	238488.0
300	2054	1	0.165	238488.0
300	2063	1	0.165	238488.0
301	1961	1	0.165	238488.0
301	2028	1	0.165	238488.0
302	1975	1	0.165	238488.0
302	2068	1	0.165	238488.0
303	1869	1	0.165	238488.0
303	2012	1	0.165	238488.0
304	1902	1	0.165	238488.0
304	1997	1	0.165	238488.0
305	2017	1	0.165	238488.0
305	2086	1	0.165	238488.0
306	2064	1	0.165	238488.0
306	2068	1	0.165	238488.0
307	1888	1	0.165	238488.0
307	1908	1	0.165	238488.0
308	1987	1	0.165	238488.0
308	2027	1	0.165	238488.0
309	1907	1	0.165	238488.0
309	2028	1	0.165	238488.0
310	1944	1	0.165	238488.0
310	2039	1	0.165	238488.0
311	1877	1	0.165	238488.0
311	2014	1	0.165	238488.0
312	1873	1	0.165	238488.0
312	2000	1	0.165	238488.0
313	1940	1	0.165	238488.0
313	1954	1	0.165	238488.0
314	1936	1	0.165	238488.0
314	2751	1	0.165	238488.0
315	1988	1	0.165	238488.0
315	2041	1	0.165	238488.0
316	2025	1	0.165	238488.0
316	2060	1	0.165	238488.0
317	2034	1	0.165	238488.0
317	2051	1	0.165	238488.0
318	1948	1	0.165	238488.0
318	1950	1	0.165	238488.0
319	1934	1	0.165	238488.0
319	2022	1	0.165	238488.0
320	2051	1	0.165	238488.0
320	2053	1	0.165	238488.0
321	1871	1	0.165	238488.0
321	1942	1	0.165	238488.0
322	2004	1	0.165	238488.0
322	2060	1	0.165	238488.0
323	2006	1	0.165	238488.0
323	2024	1	0.165	238488.0
324	1928	1	0.165	238488.0
324	2071	1	0.165	238488.0
325	1948	1	0.165	238488.0
325	2041	1	0.165	238488.0
326	1904	1	0.165	238488.0
326	2013	1	0.165	238488.0
327	1930	1	0.165	238488.0
327	1972	1	0.165	238488.0
328	1895	1	0.165	238488.0
328	1901	1	0.165	238488.0
329	1873	1	0.165	238488.0
329	2016	1	0.165	238488.0
330	1903	1	0.165	238488.0
330	2036	1	0.165	238488.0
331	2010	1	0.165	238488.0
331	2045	1	0.165	238488.0
332	1958	1	0.165	238488.0
332	1976	1	0.165	238488.0
333	1986	1	0.165	238488.0
333	2051	1	0.165	238488.0
334	1920	1	0.165	238488.0
334	1965	1	0.165	238488.0
335	1980	1	0.165	238488.0
335	2356	1	0.165	238488.0
336	1951	1	0.165	238488.0
336	2020	1	0.165	238488.0
337	2036	1	0.165	238488.0
337	2041	1	0.165	238488.0
338	2035	1	0.165	238488.0
338	2088	1	0.165	238488.0
339	2001	1	0.165	238488.0
339	2387	1	0.165	238488.0
340	1900	1	0.165	238488.0
340	2029	1	0.165	238488.0
341	1921	1	0.165	238488.0
341	2057	1	0.165	238488.0
342	2042	1	0.165	238488.0
342	2070	1	0.165	238488.0
343	2034	1	0.165	238488.0
343	2055	1	0.165	238488.0
344	1979	1	0.165	238488.0
344	2067	1	0.165	238488.0
345	1927	1	0.165	238488.0
345	2036	1	0.165	238488.0
346	1953	1	0.165	238488.0
346	2079	1	0.165	238488.0
347	1939	1	0.165	238488.0
347	2059	1	0.165	238488.0
348	1994	1	0.165	238488.0
348	2009	1	0.165	238488.0
349	1977	1	0.165	238488.0
349	2043	1	0.165	238488.0
350	1971	1	0.165	238488.0
350	1974	1	0.165	238488.0
351	1877	1	0.165	238488.0
351	2068	1	0.165	238488.0
352	1870	1	0.165	238488.0
352	2055	1	0.165	238488.0
353	1991	1	0.165	238488.0
353	2079	1	0.165	238488.0
354	2015	1	0.165	238488.0
354	2056	1	0.165	238488.0
355	1925	1	0.165	238488.0
355	1932	1	0.165	238488.0
356	1981	1	0.165	238488.0
356	1994	1	0.165	238488.0
357	1958	1	0.165	238488.0
357	1961	1	0.165	238488.0
358	2026	1	0.165	238488.0
358	2053	1	0.165	238488.0
359	2024	1	0.165	238488.0
359	2065	1	0.165	238488.0
360	2058	1	0.165	238488.0
360	2063	1	0.165	238488.0
361	1984	1	0.165	238488.0
361	2046	1	0.165	238488.0
362	2016	1	0.165	238488.0
362	2027	1	0.165	238488.0
363	1973	1	0.165	238488.0
363	2009	1	0.165	238488.0
364	2053	1	0.165	238488.0
364	2070	1	0.165	238488.0
365	1946	1	0.165	238488.0
365	2255	1	0.165	238488.0
366	2025	1	0.165	238488.0
366	2063	1	0.165	238488.0
367	1876	1	0.165	238488.0
367	2031	1	0.165	238488.0
368	1899	1	0.165	238488.0
368	2038	1	0.165	238488.0
369	2007	1	0.165	238488.0
369	2014	1	0.165	238488.0
370	1998	1	0.165	238488.0
370	2059	1	0.165	238488.0
371	1951	1	0.165	238488.0
371	2075	1	0.165	238488.0
372	2075	1	0.165	238488.0
372	2753	1	0.165	238488.0
373	1889	1	0.165	238488.0
373	1924	1	0.165	238488.0
374	2020	1	0.165	238488.0
374	2069	1	0.165	238488.0
375	1935	1	0.165	238488.0
375	2071	1	0.165	238488.0
376	1979	1	0.165	238488.0
376	2048	1	0.165	238488.0
377	1981	1	0.165	238488.0
377	1983	1	0.165	238488.0
378	2052	1	0.165	238488.0
378	2217	1	0.165	238488.0
379	1918	1	0.165	238488.0
379	2018	1	0.165	238488.0
380	1916	1	0.165	238488.0
380	2058	1	0.165	238488.0
381	1878	1	0.165	238488.0
381	1881	1	0.165	238488.0
382	2065	1	0.165	238488.0
382	2753	1	0.165	238488.0
383	1883	1	0.165	238488.0
383	2032	1	0.165	238488.0
384	2048	1	0.165	238488.0
384	2074	1	0.165	238488.0
385	1922	1	0.165	238488.0
385	2058	1	0.165	238488.0
386	1963	1	0.165	238488.0
386	2049	1	0.165	238488.0
387	1896	1	0.165	238488.0
387	1934	1	0.165	238488.0
388	1883	1	0.165	238488.0
388	2064	1	0.165	238488.0
389	1956	1	0.165	238488.0
389	2078	1	0.165	238488.0
390	1961	1	0.165	238488.0
390	1963	1	0.165	238488.0
391	1919	1	0.165	238488.0
391	2014	1	0.165	238488.0
392	1995	1	0.165	238488.0
392	2182	1	0.165	238488.0
393	1969	1	0.165	238488.0
393	2054	1	0.165	238488.0
394	1903	1	0.165	238488.0
394	1976	1	0.165	238488.0
395	1919	1	0.165	238488.0
395	2005	1	0.165	238488.0
396	1937	1	0.165	238488.0
396	2292	1	0.165	238488.0
397	1986	1	0.165	238488.0
397	2046	1	0.165	238488.0
398	1941	1	0.165	238488.0
398	2435	1	0.165	238488.0
399	2030	1	0.165	238488.0
399	2040	1	0.165	238488.0
400	1916	1	0.165	238488.0
400	2056	1	0.165	238488.0
401	1871	1	0.165	238488.0
401	2004	1	0.165	238488.0
402	1993	1	0.165	238488.0
402	2006	1	0.165	238488.0
403	1890	1	0.165	238488.0
403	2081	1	0.165	238488.0
404	1916	1	0.165	238488.0
404	2081	1	0.165	238488.0
405	1904	1	0.165	238488.0
405	2082	1	0.165	238488.0
406	1878	1	0.165	238488.0
406	1990	1	0.165	238488.0
407	1998	1	0.165	238488.0
407	2283	1	0.165	238488.0
408	2037	1	0.165	238488.0
408	2082	1	0.165	238488.0
409	1901	1	0.165	238488.0
409	2042	1	0.165	238488.0
410	2052	1	0.165	238488.0
410	2065	1	0.165	238488.0
411	1988	1	0.165	238488.0
411	2082	1	0.165	238488.0
412	2080	1	0.165	238488.0
412	2084	1	0.165	238488.0
413	2080	1	0.165	238488.0
413	2086	1	0.165	238488.0
414	2080	1	0.165	238488.0
414	2085	1	0.165	238488.0
415	2087	1	0.165	238488.0
415	2759	1	0.165	238488.0
416	2084	1	0.165	238488.0
416	2085	1	0.165	238488.0
417	1957	1	0.165	238488.0
417	2085	1	0.165	238488.0
418	2237	1	0.165	238488.0
418	2279	1	0.165	238488.0
419	2097	1	0.165	238488.0
419	2099	1	0.165	238488.0
420	2125	1	0.165	238488.0
420	2147	1	0.165	238488.0
421	2197	1	0.165	238488.0
421	2243	1	0.165	238488.0
422	2211	1	0.165	238488.0
422	2233	1	0.165	238488.0
423	2189	1	0.165	238488.0
423	2752	1	0.165	238488.0
424	2164	1	0.165	238488.0
424	2209	1	0.165	238488.0
425	2096	1	0.165	238488.0
425	2286	1	0.165	238488.0
426	2140	1	0.165	238488.0
426	2211	1	0.165	238488.0
427	2152	1	0.165	238488.0
427	2262	1	0.165	238488.0
428	2274	1	0.165	238488.0
428	2288	1	0.165	238488.0
429	2247	1	0.165	238488.0
429	2293	1	0.165	238488.0
430	2093	1	0.165	238488.0
430	2607	1	0.165	238488.0
431	1933	1	0.165	238488.0
431	2166	1	0.165	238488.0
432	2109	1	0.165	238488.0
432	2296	1	0.165	238488.0
433	2095	1	0.165	238488.0
433	2257	1	0.165	238488.0
434	2151	1	0.165	238488.0
434	2224	1	0.165	238488.0
435	2120	1	0.165	238488.0
435	2300	1	0.165	238488.0
436	2165	1	0.165	238488.0
436	2188	1	0.165	238488.0
437	2126	1	0.165	238488.0
437	2184	1	0.165	238488.0
438	2303	1	0.165	238488.0
438	2598	1	0.165	238488.0
439	2100	1	0.165	238488.0
439	2188	1	0.165	238488.0
440	2102	1	0.165	238488.0
440	2175	1	0.165	238488.0
441	2103	1	0.165	238488.0
441	2147	1	0.165	238488.0
442	2182	1	0.165	238488.0
442	2291	1	0.165	238488.0
443	2103	1	0.165	238488.0
443	2126	1	0.165	238488.0
444	2288	1	0.165	238488.0
444	2298	1	0.165	238488.0
445	1869	1	0.165	238488.0
445	2100	1	0.165	238488.0
446	2230	1	0.165	238488.0
446	2581	1	0.165	238488.0
447	2117	1	0.165	238488.0
447	2218	1	0.165	238488.0
448	2126	1	0.165	238488.0
448	2245	1	0.165	238488.0
449	2151	1	0.165	238488.0
449	2725	1	0.165	238488.0
450	2181	1	0.165	238488.0
450	2214	1	0.165	238488.0
451	2151	1	0.165	238488.0
451	2184	1	0.165	238488.0
452	2133	1	0.165	238488.0
452	2260	1	0.165	238488.0
453	2281	1	0.165	238488.0
453	2753	1	0.165	238488.0
454	2061	1	0.165	238488.0
454	2114	1	0.165	238488.0
455	2102	1	0.165	238488.0
455	2134	1	0.165	238488.0
456	2270	1	0.165	238488.0
456	2299	1	0.165	238488.0
457	1929	1	0.165	238488.0
457	2664	1	0.165	238488.0
458	2089	1	0.165	238488.0
458	2116	1	0.165	238488.0
459	2219	1	0.165	238488.0
459	2575	1	0.165	238488.0
460	2185	1	0.165	238488.0
460	2225	1	0.165	238488.0
461	2243	1	0.165	238488.0
461	2302	1	0.165	238488.0
462	2138	1	0.165	238488.0
462	2154	1	0.165	238488.0
463	2119	1	0.165	238488.0
463	2245	1	0.165	238488.0
464	2256	1	0.165	238488.0
464	2301	1	0.165	238488.0
465	2606	1	0.165	238488.0
465	2760	1	0.165	238488.0
466	2240	1	0.165	238488.0
466	2248	1	0.165	238488.0
467	2130	1	0.165	238488.0
467	2531	1	0.165	238488.0
468	2127	1	0.165	238488.0
468	2203	1	0.165	238488.0
469	2115	1	0.165	238488.0
469	2226	1	0.165	238488.0
470	2185	1	0.165	238488.0
470	2218	1	0.165	238488.0
471	2170	1	0.165	238488.0
471	2213	1	0.165	238488.0
472	2207	1	0.165	238488.0
472	2300	1	0.165	238488.0
473	2094	1	0.165	238488.0
473	2155	1	0.165	238488.0
474	2264	1	0.165	238488.0
474	2269	1	0.165	238488.0
475	2141	1	0.165	238488.0
475	2280	1	0.165	238488.0
476	2117	1	0.165	238488.0
476	2230	1	0.165	238488.0
477	2107	1	0.165	238488.0
477	2272	1	0.165	238488.0
478	2174	1	0.165	238488.0
478	2291	1	0.165	238488.0
479	2115	1	0.165	238488.0
479	2277	1	0.165	238488.0
480	2109	1	0.165	238488.0
480	2172	1	0.165	238488.0
481	2127	1	0.165	238488.0
481	2258	1	0.165	238488.0
482	2129	1	0.165	238488.0
482	2181	1	0.165	238488.0
483	2252	1	0.165	238488.0
483	2640	1	0.165	238488.0
484	2130	1	0.165	238488.0
484	2267	1	0.165	238488.0
485	2163	1	0.165	238488.0
485	2187	1	0.165	238488.0
486	2204	1	0.165	238488.0
486	2219	1	0.165	238488.0
487	2125	1	0.165	238488.0
487	2262	1	0.165	238488.0
488	2091	1	0.165	238488.0
488	2135	1	0.165	238488.0
489	2104	1	0.165	238488.0
489	2152	1	0.165	238488.0
490	2193	1	0.165	238488.0
490	2260	1	0.165	238488.0
491	2125	1	0.165	238488.0
491	2156	1	0.165	238488.0
492	2132	1	0.165	238488.0
492	2191	1	0.165	238488.0
493	2256	1	0.165	238488.0
493	2271	1	0.165	238488.0
494	2104	1	0.165	238488.0
494	2107	1	0.165	238488.0
495	2173	1	0.165	238488.0
495	2194	1	0.165	238488.0
496	2276	1	0.165	238488.0
496	2299	1	0.165	238488.0
497	2166	1	0.165	238488.0
497	2175	1	0.165	238488.0
498	2091	1	0.165	238488.0
498	2299	1	0.165	238488.0
499	2144	1	0.165	238488.0
499	2210	1	0.165	238488.0
500	2119	1	0.165	238488.0
500	2294	1	0.165	238488.0
501	2161	1	0.165	238488.0
501	2209	1	0.165	238488.0
502	2173	1	0.165	238488.0
502	2246	1	0.165	238488.0
503	2201	1	0.165	238488.0
503	2276	1	0.165	238488.0
504	2198	1	0.165	238488.0
504	2289	1	0.165	238488.0
505	2104	1	0.165	238488.0
505	2135	1	0.165	238488.0
506	2106	1	0.165	238488.0
506	2141	1	0.165	238488.0
507	2113	1	0.165	238488.0
507	2146	1	0.165	238488.0
508	2130	1	0.165	238488.0
508	2189	1	0.165	238488.0
509	2214	1	0.165	238488.0
509	2230	1	0.165	238488.0
510	2218	1	0.165	238488.0
510	2278	1	0.165	238488.0
511	2093	1	0.165	238488.0
511	2139	1	0.165	238488.0
512	2242	1	0.165	238488.0
512	2286	1	0.165	238488.0
513	2095	1	0.165	238488.0
513	2239	1	0.165	238488.0
514	2096	1	0.165	238488.0
514	2194	1	0.165	238488.0
515	2219	1	0.165	238488.0
515	2725	1	0.165	238488.0
516	2130	1	0.165	238488.0
516	2628	1	0.165	238488.0
517	2163	1	0.165	238488.0
517	2234	1	0.165	238488.0
518	2177	1	0.165	238488.0
518	2244	1	0.165	238488.0
519	2198	1	0.165	238488.0
519	2272	1	0.165	238488.0
520	2129	1	0.165	238488.0
520	2195	1	0.165	238488.0
521	2112	1	0.165	238488.0
521	2142	1	0.165	238488.0
522	2143	1	0.165	238488.0
522	2259	1	0.165	238488.0
523	2144	1	0.165	238488.0
523	2637	1	0.165	238488.0
524	2172	1	0.165	238488.0
524	2265	1	0.165	238488.0
525	2212	1	0.165	238488.0
525	2245	1	0.165	238488.0
526	2124	1	0.165	238488.0
526	2148	1	0.165	238488.0
527	2222	1	0.165	238488.0
527	2306	1	0.165	238488.0
528	2033	1	0.165	238488.0
528	2222	1	0.165	238488.0
529	2118	1	0.165	238488.0
529	2162	1	0.165	238488.0
530	2235	1	0.165	238488.0
530	2242	1	0.165	238488.0
531	2160	1	0.165	238488.0
531	2220	1	0.165	238488.0
532	2126	1	0.165	238488.0
532	2272	1	0.165	238488.0
533	1937	1	0.165	238488.0
533	2223	1	0.165	238488.0
534	2178	1	0.165	238488.0
534	2273	1	0.165	238488.0
535	2202	1	0.165	238488.0
535	2204	1	0.165	238488.0
536	2147	1	0.165	238488.0
536	2148	1	0.165	238488.0
537	2117	1	0.165	238488.0
537	2181	1	0.165	238488.0
538	2112	1	0.165	238488.0
538	2234	1	0.165	238488.0
539	2122	1	0.165	238488.0
539	2146	1	0.165	238488.0
540	2186	1	0.165	238488.0
540	2222	1	0.165	238488.0
541	2131	1	0.165	238488.0
541	2152	1	0.165	238488.0
542	2153	1	0.165	238488.0
542	2168	1	0.165	238488.0
543	2134	1	0.165	238488.0
543	2171	1	0.165	238488.0
544	2168	1	0.165	238488.0
544	2214	1	0.165	238488.0
545	2259	1	0.165	238488.0
545	2281	1	0.165	238488.0
546	2120	1	0.165	238488.0
546	2127	1	0.165	238488.0
547	2211	1	0.165	238488.0
547	2672	1	0.165	238488.0
548	2109	1	0.165	238488.0
548	2263	1	0.165	238488.0
549	1919	1	0.165	238488.0
549	2233	1	0.165	238488.0
550	2131	1	0.165	238488.0
550	2158	1	0.165	238488.0
551	2114	1	0.165	238488.0
551	2220	1	0.165	238488.0
552	2132	1	0.165	238488.0
552	2177	1	0.165	238488.0
553	2226	1	0.165	238488.0
553	2569	1	0.165	238488.0
554	2189	1	0.165	238488.0
554	2604	1	0.165	238488.0
555	2192	1	0.165	238488.0
555	2212	1	0.165	238488.0
556	2215	1	0.165	238488.0
556	2283	1	0.165	238488.0
557	2182	1	0.165	238488.0
557	2298	1	0.165	238488.0
558	2193	1	0.165	238488.0
558	2245	1	0.165	238488.0
559	2092	1	0.165	238488.0
559	2178	1	0.165	238488.0
560	2112	1	0.165	238488.0
560	2159	1	0.165	238488.0
561	2240	1	0.165	238488.0
561	2277	1	0.165	238488.0
562	2142	1	0.165	238488.0
562	2282	1	0.165	238488.0
563	2057	1	0.165	238488.0
563	2111	1	0.165	238488.0
564	2135	1	0.165	238488.0
564	2549	1	0.165	238488.0
565	2100	1	0.165	238488.0
565	2535	1	0.165	238488.0
566	1929	1	0.165	238488.0
566	2213	1	0.165	238488.0
567	2244	1	0.165	238488.0
567	2253	1	0.165	238488.0
568	2194	1	0.165	238488.0
568	2243	1	0.165	238488.0
569	2268	1	0.165	238488.0
569	2748	1	0.165	238488.0
570	2184	1	0.165	238488.0
570	2252	1	0.165	238488.0
571	2197	1	0.165	238488.0
571	2244	1	0.165	238488.0
572	2199	1	0.165	238488.0
572	2284	1	0.165	238488.0
573	2213	1	0.165	238488.0
573	2241	1	0.165	238488.0
574	2121	1	0.165	238488.0
574	2282	1	0.165	238488.0
575	2092	1	0.165	238488.0
575	2111	1	0.165	238488.0
576	2223	1	0.165	238488.0
576	2224	1	0.165	238488.0
577	2207	1	0.165	238488.0
577	2237	1	0.165	238488.0
578	2101	1	0.165	238488.0
578	2151	1	0.165	238488.0
579	2141	1	0.165	238488.0
579	2159	1	0.165	238488.0
580	2099	1	0.165	238488.0
580	2184	1	0.165	238488.0
581	2296	1	0.165	238488.0
581	2637	1	0.165	238488.0
582	2137	1	0.165	238488.0
582	2249	1	0.165	238488.0
583	2097	1	0.165	238488.0
583	2227	1	0.165	238488.0
584	2150	1	0.165	238488.0
584	2284	1	0.165	238488.0
585	2169	1	0.165	238488.0
585	2235	1	0.165	238488.0
586	2265	1	0.165	238488.0
586	2266	1	0.165	238488.0
587	2253	1	0.165	238488.0
587	2301	1	0.165	238488.0
588	2205	1	0.165	238488.0
588	2250	1	0.165	238488.0
589	2161	1	0.165	238488.0
589	2301	1	0.165	238488.0
590	2131	1	0.165	238488.0
590	2251	1	0.165	238488.0
591	2156	1	0.165	238488.0
591	2251	1	0.165	238488.0
592	2205	1	0.165	238488.0
592	2266	1	0.165	238488.0
593	2091	1	0.165	238488.0
593	2187	1	0.165	238488.0
594	2113	1	0.165	238488.0
594	2179	1	0.165	238488.0
595	2179	1	0.165	238488.0
595	2190	1	0.165	238488.0
596	2129	1	0.165	238488.0
596	2205	1	0.165	238488.0
597	2099	1	0.165	238488.0
597	2122	1	0.165	238488.0
598	2095	1	0.165	238488.0
598	2248	1	0.165	238488.0
599	2137	1	0.165	238488.0
599	2157	1	0.165	238488.0
600	2279	1	0.165	238488.0
600	2297	1	0.165	238488.0
601	2191	1	0.165	238488.0
601	2247	1	0.165	238488.0
602	2105	1	0.165	238488.0
602	2633	1	0.165	238488.0
603	2012	1	0.165	238488.0
603	2239	1	0.165	238488.0
604	2015	1	0.165	238488.0
604	2238	1	0.165	238488.0
605	2164	1	0.165	238488.0
605	2167	1	0.165	238488.0
606	2177	1	0.165	238488.0
606	2204	1	0.165	238488.0
607	2225	1	0.165	238488.0
607	2297	1	0.165	238488.0
608	2132	1	0.165	238488.0
608	2180	1	0.165	238488.0
609	2190	1	0.165	238488.0
609	2240	1	0.165	238488.0
610	2221	1	0.165	238488.0
610	2254	1	0.165	238488.0
611	2091	1	0.165	238488.0
611	2140	1	0.165	238488.0
612	2110	1	0.165	238488.0
612	2255	1	0.165	238488.0
613	2113	1	0.165	238488.0
613	2191	1	0.165	238488.0
614	2111	1	0.165	238488.0
614	2257	1	0.165	238488.0
615	2228	1	0.165	238488.0
615	2241	1	0.165	238488.0
616	2089	1	0.165	238488.0
616	2113	1	0.165	238488.0
617	2120	1	0.165	238488.0
617	2289	1	0.165	238488.0
618	2195	1	0.165	238488.0
618	2296	1	0.165	238488.0
619	2180	1	0.165	238488.0
619	2253	1	0.165	238488.0
620	2133	1	0.165	238488.0
620	2145	1	0.165	238488.0
621	2269	1	0.165	238488.0
621	2271	1	0.165	238488.0
622	2232	1	0.165	238488.0
622	2269	1	0.165	238488.0
623	2136	1	0.165	238488.0
623	2269	1	0.165	238488.0
624	2171	1	0.165	238488.0
624	2200	1	0.165	238488.0
625	2115	1	0.165	238488.0
625	2190	1	0.165	238488.0
626	2236	1	0.165	238488.0
626	2292	1	0.165	238488.0
627	2125	1	0.165	238488.0
627	2289	1	0.165	238488.0
628	2296	1	0.165	238488.0
628	2586	1	0.165	238488.0
629	2146	1	0.165	238488.0
629	2612	1	0.165	238488.0
630	2193	1	0.165	238488.0
630	2262	1	0.165	238488.0
631	2096	1	0.165	238488.0
631	2176	1	0.165	238488.0
632	2297	1	0.165	238488.0
632	2300	1	0.165	238488.0
633	2128	1	0.165	238488.0
633	2267	1	0.165	238488.0
634	2176	1	0.165	238488.0
634	2266	1	0.165	238488.0
635	2133	1	0.165	238488.0
635	2158	1	0.165	238488.0
636	2106	1	0.165	238488.0
636	2142	1	0.165	238488.0
637	2123	1	0.165	238488.0
637	2266	1	0.165	238488.0
638	2150	1	0.165	238488.0
638	2265	1	0.165	238488.0
639	2161	1	0.165	238488.0
639	2200	1	0.165	238488.0
640	2156	1	0.165	238488.0
640	2260	1	0.165	238488.0
641	2104	1	0.165	238488.0
641	2636	1	0.165	238488.0
642	2137	1	0.165	238488.0
642	2167	1	0.165	238488.0
643	2108	1	0.165	238488.0
643	2117	1	0.165	238488.0
644	2164	1	0.165	238488.0
644	2310	1	0.165	238488.0
645	2221	1	0.165	238488.0
645	2288	1	0.165	238488.0
646	2174	1	0.165	238488.0
646	2292	1	0.165	238488.0
647	2133	1	0.165	238488.0
647	2555	1	0.165	238488.0
648	2211	1	0.165	238488.0
648	2594	1	0.165	238488.0
649	1890	1	0.165	238488.0
649	2186	1	0.165	238488.0
650	2129	1	0.165	238488.0
650	2200	1	0.165	238488.0
651	2241	1	0.165	238488.0
651	2665	1	0.165	238488.0
652	2188	1	0.165	238488.0
652	2202	1	0.165	238488.0
653	2225	1	0.165	238488.0
653	2250	1	0.165	238488.0
654	2105	1	0.165	238488.0
654	2228	1	0.165	238488.0
655	1933	1	0.165	238488.0
655	2157	1	0.165	238488.0
656	2106	1	0.165	238488.0
656	2299	1	0.165	238488.0
657	2116	1	0.165	238488.0
657	2257	1	0.165	238488.0
658	2155	1	0.165	238488.0
658	2749	1	0.165	238488.0
659	1995	1	0.165	238488.0
659	2174	1	0.165	238488.0
660	2149	1	0.165	238488.0
660	2216	1	0.165	238488.0
661	2105	1	0.165	238488.0
661	2172	1	0.165	238488.0
662	2186	1	0.165	238488.0
662	2310	1	0.165	238488.0
663	2138	1	0.165	238488.0
663	2306	1	0.165	238488.0
664	2175	1	0.165	238488.0
664	2241	1	0.165	238488.0
665	2207	1	0.165	238488.0
665	2225	1	0.165	238488.0
666	2155	1	0.165	238488.0
666	2186	1	0.165	238488.0
667	1947	1	0.165	238488.0
667	2137	1	0.165	238488.0
668	2107	1	0.165	238488.0
668	2132	1	0.165	238488.0
669	2107	1	0.165	238488.0
669	2201	1	0.165	238488.0
670	2138	1	0.165	238488.0
670	2275	1	0.165	238488.0
671	2089	1	0.165	238488.0
671	2177	1	0.165	238488.0
672	2135	1	0.165	238488.0
672	2146	1	0.165	238488.0
673	2181	1	0.165	238488.0
673	2231	1	0.165	238488.0
674	1938	1	0.165	238488.0
674	2306	1	0.165	238488.0
675	2102	1	0.165	238488.0
675	2209	1	0.165	238488.0
676	2102	1	0.165	238488.0
676	2150	1	0.165	238488.0
677	2168	1	0.165	238488.0
677	2295	1	0.165	238488.0
678	2203	1	0.165	238488.0
678	2295	1	0.165	238488.0
679	2233	1	0.165	238488.0
679	2270	1	0.165	238488.0
680	2131	1	0.165	238488.0
680	2233	1	0.165	238488.0
681	2118	1	0.165	238488.0
681	2174	1	0.165	238488.0
682	2207	1	0.165	238488.0
682	2295	1	0.165	238488.0
683	2230	1	0.165	238488.0
683	2751	1	0.165	238488.0
684	2122	1	0.165	238488.0
684	2252	1	0.165	238488.0
685	2171	1	0.165	238488.0
685	2199	1	0.165	238488.0
686	2101	1	0.165	238488.0
686	2162	1	0.165	238488.0
687	2116	1	0.165	238488.0
687	2227	1	0.165	238488.0
688	2188	1	0.165	238488.0
688	2190	1	0.165	238488.0
689	2108	1	0.165	238488.0
689	2200	1	0.165	238488.0
690	2216	1	0.165	238488.0
690	2586	1	0.165	238488.0
691	2255	1	0.165	238488.0
691	2278	1	0.165	238488.0
692	2111	1	0.165	238488.0
692	2154	1	0.165	238488.0
693	2204	1	0.165	238488.0
693	2227	1	0.165	238488.0
694	2251	1	0.165	238488.0
694	2754	1	0.165	238488.0
695	2164	1	0.165	238488.0
695	2178	1	0.165	238488.0
696	2167	1	0.165	238488.0
696	2238	1	0.165	238488.0
697	2179	1	0.165	238488.0
697	2261	1	0.165	238488.0
698	2243	1	0.165	238488.0
698	2249	1	0.165	238488.0
699	2235	1	0.165	238488.0
699	2246	1	0.165	238488.0
700	2114	1	0.165	238488.0
700	2149	1	0.165	238488.0
701	2261	1	0.165	238488.0
701	2647	1	0.165	238488.0
702	2128	1	0.165	238488.0
702	2206	1	0.165	238488.0
703	2271	1	0.165	238488.0
703	2285	1	0.165	238488.0
704	2143	1	0.165	238488.0
704	2294	1	0.165	238488.0
705	2098	1	0.165	238488.0
705	2254	1	0.165	238488.0
706	2124	1	0.165	238488.0
706	2210	1	0.165	238488.0
707	2088	1	0.165	238488.0
707	2106	1	0.165	238488.0
708	2208	1	0.165	238488.0
708	2232	1	0.165	238488.0
709	2144	1	0.165	238488.0
709	2160	1	0.165	238488.0
710	2176	1	0.165	238488.0
710	2183	1	0.165	238488.0
711	2093	1	0.165	238488.0
711	2202	1	0.165	238488.0
712	2143	1	0.165	238488.0
712	2217	1	0.165	238488.0
713	2093	1	0.165	238488.0
713	2100	1	0.165	238488.0
714	2007	1	0.165	238488.0
714	2300	1	0.165	238488.0
715	2189	1	0.165	238488.0
715	2304	1	0.165	238488.0
716	2192	1	0.165	238488.0
716	2196	1	0.165	238488.0
717	2099	1	0.165	238488.0
717	2272	1	0.165	238488.0
718	2123	1	0.165	238488.0
718	2169	1	0.165	238488.0
719	2182	1	0.165	238488.0
719	2229	1	0.165	238488.0
720	2197	1	0.165	238488.0
720	2229	1	0.165	238488.0
721	2290	1	0.165	238488.0
721	2291	1	0.165	238488.0
722	2079	1	0.165	238488.0
722	2295	1	0.165	238488.0
723	2214	1	0.165	238488.0
723	2218	1	0.165	238488.0
724	2276	1	0.165	238488.0
724	2285	1	0.165	238488.0
725	2183	1	0.165	238488.0
725	2250	1	0.165	238488.0
726	2197	1	0.165	238488.0
726	2290	1	0.165	238488.0
727	2088	1	0.165	238488.0
727	2234	1	0.165	238488.0
728	2122	1	0.165	238488.0
728	2219	1	0.165	238488.0
729	2239	1	0.165	238488.0
729	2309	1	0.165	238488.0
730	2286	1	0.165	238488.0
730	2290	1	0.165	238488.0
731	2108	1	0.165	238488.0
731	2128	1	0.165	238488.0
732	2209	1	0.165	238488.0
732	2249	1	0.165	238488.0
733	2127	1	0.165	238488.0
733	2250	1	0.165	238488.0
734	2165	1	0.165	238488.0
734	2261	1	0.165	238488.0
735	2097	1	0.165	238488.0
735	2236	1	0.165	238488.0
736	2092	1	0.165	238488.0
736	2222	1	0.165	238488.0
737	2161	1	0.165	238488.0
737	2176	1	0.165	238488.0
738	2094	1	0.165	238488.0
738	2157	1	0.165	238488.0
739	2210	1	0.165	238488.0
739	2263	1	0.165	238488.0
740	2247	1	0.165	238488.0
740	2282	1	0.165	238488.0
741	2256	1	0.165	238488.0
741	2273	1	0.165	238488.0
742	2169	1	0.165	238488.0
742	2172	1	0.165	238488.0
743	2154	1	0.165	238488.0
743	2244	1	0.165	238488.0
744	2273	1	0.165	238488.0
744	2275	1	0.165	238488.0
745	2090	1	0.165	238488.0
745	2163	1	0.165	238488.0
746	2226	1	0.165	238488.0
746	2282	1	0.165	238488.0
747	2228	1	0.165	238488.0
747	2246	1	0.165	238488.0
748	2148	1	0.165	238488.0
748	2294	1	0.165	238488.0
749	2169	1	0.165	238488.0
749	2263	1	0.165	238488.0
750	2124	1	0.165	238488.0
750	2235	1	0.165	238488.0
751	2150	1	0.165	238488.0
751	2194	1	0.165	238488.0
752	2115	1	0.165	238488.0
752	2121	1	0.165	238488.0
753	2092	1	0.165	238488.0
753	2238	1	0.165	238488.0
754	2123	1	0.165	238488.0
754	2258	1	0.165	238488.0
755	2232	1	0.165	238488.0
755	2267	1	0.165	238488.0
756	2180	1	0.165	238488.0
756	2198	1	0.165	238488.0
757	2208	1	0.165	238488.0
757	2273	1	0.165	238488.0
758	2140	1	0.165	238488.0
758	2187	1	0.165	238488.0
759	2202	1	0.165	238488.0
759	2575	1	0.165	238488.0
760	2173	1	0.165	238488.0
760	2242	1	0.165	238488.0
761	2258	1	0.165	238488.0
761	2263	1	0.165	238488.0
762	1869	1	0.165	238488.0
762	2257	1	0.165	238488.0
763	2223	1	0.165	238488.0
763	2607	1	0.165	238488.0
764	2120	1	0.165	238488.0
764	2251	1	0.165	238488.0
765	2141	1	0.165	238488.0
765	2279	1	0.165	238488.0
766	2264	1	0.165	238488.0
766	2293	1	0.165	238488.0
767	2256	1	0.165	238488.0
767	2277	1	0.165	238488.0
768	2201	1	0.165	238488.0
768	2289	1	0.165	238488.0
769	2147	1	0.165	238488.0
769	2258	1	0.165	238488.0
770	2175	1	0.165	238488.0
770	2302	1	0.165	238488.0
771	2160	1	0.165	238488.0
771	2281	1	0.165	238488.0
772	2216	1	0.165	238488.0
772	2231	1	0.165	238488.0
773	2199	1	0.165	238488.0
773	2265	1	0.165	238488.0
774	2193	1	0.165	238488.0
774	2196	1	0.165	238488.0
775	2097	1	0.165	238488.0
775	2290	1	0.165	238488.0
776	2089	1	0.165	238488.0
776	2277	1	0.165	238488.0
777	2213	1	0.165	238488.0
777	2302	1	0.165	238488.0
778	2237	1	0.165	238488.0
778	2278	1	0.165	238488.0
779	2145	1	0.165	238488.0
779	2152	1	0.165	238488.0
780	2203	1	0.165	238488.0
780	2216	1	0.165	238488.0
781	2180	1	0.165	238488.0
781	2183	1	0.165	238488.0
782	2248	1	0.165	238488.0
782	2275	1	0.165	238488.0
783	2246	1	0.165	238488.0
783	2287	1	0.165	238488.0
784	2280	1	0.165	238488.0
784	2285	1	0.165	238488.0
785	2206	1	0.165	238488.0
785	2268	1	0.165	238488.0
786	2238	1	0.165	238488.0
786	2249	1	0.165	238488.0
787	2195	1	0.165	238488.0
787	2231	1	0.165	238488.0
788	2275	1	0.165	238488.0
788	2293	1	0.165	238488.0
789	2033	1	0.165	238488.0
789	2167	1	0.165	238488.0
790	2247	1	0.165	238488.0
790	2285	1	0.165	238488.0
791	2096	1	0.165	238488.0
791	2253	1	0.165	238488.0
792	2119	1	0.165	238488.0
792	2260	1	0.165	238488.0
793	2229	1	0.165	238488.0
793	2236	1	0.165	238488.0
794	2220	1	0.165	238488.0
794	2281	1	0.165	238488.0
795	2173	1	0.165	238488.0
795	2298	1	0.165	238488.0
796	2170	1	0.165	238488.0
796	2298	1	0.165	238488.0
797	2109	1	0.165	238488.0
797	2144	1	0.165	238488.0
798	2242	1	0.165	238488.0
798	2291	1	0.165	238488.0
799	2156	1	0.165	238488.0
799	2294	1	0.165	238488.0
800	2201	1	0.165	238488.0
800	2270	1	0.165	238488.0
801	2203	1	0.165	238488.0
801	2205	1	0.165	238488.0
802	1995	1	0.165	238488.0
802	2274	1	0.165	238488.0
803	2138	1	0.165	238488.0
803	2240	1	0.165	238488.0
804	2136	1	0.165	238488.0
804	2280	1	0.165	238488.0
805	2118	1	0.165	238488.0
805	2221	1	0.165	238488.0
806	2098	1	0.165	238488.0
806	2101	1	0.165	238488.0
807	2170	1	0.165	238488.0
807	2287	1	0.165	238488.0
808	2103	1	0.165	238488.0
808	2254	1	0.165	238488.0
809	2270	1	0.165	238488.0
809	2297	1	0.165	238488.0
810	2142	1	0.165	238488.0
810	2280	1	0.165	238488.0
811	2185	1	0.165	238488.0
811	2271	1	0.165	238488.0
812	2116	1	0.165	238488.0
812	2154	1	0.165	238488.0
813	2103	1	0.165	238488.0
813	2286	1	0.165	238488.0
814	2178	1	0.165	238488.0
814	2301	1	0.165	238488.0
815	2183	1	0.165	238488.0
815	2185	1	0.165	238488.0
816	2139	1	0.165	238488.0
816	2236	1	0.165	238488.0
817	1960	1	0.165	238488.0
817	2217	1	0.165	238488.0
818	2191	1	0.165	238488.0
818	2276	1	0.165	238488.0
819	2123	1	0.165	238488.0
819	2198	1	0.165	238488.0
820	2139	1	0.165	238488.0
820	2227	1	0.165	238488.0
821	2158	1	0.165	238488.0
821	2754	1	0.165	238488.0
822	2208	1	0.165	238488.0
822	2268	1	0.165	238488.0
823	2162	1	0.165	238488.0
823	2656	1	0.165	238488.0
824	2252	1	0.165	238488.0
824	2262	1	0.165	238488.0
825	2136	1	0.165	238488.0
825	2278	1	0.165	238488.0
826	2090	1	0.165	238488.0
826	2226	1	0.165	238488.0
827	2215	1	0.165	238488.0
827	2228	1	0.165	238488.0
828	2110	1	0.165	238488.0
828	2304	1	0.165	238488.0
829	2136	1	0.165	238488.0
829	2304	1	0.165	238488.0
830	2124	1	0.165	238488.0
830	2305	1	0.165	238488.0
831	2098	1	0.165	238488.0
831	2212	1	0.165	238488.0
832	2259	1	0.165	238488.0
832	2305	1	0.165	238488.0
833	2121	1	0.165	238488.0
833	2264	1	0.165	238488.0
834	2274	1	0.165	238488.0
834	2287	1	0.165	238488.0
835	2210	1	0.165	238488.0
835	2305	1	0.165	238488.0
836	2303	1	0.165	238488.0
836	2307	1	0.165	238488.0
837	2303	1	0.165	238488.0
837	2309	1	0.165	238488.0
838	2303	1	0.165	238488.0
838	2308	1	0.165	238488.0
839	2310	1	0.165	238488.0
839	2760	1	0.165	238488.0
840	2307	1	0.165	238488.0
840	2308	1	0.165	238488.0
841	2179	1	0.165	238488.0
841	2308	1	0.165	238488.0
842	2457	1	0.165	238488.0
842	2499	1	0.165	238488.0
843	2319	1	0.165	238488.0
843	2321	1	0.165	238488.0
844	2347	1	0.165	238488.0
844	2369	1	0.165	238488.0
845	2417	1	0.165	238488.0
845	2463	1	0.165	238488.0
846	2431	1	0.165	238488.0
846	2453	1	0.165	238488.0
847	2409	1	0.165	238488.0
847	2596	1	0.165	238488.0
848	2385	1	0.165	238488.0
848	2429	1	0.165	238488.0
849	2318	1	0.165	238488.0
849	2506	1	0.165	238488.0
850	2362	1	0.165	238488.0
850	2431	1	0.165	238488.0
851	2374	1	0.165	238488.0
851	2482	1	0.165	238488.0
852	2494	1	0.165	238488.0
852	2508	1	0.165	238488.0
853	2467	1	0.165	238488.0
853	2512	1	0.165	238488.0
854	1945	1	0.165	238488.0
854	2316	1	0.165	238488.0
855	2387	1	0.165	238488.0
855	2594	1	0.165	238488.0
856	2331	1	0.165	238488.0
856	2515	1	0.165	238488.0
857	2317	1	0.165	238488.0
857	2477	1	0.165	238488.0
858	2373	1	0.165	238488.0
858	2444	1	0.165	238488.0
859	2342	1	0.165	238488.0
859	2519	1	0.165	238488.0
860	2386	1	0.165	238488.0
860	2408	1	0.165	238488.0
861	2348	1	0.165	238488.0
861	2404	1	0.165	238488.0
862	1936	1	0.165	238488.0
862	2522	1	0.165	238488.0
863	2322	1	0.165	238488.0
863	2408	1	0.165	238488.0
864	2324	1	0.165	238488.0
864	2395	1	0.165	238488.0
865	2325	1	0.165	238488.0
865	2369	1	0.165	238488.0
866	2402	1	0.165	238488.0
866	2511	1	0.165	238488.0
867	2325	1	0.165	238488.0
867	2348	1	0.165	238488.0
868	2508	1	0.165	238488.0
868	2517	1	0.165	238488.0
869	1920	1	0.165	238488.0
869	2450	1	0.165	238488.0
870	2339	1	0.165	238488.0
870	2438	1	0.165	238488.0
871	2348	1	0.165	238488.0
871	2465	1	0.165	238488.0
872	2062	1	0.165	238488.0
872	2373	1	0.165	238488.0
873	2401	1	0.165	238488.0
873	2434	1	0.165	238488.0
874	2373	1	0.165	238488.0
874	2404	1	0.165	238488.0
875	2355	1	0.165	238488.0
875	2480	1	0.165	238488.0
876	2501	1	0.165	238488.0
876	2611	1	0.165	238488.0
877	2336	1	0.165	238488.0
877	2724	1	0.165	238488.0
878	2324	1	0.165	238488.0
878	2356	1	0.165	238488.0
879	2490	1	0.165	238488.0
879	2518	1	0.165	238488.0
880	2312	1	0.165	238488.0
880	2338	1	0.165	238488.0
881	1914	1	0.165	238488.0
881	2439	1	0.165	238488.0
882	2405	1	0.165	238488.0
882	2445	1	0.165	238488.0
883	2463	1	0.165	238488.0
883	2521	1	0.165	238488.0
884	2360	1	0.165	238488.0
884	2376	1	0.165	238488.0
885	2341	1	0.165	238488.0
885	2465	1	0.165	238488.0
886	2476	1	0.165	238488.0
886	2520	1	0.165	238488.0
887	1944	1	0.165	238488.0
887	2084	1	0.165	238488.0
888	2460	1	0.165	238488.0
888	2468	1	0.165	238488.0
889	1871	1	0.165	238488.0
889	2352	1	0.165	238488.0
890	2349	1	0.165	238488.0
890	2423	1	0.165	238488.0
891	2337	1	0.165	238488.0
891	2446	1	0.165	238488.0
892	2405	1	0.165	238488.0
892	2438	1	0.165	238488.0
893	2427	1	0.165	238488.0
893	2519	1	0.165	238488.0
894	2484	1	0.165	238488.0
894	2489	1	0.165	238488.0
895	2363	1	0.165	238488.0
895	2500	1	0.165	238488.0
896	2339	1	0.165	238488.0
896	2450	1	0.165	238488.0
897	2329	1	0.165	238488.0
897	2492	1	0.165	238488.0
898	2394	1	0.165	238488.0
898	2511	1	0.165	238488.0
899	2337	1	0.165	238488.0
899	2497	1	0.165	238488.0
900	2331	1	0.165	238488.0
900	2392	1	0.165	238488.0
901	2349	1	0.165	238488.0
901	2478	1	0.165	238488.0
902	2351	1	0.165	238488.0
902	2401	1	0.165	238488.0
903	1977	1	0.165	238488.0
903	2472	1	0.165	238488.0
904	2352	1	0.165	238488.0
904	2487	1	0.165	238488.0
905	2384	1	0.165	238488.0
905	2407	1	0.165	238488.0
906	2424	1	0.165	238488.0
906	2439	1	0.165	238488.0
907	2347	1	0.165	238488.0
907	2482	1	0.165	238488.0
908	2314	1	0.165	238488.0
908	2357	1	0.165	238488.0
909	2326	1	0.165	238488.0
909	2374	1	0.165	238488.0
910	2413	1	0.165	238488.0
910	2480	1	0.165	238488.0
911	2347	1	0.165	238488.0
911	2377	1	0.165	238488.0
912	2354	1	0.165	238488.0
912	2411	1	0.165	238488.0
913	2476	1	0.165	238488.0
913	2491	1	0.165	238488.0
914	2326	1	0.165	238488.0
914	2329	1	0.165	238488.0
915	2393	1	0.165	238488.0
915	2414	1	0.165	238488.0
916	2496	1	0.165	238488.0
916	2518	1	0.165	238488.0
917	2387	1	0.165	238488.0
917	2395	1	0.165	238488.0
918	2314	1	0.165	238488.0
918	2518	1	0.165	238488.0
919	2366	1	0.165	238488.0
919	2430	1	0.165	238488.0
920	2341	1	0.165	238488.0
920	2513	1	0.165	238488.0
921	2382	1	0.165	238488.0
921	2429	1	0.165	238488.0
922	2393	1	0.165	238488.0
922	2466	1	0.165	238488.0
923	2421	1	0.165	238488.0
923	2496	1	0.165	238488.0
924	2418	1	0.165	238488.0
924	2509	1	0.165	238488.0
925	2326	1	0.165	238488.0
925	2357	1	0.165	238488.0
926	2328	1	0.165	238488.0
926	2363	1	0.165	238488.0
927	2335	1	0.165	238488.0
927	2368	1	0.165	238488.0
928	2352	1	0.165	238488.0
928	2409	1	0.165	238488.0
929	2434	1	0.165	238488.0
929	2450	1	0.165	238488.0
930	2438	1	0.165	238488.0
930	2498	1	0.165	238488.0
931	2316	1	0.165	238488.0
931	2361	1	0.165	238488.0
932	2462	1	0.165	238488.0
932	2506	1	0.165	238488.0
933	2317	1	0.165	238488.0
933	2459	1	0.165	238488.0
934	2318	1	0.165	238488.0
934	2414	1	0.165	238488.0
935	2062	1	0.165	238488.0
935	2439	1	0.165	238488.0
936	1965	1	0.165	238488.0
936	2352	1	0.165	238488.0
937	2384	1	0.165	238488.0
937	2454	1	0.165	238488.0
938	2397	1	0.165	238488.0
938	2464	1	0.165	238488.0
939	2418	1	0.165	238488.0
939	2492	1	0.165	238488.0
940	2351	1	0.165	238488.0
940	2415	1	0.165	238488.0
941	2334	1	0.165	238488.0
941	2364	1	0.165	238488.0
942	2365	1	0.165	238488.0
942	2479	1	0.165	238488.0
943	1974	1	0.165	238488.0
943	2366	1	0.165	238488.0
944	2392	1	0.165	238488.0
944	2485	1	0.165	238488.0
945	2432	1	0.165	238488.0
945	2465	1	0.165	238488.0
946	2346	1	0.165	238488.0
946	2370	1	0.165	238488.0
947	2442	1	0.165	238488.0
947	2525	1	0.165	238488.0
948	2340	1	0.165	238488.0
948	2383	1	0.165	238488.0
949	2455	1	0.165	238488.0
949	2462	1	0.165	238488.0
950	2381	1	0.165	238488.0
950	2440	1	0.165	238488.0
951	2348	1	0.165	238488.0
951	2492	1	0.165	238488.0
952	2398	1	0.165	238488.0
952	2493	1	0.165	238488.0
953	2422	1	0.165	238488.0
953	2424	1	0.165	238488.0
954	2369	1	0.165	238488.0
954	2370	1	0.165	238488.0
955	2339	1	0.165	238488.0
955	2401	1	0.165	238488.0
956	2334	1	0.165	238488.0
956	2454	1	0.165	238488.0
957	2344	1	0.165	238488.0
957	2368	1	0.165	238488.0
958	2406	1	0.165	238488.0
958	2442	1	0.165	238488.0
959	2353	1	0.165	238488.0
959	2374	1	0.165	238488.0
960	2375	1	0.165	238488.0
960	2389	1	0.165	238488.0
961	2356	1	0.165	238488.0
961	2391	1	0.165	238488.0
962	2389	1	0.165	238488.0
962	2434	1	0.165	238488.0
963	2479	1	0.165	238488.0
963	2501	1	0.165	238488.0
964	2342	1	0.165	238488.0
964	2349	1	0.165	238488.0
965	2009	1	0.165	238488.0
965	2431	1	0.165	238488.0
966	2331	1	0.165	238488.0
966	2483	1	0.165	238488.0
967	2453	1	0.165	238488.0
967	2580	1	0.165	238488.0
968	2353	1	0.165	238488.0
968	2379	1	0.165	238488.0
969	2336	1	0.165	238488.0
969	2440	1	0.165	238488.0
970	2354	1	0.165	238488.0
970	2397	1	0.165	238488.0
971	1908	1	0.165	238488.0
971	2446	1	0.165	238488.0
972	1942	1	0.165	238488.0
972	2409	1	0.165	238488.0
973	2412	1	0.165	238488.0
973	2432	1	0.165	238488.0
974	2435	1	0.165	238488.0
974	2503	1	0.165	238488.0
975	2402	1	0.165	238488.0
975	2517	1	0.165	238488.0
976	2413	1	0.165	238488.0
976	2465	1	0.165	238488.0
977	2315	1	0.165	238488.0
977	2398	1	0.165	238488.0
978	2334	1	0.165	238488.0
978	2380	1	0.165	238488.0
979	2460	1	0.165	238488.0
979	2497	1	0.165	238488.0
980	2364	1	0.165	238488.0
980	2502	1	0.165	238488.0
981	1888	1	0.165	238488.0
981	2357	1	0.165	238488.0
982	2322	1	0.165	238488.0
982	2751	1	0.165	238488.0
983	2433	1	0.165	238488.0
983	2590	1	0.165	238488.0
984	2464	1	0.165	238488.0
984	2473	1	0.165	238488.0
985	2414	1	0.165	238488.0
985	2463	1	0.165	238488.0
986	2085	1	0.165	238488.0
986	2488	1	0.165	238488.0
987	2404	1	0.165	238488.0
987	2472	1	0.165	238488.0
988	2417	1	0.165	238488.0
988	2464	1	0.165	238488.0
989	2419	1	0.165	238488.0
989	2504	1	0.165	238488.0
990	2433	1	0.165	238488.0
990	2461	1	0.165	238488.0
991	2343	1	0.165	238488.0
991	2502	1	0.165	238488.0
992	2315	1	0.165	238488.0
992	2333	1	0.165	238488.0
993	2443	1	0.165	238488.0
993	2444	1	0.165	238488.0
994	2427	1	0.165	238488.0
994	2457	1	0.165	238488.0
995	2323	1	0.165	238488.0
995	2373	1	0.165	238488.0
996	2363	1	0.165	238488.0
996	2380	1	0.165	238488.0
997	2321	1	0.165	238488.0
997	2404	1	0.165	238488.0
998	1974	1	0.165	238488.0
998	2515	1	0.165	238488.0
999	2359	1	0.165	238488.0
999	2469	1	0.165	238488.0
1000	2319	1	0.165	238488.0
1000	2447	1	0.165	238488.0
1001	2372	1	0.165	238488.0
1001	2504	1	0.165	238488.0
1002	2390	1	0.165	238488.0
1002	2455	1	0.165	238488.0
1003	2485	1	0.165	238488.0
1003	2486	1	0.165	238488.0
1004	2473	1	0.165	238488.0
1004	2520	1	0.165	238488.0
1005	2425	1	0.165	238488.0
1005	2470	1	0.165	238488.0
1006	2382	1	0.165	238488.0
1006	2520	1	0.165	238488.0
1007	2353	1	0.165	238488.0
1007	2471	1	0.165	238488.0
1008	2377	1	0.165	238488.0
1008	2471	1	0.165	238488.0
1009	2425	1	0.165	238488.0
1009	2486	1	0.165	238488.0
1010	2314	1	0.165	238488.0
1010	2407	1	0.165	238488.0
1011	2335	1	0.165	238488.0
1011	2399	1	0.165	238488.0
1012	2399	1	0.165	238488.0
1012	2410	1	0.165	238488.0
1013	2351	1	0.165	238488.0
1013	2425	1	0.165	238488.0
1014	2321	1	0.165	238488.0
1014	2344	1	0.165	238488.0
1015	2317	1	0.165	238488.0
1015	2468	1	0.165	238488.0
1016	2359	1	0.165	238488.0
1016	2378	1	0.165	238488.0
1017	2499	1	0.165	238488.0
1017	2516	1	0.165	238488.0
1018	2411	1	0.165	238488.0
1018	2467	1	0.165	238488.0
1019	1970	1	0.165	238488.0
1019	2327	1	0.165	238488.0
1020	2459	1	0.165	238488.0
1020	2675	1	0.165	238488.0
1021	2385	1	0.165	238488.0
1021	2388	1	0.165	238488.0
1022	2397	1	0.165	238488.0
1022	2424	1	0.165	238488.0
1023	2445	1	0.165	238488.0
1023	2516	1	0.165	238488.0
1024	2354	1	0.165	238488.0
1024	2400	1	0.165	238488.0
1025	2410	1	0.165	238488.0
1025	2460	1	0.165	238488.0
1026	2441	1	0.165	238488.0
1026	2474	1	0.165	238488.0
1027	2314	1	0.165	238488.0
1027	2362	1	0.165	238488.0
1028	2332	1	0.165	238488.0
1028	2475	1	0.165	238488.0
1029	2335	1	0.165	238488.0
1029	2411	1	0.165	238488.0
1030	2333	1	0.165	238488.0
1030	2477	1	0.165	238488.0
1031	2448	1	0.165	238488.0
1031	2461	1	0.165	238488.0
1032	2312	1	0.165	238488.0
1032	2335	1	0.165	238488.0
1033	2342	1	0.165	238488.0
1033	2509	1	0.165	238488.0
1034	2415	1	0.165	238488.0
1034	2515	1	0.165	238488.0
1035	2400	1	0.165	238488.0
1035	2473	1	0.165	238488.0
1036	2355	1	0.165	238488.0
1036	2367	1	0.165	238488.0
1037	2507	1	0.165	238488.0
1037	2508	1	0.165	238488.0
1038	2489	1	0.165	238488.0
1038	2491	1	0.165	238488.0
1039	2452	1	0.165	238488.0
1039	2489	1	0.165	238488.0
1040	2358	1	0.165	238488.0
1040	2489	1	0.165	238488.0
1041	2391	1	0.165	238488.0
1041	2420	1	0.165	238488.0
1042	2337	1	0.165	238488.0
1042	2410	1	0.165	238488.0
1043	2456	1	0.165	238488.0
1043	2758	1	0.165	238488.0
1044	2347	1	0.165	238488.0
1044	2509	1	0.165	238488.0
1045	1925	1	0.165	238488.0
1045	2515	1	0.165	238488.0
1046	1949	1	0.165	238488.0
1046	2368	1	0.165	238488.0
1047	2413	1	0.165	238488.0
1047	2482	1	0.165	238488.0
1048	2318	1	0.165	238488.0
1048	2396	1	0.165	238488.0
1049	2516	1	0.165	238488.0
1049	2519	1	0.165	238488.0
1050	2350	1	0.165	238488.0
1050	2487	1	0.165	238488.0
1051	2396	1	0.165	238488.0
1051	2486	1	0.165	238488.0
1052	2355	1	0.165	238488.0
1052	2379	1	0.165	238488.0
1053	2328	1	0.165	238488.0
1053	2364	1	0.165	238488.0
1054	2345	1	0.165	238488.0
1054	2486	1	0.165	238488.0
1055	2372	1	0.165	238488.0
1055	2485	1	0.165	238488.0
1056	2382	1	0.165	238488.0
1056	2420	1	0.165	238488.0
1057	2377	1	0.165	238488.0
1057	2480	1	0.165	238488.0
1058	1973	1	0.165	238488.0
1058	2326	1	0.165	238488.0
1059	2359	1	0.165	238488.0
1059	2388	1	0.165	238488.0
1060	2330	1	0.165	238488.0
1060	2339	1	0.165	238488.0
1061	2385	1	0.165	238488.0
1061	2528	1	0.165	238488.0
1062	2441	1	0.165	238488.0
1062	2508	1	0.165	238488.0
1063	2394	1	0.165	238488.0
1063	2758	1	0.165	238488.0
1064	1894	1	0.165	238488.0
1064	2355	1	0.165	238488.0
1065	1933	1	0.165	238488.0
1065	2431	1	0.165	238488.0
1066	2406	1	0.165	238488.0
1066	2551	1	0.165	238488.0
1067	2351	1	0.165	238488.0
1067	2420	1	0.165	238488.0
1068	2002	1	0.165	238488.0
1068	2461	1	0.165	238488.0
1069	2408	1	0.165	238488.0
1069	2422	1	0.165	238488.0
1070	2445	1	0.165	238488.0
1070	2470	1	0.165	238488.0
1071	2327	1	0.165	238488.0
1071	2448	1	0.165	238488.0
1072	2378	1	0.165	238488.0
1072	2594	1	0.165	238488.0
1073	2328	1	0.165	238488.0
1073	2518	1	0.165	238488.0
1074	2338	1	0.165	238488.0
1074	2477	1	0.165	238488.0
1075	2086	1	0.165	238488.0
1075	2756	1	0.165	238488.0
1076	2394	1	0.165	238488.0
1076	2658	1	0.165	238488.0
1077	2371	1	0.165	238488.0
1077	2436	1	0.165	238488.0
1078	2327	1	0.165	238488.0
1078	2392	1	0.165	238488.0
1079	2406	1	0.165	238488.0
1079	2528	1	0.165	238488.0
1080	2360	1	0.165	238488.0
1080	2525	1	0.165	238488.0
1081	2395	1	0.165	238488.0
1081	2461	1	0.165	238488.0
1082	2427	1	0.165	238488.0
1082	2445	1	0.165	238488.0
1083	2406	1	0.165	238488.0
1083	2756	1	0.165	238488.0
1084	2002	1	0.165	238488.0
1084	2435	1	0.165	238488.0
1085	2359	1	0.165	238488.0
1085	2609	1	0.165	238488.0
1086	2329	1	0.165	238488.0
1086	2354	1	0.165	238488.0
1087	2329	1	0.165	238488.0
1087	2421	1	0.165	238488.0
1088	2360	1	0.165	238488.0
1088	2495	1	0.165	238488.0
1089	2312	1	0.165	238488.0
1089	2397	1	0.165	238488.0
1090	2357	1	0.165	238488.0
1090	2368	1	0.165	238488.0
1091	2401	1	0.165	238488.0
1091	2451	1	0.165	238488.0
1092	2525	1	0.165	238488.0
1092	2600	1	0.165	238488.0
1093	2324	1	0.165	238488.0
1093	2429	1	0.165	238488.0
1094	2324	1	0.165	238488.0
1094	2372	1	0.165	238488.0
1095	2389	1	0.165	238488.0
1095	2514	1	0.165	238488.0
1096	2423	1	0.165	238488.0
1096	2514	1	0.165	238488.0
1097	2453	1	0.165	238488.0
1097	2490	1	0.165	238488.0
1098	2353	1	0.165	238488.0
1098	2453	1	0.165	238488.0
1099	2340	1	0.165	238488.0
1099	2394	1	0.165	238488.0
1100	2427	1	0.165	238488.0
1100	2514	1	0.165	238488.0
1101	2450	1	0.165	238488.0
1101	2535	1	0.165	238488.0
1102	2344	1	0.165	238488.0
1102	2472	1	0.165	238488.0
1103	2391	1	0.165	238488.0
1103	2419	1	0.165	238488.0
1104	2323	1	0.165	238488.0
1104	2383	1	0.165	238488.0
1105	2338	1	0.165	238488.0
1105	2447	1	0.165	238488.0
1106	2408	1	0.165	238488.0
1106	2410	1	0.165	238488.0
1107	2330	1	0.165	238488.0
1107	2420	1	0.165	238488.0
1108	1925	1	0.165	238488.0
1108	2436	1	0.165	238488.0
1109	2475	1	0.165	238488.0
1109	2498	1	0.165	238488.0
1110	2333	1	0.165	238488.0
1110	2376	1	0.165	238488.0
1111	2424	1	0.165	238488.0
1111	2447	1	0.165	238488.0
1112	2471	1	0.165	238488.0
1112	2733	1	0.165	238488.0
1113	2385	1	0.165	238488.0
1113	2398	1	0.165	238488.0
1114	2388	1	0.165	238488.0
1114	2458	1	0.165	238488.0
1115	2399	1	0.165	238488.0
1115	2481	1	0.165	238488.0
1116	2463	1	0.165	238488.0
1116	2469	1	0.165	238488.0
1117	2455	1	0.165	238488.0
1117	2466	1	0.165	238488.0
1118	2336	1	0.165	238488.0
1118	2371	1	0.165	238488.0
1119	1984	1	0.165	238488.0
1119	2481	1	0.165	238488.0
1120	2350	1	0.165	238488.0
1120	2426	1	0.165	238488.0
1121	2491	1	0.165	238488.0
1121	2505	1	0.165	238488.0
1122	2365	1	0.165	238488.0
1122	2513	1	0.165	238488.0
1123	2320	1	0.165	238488.0
1123	2474	1	0.165	238488.0
1124	2311	1	0.165	238488.0
1124	2328	1	0.165	238488.0
1125	2428	1	0.165	238488.0
1125	2452	1	0.165	238488.0
1126	2366	1	0.165	238488.0
1126	2381	1	0.165	238488.0
1127	2396	1	0.165	238488.0
1127	2403	1	0.165	238488.0
1128	2316	1	0.165	238488.0
1128	2422	1	0.165	238488.0
1129	2365	1	0.165	238488.0
1129	2437	1	0.165	238488.0
1130	2316	1	0.165	238488.0
1130	2322	1	0.165	238488.0
1131	2519	1	0.165	238488.0
1131	2670	1	0.165	238488.0
1132	2409	1	0.165	238488.0
1132	2523	1	0.165	238488.0
1133	2412	1	0.165	238488.0
1133	2416	1	0.165	238488.0
1134	2321	1	0.165	238488.0
1134	2492	1	0.165	238488.0
1135	2345	1	0.165	238488.0
1135	2390	1	0.165	238488.0
1136	2402	1	0.165	238488.0
1136	2449	1	0.165	238488.0
1137	2417	1	0.165	238488.0
1137	2449	1	0.165	238488.0
1138	2510	1	0.165	238488.0
1138	2511	1	0.165	238488.0
1139	2514	1	0.165	238488.0
1139	2743	1	0.165	238488.0
1140	2434	1	0.165	238488.0
1140	2438	1	0.165	238488.0
1141	2496	1	0.165	238488.0
1141	2505	1	0.165	238488.0
1142	2403	1	0.165	238488.0
1142	2470	1	0.165	238488.0
1143	2417	1	0.165	238488.0
1143	2510	1	0.165	238488.0
1144	2311	1	0.165	238488.0
1144	2454	1	0.165	238488.0
1145	2344	1	0.165	238488.0
1145	2439	1	0.165	238488.0
1146	2459	1	0.165	238488.0
1146	2527	1	0.165	238488.0
1147	2506	1	0.165	238488.0
1147	2510	1	0.165	238488.0
1148	2330	1	0.165	238488.0
1148	2350	1	0.165	238488.0
1149	2429	1	0.165	238488.0
1149	2469	1	0.165	238488.0
1150	2349	1	0.165	238488.0
1150	2470	1	0.165	238488.0
1151	2386	1	0.165	238488.0
1151	2481	1	0.165	238488.0
1152	2319	1	0.165	238488.0
1152	2456	1	0.165	238488.0
1153	2315	1	0.165	238488.0
1153	2442	1	0.165	238488.0
1154	2382	1	0.165	238488.0
1154	2396	1	0.165	238488.0
1155	2378	1	0.165	238488.0
1155	2755	1	0.165	238488.0
1156	2430	1	0.165	238488.0
1156	2483	1	0.165	238488.0
1157	2467	1	0.165	238488.0
1157	2502	1	0.165	238488.0
1158	2476	1	0.165	238488.0
1158	2493	1	0.165	238488.0
1159	2390	1	0.165	238488.0
1159	2392	1	0.165	238488.0
1160	2376	1	0.165	238488.0
1160	2464	1	0.165	238488.0
1161	2493	1	0.165	238488.0
1161	2495	1	0.165	238488.0
1162	2313	1	0.165	238488.0
1162	2384	1	0.165	238488.0
1163	2446	1	0.165	238488.0
1163	2502	1	0.165	238488.0
1164	2448	1	0.165	238488.0
1164	2466	1	0.165	238488.0
1165	2370	1	0.165	238488.0
1165	2513	1	0.165	238488.0
1166	2390	1	0.165	238488.0
1166	2483	1	0.165	238488.0
1167	2346	1	0.165	238488.0
1167	2455	1	0.165	238488.0
1168	2372	1	0.165	238488.0
1168	2414	1	0.165	238488.0
1169	2337	1	0.165	238488.0
1169	2343	1	0.165	238488.0
1170	2315	1	0.165	238488.0
1170	2458	1	0.165	238488.0
1171	2345	1	0.165	238488.0
1171	2478	1	0.165	238488.0
1172	2452	1	0.165	238488.0
1172	2487	1	0.165	238488.0
1173	2400	1	0.165	238488.0
1173	2418	1	0.165	238488.0
1174	2428	1	0.165	238488.0
1174	2493	1	0.165	238488.0
1175	2362	1	0.165	238488.0
1175	2407	1	0.165	238488.0
1176	1914	1	0.165	238488.0
1176	2422	1	0.165	238488.0
1177	2393	1	0.165	238488.0
1177	2462	1	0.165	238488.0
1178	2478	1	0.165	238488.0
1178	2483	1	0.165	238488.0
1179	2477	1	0.165	238488.0
1179	2529	1	0.165	238488.0
1180	1945	1	0.165	238488.0
1180	2443	1	0.165	238488.0
1181	2342	1	0.165	238488.0
1181	2471	1	0.165	238488.0
1182	2363	1	0.165	238488.0
1182	2499	1	0.165	238488.0
1183	2484	1	0.165	238488.0
1183	2512	1	0.165	238488.0
1184	2476	1	0.165	238488.0
1184	2497	1	0.165	238488.0
1185	2421	1	0.165	238488.0
1185	2509	1	0.165	238488.0
1186	2369	1	0.165	238488.0
1186	2478	1	0.165	238488.0
1187	2395	1	0.165	238488.0
1187	2521	1	0.165	238488.0
1188	2381	1	0.165	238488.0
1188	2501	1	0.165	238488.0
1189	2436	1	0.165	238488.0
1189	2451	1	0.165	238488.0
1190	2419	1	0.165	238488.0
1190	2485	1	0.165	238488.0
1191	2413	1	0.165	238488.0
1191	2416	1	0.165	238488.0
1192	2319	1	0.165	238488.0
1192	2510	1	0.165	238488.0
1193	2312	1	0.165	238488.0
1193	2497	1	0.165	238488.0
1194	2433	1	0.165	238488.0
1194	2521	1	0.165	238488.0
1195	2457	1	0.165	238488.0
1195	2498	1	0.165	238488.0
1196	2367	1	0.165	238488.0
1196	2374	1	0.165	238488.0
1197	2423	1	0.165	238488.0
1197	2436	1	0.165	238488.0
1198	2400	1	0.165	238488.0
1198	2403	1	0.165	238488.0
1199	2468	1	0.165	238488.0
1199	2495	1	0.165	238488.0
1200	2466	1	0.165	238488.0
1200	2507	1	0.165	238488.0
1201	2500	1	0.165	238488.0
1201	2505	1	0.165	238488.0
1202	2426	1	0.165	238488.0
1202	2488	1	0.165	238488.0
1203	2458	1	0.165	238488.0
1203	2469	1	0.165	238488.0
1204	2415	1	0.165	238488.0
1204	2451	1	0.165	238488.0
1205	2495	1	0.165	238488.0
1205	2512	1	0.165	238488.0
1206	2388	1	0.165	238488.0
1206	2696	1	0.165	238488.0
1207	2467	1	0.165	238488.0
1207	2505	1	0.165	238488.0
1208	2318	1	0.165	238488.0
1208	2473	1	0.165	238488.0
1209	2341	1	0.165	238488.0
1209	2480	1	0.165	238488.0
1210	2449	1	0.165	238488.0
1210	2456	1	0.165	238488.0
1211	2440	1	0.165	238488.0
1211	2501	1	0.165	238488.0
1212	2393	1	0.165	238488.0
1212	2517	1	0.165	238488.0
1213	2517	1	0.165	238488.0
1213	2757	1	0.165	238488.0
1214	2331	1	0.165	238488.0
1214	2366	1	0.165	238488.0
1215	2462	1	0.165	238488.0
1215	2511	1	0.165	238488.0
1216	2377	1	0.165	238488.0
1216	2513	1	0.165	238488.0
1217	2421	1	0.165	238488.0
1217	2490	1	0.165	238488.0
1218	2423	1	0.165	238488.0
1218	2425	1	0.165	238488.0
1219	2494	1	0.165	238488.0
1219	2658	1	0.165	238488.0
1220	2360	1	0.165	238488.0
1220	2460	1	0.165	238488.0
1221	2358	1	0.165	238488.0
1221	2500	1	0.165	238488.0
1222	2320	1	0.165	238488.0
1222	2323	1	0.165	238488.0
1223	2507	1	0.165	238488.0
1223	2757	1	0.165	238488.0
1224	2325	1	0.165	238488.0
1224	2474	1	0.165	238488.0
1225	2490	1	0.165	238488.0
1225	2516	1	0.165	238488.0
1226	2364	1	0.165	238488.0
1226	2500	1	0.165	238488.0
1227	2405	1	0.165	238488.0
1227	2491	1	0.165	238488.0
1228	2338	1	0.165	238488.0
1228	2376	1	0.165	238488.0
1229	2325	1	0.165	238488.0
1229	2506	1	0.165	238488.0
1230	2398	1	0.165	238488.0
1230	2520	1	0.165	238488.0
1231	2403	1	0.165	238488.0
1231	2405	1	0.165	238488.0
1232	2361	1	0.165	238488.0
1232	2456	1	0.165	238488.0
1233	2437	1	0.165	238488.0
1233	2623	1	0.165	238488.0
1234	2411	1	0.165	238488.0
1234	2496	1	0.165	238488.0
1235	2345	1	0.165	238488.0
1235	2418	1	0.165	238488.0
1236	2361	1	0.165	238488.0
1236	2447	1	0.165	238488.0
1237	2379	1	0.165	238488.0
1237	2733	1	0.165	238488.0
1238	2428	1	0.165	238488.0
1238	2488	1	0.165	238488.0
1239	1993	1	0.165	238488.0
1239	2383	1	0.165	238488.0
1240	2472	1	0.165	238488.0
1240	2482	1	0.165	238488.0
1241	2358	1	0.165	238488.0
1241	2498	1	0.165	238488.0
1242	2313	1	0.165	238488.0
1242	2446	1	0.165	238488.0
1243	2435	1	0.165	238488.0
1243	2448	1	0.165	238488.0
1244	2332	1	0.165	238488.0
1244	2523	1	0.165	238488.0
1245	2358	1	0.165	238488.0
1245	2523	1	0.165	238488.0
1246	2346	1	0.165	238488.0
1246	2524	1	0.165	238488.0
1247	2320	1	0.165	238488.0
1247	2432	1	0.165	238488.0
1248	2440	1	0.165	238488.0
1248	2724	1	0.165	238488.0
1249	2479	1	0.165	238488.0
1249	2524	1	0.165	238488.0
1250	2343	1	0.165	238488.0
1250	2484	1	0.165	238488.0
1251	2430	1	0.165	238488.0
1251	2524	1	0.165	238488.0
1252	2522	1	0.165	238488.0
1252	2527	1	0.165	238488.0
1253	2522	1	0.165	238488.0
1253	2526	1	0.165	238488.0
1254	2084	1	0.165	238488.0
1254	2528	1	0.165	238488.0
1255	2526	1	0.165	238488.0
1255	2759	1	0.165	238488.0
1256	2399	1	0.165	238488.0
1256	2526	1	0.165	238488.0
1257	2678	1	0.165	238488.0
1257	2720	1	0.165	238488.0
1258	2538	1	0.165	238488.0
1258	2540	1	0.165	238488.0
1259	2566	1	0.165	238488.0
1259	2588	1	0.165	238488.0
1260	2638	1	0.165	238488.0
1260	2684	1	0.165	238488.0
1261	2652	1	0.165	238488.0
1261	2674	1	0.165	238488.0
1262	2630	1	0.165	238488.0
1262	2756	1	0.165	238488.0
1263	2605	1	0.165	238488.0
1263	2650	1	0.165	238488.0
1264	2537	1	0.165	238488.0
1264	2727	1	0.165	238488.0
1265	2581	1	0.165	238488.0
1265	2652	1	0.165	238488.0
1266	2593	1	0.165	238488.0
1266	2703	1	0.165	238488.0
1267	2715	1	0.165	238488.0
1267	2729	1	0.165	238488.0
1268	2688	1	0.165	238488.0
1268	2734	1	0.165	238488.0
1269	2166	1	0.165	238488.0
1269	2534	1	0.165	238488.0
1270	2375	1	0.165	238488.0
1270	2607	1	0.165	238488.0
1271	2550	1	0.165	238488.0
1271	2737	1	0.165	238488.0
1272	2536	1	0.165	238488.0
1272	2698	1	0.165	238488.0
1273	2592	1	0.165	238488.0
1273	2665	1	0.165	238488.0
1274	2561	1	0.165	238488.0
1274	2741	1	0.165	238488.0
1275	2606	1	0.165	238488.0
1275	2629	1	0.165	238488.0
1276	2567	1	0.165	238488.0
1276	2625	1	0.165	238488.0
1277	2157	1	0.165	238488.0
1277	2744	1	0.165	238488.0
1278	2541	1	0.165	238488.0
1278	2629	1	0.165	238488.0
1279	2543	1	0.165	238488.0
1279	2616	1	0.165	238488.0
1280	2544	1	0.165	238488.0
1280	2588	1	0.165	238488.0
1281	2623	1	0.165	238488.0
1281	2732	1	0.165	238488.0
1282	2544	1	0.165	238488.0
1282	2567	1	0.165	238488.0
1283	2729	1	0.165	238488.0
1283	2739	1	0.165	238488.0
1284	2311	1	0.165	238488.0
1284	2541	1	0.165	238488.0
1285	2140	1	0.165	238488.0
1285	2671	1	0.165	238488.0
1286	2558	1	0.165	238488.0
1286	2659	1	0.165	238488.0
1287	2567	1	0.165	238488.0
1287	2686	1	0.165	238488.0
1288	2284	1	0.165	238488.0
1288	2592	1	0.165	238488.0
1289	2622	1	0.165	238488.0
1289	2655	1	0.165	238488.0
1290	2592	1	0.165	238488.0
1290	2625	1	0.165	238488.0
1291	2574	1	0.165	238488.0
1291	2701	1	0.165	238488.0
1292	2722	1	0.165	238488.0
1292	2757	1	0.165	238488.0
1293	2503	1	0.165	238488.0
1293	2555	1	0.165	238488.0
1294	2543	1	0.165	238488.0
1294	2575	1	0.165	238488.0
1295	2711	1	0.165	238488.0
1295	2740	1	0.165	238488.0
1296	2223	1	0.165	238488.0
1296	2371	1	0.165	238488.0
1297	2530	1	0.165	238488.0
1297	2557	1	0.165	238488.0
1298	2134	1	0.165	238488.0
1298	2660	1	0.165	238488.0
1299	2626	1	0.165	238488.0
1299	2666	1	0.165	238488.0
1300	2684	1	0.165	238488.0
1300	2743	1	0.165	238488.0
1301	2579	1	0.165	238488.0
1301	2595	1	0.165	238488.0
1302	2560	1	0.165	238488.0
1302	2686	1	0.165	238488.0
1303	2697	1	0.165	238488.0
1303	2742	1	0.165	238488.0
1304	2165	1	0.165	238488.0
1304	2307	1	0.165	238488.0
1305	2681	1	0.165	238488.0
1305	2689	1	0.165	238488.0
1306	2090	1	0.165	238488.0
1306	2571	1	0.165	238488.0
1307	2568	1	0.165	238488.0
1307	2644	1	0.165	238488.0
1308	2556	1	0.165	238488.0
1308	2667	1	0.165	238488.0
1309	2626	1	0.165	238488.0
1309	2659	1	0.165	238488.0
1310	2611	1	0.165	238488.0
1310	2654	1	0.165	238488.0
1311	2648	1	0.165	238488.0
1311	2741	1	0.165	238488.0
1312	2535	1	0.165	238488.0
1312	2596	1	0.165	238488.0
1313	2705	1	0.165	238488.0
1313	2710	1	0.165	238488.0
1314	2582	1	0.165	238488.0
1314	2721	1	0.165	238488.0
1315	2558	1	0.165	238488.0
1315	2671	1	0.165	238488.0
1316	2548	1	0.165	238488.0
1316	2713	1	0.165	238488.0
1317	2615	1	0.165	238488.0
1317	2732	1	0.165	238488.0
1318	2556	1	0.165	238488.0
1318	2718	1	0.165	238488.0
1319	2550	1	0.165	238488.0
1319	2613	1	0.165	238488.0
1320	2568	1	0.165	238488.0
1320	2699	1	0.165	238488.0
1321	2570	1	0.165	238488.0
1321	2622	1	0.165	238488.0
1322	2199	1	0.165	238488.0
1322	2693	1	0.165	238488.0
1323	2571	1	0.165	238488.0
1323	2708	1	0.165	238488.0
1324	2604	1	0.165	238488.0
1324	2628	1	0.165	238488.0
1325	2645	1	0.165	238488.0
1325	2660	1	0.165	238488.0
1326	2566	1	0.165	238488.0
1326	2703	1	0.165	238488.0
1327	2532	1	0.165	238488.0
1327	2576	1	0.165	238488.0
1328	2545	1	0.165	238488.0
1328	2593	1	0.165	238488.0
1329	2634	1	0.165	238488.0
1329	2701	1	0.165	238488.0
1330	2566	1	0.165	238488.0
1330	2597	1	0.165	238488.0
1331	2573	1	0.165	238488.0
1331	2632	1	0.165	238488.0
1332	2697	1	0.165	238488.0
1332	2712	1	0.165	238488.0
1333	2545	1	0.165	238488.0
1333	2548	1	0.165	238488.0
1334	2614	1	0.165	238488.0
1334	2635	1	0.165	238488.0
1335	2717	1	0.165	238488.0
1335	2740	1	0.165	238488.0
1336	2607	1	0.165	238488.0
1336	2616	1	0.165	238488.0
1337	2532	1	0.165	238488.0
1337	2740	1	0.165	238488.0
1338	2585	1	0.165	238488.0
1338	2651	1	0.165	238488.0
1339	2560	1	0.165	238488.0
1339	2735	1	0.165	238488.0
1340	2602	1	0.165	238488.0
1340	2650	1	0.165	238488.0
1341	2614	1	0.165	238488.0
1341	2687	1	0.165	238488.0
1342	2642	1	0.165	238488.0
1342	2717	1	0.165	238488.0
1343	2639	1	0.165	238488.0
1343	2730	1	0.165	238488.0
1344	2545	1	0.165	238488.0
1344	2576	1	0.165	238488.0
1345	2547	1	0.165	238488.0
1345	2582	1	0.165	238488.0
1346	2554	1	0.165	238488.0
1346	2587	1	0.165	238488.0
1347	2571	1	0.165	238488.0
1347	2630	1	0.165	238488.0
1348	2655	1	0.165	238488.0
1348	2671	1	0.165	238488.0
1349	2659	1	0.165	238488.0
1349	2719	1	0.165	238488.0
1350	2534	1	0.165	238488.0
1350	2580	1	0.165	238488.0
1351	2683	1	0.165	238488.0
1351	2727	1	0.165	238488.0
1352	2536	1	0.165	238488.0
1352	2680	1	0.165	238488.0
1353	2537	1	0.165	238488.0
1353	2635	1	0.165	238488.0
1354	2284	1	0.165	238488.0
1354	2660	1	0.165	238488.0
1355	2187	1	0.165	238488.0
1355	2571	1	0.165	238488.0
1356	2604	1	0.165	238488.0
1356	2675	1	0.165	238488.0
1357	2618	1	0.165	238488.0
1357	2685	1	0.165	238488.0
1358	2639	1	0.165	238488.0
1358	2713	1	0.165	238488.0
1359	2570	1	0.165	238488.0
1359	2636	1	0.165	238488.0
1360	2553	1	0.165	238488.0
1360	2583	1	0.165	238488.0
1361	2584	1	0.165	238488.0
1361	2700	1	0.165	238488.0
1362	2196	1	0.165	238488.0
1362	2585	1	0.165	238488.0
1363	2613	1	0.165	238488.0
1363	2706	1	0.165	238488.0
1364	2653	1	0.165	238488.0
1364	2686	1	0.165	238488.0
1365	2565	1	0.165	238488.0
1365	2589	1	0.165	238488.0
1366	2663	1	0.165	238488.0
1366	2747	1	0.165	238488.0
1367	2475	1	0.165	238488.0
1367	2663	1	0.165	238488.0
1368	2559	1	0.165	238488.0
1368	2603	1	0.165	238488.0
1369	2676	1	0.165	238488.0
1369	2683	1	0.165	238488.0
1370	2601	1	0.165	238488.0
1370	2661	1	0.165	238488.0
1371	2567	1	0.165	238488.0
1371	2713	1	0.165	238488.0
1372	2379	1	0.165	238488.0
1372	2664	1	0.165	238488.0
1373	2619	1	0.165	238488.0
1373	2714	1	0.165	238488.0
1374	2643	1	0.165	238488.0
1374	2645	1	0.165	238488.0
1375	2588	1	0.165	238488.0
1375	2589	1	0.165	238488.0
1376	2558	1	0.165	238488.0
1376	2622	1	0.165	238488.0
1377	2553	1	0.165	238488.0
1377	2675	1	0.165	238488.0
1378	2563	1	0.165	238488.0
1378	2587	1	0.165	238488.0
1379	2627	1	0.165	238488.0
1379	2663	1	0.165	238488.0
1380	2572	1	0.165	238488.0
1380	2593	1	0.165	238488.0
1381	2594	1	0.165	238488.0
1381	2609	1	0.165	238488.0
1382	2575	1	0.165	238488.0
1382	2612	1	0.165	238488.0
1383	2609	1	0.165	238488.0
1383	2655	1	0.165	238488.0
1384	2700	1	0.165	238488.0
1384	2722	1	0.165	238488.0
1385	2561	1	0.165	238488.0
1385	2568	1	0.165	238488.0
1386	2231	1	0.165	238488.0
1386	2652	1	0.165	238488.0
1387	2550	1	0.165	238488.0
1387	2704	1	0.165	238488.0
1388	2361	1	0.165	238488.0
1388	2674	1	0.165	238488.0
1389	2572	1	0.165	238488.0
1389	2599	1	0.165	238488.0
1390	2555	1	0.165	238488.0
1390	2661	1	0.165	238488.0
1391	2573	1	0.165	238488.0
1391	2618	1	0.165	238488.0
1392	2128	1	0.165	238488.0
1392	2667	1	0.165	238488.0
1393	2163	1	0.165	238488.0
1393	2630	1	0.165	238488.0
1394	2633	1	0.165	238488.0
1394	2653	1	0.165	238488.0
1395	2656	1	0.165	238488.0
1395	2724	1	0.165	238488.0
1396	2623	1	0.165	238488.0
1396	2739	1	0.165	238488.0
1397	2634	1	0.165	238488.0
1397	2686	1	0.165	238488.0
1398	2533	1	0.165	238488.0
1398	2619	1	0.165	238488.0
1399	2553	1	0.165	238488.0
1399	2600	1	0.165	238488.0
1400	2681	1	0.165	238488.0
1400	2718	1	0.165	238488.0
1401	2583	1	0.165	238488.0
1401	2723	1	0.165	238488.0
1402	2499	1	0.165	238488.0
1402	2552	1	0.165	238488.0
1403	2108	1	0.165	238488.0
1403	2576	1	0.165	238488.0
1404	2094	1	0.165	238488.0
1404	2541	1	0.165	238488.0
1405	2371	1	0.165	238488.0
1405	2654	1	0.165	238488.0
1406	2685	1	0.165	238488.0
1406	2694	1	0.165	238488.0
1407	2635	1	0.165	238488.0
1407	2684	1	0.165	238488.0
1408	2308	1	0.165	238488.0
1408	2709	1	0.165	238488.0
1409	2625	1	0.165	238488.0
1409	2693	1	0.165	238488.0
1410	2638	1	0.165	238488.0
1410	2685	1	0.165	238488.0
1411	2640	1	0.165	238488.0
1411	2725	1	0.165	238488.0
1412	2654	1	0.165	238488.0
1412	2682	1	0.165	238488.0
1413	2562	1	0.165	238488.0
1413	2723	1	0.165	238488.0
1414	2533	1	0.165	238488.0
1414	2552	1	0.165	238488.0
1415	2664	1	0.165	238488.0
1415	2665	1	0.165	238488.0
1416	2648	1	0.165	238488.0
1416	2678	1	0.165	238488.0
1417	2542	1	0.165	238488.0
1417	2592	1	0.165	238488.0
1418	2582	1	0.165	238488.0
1418	2600	1	0.165	238488.0
1419	2540	1	0.165	238488.0
1419	2625	1	0.165	238488.0
1420	2196	1	0.165	238488.0
1420	2737	1	0.165	238488.0
1421	2578	1	0.165	238488.0
1421	2690	1	0.165	238488.0
1422	2538	1	0.165	238488.0
1422	2668	1	0.165	238488.0
1423	2591	1	0.165	238488.0
1423	2725	1	0.165	238488.0
1424	2610	1	0.165	238488.0
1424	2676	1	0.165	238488.0
1425	2706	1	0.165	238488.0
1425	2707	1	0.165	238488.0
1426	2694	1	0.165	238488.0
1426	2742	1	0.165	238488.0
1427	2646	1	0.165	238488.0
1427	2691	1	0.165	238488.0
1428	2602	1	0.165	238488.0
1428	2742	1	0.165	238488.0
1429	2572	1	0.165	238488.0
1429	2692	1	0.165	238488.0
1430	2597	1	0.165	238488.0
1430	2692	1	0.165	238488.0
1431	2646	1	0.165	238488.0
1431	2707	1	0.165	238488.0
1432	2532	1	0.165	238488.0
1432	2628	1	0.165	238488.0
1433	2554	1	0.165	238488.0
1433	2620	1	0.165	238488.0
1434	2620	1	0.165	238488.0
1434	2631	1	0.165	238488.0
1435	2570	1	0.165	238488.0
1435	2646	1	0.165	238488.0
1436	2540	1	0.165	238488.0
1436	2563	1	0.165	238488.0
1437	2536	1	0.165	238488.0
1437	2689	1	0.165	238488.0
1438	2578	1	0.165	238488.0
1438	2598	1	0.165	238488.0
1439	2720	1	0.165	238488.0
1439	2738	1	0.165	238488.0
1440	2632	1	0.165	238488.0
1440	2688	1	0.165	238488.0
1441	2192	1	0.165	238488.0
1441	2546	1	0.165	238488.0
1442	2454	1	0.165	238488.0
1442	2680	1	0.165	238488.0
1443	2457	1	0.165	238488.0
1443	2679	1	0.165	238488.0
1444	2605	1	0.165	238488.0
1444	2608	1	0.165	238488.0
1445	2618	1	0.165	238488.0
1445	2645	1	0.165	238488.0
1446	2666	1	0.165	238488.0
1446	2738	1	0.165	238488.0
1447	2573	1	0.165	238488.0
1447	2621	1	0.165	238488.0
1448	2631	1	0.165	238488.0
1448	2681	1	0.165	238488.0
1449	2662	1	0.165	238488.0
1449	2695	1	0.165	238488.0
1450	2532	1	0.165	238488.0
1450	2581	1	0.165	238488.0
1451	2551	1	0.165	238488.0
1451	2696	1	0.165	238488.0
1452	2554	1	0.165	238488.0
1452	2632	1	0.165	238488.0
1453	2552	1	0.165	238488.0
1453	2698	1	0.165	238488.0
1454	2669	1	0.165	238488.0
1454	2682	1	0.165	238488.0
1455	2530	1	0.165	238488.0
1455	2554	1	0.165	238488.0
1456	2561	1	0.165	238488.0
1456	2730	1	0.165	238488.0
1457	2636	1	0.165	238488.0
1457	2737	1	0.165	238488.0
1458	2621	1	0.165	238488.0
1458	2694	1	0.165	238488.0
1459	2574	1	0.165	238488.0
1459	2586	1	0.165	238488.0
1460	2728	1	0.165	238488.0
1460	2729	1	0.165	238488.0
1461	2710	1	0.165	238488.0
1461	2712	1	0.165	238488.0
1462	2673	1	0.165	238488.0
1462	2710	1	0.165	238488.0
1463	2577	1	0.165	238488.0
1463	2710	1	0.165	238488.0
1464	2612	1	0.165	238488.0
1464	2641	1	0.165	238488.0
1465	2556	1	0.165	238488.0
1465	2631	1	0.165	238488.0
1466	2677	1	0.165	238488.0
1466	2733	1	0.165	238488.0
1467	2566	1	0.165	238488.0
1467	2730	1	0.165	238488.0
1468	2145	1	0.165	238488.0
1468	2737	1	0.165	238488.0
1469	2171	1	0.165	238488.0
1469	2587	1	0.165	238488.0
1470	2634	1	0.165	238488.0
1470	2703	1	0.165	238488.0
1471	2537	1	0.165	238488.0
1471	2617	1	0.165	238488.0
1472	2738	1	0.165	238488.0
1472	2741	1	0.165	238488.0
1473	2569	1	0.165	238488.0
1473	2708	1	0.165	238488.0
1474	2617	1	0.165	238488.0
1474	2707	1	0.165	238488.0
1475	2574	1	0.165	238488.0
1475	2599	1	0.165	238488.0
1476	2547	1	0.165	238488.0
1476	2583	1	0.165	238488.0
1477	2564	1	0.165	238488.0
1477	2707	1	0.165	238488.0
1478	2591	1	0.165	238488.0
1478	2706	1	0.165	238488.0
1479	2602	1	0.165	238488.0
1479	2641	1	0.165	238488.0
1480	2597	1	0.165	238488.0
1480	2701	1	0.165	238488.0
1481	2195	1	0.165	238488.0
1481	2545	1	0.165	238488.0
1482	2578	1	0.165	238488.0
1482	2608	1	0.165	238488.0
1483	2549	1	0.165	238488.0
1483	2558	1	0.165	238488.0
1484	2605	1	0.165	238488.0
1484	2750	1	0.165	238488.0
1485	2662	1	0.165	238488.0
1485	2729	1	0.165	238488.0
1486	2615	1	0.165	238488.0
1486	2733	1	0.165	238488.0
1487	2114	1	0.165	238488.0
1487	2574	1	0.165	238488.0
1488	2153	1	0.165	238488.0
1488	2652	1	0.165	238488.0
1489	2332	1	0.165	238488.0
1489	2627	1	0.165	238488.0
1490	2570	1	0.165	238488.0
1490	2641	1	0.165	238488.0
1491	2224	1	0.165	238488.0
1491	2682	1	0.165	238488.0
1492	2629	1	0.165	238488.0
1492	2643	1	0.165	238488.0
1493	2666	1	0.165	238488.0
1493	2691	1	0.165	238488.0
1494	2546	1	0.165	238488.0
1494	2669	1	0.165	238488.0
1495	2375	1	0.165	238488.0
1495	2598	1	0.165	238488.0
1496	2547	1	0.165	238488.0
1496	2740	1	0.165	238488.0
1497	2557	1	0.165	238488.0
1497	2698	1	0.165	238488.0
1498	2309	1	0.165	238488.0
1498	2596	1	0.165	238488.0
1499	2437	1	0.165	238488.0
1499	2615	1	0.165	238488.0
1500	2590	1	0.165	238488.0
1500	2657	1	0.165	238488.0
1501	2546	1	0.165	238488.0
1501	2613	1	0.165	238488.0
1502	2627	1	0.165	238488.0
1502	2750	1	0.165	238488.0
1503	2579	1	0.165	238488.0
1503	2747	1	0.165	238488.0
1504	2616	1	0.165	238488.0
1504	2682	1	0.165	238488.0
1505	2648	1	0.165	238488.0
1505	2666	1	0.165	238488.0
1506	2596	1	0.165	238488.0
1506	2627	1	0.165	238488.0
1507	2224	1	0.165	238488.0
1507	2656	1	0.165	238488.0
1508	2389	1	0.165	238488.0
1508	2578	1	0.165	238488.0
1509	2548	1	0.165	238488.0
1509	2573	1	0.165	238488.0
1510	2548	1	0.165	238488.0
1510	2642	1	0.165	238488.0
1511	2579	1	0.165	238488.0
1511	2716	1	0.165	238488.0
1512	2530	1	0.165	238488.0
1512	2618	1	0.165	238488.0
1513	2576	1	0.165	238488.0
1513	2587	1	0.165	238488.0
1514	2622	1	0.165	238488.0
1514	2672	1	0.165	238488.0
1515	2380	1	0.165	238488.0
1515	2747	1	0.165	238488.0
1516	2543	1	0.165	238488.0
1516	2650	1	0.165	238488.0
1517	2543	1	0.165	238488.0
1517	2591	1	0.165	238488.0
1518	2609	1	0.165	238488.0
1518	2736	1	0.165	238488.0
1519	2644	1	0.165	238488.0
1519	2736	1	0.165	238488.0
1520	2674	1	0.165	238488.0
1520	2711	1	0.165	238488.0
1521	2572	1	0.165	238488.0
1521	2674	1	0.165	238488.0
1522	2559	1	0.165	238488.0
1522	2615	1	0.165	238488.0
1523	2648	1	0.165	238488.0
1523	2736	1	0.165	238488.0
1524	2671	1	0.165	238488.0
1524	2755	1	0.165	238488.0
1525	2563	1	0.165	238488.0
1525	2693	1	0.165	238488.0
1526	2612	1	0.165	238488.0
1526	2640	1	0.165	238488.0
1527	2542	1	0.165	238488.0
1527	2603	1	0.165	238488.0
1528	2557	1	0.165	238488.0
1528	2668	1	0.165	238488.0
1529	2629	1	0.165	238488.0
1529	2631	1	0.165	238488.0
1530	2549	1	0.165	238488.0
1530	2641	1	0.165	238488.0
1531	2145	1	0.165	238488.0
1531	2657	1	0.165	238488.0
1532	2696	1	0.165	238488.0
1532	2719	1	0.165	238488.0
1533	2552	1	0.165	238488.0
1533	2595	1	0.165	238488.0
1534	2645	1	0.165	238488.0
1534	2668	1	0.165	238488.0
1535	2692	1	0.165	238488.0
1535	2758	1	0.165	238488.0
1536	2605	1	0.165	238488.0
1536	2619	1	0.165	238488.0
1537	2608	1	0.165	238488.0
1537	2679	1	0.165	238488.0
1538	2620	1	0.165	238488.0
1538	2702	1	0.165	238488.0
1539	2684	1	0.165	238488.0
1539	2690	1	0.165	238488.0
1540	2676	1	0.165	238488.0
1540	2687	1	0.165	238488.0
1541	2555	1	0.165	238488.0
1541	2590	1	0.165	238488.0
1542	2206	1	0.165	238488.0
1542	2702	1	0.165	238488.0
1543	2569	1	0.165	238488.0
1543	2647	1	0.165	238488.0
1544	2712	1	0.165	238488.0
1544	2726	1	0.165	238488.0
1545	2584	1	0.165	238488.0
1545	2735	1	0.165	238488.0
1546	2539	1	0.165	238488.0
1546	2695	1	0.165	238488.0
1547	2529	1	0.165	238488.0
1547	2547	1	0.165	238488.0
1548	2649	1	0.165	238488.0
1548	2673	1	0.165	238488.0
1549	2585	1	0.165	238488.0
1549	2601	1	0.165	238488.0
1550	2617	1	0.165	238488.0
1550	2624	1	0.165	238488.0
1551	2534	1	0.165	238488.0
1551	2643	1	0.165	238488.0
1552	2584	1	0.165	238488.0
1552	2658	1	0.165	238488.0
1553	2534	1	0.165	238488.0
1553	2541	1	0.165	238488.0
1554	2449	1	0.165	238488.0
1554	2741	1	0.165	238488.0
1555	2630	1	0.165	238488.0
1555	2745	1	0.165	238488.0
1556	2633	1	0.165	238488.0
1556	2637	1	0.165	238488.0
1557	2540	1	0.165	238488.0
1557	2713	1	0.165	238488.0
1558	2564	1	0.165	238488.0
1558	2610	1	0.165	238488.0
1559	2623	1	0.165	238488.0
1559	2670	1	0.165	238488.0
1560	2638	1	0.165	238488.0
1560	2670	1	0.165	238488.0
1561	2731	1	0.165	238488.0
1561	2732	1	0.165	238488.0
1562	2521	1	0.165	238488.0
1562	2736	1	0.165	238488.0
1563	2655	1	0.165	238488.0
1563	2659	1	0.165	238488.0
1564	2717	1	0.165	238488.0
1564	2726	1	0.165	238488.0
1565	2624	1	0.165	238488.0
1565	2691	1	0.165	238488.0
1566	2638	1	0.165	238488.0
1566	2731	1	0.165	238488.0
1567	2529	1	0.165	238488.0
1567	2675	1	0.165	238488.0
1568	2563	1	0.165	238488.0
1568	2660	1	0.165	238488.0
1569	2680	1	0.165	238488.0
1569	2749	1	0.165	238488.0
1570	2727	1	0.165	238488.0
1570	2731	1	0.165	238488.0
1571	2549	1	0.165	238488.0
1571	2569	1	0.165	238488.0
1572	2650	1	0.165	238488.0
1572	2690	1	0.165	238488.0
1573	2568	1	0.165	238488.0
1573	2691	1	0.165	238488.0
1574	2606	1	0.165	238488.0
1574	2702	1	0.165	238488.0
1575	2538	1	0.165	238488.0
1575	2677	1	0.165	238488.0
1576	2533	1	0.165	238488.0
1576	2663	1	0.165	238488.0
1577	2602	1	0.165	238488.0
1577	2617	1	0.165	238488.0
1578	2535	1	0.165	238488.0
1578	2598	1	0.165	238488.0
1579	2651	1	0.165	238488.0
1579	2704	1	0.165	238488.0
1580	2688	1	0.165	238488.0
1580	2723	1	0.165	238488.0
1581	2697	1	0.165	238488.0
1581	2714	1	0.165	238488.0
1582	2610	1	0.165	238488.0
1582	2613	1	0.165	238488.0
1583	2595	1	0.165	238488.0
1583	2685	1	0.165	238488.0
1584	2714	1	0.165	238488.0
1584	2716	1	0.165	238488.0
1585	2531	1	0.165	238488.0
1585	2604	1	0.165	238488.0
1586	2667	1	0.165	238488.0
1586	2723	1	0.165	238488.0
1587	2669	1	0.165	238488.0
1587	2687	1	0.165	238488.0
1588	2589	1	0.165	238488.0
1588	2735	1	0.165	238488.0
1589	2610	1	0.165	238488.0
1589	2704	1	0.165	238488.0
1590	2565	1	0.165	238488.0
1590	2676	1	0.165	238488.0
1591	2591	1	0.165	238488.0
1591	2635	1	0.165	238488.0
1592	2556	1	0.165	238488.0
1592	2562	1	0.165	238488.0
1593	2533	1	0.165	238488.0
1593	2679	1	0.165	238488.0
1594	2564	1	0.165	238488.0
1594	2699	1	0.165	238488.0
1595	2673	1	0.165	238488.0
1595	2708	1	0.165	238488.0
1596	2621	1	0.165	238488.0
1596	2639	1	0.165	238488.0
1597	2649	1	0.165	238488.0
1597	2714	1	0.165	238488.0
1598	2581	1	0.165	238488.0
1598	2628	1	0.165	238488.0
1599	2134	1	0.165	238488.0
1599	2643	1	0.165	238488.0
1600	2614	1	0.165	238488.0
1600	2683	1	0.165	238488.0
1601	2699	1	0.165	238488.0
1601	2704	1	0.165	238488.0
1602	2311	1	0.165	238488.0
1602	2698	1	0.165	238488.0
1603	2166	1	0.165	238488.0
1603	2664	1	0.165	238488.0
1604	2561	1	0.165	238488.0
1604	2692	1	0.165	238488.0
1605	2582	1	0.165	238488.0
1605	2720	1	0.165	238488.0
1606	2705	1	0.165	238488.0
1606	2734	1	0.165	238488.0
1607	2697	1	0.165	238488.0
1607	2718	1	0.165	238488.0
1608	2642	1	0.165	238488.0
1608	2730	1	0.165	238488.0
1609	2588	1	0.165	238488.0
1609	2699	1	0.165	238488.0
1610	2616	1	0.165	238488.0
1610	2743	1	0.165	238488.0
1611	2601	1	0.165	238488.0
1611	2722	1	0.165	238488.0
1612	2657	1	0.165	238488.0
1612	2672	1	0.165	238488.0
1613	2640	1	0.165	238488.0
1613	2706	1	0.165	238488.0
1614	2634	1	0.165	238488.0
1614	2637	1	0.165	238488.0
1615	2538	1	0.165	238488.0
1615	2731	1	0.165	238488.0
1616	2530	1	0.165	238488.0
1616	2718	1	0.165	238488.0
1617	2654	1	0.165	238488.0
1617	2743	1	0.165	238488.0
1618	2678	1	0.165	238488.0
1618	2719	1	0.165	238488.0
1619	2586	1	0.165	238488.0
1619	2593	1	0.165	238488.0
1620	2644	1	0.165	238488.0
1620	2657	1	0.165	238488.0
1621	2621	1	0.165	238488.0
1621	2624	1	0.165	238488.0
1622	2689	1	0.165	238488.0
1622	2716	1	0.165	238488.0
1623	2687	1	0.165	238488.0
1623	2728	1	0.165	238488.0
1624	2721	1	0.165	238488.0
1624	2726	1	0.165	238488.0
1625	2647	1	0.165	238488.0
1625	2709	1	0.165	238488.0
1626	2679	1	0.165	238488.0
1626	2690	1	0.165	238488.0
1627	2636	1	0.165	238488.0
1627	2672	1	0.165	238488.0
1628	2716	1	0.165	238488.0
1628	2734	1	0.165	238488.0
1629	2475	1	0.165	238488.0
1629	2608	1	0.165	238488.0
1630	2688	1	0.165	238488.0
1630	2726	1	0.165	238488.0
1631	2537	1	0.165	238488.0
1631	2694	1	0.165	238488.0
1632	2560	1	0.165	238488.0
1632	2701	1	0.165	238488.0
1633	2670	1	0.165	238488.0
1633	2677	1	0.165	238488.0
1634	2661	1	0.165	238488.0
1634	2722	1	0.165	238488.0
1635	2614	1	0.165	238488.0
1635	2739	1	0.165	238488.0
1636	2611	1	0.165	238488.0
1636	2739	1	0.165	238488.0
1637	2550	1	0.165	238488.0
1637	2585	1	0.165	238488.0
1638	2683	1	0.165	238488.0
1638	2732	1	0.165	238488.0
1639	2597	1	0.165	238488.0
1639	2735	1	0.165	238488.0
1640	2642	1	0.165	238488.0
1640	2711	1	0.165	238488.0
1641	2644	1	0.165	238488.0
1641	2646	1	0.165	238488.0
1642	2437	1	0.165	238488.0
1642	2715	1	0.165	238488.0
1643	2579	1	0.165	238488.0
1643	2681	1	0.165	238488.0
1644	2577	1	0.165	238488.0
1644	2721	1	0.165	238488.0
1645	2559	1	0.165	238488.0
1645	2662	1	0.165	238488.0
1646	2539	1	0.165	238488.0
1646	2542	1	0.165	238488.0
1647	2611	1	0.165	238488.0
1647	2728	1	0.165	238488.0
1648	2544	1	0.165	238488.0
1648	2695	1	0.165	238488.0
1649	2711	1	0.165	238488.0
1649	2738	1	0.165	238488.0
1650	2583	1	0.165	238488.0
1650	2721	1	0.165	238488.0
1651	2626	1	0.165	238488.0
1651	2712	1	0.165	238488.0
1652	2557	1	0.165	238488.0
1652	2595	1	0.165	238488.0
1653	2544	1	0.165	238488.0
1653	2727	1	0.165	238488.0
1654	2619	1	0.165	238488.0
1654	2742	1	0.165	238488.0
1655	2624	1	0.165	238488.0
1655	2626	1	0.165	238488.0
1656	2580	1	0.165	238488.0
1656	2677	1	0.165	238488.0
1657	2402	1	0.165	238488.0
1657	2658	1	0.165	238488.0
1658	2632	1	0.165	238488.0
1658	2717	1	0.165	238488.0
1659	2564	1	0.165	238488.0
1659	2639	1	0.165	238488.0
1660	2580	1	0.165	238488.0
1660	2668	1	0.165	238488.0
1661	2599	1	0.165	238488.0
1661	2758	1	0.165	238488.0
1662	2649	1	0.165	238488.0
1662	2709	1	0.165	238488.0
1663	2215	1	0.165	238488.0
1663	2603	1	0.165	238488.0
1664	2693	1	0.165	238488.0
1664	2703	1	0.165	238488.0
1665	2577	1	0.165	238488.0
1665	2719	1	0.165	238488.0
1666	2531	1	0.165	238488.0
1666	2667	1	0.165	238488.0
1667	2656	1	0.165	238488.0
1667	2669	1	0.165	238488.0
1668	2551	1	0.165	238488.0
1668	2745	1	0.165	238488.0
1669	2577	1	0.165	238488.0
1669	2745	1	0.165	238488.0
1670	2565	1	0.165	238488.0
1670	2746	1	0.165	238488.0
1671	2539	1	0.165	238488.0
1671	2653	1	0.165	238488.0
1672	2700	1	0.165	238488.0
1672	2746	1	0.165	238488.0
1673	2562	1	0.165	238488.0
1673	2705	1	0.165	238488.0
1674	2715	1	0.165	238488.0
1674	2728	1	0.165	238488.0
1675	2651	1	0.165	238488.0
1675	2746	1	0.165	238488.0
1676	2744	1	0.165	238488.0
1676	2749	1	0.165	238488.0
1677	2744	1	0.165	238488.0
1677	2748	1	0.165	238488.0
1678	2307	1	0.165	238488.0
1678	2750	1	0.165	238488.0
1679	2748	1	0.165	238488.0
1679	2760	1	0.165	238488.0
1680	2620	1	0.165	238488.0
1680	2748	1	0.165	238488.0
1681	1880	1	0.165	238488.0
1681	2088	1	0.165	238488.0
1682	2149	1	0.165	238488.0
1682	2443	1	0.165	238488.0
1683	1991	1	0.165	238488.0
1683	2753	1	0.165	238488.0
1684	2751	1	0.165	238488.0
1684	2752	1	0.165	238488.0
1685	2000	1	0.165	238488.0
1685	2255	1	0.165	238488.0
1686	2001	1	0.165	238488.0
1686	2158	1	0.165	238488.0
1687	1891	1	0.165	238488.0
1687	2279	1	0.165	238488.0
1688	2016	1	0.165	238488.0
1688	2237	1	0.165	238488.0
1689	2322	1	0.165	238488.0
1689	2529	1	0.165	238488.0
1690	2001	1	0.165	238488.0
1690	2590	1	0.165	238488.0
1691	2433	1	0.165	238488.0
1691	2757	1	0.165	238488.0
1692	2755	1	0.165	238488.0
1692	2756	1	0.165	238488.0
1693	2442	1	0.165	238488.0
1693	2696	1	0.165	238488.0
1694	2443	1	0.165	238488.0
1694	2599	1	0.165	238488.0
1695	2333	1	0.165	238488.0
1695	2720	1	0.165	238488.0
1696	2458	1	0.165	238488.0
1696	2678	1	0.165	238488.0
1697	1993	1	0.165	238488.0
1697	2444	1	0.165	238488.0
1698	2215	1	0.165	238488.0
1698	2665	1	0.165	238488.0
1699	2522	1	0.165	238488.0
1699	2759	1	0.165	238488.0
1700	2744	1	0.165	238488.0
1700	2760	1	0.165	238488.0
1701	1944	1	0.187	29999.278
1701	2761	1	0.109	292272.472
1701	2762	1	0.109	292272.472
1701	2763	1	0.109	292272.472
1702	2032	1	0.187	29999.278
1702	2764	1	0.109	292272.472
1702	2765	1	0.109	292272.472
1702	2766	1	0.109	292272.472
1703	1986	1	0.187	29999.278
1703	2767	1	0.109	292272.472
1703	2768	1	0.109	292272.472
1703	2769	1	0.109	292272.472
1704	1899	1	0.187	29999.278
1704	2770	1	0.109	292272.472
1704	2771	1	0.109	292272.472
1704	2772	1	0.109	292272.472
1705	2045	1	0.187	29999.278
1705	2773	1	0.109	292272.472
1705	2774	1	0.109	292272.472
1705	2775	1	0.109	292272.472
1706	1984	1	0.187	29999.278
1706	2776	1	0.109	292272.472
1706	2777	1	0.109	292272.472
1706	2778	1	0.109	292272.472
1707	2010	1	0.187	29999.278
1707	2779	1	0.109	292272.472
1707	2780	1	0.109	292272.472
1707	2781	1	0.109	292272.472
1708	1881	1	0.187	29999.278
1708	2782	1	0.109	292272.472
1708	2783	1	0.109	292272.472
1708	2784	1	0.109	292272.472
1709	1904	1	0.187	29999.278
1709	2785	1	0.109	292272.472
1709	2786	1	0.109	292272.472
1709	2787	1	0.109	292272.472
1710	1885	1	0.187	29999.278
1710	2788	1	0.109	292272.472
1710	2789	1	0.109	292272.472
1710	2790	1	0.109	292272.472
1711	1928	1	0.187	29999.278
1711	2791	1	0.109	292272.472
1711	2792	1	0.109	292272.472
1711	2793	1	0.109	292272.472
1712	1938	1	0.187	29999.278
1712	2794	1	0.109	292272.472
1712	2795	1	0.109	292272.472
1712	2796	1	0.109	292272.472
1713	1875	1	0.187	29999.278
1713	2797	1	0.109	292272.472
1713	2798	1	0.109	292272.472
1713	2799	1	0.109	292272.472
1714	2061	1	0.187	29999.278
1714	2800	1	0.109	292272.472
1714	2801	1	0.109	292272.472
1714	2802	1	0.109	292272.472
1715	1939	1	0.187	29999.278
1715	2803	1	0.109	292272.472
1715	2804	1	0.109	292272.472
1715	2805	1	0.109	292272.472
1716	1871	1	0.187	29999.278
1716	2806	1	0.109	292272.472
1716	2807	1	0.109	292272.472
1716	2808	1	0.109	292272.472
1717	1892	1	0.187	29999.278
1717	2809	1	0.109	292272.472
1717	2810	1	0.109	292272.472
1717	2811	1	0.109	292272.472
1718	1898	1	0.187	29999.278
1718	2812	1	0.109	292272.472
1718	2813	1	0.109	292272.472
1718	2814	1	0.109	292272.472
1719	1901	1	0.187	29999.278
1719	2815	1	0.109	292272.472
1719	2816	1	0.109	292272.472
1719	2817	1	0.109	292272.472
1720	1923	1	0.187	29999.278
1720	2818	1	0.109	292272.472
1720	2819	1	0.109	292272.472
1720	2820	1	0.109	292272.472
1721	1941	1	0.187	29999.278
1721	2821	1	0.109	292272.472
1721	2822	1	0.109	292272.472
1721	2823	1	0.109	292272.472
1722	1970	1	0.187	29999.278
1722	2824	1	0.109	292272.472
1722	2825	1	0.109	292272.472
1722	2826	1	0.109	292272.472
1723	1990	1	0.187	29999.278
1723	2827	1	0.109	292272.472
1723	2828	1	0.109	292272.472
1723	2829	1	0.109	292272.472
1724	1999	1	0.187	29999.278
1724	2830	1	0.109	292272.472
1724	2831	1	0.109	292272.472
1724	2832	1	0.109	292272.472
1725	2026	1	0.187	29999.278
1725	2833	1	0.109	292272.472
1725	2834	1	0.109	292272.472
1725	2835	1	0.109	292272.472
1726	2037	1	0.187	29999.278
1726	2836	1	0.109	292272.472
1726	2837	1	0.109	292272.472
1726	2838	1	0.109	292272.472
1727	2039	1	0.187	29999.278
1727	2839	1	0.109	292272.472
1727	2840	1	0.109	292272.472
1727	2841	1	0.109	292272.472
1728	2042	1	0.187	29999.278
1728	2842	1	0.109	292272.472
1728	2843	1	0.109	292272.472
1728	2844	1	0.109	292272.472
1729	2046	1	0.187	29999.278
1729	2845	1	0.109	292272.472
1729	2846	1	0.109	292272.472
1729	2847	1	0.109	292272.472
1730	2052	1	0.187	29999.278
1730	2848	1	0.109	292272.472
1730	2849	1	0.109	292272.472
1730	2850	1	0.109	292272.472
1731	2061	1	0.187	29999.278
1731	2851	1	0.109	292272.472
1731	2852	1	0.109	292272.472
1731	2853	1	0.109	292272.472
1732	2070	1	0.187	29999.278
1732	2854	1	0.109	292272.472
1732	2855	1	0.109	292272.472
1732	2856	1	0.109	292272.472
1733	2081	1	0.187	29999.278
1733	2857	1	0.109	292272.472
1733	2858	1	0.109	292272.472
1733	2859	1	0.109	292272.472
1734	2082	1	0.187	29999.278
1734	2860	1	0.109	292272.472
1734	2861	1	0.109	292272.472
1734	2862	1	0.109	292272.472
1735	2083	1	0.187	29999.278
1735	2863	1	0.109	292272.472
1735	2864	1	0.109	292272.472
1735	2865	1	0.109	292272.472
1736	1890	1	0.187	29999.278
1736	2866	1	0.109	292272.472
1736	2867	1	0.109	292272.472
1736	2868	1	0.109	292272.472
1737	2087	1	0.187	29999.278
1737	2869	1	0.109	292272.472
1737	2870	1	0.109	292272.472
1737	2871	1	0.109	292272.472
1738	2086	1	0.187	29999.278
1738	2872	1	0.109	292272.472
1738	2873	1	0.109	292272.472
1738	2874	1	0.109	292272.472
1739	2017	1	0.187	29999.278
1739	2875	1	0.109	292272.472
1739	2876	1	0.109	292272.472
1739	2877	1	0.109	292272.472
1740	1988	1	0.187	29999.278
1740	2878	1	0.109	292272.472
1740	2879	1	0.109	292272.472
1740	2880	1	0.109	292272.472
1741	2118	1	0.187	29999.278
1741	2881	1	0.109	292272.472
1741	2882	1	0.109	292272.472
1741	2883	1	0.109	292272.472
1742	2165	1	0.187	29999.278
1742	2884	1	0.109	292272.472
1742	2885	1	0.109	292272.472
1742	2886	1	0.109	292272.472
1743	2254	1	0.187	29999.278
1743	2887	1	0.109	292272.472
1743	2888	1	0.109	292272.472
1743	2889	1	0.109	292272.472
1744	2208	1	0.187	29999.278
1744	2890	1	0.109	292272.472
1744	2891	1	0.109	292272.472
1744	2892	1	0.109	292272.472
1745	2119	1	0.187	29999.278
1745	2893	1	0.109	292272.472
1745	2894	1	0.109	292272.472
1745	2895	1	0.109	292272.472
1746	2267	1	0.187	29999.278
1746	2896	1	0.109	292272.472
1746	2897	1	0.109	292272.472
1746	2898	1	0.109	292272.472
1747	2206	1	0.187	29999.278
1747	2899	1	0.109	292272.472
1747	2900	1	0.109	292272.472
1747	2901	1	0.109	292272.472
1748	2288	1	0.187	29999.278
1748	2902	1	0.109	292272.472
1748	2903	1	0.109	292272.472
1748	2904	1	0.109	292272.472
1749	2098	1	0.187	29999.278
1749	2905	1	0.109	292272.472
1749	2906	1	0.109	292272.472
1749	2907	1	0.109	292272.472
1750	2232	1	0.187	29999.278
1750	2908	1	0.109	292272.472
1750	2909	1	0.109	292272.472
1750	2910	1	0.109	292272.472
1751	2101	1	0.187	29999.278
1751	2911	1	0.109	292272.472
1751	2912	1	0.109	292272.472
1751	2913	1	0.109	292272.472
1752	2105	1	0.187	29999.278
1752	2914	1	0.109	292272.472
1752	2915	1	0.109	292272.472
1752	2916	1	0.109	292272.472
1753	2148	1	0.187	29999.278
1753	2917	1	0.109	292272.472
1753	2918	1	0.109	292272.472
1753	2919	1	0.109	292272.472
1754	2159	1	0.187	29999.278
1754	2920	1	0.109	292272.472
1754	2921	1	0.109	292272.472
1754	2922	1	0.109	292272.472
1755	2095	1	0.187	29999.278
1755	2923	1	0.109	292272.472
1755	2924	1	0.109	292272.472
1755	2925	1	0.109	292272.472
1756	2283	1	0.187	29999.278
1756	2926	1	0.109	292272.472
1756	2927	1	0.109	292272.472
1756	2928	1	0.109	292272.472
1757	2160	1	0.187	29999.278
1757	2929	1	0.109	292272.472
1757	2930	1	0.109	292272.472
1757	2931	1	0.109	292272.472
1758	2090	1	0.187	29999.278
1758	2932	1	0.109	292272.472
1758	2933	1	0.109	292272.472
1758	2934	1	0.109	292272.472
1759	2112	1	0.187	29999.278
1759	2935	1	0.109	292272.472
1759	2936	1	0.109	292272.472
1759	2937	1	0.109	292272.472
1760	2121	1	0.187	29999.278
1760	2938	1	0.109	292272.472
1760	2939	1	0.109	292272.472
1760	2940	1	0.109	292272.472
1761	2143	1	0.187	29999.278
1761	2941	1	0.109	292272.472
1761	2942	1	0.109	292272.472
1761	2943	1	0.109	292272.472
1762	2162	1	0.187	29999.278
1762	2944	1	0.109	292272.472
1762	2945	1	0.109	292272.472
1762	2946	1	0.109	292272.472
1763	2192	1	0.187	29999.278
1763	2947	1	0.109	292272.472
1763	2948	1	0.109	292272.472
1763	2949	1	0.109	292272.472
1764	2212	1	0.187	29999.278
1764	2950	1	0.109	292272.472
1764	2951	1	0.109	292272.472
1764	2952	1	0.109	292272.472
1765	2220	1	0.187	29999.278
1765	2953	1	0.109	292272.472
1765	2954	1	0.109	292272.472
1765	2955	1	0.109	292272.472
1766	2221	1	0.187	29999.278
1766	2956	1	0.109	292272.472
1766	2957	1	0.109	292272.472
1766	2958	1	0.109	292272.472
1767	2248	1	0.187	29999.278
1767	2959	1	0.109	292272.472
1767	2960	1	0.109	292272.472
1767	2961	1	0.109	292272.472
1768	2259	1	0.187	29999.278
1768	2962	1	0.109	292272.472
1768	2963	1	0.109	292272.472
1768	2964	1	0.109	292272.472
1769	2261	1	0.187	29999.278
1769	2965	1	0.109	292272.472
1769	2966	1	0.109	292272.472
1769	2967	1	0.109	292272.472
1770	2264	1	0.187	29999.278
1770	2968	1	0.109	292272.472
1770	2969	1	0.109	292272.472
1770	2970	1	0.109	292272.472
1771	2268	1	0.187	29999.278
1771	2971	1	0.109	292272.472
1771	2972	1	0.109	292272.472
1771	2973	1	0.109	292272.472
1772	2274	1	0.187	29999.278
1772	2974	1	0.109	292272.472
1772	2975	1	0.109	292272.472
1772	2976	1	0.109	292272.472
1773	2293	1	0.187	29999.278
1773	2977	1	0.109	292272.472
1773	2978	1	0.109	292272.472
1773	2979	1	0.109	292272.472
1774	2304	1	0.187	29999.278
1774	2980	1	0.109	292272.472
1774	2981	1	0.109	292272.472
1774	2982	1	0.109	292272.472
1775	2305	1	0.187	29999.278
1775	2983	1	0.109	292272.472
1775	2984	1	0.109	292272.472
1775	2985	1	0.109	292272.472
1776	2306	1	0.187	29999.278
1776	2986	1	0.109	292272.472
1776	2987	1	0.109	292272.472
1776	2988	1	0.109	292272.472
1777	2110	1	0.187	29999.278
1777	2989	1	0.109	292272.472
1777	2990	1	0.109	292272.472
1777	2991	1	0.109	292272.472
1778	2310	1	0.187	29999.278
1778	2992	1	0.109	292272.472
1778	2993	1	0.109	292272.472
1778	2994	1	0.109	292272.472
1779	2309	1	0.187	29999.278
1779	2995	1	0.109	292272.472
1779	2996	1	0.109	292272.472
1779	2997	1	0.109	292272.472
1780	2239	1	0.187	29999.278
1780	2998	1	0.109	292272.472
1780	2999	1	0.109	292272.472
1780	3000	1	0.109	292272.472
1781	2287	1	0.187	29999.278
1781	3001	1	0.109	292272.472
1781	3002	1	0.109	292272.472
1781	3003	1	0.109	292272.472
1782	2386	1	0.187	29999.278
1782	3004	1	0.109	292272.472
1782	3005	1	0.109	292272.472
1782	3006	1	0.109	292272.472
1783	2474	1	0.187	29999.278
1783	3007	1	0.109	292272.472
1783	3008	1	0.109	292272.472
1783	3009	1	0.109	292272.472
1784	2428	1	0.187	29999.278
1784	3010	1	0.109	292272.472
1784	3011	1	0.109	292272.472
1784	3012	1	0.109	292272.472
1785	2341	1	0.187	29999.278
1785	3013	1	0.109	292272.472
1785	3014	1	0.109	292272.472
1785	3015	1	0.109	292272.472
1786	2487	1	0.187	29999.278
1786	3016	1	0.109	292272.472
1786	3017	1	0.109	292272.472
1786	3018	1	0.109	292272.472
1787	2426	1	0.187	29999.278
1787	3019	1	0.109	292272.472
1787	3020	1	0.109	292272.472
1787	3021	1	0.109	292272.472
1788	2320	1	0.187	29999.278
1788	3022	1	0.109	292272.472
1788	3023	1	0.109	292272.472
1788	3024	1	0.109	292272.472
1789	2452	1	0.187	29999.278
1789	3025	1	0.109	292272.472
1789	3026	1	0.109	292272.472
1789	3027	1	0.109	292272.472
1790	2323	1	0.187	29999.278
1790	3028	1	0.109	292272.472
1790	3029	1	0.109	292272.472
1790	3030	1	0.109	292272.472
1791	2346	1	0.187	29999.278
1791	3031	1	0.109	292272.472
1791	3032	1	0.109	292272.472
1791	3033	1	0.109	292272.472
1792	2327	1	0.187	29999.278
1792	3034	1	0.109	292272.472
1792	3035	1	0.109	292272.472
1792	3036	1	0.109	292272.472
1793	2370	1	0.187	29999.278
1793	3037	1	0.109	292272.472
1793	3038	1	0.109	292272.472
1793	3039	1	0.109	292272.472
1794	2380	1	0.187	29999.278
1794	3040	1	0.109	292272.472
1794	3041	1	0.109	292272.472
1794	3042	1	0.109	292272.472
1795	2317	1	0.187	29999.278
1795	3043	1	0.109	292272.472
1795	3044	1	0.109	292272.472
1795	3045	1	0.109	292272.472
1796	2503	1	0.187	29999.278
1796	3046	1	0.109	292272.472
1796	3047	1	0.109	292272.472
1796	3048	1	0.109	292272.472
1797	2441	1	0.187	29999.278
1797	3049	1	0.109	292272.472
1797	3050	1	0.109	292272.472
1797	3051	1	0.109	292272.472
1798	2381	1	0.187	29999.278
1798	3052	1	0.109	292272.472
1798	3053	1	0.109	292272.472
1798	3054	1	0.109	292272.472
1799	2313	1	0.187	29999.278
1799	3055	1	0.109	292272.472
1799	3056	1	0.109	292272.472
1799	3057	1	0.109	292272.472
1800	2334	1	0.187	29999.278
1800	3058	1	0.109	292272.472
1800	3059	1	0.109	292272.472
1800	3060	1	0.109	292272.472
1801	2340	1	0.187	29999.278
1801	3061	1	0.109	292272.472
1801	3062	1	0.109	292272.472
1801	3063	1	0.109	292272.472
1802	2343	1	0.187	29999.278
1802	3064	1	0.109	292272.472
1802	3065	1	0.109	292272.472
1802	3066	1	0.109	292272.472
1803	2365	1	0.187	29999.278
1803	3067	1	0.109	292272.472
1803	3068	1	0.109	292272.472
1803	3069	1	0.109	292272.472
1804	2383	1	0.187	29999.278
1804	3070	1	0.109	292272.472
1804	3071	1	0.109	292272.472
1804	3072	1	0.109	292272.472
1805	2412	1	0.187	29999.278
1805	3073	1	0.109	292272.472
1805	3074	1	0.109	292272.472
1805	3075	1	0.109	292272.472
1806	2432	1	0.187	29999.278
1806	3076	1	0.109	292272.472
1806	3077	1	0.109	292272.472
1806	3078	1	0.109	292272.472
1807	2441	1	0.187	29999.278
1807	3079	1	0.109	292272.472
1807	3080	1	0.109	292272.472
1807	3081	1	0.109	292272.472
1808	2468	1	0.187	29999.278
1808	3082	1	0.109	292272.472
1808	3083	1	0.109	292272.472
1808	3084	1	0.109	292272.472
1809	2479	1	0.187	29999.278
1809	3085	1	0.109	292272.472
1809	3086	1	0.109	292272.472
1809	3087	1	0.109	292272.472
1810	2481	1	0.187	29999.278
1810	3088	1	0.109	292272.472
1810	3089	1	0.109	292272.472
1810	3090	1	0.109	292272.472
1811	2484	1	0.187	29999.278
1811	3091	1	0.109	292272.472
1811	3092	1	0.109	292272.472
1811	3093	1	0.109	292272.472
1812	2488	1	0.187	29999.278
1812	3094	1	0.109	292272.472
1812	3095	1	0.109	292272.472
1812	3096	1	0.109	292272.472
1813	2494	1	0.187	29999.278
1813	3097	1	0.109	292272.472
1813	3098	1	0.109	292272.472
1813	3099	1	0.109	292272.472
1814	2494	1	0.187	29999.278
1814	3100	1	0.109	292272.472
1814	3101	1	0.109	292272.472
1814	3102	1	0.109	292272.472
1815	2503	1	0.187	29999.278
1815	3103	1	0.109	292272.472
1815	3104	1	0.109	292272.472
1815	3105	1	0.109	292272.472
1816	2512	1	0.187	29999.278
1816	3106	1	0.109	292272.472
1816	3107	1	0.109	292272.472
1816	3108	1	0.109	292272.472
1817	2523	1	0.187	29999.278
1817	3109	1	0.109	292272.472
1817	3110	1	0.109	292272.472
1817	3111	1	0.109	292272.472
1818	2524	1	0.187	29999.278
1818	3112	1	0.109	292272.472
1818	3113	1	0.109	292272.472
1818	3114	1	0.109	292272.472
1819	2525	1	0.187	29999.278
1819	3115	1	0.109	292272.472
1819	3116	1	0.109	292272.472
1819	3117	1	0.109	292272.472
1820	2332	1	0.187	29999.278
1820	3118	1	0.109	292272.472
1820	3119	1	0.109	292272.472
1820	3120	1	0.109	292272.472
1821	2528	1	0.187	29999.278
1821	3121	1	0.109	292272.472
1821	3122	1	0.109	292272.472
1821	3123	1	0.109	292272.472
1822	2527	1	0.187	29999.278
1822	3124	1	0.109	292272.472
1822	3125	1	0.109	292272.472
1822	3126	1	0.109	292272.472
1823	2459	1	0.187	29999.278
1823	3127	1	0.109	292272.472
1823	3128	1	0.109	292272.472
1823	3129	1	0.109	292272.472
1824	2507	1	0.187	29999.278
1824	3130	1	0.109	292272.472
1824	3131	1	0.109	292272.472
1824	3132	1	0.109	292272.472
1825	2430	1	0.187	29999.278
1825	3133	1	0.109	292272.472
1825	3134	1	0.109	292272.472
1825	3135	1	0.109	292272.472
1826	2559	1	0.187	29999.278
1826	3136	1	0.109	292272.472
1826	3137	1	0.109	292272.472
1826	3138	1	0.109	292272.472
1827	2606	1	0.187	29999.278
1827	3139	1	0.109	292272.472
1827	3140	1	0.109	292272.472
1827	3141	1	0.109	292272.472
1828	2695	1	0.187	29999.278
1828	3142	1	0.109	292272.472
1828	3143	1	0.109	292272.472
1828	3144	1	0.109	292272.472
1829	2649	1	0.187	29999.278
1829	3145	1	0.109	292272.472
1829	3146	1	0.109	292272.472
1829	3147	1	0.109	292272.472
1830	2560	1	0.187	29999.278
1830	3148	1	0.109	292272.472
1830	3149	1	0.109	292272.472
1830	3150	1	0.109	292272.472
1831	2708	1	0.187	29999.278
1831	3151	1	0.109	292272.472
1831	3152	1	0.109	292272.472
1831	3153	1	0.109	292272.472
1832	2647	1	0.187	29999.278
1832	3154	1	0.109	292272.472
1832	3155	1	0.109	292272.472
1832	3156	1	0.109	292272.472
1833	2539	1	0.187	29999.278
1833	3157	1	0.109	292272.472
1833	3158	1	0.109	292272.472
1833	3159	1	0.109	292272.472
1834	2673	1	0.187	29999.278
1834	3160	1	0.109	292272.472
1834	3161	1	0.109	292272.472
1834	3162	1	0.109	292272.472
1835	2542	1	0.187	29999.278
1835	3163	1	0.109	292272.472
1835	3164	1	0.109	292272.472
1835	3165	1	0.109	292272.472
1836	2565	1	0.187	29999.278
1836	3166	1	0.109	292272.472
1836	3167	1	0.109	292272.472
1836	3168	1	0.109	292272.472
1837	2546	1	0.187	29999.278
1837	3169	1	0.109	292272.472
1837	3170	1	0.109	292272.472
1837	3171	1	0.109	292272.472
1838	2589	1	0.187	29999.278
1838	3172	1	0.109	292272.472
1838	3173	1	0.109	292272.472
1838	3174	1	0.109	292272.472
1839	2600	1	0.187	29999.278
1839	3175	1	0.109	292272.472
1839	3176	1	0.109	292272.472
1839	3177	1	0.109	292272.472
1840	2536	1	0.187	29999.278
1840	3178	1	0.109	292272.472
1840	3179	1	0.109	292272.472
1840	3180	1	0.109	292272.472
1841	2724	1	0.187	29999.278
1841	3181	1	0.109	292272.472
1841	3182	1	0.109	292272.472
1841	3183	1	0.109	292272.472
1842	2601	1	0.187	29999.278
1842	3184	1	0.109	292272.472
1842	3185	1	0.109	292272.472
1842	3186	1	0.109	292272.472
1843	2531	1	0.187	29999.278
1843	3187	1	0.109	292272.472
1843	3188	1	0.109	292272.472
1843	3189	1	0.109	292272.472
1844	2553	1	0.187	29999.278
1844	3190	1	0.109	292272.472
1844	3191	1	0.109	292272.472
1844	3192	1	0.109	292272.472
1845	2562	1	0.187	29999.278
1845	3193	1	0.109	292272.472
1845	3194	1	0.109	292272.472
1845	3195	1	0.109	292272.472
1846	2584	1	0.187	29999.278
1846	3196	1	0.109	292272.472
1846	3197	1	0.109	292272.472
1846	3198	1	0.109	292272.472
1847	2603	1	0.187	29999.278
1847	3199	1	0.109	292272.472
1847	3200	1	0.109	292272.472
1847	3201	1	0.109	292272.472
1848	2633	1	0.187	29999.278
1848	3202	1	0.109	292272.472
1848	3203	1	0.109	292272.472
1848	3204	1	0.109	292272.472
1849	2653	1	0.187	29999.278
1849	3205	1	0.109	292272.472
1849	3206	1	0.109	292272.472
1849	3207	1	0.109	292272.472
1850	2661	1	0.187	29999.278
1850	3208	1	0.109	292272.472
1850	3209	1	0.109	292272.472
1850	3210	1	0.109	292272.472
1851	2662	1	0.187	29999.278
1851	3211	1	0.109	292272.472
1851	3212	1	0.109	292272.472
1851	3213	1	0.109	292272.472
1852	2689	1	0.187	29999.278
1852	3214	1	0.109	292272.472
1852	3215	1	0.109	292272.472
1852	3216	1	0.109	292272.472
1853	2700	1	0.187	29999.278
1853	3217	1	0.109	292272.472
1853	3218	1	0.109	292272.472
1853	3219	1	0.109	292272.472
1854	2702	1	0.187	29999.278
1854	3220	1	0.109	292272.472
1854	3221	1	0.109	292272.472
1854	3222	1	0.109	292272.472
1855	2705	1	0.187	29999.278
1855	3223	1	0.109	292272.472
1855	3224	1	0.109	292272.472
1855	3225	1	0.109	292272.472
1856	2709	1	0.187	29999.278
1856	3226	1	0.109	292272.472
1856	3227	1	0.109	292272.472
1856	3228	1	0.109	292272.472
1857	2715	1	0.187	29999.278
1857	3229	1	0.109	292272.472
1857	3230	1	0.109	292272.472
1857	3231	1	0.109	292272.472
1858	2734	1	0.187	29999.278
1858	3232	1	0.109	292272.472
1858	3233	1	0.109	292272.472
1858	3234	1	0.109	292272.472
1859	2745	1	0.187	29999.278
1859	3235	1	0.109	292272.472
1859	3236	1	0.109	292272.472
1859	3237	1	0.109	292272.472
1860	2746	1	0.187	29999.278
1860	3238	1	0.109	292272.472
1860	3239	1	0.109	292272.472
1860	3240	1	0.109	292272.472
1861	2747	1	0.187	29999.278
1861	3241	1	0.109	292272.472
1861	3242	1	0.109	292272.472
1861	3243	1	0.109	292272.472
1862	2551	1	0.187	29999.278
1862	3244	1	0.109	292272.472
1862	3245	1	0.109	292272.472
1862	3246	1	0.109	292272.472
1863	2750	1	0.187	29999.278
1863	3247	1	0.109	292272.472
1863	3248	1	0.109	292272.472
1863	3249	1	0.109	292272.472
1864	2749	1	0.187	29999.278
1864	3250	1	0.109	292272.472
1864	3251	1	0.109	292272.472
1864	3252	1	0.109	292272.472
1865	2680	1	0.187	29999.278
1865	3253	1	0.109	292272.472
1865	3254	1	0.109	292272.472
1865	3255	1	0.109	292272.472
1866	2651	1	0.187	29999.278
1866	3256	1	0.109	292272.472
1866	3257	1	0.109	292272.472
1866	3258	1	0.109	292272.472
1867	1898	1	0.187	29999.278
1867	3259	1	0.109	292272.472
1867	3260	1	0.109	292272.472
1867	3261	1	0.109	292272.472
1868	2340	1	0.187	29999.278
1868	3262	1	0.109	292272.472
1868	3263	1	0.109	292272.472
1868	3264	1	0.109	292272.472

[ angles ]
;  ai   aj   ak  funct   angle     fc
1	2015	153	1	109.5	836.8
1	2015	354	1	109.5	836.8
1	2015	604	1	109.5	836.8
1	2057	176	1	109.5	836.8
1	2057	341	1	109.5	836.8
1	2057	563	1	109.5	836.8
2	1877	159	1	109.5	836.8
2	1877	311	1	109.5	836.8
2	1877	351	1	109.5	836.8
2	1879	156	1	109.5	836.8
2	1879	173	1	109.5	836.8
2	1879	293	1	109.5	836.8
3	1905	66	1	109.5	836.8
3	1905	70	1	109.5	836.8
3	1905	204	1	109.5	836.8
3	1927	24	1	109.5	836.8
3	1927	113	1	109.5	836.8
3	1927	345	1	109.5	836.8
4	1975	147	1	109.5	836.8
4	1975	296	1	109.5	836.8
4	1975	302	1	109.5	836.8
4	2021	42	1	109.5	836.8
4	2021	144	1	109.5	836.8
4	2021	275	1	109.5	836.8
5	1989	9	1	109.5	836.8
5	1989	124	1	109.5	836.8
5	1989	225	1	109.5	836.8
5	2011	126	1	109.5	836.8
5	2011	256	1	109.5	836.8
5	2011	257	1	109.5	836.8
6	1967	87	1	109.5	836.8
6	1967	131	1	109.5	836.8
6	1967	291	1	109.5	836.8
6	2155	473	1	109.5	836.8
6	2155	658	1	109.5	836.8
6	2155	666	1	109.5	836.8
7	1943	180	1	109.5	836.8
7	1943	221	1	109.5	836.8
7	1943	272	1	109.5	836.8
7	1987	80	1	109.5	836.8
7	1987	252	1	109.5	836.8
7	1987	308	1	109.5	836.8
8	1876	93	1	109.5	836.8
8	1876	208	1	109.5	836.8
8	1876	367	1	109.5	836.8
8	2064	91	1	109.5	836.8
8	2064	306	1	109.5	836.8
8	2064	388	1	109.5	836.8
9	1920	186	1	109.5	836.8
9	1920	334	1	109.5	836.8
9	1920	869	1	109.5	836.8
9	1989	124	1	109.5	836.8
9	1989	225	1	109.5	836.8
10	1932	68	1	109.5	836.8
10	1932	118	1	109.5	836.8
10	1932	355	1	109.5	836.8
10	2040	66	1	109.5	836.8
10	2040	207	1	109.5	836.8
10	2040	399	1	109.5	836.8
11	2052	378	1	109.5	836.8
11	2052	410	1	109.5	836.8
11	2052	1730	1	109.5	836.8
11	2066	27	1	109.5	836.8
11	2066	196	1	109.5	836.8
11	2066	222	1	109.5	836.8
12	2025	177	1	109.5	836.8
12	2025	316	1	109.5	836.8
12	2025	366	1	109.5	836.8
12	2070	342	1	109.5	836.8
12	2070	364	1	109.5	836.8
12	2070	1732	1	109.5	836.8
13	1874	90	1	109.5	836.8
13	1874	287	1	109.5	836.8
13	1874	289	1	109.5	836.8
13	2387	339	1	109.5	836.8
13	2387	855	1	109.5	836.8
13	2387	917	1	109.5	836.8
14	1945	76	1	109.5	836.8
14	1945	854	1	109.5	836.8
14	1945	1180	1	109.5	836.8
14	2153	232	1	109.5	836.8
14	2153	542	1	109.5	836.8
14	2153	1488	1	109.5	836.8
15	1889	59	1	109.5	836.8
15	1889	125	1	109.5	836.8
15	1889	373	1	109.5	836.8
15	2073	157	1	109.5	836.8
15	2073	193	1	109.5	836.8
15	2073	205	1	109.5	836.8
16	1875	92	1	109.5	836.8
16	1875	174	1	109.5	836.8
16	1875	1713	1	109.5	836.8
16	2035	189	1	109.5	836.8
16	2035	234	1	109.5	836.8
16	2035	338	1	109.5	836.8
17	1931	31	1	109.5	836.8
17	1931	33	1	109.5	836.8
17	1931	154	1	109.5	836.8
17	2002	152	1	109.5	836.8
17	2002	1068	1	109.5	836.8
17	2002	1084	1	109.5	836.8
18	1900	123	1	109.5	836.8
18	1900	192	1	109.5	836.8
18	1900	340	1	109.5	836.8
18	2077	52	1	109.5	836.8
18	2077	209	1	109.5	836.8
18	2077	290	1	109.5	836.8
19	1944	310	1	109.5	836.8
19	1944	887	1	109.5	836.8
19	1944	1701	1	109.5	836.8
19	1966	22	1	109.5	836.8
19	1966	229	1	109.5	836.8
19	1966	265	1	109.5	836.8
20	1906	26	1	109.5	836.8
20	1906	30	1	109.5	836.8
20	1906	110	1	109.5	836.8
20	1962	33	1	109.5	836.8
20	1962	146	1	109.5	836.8
20	1962	156	1	109.5	836.8
21	2080	412	1	109.5	836.8
21	2080	413	1	109.5	836.8
21	2080	414	1	109.5	836.8
21	2378	1016	1	109.5	836.8
21	2378	1072	1	109.5	836.8
21	2378	1155	1	109.5	836.8
22	1880	141	1	109.5	836.8
22	1880	289	1	109.5	836.8
22	1880	1681	1	109.5	836.8
22	1966	229	1	109.5	836.8
22	1966	265	1	109.5	836.8
23	1882	37	1	109.5	836.8
23	1882	252	1	109.5	836.8
23	1882	253	1	109.5	836.8
23	1953	76	1	109.5	836.8
23	1953	241	1	109.5	836.8
23	1953	346	1	109.5	836.8
24	1883	26	1	109.5	836.8
24	1883	383	1	109.5	836.8
24	1883	388	1	109.5	836.8
24	1927	113	1	109.5	836.8
24	1927	345	1	109.5	836.8
25	1960	134	1	109.5	836.8
25	1960	295	1	109.5	836.8
25	1960	817	1	109.5	836.8
25	2069	57	1	109.5	836.8
25	2069	297	1	109.5	836.8
25	2069	374	1	109.5	836.8
26	1883	383	1	109.5	836.8
26	1883	388	1	109.5	836.8
26	1906	30	1	109.5	836.8
26	1906	110	1	109.5	836.8
27	2066	196	1	109.5	836.8
27	2066	222	1	109.5	836.8
27	2075	134	1	109.5	836.8
27	2075	371	1	109.5	836.8
27	2075	372	1	109.5	836.8
28	2008	55	1	109.5	836.8
28	2008	88	1	109.5	836.8
28	2008	260	1	109.5	836.8
28	2362	850	1	109.5	836.8
28	2362	1027	1	109.5	836.8
28	2362	1175	1	109.5	836.8
29	1897	55	1	109.5	836.8
29	1897	114	1	109.5	836.8
29	1897	220	1	109.5	836.8
29	1996	51	1	109.5	836.8
29	1996	89	1	109.5	836.8
29	1996	299	1	109.5	836.8
30	1906	110	1	109.5	836.8
30	2023	44	1	109.5	836.8
30	2023	104	1	109.5	836.8
30	2023	135	1	109.5	836.8
31	1931	33	1	109.5	836.8
31	1931	154	1	109.5	836.8
31	2504	94	1	109.5	836.8
31	2504	989	1	109.5	836.8
31	2504	1001	1	109.5	836.8
32	1959	61	1	109.5	836.8
32	1959	114	1	109.5	836.8
32	1959	250	1	109.5	836.8
32	1992	88	1	109.5	836.8
32	1992	121	1	109.5	836.8
32	1992	299	1	109.5	836.8
33	1931	154	1	109.5	836.8
33	1962	146	1	109.5	836.8
33	1962	156	1	109.5	836.8
34	1913	195	1	109.5	836.8
34	1913	212	1	109.5	836.8
34	1913	224	1	109.5	836.8
34	2038	69	1	109.5	836.8
34	2038	217	1	109.5	836.8
34	2038	368	1	109.5	836.8
35	2059	122	1	109.5	836.8
35	2059	347	1	109.5	836.8
35	2059	370	1	109.5	836.8
35	2170	471	1	109.5	836.8
35	2170	796	1	109.5	836.8
35	2170	807	1	109.5	836.8
36	1894	128	1	109.5	836.8
36	1894	277	1	109.5	836.8
36	1894	1064	1	109.5	836.8
36	2283	407	1	109.5	836.8
36	2283	556	1	109.5	836.8
36	2283	1756	1	109.5	836.8
37	1882	252	1	109.5	836.8
37	1882	253	1	109.5	836.8
37	1914	120	1	109.5	836.8
37	1914	881	1	109.5	836.8
37	1914	1176	1	109.5	836.8
38	2048	256	1	109.5	836.8
38	2048	376	1	109.5	836.8
38	2048	384	1	109.5	836.8
38	2076	75	1	109.5	836.8
38	2076	77	1	109.5	836.8
38	2076	233	1	109.5	836.8
39	1870	191	1	109.5	836.8
39	1870	248	1	109.5	836.8
39	1870	352	1	109.5	836.8
39	1896	234	1	109.5	836.8
39	1896	264	1	109.5	836.8
39	1896	387	1	109.5	836.8
40	1997	65	1	109.5	836.8
40	1997	94	1	109.5	836.8
40	1997	304	1	109.5	836.8
40	2356	335	1	109.5	836.8
40	2356	878	1	109.5	836.8
40	2356	961	1	109.5	836.8
41	1963	51	1	109.5	836.8
41	1963	386	1	109.5	836.8
41	1963	390	1	109.5	836.8
41	2003	182	1	109.5	836.8
41	2003	230	1	109.5	836.8
41	2003	242	1	109.5	836.8
42	2021	144	1	109.5	836.8
42	2021	275	1	109.5	836.8
42	2079	346	1	109.5	836.8
42	2079	353	1	109.5	836.8
42	2079	722	1	109.5	836.8
43	1918	240	1	109.5	836.8
43	1918	247	1	109.5	836.8
43	1918	379	1	109.5	836.8
43	1934	269	1	109.5	836.8
43	1934	319	1	109.5	836.8
43	1934	387	1	109.5	836.8
44	1899	79	1	109.5	836.8
44	1899	368	1	109.5	836.8
44	1899	1704	1	109.5	836.8
44	2023	104	1	109.5	836.8
44	2023	135	1	109.5	836.8
45	2034	72	1	109.5	836.8
45	2034	317	1	109.5	836.8
45	2034	343	1	109.5	836.8
45	2078	163	1	109.5	836.8
45	2078	165	1	109.5	836.8
45	2078	389	1	109.5	836.8
46	2386	860	1	109.5	836.8
46	2386	1151	1	109.5	836.8
46	2386	1782	1	109.5	836.8
46	2759	415	1	109.5	836.8
46	2759	1255	1	109.5	836.8
46	2759	1699	1	109.5	836.8
47	2018	138	1	109.5	836.8
47	2018	184	1	109.5	836.8
47	2018	379	1	109.5	836.8
47	2026	174	1	109.5	836.8
47	2026	358	1	109.5	836.8
47	2026	1725	1	109.5	836.8
48	1910	63	1	109.5	836.8
48	1910	87	1	109.5	836.8
48	1910	95	1	109.5	836.8
48	2313	1162	1	109.5	836.8
48	2313	1242	1	109.5	836.8
48	2313	1799	1	109.5	836.8
49	1907	60	1	109.5	836.8
49	1907	123	1	109.5	836.8
49	1907	309	1	109.5	836.8
49	1981	255	1	109.5	836.8
49	1981	356	1	109.5	836.8
49	1981	377	1	109.5	836.8
50	1895	58	1	109.5	836.8
50	1895	202	1	109.5	836.8
50	1895	328	1	109.5	836.8
50	2004	130	1	109.5	836.8
50	2004	322	1	109.5	836.8
50	2004	401	1	109.5	836.8
51	1963	386	1	109.5	836.8
51	1963	390	1	109.5	836.8
51	1996	89	1	109.5	836.8
51	1996	299	1	109.5	836.8
52	1985	153	1	109.5	836.8
52	1985	242	1	109.5	836.8
52	1985	259	1	109.5	836.8
52	2077	209	1	109.5	836.8
52	2077	290	1	109.5	836.8
53	2042	342	1	109.5	836.8
53	2042	409	1	109.5	836.8
53	2042	1728	1	109.5	836.8
53	2047	197	1	109.5	836.8
53	2047	198	1	109.5	836.8
53	2047	199	1	109.5	836.8
54	1921	85	1	109.5	836.8
54	1921	155	1	109.5	836.8
54	1921	341	1	109.5	836.8
54	2058	360	1	109.5	836.8
54	2058	380	1	109.5	836.8
54	2058	385	1	109.5	836.8
55	1897	114	1	109.5	836.8
55	1897	220	1	109.5	836.8
55	2008	88	1	109.5	836.8
55	2008	260	1	109.5	836.8
56	1887	73	1	109.5	836.8
56	1887	245	1	109.5	836.8
56	1887	246	1	109.5	836.8
56	2050	98	1	109.5	836.8
56	2050	110	1	109.5	836.8
56	2050	293	1	109.5	836.8
57	1952	223	1	109.5	836.8
57	1952	236	1	109.5	836.8
57	1952	258	1	109.5	836.8
57	2069	297	1	109.5	836.8
57	2069	374	1	109.5	836.8
58	1895	202	1	109.5	836.8
58	1895	328	1	109.5	836.8
58	2055	138	1	109.5	836.8
58	2055	343	1	109.5	836.8
58	2055	352	1	109.5	836.8
59	1889	125	1	109.5	836.8
59	1889	373	1	109.5	836.8
59	1950	103	1	109.5	836.8
59	1950	238	1	109.5	836.8
59	1950	318	1	109.5	836.8
60	1907	123	1	109.5	836.8
60	1907	309	1	109.5	836.8
60	2036	330	1	109.5	836.8
60	2036	337	1	109.5	836.8
60	2036	345	1	109.5	836.8
61	1909	99	1	109.5	836.8
61	1909	172	1	109.5	836.8
61	1909	227	1	109.5	836.8
61	1959	114	1	109.5	836.8
61	1959	250	1	109.5	836.8
62	2030	146	1	109.5	836.8
62	2030	261	1	109.5	836.8
62	2030	399	1	109.5	836.8
62	2419	989	1	109.5	836.8
62	2419	1103	1	109.5	836.8
62	2419	1190	1	109.5	836.8
63	1910	87	1	109.5	836.8
63	1910	95	1	109.5	836.8
63	2045	210	1	109.5	836.8
63	2045	331	1	109.5	836.8
63	2045	1705	1	109.5	836.8
64	1942	96	1	109.5	836.8
64	1942	321	1	109.5	836.8
64	1942	972	1	109.5	836.8
64	1965	169	1	109.5	836.8
64	1965	334	1	109.5	836.8
64	1965	936	1	109.5	836.8
65	1982	112	1	109.5	836.8
65	1982	181	1	109.5	836.8
65	1982	270	1	109.5	836.8
65	1997	94	1	109.5	836.8
65	1997	304	1	109.5	836.8
66	1905	70	1	109.5	836.8
66	1905	204	1	109.5	836.8
66	2040	207	1	109.5	836.8
66	2040	399	1	109.5	836.8
67	1872	77	1	109.5	836.8
67	1872	169	1	109.5	836.8
67	1872	186	1	109.5	836.8
67	1915	84	1	109.5	836.8
67	1915	140	1	109.5	836.8
67	1915	249	1	109.5	836.8
68	1884	73	1	109.5	836.8
68	1884	84	1	109.5	836.8
68	1884	218	1	109.5	836.8
68	1932	118	1	109.5	836.8
68	1932	355	1	109.5	836.8
69	1971	135	1	109.5	836.8
69	1971	207	1	109.5	836.8
69	1971	350	1	109.5	836.8
69	2038	217	1	109.5	836.8
69	2038	368	1	109.5	836.8
70	1905	204	1	109.5	836.8
70	1935	167	1	109.5	836.8
70	1935	217	1	109.5	836.8
70	1935	375	1	109.5	836.8
71	1912	129	1	109.5	836.8
71	1912	183	1	109.5	836.8
71	1912	245	1	109.5	836.8
71	1969	177	1	109.5	836.8
71	1969	188	1	109.5	836.8
71	1969	393	1	109.5	836.8
72	2034	317	1	109.5	836.8
72	2034	343	1	109.5	836.8
72	2049	197	1	109.5	836.8
72	2049	280	1	109.5	836.8
72	2049	386	1	109.5	836.8
73	1884	84	1	109.5	836.8
73	1884	218	1	109.5	836.8
73	1887	245	1	109.5	836.8
73	1887	246	1	109.5	836.8
74	1951	81	1	109.5	836.8
74	1951	336	1	109.5	836.8
74	1951	371	1	109.5	836.8
74	1972	93	1	109.5	836.8
74	1972	144	1	109.5	836.8
74	1972	327	1	109.5	836.8
75	2054	82	1	109.5	836.8
75	2054	300	1	109.5	836.8
75	2054	393	1	109.5	836.8
75	2076	77	1	109.5	836.8
75	2076	233	1	109.5	836.8
76	1945	854	1	109.5	836.8
76	1945	1180	1	109.5	836.8
76	1953	241	1	109.5	836.8
76	1953	346	1	109.5	836.8
77	1872	169	1	109.5	836.8
77	1872	186	1	109.5	836.8
77	2076	233	1	109.5	836.8
78	1924	102	1	109.5	836.8
78	1924	285	1	109.5	836.8
78	1924	373	1	109.5	836.8
78	1988	315	1	109.5	836.8
78	1988	411	1	109.5	836.8
78	1988	1740	1	109.5	836.8
79	1899	368	1	109.5	836.8
79	1899	1704	1	109.5	836.8
79	2071	281	1	109.5	836.8
79	2071	324	1	109.5	836.8
79	2071	375	1	109.5	836.8
80	1940	165	1	109.5	836.8
80	1940	216	1	109.5	836.8
80	1940	313	1	109.5	836.8
80	1987	252	1	109.5	836.8
80	1987	308	1	109.5	836.8
81	1951	336	1	109.5	836.8
81	1951	371	1	109.5	836.8
81	2024	276	1	109.5	836.8
81	2024	323	1	109.5	836.8
81	2024	359	1	109.5	836.8
82	1979	246	1	109.5	836.8
82	1979	344	1	109.5	836.8
82	1979	376	1	109.5	836.8
82	2054	300	1	109.5	836.8
82	2054	393	1	109.5	836.8
83	1976	98	1	109.5	836.8
83	1976	332	1	109.5	836.8
83	1976	394	1	109.5	836.8
83	2067	192	1	109.5	836.8
83	2067	204	1	109.5	836.8
83	2067	344	1	109.5	836.8
84	1884	218	1	109.5	836.8
84	1915	140	1	109.5	836.8
84	1915	249	1	109.5	836.8
85	1886	213	1	109.5	836.8
85	1886	233	1	109.5	836.8
85	1886	283	1	109.5	836.8
85	1921	155	1	109.5	836.8
85	1921	341	1	109.5	836.8
86	1893	170	1	109.5	836.8
86	1893	188	1	109.5	836.8
86	1893	191	1	109.5	836.8
86	1926	116	1	109.5	836.8
86	1926	206	1	109.5	836.8
86	1926	249	1	109.5	836.8
87	1910	95	1	109.5	836.8
87	1967	131	1	109.5	836.8
87	1967	291	1	109.5	836.8
88	1992	121	1	109.5	836.8
88	1992	299	1	109.5	836.8
88	2008	260	1	109.5	836.8
89	1996	299	1	109.5	836.8
89	2056	268	1	109.5	836.8
89	2056	354	1	109.5	836.8
89	2056	400	1	109.5	836.8
90	1874	287	1	109.5	836.8
90	1874	289	1	109.5	836.8
90	1919	391	1	109.5	836.8
90	1919	395	1	109.5	836.8
90	1919	549	1	109.5	836.8
91	2020	108	1	109.5	836.8
91	2020	336	1	109.5	836.8
91	2020	374	1	109.5	836.8
91	2064	306	1	109.5	836.8
91	2064	388	1	109.5	836.8
92	1875	174	1	109.5	836.8
92	1875	1713	1	109.5	836.8
92	2017	179	1	109.5	836.8
92	2017	305	1	109.5	836.8
92	2017	1739	1	109.5	836.8
93	1876	208	1	109.5	836.8
93	1876	367	1	109.5	836.8
93	1972	144	1	109.5	836.8
93	1972	327	1	109.5	836.8
94	1997	304	1	109.5	836.8
94	2504	989	1	109.5	836.8
94	2504	1001	1	109.5	836.8
95	2407	905	1	109.5	836.8
95	2407	1010	1	109.5	836.8
95	2407	1175	1	109.5	836.8
96	1942	321	1	109.5	836.8
96	1942	972	1	109.5	836.8
96	2012	115	1	109.5	836.8
96	2012	303	1	109.5	836.8
96	2012	603	1	109.5	836.8
97	1955	129	1	109.5	836.8
97	1955	181	1	109.5	836.8
97	1955	248	1	109.5	836.8
97	2022	143	1	109.5	836.8
97	2022	147	1	109.5	836.8
97	2022	319	1	109.5	836.8
98	1976	332	1	109.5	836.8
98	1976	394	1	109.5	836.8
98	2050	110	1	109.5	836.8
98	2050	293	1	109.5	836.8
99	1909	172	1	109.5	836.8
99	1909	227	1	109.5	836.8
99	1973	193	1	109.5	836.8
99	1973	363	1	109.5	836.8
99	1973	1058	1	109.5	836.8
100	1892	115	1	109.5	836.8
100	1892	137	1	109.5	836.8
100	1892	1717	1	109.5	836.8
100	1922	139	1	109.5	836.8
100	1922	213	1	109.5	836.8
100	1922	385	1	109.5	836.8
101	1923	281	1	109.5	836.8
101	1923	288	1	109.5	836.8
101	1923	1720	1	109.5	836.8
101	2037	122	1	109.5	836.8
101	2037	408	1	109.5	836.8
101	2037	1726	1	109.5	836.8
102	1924	285	1	109.5	836.8
102	1924	373	1	109.5	836.8
102	2416	157	1	109.5	836.8
102	2416	1133	1	109.5	836.8
102	2416	1191	1	109.5	836.8
103	1950	238	1	109.5	836.8
103	1950	318	1	109.5	836.8
103	2043	162	1	109.5	836.8
103	2043	215	1	109.5	836.8
103	2043	349	1	109.5	836.8
104	1990	132	1	109.5	836.8
104	1990	406	1	109.5	836.8
104	1990	1723	1	109.5	836.8
104	2023	135	1	109.5	836.8
105	1904	326	1	109.5	836.8
105	1904	405	1	109.5	836.8
105	1904	1709	1	109.5	836.8
105	1928	113	1	109.5	836.8
105	1928	324	1	109.5	836.8
105	1928	1711	1	109.5	836.8
106	2000	117	1	109.5	836.8
106	2000	312	1	109.5	836.8
106	2000	1685	1	109.5	836.8
106	2083	240	1	109.5	836.8
106	2083	251	1	109.5	836.8
106	2083	1735	1	109.5	836.8
107	1898	258	1	109.5	836.8
107	1898	1718	1	109.5	836.8
107	1898	1867	1	109.5	836.8
107	1941	263	1	109.5	836.8
107	1941	398	1	109.5	836.8
107	1941	1721	1	109.5	836.8
108	2013	161	1	109.5	836.8
108	2013	276	1	109.5	836.8
108	2013	326	1	109.5	836.8
108	2020	336	1	109.5	836.8
108	2020	374	1	109.5	836.8
109	1939	285	1	109.5	836.8
109	1939	347	1	109.5	836.8
109	1939	1715	1	109.5	836.8
109	1998	128	1	109.5	836.8
109	1998	370	1	109.5	836.8
109	1998	407	1	109.5	836.8
110	2050	293	1	109.5	836.8
111	1956	136	1	109.5	836.8
111	1956	272	1	109.5	836.8
111	1956	389	1	109.5	836.8
111	2051	317	1	109.5	836.8
111	2051	320	1	109.5	836.8
111	2051	333	1	109.5	836.8
112	1980	229	1	109.5	836.8
112	1980	287	1	109.5	836.8
112	1980	335	1	109.5	836.8
112	1982	181	1	109.5	836.8
112	1982	270	1	109.5	836.8
113	1927	345	1	109.5	836.8
113	1928	324	1	109.5	836.8
113	1928	1711	1	109.5	836.8
114	1897	220	1	109.5	836.8
114	1959	250	1	109.5	836.8
115	1892	137	1	109.5	836.8
115	1892	1717	1	109.5	836.8
115	2012	303	1	109.5	836.8
115	2012	603	1	109.5	836.8
116	1902	173	1	109.5	836.8
116	1902	261	1	109.5	836.8
116	1902	304	1	109.5	836.8
116	1926	206	1	109.5	836.8
116	1926	249	1	109.5	836.8
117	1964	226	1	109.5	836.8
117	1964	239	1	109.5	836.8
117	1964	243	1	109.5	836.8
117	2000	312	1	109.5	836.8
117	2000	1685	1	109.5	836.8
118	1911	127	1	109.5	836.8
118	1911	166	1	109.5	836.8
118	1911	257	1	109.5	836.8
118	1932	355	1	109.5	836.8
119	1933	431	1	109.5	836.8
119	1933	655	1	109.5	836.8
119	1933	1065	1	109.5	836.8
119	1947	121	1	109.5	836.8
119	1947	254	1	109.5	836.8
119	1947	667	1	109.5	836.8
120	1914	881	1	109.5	836.8
120	1914	1176	1	109.5	836.8
120	1949	200	1	109.5	836.8
120	1949	262	1	109.5	836.8
120	1949	1046	1	109.5	836.8
121	1947	254	1	109.5	836.8
121	1947	667	1	109.5	836.8
121	1992	299	1	109.5	836.8
122	2037	408	1	109.5	836.8
122	2037	1726	1	109.5	836.8
122	2059	347	1	109.5	836.8
122	2059	370	1	109.5	836.8
123	1900	192	1	109.5	836.8
123	1900	340	1	109.5	836.8
123	1907	309	1	109.5	836.8
124	1989	225	1	109.5	836.8
124	2451	1091	1	109.5	836.8
124	2451	1189	1	109.5	836.8
124	2451	1204	1	109.5	836.8
125	1889	373	1	109.5	836.8
125	2041	315	1	109.5	836.8
125	2041	325	1	109.5	836.8
125	2041	337	1	109.5	836.8
126	2011	256	1	109.5	836.8
126	2011	257	1	109.5	836.8
126	2139	511	1	109.5	836.8
126	2139	816	1	109.5	836.8
126	2139	820	1	109.5	836.8
127	1911	166	1	109.5	836.8
127	1911	257	1	109.5	836.8
127	1937	212	1	109.5	836.8
127	1937	396	1	109.5	836.8
127	1937	533	1	109.5	836.8
128	1894	277	1	109.5	836.8
128	1894	1064	1	109.5	836.8
128	1998	370	1	109.5	836.8
128	1998	407	1	109.5	836.8
129	1912	183	1	109.5	836.8
129	1912	245	1	109.5	836.8
129	1955	181	1	109.5	836.8
129	1955	248	1	109.5	836.8
130	2004	322	1	109.5	836.8
130	2004	401	1	109.5	836.8
130	2350	1050	1	109.5	836.8
130	2350	1120	1	109.5	836.8
130	2350	1148	1	109.5	836.8
131	1967	291	1	109.5	836.8
131	2384	905	1	109.5	836.8
131	2384	937	1	109.5	836.8
131	2384	1162	1	109.5	836.8
132	1970	292	1	109.5	836.8
132	1970	1019	1	109.5	836.8
132	1970	1722	1	109.5	836.8
132	1990	406	1	109.5	836.8
132	1990	1723	1	109.5	836.8
133	1993	402	1	109.5	836.8
133	1993	1239	1	109.5	836.8
133	1993	1697	1	109.5	836.8
133	2061	454	1	109.5	836.8
133	2061	1714	1	109.5	836.8
133	2061	1731	1	109.5	836.8
134	1960	295	1	109.5	836.8
134	1960	817	1	109.5	836.8
134	2075	371	1	109.5	836.8
134	2075	372	1	109.5	836.8
135	1971	207	1	109.5	836.8
135	1971	350	1	109.5	836.8
136	1873	151	1	109.5	836.8
136	1873	312	1	109.5	836.8
136	1873	329	1	109.5	836.8
136	1956	272	1	109.5	836.8
136	1956	389	1	109.5	836.8
137	1892	1717	1	109.5	836.8
137	1938	155	1	109.5	836.8
137	1938	674	1	109.5	836.8
137	1938	1712	1	109.5	836.8
138	2018	184	1	109.5	836.8
138	2018	379	1	109.5	836.8
138	2055	343	1	109.5	836.8
138	2055	352	1	109.5	836.8
139	1922	213	1	109.5	836.8
139	1922	385	1	109.5	836.8
139	2060	150	1	109.5	836.8
139	2060	316	1	109.5	836.8
139	2060	322	1	109.5	836.8
140	1915	249	1	109.5	836.8
140	2330	1060	1	109.5	836.8
140	2330	1107	1	109.5	836.8
140	2330	1148	1	109.5	836.8
141	1880	289	1	109.5	836.8
141	1880	1681	1	109.5	836.8
141	2755	1155	1	109.5	836.8
141	2755	1524	1	109.5	836.8
141	2755	1692	1	109.5	836.8
142	1991	149	1	109.5	836.8
142	1991	353	1	109.5	836.8
142	1991	1683	1	109.5	836.8
142	2149	660	1	109.5	836.8
142	2149	700	1	109.5	836.8
142	2149	1682	1	109.5	836.8
143	2022	147	1	109.5	836.8
143	2022	319	1	109.5	836.8
143	2031	163	1	109.5	836.8
143	2031	194	1	109.5	836.8
143	2031	367	1	109.5	836.8
144	1972	327	1	109.5	836.8
144	2021	275	1	109.5	836.8
145	2046	361	1	109.5	836.8
145	2046	397	1	109.5	836.8
145	2046	1729	1	109.5	836.8
145	2526	1253	1	109.5	836.8
145	2526	1255	1	109.5	836.8
145	2526	1256	1	109.5	836.8
146	1962	156	1	109.5	836.8
146	2030	261	1	109.5	836.8
146	2030	399	1	109.5	836.8
147	1975	296	1	109.5	836.8
147	1975	302	1	109.5	836.8
147	2022	319	1	109.5	836.8
148	1977	262	1	109.5	836.8
148	1977	349	1	109.5	836.8
148	1977	903	1	109.5	836.8
148	2062	160	1	109.5	836.8
148	2062	872	1	109.5	836.8
148	2062	935	1	109.5	836.8
149	1991	353	1	109.5	836.8
149	1991	1683	1	109.5	836.8
149	2019	190	1	109.5	836.8
149	2019	228	1	109.5	836.8
149	2019	241	1	109.5	836.8
150	1901	328	1	109.5	836.8
150	1901	409	1	109.5	836.8
150	1901	1719	1	109.5	836.8
150	2060	316	1	109.5	836.8
150	2060	322	1	109.5	836.8
151	1873	312	1	109.5	836.8
151	1873	329	1	109.5	836.8
151	1891	189	1	109.5	836.8
151	1891	269	1	109.5	836.8
151	1891	1687	1	109.5	836.8
152	2001	339	1	109.5	836.8
152	2001	1686	1	109.5	836.8
152	2001	1690	1	109.5	836.8
152	2002	1068	1	109.5	836.8
152	2002	1084	1	109.5	836.8
153	1985	242	1	109.5	836.8
153	1985	259	1	109.5	836.8
153	2015	354	1	109.5	836.8
153	2015	604	1	109.5	836.8
154	1881	263	1	109.5	836.8
154	1881	381	1	109.5	836.8
154	1881	1708	1	109.5	836.8
155	1921	341	1	109.5	836.8
155	1938	674	1	109.5	836.8
155	1938	1712	1	109.5	836.8
156	1879	173	1	109.5	836.8
156	1879	293	1	109.5	836.8
157	2073	193	1	109.5	836.8
157	2073	205	1	109.5	836.8
157	2416	1133	1	109.5	836.8
157	2416	1191	1	109.5	836.8
158	1917	175	1	109.5	836.8
158	1917	219	1	109.5	836.8
158	1917	244	1	109.5	836.8
158	2027	275	1	109.5	836.8
158	2027	308	1	109.5	836.8
158	2027	362	1	109.5	836.8
159	1877	311	1	109.5	836.8
159	1877	351	1	109.5	836.8
159	2005	264	1	109.5	836.8
159	2005	270	1	109.5	836.8
159	2005	395	1	109.5	836.8
160	1930	215	1	109.5	836.8
160	1930	253	1	109.5	836.8
160	1930	327	1	109.5	836.8
160	2062	872	1	109.5	836.8
160	2062	935	1	109.5	836.8
161	1948	294	1	109.5	836.8
161	1948	318	1	109.5	836.8
161	1948	325	1	109.5	836.8
161	2013	276	1	109.5	836.8
161	2013	326	1	109.5	836.8
162	2043	215	1	109.5	836.8
162	2043	349	1	109.5	836.8
162	2044	168	1	109.5	836.8
162	2044	211	1	109.5	836.8
162	2044	214	1	109.5	836.8
163	2031	194	1	109.5	836.8
163	2031	367	1	109.5	836.8
163	2078	165	1	109.5	836.8
163	2078	389	1	109.5	836.8
164	1983	168	1	109.5	836.8
164	1983	172	1	109.5	836.8
164	1983	377	1	109.5	836.8
164	2028	230	1	109.5	836.8
164	2028	301	1	109.5	836.8
164	2028	309	1	109.5	836.8
165	1940	216	1	109.5	836.8
165	1940	313	1	109.5	836.8
165	2078	389	1	109.5	836.8
166	1911	257	1	109.5	836.8
166	2029	167	1	109.5	836.8
166	2029	271	1	109.5	836.8
166	2029	340	1	109.5	836.8
167	1935	217	1	109.5	836.8
167	1935	375	1	109.5	836.8
167	2029	271	1	109.5	836.8
167	2029	340	1	109.5	836.8
168	1983	172	1	109.5	836.8
168	1983	377	1	109.5	836.8
168	2044	211	1	109.5	836.8
168	2044	214	1	109.5	836.8
169	1872	186	1	109.5	836.8
169	1965	334	1	109.5	836.8
169	1965	936	1	109.5	836.8
170	1893	188	1	109.5	836.8
170	1893	191	1	109.5	836.8
170	1957	171	1	109.5	836.8
170	1957	274	1	109.5	836.8
170	1957	417	1	109.5	836.8
171	1957	274	1	109.5	836.8
171	1957	417	1	109.5	836.8
171	1968	184	1	109.5	836.8
171	1968	202	1	109.5	836.8
171	1968	265	1	109.5	836.8
172	1909	227	1	109.5	836.8
172	1983	377	1	109.5	836.8
173	1879	293	1	109.5	836.8
173	1902	261	1	109.5	836.8
173	1902	304	1	109.5	836.8
174	1875	1713	1	109.5	836.8
174	2026	358	1	109.5	836.8
174	2026	1725	1	109.5	836.8
175	1917	219	1	109.5	836.8
175	1917	244	1	109.5	836.8
175	1936	232	1	109.5	836.8
175	1936	314	1	109.5	836.8
175	1936	862	1	109.5	836.8
176	2057	341	1	109.5	836.8
176	2057	563	1	109.5	836.8
176	2074	182	1	109.5	836.8
176	2074	209	1	109.5	836.8
176	2074	384	1	109.5	836.8
177	1969	188	1	109.5	836.8
177	1969	393	1	109.5	836.8
177	2025	316	1	109.5	836.8
177	2025	366	1	109.5	836.8
178	1885	231	1	109.5	836.8
178	1885	238	1	109.5	836.8
178	1885	1710	1	109.5	836.8
178	2412	973	1	109.5	836.8
178	2412	1133	1	109.5	836.8
178	2412	1805	1	109.5	836.8
179	2017	305	1	109.5	836.8
179	2017	1739	1	109.5	836.8
179	2234	517	1	109.5	836.8
179	2234	538	1	109.5	836.8
179	2234	727	1	109.5	836.8
180	1943	221	1	109.5	836.8
180	1943	272	1	109.5	836.8
180	1946	219	1	109.5	836.8
180	1946	273	1	109.5	836.8
180	1946	365	1	109.5	836.8
181	1955	248	1	109.5	836.8
181	1982	270	1	109.5	836.8
182	2003	230	1	109.5	836.8
182	2003	242	1	109.5	836.8
182	2074	209	1	109.5	836.8
182	2074	384	1	109.5	836.8
183	1912	245	1	109.5	836.8
183	1958	194	1	109.5	836.8
183	1958	332	1	109.5	836.8
183	1958	357	1	109.5	836.8
184	1968	202	1	109.5	836.8
184	1968	265	1	109.5	836.8
184	2018	379	1	109.5	836.8
185	1999	201	1	109.5	836.8
185	1999	222	1	109.5	836.8
185	1999	1724	1	109.5	836.8
185	2032	282	1	109.5	836.8
185	2032	383	1	109.5	836.8
185	2032	1702	1	109.5	836.8
186	1920	334	1	109.5	836.8
186	1920	869	1	109.5	836.8
187	1890	403	1	109.5	836.8
187	1890	649	1	109.5	836.8
187	1890	1736	1	109.5	836.8
187	2033	268	1	109.5	836.8
187	2033	528	1	109.5	836.8
187	2033	789	1	109.5	836.8
188	1893	191	1	109.5	836.8
188	1969	393	1	109.5	836.8
189	1891	269	1	109.5	836.8
189	1891	1687	1	109.5	836.8
189	2035	234	1	109.5	836.8
189	2035	338	1	109.5	836.8
190	2006	231	1	109.5	836.8
190	2006	323	1	109.5	836.8
190	2006	402	1	109.5	836.8
190	2019	228	1	109.5	836.8
190	2019	241	1	109.5	836.8
191	1870	248	1	109.5	836.8
191	1870	352	1	109.5	836.8
192	1900	340	1	109.5	836.8
192	2067	204	1	109.5	836.8
192	2067	344	1	109.5	836.8
193	1973	363	1	109.5	836.8
193	1973	1058	1	109.5	836.8
193	2073	205	1	109.5	836.8
194	1958	332	1	109.5	836.8
194	1958	357	1	109.5	836.8
194	2031	367	1	109.5	836.8
195	1913	212	1	109.5	836.8
195	1913	224	1	109.5	836.8
195	1925	355	1	109.5	836.8
195	1925	1045	1	109.5	836.8
195	1925	1108	1	109.5	836.8
196	2065	359	1	109.5	836.8
196	2065	382	1	109.5	836.8
196	2065	410	1	109.5	836.8
196	2066	222	1	109.5	836.8
197	2047	198	1	109.5	836.8
197	2047	199	1	109.5	836.8
197	2049	280	1	109.5	836.8
197	2049	386	1	109.5	836.8
198	2010	284	1	109.5	836.8
198	2010	331	1	109.5	836.8
198	2010	1707	1	109.5	836.8
198	2047	199	1	109.5	836.8
199	1916	380	1	109.5	836.8
199	1916	400	1	109.5	836.8
199	1916	404	1	109.5	836.8
200	1949	262	1	109.5	836.8
200	1949	1046	1	109.5	836.8
200	1978	216	1	109.5	836.8
200	1978	227	1	109.5	836.8
200	1978	266	1	109.5	836.8
201	1878	282	1	109.5	836.8
201	1878	381	1	109.5	836.8
201	1878	406	1	109.5	836.8
201	1999	222	1	109.5	836.8
201	1999	1724	1	109.5	836.8
202	1895	328	1	109.5	836.8
202	1968	265	1	109.5	836.8
203	2014	311	1	109.5	836.8
203	2014	369	1	109.5	836.8
203	2014	391	1	109.5	836.8
203	2754	223	1	109.5	836.8
203	2754	694	1	109.5	836.8
203	2754	821	1	109.5	836.8
204	2067	344	1	109.5	836.8
205	2367	267	1	109.5	836.8
205	2367	1036	1	109.5	836.8
205	2367	1196	1	109.5	836.8
206	1926	249	1	109.5	836.8
206	2391	961	1	109.5	836.8
206	2391	1041	1	109.5	836.8
206	2391	1103	1	109.5	836.8
207	1971	350	1	109.5	836.8
207	2040	399	1	109.5	836.8
208	1876	367	1	109.5	836.8
208	1954	211	1	109.5	836.8
208	1954	286	1	109.5	836.8
208	1954	313	1	109.5	836.8
209	2074	384	1	109.5	836.8
209	2077	290	1	109.5	836.8
210	1908	279	1	109.5	836.8
210	1908	307	1	109.5	836.8
210	1908	971	1	109.5	836.8
210	2045	331	1	109.5	836.8
210	2045	1705	1	109.5	836.8
211	1954	286	1	109.5	836.8
211	1954	313	1	109.5	836.8
211	2044	214	1	109.5	836.8
212	1913	224	1	109.5	836.8
212	1937	396	1	109.5	836.8
212	1937	533	1	109.5	836.8
213	1886	233	1	109.5	836.8
213	1886	283	1	109.5	836.8
213	1922	385	1	109.5	836.8
214	1903	294	1	109.5	836.8
214	1903	330	1	109.5	836.8
214	1903	394	1	109.5	836.8
215	1930	253	1	109.5	836.8
215	1930	327	1	109.5	836.8
215	2043	349	1	109.5	836.8
216	1940	313	1	109.5	836.8
216	1978	227	1	109.5	836.8
216	1978	266	1	109.5	836.8
217	1935	375	1	109.5	836.8
217	2038	368	1	109.5	836.8
218	2415	940	1	109.5	836.8
218	2415	1034	1	109.5	836.8
218	2415	1204	1	109.5	836.8
219	1917	244	1	109.5	836.8
219	1946	273	1	109.5	836.8
219	1946	365	1	109.5	836.8
220	1888	266	1	109.5	836.8
220	1888	307	1	109.5	836.8
220	1888	981	1	109.5	836.8
221	1943	272	1	109.5	836.8
221	2087	239	1	109.5	836.8
221	2087	415	1	109.5	836.8
221	2087	1737	1	109.5	836.8
222	1999	1724	1	109.5	836.8
223	1952	236	1	109.5	836.8
223	1952	258	1	109.5	836.8
223	2754	694	1	109.5	836.8
223	2754	821	1	109.5	836.8
224	2336	877	1	109.5	836.8
224	2336	969	1	109.5	836.8
224	2336	1118	1	109.5	836.8
225	2375	960	1	109.5	836.8
225	2375	1270	1	109.5	836.8
225	2375	1495	1	109.5	836.8
226	1964	239	1	109.5	836.8
226	1964	243	1	109.5	836.8
226	2110	612	1	109.5	836.8
226	2110	828	1	109.5	836.8
226	2110	1777	1	109.5	836.8
227	1978	266	1	109.5	836.8
228	2019	241	1	109.5	836.8
228	2444	858	1	109.5	836.8
228	2444	993	1	109.5	836.8
228	2444	1697	1	109.5	836.8
229	1966	265	1	109.5	836.8
229	1980	287	1	109.5	836.8
229	1980	335	1	109.5	836.8
230	2003	242	1	109.5	836.8
230	2028	301	1	109.5	836.8
230	2028	309	1	109.5	836.8
231	1885	238	1	109.5	836.8
231	1885	1710	1	109.5	836.8
231	2006	323	1	109.5	836.8
231	2006	402	1	109.5	836.8
232	1936	314	1	109.5	836.8
232	1936	862	1	109.5	836.8
232	2153	542	1	109.5	836.8
232	2153	1488	1	109.5	836.8
233	1886	283	1	109.5	836.8
234	1896	264	1	109.5	836.8
234	1896	387	1	109.5	836.8
234	2035	338	1	109.5	836.8
235	2527	1146	1	109.5	836.8
235	2527	1252	1	109.5	836.8
235	2527	1822	1	109.5	836.8
235	2752	243	1	109.5	836.8
235	2752	423	1	109.5	836.8
235	2752	1684	1	109.5	836.8
236	1952	258	1	109.5	836.8
236	2217	378	1	109.5	836.8
236	2217	712	1	109.5	836.8
236	2217	817	1	109.5	836.8
237	1929	277	1	109.5	836.8
237	1929	457	1	109.5	836.8
237	1929	566	1	109.5	836.8
237	1994	267	1	109.5	836.8
237	1994	348	1	109.5	836.8
237	1994	356	1	109.5	836.8
238	1885	1710	1	109.5	836.8
238	1950	318	1	109.5	836.8
239	1964	243	1	109.5	836.8
239	2087	415	1	109.5	836.8
239	2087	1737	1	109.5	836.8
240	1918	247	1	109.5	836.8
240	1918	379	1	109.5	836.8
240	2083	251	1	109.5	836.8
240	2083	1735	1	109.5	836.8
241	1953	346	1	109.5	836.8
242	1985	259	1	109.5	836.8
243	2752	423	1	109.5	836.8
243	2752	1684	1	109.5	836.8
244	2168	542	1	109.5	836.8
244	2168	544	1	109.5	836.8
244	2168	677	1	109.5	836.8
245	1887	246	1	109.5	836.8
246	1979	344	1	109.5	836.8
246	1979	376	1	109.5	836.8
247	1918	379	1	109.5	836.8
247	2053	320	1	109.5	836.8
247	2053	358	1	109.5	836.8
247	2053	364	1	109.5	836.8
248	1870	352	1	109.5	836.8
250	2009	348	1	109.5	836.8
250	2009	363	1	109.5	836.8
250	2009	965	1	109.5	836.8
251	2083	1735	1	109.5	836.8
251	2159	560	1	109.5	836.8
251	2159	579	1	109.5	836.8
251	2159	1754	1	109.5	836.8
252	1882	253	1	109.5	836.8
252	1987	308	1	109.5	836.8
253	1930	327	1	109.5	836.8
254	1947	667	1	109.5	836.8
254	2072	255	1	109.5	836.8
254	2072	259	1	109.5	836.8
254	2072	298	1	109.5	836.8
255	1981	356	1	109.5	836.8
255	1981	377	1	109.5	836.8
255	2072	259	1	109.5	836.8
255	2072	298	1	109.5	836.8
256	2011	257	1	109.5	836.8
256	2048	376	1	109.5	836.8
256	2048	384	1	109.5	836.8
258	1898	1718	1	109.5	836.8
258	1898	1867	1	109.5	836.8
259	2072	298	1	109.5	836.8
260	2094	473	1	109.5	836.8
260	2094	738	1	109.5	836.8
260	2094	1404	1	109.5	836.8
261	1902	304	1	109.5	836.8
261	2030	399	1	109.5	836.8
262	1949	1046	1	109.5	836.8
262	1977	349	1	109.5	836.8
262	1977	903	1	109.5	836.8
263	1881	381	1	109.5	836.8
263	1881	1708	1	109.5	836.8
263	1941	398	1	109.5	836.8
263	1941	1721	1	109.5	836.8
264	1896	387	1	109.5	836.8
264	2005	270	1	109.5	836.8
264	2005	395	1	109.5	836.8
266	1888	307	1	109.5	836.8
266	1888	981	1	109.5	836.8
267	1994	348	1	109.5	836.8
267	1994	356	1	109.5	836.8
267	2367	1036	1	109.5	836.8
267	2367	1196	1	109.5	836.8
268	2033	528	1	109.5	836.8
268	2033	789	1	109.5	836.8
268	2056	354	1	109.5	836.8
268	2056	400	1	109.5	836.8
269	1891	1687	1	109.5	836.8
269	1934	319	1	109.5	836.8
269	1934	387	1	109.5	836.8
270	2005	395	1	109.5	836.8
271	2029	340	1	109.5	836.8
271	2292	396	1	109.5	836.8
271	2292	626	1	109.5	836.8
271	2292	646	1	109.5	836.8
272	1956	389	1	109.5	836.8
273	1946	365	1	109.5	836.8
273	2016	329	1	109.5	836.8
273	2016	362	1	109.5	836.8
273	2016	1688	1	109.5	836.8
274	1957	417	1	109.5	836.8
274	2039	278	1	109.5	836.8
274	2039	310	1	109.5	836.8
274	2039	1727	1	109.5	836.8
275	2027	308	1	109.5	836.8
275	2027	362	1	109.5	836.8
276	2013	326	1	109.5	836.8
276	2024	323	1	109.5	836.8
276	2024	359	1	109.5	836.8
277	1894	1064	1	109.5	836.8
277	1929	457	1	109.5	836.8
277	1929	566	1	109.5	836.8
278	2039	310	1	109.5	836.8
278	2039	1727	1	109.5	836.8
278	2426	1120	1	109.5	836.8
278	2426	1202	1	109.5	836.8
278	2426	1787	1	109.5	836.8
279	1908	307	1	109.5	836.8
279	1908	971	1	109.5	836.8
279	1984	361	1	109.5	836.8
279	1984	1119	1	109.5	836.8
279	1984	1706	1	109.5	836.8
280	2049	386	1	109.5	836.8
280	2063	300	1	109.5	836.8
280	2063	360	1	109.5	836.8
280	2063	366	1	109.5	836.8
281	1923	288	1	109.5	836.8
281	1923	1720	1	109.5	836.8
281	2071	324	1	109.5	836.8
281	2071	375	1	109.5	836.8
282	1878	381	1	109.5	836.8
282	1878	406	1	109.5	836.8
282	2032	383	1	109.5	836.8
282	2032	1702	1	109.5	836.8
283	1869	303	1	109.5	836.8
283	1869	445	1	109.5	836.8
283	1869	762	1	109.5	836.8
284	1986	333	1	109.5	836.8
284	1986	397	1	109.5	836.8
284	1986	1703	1	109.5	836.8
284	2010	331	1	109.5	836.8
284	2010	1707	1	109.5	836.8
285	1924	373	1	109.5	836.8
285	1939	347	1	109.5	836.8
285	1939	1715	1	109.5	836.8
286	1954	313	1	109.5	836.8
286	1961	301	1	109.5	836.8
286	1961	357	1	109.5	836.8
286	1961	390	1	109.5	836.8
287	1874	289	1	109.5	836.8
287	1980	335	1	109.5	836.8
288	1923	1720	1	109.5	836.8
288	1995	392	1	109.5	836.8
288	1995	659	1	109.5	836.8
288	1995	802	1	109.5	836.8
289	1880	1681	1	109.5	836.8
290	2229	719	1	109.5	836.8
290	2229	720	1	109.5	836.8
290	2229	793	1	109.5	836.8
291	2081	403	1	109.5	836.8
291	2081	404	1	109.5	836.8
291	2081	1733	1	109.5	836.8
292	1970	1019	1	109.5	836.8
292	1970	1722	1	109.5	836.8
292	1974	350	1	109.5	836.8
292	1974	943	1	109.5	836.8
292	1974	998	1	109.5	836.8
294	1903	330	1	109.5	836.8
294	1903	394	1	109.5	836.8
294	1948	318	1	109.5	836.8
294	1948	325	1	109.5	836.8
295	1960	817	1	109.5	836.8
295	2007	296	1	109.5	836.8
295	2007	369	1	109.5	836.8
295	2007	714	1	109.5	836.8
296	1975	302	1	109.5	836.8
296	2007	369	1	109.5	836.8
296	2007	714	1	109.5	836.8
297	2068	302	1	109.5	836.8
297	2068	306	1	109.5	836.8
297	2068	351	1	109.5	836.8
297	2069	374	1	109.5	836.8
298	2302	461	1	109.5	836.8
298	2302	770	1	109.5	836.8
298	2302	777	1	109.5	836.8
300	2054	393	1	109.5	836.8
300	2063	360	1	109.5	836.8
300	2063	366	1	109.5	836.8
301	1961	357	1	109.5	836.8
301	1961	390	1	109.5	836.8
301	2028	309	1	109.5	836.8
302	2068	306	1	109.5	836.8
302	2068	351	1	109.5	836.8
303	1869	445	1	109.5	836.8
303	1869	762	1	109.5	836.8
303	2012	603	1	109.5	836.8
305	2017	1739	1	109.5	836.8
305	2086	413	1	109.5	836.8
305	2086	1075	1	109.5	836.8
305	2086	1738	1	109.5	836.8
306	2064	388	1	109.5	836.8
306	2068	351	1	109.5	836.8
307	1888	981	1	109.5	836.8
307	1908	971	1	109.5	836.8
308	2027	362	1	109.5	836.8
310	1944	887	1	109.5	836.8
310	1944	1701	1	109.5	836.8
310	2039	1727	1	109.5	836.8
311	1877	351	1	109.5	836.8
311	2014	369	1	109.5	836.8
311	2014	391	1	109.5	836.8
312	1873	329	1	109.5	836.8
312	2000	1685	1	109.5	836.8
314	1936	862	1	109.5	836.8
314	2751	683	1	109.5	836.8
314	2751	982	1	109.5	836.8
314	2751	1684	1	109.5	836.8
315	1988	411	1	109.5	836.8
315	1988	1740	1	109.5	836.8
315	2041	325	1	109.5	836.8
315	2041	337	1	109.5	836.8
316	2025	366	1	109.5	836.8
316	2060	322	1	109.5	836.8
317	2034	343	1	109.5	836.8
317	2051	320	1	109.5	836.8
317	2051	333	1	109.5	836.8
318	1948	325	1	109.5	836.8
319	1934	387	1	109.5	836.8
320	2051	333	1	109.5	836.8
320	2053	358	1	109.5	836.8
320	2053	364	1	109.5	836.8
321	1871	401	1	109.5	836.8
321	1871	889	1	109.5	836.8
321	1871	1716	1	109.5	836.8
321	1942	972	1	109.5	836.8
322	2004	401	1	109.5	836.8
323	2006	402	1	109.5	836.8
323	2024	359	1	109.5	836.8
324	1928	1711	1	109.5	836.8
324	2071	375	1	109.5	836.8
325	2041	337	1	109.5	836.8
326	1904	405	1	109.5	836.8
326	1904	1709	1	109.5	836.8
328	1901	409	1	109.5	836.8
328	1901	1719	1	109.5	836.8
329	2016	362	1	109.5	836.8
329	2016	1688	1	109.5	836.8
330	1903	394	1	109.5	836.8
330	2036	337	1	109.5	836.8
330	2036	345	1	109.5	836.8
331	2010	1707	1	109.5	836.8
331	2045	1705	1	109.5	836.8
332	1958	357	1	109.5	836.8
332	1976	394	1	109.5	836.8
333	1986	397	1	109.5	836.8
333	1986	1703	1	109.5	836.8
334	1920	869	1	109.5	836.8
334	1965	936	1	109.5	836.8
335	2356	878	1	109.5	836.8
335	2356	961	1	109.5	836.8
336	1951	371	1	109.5	836.8
336	2020	374	1	109.5	836.8
337	2036	345	1	109.5	836.8
338	2088	707	1	109.5	836.8
338	2088	727	1	109.5	836.8
338	2088	1681	1	109.5	836.8
339	2001	1686	1	109.5	836.8
339	2001	1690	1	109.5	836.8
339	2387	855	1	109.5	836.8
339	2387	917	1	109.5	836.8
341	2057	563	1	109.5	836.8
342	2042	409	1	109.5	836.8
342	2042	1728	1	109.5	836.8
342	2070	364	1	109.5	836.8
342	2070	1732	1	109.5	836.8
343	2055	352	1	109.5	836.8
344	1979	376	1	109.5	836.8
346	2079	353	1	109.5	836.8
346	2079	722	1	109.5	836.8
347	1939	1715	1	109.5	836.8
347	2059	370	1	109.5	836.8
348	1994	356	1	109.5	836.8
348	2009	363	1	109.5	836.8
348	2009	965	1	109.5	836.8
349	1977	903	1	109.5	836.8
350	1974	943	1	109.5	836.8
350	1974	998	1	109.5	836.8
353	1991	1683	1	109.5	836.8
353	2079	722	1	109.5	836.8
354	2015	604	1	109.5	836.8
354	2056	400	1	109.5	836.8
355	1925	1045	1	109.5	836.8
355	1925	1108	1	109.5	836.8
356	1981	377	1	109.5	836.8
357	1961	390	1	109.5	836.8
358	2026	1725	1	109.5	836.8
358	2053	364	1	109.5	836.8
359	2065	382	1	109.5	836.8
359	2065	410	1	109.5	836.8
360	2058	380	1	109.5	836.8
360	2058	385	1	109.5	836.8
360	2063	366	1	109.5	836.8
361	1984	1119	1	109.5	836.8
361	1984	1706	1	109.5	836.8
361	2046	397	1	109.5	836.8
361	2046	1729	1	109.5	836.8
362	2016	1688	1	109.5	836.8
363	1973	1058	1	109.5	836.8
363	2009	965	1	109.5	836.8
364	2070	1732	1	109.5	836.8
365	2255	612	1	109.5	836.8
365	2255	691	1	109.5	836.8
365	2255	1685	1	109.5	836.8
368	1899	1704	1	109.5	836.8
369	2007	714	1	109.5	836.8
369	2014	391	1	109.5	836.8
370	1998	407	1	109.5	836.8
371	2075	372	1	109.5	836.8
372	2753	382	1	109.5	836.8
372	2753	453	1	109.5	836.8
372	2753	1683	1	109.5	836.8
376	2048	384	1	109.5	836.8
378	2052	410	1	109.5	836.8
378	2052	1730	1	109.5	836.8
378	2217	712	1	109.5	836.8
378	2217	817	1	109.5	836.8
380	1916	400	1	109.5	836.8
380	1916	404	1	109.5	836.8
380	2058	385	1	109.5	836.8
381	1878	406	1	109.5	836.8
381	1881	1708	1	109.5	836.8
382	2065	410	1	109.5	836.8
382	2753	453	1	109.5	836.8
382	2753	1683	1	109.5	836.8
383	1883	388	1	109.5	836.8
383	2032	1702	1	109.5	836.8
386	1963	390	1	109.5	836.8
391	1919	395	1	109.5	836.8
391	1919	549	1	109.5	836.8
392	1995	659	1	109.5	836.8
392	1995	802	1	109.5	836.8
392	2182	442	1	109.5	836.8
392	2182	557	1	109.5	836.8
392	2182	719	1	109.5	836.8
395	1919	549	1	109.5	836.8
396	1937	533	1	109.5	836.8
396	2292	626	1	109.5	836.8
396	2292	646	1	109.5	836.8
397	1986	1703	1	109.5	836.8
397	2046	1729	1	109.5	836.8
398	1941	1721	1	109.5	836.8
398	2435	974	1	109.5	836.8
398	2435	1084	1	109.5	836.8
398	2435	1243	1	109.5	836.8
400	1916	404	1	109.5	836.8
401	1871	889	1	109.5	836.8
401	1871	1716	1	109.5	836.8
402	1993	1239	1	109.5	836.8
402	1993	1697	1	109.5	836.8
403	1890	649	1	109.5	836.8
403	1890	1736	1	109.5	836.8
403	2081	404	1	109.5	836.8
403	2081	1733	1	109.5	836.8
404	2081	1733	1	109.5	836.8
405	1904	1709	1	109.5	836.8
405	2082	408	1	109.5	836.8
405	2082	411	1	109.5	836.8
405	2082	1734	1	109.5	836.8
406	1990	1723	1	109.5	836.8
407	2283	556	1	109.5	836.8
407	2283	1756	1	109.5	836.8
408	2037	1726	1	109.5	836.8
408	2082	411	1	109.5	836.8
408	2082	1734	1	109.5	836.8
409	1901	1719	1	109.5	836.8
409	2042	1728	1	109.5	836.8
410	2052	1730	1	109.5	836.8
411	1988	1740	1	109.5	836.8
411	2082	1734	1	109.5	836.8
412	2080	413	1	109.5	836.8
412	2080	414	1	109.5	836.8
412	2084	416	1	109.5	836.8
412	2084	887	1	109.5	836.8
412	2084	1254	1	109.5	836.8
413	2080	414	1	109.5	836.8
413	2086	1075	1	109.5	836.8
413	2086	1738	1	109.5	836.8
414	2085	416	1	109.5	836.8
414	2085	417	1	109.5	836.8
414	2085	986	1	109.5	836.8
415	2087	1737	1	109.5	836.8
415	2759	1255	1	109.5	836.8
415	2759	1699	1	109.5	836.8
416	2084	887	1	109.5	836.8
416	2084	1254	1	109.5	836.8
416	2085	417	1	109.5	836.8
416	2085	986	1	109.5	836.8
417	2085	986	1	109.5	836.8
418	2237	577	1	109.5	836.8
418	2237	778	1	109.5	836.8
418	2237	1688	1	109.5	836.8
418	2279	600	1	109.5	836.8
418	2279	765	1	109.5	836.8
418	2279	1687	1	109.5	836.8
419	2097	583	1	109.5	836.8
419	2097	735	1	109.5	836.8
419	2097	775	1	109.5	836.8
419	2099	580	1	109.5	836.8
419	2099	597	1	109.5	836.8
419	2099	717	1	109.5	836.8
420	2125	487	1	109.5	836.8
420	2125	491	1	109.5	836.8
420	2125	627	1	109.5	836.8
420	2147	441	1	109.5	836.8
420	2147	536	1	109.5	836.8
420	2147	769	1	109.5	836.8
421	2197	571	1	109.5	836.8
421	2197	720	1	109.5	836.8
421	2197	726	1	109.5	836.8
421	2243	461	1	109.5	836.8
421	2243	568	1	109.5	836.8
421	2243	698	1	109.5	836.8
422	2211	426	1	109.5	836.8
422	2211	547	1	109.5	836.8
422	2211	648	1	109.5	836.8
422	2233	549	1	109.5	836.8
422	2233	679	1	109.5	836.8
422	2233	680	1	109.5	836.8
423	2189	508	1	109.5	836.8
423	2189	554	1	109.5	836.8
423	2189	715	1	109.5	836.8
423	2752	1684	1	109.5	836.8
424	2164	605	1	109.5	836.8
424	2164	644	1	109.5	836.8
424	2164	695	1	109.5	836.8
424	2209	501	1	109.5	836.8
424	2209	675	1	109.5	836.8
424	2209	732	1	109.5	836.8
425	2096	514	1	109.5	836.8
425	2096	631	1	109.5	836.8
425	2096	791	1	109.5	836.8
425	2286	512	1	109.5	836.8
425	2286	730	1	109.5	836.8
425	2286	813	1	109.5	836.8
426	2140	611	1	109.5	836.8
426	2140	758	1	109.5	836.8
426	2140	1285	1	109.5	836.8
426	2211	547	1	109.5	836.8
426	2211	648	1	109.5	836.8
427	2152	489	1	109.5	836.8
427	2152	541	1	109.5	836.8
427	2152	779	1	109.5	836.8
427	2262	487	1	109.5	836.8
427	2262	630	1	109.5	836.8
427	2262	824	1	109.5	836.8
428	2274	802	1	109.5	836.8
428	2274	834	1	109.5	836.8
428	2274	1772	1	109.5	836.8
428	2288	444	1	109.5	836.8
428	2288	645	1	109.5	836.8
428	2288	1748	1	109.5	836.8
429	2247	601	1	109.5	836.8
429	2247	740	1	109.5	836.8
429	2247	790	1	109.5	836.8
429	2293	766	1	109.5	836.8
429	2293	788	1	109.5	836.8
429	2293	1773	1	109.5	836.8
430	2093	511	1	109.5	836.8
430	2093	711	1	109.5	836.8
430	2093	713	1	109.5	836.8
430	2607	763	1	109.5	836.8
430	2607	1270	1	109.5	836.8
430	2607	1336	1	109.5	836.8
431	1933	655	1	109.5	836.8
431	1933	1065	1	109.5	836.8
431	2166	497	1	109.5	836.8
431	2166	1269	1	109.5	836.8
431	2166	1603	1	109.5	836.8
432	2109	480	1	109.5	836.8
432	2109	548	1	109.5	836.8
432	2109	797	1	109.5	836.8
432	2296	581	1	109.5	836.8
432	2296	618	1	109.5	836.8
432	2296	628	1	109.5	836.8
433	2095	513	1	109.5	836.8
433	2095	598	1	109.5	836.8
433	2095	1755	1	109.5	836.8
433	2257	614	1	109.5	836.8
433	2257	657	1	109.5	836.8
433	2257	762	1	109.5	836.8
434	2151	449	1	109.5	836.8
434	2151	451	1	109.5	836.8
434	2151	578	1	109.5	836.8
434	2224	576	1	109.5	836.8
434	2224	1491	1	109.5	836.8
434	2224	1507	1	109.5	836.8
435	2120	546	1	109.5	836.8
435	2120	617	1	109.5	836.8
435	2120	764	1	109.5	836.8
435	2300	472	1	109.5	836.8
435	2300	632	1	109.5	836.8
435	2300	714	1	109.5	836.8
436	2165	734	1	109.5	836.8
436	2165	1304	1	109.5	836.8
436	2165	1742	1	109.5	836.8
436	2188	439	1	109.5	836.8
436	2188	652	1	109.5	836.8
436	2188	688	1	109.5	836.8
437	2126	443	1	109.5	836.8
437	2126	448	1	109.5	836.8
437	2126	532	1	109.5	836.8
437	2184	451	1	109.5	836.8
437	2184	570	1	109.5	836.8
437	2184	580	1	109.5	836.8
438	2303	836	1	109.5	836.8
438	2303	837	1	109.5	836.8
438	2303	838	1	109.5	836.8
438	2598	1438	1	109.5	836.8
438	2598	1495	1	109.5	836.8
438	2598	1578	1	109.5	836.8
439	2100	445	1	109.5	836.8
439	2100	565	1	109.5	836.8
439	2100	713	1	109.5	836.8
439	2188	652	1	109.5	836.8
439	2188	688	1	109.5	836.8
440	2102	455	1	109.5	836.8
440	2102	675	1	109.5	836.8
440	2102	676	1	109.5	836.8
440	2175	497	1	109.5	836.8
440	2175	664	1	109.5	836.8
440	2175	770	1	109.5	836.8
441	2103	443	1	109.5	836.8
441	2103	808	1	109.5	836.8
441	2103	813	1	109.5	836.8
441	2147	536	1	109.5	836.8
441	2147	769	1	109.5	836.8
442	2182	557	1	109.5	836.8
442	2182	719	1	109.5	836.8
442	2291	478	1	109.5	836.8
442	2291	721	1	109.5	836.8
442	2291	798	1	109.5	836.8
443	2103	808	1	109.5	836.8
443	2103	813	1	109.5	836.8
443	2126	448	1	109.5	836.8
443	2126	532	1	109.5	836.8
444	2288	645	1	109.5	836.8
444	2288	1748	1	109.5	836.8
444	2298	557	1	109.5	836.8
444	2298	795	1	109.5	836.8
444	2298	796	1	109.5	836.8
445	1869	762	1	109.5	836.8
445	2100	565	1	109.5	836.8
445	2100	713	1	109.5	836.8
446	2230	476	1	109.5	836.8
446	2230	509	1	109.5	836.8
446	2230	683	1	109.5	836.8
446	2581	1265	1	109.5	836.8
446	2581	1450	1	109.5	836.8
446	2581	1598	1	109.5	836.8
447	2117	476	1	109.5	836.8
447	2117	537	1	109.5	836.8
447	2117	643	1	109.5	836.8
447	2218	470	1	109.5	836.8
447	2218	510	1	109.5	836.8
447	2218	723	1	109.5	836.8
448	2126	532	1	109.5	836.8
448	2245	463	1	109.5	836.8
448	2245	525	1	109.5	836.8
448	2245	558	1	109.5	836.8
449	2151	451	1	109.5	836.8
449	2151	578	1	109.5	836.8
449	2725	515	1	109.5	836.8
449	2725	1411	1	109.5	836.8
449	2725	1423	1	109.5	836.8
450	2181	482	1	109.5	836.8
450	2181	537	1	109.5	836.8
450	2181	673	1	109.5	836.8
450	2214	509	1	109.5	836.8
450	2214	544	1	109.5	836.8
450	2214	723	1	109.5	836.8
451	2151	578	1	109.5	836.8
451	2184	570	1	109.5	836.8
451	2184	580	1	109.5	836.8
452	2133	620	1	109.5	836.8
452	2133	635	1	109.5	836.8
452	2133	647	1	109.5	836.8
452	2260	490	1	109.5	836.8
452	2260	640	1	109.5	836.8
452	2260	792	1	109.5	836.8
453	2281	545	1	109.5	836.8
453	2281	771	1	109.5	836.8
453	2281	794	1	109.5	836.8
453	2753	1683	1	109.5	836.8
454	2061	1714	1	109.5	836.8
454	2061	1731	1	109.5	836.8
454	2114	551	1	109.5	836.8
454	2114	700	1	109.5	836.8
454	2114	1487	1	109.5	836.8
455	2102	675	1	109.5	836.8
455	2102	676	1	109.5	836.8
455	2134	543	1	109.5	836.8
455	2134	1298	1	109.5	836.8
455	2134	1599	1	109.5	836.8
456	2270	679	1	109.5	836.8
456	2270	800	1	109.5	836.8
456	2270	809	1	109.5	836.8
456	2299	496	1	109.5	836.8
456	2299	498	1	109.5	836.8
456	2299	656	1	109.5	836.8
457	1929	566	1	109.5	836.8
457	2664	1372	1	109.5	836.8
457	2664	1415	1	109.5	836.8
457	2664	1603	1	109.5	836.8
458	2089	616	1	109.5	836.8
458	2089	671	1	109.5	836.8
458	2089	776	1	109.5	836.8
458	2116	657	1	109.5	836.8
458	2116	687	1	109.5	836.8
458	2116	812	1	109.5	836.8
459	2219	486	1	109.5	836.8
459	2219	515	1	109.5	836.8
459	2219	728	1	109.5	836.8
459	2575	759	1	109.5	836.8
459	2575	1294	1	109.5	836.8
459	2575	1382	1	109.5	836.8
460	2185	470	1	109.5	836.8
460	2185	811	1	109.5	836.8
460	2185	815	1	109.5	836.8
460	2225	607	1	109.5	836.8
460	2225	653	1	109.5	836.8
460	2225	665	1	109.5	836.8
461	2243	568	1	109.5	836.8
461	2243	698	1	109.5	836.8
461	2302	770	1	109.5	836.8
461	2302	777	1	109.5	836.8
462	2138	663	1	109.5	836.8
462	2138	670	1	109.5	836.8
462	2138	803	1	109.5	836.8
462	2154	692	1	109.5	836.8
462	2154	743	1	109.5	836.8
462	2154	812	1	109.5	836.8
463	2119	500	1	109.5	836.8
463	2119	792	1	109.5	836.8
463	2119	1745	1	109.5	836.8
463	2245	525	1	109.5	836.8
463	2245	558	1	109.5	836.8
464	2256	493	1	109.5	836.8
464	2256	741	1	109.5	836.8
464	2256	767	1	109.5	836.8
464	2301	587	1	109.5	836.8
464	2301	589	1	109.5	836.8
464	2301	814	1	109.5	836.8
465	2606	1275	1	109.5	836.8
465	2606	1574	1	109.5	836.8
465	2606	1827	1	109.5	836.8
465	2760	839	1	109.5	836.8
465	2760	1679	1	109.5	836.8
465	2760	1700	1	109.5	836.8
466	2240	561	1	109.5	836.8
466	2240	609	1	109.5	836.8
466	2240	803	1	109.5	836.8
466	2248	598	1	109.5	836.8
466	2248	782	1	109.5	836.8
466	2248	1767	1	109.5	836.8
467	2130	484	1	109.5	836.8
467	2130	508	1	109.5	836.8
467	2130	516	1	109.5	836.8
467	2531	1585	1	109.5	836.8
467	2531	1666	1	109.5	836.8
467	2531	1843	1	109.5	836.8
468	2127	481	1	109.5	836.8
468	2127	546	1	109.5	836.8
468	2127	733	1	109.5	836.8
468	2203	678	1	109.5	836.8
468	2203	780	1	109.5	836.8
468	2203	801	1	109.5	836.8
469	2115	479	1	109.5	836.8
469	2115	625	1	109.5	836.8
469	2115	752	1	109.5	836.8
469	2226	553	1	109.5	836.8
469	2226	746	1	109.5	836.8
469	2226	826	1	109.5	836.8
470	2185	811	1	109.5	836.8
470	2185	815	1	109.5	836.8
470	2218	510	1	109.5	836.8
470	2218	723	1	109.5	836.8
471	2170	796	1	109.5	836.8
471	2170	807	1	109.5	836.8
471	2213	566	1	109.5	836.8
471	2213	573	1	109.5	836.8
471	2213	777	1	109.5	836.8
472	2207	577	1	109.5	836.8
472	2207	665	1	109.5	836.8
472	2207	682	1	109.5	836.8
472	2300	632	1	109.5	836.8
472	2300	714	1	109.5	836.8
473	2094	738	1	109.5	836.8
473	2094	1404	1	109.5	836.8
473	2155	658	1	109.5	836.8
473	2155	666	1	109.5	836.8
474	2264	766	1	109.5	836.8
474	2264	833	1	109.5	836.8
474	2264	1770	1	109.5	836.8
474	2269	621	1	109.5	836.8
474	2269	622	1	109.5	836.8
474	2269	623	1	109.5	836.8
475	2141	506	1	109.5	836.8
475	2141	579	1	109.5	836.8
475	2141	765	1	109.5	836.8
475	2280	784	1	109.5	836.8
475	2280	804	1	109.5	836.8
475	2280	810	1	109.5	836.8
476	2117	537	1	109.5	836.8
476	2117	643	1	109.5	836.8
476	2230	509	1	109.5	836.8
476	2230	683	1	109.5	836.8
477	2107	494	1	109.5	836.8
477	2107	668	1	109.5	836.8
477	2107	669	1	109.5	836.8
477	2272	519	1	109.5	836.8
477	2272	532	1	109.5	836.8
477	2272	717	1	109.5	836.8
478	2174	646	1	109.5	836.8
478	2174	659	1	109.5	836.8
478	2174	681	1	109.5	836.8
478	2291	721	1	109.5	836.8
478	2291	798	1	109.5	836.8
479	2115	625	1	109.5	836.8
479	2115	752	1	109.5	836.8
479	2277	561	1	109.5	836.8
479	2277	767	1	109.5	836.8
479	2277	776	1	109.5	836.8
480	2109	548	1	109.5	836.8
480	2109	797	1	109.5	836.8
480	2172	524	1	109.5	836.8
480	2172	661	1	109.5	836.8
480	2172	742	1	109.5	836.8
481	2127	546	1	109.5	836.8
481	2127	733	1	109.5	836.8
481	2258	754	1	109.5	836.8
481	2258	761	1	109.5	836.8
481	2258	769	1	109.5	836.8
482	2129	520	1	109.5	836.8
482	2129	596	1	109.5	836.8
482	2129	650	1	109.5	836.8
482	2181	537	1	109.5	836.8
482	2181	673	1	109.5	836.8
483	2252	570	1	109.5	836.8
483	2252	684	1	109.5	836.8
483	2252	824	1	109.5	836.8
483	2640	1411	1	109.5	836.8
483	2640	1526	1	109.5	836.8
483	2640	1613	1	109.5	836.8
484	2130	508	1	109.5	836.8
484	2130	516	1	109.5	836.8
484	2267	633	1	109.5	836.8
484	2267	755	1	109.5	836.8
484	2267	1746	1	109.5	836.8
485	2163	517	1	109.5	836.8
485	2163	745	1	109.5	836.8
485	2163	1393	1	109.5	836.8
485	2187	593	1	109.5	836.8
485	2187	758	1	109.5	836.8
485	2187	1355	1	109.5	836.8
486	2204	535	1	109.5	836.8
486	2204	606	1	109.5	836.8
486	2204	693	1	109.5	836.8
486	2219	515	1	109.5	836.8
486	2219	728	1	109.5	836.8
487	2125	491	1	109.5	836.8
487	2125	627	1	109.5	836.8
487	2262	630	1	109.5	836.8
487	2262	824	1	109.5	836.8
488	2091	498	1	109.5	836.8
488	2091	593	1	109.5	836.8
488	2091	611	1	109.5	836.8
488	2135	505	1	109.5	836.8
488	2135	564	1	109.5	836.8
488	2135	672	1	109.5	836.8
489	2104	494	1	109.5	836.8
489	2104	505	1	109.5	836.8
489	2104	641	1	109.5	836.8
489	2152	541	1	109.5	836.8
489	2152	779	1	109.5	836.8
490	2193	558	1	109.5	836.8
490	2193	630	1	109.5	836.8
490	2193	774	1	109.5	836.8
490	2260	640	1	109.5	836.8
490	2260	792	1	109.5	836.8
491	2125	627	1	109.5	836.8
491	2156	591	1	109.5	836.8
491	2156	640	1	109.5	836.8
491	2156	799	1	109.5	836.8
492	2132	552	1	109.5	836.8
492	2132	608	1	109.5	836.8
492	2132	668	1	109.5	836.8
492	2191	601	1	109.5	836.8
492	2191	613	1	109.5	836.8
492	2191	818	1	109.5	836.8
493	2256	741	1	109.5	836.8
493	2256	767	1	109.5	836.8
493	2271	621	1	109.5	836.8
493	2271	703	1	109.5	836.8
493	2271	811	1	109.5	836.8
494	2104	505	1	109.5	836.8
494	2104	641	1	109.5	836.8
494	2107	668	1	109.5	836.8
494	2107	669	1	109.5	836.8
495	2173	502	1	109.5	836.8
495	2173	760	1	109.5	836.8
495	2173	795	1	109.5	836.8
495	2194	514	1	109.5	836.8
495	2194	568	1	109.5	836.8
495	2194	751	1	109.5	836.8
496	2276	503	1	109.5	836.8
496	2276	724	1	109.5	836.8
496	2276	818	1	109.5	836.8
496	2299	498	1	109.5	836.8
496	2299	656	1	109.5	836.8
497	2166	1269	1	109.5	836.8
497	2166	1603	1	109.5	836.8
497	2175	664	1	109.5	836.8
497	2175	770	1	109.5	836.8
498	2091	593	1	109.5	836.8
498	2091	611	1	109.5	836.8
498	2299	656	1	109.5	836.8
499	2144	523	1	109.5	836.8
499	2144	709	1	109.5	836.8
499	2144	797	1	109.5	836.8
499	2210	706	1	109.5	836.8
499	2210	739	1	109.5	836.8
499	2210	835	1	109.5	836.8
500	2119	792	1	109.5	836.8
500	2119	1745	1	109.5	836.8
500	2294	704	1	109.5	836.8
500	2294	748	1	109.5	836.8
500	2294	799	1	109.5	836.8
501	2161	589	1	109.5	836.8
501	2161	639	1	109.5	836.8
501	2161	737	1	109.5	836.8
501	2209	675	1	109.5	836.8
501	2209	732	1	109.5	836.8
502	2173	760	1	109.5	836.8
502	2173	795	1	109.5	836.8
502	2246	699	1	109.5	836.8
502	2246	747	1	109.5	836.8
502	2246	783	1	109.5	836.8
503	2201	669	1	109.5	836.8
503	2201	768	1	109.5	836.8
503	2201	800	1	109.5	836.8
503	2276	724	1	109.5	836.8
503	2276	818	1	109.5	836.8
504	2198	519	1	109.5	836.8
504	2198	756	1	109.5	836.8
504	2198	819	1	109.5	836.8
504	2289	617	1	109.5	836.8
504	2289	627	1	109.5	836.8
504	2289	768	1	109.5	836.8
505	2104	641	1	109.5	836.8
505	2135	564	1	109.5	836.8
505	2135	672	1	109.5	836.8
506	2106	636	1	109.5	836.8
506	2106	656	1	109.5	836.8
506	2106	707	1	109.5	836.8
506	2141	579	1	109.5	836.8
506	2141	765	1	109.5	836.8
507	2113	594	1	109.5	836.8
507	2113	613	1	109.5	836.8
507	2113	616	1	109.5	836.8
507	2146	539	1	109.5	836.8
507	2146	629	1	109.5	836.8
507	2146	672	1	109.5	836.8
508	2130	516	1	109.5	836.8
508	2189	554	1	109.5	836.8
508	2189	715	1	109.5	836.8
509	2214	544	1	109.5	836.8
509	2214	723	1	109.5	836.8
509	2230	683	1	109.5	836.8
510	2218	723	1	109.5	836.8
510	2278	691	1	109.5	836.8
510	2278	778	1	109.5	836.8
510	2278	825	1	109.5	836.8
511	2093	711	1	109.5	836.8
511	2093	713	1	109.5	836.8
511	2139	816	1	109.5	836.8
511	2139	820	1	109.5	836.8
512	2242	530	1	109.5	836.8
512	2242	760	1	109.5	836.8
512	2242	798	1	109.5	836.8
512	2286	730	1	109.5	836.8
512	2286	813	1	109.5	836.8
513	2095	598	1	109.5	836.8
513	2095	1755	1	109.5	836.8
513	2239	603	1	109.5	836.8
513	2239	729	1	109.5	836.8
513	2239	1780	1	109.5	836.8
514	2096	631	1	109.5	836.8
514	2096	791	1	109.5	836.8
514	2194	568	1	109.5	836.8
514	2194	751	1	109.5	836.8
515	2219	728	1	109.5	836.8
515	2725	1411	1	109.5	836.8
515	2725	1423	1	109.5	836.8
516	2628	1324	1	109.5	836.8
516	2628	1432	1	109.5	836.8
516	2628	1598	1	109.5	836.8
517	2163	745	1	109.5	836.8
517	2163	1393	1	109.5	836.8
517	2234	538	1	109.5	836.8
517	2234	727	1	109.5	836.8
518	2177	552	1	109.5	836.8
518	2177	606	1	109.5	836.8
518	2177	671	1	109.5	836.8
518	2244	567	1	109.5	836.8
518	2244	571	1	109.5	836.8
518	2244	743	1	109.5	836.8
519	2198	756	1	109.5	836.8
519	2198	819	1	109.5	836.8
519	2272	532	1	109.5	836.8
519	2272	717	1	109.5	836.8
520	2129	596	1	109.5	836.8
520	2129	650	1	109.5	836.8
520	2195	618	1	109.5	836.8
520	2195	787	1	109.5	836.8
520	2195	1481	1	109.5	836.8
521	2112	538	1	109.5	836.8
521	2112	560	1	109.5	836.8
521	2112	1759	1	109.5	836.8
521	2142	562	1	109.5	836.8
521	2142	636	1	109.5	836.8
521	2142	810	1	109.5	836.8
522	2143	704	1	109.5	836.8
522	2143	712	1	109.5	836.8
522	2143	1761	1	109.5	836.8
522	2259	545	1	109.5	836.8
522	2259	832	1	109.5	836.8
522	2259	1768	1	109.5	836.8
523	2144	709	1	109.5	836.8
523	2144	797	1	109.5	836.8
523	2637	581	1	109.5	836.8
523	2637	1556	1	109.5	836.8
523	2637	1614	1	109.5	836.8
524	2172	661	1	109.5	836.8
524	2172	742	1	109.5	836.8
524	2265	586	1	109.5	836.8
524	2265	638	1	109.5	836.8
524	2265	773	1	109.5	836.8
525	2212	555	1	109.5	836.8
525	2212	831	1	109.5	836.8
525	2212	1764	1	109.5	836.8
525	2245	558	1	109.5	836.8
526	2124	706	1	109.5	836.8
526	2124	750	1	109.5	836.8
526	2124	830	1	109.5	836.8
526	2148	536	1	109.5	836.8
526	2148	748	1	109.5	836.8
526	2148	1753	1	109.5	836.8
527	2222	528	1	109.5	836.8
527	2222	540	1	109.5	836.8
527	2222	736	1	109.5	836.8
527	2306	663	1	109.5	836.8
527	2306	674	1	109.5	836.8
527	2306	1776	1	109.5	836.8
528	2033	789	1	109.5	836.8
528	2222	540	1	109.5	836.8
528	2222	736	1	109.5	836.8
529	2118	681	1	109.5	836.8
529	2118	805	1	109.5	836.8
529	2118	1741	1	109.5	836.8
529	2162	686	1	109.5	836.8
529	2162	823	1	109.5	836.8
529	2162	1762	1	109.5	836.8
530	2235	585	1	109.5	836.8
530	2235	699	1	109.5	836.8
530	2235	750	1	109.5	836.8
530	2242	760	1	109.5	836.8
530	2242	798	1	109.5	836.8
531	2160	709	1	109.5	836.8
531	2160	771	1	109.5	836.8
531	2160	1757	1	109.5	836.8
531	2220	551	1	109.5	836.8
531	2220	794	1	109.5	836.8
531	2220	1765	1	109.5	836.8
532	2272	717	1	109.5	836.8
533	2223	576	1	109.5	836.8
533	2223	763	1	109.5	836.8
533	2223	1296	1	109.5	836.8
534	2178	559	1	109.5	836.8
534	2178	695	1	109.5	836.8
534	2178	814	1	109.5	836.8
534	2273	741	1	109.5	836.8
534	2273	744	1	109.5	836.8
534	2273	757	1	109.5	836.8
535	2202	652	1	109.5	836.8
535	2202	711	1	109.5	836.8
535	2202	759	1	109.5	836.8
535	2204	606	1	109.5	836.8
535	2204	693	1	109.5	836.8
536	2147	769	1	109.5	836.8
536	2148	748	1	109.5	836.8
536	2148	1753	1	109.5	836.8
537	2117	643	1	109.5	836.8
537	2181	673	1	109.5	836.8
538	2112	560	1	109.5	836.8
538	2112	1759	1	109.5	836.8
538	2234	727	1	109.5	836.8
539	2122	597	1	109.5	836.8
539	2122	684	1	109.5	836.8
539	2122	728	1	109.5	836.8
539	2146	629	1	109.5	836.8
539	2146	672	1	109.5	836.8
540	2186	649	1	109.5	836.8
540	2186	662	1	109.5	836.8
540	2186	666	1	109.5	836.8
540	2222	736	1	109.5	836.8
541	2131	550	1	109.5	836.8
541	2131	590	1	109.5	836.8
541	2131	680	1	109.5	836.8
541	2152	779	1	109.5	836.8
542	2153	1488	1	109.5	836.8
542	2168	544	1	109.5	836.8
542	2168	677	1	109.5	836.8
543	2134	1298	1	109.5	836.8
543	2134	1599	1	109.5	836.8
543	2171	624	1	109.5	836.8
543	2171	685	1	109.5	836.8
543	2171	1469	1	109.5	836.8
544	2168	677	1	109.5	836.8
544	2214	723	1	109.5	836.8
545	2259	832	1	109.5	836.8
545	2259	1768	1	109.5	836.8
545	2281	771	1	109.5	836.8
545	2281	794	1	109.5	836.8
546	2120	617	1	109.5	836.8
546	2120	764	1	109.5	836.8
546	2127	733	1	109.5	836.8
547	2211	648	1	109.5	836.8
547	2672	1514	1	109.5	836.8
547	2672	1612	1	109.5	836.8
547	2672	1627	1	109.5	836.8
548	2109	797	1	109.5	836.8
548	2263	739	1	109.5	836.8
548	2263	749	1	109.5	836.8
548	2263	761	1	109.5	836.8
549	2233	679	1	109.5	836.8
549	2233	680	1	109.5	836.8
550	2131	590	1	109.5	836.8
550	2131	680	1	109.5	836.8
550	2158	635	1	109.5	836.8
550	2158	821	1	109.5	836.8
550	2158	1686	1	109.5	836.8
551	2114	700	1	109.5	836.8
551	2114	1487	1	109.5	836.8
551	2220	794	1	109.5	836.8
551	2220	1765	1	109.5	836.8
552	2132	608	1	109.5	836.8
552	2132	668	1	109.5	836.8
552	2177	606	1	109.5	836.8
552	2177	671	1	109.5	836.8
553	2226	746	1	109.5	836.8
553	2226	826	1	109.5	836.8
553	2569	1473	1	109.5	836.8
553	2569	1543	1	109.5	836.8
553	2569	1571	1	109.5	836.8
554	2189	715	1	109.5	836.8
554	2604	1324	1	109.5	836.8
554	2604	1356	1	109.5	836.8
554	2604	1585	1	109.5	836.8
555	2192	716	1	109.5	836.8
555	2192	1441	1	109.5	836.8
555	2192	1763	1	109.5	836.8
555	2212	831	1	109.5	836.8
555	2212	1764	1	109.5	836.8
556	2215	827	1	109.5	836.8
556	2215	1663	1	109.5	836.8
556	2215	1698	1	109.5	836.8
556	2283	1756	1	109.5	836.8
557	2182	719	1	109.5	836.8
557	2298	795	1	109.5	836.8
557	2298	796	1	109.5	836.8
558	2193	630	1	109.5	836.8
558	2193	774	1	109.5	836.8
559	2092	575	1	109.5	836.8
559	2092	736	1	109.5	836.8
559	2092	753	1	109.5	836.8
559	2178	695	1	109.5	836.8
559	2178	814	1	109.5	836.8
560	2112	1759	1	109.5	836.8
560	2159	579	1	109.5	836.8
560	2159	1754	1	109.5	836.8
561	2240	609	1	109.5	836.8
561	2240	803	1	109.5	836.8
561	2277	767	1	109.5	836.8
561	2277	776	1	109.5	836.8
562	2142	636	1	109.5	836.8
562	2142	810	1	109.5	836.8
562	2282	574	1	109.5	836.8
562	2282	740	1	109.5	836.8
562	2282	746	1	109.5	836.8
563	2111	575	1	109.5	836.8
563	2111	614	1	109.5	836.8
563	2111	692	1	109.5	836.8
564	2135	672	1	109.5	836.8
564	2549	1483	1	109.5	836.8
564	2549	1530	1	109.5	836.8
564	2549	1571	1	109.5	836.8
565	2100	713	1	109.5	836.8
565	2535	1101	1	109.5	836.8
565	2535	1312	1	109.5	836.8
565	2535	1578	1	109.5	836.8
566	2213	573	1	109.5	836.8
566	2213	777	1	109.5	836.8
567	2244	571	1	109.5	836.8
567	2244	743	1	109.5	836.8
567	2253	587	1	109.5	836.8
567	2253	619	1	109.5	836.8
567	2253	791	1	109.5	836.8
568	2194	751	1	109.5	836.8
568	2243	698	1	109.5	836.8
569	2268	785	1	109.5	836.8
569	2268	822	1	109.5	836.8
569	2268	1771	1	109.5	836.8
569	2748	1677	1	109.5	836.8
569	2748	1679	1	109.5	836.8
569	2748	1680	1	109.5	836.8
570	2184	580	1	109.5	836.8
570	2252	684	1	109.5	836.8
570	2252	824	1	109.5	836.8
571	2197	720	1	109.5	836.8
571	2197	726	1	109.5	836.8
571	2244	743	1	109.5	836.8
572	2199	685	1	109.5	836.8
572	2199	773	1	109.5	836.8
572	2199	1322	1	109.5	836.8
572	2284	584	1	109.5	836.8
572	2284	1288	1	109.5	836.8
572	2284	1354	1	109.5	836.8
573	2213	777	1	109.5	836.8
573	2241	615	1	109.5	836.8
573	2241	651	1	109.5	836.8
573	2241	664	1	109.5	836.8
574	2121	752	1	109.5	836.8
574	2121	833	1	109.5	836.8
574	2121	1760	1	109.5	836.8
574	2282	740	1	109.5	836.8
574	2282	746	1	109.5	836.8
575	2092	736	1	109.5	836.8
575	2092	753	1	109.5	836.8
575	2111	614	1	109.5	836.8
575	2111	692	1	109.5	836.8
576	2223	763	1	109.5	836.8
576	2223	1296	1	109.5	836.8
576	2224	1491	1	109.5	836.8
576	2224	1507	1	109.5	836.8
577	2207	665	1	109.5	836.8
577	2207	682	1	109.5	836.8
577	2237	778	1	109.5	836.8
577	2237	1688	1	109.5	836.8
578	2101	686	1	109.5	836.8
578	2101	806	1	109.5	836.8
578	2101	1751	1	109.5	836.8
579	2141	765	1	109.5	836.8
579	2159	1754	1	109.5	836.8
580	2099	597	1	109.5	836.8
580	2099	717	1	109.5	836.8
581	2296	618	1	109.5	836.8
581	2296	628	1	109.5	836.8
581	2637	1556	1	109.5	836.8
581	2637	1614	1	109.5	836.8
582	2137	599	1	109.5	836.8
582	2137	642	1	109.5	836.8
582	2137	667	1	109.5	836.8
582	2249	698	1	109.5	836.8
582	2249	732	1	109.5	836.8
582	2249	786	1	109.5	836.8
583	2097	735	1	109.5	836.8
583	2097	775	1	109.5	836.8
583	2227	687	1	109.5	836.8
583	2227	693	1	109.5	836.8
583	2227	820	1	109.5	836.8
584	2150	638	1	109.5	836.8
584	2150	676	1	109.5	836.8
584	2150	751	1	109.5	836.8
584	2284	1288	1	109.5	836.8
584	2284	1354	1	109.5	836.8
585	2169	718	1	109.5	836.8
585	2169	742	1	109.5	836.8
585	2169	749	1	109.5	836.8
585	2235	699	1	109.5	836.8
585	2235	750	1	109.5	836.8
586	2265	638	1	109.5	836.8
586	2265	773	1	109.5	836.8
586	2266	592	1	109.5	836.8
586	2266	634	1	109.5	836.8
586	2266	637	1	109.5	836.8
587	2253	619	1	109.5	836.8
587	2253	791	1	109.5	836.8
587	2301	589	1	109.5	836.8
587	2301	814	1	109.5	836.8
588	2205	592	1	109.5	836.8
588	2205	596	1	109.5	836.8
588	2205	801	1	109.5	836.8
588	2250	653	1	109.5	836.8
588	2250	725	1	109.5	836.8
588	2250	733	1	109.5	836.8
589	2161	639	1	109.5	836.8
589	2161	737	1	109.5	836.8
589	2301	814	1	109.5	836.8
590	2131	680	1	109.5	836.8
590	2251	591	1	109.5	836.8
590	2251	694	1	109.5	836.8
590	2251	764	1	109.5	836.8
591	2156	640	1	109.5	836.8
591	2156	799	1	109.5	836.8
591	2251	694	1	109.5	836.8
591	2251	764	1	109.5	836.8
592	2205	596	1	109.5	836.8
592	2205	801	1	109.5	836.8
592	2266	634	1	109.5	836.8
592	2266	637	1	109.5	836.8
593	2091	611	1	109.5	836.8
593	2187	758	1	109.5	836.8
593	2187	1355	1	109.5	836.8
594	2113	613	1	109.5	836.8
594	2113	616	1	109.5	836.8
594	2179	595	1	109.5	836.8
594	2179	697	1	109.5	836.8
594	2179	841	1	109.5	836.8
595	2179	697	1	109.5	836.8
595	2179	841	1	109.5	836.8
595	2190	609	1	109.5	836.8
595	2190	625	1	109.5	836.8
595	2190	688	1	109.5	836.8
596	2129	650	1	109.5	836.8
596	2205	801	1	109.5	836.8
597	2099	717	1	109.5	836.8
597	2122	684	1	109.5	836.8
597	2122	728	1	109.5	836.8
598	2095	1755	1	109.5	836.8
598	2248	782	1	109.5	836.8
598	2248	1767	1	109.5	836.8
599	2137	642	1	109.5	836.8
599	2137	667	1	109.5	836.8
599	2157	655	1	109.5	836.8
599	2157	738	1	109.5	836.8
599	2157	1277	1	109.5	836.8
600	2279	765	1	109.5	836.8
600	2279	1687	1	109.5	836.8
600	2297	607	1	109.5	836.8
600	2297	632	1	109.5	836.8
600	2297	809	1	109.5	836.8
601	2191	613	1	109.5	836.8
601	2191	818	1	109.5	836.8
601	2247	740	1	109.5	836.8
601	2247	790	1	109.5	836.8
602	2105	654	1	109.5	836.8
602	2105	661	1	109.5	836.8
602	2105	1752	1	109.5	836.8
602	2633	1394	1	109.5	836.8
602	2633	1556	1	109.5	836.8
602	2633	1848	1	109.5	836.8
603	2239	729	1	109.5	836.8
603	2239	1780	1	109.5	836.8
604	2238	696	1	109.5	836.8
604	2238	753	1	109.5	836.8
604	2238	786	1	109.5	836.8
605	2164	644	1	109.5	836.8
605	2164	695	1	109.5	836.8
605	2167	642	1	109.5	836.8
605	2167	696	1	109.5	836.8
605	2167	789	1	109.5	836.8
606	2177	671	1	109.5	836.8
606	2204	693	1	109.5	836.8
607	2225	653	1	109.5	836.8
607	2225	665	1	109.5	836.8
607	2297	632	1	109.5	836.8
607	2297	809	1	109.5	836.8
608	2132	668	1	109.5	836.8
608	2180	619	1	109.5	836.8
608	2180	756	1	109.5	836.8
608	2180	781	1	109.5	836.8
609	2190	625	1	109.5	836.8
609	2190	688	1	109.5	836.8
609	2240	803	1	109.5	836.8
610	2221	645	1	109.5	836.8
610	2221	805	1	109.5	836.8
610	2221	1766	1	109.5	836.8
610	2254	705	1	109.5	836.8
610	2254	808	1	109.5	836.8
610	2254	1743	1	109.5	836.8
611	2140	758	1	109.5	836.8
611	2140	1285	1	109.5	836.8
612	2110	828	1	109.5	836.8
612	2110	1777	1	109.5	836.8
612	2255	691	1	109.5	836.8
612	2255	1685	1	109.5	836.8
613	2113	616	1	109.5	836.8
613	2191	818	1	109.5	836.8
614	2111	692	1	109.5	836.8
614	2257	657	1	109.5	836.8
614	2257	762	1	109.5	836.8
615	2228	654	1	109.5	836.8
615	2228	747	1	109.5	836.8
615	2228	827	1	109.5	836.8
615	2241	651	1	109.5	836.8
615	2241	664	1	109.5	836.8
616	2089	671	1	109.5	836.8
616	2089	776	1	109.5	836.8
617	2120	764	1	109.5	836.8
617	2289	627	1	109.5	836.8
617	2289	768	1	109.5	836.8
618	2195	787	1	109.5	836.8
618	2195	1481	1	109.5	836.8
618	2296	628	1	109.5	836.8
619	2180	756	1	109.5	836.8
619	2180	781	1	109.5	836.8
619	2253	791	1	109.5	836.8
620	2133	635	1	109.5	836.8
620	2133	647	1	109.5	836.8
620	2145	779	1	109.5	836.8
620	2145	1468	1	109.5	836.8
620	2145	1531	1	109.5	836.8
621	2269	622	1	109.5	836.8
621	2269	623	1	109.5	836.8
621	2271	703	1	109.5	836.8
621	2271	811	1	109.5	836.8
622	2232	708	1	109.5	836.8
622	2232	755	1	109.5	836.8
622	2232	1750	1	109.5	836.8
622	2269	623	1	109.5	836.8
623	2136	804	1	109.5	836.8
623	2136	825	1	109.5	836.8
623	2136	829	1	109.5	836.8
624	2171	685	1	109.5	836.8
624	2171	1469	1	109.5	836.8
624	2200	639	1	109.5	836.8
624	2200	650	1	109.5	836.8
624	2200	689	1	109.5	836.8
625	2115	752	1	109.5	836.8
625	2190	688	1	109.5	836.8
626	2236	735	1	109.5	836.8
626	2236	793	1	109.5	836.8
626	2236	816	1	109.5	836.8
626	2292	646	1	109.5	836.8
627	2289	768	1	109.5	836.8
628	2586	690	1	109.5	836.8
628	2586	1459	1	109.5	836.8
628	2586	1619	1	109.5	836.8
629	2146	672	1	109.5	836.8
629	2612	1382	1	109.5	836.8
629	2612	1464	1	109.5	836.8
629	2612	1526	1	109.5	836.8
630	2193	774	1	109.5	836.8
630	2262	824	1	109.5	836.8
631	2096	791	1	109.5	836.8
631	2176	634	1	109.5	836.8
631	2176	710	1	109.5	836.8
631	2176	737	1	109.5	836.8
632	2297	809	1	109.5	836.8
632	2300	714	1	109.5	836.8
633	2128	702	1	109.5	836.8
633	2128	731	1	109.5	836.8
633	2128	1392	1	109.5	836.8
633	2267	755	1	109.5	836.8
633	2267	1746	1	109.5	836.8
634	2176	710	1	109.5	836.8
634	2176	737	1	109.5	836.8
634	2266	637	1	109.5	836.8
635	2133	647	1	109.5	836.8
635	2158	821	1	109.5	836.8
635	2158	1686	1	109.5	836.8
636	2106	656	1	109.5	836.8
636	2106	707	1	109.5	836.8
636	2142	810	1	109.5	836.8
637	2123	718	1	109.5	836.8
637	2123	754	1	109.5	836.8
637	2123	819	1	109.5	836.8
638	2150	676	1	109.5	836.8
638	2150	751	1	109.5	836.8
638	2265	773	1	109.5	836.8
639	2161	737	1	109.5	836.8
639	2200	650	1	109.5	836.8
639	2200	689	1	109.5	836.8
640	2156	799	1	109.5	836.8
640	2260	792	1	109.5	836.8
641	2636	1359	1	109.5	836.8
641	2636	1457	1	109.5	836.8
641	2636	1627	1	109.5	836.8
642	2137	667	1	109.5	836.8
642	2167	696	1	109.5	836.8
642	2167	789	1	109.5	836.8
643	2108	689	1	109.5	836.8
643	2108	731	1	109.5	836.8
643	2108	1403	1	109.5	836.8
644	2164	695	1	109.5	836.8
644	2310	662	1	109.5	836.8
644	2310	839	1	109.5	836.8
644	2310	1778	1	109.5	836.8
645	2221	805	1	109.5	836.8
645	2221	1766	1	109.5	836.8
645	2288	1748	1	109.5	836.8
646	2174	659	1	109.5	836.8
646	2174	681	1	109.5	836.8
647	2555	1293	1	109.5	836.8
647	2555	1390	1	109.5	836.8
647	2555	1541	1	109.5	836.8
648	2594	855	1	109.5	836.8
648	2594	1072	1	109.5	836.8
648	2594	1381	1	109.5	836.8
649	1890	1736	1	109.5	836.8
649	2186	662	1	109.5	836.8
649	2186	666	1	109.5	836.8
650	2200	689	1	109.5	836.8
651	2241	664	1	109.5	836.8
651	2665	1273	1	109.5	836.8
651	2665	1415	1	109.5	836.8
651	2665	1698	1	109.5	836.8
652	2188	688	1	109.5	836.8
652	2202	711	1	109.5	836.8
652	2202	759	1	109.5	836.8
653	2225	665	1	109.5	836.8
653	2250	725	1	109.5	836.8
653	2250	733	1	109.5	836.8
654	2105	661	1	109.5	836.8
654	2105	1752	1	109.5	836.8
654	2228	747	1	109.5	836.8
654	2228	827	1	109.5	836.8
655	1933	1065	1	109.5	836.8
655	2157	738	1	109.5	836.8
655	2157	1277	1	109.5	836.8
656	2106	707	1	109.5	836.8
657	2116	687	1	109.5	836.8
657	2116	812	1	109.5	836.8
657	2257	762	1	109.5	836.8
658	2155	666	1	109.5	836.8
658	2749	1569	1	109.5	836.8
658	2749	1676	1	109.5	836.8
658	2749	1864	1	109.5	836.8
659	1995	802	1	109.5	836.8
659	2174	681	1	109.5	836.8
660	2149	700	1	109.5	836.8
660	2149	1682	1	109.5	836.8
660	2216	690	1	109.5	836.8
660	2216	772	1	109.5	836.8
660	2216	780	1	109.5	836.8
661	2105	1752	1	109.5	836.8
661	2172	742	1	109.5	836.8
662	2186	666	1	109.5	836.8
662	2310	839	1	109.5	836.8
662	2310	1778	1	109.5	836.8
663	2138	670	1	109.5	836.8
663	2138	803	1	109.5	836.8
663	2306	674	1	109.5	836.8
663	2306	1776	1	109.5	836.8
664	2175	770	1	109.5	836.8
665	2207	682	1	109.5	836.8
668	2107	669	1	109.5	836.8
669	2201	768	1	109.5	836.8
669	2201	800	1	109.5	836.8
670	2138	803	1	109.5	836.8
670	2275	744	1	109.5	836.8
670	2275	782	1	109.5	836.8
670	2275	788	1	109.5	836.8
671	2089	776	1	109.5	836.8
673	2231	772	1	109.5	836.8
673	2231	787	1	109.5	836.8
673	2231	1386	1	109.5	836.8
674	1938	1712	1	109.5	836.8
674	2306	1776	1	109.5	836.8
675	2102	676	1	109.5	836.8
675	2209	732	1	109.5	836.8
676	2150	751	1	109.5	836.8
677	2295	678	1	109.5	836.8
677	2295	682	1	109.5	836.8
677	2295	722	1	109.5	836.8
678	2203	780	1	109.5	836.8
678	2203	801	1	109.5	836.8
678	2295	682	1	109.5	836.8
678	2295	722	1	109.5	836.8
679	2233	680	1	109.5	836.8
679	2270	800	1	109.5	836.8
679	2270	809	1	109.5	836.8
681	2118	805	1	109.5	836.8
681	2118	1741	1	109.5	836.8
682	2295	722	1	109.5	836.8
683	2751	982	1	109.5	836.8
683	2751	1684	1	109.5	836.8
684	2122	728	1	109.5	836.8
684	2252	824	1	109.5	836.8
685	2171	1469	1	109.5	836.8
685	2199	773	1	109.5	836.8
685	2199	1322	1	109.5	836.8
686	2101	806	1	109.5	836.8
686	2101	1751	1	109.5	836.8
686	2162	823	1	109.5	836.8
686	2162	1762	1	109.5	836.8
687	2116	812	1	109.5	836.8
687	2227	693	1	109.5	836.8
687	2227	820	1	109.5	836.8
689	2108	731	1	109.5	836.8
689	2108	1403	1	109.5	836.8
690	2216	772	1	109.5	836.8
690	2216	780	1	109.5	836.8
690	2586	1459	1	109.5	836.8
690	2586	1619	1	109.5	836.8
691	2255	1685	1	109.5	836.8
691	2278	778	1	109.5	836.8
691	2278	825	1	109.5	836.8
692	2154	743	1	109.5	836.8
692	2154	812	1	109.5	836.8
693	2227	820	1	109.5	836.8
694	2251	764	1	109.5	836.8
694	2754	821	1	109.5	836.8
695	2178	814	1	109.5	836.8
696	2167	789	1	109.5	836.8
696	2238	753	1	109.5	836.8
696	2238	786	1	109.5	836.8
697	2179	841	1	109.5	836.8
697	2261	701	1	109.5	836.8
697	2261	734	1	109.5	836.8
697	2261	1769	1	109.5	836.8
698	2249	732	1	109.5	836.8
698	2249	786	1	109.5	836.8
699	2235	750	1	109.5	836.8
699	2246	747	1	109.5	836.8
699	2246	783	1	109.5	836.8
700	2114	1487	1	109.5	836.8
700	2149	1682	1	109.5	836.8
701	2261	734	1	109.5	836.8
701	2261	1769	1	109.5	836.8
701	2647	1543	1	109.5	836.8
701	2647	1625	1	109.5	836.8
701	2647	1832	1	109.5	836.8
702	2128	731	1	109.5	836.8
702	2128	1392	1	109.5	836.8
702	2206	785	1	109.5	836.8
702	2206	1542	1	109.5	836.8
702	2206	1747	1	109.5	836.8
703	2271	811	1	109.5	836.8
703	2285	724	1	109.5	836.8
703	2285	784	1	109.5	836.8
703	2285	790	1	109.5	836.8
704	2143	712	1	109.5	836.8
704	2143	1761	1	109.5	836.8
704	2294	748	1	109.5	836.8
704	2294	799	1	109.5	836.8
705	2098	806	1	109.5	836.8
705	2098	831	1	109.5	836.8
705	2098	1749	1	109.5	836.8
705	2254	808	1	109.5	836.8
705	2254	1743	1	109.5	836.8
706	2124	750	1	109.5	836.8
706	2124	830	1	109.5	836.8
706	2210	739	1	109.5	836.8
706	2210	835	1	109.5	836.8
707	2088	727	1	109.5	836.8
707	2088	1681	1	109.5	836.8
708	2208	757	1	109.5	836.8
708	2208	822	1	109.5	836.8
708	2208	1744	1	109.5	836.8
708	2232	755	1	109.5	836.8
708	2232	1750	1	109.5	836.8
709	2144	797	1	109.5	836.8
709	2160	771	1	109.5	836.8
709	2160	1757	1	109.5	836.8
710	2176	737	1	109.5	836.8
710	2183	725	1	109.5	836.8
710	2183	781	1	109.5	836.8
710	2183	815	1	109.5	836.8
711	2093	713	1	109.5	836.8
711	2202	759	1	109.5	836.8
712	2143	1761	1	109.5	836.8
712	2217	817	1	109.5	836.8
715	2304	828	1	109.5	836.8
715	2304	829	1	109.5	836.8
715	2304	1774	1	109.5	836.8
716	2192	1441	1	109.5	836.8
716	2192	1763	1	109.5	836.8
716	2196	774	1	109.5	836.8
716	2196	1362	1	109.5	836.8
716	2196	1420	1	109.5	836.8
718	2123	754	1	109.5	836.8
718	2123	819	1	109.5	836.8
718	2169	742	1	109.5	836.8
718	2169	749	1	109.5	836.8
719	2229	720	1	109.5	836.8
719	2229	793	1	109.5	836.8
720	2197	726	1	109.5	836.8
720	2229	793	1	109.5	836.8
721	2290	726	1	109.5	836.8
721	2290	730	1	109.5	836.8
721	2290	775	1	109.5	836.8
721	2291	798	1	109.5	836.8
724	2276	818	1	109.5	836.8
724	2285	784	1	109.5	836.8
724	2285	790	1	109.5	836.8
725	2183	781	1	109.5	836.8
725	2183	815	1	109.5	836.8
725	2250	733	1	109.5	836.8
726	2290	730	1	109.5	836.8
726	2290	775	1	109.5	836.8
727	2088	1681	1	109.5	836.8
729	2239	1780	1	109.5	836.8
729	2309	837	1	109.5	836.8
729	2309	1498	1	109.5	836.8
729	2309	1779	1	109.5	836.8
730	2286	813	1	109.5	836.8
730	2290	775	1	109.5	836.8
731	2108	1403	1	109.5	836.8
731	2128	1392	1	109.5	836.8
732	2249	786	1	109.5	836.8
734	2165	1304	1	109.5	836.8
734	2165	1742	1	109.5	836.8
734	2261	1769	1	109.5	836.8
735	2097	775	1	109.5	836.8
735	2236	793	1	109.5	836.8
735	2236	816	1	109.5	836.8
736	2092	753	1	109.5	836.8
738	2094	1404	1	109.5	836.8
738	2157	1277	1	109.5	836.8
739	2210	835	1	109.5	836.8
739	2263	749	1	109.5	836.8
739	2263	761	1	109.5	836.8
740	2247	790	1	109.5	836.8
740	2282	746	1	109.5	836.8
741	2256	767	1	109.5	836.8
741	2273	744	1	109.5	836.8
741	2273	757	1	109.5	836.8
742	2169	749	1	109.5	836.8
743	2154	812	1	109.5	836.8
744	2273	757	1	109.5	836.8
744	2275	782	1	109.5	836.8
744	2275	788	1	109.5	836.8
745	2090	826	1	109.5	836.8
745	2090	1306	1	109.5	836.8
745	2090	1758	1	109.5	836.8
745	2163	1393	1	109.5	836.8
746	2226	826	1	109.5	836.8
747	2228	827	1	109.5	836.8
747	2246	783	1	109.5	836.8
748	2148	1753	1	109.5	836.8
748	2294	799	1	109.5	836.8
749	2263	761	1	109.5	836.8
750	2124	830	1	109.5	836.8
752	2121	833	1	109.5	836.8
752	2121	1760	1	109.5	836.8
753	2238	786	1	109.5	836.8
754	2123	819	1	109.5	836.8
754	2258	761	1	109.5	836.8
754	2258	769	1	109.5	836.8
755	2232	1750	1	109.5	836.8
755	2267	1746	1	109.5	836.8
756	2180	781	1	109.5	836.8
756	2198	819	1	109.5	836.8
757	2208	822	1	109.5	836.8
757	2208	1744	1	109.5	836.8
758	2140	1285	1	109.5	836.8
758	2187	1355	1	109.5	836.8
759	2575	1294	1	109.5	836.8
759	2575	1382	1	109.5	836.8
760	2173	795	1	109.5	836.8
760	2242	798	1	109.5	836.8
761	2258	769	1	109.5	836.8
763	2223	1296	1	109.5	836.8
763	2607	1270	1	109.5	836.8
763	2607	1336	1	109.5	836.8
765	2279	1687	1	109.5	836.8
766	2264	833	1	109.5	836.8
766	2264	1770	1	109.5	836.8
766	2293	788	1	109.5	836.8
766	2293	1773	1	109.5	836.8
767	2277	776	1	109.5	836.8
768	2201	800	1	109.5	836.8
770	2302	777	1	109.5	836.8
771	2160	1757	1	109.5	836.8
771	2281	794	1	109.5	836.8
772	2216	780	1	109.5	836.8
772	2231	787	1	109.5	836.8
772	2231	1386	1	109.5	836.8
773	2199	1322	1	109.5	836.8
774	2196	1362	1	109.5	836.8
774	2196	1420	1	109.5	836.8
778	2237	1688	1	109.5	836.8
778	2278	825	1	109.5	836.8
779	2145	1468	1	109.5	836.8
779	2145	1531	1	109.5	836.8
780	2203	801	1	109.5	836.8
781	2183	815	1	109.5	836.8
782	2248	1767	1	109.5	836.8
782	2275	788	1	109.5	836.8
783	2287	807	1	109.5	836.8
783	2287	834	1	109.5	836.8
783	2287	1781	1	109.5	836.8
784	2280	804	1	109.5	836.8
784	2280	810	1	109.5	836.8
784	2285	790	1	109.5	836.8
785	2206	1542	1	109.5	836.8
785	2206	1747	1	109.5	836.8
785	2268	822	1	109.5	836.8
785	2268	1771	1	109.5	836.8
787	2195	1481	1	109.5	836.8
787	2231	1386	1	109.5	836.8
788	2293	1773	1	109.5	836.8
792	2119	1745	1	109.5	836.8
793	2236	816	1	109.5	836.8
794	2220	1765	1	109.5	836.8
795	2298	796	1	109.5	836.8
796	2170	807	1	109.5	836.8
800	2270	809	1	109.5	836.8
802	2274	834	1	109.5	836.8
802	2274	1772	1	109.5	836.8
804	2136	825	1	109.5	836.8
804	2136	829	1	109.5	836.8
804	2280	810	1	109.5	836.8
805	2118	1741	1	109.5	836.8
805	2221	1766	1	109.5	836.8
806	2098	831	1	109.5	836.8
806	2098	1749	1	109.5	836.8
806	2101	1751	1	109.5	836.8
807	2287	834	1	109.5	836.8
807	2287	1781	1	109.5	836.8
808	2103	813	1	109.5	836.8
808	2254	1743	1	109.5	836.8
811	2185	815	1	109.5	836.8
816	2139	820	1	109.5	836.8
821	2158	1686	1	109.5	836.8
822	2208	1744	1	109.5	836.8
822	2268	1771	1	109.5	836.8
823	2162	1762	1	109.5	836.8
823	2656	1395	1	109.5	836.8
823	2656	1507	1	109.5	836.8
823	2656	1667	1	109.5	836.8
825	2136	829	1	109.5	836.8
826	2090	1306	1	109.5	836.8
826	2090	1758	1	109.5	836.8
827	2215	1663	1	109.5	836.8
827	2215	1698	1	109.5	836.8
828	2110	1777	1	109.5	836.8
828	2304	829	1	109.5	836.8
828	2304	1774	1	109.5	836.8
829	2304	1774	1	109.5	836.8
830	2305	832	1	109.5	836.8
830	2305	835	1	109.5	836.8
830	2305	1775	1	109.5	836.8
831	2098	1749	1	109.5	836.8
831	2212	1764	1	109.5	836.8
832	2259	1768	1	109.5	836.8
832	2305	835	1	109.5	836.8
832	2305	1775	1	109.5	836.8
833	2121	1760	1	109.5	836.8
833	2264	1770	1	109.5	836.8
834	2274	1772	1	109.5	836.8
834	2287	1781	1	109.5	836.8
835	2305	1775	1	109.5	836.8
836	2303	837	1	109.5	836.8
836	2303	838	1	109.5	836.8
836	2307	840	1	109.5	836.8
836	2307	1304	1	109.5	836.8
836	2307	1678	1	109.5	836.8
837	2303	838	1	109.5	836.8
837	2309	1498	1	109.5	836.8
837	2309	1779	1	109.5	836.8
838	2308	840	1	109.5	836.8
838	2308	841	1	109.5	836.8
838	2308	1408	1	109.5	836.8
839	2310	1778	1	109.5	836.8
839	2760	1679	1	109.5	836.8
839	2760	1700	1	109.5	836.8
840	2307	1304	1	109.5	836.8
840	2307	1678	1	109.5	836.8
840	2308	841	1	109.5	836.8
840	2308	1408	1	109.5	836.8
841	2308	1408	1	109.5	836.8
842	2457	994	1	109.5	836.8
842	2457	1195	1	109.5	836.8
842	2457	1443	1	109.5	836.8
842	2499	1017	1	109.5	836.8
842	2499	1182	1	109.5	836.8
842	2499	1402	1	109.5	836.8
843	2319	1000	1	109.5	836.8
843	2319	1152	1	109.5	836.8
843	2319	1192	1	109.5	836.8
843	2321	997	1	109.5	836.8
843	2321	1014	1	109.5	836.8
843	2321	1134	1	109.5	836.8
844	2347	907	1	109.5	836.8
844	2347	911	1	109.5	836.8
844	2347	1044	1	109.5	836.8
844	2369	865	1	109.5	836.8
844	2369	954	1	109.5	836.8
844	2369	1186	1	109.5	836.8
845	2417	988	1	109.5	836.8
845	2417	1137	1	109.5	836.8
845	2417	1143	1	109.5	836.8
845	2463	883	1	109.5	836.8
845	2463	985	1	109.5	836.8
845	2463	1116	1	109.5	836.8
846	2431	850	1	109.5	836.8
846	2431	965	1	109.5	836.8
846	2431	1065	1	109.5	836.8
846	2453	967	1	109.5	836.8
846	2453	1097	1	109.5	836.8
846	2453	1098	1	109.5	836.8
847	2409	928	1	109.5	836.8
847	2409	972	1	109.5	836.8
847	2409	1132	1	109.5	836.8
847	2596	1312	1	109.5	836.8
847	2596	1498	1	109.5	836.8
847	2596	1506	1	109.5	836.8
848	2385	1021	1	109.5	836.8
848	2385	1061	1	109.5	836.8
848	2385	1113	1	109.5	836.8
848	2429	921	1	109.5	836.8
848	2429	1093	1	109.5	836.8
848	2429	1149	1	109.5	836.8
849	2318	934	1	109.5	836.8
849	2318	1048	1	109.5	836.8
849	2318	1208	1	109.5	836.8
849	2506	932	1	109.5	836.8
849	2506	1147	1	109.5	836.8
849	2506	1229	1	109.5	836.8
850	2362	1027	1	109.5	836.8
850	2362	1175	1	109.5	836.8
850	2431	965	1	109.5	836.8
850	2431	1065	1	109.5	836.8
851	2374	909	1	109.5	836.8
851	2374	959	1	109.5	836.8
851	2374	1196	1	109.5	836.8
851	2482	907	1	109.5	836.8
851	2482	1047	1	109.5	836.8
851	2482	1240	1	109.5	836.8
852	2494	1219	1	109.5	836.8
852	2494	1813	1	109.5	836.8
852	2494	1814	1	109.5	836.8
852	2508	868	1	109.5	836.8
852	2508	1037	1	109.5	836.8
852	2508	1062	1	109.5	836.8
853	2467	1018	1	109.5	836.8
853	2467	1157	1	109.5	836.8
853	2467	1207	1	109.5	836.8
853	2512	1183	1	109.5	836.8
853	2512	1205	1	109.5	836.8
853	2512	1816	1	109.5	836.8
854	1945	1180	1	109.5	836.8
854	2316	931	1	109.5	836.8
854	2316	1128	1	109.5	836.8
854	2316	1130	1	109.5	836.8
855	2387	917	1	109.5	836.8
855	2594	1072	1	109.5	836.8
855	2594	1381	1	109.5	836.8
856	2331	900	1	109.5	836.8
856	2331	966	1	109.5	836.8
856	2331	1214	1	109.5	836.8
856	2515	998	1	109.5	836.8
856	2515	1034	1	109.5	836.8
856	2515	1045	1	109.5	836.8
857	2317	933	1	109.5	836.8
857	2317	1015	1	109.5	836.8
857	2317	1795	1	109.5	836.8
857	2477	1030	1	109.5	836.8
857	2477	1074	1	109.5	836.8
857	2477	1179	1	109.5	836.8
858	2373	872	1	109.5	836.8
858	2373	874	1	109.5	836.8
858	2373	995	1	109.5	836.8
858	2444	993	1	109.5	836.8
858	2444	1697	1	109.5	836.8
859	2342	964	1	109.5	836.8
859	2342	1033	1	109.5	836.8
859	2342	1181	1	109.5	836.8
859	2519	893	1	109.5	836.8
859	2519	1049	1	109.5	836.8
859	2519	1131	1	109.5	836.8
860	2386	1151	1	109.5	836.8
860	2386	1782	1	109.5	836.8
860	2408	863	1	109.5	836.8
860	2408	1069	1	109.5	836.8
860	2408	1106	1	109.5	836.8
861	2348	867	1	109.5	836.8
861	2348	871	1	109.5	836.8
861	2348	951	1	109.5	836.8
861	2404	874	1	109.5	836.8
861	2404	987	1	109.5	836.8
861	2404	997	1	109.5	836.8
862	2522	1252	1	109.5	836.8
862	2522	1253	1	109.5	836.8
862	2522	1699	1	109.5	836.8
863	2322	982	1	109.5	836.8
863	2322	1130	1	109.5	836.8
863	2322	1689	1	109.5	836.8
863	2408	1069	1	109.5	836.8
863	2408	1106	1	109.5	836.8
864	2324	878	1	109.5	836.8
864	2324	1093	1	109.5	836.8
864	2324	1094	1	109.5	836.8
864	2395	917	1	109.5	836.8
864	2395	1081	1	109.5	836.8
864	2395	1187	1	109.5	836.8
865	2325	867	1	109.5	836.8
865	2325	1224	1	109.5	836.8
865	2325	1229	1	109.5	836.8
865	2369	954	1	109.5	836.8
865	2369	1186	1	109.5	836.8
866	2402	975	1	109.5	836.8
866	2402	1136	1	109.5	836.8
866	2402	1657	1	109.5	836.8
866	2511	898	1	109.5	836.8
866	2511	1138	1	109.5	836.8
866	2511	1215	1	109.5	836.8
867	2325	1224	1	109.5	836.8
867	2325	1229	1	109.5	836.8
867	2348	871	1	109.5	836.8
867	2348	951	1	109.5	836.8
868	2508	1037	1	109.5	836.8
868	2508	1062	1	109.5	836.8
868	2517	975	1	109.5	836.8
868	2517	1212	1	109.5	836.8
868	2517	1213	1	109.5	836.8
869	2450	896	1	109.5	836.8
869	2450	929	1	109.5	836.8
869	2450	1101	1	109.5	836.8
870	2339	896	1	109.5	836.8
870	2339	955	1	109.5	836.8
870	2339	1060	1	109.5	836.8
870	2438	892	1	109.5	836.8
870	2438	930	1	109.5	836.8
870	2438	1140	1	109.5	836.8
871	2348	951	1	109.5	836.8
871	2465	885	1	109.5	836.8
871	2465	945	1	109.5	836.8
871	2465	976	1	109.5	836.8
872	2062	935	1	109.5	836.8
872	2373	874	1	109.5	836.8
872	2373	995	1	109.5	836.8
873	2401	902	1	109.5	836.8
873	2401	955	1	109.5	836.8
873	2401	1091	1	109.5	836.8
873	2434	929	1	109.5	836.8
873	2434	962	1	109.5	836.8
873	2434	1140	1	109.5	836.8
874	2373	995	1	109.5	836.8
874	2404	987	1	109.5	836.8
874	2404	997	1	109.5	836.8
875	2355	1036	1	109.5	836.8
875	2355	1052	1	109.5	836.8
875	2355	1064	1	109.5	836.8
875	2480	910	1	109.5	836.8
875	2480	1057	1	109.5	836.8
875	2480	1209	1	109.5	836.8
876	2501	963	1	109.5	836.8
876	2501	1188	1	109.5	836.8
876	2501	1211	1	109.5	836.8
876	2611	1310	1	109.5	836.8
876	2611	1636	1	109.5	836.8
876	2611	1647	1	109.5	836.8
877	2336	969	1	109.5	836.8
877	2336	1118	1	109.5	836.8
877	2724	1248	1	109.5	836.8
877	2724	1395	1	109.5	836.8
877	2724	1841	1	109.5	836.8
878	2324	1093	1	109.5	836.8
878	2324	1094	1	109.5	836.8
878	2356	961	1	109.5	836.8
879	2490	1097	1	109.5	836.8
879	2490	1217	1	109.5	836.8
879	2490	1225	1	109.5	836.8
879	2518	916	1	109.5	836.8
879	2518	918	1	109.5	836.8
879	2518	1073	1	109.5	836.8
880	2312	1032	1	109.5	836.8
880	2312	1089	1	109.5	836.8
880	2312	1193	1	109.5	836.8
880	2338	1074	1	109.5	836.8
880	2338	1105	1	109.5	836.8
880	2338	1228	1	109.5	836.8
881	1914	1176	1	109.5	836.8
881	2439	906	1	109.5	836.8
881	2439	935	1	109.5	836.8
881	2439	1145	1	109.5	836.8
882	2405	892	1	109.5	836.8
882	2405	1227	1	109.5	836.8
882	2405	1231	1	109.5	836.8
882	2445	1023	1	109.5	836.8
882	2445	1070	1	109.5	836.8
882	2445	1082	1	109.5	836.8
883	2463	985	1	109.5	836.8
883	2463	1116	1	109.5	836.8
883	2521	1187	1	109.5	836.8
883	2521	1194	1	109.5	836.8
883	2521	1562	1	109.5	836.8
884	2360	1080	1	109.5	836.8
884	2360	1088	1	109.5	836.8
884	2360	1220	1	109.5	836.8
884	2376	1110	1	109.5	836.8
884	2376	1160	1	109.5	836.8
884	2376	1228	1	109.5	836.8
885	2341	920	1	109.5	836.8
885	2341	1209	1	109.5	836.8
885	2341	1785	1	109.5	836.8
885	2465	945	1	109.5	836.8
885	2465	976	1	109.5	836.8
886	2476	913	1	109.5	836.8
886	2476	1158	1	109.5	836.8
886	2476	1184	1	109.5	836.8
886	2520	1004	1	109.5	836.8
886	2520	1006	1	109.5	836.8
886	2520	1230	1	109.5	836.8
887	1944	1701	1	109.5	836.8
887	2084	1254	1	109.5	836.8
888	2460	979	1	109.5	836.8
888	2460	1025	1	109.5	836.8
888	2460	1220	1	109.5	836.8
888	2468	1015	1	109.5	836.8
888	2468	1199	1	109.5	836.8
888	2468	1808	1	109.5	836.8
889	1871	1716	1	109.5	836.8
889	2352	904	1	109.5	836.8
889	2352	928	1	109.5	836.8
889	2352	936	1	109.5	836.8
890	2349	901	1	109.5	836.8
890	2349	964	1	109.5	836.8
890	2349	1150	1	109.5	836.8
890	2423	1096	1	109.5	836.8
890	2423	1197	1	109.5	836.8
890	2423	1218	1	109.5	836.8
891	2337	899	1	109.5	836.8
891	2337	1042	1	109.5	836.8
891	2337	1169	1	109.5	836.8
891	2446	971	1	109.5	836.8
891	2446	1163	1	109.5	836.8
891	2446	1242	1	109.5	836.8
892	2405	1227	1	109.5	836.8
892	2405	1231	1	109.5	836.8
892	2438	930	1	109.5	836.8
892	2438	1140	1	109.5	836.8
893	2427	994	1	109.5	836.8
893	2427	1082	1	109.5	836.8
893	2427	1100	1	109.5	836.8
893	2519	1049	1	109.5	836.8
893	2519	1131	1	109.5	836.8
894	2484	1183	1	109.5	836.8
894	2484	1250	1	109.5	836.8
894	2484	1811	1	109.5	836.8
894	2489	1038	1	109.5	836.8
894	2489	1039	1	109.5	836.8
894	2489	1040	1	109.5	836.8
895	2363	926	1	109.5	836.8
895	2363	996	1	109.5	836.8
895	2363	1182	1	109.5	836.8
895	2500	1201	1	109.5	836.8
895	2500	1221	1	109.5	836.8
895	2500	1226	1	109.5	836.8
896	2339	955	1	109.5	836.8
896	2339	1060	1	109.5	836.8
896	2450	929	1	109.5	836.8
896	2450	1101	1	109.5	836.8
897	2329	914	1	109.5	836.8
897	2329	1086	1	109.5	836.8
897	2329	1087	1	109.5	836.8
897	2492	939	1	109.5	836.8
897	2492	951	1	109.5	836.8
897	2492	1134	1	109.5	836.8
898	2394	1063	1	109.5	836.8
898	2394	1076	1	109.5	836.8
898	2394	1099	1	109.5	836.8
898	2511	1138	1	109.5	836.8
898	2511	1215	1	109.5	836.8
899	2337	1042	1	109.5	836.8
899	2337	1169	1	109.5	836.8
899	2497	979	1	109.5	836.8
899	2497	1184	1	109.5	836.8
899	2497	1193	1	109.5	836.8
900	2331	966	1	109.5	836.8
900	2331	1214	1	109.5	836.8
900	2392	944	1	109.5	836.8
900	2392	1078	1	109.5	836.8
900	2392	1159	1	109.5	836.8
901	2349	964	1	109.5	836.8
901	2349	1150	1	109.5	836.8
901	2478	1171	1	109.5	836.8
901	2478	1178	1	109.5	836.8
901	2478	1186	1	109.5	836.8
902	2351	940	1	109.5	836.8
902	2351	1013	1	109.5	836.8
902	2351	1067	1	109.5	836.8
902	2401	955	1	109.5	836.8
902	2401	1091	1	109.5	836.8
903	2472	987	1	109.5	836.8
903	2472	1102	1	109.5	836.8
903	2472	1240	1	109.5	836.8
904	2352	928	1	109.5	836.8
904	2352	936	1	109.5	836.8
904	2487	1050	1	109.5	836.8
904	2487	1172	1	109.5	836.8
904	2487	1786	1	109.5	836.8
905	2384	937	1	109.5	836.8
905	2384	1162	1	109.5	836.8
905	2407	1010	1	109.5	836.8
905	2407	1175	1	109.5	836.8
906	2424	953	1	109.5	836.8
906	2424	1022	1	109.5	836.8
906	2424	1111	1	109.5	836.8
906	2439	935	1	109.5	836.8
906	2439	1145	1	109.5	836.8
907	2347	911	1	109.5	836.8
907	2347	1044	1	109.5	836.8
907	2482	1047	1	109.5	836.8
907	2482	1240	1	109.5	836.8
908	2314	918	1	109.5	836.8
908	2314	1010	1	109.5	836.8
908	2314	1027	1	109.5	836.8
908	2357	925	1	109.5	836.8
908	2357	981	1	109.5	836.8
908	2357	1090	1	109.5	836.8
909	2326	914	1	109.5	836.8
909	2326	925	1	109.5	836.8
909	2326	1058	1	109.5	836.8
909	2374	959	1	109.5	836.8
909	2374	1196	1	109.5	836.8
910	2413	976	1	109.5	836.8
910	2413	1047	1	109.5	836.8
910	2413	1191	1	109.5	836.8
910	2480	1057	1	109.5	836.8
910	2480	1209	1	109.5	836.8
911	2347	1044	1	109.5	836.8
911	2377	1008	1	109.5	836.8
911	2377	1057	1	109.5	836.8
911	2377	1216	1	109.5	836.8
912	2354	970	1	109.5	836.8
912	2354	1024	1	109.5	836.8
912	2354	1086	1	109.5	836.8
912	2411	1018	1	109.5	836.8
912	2411	1029	1	109.5	836.8
912	2411	1234	1	109.5	836.8
913	2476	1158	1	109.5	836.8
913	2476	1184	1	109.5	836.8
913	2491	1038	1	109.5	836.8
913	2491	1121	1	109.5	836.8
913	2491	1227	1	109.5	836.8
914	2326	925	1	109.5	836.8
914	2326	1058	1	109.5	836.8
914	2329	1086	1	109.5	836.8
914	2329	1087	1	109.5	836.8
915	2393	922	1	109.5	836.8
915	2393	1177	1	109.5	836.8
915	2393	1212	1	109.5	836.8
915	2414	934	1	109.5	836.8
915	2414	985	1	109.5	836.8
915	2414	1168	1	109.5	836.8
916	2496	923	1	109.5	836.8
916	2496	1141	1	109.5	836.8
916	2496	1234	1	109.5	836.8
916	2518	918	1	109.5	836.8
916	2518	1073	1	109.5	836.8
917	2395	1081	1	109.5	836.8
917	2395	1187	1	109.5	836.8
918	2314	1010	1	109.5	836.8
918	2314	1027	1	109.5	836.8
918	2518	1073	1	109.5	836.8
919	2366	943	1	109.5	836.8
919	2366	1126	1	109.5	836.8
919	2366	1214	1	109.5	836.8
919	2430	1156	1	109.5	836.8
919	2430	1251	1	109.5	836.8
919	2430	1825	1	109.5	836.8
920	2341	1209	1	109.5	836.8
920	2341	1785	1	109.5	836.8
920	2513	1122	1	109.5	836.8
920	2513	1165	1	109.5	836.8
920	2513	1216	1	109.5	836.8
921	2382	1006	1	109.5	836.8
921	2382	1056	1	109.5	836.8
921	2382	1154	1	109.5	836.8
921	2429	1093	1	109.5	836.8
921	2429	1149	1	109.5	836.8
922	2393	1177	1	109.5	836.8
922	2393	1212	1	109.5	836.8
922	2466	1117	1	109.5	836.8
922	2466	1164	1	109.5	836.8
922	2466	1200	1	109.5	836.8
923	2421	1087	1	109.5	836.8
923	2421	1185	1	109.5	836.8
923	2421	1217	1	109.5	836.8
923	2496	1141	1	109.5	836.8
923	2496	1234	1	109.5	836.8
924	2418	939	1	109.5	836.8
924	2418	1173	1	109.5	836.8
924	2418	1235	1	109.5	836.8
924	2509	1033	1	109.5	836.8
924	2509	1044	1	109.5	836.8
924	2509	1185	1	109.5	836.8
925	2326	1058	1	109.5	836.8
925	2357	981	1	109.5	836.8
925	2357	1090	1	109.5	836.8
926	2328	1053	1	109.5	836.8
926	2328	1073	1	109.5	836.8
926	2328	1124	1	109.5	836.8
926	2363	996	1	109.5	836.8
926	2363	1182	1	109.5	836.8
927	2335	1011	1	109.5	836.8
927	2335	1029	1	109.5	836.8
927	2335	1032	1	109.5	836.8
927	2368	957	1	109.5	836.8
927	2368	1046	1	109.5	836.8
927	2368	1090	1	109.5	836.8
928	2352	936	1	109.5	836.8
928	2409	972	1	109.5	836.8
928	2409	1132	1	109.5	836.8
929	2434	962	1	109.5	836.8
929	2434	1140	1	109.5	836.8
929	2450	1101	1	109.5	836.8
930	2438	1140	1	109.5	836.8
930	2498	1109	1	109.5	836.8
930	2498	1195	1	109.5	836.8
930	2498	1241	1	109.5	836.8
931	2316	1128	1	109.5	836.8
931	2316	1130	1	109.5	836.8
931	2361	1232	1	109.5	836.8
931	2361	1236	1	109.5	836.8
931	2361	1388	1	109.5	836.8
932	2462	949	1	109.5	836.8
932	2462	1177	1	109.5	836.8
932	2462	1215	1	109.5	836.8
932	2506	1147	1	109.5	836.8
932	2506	1229	1	109.5	836.8
933	2317	1015	1	109.5	836.8
933	2317	1795	1	109.5	836.8
933	2459	1020	1	109.5	836.8
933	2459	1146	1	109.5	836.8
933	2459	1823	1	109.5	836.8
934	2318	1048	1	109.5	836.8
934	2318	1208	1	109.5	836.8
934	2414	985	1	109.5	836.8
934	2414	1168	1	109.5	836.8
935	2439	1145	1	109.5	836.8
937	2384	1162	1	109.5	836.8
937	2454	956	1	109.5	836.8
937	2454	1144	1	109.5	836.8
937	2454	1442	1	109.5	836.8
938	2397	970	1	109.5	836.8
938	2397	1022	1	109.5	836.8
938	2397	1089	1	109.5	836.8
938	2464	984	1	109.5	836.8
938	2464	988	1	109.5	836.8
938	2464	1160	1	109.5	836.8
939	2418	1173	1	109.5	836.8
939	2418	1235	1	109.5	836.8
939	2492	951	1	109.5	836.8
939	2492	1134	1	109.5	836.8
940	2351	1013	1	109.5	836.8
940	2351	1067	1	109.5	836.8
940	2415	1034	1	109.5	836.8
940	2415	1204	1	109.5	836.8
941	2334	956	1	109.5	836.8
941	2334	978	1	109.5	836.8
941	2334	1800	1	109.5	836.8
941	2364	980	1	109.5	836.8
941	2364	1053	1	109.5	836.8
941	2364	1226	1	109.5	836.8
942	2365	1122	1	109.5	836.8
942	2365	1129	1	109.5	836.8
942	2365	1803	1	109.5	836.8
942	2479	963	1	109.5	836.8
942	2479	1249	1	109.5	836.8
942	2479	1809	1	109.5	836.8
943	1974	998	1	109.5	836.8
943	2366	1126	1	109.5	836.8
943	2366	1214	1	109.5	836.8
944	2392	1078	1	109.5	836.8
944	2392	1159	1	109.5	836.8
944	2485	1003	1	109.5	836.8
944	2485	1055	1	109.5	836.8
944	2485	1190	1	109.5	836.8
945	2432	973	1	109.5	836.8
945	2432	1247	1	109.5	836.8
945	2432	1806	1	109.5	836.8
945	2465	976	1	109.5	836.8
946	2346	1167	1	109.5	836.8
946	2346	1246	1	109.5	836.8
946	2346	1791	1	109.5	836.8
946	2370	954	1	109.5	836.8
946	2370	1165	1	109.5	836.8
946	2370	1793	1	109.5	836.8
947	2442	958	1	109.5	836.8
947	2442	1153	1	109.5	836.8
947	2442	1693	1	109.5	836.8
947	2525	1080	1	109.5	836.8
947	2525	1092	1	109.5	836.8
947	2525	1819	1	109.5	836.8
948	2340	1099	1	109.5	836.8
948	2340	1801	1	109.5	836.8
948	2340	1868	1	109.5	836.8
948	2383	1104	1	109.5	836.8
948	2383	1239	1	109.5	836.8
948	2383	1804	1	109.5	836.8
949	2455	1002	1	109.5	836.8
949	2455	1117	1	109.5	836.8
949	2455	1167	1	109.5	836.8
949	2462	1177	1	109.5	836.8
949	2462	1215	1	109.5	836.8
950	2381	1126	1	109.5	836.8
950	2381	1188	1	109.5	836.8
950	2381	1798	1	109.5	836.8
950	2440	969	1	109.5	836.8
950	2440	1211	1	109.5	836.8
950	2440	1248	1	109.5	836.8
951	2492	1134	1	109.5	836.8
952	2398	977	1	109.5	836.8
952	2398	1113	1	109.5	836.8
952	2398	1230	1	109.5	836.8
952	2493	1158	1	109.5	836.8
952	2493	1161	1	109.5	836.8
952	2493	1174	1	109.5	836.8
953	2422	1069	1	109.5	836.8
953	2422	1128	1	109.5	836.8
953	2422	1176	1	109.5	836.8
953	2424	1022	1	109.5	836.8
953	2424	1111	1	109.5	836.8
954	2369	1186	1	109.5	836.8
954	2370	1165	1	109.5	836.8
954	2370	1793	1	109.5	836.8
955	2339	1060	1	109.5	836.8
955	2401	1091	1	109.5	836.8
956	2334	978	1	109.5	836.8
956	2334	1800	1	109.5	836.8
956	2454	1144	1	109.5	836.8
956	2454	1442	1	109.5	836.8
957	2344	1014	1	109.5	836.8
957	2344	1102	1	109.5	836.8
957	2344	1145	1	109.5	836.8
957	2368	1046	1	109.5	836.8
957	2368	1090	1	109.5	836.8
958	2406	1066	1	109.5	836.8
958	2406	1079	1	109.5	836.8
958	2406	1083	1	109.5	836.8
958	2442	1153	1	109.5	836.8
958	2442	1693	1	109.5	836.8
959	2353	968	1	109.5	836.8
959	2353	1007	1	109.5	836.8
959	2353	1098	1	109.5	836.8
959	2374	1196	1	109.5	836.8
960	2375	1270	1	109.5	836.8
960	2375	1495	1	109.5	836.8
960	2389	962	1	109.5	836.8
960	2389	1095	1	109.5	836.8
960	2389	1508	1	109.5	836.8
961	2391	1041	1	109.5	836.8
961	2391	1103	1	109.5	836.8
962	2389	1095	1	109.5	836.8
962	2389	1508	1	109.5	836.8
962	2434	1140	1	109.5	836.8
963	2479	1249	1	109.5	836.8
963	2479	1809	1	109.5	836.8
963	2501	1188	1	109.5	836.8
963	2501	1211	1	109.5	836.8
964	2342	1033	1	109.5	836.8
964	2342	1181	1	109.5	836.8
964	2349	1150	1	109.5	836.8
965	2431	1065	1	109.5	836.8
966	2331	1214	1	109.5	836.8
966	2483	1156	1	109.5	836.8
966	2483	1166	1	109.5	836.8
966	2483	1178	1	109.5	836.8
967	2453	1097	1	109.5	836.8
967	2453	1098	1	109.5	836.8
967	2580	1350	1	109.5	836.8
967	2580	1656	1	109.5	836.8
967	2580	1660	1	109.5	836.8
968	2353	1007	1	109.5	836.8
968	2353	1098	1	109.5	836.8
968	2379	1052	1	109.5	836.8
968	2379	1237	1	109.5	836.8
968	2379	1372	1	109.5	836.8
969	2336	1118	1	109.5	836.8
969	2440	1211	1	109.5	836.8
969	2440	1248	1	109.5	836.8
970	2354	1024	1	109.5	836.8
970	2354	1086	1	109.5	836.8
970	2397	1022	1	109.5	836.8
970	2397	1089	1	109.5	836.8
971	2446	1163	1	109.5	836.8
971	2446	1242	1	109.5	836.8
972	2409	1132	1	109.5	836.8
973	2412	1133	1	109.5	836.8
973	2412	1805	1	109.5	836.8
973	2432	1247	1	109.5	836.8
973	2432	1806	1	109.5	836.8
974	2435	1084	1	109.5	836.8
974	2435	1243	1	109.5	836.8
974	2503	1293	1	109.5	836.8
974	2503	1796	1	109.5	836.8
974	2503	1815	1	109.5	836.8
975	2402	1136	1	109.5	836.8
975	2402	1657	1	109.5	836.8
975	2517	1212	1	109.5	836.8
975	2517	1213	1	109.5	836.8
976	2413	1047	1	109.5	836.8
976	2413	1191	1	109.5	836.8
977	2315	992	1	109.5	836.8
977	2315	1153	1	109.5	836.8
977	2315	1170	1	109.5	836.8
977	2398	1113	1	109.5	836.8
977	2398	1230	1	109.5	836.8
978	2334	1800	1	109.5	836.8
978	2380	996	1	109.5	836.8
978	2380	1515	1	109.5	836.8
978	2380	1794	1	109.5	836.8
979	2460	1025	1	109.5	836.8
979	2460	1220	1	109.5	836.8
979	2497	1184	1	109.5	836.8
979	2497	1193	1	109.5	836.8
980	2364	1053	1	109.5	836.8
980	2364	1226	1	109.5	836.8
980	2502	991	1	109.5	836.8
980	2502	1157	1	109.5	836.8
980	2502	1163	1	109.5	836.8
981	2357	1090	1	109.5	836.8
982	2322	1130	1	109.5	836.8
982	2322	1689	1	109.5	836.8
982	2751	1684	1	109.5	836.8
983	2433	990	1	109.5	836.8
983	2433	1194	1	109.5	836.8
983	2433	1691	1	109.5	836.8
983	2590	1500	1	109.5	836.8
983	2590	1541	1	109.5	836.8
983	2590	1690	1	109.5	836.8
984	2464	988	1	109.5	836.8
984	2464	1160	1	109.5	836.8
984	2473	1004	1	109.5	836.8
984	2473	1035	1	109.5	836.8
984	2473	1208	1	109.5	836.8
985	2414	1168	1	109.5	836.8
985	2463	1116	1	109.5	836.8
986	2488	1202	1	109.5	836.8
986	2488	1238	1	109.5	836.8
986	2488	1812	1	109.5	836.8
987	2404	997	1	109.5	836.8
987	2472	1102	1	109.5	836.8
987	2472	1240	1	109.5	836.8
988	2417	1137	1	109.5	836.8
988	2417	1143	1	109.5	836.8
988	2464	1160	1	109.5	836.8
989	2419	1103	1	109.5	836.8
989	2419	1190	1	109.5	836.8
989	2504	1001	1	109.5	836.8
990	2433	1194	1	109.5	836.8
990	2433	1691	1	109.5	836.8
990	2461	1031	1	109.5	836.8
990	2461	1068	1	109.5	836.8
990	2461	1081	1	109.5	836.8
991	2343	1169	1	109.5	836.8
991	2343	1250	1	109.5	836.8
991	2343	1802	1	109.5	836.8
991	2502	1157	1	109.5	836.8
991	2502	1163	1	109.5	836.8
992	2315	1153	1	109.5	836.8
992	2315	1170	1	109.5	836.8
992	2333	1030	1	109.5	836.8
992	2333	1110	1	109.5	836.8
992	2333	1695	1	109.5	836.8
993	2443	1180	1	109.5	836.8
993	2443	1682	1	109.5	836.8
993	2443	1694	1	109.5	836.8
993	2444	1697	1	109.5	836.8
994	2427	1082	1	109.5	836.8
994	2427	1100	1	109.5	836.8
994	2457	1195	1	109.5	836.8
994	2457	1443	1	109.5	836.8
995	2323	1104	1	109.5	836.8
995	2323	1222	1	109.5	836.8
995	2323	1790	1	109.5	836.8
996	2363	1182	1	109.5	836.8
996	2380	1515	1	109.5	836.8
996	2380	1794	1	109.5	836.8
997	2321	1014	1	109.5	836.8
997	2321	1134	1	109.5	836.8
998	2515	1034	1	109.5	836.8
998	2515	1045	1	109.5	836.8
999	2359	1016	1	109.5	836.8
999	2359	1059	1	109.5	836.8
999	2359	1085	1	109.5	836.8
999	2469	1116	1	109.5	836.8
999	2469	1149	1	109.5	836.8
999	2469	1203	1	109.5	836.8
1000	2319	1152	1	109.5	836.8
1000	2319	1192	1	109.5	836.8
1000	2447	1105	1	109.5	836.8
1000	2447	1111	1	109.5	836.8
1000	2447	1236	1	109.5	836.8
1001	2372	1055	1	109.5	836.8
1001	2372	1094	1	109.5	836.8
1001	2372	1168	1	109.5	836.8
1002	2390	1135	1	109.5	836.8
1002	2390	1159	1	109.5	836.8
1002	2390	1166	1	109.5	836.8
1002	2455	1117	1	109.5	836.8
1002	2455	1167	1	109.5	836.8
1003	2485	1055	1	109.5	836.8
1003	2485	1190	1	109.5	836.8
1003	2486	1009	1	109.5	836.8
1003	2486	1051	1	109.5	836.8
1003	2486	1054	1	109.5	836.8
1004	2473	1035	1	109.5	836.8
1004	2473	1208	1	109.5	836.8
1004	2520	1006	1	109.5	836.8
1004	2520	1230	1	109.5	836.8
1005	2425	1009	1	109.5	836.8
1005	2425	1013	1	109.5	836.8
1005	2425	1218	1	109.5	836.8
1005	2470	1070	1	109.5	836.8
1005	2470	1142	1	109.5	836.8
1005	2470	1150	1	109.5	836.8
1006	2382	1056	1	109.5	836.8
1006	2382	1154	1	109.5	836.8
1006	2520	1230	1	109.5	836.8
1007	2353	1098	1	109.5	836.8
1007	2471	1008	1	109.5	836.8
1007	2471	1112	1	109.5	836.8
1007	2471	1181	1	109.5	836.8
1008	2377	1057	1	109.5	836.8
1008	2377	1216	1	109.5	836.8
1008	2471	1112	1	109.5	836.8
1008	2471	1181	1	109.5	836.8
1009	2425	1013	1	109.5	836.8
1009	2425	1218	1	109.5	836.8
1009	2486	1051	1	109.5	836.8
1009	2486	1054	1	109.5	836.8
1010	2314	1027	1	109.5	836.8
1010	2407	1175	1	109.5	836.8
1011	2335	1029	1	109.5	836.8
1011	2335	1032	1	109.5	836.8
1011	2399	1012	1	109.5	836.8
1011	2399	1115	1	109.5	836.8
1011	2399	1256	1	109.5	836.8
1012	2399	1115	1	109.5	836.8
1012	2399	1256	1	109.5	836.8
1012	2410	1025	1	109.5	836.8
1012	2410	1042	1	109.5	836.8
1012	2410	1106	1	109.5	836.8
1013	2351	1067	1	109.5	836.8
1013	2425	1218	1	109.5	836.8
1014	2321	1134	1	109.5	836.8
1014	2344	1102	1	109.5	836.8
1014	2344	1145	1	109.5	836.8
1015	2317	1795	1	109.5	836.8
1015	2468	1199	1	109.5	836.8
1015	2468	1808	1	109.5	836.8
1016	2359	1059	1	109.5	836.8
1016	2359	1085	1	109.5	836.8
1016	2378	1072	1	109.5	836.8
1016	2378	1155	1	109.5	836.8
1017	2499	1182	1	109.5	836.8
1017	2499	1402	1	109.5	836.8
1017	2516	1023	1	109.5	836.8
1017	2516	1049	1	109.5	836.8
1017	2516	1225	1	109.5	836.8
1018	2411	1029	1	109.5	836.8
1018	2411	1234	1	109.5	836.8
1018	2467	1157	1	109.5	836.8
1018	2467	1207	1	109.5	836.8
1019	1970	1722	1	109.5	836.8
1019	2327	1071	1	109.5	836.8
1019	2327	1078	1	109.5	836.8
1019	2327	1792	1	109.5	836.8
1020	2459	1146	1	109.5	836.8
1020	2459	1823	1	109.5	836.8
1020	2675	1356	1	109.5	836.8
1020	2675	1377	1	109.5	836.8
1020	2675	1567	1	109.5	836.8
1021	2385	1061	1	109.5	836.8
1021	2385	1113	1	109.5	836.8
1021	2388	1059	1	109.5	836.8
1021	2388	1114	1	109.5	836.8
1021	2388	1206	1	109.5	836.8
1022	2397	1089	1	109.5	836.8
1022	2424	1111	1	109.5	836.8
1023	2445	1070	1	109.5	836.8
1023	2445	1082	1	109.5	836.8
1023	2516	1049	1	109.5	836.8
1023	2516	1225	1	109.5	836.8
1024	2354	1086	1	109.5	836.8
1024	2400	1035	1	109.5	836.8
1024	2400	1173	1	109.5	836.8
1024	2400	1198	1	109.5	836.8
1025	2410	1042	1	109.5	836.8
1025	2410	1106	1	109.5	836.8
1025	2460	1220	1	109.5	836.8
1026	2441	1062	1	109.5	836.8
1026	2441	1797	1	109.5	836.8
1026	2441	1807	1	109.5	836.8
1026	2474	1123	1	109.5	836.8
1026	2474	1224	1	109.5	836.8
1026	2474	1783	1	109.5	836.8
1027	2362	1175	1	109.5	836.8
1028	2332	1244	1	109.5	836.8
1028	2332	1489	1	109.5	836.8
1028	2332	1820	1	109.5	836.8
1028	2475	1109	1	109.5	836.8
1028	2475	1367	1	109.5	836.8
1028	2475	1629	1	109.5	836.8
1029	2335	1032	1	109.5	836.8
1029	2411	1234	1	109.5	836.8
1030	2333	1110	1	109.5	836.8
1030	2333	1695	1	109.5	836.8
1030	2477	1074	1	109.5	836.8
1030	2477	1179	1	109.5	836.8
1031	2448	1071	1	109.5	836.8
1031	2448	1164	1	109.5	836.8
1031	2448	1243	1	109.5	836.8
1031	2461	1068	1	109.5	836.8
1031	2461	1081	1	109.5	836.8
1032	2312	1089	1	109.5	836.8
1032	2312	1193	1	109.5	836.8
1033	2342	1181	1	109.5	836.8
1033	2509	1044	1	109.5	836.8
1033	2509	1185	1	109.5	836.8
1034	2415	1204	1	109.5	836.8
1034	2515	1045	1	109.5	836.8
1035	2400	1173	1	109.5	836.8
1035	2400	1198	1	109.5	836.8
1035	2473	1208	1	109.5	836.8
1036	2355	1052	1	109.5	836.8
1036	2355	1064	1	109.5	836.8
1036	2367	1196	1	109.5	836.8
1037	2507	1200	1	109.5	836.8
1037	2507	1223	1	109.5	836.8
1037	2507	1824	1	109.5	836.8
1037	2508	1062	1	109.5	836.8
1038	2489	1039	1	109.5	836.8
1038	2489	1040	1	109.5	836.8
1038	2491	1121	1	109.5	836.8
1038	2491	1227	1	109.5	836.8
1039	2452	1125	1	109.5	836.8
1039	2452	1172	1	109.5	836.8
1039	2452	1789	1	109.5	836.8
1039	2489	1040	1	109.5	836.8
1040	2358	1221	1	109.5	836.8
1040	2358	1241	1	109.5	836.8
1040	2358	1245	1	109.5	836.8
1041	2391	1103	1	109.5	836.8
1041	2420	1056	1	109.5	836.8
1041	2420	1067	1	109.5	836.8
1041	2420	1107	1	109.5	836.8
1042	2337	1169	1	109.5	836.8
1042	2410	1106	1	109.5	836.8
1043	2456	1152	1	109.5	836.8
1043	2456	1210	1	109.5	836.8
1043	2456	1232	1	109.5	836.8
1043	2758	1063	1	109.5	836.8
1043	2758	1535	1	109.5	836.8
1043	2758	1661	1	109.5	836.8
1044	2509	1185	1	109.5	836.8
1045	1925	1108	1	109.5	836.8
1046	2368	1090	1	109.5	836.8
1047	2413	1191	1	109.5	836.8
1047	2482	1240	1	109.5	836.8
1048	2318	1208	1	109.5	836.8
1048	2396	1051	1	109.5	836.8
1048	2396	1127	1	109.5	836.8
1048	2396	1154	1	109.5	836.8
1049	2516	1225	1	109.5	836.8
1049	2519	1131	1	109.5	836.8
1050	2350	1120	1	109.5	836.8
1050	2350	1148	1	109.5	836.8
1050	2487	1172	1	109.5	836.8
1050	2487	1786	1	109.5	836.8
1051	2396	1127	1	109.5	836.8
1051	2396	1154	1	109.5	836.8
1051	2486	1054	1	109.5	836.8
1052	2355	1064	1	109.5	836.8
1052	2379	1237	1	109.5	836.8
1052	2379	1372	1	109.5	836.8
1053	2328	1073	1	109.5	836.8
1053	2328	1124	1	109.5	836.8
1053	2364	1226	1	109.5	836.8
1054	2345	1135	1	109.5	836.8
1054	2345	1171	1	109.5	836.8
1054	2345	1235	1	109.5	836.8
1055	2372	1094	1	109.5	836.8
1055	2372	1168	1	109.5	836.8
1055	2485	1190	1	109.5	836.8
1056	2382	1154	1	109.5	836.8
1056	2420	1067	1	109.5	836.8
1056	2420	1107	1	109.5	836.8
1057	2377	1216	1	109.5	836.8
1057	2480	1209	1	109.5	836.8
1059	2359	1085	1	109.5	836.8
1059	2388	1114	1	109.5	836.8
1059	2388	1206	1	109.5	836.8
1060	2330	1107	1	109.5	836.8
1060	2330	1148	1	109.5	836.8
1061	2385	1113	1	109.5	836.8
1061	2528	1079	1	109.5	836.8
1061	2528	1254	1	109.5	836.8
1061	2528	1821	1	109.5	836.8
1062	2441	1797	1	109.5	836.8
1062	2441	1807	1	109.5	836.8
1063	2394	1076	1	109.5	836.8
1063	2394	1099	1	109.5	836.8
1063	2758	1535	1	109.5	836.8
1063	2758	1661	1	109.5	836.8
1066	2406	1079	1	109.5	836.8
1066	2406	1083	1	109.5	836.8
1066	2551	1451	1	109.5	836.8
1066	2551	1668	1	109.5	836.8
1066	2551	1862	1	109.5	836.8
1067	2420	1107	1	109.5	836.8
1068	2002	1084	1	109.5	836.8
1068	2461	1081	1	109.5	836.8
1069	2408	1106	1	109.5	836.8
1069	2422	1128	1	109.5	836.8
1069	2422	1176	1	109.5	836.8
1070	2445	1082	1	109.5	836.8
1070	2470	1142	1	109.5	836.8
1070	2470	1150	1	109.5	836.8
1071	2327	1078	1	109.5	836.8
1071	2327	1792	1	109.5	836.8
1071	2448	1164	1	109.5	836.8
1071	2448	1243	1	109.5	836.8
1072	2378	1155	1	109.5	836.8
1072	2594	1381	1	109.5	836.8
1073	2328	1124	1	109.5	836.8
1074	2338	1105	1	109.5	836.8
1074	2338	1228	1	109.5	836.8
1074	2477	1179	1	109.5	836.8
1075	2086	1738	1	109.5	836.8
1075	2756	1083	1	109.5	836.8
1075	2756	1262	1	109.5	836.8
1075	2756	1692	1	109.5	836.8
1076	2394	1099	1	109.5	836.8
1076	2658	1219	1	109.5	836.8
1076	2658	1552	1	109.5	836.8
1076	2658	1657	1	109.5	836.8
1077	2371	1118	1	109.5	836.8
1077	2371	1296	1	109.5	836.8
1077	2371	1405	1	109.5	836.8
1077	2436	1108	1	109.5	836.8
1077	2436	1189	1	109.5	836.8
1077	2436	1197	1	109.5	836.8
1078	2327	1792	1	109.5	836.8
1078	2392	1159	1	109.5	836.8
1079	2406	1083	1	109.5	836.8
1079	2528	1254	1	109.5	836.8
1079	2528	1821	1	109.5	836.8
1080	2360	1088	1	109.5	836.8
1080	2360	1220	1	109.5	836.8
1080	2525	1092	1	109.5	836.8
1080	2525	1819	1	109.5	836.8
1081	2395	1187	1	109.5	836.8
1082	2427	1100	1	109.5	836.8
1083	2756	1262	1	109.5	836.8
1083	2756	1692	1	109.5	836.8
1084	2435	1243	1	109.5	836.8
1085	2609	1381	1	109.5	836.8
1085	2609	1383	1	109.5	836.8
1085	2609	1518	1	109.5	836.8
1086	2329	1087	1	109.5	836.8
1087	2421	1185	1	109.5	836.8
1087	2421	1217	1	109.5	836.8
1088	2360	1220	1	109.5	836.8
1088	2495	1161	1	109.5	836.8
1088	2495	1199	1	109.5	836.8
1088	2495	1205	1	109.5	836.8
1089	2312	1193	1	109.5	836.8
1091	2451	1189	1	109.5	836.8
1091	2451	1204	1	109.5	836.8
1092	2525	1819	1	109.5	836.8
1092	2600	1399	1	109.5	836.8
1092	2600	1418	1	109.5	836.8
1092	2600	1839	1	109.5	836.8
1093	2324	1094	1	109.5	836.8
1093	2429	1149	1	109.5	836.8
1094	2372	1168	1	109.5	836.8
1095	2389	1508	1	109.5	836.8
1095	2514	1096	1	109.5	836.8
1095	2514	1100	1	109.5	836.8
1095	2514	1139	1	109.5	836.8
1096	2423	1197	1	109.5	836.8
1096	2423	1218	1	109.5	836.8
1096	2514	1100	1	109.5	836.8
1096	2514	1139	1	109.5	836.8
1097	2453	1098	1	109.5	836.8
1097	2490	1217	1	109.5	836.8
1097	2490	1225	1	109.5	836.8
1099	2340	1801	1	109.5	836.8
1099	2340	1868	1	109.5	836.8
1100	2514	1139	1	109.5	836.8
1101	2535	1312	1	109.5	836.8
1101	2535	1578	1	109.5	836.8
1102	2344	1145	1	109.5	836.8
1102	2472	1240	1	109.5	836.8
1103	2419	1190	1	109.5	836.8
1104	2323	1222	1	109.5	836.8
1104	2323	1790	1	109.5	836.8
1104	2383	1239	1	109.5	836.8
1104	2383	1804	1	109.5	836.8
1105	2338	1228	1	109.5	836.8
1105	2447	1111	1	109.5	836.8
1105	2447	1236	1	109.5	836.8
1107	2330	1148	1	109.5	836.8
1108	2436	1189	1	109.5	836.8
1108	2436	1197	1	109.5	836.8
1109	2475	1367	1	109.5	836.8
1109	2475	1629	1	109.5	836.8
1109	2498	1195	1	109.5	836.8
1109	2498	1241	1	109.5	836.8
1110	2333	1695	1	109.5	836.8
1110	2376	1160	1	109.5	836.8
1110	2376	1228	1	109.5	836.8
1111	2447	1236	1	109.5	836.8
1112	2471	1181	1	109.5	836.8
1112	2733	1237	1	109.5	836.8
1112	2733	1466	1	109.5	836.8
1112	2733	1486	1	109.5	836.8
1113	2398	1230	1	109.5	836.8
1114	2388	1206	1	109.5	836.8
1114	2458	1170	1	109.5	836.8
1114	2458	1203	1	109.5	836.8
1114	2458	1696	1	109.5	836.8
1115	2399	1256	1	109.5	836.8
1115	2481	1119	1	109.5	836.8
1115	2481	1151	1	109.5	836.8
1115	2481	1810	1	109.5	836.8
1116	2469	1149	1	109.5	836.8
1116	2469	1203	1	109.5	836.8
1117	2455	1167	1	109.5	836.8
1117	2466	1164	1	109.5	836.8
1117	2466	1200	1	109.5	836.8
1118	2371	1296	1	109.5	836.8
1118	2371	1405	1	109.5	836.8
1119	1984	1706	1	109.5	836.8
1119	2481	1151	1	109.5	836.8
1119	2481	1810	1	109.5	836.8
1120	2350	1148	1	109.5	836.8
1120	2426	1202	1	109.5	836.8
1120	2426	1787	1	109.5	836.8
1121	2491	1227	1	109.5	836.8
1121	2505	1141	1	109.5	836.8
1121	2505	1201	1	109.5	836.8
1121	2505	1207	1	109.5	836.8
1122	2365	1129	1	109.5	836.8
1122	2365	1803	1	109.5	836.8
1122	2513	1165	1	109.5	836.8
1122	2513	1216	1	109.5	836.8
1123	2320	1222	1	109.5	836.8
1123	2320	1247	1	109.5	836.8
1123	2320	1788	1	109.5	836.8
1123	2474	1224	1	109.5	836.8
1123	2474	1783	1	109.5	836.8
1124	2311	1144	1	109.5	836.8
1124	2311	1284	1	109.5	836.8
1124	2311	1602	1	109.5	836.8
1125	2428	1174	1	109.5	836.8
1125	2428	1238	1	109.5	836.8
1125	2428	1784	1	109.5	836.8
1125	2452	1172	1	109.5	836.8
1125	2452	1789	1	109.5	836.8
1126	2366	1214	1	109.5	836.8
1126	2381	1188	1	109.5	836.8
1126	2381	1798	1	109.5	836.8
1127	2396	1154	1	109.5	836.8
1127	2403	1142	1	109.5	836.8
1127	2403	1198	1	109.5	836.8
1127	2403	1231	1	109.5	836.8
1128	2316	1130	1	109.5	836.8
1128	2422	1176	1	109.5	836.8
1129	2365	1803	1	109.5	836.8
1129	2437	1233	1	109.5	836.8
1129	2437	1499	1	109.5	836.8
1129	2437	1642	1	109.5	836.8
1130	2322	1689	1	109.5	836.8
1131	2670	1559	1	109.5	836.8
1131	2670	1560	1	109.5	836.8
1131	2670	1633	1	109.5	836.8
1132	2523	1244	1	109.5	836.8
1132	2523	1245	1	109.5	836.8
1132	2523	1817	1	109.5	836.8
1133	2412	1805	1	109.5	836.8
1133	2416	1191	1	109.5	836.8
1135	2345	1171	1	109.5	836.8
1135	2345	1235	1	109.5	836.8
1135	2390	1159	1	109.5	836.8
1135	2390	1166	1	109.5	836.8
1136	2402	1657	1	109.5	836.8
1136	2449	1137	1	109.5	836.8
1136	2449	1210	1	109.5	836.8
1136	2449	1554	1	109.5	836.8
1137	2417	1143	1	109.5	836.8
1137	2449	1210	1	109.5	836.8
1137	2449	1554	1	109.5	836.8
1138	2510	1143	1	109.5	836.8
1138	2510	1147	1	109.5	836.8
1138	2510	1192	1	109.5	836.8
1138	2511	1215	1	109.5	836.8
1139	2743	1300	1	109.5	836.8
1139	2743	1610	1	109.5	836.8
1139	2743	1617	1	109.5	836.8
1141	2496	1234	1	109.5	836.8
1141	2505	1201	1	109.5	836.8
1141	2505	1207	1	109.5	836.8
1142	2403	1198	1	109.5	836.8
1142	2403	1231	1	109.5	836.8
1142	2470	1150	1	109.5	836.8
1143	2510	1147	1	109.5	836.8
1143	2510	1192	1	109.5	836.8
1144	2311	1284	1	109.5	836.8
1144	2311	1602	1	109.5	836.8
1144	2454	1442	1	109.5	836.8
1146	2459	1823	1	109.5	836.8
1146	2527	1252	1	109.5	836.8
1146	2527	1822	1	109.5	836.8
1147	2506	1229	1	109.5	836.8
1147	2510	1192	1	109.5	836.8
1149	2469	1203	1	109.5	836.8
1151	2386	1782	1	109.5	836.8
1151	2481	1810	1	109.5	836.8
1152	2319	1192	1	109.5	836.8
1152	2456	1210	1	109.5	836.8
1152	2456	1232	1	109.5	836.8
1153	2315	1170	1	109.5	836.8
1153	2442	1693	1	109.5	836.8
1155	2755	1524	1	109.5	836.8
1155	2755	1692	1	109.5	836.8
1156	2430	1251	1	109.5	836.8
1156	2430	1825	1	109.5	836.8
1156	2483	1166	1	109.5	836.8
1156	2483	1178	1	109.5	836.8
1157	2467	1207	1	109.5	836.8
1157	2502	1163	1	109.5	836.8
1158	2476	1184	1	109.5	836.8
1158	2493	1161	1	109.5	836.8
1158	2493	1174	1	109.5	836.8
1159	2390	1166	1	109.5	836.8
1160	2376	1228	1	109.5	836.8
1161	2493	1174	1	109.5	836.8
1161	2495	1199	1	109.5	836.8
1161	2495	1205	1	109.5	836.8
1162	2313	1242	1	109.5	836.8
1162	2313	1799	1	109.5	836.8
1163	2446	1242	1	109.5	836.8
1164	2448	1243	1	109.5	836.8
1164	2466	1200	1	109.5	836.8
1165	2370	1793	1	109.5	836.8
1165	2513	1216	1	109.5	836.8
1166	2483	1178	1	109.5	836.8
1167	2346	1246	1	109.5	836.8
1167	2346	1791	1	109.5	836.8
1169	2343	1250	1	109.5	836.8
1169	2343	1802	1	109.5	836.8
1170	2458	1203	1	109.5	836.8
1170	2458	1696	1	109.5	836.8
1171	2345	1235	1	109.5	836.8
1171	2478	1178	1	109.5	836.8
1171	2478	1186	1	109.5	836.8
1172	2452	1789	1	109.5	836.8
1172	2487	1786	1	109.5	836.8
1173	2400	1198	1	109.5	836.8
1173	2418	1235	1	109.5	836.8
1174	2428	1238	1	109.5	836.8
1174	2428	1784	1	109.5	836.8
1177	2393	1212	1	109.5	836.8
1177	2462	1215	1	109.5	836.8
1178	2478	1186	1	109.5	836.8
1179	2529	1547	1	109.5	836.8
1179	2529	1567	1	109.5	836.8
1179	2529	1689	1	109.5	836.8
1180	2443	1682	1	109.5	836.8
1180	2443	1694	1	109.5	836.8
1182	2499	1402	1	109.5	836.8
1183	2484	1250	1	109.5	836.8
1183	2484	1811	1	109.5	836.8
1183	2512	1205	1	109.5	836.8
1183	2512	1816	1	109.5	836.8
1184	2497	1193	1	109.5	836.8
1185	2421	1217	1	109.5	836.8
1187	2521	1194	1	109.5	836.8
1187	2521	1562	1	109.5	836.8
1188	2381	1798	1	109.5	836.8
1188	2501	1211	1	109.5	836.8
1189	2436	1197	1	109.5	836.8
1189	2451	1204	1	109.5	836.8
1194	2433	1691	1	109.5	836.8
1194	2521	1562	1	109.5	836.8
1195	2457	1443	1	109.5	836.8
1195	2498	1241	1	109.5	836.8
1197	2423	1218	1	109.5	836.8
1198	2403	1231	1	109.5	836.8
1199	2468	1808	1	109.5	836.8
1199	2495	1205	1	109.5	836.8
1200	2507	1223	1	109.5	836.8
1200	2507	1824	1	109.5	836.8
1201	2500	1221	1	109.5	836.8
1201	2500	1226	1	109.5	836.8
1201	2505	1207	1	109.5	836.8
1202	2426	1787	1	109.5	836.8
1202	2488	1238	1	109.5	836.8
1202	2488	1812	1	109.5	836.8
1203	2458	1696	1	109.5	836.8
1205	2512	1816	1	109.5	836.8
1206	2696	1451	1	109.5	836.8
1206	2696	1532	1	109.5	836.8
1206	2696	1693	1	109.5	836.8
1209	2341	1785	1	109.5	836.8
1210	2449	1554	1	109.5	836.8
1210	2456	1232	1	109.5	836.8
1211	2440	1248	1	109.5	836.8
1212	2517	1213	1	109.5	836.8
1213	2757	1223	1	109.5	836.8
1213	2757	1292	1	109.5	836.8
1213	2757	1691	1	109.5	836.8
1217	2490	1225	1	109.5	836.8
1219	2494	1813	1	109.5	836.8
1219	2494	1814	1	109.5	836.8
1219	2658	1552	1	109.5	836.8
1219	2658	1657	1	109.5	836.8
1221	2358	1241	1	109.5	836.8
1221	2358	1245	1	109.5	836.8
1221	2500	1226	1	109.5	836.8
1222	2320	1247	1	109.5	836.8
1222	2320	1788	1	109.5	836.8
1222	2323	1790	1	109.5	836.8
1223	2507	1824	1	109.5	836.8
1223	2757	1292	1	109.5	836.8
1223	2757	1691	1	109.5	836.8
1224	2325	1229	1	109.5	836.8
1224	2474	1783	1	109.5	836.8
1227	2405	1231	1	109.5	836.8
1232	2361	1236	1	109.5	836.8
1232	2361	1388	1	109.5	836.8
1233	2437	1499	1	109.5	836.8
1233	2437	1642	1	109.5	836.8
1233	2623	1281	1	109.5	836.8
1233	2623	1396	1	109.5	836.8
1233	2623	1559	1	109.5	836.8
1236	2361	1388	1	109.5	836.8
1237	2379	1372	1	109.5	836.8
1237	2733	1466	1	109.5	836.8
1237	2733	1486	1	109.5	836.8
1238	2428	1784	1	109.5	836.8
1238	2488	1812	1	109.5	836.8
1239	1993	1697	1	109.5	836.8
1239	2383	1804	1	109.5	836.8
1241	2358	1245	1	109.5	836.8
1242	2313	1799	1	109.5	836.8
1244	2332	1489	1	109.5	836.8
1244	2332	1820	1	109.5	836.8
1244	2523	1245	1	109.5	836.8
1244	2523	1817	1	109.5	836.8
1245	2523	1817	1	109.5	836.8
1246	2346	1791	1	109.5	836.8
1246	2524	1249	1	109.5	836.8
1246	2524	1251	1	109.5	836.8
1246	2524	1818	1	109.5	836.8
1247	2320	1788	1	109.5	836.8
1247	2432	1806	1	109.5	836.8
1248	2724	1395	1	109.5	836.8
1248	2724	1841	1	109.5	836.8
1249	2479	1809	1	109.5	836.8
1249	2524	1251	1	109.5	836.8
1249	2524	1818	1	109.5	836.8
1250	2343	1802	1	109.5	836.8
1250	2484	1811	1	109.5	836.8
1251	2430	1825	1	109.5	836.8
1251	2524	1818	1	109.5	836.8
1252	2522	1253	1	109.5	836.8
1252	2522	1699	1	109.5	836.8
1252	2527	1822	1	109.5	836.8
1253	2522	1699	1	109.5	836.8
1253	2526	1255	1	109.5	836.8
1253	2526	1256	1	109.5	836.8
1254	2528	1821	1	109.5	836.8
1255	2526	1256	1	109.5	836.8
1255	2759	1699	1	109.5	836.8
1257	2678	1416	1	109.5	836.8
1257	2678	1618	1	109.5	836.8
1257	2678	1696	1	109.5	836.8
1257	2720	1439	1	109.5	836.8
1257	2720	1605	1	109.5	836.8
1257	2720	1695	1	109.5	836.8
1258	2538	1422	1	109.5	836.8
1258	2538	1575	1	109.5	836.8
1258	2538	1615	1	109.5	836.8
1258	2540	1419	1	109.5	836.8
1258	2540	1436	1	109.5	836.8
1258	2540	1557	1	109.5	836.8
1259	2566	1326	1	109.5	836.8
1259	2566	1330	1	109.5	836.8
1259	2566	1467	1	109.5	836.8
1259	2588	1280	1	109.5	836.8
1259	2588	1375	1	109.5	836.8
1259	2588	1609	1	109.5	836.8
1260	2638	1410	1	109.5	836.8
1260	2638	1560	1	109.5	836.8
1260	2638	1566	1	109.5	836.8
1260	2684	1300	1	109.5	836.8
1260	2684	1407	1	109.5	836.8
1260	2684	1539	1	109.5	836.8
1261	2652	1265	1	109.5	836.8
1261	2652	1386	1	109.5	836.8
1261	2652	1488	1	109.5	836.8
1261	2674	1388	1	109.5	836.8
1261	2674	1520	1	109.5	836.8
1261	2674	1521	1	109.5	836.8
1262	2630	1347	1	109.5	836.8
1262	2630	1393	1	109.5	836.8
1262	2630	1555	1	109.5	836.8
1262	2756	1692	1	109.5	836.8
1263	2605	1444	1	109.5	836.8
1263	2605	1484	1	109.5	836.8
1263	2605	1536	1	109.5	836.8
1263	2650	1340	1	109.5	836.8
1263	2650	1516	1	109.5	836.8
1263	2650	1572	1	109.5	836.8
1264	2537	1353	1	109.5	836.8
1264	2537	1471	1	109.5	836.8
1264	2537	1631	1	109.5	836.8
1264	2727	1351	1	109.5	836.8
1264	2727	1570	1	109.5	836.8
1264	2727	1653	1	109.5	836.8
1265	2581	1450	1	109.5	836.8
1265	2581	1598	1	109.5	836.8
1265	2652	1386	1	109.5	836.8
1265	2652	1488	1	109.5	836.8
1266	2593	1328	1	109.5	836.8
1266	2593	1380	1	109.5	836.8
1266	2593	1619	1	109.5	836.8
1266	2703	1326	1	109.5	836.8
1266	2703	1470	1	109.5	836.8
1266	2703	1664	1	109.5	836.8
1267	2715	1642	1	109.5	836.8
1267	2715	1674	1	109.5	836.8
1267	2715	1857	1	109.5	836.8
1267	2729	1283	1	109.5	836.8
1267	2729	1460	1	109.5	836.8
1267	2729	1485	1	109.5	836.8
1268	2688	1440	1	109.5	836.8
1268	2688	1580	1	109.5	836.8
1268	2688	1630	1	109.5	836.8
1268	2734	1606	1	109.5	836.8
1268	2734	1628	1	109.5	836.8
1268	2734	1858	1	109.5	836.8
1269	2166	1603	1	109.5	836.8
1269	2534	1350	1	109.5	836.8
1269	2534	1551	1	109.5	836.8
1269	2534	1553	1	109.5	836.8
1270	2375	1495	1	109.5	836.8
1270	2607	1336	1	109.5	836.8
1271	2550	1319	1	109.5	836.8
1271	2550	1387	1	109.5	836.8
1271	2550	1637	1	109.5	836.8
1271	2737	1420	1	109.5	836.8
1271	2737	1457	1	109.5	836.8
1271	2737	1468	1	109.5	836.8
1272	2536	1352	1	109.5	836.8
1272	2536	1437	1	109.5	836.8
1272	2536	1840	1	109.5	836.8
1272	2698	1453	1	109.5	836.8
1272	2698	1497	1	109.5	836.8
1272	2698	1602	1	109.5	836.8
1273	2592	1288	1	109.5	836.8
1273	2592	1290	1	109.5	836.8
1273	2592	1417	1	109.5	836.8
1273	2665	1415	1	109.5	836.8
1273	2665	1698	1	109.5	836.8
1274	2561	1385	1	109.5	836.8
1274	2561	1456	1	109.5	836.8
1274	2561	1604	1	109.5	836.8
1274	2741	1311	1	109.5	836.8
1274	2741	1472	1	109.5	836.8
1274	2741	1554	1	109.5	836.8
1275	2606	1574	1	109.5	836.8
1275	2606	1827	1	109.5	836.8
1275	2629	1278	1	109.5	836.8
1275	2629	1492	1	109.5	836.8
1275	2629	1529	1	109.5	836.8
1276	2567	1282	1	109.5	836.8
1276	2567	1287	1	109.5	836.8
1276	2567	1371	1	109.5	836.8
1276	2625	1290	1	109.5	836.8
1276	2625	1409	1	109.5	836.8
1276	2625	1419	1	109.5	836.8
1277	2744	1676	1	109.5	836.8
1277	2744	1677	1	109.5	836.8
1277	2744	1700	1	109.5	836.8
1278	2541	1284	1	109.5	836.8
1278	2541	1404	1	109.5	836.8
1278	2541	1553	1	109.5	836.8
1278	2629	1492	1	109.5	836.8
1278	2629	1529	1	109.5	836.8
1279	2543	1294	1	109.5	836.8
1279	2543	1516	1	109.5	836.8
1279	2543	1517	1	109.5	836.8
1279	2616	1336	1	109.5	836.8
1279	2616	1504	1	109.5	836.8
1279	2616	1610	1	109.5	836.8
1280	2544	1282	1	109.5	836.8
1280	2544	1648	1	109.5	836.8
1280	2544	1653	1	109.5	836.8
1280	2588	1375	1	109.5	836.8
1280	2588	1609	1	109.5	836.8
1281	2623	1396	1	109.5	836.8
1281	2623	1559	1	109.5	836.8
1281	2732	1317	1	109.5	836.8
1281	2732	1561	1	109.5	836.8
1281	2732	1638	1	109.5	836.8
1282	2544	1648	1	109.5	836.8
1282	2544	1653	1	109.5	836.8
1282	2567	1287	1	109.5	836.8
1282	2567	1371	1	109.5	836.8
1283	2729	1460	1	109.5	836.8
1283	2729	1485	1	109.5	836.8
1283	2739	1396	1	109.5	836.8
1283	2739	1635	1	109.5	836.8
1283	2739	1636	1	109.5	836.8
1284	2311	1602	1	109.5	836.8
1284	2541	1404	1	109.5	836.8
1284	2541	1553	1	109.5	836.8
1285	2671	1315	1	109.5	836.8
1285	2671	1348	1	109.5	836.8
1285	2671	1524	1	109.5	836.8
1286	2558	1315	1	109.5	836.8
1286	2558	1376	1	109.5	836.8
1286	2558	1483	1	109.5	836.8
1286	2659	1309	1	109.5	836.8
1286	2659	1349	1	109.5	836.8
1286	2659	1563	1	109.5	836.8
1287	2567	1371	1	109.5	836.8
1287	2686	1302	1	109.5	836.8
1287	2686	1364	1	109.5	836.8
1287	2686	1397	1	109.5	836.8
1288	2284	1354	1	109.5	836.8
1288	2592	1290	1	109.5	836.8
1288	2592	1417	1	109.5	836.8
1289	2622	1321	1	109.5	836.8
1289	2622	1376	1	109.5	836.8
1289	2622	1514	1	109.5	836.8
1289	2655	1348	1	109.5	836.8
1289	2655	1383	1	109.5	836.8
1289	2655	1563	1	109.5	836.8
1290	2592	1417	1	109.5	836.8
1290	2625	1409	1	109.5	836.8
1290	2625	1419	1	109.5	836.8
1291	2574	1459	1	109.5	836.8
1291	2574	1475	1	109.5	836.8
1291	2574	1487	1	109.5	836.8
1291	2701	1329	1	109.5	836.8
1291	2701	1480	1	109.5	836.8
1291	2701	1632	1	109.5	836.8
1292	2722	1384	1	109.5	836.8
1292	2722	1611	1	109.5	836.8
1292	2722	1634	1	109.5	836.8
1292	2757	1691	1	109.5	836.8
1293	2503	1796	1	109.5	836.8
1293	2503	1815	1	109.5	836.8
1293	2555	1390	1	109.5	836.8
1293	2555	1541	1	109.5	836.8
1294	2543	1516	1	109.5	836.8
1294	2543	1517	1	109.5	836.8
1294	2575	1382	1	109.5	836.8
1295	2711	1520	1	109.5	836.8
1295	2711	1640	1	109.5	836.8
1295	2711	1649	1	109.5	836.8
1295	2740	1335	1	109.5	836.8
1295	2740	1337	1	109.5	836.8
1295	2740	1496	1	109.5	836.8
1296	2371	1405	1	109.5	836.8
1297	2530	1455	1	109.5	836.8
1297	2530	1512	1	109.5	836.8
1297	2530	1616	1	109.5	836.8
1297	2557	1497	1	109.5	836.8
1297	2557	1528	1	109.5	836.8
1297	2557	1652	1	109.5	836.8
1298	2134	1599	1	109.5	836.8
1298	2660	1325	1	109.5	836.8
1298	2660	1354	1	109.5	836.8
1298	2660	1568	1	109.5	836.8
1299	2626	1309	1	109.5	836.8
1299	2626	1651	1	109.5	836.8
1299	2626	1655	1	109.5	836.8
1299	2666	1446	1	109.5	836.8
1299	2666	1493	1	109.5	836.8
1299	2666	1505	1	109.5	836.8
1300	2684	1407	1	109.5	836.8
1300	2684	1539	1	109.5	836.8
1300	2743	1610	1	109.5	836.8
1300	2743	1617	1	109.5	836.8
1301	2579	1503	1	109.5	836.8
1301	2579	1511	1	109.5	836.8
1301	2579	1643	1	109.5	836.8
1301	2595	1533	1	109.5	836.8
1301	2595	1583	1	109.5	836.8
1301	2595	1652	1	109.5	836.8
1302	2560	1339	1	109.5	836.8
1302	2560	1632	1	109.5	836.8
1302	2560	1830	1	109.5	836.8
1302	2686	1364	1	109.5	836.8
1302	2686	1397	1	109.5	836.8
1303	2697	1332	1	109.5	836.8
1303	2697	1581	1	109.5	836.8
1303	2697	1607	1	109.5	836.8
1303	2742	1426	1	109.5	836.8
1303	2742	1428	1	109.5	836.8
1303	2742	1654	1	109.5	836.8
1304	2165	1742	1	109.5	836.8
1304	2307	1678	1	109.5	836.8
1305	2681	1400	1	109.5	836.8
1305	2681	1448	1	109.5	836.8
1305	2681	1643	1	109.5	836.8
1305	2689	1437	1	109.5	836.8
1305	2689	1622	1	109.5	836.8
1305	2689	1852	1	109.5	836.8
1306	2090	1758	1	109.5	836.8
1306	2571	1323	1	109.5	836.8
1306	2571	1347	1	109.5	836.8
1306	2571	1355	1	109.5	836.8
1307	2568	1320	1	109.5	836.8
1307	2568	1385	1	109.5	836.8
1307	2568	1573	1	109.5	836.8
1307	2644	1519	1	109.5	836.8
1307	2644	1620	1	109.5	836.8
1307	2644	1641	1	109.5	836.8
1308	2556	1318	1	109.5	836.8
1308	2556	1465	1	109.5	836.8
1308	2556	1592	1	109.5	836.8
1308	2667	1392	1	109.5	836.8
1308	2667	1586	1	109.5	836.8
1308	2667	1666	1	109.5	836.8
1309	2626	1651	1	109.5	836.8
1309	2626	1655	1	109.5	836.8
1309	2659	1349	1	109.5	836.8
1309	2659	1563	1	109.5	836.8
1310	2611	1636	1	109.5	836.8
1310	2611	1647	1	109.5	836.8
1310	2654	1405	1	109.5	836.8
1310	2654	1412	1	109.5	836.8
1310	2654	1617	1	109.5	836.8
1311	2648	1416	1	109.5	836.8
1311	2648	1505	1	109.5	836.8
1311	2648	1523	1	109.5	836.8
1311	2741	1472	1	109.5	836.8
1311	2741	1554	1	109.5	836.8
1312	2535	1578	1	109.5	836.8
1312	2596	1498	1	109.5	836.8
1312	2596	1506	1	109.5	836.8
1313	2705	1606	1	109.5	836.8
1313	2705	1673	1	109.5	836.8
1313	2705	1855	1	109.5	836.8
1313	2710	1461	1	109.5	836.8
1313	2710	1462	1	109.5	836.8
1313	2710	1463	1	109.5	836.8
1314	2582	1345	1	109.5	836.8
1314	2582	1418	1	109.5	836.8
1314	2582	1605	1	109.5	836.8
1314	2721	1624	1	109.5	836.8
1314	2721	1644	1	109.5	836.8
1314	2721	1650	1	109.5	836.8
1315	2558	1376	1	109.5	836.8
1315	2558	1483	1	109.5	836.8
1315	2671	1348	1	109.5	836.8
1315	2671	1524	1	109.5	836.8
1316	2548	1333	1	109.5	836.8
1316	2548	1509	1	109.5	836.8
1316	2548	1510	1	109.5	836.8
1316	2713	1358	1	109.5	836.8
1316	2713	1371	1	109.5	836.8
1316	2713	1557	1	109.5	836.8
1317	2615	1486	1	109.5	836.8
1317	2615	1499	1	109.5	836.8
1317	2615	1522	1	109.5	836.8
1317	2732	1561	1	109.5	836.8
1317	2732	1638	1	109.5	836.8
1318	2556	1465	1	109.5	836.8
1318	2556	1592	1	109.5	836.8
1318	2718	1400	1	109.5	836.8
1318	2718	1607	1	109.5	836.8
1318	2718	1616	1	109.5	836.8
1319	2550	1387	1	109.5	836.8
1319	2550	1637	1	109.5	836.8
1319	2613	1363	1	109.5	836.8
1319	2613	1501	1	109.5	836.8
1319	2613	1582	1	109.5	836.8
1320	2568	1385	1	109.5	836.8
1320	2568	1573	1	109.5	836.8
1320	2699	1594	1	109.5	836.8
1320	2699	1601	1	109.5	836.8
1320	2699	1609	1	109.5	836.8
1321	2570	1359	1	109.5	836.8
1321	2570	1435	1	109.5	836.8
1321	2570	1490	1	109.5	836.8
1321	2622	1376	1	109.5	836.8
1321	2622	1514	1	109.5	836.8
1322	2693	1409	1	109.5	836.8
1322	2693	1525	1	109.5	836.8
1322	2693	1664	1	109.5	836.8
1323	2571	1347	1	109.5	836.8
1323	2571	1355	1	109.5	836.8
1323	2708	1473	1	109.5	836.8
1323	2708	1595	1	109.5	836.8
1323	2708	1831	1	109.5	836.8
1324	2604	1356	1	109.5	836.8
1324	2604	1585	1	109.5	836.8
1324	2628	1432	1	109.5	836.8
1324	2628	1598	1	109.5	836.8
1325	2645	1374	1	109.5	836.8
1325	2645	1445	1	109.5	836.8
1325	2645	1534	1	109.5	836.8
1325	2660	1354	1	109.5	836.8
1325	2660	1568	1	109.5	836.8
1326	2566	1330	1	109.5	836.8
1326	2566	1467	1	109.5	836.8
1326	2703	1470	1	109.5	836.8
1326	2703	1664	1	109.5	836.8
1327	2532	1337	1	109.5	836.8
1327	2532	1432	1	109.5	836.8
1327	2532	1450	1	109.5	836.8
1327	2576	1344	1	109.5	836.8
1327	2576	1403	1	109.5	836.8
1327	2576	1513	1	109.5	836.8
1328	2545	1333	1	109.5	836.8
1328	2545	1344	1	109.5	836.8
1328	2545	1481	1	109.5	836.8
1328	2593	1380	1	109.5	836.8
1328	2593	1619	1	109.5	836.8
1329	2634	1397	1	109.5	836.8
1329	2634	1470	1	109.5	836.8
1329	2634	1614	1	109.5	836.8
1329	2701	1480	1	109.5	836.8
1329	2701	1632	1	109.5	836.8
1330	2566	1467	1	109.5	836.8
1330	2597	1430	1	109.5	836.8
1330	2597	1480	1	109.5	836.8
1330	2597	1639	1	109.5	836.8
1331	2573	1391	1	109.5	836.8
1331	2573	1447	1	109.5	836.8
1331	2573	1509	1	109.5	836.8
1331	2632	1440	1	109.5	836.8
1331	2632	1452	1	109.5	836.8
1331	2632	1658	1	109.5	836.8
1332	2697	1581	1	109.5	836.8
1332	2697	1607	1	109.5	836.8
1332	2712	1461	1	109.5	836.8
1332	2712	1544	1	109.5	836.8
1332	2712	1651	1	109.5	836.8
1333	2545	1344	1	109.5	836.8
1333	2545	1481	1	109.5	836.8
1333	2548	1509	1	109.5	836.8
1333	2548	1510	1	109.5	836.8
1334	2614	1341	1	109.5	836.8
1334	2614	1600	1	109.5	836.8
1334	2614	1635	1	109.5	836.8
1334	2635	1353	1	109.5	836.8
1334	2635	1407	1	109.5	836.8
1334	2635	1591	1	109.5	836.8
1335	2717	1342	1	109.5	836.8
1335	2717	1564	1	109.5	836.8
1335	2717	1658	1	109.5	836.8
1335	2740	1337	1	109.5	836.8
1335	2740	1496	1	109.5	836.8
1336	2616	1504	1	109.5	836.8
1336	2616	1610	1	109.5	836.8
1337	2532	1432	1	109.5	836.8
1337	2532	1450	1	109.5	836.8
1337	2740	1496	1	109.5	836.8
1338	2585	1362	1	109.5	836.8
1338	2585	1549	1	109.5	836.8
1338	2585	1637	1	109.5	836.8
1338	2651	1579	1	109.5	836.8
1338	2651	1675	1	109.5	836.8
1338	2651	1866	1	109.5	836.8
1339	2560	1632	1	109.5	836.8
1339	2560	1830	1	109.5	836.8
1339	2735	1545	1	109.5	836.8
1339	2735	1588	1	109.5	836.8
1339	2735	1639	1	109.5	836.8
1340	2602	1428	1	109.5	836.8
1340	2602	1479	1	109.5	836.8
1340	2602	1577	1	109.5	836.8
1340	2650	1516	1	109.5	836.8
1340	2650	1572	1	109.5	836.8
1341	2614	1600	1	109.5	836.8
1341	2614	1635	1	109.5	836.8
1341	2687	1540	1	109.5	836.8
1341	2687	1587	1	109.5	836.8
1341	2687	1623	1	109.5	836.8
1342	2642	1510	1	109.5	836.8
1342	2642	1608	1	109.5	836.8
1342	2642	1640	1	109.5	836.8
1342	2717	1564	1	109.5	836.8
1342	2717	1658	1	109.5	836.8
1343	2639	1358	1	109.5	836.8
1343	2639	1596	1	109.5	836.8
1343	2639	1659	1	109.5	836.8
1343	2730	1456	1	109.5	836.8
1343	2730	1467	1	109.5	836.8
1343	2730	1608	1	109.5	836.8
1344	2545	1481	1	109.5	836.8
1344	2576	1403	1	109.5	836.8
1344	2576	1513	1	109.5	836.8
1345	2547	1476	1	109.5	836.8
1345	2547	1496	1	109.5	836.8
1345	2547	1547	1	109.5	836.8
1345	2582	1418	1	109.5	836.8
1345	2582	1605	1	109.5	836.8
1346	2554	1433	1	109.5	836.8
1346	2554	1452	1	109.5	836.8
1346	2554	1455	1	109.5	836.8
1346	2587	1378	1	109.5	836.8
1346	2587	1469	1	109.5	836.8
1346	2587	1513	1	109.5	836.8
1347	2571	1355	1	109.5	836.8
1347	2630	1393	1	109.5	836.8
1347	2630	1555	1	109.5	836.8
1348	2655	1383	1	109.5	836.8
1348	2655	1563	1	109.5	836.8
1348	2671	1524	1	109.5	836.8
1349	2659	1563	1	109.5	836.8
1349	2719	1532	1	109.5	836.8
1349	2719	1618	1	109.5	836.8
1349	2719	1665	1	109.5	836.8
1350	2534	1551	1	109.5	836.8
1350	2534	1553	1	109.5	836.8
1350	2580	1656	1	109.5	836.8
1350	2580	1660	1	109.5	836.8
1351	2683	1369	1	109.5	836.8
1351	2683	1600	1	109.5	836.8
1351	2683	1638	1	109.5	836.8
1351	2727	1570	1	109.5	836.8
1351	2727	1653	1	109.5	836.8
1352	2536	1437	1	109.5	836.8
1352	2536	1840	1	109.5	836.8
1352	2680	1442	1	109.5	836.8
1352	2680	1569	1	109.5	836.8
1352	2680	1865	1	109.5	836.8
1353	2537	1471	1	109.5	836.8
1353	2537	1631	1	109.5	836.8
1353	2635	1407	1	109.5	836.8
1353	2635	1591	1	109.5	836.8
1354	2660	1568	1	109.5	836.8
1356	2604	1585	1	109.5	836.8
1356	2675	1377	1	109.5	836.8
1356	2675	1567	1	109.5	836.8
1357	2618	1391	1	109.5	836.8
1357	2618	1445	1	109.5	836.8
1357	2618	1512	1	109.5	836.8
1357	2685	1406	1	109.5	836.8
1357	2685	1410	1	109.5	836.8
1357	2685	1583	1	109.5	836.8
1358	2639	1596	1	109.5	836.8
1358	2639	1659	1	109.5	836.8
1358	2713	1371	1	109.5	836.8
1358	2713	1557	1	109.5	836.8
1359	2570	1435	1	109.5	836.8
1359	2570	1490	1	109.5	836.8
1359	2636	1457	1	109.5	836.8
1359	2636	1627	1	109.5	836.8
1360	2553	1377	1	109.5	836.8
1360	2553	1399	1	109.5	836.8
1360	2553	1844	1	109.5	836.8
1360	2583	1401	1	109.5	836.8
1360	2583	1476	1	109.5	836.8
1360	2583	1650	1	109.5	836.8
1361	2584	1545	1	109.5	836.8
1361	2584	1552	1	109.5	836.8
1361	2584	1846	1	109.5	836.8
1361	2700	1384	1	109.5	836.8
1361	2700	1672	1	109.5	836.8
1361	2700	1853	1	109.5	836.8
1362	2196	1420	1	109.5	836.8
1362	2585	1549	1	109.5	836.8
1362	2585	1637	1	109.5	836.8
1363	2613	1501	1	109.5	836.8
1363	2613	1582	1	109.5	836.8
1363	2706	1425	1	109.5	836.8
1363	2706	1478	1	109.5	836.8
1363	2706	1613	1	109.5	836.8
1364	2653	1394	1	109.5	836.8
1364	2653	1671	1	109.5	836.8
1364	2653	1849	1	109.5	836.8
1364	2686	1397	1	109.5	836.8
1365	2565	1590	1	109.5	836.8
1365	2565	1670	1	109.5	836.8
1365	2565	1836	1	109.5	836.8
1365	2589	1375	1	109.5	836.8
1365	2589	1588	1	109.5	836.8
1365	2589	1838	1	109.5	836.8
1366	2663	1367	1	109.5	836.8
1366	2663	1379	1	109.5	836.8
1366	2663	1576	1	109.5	836.8
1366	2747	1503	1	109.5	836.8
1366	2747	1515	1	109.5	836.8
1366	2747	1861	1	109.5	836.8
1367	2475	1629	1	109.5	836.8
1367	2663	1379	1	109.5	836.8
1367	2663	1576	1	109.5	836.8
1368	2559	1522	1	109.5	836.8
1368	2559	1645	1	109.5	836.8
1368	2559	1826	1	109.5	836.8
1368	2603	1527	1	109.5	836.8
1368	2603	1663	1	109.5	836.8
1368	2603	1847	1	109.5	836.8
1369	2676	1424	1	109.5	836.8
1369	2676	1540	1	109.5	836.8
1369	2676	1590	1	109.5	836.8
1369	2683	1600	1	109.5	836.8
1369	2683	1638	1	109.5	836.8
1370	2601	1549	1	109.5	836.8
1370	2601	1611	1	109.5	836.8
1370	2601	1842	1	109.5	836.8
1370	2661	1390	1	109.5	836.8
1370	2661	1634	1	109.5	836.8
1370	2661	1850	1	109.5	836.8
1371	2713	1557	1	109.5	836.8
1372	2664	1415	1	109.5	836.8
1372	2664	1603	1	109.5	836.8
1373	2619	1398	1	109.5	836.8
1373	2619	1536	1	109.5	836.8
1373	2619	1654	1	109.5	836.8
1373	2714	1581	1	109.5	836.8
1373	2714	1584	1	109.5	836.8
1373	2714	1597	1	109.5	836.8
1374	2643	1492	1	109.5	836.8
1374	2643	1551	1	109.5	836.8
1374	2643	1599	1	109.5	836.8
1374	2645	1445	1	109.5	836.8
1374	2645	1534	1	109.5	836.8
1375	2588	1609	1	109.5	836.8
1375	2589	1588	1	109.5	836.8
1375	2589	1838	1	109.5	836.8
1376	2558	1483	1	109.5	836.8
1376	2622	1514	1	109.5	836.8
1377	2553	1399	1	109.5	836.8
1377	2553	1844	1	109.5	836.8
1377	2675	1567	1	109.5	836.8
1378	2563	1436	1	109.5	836.8
1378	2563	1525	1	109.5	836.8
1378	2563	1568	1	109.5	836.8
1378	2587	1469	1	109.5	836.8
1378	2587	1513	1	109.5	836.8
1379	2627	1489	1	109.5	836.8
1379	2627	1502	1	109.5	836.8
1379	2627	1506	1	109.5	836.8
1379	2663	1576	1	109.5	836.8
1380	2572	1389	1	109.5	836.8
1380	2572	1429	1	109.5	836.8
1380	2572	1521	1	109.5	836.8
1380	2593	1619	1	109.5	836.8
1381	2609	1383	1	109.5	836.8
1381	2609	1518	1	109.5	836.8
1382	2612	1464	1	109.5	836.8
1382	2612	1526	1	109.5	836.8
1383	2609	1518	1	109.5	836.8
1383	2655	1563	1	109.5	836.8
1384	2700	1672	1	109.5	836.8
1384	2700	1853	1	109.5	836.8
1384	2722	1611	1	109.5	836.8
1384	2722	1634	1	109.5	836.8
1385	2561	1456	1	109.5	836.8
1385	2561	1604	1	109.5	836.8
1385	2568	1573	1	109.5	836.8
1386	2652	1488	1	109.5	836.8
1387	2550	1637	1	109.5	836.8
1387	2704	1579	1	109.5	836.8
1387	2704	1589	1	109.5	836.8
1387	2704	1601	1	109.5	836.8
1388	2674	1520	1	109.5	836.8
1388	2674	1521	1	109.5	836.8
1389	2572	1429	1	109.5	836.8
1389	2572	1521	1	109.5	836.8
1389	2599	1475	1	109.5	836.8
1389	2599	1661	1	109.5	836.8
1389	2599	1694	1	109.5	836.8
1390	2555	1541	1	109.5	836.8
1390	2661	1634	1	109.5	836.8
1390	2661	1850	1	109.5	836.8
1391	2573	1447	1	109.5	836.8
1391	2573	1509	1	109.5	836.8
1391	2618	1445	1	109.5	836.8
1391	2618	1512	1	109.5	836.8
1392	2667	1586	1	109.5	836.8
1392	2667	1666	1	109.5	836.8
1393	2630	1555	1	109.5	836.8
1394	2633	1556	1	109.5	836.8
1394	2633	1848	1	109.5	836.8
1394	2653	1671	1	109.5	836.8
1394	2653	1849	1	109.5	836.8
1395	2656	1507	1	109.5	836.8
1395	2656	1667	1	109.5	836.8
1395	2724	1841	1	109.5	836.8
1396	2623	1559	1	109.5	836.8
1396	2739	1635	1	109.5	836.8
1396	2739	1636	1	109.5	836.8
1397	2634	1470	1	109.5	836.8
1397	2634	1614	1	109.5	836.8
1398	2533	1414	1	109.5	836.8
1398	2533	1576	1	109.5	836.8
1398	2533	1593	1	109.5	836.8
1398	2619	1536	1	109.5	836.8
1398	2619	1654	1	109.5	836.8
1399	2553	1844	1	109.5	836.8
1399	2600	1418	1	109.5	836.8
1399	2600	1839	1	109.5	836.8
1400	2681	1448	1	109.5	836.8
1400	2681	1643	1	109.5	836.8
1400	2718	1607	1	109.5	836.8
1400	2718	1616	1	109.5	836.8
1401	2583	1476	1	109.5	836.8
1401	2583	1650	1	109.5	836.8
1401	2723	1413	1	109.5	836.8
1401	2723	1580	1	109.5	836.8
1401	2723	1586	1	109.5	836.8
1402	2552	1414	1	109.5	836.8
1402	2552	1453	1	109.5	836.8
1402	2552	1533	1	109.5	836.8
1403	2576	1513	1	109.5	836.8
1404	2541	1553	1	109.5	836.8
1405	2654	1412	1	109.5	836.8
1405	2654	1617	1	109.5	836.8
1406	2685	1410	1	109.5	836.8
1406	2685	1583	1	109.5	836.8
1406	2694	1426	1	109.5	836.8
1406	2694	1458	1	109.5	836.8
1406	2694	1631	1	109.5	836.8
1407	2635	1591	1	109.5	836.8
1407	2684	1539	1	109.5	836.8
1408	2709	1625	1	109.5	836.8
1408	2709	1662	1	109.5	836.8
1408	2709	1856	1	109.5	836.8
1409	2625	1419	1	109.5	836.8
1409	2693	1525	1	109.5	836.8
1409	2693	1664	1	109.5	836.8
1410	2638	1560	1	109.5	836.8
1410	2638	1566	1	109.5	836.8
1410	2685	1583	1	109.5	836.8
1411	2640	1526	1	109.5	836.8
1411	2640	1613	1	109.5	836.8
1411	2725	1423	1	109.5	836.8
1412	2654	1617	1	109.5	836.8
1412	2682	1454	1	109.5	836.8
1412	2682	1491	1	109.5	836.8
1412	2682	1504	1	109.5	836.8
1413	2562	1592	1	109.5	836.8
1413	2562	1673	1	109.5	836.8
1413	2562	1845	1	109.5	836.8
1413	2723	1580	1	109.5	836.8
1413	2723	1586	1	109.5	836.8
1414	2533	1576	1	109.5	836.8
1414	2533	1593	1	109.5	836.8
1414	2552	1453	1	109.5	836.8
1414	2552	1533	1	109.5	836.8
1415	2664	1603	1	109.5	836.8
1415	2665	1698	1	109.5	836.8
1416	2648	1505	1	109.5	836.8
1416	2648	1523	1	109.5	836.8
1416	2678	1618	1	109.5	836.8
1416	2678	1696	1	109.5	836.8
1417	2542	1527	1	109.5	836.8
1417	2542	1646	1	109.5	836.8
1417	2542	1835	1	109.5	836.8
1418	2582	1605	1	109.5	836.8
1418	2600	1839	1	109.5	836.8
1419	2540	1436	1	109.5	836.8
1419	2540	1557	1	109.5	836.8
1420	2737	1457	1	109.5	836.8
1420	2737	1468	1	109.5	836.8
1421	2578	1438	1	109.5	836.8
1421	2578	1482	1	109.5	836.8
1421	2578	1508	1	109.5	836.8
1421	2690	1539	1	109.5	836.8
1421	2690	1572	1	109.5	836.8
1421	2690	1626	1	109.5	836.8
1422	2538	1575	1	109.5	836.8
1422	2538	1615	1	109.5	836.8
1422	2668	1528	1	109.5	836.8
1422	2668	1534	1	109.5	836.8
1422	2668	1660	1	109.5	836.8
1423	2591	1478	1	109.5	836.8
1423	2591	1517	1	109.5	836.8
1423	2591	1591	1	109.5	836.8
1424	2610	1558	1	109.5	836.8
1424	2610	1582	1	109.5	836.8
1424	2610	1589	1	109.5	836.8
1424	2676	1540	1	109.5	836.8
1424	2676	1590	1	109.5	836.8
1425	2706	1478	1	109.5	836.8
1425	2706	1613	1	109.5	836.8
1425	2707	1431	1	109.5	836.8
1425	2707	1474	1	109.5	836.8
1425	2707	1477	1	109.5	836.8
1426	2694	1458	1	109.5	836.8
1426	2694	1631	1	109.5	836.8
1426	2742	1428	1	109.5	836.8
1426	2742	1654	1	109.5	836.8
1427	2646	1431	1	109.5	836.8
1427	2646	1435	1	109.5	836.8
1427	2646	1641	1	109.5	836.8
1427	2691	1493	1	109.5	836.8
1427	2691	1565	1	109.5	836.8
1427	2691	1573	1	109.5	836.8
1428	2602	1479	1	109.5	836.8
1428	2602	1577	1	109.5	836.8
1428	2742	1654	1	109.5	836.8
1429	2572	1521	1	109.5	836.8
1429	2692	1430	1	109.5	836.8
1429	2692	1535	1	109.5	836.8
1429	2692	1604	1	109.5	836.8
1430	2597	1480	1	109.5	836.8
1430	2597	1639	1	109.5	836.8
1430	2692	1535	1	109.5	836.8
1430	2692	1604	1	109.5	836.8
1431	2646	1435	1	109.5	836.8
1431	2646	1641	1	109.5	836.8
1431	2707	1474	1	109.5	836.8
1431	2707	1477	1	109.5	836.8
1432	2532	1450	1	109.5	836.8
1432	2628	1598	1	109.5	836.8
1433	2554	1452	1	109.5	836.8
1433	2554	1455	1	109.5	836.8
1433	2620	1434	1	109.5	836.8
1433	2620	1538	1	109.5	836.8
1433	2620	1680	1	109.5	836.8
1434	2620	1538	1	109.5	836.8
1434	2620	1680	1	109.5	836.8
1434	2631	1448	1	109.5	836.8
1434	2631	1465	1	109.5	836.8
1434	2631	1529	1	109.5	836.8
1435	2570	1490	1	109.5	836.8
1435	2646	1641	1	109.5	836.8
1436	2540	1557	1	109.5	836.8
1436	2563	1525	1	109.5	836.8
1436	2563	1568	1	109.5	836.8
1437	2536	1840	1	109.5	836.8
1437	2689	1622	1	109.5	836.8
1437	2689	1852	1	109.5	836.8
1438	2578	1482	1	109.5	836.8
1438	2578	1508	1	109.5	836.8
1438	2598	1495	1	109.5	836.8
1438	2598	1578	1	109.5	836.8
1439	2720	1605	1	109.5	836.8
1439	2720	1695	1	109.5	836.8
1439	2738	1446	1	109.5	836.8
1439	2738	1472	1	109.5	836.8
1439	2738	1649	1	109.5	836.8
1440	2632	1452	1	109.5	836.8
1440	2632	1658	1	109.5	836.8
1440	2688	1580	1	109.5	836.8
1440	2688	1630	1	109.5	836.8
1441	2192	1763	1	109.5	836.8
1441	2546	1494	1	109.5	836.8
1441	2546	1501	1	109.5	836.8
1441	2546	1837	1	109.5	836.8
1442	2680	1569	1	109.5	836.8
1442	2680	1865	1	109.5	836.8
1443	2679	1537	1	109.5	836.8
1443	2679	1593	1	109.5	836.8
1443	2679	1626	1	109.5	836.8
1444	2605	1484	1	109.5	836.8
1444	2605	1536	1	109.5	836.8
1444	2608	1482	1	109.5	836.8
1444	2608	1537	1	109.5	836.8
1444	2608	1629	1	109.5	836.8
1445	2618	1512	1	109.5	836.8
1445	2645	1534	1	109.5	836.8
1446	2666	1493	1	109.5	836.8
1446	2666	1505	1	109.5	836.8
1446	2738	1472	1	109.5	836.8
1446	2738	1649	1	109.5	836.8
1447	2573	1509	1	109.5	836.8
1447	2621	1458	1	109.5	836.8
1447	2621	1596	1	109.5	836.8
1447	2621	1621	1	109.5	836.8
1448	2631	1465	1	109.5	836.8
1448	2631	1529	1	109.5	836.8
1448	2681	1643	1	109.5	836.8
1449	2662	1485	1	109.5	836.8
1449	2662	1645	1	109.5	836.8
1449	2662	1851	1	109.5	836.8
1449	2695	1546	1	109.5	836.8
1449	2695	1648	1	109.5	836.8
1449	2695	1828	1	109.5	836.8
1450	2581	1598	1	109.5	836.8
1451	2551	1668	1	109.5	836.8
1451	2551	1862	1	109.5	836.8
1451	2696	1532	1	109.5	836.8
1451	2696	1693	1	109.5	836.8
1452	2554	1455	1	109.5	836.8
1452	2632	1658	1	109.5	836.8
1453	2552	1533	1	109.5	836.8
1453	2698	1497	1	109.5	836.8
1453	2698	1602	1	109.5	836.8
1454	2669	1494	1	109.5	836.8
1454	2669	1587	1	109.5	836.8
1454	2669	1667	1	109.5	836.8
1454	2682	1491	1	109.5	836.8
1454	2682	1504	1	109.5	836.8
1455	2530	1512	1	109.5	836.8
1455	2530	1616	1	109.5	836.8
1456	2561	1604	1	109.5	836.8
1456	2730	1467	1	109.5	836.8
1456	2730	1608	1	109.5	836.8
1457	2636	1627	1	109.5	836.8
1457	2737	1468	1	109.5	836.8
1458	2621	1596	1	109.5	836.8
1458	2621	1621	1	109.5	836.8
1458	2694	1631	1	109.5	836.8
1459	2574	1475	1	109.5	836.8
1459	2574	1487	1	109.5	836.8
1459	2586	1619	1	109.5	836.8
1460	2728	1623	1	109.5	836.8
1460	2728	1647	1	109.5	836.8
1460	2728	1674	1	109.5	836.8
1460	2729	1485	1	109.5	836.8
1461	2710	1462	1	109.5	836.8
1461	2710	1463	1	109.5	836.8
1461	2712	1544	1	109.5	836.8
1461	2712	1651	1	109.5	836.8
1462	2673	1548	1	109.5	836.8
1462	2673	1595	1	109.5	836.8
1462	2673	1834	1	109.5	836.8
1462	2710	1463	1	109.5	836.8
1463	2577	1644	1	109.5	836.8
1463	2577	1665	1	109.5	836.8
1463	2577	1669	1	109.5	836.8
1464	2612	1526	1	109.5	836.8
1464	2641	1479	1	109.5	836.8
1464	2641	1490	1	109.5	836.8
1464	2641	1530	1	109.5	836.8
1465	2556	1592	1	109.5	836.8
1465	2631	1529	1	109.5	836.8
1466	2677	1575	1	109.5	836.8
1466	2677	1633	1	109.5	836.8
1466	2677	1656	1	109.5	836.8
1466	2733	1486	1	109.5	836.8
1467	2730	1608	1	109.5	836.8
1468	2145	1531	1	109.5	836.8
1469	2587	1513	1	109.5	836.8
1470	2634	1614	1	109.5	836.8
1470	2703	1664	1	109.5	836.8
1471	2537	1631	1	109.5	836.8
1471	2617	1474	1	109.5	836.8
1471	2617	1550	1	109.5	836.8
1471	2617	1577	1	109.5	836.8
1472	2738	1649	1	109.5	836.8
1472	2741	1554	1	109.5	836.8
1473	2569	1543	1	109.5	836.8
1473	2569	1571	1	109.5	836.8
1473	2708	1595	1	109.5	836.8
1473	2708	1831	1	109.5	836.8
1474	2617	1550	1	109.5	836.8
1474	2617	1577	1	109.5	836.8
1474	2707	1477	1	109.5	836.8
1475	2574	1487	1	109.5	836.8
1475	2599	1661	1	109.5	836.8
1475	2599	1694	1	109.5	836.8
1476	2547	1496	1	109.5	836.8
1476	2547	1547	1	109.5	836.8
1476	2583	1650	1	109.5	836.8
1477	2564	1558	1	109.5	836.8
1477	2564	1594	1	109.5	836.8
1477	2564	1659	1	109.5	836.8
1478	2591	1517	1	109.5	836.8
1478	2591	1591	1	109.5	836.8
1478	2706	1613	1	109.5	836.8
1479	2602	1577	1	109.5	836.8
1479	2641	1490	1	109.5	836.8
1479	2641	1530	1	109.5	836.8
1480	2597	1639	1	109.5	836.8
1480	2701	1632	1	109.5	836.8
1482	2578	1508	1	109.5	836.8
1482	2608	1537	1	109.5	836.8
1482	2608	1629	1	109.5	836.8
1483	2549	1530	1	109.5	836.8
1483	2549	1571	1	109.5	836.8
1484	2605	1536	1	109.5	836.8
1484	2750	1502	1	109.5	836.8
1484	2750	1678	1	109.5	836.8
1484	2750	1863	1	109.5	836.8
1485	2662	1645	1	109.5	836.8
1485	2662	1851	1	109.5	836.8
1486	2615	1499	1	109.5	836.8
1486	2615	1522	1	109.5	836.8
1489	2332	1820	1	109.5	836.8
1489	2627	1502	1	109.5	836.8
1489	2627	1506	1	109.5	836.8
1490	2641	1530	1	109.5	836.8
1491	2224	1507	1	109.5	836.8
1491	2682	1504	1	109.5	836.8
1492	2629	1529	1	109.5	836.8
1492	2643	1551	1	109.5	836.8
1492	2643	1599	1	109.5	836.8
1493	2666	1505	1	109.5	836.8
1493	2691	1565	1	109.5	836.8
1493	2691	1573	1	109.5	836.8
1494	2546	1501	1	109.5	836.8
1494	2546	1837	1	109.5	836.8
1494	2669	1587	1	109.5	836.8
1494	2669	1667	1	109.5	836.8
1495	2598	1578	1	109.5	836.8
1496	2547	1547	1	109.5	836.8
1497	2557	1528	1	109.5	836.8
1497	2557	1652	1	109.5	836.8
1497	2698	1602	1	109.5	836.8
1498	2309	1779	1	109.5	836.8
1498	2596	1506	1	109.5	836.8
1499	2437	1642	1	109.5	836.8
1499	2615	1522	1	109.5	836.8
1500	2590	1541	1	109.5	836.8
1500	2590	1690	1	109.5	836.8
1500	2657	1531	1	109.5	836.8
1500	2657	1612	1	109.5	836.8
1500	2657	1620	1	109.5	836.8
1501	2546	1837	1	109.5	836.8
1501	2613	1582	1	109.5	836.8
1502	2627	1506	1	109.5	836.8
1502	2750	1678	1	109.5	836.8
1502	2750	1863	1	109.5	836.8
1503	2579	1511	1	109.5	836.8
1503	2579	1643	1	109.5	836.8
1503	2747	1515	1	109.5	836.8
1503	2747	1861	1	109.5	836.8
1504	2616	1610	1	109.5	836.8
1505	2648	1523	1	109.5	836.8
1507	2656	1667	1	109.5	836.8
1509	2548	1510	1	109.5	836.8
1510	2642	1608	1	109.5	836.8
1510	2642	1640	1	109.5	836.8
1511	2579	1643	1	109.5	836.8
1511	2716	1584	1	109.5	836.8
1511	2716	1622	1	109.5	836.8
1511	2716	1628	1	109.5	836.8
1512	2530	1616	1	109.5	836.8
1514	2672	1612	1	109.5	836.8
1514	2672	1627	1	109.5	836.8
1515	2380	1794	1	109.5	836.8
1515	2747	1861	1	109.5	836.8
1516	2543	1517	1	109.5	836.8
1516	2650	1572	1	109.5	836.8
1517	2591	1591	1	109.5	836.8
1518	2736	1519	1	109.5	836.8
1518	2736	1523	1	109.5	836.8
1518	2736	1562	1	109.5	836.8
1519	2644	1620	1	109.5	836.8
1519	2644	1641	1	109.5	836.8
1519	2736	1523	1	109.5	836.8
1519	2736	1562	1	109.5	836.8
1520	2674	1521	1	109.5	836.8
1520	2711	1640	1	109.5	836.8
1520	2711	1649	1	109.5	836.8
1522	2559	1645	1	109.5	836.8
1522	2559	1826	1	109.5	836.8
1523	2736	1562	1	109.5	836.8
1524	2755	1692	1	109.5	836.8
1525	2563	1568	1	109.5	836.8
1525	2693	1664	1	109.5	836.8
1526	2640	1613	1	109.5	836.8
1527	2542	1646	1	109.5	836.8
1527	2542	1835	1	109.5	836.8
1527	2603	1663	1	109.5	836.8
1527	2603	1847	1	109.5	836.8
1528	2557	1652	1	109.5	836.8
1528	2668	1534	1	109.5	836.8
1528	2668	1660	1	109.5	836.8
1530	2549	1571	1	109.5	836.8
1531	2657	1612	1	109.5	836.8
1531	2657	1620	1	109.5	836.8
1532	2696	1693	1	109.5	836.8
1532	2719	1618	1	109.5	836.8
1532	2719	1665	1	109.5	836.8
1533	2595	1583	1	109.5	836.8
1533	2595	1652	1	109.5	836.8
1534	2668	1660	1	109.5	836.8
1535	2692	1604	1	109.5	836.8
1535	2758	1661	1	109.5	836.8
1536	2619	1654	1	109.5	836.8
1537	2608	1629	1	109.5	836.8
1537	2679	1593	1	109.5	836.8
1537	2679	1626	1	109.5	836.8
1538	2620	1680	1	109.5	836.8
1538	2702	1542	1	109.5	836.8
1538	2702	1574	1	109.5	836.8
1538	2702	1854	1	109.5	836.8
1539	2690	1572	1	109.5	836.8
1539	2690	1626	1	109.5	836.8
1540	2676	1590	1	109.5	836.8
1540	2687	1587	1	109.5	836.8
1540	2687	1623	1	109.5	836.8
1541	2590	1690	1	109.5	836.8
1542	2206	1747	1	109.5	836.8
1542	2702	1574	1	109.5	836.8
1542	2702	1854	1	109.5	836.8
1543	2569	1571	1	109.5	836.8
1543	2647	1625	1	109.5	836.8
1543	2647	1832	1	109.5	836.8
1544	2712	1651	1	109.5	836.8
1544	2726	1564	1	109.5	836.8
1544	2726	1624	1	109.5	836.8
1544	2726	1630	1	109.5	836.8
1545	2584	1552	1	109.5	836.8
1545	2584	1846	1	109.5	836.8
1545	2735	1588	1	109.5	836.8
1545	2735	1639	1	109.5	836.8
1546	2539	1646	1	109.5	836.8
1546	2539	1671	1	109.5	836.8
1546	2539	1833	1	109.5	836.8
1546	2695	1648	1	109.5	836.8
1546	2695	1828	1	109.5	836.8
1547	2529	1567	1	109.5	836.8
1547	2529	1689	1	109.5	836.8
1548	2649	1597	1	109.5	836.8
1548	2649	1662	1	109.5	836.8
1548	2649	1829	1	109.5	836.8
1548	2673	1595	1	109.5	836.8
1548	2673	1834	1	109.5	836.8
1549	2585	1637	1	109.5	836.8
1549	2601	1611	1	109.5	836.8
1549	2601	1842	1	109.5	836.8
1550	2617	1577	1	109.5	836.8
1550	2624	1565	1	109.5	836.8
1550	2624	1621	1	109.5	836.8
1550	2624	1655	1	109.5	836.8
1551	2534	1553	1	109.5	836.8
1551	2643	1599	1	109.5	836.8
1552	2584	1846	1	109.5	836.8
1552	2658	1657	1	109.5	836.8
1555	2745	1668	1	109.5	836.8
1555	2745	1669	1	109.5	836.8
1555	2745	1859	1	109.5	836.8
1556	2633	1848	1	109.5	836.8
1556	2637	1614	1	109.5	836.8
1558	2564	1594	1	109.5	836.8
1558	2564	1659	1	109.5	836.8
1558	2610	1582	1	109.5	836.8
1558	2610	1589	1	109.5	836.8
1559	2670	1560	1	109.5	836.8
1559	2670	1633	1	109.5	836.8
1560	2638	1566	1	109.5	836.8
1560	2670	1633	1	109.5	836.8
1561	2731	1566	1	109.5	836.8
1561	2731	1570	1	109.5	836.8
1561	2731	1615	1	109.5	836.8
1561	2732	1638	1	109.5	836.8
1564	2717	1658	1	109.5	836.8
1564	2726	1624	1	109.5	836.8
1564	2726	1630	1	109.5	836.8
1565	2624	1621	1	109.5	836.8
1565	2624	1655	1	109.5	836.8
1565	2691	1573	1	109.5	836.8
1566	2731	1570	1	109.5	836.8
1566	2731	1615	1	109.5	836.8
1567	2529	1689	1	109.5	836.8
1569	2680	1865	1	109.5	836.8
1569	2749	1676	1	109.5	836.8
1569	2749	1864	1	109.5	836.8
1570	2727	1653	1	109.5	836.8
1570	2731	1615	1	109.5	836.8
1572	2690	1626	1	109.5	836.8
1574	2606	1827	1	109.5	836.8
1574	2702	1854	1	109.5	836.8
1575	2538	1615	1	109.5	836.8
1575	2677	1633	1	109.5	836.8
1575	2677	1656	1	109.5	836.8
1576	2533	1593	1	109.5	836.8
1579	2651	1675	1	109.5	836.8
1579	2651	1866	1	109.5	836.8
1579	2704	1589	1	109.5	836.8
1579	2704	1601	1	109.5	836.8
1580	2688	1630	1	109.5	836.8
1580	2723	1586	1	109.5	836.8
1581	2697	1607	1	109.5	836.8
1581	2714	1584	1	109.5	836.8
1581	2714	1597	1	109.5	836.8
1582	2610	1589	1	109.5	836.8
1583	2595	1652	1	109.5	836.8
1584	2714	1597	1	109.5	836.8
1584	2716	1622	1	109.5	836.8
1584	2716	1628	1	109.5	836.8
1585	2531	1666	1	109.5	836.8
1585	2531	1843	1	109.5	836.8
1586	2667	1666	1	109.5	836.8
1587	2669	1667	1	109.5	836.8
1587	2687	1623	1	109.5	836.8
1588	2589	1838	1	109.5	836.8
1588	2735	1639	1	109.5	836.8
1589	2704	1601	1	109.5	836.8
1590	2565	1670	1	109.5	836.8
1590	2565	1836	1	109.5	836.8
1592	2562	1673	1	109.5	836.8
1592	2562	1845	1	109.5	836.8
1593	2679	1626	1	109.5	836.8
1594	2564	1659	1	109.5	836.8
1594	2699	1601	1	109.5	836.8
1594	2699	1609	1	109.5	836.8
1595	2673	1834	1	109.5	836.8
1595	2708	1831	1	109.5	836.8
1596	2621	1621	1	109.5	836.8
1596	2639	1659	1	109.5	836.8
1597	2649	1662	1	109.5	836.8
1597	2649	1829	1	109.5	836.8
1600	2614	1635	1	109.5	836.8
1600	2683	1638	1	109.5	836.8
1601	2699	1609	1	109.5	836.8
1605	2720	1695	1	109.5	836.8
1606	2705	1673	1	109.5	836.8
1606	2705	1855	1	109.5	836.8
1606	2734	1628	1	109.5	836.8
1606	2734	1858	1	109.5	836.8
1607	2718	1616	1	109.5	836.8
1608	2642	1640	1	109.5	836.8
1610	2743	1617	1	109.5	836.8
1611	2601	1842	1	109.5	836.8
1611	2722	1634	1	109.5	836.8
1612	2657	1620	1	109.5	836.8
1612	2672	1627	1	109.5	836.8
1618	2678	1696	1	109.5	836.8
1618	2719	1665	1	109.5	836.8
1620	2644	1641	1	109.5	836.8
1621	2624	1655	1	109.5	836.8
1622	2689	1852	1	109.5	836.8
1622	2716	1628	1	109.5	836.8
1623	2728	1647	1	109.5	836.8
1623	2728	1674	1	109.5	836.8
1624	2721	1644	1	109.5	836.8
1624	2721	1650	1	109.5	836.8
1624	2726	1630	1	109.5	836.8
1625	2647	1832	1	109.5	836.8
1625	2709	1662	1	109.5	836.8
1625	2709	1856	1	109.5	836.8
1628	2734	1858	1	109.5	836.8
1632	2560	1830	1	109.5	836.8
1633	2677	1656	1	109.5	836.8
1634	2661	1850	1	109.5	836.8
1635	2739	1636	1	109.5	836.8
1636	2611	1647	1	109.5	836.8
1640	2711	1649	1	109.5	836.8
1642	2715	1674	1	109.5	836.8
1642	2715	1857	1	109.5	836.8
1644	2577	1665	1	109.5	836.8
1644	2577	1669	1	109.5	836.8
1644	2721	1650	1	109.5	836.8
1645	2559	1826	1	109.5	836.8
1645	2662	1851	1	109.5	836.8
1646	2539	1671	1	109.5	836.8
1646	2539	1833	1	109.5	836.8
1646	2542	1835	1	109.5	836.8
1647	2728	1674	1	109.5	836.8
1648	2544	1653	1	109.5	836.8
1648	2695	1828	1	109.5	836.8
1651	2626	1655	1	109.5	836.8
1656	2580	1660	1	109.5	836.8
1661	2599	1694	1	109.5	836.8
1662	2649	1829	1	109.5	836.8
1662	2709	1856	1	109.5	836.8
1663	2215	1698	1	109.5	836.8
1663	2603	1847	1	109.5	836.8
1665	2577	1669	1	109.5	836.8
1666	2531	1843	1	109.5	836.8
1668	2551	1862	1	109.5	836.8
1668	2745	1669	1	109.5	836.8
1668	2745	1859	1	109.5	836.8
1669	2745	1859	1	109.5	836.8
1670	2565	1836	1	109.5	836.8
1670	2746	1672	1	109.5	836.8
1670	2746	1675	1	109.5	836.8
1670	2746	1860	1	109.5	836.8
1671	2539	1833	1	109.5	836.8
1671	2653	1849	1	109.5	836.8
1672	2700	1853	1	109.5	836.8
1672	2746	1675	1	109.5	836.8
1672	2746	1860	1	109.5	836.8
1673	2562	1845	1	109.5	836.8
1673	2705	1855	1	109.5	836.8
1674	2715	1857	1	109.5	836.8
1675	2651	1866	1	109.5	836.8
1675	2746	1860	1	109.5	836.8
1676	2744	1677	1	109.5	836.8
1676	2744	1700	1	109.5	836.8
1676	2749	1864	1	109.5	836.8
1677	2744	1700	1	109.5	836.8
1677	2748	1679	1	109.5	836.8
1677	2748	1680	1	109.5	836.8
1678	2750	1863	1	109.5	836.8
1679	2748	1680	1	109.5	836.8
1679	2760	1700	1	109.5	836.8
1682	2443	1694	1	109.5	836.8
1686	2001	1690	1	109.5	836.8
1714	2061	1731	1	109.5	836.8
1718	1898	1867	1	109.5	836.8
1796	2503	1815	1	109.5	836.8
1797	2441	1807	1	109.5	836.8
1801	2340	1868	1	109.5	836.8
1813	2494	1814	1	109.5	836.8
1869	283	1886	1	149.0	836.8
1869	303	2012	1	149.0	836.8
1869	445	2100	1	149.0	836.8
1869	762	2257	1	149.0	836.8
1870	39	1896	1	149.0	836.8
1870	191	1893	1	149.0	836.8
1870	248	1955	1	149.0	836.8
1870	352	2055	1	149.0	836.8
1871	321	1942	1	149.0	836.8
1871	401	2004	1	149.0	836.8
1871	889	2352	1	149.0	836.8
1871	1716	2806	1	111.0	461.16
1871	1716	2807	1	111.0	461.16
1871	1716	2808	1	111.0	461.16
1872	67	1915	1	149.0	836.8
1872	77	2076	1	149.0	836.8
1872	169	1965	1	149.0	836.8
1872	186	1920	1	149.0	836.8
1873	136	1956	1	149.0	836.8
1873	151	1891	1	149.0	836.8
1873	312	2000	1	149.0	836.8
1873	329	2016	1	149.0	836.8
1874	13	2387	1	149.0	836.8
1874	90	1919	1	149.0	836.8
1874	287	1980	1	149.0	836.8
1874	289	1880	1	149.0	836.8
1875	16	2035	1	149.0	836.8
1875	92	2017	1	149.0	836.8
1875	174	2026	1	149.0	836.8
1875	1713	2797	1	111.0	461.16
1875	1713	2798	1	111.0	461.16
1875	1713	2799	1	111.0	461.16
1876	8	2064	1	149.0	836.8
1876	93	1972	1	149.0	836.8
1876	208	1954	1	149.0	836.8
1876	367	2031	1	149.0	836.8
1877	2	1879	1	149.0	836.8
1877	159	2005	1	149.0	836.8
1877	311	2014	1	149.0	836.8
1877	351	2068	1	149.0	836.8
1878	201	1999	1	149.0	836.8
1878	282	2032	1	149.0	836.8
1878	381	1881	1	149.0	836.8
1878	406	1990	1	149.0	836.8
1879	156	1962	1	149.0	836.8
1879	173	1902	1	149.0	836.8
1879	293	2050	1	149.0	836.8
1880	22	1966	1	149.0	836.8
1880	141	2755	1	149.0	836.8
1880	1681	2088	1	149.0	836.8
1881	154	1931	1	149.0	836.8
1881	263	1941	1	149.0	836.8
1881	1708	2782	1	111.0	461.16
1881	1708	2783	1	111.0	461.16
1881	1708	2784	1	111.0	461.16
1882	23	1953	1	149.0	836.8
1882	37	1914	1	149.0	836.8
1882	252	1987	1	149.0	836.8
1882	253	1930	1	149.0	836.8
1883	24	1927	1	149.0	836.8
1883	26	1906	1	149.0	836.8
1883	383	2032	1	149.0	836.8
1883	388	2064	1	149.0	836.8
1884	68	1932	1	149.0	836.8
1884	73	1887	1	149.0	836.8
1884	84	1915	1	149.0	836.8
1884	218	2415	1	149.0	836.8
1885	178	2412	1	149.0	836.8
1885	231	2006	1	149.0	836.8
1885	238	1950	1	149.0	836.8
1885	1710	2788	1	111.0	461.16
1885	1710	2789	1	111.0	461.16
1885	1710	2790	1	111.0	461.16
1886	85	1921	1	149.0	836.8
1886	213	1922	1	149.0	836.8
1886	233	2076	1	149.0	836.8
1887	56	2050	1	149.0	836.8
1887	245	1912	1	149.0	836.8
1887	246	1979	1	149.0	836.8
1888	220	1897	1	149.0	836.8
1888	266	1978	1	149.0	836.8
1888	307	1908	1	149.0	836.8
1888	981	2357	1	149.0	836.8
1889	15	2073	1	149.0	836.8
1889	59	1950	1	149.0	836.8
1889	125	2041	1	149.0	836.8
1889	373	1924	1	149.0	836.8
1890	187	2033	1	149.0	836.8
1890	403	2081	1	149.0	836.8
1890	649	2186	1	149.0	836.8
1890	1736	2866	1	111.0	461.16
1890	1736	2867	1	111.0	461.16
1890	1736	2868	1	111.0	461.16
1891	189	2035	1	149.0	836.8
1891	269	1934	1	149.0	836.8
1891	1687	2279	1	149.0	836.8
1892	100	1922	1	149.0	836.8
1892	115	2012	1	149.0	836.8
1892	137	1938	1	149.0	836.8
1892	1717	2809	1	111.0	461.16
1892	1717	2810	1	111.0	461.16
1892	1717	2811	1	111.0	461.16
1893	86	1926	1	149.0	836.8
1893	170	1957	1	149.0	836.8
1893	188	1969	1	149.0	836.8
1894	36	2283	1	149.0	836.8
1894	128	1998	1	149.0	836.8
1894	277	1929	1	149.0	836.8
1894	1064	2355	1	149.0	836.8
1895	50	2004	1	149.0	836.8
1895	58	2055	1	149.0	836.8
1895	202	1968	1	149.0	836.8
1895	328	1901	1	149.0	836.8
1896	234	2035	1	149.0	836.8
1896	264	2005	1	149.0	836.8
1896	387	1934	1	149.0	836.8
1897	29	1996	1	149.0	836.8
1897	55	2008	1	149.0	836.8
1897	114	1959	1	149.0	836.8
1898	107	1941	1	149.0	836.8
1898	258	1952	1	149.0	836.8
1898	1718	2812	1	111.0	461.16
1898	1718	2813	1	111.0	461.16
1898	1718	2814	1	111.0	461.16
1898	1867	3259	1	111.0	461.16
1898	1867	3260	1	111.0	461.16
1898	1867	3261	1	111.0	461.16
1899	44	2023	1	149.0	836.8
1899	79	2071	1	149.0	836.8
1899	368	2038	1	149.0	836.8
1899	1704	2770	1	111.0	461.16
1899	1704	2771	1	111.0	461.16
1899	1704	2772	1	111.0	461.16
1900	18	2077	1	149.0	836.8
1900	123	1907	1	149.0	836.8
1900	192	2067	1	149.0	836.8
1900	340	2029	1	149.0	836.8
1901	150	2060	1	149.0	836.8
1901	409	2042	1	149.0	836.8
1901	1719	2815	1	111.0	461.16
1901	1719	2816	1	111.0	461.16
1901	1719	2817	1	111.0	461.16
1902	116	1926	1	149.0	836.8
1902	261	2030	1	149.0	836.8
1902	304	1997	1	149.0	836.8
1903	214	2044	1	149.0	836.8
1903	294	1948	1	149.0	836.8
1903	330	2036	1	149.0	836.8
1903	394	1976	1	149.0	836.8
1904	105	1928	1	149.0	836.8
1904	326	2013	1	149.0	836.8
1904	405	2082	1	149.0	836.8
1904	1709	2785	1	111.0	461.16
1904	1709	2786	1	111.0	461.16
1904	1709	2787	1	111.0	461.16
1905	3	1927	1	149.0	836.8
1905	66	2040	1	149.0	836.8
1905	70	1935	1	149.0	836.8
1905	204	2067	1	149.0	836.8
1906	20	1962	1	149.0	836.8
1906	30	2023	1	149.0	836.8
1906	110	2050	1	149.0	836.8
1907	49	1981	1	149.0	836.8
1907	60	2036	1	149.0	836.8
1907	309	2028	1	149.0	836.8
1908	210	2045	1	149.0	836.8
1908	279	1984	1	149.0	836.8
1908	971	2446	1	149.0	836.8
1909	61	1959	1	149.0	836.8
1909	99	1973	1	149.0	836.8
1909	172	1983	1	149.0	836.8
1909	227	1978	1	149.0	836.8
1910	48	2313	1	149.0	836.8
1910	63	2045	1	149.0	836.8
1910	87	1967	1	149.0	836.8
1910	95	2407	1	149.0	836.8
1911	118	1932	1	149.0	836.8
1911	127	1937	1	149.0	836.8
1911	166	2029	1	149.0	836.8
1911	257	2011	1	149.0	836.8
1912	71	1969	1	149.0	836.8
1912	129	1955	1	149.0	836.8
1912	183	1958	1	149.0	836.8
1913	34	2038	1	149.0	836.8
1913	195	1925	1	149.0	836.8
1913	212	1937	1	149.0	836.8
1913	224	2336	1	149.0	836.8
1914	120	1949	1	149.0	836.8
1914	881	2439	1	149.0	836.8
1914	1176	2422	1	149.0	836.8
1915	140	2330	1	149.0	836.8
1915	249	1926	1	149.0	836.8
1916	199	2047	1	149.0	836.8
1916	380	2058	1	149.0	836.8
1916	400	2056	1	149.0	836.8
1916	404	2081	1	149.0	836.8
1917	158	2027	1	149.0	836.8
1917	175	1936	1	149.0	836.8
1917	219	1946	1	149.0	836.8
1917	244	2168	1	149.0	836.8
1918	43	1934	1	149.0	836.8
1918	240	2083	1	149.0	836.8
1918	247	2053	1	149.0	836.8
1918	379	2018	1	149.0	836.8
1919	391	2014	1	149.0	836.8
1919	395	2005	1	149.0	836.8
1919	549	2233	1	149.0	836.8
1920	9	1989	1	149.0	836.8
1920	334	1965	1	149.0	836.8
1920	869	2450	1	149.0	836.8
1921	54	2058	1	149.0	836.8
1921	155	1938	1	149.0	836.8
1921	341	2057	1	149.0	836.8
1922	139	2060	1	149.0	836.8
1922	385	2058	1	149.0	836.8
1923	101	2037	1	149.0	836.8
1923	281	2071	1	149.0	836.8
1923	288	1995	1	149.0	836.8
1923	1720	2818	1	111.0	461.16
1923	1720	2819	1	111.0	461.16
1923	1720	2820	1	111.0	461.16
1924	78	1988	1	149.0	836.8
1924	102	2416	1	149.0	836.8
1924	285	1939	1	149.0	836.8
1925	355	1932	1	149.0	836.8
1925	1045	2515	1	149.0	836.8
1925	1108	2436	1	149.0	836.8
1926	206	2391	1	149.0	836.8
1927	113	1928	1	149.0	836.8
1927	345	2036	1	149.0	836.8
1928	324	2071	1	149.0	836.8
1928	1711	2791	1	111.0	461.16
1928	1711	2792	1	111.0	461.16
1928	1711	2793	1	111.0	461.16
1929	237	1994	1	149.0	836.8
1929	457	2664	1	149.0	836.8
1929	566	2213	1	149.0	836.8
1930	160	2062	1	149.0	836.8
1930	215	2043	1	149.0	836.8
1930	327	1972	1	149.0	836.8
1931	17	2002	1	149.0	836.8
1931	31	2504	1	149.0	836.8
1931	33	1962	1	149.0	836.8
1932	10	2040	1	149.0	836.8
1933	119	1947	1	149.0	836.8
1933	431	2166	1	149.0	836.8
1933	655	2157	1	149.0	836.8
1933	1065	2431	1	149.0	836.8
1934	319	2022	1	149.0	836.8
1935	167	2029	1	149.0	836.8
1935	217	2038	1	149.0	836.8
1935	375	2071	1	149.0	836.8
1936	232	2153	1	149.0	836.8
1936	314	2751	1	149.0	836.8
1936	862	2522	1	149.0	836.8
1937	396	2292	1	149.0	836.8
1937	533	2223	1	149.0	836.8
1938	674	2306	1	149.0	836.8
1938	1712	2794	1	111.0	461.16
1938	1712	2795	1	111.0	461.16
1938	1712	2796	1	111.0	461.16
1939	109	1998	1	149.0	836.8
1939	347	2059	1	149.0	836.8
1939	1715	2803	1	111.0	461.16
1939	1715	2804	1	111.0	461.16
1939	1715	2805	1	111.0	461.16
1940	80	1987	1	149.0	836.8
1940	165	2078	1	149.0	836.8
1940	216	1978	1	149.0	836.8
1940	313	1954	1	149.0	836.8
1941	398	2435	1	149.0	836.8
1941	1721	2821	1	111.0	461.16
1941	1721	2822	1	111.0	461.16
1941	1721	2823	1	111.0	461.16
1942	64	1965	1	149.0	836.8
1942	96	2012	1	149.0	836.8
1942	972	2409	1	149.0	836.8
1943	7	1987	1	149.0	836.8
1943	180	1946	1	149.0	836.8
1943	221	2087	1	149.0	836.8
1943	272	1956	1	149.0	836.8
1944	19	1966	1	149.0	836.8
1944	310	2039	1	149.0	836.8
1944	887	2084	1	149.0	836.8
1944	1701	2761	1	111.0	461.16
1944	1701	2762	1	111.0	461.16
1944	1701	2763	1	111.0	461.16
1945	14	2153	1	149.0	836.8
1945	76	1953	1	149.0	836.8
1945	854	2316	1	149.0	836.8
1945	1180	2443	1	149.0	836.8
1946	273	2016	1	149.0	836.8
1946	365	2255	1	149.0	836.8
1947	121	1992	1	149.0	836.8
1947	254	2072	1	149.0	836.8
1947	667	2137	1	149.0	836.8
1948	161	2013	1	149.0	836.8
1948	318	1950	1	149.0	836.8
1948	325	2041	1	149.0	836.8
1949	200	1978	1	149.0	836.8
1949	262	1977	1	149.0	836.8
1949	1046	2368	1	149.0	836.8
1950	103	2043	1	149.0	836.8
1951	74	1972	1	149.0	836.8
1951	81	2024	1	149.0	836.8
1951	336	2020	1	149.0	836.8
1951	371	2075	1	149.0	836.8
1952	57	2069	1	149.0	836.8
1952	223	2754	1	149.0	836.8
1952	236	2217	1	149.0	836.8
1953	241	2019	1	149.0	836.8
1953	346	2079	1	149.0	836.8
1954	211	2044	1	149.0	836.8
1954	286	1961	1	149.0	836.8
1955	97	2022	1	149.0	836.8
1955	181	1982	1	149.0	836.8
1956	111	2051	1	149.0	836.8
1956	389	2078	1	149.0	836.8
1957	171	1968	1	149.0	836.8
1957	274	2039	1	149.0	836.8
1957	417	2085	1	149.0	836.8
1958	194	2031	1	149.0	836.8
1958	332	1976	1	149.0	836.8
1958	357	1961	1	149.0	836.8
1959	32	1992	1	149.0	836.8
1959	250	2009	1	149.0	836.8
1960	25	2069	1	149.0	836.8
1960	134	2075	1	149.0	836.8
1960	295	2007	1	149.0	836.8
1960	817	2217	1	149.0	836.8
1961	301	2028	1	149.0	836.8
1961	390	1963	1	149.0	836.8
1962	146	2030	1	149.0	836.8
1963	41	2003	1	149.0	836.8
1963	51	1996	1	149.0	836.8
1963	386	2049	1	149.0	836.8
1964	117	2000	1	149.0	836.8
1964	226	2110	1	149.0	836.8
1964	239	2087	1	149.0	836.8
1964	243	2752	1	149.0	836.8
1965	936	2352	1	149.0	836.8
1966	229	1980	1	149.0	836.8
1966	265	1968	1	149.0	836.8
1967	6	2155	1	149.0	836.8
1967	131	2384	1	149.0	836.8
1967	291	2081	1	149.0	836.8
1968	184	2018	1	149.0	836.8
1969	177	2025	1	149.0	836.8
1969	393	2054	1	149.0	836.8
1970	132	1990	1	149.0	836.8
1970	292	1974	1	149.0	836.8
1970	1019	2327	1	149.0	836.8
1970	1722	2824	1	111.0	461.16
1970	1722	2825	1	111.0	461.16
1970	1722	2826	1	111.0	461.16
1971	69	2038	1	149.0	836.8
1971	135	2023	1	149.0	836.8
1971	207	2040	1	149.0	836.8
1971	350	1974	1	149.0	836.8
1972	144	2021	1	149.0	836.8
1973	193	2073	1	149.0	836.8
1973	363	2009	1	149.0	836.8
1973	1058	2326	1	149.0	836.8
1974	943	2366	1	149.0	836.8
1974	998	2515	1	149.0	836.8
1975	4	2021	1	149.0	836.8
1975	147	2022	1	149.0	836.8
1975	296	2007	1	149.0	836.8
1975	302	2068	1	149.0	836.8
1976	83	2067	1	149.0	836.8
1976	98	2050	1	149.0	836.8
1977	148	2062	1	149.0	836.8
1977	349	2043	1	149.0	836.8
1977	903	2472	1	149.0	836.8
1979	82	2054	1	149.0	836.8
1979	344	2067	1	149.0	836.8
1979	376	2048	1	149.0	836.8
1980	112	1982	1	149.0	836.8
1980	335	2356	1	149.0	836.8
1981	255	2072	1	149.0	836.8
1981	356	1994	1	149.0	836.8
1981	377	1983	1	149.0	836.8
1982	65	1997	1	149.0	836.8
1982	270	2005	1	149.0	836.8
1983	164	2028	1	149.0	836.8
1983	168	2044	1	149.0	836.8
1984	361	2046	1	149.0	836.8
1984	1119	2481	1	149.0	836.8
1984	1706	2776	1	111.0	461.16
1984	1706	2777	1	111.0	461.16
1984	1706	2778	1	111.0	461.16
1985	52	2077	1	149.0	836.8
1985	153	2015	1	149.0	836.8
1985	242	2003	1	149.0	836.8
1985	259	2072	1	149.0	836.8
1986	284	2010	1	149.0	836.8
1986	333	2051	1	149.0	836.8
1986	397	2046	1	149.0	836.8
1986	1703	2767	1	111.0	461.16
1986	1703	2768	1	111.0	461.16
1986	1703	2769	1	111.0	461.16
1987	308	2027	1	149.0	836.8
1988	315	2041	1	149.0	836.8
1988	411	2082	1	149.0	836.8
1988	1740	2878	1	111.0	461.16
1988	1740	2879	1	111.0	461.16
1988	1740	2880	1	111.0	461.16
1989	5	2011	1	149.0	836.8
1989	124	2451	1	149.0	836.8
1989	225	2375	1	149.0	836.8
1990	104	2023	1	149.0	836.8
1990	1723	2827	1	111.0	461.16
1990	1723	2828	1	111.0	461.16
1990	1723	2829	1	111.0	461.16
1991	142	2149	1	149.0	836.8
1991	149	2019	1	149.0	836.8
1991	353	2079	1	149.0	836.8
1991	1683	2753	1	149.0	836.8
1992	88	2008	1	149.0	836.8
1992	299	1996	1	149.0	836.8
1993	133	2061	1	149.0	836.8
1993	402	2006	1	149.0	836.8
1993	1239	2383	1	149.0	836.8
1993	1697	2444	1	149.0	836.8
1994	267	2367	1	149.0	836.8
1994	348	2009	1	149.0	836.8
1995	392	2182	1	149.0	836.8
1995	659	2174	1	149.0	836.8
1995	802	2274	1	149.0	836.8
1996	89	2056	1	149.0	836.8
1997	40	2356	1	149.0	836.8
1997	94	2504	1	149.0	836.8
1998	370	2059	1	149.0	836.8
1998	407	2283	1	149.0	836.8
1999	185	2032	1	149.0	836.8
1999	222	2066	1	149.0	836.8
1999	1724	2830	1	111.0	461.16
1999	1724	2831	1	111.0	461.16
1999	1724	2832	1	111.0	461.16
2000	106	2083	1	149.0	836.8
2000	1685	2255	1	149.0	836.8
2001	152	2002	1	149.0	836.8
2001	339	2387	1	149.0	836.8
2001	1686	2158	1	149.0	836.8
2001	1690	2590	1	149.0	836.8
2002	1068	2461	1	149.0	836.8
2002	1084	2435	1	149.0	836.8
2003	182	2074	1	149.0	836.8
2003	230	2028	1	149.0	836.8
2004	130	2350	1	149.0	836.8
2004	322	2060	1	149.0	836.8
2006	190	2019	1	149.0	836.8
2006	323	2024	1	149.0	836.8
2007	369	2014	1	149.0	836.8
2007	714	2300	1	149.0	836.8
2008	28	2362	1	149.0	836.8
2008	260	2094	1	149.0	836.8
2009	965	2431	1	149.0	836.8
2010	198	2047	1	149.0	836.8
2010	331	2045	1	149.0	836.8
2010	1707	2779	1	111.0	461.16
2010	1707	2780	1	111.0	461.16
2010	1707	2781	1	111.0	461.16
2011	126	2139	1	149.0	836.8
2011	256	2048	1	149.0	836.8
2012	603	2239	1	149.0	836.8
2013	108	2020	1	149.0	836.8
2013	276	2024	1	149.0	836.8
2014	203	2754	1	149.0	836.8
2015	1	2057	1	149.0	836.8
2015	354	2056	1	149.0	836.8
2015	604	2238	1	149.0	836.8
2016	362	2027	1	149.0	836.8
2016	1688	2237	1	149.0	836.8
2017	179	2234	1	149.0	836.8
2017	305	2086	1	149.0	836.8
2017	1739	2875	1	111.0	461.16
2017	1739	2876	1	111.0	461.16
2017	1739	2877	1	111.0	461.16
2018	47	2026	1	149.0	836.8
2018	138	2055	1	149.0	836.8
2019	228	2444	1	149.0	836.8
2020	91	2064	1	149.0	836.8
2020	374	2069	1	149.0	836.8
2021	42	2079	1	149.0	836.8
2021	275	2027	1	149.0	836.8
2022	143	2031	1	149.0	836.8
2024	359	2065	1	149.0	836.8
2025	12	2070	1	149.0	836.8
2025	316	2060	1	149.0	836.8
2025	366	2063	1	149.0	836.8
2026	358	2053	1	149.0	836.8
2026	1725	2833	1	111.0	461.16
2026	1725	2834	1	111.0	461.16
2026	1725	2835	1	111.0	461.16
2029	271	2292	1	149.0	836.8
2030	62	2419	1	149.0	836.8
2030	399	2040	1	149.0	836.8
2031	163	2078	1	149.0	836.8
2032	1702	2764	1	111.0	461.16
2032	1702	2765	1	111.0	461.16
2032	1702	2766	1	111.0	461.16
2033	268	2056	1	149.0	836.8
2033	528	2222	1	149.0	836.8
2033	789	2167	1	149.0	836.8
2034	45	2078	1	149.0	836.8
2034	72	2049	1	149.0	836.8
2034	317	2051	1	149.0	836.8
2034	343	2055	1	149.0	836.8
2035	338	2088	1	149.0	836.8
2036	337	2041	1	149.0	836.8
2037	122	2059	1	149.0	836.8
2037	408	2082	1	149.0	836.8
2037	1726	2836	1	111.0	461.16
2037	1726	2837	1	111.0	461.16
2037	1726	2838	1	111.0	461.16
2039	278	2426	1	149.0	836.8
2039	1727	2839	1	111.0	461.16
2039	1727	2840	1	111.0	461.16
2039	1727	2841	1	111.0	461.16
2042	53	2047	1	149.0	836.8
2042	342	2070	1	149.0	836.8
2042	1728	2842	1	111.0	461.16
2042	1728	2843	1	111.0	461.16
2042	1728	2844	1	111.0	461.16
2043	162	2044	1	149.0	836.8
2045	1705	2773	1	111.0	461.16
2045	1705	2774	1	111.0	461.16
2045	1705	2775	1	111.0	461.16
2046	145	2526	1	149.0	836.8
2046	1729	2845	1	111.0	461.16
2046	1729	2846	1	111.0	461.16
2046	1729	2847	1	111.0	461.16
2047	197	2049	1	149.0	836.8
2048	38	2076	1	149.0	836.8
2048	384	2074	1	149.0	836.8
2049	280	2063	1	149.0	836.8
2051	320	2053	1	149.0	836.8
2052	11	2066	1	149.0	836.8
2052	378	2217	1	149.0	836.8
2052	410	2065	1	149.0	836.8
2052	1730	2848	1	111.0	461.16
2052	1730	2849	1	111.0	461.16
2052	1730	2850	1	111.0	461.16
2053	364	2070	1	149.0	836.8
2054	75	2076	1	149.0	836.8
2054	300	2063	1	149.0	836.8
2057	176	2074	1	149.0	836.8
2057	563	2111	1	149.0	836.8
2058	360	2063	1	149.0	836.8
2059	35	2170	1	149.0	836.8
2061	454	2114	1	149.0	836.8
2061	1714	2800	1	111.0	461.16
2061	1714	2801	1	111.0	461.16
2061	1714	2802	1	111.0	461.16
2061	1731	2851	1	111.0	461.16
2061	1731	2852	1	111.0	461.16
2061	1731	2853	1	111.0	461.16
2062	872	2373	1	149.0	836.8
2062	935	2439	1	149.0	836.8
2064	306	2068	1	149.0	836.8
2065	196	2066	1	149.0	836.8
2065	382	2753	1	149.0	836.8
2066	27	2075	1	149.0	836.8
2068	297	2069	1	149.0	836.8
2070	1732	2854	1	111.0	461.16
2070	1732	2855	1	111.0	461.16
2070	1732	2856	1	111.0	461.16
2072	298	2302	1	149.0	836.8
2073	157	2416	1	149.0	836.8
2073	205	2367	1	149.0	836.8
2074	209	2077	1	149.0	836.8
2075	372	2753	1	149.0	836.8
2077	290	2229	1	149.0	836.8
2079	722	2295	1	149.0	836.8
2080	21	2378	1	149.0	836.8
2080	412	2084	1	149.0	836.8
2080	413	2086	1	149.0	836.8
2080	414	2085	1	149.0	836.8
2081	1733	2857	1	111.0	461.16
2081	1733	2858	1	111.0	461.16
2081	1733	2859	1	111.0	461.16
2082	1734	2860	1	111.0	461.16
2082	1734	2861	1	111.0	461.16
2082	1734	2862	1	111.0	461.16
2083	251	2159	1	149.0	836.8
2083	1735	2863	1	111.0	461.16
2083	1735	2864	1	111.0	461.16
2083	1735	2865	1	111.0	461.16
2084	416	2085	1	149.0	836.8
2084	1254	2528	1	149.0	836.8
2085	986	2488	1	149.0	836.8
2086	1075	2756	1	149.0	836.8
2086	1738	2872	1	111.0	461.16
2086	1738	2873	1	111.0	461.16
2086	1738	2874	1	111.0	461.16
2087	415	2759	1	149.0	836.8
2087	1737	2869	1	111.0	461.16
2087	1737	2870	1	111.0	461.16
2087	1737	2871	1	111.0	461.16
2088	707	2106	1	149.0	836.8
2088	727	2234	1	149.0	836.8
2089	458	2116	1	149.0	836.8
2089	616	2113	1	149.0	836.8
2089	671	2177	1	149.0	836.8
2089	776	2277	1	149.0	836.8
2090	745	2163	1	149.0	836.8
2090	826	2226	1	149.0	836.8
2090	1306	2571	1	149.0	836.8
2090	1758	2932	1	111.0	461.16
2090	1758	2933	1	111.0	461.16
2090	1758	2934	1	111.0	461.16
2091	488	2135	1	149.0	836.8
2091	498	2299	1	149.0	836.8
2091	593	2187	1	149.0	836.8
2091	611	2140	1	149.0	836.8
2092	559	2178	1	149.0	836.8
2092	575	2111	1	149.0	836.8
2092	736	2222	1	149.0	836.8
2092	753	2238	1	149.0	836.8
2093	430	2607	1	149.0	836.8
2093	511	2139	1	149.0	836.8
2093	711	2202	1	149.0	836.8
2093	713	2100	1	149.0	836.8
2094	473	2155	1	149.0	836.8
2094	738	2157	1	149.0	836.8
2094	1404	2541	1	149.0	836.8
2095	433	2257	1	149.0	836.8
2095	513	2239	1	149.0	836.8
2095	598	2248	1	149.0	836.8
2095	1755	2923	1	111.0	461.16
2095	1755	2924	1	111.0	461.16
2095	1755	2925	1	111.0	461.16
2096	425	2286	1	149.0	836.8
2096	514	2194	1	149.0	836.8
2096	631	2176	1	149.0	836.8
2096	791	2253	1	149.0	836.8
2097	419	2099	1	149.0	836.8
2097	583	2227	1	149.0	836.8
2097	735	2236	1	149.0	836.8
2097	775	2290	1	149.0	836.8
2098	705	2254	1	149.0	836.8
2098	806	2101	1	149.0	836.8
2098	831	2212	1	149.0	836.8
2098	1749	2905	1	111.0	461.16
2098	1749	2906	1	111.0	461.16
2098	1749	2907	1	111.0	461.16
2099	580	2184	1	149.0	836.8
2099	597	2122	1	149.0	836.8
2099	717	2272	1	149.0	836.8
2100	439	2188	1	149.0	836.8
2100	565	2535	1	149.0	836.8
2101	578	2151	1	149.0	836.8
2101	686	2162	1	149.0	836.8
2101	1751	2911	1	111.0	461.16
2101	1751	2912	1	111.0	461.16
2101	1751	2913	1	111.0	461.16
2102	440	2175	1	149.0	836.8
2102	455	2134	1	149.0	836.8
2102	675	2209	1	149.0	836.8
2102	676	2150	1	149.0	836.8
2103	441	2147	1	149.0	836.8
2103	443	2126	1	149.0	836.8
2103	808	2254	1	149.0	836.8
2103	813	2286	1	149.0	836.8
2104	489	2152	1	149.0	836.8
2104	494	2107	1	149.0	836.8
2104	505	2135	1	149.0	836.8
2104	641	2636	1	149.0	836.8
2105	602	2633	1	149.0	836.8
2105	654	2228	1	149.0	836.8
2105	661	2172	1	149.0	836.8
2105	1752	2914	1	111.0	461.16
2105	1752	2915	1	111.0	461.16
2105	1752	2916	1	111.0	461.16
2106	506	2141	1	149.0	836.8
2106	636	2142	1	149.0	836.8
2106	656	2299	1	149.0	836.8
2107	477	2272	1	149.0	836.8
2107	668	2132	1	149.0	836.8
2107	669	2201	1	149.0	836.8
2108	643	2117	1	149.0	836.8
2108	689	2200	1	149.0	836.8
2108	731	2128	1	149.0	836.8
2108	1403	2576	1	149.0	836.8
2109	432	2296	1	149.0	836.8
2109	480	2172	1	149.0	836.8
2109	548	2263	1	149.0	836.8
2109	797	2144	1	149.0	836.8
2110	612	2255	1	149.0	836.8
2110	828	2304	1	149.0	836.8
2110	1777	2989	1	111.0	461.16
2110	1777	2990	1	111.0	461.16
2110	1777	2991	1	111.0	461.16
2111	614	2257	1	149.0	836.8
2111	692	2154	1	149.0	836.8
2112	521	2142	1	149.0	836.8
2112	538	2234	1	149.0	836.8
2112	560	2159	1	149.0	836.8
2112	1759	2935	1	111.0	461.16
2112	1759	2936	1	111.0	461.16
2112	1759	2937	1	111.0	461.16
2113	507	2146	1	149.0	836.8
2113	594	2179	1	149.0	836.8
2113	613	2191	1	149.0	836.8
2114	551	2220	1	149.0	836.8
2114	700	2149	1	149.0	836.8
2114	1487	2574	1	149.0	836.8
2115	469	2226	1	149.0	836.8
2115	479	2277	1	149.0	836.8
2115	625	2190	1	149.0	836.8
2115	752	2121	1	149.0	836.8
2116	657	2257	1	149.0	836.8
2116	687	2227	1	149.0	836.8
2116	812	2154	1	149.0	836.8
2117	447	2218	1	149.0	836.8
2117	476	2230	1	149.0	836.8
2117	537	2181	1	149.0	836.8
2118	529	2162	1	149.0	836.8
2118	681	2174	1	149.0	836.8
2118	805	2221	1	149.0	836.8
2118	1741	2881	1	111.0	461.16
2118	1741	2882	1	111.0	461.16
2118	1741	2883	1	111.0	461.16
2119	463	2245	1	149.0	836.8
2119	500	2294	1	149.0	836.8
2119	792	2260	1	149.0	836.8
2119	1745	2893	1	111.0	461.16
2119	1745	2894	1	111.0	461.16
2119	1745	2895	1	111.0	461.16
2120	435	2300	1	149.0	836.8
2120	546	2127	1	149.0	836.8
2120	617	2289	1	149.0	836.8
2120	764	2251	1	149.0	836.8
2121	574	2282	1	149.0	836.8
2121	833	2264	1	149.0	836.8
2121	1760	2938	1	111.0	461.16
2121	1760	2939	1	111.0	461.16
2121	1760	2940	1	111.0	461.16
2122	539	2146	1	149.0	836.8
2122	684	2252	1	149.0	836.8
2122	728	2219	1	149.0	836.8
2123	637	2266	1	149.0	836.8
2123	718	2169	1	149.0	836.8
2123	754	2258	1	149.0	836.8
2123	819	2198	1	149.0	836.8
2124	526	2148	1	149.0	836.8
2124	706	2210	1	149.0	836.8
2124	750	2235	1	149.0	836.8
2124	830	2305	1	149.0	836.8
2125	420	2147	1	149.0	836.8
2125	487	2262	1	149.0	836.8
2125	491	2156	1	149.0	836.8
2125	627	2289	1	149.0	836.8
2126	437	2184	1	149.0	836.8
2126	448	2245	1	149.0	836.8
2126	532	2272	1	149.0	836.8
2127	468	2203	1	149.0	836.8
2127	481	2258	1	149.0	836.8
2127	733	2250	1	149.0	836.8
2128	633	2267	1	149.0	836.8
2128	702	2206	1	149.0	836.8
2128	1392	2667	1	149.0	836.8
2129	482	2181	1	149.0	836.8
2129	520	2195	1	149.0	836.8
2129	596	2205	1	149.0	836.8
2129	650	2200	1	149.0	836.8
2130	467	2531	1	149.0	836.8
2130	484	2267	1	149.0	836.8
2130	508	2189	1	149.0	836.8
2130	516	2628	1	149.0	836.8
2131	541	2152	1	149.0	836.8
2131	550	2158	1	149.0	836.8
2131	590	2251	1	149.0	836.8
2131	680	2233	1	149.0	836.8
2132	492	2191	1	149.0	836.8
2132	552	2177	1	149.0	836.8
2132	608	2180	1	149.0	836.8
2133	452	2260	1	149.0	836.8
2133	620	2145	1	149.0	836.8
2133	635	2158	1	149.0	836.8
2133	647	2555	1	149.0	836.8
2134	543	2171	1	149.0	836.8
2134	1298	2660	1	149.0	836.8
2134	1599	2643	1	149.0	836.8
2135	564	2549	1	149.0	836.8
2135	672	2146	1	149.0	836.8
2136	623	2269	1	149.0	836.8
2136	804	2280	1	149.0	836.8
2136	825	2278	1	149.0	836.8
2136	829	2304	1	149.0	836.8
2137	582	2249	1	149.0	836.8
2137	599	2157	1	149.0	836.8
2137	642	2167	1	149.0	836.8
2138	462	2154	1	149.0	836.8
2138	663	2306	1	149.0	836.8
2138	670	2275	1	149.0	836.8
2138	803	2240	1	149.0	836.8
2139	816	2236	1	149.0	836.8
2139	820	2227	1	149.0	836.8
2140	426	2211	1	149.0	836.8
2140	758	2187	1	149.0	836.8
2140	1285	2671	1	149.0	836.8
2141	475	2280	1	149.0	836.8
2141	579	2159	1	149.0	836.8
2141	765	2279	1	149.0	836.8
2142	562	2282	1	149.0	836.8
2142	810	2280	1	149.0	836.8
2143	522	2259	1	149.0	836.8
2143	704	2294	1	149.0	836.8
2143	712	2217	1	149.0	836.8
2143	1761	2941	1	111.0	461.16
2143	1761	2942	1	111.0	461.16
2143	1761	2943	1	111.0	461.16
2144	499	2210	1	149.0	836.8
2144	523	2637	1	149.0	836.8
2144	709	2160	1	149.0	836.8
2145	779	2152	1	149.0	836.8
2145	1468	2737	1	149.0	836.8
2145	1531	2657	1	149.0	836.8
2146	629	2612	1	149.0	836.8
2147	536	2148	1	149.0	836.8
2147	769	2258	1	149.0	836.8
2148	748	2294	1	149.0	836.8
2148	1753	2917	1	111.0	461.16
2148	1753	2918	1	111.0	461.16
2148	1753	2919	1	111.0	461.16
2149	660	2216	1	149.0	836.8
2149	1682	2443	1	149.0	836.8
2150	584	2284	1	149.0	836.8
2150	638	2265	1	149.0	836.8
2150	751	2194	1	149.0	836.8
2151	434	2224	1	149.0	836.8
2151	449	2725	1	149.0	836.8
2151	451	2184	1	149.0	836.8
2152	427	2262	1	149.0	836.8
2153	542	2168	1	149.0	836.8
2153	1488	2652	1	149.0	836.8
2154	743	2244	1	149.0	836.8
2155	658	2749	1	149.0	836.8
2155	666	2186	1	149.0	836.8
2156	591	2251	1	149.0	836.8
2156	640	2260	1	149.0	836.8
2156	799	2294	1	149.0	836.8
2157	1277	2744	1	149.0	836.8
2158	821	2754	1	149.0	836.8
2159	1754	2920	1	111.0	461.16
2159	1754	2921	1	111.0	461.16
2159	1754	2922	1	111.0	461.16
2160	531	2220	1	149.0	836.8
2160	771	2281	1	149.0	836.8
2160	1757	2929	1	111.0	461.16
2160	1757	2930	1	111.0	461.16
2160	1757	2931	1	111.0	461.16
2161	501	2209	1	149.0	836.8
2161	589	2301	1	149.0	836.8
2161	639	2200	1	149.0	836.8
2161	737	2176	1	149.0	836.8
2162	823	2656	1	149.0	836.8
2162	1762	2944	1	111.0	461.16
2162	1762	2945	1	111.0	461.16
2162	1762	2946	1	111.0	461.16
2163	485	2187	1	149.0	836.8
2163	517	2234	1	149.0	836.8
2163	1393	2630	1	149.0	836.8
2164	424	2209	1	149.0	836.8
2164	605	2167	1	149.0	836.8
2164	644	2310	1	149.0	836.8
2164	695	2178	1	149.0	836.8
2165	436	2188	1	149.0	836.8
2165	734	2261	1	149.0	836.8
2165	1304	2307	1	149.0	836.8
2165	1742	2884	1	111.0	461.16
2165	1742	2885	1	111.0	461.16
2165	1742	2886	1	111.0	461.16
2166	497	2175	1	149.0	836.8
2166	1269	2534	1	149.0	836.8
2166	1603	2664	1	149.0	836.8
2167	696	2238	1	149.0	836.8
2168	544	2214	1	149.0	836.8
2168	677	2295	1	149.0	836.8
2169	585	2235	1	149.0	836.8
2169	742	2172	1	149.0	836.8
2169	749	2263	1	149.0	836.8
2170	471	2213	1	149.0	836.8
2170	796	2298	1	149.0	836.8
2170	807	2287	1	149.0	836.8
2171	624	2200	1	149.0	836.8
2171	685	2199	1	149.0	836.8
2171	1469	2587	1	149.0	836.8
2172	524	2265	1	149.0	836.8
2173	495	2194	1	149.0	836.8
2173	502	2246	1	149.0	836.8
2173	760	2242	1	149.0	836.8
2173	795	2298	1	149.0	836.8
2174	478	2291	1	149.0	836.8
2174	646	2292	1	149.0	836.8
2175	664	2241	1	149.0	836.8
2175	770	2302	1	149.0	836.8
2176	634	2266	1	149.0	836.8
2176	710	2183	1	149.0	836.8
2177	518	2244	1	149.0	836.8
2177	606	2204	1	149.0	836.8
2178	534	2273	1	149.0	836.8
2178	814	2301	1	149.0	836.8
2179	595	2190	1	149.0	836.8
2179	697	2261	1	149.0	836.8
2179	841	2308	1	149.0	836.8
2180	619	2253	1	149.0	836.8
2180	756	2198	1	149.0	836.8
2180	781	2183	1	149.0	836.8
2181	450	2214	1	149.0	836.8
2181	673	2231	1	149.0	836.8
2182	442	2291	1	149.0	836.8
2182	557	2298	1	149.0	836.8
2182	719	2229	1	149.0	836.8
2183	725	2250	1	149.0	836.8
2183	815	2185	1	149.0	836.8
2184	570	2252	1	149.0	836.8
2185	460	2225	1	149.0	836.8
2185	470	2218	1	149.0	836.8
2185	811	2271	1	149.0	836.8
2186	540	2222	1	149.0	836.8
2186	662	2310	1	149.0	836.8
2187	1355	2571	1	149.0	836.8
2188	652	2202	1	149.0	836.8
2188	688	2190	1	149.0	836.8
2189	423	2752	1	149.0	836.8
2189	554	2604	1	149.0	836.8
2189	715	2304	1	149.0	836.8
2190	609	2240	1	149.0	836.8
2191	601	2247	1	149.0	836.8
2191	818	2276	1	149.0	836.8
2192	555	2212	1	149.0	836.8
2192	716	2196	1	149.0	836.8
2192	1441	2546	1	149.0	836.8
2192	1763	2947	1	111.0	461.16
2192	1763	2948	1	111.0	461.16
2192	1763	2949	1	111.0	461.16
2193	490	2260	1	149.0	836.8
2193	558	2245	1	149.0	836.8
2193	630	2262	1	149.0	836.8
2193	774	2196	1	149.0	836.8
2194	568	2243	1	149.0	836.8
2195	618	2296	1	149.0	836.8
2195	787	2231	1	149.0	836.8
2195	1481	2545	1	149.0	836.8
2196	1362	2585	1	149.0	836.8
2196	1420	2737	1	149.0	836.8
2197	421	2243	1	149.0	836.8
2197	571	2244	1	149.0	836.8
2197	720	2229	1	149.0	836.8
2197	726	2290	1	149.0	836.8
2198	504	2289	1	149.0	836.8
2198	519	2272	1	149.0	836.8
2199	572	2284	1	149.0	836.8
2199	773	2265	1	149.0	836.8
2199	1322	2693	1	149.0	836.8
2201	503	2276	1	149.0	836.8
2201	768	2289	1	149.0	836.8
2201	800	2270	1	149.0	836.8
2202	535	2204	1	149.0	836.8
2202	759	2575	1	149.0	836.8
2203	678	2295	1	149.0	836.8
2203	780	2216	1	149.0	836.8
2203	801	2205	1	149.0	836.8
2204	486	2219	1	149.0	836.8
2204	693	2227	1	149.0	836.8
2205	588	2250	1	149.0	836.8
2205	592	2266	1	149.0	836.8
2206	785	2268	1	149.0	836.8
2206	1542	2702	1	149.0	836.8
2206	1747	2899	1	111.0	461.16
2206	1747	2900	1	111.0	461.16
2206	1747	2901	1	111.0	461.16
2207	472	2300	1	149.0	836.8
2207	577	2237	1	149.0	836.8
2207	665	2225	1	149.0	836.8
2207	682	2295	1	149.0	836.8
2208	708	2232	1	149.0	836.8
2208	757	2273	1	149.0	836.8
2208	822	2268	1	149.0	836.8
2208	1744	2890	1	111.0	461.16
2208	1744	2891	1	111.0	461.16
2208	1744	2892	1	111.0	461.16
2209	732	2249	1	149.0	836.8
2210	739	2263	1	149.0	836.8
2210	835	2305	1	149.0	836.8
2211	422	2233	1	149.0	836.8
2211	547	2672	1	149.0	836.8
2211	648	2594	1	149.0	836.8
2212	525	2245	1	149.0	836.8
2212	1764	2950	1	111.0	461.16
2212	1764	2951	1	111.0	461.16
2212	1764	2952	1	111.0	461.16
2213	573	2241	1	149.0	836.8
2213	777	2302	1	149.0	836.8
2214	509	2230	1	149.0	836.8
2214	723	2218	1	149.0	836.8
2215	556	2283	1	149.0	836.8
2215	827	2228	1	149.0	836.8
2215	1663	2603	1	149.0	836.8
2215	1698	2665	1	149.0	836.8
2216	690	2586	1	149.0	836.8
2216	772	2231	1	149.0	836.8
2218	510	2278	1	149.0	836.8
2219	459	2575	1	149.0	836.8
2219	515	2725	1	149.0	836.8
2220	794	2281	1	149.0	836.8
2220	1765	2953	1	111.0	461.16
2220	1765	2954	1	111.0	461.16
2220	1765	2955	1	111.0	461.16
2221	610	2254	1	149.0	836.8
2221	645	2288	1	149.0	836.8
2221	1766	2956	1	111.0	461.16
2221	1766	2957	1	111.0	461.16
2221	1766	2958	1	111.0	461.16
2222	527	2306	1	149.0	836.8
2223	576	2224	1	149.0	836.8
2223	763	2607	1	149.0	836.8
2223	1296	2371	1	149.0	836.8
2224	1491	2682	1	149.0	836.8
2224	1507	2656	1	149.0	836.8
2225	607	2297	1	149.0	836.8
2225	653	2250	1	149.0	836.8
2226	553	2569	1	149.0	836.8
2226	746	2282	1	149.0	836.8
2228	615	2241	1	149.0	836.8
2228	747	2246	1	149.0	836.8
2229	793	2236	1	149.0	836.8
2230	446	2581	1	149.0	836.8
2230	683	2751	1	149.0	836.8
2231	1386	2652	1	149.0	836.8
2232	622	2269	1	149.0	836.8
2232	755	2267	1	149.0	836.8
2232	1750	2908	1	111.0	461.16
2232	1750	2909	1	111.0	461.16
2232	1750	2910	1	111.0	461.16
2233	679	2270	1	149.0	836.8
2235	530	2242	1	149.0	836.8
2235	699	2246	1	149.0	836.8
2236	626	2292	1	149.0	836.8
2237	418	2279	1	149.0	836.8
2237	778	2278	1	149.0	836.8
2238	786	2249	1	149.0	836.8
2239	729	2309	1	149.0	836.8
2239	1780	2998	1	111.0	461.16
2239	1780	2999	1	111.0	461.16
2239	1780	3000	1	111.0	461.16
2240	466	2248	1	149.0	836.8
2240	561	2277	1	149.0	836.8
2241	651	2665	1	149.0	836.8
2242	512	2286	1	149.0	836.8
2242	798	2291	1	149.0	836.8
2243	461	2302	1	149.0	836.8
2243	698	2249	1	149.0	836.8
2244	567	2253	1	149.0	836.8
2246	783	2287	1	149.0	836.8
2247	429	2293	1	149.0	836.8
2247	740	2282	1	149.0	836.8
2247	790	2285	1	149.0	836.8
2248	782	2275	1	149.0	836.8
2248	1767	2959	1	111.0	461.16
2248	1767	2960	1	111.0	461.16
2248	1767	2961	1	111.0	461.16
2251	694	2754	1	149.0	836.8
2252	483	2640	1	149.0	836.8
2252	824	2262	1	149.0	836.8
2253	587	2301	1	149.0	836.8
2254	1743	2887	1	111.0	461.16
2254	1743	2888	1	111.0	461.16
2254	1743	2889	1	111.0	461.16
2255	691	2278	1	149.0	836.8
2256	464	2301	1	149.0	836.8
2256	493	2271	1	149.0	836.8
2256	741	2273	1	149.0	836.8
2256	767	2277	1	149.0	836.8
2258	761	2263	1	149.0	836.8
2259	545	2281	1	149.0	836.8
2259	832	2305	1	149.0	836.8
2259	1768	2962	1	111.0	461.16
2259	1768	2963	1	111.0	461.16
2259	1768	2964	1	111.0	461.16
2261	701	2647	1	149.0	836.8
2261	1769	2965	1	111.0	461.16
2261	1769	2966	1	111.0	461.16
2261	1769	2967	1	111.0	461.16
2264	474	2269	1	149.0	836.8
2264	766	2293	1	149.0	836.8
2264	1770	2968	1	111.0	461.16
2264	1770	2969	1	111.0	461.16
2264	1770	2970	1	111.0	461.16
2265	586	2266	1	149.0	836.8
2267	1746	2896	1	111.0	461.16
2267	1746	2897	1	111.0	461.16
2267	1746	2898	1	111.0	461.16
2268	569	2748	1	149.0	836.8
2268	1771	2971	1	111.0	461.16
2268	1771	2972	1	111.0	461.16
2268	1771	2973	1	111.0	461.16
2269	621	2271	1	149.0	836.8
2270	456	2299	1	149.0	836.8
2270	809	2297	1	149.0	836.8
2271	703	2285	1	149.0	836.8
2273	744	2275	1	149.0	836.8
2274	428	2288	1	149.0	836.8
2274	834	2287	1	149.0	836.8
2274	1772	2974	1	111.0	461.16
2274	1772	2975	1	111.0	461.16
2274	1772	2976	1	111.0	461.16
2275	788	2293	1	149.0	836.8
2276	496	2299	1	149.0	836.8
2276	724	2285	1	149.0	836.8
2279	600	2297	1	149.0	836.8
2280	784	2285	1	149.0	836.8
2281	453	2753	1	149.0	836.8
2283	1756	2926	1	111.0	461.16
2283	1756	2927	1	111.0	461.16
2283	1756	2928	1	111.0	461.16
2284	1288	2592	1	149.0	836.8
2284	1354	2660	1	149.0	836.8
2286	730	2290	1	149.0	836.8
2287	1781	3001	1	111.0	461.16
2287	1781	3002	1	111.0	461.16
2287	1781	3003	1	111.0	461.16
2288	444	2298	1	149.0	836.8
2288	1748	2902	1	111.0	461.16
2288	1748	2903	1	111.0	461.16
2288	1748	2904	1	111.0	461.16
2290	721	2291	1	149.0	836.8
2293	1773	2977	1	111.0	461.16
2293	1773	2978	1	111.0	461.16
2293	1773	2979	1	111.0	461.16
2296	581	2637	1	149.0	836.8
2296	628	2586	1	149.0	836.8
2297	632	2300	1	149.0	836.8
2303	438	2598	1	149.0	836.8
2303	836	2307	1	149.0	836.8
2303	837	2309	1	149.0	836.8
2303	838	2308	1	149.0	836.8
2304	1774	2980	1	111.0	461.16
2304	1774	2981	1	111.0	461.16
2304	1774	2982	1	111.0	461.16
2305	1775	2983	1	111.0	461.16
2305	1775	2984	1	111.0	461.16
2305	1775	2985	1	111.0	461.16
2306	1776	2986	1	111.0	461.16
2306	1776	2987	1	111.0	461.16
2306	1776	2988	1	111.0	461.16
2307	840	2308	1	149.0	836.8
2307	1678	2750	1	149.0	836.8
2308	1408	2709	1	149.0	836.8
2309	1498	2596	1	149.0	836.8
2309	1779	2995	1	111.0	461.16
2309	1779	2996	1	111.0	461.16
2309	1779	2997	1	111.0	461.16
2310	839	2760	1	149.0	836.8
2310	1778	2992	1	111.0	461.16
2310	1778	2993	1	111.0	461.16
2310	1778	2994	1	111.0	461.16
2311	1124	2328	1	149.0	836.8
2311	1144	2454	1	149.0	836.8
2311	1284	2541	1	149.0	836.8
2311	1602	2698	1	149.0	836.8
2312	880	2338	1	149.0	836.8
2312	1032	2335	1	149.0	836.8
2312	1089	2397	1	149.0	836.8
2312	1193	2497	1	149.0	836.8
2313	1162	2384	1	149.0	836.8
2313	1242	2446	1	149.0	836.8
2313	1799	3055	1	111.0	461.16
2313	1799	3056	1	111.0	461.16
2313	1799	3057	1	111.0	461.16
2314	908	2357	1	149.0	836.8
2314	918	2518	1	149.0	836.8
2314	1010	2407	1	149.0	836.8
2314	1027	2362	1	149.0	836.8
2315	977	2398	1	149.0	836.8
2315	992	2333	1	149.0	836.8
2315	1153	2442	1	149.0	836.8
2315	1170	2458	1	149.0	836.8
2316	931	2361	1	149.0	836.8
2316	1128	2422	1	149.0	836.8
2316	1130	2322	1	149.0	836.8
2317	857	2477	1	149.0	836.8
2317	933	2459	1	149.0	836.8
2317	1015	2468	1	149.0	836.8
2317	1795	3043	1	111.0	461.16
2317	1795	3044	1	111.0	461.16
2317	1795	3045	1	111.0	461.16
2318	849	2506	1	149.0	836.8
2318	934	2414	1	149.0	836.8
2318	1048	2396	1	149.0	836.8
2318	1208	2473	1	149.0	836.8
2319	843	2321	1	149.0	836.8
2319	1000	2447	1	149.0	836.8
2319	1152	2456	1	149.0	836.8
2319	1192	2510	1	149.0	836.8
2320	1123	2474	1	149.0	836.8
2320	1222	2323	1	149.0	836.8
2320	1247	2432	1	149.0	836.8
2320	1788	3022	1	111.0	461.16
2320	1788	3023	1	111.0	461.16
2320	1788	3024	1	111.0	461.16
2321	997	2404	1	149.0	836.8
2321	1014	2344	1	149.0	836.8
2321	1134	2492	1	149.0	836.8
2322	863	2408	1	149.0	836.8
2322	982	2751	1	149.0	836.8
2322	1689	2529	1	149.0	836.8
2323	995	2373	1	149.0	836.8
2323	1104	2383	1	149.0	836.8
2323	1790	3028	1	111.0	461.16
2323	1790	3029	1	111.0	461.16
2323	1790	3030	1	111.0	461.16
2324	864	2395	1	149.0	836.8
2324	878	2356	1	149.0	836.8
2324	1093	2429	1	149.0	836.8
2324	1094	2372	1	149.0	836.8
2325	865	2369	1	149.0	836.8
2325	867	2348	1	149.0	836.8
2325	1224	2474	1	149.0	836.8
2325	1229	2506	1	149.0	836.8
2326	909	2374	1	149.0	836.8
2326	914	2329	1	149.0	836.8
2326	925	2357	1	149.0	836.8
2327	1071	2448	1	149.0	836.8
2327	1078	2392	1	149.0	836.8
2327	1792	3034	1	111.0	461.16
2327	1792	3035	1	111.0	461.16
2327	1792	3036	1	111.0	461.16
2328	926	2363	1	149.0	836.8
2328	1053	2364	1	149.0	836.8
2328	1073	2518	1	149.0	836.8
2329	897	2492	1	149.0	836.8
2329	1086	2354	1	149.0	836.8
2329	1087	2421	1	149.0	836.8
2330	1060	2339	1	149.0	836.8
2330	1107	2420	1	149.0	836.8
2330	1148	2350	1	149.0	836.8
2331	856	2515	1	149.0	836.8
2331	900	2392	1	149.0	836.8
2331	966	2483	1	149.0	836.8
2331	1214	2366	1	149.0	836.8
2332	1028	2475	1	149.0	836.8
2332	1244	2523	1	149.0	836.8
2332	1489	2627	1	149.0	836.8
2332	1820	3118	1	111.0	461.16
2332	1820	3119	1	111.0	461.16
2332	1820	3120	1	111.0	461.16
2333	1030	2477	1	149.0	836.8
2333	1110	2376	1	149.0	836.8
2333	1695	2720	1	149.0	836.8
2334	941	2364	1	149.0	836.8
2334	956	2454	1	149.0	836.8
2334	978	2380	1	149.0	836.8
2334	1800	3058	1	111.0	461.16
2334	1800	3059	1	111.0	461.16
2334	1800	3060	1	111.0	461.16
2335	927	2368	1	149.0	836.8
2335	1011	2399	1	149.0	836.8
2335	1029	2411	1	149.0	836.8
2336	877	2724	1	149.0	836.8
2336	969	2440	1	149.0	836.8
2336	1118	2371	1	149.0	836.8
2337	891	2446	1	149.0	836.8
2337	899	2497	1	149.0	836.8
2337	1042	2410	1	149.0	836.8
2337	1169	2343	1	149.0	836.8
2338	1074	2477	1	149.0	836.8
2338	1105	2447	1	149.0	836.8
2338	1228	2376	1	149.0	836.8
2339	870	2438	1	149.0	836.8
2339	896	2450	1	149.0	836.8
2339	955	2401	1	149.0	836.8
2340	948	2383	1	149.0	836.8
2340	1099	2394	1	149.0	836.8
2340	1801	3061	1	111.0	461.16
2340	1801	3062	1	111.0	461.16
2340	1801	3063	1	111.0	461.16
2340	1868	3262	1	111.0	461.16
2340	1868	3263	1	111.0	461.16
2340	1868	3264	1	111.0	461.16
2341	885	2465	1	149.0	836.8
2341	920	2513	1	149.0	836.8
2341	1209	2480	1	149.0	836.8
2341	1785	3013	1	111.0	461.16
2341	1785	3014	1	111.0	461.16
2341	1785	3015	1	111.0	461.16
2342	859	2519	1	149.0	836.8
2342	964	2349	1	149.0	836.8
2342	1033	2509	1	149.0	836.8
2342	1181	2471	1	149.0	836.8
2343	991	2502	1	149.0	836.8
2343	1250	2484	1	149.0	836.8
2343	1802	3064	1	111.0	461.16
2343	1802	3065	1	111.0	461.16
2343	1802	3066	1	111.0	461.16
2344	957	2368	1	149.0	836.8
2344	1102	2472	1	149.0	836.8
2344	1145	2439	1	149.0	836.8
2345	1054	2486	1	149.0	836.8
2345	1135	2390	1	149.0	836.8
2345	1171	2478	1	149.0	836.8
2345	1235	2418	1	149.0	836.8
2346	946	2370	1	149.0	836.8
2346	1167	2455	1	149.0	836.8
2346	1246	2524	1	149.0	836.8
2346	1791	3031	1	111.0	461.16
2346	1791	3032	1	111.0	461.16
2346	1791	3033	1	111.0	461.16
2347	844	2369	1	149.0	836.8
2347	907	2482	1	149.0	836.8
2347	911	2377	1	149.0	836.8
2347	1044	2509	1	149.0	836.8
2348	861	2404	1	149.0	836.8
2348	871	2465	1	149.0	836.8
2348	951	2492	1	149.0	836.8
2349	890	2423	1	149.0	836.8
2349	901	2478	1	149.0	836.8
2349	1150	2470	1	149.0	836.8
2350	1050	2487	1	149.0	836.8
2350	1120	2426	1	149.0	836.8
2351	902	2401	1	149.0	836.8
2351	940	2415	1	149.0	836.8
2351	1013	2425	1	149.0	836.8
2351	1067	2420	1	149.0	836.8
2352	904	2487	1	149.0	836.8
2352	928	2409	1	149.0	836.8
2353	959	2374	1	149.0	836.8
2353	968	2379	1	149.0	836.8
2353	1007	2471	1	149.0	836.8
2353	1098	2453	1	149.0	836.8
2354	912	2411	1	149.0	836.8
2354	970	2397	1	149.0	836.8
2354	1024	2400	1	149.0	836.8
2355	875	2480	1	149.0	836.8
2355	1036	2367	1	149.0	836.8
2355	1052	2379	1	149.0	836.8
2356	961	2391	1	149.0	836.8
2357	1090	2368	1	149.0	836.8
2358	1040	2489	1	149.0	836.8
2358	1221	2500	1	149.0	836.8
2358	1241	2498	1	149.0	836.8
2358	1245	2523	1	149.0	836.8
2359	999	2469	1	149.0	836.8
2359	1016	2378	1	149.0	836.8
2359	1059	2388	1	149.0	836.8
2359	1085	2609	1	149.0	836.8
2360	884	2376	1	149.0	836.8
2360	1080	2525	1	149.0	836.8
2360	1088	2495	1	149.0	836.8
2360	1220	2460	1	149.0	836.8
2361	1232	2456	1	149.0	836.8
2361	1236	2447	1	149.0	836.8
2361	1388	2674	1	149.0	836.8
2362	850	2431	1	149.0	836.8
2362	1175	2407	1	149.0	836.8
2363	895	2500	1	149.0	836.8
2363	996	2380	1	149.0	836.8
2363	1182	2499	1	149.0	836.8
2364	980	2502	1	149.0	836.8
2364	1226	2500	1	149.0	836.8
2365	942	2479	1	149.0	836.8
2365	1122	2513	1	149.0	836.8
2365	1129	2437	1	149.0	836.8
2365	1803	3067	1	111.0	461.16
2365	1803	3068	1	111.0	461.16
2365	1803	3069	1	111.0	461.16
2366	919	2430	1	149.0	836.8
2366	1126	2381	1	149.0	836.8
2367	1196	2374	1	149.0	836.8
2369	954	2370	1	149.0	836.8
2369	1186	2478	1	149.0	836.8
2370	1165	2513	1	149.0	836.8
2370	1793	3037	1	111.0	461.16
2370	1793	3038	1	111.0	461.16
2370	1793	3039	1	111.0	461.16
2371	1077	2436	1	149.0	836.8
2371	1405	2654	1	149.0	836.8
2372	1001	2504	1	149.0	836.8
2372	1055	2485	1	149.0	836.8
2372	1168	2414	1	149.0	836.8
2373	858	2444	1	149.0	836.8
2373	874	2404	1	149.0	836.8
2374	851	2482	1	149.0	836.8
2375	960	2389	1	149.0	836.8
2375	1270	2607	1	149.0	836.8
2375	1495	2598	1	149.0	836.8
2376	1160	2464	1	149.0	836.8
2377	1008	2471	1	149.0	836.8
2377	1057	2480	1	149.0	836.8
2377	1216	2513	1	149.0	836.8
2378	1072	2594	1	149.0	836.8
2378	1155	2755	1	149.0	836.8
2379	1237	2733	1	149.0	836.8
2379	1372	2664	1	149.0	836.8
2380	1515	2747	1	149.0	836.8
2380	1794	3040	1	111.0	461.16
2380	1794	3041	1	111.0	461.16
2380	1794	3042	1	111.0	461.16
2381	950	2440	1	149.0	836.8
2381	1188	2501	1	149.0	836.8
2381	1798	3052	1	111.0	461.16
2381	1798	3053	1	111.0	461.16
2381	1798	3054	1	111.0	461.16
2382	921	2429	1	149.0	836.8
2382	1006	2520	1	149.0	836.8
2382	1056	2420	1	149.0	836.8
2382	1154	2396	1	149.0	836.8
2383	1804	3070	1	111.0	461.16
2383	1804	3071	1	111.0	461.16
2383	1804	3072	1	111.0	461.16
2384	905	2407	1	149.0	836.8
2384	937	2454	1	149.0	836.8
2385	848	2429	1	149.0	836.8
2385	1021	2388	1	149.0	836.8
2385	1061	2528	1	149.0	836.8
2385	1113	2398	1	149.0	836.8
2386	46	2759	1	149.0	836.8
2386	860	2408	1	149.0	836.8
2386	1151	2481	1	149.0	836.8
2386	1782	3004	1	111.0	461.16
2386	1782	3005	1	111.0	461.16
2386	1782	3006	1	111.0	461.16
2387	855	2594	1	149.0	836.8
2387	917	2395	1	149.0	836.8
2388	1114	2458	1	149.0	836.8
2388	1206	2696	1	149.0	836.8
2389	962	2434	1	149.0	836.8
2389	1095	2514	1	149.0	836.8
2389	1508	2578	1	149.0	836.8
2390	1002	2455	1	149.0	836.8
2390	1159	2392	1	149.0	836.8
2390	1166	2483	1	149.0	836.8
2391	1041	2420	1	149.0	836.8
2391	1103	2419	1	149.0	836.8
2392	944	2485	1	149.0	836.8
2393	915	2414	1	149.0	836.8
2393	922	2466	1	149.0	836.8
2393	1177	2462	1	149.0	836.8
2393	1212	2517	1	149.0	836.8
2394	898	2511	1	149.0	836.8
2394	1063	2758	1	149.0	836.8
2394	1076	2658	1	149.0	836.8
2395	1081	2461	1	149.0	836.8
2395	1187	2521	1	149.0	836.8
2396	1051	2486	1	149.0	836.8
2396	1127	2403	1	149.0	836.8
2397	938	2464	1	149.0	836.8
2397	1022	2424	1	149.0	836.8
2398	952	2493	1	149.0	836.8
2398	1230	2520	1	149.0	836.8
2399	1012	2410	1	149.0	836.8
2399	1115	2481	1	149.0	836.8
2399	1256	2526	1	149.0	836.8
2400	1035	2473	1	149.0	836.8
2400	1173	2418	1	149.0	836.8
2400	1198	2403	1	149.0	836.8
2401	873	2434	1	149.0	836.8
2401	1091	2451	1	149.0	836.8
2402	866	2511	1	149.0	836.8
2402	975	2517	1	149.0	836.8
2402	1136	2449	1	149.0	836.8
2402	1657	2658	1	149.0	836.8
2403	1142	2470	1	149.0	836.8
2403	1231	2405	1	149.0	836.8
2404	987	2472	1	149.0	836.8
2405	882	2445	1	149.0	836.8
2405	892	2438	1	149.0	836.8
2405	1227	2491	1	149.0	836.8
2406	958	2442	1	149.0	836.8
2406	1066	2551	1	149.0	836.8
2406	1079	2528	1	149.0	836.8
2406	1083	2756	1	149.0	836.8
2408	1069	2422	1	149.0	836.8
2408	1106	2410	1	149.0	836.8
2409	847	2596	1	149.0	836.8
2409	1132	2523	1	149.0	836.8
2410	1025	2460	1	149.0	836.8
2411	1018	2467	1	149.0	836.8
2411	1234	2496	1	149.0	836.8
2412	973	2432	1	149.0	836.8
2412	1133	2416	1	149.0	836.8
2412	1805	3073	1	111.0	461.16
2412	1805	3074	1	111.0	461.16
2412	1805	3075	1	111.0	461.16
2413	910	2480	1	149.0	836.8
2413	976	2465	1	149.0	836.8
2413	1047	2482	1	149.0	836.8
2413	1191	2416	1	149.0	836.8
2414	985	2463	1	149.0	836.8
2415	1034	2515	1	149.0	836.8
2415	1204	2451	1	149.0	836.8
2417	845	2463	1	149.0	836.8
2417	988	2464	1	149.0	836.8
2417	1137	2449	1	149.0	836.8
2417	1143	2510	1	149.0	836.8
2418	924	2509	1	149.0	836.8
2418	939	2492	1	149.0	836.8
2419	989	2504	1	149.0	836.8
2419	1190	2485	1	149.0	836.8
2421	923	2496	1	149.0	836.8
2421	1185	2509	1	149.0	836.8
2421	1217	2490	1	149.0	836.8
2422	953	2424	1	149.0	836.8
2423	1096	2514	1	149.0	836.8
2423	1197	2436	1	149.0	836.8
2423	1218	2425	1	149.0	836.8
2424	906	2439	1	149.0	836.8
2424	1111	2447	1	149.0	836.8
2425	1005	2470	1	149.0	836.8
2425	1009	2486	1	149.0	836.8
2426	1202	2488	1	149.0	836.8
2426	1787	3019	1	111.0	461.16
2426	1787	3020	1	111.0	461.16
2426	1787	3021	1	111.0	461.16
2427	893	2519	1	149.0	836.8
2427	994	2457	1	149.0	836.8
2427	1082	2445	1	149.0	836.8
2427	1100	2514	1	149.0	836.8
2428	1125	2452	1	149.0	836.8
2428	1174	2493	1	149.0	836.8
2428	1238	2488	1	149.0	836.8
2428	1784	3010	1	111.0	461.16
2428	1784	3011	1	111.0	461.16
2428	1784	3012	1	111.0	461.16
2429	1149	2469	1	149.0	836.8
2430	1156	2483	1	149.0	836.8
2430	1251	2524	1	149.0	836.8
2430	1825	3133	1	111.0	461.16
2430	1825	3134	1	111.0	461.16
2430	1825	3135	1	111.0	461.16
2431	846	2453	1	149.0	836.8
2432	945	2465	1	149.0	836.8
2432	1806	3076	1	111.0	461.16
2432	1806	3077	1	111.0	461.16
2432	1806	3078	1	111.0	461.16
2433	983	2590	1	149.0	836.8
2433	990	2461	1	149.0	836.8
2433	1194	2521	1	149.0	836.8
2433	1691	2757	1	149.0	836.8
2434	929	2450	1	149.0	836.8
2434	1140	2438	1	149.0	836.8
2435	974	2503	1	149.0	836.8
2435	1243	2448	1	149.0	836.8
2436	1189	2451	1	149.0	836.8
2437	1233	2623	1	149.0	836.8
2437	1499	2615	1	149.0	836.8
2437	1642	2715	1	149.0	836.8
2438	930	2498	1	149.0	836.8
2440	1211	2501	1	149.0	836.8
2440	1248	2724	1	149.0	836.8
2441	1026	2474	1	149.0	836.8
2441	1062	2508	1	149.0	836.8
2441	1797	3049	1	111.0	461.16
2441	1797	3050	1	111.0	461.16
2441	1797	3051	1	111.0	461.16
2441	1807	3079	1	111.0	461.16
2441	1807	3080	1	111.0	461.16
2441	1807	3081	1	111.0	461.16
2442	947	2525	1	149.0	836.8
2442	1693	2696	1	149.0	836.8
2443	993	2444	1	149.0	836.8
2443	1694	2599	1	149.0	836.8
2445	1023	2516	1	149.0	836.8
2445	1070	2470	1	149.0	836.8
2446	1163	2502	1	149.0	836.8
2448	1031	2461	1	149.0	836.8
2448	1164	2466	1	149.0	836.8
2449	1210	2456	1	149.0	836.8
2449	1554	2741	1	149.0	836.8
2450	1101	2535	1	149.0	836.8
2452	1039	2489	1	149.0	836.8
2452	1172	2487	1	149.0	836.8
2452	1789	3025	1	111.0	461.16
2452	1789	3026	1	111.0	461.16
2452	1789	3027	1	111.0	461.16
2453	967	2580	1	149.0	836.8
2453	1097	2490	1	149.0	836.8
2454	1442	2680	1	149.0	836.8
2455	949	2462	1	149.0	836.8
2455	1117	2466	1	149.0	836.8
2456	1043	2758	1	149.0	836.8
2457	842	2499	1	149.0	836.8
2457	1195	2498	1	149.0	836.8
2457	1443	2679	1	149.0	836.8
2458	1203	2469	1	149.0	836.8
2458	1696	2678	1	149.0	836.8
2459	1020	2675	1	149.0	836.8
2459	1146	2527	1	149.0	836.8
2459	1823	3127	1	111.0	461.16
2459	1823	3128	1	111.0	461.16
2459	1823	3129	1	111.0	461.16
2460	888	2468	1	149.0	836.8
2460	979	2497	1	149.0	836.8
2462	932	2506	1	149.0	836.8
2462	1215	2511	1	149.0	836.8
2463	883	2521	1	149.0	836.8
2463	1116	2469	1	149.0	836.8
2464	984	2473	1	149.0	836.8
2466	1200	2507	1	149.0	836.8
2467	853	2512	1	149.0	836.8
2467	1157	2502	1	149.0	836.8
2467	1207	2505	1	149.0	836.8
2468	1199	2495	1	149.0	836.8
2468	1808	3082	1	111.0	461.16
2468	1808	3083	1	111.0	461.16
2468	1808	3084	1	111.0	461.16
2471	1112	2733	1	149.0	836.8
2472	1240	2482	1	149.0	836.8
2473	1004	2520	1	149.0	836.8
2474	1783	3007	1	111.0	461.16
2474	1783	3008	1	111.0	461.16
2474	1783	3009	1	111.0	461.16
2475	1109	2498	1	149.0	836.8
2475	1367	2663	1	149.0	836.8
2475	1629	2608	1	149.0	836.8
2476	886	2520	1	149.0	836.8
2476	913	2491	1	149.0	836.8
2476	1158	2493	1	149.0	836.8
2476	1184	2497	1	149.0	836.8
2477	1179	2529	1	149.0	836.8
2478	1178	2483	1	149.0	836.8
2479	963	2501	1	149.0	836.8
2479	1249	2524	1	149.0	836.8
2479	1809	3085	1	111.0	461.16
2479	1809	3086	1	111.0	461.16
2479	1809	3087	1	111.0	461.16
2481	1810	3088	1	111.0	461.16
2481	1810	3089	1	111.0	461.16
2481	1810	3090	1	111.0	461.16
2484	894	2489	1	149.0	836.8
2484	1183	2512	1	149.0	836.8
2484	1811	3091	1	111.0	461.16
2484	1811	3092	1	111.0	461.16
2484	1811	3093	1	111.0	461.16
2485	1003	2486	1	149.0	836.8
2487	1786	3016	1	111.0	461.16
2487	1786	3017	1	111.0	461.16
2487	1786	3018	1	111.0	461.16
2488	1812	3094	1	111.0	461.16
2488	1812	3095	1	111.0	461.16
2488	1812	3096	1	111.0	461.16
2489	1038	2491	1	149.0	836.8
2490	879	2518	1	149.0	836.8
2490	1225	2516	1	149.0	836.8
2491	1121	2505	1	149.0	836.8
2493	1161	2495	1	149.0	836.8
2494	852	2508	1	149.0	836.8
2494	1219	2658	1	149.0	836.8
2494	1813	3097	1	111.0	461.16
2494	1813	3098	1	111.0	461.16
2494	1813	3099	1	111.0	461.16
2494	1814	3100	1	111.0	461.16
2494	1814	3101	1	111.0	461.16
2494	1814	3102	1	111.0	461.16
2495	1205	2512	1	149.0	836.8
2496	916	2518	1	149.0	836.8
2496	1141	2505	1	149.0	836.8
2499	1017	2516	1	149.0	836.8
2499	1402	2552	1	149.0	836.8
2500	1201	2505	1	149.0	836.8
2501	876	2611	1	149.0	836.8
2503	1293	2555	1	149.0	836.8
2503	1796	3046	1	111.0	461.16
2503	1796	3047	1	111.0	461.16
2503	1796	3048	1	111.0	461.16
2503	1815	3103	1	111.0	461.16
2503	1815	3104	1	111.0	461.16
2503	1815	3105	1	111.0	461.16
2506	1147	2510	1	149.0	836.8
2507	1037	2508	1	149.0	836.8
2507	1223	2757	1	149.0	836.8
2507	1824	3130	1	111.0	461.16
2507	1824	3131	1	111.0	461.16
2507	1824	3132	1	111.0	461.16
2508	868	2517	1	149.0	836.8
2510	1138	2511	1	149.0	836.8
2512	1816	3106	1	111.0	461.16
2512	1816	3107	1	111.0	461.16
2512	1816	3108	1	111.0	461.16
2514	1139	2743	1	149.0	836.8
2516	1049	2519	1	149.0	836.8
2517	1213	2757	1	149.0	836.8
2519	1131	2670	1	149.0	836.8
2521	1562	2736	1	149.0	836.8
2522	1252	2527	1	149.0	836.8
2522	1253	2526	1	149.0	836.8
2522	1699	2759	1	149.0	836.8
2523	1817	3109	1	111.0	461.16
2523	1817	3110	1	111.0	461.16
2523	1817	3111	1	111.0	461.16
2524	1818	3112	1	111.0	461.16
2524	1818	3113	1	111.0	461.16
2524	1818	3114	1	111.0	461.16
2525	1092	2600	1	149.0	836.8
2525	1819	3115	1	111.0	461.16
2525	1819	3116	1	111.0	461.16
2525	1819	3117	1	111.0	461.16
2526	1255	2759	1	149.0	836.8
2527	235	2752	1	149.0	836.8
2527	1822	3124	1	111.0	461.16
2527	1822	3125	1	111.0	461.16
2527	1822	3126	1	111.0	461.16
2528	1821	3121	1	111.0	461.16
2528	1821	3122	1	111.0	461.16
2528	1821	3123	1	111.0	461.16
2529	1547	2547	1	149.0	836.8
2529	1567	2675	1	149.0	836.8
2530	1297	2557	1	149.0	836.8
2530	1455	2554	1	149.0	836.8
2530	1512	2618	1	149.0	836.8
2530	1616	2718	1	149.0	836.8
2531	1585	2604	1	149.0	836.8
2531	1666	2667	1	149.0	836.8
2531	1843	3187	1	111.0	461.16
2531	1843	3188	1	111.0	461.16
2531	1843	3189	1	111.0	461.16
2532	1327	2576	1	149.0	836.8
2532	1337	2740	1	149.0	836.8
2532	1432	2628	1	149.0	836.8
2532	1450	2581	1	149.0	836.8
2533	1398	2619	1	149.0	836.8
2533	1414	2552	1	149.0	836.8
2533	1576	2663	1	149.0	836.8
2533	1593	2679	1	149.0	836.8
2534	1350	2580	1	149.0	836.8
2534	1551	2643	1	149.0	836.8
2534	1553	2541	1	149.0	836.8
2535	1312	2596	1	149.0	836.8
2535	1578	2598	1	149.0	836.8
2536	1272	2698	1	149.0	836.8
2536	1352	2680	1	149.0	836.8
2536	1437	2689	1	149.0	836.8
2536	1840	3178	1	111.0	461.16
2536	1840	3179	1	111.0	461.16
2536	1840	3180	1	111.0	461.16
2537	1264	2727	1	149.0	836.8
2537	1353	2635	1	149.0	836.8
2537	1471	2617	1	149.0	836.8
2537	1631	2694	1	149.0	836.8
2538	1258	2540	1	149.0	836.8
2538	1422	2668	1	149.0	836.8
2538	1575	2677	1	149.0	836.8
2538	1615	2731	1	149.0	836.8
2539	1546	2695	1	149.0	836.8
2539	1646	2542	1	149.0	836.8
2539	1671	2653	1	149.0	836.8
2539	1833	3157	1	111.0	461.16
2539	1833	3158	1	111.0	461.16
2539	1833	3159	1	111.0	461.16
2540	1419	2625	1	149.0	836.8
2540	1436	2563	1	149.0	836.8
2540	1557	2713	1	149.0	836.8
2541	1278	2629	1	149.0	836.8
2542	1417	2592	1	149.0	836.8
2542	1527	2603	1	149.0	836.8
2542	1835	3163	1	111.0	461.16
2542	1835	3164	1	111.0	461.16
2542	1835	3165	1	111.0	461.16
2543	1279	2616	1	149.0	836.8
2543	1294	2575	1	149.0	836.8
2543	1516	2650	1	149.0	836.8
2543	1517	2591	1	149.0	836.8
2544	1280	2588	1	149.0	836.8
2544	1282	2567	1	149.0	836.8
2544	1648	2695	1	149.0	836.8
2544	1653	2727	1	149.0	836.8
2545	1328	2593	1	149.0	836.8
2545	1333	2548	1	149.0	836.8
2545	1344	2576	1	149.0	836.8
2546	1494	2669	1	149.0	836.8
2546	1501	2613	1	149.0	836.8
2546	1837	3169	1	111.0	461.16
2546	1837	3170	1	111.0	461.16
2546	1837	3171	1	111.0	461.16
2547	1345	2582	1	149.0	836.8
2547	1476	2583	1	149.0	836.8
2547	1496	2740	1	149.0	836.8
2548	1316	2713	1	149.0	836.8
2548	1509	2573	1	149.0	836.8
2548	1510	2642	1	149.0	836.8
2549	1483	2558	1	149.0	836.8
2549	1530	2641	1	149.0	836.8
2549	1571	2569	1	149.0	836.8
2550	1271	2737	1	149.0	836.8
2550	1319	2613	1	149.0	836.8
2550	1387	2704	1	149.0	836.8
2550	1637	2585	1	149.0	836.8
2551	1451	2696	1	149.0	836.8
2551	1668	2745	1	149.0	836.8
2551	1862	3244	1	111.0	461.16
2551	1862	3245	1	111.0	461.16
2551	1862	3246	1	111.0	461.16
2552	1453	2698	1	149.0	836.8
2552	1533	2595	1	149.0	836.8
2553	1360	2583	1	149.0	836.8
2553	1377	2675	1	149.0	836.8
2553	1399	2600	1	149.0	836.8
2553	1844	3190	1	111.0	461.16
2553	1844	3191	1	111.0	461.16
2553	1844	3192	1	111.0	461.16
2554	1346	2587	1	149.0	836.8
2554	1433	2620	1	149.0	836.8
2554	1452	2632	1	149.0	836.8
2555	1390	2661	1	149.0	836.8
2555	1541	2590	1	149.0	836.8
2556	1308	2667	1	149.0	836.8
2556	1318	2718	1	149.0	836.8
2556	1465	2631	1	149.0	836.8
2556	1592	2562	1	149.0	836.8
2557	1497	2698	1	149.0	836.8
2557	1528	2668	1	149.0	836.8
2557	1652	2595	1	149.0	836.8
2558	1286	2659	1	149.0	836.8
2558	1315	2671	1	149.0	836.8
2558	1376	2622	1	149.0	836.8
2559	1368	2603	1	149.0	836.8
2559	1522	2615	1	149.0	836.8
2559	1645	2662	1	149.0	836.8
2559	1826	3136	1	111.0	461.16
2559	1826	3137	1	111.0	461.16
2559	1826	3138	1	111.0	461.16
2560	1302	2686	1	149.0	836.8
2560	1339	2735	1	149.0	836.8
2560	1632	2701	1	149.0	836.8
2560	1830	3148	1	111.0	461.16
2560	1830	3149	1	111.0	461.16
2560	1830	3150	1	111.0	461.16
2561	1274	2741	1	149.0	836.8
2561	1385	2568	1	149.0	836.8
2561	1456	2730	1	149.0	836.8
2561	1604	2692	1	149.0	836.8
2562	1413	2723	1	149.0	836.8
2562	1673	2705	1	149.0	836.8
2562	1845	3193	1	111.0	461.16
2562	1845	3194	1	111.0	461.16
2562	1845	3195	1	111.0	461.16
2563	1378	2587	1	149.0	836.8
2563	1525	2693	1	149.0	836.8
2563	1568	2660	1	149.0	836.8
2564	1477	2707	1	149.0	836.8
2564	1558	2610	1	149.0	836.8
2564	1594	2699	1	149.0	836.8
2564	1659	2639	1	149.0	836.8
2565	1365	2589	1	149.0	836.8
2565	1590	2676	1	149.0	836.8
2565	1670	2746	1	149.0	836.8
2565	1836	3166	1	111.0	461.16
2565	1836	3167	1	111.0	461.16
2565	1836	3168	1	111.0	461.16
2566	1259	2588	1	149.0	836.8
2566	1326	2703	1	149.0	836.8
2566	1330	2597	1	149.0	836.8
2566	1467	2730	1	149.0	836.8
2567	1276	2625	1	149.0	836.8
2567	1287	2686	1	149.0	836.8
2567	1371	2713	1	149.0	836.8
2568	1307	2644	1	149.0	836.8
2568	1320	2699	1	149.0	836.8
2568	1573	2691	1	149.0	836.8
2569	1473	2708	1	149.0	836.8
2569	1543	2647	1	149.0	836.8
2570	1321	2622	1	149.0	836.8
2570	1359	2636	1	149.0	836.8
2570	1435	2646	1	149.0	836.8
2570	1490	2641	1	149.0	836.8
2571	1323	2708	1	149.0	836.8
2571	1347	2630	1	149.0	836.8
2572	1380	2593	1	149.0	836.8
2572	1389	2599	1	149.0	836.8
2572	1429	2692	1	149.0	836.8
2572	1521	2674	1	149.0	836.8
2573	1331	2632	1	149.0	836.8
2573	1391	2618	1	149.0	836.8
2573	1447	2621	1	149.0	836.8
2574	1291	2701	1	149.0	836.8
2574	1459	2586	1	149.0	836.8
2574	1475	2599	1	149.0	836.8
2575	1382	2612	1	149.0	836.8
2576	1513	2587	1	149.0	836.8
2577	1463	2710	1	149.0	836.8
2577	1644	2721	1	149.0	836.8
2577	1665	2719	1	149.0	836.8
2577	1669	2745	1	149.0	836.8
2578	1421	2690	1	149.0	836.8
2578	1438	2598	1	149.0	836.8
2578	1482	2608	1	149.0	836.8
2579	1301	2595	1	149.0	836.8
2579	1503	2747	1	149.0	836.8
2579	1511	2716	1	149.0	836.8
2579	1643	2681	1	149.0	836.8
2580	1656	2677	1	149.0	836.8
2580	1660	2668	1	149.0	836.8
2581	1265	2652	1	149.0	836.8
2581	1598	2628	1	149.0	836.8
2582	1314	2721	1	149.0	836.8
2582	1418	2600	1	149.0	836.8
2582	1605	2720	1	149.0	836.8
2583	1401	2723	1	149.0	836.8
2583	1650	2721	1	149.0	836.8
2584	1361	2700	1	149.0	836.8
2584	1545	2735	1	149.0	836.8
2584	1552	2658	1	149.0	836.8
2584	1846	3196	1	111.0	461.16
2584	1846	3197	1	111.0	461.16
2584	1846	3198	1	111.0	461.16
2585	1338	2651	1	149.0	836.8
2585	1549	2601	1	149.0	836.8
2586	1619	2593	1	149.0	836.8
2588	1375	2589	1	149.0	836.8
2588	1609	2699	1	149.0	836.8
2589	1588	2735	1	149.0	836.8
2589	1838	3172	1	111.0	461.16
2589	1838	3173	1	111.0	461.16
2589	1838	3174	1	111.0	461.16
2590	1500	2657	1	149.0	836.8
2591	1423	2725	1	149.0	836.8
2591	1478	2706	1	149.0	836.8
2591	1591	2635	1	149.0	836.8
2592	1273	2665	1	149.0	836.8
2592	1290	2625	1	149.0	836.8
2593	1266	2703	1	149.0	836.8
2594	1381	2609	1	149.0	836.8
2595	1583	2685	1	149.0	836.8
2596	1506	2627	1	149.0	836.8
2597	1430	2692	1	149.0	836.8
2597	1480	2701	1	149.0	836.8
2597	1639	2735	1	149.0	836.8
2599	1661	2758	1	149.0	836.8
2600	1839	3175	1	111.0	461.16
2600	1839	3176	1	111.0	461.16
2600	1839	3177	1	111.0	461.16
2601	1370	2661	1	149.0	836.8
2601	1611	2722	1	149.0	836.8
2601	1842	3184	1	111.0	461.16
2601	1842	3185	1	111.0	461.16
2601	1842	3186	1	111.0	461.16
2602	1340	2650	1	149.0	836.8
2602	1428	2742	1	149.0	836.8
2602	1479	2641	1	149.0	836.8
2602	1577	2617	1	149.0	836.8
2603	1847	3199	1	111.0	461.16
2603	1847	3200	1	111.0	461.16
2603	1847	3201	1	111.0	461.16
2604	1324	2628	1	149.0	836.8
2604	1356	2675	1	149.0	836.8
2605	1263	2650	1	149.0	836.8
2605	1444	2608	1	149.0	836.8
2605	1484	2750	1	149.0	836.8
2605	1536	2619	1	149.0	836.8
2606	465	2760	1	149.0	836.8
2606	1275	2629	1	149.0	836.8
2606	1574	2702	1	149.0	836.8
2606	1827	3139	1	111.0	461.16
2606	1827	3140	1	111.0	461.16
2606	1827	3141	1	111.0	461.16
2607	1336	2616	1	149.0	836.8
2608	1537	2679	1	149.0	836.8
2609	1383	2655	1	149.0	836.8
2609	1518	2736	1	149.0	836.8
2610	1424	2676	1	149.0	836.8
2610	1582	2613	1	149.0	836.8
2610	1589	2704	1	149.0	836.8
2611	1310	2654	1	149.0	836.8
2611	1636	2739	1	149.0	836.8
2611	1647	2728	1	149.0	836.8
2612	1464	2641	1	149.0	836.8
2612	1526	2640	1	149.0	836.8
2613	1363	2706	1	149.0	836.8
2614	1334	2635	1	149.0	836.8
2614	1341	2687	1	149.0	836.8
2614	1600	2683	1	149.0	836.8
2614	1635	2739	1	149.0	836.8
2615	1317	2732	1	149.0	836.8
2615	1486	2733	1	149.0	836.8
2616	1504	2682	1	149.0	836.8
2616	1610	2743	1	149.0	836.8
2617	1474	2707	1	149.0	836.8
2617	1550	2624	1	149.0	836.8
2618	1357	2685	1	149.0	836.8
2618	1445	2645	1	149.0	836.8
2619	1373	2714	1	149.0	836.8
2619	1654	2742	1	149.0	836.8
2620	1434	2631	1	149.0	836.8
2620	1538	2702	1	149.0	836.8
2620	1680	2748	1	149.0	836.8
2621	1458	2694	1	149.0	836.8
2621	1596	2639	1	149.0	836.8
2621	1621	2624	1	149.0	836.8
2622	1289	2655	1	149.0	836.8
2622	1514	2672	1	149.0	836.8
2623	1281	2732	1	149.0	836.8
2623	1396	2739	1	149.0	836.8
2623	1559	2670	1	149.0	836.8
2624	1565	2691	1	149.0	836.8
2624	1655	2626	1	149.0	836.8
2625	1409	2693	1	149.0	836.8
2626	1299	2666	1	149.0	836.8
2626	1309	2659	1	149.0	836.8
2626	1651	2712	1	149.0	836.8
2627	1379	2663	1	149.0	836.8
2627	1502	2750	1	149.0	836.8
2629	1492	2643	1	149.0	836.8
2629	1529	2631	1	149.0	836.8
2630	1262	2756	1	149.0	836.8
2630	1555	2745	1	149.0	836.8
2631	1448	2681	1	149.0	836.8
2632	1440	2688	1	149.0	836.8
2632	1658	2717	1	149.0	836.8
2633	1394	2653	1	149.0	836.8
2633	1556	2637	1	149.0	836.8
2633	1848	3202	1	111.0	461.16
2633	1848	3203	1	111.0	461.16
2633	1848	3204	1	111.0	461.16
2634	1329	2701	1	149.0	836.8
2634	1397	2686	1	149.0	836.8
2634	1470	2703	1	149.0	836.8
2634	1614	2637	1	149.0	836.8
2635	1407	2684	1	149.0	836.8
2636	1457	2737	1	149.0	836.8
2636	1627	2672	1	149.0	836.8
2638	1260	2684	1	149.0	836.8
2638	1410	2685	1	149.0	836.8
2638	1560	2670	1	149.0	836.8
2638	1566	2731	1	149.0	836.8
2639	1343	2730	1	149.0	836.8
2639	1358	2713	1	149.0	836.8
2640	1411	2725	1	149.0	836.8
2640	1613	2706	1	149.0	836.8
2642	1342	2717	1	149.0	836.8
2642	1608	2730	1	149.0	836.8
2642	1640	2711	1	149.0	836.8
2643	1374	2645	1	149.0	836.8
2644	1519	2736	1	149.0	836.8
2644	1620	2657	1	149.0	836.8
2644	1641	2646	1	149.0	836.8
2645	1325	2660	1	149.0	836.8
2645	1534	2668	1	149.0	836.8
2646	1427	2691	1	149.0	836.8
2646	1431	2707	1	149.0	836.8
2647	1625	2709	1	149.0	836.8
2647	1832	3154	1	111.0	461.16
2647	1832	3155	1	111.0	461.16
2647	1832	3156	1	111.0	461.16
2648	1311	2741	1	149.0	836.8
2648	1416	2678	1	149.0	836.8
2648	1505	2666	1	149.0	836.8
2648	1523	2736	1	149.0	836.8
2649	1548	2673	1	149.0	836.8
2649	1597	2714	1	149.0	836.8
2649	1662	2709	1	149.0	836.8
2649	1829	3145	1	111.0	461.16
2649	1829	3146	1	111.0	461.16
2649	1829	3147	1	111.0	461.16
2650	1572	2690	1	149.0	836.8
2651	1579	2704	1	149.0	836.8
2651	1675	2746	1	149.0	836.8
2651	1866	3256	1	111.0	461.16
2651	1866	3257	1	111.0	461.16
2651	1866	3258	1	111.0	461.16
2652	1261	2674	1	149.0	836.8
2653	1364	2686	1	149.0	836.8
2653	1849	3205	1	111.0	461.16
2653	1849	3206	1	111.0	461.16
2653	1849	3207	1	111.0	461.16
2654	1412	2682	1	149.0	836.8
2654	1617	2743	1	149.0	836.8
2655	1348	2671	1	149.0	836.8
2655	1563	2659	1	149.0	836.8
2656	1395	2724	1	149.0	836.8
2656	1667	2669	1	149.0	836.8
2657	1612	2672	1	149.0	836.8
2659	1349	2719	1	149.0	836.8
2661	1634	2722	1	149.0	836.8
2661	1850	3208	1	111.0	461.16
2661	1850	3209	1	111.0	461.16
2661	1850	3210	1	111.0	461.16
2662	1449	2695	1	149.0	836.8
2662	1485	2729	1	149.0	836.8
2662	1851	3211	1	111.0	461.16
2662	1851	3212	1	111.0	461.16
2662	1851	3213	1	111.0	461.16
2663	1366	2747	1	149.0	836.8
2664	1415	2665	1	149.0	836.8
2666	1446	2738	1	149.0	836.8
2666	1493	2691	1	149.0	836.8
2667	1586	2723	1	149.0	836.8
2669	1454	2682	1	149.0	836.8
2669	1587	2687	1	149.0	836.8
2670	1633	2677	1	149.0	836.8
2671	1524	2755	1	149.0	836.8
2673	1462	2710	1	149.0	836.8
2673	1595	2708	1	149.0	836.8
2673	1834	3160	1	111.0	461.16
2673	1834	3161	1	111.0	461.16
2673	1834	3162	1	111.0	461.16
2674	1520	2711	1	149.0	836.8
2676	1369	2683	1	149.0	836.8
2676	1540	2687	1	149.0	836.8
2677	1466	2733	1	149.0	836.8
2678	1257	2720	1	149.0	836.8
2678	1618	2719	1	149.0	836.8
2679	1626	2690	1	149.0	836.8
2680	1569	2749	1	149.0	836.8
2680	1865	3253	1	111.0	461.16
2680	1865	3254	1	111.0	461.16
2680	1865	3255	1	111.0	461.16
2681	1305	2689	1	149.0	836.8
2681	1400	2718	1	149.0	836.8
2683	1351	2727	1	149.0	836.8
2683	1638	2732	1	149.0	836.8
2684	1300	2743	1	149.0	836.8
2684	1539	2690	1	149.0	836.8
2685	1406	2694	1	149.0	836.8
2687	1623	2728	1	149.0	836.8
2688	1268	2734	1	149.0	836.8
2688	1580	2723	1	149.0	836.8
2688	1630	2726	1	149.0	836.8
2689	1622	2716	1	149.0	836.8
2689	1852	3214	1	111.0	461.16
2689	1852	3215	1	111.0	461.16
2689	1852	3216	1	111.0	461.16
2692	1535	2758	1	149.0	836.8
2693	1664	2703	1	149.0	836.8
2694	1426	2742	1	149.0	836.8
2695	1828	3142	1	111.0	461.16
2695	1828	3143	1	111.0	461.16
2695	1828	3144	1	111.0	461.16
2696	1532	2719	1	149.0	836.8
2697	1303	2742	1	149.0	836.8
2697	1332	2712	1	149.0	836.8
2697	1581	2714	1	149.0	836.8
2697	1607	2718	1	149.0	836.8
2699	1601	2704	1	149.0	836.8
2700	1384	2722	1	149.0	836.8
2700	1672	2746	1	149.0	836.8
2700	1853	3217	1	111.0	461.16
2700	1853	3218	1	111.0	461.16
2700	1853	3219	1	111.0	461.16
2702	1854	3220	1	111.0	461.16
2702	1854	3221	1	111.0	461.16
2702	1854	3222	1	111.0	461.16
2705	1313	2710	1	149.0	836.8
2705	1606	2734	1	149.0	836.8
2705	1855	3223	1	111.0	461.16
2705	1855	3224	1	111.0	461.16
2705	1855	3225	1	111.0	461.16
2706	1425	2707	1	149.0	836.8
2708	1831	3151	1	111.0	461.16
2708	1831	3152	1	111.0	461.16
2708	1831	3153	1	111.0	461.16
2709	1856	3226	1	111.0	461.16
2709	1856	3227	1	111.0	461.16
2709	1856	3228	1	111.0	461.16
2710	1461	2712	1	149.0	836.8
2711	1295	2740	1	149.0	836.8
2711	1649	2738	1	149.0	836.8
2712	1544	2726	1	149.0	836.8
2714	1584	2716	1	149.0	836.8
2715	1267	2729	1	149.0	836.8
2715	1674	2728	1	149.0	836.8
2715	1857	3229	1	111.0	461.16
2715	1857	3230	1	111.0	461.16
2715	1857	3231	1	111.0	461.16
2716	1628	2734	1	149.0	836.8
2717	1335	2740	1	149.0	836.8
2717	1564	2726	1	149.0	836.8
2720	1439	2738	1	149.0	836.8
2721	1624	2726	1	149.0	836.8
2722	1292	2757	1	149.0	836.8
2724	1841	3181	1	111.0	461.16
2724	1841	3182	1	111.0	461.16
2724	1841	3183	1	111.0	461.16
2727	1570	2731	1	149.0	836.8
2728	1460	2729	1	149.0	836.8
2729	1283	2739	1	149.0	836.8
2731	1561	2732	1	149.0	836.8
2734	1858	3232	1	111.0	461.16
2734	1858	3233	1	111.0	461.16
2734	1858	3234	1	111.0	461.16
2738	1472	2741	1	149.0	836.8
2744	1676	2749	1	149.0	836.8
2744	1677	2748	1	149.0	836.8
2744	1700	2760	1	149.0	836.8
2745	1859	3235	1	111.0	461.16
2745	1859	3236	1	111.0	461.16
2745	1859	3237	1	111.0	461.16
2746	1860	3238	1	111.0	461.16
2746	1860	3239	1	111.0	461.16
2746	1860	3240	1	111.0	461.16
2747	1861	3241	1	111.0	461.16
2747	1861	3242	1	111.0	461.16
2747	1861	3243	1	111.0	461.16
2748	1679	2760	1	149.0	836.8
2749	1864	3250	1	111.0	461.16
2749	1864	3251	1	111.0	461.16
2749	1864	3252	1	111.0	461.16
2750	1863	3247	1	111.0	461.16
2750	1863	3248	1	111.0	461.16
2750	1863	3249	1	111.0	461.16
2751	1684	2752	1	149.0	836.8
2755	1692	2756	1	149.0	836.8
2761	1701	2762	1	108.0	419.83
2761	1701	2763	1	108.0	419.83
2762	1701	2763	1	108.0	419.83
2764	1702	2765	1	108.0	419.83
2764	1702	2766	1	108.0	419.83
2765	1702	2766	1	108.0	419.83
2767	1703	2768	1	108.0	419.83
2767	1703	2769	1	108.0	419.83
2768	1703	2769	1	108.0	419.83
2770	1704	2771	1	108.0	419.83
2770	1704	2772	1	108.0	419.83
2771	1704	2772	1	108.0	419.83
2773	1705	2774	1	108.0	419.83
2773	1705	2775	1	108.0	419.83
2774	1705	2775	1	108.0	419.83
2776	1706	2777	1	108.0	419.83
2776	1706	2778	1	108.0	419.83
2777	1706	2778	1	108.0	419.83
2779	1707	2780	1	108.0	419.83
2779	1707	2781	1	108.0	419.83
2780	1707	2781	1	108.0	419.83
2782	1708	2783	1	108.0	419.83
2782	1708	2784	1	108.0	419.83
2783	1708	2784	1	108.0	419.83
2785	1709	2786	1	108.0	419.83
2785	1709	2787	1	108.0	419.83
2786	1709	2787	1	108.0	419.83
2788	1710	2789	1	108.0	419.83
2788	1710	2790	1	108.0	419.83
2789	1710	2790	1	108.0	419.83
2791	1711	2792	1	108.0	419.83
2791	1711	2793	1	108.0	419.83
2792	1711	2793	1	108.0	419.83
2794	1712	2795	1	108.0	419.83
2794	1712	2796	1	108.0	419.83
2795	1712	2796	1	108.0	419.83
2797	1713	2798	1	108.0	419.83
2797	1713	2799	1	108.0	419.83
2798	1713	2799	1	108.0	419.83
2800	1714	2801	1	108.0	419.83
2800	1714	2802	1	108.0	419.83
2801	1714	2802	1	108.0	419.83
2803	1715	2804	1	108.0	419.83
2803	1715	2805	1	108.0	419.83
2804	1715	2805	1	108.0	419.83
2806	1716	2807	1	108.0	419.83
2806	1716	2808	1	108.0	419.83
2807	1716	2808	1	108.0	419.83
2809	1717	2810	1	108.0	419.83
2809	1717	2811	1	108.0	419.83
2810	1717	2811	1	108.0	419.83
2812	1718	2813	1	108.0	419.83
2812	1718	2814	1	108.0	419.83
2813	1718	2814	1	108.0	419.83
2815	1719	2816	1	108.0	419.83
2815	1719	2817	1	108.0	419.83
2816	1719	2817	1	108.0	419.83
2818	1720	2819	1	108.0	419.83
2818	1720	2820	1	108.0	419.83
2819	1720	2820	1	108.0	419.83
2821	1721	2822	1	108.0	419.83
2821	1721	2823	1	108.0	419.83
2822	1721	2823	1	108.0	419.83
2824	1722	2825	1	108.0	419.83
2824	1722	2826	1	108.0	419.83
2825	1722	2826	1	108.0	419.83
2827	1723	2828	1	108.0	419.83
2827	1723	2829	1	108.0	419.83
2828	1723	2829	1	108.0	419.83
2830	1724	2831	1	108.0	419.83
2830	1724	2832	1	108.0	419.83
2831	1724	2832	1	108.0	419.83
2833	1725	2834	1	108.0	419.83
2833	1725	2835	1	108.0	419.83
2834	1725	2835	1	108.0	419.83
2836	1726	2837	1	108.0	419.83
2836	1726	2838	1	108.0	419.83
2837	1726	2838	1	108.0	419.83
2839	1727	2840	1	108.0	419.83
2839	1727	2841	1	108.0	419.83
2840	1727	2841	1	108.0	419.83
2842	1728	2843	1	108.0	419.83
2842	1728	2844	1	108.0	419.83
2843	1728	2844	1	108.0	419.83
2845	1729	2846	1	108.0	419.83
2845	1729	2847	1	108.0	419.83
2846	1729	2847	1	108.0	419.83
2848	1730	2849	1	108.0	419.83
2848	1730	2850	1	108.0	419.83
2849	1730	2850	1	108.0	419.83
2851	1731	2852	1	108.0	419.83
2851	1731	2853	1	108.0	419.83
2852	1731	2853	1	108.0	419.83
2854	1732	2855	1	108.0	419.83
2854	1732	2856	1	108.0	419.83
2855	1732	2856	1	108.0	419.83
2857	1733	2858	1	108.0	419.83
2857	1733	2859	1	108.0	419.83
2858	1733	2859	1	108.0	419.83
2860	1734	2861	1	108.0	419.83
2860	1734	2862	1	108.0	419.83
2861	1734	2862	1	108.0	419.83
2863	1735	2864	1	108.0	419.83
2863	1735	2865	1	108.0	419.83
2864	1735	2865	1	108.0	419.83
2866	1736	2867	1	108.0	419.83
2866	1736	2868	1	108.0	419.83
2867	1736	2868	1	108.0	419.83
2869	1737	2870	1	108.0	419.83
2869	1737	2871	1	108.0	419.83
2870	1737	2871	1	108.0	419.83
2872	1738	2873	1	108.0	419.83
2872	1738	2874	1	108.0	419.83
2873	1738	2874	1	108.0	419.83
2875	1739	2876	1	108.0	419.83
2875	1739	2877	1	108.0	419.83
2876	1739	2877	1	108.0	419.83
2878	1740	2879	1	108.0	419.83
2878	1740	2880	1	108.0	419.83
2879	1740	2880	1	108.0	419.83
2881	1741	2882	1	108.0	419.83
2881	1741	2883	1	108.0	419.83
2882	1741	2883	1	108.0	419.83
2884	1742	2885	1	108.0	419.83
2884	1742	2886	1	108.0	419.83
2885	1742	2886	1	108.0	419.83
2887	1743	2888	1	108.0	419.83
2887	1743	2889	1	108.0	419.83
2888	1743	2889	1	108.0	419.83
2890	1744	2891	1	108.0	419.83
2890	1744	2892	1	108.0	419.83
2891	1744	2892	1	108.0	419.83
2893	1745	2894	1	108.0	419.83
2893	1745	2895	1	108.0	419.83
2894	1745	2895	1	108.0	419.83
2896	1746	2897	1	108.0	419.83
2896	1746	2898	1	108.0	419.83
2897	1746	2898	1	108.0	419.83
2899	1747	2900	1	108.0	419.83
2899	1747	2901	1	108.0	419.83
2900	1747	2901	1	108.0	419.83
2902	1748	2903	1	108.0	419.83
2902	1748	2904	1	108.0	419.83
2903	1748	2904	1	108.0	419.83
2905	1749	2906	1	108.0	419.83
2905	1749	2907	1	108.0	419.83
2906	1749	2907	1	108.0	419.83
2908	1750	2909	1	108.0	419.83
2908	1750	2910	1	108.0	419.83
2909	1750	2910	1	108.0	419.83
2911	1751	2912	1	108.0	419.83
2911	1751	2913	1	108.0	419.83
2912	1751	2913	1	108.0	419.83
2914	1752	2915	1	108.0	419.83
2914	1752	2916	1	108.0	419.83
2915	1752	2916	1	108.0	419.83
2917	1753	2918	1	108.0	419.83
2917	1753	2919	1	108.0	419.83
2918	1753	2919	1	108.0	419.83
2920	1754	2921	1	108.0	419.83
2920	1754	2922	1	108.0	419.83
2921	1754	2922	1	108.0	419.83
2923	1755	2924	1	108.0	419.83
2923	1755	2925	1	108.0	419.83
2924	1755	2925	1	108.0	419.83
2926	1756	2927	1	108.0	419.83
2926	1756	2928	1	108.0	419.83
2927	1756	2928	1	108.0	419.83
2929	1757	2930	1	108.0	419.83
2929	1757	2931	1	108.0	419.83
2930	1757	2931	1	108.0	419.83
2932	1758	2933	1	108.0	419.83
2932	1758	2934	1	108.0	419.83
2933	1758	2934	1	108.0	419.83
2935	1759	2936	1	108.0	419.83
2935	1759	2937	1	108.0	419.83
2936	1759	2937	1	108.0	419.83
2938	1760	2939	1	108.0	419.83
2938	1760	2940	1	108.0	419.83
2939	1760	2940	1	108.0	419.83
2941	1761	2942	1	108.0	419.83
2941	1761	2943	1	108.0	419.83
2942	1761	2943	1	108.0	419.83
2944	1762	2945	1	108.0	419.83
2944	1762	2946	1	108.0	419.83
2945	1762	2946	1	108.0	419.83
2947	1763	2948	1	108.0	419.83
2947	1763	2949	1	108.0	419.83
2948	1763	2949	1	108.0	419.83
2950	1764	2951	1	108.0	419.83
2950	1764	2952	1	108.0	419.83
2951	1764	2952	1	108.0	419.83
2953	1765	2954	1	108.0	419.83
2953	1765	2955	1	108.0	419.83
2954	1765	2955	1	108.0	419.83
2956	1766	2957	1	108.0	419.83
2956	1766	2958	1	108.0	419.83
2957	1766	2958	1	108.0	419.83
2959	1767	2960	1	108.0	419.83
2959	1767	2961	1	108.0	419.83
2960	1767	2961	1	108.0	419.83
2962	1768	2963	1	108.0	419.83
2962	1768	2964	1	108.0	419.83
2963	1768	2964	1	108.0	419.83
2965	1769	2966	1	108.0	419.83
2965	1769	2967	1	108.0	419.83
2966	1769	2967	1	108.0	419.83
2968	1770	2969	1	108.0	419.83
2968	1770	2970	1	108.0	419.83
2969	1770	2970	1	108.0	419.83
2971	1771	2972	1	108.0	419.83
2971	1771	2973	1	108.0	419.83
2972	1771	2973	1	108.0	419.83
2974	1772	2975	1	108.0	419.83
2974	1772	2976	1	108.0	419.83
2975	1772	2976	1	108.0	419.83
2977	1773	2978	1	108.0	419.83
2977	1773	2979	1	108.0	419.83
2978	1773	2979	1	108.0	419.83
2980	1774	2981	1	108.0	419.83
2980	1774	2982	1	108.0	419.83
2981	1774	2982	1	108.0	419.83
2983	1775	2984	1	108.0	419.83
2983	1775	2985	1	108.0	419.83
2984	1775	2985	1	108.0	419.83
2986	1776	2987	1	108.0	419.83
2986	1776	2988	1	108.0	419.83
2987	1776	2988	1	108.0	419.83
2989	1777	2990	1	108.0	419.83
2989	1777	2991	1	108.0	419.83
2990	1777	2991	1	108.0	419.83
2992	1778	2993	1	108.0	419.83
2992	1778	2994	1	108.0	419.83
2993	1778	2994	1	108.0	419.83
2995	1779	2996	1	108.0	419.83
2995	1779	2997	1	108.0	419.83
2996	1779	2997	1	108.0	419.83
2998	1780	2999	1	108.0	419.83
2998	1780	3000	1	108.0	419.83
2999	1780	3000	1	108.0	419.83
3001	1781	3002	1	108.0	419.83
3001	1781	3003	1	108.0	419.83
3002	1781	3003	1	108.0	419.83
3004	1782	3005	1	108.0	419.83
3004	1782	3006	1	108.0	419.83
3005	1782	3006	1	108.0	419.83
3007	1783	3008	1	108.0	419.83
3007	1783	3009	1	108.0	419.83
3008	1783	3009	1	108.0	419.83
3010	1784	3011	1	108.0	419.83
3010	1784	3012	1	108.0	419.83
3011	1784	3012	1	108.0	419.83
3013	1785	3014	1	108.0	419.83
3013	1785	3015	1	108.0	419.83
3014	1785	3015	1	108.0	419.83
3016	1786	3017	1	108.0	419.83
3016	1786	3018	1	108.0	419.83
3017	1786	3018	1	108.0	419.83
3019	1787	3020	1	108.0	419.83
3019	1787	3021	1	108.0	419.83
3020	1787	3021	1	108.0	419.83
3022	1788	3023	1	108.0	419.83
3022	1788	3024	1	108.0	419.83
3023	1788	3024	1	108.0	419.83
3025	1789	3026	1	108.0	419.83
3025	1789	3027	1	108.0	419.83
3026	1789	3027	1	108.0	419.83
3028	1790	3029	1	108.0	419.83
3028	1790	3030	1	108.0	419.83
3029	1790	3030	1	108.0	419.83
3031	1791	3032	1	108.0	419.83
3031	1791	3033	1	108.0	419.83
3032	1791	3033	1	108.0	419.83
3034	1792	3035	1	108.0	419.83
3034	1792	3036	1	108.0	419.83
3035	1792	3036	1	108.0	419.83
3037	1793	3038	1	108.0	419.83
3037	1793	3039	1	108.0	419.83
3038	1793	3039	1	108.0	419.83
3040	1794	3041	1	108.0	419.83
3040	1794	3042	1	108.0	419.83
3041	1794	3042	1	108.0	419.83
3043	1795	3044	1	108.0	419.83
3043	1795	3045	1	108.0	419.83
3044	1795	3045	1	108.0	419.83
3046	1796	3047	1	108.0	419.83
3046	1796	3048	1	108.0	419.83
3047	1796	3048	1	108.0	419.83
3049	1797	3050	1	108.0	419.83
3049	1797	3051	1	108.0	419.83
3050	1797	3051	1	108.0	419.83
3052	1798	3053	1	108.0	419.83
3052	1798	3054	1	108.0	419.83
3053	1798	3054	1	108.0	419.83
3055	1799	3056	1	108.0	419.83
3055	1799	3057	1	108.0	419.83
3056	1799	3057	1	108.0	419.83
3058	1800	3059	1	108.0	419.83
3058	1800	3060	1	108.0	419.83
3059	1800	3060	1	108.0	419.83
3061	1801	3062	1	108.0	419.83
3061	1801	3063	1	108.0	419.83
3062	1801	3063	1	108.0	419.83
3064	1802	3065	1	108.0	419.83
3064	1802	3066	1	108.0	419.83
3065	1802	3066	1	108.0	419.83
3067	1803	3068	1	108.0	419.83
3067	1803	3069	1	108.0	419.83
3068	1803	3069	1	108.0	419.83
3070	1804	3071	1	108.0	419.83
3070	1804	3072	1	108.0	419.83
3071	1804	3072	1	108.0	419.83
3073	1805	3074	1	108.0	419.83
3073	1805	3075	1	108.0	419.83
3074	1805	3075	1	108.0	419.83
3076	1806	3077	1	108.0	419.83
3076	1806	3078	1	108.0	419.83
3077	1806	3078	1	108.0	419.83
3079	1807	3080	1	108.0	419.83
3079	1807	3081	1	108.0	419.83
3080	1807	3081	1	108.0	419.83
3082	1808	3083	1	108.0	419.83
3082	1808	3084	1	108.0	419.83
3083	1808	3084	1	108.0	419.83
3085	1809	3086	1	108.0	419.83
3085	1809	3087	1	108.0	419.83
3086	1809	3087	1	108.0	419.83
3088	1810	3089	1	108.0	419.83
3088	1810	3090	1	108.0	419.83
3089	1810	3090	1	108.0	419.83
3091	1811	3092	1	108.0	419.83
3091	1811	3093	1	108.0	419.83
3092	1811	3093	1	108.0	419.83
3094	1812	3095	1	108.0	419.83
3094	1812	3096	1	108.0	419.83
3095	1812	3096	1	108.0	419.83
3097	1813	3098	1	108.0	419.83
3097	1813	3099	1	108.0	419.83
3098	1813	3099	1	108.0	419.83
3100	1814	3101	1	108.0	419.83
3100	1814	3102	1	108.0	419.83
3101	1814	3102	1	108.0	419.83
3103	1815	3104	1	108.0	419.83
3103	1815	3105	1	108.0	419.83
3104	1815	3105	1	108.0	419.83
3106	1816	3107	1	108.0	419.83
3106	1816	3108	1	108.0	419.83
3107	1816	3108	1	108.0	419.83
3109	1817	3110	1	108.0	419.83
3109	1817	3111	1	108.0	419.83
3110	1817	3111	1	108.0	419.83
3112	1818	3113	1	108.0	419.83
3112	1818	3114	1	108.0	419.83
3113	1818	3114	1	108.0	419.83
3115	1819	3116	1	108.0	419.83
3115	1819	3117	1	108.0	419.83
3116	1819	3117	1	108.0	419.83
3118	1820	3119	1	108.0	419.83
3118	1820	3120	1	108.0	419.83
3119	1820	3120	1	108.0	419.83
3121	1821	3122	1	108.0	419.83
3121	1821	3123	1	108.0	419.83
3122	1821	3123	1	108.0	419.83
3124	1822	3125	1	108.0	419.83
3124	1822	3126	1	108.0	419.83
3125	1822	3126	1	108.0	419.83
3127	1823	3128	1	108.0	419.83
3127	1823	3129	1	108.0	419.83
3128	1823	3129	1	108.0	419.83
3130	1824	3131	1	108.0	419.83
3130	1824	3132	1	108.0	419.83
3131	1824	3132	1	108.0	419.83
3133	1825	3134	1	108.0	419.83
3133	1825	3135	1	108.0	419.83
3134	1825	3135	1	108.0	419.83
3136	1826	3137	1	108.0	419.83
3136	1826	3138	1	108.0	419.83
3137	1826	3138	1	108.0	419.83
3139	1827	3140	1	108.0	419.83
3139	1827	3141	1	108.0	419.83
3140	1827	3141	1	108.0	419.83
3142	1828	3143	1	108.0	419.83
3142	1828	3144	1	108.0	419.83
3143	1828	3144	1	108.0	419.83
3145	1829	3146	1	108.0	419.83
3145	1829	3147	1	108.0	419.83
3146	1829	3147	1	108.0	419.83
3148	1830	3149	1	108.0	419.83
3148	1830	3150	1	108.0	419.83
3149	1830	3150	1	108.0	419.83
3151	1831	3152	1	108.0	419.83
3151	1831	3153	1	108.0	419.83
3152	1831	3153	1	108.0	419.83
3154	1832	3155	1	108.0	419.83
3154	1832	3156	1	108.0	419.83
3155	1832	3156	1	108.0	419.83
3157	1833	3158	1	108.0	419.83
3157	1833	3159	1	108.0	419.83
3158	1833	3159	1	108.0	419.83
3160	1834	3161	1	108.0	419.83
3160	1834	3162	1	108.0	419.83
3161	1834	3162	1	108.0	419.83
3163	1835	3164	1	108.0	419.83
3163	1835	3165	1	108.0	419.83
3164	1835	3165	1	108.0	419.83
3166	1836	3167	1	108.0	419.83
3166	1836	3168	1	108.0	419.83
3167	1836	3168	1	108.0	419.83
3169	1837	3170	1	108.0	419.83
3169	1837	3171	1	108.0	419.83
3170	1837	3171	1	108.0	419.83
3172	1838	3173	1	108.0	419.83
3172	1838	3174	1	108.0	419.83
3173	1838	3174	1	108.0	419.83
3175	1839	3176	1	108.0	419.83
3175	1839	3177	1	108.0	419.83
3176	1839	3177	1	108.0	419.83
3178	1840	3179	1	108.0	419.83
3178	1840	3180	1	108.0	419.83
3179	1840	3180	1	108.0	419.83
3181	1841	3182	1	108.0	419.83
3181	1841	3183	1	108.0	419.83
3182	1841	3183	1	108.0	419.83
3184	1842	3185	1	108.0	419.83
3184	1842	3186	1	108.0	419.83
3185	1842	3186	1	108.0	419.83
3187	1843	3188	1	108.0	419.83
3187	1843	3189	1	108.0	419.83
3188	1843	3189	1	108.0	419.83
3190	1844	3191	1	108.0	419.83
3190	1844	3192	1	108.0	419.83
3191	1844	3192	1	108.0	419.83
3193	1845	3194	1	108.0	419.83
3193	1845	3195	1	108.0	419.83
3194	1845	3195	1	108.0	419.83
3196	1846	3197	1	108.0	419.83
3196	1846	3198	1	108.0	419.83
3197	1846	3198	1	108.0	419.83
3199	1847	3200	1	108.0	419.83
3199	1847	3201	1	108.0	419.83
3200	1847	3201	1	108.0	419.83
3202	1848	3203	1	108.0	419.83
3202	1848	3204	1	108.0	419.83
3203	1848	3204	1	108.0	419.83
3205	1849	3206	1	108.0	419.83
3205	1849	3207	1	108.0	419.83
3206	1849	3207	1	108.0	419.83
3208	1850	3209	1	108.0	419.83
3208	1850	3210	1	108.0	419.83
3209	1850	3210	1	108.0	419.83
3211	1851	3212	1	108.0	419.83
3211	1851	3213	1	108.0	419.83
3212	1851	3213	1	108.0	419.83
3214	1852	3215	1	108.0	419.83
3214	1852	3216	1	108.0	419.83
3215	1852	3216	1	108.0	419.83
3217	1853	3218	1	108.0	419.83
3217	1853	3219	1	108.0	419.83
3218	1853	3219	1	108.0	419.83
3220	1854	3221	1	108.0	419.83
3220	1854	3222	1	108.0	419.83
3221	1854	3222	1	108.0	419.83
3223	1855	3224	1	108.0	419.83
3223	1855	3225	1	108.0	419.83
3224	1855	3225	1	108.0	419.83
3226	1856	3227	1	108.0	419.83
3226	1856	3228	1	108.0	419.83
3227	1856	3228	1	108.0	419.83
3229	1857	3230	1	108.0	419.83
3229	1857	3231	1	108.0	419.83
3230	1857	3231	1	108.0	419.83
3232	1858	3233	1	108.0	419.83
3232	1858	3234	1	108.0	419.83
3233	1858	3234	1	108.0	419.83
3235	1859	3236	1	108.0	419.83
3235	1859	3237	1	108.0	419.83
3236	1859	3237	1	108.0	419.83
3238	1860	3239	1	108.0	419.83
3238	1860	3240	1	108.0	419.83
3239	1860	3240	1	108.0	419.83
3241	1861	3242	1	108.0	419.83
3241	1861	3243	1	108.0	419.83
3242	1861	3243	1	108.0	419.83
3244	1862	3245	1	108.0	419.83
3244	1862	3246	1	108.0	419.83
3245	1862	3246	1	108.0	419.83
3247	1863	3248	1	108.0	419.83
3247	1863	3249	1	108.0	419.83
3248	1863	3249	1	108.0	419.83
3250	1864	3251	1	108.0	419.83
3250	1864	3252	1	108.0	419.83
3251	1864	3252	1	108.0	419.83
3253	1865	3254	1	108.0	419.83
3253	1865	3255	1	108.0	419.83
3254	1865	3255	1	108.0	419.83
3256	1866	3257	1	108.0	419.83
3256	1866	3258	1	108.0	419.83
3257	1866	3258	1	108.0	419.83
3259	1867	3260	1	108.0	419.83
3259	1867	3261	1	108.0	419.83
3260	1867	3261	1	108.0	419.83
3262	1868	3263	1	108.0	419.83
3262	1868	3264	1	108.0	419.83
3263	1868	3264	1	108.0	419.83
