Water-ethanol mixture in organosilica
15046
    1Sil     Ob    1   0.157   2.977   9.580  0.2477  0.8698 -0.0075
    1Sil     Ob    2   0.345   2.934   9.758 -0.6343 -0.1688  0.3808
    1Sil     Ob    3   0.290   3.113   9.941 -0.6053  0.1800  0.5013
    1Sil     Ob    4   0.038   3.049   9.903  0.5009 -0.6339 -0.6874
    1Sil     Ob    5   0.412   3.189   9.737 -0.1053  0.3803 -0.3765
    1Sil     Ob    6   0.089   3.229   9.556  0.0428  0.3049 -0.2006
    1Sil     Ob    7   0.161   3.830   9.601  0.2131  0.4178  0.1924
    1Sil     Ob    8   0.354   3.778   9.765 -0.7522 -0.0452  0.0701
    1Sil     Ob    9   0.288   3.956   9.948 -0.3289 -0.1375 -0.1526
    1Sil     Ob   10   0.030   3.893   9.911  0.2824  0.5229 -0.4069
    1Sil     Ob   11   0.409   4.031   9.727  0.7184  0.3101 -0.3154
    1Sil     Ob   12   0.076   4.069   9.536  0.0011  0.3162  0.0514
    1Sil     Ob   13   0.156   4.672   9.590 -0.0967  0.6214 -0.5232
    1Sil     Ob   14   0.347   4.630   9.762 -0.6098 -1.2197  0.3451
    1Sil     Ob   15   0.288   4.803   9.953  0.1464 -0.0109 -0.7495
    1Sil     Ob   16   0.030   4.745   9.901 -0.0503  0.0938 -0.0063
    1Sil     Ob   17   0.404   4.891   9.741  0.0854  0.3119  0.1777
    1Sil     Ob   18   0.053   4.913   9.536  0.4390 -0.6509 -0.5621
    1Sil     Ob   19   0.148   5.548   9.603 -0.5061  0.2650 -0.4859
    1Sil     Ob   20   0.353   5.497   9.756  0.3267 -0.1638 -0.3013
    1Sil     Ob   21   0.298   5.678   9.941  0.6754  0.2233  0.3083
    1Sil     Ob   22   0.048   5.609   9.895  0.7798 -0.9050 -0.0940
    1Sil     Ob   23   0.412   5.746   9.735  0.1248 -0.0953 -0.3052
    1Sil     Ob   24   0.060   5.782   9.531  0.3490 -0.3848  0.8900
    1Sil     Ob   25   0.666   2.977   9.605  0.6667  0.1679 -0.2570
    1Sil     Ob   26   0.862   2.924   9.755 -0.1896  0.1856  0.2112
    1Sil     Ob   27   0.797   3.094   9.934 -0.0727 -0.2034  0.5689
    1Sil     Ob   28   0.541   3.030   9.898  0.1320  0.5921  0.2208
    1Sil     Ob   29   0.931   3.181   9.725  0.7068 -0.4772  1.0154
    1Sil     Ob   30   0.559   3.200   9.534  0.3997 -0.2153 -0.1872
    1Sil     Ob   31   0.656   3.808   9.585  0.1868 -0.4855 -0.1796
    1Sil     Ob   32   0.862   3.782   9.750 -0.0434  0.0061  0.5541
    1Sil     Ob   33   0.809   3.939   9.942 -0.6124 -0.0839  0.2561
    1Sil     Ob   34   0.545   3.899   9.896 -0.1228  0.6014 -0.2710
    1Sil     Ob   35   0.916   4.036   9.733  0.1875  0.1469 -0.4526
    1Sil     Ob   36   0.577   4.057   9.532  0.0809  0.0050  0.7124
    1Sil     Ob   37   0.668   4.680   9.579 -0.2473 -0.5169 -0.0482
    1Sil     Ob   38   0.870   4.644   9.737 -0.3009 -0.4481 -0.1439
    1Sil     Ob   39   0.787   4.802   9.935 -0.7024  0.0553 -0.0555
    1Sil     Ob   40   0.543   4.728   9.889  0.0577 -0.1496  0.1873
    1Sil     Ob   41   0.916   4.891   9.733  0.3551 -0.3152 -0.6369
    1Sil     Ob   42   0.555   4.916   9.539 -0.2445  0.4781 -0.3100
    1Sil     Ob   43   0.680   5.550   9.600  0.1432  0.0149  0.0758
    1Sil     Ob   44   0.868   5.492   9.758  0.5884  0.2605  0.4611
    1Sil     Ob   45   0.800   5.662   9.951  0.6591 -0.4660  0.0361
    1Sil     Ob   46   0.544   5.603   9.901  0.2053  0.0854  0.3754
    1Sil     Ob   47   0.914   5.749   9.739 -0.2112  0.1084 -0.6598
    1Sil     Ob   48   0.594   5.787   9.542  0.2314 -0.6929 -0.8681
    1Sil     Ob   49   1.181   2.979   9.587  0.2594 -0.1025  0.4178
    1Sil     Ob   50   1.371   2.934   9.752 -0.0968  0.0018 -0.2546
    1Sil     Ob   51   1.300   3.104   9.934  0.3479  0.6613 -0.1442
    1Sil     Ob   52   1.053   3.035   9.903 -0.0861  0.1638 -0.2793
    1Sil     Ob   53   1.434   3.178   9.723  0.5196  0.4001  0.4124
    1Sil     Ob   54   1.111   3.224   9.533  0.3200  0.1586 -0.2614
    1Sil     Ob   55   1.180   3.841   9.591  0.0104  0.3382  0.0986
    1Sil     Ob   56   1.392   3.782   9.747 -0.7820  0.1721  0.0939
    1Sil     Ob   57   1.321   3.942   9.933 -0.0473  0.0198 -0.8784
    1Sil     Ob   58   1.058   3.889   9.881  0.4606 -0.0148 -0.7725
    1Sil     Ob   59   1.448   4.031   9.735  0.7363  0.3693 -0.2198
    1Sil     Ob   60   1.085   4.067   9.525 -0.7585  0.2710  0.1968
    1Sil     Ob   61   1.173   4.682   9.587 -0.0431 -0.5439  0.2248
    1Sil     Ob   62   1.365   4.630   9.765  0.2543  0.0881  0.4404
    1Sil     Ob   63   1.302   4.808   9.932 -0.2919  0.3492 -0.4440
    1Sil     Ob   64   1.040   4.728   9.895  0.5322  0.4144  0.3714
    1Sil     Ob   65   1.444   4.874   9.727 -0.0242 -0.3507 -0.1624
    1Sil     Ob   66   1.081   4.917   9.539 -0.1316 -0.1769  0.1634
    1Sil     Ob   67   1.171   5.542   9.600 -0.0133  0.0592  0.0476
    1Sil     Ob   68   1.374   5.500   9.758 -0.4738  1.1599 -0.3818
    1Sil     Ob   69   1.312   5.662   9.949  0.0436  0.2965  0.9277
    1Sil     Ob   70   1.056   5.598   9.903 -0.2644  0.4936 -0.2191
    1Sil     Ob   71   1.437   5.754   9.737 -0.0424  0.3815  0.3036
    1Sil     Ob   72   1.081   5.775   9.549  0.1708  0.0428  0.4813
    1Sil     Ob   73   1.692   2.969   9.573 -0.1823  0.0976 -0.4434
    1Sil     Ob   74   1.882   2.943   9.748 -0.4563  0.5618 -0.5061
    1Sil     Ob   75   1.823   3.110   9.938 -0.1949  0.3613  0.1241
    1Sil     Ob   76   1.560   3.039   9.900  0.1572 -0.1159 -0.2774
    1Sil     Ob   77   1.944   3.200   9.730 -0.6785 -0.0410  0.0957
    1Sil     Ob   78   1.593   3.209   9.513 -0.2776  0.9455  0.0434
    1Sil     Ob   79   1.690   3.832   9.594 -0.6764 -0.0622  0.1451
    1Sil     Ob   80   1.883   3.777   9.768  0.0964 -0.1699  0.3122
    1Sil     Ob   81   1.826   3.959   9.952  0.5134  0.5485 -0.1486
    1Sil     Ob   82   1.583   3.881   9.908 -0.6060  0.3578 -0.3793
    1Sil     Ob   83   1.947   4.038   9.743  0.0022 -0.6671  0.3807
    1Sil     Ob   84   1.598   4.068   9.525  0.0144 -0.7750 -0.4259
    1Sil     Ob   85   1.720   4.693   9.591  0.1854 -0.2934 -0.1506
    1Sil     Ob   86   1.893   4.631   9.760  0.4628 -0.2278  0.0154
    1Sil     Ob   87   1.811   4.817   9.934  0.5084 -0.0181 -0.5644
    1Sil     Ob   88   1.558   4.739   9.909 -0.0249  0.7630  0.3121
    1Sil     Ob   89   1.944   4.887   9.717  0.2220 -0.4137  0.0858
    1Sil     Ob   90   1.622   4.935   9.535 -0.1024  0.7156 -1.0972
    1Sil     Ob   91   1.685   5.524   9.590 -0.4462  0.1106 -0.1243
    1Sil     Ob   92   1.882   5.481   9.760 -0.5665  0.0785 -0.4797
    1Sil     Ob   93   1.816   5.647   9.955  0.7547  0.3733  0.3809
    1Sil     Ob   94   1.554   5.594   9.903 -0.3600  0.0782  0.1718
    1Sil     Ob   95   1.938   5.736   9.744  0.4222  0.1290 -0.4791
    1Sil     Ob   96   1.612   5.784   9.542  1.0232  0.2501  0.2225
    1Sil     Ob   97   2.182   2.973   9.592 -0.2238 -0.4338 -0.0036
    1Sil     Ob   98   2.387   2.925   9.751 -0.1004 -0.1120  0.6347
    1Sil     Ob   99   2.325   3.100   9.940  0.1213 -0.2305  0.3331
    1Sil     Ob  100   2.075   3.047   9.900  0.5813  0.9422  0.3885
    1Sil     Ob  101   2.453   3.168   9.719  0.2369 -0.4510  0.8051
    1Sil     Ob  102   2.124   3.221   9.543  0.4423 -0.1630  0.8780
    1Sil     Ob  103   2.193   3.823   9.584  0.1124 -0.5643 -0.1218
    1Sil     Ob  104   2.391   3.782   9.767  0.3336  0.1753 -0.9795
    1Sil     Ob  105   2.322   3.965   9.940 -0.2388 -0.7238  0.0600
    1Sil     Ob  106   2.076   3.880   9.901 -0.4602 -0.5160 -0.3438
    1Sil     Ob  107   2.451   4.035   9.739  0.0342  0.2912  0.5317
    1Sil     Ob  108   2.119   4.076   9.541 -0.1764 -0.0269 -0.4687
    1Sil     Ob  109   2.190   4.685   9.595 -0.2172  0.2465  0.0728
    1Sil     Ob  110   2.394   4.636   9.758  0.5954 -0.1316 -0.1148
    1Sil     Ob  111   2.317   4.799   9.955 -0.1079  0.0307  0.1724
    1Sil     Ob  112   2.075   4.742   9.895 -0.0309 -0.2032 -0.6496
    1Sil     Ob  113   2.451   4.897   9.742  0.0634 -0.3453  0.1490
    1Sil     Ob  114   2.139   4.934   9.542 -0.2181  0.8603  0.1562
    1Sil     Ob  115   2.190   5.528   9.589  0.2587  0.1784  0.4130
    1Sil     Ob  116   2.379   5.491   9.763 -0.0785  0.3862 -0.2210
    1Sil     Ob  117   2.325   5.661   9.952  0.1463  0.2662  0.1824
    1Sil     Ob  118   2.072   5.589   9.910 -0.0406  0.0031  0.3874
    1Sil     Ob  119   2.448   5.744   9.746  0.0694  0.1552 -0.2196
    1Sil     Ob  120   2.092   5.766   9.532 -0.5040  0.4770  0.1578
    1Sil     Ob  121   2.710   2.979   9.575  0.2240 -0.4092  0.4923
    1Sil     Ob  122   2.901   2.935   9.750 -0.0696  0.1327 -0.2238
    1Sil     Ob  123   2.836   3.102   9.937  0.1317 -0.0662  0.4011
    1Sil     Ob  124   2.579   3.024   9.894 -0.4776  0.2900 -0.6140
    1Sil     Ob  125   2.959   3.192   9.728 -0.3414 -0.0501 -0.1669
    1Sil     Ob  126   2.659   3.234   9.556 -0.0131 -0.0247 -0.1416
    1Sil     Ob  127   2.709   3.822   9.599 -0.0248  0.1640 -0.0835
    1Sil     Ob  128   2.905   3.776   9.762 -0.5693  0.6943 -0.5285
    1Sil     Ob  129   2.836   3.957   9.948  0.1283 -0.1530 -0.0751
    1Sil     Ob  130   2.582   3.890   9.906  0.4726 -0.1819  0.2234
    1Sil     Ob  131   2.943   4.036   9.734  0.7406  0.0376 -0.3916
    1Sil     Ob  132   2.615   4.064   9.531  0.5592  0.1136 -0.0463
    1Sil     Ob  133   2.701   4.683   9.587  0.5903  0.1670 -0.2961
    1Sil     Ob  134   2.900   4.637   9.753 -0.5334 -0.9272 -0.2338
    1Sil     Ob  135   2.838   4.813   9.941  0.3132  0.1274 -0.1011
    1Sil     Ob  136   2.576   4.738   9.910  0.2527 -0.5095 -0.2194
    1Sil     Ob  137   2.966   4.884   9.728  0.3173  0.4609 -0.4783
    1Sil     Ob  138   2.613   4.925   9.539  0.0216  0.0616 -0.3265
    1Sil     Ob  139   2.717   5.543   9.592 -0.3690  0.4160  0.6318
    1Sil     Ob  140   2.914   5.487   9.749 -0.3116 -0.5701  0.3571
    1Sil     Ob  141   2.843   5.648   9.947  0.0451  0.3043  0.2244
    1Sil     Ob  142   2.581   5.599   9.905  0.3122  0.7723  0.0854
    1Sil     Ob  143   2.953   5.750   9.743 -0.0180 -0.3655  0.0462
    1Sil     Ob  144   2.611   5.781   9.533  0.5959  0.5643 -0.3279
    1Sil     Ob  145  -0.344   2.986   9.606  0.2285 -0.8026  0.2799
    1Sil     Ob  146  -0.161   2.926   9.769 -0.0765 -0.1944  0.4357
    1Sil     Ob  147  -0.223   3.107   9.950  0.4033 -0.1463  0.0591
    1Sil     Ob  148   3.096   3.044   9.898 -0.3563 -0.0325  0.4157
    1Sil     Ob  149  -0.093   3.182   9.734  0.6516  0.0123  0.3055
    1Sil     Ob  150  -0.418   3.227   9.556  0.6030  0.0191  0.3181
    1Sil     Ob  151  -0.358   3.825   9.594  0.0560  0.1498  0.1534
    1Sil     Ob  152  -0.165   3.785   9.767 -0.1840 -0.6421  0.2260
    1Sil     Ob  153  -0.233   3.965   9.937 -0.5468  0.0015 -0.1728
    1Sil     Ob  154   3.096   3.889   9.893 -0.2006 -0.2005  0.1318
    1Sil     Ob  155  -0.101   4.031   9.720 -0.1466  0.0019 -0.3683
    1Sil     Ob  156  -0.452   4.061   9.531 -0.6405 -0.5257  0.3760
    1Sil     Ob  157  -0.348   4.671   9.594 -0.6527 -0.3186 -0.1611
    1Sil     Ob  158  -0.155   4.637   9.767  0.3138 -0.1097 -0.0554
    1Sil     Ob  159  -0.223   4.802   9.959  0.6129 -0.6718 -0.2487
    1Sil     Ob  160   3.097   4.732   9.901  0.3641  0.0817  0.2433
    1Sil     Ob  161  -0.121   4.888   9.745  0.1562  0.4104  0.1245
    1Sil     Ob  162  -0.415   4.916   9.553  0.3373 -0.2747 -0.6696
    1Sil     Ob  163  -0.352   5.545   9.593 -0.0778 -0.5233 -0.7436
    1Sil     Ob  164  -0.156   5.500   9.758 -0.2631  0.1298 -0.1553
    1Sil     Ob  165  -0.213   5.676   9.943  0.2203 -0.6641 -0.0188
    1Sil     Ob  166   3.099   5.602   9.896  0.0228 -0.0979  0.6088
    1Sil     Ob  167  -0.095   5.752   9.734 -0.2255  0.3629 -0.4819
    1Sil     Ob  168  -0.470   5.767   9.532 -0.0389  0.3616  0.2754
    1Sil     Ob  169   0.159   2.971  10.122 -0.2346  0.5866  0.2894
    1Sil     Ob  170   0.351   2.913  10.304  0.3444 -0.5537  0.2545
    1Sil     Ob  171   0.281   3.105  10.463  0.3735  1.2339 -0.1987
    1Sil     Ob  172   0.026   3.023  10.432 -0.2533  0.6964 -0.8869
    1Sil     Ob  173   0.415   3.159  10.248  0.0470  0.1199 -0.0371
    1Sil     Ob  174   0.097   3.220  10.093 -0.4031  0.2733 -0.2298
    1Sil     Ob  175   0.158   3.818  10.124  0.6283 -0.2089  0.2462
    1Sil     Ob  176   0.342   3.774  10.296  0.9644 -0.1154 -0.0260
    1Sil     Ob  177   0.277   3.952  10.461 -0.1062 -0.3113  0.3882
    1Sil     Ob  178   0.037   3.885  10.420 -0.1777  0.2241  0.2120
    1Sil     Ob  179   0.410   4.016  10.240  0.4560 -0.3525 -0.1829
    1Sil     Ob  180   0.097   4.068  10.088  0.4176  0.6378 -0.0841
    1Sil     Ob  181   0.145   4.657  10.123 -0.1865  0.5126 -0.2102
    1Sil     Ob  182   0.341   4.630  10.283  0.9331  0.1648  0.6067
    1Sil     Ob  183   0.274   4.802  10.460 -0.0064 -0.0984 -0.0641
    1Sil     Ob  184   0.026   4.735  10.426 -0.3062 -0.2702 -0.6535
    1Sil     Ob  185   0.397   4.878  10.244  0.0358  0.2608 -0.2741
    1Sil     Ob  186   0.101   4.916  10.086 -0.3084  0.3915  0.3484
    1Sil     Ob  187   0.172   5.523  10.120  0.1380  0.2286  0.2475
    1Sil     Ob  188   0.356   5.483  10.295  0.3003 -0.8723  0.4515
    1Sil     Ob  189   0.287   5.659  10.476  0.5210 -0.1869 -0.0290
    1Sil     Ob  190   0.036   5.592  10.424 -0.0860  0.3632  0.9143
    1Sil     Ob  191   0.405   5.740  10.266  0.1409 -0.1377 -0.7025
    1Sil     Ob  192   0.088   5.780  10.084  1.0337 -0.1238 -0.1965
    1Sil     Ob  193   0.672   2.959  10.112  0.1899 -0.4431 -0.5218
    1Sil     Ob  194   0.866   2.920  10.303 -0.4050 -0.6448  0.2947
    1Sil     Ob  195   0.805   3.105  10.471 -0.5242 -0.3250 -1.1461
    1Sil     Ob  196   0.536   3.040  10.425 -0.7554 -0.5576 -0.0278
    1Sil     Ob  197   0.917   3.170  10.250  0.2074 -0.4368  0.3169
    1Sil     Ob  198   0.606   3.205  10.069 -0.1653  0.1263  0.1908
    1Sil     Ob  199   0.664   3.807  10.111 -0.7161  0.0964 -0.2357
    1Sil     Ob  200   0.846   3.761  10.280 -0.2864  0.0357  0.2868
    1Sil     Ob  201   0.798   3.947  10.449 -0.2550  1.0210 -0.0585
    1Sil     Ob  202   0.540   3.877  10.427 -0.2329  0.0967 -0.5733
    1Sil     Ob  203   0.924   4.013  10.229 -0.3765  0.2223 -0.0110
    1Sil     Ob  204   0.612   4.061  10.078  0.3958 -0.7049 -0.1842
    1Sil     Ob  205   0.663   4.651  10.113 -0.0661  0.4546  0.3049
    1Sil     Ob  206   0.856   4.609  10.287 -0.4724 -0.7611 -0.0483
    1Sil     Ob  207   0.786   4.790  10.451  0.6662 -0.6326 -0.0921
    1Sil     Ob  208   0.525   4.726  10.415  0.3666  0.0565  0.1021
    1Sil     Ob  209   0.924   4.858  10.231  0.3448  0.1424 -0.2446
    1Sil     Ob  210   0.583   4.908  10.062  0.1449  0.1635  0.0240
    1Sil     Ob  211   0.668   5.509  10.105 -0.2218 -0.0403 -0.1350
    1Sil     Ob  212   0.850   5.479  10.302 -0.2856 -0.2370  0.4813
    1Sil     Ob  213   0.793   5.671  10.462  0.2537  0.3209 -0.7145
    1Sil     Ob  214   0.538   5.594  10.445  0.2129 -0.5180  0.3335
    1Sil     Ob  215   0.925   5.735  10.260 -0.0187  0.1415 -0.1263
    1Sil     Ob  216   0.600   5.767  10.087  0.0600  0.0257  0.1951
    1Sil     Ob  217   1.174   2.974  10.123  0.0958  0.5350  0.0338
    1Sil     Ob  218   1.368   2.922  10.290 -0.0192  0.4714  0.3656
    1Sil     Ob  219   1.314   3.101  10.464 -0.2944  0.4240 -1.2458
    1Sil     Ob  220   1.060   3.045  10.416  0.0631 -0.1913 -0.0506
    1Sil     Ob  221   1.441   3.168  10.240  0.3194 -0.2898  0.2559
    1Sil     Ob  222   1.109   3.214  10.069  0.5087  0.3865 -0.3308
    1Sil     Ob  223   1.177   3.813  10.101  0.3419 -0.2263  0.0826
    1Sil     Ob  224   1.361   3.775  10.282  0.8435  0.4543  0.0766
    1Sil     Ob  225   1.306   3.933  10.477 -0.1210 -0.6121  0.4951
    1Sil     Ob  226   1.045   3.869  10.415 -0.1140  0.3162  0.1230
    1Sil     Ob  227   1.426   4.024  10.261 -0.4393  0.3871 -0.6372
    1Sil     Ob  228   1.127   4.070  10.065 -0.6551 -0.4945  0.3010
    1Sil     Ob  229   1.175   4.659  10.120  0.0876  0.4584  0.5628
    1Sil     Ob  230   1.351   4.618  10.306  0.1627  0.4417  0.4549
    1Sil     Ob  231   1.301   4.819  10.451  0.0147  0.1766 -0.3299
    1Sil     Ob  232   1.041   4.730  10.421  0.2317  0.3917  0.0632
    1Sil     Ob  233   1.420   4.874  10.243  0.0975  0.5471 -0.2430
    1Sil     Ob  234   1.110   4.906  10.067 -0.0729 -0.0988 -0.5750
    1Sil     Ob  235   1.181   5.529  10.120 -0.0761  0.6387  0.2729
    1Sil     Ob  236   1.374   5.482  10.291  0.0796  0.0943 -0.1312
    1Sil     Ob  237   1.304   5.664  10.478 -0.0076 -0.4966  0.2261
    1Sil     Ob  238   1.046   5.588  10.437 -0.1787 -0.2168 -0.0847
    1Sil     Ob  239   1.426   5.740  10.257 -0.0602  0.2509  0.4060
    1Sil     Ob  240   1.115   5.768  10.085 -0.3488 -0.1117  0.4238
    1Sil     Ob  241   1.695   2.962  10.114 -0.5288  0.4671 -0.1340
    1Sil     Ob  242   1.880   2.930  10.287 -0.4567  0.7216  0.6010
    1Sil     Ob  243   1.821   3.104  10.462 -0.1694 -0.4421  0.2601
    1Sil     Ob  244   1.560   3.025  10.423 -0.0208  0.2815  0.6306
    1Sil     Ob  245   1.946   3.182  10.253 -0.2140 -0.5049  0.5599
    1Sil     Ob  246   1.641   3.214  10.074  0.3828  0.0987  0.5130
    1Sil     Ob  247   1.699   3.809  10.117  0.8228 -0.3807 -0.1137
    1Sil     Ob  248   1.883   3.770  10.294  0.2358 -0.3355  0.4175
    1Sil     Ob  249   1.820   3.945  10.467 -0.9083  0.2289 -0.6927
    1Sil     Ob  250   1.561   3.869  10.425 -0.8840 -0.2224  0.3088
    1Sil     Ob  251   1.942   4.025  10.252  0.4263  0.0811 -0.4566
    1Sil     Ob  252   1.612   4.061  10.075 -0.1901  0.1484  0.5947
    1Sil     Ob  253   1.692   4.670  10.109 -0.4829 -0.6412  0.6329
    1Sil     Ob  254   1.869   4.638  10.298  0.0102 -0.2434 -0.5541
    1Sil     Ob  255   1.808   4.825  10.477 -0.4239  0.3092  0.3089
    1Sil     Ob  256   1.554   4.756  10.434  0.8665  0.1440 -0.4571
    1Sil     Ob  257   1.927   4.884  10.252  0.1824  0.6727  0.3248
    1Sil     Ob  258   1.612   4.928  10.070 -0.0657 -0.3236  0.0539
    1Sil     Ob  259   1.673   5.526  10.127  0.1292  0.1561  0.1174
    1Sil     Ob  260   1.861   5.477  10.301 -0.5239  0.4642 -0.6255
    1Sil     Ob  261   1.808   5.677  10.465  0.0706  0.2113 -0.2657
    1Sil     Ob  262   1.560   5.607  10.425 -0.0450  0.1146 -0.7062
    1Sil     Ob  263   1.939   5.726  10.254  0.3983 -0.5139 -0.3833
    1Sil     Ob  264   1.611   5.776  10.071 -0.4077 -0.5817 -0.3050
    1Sil     Ob  265   2.197   2.962  10.115  0.2873 -0.1735 -0.2115
    1Sil     Ob  266   2.379   2.919  10.291 -0.2122 -0.0440 -0.1300
    1Sil     Ob  267   2.328   3.095  10.471 -0.6673 -0.0845  0.1584
    1Sil     Ob  268   2.080   3.040  10.422  0.3818 -0.6580  0.7291
    1Sil     Ob  269   2.447   3.171  10.258 -0.2304  0.3825 -0.3838
    1Sil     Ob  270   2.132   3.215  10.075  0.0805  0.3163 -0.2271
    1Sil     Ob  271   2.199   3.820  10.125  0.8456 -0.2168  0.0484
    1Sil     Ob  272   2.388   3.772  10.294 -0.0933  0.1652  0.0502
    1Sil     Ob  273   2.330   3.952  10.468  0.0668  0.4225 -0.2369
    1Sil     Ob  274   2.078   3.884  10.426 -0.0502 -0.2209 -0.7428
    1Sil     Ob  275   2.455   4.028  10.256  0.2151 -0.4390  0.5404
    1Sil     Ob  276   2.116   4.071  10.072 -0.1353 -0.2172 -0.1530
    1Sil     Ob  277   2.179   4.671  10.123  0.1489  0.0848 -0.4074
    1Sil     Ob  278   2.388   4.633  10.288  0.2767  0.1291  0.3419
    1Sil     Ob  279   2.329   4.804  10.476 -0.1133 -0.5944  0.1354
    1Sil     Ob  280   2.068   4.755  10.425 -0.3876  0.0685  0.0926
    1Sil     Ob  281   2.436   4.883  10.255  0.4970 -0.5807  0.0198
    1Sil     Ob  282   2.117   4.921  10.068 -0.1921  0.0025  0.0994
    1Sil     Ob  283   2.187   5.532  10.126 -0.5066  0.1715  0.1197
    1Sil     Ob  284   2.369   5.476  10.296 -0.0996  0.1909 -0.2512
    1Sil     Ob  285   2.332   5.660  10.470  0.3444  0.9207 -0.4304
    1Sil     Ob  286   2.063   5.586  10.440  0.3797  0.1845  0.0169
    1Sil     Ob  287   2.453   5.720  10.250 -0.1574 -0.0652 -0.4048
    1Sil     Ob  288   2.125   5.770  10.077 -0.0662  0.3453 -0.2276
    1Sil     Ob  289   2.711   2.960  10.113 -0.5029 -1.4206 -0.1422
    1Sil     Ob  290   2.902   2.924  10.289 -0.1605  0.4333 -0.0005
    1Sil     Ob  291   2.840   3.102  10.467 -0.7543  0.5712  0.0652
    1Sil     Ob  292   2.580   3.024  10.425 -0.1028  0.1104  0.2432
    1Sil     Ob  293   2.966   3.169  10.247  0.0213  0.6385  0.1531
    1Sil     Ob  294   2.635   3.214  10.067 -0.3145 -0.0456 -0.0913
    1Sil     Ob  295   2.710   3.820  10.118 -0.8849 -0.1171  0.3638
    1Sil     Ob  296   2.895   3.786  10.305  0.1770 -0.0240  0.1202
    1Sil     Ob  297   2.834   3.972  10.478  0.5895 -0.1575  0.6512
    1Sil     Ob  298   2.579   3.892  10.441 -0.1885  0.0111  0.0159
    1Sil     Ob  299   2.960   4.030  10.250  0.1908  0.7606  0.2836
    1Sil     Ob  300   2.649   4.074  10.089 -0.2968  0.2873 -0.2143
    1Sil     Ob  301   2.705   4.678  10.122  0.1968  0.3204  0.3357
    1Sil     Ob  302   2.894   4.626  10.293  0.0017  0.4291 -0.2441
    1Sil     Ob  303   2.846   4.809  10.471 -0.0610  0.4237 -0.0029
    1Sil     Ob  304   2.590   4.745  10.422  0.5841 -0.0308 -0.3488
    1Sil     Ob  305   2.964   4.875  10.258  0.5500  0.3544 -0.3316
    1Sil     Ob  306   2.630   4.926  10.074 -0.1905  0.0228  0.1919
    1Sil     Ob  307   2.706   5.520  10.125 -0.2389 -0.9418  0.5982
    1Sil     Ob  308   2.893   5.473  10.294  0.0639  0.7201 -0.3277
    1Sil     Ob  309   2.829   5.653  10.469  0.0644 -0.1974 -0.0705
    1Sil     Ob  310   2.581   5.582  10.423 -0.3456  0.6689 -0.1614
    1Sil     Ob  311   2.952   5.717  10.248  0.0252 -0.4506  0.6574
    1Sil     Ob  312   2.645   5.773  10.071 -0.2803 -0.4317 -0.1177
    1Sil     Ob  313  -0.360   2.962  10.118  0.0439  0.1521 -0.4433
    1Sil     Ob  314  -0.174   2.919  10.292  0.2009  0.1813  0.1022
    1Sil     Ob  315  -0.234   3.089  10.471 -0.5961 -0.4611  0.3479
    1Sil     Ob  316   3.088   3.032  10.417 -0.4931 -0.3928 -0.1762
    1Sil     Ob  317  -0.101   3.169  10.255 -0.4157 -0.4003 -0.2494
    1Sil     Ob  318  -0.415   3.218  10.087  0.0980  0.1838  0.6696
    1Sil     Ob  319  -0.348   3.819  10.112  0.5038 -0.1521 -0.9359
    1Sil     Ob  320  -0.161   3.778  10.292  0.0879  0.4350 -0.7632
    1Sil     Ob  321  -0.222   3.949  10.479  0.0373 -0.1037 -0.4270
    1Sil     Ob  322   3.088   3.899  10.434  0.3543 -0.0963  0.3472
    1Sil     Ob  323  -0.096   4.026  10.261  0.0983 -0.4867 -0.5676
    1Sil     Ob  324  -0.429   4.068  10.072 -0.5640 -0.1111 -0.3934
    1Sil     Ob  325  -0.361   4.658  10.118 -0.4975 -0.5901 -0.6239
    1Sil     Ob  326  -0.171   4.626  10.296 -0.5702  0.2000  0.3922
    1Sil     Ob  327  -0.222   4.807  10.462  0.4580  0.3613  0.2225
    1Sil     Ob  328   3.092   4.727  10.445  0.0610  0.0212  0.0081
    1Sil     Ob  329  -0.096   4.874  10.246 -0.4483 -0.5279  0.0367
    1Sil     Ob  330  -0.431   4.915  10.071  0.0688  0.5271  0.1750
    1Sil     Ob  331  -0.348   5.541  10.127  0.0460  0.6414  0.3435
    1Sil     Ob  332  -0.167   5.484  10.293 -0.1456  0.5774  0.2478
    1Sil     Ob  333  -0.223   5.674  10.461  0.2892  0.0931 -0.2240
    1Sil     Ob  334   3.093   5.595  10.431 -0.0034  0.4363 -0.5199
    1Sil     Ob  335  -0.099   5.729  10.241  0.3483 -0.5218  0.1614
    1Sil     Ob  336  -0.424   5.781  10.073  0.3386  0.6167 -0.0388
    1Sil     Ob  337   0.160   2.958  10.651 -0.3623 -0.0373 -0.1393
    1Sil     Ob  338   0.346   2.913  10.818  0.0060  0.0654  0.0696
    1Sil     Ob  339   0.401   3.157  10.775 -0.3270  0.6041  0.3052
    1Sil     Ob  340   0.087   3.207  10.593  0.0805  0.0828 -0.7800
    1Sil     Ob  341   0.153   3.794  10.629  0.8269  0.6400 -0.0462
    1Sil     Ob  342   0.320   3.772  10.833 -0.0090  0.1666  0.1374
    1Sil     Ob  343   0.427   4.008  10.758  0.4580 -0.1268 -0.6368
    1Sil     Ob  344   0.094   4.050  10.605  0.5208  0.1481 -0.0732
    1Sil     Ob  345   0.144   4.646  10.631 -0.5779 -0.1659 -0.1780
    1Sil     Ob  346   0.300   4.620  10.833  0.1614  0.4976 -0.3894
    1Sil     Ob  347   0.404   4.859  10.772 -0.7293  0.1239  0.7493
    1Sil     Ob  348   0.078   4.907  10.600  0.4389  0.4119 -0.2575
    1Sil     Ob  349   0.141   5.512  10.637  0.0240 -0.4740  0.0109
    1Sil     Ob  350   0.310   5.482  10.828 -0.0835  0.6240 -0.6070
    1Sil     Ob  351   0.419   5.716  10.765  0.5738 -0.0729  0.2470
    1Sil     Ob  352   0.096   5.764  10.614  0.0719 -0.2157  0.0433
    1Sil     Ob  353   0.661   2.946  10.634  0.4007 -0.1830 -0.0343
    1Sil     Ob  354   0.842   2.922  10.838 -0.2364  0.2815 -0.4200
    1Sil     Ob  355   0.936   3.161  10.766 -0.4046 -0.5642 -0.1700
    1Sil     Ob  356   0.603   3.209  10.611  0.4960 -0.7505 -0.4879
    1Sil     Ob  357   0.669   3.809  10.634  0.0048  0.4011 -0.0891
    1Sil     Ob  358   0.831   3.767  10.829 -0.1711  0.1542  0.6868
    1Sil     Ob  359   0.914   4.007  10.772 -0.3262  0.2624  0.8241
    1Sil     Ob  360   0.609   4.060  10.600  0.0688 -0.0351 -0.0427
    1Sil     Ob  361   0.655   4.634  10.623  0.0335  0.0126 -0.2029
    1Sil     Ob  362   0.813   4.623  10.830 -0.1387  0.4577 -0.2539
    1Sil     Ob  363   0.912   4.870  10.790 -0.1424 -0.7681 -0.5303
    1Sil     Ob  364   0.596   4.902  10.594 -0.7870 -0.0563  0.6644
    1Sil     Ob  365   0.682   5.526  10.646  0.7244  0.3645  0.1407
    1Sil     Ob  366   0.870   5.466  10.822  0.7697  0.6029 -0.1113
    1Sil     Ob  367   0.919   5.720  10.792  0.4970 -0.9460 -0.3662
    1Sil     Ob  368   0.608   5.777  10.614 -0.2934 -0.0503  0.1702
    1Sil     Ob  369   1.169   2.946  10.634 -0.5997  0.1007 -0.5831
    1Sil     Ob  370   1.330   2.927  10.835 -0.0151  0.2290  0.1261
    1Sil     Ob  371   1.420   3.166  10.773  0.2266  0.3951  0.1228
    1Sil     Ob  372   1.128   3.205  10.607 -0.3332 -0.0068 -0.4426
    1Sil     Ob  373   1.165   3.805  10.641  0.0244 -0.3604 -0.1958
    1Sil     Ob  374   1.348   3.770  10.819 -0.1905 -0.4491 -1.0156
    1Sil     Ob  375   1.434   4.016  10.755 -0.1350 -0.0167  0.2822
    1Sil     Ob  376   1.107   4.050  10.594  0.7068  0.0353 -0.7685
    1Sil     Ob  377   1.171   4.672  10.635  0.3533 -0.2385  0.9553
    1Sil     Ob  378   1.346   4.617  10.820 -0.0060 -0.1574 -0.5253
    1Sil     Ob  379   1.414   4.868  10.778 -0.1678 -0.2886 -0.1615
    1Sil     Ob  380   1.101   4.913  10.594 -0.0823  0.4467 -0.1767
    1Sil     Ob  381   1.169   5.527  10.650  0.1761  0.1507 -0.3626
    1Sil     Ob  382   1.338   5.480  10.836  0.4648  0.9315 -0.1759
    1Sil     Ob  383   1.411   5.734  10.789 -0.5121  0.1416 -0.0618
    1Sil     Ob  384   1.109   5.770  10.612  0.5283 -0.6460 -0.3438
    1Sil     Ob  385   1.689   2.938  10.621  0.6255 -0.2523  0.0383
    1Sil     Ob  386   1.856   2.905  10.834 -0.2098 -0.0547  0.0655
    1Sil     Ob  387   1.931   3.152  10.787  0.4321  0.4493  0.0180
    1Sil     Ob  388   1.626   3.204  10.615  0.0626  0.3037  0.5268
    1Sil     Ob  389   1.684   3.796  10.639 -0.3212 -0.2469  0.1706
    1Sil     Ob  390   1.862   3.758  10.833 -0.4998 -0.5018  0.5195
    1Sil     Ob  391   1.953   4.007  10.774 -0.2552 -0.2626  0.0513
    1Sil     Ob  392   1.630   4.051  10.599  0.3626  0.0578  0.0108
    1Sil     Ob  393   1.674   4.658  10.623 -0.0194  0.4703 -0.6272
    1Sil     Ob  394   1.848   4.617  10.812 -0.5497  0.4214  0.1077
    1Sil     Ob  395   1.935   4.870  10.776 -0.4275  0.7983 -0.3289
    1Sil     Ob  396   1.619   4.915  10.631  0.5346 -0.0053  0.6492
    1Sil     Ob  397   1.677   5.500  10.623 -0.1669 -0.3671 -0.1712
    1Sil     Ob  398   1.835   5.480  10.827  0.1888  0.6430  0.3613
    1Sil     Ob  399   1.935   5.716  10.766  0.3277  0.0552 -0.1187
    1Sil     Ob  400   1.617   5.762  10.621  0.0321 -0.4496  0.3052
    1Sil     Ob  401   2.197   2.935  10.631  0.0262  0.4272 -0.1586
    1Sil     Ob  402   2.352   2.909  10.844 -0.3289 -0.0436  0.4737
    1Sil     Ob  403   2.438   3.154  10.776 -0.1338 -0.4618 -0.5554
    1Sil     Ob  404   2.131   3.197  10.623  0.0142 -0.4204  0.4139
    1Sil     Ob  405   2.195   3.810  10.646 -0.1524 -0.2966  0.4766
    1Sil     Ob  406   2.365   3.768  10.851  0.2389 -0.3159  0.2070
    1Sil     Ob  407   2.442   4.015  10.784 -0.1046 -0.0352  0.7612
    1Sil     Ob  408   2.133   4.062  10.602  0.0888  0.1330  0.0843
    1Sil     Ob  409   2.186   4.670  10.639 -0.1074  0.1822  0.8026
    1Sil     Ob  410   2.348   4.624  10.827 -0.3485 -0.0856 -0.2342
    1Sil     Ob  411   2.447   4.868  10.757  0.5492  0.3552  0.1755
    1Sil     Ob  412   2.130   4.924  10.605 -0.3285  0.4112 -0.1025
    1Sil     Ob  413   2.207   5.506  10.631 -0.2452 -0.1815 -0.6457
    1Sil     Ob  414   2.361   5.464  10.825  0.2695  0.6479 -0.0334
    1Sil     Ob  415   2.452   5.702  10.777  0.6103  0.3472 -0.4456
    1Sil     Ob  416   2.141   5.762  10.608  0.0559  0.1538 -0.1116
    1Sil     Ob  417   2.704   2.954  10.643  0.1472  0.8767 -0.2846
    1Sil     Ob  418   2.891   2.926  10.832  0.0413 -0.4355  0.1035
    1Sil     Ob  419   2.948   3.172  10.780  0.1597  0.1288 -0.2667
    1Sil     Ob  420   2.633   3.201  10.604  0.4447 -0.1843  0.0984
    1Sil     Ob  421   2.704   3.823  10.654  0.0744 -0.1342  0.0999
    1Sil     Ob  422   2.867   3.769  10.855  0.3402 -0.5831  0.0790
    1Sil     Ob  423   2.962   4.005  10.784  0.3644 -0.1869 -0.2870
    1Sil     Ob  424   2.637   4.068  10.622  0.1809 -0.1602 -0.1887
    1Sil     Ob  425   2.704   4.660  10.639  0.5626  0.2750  0.7602
    1Sil     Ob  426   2.864   4.621  10.828 -0.3461 -0.4055 -0.2979
    1Sil     Ob  427   2.968   4.861  10.763 -0.0939  0.4152 -0.1918
    1Sil     Ob  428   2.648   4.923  10.611 -0.0297  0.1340  0.2460
    1Sil     Ob  429   2.705   5.515  10.644 -0.5771 -0.2554 -0.4264
    1Sil     Ob  430   2.892   5.484  10.832 -0.2041 -0.2727  0.2584
    1Sil     Ob  431   2.959   5.729  10.783 -0.3922  0.0401  0.0754
    1Sil     Ob  432   2.647   5.756  10.613  0.1838  0.2712 -0.1385
    1Sil     Ob  433   3.193   2.955  10.629 -0.5092 -0.7762 -0.2210
    1Sil     Ob  434   3.356   2.941  10.829 -0.6636 -0.1770 -0.0664
    1Sil     Ob  435   3.465   3.169  10.776 -0.4563  0.2895  0.5152
    1Sil     Ob  436   3.145   3.210  10.602 -0.3239 -0.0085 -0.0249
    1Sil     Ob  437   3.213   3.808  10.645  0.8906  0.1679 -0.2583
    1Sil     Ob  438   3.383   3.772  10.844  0.5035  0.2773 -0.2455
    1Sil     Ob  439   3.474   4.007  10.778 -0.0506  0.0941 -0.3459
    1Sil     Ob  440   3.170   4.052  10.633  0.2338  0.2395 -0.1851
    1Sil     Ob  441   3.225   4.667  10.655 -0.2412  0.0317  0.4461
    1Sil     Ob  442   3.405   4.618  10.836  0.4941 -0.5663  0.1639
    1Sil     Ob  443   3.456   4.869  10.778  0.5047 -0.3923  0.0781
    1Sil     Ob  444   3.164   4.918  10.597 -0.0867  0.5793 -0.2065
    1Sil     Ob  445   3.233   5.531  10.653 -0.3132  0.3478 -0.2038
    1Sil     Ob  446   3.412   5.481  10.835  0.0447  0.9236  0.5247
    1Sil     Ob  447   3.475   5.723  10.785 -0.0416  0.4612 -0.0125
    1Sil     Ob  448   3.157   5.779  10.607  0.2651 -0.1475 -0.6159
    1Sil     Ob  449   0.410   3.403   9.587 -0.1509 -0.1838 -0.0479
    1Sil     Ob  450   0.087   3.350   9.783  0.0929  0.6127 -0.0153
    1Sil     Ob  451   0.034   3.538   9.952  0.3691 -0.0119 -0.2378
    1Sil     Ob  452   0.288   3.457   9.910  0.3799  0.1912  0.6775
    1Sil     Ob  453   0.155   3.605   9.736 -0.0574 -0.6382  0.3736
    1Sil     Ob  454   0.318   3.646   9.534 -0.0265 -0.4587  0.1212
    1Sil     Ob  455   0.416   4.247   9.576  0.3467  0.3070  0.3031
    1Sil     Ob  456   0.090   4.203   9.763  0.1714 -0.0344 -0.4904
    1Sil     Ob  457   0.040   4.383   9.939 -0.0217  0.1740  0.2309
    1Sil     Ob  458   0.299   4.298   9.896  0.1491 -0.1898 -0.1534
    1Sil     Ob  459   0.161   4.444   9.730  0.3437 -0.4806 -0.1672
    1Sil     Ob  460   0.337   4.492   9.541 -0.3363 -0.3111  0.0598
    1Sil     Ob  461   0.399   5.110   9.601 -0.3989  0.1119 -0.1853
    1Sil     Ob  462   0.097   5.064   9.753 -0.1428 -0.3345 -0.0512
    1Sil     Ob  463   0.043   5.236   9.951 -0.0920  0.3351  0.1764
    1Sil     Ob  464   0.291   5.176   9.884 -0.6233 -0.2362 -0.7256
    1Sil     Ob  465   0.157   5.327   9.737 -0.2224  0.0946 -0.0802
    1Sil     Ob  466   0.315   5.363   9.539 -0.2552 -0.0792  0.3072
    1Sil     Ob  467   0.414   5.976   9.594  0.5103  0.0320  0.1593
    1Sil     Ob  468   0.105   2.509   9.754  0.2381  0.0272  0.2259
    1Sil     Ob  469   0.041   2.672   9.943  0.0232  0.6981  0.0787
    1Sil     Ob  470   0.299   2.609   9.900 -0.0613 -0.2236  0.2028
    1Sil     Ob  471   0.161   2.769   9.733  0.9052 -0.4392  0.5403
    1Sil     Ob  472   0.322   2.803   9.531 -0.4324  0.0583  0.5066
    1Sil     Ob  473   0.932   3.407   9.598 -0.2538  0.4174  0.2371
    1Sil     Ob  474   0.613   3.358   9.744 -0.3016 -0.2960  0.7452
    1Sil     Ob  475   0.536   3.526   9.932 -0.5937  0.1793  0.3883
    1Sil     Ob  476   0.795   3.452   9.894 -0.1911 -0.5596  0.3029
    1Sil     Ob  477   0.661   3.607   9.735 -0.3200  0.2561 -0.0961
    1Sil     Ob  478   0.821   3.631   9.529 -0.1800 -0.0934  0.1659
    1Sil     Ob  479   0.928   4.251   9.587  0.4799 -0.1489 -0.7306
    1Sil     Ob  480   0.601   4.205   9.751 -0.0345 -0.1104  0.3969
    1Sil     Ob  481   0.548   4.384   9.941 -0.1940  0.6202 -0.0620
    1Sil     Ob  482   0.792   4.308   9.890  0.0828  0.4365 -0.3681
    1Sil     Ob  483   0.657   4.462   9.720  0.6289 -0.4533  0.1880
    1Sil     Ob  484   0.838   4.488   9.520 -0.3980  0.1357  0.0154
    1Sil     Ob  485   0.916   5.110   9.600 -0.0452  0.4118 -0.1115
    1Sil     Ob  486   0.612   5.062   9.749 -0.7969  0.0442  0.0243
    1Sil     Ob  487   0.545   5.232   9.946 -0.5022 -0.1755 -0.5168
    1Sil     Ob  488   0.801   5.162   9.902  0.1600 -0.0472 -0.0383
    1Sil     Ob  489   0.672   5.323   9.743 -0.4382 -0.0850 -0.4521
    1Sil     Ob  490   0.824   5.350   9.529  0.2180 -0.1222 -0.3101
    1Sil     Ob  491   0.914   5.959   9.592  0.8141 -0.6179 -0.1944
    1Sil     Ob  492   0.603   5.916   9.769  0.2852  0.2154  0.3344
    1Sil     Ob  493   0.548   2.677   9.953  0.0671  0.2496  0.3125
    1Sil     Ob  494   0.805   2.607   9.904 -0.3576 -0.4791  0.2234
    1Sil     Ob  495   0.669   2.756   9.744 -0.6684  0.3949  0.0974
    1Sil     Ob  496   0.827   2.793   9.528  0.2957  0.5246  0.1152
    1Sil     Ob  497   1.429   3.407   9.585  0.9653  0.1649 -0.3298
    1Sil     Ob  498   1.128   3.353   9.760  0.3128  0.6519  0.3490
    1Sil     Ob  499   1.055   3.532   9.938  0.0727  0.0857 -0.2646
    1Sil     Ob  500   1.317   3.459   9.898  0.3632  0.2795 -0.2768
    1Sil     Ob  501   1.183   3.614   9.728 -0.2179  0.3039 -0.0837
    1Sil     Ob  502   1.339   3.651   9.524 -0.3814  0.0935  0.3991
    1Sil     Ob  503   1.441   4.256   9.585 -0.1518  0.1876 -0.0718
    1Sil     Ob  504   1.116   4.206   9.756  0.1312  0.0968  1.0887
    1Sil     Ob  505   1.059   4.368   9.937 -0.3184  0.1072 -0.2957
    1Sil     Ob  506   1.316   4.306   9.896  0.2137 -0.0559  0.0668
    1Sil     Ob  507   1.180   4.444   9.718  0.7349 -0.0422  0.0775
    1Sil     Ob  508   1.353   4.503   9.538 -0.1331 -0.2091  0.5078
    1Sil     Ob  509   1.446   5.114   9.606 -0.4919 -0.6135 -0.3669
    1Sil     Ob  510   1.125   5.067   9.749 -0.4409  0.6960  0.1819
    1Sil     Ob  511   1.055   5.234   9.941  0.0873  0.0732  0.2291
    1Sil     Ob  512   1.315   5.165   9.893 -0.4679  0.0786 -0.3429
    1Sil     Ob  513   1.175   5.315   9.730 -0.0657 -0.0367  0.7487
    1Sil     Ob  514   1.340   5.348   9.533 -0.0324  0.0018  0.7127
    1Sil     Ob  515   1.430   5.962   9.587 -0.6335 -0.3159  0.0547
    1Sil     Ob  516   1.118   5.913   9.752 -0.7707  0.0395 -0.4719
    1Sil     Ob  517   1.058   2.677   9.940  0.0907 -0.3388  0.0147
    1Sil     Ob  518   1.308   2.614   9.898  0.4009  0.1811  0.0245
    1Sil     Ob  519   1.178   2.755   9.728  0.8470  0.3169 -0.1251
    1Sil     Ob  520   1.349   2.794   9.535  0.2987 -0.5865 -0.0909
    1Sil     Ob  521   1.964   3.424   9.584  0.0044 -0.4754  0.0645
    1Sil     Ob  522   1.630   3.349   9.744 -0.4622 -0.2614 -0.1693
    1Sil     Ob  523   1.574   3.520   9.946 -0.3858 -0.1332 -0.1773
    1Sil     Ob  524   1.827   3.449   9.892 -0.0867  0.1944  0.0060
    1Sil     Ob  525   1.682   3.608   9.730 -0.3839  0.3546  0.1224
    1Sil     Ob  526   1.863   3.652   9.538  0.5469 -0.1602  0.1745
    1Sil     Ob  527   1.947   4.258   9.594  0.0782 -0.1395  0.5285
    1Sil     Ob  528   1.633   4.201   9.748  0.4069 -0.6536  0.4109
    1Sil     Ob  529   1.570   4.365   9.944 -0.4181 -0.7592  0.1972
    1Sil     Ob  530   1.818   4.310   9.893 -1.0940 -0.1301  0.4206
    1Sil     Ob  531   1.695   4.468   9.732 -0.2357  0.2719  0.0511
    1Sil     Ob  532   1.872   4.499   9.527 -0.1943  0.1241  0.4120
    1Sil     Ob  533   1.952   5.102   9.579  0.4551  0.2247  0.1867
    1Sil     Ob  534   1.634   5.046   9.769 -0.4016 -0.0819 -0.0282
    1Sil     Ob  535   1.569   5.231   9.951 -0.0810  0.1204 -0.6139
    1Sil     Ob  536   1.823   5.172   9.900  0.7140  0.0558  0.6196
    1Sil     Ob  537   1.689   5.302   9.731 -0.3216 -0.1318 -0.3411
    1Sil     Ob  538   1.857   5.347   9.531 -0.3556 -0.6622  0.0899
    1Sil     Ob  539   1.939   5.957   9.606  0.4446  0.3308 -0.1190
    1Sil     Ob  540   1.626   5.930   9.765  0.0437 -0.5217  0.4466
    1Sil     Ob  541   1.555   2.694   9.938 -0.1221  0.1784 -0.0856
    1Sil     Ob  542   1.819   2.618   9.902  0.2492 -0.3742 -0.1710
    1Sil     Ob  543   1.691   2.775   9.740 -0.3749  0.3192  0.1763
    1Sil     Ob  544   1.856   2.790   9.532  0.4546  0.5468 -0.3980
    1Sil     Ob  545   2.460   3.404   9.604 -1.1843  0.4071 -0.5390
    1Sil     Ob  546   2.154   3.366   9.753 -0.6418 -0.3442  0.3828
    1Sil     Ob  547   2.078   3.535   9.939  0.0143  0.3764  0.2473
    1Sil     Ob  548   2.336   3.458   9.902 -0.6523  0.4313 -0.4858
    1Sil     Ob  549   2.206   3.611   9.728 -0.0606  0.0857  0.5247
    1Sil     Ob  550   2.384   3.644   9.545 -0.3662 -0.6891  0.3070
    1Sil     Ob  551   2.460   4.263   9.599  0.2194 -0.6074  0.5041
    1Sil     Ob  552   2.137   4.203   9.763 -0.3795  0.1169 -0.2591
    1Sil     Ob  553   2.075   4.382   9.938 -0.4107  0.2194 -0.2297
    1Sil     Ob  554   2.329   4.312   9.903  0.1744  0.1821 -0.0566
    1Sil     Ob  555   2.185   4.464   9.735  0.2949  0.7670 -0.0159
    1Sil     Ob  556   2.345   4.493   9.536 -0.3942 -0.1404  0.3015
    1Sil     Ob  557   2.446   5.105   9.593 -0.0231  0.0057  0.3893
    1Sil     Ob  558   2.121   5.065   9.773 -0.0100 -0.1445 -0.0771
    1Sil     Ob  559   2.066   5.246   9.956 -0.0416  0.3400 -0.1856
    1Sil     Ob  560   2.326   5.175   9.906  0.3808  0.4615  0.2414
    1Sil     Ob  561   2.180   5.320   9.736 -0.4352  0.2394 -0.5657
    1Sil     Ob  562   2.359   5.346   9.543  0.5093  0.4096 -0.0018
    1Sil     Ob  563   2.454   5.962   9.599 -0.4682  0.5516  0.2973
    1Sil     Ob  564   2.133   5.906   9.766 -0.3325 -0.1118 -0.1242
    1Sil     Ob  565   2.081   2.670   9.952 -0.1469 -0.0460 -0.6995
    1Sil     Ob  566   2.333   2.608   9.893  0.3978  0.0018 -0.0305
    1Sil     Ob  567   2.186   2.746   9.739 -0.1694  0.0006 -0.0060
    1Sil     Ob  568   2.352   2.791   9.536  0.2063 -0.1014 -0.0374
    1Sil     Ob  569  -0.606   3.409   9.599 -0.0509 -0.4993 -0.3600
    1Sil     Ob  570   2.631   3.354   9.794 -0.4320 -0.5534  0.1629
    1Sil     Ob  571   2.587   3.541   9.957 -0.4218  0.6912  0.0613
    1Sil     Ob  572   2.842   3.461   9.905 -0.2599  0.5181  0.5105
    1Sil     Ob  573   2.708   3.590   9.729 -0.0331 -0.2320 -0.0477
    1Sil     Ob  574   2.886   3.644   9.539 -0.2216  0.0478  0.2642
    1Sil     Ob  575  -0.604   4.256   9.588 -0.2942 -0.4296 -0.4348
    1Sil     Ob  576   2.646   4.212   9.762  0.6613  0.2385 -0.7478
    1Sil     Ob  577   2.583   4.391   9.939 -0.3206  0.3390 -0.0984
    1Sil     Ob  578   2.836   4.326   9.882 -0.2495  0.2722 -0.1587
    1Sil     Ob  579   2.704   4.459   9.724 -0.2240 -0.5925  0.3819
    1Sil     Ob  580   2.883   4.505   9.530 -0.4463 -0.2523 -0.2406
    1Sil     Ob  581  -0.600   5.105   9.585 -0.5881  0.2785 -0.1089
    1Sil     Ob  582   2.645   5.059   9.757 -0.2799  0.0767  0.1771
    1Sil     Ob  583   2.590   5.238   9.945  0.4929  0.1137  0.1921
    1Sil     Ob  584   2.844   5.169   9.894 -0.4749 -0.1051 -0.0449
    1Sil     Ob  585   2.712   5.316   9.730 -0.4431  0.1314 -0.1308
    1Sil     Ob  586   2.894   5.352   9.535 -0.7708 -0.1212  0.4170
    1Sil     Ob  587  -0.631   5.961   9.577 -0.1668  0.0632  0.0938
    1Sil     Ob  588   2.654   5.916   9.759  0.6865 -0.1306 -0.2546
    1Sil     Ob  589   2.586   2.675   9.941 -0.4942 -0.6635 -0.4240
    1Sil     Ob  590   2.840   2.607   9.894  0.1801  0.3353 -0.0607
    1Sil     Ob  591   2.712   2.747   9.711 -0.2016 -0.2464  0.0157
    1Sil     Ob  592   2.893   2.797   9.524  0.4727  0.4354 -0.1121
    1Sil     Ob  593  -0.097   3.397   9.602  0.3343 -0.3368  0.8475
    1Sil     Ob  594  -0.418   3.352   9.776 -0.2151 -0.3082 -0.2188
    1Sil     Ob  595  -0.473   3.525   9.950  0.0990  0.4385  0.2656
    1Sil     Ob  596  -0.223   3.464   9.909  1.1715 -0.1390  0.2762
    1Sil     Ob  597  -0.358   3.604   9.734  0.7582  0.6401  0.2879
    1Sil     Ob  598  -0.182   3.643   9.538  0.2777 -0.7651  0.1312
    1Sil     Ob  599  -0.097   4.241   9.588 -0.0175 -0.5153 -0.4166
    1Sil     Ob  600  -0.417   4.196   9.761  0.2573  0.0475  0.7251
    1Sil     Ob  601  -0.479   4.392   9.938 -0.2027 -0.1967  0.2109
    1Sil     Ob  602  -0.221   4.306   9.905  0.3252 -0.0938 -0.5867
    1Sil     Ob  603  -0.343   4.446   9.722  0.1099  0.0514 -0.4071
    1Sil     Ob  604  -0.166   4.492   9.544  0.4447  0.1774  0.5651
    1Sil     Ob  605  -0.105   5.108   9.602 -0.0131 -0.0528 -0.1460
    1Sil     Ob  606  -0.417   5.056   9.776 -0.5606 -0.3545 -0.3922
    1Sil     Ob  607  -0.473   5.233   9.950 -0.0266 -0.0493 -0.0626
    1Sil     Ob  608  -0.212   5.165   9.900  0.6098  0.4332 -0.9743
    1Sil     Ob  609  -0.353   5.311   9.734 -0.3273 -0.4284  0.0808
    1Sil     Ob  610  -0.185   5.349   9.538  0.7633 -0.0605 -0.0062
    1Sil     Ob  611  -0.095   5.967   9.591  0.7316  0.1682 -0.2417
    1Sil     Ob  612  -0.422   5.931   9.735  0.4676 -0.1093 -0.1912
    1Sil     Ob  613  -0.479   2.668   9.937  0.3264 -1.0813 -0.3556
    1Sil     Ob  614  -0.224   2.596   9.887 -0.0918 -0.4900 -0.7353
    1Sil     Ob  615  -0.360   2.763   9.731 -0.0909 -0.0042 -0.4657
    1Sil     Ob  616  -0.191   2.800   9.533  0.2040 -0.2556  0.4798
    1Sil     Ob  617   0.423   3.380  10.113 -0.2760 -0.0457  0.6735
    1Sil     Ob  618   0.085   3.345  10.301 -1.0450  0.3474  0.0586
    1Sil     Ob  619   0.020   3.535  10.458 -0.3272 -0.3472  0.4196
    1Sil     Ob  620   0.287   3.460  10.420 -0.0102 -0.2354  0.0628
    1Sil     Ob  621   0.154   3.588  10.246 -0.0324  0.8230 -0.0686
    1Sil     Ob  622   0.353   3.634  10.083 -0.3254 -0.7680  0.4831
    1Sil     Ob  623   0.417   4.245  10.113 -0.5270 -0.0477 -0.2579
    1Sil     Ob  624   0.090   4.203  10.311  0.4737 -0.3381  0.3871
    1Sil     Ob  625   0.029   4.381  10.472 -0.0236  0.2944 -0.3851
    1Sil     Ob  626   0.279   4.308  10.441 -0.0245 -0.0604 -0.1666
    1Sil     Ob  627   0.159   4.444  10.258  0.6028  0.0843 -0.2222
    1Sil     Ob  628   0.343   4.495  10.069 -0.2615  0.4587  0.0225
    1Sil     Ob  629   0.407   5.087  10.107  0.6792  0.1282  0.1253
    1Sil     Ob  630   0.085   5.053  10.303  0.2268 -0.8736  0.8074
    1Sil     Ob  631   0.023   5.232  10.469  0.4945 -0.4947 -0.3667
    1Sil     Ob  632   0.278   5.156  10.431  0.1328  0.4485  0.3653
    1Sil     Ob  633   0.157   5.305  10.247 -0.3204 -0.0922 -0.1690
    1Sil     Ob  634   0.348   5.343  10.067 -0.1691 -0.4408  0.2659
    1Sil     Ob  635   0.409   5.949  10.113  0.3046 -0.0749 -0.6394
    1Sil     Ob  636   0.072   2.498  10.314 -0.1671  0.9201 -1.0415
    1Sil     Ob  637   0.021   2.685  10.476 -0.3938 -0.1412  0.5130
    1Sil     Ob  638   0.272   2.595  10.439 -0.3199 -0.8858 -0.1550
    1Sil     Ob  639   0.157   2.736  10.250 -0.0330  0.4385  0.4184
    1Sil     Ob  640   0.359   2.789  10.083  0.2037 -0.0771  0.1489
    1Sil     Ob  641   0.919   3.398  10.118  0.1669 -0.3271 -0.0056
    1Sil     Ob  642   0.607   3.339  10.288 -0.4994  0.2629  0.0738
    1Sil     Ob  643   0.541   3.530  10.453 -0.1551 -0.3328  0.1507
    1Sil     Ob  644   0.810   3.459  10.411  0.3078 -0.3147 -0.0077
    1Sil     Ob  645   0.678   3.586  10.226  0.4387 -1.0826  0.4467
    1Sil     Ob  646   0.852   3.642  10.056  0.3983 -0.1885 -0.1358
    1Sil     Ob  647   0.926   4.234  10.106 -0.4346  0.0422 -0.9042
    1Sil     Ob  648   0.598   4.192  10.302  0.2929 -0.2297 -0.4432
    1Sil     Ob  649   0.545   4.382  10.460  0.1579 -0.2203  0.3129
    1Sil     Ob  650   0.801   4.294  10.426 -0.1770  0.0165 -0.0926
    1Sil     Ob  651   0.684   4.424  10.237 -0.1034  1.1231  0.6467
    1Sil     Ob  652   0.853   4.476  10.065  0.5787 -0.2481  0.4417
    1Sil     Ob  653   0.933   5.088  10.117 -0.2689  0.6396 -0.3819
    1Sil     Ob  654   0.591   5.043  10.291 -0.1580 -0.0637 -0.5260
    1Sil     Ob  655   0.529   5.232  10.466  0.4508 -0.3983  0.4707
    1Sil     Ob  656   0.789   5.157  10.432 -0.2148  0.2724 -0.1161
    1Sil     Ob  657   0.669   5.287  10.245  0.4317 -0.6552  0.2863
    1Sil     Ob  658   0.858   5.340  10.077  0.1389  0.3058 -0.5734
    1Sil     Ob  659   0.928   5.950  10.125  0.2964  0.3617 -0.1322
    1Sil     Ob  660   0.600   5.910  10.291  0.4865 -0.1126 -0.0781
    1Sil     Ob  661   0.532   2.676  10.458  0.1349  0.2199 -0.3558
    1Sil     Ob  662   0.785   2.606  10.438 -0.2054  0.2278 -0.2565
    1Sil     Ob  663   0.674   2.750  10.249  0.6986  0.1857  0.0440
    1Sil     Ob  664   0.871   2.785  10.079  0.8271  0.1492 -0.2733
    1Sil     Ob  665   1.443   3.390  10.111 -0.4686  0.3233 -0.5019
    1Sil     Ob  666   1.111   3.346  10.287 -0.0685 -0.3168 -0.6558
    1Sil     Ob  667   1.059   3.529  10.469 -0.2387 -0.1742 -0.1456
    1Sil     Ob  668   1.311   3.461  10.419 -0.2866 -0.1283 -0.0387
    1Sil     Ob  669   1.177   3.601  10.248 -0.6531 -0.1355  0.7571
    1Sil     Ob  670   1.369   3.633  10.073  0.6838 -0.3108  0.4795
    1Sil     Ob  671   1.426   4.236  10.117  0.7534 -0.0351  0.0389
    1Sil     Ob  672   1.104   4.188  10.293 -0.4176  0.5309  0.1415
    1Sil     Ob  673   1.060   4.372  10.468 -0.5272  0.1446  0.0624
    1Sil     Ob  674   1.317   4.297  10.420  0.1495 -0.2839 -0.2133
    1Sil     Ob  675   1.179   4.431  10.254 -0.1840 -0.3968  0.4861
    1Sil     Ob  676   1.368   4.493  10.078 -0.0007  0.7730 -0.3490
    1Sil     Ob  677   1.437   5.111  10.132  0.3879 -0.2855 -0.2548
    1Sil     Ob  678   1.115   5.040  10.291 -0.2909  0.0492  0.3352
    1Sil     Ob  679   1.045   5.239  10.456  0.8733 -0.1244 -0.0438
    1Sil     Ob  680   1.301   5.171  10.422 -0.0509  0.3489 -0.0766
    1Sil     Ob  681   1.179   5.304  10.241  0.4620  0.2280  0.3890
    1Sil     Ob  682   1.373   5.350  10.073 -0.3020  0.1066 -0.8980
    1Sil     Ob  683   1.434   5.963  10.119 -0.4426 -0.3774  0.4819
    1Sil     Ob  684   1.110   5.909  10.305  0.3642 -0.1889  0.1581
    1Sil     Ob  685   1.039   2.682  10.471 -0.4014 -0.0501 -0.0244
    1Sil     Ob  686   1.296   2.619  10.424  0.1647 -0.1611 -0.5191
    1Sil     Ob  687   1.172   2.745  10.246 -0.1039 -0.4414 -0.0067
    1Sil     Ob  688   1.360   2.797  10.073 -0.0308 -0.1105 -0.0399
    1Sil     Ob  689   1.953   3.394  10.112 -0.4010  0.2477  0.3070
    1Sil     Ob  690   1.625   3.344  10.292  0.3284 -0.5928  0.0924
    1Sil     Ob  691   1.563   3.521  10.460 -0.6245  0.0132  0.0059
    1Sil     Ob  692   1.819   3.444  10.437  0.5286 -0.6921 -0.0379
    1Sil     Ob  693   1.691   3.599  10.251 -0.1114 -0.6171  0.0094
    1Sil     Ob  694   1.873   3.635  10.066 -0.4719  0.4967  0.7472
    1Sil     Ob  695   1.952   4.244  10.118  0.0559 -0.1975 -0.3366
    1Sil     Ob  696   1.621   4.200  10.293 -0.1597  0.1649 -0.6322
    1Sil     Ob  697   1.573   4.378  10.462  0.0948 -0.5102  0.2058
    1Sil     Ob  698   1.827   4.304  10.421  0.3937  0.1614  0.0485
    1Sil     Ob  699   1.695   4.448  10.250  0.0689 -0.4225  0.1777
    1Sil     Ob  700   1.884   4.494  10.075  0.2215  0.0024  0.6273
    1Sil     Ob  701   1.931   5.104  10.123 -0.2963  0.5301  0.2565
    1Sil     Ob  702   1.617   5.060  10.294  1.1017  0.3255  0.2507
    1Sil     Ob  703   1.552   5.225  10.481  0.1613  0.4531  0.1731
    1Sil     Ob  704   1.808   5.160  10.436 -0.0092 -0.3762 -0.0326
    1Sil     Ob  705   1.676   5.314  10.272  0.3908 -0.3169  0.3140
    1Sil     Ob  706   1.854   5.354  10.081 -0.3537 -0.0808  0.1524
    1Sil     Ob  707   1.939   5.954  10.114 -0.3301  0.1102  0.4229
    1Sil     Ob  708   1.621   5.907  10.290  0.2489  0.4519  0.1470
    1Sil     Ob  709   1.558   2.669  10.469 -0.0329  0.2660 -0.2225
    1Sil     Ob  710   1.818   2.607  10.426 -0.2295 -0.0084 -0.4037
    1Sil     Ob  711   1.690   2.740  10.243 -0.0919 -0.4348  0.5227
    1Sil     Ob  712   1.888   2.794  10.086 -0.0417  0.3032  0.3024
    1Sil     Ob  713   2.462   3.390  10.128  0.0448  0.2751 -0.7141
    1Sil     Ob  714   2.148   3.354  10.282  0.3857 -0.1438 -0.6141
    1Sil     Ob  715   2.079   3.524  10.474  0.4443  0.4273 -0.0086
    1Sil     Ob  716   2.337   3.476  10.428  0.6580 -0.3423 -0.5609
    1Sil     Ob  717   2.200   3.603  10.251  0.2672  0.2085  0.2332
    1Sil     Ob  718   2.378   3.638  10.072  0.2898  0.5731  0.1426
    1Sil     Ob  719   2.459   4.252  10.121 -0.0618  0.1942  0.0275
    1Sil     Ob  720   2.139   4.198  10.291 -0.1172 -0.1835  0.0133
    1Sil     Ob  721   2.075   4.369  10.476 -0.2738 -0.0681  0.5406
    1Sil     Ob  722   2.336   4.304  10.430  0.3884 -0.0006  0.0078
    1Sil     Ob  723   2.196   4.445  10.251 -1.1947  0.1441  0.3599
    1Sil     Ob  724   2.372   4.490  10.070  0.1597  0.0640  0.2052
    1Sil     Ob  725   2.448   5.104  10.126 -0.2603  0.4856  0.3282
    1Sil     Ob  726   2.113   5.047  10.302 -0.0828  0.1021 -0.1265
    1Sil     Ob  727   2.074   5.222  10.475  0.4614  0.2259  0.0823
    1Sil     Ob  728   2.323   5.176  10.410  0.3249 -0.0887 -0.3838
    1Sil     Ob  729   2.176   5.306  10.252 -0.1138  0.1608 -0.6569
    1Sil     Ob  730   2.377   5.347  10.074  0.0151  0.2488  0.7978
    1Sil     Ob  731   2.455   5.950  10.116 -0.5330 -0.5540 -0.2234
    1Sil     Ob  732   2.118   5.915  10.296  0.4232 -0.4229 -0.0599
    1Sil     Ob  733   2.061   2.694  10.463 -0.4999 -0.1109 -0.3473
    1Sil     Ob  734   2.321   2.617  10.430  0.3328  0.2861 -0.2678
    1Sil     Ob  735   2.204   2.749  10.244 -0.0283  0.1520  0.1606
    1Sil     Ob  736   2.392   2.782  10.079 -0.0114  0.2797 -0.0874
    1Sil     Ob  737   2.959   3.396  10.126 -0.5024  0.1814  0.4240
    1Sil     Ob  738   2.649   3.349  10.290  0.5068  0.0232 -0.0213
    1Sil     Ob  739   2.579   3.536  10.475 -0.0376  0.1308  0.7341
    1Sil     Ob  740   2.837   3.460  10.428 -0.3149  0.6771 -0.5835
    1Sil     Ob  741   2.714   3.604  10.251  0.1139 -0.7835  0.0333
    1Sil     Ob  742   2.898   3.647  10.079 -0.0325  0.0872  0.4105
    1Sil     Ob  743   2.959   4.249  10.105  0.3278  0.2529  0.2139
    1Sil     Ob  744   2.629   4.208  10.315  0.3698  0.6119 -0.0602
    1Sil     Ob  745   2.589   4.392  10.487  0.4547 -0.4724  0.2115
    1Sil     Ob  746   2.830   4.322  10.431  0.4990  0.0972 -0.3019
    1Sil     Ob  747   2.696   4.454  10.258  0.3297 -0.6137 -0.2780
    1Sil     Ob  748   2.884   4.499  10.073 -0.0772 -0.4001  0.2193
    1Sil     Ob  749   2.966   5.104  10.125  0.2276  0.0618  0.3485
    1Sil     Ob  750   2.629   5.051  10.296  0.4650  0.2721 -0.0988
    1Sil     Ob  751   2.575   5.232  10.464 -0.2675 -0.7056  0.0895
    1Sil     Ob  752   2.833   5.167  10.424 -0.0273  0.5316 -0.1309
    1Sil     Ob  753   2.705   5.292  10.238 -0.0199  0.0285 -0.3624
    1Sil     Ob  754   2.896   5.346  10.067  0.1700  0.5764  0.7251
    1Sil     Ob  755   2.957   5.943  10.116  0.1020 -0.0497  0.0853
    1Sil     Ob  756   2.638   5.905  10.292  0.1392 -0.2873 -0.2288
    1Sil     Ob  757   2.578   2.682  10.455 -0.3646  0.3987  0.3309
    1Sil     Ob  758   2.837   2.605  10.434  0.1005  0.3220  0.0870
    1Sil     Ob  759   2.711   2.738  10.245 -0.3248  0.5570 -0.0284
    1Sil     Ob  760   2.901   2.788  10.070 -0.3540  0.0888 -0.1754
    1Sil     Ob  761  -0.098   3.400  10.124  0.5280 -0.4521  0.1852
    1Sil     Ob  762   3.138   3.359  10.303 -0.0397  0.0950  0.4934
    1Sil     Ob  763  -0.485   3.543  10.466  0.0274  0.1806  0.6679
    1Sil     Ob  764  -0.230   3.466  10.435 -0.5805  0.6386  0.1101
    1Sil     Ob  765  -0.352   3.599  10.243  0.1285 -0.4808 -0.1250
    1Sil     Ob  766  -0.161   3.648  10.071 -0.0294  0.4016  0.0978
    1Sil     Ob  767  -0.086   4.257  10.127 -0.2767  0.4777  0.1289
    1Sil     Ob  768   3.145   4.206  10.290  0.1622 -0.5111  0.3965
    1Sil     Ob  769  -0.477   4.381  10.466 -0.3478 -0.0985 -0.3997
    1Sil     Ob  770  -0.220   4.320  10.411 -0.1658  0.1005 -0.4561
    1Sil     Ob  771  -0.350   4.444  10.245  0.0386  0.0172  0.2644
    1Sil     Ob  772  -0.155   4.491  10.076 -0.4860 -0.0656 -0.1961
    1Sil     Ob  773  -0.095   5.096  10.121 -0.1571  0.1407 -0.3889
    1Sil     Ob  774   3.161   5.050  10.288  0.0041 -0.2355  0.1655
    1Sil     Ob  775  -0.483   5.232  10.447 -0.2842 -0.6896 -0.0135
    1Sil     Ob  776  -0.235   5.159  10.432 -0.2423 -0.5265 -0.3308
    1Sil     Ob  777  -0.348   5.300  10.243 -0.7873 -0.3082 -0.4643
    1Sil     Ob  778  -0.169   5.351  10.066  0.4843  0.1732 -0.1497
    1Sil     Ob  779  -0.101   5.952  10.117  0.7289 -0.5317  0.0262
    1Sil     Ob  780   3.141   5.905  10.295 -0.0117  0.6904 -0.8795
    1Sil     Ob  781  -0.494   2.687  10.463 -0.4783 -0.1273 -0.1329
    1Sil     Ob  782  -0.235   2.604  10.430 -0.3100  0.4730 -0.3337
    1Sil     Ob  783  -0.358   2.738  10.242  0.1379 -0.2980  0.1639
    1Sil     Ob  784  -0.160   2.782  10.071  0.4744 -0.2498 -0.2765
    1Sil     Ob  785   0.410   3.385  10.638 -0.0057  0.6646  1.2032
    1Sil     Ob  786   0.081   3.345  10.828 -0.0449 -0.3574 -0.3031
    1Sil     Ob  787   0.154   3.578  10.767 -0.0172 -0.7465 -0.6214
    1Sil     Ob  788   0.355   3.633  10.604 -0.5650 -0.3939 -0.2578
    1Sil     Ob  789   0.423   4.239  10.647 -0.0265  0.2974  0.0898
    1Sil     Ob  790   0.069   4.181  10.837  0.3572 -0.1763  0.7525
    1Sil     Ob  791   0.155   4.424  10.775  1.0008 -0.1285  0.7344
    1Sil     Ob  792   0.349   4.487  10.609 -0.2745  0.0137  0.0922
    1Sil     Ob  793   0.411   5.080  10.640  0.5794 -0.0706  0.0056
    1Sil     Ob  794   0.068   5.040  10.817 -0.2679  0.2502 -0.7322
    1Sil     Ob  795   0.139   5.296  10.777 -0.3449 -0.4705 -0.2913
    1Sil     Ob  796   0.344   5.335  10.607  0.2517 -0.1869  0.0848
    1Sil     Ob  797   0.409   5.941  10.641 -0.2830  0.2004  0.3827
    1Sil     Ob  798   0.059   2.512  10.825  0.6598  0.3125  0.1323
    1Sil     Ob  799   0.158   2.745  10.770 -0.1580  0.0082  0.3245
    1Sil     Ob  800   0.338   2.778  10.600  0.4696  0.1823  0.2923
    1Sil     Ob  801   0.934   3.385  10.632  0.6754  0.0018 -0.3842
    1Sil     Ob  802   0.576   3.342  10.822  0.0090  0.5028 -0.3268
    1Sil     Ob  803   0.662   3.585  10.761 -0.1625  0.1992 -0.1008
    1Sil     Ob  804   0.862   3.629  10.602 -0.1502 -0.8657 -0.5616
    1Sil     Ob  805   0.915   4.232  10.633  0.2539  0.4780 -0.6499
    1Sil     Ob  806   0.600   4.186  10.828  0.3767  0.2600 -0.0297
    1Sil     Ob  807   0.681   4.419  10.778 -0.1556  0.5791 -0.1946
    1Sil     Ob  808   0.873   4.485  10.614  0.7587 -0.5146  0.4245
    1Sil     Ob  809   0.920   5.102  10.650 -0.6918  0.1726 -0.3547
    1Sil     Ob  810   0.595   5.035  10.814  1.0931 -0.2288 -0.4516
    1Sil     Ob  811   0.671   5.291  10.771  0.1422 -0.2866 -0.2780
    1Sil     Ob  812   0.850   5.344  10.595  0.2179  0.6407 -0.3356
    1Sil     Ob  813   0.918   5.946  10.646  0.2799  0.0591 -0.0968
    1Sil     Ob  814   0.581   5.905  10.838 -0.1200 -0.0292  0.1356
    1Sil     Ob  815   0.660   2.740  10.789 -0.0907 -0.2038  0.3343
    1Sil     Ob  816   0.852   2.780  10.614  0.2067 -0.7029 -0.0707
    1Sil     Ob  817   1.422   3.382  10.628 -0.1050 -0.0019  0.1569
    1Sil     Ob  818   1.089   3.346  10.830 -0.2620  0.3942 -0.2166
    1Sil     Ob  819   1.175   3.587  10.779 -0.0160  0.1537  0.3053
    1Sil     Ob  820   1.366   3.635  10.597  0.2694  0.1511  0.1755
    1Sil     Ob  821   1.443   4.242  10.635  0.1323  0.0691 -0.1015
    1Sil     Ob  822   1.097   4.184  10.815  0.4751  0.4180  0.2722
    1Sil     Ob  823   1.172   4.438  10.757 -0.1931  0.1758  0.5140
    1Sil     Ob  824   1.363   4.490  10.586 -0.5468 -0.1680  0.0208
    1Sil     Ob  825   1.412   5.072  10.633 -0.1151  0.6405 -0.2530
    1Sil     Ob  826   1.106   5.046  10.824 -0.4871 -0.0178  0.3599
    1Sil     Ob  827   1.164   5.298  10.793  0.0465 -0.3110  0.2475
    1Sil     Ob  828   1.358   5.337  10.616 -0.0280 -0.0428 -0.4639
    1Sil     Ob  829   1.412   5.936  10.632 -0.6939  0.5029 -0.2193
    1Sil     Ob  830   1.095   5.911  10.834  0.5981 -0.3300 -0.0417
    1Sil     Ob  831   1.168   2.741  10.786  0.2535 -0.3092  0.3856
    1Sil     Ob  832   1.373   2.782  10.613  0.8954  0.5810  0.2544
    1Sil     Ob  833   1.946   3.372  10.645  0.1539 -0.0032  0.2758
    1Sil     Ob  834   1.596   3.346  10.828 -0.0038  0.2134 -0.5691
    1Sil     Ob  835   1.683   3.583  10.771 -0.3619 -0.3652  0.1541
    1Sil     Ob  836   1.879   3.619  10.611  0.3472  0.3169  0.2572
    1Sil     Ob  837   1.943   4.228  10.642  0.5328 -0.5130  0.3836
    1Sil     Ob  838   1.614   4.193  10.822 -0.1298 -0.1265  0.1380
    1Sil     Ob  839   1.668   4.446  10.770  0.1172  0.3290  0.1356
    1Sil     Ob  840   1.875   4.480  10.602  0.2931  0.1981 -0.2990
    1Sil     Ob  841   1.938   5.091  10.648  0.5319  0.0225 -0.3891
    1Sil     Ob  842   1.571   5.060  10.835 -0.1898 -0.0273  0.3999
    1Sil     Ob  843   1.679   5.286  10.768  0.3872  0.0210  0.7164
    1Sil     Ob  844   1.883   5.337  10.607 -0.3414  0.6731 -0.7523
    1Sil     Ob  845   1.945   5.934  10.636 -0.0923  0.3937  0.7254
    1Sil     Ob  846   1.586   5.914  10.833  0.4946 -0.0532  0.2531
    1Sil     Ob  847   1.681   2.730  10.780 -0.1131  0.1927  0.0795
    1Sil     Ob  848   1.880   2.775  10.617  0.0855  0.0842 -0.4631
    1Sil     Ob  849   2.445   3.380  10.644  0.4538 -0.1511  0.0415
    1Sil     Ob  850   2.102   3.329  10.848 -0.0859 -0.1573  0.3731
    1Sil     Ob  851   2.199   3.583  10.785 -0.0379 -0.1454 -0.2722
    1Sil     Ob  852   2.399   3.640  10.622 -0.1421  0.4041 -0.6399
    1Sil     Ob  853   2.458   4.258  10.667 -0.6614  0.3402 -0.4028
    1Sil     Ob  854   2.120   4.200  10.831 -0.0212  0.7062  0.3836
    1Sil     Ob  855   2.196   4.440  10.768  0.2203  0.0009  0.0115
    1Sil     Ob  856   2.385   4.495  10.605 -0.6774 -0.3332 -0.4618
    1Sil     Ob  857   2.446   5.078  10.619 -0.4970 -0.5768  0.1466
    1Sil     Ob  858   2.109   5.051  10.837  0.1262  0.3215  0.5116
    1Sil     Ob  859   2.192   5.284  10.771  0.2730 -0.2524  0.0946
    1Sil     Ob  860   2.389   5.334  10.610  0.4913  0.1352 -0.5991
    1Sil     Ob  861   2.451   5.923  10.619 -0.2977 -0.4528  1.1235
    1Sil     Ob  862   2.102   5.895  10.835 -0.1067 -0.3848  0.1873
    1Sil     Ob  863   2.189   2.725  10.775  0.2052  0.0081  0.4523
    1Sil     Ob  864   2.399   2.774  10.628  0.3663  0.2978 -0.3406
    1Sil     Ob  865   2.950   3.390  10.634  0.8023  0.4752  0.4621
    1Sil     Ob  866   2.621   3.345  10.834 -0.5462 -0.3438 -0.2487
    1Sil     Ob  867   2.695   3.589  10.782 -0.4588  0.2148  0.7098
    1Sil     Ob  868   2.890   3.642  10.614 -0.6172  0.0693  0.7715
    1Sil     Ob  869   2.964   4.222  10.636 -0.2661  0.8058  0.3881
    1Sil     Ob  870   2.630   4.192  10.850  0.6716 -0.6839  0.6138
    1Sil     Ob  871   2.703   4.436  10.792  0.4558 -0.0523 -0.1144
    1Sil     Ob  872   2.899   4.485  10.612  0.3449  0.2115 -0.4227
    1Sil     Ob  873   2.960   5.086  10.631  0.8381 -0.0261 -0.0820
    1Sil     Ob  874   2.591   5.070  10.828 -0.3589  0.4753  0.4086
    1Sil     Ob  875   2.699   5.303  10.772 -0.0385 -0.0911  0.6858
    1Sil     Ob  876   2.898   5.345  10.600  0.0332  0.5774  0.8754
    1Sil     Ob  877   2.961   5.955  10.637 -0.2972  0.4412  0.4312
    1Sil     Ob  878   2.612   5.904  10.836 -0.0672 -0.5793  0.3536
    1Sil     Ob  879   2.700   2.733  10.780 -0.1720  0.0281  0.4419
    1Sil     Ob  880   2.889   2.785  10.608 -0.2772  0.3870  0.2212
    1Sil     Ob  881  -0.098   3.392  10.650 -0.0303  0.5550 -0.3464
    1Sil     Ob  882   3.125   3.348  10.820 -0.3098  0.0397 -0.4550
    1Sil     Ob  883   3.212   3.593  10.769  0.4597 -0.3402 -0.2598
    1Sil     Ob  884   3.419   3.641  10.617  0.2877  0.0225  0.4609
    1Sil     Ob  885  -0.098   4.231  10.628  0.8589  0.2142  0.1891
    1Sil     Ob  886   3.117   4.210  10.845  0.3013  0.0095  0.1230
    1Sil     Ob  887   3.222   4.445  10.782  0.1129  0.6026 -0.2557
    1Sil     Ob  888   3.408   4.488  10.611 -0.1568 -0.7294 -0.2056
    1Sil     Ob  889  -0.109   5.093  10.642  0.5921 -0.3479  0.1744
    1Sil     Ob  890   3.140   5.053  10.831 -0.2428  0.0384  0.2633
    1Sil     Ob  891   3.215   5.305  10.787 -0.0980  0.1217 -0.1405
    1Sil     Ob  892   3.405   5.343  10.611 -0.5190 -0.1809 -0.3240
    1Sil     Ob  893  -0.104   5.937  10.629 -0.2660  0.2607  0.3100
    1Sil     Ob  894   3.127   5.909  10.829 -0.0598 -0.4111 -0.2589
    1Sil     Ob  895   3.195   2.743  10.790 -0.3523 -0.6112  0.6238
    1Sil     Ob  896   3.398   2.785  10.618 -0.4506 -0.4526  0.5742
    1Sil     Cm  897   0.064   3.054   9.310  0.9699 -0.7754 -0.4448
    1Sil     Cm  898   0.299   3.127   9.430 -0.2910 -0.1737 -0.5687
    1Sil     Cm  899   0.058   3.876   9.335  0.1411  0.6077  0.0518
    1Sil     Cm  900   0.289   3.960   9.417  0.5560 -0.1194 -0.0959
    1Sil     Cm  901   0.067   4.725   9.338  0.2378  0.0934 -0.2720
    1Sil     Cm  902   0.272   4.836   9.429  0.0154  0.0146  0.5899
    1Sil     Cm  903   0.034   5.581   9.360  0.0677  0.2077  0.2894
    1Sil     Cm  904   0.263   5.690   9.411  0.4554  0.0386  0.1709
    1Sil     Cm  905   0.610   3.027   9.333  0.4265  0.2112 -0.0779
    1Sil     Cm  906   0.793   3.147   9.462 -0.0495  0.0533 -0.0932
    1Sil     Cm  907   0.568   3.890   9.325  0.2956  0.5711 -0.7546
    1Sil     Cm  908   0.795   3.972   9.434  0.1216 -0.0807  0.3469
    1Sil     Cm  909   0.566   4.740   9.315 -0.6250  0.6058  0.3153
    1Sil     Cm  910   0.779   4.851   9.435 -0.1371  0.7834 -0.6989
    1Sil     Cm  911   0.552   5.588   9.386 -0.2598  0.1683 -0.8754
    1Sil     Cm  912   0.775   5.676   9.391 -0.0615  0.2708 -0.3797
    1Sil     Cm  913   1.081   3.022   9.345  0.2168 -0.2632  0.4823
    1Sil     Cm  914   1.317   3.124   9.411  0.5182  1.1037 -0.2902
    1Sil     Cm  915   1.090   3.881   9.330 -0.0317  0.4770 -0.3291
    1Sil     Cm  916   1.306   3.982   9.423 -0.0246 -0.8620  0.1013
    1Sil     Cm  917   1.030   4.713   9.320 -1.1617 -0.5432  0.4230
    1Sil     Cm  918   1.264   4.812   9.404 -0.6191  0.1055  0.4285
    1Sil     Cm  919   1.070   5.589   9.355 -1.0658 -0.0797  0.4724
    1Sil     Cm  920   1.290   5.692   9.441 -0.1848  0.2412 -0.2390
    1Sil     Cm  921   1.627   3.036   9.291  0.0081 -0.6566  0.0367
    1Sil     Cm  922   1.813   3.153   9.437  0.3642 -0.8140  0.1326
    1Sil     Cm  923   1.595   3.878   9.339  0.3868  0.2064  0.6033
    1Sil     Cm  924   1.824   3.973   9.415 -0.0462 -0.3444  1.1700
    1Sil     Cm  925   1.570   4.736   9.365 -0.3821 -0.3195  0.3191
    1Sil     Cm  926   1.804   4.835   9.400  0.2435 -0.4957 -0.0764
    1Sil     Cm  927   1.584   5.591   9.335  0.0028  0.1057  0.0463
    1Sil     Cm  928   1.820   5.670   9.434 -0.4076  0.5616  0.5145
    1Sil     Cm  929   2.078   3.017   9.330  1.2295 -0.3901  0.3196
    1Sil     Cm  930   2.299   3.108   9.431 -0.2275 -0.5639 -0.5744
    1Sil     Cm  931   2.113   3.893   9.329  0.4322  0.1749 -0.2039
    1Sil     Cm  932   2.329   3.985   9.430  1.3270  0.0389  0.4137
    1Sil     Cm  933   2.108   4.745   9.346 -0.3286  0.1587  0.3530
    1Sil     Cm  934   2.344   4.819   9.423  0.3634 -0.5207  0.0308
    1Sil     Cm  935   2.090   5.586   9.325 -0.0678 -0.3257 -0.5482
    1Sil     Cm  936   2.329   5.687   9.419  0.1412  0.2951  0.4401
    1Sil     Cm  937   2.598   3.080   9.329 -0.9045  0.1198 -0.5577
    1Sil     Cm  938   2.839   3.126   9.407  0.0149  0.5016 -0.1074
    1Sil     Cm  939   2.615   3.856   9.337 -0.0856 -0.4406 -0.0269
    1Sil     Cm  940   2.827   3.970   9.447  0.0075  0.2469 -1.1174
    1Sil     Cm  941   2.627   4.748   9.308  0.2634 -0.1748  0.1925
    1Sil     Cm  942   2.835   4.842   9.445 -0.0949  0.0290 -0.2164
    1Sil     Cm  943   2.607   5.583   9.349 -0.2843  0.4998  0.2158
    1Sil     Cm  944   2.820   5.703   9.423 -0.4669 -0.9883  0.3810
    1Sil     Cm  945  -0.449   3.028   9.361 -0.4441  0.1869 -0.4211
    1Sil     Cm  946  -0.222   3.118   9.431 -0.2793  0.5444  0.3941
    1Sil     Cm  947  -0.487   3.867   9.329 -0.1428  0.3990  0.3762
    1Sil     Cm  948  -0.253   3.969   9.409  0.8053  0.4079 -0.4632
    1Sil     Cm  949  -0.465   4.714   9.341  0.6863 -0.3323 -0.2246
    1Sil     Cm  950  -0.227   4.813   9.427 -0.2742  0.9119  0.2403
    1Sil     Cm  951  -0.439   5.584   9.331  0.1612 -0.3222 -0.4961
    1Sil     Cm  952  -0.241   5.714   9.447  0.1840  0.3199  0.9110
    1Sil     Cm  953   0.298   3.086  11.030 -0.0508 -0.3519  0.5378
    1Sil     Cm  954   0.546   3.033  10.958 -0.6281 -0.0518  1.1932
    1Sil     Cm  955   0.305   3.978  10.993 -0.0217 -0.2452 -0.5743
    1Sil     Cm  956   0.519   3.873  10.945 -0.1011  0.6721 -0.5952
    1Sil     Cm  957   0.330   4.804  11.045 -0.3869  0.5185 -0.5033
    1Sil     Cm  958   0.534   4.689  10.919  0.3340  0.1702  0.3565
    1Sil     Cm  959   0.319   5.685  11.022  0.6744 -0.7109  0.2420
    1Sil     Cm  960   0.523   5.556  10.925 -0.9929  0.2353  0.5559
    1Sil     Cm  961   0.831   3.140  11.011  0.4428  0.6824 -0.2554
    1Sil     Cm  962   1.047   3.016  10.961 -0.2731  0.1961 -0.4133
    1Sil     Cm  963   0.827   3.964  11.012 -0.5561  0.1876 -0.0842
    1Sil     Cm  964   1.049   3.854  10.929  0.6512 -0.0605 -0.0814
    1Sil     Cm  965   0.804   4.813  11.028 -0.2233  0.8377  0.5413
    1Sil     Cm  966   1.011   4.703  10.945  0.4257 -0.9466  0.2352
    1Sil     Cm  967   0.805   5.630  11.019  0.0216 -0.3534 -0.3272
    1Sil     Cm  968   1.060   5.594  10.988 -0.6172  0.5587  0.1596
    1Sil     Cm  969   1.337   3.113  11.048  0.1978  0.1564 -0.5489
    1Sil     Cm  970   1.555   3.008  10.917 -0.2988  0.9619 -0.3311
    1Sil     Cm  971   1.343   3.995  11.035  0.8074  0.3751  0.0704
    1Sil     Cm  972   1.555   3.870  10.916 -0.3465  0.0133 -1.1129
    1Sil     Cm  973   1.300   4.806  11.018  0.2916 -0.4576  0.3402
    1Sil     Cm  974   1.517   4.731  10.961 -0.4973  0.5328  0.0869
    1Sil     Cm  975   1.353   5.666  11.055  0.1206 -0.3079 -0.3371
    1Sil     Cm  976   1.558   5.570  10.925  0.4924 -0.0409 -0.3907
    1Sil     Cm  977   1.823   3.085  11.033 -0.1570  0.3197  0.4423
    1Sil     Cm  978   2.061   3.007  10.943 -0.2622 -0.0903  0.1207
    1Sil     Cm  979   1.850   3.958  11.023 -0.1821 -0.4732 -0.0783
    1Sil     Cm  980   2.079   3.843  10.939 -0.9091 -0.9477 -0.3729
    1Sil     Cm  981   1.812   4.810  11.009 -0.7477 -0.1916 -0.1202
    1Sil     Cm  982   2.036   4.722  10.952  0.0304  0.1025 -0.1791
    1Sil     Cm  983   1.861   5.685  11.031 -0.4582  0.2670  0.6051
    1Sil     Cm  984   2.062   5.553  10.906 -0.8550  0.3943  0.2440
    1Sil     Cm  985   2.351   3.107  11.039 -0.1230 -0.0120 -0.1705
    1Sil     Cm  986   2.569   3.004  10.933 -0.1090  0.4332  0.5781
    1Sil     Cm  987   2.335   3.983  11.046  1.1865 -0.1474 -0.7136
    1Sil     Cm  988   2.565   3.878  10.957  0.2996  0.6549 -0.0092
    1Sil     Cm  989   2.357   4.824  11.010  0.1995 -0.7597 -0.6320
    1Sil     Cm  990   2.570   4.707  10.922 -0.0350  0.0140  0.4042
    1Sil     Cm  991   2.320   5.653  11.007 -0.4370  0.8179 -0.0923
    1Sil     Cm  992   2.546   5.558  10.969 -0.0151  0.0518 -0.3266
    1Sil     Cm  993   2.841   3.124  11.031 -0.1800 -0.1461  0.3545
    1Sil     Cm  994   3.085   3.048  10.945  0.3833 -0.5931  0.1817
    1Sil     Cm  995   2.844   3.976  11.043  0.0929  0.4624  0.1602
    1Sil     Cm  996   3.053   3.871  10.978  0.0880  0.9864  0.2194
    1Sil     Cm  997   2.859   4.813  11.030 -0.7864 -0.8359 -0.0506
    1Sil     Cm  998   3.062   4.704  10.925 -0.4600 -0.0250 -0.2157
    1Sil     Cm  999   2.841   5.665  11.006 -0.1527 -0.6434  0.2537
    1Sil     Cm 1000   3.081   5.595  10.970  0.6784  0.4291  0.0514
    1Sil     Cm 1001   3.373   3.123  11.038  0.0022 -0.1684 -0.3279
    1Sil     Cm 1002   3.345   3.980  11.025  0.2810  0.3384 -0.7365
    1Sil     Cm 1003   3.349   4.825  11.031  0.8754  0.2221 -0.0101
    1Sil     Cm 1004   3.366   5.662  11.027  0.3334 -0.0355  0.2885
    1Sil     Cm 1005   3.579   2.998  10.930 -0.2790  0.2511  0.4453
    1Sil     Cm 1006   3.578   3.877  10.957 -0.8683  0.3224  0.1798
    1Sil     Cm 1007   3.593   4.750  10.969 -1.1655 -0.1826  0.7846
    1Sil     Cm 1008   3.601   5.589  10.962 -0.0616 -0.1547 -0.3106
    1Sil     Cm 1009   0.302   3.466   9.322 -0.1667 -0.2142 -0.0710
    1Sil     Cm 1010   0.529   3.545   9.421 -0.2990 -0.0089 -0.6592
    1Sil     Cm 1011   0.328   4.313   9.324  0.2188 -0.0776 -0.2480
    1Sil     Cm 1012   0.554   4.399   9.433  0.1856 -0.1256  0.4430
    1Sil     Cm 1013   0.319   5.174   9.330 -0.0215  0.3474 -0.1010
    1Sil     Cm 1014   0.540   5.264   9.447  0.5268 -0.0855 -0.3770
    1Sil     Cm 1015   0.298   2.613   9.335 -0.1427 -0.4877  0.1638
    1Sil     Cm 1016   0.522   2.695   9.423 -0.6488 -0.5229  0.1419
    1Sil     Cm 1017   0.833   3.454   9.343  0.3872  0.0691 -0.2855
    1Sil     Cm 1018   1.042   3.562   9.428  0.9647  0.1815 -0.2098
    1Sil     Cm 1019   0.839   4.289   9.331  0.1675  0.5042  0.0834
    1Sil     Cm 1020   1.057   4.395   9.422  0.0966 -0.3381  0.2658
    1Sil     Cm 1021   0.795   5.149   9.334 -0.1378  0.7780  0.0569
    1Sil     Cm 1022   1.023   5.247   9.411  0.7485 -0.1998 -0.4296
    1Sil     Cm 1023   0.823   2.591   9.342  0.1235  0.2978 -0.4547
    1Sil     Cm 1024   1.050   2.702   9.436 -0.0440 -0.2822 -0.6016
    1Sil     Cm 1025   1.316   3.446   9.314  0.2438  0.1188  0.6703
    1Sil     Cm 1026   1.549   3.546   9.407  0.1812  0.4178  0.4388
    1Sil     Cm 1027   1.363   4.331   9.324  0.2919 -0.2833 -0.7576
    1Sil     Cm 1028   1.576   4.426   9.440 -0.8650  1.2810 -0.2795
    1Sil     Cm 1029   1.323   5.134   9.372  0.2457  0.0466  0.4165
    1Sil     Cm 1030   1.546   5.253   9.414 -1.2059 -0.3646 -0.5375
    1Sil     Cm 1031   1.318   2.614   9.325  0.0213 -0.4133  0.1163
    1Sil     Cm 1032   1.560   2.700   9.422 -0.1633 -0.2450  0.1188
    1Sil     Cm 1033   1.828   3.456   9.355  0.2000 -0.3924 -0.1792
    1Sil     Cm 1034   2.041   3.575   9.388  0.0985 -0.0834 -0.2091
    1Sil     Cm 1035   1.844   4.291   9.336  0.1530 -0.8618 -0.1427
    1Sil     Cm 1036   2.076   4.384   9.404  0.3227  0.6966 -0.4006
    1Sil     Cm 1037   1.845   5.168   9.344 -0.1435  0.7908  0.1621
    1Sil     Cm 1038   2.067   5.254   9.428  0.0654  0.1648  0.3836
    1Sil     Cm 1039   1.858   2.590   9.359  0.2256  0.1907 -1.2068
    1Sil     Cm 1040   2.076   2.692   9.432  0.7047  0.0783 -0.0643
    1Sil     Cm 1041   2.333   3.429   9.366 -0.1276  0.7192 -0.3678
    1Sil     Cm 1042   2.570   3.534   9.418  0.2754  0.5628  0.0727
    1Sil     Cm 1043   2.380   4.293   9.330  0.1847  0.4740  0.3353
    1Sil     Cm 1044   2.578   4.433   9.432 -0.4516 -0.1392 -0.5044
    1Sil     Cm 1045   2.353   5.165   9.328 -0.0418 -0.4707 -0.1156
    1Sil     Cm 1046   2.588   5.262   9.442 -0.0377 -0.3252  0.1297
    1Sil     Cm 1047   2.384   2.596   9.345 -0.8058 -0.4045 -0.0443
    1Sil     Cm 1048   2.570   2.724   9.435  0.0395 -0.0276  0.5787
    1Sil     Cm 1049   2.866   3.465   9.354  0.1689 -0.0988 -0.0710
    1Sil     Cm 1050   3.101   3.545   9.431  0.3834  0.1827  0.3978
    1Sil     Cm 1051   2.828   4.300   9.338  0.1871  0.2655 -0.0386
    1Sil     Cm 1052   3.067   4.378   9.394 -0.0969  0.0643  0.2604
    1Sil     Cm 1053   2.887   5.177   9.318 -0.4377  0.1940  0.0506
    1Sil     Cm 1054   3.106   5.256   9.434 -0.6207  0.3187 -0.2859
    1Sil     Cm 1055   2.852   2.613   9.335  0.0517 -0.1875  0.3344
    1Sil     Cm 1056   3.088   2.668   9.400  0.3164  0.0688  0.7178
    1Sil     Cm 1057  -0.196   3.452   9.333  0.8789 -0.0866 -0.6649
    1Sil     Cm 1058  -0.214   4.311   9.361  0.6716  0.2329  0.2319
    1Sil     Cm 1059  -0.191   5.149   9.343 -0.3574  0.4943 -0.9532
    1Sil     Cm 1060  -0.174   2.607   9.325 -0.1785 -0.2211  0.5669
    1Sil     Cm 1061   0.030   3.550   9.434 -0.2636 -0.7953  0.5109
    1Sil     Cm 1062   0.020   4.380   9.416  0.1361 -0.6640 -0.8675
    1Sil     Cm 1063   0.032   5.262   9.444 -0.4025  0.2341 -0.7636
    1Sil     Cm 1064   0.027   2.721   9.447 -0.6571  0.3292  0.3236
    1Sil     Cm 1065   0.048   3.526  11.002 -0.2356 -0.4005  0.5937
    1Sil     Cm 1066   0.267   3.448  10.965  0.2023 -0.4358 -0.5822
    1Sil     Cm 1067   0.049   4.395  11.016  0.0538  0.5446 -0.1732
    1Sil     Cm 1068   0.260   4.287  10.952  0.1416 -0.2260 -0.1085
    1Sil     Cm 1069   0.045   5.221  11.028 -0.1138 -0.6375 -0.5538
    1Sil     Cm 1070   0.269   5.139  10.928  0.7034  0.5637 -0.6481
    1Sil     Cm 1071   0.050   2.700  11.015 -0.6704 -0.0549 -0.0996
    1Sil     Cm 1072   0.270   2.604  10.951 -0.0682  0.3159 -0.7504
    1Sil     Cm 1073   0.568   3.538  11.008 -0.3451  0.0119  0.3567
    1Sil     Cm 1074   0.783   3.433  10.921  0.8481  0.4453 -0.0364
    1Sil     Cm 1075   0.561   4.375  11.000  0.3543 -0.1250 -1.2438
    1Sil     Cm 1076   0.786   4.287  10.963  0.0764  0.0565  0.2172
    1Sil     Cm 1077   0.549   5.222  11.015  0.1173 -0.1657 -0.0936
    1Sil     Cm 1078   0.778   5.147  10.965 -0.3806  0.2668 -0.3757
    1Sil     Cm 1079   0.565   2.677  11.040 -0.2706 -0.0669 -0.1853
    1Sil     Cm 1080   0.788   2.590  10.946 -0.2752 -0.9042  0.1624
    1Sil     Cm 1081   1.080   3.534  11.022 -1.1117 -0.2194  0.2097
    1Sil     Cm 1082   1.307   3.430  10.947 -0.4588 -1.0332 -0.5923
    1Sil     Cm 1083   1.080   4.395  11.007 -0.4465  0.2190  0.1677
    1Sil     Cm 1084   1.311   4.295  10.920 -0.4383  0.6655  0.4548
    1Sil     Cm 1085   1.067   5.212  11.045  0.5814  0.1599 -0.5773
    1Sil     Cm 1086   1.299   5.156  10.949 -0.2837 -0.6618 -1.0157
    1Sil     Cm 1087   1.062   2.681  11.028 -0.1373 -0.3843  0.0089
    1Sil     Cm 1088   1.300   2.593  10.970 -0.3031  0.4147 -0.0790
    1Sil     Cm 1089   1.583   3.543  11.012  0.4183 -0.0477 -0.0359
    1Sil     Cm 1090   1.808   3.435  10.938  0.0689 -0.5001 -0.6868
    1Sil     Cm 1091   1.583   4.381  11.035  0.0398  0.0138 -0.4461
    1Sil     Cm 1092   1.814   4.300  10.926 -0.3333  0.0985  0.3704
    1Sil     Cm 1093   1.589   5.254  11.039  1.1699  0.4514  0.2188
    1Sil     Cm 1094   1.790   5.127  10.916 -0.3587 -0.0870  0.9654
    1Sil     Cm 1095   1.611   2.699  11.045  0.3636  0.5493  0.6689
    1Sil     Cm 1096   1.810   2.568  10.915  0.0804  0.0037 -0.0339
    1Sil     Cm 1097   2.077   3.535  11.040  0.1624  0.0526  0.0634
    1Sil     Cm 1098   2.298   3.430  10.963 -0.2303  0.2906  0.4329
    1Sil     Cm 1099   2.107   4.395  11.021 -0.5957 -0.0830  0.4728
    1Sil     Cm 1100   2.339   4.310  10.939 -0.0636  0.8731 -0.5057
    1Sil     Cm 1101   2.071   5.251  11.017 -0.5576  0.5225  0.2144
    1Sil     Cm 1102   2.302   5.151  10.962 -0.6859 -0.0578  0.5815
    1Sil     Cm 1103   2.090   2.684  11.051 -1.2579 -0.3300 -0.5562
    1Sil     Cm 1104   2.314   2.567  10.931  0.1732 -0.3932 -0.9063
    1Sil     Cm 1105   2.575   3.526  11.015  0.1829 -0.1770 -0.3880
    1Sil     Cm 1106   2.799   3.440  10.987 -0.1342 -0.4831  0.2617
    1Sil     Cm 1107   2.614   4.387  11.066  0.3166 -0.4192 -0.6012
    1Sil     Cm 1108   2.849   4.295  10.948 -0.0032 -0.3944 -0.2555
    1Sil     Cm 1109   2.637   5.239  11.030 -0.0346 -0.5609 -0.2900
    1Sil     Cm 1110   2.815   5.111  10.906  0.1209 -0.0308  0.1174
    1Sil     Cm 1111   2.606   2.699  11.041  0.6089  0.7297  0.3557
    1Sil     Cm 1112   2.820   2.592  10.945  0.6895 -0.1371  0.1949
    1Sil     Cm 1113   3.094   3.544  10.993  0.3265 -0.2405  0.4927
    1Sil     Cm 1114   3.322   3.452  10.969 -0.4667 -0.0922 -0.1065
    1Sil     Cm 1115   3.138   4.408  11.044  0.0655  0.6317  0.3398
    1Sil     Cm 1116   3.339   4.278  10.938 -0.5756  0.3817 -0.0051
    1Sil     Cm 1117   3.074   5.248  11.003 -0.4395  0.1809  0.5753
    1Sil     Cm 1118   3.326   5.164  10.982  0.1848  0.1778 -0.2701
    1Sil     Cm 1119   3.107   2.667  11.038 -0.1496  0.5627  0.8075
    1Sil     Cm 1120   3.340   2.586  10.932 -0.1674 -0.1208 -0.1471
    1Sil    Sib 1121   0.249   2.869   9.653  0.0904 -0.0755  0.2504
    1Sil    Sib 1122   0.397   3.064   9.834 -0.1386  0.1316 -0.3060
    1Sil    Sim 1123   0.151   3.102   9.473 -0.2556  0.0916  0.3705
    1Sil    Sib 1124   0.250   3.712   9.659  0.4524  0.1789 -0.1298
    1Sil    Sib 1125   0.398   3.913   9.833  0.1918  0.1743 -0.1408
    1Sil    Sim 1126   0.147   3.936   9.477  0.0434 -0.1647  0.2220
    1Sil    Sib 1127   0.250   4.564   9.659  0.2610  0.2342  0.3696
    1Sil    Sib 1128   0.396   4.762   9.838 -0.5370 -0.5481  0.0429
    1Sil    Sim 1129   0.138   4.783   9.476  0.1202 -0.0907 -0.2871
    1Sil    Sib 1130   0.243   5.433   9.662  0.3111 -0.3945 -0.1062
    1Sil    Sib 1131   0.400   5.629   9.836  0.2715 -0.5516 -0.2485
    1Sil    Sim 1132   0.127   5.648   9.480  0.1515  0.1918  0.3207
    1Sil    Sib 1133   0.761   2.858   9.658 -0.2884 -0.1436 -0.0171
    1Sil    Sib 1134   0.911   3.058   9.826 -0.2609 -0.3763 -0.0551
    1Sil    Sim 1135   0.654   3.086   9.483 -0.3073  0.0885  0.2917
    1Sil    Sib 1136   0.758   3.710   9.657 -0.2066  0.1404  0.0998
    1Sil    Sib 1137   0.911   3.910   9.826  0.1345 -0.1471 -0.1317
    1Sil    Sim 1138   0.650   3.932   9.471  0.1426  0.2044 -0.3653
    1Sil    Sib 1139   0.760   4.564   9.644 -0.3053  0.0890  0.0339
    1Sil    Sib 1140   0.901   4.768   9.830  0.1127 -0.2703 -0.0943
    1Sil    Sim 1141   0.648   4.798   9.477  0.5533  0.1045  0.1671
    1Sil    Sib 1142   0.761   5.428   9.661  0.0890  0.4574  0.0737
    1Sil    Sib 1143   0.909   5.624   9.841  0.4414 -0.5101 -0.3442
    1Sil    Sim 1144   0.651   5.656   9.478 -0.2740 -0.2503  0.5032
    1Sil    Sib 1145   1.271   2.866   9.659  0.1816  0.5865  0.2419
    1Sil    Sib 1146   1.418   3.064   9.829 -0.4939 -0.0398 -0.0860
    1Sil    Sim 1147   1.170   3.086   9.465  0.0003 -0.0124 -0.3879
    1Sil    Sib 1148   1.270   3.726   9.658  0.0779 -0.2393  0.2396
    1Sil    Sib 1149   1.442   3.907   9.836  0.5644  0.1725  0.0407
    1Sil    Sim 1150   1.165   3.942   9.469  0.4012 -0.4743  0.1908
    1Sil    Sib 1151   1.267   4.566   9.656  0.2110  0.1273  0.3253
    1Sil    Sib 1152   1.420   4.761   9.829 -0.1763  0.1482 -0.3114
    1Sil    Sim 1153   1.137   4.784   9.467 -0.0411  0.0754 -0.5890
    1Sil    Sib 1154   1.268   5.424   9.657 -0.1887 -0.2056  0.1407
    1Sil    Sib 1155   1.420   5.634   9.837  0.1065 -0.1777 -0.0724
    1Sil    Sim 1156   1.153   5.647   9.489  0.0102 -0.0994  0.0527
    1Sil    Sib 1157   1.780   2.868   9.654  0.4167  0.2668  0.2674
    1Sil    Sib 1158   1.932   3.075   9.828 -0.7831  0.6355 -0.5598
    1Sil    Sim 1159   1.677   3.086   9.459 -0.1360  0.2740  0.1156
    1Sil    Sib 1160   1.783   3.716   9.660  0.2219  0.4885 -0.1638
    1Sil    Sib 1161   1.932   3.910   9.841 -0.2245  0.0136 -0.0838
    1Sil    Sim 1162   1.678   3.936   9.469 -0.2764  0.4731  0.0841
    1Sil    Sib 1163   1.798   4.568   9.653 -0.0779 -0.0746  0.5925
    1Sil    Sib 1164   1.930   4.770   9.827  0.1257 -0.2309 -0.2076
    1Sil    Sim 1165   1.684   4.802   9.468  0.1981  0.6361 -0.0567
    1Sil    Sib 1166   1.784   5.411   9.656  0.3616 -0.0637  0.1894
    1Sil    Sib 1167   1.927   5.610   9.843  0.0963 -0.4621  0.0627
    1Sil    Sim 1168   1.669   5.643   9.482 -0.1123  0.3415 -0.0430
    1Sil    Sib 1169   2.277   2.864   9.662  0.2373  0.5070  0.0557
    1Sil    Sib 1170   2.437   3.056   9.829  0.1099 -0.4581  0.6032
    1Sil    Sim 1171   2.170   3.077   9.480 -0.2294  0.1037  0.0297
    1Sil    Sib 1172   2.294   3.719   9.658 -0.3247  0.2199 -0.2951
    1Sil    Sib 1173   2.437   3.919   9.842  0.3553  0.2631 -0.0471
    1Sil    Sim 1174   2.185   3.944   9.475 -0.1232  0.2452  0.1241
    1Sil    Sib 1175   2.279   4.569   9.660  0.0424 -0.1410  0.1259
    1Sil    Sib 1176   2.435   4.767   9.840 -0.1333  0.0629 -0.3254
    1Sil    Sim 1177   2.198   4.796   9.478 -0.7519  0.2909 -0.0785
    1Sil    Sib 1178   2.282   5.421   9.665  0.1221 -0.0506  0.1336
    1Sil    Sib 1179   2.432   5.621   9.846 -0.4288  0.0175  0.0218
    1Sil    Sim 1180   2.176   5.639   9.473  0.5159  0.1084 -0.2191
    1Sil    Sib 1181   2.805   2.863   9.645  0.1167 -0.2023  0.2318
    1Sil    Sib 1182   2.951   3.066   9.827  0.3098 -0.3956  0.0627
    1Sil    Sim 1183   2.702   3.103   9.471 -0.2389  0.6521  0.2926
    1Sil    Sib 1184   2.802   3.703   9.665  0.2113 -0.4404  0.6328
    1Sil    Sib 1185   2.945   3.911   9.836  0.0646  0.4547  0.3388
    1Sil    Sim 1186   2.698   3.932   9.485 -0.1564  0.0781 -0.2921
    1Sil    Sib 1187   2.798   4.572   9.655  0.1927 -0.1294 -0.5886
    1Sil    Sib 1188   2.948   4.767   9.833 -0.1029  0.4404  0.1363
    1Sil    Sim 1189   2.696   4.804   9.474 -0.2272 -0.5954  0.1392
    1Sil    Sib 1190   2.812   5.424   9.656  0.1251  0.1396  0.0592
    1Sil    Sib 1191   2.949   5.622   9.833 -0.1452  0.1231 -0.0953
    1Sil    Sim 1192   2.697   5.658   9.479  0.1997  0.4522  0.1323
    1Sil    Sib 1193  -0.265   2.867   9.667 -0.1442 -0.0095  0.5203
    1Sil    Sib 1194  -0.110   3.060   9.838 -0.3924  0.1571 -0.3723
    1Sil    Sim 1195  -0.362   3.094   9.489 -0.1455 -0.2942  0.5008
    1Sil    Sib 1196  -0.263   3.715   9.661  0.2923 -0.1911  0.3705
    1Sil    Sib 1197  -0.119   3.922   9.836 -0.1413 -0.2248  0.0406
    1Sil    Sim 1198  -0.384   3.928   9.474  0.4242  0.1347  0.0475
    1Sil    Sib 1199  -0.251   4.566   9.658 -0.2989  0.3503  0.3690
    1Sil    Sib 1200  -0.119   4.769   9.846 -0.0599  0.2831  0.0132
    1Sil    Sim 1201  -0.364   4.780   9.479  0.0146  0.1859  0.0668
    1Sil    Sib 1202  -0.263   5.427   9.661  0.0830  0.2337 -0.4140
    1Sil    Sib 1203  -0.106   5.633   9.836  0.1772 -0.4372  0.1801
    1Sil    Sim 1204  -0.367   5.655   9.481  0.0246  0.1771  0.1452
    1Sil    Sib 1205   0.257   2.853  10.191  0.4482 -0.4992  0.3796
    1Sil    Sib 1206   0.392   3.052  10.364 -0.0097  0.1952 -0.0612
    1Sil    Sib 1207   0.149   3.093  10.014  0.4205  0.1235 -0.2288
    1Sil    Sib 1208   0.251   3.700  10.187  0.1197 -0.3097 -0.0978
    1Sil    Sib 1209   0.395   3.909  10.359 -0.2266 -0.2989  0.3632
    1Sil    Sib 1210   0.147   3.940  10.018 -0.2903 -0.0087 -0.3055
    1Sil    Sib 1211   0.250   4.554  10.187  0.4964  0.0920  0.8245
    1Sil    Sib 1212   0.382   4.764  10.350  0.0956 -0.1794  0.3805
    1Sil    Sib 1213   0.139   4.778  10.015 -0.0424  0.0503 -0.3488
    1Sil    Sib 1214   0.261   5.412  10.188 -0.4186 -0.0445 -0.1080
    1Sil    Sib 1215   0.396   5.619  10.372  0.3621  0.0710 -0.6137
    1Sil    Sib 1216   0.153   5.649  10.012  0.2042  0.1936  0.3020
    1Sil    Sib 1217   0.775   2.861  10.184  0.0345 -0.0562  0.2454
    1Sil    Sib 1218   0.915   3.056  10.362  0.0360  0.1658  0.1070
    1Sil    Sib 1219   0.657   3.069   9.995 -0.2476 -0.1596 -0.5658
    1Sil    Sib 1220   0.760   3.701  10.168  0.3284  0.2880  0.2778
    1Sil    Sib 1221   0.902   3.894  10.343 -0.2768  0.1957  0.1411
    1Sil    Sib 1222   0.659   3.927  10.004  0.3449 -0.0882 -0.3578
    1Sil    Sib 1223   0.763   4.542  10.174 -0.3551 -0.4293 -0.2735
    1Sil    Sib 1224   0.901   4.749  10.349 -0.2964 -0.1944 -0.1043
    1Sil    Sib 1225   0.646   4.767  10.004  0.0359 -0.0081 -0.3000
    1Sil    Sib 1226   0.762   5.399  10.184  0.0259  0.0111  0.4322
    1Sil    Sib 1227   0.907   5.618  10.364  0.2004 -0.1130  0.5648
    1Sil    Sib 1228   0.654   5.637  10.014 -0.0468 -0.0198  0.1481
    1Sil    Sib 1229   1.271   2.858  10.185  0.1374 -0.4738  0.2008
    1Sil    Sib 1230   1.425   3.057  10.353  0.5387 -0.5328 -0.6133
    1Sil    Sib 1231   1.161   3.079  10.009 -0.1552  0.1054 -0.2392
    1Sil    Sib 1232   1.270   3.704  10.173  0.1735  0.4759  0.1323
    1Sil    Sib 1233   1.415   3.900  10.360  0.1533 -0.0846  0.4303
    1Sil    Sib 1234   1.171   3.926   9.990 -0.2231 -0.3915 -0.1227
    1Sil    Sib 1235   1.265   4.550  10.189  0.0377  0.1618 -0.2080
    1Sil    Sib 1236   1.408   4.763  10.361 -0.0547 -0.0788  0.3516
    1Sil    Sib 1237   1.156   4.773  10.004 -0.3910 -0.1439  0.3514
    1Sil    Sib 1238   1.276   5.416  10.183  0.1295  0.3582 -0.8141
    1Sil    Sib 1239   1.414   5.622  10.366  0.5439  0.2964 -0.2664
    1Sil    Sib 1240   1.167   5.641  10.012  0.1059  0.0875 -0.4767
    1Sil    Sib 1241   1.791   2.858  10.181  0.1492  0.2396  0.3690
    1Sil    Sib 1242   1.931   3.061  10.362 -0.2152 -0.2682 -0.1760
    1Sil    Sib 1243   1.681   3.080  10.005 -0.4075  0.1014 -0.5951
    1Sil    Sib 1244   1.792   3.703  10.183  0.3175 -0.0299  0.0932
    1Sil    Sib 1245   1.929   3.906  10.361 -0.5835  0.2831  0.2575
    1Sil    Sib 1246   1.682   3.930  10.013 -0.1714 -0.4559  0.3824
    1Sil    Sib 1247   1.790   4.562  10.181  0.3621 -0.0194  0.0179
    1Sil    Sib 1248   1.919   4.777  10.364 -0.0844  0.0373 -0.2019
    1Sil    Sib 1249   1.671   4.787  10.008  0.1400  0.0956  0.4292
    1Sil    Sib 1250   1.764   5.417  10.195  0.2255 -0.1462 -0.3663
    1Sil    Sib 1251   1.921   5.614  10.371  0.2938  0.0289  0.0080
    1Sil    Sib 1252   1.668   5.637  10.013 -0.1625  0.1337  0.4924
    1Sil    Sib 1253   2.297   2.855  10.180  0.2932  0.1223 -0.1853
    1Sil    Sib 1254   2.432   3.051  10.363 -0.0493 -0.4068  0.1975
    1Sil    Sib 1255   2.182   3.081  10.008  0.2552  0.6786  0.4345
    1Sil    Sib 1256   2.290   3.710  10.186 -0.1183  0.2521  0.5599
    1Sil    Sib 1257   2.439   3.911  10.364  0.0319  0.2280 -0.2130
    1Sil    Sib 1258   2.180   3.932  10.010  0.1814 -0.2975 -0.2496
    1Sil    Sib 1259   2.285   4.559  10.186  0.0576  0.3155  0.2085
    1Sil    Sib 1260   2.438   4.766  10.362  0.4027  0.0096  0.1895
    1Sil    Sib 1261   2.176   4.783  10.010  0.3077  0.1370 -0.6800
    1Sil    Sib 1262   2.276   5.409  10.186  0.4636 -0.4097 -0.1099
    1Sil    Sib 1263   2.437   5.609  10.367  0.1684 -0.3402  0.0115
    1Sil    Sib 1264   2.180   5.636  10.014  0.2144 -0.3083 -0.2000
    1Sil    Sib 1265   2.806   2.846  10.179  0.0088 -0.3849  0.1514
    1Sil    Sib 1266   2.947   3.057  10.357 -0.1535 -0.2283  0.1241
    1Sil    Sib 1267   2.693   3.074  10.000  0.0282 -0.1747 -0.2602
    1Sil    Sib 1268   2.802   3.717  10.192  0.1317 -0.6679  0.0907
    1Sil    Sib 1269   2.944   3.925  10.370 -0.4016  0.1051  0.2656
    1Sil    Sib 1270   2.694   3.942  10.012  0.5695 -0.1445  0.4072
    1Sil    Sib 1271   2.794   4.564  10.187 -0.2759 -0.1052  0.6588
    1Sil    Sib 1272   2.951   4.758  10.366  0.4302  0.3354 -0.0251
    1Sil    Sib 1273   2.692   4.789  10.010  0.0662 -0.2002 -0.1417
    1Sil    Sib 1274   2.799   5.407  10.176 -0.0123 -0.3876  0.0006
    1Sil    Sib 1275   2.943   5.608  10.363  0.4784  0.1017  0.0452
    1Sil    Sib 1276   2.697   5.637  10.013  0.1068 -0.4376  0.2377
    1Sil    Sib 1277  -0.258   2.847  10.181 -0.4162  0.0094  0.2244
    1Sil    Sib 1278  -0.120   3.049  10.368  0.1690 -0.0675  0.3364
    1Sil    Sib 1279  -0.373   3.082  10.010  0.1184 -0.2563 -0.1978
    1Sil    Sib 1280  -0.252   3.711  10.178 -0.2435 -0.2770 -0.4719
    1Sil    Sib 1281  -0.115   3.909  10.369  0.1004 -0.2307  0.2348
    1Sil    Sib 1282  -0.368   3.933  10.005 -0.1639  0.3013  0.2792
    1Sil    Sib 1283  -0.258   4.554  10.184  0.0754 -0.0136  0.4062
    1Sil    Sib 1284  -0.112   4.761  10.354  0.0154 -0.1618  0.5303
    1Sil    Sib 1285  -0.374   4.777  10.012  0.0078 -0.0748 -0.1514
    1Sil    Sib 1286  -0.258   5.419  10.183  0.3472  0.1710  0.1121
    1Sil    Sib 1287  -0.110   5.619  10.359 -0.0802  0.0449 -0.0863
    1Sil    Sib 1288  -0.361   5.648  10.008  0.0243 -0.0271  0.2814
    1Sil    Sib 1289   0.254   2.850  10.707  0.2922 -0.8069  0.0255
    1Sil    Sim 1290   0.399   3.049  10.891 -0.1177  0.3379 -0.2344
    1Sil    Sib 1291   0.142   3.072  10.537 -0.0313 -0.2124  0.0758
    1Sil    Sib 1292   0.248   3.698  10.706  0.6310 -0.2190  0.3539
    1Sil    Sim 1293   0.392   3.905  10.878  0.0019  0.4499  0.2064
    1Sil    Sib 1294   0.140   3.921  10.533  0.0221 -0.1046 -0.3685
    1Sil    Sib 1295   0.238   4.545  10.709  0.1619 -0.3122  0.4522
    1Sil    Sim 1296   0.390   4.746  10.886  0.0562 -0.1554  0.1594
    1Sil    Sib 1297   0.133   4.773  10.530  0.0333 -0.1556  0.0997
    1Sil    Sib 1298   0.234   5.406  10.708  0.0562 -0.1027  0.1485
    1Sil    Sim 1299   0.400   5.610  10.883 -0.5204 -0.0080 -0.0932
    1Sil    Sib 1300   0.143   5.633  10.538 -0.1868  0.3352 -0.3025
    1Sil    Sib 1301   0.754   2.847  10.721 -0.2555  0.1085  0.1728
    1Sil    Sim 1302   0.912   3.060  10.895  0.1237  0.4334  0.0363
    1Sil    Sib 1303   0.648   3.077  10.534  0.1037  0.5942  0.4198
    1Sil    Sib 1304   0.759   3.701  10.701 -0.1727  0.1399  0.5745
    1Sil    Sim 1305   0.907   3.893  10.884 -0.2726 -0.3296  0.3957
    1Sil    Sib 1306   0.655   3.926  10.526 -0.4060 -0.1234 -0.6485
    1Sil    Sib 1307   0.761   4.543  10.707 -0.0938 -0.2267 -0.0010
    1Sil    Sim 1308   0.898   4.747  10.891  0.1843  0.1346  0.3957
    1Sil    Sib 1309   0.642   4.764  10.522 -0.0045  0.1454  0.1543
    1Sil    Sib 1310   0.769   5.411  10.709  0.2020  0.4849 -0.2449
    1Sil    Sim 1311   0.910   5.606  10.901  0.1552 -0.2086  0.3746
    1Sil    Sib 1312   0.659   5.643  10.541  0.2443 -0.1051  0.0956
    1Sil    Sib 1313   1.264   2.850  10.709  0.3059 -0.0666 -0.4169
    1Sil    Sim 1314   1.411   3.056  10.885 -0.0312 -0.0723 -0.2718
    1Sil    Sib 1315   1.166   3.074  10.532  0.5924  0.3024  0.6080
    1Sil    Sib 1316   1.262   3.698  10.708 -0.7403 -0.0444 -0.0687
    1Sil    Sim 1317   1.416   3.911  10.875 -0.0842  0.2483  0.2961
    1Sil    Sib 1318   1.157   3.918  10.527 -0.2728  0.4203 -0.1256
    1Sil    Sib 1319   1.263   4.554  10.695 -0.1074 -0.3394  0.2312
    1Sil    Sim 1320   1.403   4.754  10.894  0.3261 -0.1793 -0.5161
    1Sil    Sib 1321   1.156   4.783  10.525  0.0075 -0.0497 -0.3432
    1Sil    Sib 1322   1.254   5.412  10.718  0.1895 -0.2737  0.4225
    1Sil    Sim 1323   1.415   5.607  10.891  0.2473  0.5667  0.2528
    1Sil    Sib 1324   1.162   5.640  10.539  0.0579  0.6477  0.1280
    1Sil    Sib 1325   1.776   2.839  10.712 -0.2194  0.1749 -0.0937
    1Sil    Sim 1326   1.918   3.041  10.901 -0.1218  0.1613 -0.1554
    1Sil    Sib 1327   1.675   3.070  10.530 -0.0996  0.4116 -0.2396
    1Sil    Sib 1328   1.778   3.690  10.712  0.4493  0.2300 -0.2500
    1Sil    Sim 1329   1.941   3.893  10.886  0.4753  0.4033  0.4223
    1Sil    Sib 1330   1.675   3.917  10.530 -0.0813  0.2616  0.2349
    1Sil    Sib 1331   1.770   4.549  10.702  0.2631 -0.6345 -0.8485
    1Sil    Sim 1332   1.911   4.755  10.881  0.1885  0.2664 -0.1782
    1Sil    Sib 1333   1.665   4.795  10.540 -0.1392 -0.0608  0.4756
    1Sil    Sib 1334   1.771   5.398  10.705 -0.2258  0.2035 -0.2596
    1Sil    Sim 1335   1.930   5.603  10.879  0.2670  0.2223 -0.1265
    1Sil    Sib 1336   1.665   5.636  10.538 -0.8350  0.0321 -0.5624
    1Sil    Sib 1337   2.289   2.834  10.717 -0.0383 -0.3800  0.2551
    1Sil    Sim 1338   2.432   3.037  10.897  0.2261 -0.0579 -0.1742
    1Sil    Sib 1339   2.181   3.069  10.543 -0.0228  0.0754  0.3040
    1Sil    Sib 1340   2.290   3.701  10.726 -0.3845  0.1742  0.3479
    1Sil    Sim 1341   2.433   3.909  10.902 -0.1961  0.2105 -0.4416
    1Sil    Sib 1342   2.184   3.926  10.535 -0.2082  0.0273  0.3965
    1Sil    Sib 1343   2.281   4.558  10.709 -0.4594  0.2650  0.4400
    1Sil    Sim 1344   2.435   4.754  10.875 -0.6714 -0.1742 -0.1766
    1Sil    Sib 1345   2.179   4.789  10.537 -0.0405  0.1411 -0.0759
    1Sil    Sib 1346   2.286   5.394  10.699  0.2558  0.1913 -0.1545
    1Sil    Sim 1347   2.428   5.592  10.892 -0.2192  0.1371 -0.3747
    1Sil    Sib 1348   2.190   5.629  10.538 -0.0411  0.0144  0.4868
    1Sil    Sib 1349   2.795   2.847  10.717 -0.2693 -0.4276 -0.3109
    1Sil    Sim 1350   2.940   3.063  10.893  0.2276  0.3573  0.0418
    1Sil    Sib 1351   2.691   3.069  10.537  0.1062 -0.1200 -0.0284
    1Sil    Sib 1352   2.791   3.704  10.727 -0.0168  0.0168  0.2280
    1Sil    Sim 1353   2.931   3.903  10.910  0.0246 -0.4047  0.1689
    1Sil    Sib 1354   2.692   3.941  10.548  0.0574  0.3881  0.0206
    1Sil    Sib 1355   2.788   4.548  10.713 -0.1490 -0.0503  0.1619
    1Sil    Sim 1356   2.940   4.753  10.888 -0.1171  0.3455 -0.6115
    1Sil    Sib 1357   2.699   4.785  10.536  0.2371  0.1607 -0.1870
    1Sil    Sib 1358   2.802   5.411  10.710  0.3797  0.0691  0.1051
    1Sil    Sim 1359   2.945   5.624  10.901 -0.6261  0.2879  0.0032
    1Sil    Sib 1360   2.693   5.632  10.538 -0.0584  0.0014 -0.3842
    1Sil    Sib 1361   3.283   2.857  10.713 -0.0427 -0.0662  0.2274
    1Sil    Sim 1362   3.448   3.057  10.888  0.1366  0.0675  0.2889
    1Sil    Sib 1363   3.193   3.074  10.534 -0.1188  0.4765  0.0543
    1Sil    Sib 1364   3.312   3.705  10.718 -0.3299 -0.2766 -0.0557
    1Sil    Sim 1365   3.452   3.907  10.904 -0.1641 -0.1943  0.2647
    1Sil    Sib 1366   3.202   3.927  10.543 -0.2701 -0.2793 -0.1838
    1Sil    Sib 1367   3.316   4.559  10.719  0.2304  0.0750 -0.2275
    1Sil    Sim 1368   3.448   4.764  10.902 -0.0284 -0.2820 -0.1812
    1Sil    Sib 1369   3.206   4.779  10.537 -0.0020  0.2935 -0.4175
    1Sil    Sib 1370   3.318   5.414  10.723 -0.2399 -0.2208  0.0239
    1Sil    Sim 1371   3.470   5.617  10.902  0.2152  0.6790  0.7036
    1Sil    Sib 1372   3.207   5.638  10.536 -0.3228  0.0116 -0.0279
    1Sil    Sib 1373   0.502   3.285   9.658  0.0808  0.0810 -0.1843
    1Sil    Sib 1374   0.143   3.487   9.845 -0.5872  0.1354 -0.0857
    1Sil    Sim 1375   0.393   3.518   9.473 -0.0631 -0.0541 -0.4892
    1Sil    Sib 1376   0.503   4.133   9.649 -0.1330  0.0567  0.3710
    1Sil    Sib 1377   0.153   4.326   9.836 -0.3955 -0.5409  0.4755
    1Sil    Sim 1378   0.407   4.364   9.466 -0.2380 -0.0110 -0.4498
    1Sil    Sib 1379   0.497   4.993   9.663 -0.3644 -0.2403 -0.5526
    1Sil    Sib 1380   0.144   5.200   9.831 -0.4479 -0.2446 -0.2312
    1Sil    Sim 1381   0.387   5.223   9.486 -0.0074  0.7763 -0.2986
    1Sil    Sib 1382   0.507   5.854   9.660 -0.2528 -0.4029 -0.0075
    1Sil    Sib 1383   0.151   2.644   9.833  0.3232  0.2028  0.2204
    1Sil    Sim 1384   0.399   2.676   9.475  0.2676  0.3023 -0.0858
    1Sil    Sib 1385   1.023   3.290   9.660 -0.3114 -0.0840 -0.0409
    1Sil    Sib 1386   0.653   3.484   9.826 -0.1106  0.2654  0.3643
    1Sil    Sim 1387   0.905   3.511   9.477  0.3425 -0.1045  0.4415
    1Sil    Sib 1388   1.015   4.135   9.652 -0.0571  0.1555 -0.0104
    1Sil    Sib 1389   0.651   4.341   9.826 -0.0167  0.1983  0.3612
    1Sil    Sim 1390   0.915   4.357   9.469  0.1710  0.2431 -0.6468
    1Sil    Sib 1391   1.011   4.999   9.659 -0.0098 -0.0179 -0.2336
    1Sil    Sib 1392   0.659   5.197   9.837 -0.0048  0.1796  0.5161
    1Sil    Sim 1393   0.897   5.213   9.478  0.1321  0.1337  0.2295
    1Sil    Sib 1394   1.009   5.850   9.661  0.5636  0.2307 -0.4314
    1Sil    Sib 1395   0.657   2.633   9.844 -0.8901  0.1528  0.5458
    1Sil    Sim 1396   0.906   2.659   9.476  0.1197 -0.0531  0.0384
    1Sil    Sib 1397   1.522   3.286   9.645 -0.2050 -0.4144  0.0704
    1Sil    Sib 1398   1.170   3.491   9.829  0.1690  0.1831  0.1560
    1Sil    Sim 1399   1.407   3.516   9.470  0.2343 -0.0720  0.0369
    1Sil    Sib 1400   1.530   4.138   9.651  0.0780  0.1025  0.2142
    1Sil    Sib 1401   1.173   4.331   9.830 -0.1989  0.2461 -0.1612
    1Sil    Sim 1402   1.429   4.378   9.481  0.1232  0.0145 -0.1545
    1Sil    Sib 1403   1.538   4.985   9.662 -0.2974  0.4193  0.3719
    1Sil    Sib 1404   1.168   5.193   9.829 -0.0274 -0.1846 -0.0530
    1Sil    Sim 1405   1.416   5.213   9.486  0.3603 -0.2209 -0.4681
    1Sil    Sib 1406   1.529   5.860   9.659  0.0915  0.3593  0.4387
    1Sil    Sib 1407   1.167   2.637   9.831  0.1291 -0.1407  0.1973
    1Sil    Sim 1408   1.416   2.664   9.473  0.1446  0.0410  0.0763
    1Sil    Sib 1409   2.046   3.302   9.653  0.1182  0.2018 -0.4703
    1Sil    Sib 1410   1.681   3.481   9.828  0.5440  0.3643 -0.1790
    1Sil    Sim 1411   1.928   3.525   9.465  0.5409  0.1828  0.3023
    1Sil    Sib 1412   2.040   4.137   9.659 -0.1278  0.1317  0.0874
    1Sil    Sib 1413   1.679   4.335   9.825  0.1432 -0.0197  0.1692
    1Sil    Sim 1414   1.931   4.364   9.472  0.0443  0.3882  0.5149
    1Sil    Sib 1415   2.049   4.998   9.652 -0.1812  0.2897  0.1867
    1Sil    Sib 1416   1.680   5.186   9.840 -0.1064  0.6299  0.2004
    1Sil    Sim 1417   1.935   5.220   9.472  0.2158 -0.3889  0.4806
    1Sil    Sib 1418   2.029   5.842   9.672  0.3265  0.2523 -0.2180
    1Sil    Sib 1419   1.672   2.648   9.839 -0.1425 -0.3018 -0.1817
    1Sil    Sim 1420   1.929   2.649   9.483 -0.2893 -0.0343 -0.1322
    1Sil    Sib 1421   2.555   3.291   9.669  0.3677 -0.1356  0.4251
    1Sil    Sib 1422   2.195   3.495   9.836 -0.1129  0.1262 -0.2738
    1Sil    Sim 1423   2.441   3.504   9.487  0.0817 -0.3403  0.0297
    1Sil    Sib 1424   2.544   4.141   9.655  0.0044  0.0426 -0.2594
    1Sil    Sib 1425   2.181   4.338   9.837 -0.1579  0.3540 -0.3494
    1Sil    Sim 1426   2.435   4.372   9.479 -0.1401  0.0453  0.2130
    1Sil    Sib 1427   2.542   4.991   9.660 -0.5860 -0.1298  0.4131
    1Sil    Sib 1428   2.173   5.198   9.840  0.4715  0.2327 -0.1365
    1Sil    Sim 1429   2.436   5.220   9.481 -0.1431  0.1210  0.0988
    1Sil    Sib 1430   2.547   5.847   9.666 -0.0773 -0.1549 -0.1890
    1Sil    Sib 1431   2.183   2.628   9.843  0.6850 -0.0658  0.1485
    1Sil    Sim 1432   2.439   2.666   9.480 -0.0592  0.4825  0.1280
    1Sil    Sib 1433  -0.515   3.298   9.668  0.0226 -0.0381  0.4951
    1Sil    Sib 1434   2.694   3.489   9.850 -0.5202  0.3266 -0.0647
    1Sil    Sim 1435   2.958   3.514   9.479 -0.4211  0.2325 -0.4718
    1Sil    Sib 1436  -0.524   4.135   9.656 -0.1812 -0.2045  0.3606
    1Sil    Sib 1437   2.689   4.348   9.829  0.0412 -0.4001 -0.0888
    1Sil    Sim 1438   2.936   4.361   9.470  0.1670  0.4114 -0.1456
    1Sil    Sib 1439  -0.508   4.992   9.664  0.5006  0.0289 -0.4255
    1Sil    Sib 1440   2.698   5.194   9.834 -0.0269 -0.0222  0.2056
    1Sil    Sim 1441   2.963   5.222   9.475 -0.1730 -0.2499  0.1956
    1Sil    Sib 1442  -0.536   5.853   9.654 -0.5864  0.3523  0.1628
    1Sil    Sib 1443   2.698   2.639   9.828 -0.3485  0.1447  0.2903
    1Sil    Sim 1444   2.944   2.660   9.462 -0.1333  0.0004 -0.4802
    1Sil    Sib 1445  -0.003   3.288   9.668  0.2276  0.4252 -0.0004
    1Sil    Sib 1446  -0.367   3.484   9.841 -0.3303  0.2723 -0.2036
    1Sil    Sim 1447  -0.107   3.509   9.481  0.2437  0.0502 -0.2740
    1Sil    Sib 1448  -0.006   4.138   9.658 -0.3658 -0.1186  0.6498
    1Sil    Sib 1449  -0.365   4.331   9.836  0.0606 -0.0262  0.4373
    1Sil    Sim 1450  -0.116   4.353   9.474 -0.1889 -0.3903 -0.0539
    1Sil    Sib 1451  -0.023   4.991   9.664  0.0642  0.1495  0.5172
    1Sil    Sib 1452  -0.360   5.192   9.841  0.5906 -0.1245  0.4514
    1Sil    Sim 1453  -0.110   5.217   9.486  0.3123  0.1196  0.2386
    1Sil    Sib 1454  -0.005   5.854   9.654 -0.0569 -0.0273  0.0572
    1Sil    Sib 1455  -0.371   2.631   9.820 -0.3338 -0.3320  0.4472
    1Sil    Sim 1456  -0.110   2.666   9.481 -0.0586 -0.0953 -0.2585
    1Sil    Sib 1457   0.511   3.268  10.181  0.5112  0.2743  0.1395
    1Sil    Sib 1458   0.137   3.484  10.363 -0.2238 -0.2510  0.1891
    1Sil    Sib 1459   0.400   3.501  10.011  0.1633 -0.6352 -0.0660
    1Sil    Sib 1460   0.512   4.131  10.178 -0.5734  0.1101  0.2797
    1Sil    Sib 1461   0.142   4.339  10.372  0.4468  0.0036 -0.6815
    1Sil    Sib 1462   0.399   4.358  10.002  0.4565  0.3855 -0.1031
    1Sil    Sib 1463   0.496   4.981  10.176 -0.7060 -0.6131  0.0028
    1Sil    Sib 1464   0.136   5.190  10.362  0.6782  0.2329 -0.0368
    1Sil    Sib 1465   0.399   5.208   9.998 -0.6634 -0.1145 -0.1688
    1Sil    Sib 1466   0.504   5.839  10.189  0.0887  0.3479  0.2795
    1Sil    Sib 1467   0.137   2.631  10.373  0.0395  0.3356  0.0725
    1Sil    Sib 1468   0.402   2.654  10.007 -0.2726  0.5359 -0.0074
    1Sil    Sib 1469   1.014   3.285  10.179  0.0171  0.0121 -0.2294
    1Sil    Sib 1470   0.659   3.479  10.343 -0.0269 -0.2586 -0.5432
    1Sil    Sib 1471   0.908   3.503   9.999 -0.5533  0.3620 -0.0100
    1Sil    Sib 1472   1.027   4.128  10.175  0.0583 -0.3734 -0.1808
    1Sil    Sib 1473   0.652   4.322  10.357  0.0535  0.4273  0.1730
    1Sil    Sib 1474   0.906   4.343   9.996  0.7145  0.3442  0.2365
    1Sil    Sib 1475   1.021   4.978  10.185 -0.7742  0.7575  0.3598
    1Sil    Sib 1476   0.644   5.178  10.362 -0.2179  0.4736 -0.1523
    1Sil    Sib 1477   0.912   5.205  10.009  0.0025 -0.1284  0.0420
    1Sil    Sib 1478   1.024   5.839  10.191  0.1033  0.1662  0.4100
    1Sil    Sib 1479   0.650   2.638  10.356  0.2525  0.0599  0.2824
    1Sil    Sib 1480   0.910   2.649  10.012 -0.1009  0.0207 -0.2475
    1Sil    Sib 1481   1.537   3.277  10.176  0.4835  0.4186  0.1070
    1Sil    Sib 1482   1.163   3.479  10.357  0.3983 -0.1192 -0.1306
    1Sil    Sib 1483   1.424   3.507  10.005 -0.0991 -0.0078 -0.0915
    1Sil    Sib 1484   1.525   4.130  10.190  0.1122  0.1890  0.0267
    1Sil    Sib 1485   1.170   4.322  10.368  0.0637  0.2377 -0.3732
    1Sil    Sib 1486   1.421   4.356  10.007  0.0397  0.0108  0.1651
    1Sil    Sib 1487   1.524   4.993  10.185  0.0015  0.4093  0.3400
    1Sil    Sib 1488   1.159   5.187  10.355  0.2549  0.4202  0.3072
    1Sil    Sib 1489   1.422   5.213  10.010  0.4470 -0.3676 -0.1760
    1Sil    Sib 1490   1.523   5.847  10.185 -0.2668  0.4446 -0.1021
    1Sil    Sib 1491   1.151   2.639  10.365  0.1164 -0.0910 -0.1188
    1Sil    Sib 1492   1.418   2.663  10.007  0.0309 -0.0467  0.3573
    1Sil    Sib 1493   2.047   3.287  10.182  0.0607  0.2975  0.3391
    1Sil    Sib 1494   1.677   3.483  10.357  0.2077 -0.1378  0.0876
    1Sil    Sib 1495   1.932   3.500  10.002  0.2706  0.0511  0.0112
    1Sil    Sib 1496   2.036   4.131  10.188 -0.7886 -0.0762 -0.2566
    1Sil    Sib 1497   1.679   4.335  10.354  0.0781 -0.4856  0.2930
    1Sil    Sib 1498   1.934   4.357  10.005  0.4570  0.3873  0.2551
    1Sil    Sib 1499   2.026   4.988  10.184  0.2476 -0.1088  0.2051
    1Sil    Sib 1500   1.665   5.191  10.376 -0.0200  0.6831 -0.0686
    1Sil    Sib 1501   1.922   5.220  10.016 -0.2942  0.2347  0.0552
    1Sil    Sib 1502   2.030   5.843  10.184 -0.2657 -0.2805  0.3032
    1Sil    Sib 1503   1.669   2.629  10.359 -0.0754 -0.6167 -0.6651
    1Sil    Sib 1504   1.934   2.658  10.012 -0.0033 -0.2153 -0.2932
    1Sil    Sib 1505   2.544   3.276  10.190 -0.1500  0.1695 -0.3446
    1Sil    Sib 1506   2.191   3.488  10.361 -0.0450 -0.0865  0.0693
    1Sil    Sib 1507   2.444   3.503  10.018  0.1987  0.2074  0.2412
    1Sil    Sib 1508   2.552   4.140  10.192  0.2227  0.3027 -0.1236
    1Sil    Sib 1509   2.187   4.331  10.365  0.3919  0.3526 -0.4013
    1Sil    Sib 1510   2.438   4.362  10.010 -0.0504  0.2511  0.4542
    1Sil    Sib 1511   2.536   4.987  10.184 -0.0739  0.0223  0.2417
    1Sil    Sib 1512   2.171   5.185  10.357  0.3303  0.5404 -0.0313
    1Sil    Sib 1513   2.437   5.215  10.008  0.0020 -0.1404  0.0677
    1Sil    Sib 1514   2.543   5.838  10.183 -0.2278  0.1638  0.5738
    1Sil    Sib 1515   2.174   2.642  10.359  0.2200 -0.4486  0.1368
    1Sil    Sib 1516   2.442   2.650  10.005 -0.2697 -0.0511  0.1815
    1Sil    Sib 1517   3.052   3.280  10.185 -0.0661  0.2881 -0.0508
    1Sil    Sib 1518   2.690   3.491  10.361 -0.6884  0.1128  0.1439
    1Sil    Sib 1519   2.950   3.509  10.011  0.1585 -0.0610  0.2833
    1Sil    Sib 1520   3.049   4.142  10.177 -0.5691  0.1759 -0.1022
    1Sil    Sib 1521   2.683   4.344  10.372 -0.1247  0.1056 -0.5399
    1Sil    Sib 1522   2.942   4.365   9.999 -0.1158  0.0047 -0.0394
    1Sil    Sib 1523   3.055   4.985  10.185  0.1788  0.1938 -0.4762
    1Sil    Sib 1524   2.685   5.183  10.359 -0.1457 -0.2304  0.3590
    1Sil    Sib 1525   2.946   5.211  10.007  0.5502 -0.0561 -0.0827
    1Sil    Sib 1526   3.047   5.836  10.186 -0.1859 -0.1542 -0.2493
    1Sil    Sib 1527   2.698   2.628  10.359  0.2105  0.0882 -0.2387
    1Sil    Sib 1528   2.946   2.649  10.005  0.3775  0.0085  0.1490
    1Sil    Sib 1529  -0.006   3.281  10.192  0.3943  0.1513 -0.2565
    1Sil    Sib 1530  -0.374   3.493  10.366 -0.1291  0.2465  0.3961
    1Sil    Sib 1531  -0.111   3.509  10.013  0.4387 -0.1728 -0.0926
    1Sil    Sib 1532  -0.002   4.138  10.196 -0.0140  0.0391 -0.2203
    1Sil    Sib 1533  -0.364   4.335  10.353 -0.3257 -0.0669 -0.4072
    1Sil    Sib 1534  -0.104   4.358  10.008  0.4389 -0.1733 -0.2230
    1Sil    Sib 1535  -0.002   4.988  10.187 -0.2214 -0.3452 -0.1628
    1Sil    Sib 1536  -0.367   5.185  10.354 -0.3134 -0.1717  0.1473
    1Sil    Sib 1537  -0.105   5.209  10.009 -0.1790 -0.5116 -0.1759
    1Sil    Sib 1538  -0.007   5.847  10.187  0.4402  0.0302  0.4430
    1Sil    Sib 1539  -0.381   2.632  10.359  0.2124  0.0776  0.1382
    1Sil    Sib 1540  -0.110   2.646   9.997  0.0127 -0.1516 -0.3801
    1Sil    Sib 1541   0.493   3.272  10.708 -0.2373  0.2595 -0.0011
    1Sil    Sim 1542   0.139   3.477  10.894  0.1457 -0.0424 -0.3199
    1Sil    Sib 1543   0.403   3.498  10.524  0.1956  0.0513 -0.2354
    1Sil    Sib 1544   0.514   4.124  10.706  0.4520  0.0385  0.3676
    1Sil    Sim 1545   0.134   4.315  10.892  0.2365 -0.1964  0.4253
    1Sil    Sib 1546   0.401   4.351  10.538 -0.2741 -0.2370 -0.0059
    1Sil    Sib 1547   0.500   4.966  10.702 -0.4509 -0.0064 -0.2079
    1Sil    Sim 1548   0.132   5.173  10.884 -0.0154 -0.4547  0.0936
    1Sil    Sib 1549   0.395   5.197  10.533 -0.2131  0.2328  0.2767
    1Sil    Sib 1550   0.508   5.838  10.713  0.1833  0.1147 -0.2319
    1Sil    Sim 1551   0.136   2.643  10.885  0.0069  0.1230 -0.0636
    1Sil    Sib 1552   0.389   2.643  10.534  0.2237  0.3665 -0.3174
    1Sil    Sib 1553   1.023   3.277  10.703  0.3956 -0.2578  0.2058
    1Sil    Sim 1554   0.650   3.474  10.873  0.1758  0.0484  0.3254
    1Sil    Sib 1555   0.917   3.504  10.527  0.0501 -0.1795  0.1122
    1Sil    Sib 1556   1.008   4.120  10.701 -0.2444 -0.4777 -0.3435
    1Sil    Sim 1557   0.662   4.317  10.896  0.1632  0.2614  0.1860
    1Sil    Sib 1558   0.910   4.350  10.531  0.5016 -0.0857  0.2539
    1Sil    Sib 1559   1.009   4.981  10.710 -0.2981  0.1933 -0.0503
    1Sil    Sim 1560   0.655   5.175  10.886  0.5395  0.2035 -0.1469
    1Sil    Sib 1561   0.903   5.212  10.534  0.1109 -0.1277  0.3817
    1Sil    Sib 1562   1.008   5.838  10.718 -0.4051  0.0663  0.1346
    1Sil    Sim 1563   0.648   2.628  10.905 -0.1013 -0.3322  0.1501
    1Sil    Sib 1564   0.903   2.646  10.537 -0.5872  0.1268 -0.0783
    1Sil    Sib 1565   1.516   3.276  10.703  0.1617  0.4815 -0.1245
    1Sil    Sim 1566   1.163   3.474  10.892  0.4903  0.2212 -0.1348
    1Sil    Sib 1567   1.415   3.499  10.527  0.1589 -0.3022  0.1005
    1Sil    Sib 1568   1.533   4.125  10.696  0.6272  0.1318  0.3451
    1Sil    Sim 1569   1.158   4.326  10.875 -0.0911 -0.5589 -0.3114
    1Sil    Sib 1570   1.431   4.354  10.526  0.0126  0.0627 -0.2617
    1Sil    Sib 1571   1.505   4.981  10.713 -0.1287  0.2132 -0.0545
    1Sil    Sim 1572   1.159   5.179  10.899 -0.1040 -0.4166  0.0133
    1Sil    Sib 1573   1.401   5.201  10.540  0.2994 -0.0971  0.2271
    1Sil    Sib 1574   1.508   5.837  10.712  0.3171 -0.1462  0.1922
    1Sil    Sim 1575   1.149   2.630  10.897  0.0335 -0.2457  0.0965
    1Sil    Sib 1576   1.410   2.647  10.533 -0.0206 -0.2780 -0.1588
    1Sil    Sib 1577   2.029   3.261  10.721 -0.1720 -0.0750  0.1359
    1Sil    Sim 1578   1.664   3.472  10.880 -0.1659  0.0071  0.0678
    1Sil    Sib 1579   1.926   3.488  10.542 -0.1514 -0.0475  0.4737
    1Sil    Sib 1580   2.038   4.126  10.712  0.1019 -0.0732 -0.1770
    1Sil    Sim 1581   1.674   4.332  10.879  0.0656  0.6831  0.1960
    1Sil    Sib 1582   1.933   4.344  10.532  0.0932  0.1182  0.1313
    1Sil    Sib 1583   2.032   4.983  10.717 -0.2162 -0.0154 -0.5525
    1Sil    Sim 1584   1.657   5.183  10.885 -0.0480 -0.2075  0.0665
    1Sil    Sib 1585   1.926   5.204  10.537 -0.2555  0.2012 -0.4229
    1Sil    Sib 1586   2.036   5.826  10.705  0.3582  0.4001 -0.2855
    1Sil    Sim 1587   1.674   2.621  10.889 -0.1347  0.0059 -0.0060
    1Sil    Sib 1588   1.926   2.650  10.532  0.7295 -0.3329  0.0759
    1Sil    Sib 1589   2.537   3.268  10.713 -0.0270 -0.1028 -0.4111
    1Sil    Sim 1590   2.170   3.469  10.900  0.3506  0.5341 -0.2422
    1Sil    Sib 1591   2.437   3.506  10.543 -0.3214  0.4931 -0.2834
    1Sil    Sib 1592   2.541   4.134  10.726  0.1499 -0.1511  0.0317
    1Sil    Sim 1593   2.187   4.334  10.883  0.3194 -0.5517 -0.0363
    1Sil    Sib 1594   2.443   4.362  10.544  0.1267 -0.0191  0.1833
    1Sil    Sib 1595   2.533   4.989  10.698  0.5477 -0.5584  0.0257
    1Sil    Sim 1596   2.171   5.185  10.899 -0.3888  0.4003  0.1914
    1Sil    Sib 1597   2.431   5.205  10.521  0.3568  0.0278 -0.1568
    1Sil    Sib 1598   2.540   5.822  10.709  0.6958  0.0484 -0.2575
    1Sil    Sim 1599   2.175   2.618  10.889 -0.1008  0.0385  0.1819
    1Sil    Sib 1600   2.436   2.649  10.535  0.2107 -0.4381  0.4908
    1Sil    Sib 1601   3.044   3.279  10.705  0.1765  0.2347 -0.0250
    1Sil    Sim 1602   2.669   3.476  10.897 -0.0009  0.4643  0.1740
    1Sil    Sib 1603   2.943   3.512  10.534 -0.4991  0.3437  0.1009
    1Sil    Sib 1604   3.056   4.127  10.724  0.1360 -0.1457 -0.1553
    1Sil    Sim 1605   2.699   4.325  10.909 -0.0757  0.1155  0.1384
    1Sil    Sib 1606   2.952   4.353  10.535  0.0641 -0.2765 -0.0374
    1Sil    Sib 1607   3.067   4.982  10.702  0.0186 -0.0083 -0.1256
    1Sil    Sim 1608   2.691   5.180  10.881 -0.5499 -0.5997 -0.1080
    1Sil    Sib 1609   2.943   5.208  10.525 -0.3622  0.1977  0.2840
    1Sil    Sib 1610   3.045   5.842  10.710 -0.3690 -0.1937 -0.1089
    1Sil    Sim 1611   2.685   2.627  10.897 -0.3714 -0.2474  0.1790
    1Sil    Sib 1612   2.938   2.659  10.539 -0.2469 -0.0964 -0.2187
    1Sil    Sib 1613  -0.002   3.279  10.710 -0.0897 -0.2124 -0.0954
    1Sil    Sim 1614   3.187   3.483  10.882 -0.0984  0.0938 -0.3045
    1Sil    Sib 1615   3.455   3.506  10.535  0.0581  0.2311 -0.0212
    1Sil    Sib 1616  -0.003   4.118  10.706  0.3093 -0.3992  0.0595
    1Sil    Sim 1617   3.207   4.332  10.904 -0.1437  0.2655 -0.1368
    1Sil    Sib 1618   3.453   4.355  10.535 -0.0155  0.3498  0.1621
    1Sil    Sib 1619  -0.021   4.976  10.701 -0.1980 -0.2976  0.0368
    1Sil    Sim 1620   3.192   5.190  10.899 -0.0187 -0.4275 -0.2898
    1Sil    Sib 1621   3.450   5.208  10.536  0.0591  0.6844 -0.0090
    1Sil    Sib 1622  -0.009   5.838  10.705 -0.0423 -0.1849  0.2047
    1Sil    Sim 1623   3.187   2.626  10.897  0.1128 -0.1629 -0.0852
    1Sil    Sib 1624   3.447   2.653  10.536  0.0104 -0.3846 -0.1585
    1Sil     Hm 1625   0.010   2.959   9.313  0.1574 -0.3931 -2.5461
    1Sil     Hm 1626  -0.011   3.127   9.282  2.7534  1.5098  0.5787
    1Sil     Hm 1627   0.130   3.039   9.225  1.6474  0.2871 -0.1220
    1Sil     Hm 1628   0.312   3.233   9.408  0.5653 -0.6568 -2.4122
    1Sil     Hm 1629   0.356   3.106   9.521 -2.2056 -2.3586  0.1671
    1Sil     Hm 1630   0.329   3.061   9.349  1.1011  0.6910 -0.7735
    1Sil     Hm 1631   0.115   3.798   9.284 -0.2688  0.6181 -0.4242
    1Sil     Hm 1632  -0.039   3.836   9.366  0.7131 -0.7044  0.2028
    1Sil     Hm 1633   0.055   3.964   9.271 -1.4601 -0.1460 -0.9568
    1Sil     Hm 1634   0.366   3.918   9.483 -0.2797  1.5276  1.9728
    1Sil     Hm 1635   0.301   3.911   9.320  0.1129 -1.2290  0.4036
    1Sil     Hm 1636   0.313   4.064   9.398 -0.5047  0.1933  0.3224
    1Sil     Hm 1637  -0.023   4.665   9.353 -1.3236  2.1466 -1.1966
    1Sil     Hm 1638   0.043   4.811   9.275 -0.4073  0.1300  0.0229
    1Sil     Hm 1639   0.131   4.658   9.281 -0.1182 -0.7879  0.3475
    1Sil     Hm 1640   0.283   4.941   9.457  0.8677 -0.3027  1.4571
    1Sil     Hm 1641   0.354   4.774   9.463  0.8614  0.8628  0.1277
    1Sil     Hm 1642   0.278   4.838   9.320  1.9558  1.3294  0.6932
    1Sil     Hm 1643  -0.059   5.534   9.393 -0.4008  1.0707  0.1943
    1Sil     Hm 1644   0.010   5.659   9.288 -1.3666  2.2910  2.9494
    1Sil     Hm 1645   0.094   5.504   9.310 -2.5322 -1.1472 -0.8281
    1Sil     Hm 1646   0.242   5.764   9.334  1.6928  0.5461  0.3193
    1Sil     Hm 1647   0.333   5.734   9.481  0.3541 -0.9422  0.9002
    1Sil     Hm 1648   0.300   5.597   9.368  1.8194 -0.1308  1.6627
    1Sil     Hm 1649   0.601   3.114   9.268 -3.2917 -0.3815 -0.4388
    1Sil     Hm 1650   0.683   2.958   9.292  0.6949  1.2603 -1.4153
    1Sil     Hm 1651   0.511   2.983   9.323  0.6127 -0.3057  0.3446
    1Sil     Hm 1652   0.873   3.083   9.498  0.8346  1.3436  0.2658
    1Sil     Hm 1653   0.812   3.169   9.357 -1.8419  1.4063 -0.1668
    1Sil     Hm 1654   0.797   3.240   9.519  1.5193  0.9734 -1.6671
    1Sil     Hm 1655   0.486   3.823   9.347  2.3987 -1.1148  2.4527
    1Sil     Hm 1656   0.529   3.981   9.279  1.2249  0.8420 -1.0306
    1Sil     Hm 1657   0.641   3.850   9.254  0.9527  0.7839 -0.2094
    1Sil     Hm 1658   0.813   3.991   9.328 -0.1842  2.8703  0.7773
    1Sil     Hm 1659   0.813   4.064   9.490  0.2481 -0.4369  0.8933
    1Sil     Hm 1660   0.865   3.894   9.466  2.0773  1.5389  0.1331
    1Sil     Hm 1661   0.638   4.690   9.250 -1.4033  1.7581 -1.4768
    1Sil     Hm 1662   0.478   4.677   9.327 -0.0966  0.1805  2.0358
    1Sil     Hm 1663   0.530   4.825   9.256 -0.5670  0.3913 -0.0301
    1Sil     Hm 1664   0.791   4.948   9.483  0.5573  0.2210  0.2728
    1Sil     Hm 1665   0.792   4.847   9.326 -0.7730 -1.4710 -0.7277
    1Sil     Hm 1666   0.860   4.795   9.482 -2.0416 -0.9559  0.5861
    1Sil     Hm 1667   0.592   5.504   9.330  0.7861  0.2221 -0.2150
    1Sil     Hm 1668   0.473   5.544   9.448  2.7724 -1.2889  2.1322
    1Sil     Hm 1669   0.512   5.657   9.311  0.5814  2.9172  1.1310
    1Sil     Hm 1670   0.853   5.717   9.455 -0.0628  0.2776 -0.3821
    1Sil     Hm 1671   0.811   5.586   9.341 -0.3083 -0.0906  0.0956
    1Sil     Hm 1672   0.763   5.752   9.313 -0.0079  0.3926 -0.2681
    1Sil     Hm 1673   1.142   2.945   9.297  1.7518  2.1176 -1.5033
    1Sil     Hm 1674   0.991   2.978   9.389  0.6694 -1.2544  0.4221
    1Sil     Hm 1675   1.063   3.109   9.281  1.5206  1.1043  1.9216
    1Sil     Hm 1676   1.394   3.057   9.450 -0.6459  0.8492  1.6436
    1Sil     Hm 1677   1.321   3.123   9.302  1.2585 -2.6186 -0.2867
    1Sil     Hm 1678   1.345   3.223   9.447 -0.2729  0.7292  1.4219
    1Sil     Hm 1679   1.039   3.961   9.275 -0.2506  0.3999 -0.2400
    1Sil     Hm 1680   1.010   3.813   9.359  0.5774  0.9801  2.6367
    1Sil     Hm 1681   1.159   3.830   9.263  0.1284 -1.0627  0.9938
    1Sil     Hm 1682   1.324   3.953   9.319 -2.8776  1.5885 -1.1887
    1Sil     Hm 1683   1.301   4.091   9.425  2.5771 -0.7107  0.0317
    1Sil     Hm 1684   1.383   3.948   9.491  0.0594 -0.9445 -0.0362
    1Sil     Hm 1685   1.099   4.658   9.256  0.6963 -0.8195  2.5995
    1Sil     Hm 1686   0.943   4.651   9.342 -0.6813 -1.2012  0.4970
    1Sil     Hm 1687   0.990   4.801   9.269  2.2233 -0.1612 -1.7473
    1Sil     Hm 1688   1.261   4.871   9.313  3.3410  1.1871  0.9191
    1Sil     Hm 1689   1.334   4.870   9.465 -0.6047 -0.4920  0.9910
    1Sil     Hm 1690   1.309   4.718   9.373  1.0025  0.7590  0.7865
    1Sil     Hm 1691   1.129   5.528   9.286  0.3486  1.3849  0.3633
    1Sil     Hm 1692   0.986   5.533   9.395 -1.1464 -1.1180 -1.0872
    1Sil     Hm 1693   1.036   5.674   9.296  1.4344  0.6434 -0.0120
    1Sil     Hm 1694   1.280   5.768   9.364 -1.2522 -1.9136 -2.2733
    1Sil     Hm 1695   1.345   5.731   9.527 -1.0178  2.2634 -0.5962
    1Sil     Hm 1696   1.333   5.604   9.393 -0.6776 -1.0309  1.5846
    1Sil     Hm 1697   1.611   2.928   9.285  0.0955 -0.6591 -0.1559
    1Sil     Hm 1698   1.535   3.087   9.264 -0.3576 -0.1159  2.1674
    1Sil     Hm 1699   1.702   3.047   9.213 -0.3067  0.7309 -0.0741
    1Sil     Hm 1700   1.821   3.194   9.336  0.0011  0.0061  0.4381
    1Sil     Hm 1701   1.820   3.241   9.500 -0.1747 -0.2574 -0.5704
    1Sil     Hm 1702   1.893   3.082   9.459  1.0065  0.2210  1.1558
    1Sil     Hm 1703   1.498   3.834   9.362  0.6839 -0.5047  0.5013
    1Sil     Hm 1704   1.582   3.967   9.276 -1.2872  1.3132  2.4704
    1Sil     Hm 1705   1.658   3.805   9.288  0.4999  0.7228 -0.0121
    1Sil     Hm 1706   1.838   3.976   9.307  2.3078 -2.1678  1.3864
    1Sil     Hm 1707   1.848   4.073   9.450 -0.7351  0.0548  0.5133
    1Sil     Hm 1708   1.896   3.901   9.455  0.2488 -0.3347  0.6489
    1Sil     Hm 1709   1.621   4.678   9.289  0.6362  1.6825 -0.5693
    1Sil     Hm 1710   1.500   4.675   9.421 -1.5525 -0.3470 -1.1723
    1Sil     Hm 1711   1.519   4.817   9.314  1.0479  0.9133  0.8141
    1Sil     Hm 1712   1.869   4.895   9.463  1.7177 -0.4143 -1.6284
    1Sil     Hm 1713   1.856   4.739   9.392  2.5229  0.5466  1.5097
    1Sil     Hm 1714   1.796   4.879   9.301  0.2542  2.4108  1.1725
    1Sil     Hm 1715   1.647   5.550   9.256 -0.2669  0.7479 -0.5105
    1Sil     Hm 1716   1.545   5.678   9.283 -0.6551  0.3776  0.9957
    1Sil     Hm 1717   1.498   5.527   9.353 -0.5376  1.2020  1.4182
    1Sil     Hm 1718   1.841   5.776   9.453  1.6534  0.3849 -0.6725
    1Sil     Hm 1719   1.896   5.609   9.481 -0.3766  0.0866 -0.1412
    1Sil     Hm 1720   1.832   5.659   9.326  3.5520  2.9061  0.6252
    1Sil     Hm 1721   2.145   2.977   9.254 -1.3477  0.7534 -2.6237
    1Sil     Hm 1722   2.000   2.944   9.350  0.8799  0.2084  1.1847
    1Sil     Hm 1723   2.027   3.103   9.288  0.3960 -0.4161  1.2542
    1Sil     Hm 1724   2.352   3.189   9.482  0.1335 -2.2610  1.8523
    1Sil     Hm 1725   2.367   3.025   9.454 -1.4867 -0.9481  1.8564
    1Sil     Hm 1726   2.306   3.129   9.324 -3.8901  1.9470 -0.3991
    1Sil     Hm 1727   2.091   3.980   9.267 -2.6081  0.2306  0.8330
    1Sil     Hm 1728   2.184   3.837   9.269 -1.3755 -0.1654 -2.0901
    1Sil     Hm 1729   2.025   3.828   9.331  0.6546 -0.1299 -0.4089
    1Sil     Hm 1730   2.335   4.005   9.323 -4.2947  1.0844  0.1482
    1Sil     Hm 1731   2.350   4.080   9.481 -0.1603  0.7872 -0.3315
    1Sil     Hm 1732   2.408   3.920   9.467  1.1952 -0.8569 -0.8426
    1Sil     Hm 1733   2.048   4.826   9.304  1.0740  1.3393  0.5886
    1Sil     Hm 1734   2.169   4.698   9.268  0.2688 -1.4020  1.7400
    1Sil     Hm 1735   2.043   4.666   9.383 -1.1005  0.4180 -0.4358
    1Sil     Hm 1736   2.366   4.926   9.428  1.6696 -0.7397 -0.8745
    1Sil     Hm 1737   2.418   4.772   9.488 -0.0505  0.4121  1.1989
    1Sil     Hm 1738   2.350   4.785   9.320  2.4979 -1.9566  0.5982
    1Sil     Hm 1739   2.044   5.674   9.281 -2.6674 -1.0609  0.6425
    1Sil     Hm 1740   2.162   5.537   9.258  0.2934  1.7798 -1.7211
    1Sil     Hm 1741   2.013   5.514   9.351 -0.9735  1.7976  2.9689
    1Sil     Hm 1742   2.400   5.623   9.470 -0.6615 -0.7757  0.2274
    1Sil     Hm 1743   2.325   5.667   9.312 -0.7641  1.8219  0.1640
    1Sil     Hm 1744   2.352   5.791   9.441  0.1049  0.0728  1.5351
    1Sil     Hm 1745   2.536   2.991   9.337  0.7676 -1.0268  0.0145
    1Sil     Hm 1746   2.528   3.163   9.318 -1.6961 -0.5978 -0.9272
    1Sil     Hm 1747   2.656   3.070   9.237 -0.2534 -1.0499 -0.0304
    1Sil     Hm 1748   2.913   3.128   9.487  0.0305  2.2103 -0.1531
    1Sil     Hm 1749   2.873   3.046   9.341  2.3385 -0.2200  1.8990
    1Sil     Hm 1750   2.846   3.215   9.344  1.2522  0.4183 -0.0981
    1Sil     Hm 1751   2.529   3.796   9.367  0.0316  0.1770  1.6194
    1Sil     Hm 1752   2.584   3.925   9.259  0.4416  0.1078  0.2480
    1Sil     Hm 1753   2.674   3.779   9.286  1.7265 -0.4467  1.9860
    1Sil     Hm 1754   2.841   3.951   9.340  0.7265  2.3342 -1.3980
    1Sil     Hm 1755   2.850   4.074   9.469 -1.0628  0.6167 -1.6743
    1Sil     Hm 1756   2.906   3.916   9.499  1.1581  1.0703 -1.9933
    1Sil     Hm 1757   2.599   4.840   9.256 -1.5809  0.1342  1.6680
    1Sil     Hm 1758   2.702   4.692   9.253  1.5655  0.9162  0.8161
    1Sil     Hm 1759   2.542   4.682   9.325  0.3674 -0.5415 -0.6774
    1Sil     Hm 1760   2.913   4.786   9.497 -0.0366  1.6671  1.5492
    1Sil     Hm 1761   2.859   4.834   9.339  0.3889 -0.4542 -0.0709
    1Sil     Hm 1762   2.846   4.948   9.467 -0.6234 -0.2800  1.6519
    1Sil     Hm 1763   2.523   5.524   9.384  0.7742 -0.9344  0.3647
    1Sil     Hm 1764   2.564   5.654   9.277  0.4879  1.1356  0.3725
    1Sil     Hm 1765   2.662   5.511   9.288  4.6248  1.0645  3.6877
    1Sil     Hm 1766   2.897   5.626   9.432 -0.0640 -0.8373 -1.4372
    1Sil     Hm 1767   2.815   5.725   9.316  2.0464  0.0603  0.4382
    1Sil     Hm 1768   2.848   5.799   9.466  0.5391 -0.4132 -1.5002
    1Sil     Hm 1769  -0.513   2.944   9.390 -0.4984  0.3595 -0.0417
    1Sil     Hm 1770  -0.502   3.098   9.296  1.5074 -0.0395 -2.3116
    1Sil     Hm 1771  -0.379   2.976   9.296 -0.9673  0.7504 -1.4603
    1Sil     Hm 1772  -0.224   3.195   9.354  0.7261 -0.0232 -0.1999
    1Sil     Hm 1773  -0.155   3.139   9.514 -1.9176  1.7101  1.4615
    1Sil     Hm 1774  -0.178   3.032   9.381 -0.1976 -0.7657  2.6747
    1Sil     Hm 1775  -0.571   3.801   9.353 -0.7704  0.3213 -1.9110
    1Sil     Hm 1776  -0.532   3.953   9.281 -1.3573  0.1977  1.1160
    1Sil     Hm 1777  -0.427   3.810   9.259 -0.1422 -0.5804  1.1537
    1Sil     Hm 1778  -0.177   3.996   9.483  0.5790  0.6971 -0.3315
    1Sil     Hm 1779  -0.212   3.885   9.353 -1.6083 -1.7038  0.8562
    1Sil     Hm 1780  -0.271   4.040   9.328 -1.4215  0.4368  0.0307
    1Sil     Hm 1781  -0.402   4.646   9.285  2.1921  0.0022  1.0357
    1Sil     Hm 1782  -0.552   4.654   9.370 -0.1367  0.7048 -0.5237
    1Sil     Hm 1783  -0.505   4.794   9.279 -1.3062 -3.4095 -3.1215
    1Sil     Hm 1784  -0.227   4.819   9.318 -2.5153 -0.3774  0.1201
    1Sil     Hm 1785  -0.199   4.911   9.464  1.4809  0.1700  0.9143
    1Sil     Hm 1786  -0.154   4.743   9.468  0.2746  1.1653 -0.3016
    1Sil     Hm 1787  -0.364   5.523   9.281  0.8766 -0.1872  0.4033
    1Sil     Hm 1788  -0.528   5.525   9.354  0.9062 -1.4036 -0.3445
    1Sil     Hm 1789  -0.470   5.663   9.262 -1.4272 -0.8665 -0.4425
    1Sil     Hm 1790  -0.152   5.680   9.501  0.2972  0.0113  0.5307
    1Sil     Hm 1791  -0.225   5.693   9.341 -1.5574 -3.8789  1.4047
    1Sil     Hm 1792  -0.242   5.823   9.450  0.3064  0.3234  0.8159
    1Sil     Hm 1793   0.241   3.178  11.018 -1.0809 -0.8801  1.2004
    1Sil     Hm 1794   0.230   3.001  11.045  0.5574 -1.1713 -1.2126
    1Sil     Hm 1795   0.347   3.089  11.127 -0.4220  0.0412  0.7132
    1Sil     Hm 1796   0.624   3.055  10.885 -0.3299 -1.9249  0.9268
    1Sil     Hm 1797   0.560   2.936  11.005 -1.2269 -0.1773  1.1152
    1Sil     Hm 1798   0.559   3.110  11.034  1.2613 -0.4375  1.2749
    1Sil     Hm 1799   0.252   3.903  11.052  1.0272  0.1972  0.9591
    1Sil     Hm 1800   0.361   4.038  11.064  0.9058 -1.3008 -0.4026
    1Sil     Hm 1801   0.236   4.049  10.948  1.9419  1.4685 -0.9352
    1Sil     Hm 1802   0.488   3.833  11.042  0.2181  0.6152 -0.5150
    1Sil     Hm 1803   0.580   3.799  10.894  1.0753  1.1746  0.0723
    1Sil     Hm 1804   0.573   3.964  10.972  0.6723 -0.5921  2.4345
    1Sil     Hm 1805   0.299   4.719  11.107 -2.0251  0.5149 -1.2926
    1Sil     Hm 1806   0.420   4.832  11.099 -0.5995  1.4073 -0.6085
    1Sil     Hm 1807   0.246   4.873  11.032 -1.5838 -0.4124  1.8711
    1Sil     Hm 1808   0.554   4.592  10.875  2.5519 -0.9018  3.5735
    1Sil     Hm 1809   0.609   4.757  10.878  0.9547 -0.2051  0.8617
    1Sil     Hm 1810   0.551   4.672  11.025 -0.7650  0.9548  0.6698
    1Sil     Hm 1811   0.392   5.729  11.090 -1.9192  1.8754  1.4045
    1Sil     Hm 1812   0.258   5.767  10.987  0.2981 -0.3754  1.6578
    1Sil     Hm 1813   0.258   5.609  11.070  0.3303 -0.8486 -0.4046
    1Sil     Hm 1814   0.603   5.622  10.892 -0.7928 -0.6103 -0.6942
    1Sil     Hm 1815   0.528   5.536  11.032 -1.2647 -2.7909  0.0448
    1Sil     Hm 1816   0.535   5.459  10.876 -0.2246  0.6908 -0.1644
    1Sil     Hm 1817   0.738   3.190  10.982 -0.4696 -2.3405 -2.9013
    1Sil     Hm 1818   0.811   3.070  11.093  1.5038  1.5730  0.7675
    1Sil     Hm 1819   0.892   3.221  11.051  0.8282  0.7308 -0.9394
    1Sil     Hm 1820   1.081   2.917  10.931  0.6606  0.6838 -0.9766
    1Sil     Hm 1821   1.118   3.095  10.936 -2.1919  2.3810  0.8249
    1Sil     Hm 1822   1.041   3.025  11.069 -2.5187  0.4837 -0.5327
    1Sil     Hm 1823   0.894   4.027  11.071 -1.7520  0.8697  0.5760
    1Sil     Hm 1824   0.749   4.027  10.970 -0.9877  1.5333  2.6307
    1Sil     Hm 1825   0.785   3.884  11.074 -1.5466 -0.1365 -1.1559
    1Sil     Hm 1826   1.068   3.751  10.898 -1.2185 -0.3847 -0.2500
    1Sil     Hm 1827   1.127   3.914  10.883  1.3711  0.1190  1.3217
    1Sil     Hm 1828   1.070   3.860  11.036 -2.6729 -0.8824  0.6838
    1Sil     Hm 1829   0.870   4.867  11.096 -0.0473 -0.7219  1.6170
    1Sil     Hm 1830   0.728   4.883  10.991 -2.4833 -1.2013  1.2270
    1Sil     Hm 1831   0.753   4.735  11.083  2.0332  0.0187  1.5278
    1Sil     Hm 1832   1.072   4.651  10.871 -0.5133  2.1552 -2.8143
    1Sil     Hm 1833   1.059   4.794  10.978 -0.8945 -0.1221 -0.0814
    1Sil     Hm 1834   0.989   4.638  11.030  0.8029  1.8123  2.4820
    1Sil     Hm 1835   0.728   5.703  10.994 -0.0725 -0.0749  0.7715
    1Sil     Hm 1836   0.753   5.541  11.054 -1.0899  0.5947  0.4435
    1Sil     Hm 1837   0.857   5.670  11.106  2.6957  0.6748 -2.3273
    1Sil     Hm 1838   1.136   5.617  10.913 -1.3660  1.2762 -0.3924
    1Sil     Hm 1839   1.077   5.659  11.074  2.2109 -1.3965  1.1305
    1Sil     Hm 1840   1.081   5.493  11.021 -1.2029  0.3560 -0.0707
    1Sil     Hm 1841   1.402   3.177  11.107 -0.9101  1.2954 -0.5424
    1Sil     Hm 1842   1.248   3.174  11.035 -0.1104 -0.0263  0.6188
    1Sil     Hm 1843   1.294   3.023  11.093  0.1708 -1.4327 -3.5927
    1Sil     Hm 1844   1.574   3.004  11.024 -1.8112 -1.8585 -0.1301
    1Sil     Hm 1845   1.550   2.904  10.884 -2.3250  0.9233  0.0357
    1Sil     Hm 1846   1.636   3.059  10.864 -0.2599 -0.6754 -1.9075
    1Sil     Hm 1847   1.342   3.915  11.109  0.5851  0.9459  0.6893
    1Sil     Hm 1848   1.415   4.071  11.066  0.4782  0.8956 -0.4172
    1Sil     Hm 1849   1.246   4.045  11.028  1.4793  1.8490  1.0267
    1Sil     Hm 1850   1.564   3.858  11.024 -2.9921 -1.7737 -1.0481
    1Sil     Hm 1851   1.577   3.775  10.868  1.4224 -0.3379  0.3482
    1Sil     Hm 1852   1.629   3.946  10.889  0.1336 -0.9365 -2.5697
    1Sil     Hm 1853   1.223   4.870  10.974 -1.4161 -1.7269  1.4356
    1Sil     Hm 1854   1.245   4.726  11.066 -2.7431  1.3520  0.0149
    1Sil     Hm 1855   1.346   4.867  11.095  0.0494  3.0832 -2.1780
    1Sil     Hm 1856   1.556   4.825  11.000 -1.3491  0.9944 -0.1590
    1Sil     Hm 1857   1.515   4.652  11.036  1.9831 -0.0189 -0.3807
    1Sil     Hm 1858   1.590   4.701  10.885  1.7187  0.9125  2.0311
    1Sil     Hm 1859   1.426   5.733  11.099 -0.0579  2.1743 -3.6532
    1Sil     Hm 1860   1.256   5.715  11.047  0.8897  0.9286 -2.6544
    1Sil     Hm 1861   1.341   5.578  11.119  0.4043 -0.3091 -0.2849
    1Sil     Hm 1862   1.580   5.570  11.032 -0.9568 -0.1036 -0.0768
    1Sil     Hm 1863   1.580   5.469  10.890  1.2262 -0.0718  0.1388
    1Sil     Hm 1864   1.631   5.634  10.876  1.1747  0.7939  1.6703
    1Sil     Hm 1865   1.748   3.160  11.008  1.4423  2.6585  2.4391
    1Sil     Hm 1866   1.769   2.995  11.064 -2.0452  1.5146  0.6750
    1Sil     Hm 1867   1.877   3.115  11.122 -0.7746 -1.2888  1.3811
    1Sil     Hm 1868   2.082   2.900  10.944  0.6145  0.0840  1.5704
    1Sil     Hm 1869   2.139   3.057  10.886 -1.3485  1.0805 -0.3477
    1Sil     Hm 1870   2.077   3.041  11.046  0.2347  3.5182 -1.0978
    1Sil     Hm 1871   1.776   4.024  10.976 -0.6307 -0.7420  0.2530
    1Sil     Hm 1872   1.798   3.879  11.077 -2.4049  0.3149 -1.0003
    1Sil     Hm 1873   1.917   4.007  11.093 -1.5295  2.2385 -0.5888
    1Sil     Hm 1874   2.095   3.750  10.883  2.2593 -0.2717 -0.6823
    1Sil     Hm 1875   2.158   3.913  10.914 -0.4351 -0.8145  1.4355
    1Sil     Hm 1876   2.068   3.817  11.044  1.5808  0.7172  0.3451
    1Sil     Hm 1877   1.879   4.853  11.084 -0.3022 -1.7115  0.3748
    1Sil     Hm 1878   1.738   4.882  10.974  1.1748  2.7374  1.5466
    1Sil     Hm 1879   1.761   4.723  11.050 -1.3864 -1.2657 -3.1288
    1Sil     Hm 1880   2.022   4.662  11.042 -0.4548 -2.5124 -1.9355
    1Sil     Hm 1881   2.106   4.665  10.890  0.5500 -1.9083  2.1547
    1Sil     Hm 1882   2.093   4.812  10.976 -3.4905  1.9762  1.5186
    1Sil     Hm 1883   1.939   5.753  11.067 -0.4024 -0.1999  1.3765
    1Sil     Hm 1884   1.768   5.737  11.008 -0.2700  1.6546  2.8093
    1Sil     Hm 1885   1.834   5.614  11.109 -0.1113  0.2727  0.7343
    1Sil     Hm 1886   2.087   5.543  11.011 -1.1620 -3.2609  0.0106
    1Sil     Hm 1887   2.065   5.454  10.861 -1.3237 -0.1841  1.4799
    1Sil     Hm 1888   2.139   5.611  10.854 -1.2306  0.9589  0.3168
    1Sil     Hm 1889   2.411   3.187  11.081  0.3619  0.8378 -2.4129
    1Sil     Hm 1890   2.254   3.151  11.014 -0.0792  1.9304  2.8097
    1Sil     Hm 1891   2.336   3.031  11.116 -0.7071  1.7673  1.5139
    1Sil     Hm 1892   2.635   3.065  10.871 -1.6038 -1.4205 -2.9967
    1Sil     Hm 1893   2.594   3.012  11.039  1.1937 -0.1130  0.3349
    1Sil     Hm 1894   2.599   2.904  10.901 -1.2821  0.0904  0.5491
    1Sil     Hm 1895   2.405   4.053  11.092  1.9566 -1.0863 -0.4470
    1Sil     Hm 1896   2.254   4.050  11.019  0.6246 -0.8805 -0.8673
    1Sil     Hm 1897   2.307   3.905  11.117  1.1783 -1.4052 -2.0831
    1Sil     Hm 1898   2.641   3.900  10.881 -0.9657  1.5304 -1.0619
    1Sil     Hm 1899   2.592   3.923  11.053  1.0579 -2.6468  1.3676
    1Sil     Hm 1900   2.582   3.772  10.970  0.5068  0.9335  2.0698
    1Sil     Hm 1901   2.426   4.888  11.066  0.3062 -0.2063 -1.3854
    1Sil     Hm 1902   2.321   4.754  11.085 -1.2600  1.0517  0.4164
    1Sil     Hm 1903   2.275   4.889  10.978  1.1708  0.5509 -0.5056
    1Sil     Hm 1904   2.569   4.690  11.030 -0.0565 -1.3593  0.1876
    1Sil     Hm 1905   2.593   4.608  10.884  0.4100  1.4349 -3.1881
    1Sil     Hm 1906   2.648   4.772  10.881 -1.0656  0.8611 -0.2657
    1Sil     Hm 1907   2.277   5.570  11.062  2.1956  0.1714  1.1099
    1Sil     Hm 1908   2.372   5.715  11.081 -0.7067  0.6747  0.2178
    1Sil     Hm 1909   2.249   5.719  10.959 -0.4410 -1.4020 -3.2524
    1Sil     Hm 1910   2.524   5.483  11.046 -1.5970  1.7560  0.9034
    1Sil     Hm 1911   2.630   5.519  10.911  1.7979  1.5418  1.2174
    1Sil     Hm 1912   2.584   5.642  11.026 -3.5897  0.6889  1.2145
    1Sil     Hm 1913   2.897   3.196  11.092 -1.9881  1.1532  0.5145
    1Sil     Hm 1914   2.756   3.185  11.001  1.6139  2.2702  0.0399
    1Sil     Hm 1915   2.799   3.050  11.099  0.3488 -0.9772 -0.2187
    1Sil     Hm 1916   3.090   3.100  11.041  0.0176 -1.0076  0.4256
    1Sil     Hm 1917   3.107   2.941  10.953 -2.0419 -1.0671  0.8920
    1Sil     Hm 1918   3.167   3.086  10.883  1.8354 -2.8547  0.6422
    1Sil     Hm 1919   2.810   3.909  11.122  0.4528  0.7701  0.5845
    1Sil     Hm 1920   2.909   4.053  11.087  1.1343 -0.4158  0.1891
    1Sil     Hm 1921   2.762   4.032  11.000 -0.2143 -1.5563 -1.9449
    1Sil     Hm 1922   3.096   3.965  11.013  1.9716  0.5233 -0.7451
    1Sil     Hm 1923   3.021   3.812  11.063 -2.5714  2.5335  0.3448
    1Sil     Hm 1924   3.125   3.814  10.920 -1.7913 -1.0712 -0.1461
    1Sil     Hm 1925   2.788   4.890  11.001  0.7923  1.6098  2.4128
    1Sil     Hm 1926   2.803   4.737  11.085  0.0815 -2.4477 -1.3290
    1Sil     Hm 1927   2.936   4.858  11.092 -0.0819  0.1765 -1.6320
    1Sil     Hm 1928   3.083   4.610  10.873  1.6180  0.1377  0.2773
    1Sil     Hm 1929   3.138   4.776  10.893  0.8618 -1.3393 -0.0870
    1Sil     Hm 1930   3.063   4.681  11.031 -0.5893 -0.2143 -0.2545
    1Sil     Hm 1931   2.803   5.578  11.060 -1.4906 -0.6068 -0.6079
    1Sil     Hm 1932   2.880   5.737  11.077 -1.9285  1.7815 -1.1326
    1Sil     Hm 1933   2.755   5.707  10.953  0.6171  0.9266  0.2356
    1Sil     Hm 1934   3.099   5.685  11.030 -2.0139  1.7111 -0.9878
    1Sil     Hm 1935   3.088   5.513  11.041 -1.4538  0.3933  0.2347
    1Sil     Hm 1936   3.167   5.582  10.905 -0.0803 -2.4393 -0.4342
    1Sil     Hm 1937   3.305   3.206  11.017 -0.3428 -0.0215  1.3050
    1Sil     Hm 1938   3.311   3.045  11.082 -0.6056 -0.3654 -1.5050
    1Sil     Hm 1939   3.455   3.158  11.100 -1.3014 -0.2560  1.4732
    1Sil     Hm 1940   3.274   4.049  10.979 -0.6090 -0.3932 -0.4750
    1Sil     Hm 1941   3.291   3.904  11.080 -0.7450  2.2252  0.9282
    1Sil     Hm 1942   3.390   4.042  11.102  1.2716  0.6720 -1.5679
    1Sil     Hm 1943   3.406   4.865  11.115  0.0392  0.8367  0.2786
    1Sil     Hm 1944   3.292   4.744  11.076  0.7780  1.9017  3.0285
    1Sil     Hm 1945   3.279   4.903  11.000  0.8077 -0.6666 -2.1267
    1Sil     Hm 1946   3.322   5.572  11.071 -1.1956  0.8377  0.5905
    1Sil     Hm 1947   3.423   5.706  11.109  0.8422  0.5675 -0.3873
    1Sil     Hm 1948   3.291   5.737  11.000 -0.4638 -0.7884  0.4055
    1Sil     Hm 1949   3.584   2.970  11.035  2.4566 -3.5356 -0.5672
    1Sil     Hm 1950   3.595   2.906  10.873 -2.5474  1.2916 -1.9835
    1Sil     Hm 1951   3.654   3.072  10.901 -0.7699  0.7405  0.4305
    1Sil     Hm 1952   3.644   3.835  10.882 -1.8472  1.0634 -1.1042
    1Sil     Hm 1953   3.627   3.964  11.002 -0.2828  0.2120 -0.2504
    1Sil     Hm 1954   3.572   3.800  11.034  2.0539 -0.8208 -0.6787
    1Sil     Hm 1955   3.620   4.841  11.023 -2.2659 -1.1009  2.9667
    1Sil     Hm 1956   3.589   4.678  11.051  1.7718  0.1541  1.2787
    1Sil     Hm 1957   3.675   4.728  10.902  0.2721  0.4350  2.3177
    1Sil     Hm 1958   3.662   5.547  10.882 -1.9266 -0.8759 -1.3835
    1Sil     Hm 1959   3.644   5.684  10.992  2.5468 -1.2146 -0.6160
    1Sil     Hm 1960   3.593   5.516  11.042  0.0189 -2.2677 -2.1702
    1Sil     Hm 1961   0.249   3.555   9.291  1.3913  0.2053 -1.5833
    1Sil     Hm 1962   0.374   3.433   9.247 -0.3923 -0.2184 -0.2884
    1Sil     Hm 1963   0.228   3.386   9.331 -2.4468  1.6764 -1.4143
    1Sil     Hm 1964   0.558   3.649   9.435  2.2278 -0.6511 -0.9507
    1Sil     Hm 1965   0.599   3.484   9.478 -0.3479 -0.5023 -1.1201
    1Sil     Hm 1966   0.545   3.520   9.316 -0.7857  2.6418 -1.3959
    1Sil     Hm 1967   0.237   4.255   9.339 -0.3572  0.8851  0.0545
    1Sil     Hm 1968   0.385   4.237   9.271  2.6873  1.1243  0.6055
    1Sil     Hm 1969   0.300   4.396   9.259 -3.5480 -1.6464 -0.7664
    1Sil     Hm 1970   0.577   4.365   9.332 -0.6112 -1.1399  0.5855
    1Sil     Hm 1971   0.565   4.507   9.440 -0.3055 -0.0084 -0.4962
    1Sil     Hm 1972   0.624   4.344   9.497  0.8242 -0.2747 -0.3763
    1Sil     Hm 1973   0.399   5.120   9.279 -0.6199 -0.7488  0.1004
    1Sil     Hm 1974   0.235   5.108   9.349 -0.3978  0.4951 -1.2393
    1Sil     Hm 1975   0.282   5.258   9.272 -1.4123 -1.2959 -1.6259
    1Sil     Hm 1976   0.564   5.249   9.342  0.4117 -2.5116 -0.0852
    1Sil     Hm 1977   0.550   5.370   9.473  0.5334 -0.1298 -0.1959
    1Sil     Hm 1978   0.605   5.208   9.515 -0.0846  1.4346  1.5123
    1Sil     Hm 1979   0.263   2.692   9.269 -1.6124 -1.5583 -0.3692
    1Sil     Hm 1980   0.365   2.555   9.270  0.0381  0.2943 -0.3550
    1Sil     Hm 1981   0.210   2.562   9.374 -0.4095  2.1323  3.2466
    1Sil     Hm 1982   0.557   2.619   9.353  2.4686 -0.1049  1.1688
    1Sil     Hm 1983   0.512   2.786   9.364 -0.0985  1.0854  2.4744
    1Sil     Hm 1984   0.599   2.705   9.499 -0.0683  0.6833 -0.5779
    1Sil     Hm 1985   0.792   3.524   9.271  2.7327  1.0786 -0.6629
    1Sil     Hm 1986   0.885   3.380   9.283 -0.8341 -1.0022 -0.0494
    1Sil     Hm 1987   0.750   3.395   9.381  1.0708  0.1490  1.3847
    1Sil     Hm 1988   1.117   3.488   9.455  0.2613 -0.8221 -0.9606
    1Sil     Hm 1989   1.051   3.580   9.321  2.1403 -2.2409 -0.5386
    1Sil     Hm 1990   1.067   3.655   9.480 -0.8069  0.4097  0.2745
    1Sil     Hm 1991   0.796   4.363   9.263  0.5298 -1.3721 -2.2515
    1Sil     Hm 1992   0.901   4.218   9.278 -0.0032 -2.1677  3.2873
    1Sil     Hm 1993   0.749   4.233   9.359  1.4321 -0.6786  1.8847
    1Sil     Hm 1994   1.065   4.401   9.314  2.9182 -0.4964  0.4457
    1Sil     Hm 1995   1.083   4.494   9.460 -4.7655  1.1941  0.0182
    1Sil     Hm 1996   1.130   4.326   9.463  0.9278  0.3105 -0.1134
    1Sil     Hm 1997   0.849   5.070   9.281 -0.3875  1.0718 -0.6390
    1Sil     Hm 1998   0.696   5.110   9.359  1.0121 -2.0796  0.4183
    1Sil     Hm 1999   0.781   5.230   9.264  1.7249  2.5488  1.6685
    1Sil     Hm 2000   1.004   5.332   9.345  1.2308 -0.8810 -1.4640
    1Sil     Hm 2001   1.101   5.282   9.478 -0.7001 -0.6508  1.5287
    1Sil     Hm 2002   1.058   5.160   9.355  1.0312 -0.1714 -0.3012
    1Sil     Hm 2003   0.889   2.524   9.286 -3.1209 -1.0340 -2.8268
    1Sil     Hm 2004   0.745   2.528   9.383 -0.7173  0.2063 -2.1275
    1Sil     Hm 2005   0.799   2.671   9.271  1.3938 -0.0128 -1.2634
    1Sil     Hm 2006   1.056   2.690   9.328 -1.2711  2.2847 -0.9918
    1Sil     Hm 2007   1.071   2.806   9.459 -0.5733 -0.0988 -0.9618
    1Sil     Hm 2008   1.129   2.656   9.496  0.8094  0.9045 -0.8072
    1Sil     Hm 2009   1.234   3.387   9.356  0.1778 -0.3611 -0.1122
    1Sil     Hm 2010   1.276   3.528   9.254  0.8411 -1.0037 -1.3099
    1Sil     Hm 2011   1.379   3.386   9.248 -0.0036  1.4780 -0.8329
    1Sil     Hm 2012   1.622   3.565   9.486 -0.7858  1.5514  1.0748
    1Sil     Hm 2013   1.580   3.455   9.355  0.9968  1.3549 -0.7578
    1Sil     Hm 2014   1.556   3.628   9.336  2.6127 -0.7004 -0.6808
    1Sil     Hm 2015   1.317   4.420   9.282 -1.8415 -0.4550  1.1307
    1Sil     Hm 2016   1.285   4.255   9.334  0.9240 -1.1737 -2.2755
    1Sil     Hm 2017   1.443   4.305   9.255  0.7593 -0.6581 -0.0825
    1Sil     Hm 2018   1.646   4.352   9.479 -2.8992  0.9365  2.9108
    1Sil     Hm 2019   1.603   4.446   9.337  2.7316  3.0429  0.9201
    1Sil     Hm 2020   1.595   4.518   9.496  1.3626  0.0304  1.0691
    1Sil     Hm 2021   1.260   5.066   9.429 -1.1726 -0.5982 -1.8509
    1Sil     Hm 2022   1.264   5.214   9.326 -0.8544 -0.8338  0.2597
    1Sil     Hm 2023   1.379   5.089   9.290 -0.6685  2.1620 -1.4354
    1Sil     Hm 2024   1.611   5.313   9.478  0.4865 -2.0044 -0.6633
    1Sil     Hm 2025   1.607   5.170   9.379  2.2147  2.6675 -2.1026
    1Sil     Hm 2026   1.516   5.314   9.330 -1.9790  0.7892  0.5585
    1Sil     Hm 2027   1.230   2.558   9.359 -0.7478  1.6610  1.6416
    1Sil     Hm 2028   1.294   2.704   9.270  0.6759  0.3867  1.1208
    1Sil     Hm 2029   1.375   2.547   9.261  0.4324  1.8776 -1.9661
    1Sil     Hm 2030   1.635   2.648   9.482  0.6351 -1.3784 -1.7907
    1Sil     Hm 2031   1.569   2.683   9.315 -0.0554  1.5226 -0.1594
    1Sil     Hm 2032   1.575   2.803   9.455 -2.0628 -0.1391  0.6614
    1Sil     Hm 2033   1.885   3.393   9.286 -0.5516 -0.1136 -1.0649
    1Sil     Hm 2034   1.757   3.392   9.406  0.0641 -0.1988 -0.1254
    1Sil     Hm 2035   1.774   3.528   9.294  1.3998 -1.0823 -2.1079
    1Sil     Hm 2036   2.000   3.642   9.312 -0.2111  1.1428  1.0361
    1Sil     Hm 2037   2.106   3.632   9.454  0.1369  0.5283 -0.7752
    1Sil     Hm 2038   2.105   3.503   9.337 -2.0152 -1.9010 -0.3858
    1Sil     Hm 2039   1.815   4.370   9.267  3.2617  1.5057  1.1434
    1Sil     Hm 2040   1.910   4.217   9.290  0.6976 -0.1044 -0.5801
    1Sil     Hm 2041   1.755   4.241   9.374  0.0229 -0.0690  0.6077
    1Sil     Hm 2042   2.080   4.363   9.298  1.6963  1.5952 -0.5351
    1Sil     Hm 2043   2.124   4.482   9.404  1.8162 -0.0143 -1.5924
    1Sil     Hm 2044   2.138   4.314   9.461 -2.3146 -1.6175 -0.2704
    1Sil     Hm 2045   1.906   5.123   9.264  0.2895  1.3216  0.1934
    1Sil     Hm 2046   1.779   5.094   9.389  1.1447  0.9103  2.3204
    1Sil     Hm 2047   1.791   5.249   9.296  0.4172  0.0938 -1.7129
    1Sil     Hm 2048   2.152   5.213   9.484  0.1076  1.5080  1.3354
    1Sil     Hm 2049   2.081   5.239   9.321  0.1141 -0.4545  0.4738
    1Sil     Hm 2050   2.080   5.362   9.428 -3.3187  0.6094  1.5703
    1Sil     Hm 2051   1.846   2.663   9.279  0.1968  0.0097 -1.3668
    1Sil     Hm 2052   1.915   2.506   9.321  0.7655  0.7915 -1.7444
    1Sil     Hm 2053   1.762   2.548   9.389  1.2882 -0.9375  0.6766
    1Sil     Hm 2054   2.098   2.794   9.462  0.0927  0.4940 -0.9863
    1Sil     Hm 2055   2.147   2.626   9.482 -0.4012 -1.6741 -0.7360
    1Sil     Hm 2056   2.074   2.691   9.323 -1.1094 -3.0304 -0.0747
    1Sil     Hm 2057   2.379   3.342   9.319  0.3161  1.1829 -0.7980
    1Sil     Hm 2058   2.246   3.401   9.424 -0.8115  1.9430 -0.7750
    1Sil     Hm 2059   2.316   3.495   9.281  0.8439  0.1419 -1.0244
    1Sil     Hm 2060   2.551   3.590   9.326 -0.7566 -1.2589 -0.8556
    1Sil     Hm 2061   2.643   3.593   9.472  2.1722 -1.4645 -0.2310
    1Sil     Hm 2062   2.611   3.436   9.394  1.0356  0.8099  0.3626
    1Sil     Hm 2063   2.466   4.241   9.288  0.1983  0.0499  0.8833
    1Sil     Hm 2064   2.345   4.365   9.257  1.1289 -1.2061 -1.8084
    1Sil     Hm 2065   2.293   4.228   9.344  1.3097 -0.8854  1.0869
    1Sil     Hm 2066   2.657   4.386   9.492 -0.3753 -0.3409 -0.7667
    1Sil     Hm 2067   2.593   4.408   9.328 -0.3285  0.6880 -0.6928
    1Sil     Hm 2068   2.584   4.541   9.448 -1.0461 -0.0412 -0.9470
    1Sil     Hm 2069   2.303   5.254   9.292  1.2164  0.0408 -0.6470
    1Sil     Hm 2070   2.280   5.089   9.356 -2.4765  1.8997  0.1725
    1Sil     Hm 2071   2.429   5.119   9.264  0.0305 -1.7030  0.8323
    1Sil     Hm 2072   2.609   5.257   9.335 -1.4786  0.5010 -0.2050
    1Sil     Hm 2073   2.608   5.363   9.476 -2.1716 -0.3086  1.3986
    1Sil     Hm 2074   2.663   5.192   9.480  0.0991  0.6417  1.6649
    1Sil     Hm 2075   2.454   2.520   9.311 -1.4105 -0.9506 -0.0874
    1Sil     Hm 2076   2.287   2.547   9.359 -0.5763 -0.8956 -0.1403
    1Sil     Hm 2077   2.378   2.674   9.270  2.2522  1.5703  1.7108
    1Sil     Hm 2078   2.598   2.688   9.335 -1.2205  0.2273  0.1194
    1Sil     Hm 2079   2.578   2.831   9.453 -0.7542  0.2239 -0.4729
    1Sil     Hm 2080   2.652   2.678   9.491  4.3167  0.8237 -4.5417
    1Sil     Hm 2081   2.791   3.392   9.384 -0.9782  1.2371  0.3727
    1Sil     Hm 2082   2.935   3.422   9.282  0.7064  1.8008 -0.7170
    1Sil     Hm 2083   2.815   3.550   9.309 -0.0137 -0.3260 -0.2953
    1Sil     Hm 2084   3.173   3.501   9.500 -3.7157 -0.0124  4.7978
    1Sil     Hm 2085   3.112   3.515   9.327  0.8510 -1.4416  0.8986
    1Sil     Hm 2086   3.113   3.653   9.433 -3.2865  0.6588 -0.2358
    1Sil     Hm 2087   2.741   4.246   9.377  1.5179 -1.1816  0.9762
    1Sil     Hm 2088   2.776   4.371   9.273 -1.9960 -3.7079 -2.8494
    1Sil     Hm 2089   2.877   4.220   9.282 -0.7188  0.9107 -1.7881
    1Sil     Hm 2090   3.092   4.288   9.337 -1.2135  0.6617 -1.1857
    1Sil     Hm 2091   3.058   4.460   9.323 -0.8889 -0.5592 -0.3634
    1Sil     Hm 2092   3.145   4.410   9.464 -2.0948  1.4274  1.9085
    1Sil     Hm 2093   2.791   5.128   9.334 -2.0151  3.2453  0.1687
    1Sil     Hm 2094   2.870   5.267   9.259  1.7471  0.5078 -0.1576
    1Sil     Hm 2095   2.952   5.119   9.251 -0.9595  1.2812 -1.4107
    1Sil     Hm 2096   3.132   5.226   9.332 -0.2450 -1.8708  0.4292
    1Sil     Hm 2097   3.176   5.205   9.499 -2.3927 -0.5455  0.9696
    1Sil     Hm 2098   3.124   5.363   9.447 -0.6925  0.3084 -0.1130
    1Sil     Hm 2099   2.808   2.703   9.293 -3.5915 -1.7675  0.5440
    1Sil     Hm 2100   2.905   2.559   9.257 -0.7957  0.6116 -0.7968
    1Sil     Hm 2101   2.767   2.559   9.377 -0.0190 -1.1663 -1.0399
    1Sil     Hm 2102   3.164   2.669   9.479 -0.1772 -0.3371  1.1983
    1Sil     Hm 2103   3.103   2.579   9.339  0.4516  2.1032 -2.3666
    1Sil     Hm 2104   3.100   2.758   9.340 -2.2415  0.3022  0.5179
    1Sil     Hm 2105  -0.136   3.381   9.275 -0.0231 -0.0572 -1.6553
    1Sil     Hm 2106  -0.283   3.393   9.363  1.4037 -0.9414 -0.7889
    1Sil     Hm 2107  -0.219   3.533   9.264  1.3643  0.6312  0.0092
    1Sil     Hm 2108  -0.298   4.257   9.405  1.8633 -0.3889  1.7938
    1Sil     Hm 2109  -0.167   4.241   9.291 -1.5882 -1.2423  0.1375
    1Sil     Hm 2110  -0.247   4.400   9.308  0.7603 -1.0893 -2.1103
    1Sil     Hm 2111  -0.223   5.231   9.278 -0.3103 -0.1888 -1.8427
    1Sil     Hm 2112  -0.128   5.081   9.285  0.6822 -1.0904  1.9728
    1Sil     Hm 2113  -0.277   5.090   9.374  1.0795 -0.0086  2.2022
    1Sil     Hm 2114  -0.269   2.558   9.350 -0.2601 -0.5324 -0.3052
    1Sil     Hm 2115  -0.183   2.686   9.250  1.2130  0.1558  0.7849
    1Sil     Hm 2116  -0.108   2.529   9.286  3.0032  1.3922  2.6180
    1Sil     Hm 2117   0.048   3.573   9.329  0.1134 -1.5547  0.4045
    1Sil     Hm 2118   0.060   3.640   9.490  1.1500 -1.0158  0.1349
    1Sil     Hm 2119   0.104   3.472   9.454  2.3955  1.8406  1.4035
    1Sil     Hm 2120   0.008   4.458   9.340  0.9513  1.5868  1.2277
    1Sil     Hm 2121   0.090   4.421   9.488 -1.1483  0.8112 -0.4261
    1Sil     Hm 2122   0.059   4.295   9.362 -2.5750 -1.9730 -0.8490
    1Sil     Hm 2123   0.100   5.182   9.473  0.1355  0.9966  0.1015
    1Sil     Hm 2124   0.033   5.278   9.336 -1.8340  1.8937 -0.5437
    1Sil     Hm 2125   0.051   5.356   9.497 -0.7681  0.1058 -0.4056
    1Sil     Hm 2126   0.036   2.828   9.465 -0.7400  0.6553 -1.5290
    1Sil     Hm 2127   0.057   2.701   9.344  0.2076  2.5144  0.1223
    1Sil     Hm 2128   0.099   2.663   9.506 -0.1124 -0.3679 -1.0026
    1Sil     Hm 2129  -0.022   3.600  10.963 -0.3854 -0.7473  0.1949
    1Sil     Hm 2130  -0.000   3.443  11.054 -1.8663  0.8756  1.1631
    1Sil     Hm 2131   0.097   3.582  11.081  0.5656 -1.1321  0.6241
    1Sil     Hm 2132   0.348   3.429  10.894  0.9302  1.7140 -0.3561
    1Sil     Hm 2133   0.302   3.522  11.036  1.0985 -0.8444 -0.5852
    1Sil     Hm 2134   0.260   3.357  11.025 -2.0770 -0.8133 -1.3915
    1Sil     Hm 2135  -0.004   4.320  11.075 -1.2631  0.4143 -1.4881
    1Sil     Hm 2136   0.115   4.452  11.082 -0.4656  1.5556 -0.5134
    1Sil     Hm 2137  -0.027   4.464  10.978 -1.0350 -1.1379 -1.0934
    1Sil     Hm 2138   0.328   4.224  10.894  2.1284 -0.8865  2.8234
    1Sil     Hm 2139   0.309   4.381  10.975 -0.9390  0.6053 -1.1811
    1Sil     Hm 2140   0.247   4.245  11.051 -2.3418 -0.8468 -0.6708
    1Sil     Hm 2141  -0.006   5.139  11.078  0.1138  0.2293  1.1554
    1Sil     Hm 2142   0.125   5.252  11.095 -0.0811  1.5279 -1.5515
    1Sil     Hm 2143  -0.019   5.306  11.006  1.1441  0.4699  0.0382
    1Sil     Hm 2144   0.287   5.153  11.035  0.9653  2.1926 -0.8917
    1Sil     Hm 2145   0.278   5.031  10.911 -1.1234  0.3449 -0.3409
    1Sil     Hm 2146   0.345   5.190  10.871  0.3474  1.2910 -0.4756
    1Sil     Hm 2147   0.116   2.758  11.080 -0.3574  1.1567 -1.4785
    1Sil     Hm 2148  -0.034   2.757  10.976 -0.2892 -0.7541 -2.0063
    1Sil     Hm 2149   0.014   2.616  11.074 -2.3641  0.1191 -0.8606
    1Sil     Hm 2150   0.253   2.548  11.043 -3.0934  1.7983 -0.3651
    1Sil     Hm 2151   0.330   2.552  10.876 -1.4900 -0.7028 -1.1943
    1Sil     Hm 2152   0.324   2.695  10.979  0.9889 -0.1855 -1.1235
    1Sil     Hm 2153   0.638   3.589  11.075  0.9856 -1.7851  0.3573
    1Sil     Hm 2154   0.481   3.598  10.979 -0.9547 -0.2547  1.5765
    1Sil     Hm 2155   0.526   3.457  11.067 -2.4897  0.5975 -0.2963
    1Sil     Hm 2156   0.818   3.341  10.873  2.3370 -0.1490  2.1223
    1Sil     Hm 2157   0.852   3.515  10.900 -1.0341  2.2674  0.7568
    1Sil     Hm 2158   0.794   3.410  11.026 -0.9086  0.7236  0.2176
    1Sil     Hm 2159   0.603   4.455  11.061 -2.0835  1.0140 -0.9870
    1Sil     Hm 2160   0.481   4.424  10.943 -0.6506 -2.1131 -1.5719
    1Sil     Hm 2161   0.526   4.296  11.066  1.5356 -0.1689 -0.6587
    1Sil     Hm 2162   0.780   4.211  11.040 -2.6071  0.3326  0.3294
    1Sil     Hm 2163   0.861   4.249  10.893  0.4222  2.1570 -0.6029
    1Sil     Hm 2164   0.821   4.380  11.008 -2.2460 -0.2520  2.7585
    1Sil     Hm 2165   0.600   5.263  11.102 -1.9762  2.1211  0.1208
    1Sil     Hm 2166   0.489   5.304  10.974  0.9684  2.1287  3.0926
    1Sil     Hm 2167   0.489   5.132  11.031 -0.8112  0.7224  1.4914
    1Sil     Hm 2168   0.764   5.069  11.040  1.2261  1.2808  1.0333
    1Sil     Hm 2169   0.864   5.129  10.901  0.2946 -0.3338  0.6907
    1Sil     Hm 2170   0.799   5.235  11.026 -2.8647  2.6504 -2.7951
    1Sil     Hm 2171   0.507   2.764  11.007  1.1935  1.2950  0.7934
    1Sil     Hm 2172   0.624   2.712  11.124  0.0325  0.9904 -0.8311
    1Sil     Hm 2173   0.498   2.600  11.077  0.1225  0.1242  0.9242
    1Sil     Hm 2174   0.859   2.640  10.879  0.1251 -1.1412  0.4044
    1Sil     Hm 2175   0.816   2.629  11.044  0.1744  1.1437 -0.7484
    1Sil     Hm 2176   0.801   2.482  10.939  0.3241 -0.9081  1.2873
    1Sil     Hm 2177   1.042   3.457  11.090 -1.8133  0.2893  0.3971
    1Sil     Hm 2178   1.150   3.602  11.072 -0.7581  0.1369 -0.7623
    1Sil     Hm 2179   0.998   3.596  10.987  0.2008  0.0180 -2.5227
    1Sil     Hm 2180   1.313   3.322  10.935  3.2218 -0.6091 -3.5105
    1Sil     Hm 2181   1.377   3.465  10.871 -0.7496  0.7746 -0.0479
    1Sil     Hm 2182   1.333   3.460  11.048  0.5102  1.4130 -1.5307
    1Sil     Hm 2183   0.996   4.451  10.967 -1.8301 -2.7826 -1.3024
    1Sil     Hm 2184   1.050   4.322  11.082 -1.0017 -1.4097 -1.5888
    1Sil     Hm 2185   1.147   4.468  11.052 -0.6258  1.2452 -1.2177
    1Sil     Hm 2186   1.379   4.371  10.881  1.9747  0.4005  3.8628
    1Sil     Hm 2187   1.326   4.306  11.028  1.8714 -1.5290  0.3848
    1Sil     Hm 2188   1.341   4.195  10.888 -0.7091 -0.0527  2.3524
    1Sil     Hm 2189   1.124   5.264  11.121  0.2926  0.8557 -0.8300
    1Sil     Hm 2190   0.994   5.288  11.016 -0.2040 -0.3637  0.0283
    1Sil     Hm 2191   1.012   5.128  11.086  2.0918 -1.7739 -2.4002
    1Sil     Hm 2192   1.310   5.183  11.054 -1.3726  2.1999 -1.5706
    1Sil     Hm 2193   1.332   5.053  10.939 -0.4988 -1.0487  1.7878
    1Sil     Hm 2194   1.363   5.220  10.887 -0.4763  1.1197  0.5630
    1Sil     Hm 2195   1.127   2.744  11.089 -1.5527 -0.9730  2.1531
    1Sil     Hm 2196   0.985   2.749  10.993  1.9793  1.3837 -1.3691
    1Sil     Hm 2197   1.022   2.597  11.085 -0.3612 -1.8256 -2.2205
    1Sil     Hm 2198   1.307   2.485  10.977  0.8547  0.5057  0.2275
    1Sil     Hm 2199   1.378   2.628  10.902  1.6471 -0.0586  1.8735
    1Sil     Hm 2200   1.320   2.641  11.066 -0.0236  1.6843 -0.7565
    1Sil     Hm 2201   1.488   3.592  10.992  0.9324  1.5537  1.3718
    1Sil     Hm 2202   1.566   3.464  11.085 -0.5715  1.4858  1.4116
    1Sil     Hm 2203   1.649   3.614  11.062 -0.6069  0.0152  1.2239
    1Sil     Hm 2204   1.816   3.327  10.929 -1.6593 -0.8512  1.4860
    1Sil     Hm 2205   1.887   3.466  10.870  0.1906 -1.4117 -0.9716
    1Sil     Hm 2206   1.824   3.457  11.044 -2.7111 -1.0475 -0.1075
    1Sil     Hm 2207   1.563   4.280  11.071  2.2389 -0.6599 -1.0298
    1Sil     Hm 2208   1.491   4.438  11.022 -0.4668 -0.9203 -0.9888
    1Sil     Hm 2209   1.653   4.430  11.103  0.8006 -0.6256 -0.7671
    1Sil     Hm 2210   1.828   4.344  11.025 -0.9420  0.6869  0.2001
    1Sil     Hm 2211   1.842   4.195  10.930  0.4251  0.1815 -2.1594
    1Sil     Hm 2212   1.889   4.345  10.860  0.1154  0.5715  1.1900
    1Sil     Hm 2213   1.661   5.326  11.076  0.9578  0.6504  0.2476
    1Sil     Hm 2214   1.580   5.174  11.112  3.4351 -0.7437 -0.7478
    1Sil     Hm 2215   1.491   5.299  11.020  2.0235  1.7824 -1.0958
    1Sil     Hm 2216   1.814   5.128  11.023  2.7413  0.2872  0.3012
    1Sil     Hm 2217   1.800   5.027  10.875 -0.4787  0.2145  0.1982
    1Sil     Hm 2218   1.868   5.190  10.873  1.5436 -0.7980  3.2502
    1Sil     Hm 2219   1.509   2.737  11.039 -1.0050 -2.7104  1.9096
    1Sil     Hm 2220   1.625   2.636  11.134 -0.4871  2.2470  2.0358
    1Sil     Hm 2221   1.675   2.786  11.057  1.2768  0.2173 -1.6643
    1Sil     Hm 2222   1.822   2.472  10.865  2.8147 -0.1803  0.8476
    1Sil     Hm 2223   1.894   2.628  10.880 -0.0133 -0.7059 -1.5110
    1Sil     Hm 2224   1.821   2.553  11.023  0.8752 -0.9497 -0.2330
    1Sil     Hm 2225   2.148   3.591  11.102  0.3476  0.9424 -0.9388
    1Sil     Hm 2226   1.994   3.593  11.001  0.9741  0.7332 -0.6863
    1Sil     Hm 2227   2.048   3.444  11.093 -2.6314  1.6021  1.2993
    1Sil     Hm 2228   2.284   3.339  11.022 -1.5584 -0.0351 -0.3368
    1Sil     Hm 2229   2.371   3.417  10.883  0.3024  0.6376  0.8619
    1Sil     Hm 2230   2.335   3.512  11.024 -1.2484  0.5289  0.7465
    1Sil     Hm 2231   2.084   4.310  11.085  1.0766  0.1242  1.3722
    1Sil     Hm 2232   2.166   4.472  11.071 -1.9060  0.4223  1.2592
    1Sil     Hm 2233   2.013   4.444  10.998 -1.3020 -0.9577  1.4813
    1Sil     Hm 2234   2.339   4.336  11.045  2.1504 -0.1642 -0.2228
    1Sil     Hm 2235   2.371   4.207  10.933  0.2801  0.8234  1.8044
    1Sil     Hm 2236   2.405   4.386  10.897 -0.2220  1.5314  0.4043
    1Sil     Hm 2237   1.980   5.295  10.975 -1.3906 -0.3011  1.1319
    1Sil     Hm 2238   2.041   5.174  11.088  0.3620 -0.6952 -0.6998
    1Sil     Hm 2239   2.120   5.333  11.067 -1.8566 -0.0893  2.5701
    1Sil     Hm 2240   2.291   5.106  11.060 -3.0607 -1.2182 -0.2003
    1Sil     Hm 2241   2.355   5.079  10.900 -3.0750 -0.6979 -0.7502
    1Sil     Hm 2242   2.366   5.239  10.973  0.3773 -0.3289 -2.7127
    1Sil     Hm 2243   2.155   2.759  11.096 -1.1783 -0.0055 -1.2121
    1Sil     Hm 2244   2.070   2.602  11.120 -1.8014 -0.5090 -0.9165
    1Sil     Hm 2245   2.000   2.738  11.024 -0.8985  0.4846 -0.1424
    1Sil     Hm 2246   2.389   2.638  10.895  0.7579 -0.3550  0.3410
    1Sil     Hm 2247   2.320   2.559  11.040  0.5454  1.3692 -0.7938
    1Sil     Hm 2248   2.343   2.471  10.889  0.5369 -0.5715 -0.2623
    1Sil     Hm 2249   2.630   3.587  11.086  1.4533 -1.3390 -0.3557
    1Sil     Hm 2250   2.501   3.591  10.969  1.0489  2.3175  1.5805
    1Sil     Hm 2251   2.528   3.442  11.065 -0.3566  0.6272  0.4728
    1Sil     Hm 2252   2.776   3.377  11.072  0.5877 -0.8732  0.1704
    1Sil     Hm 2253   2.868   3.387  10.921  2.1221  0.5962  1.6823
    1Sil     Hm 2254   2.850   3.528  11.029 -1.8869  0.1756  1.0569
    1Sil     Hm 2255   2.556   4.306  11.111  0.0250  2.1609  3.9364
    1Sil     Hm 2256   2.689   4.425  11.135  0.1800  1.8022 -1.6599
    1Sil     Hm 2257   2.553   4.474  11.041 -0.4869 -0.5988  0.6755
    1Sil     Hm 2258   2.883   4.193  10.932  0.2781 -0.4185  0.4632
    1Sil     Hm 2259   2.917   4.360  10.893 -0.3009  1.4511  1.4622
    1Sil     Hm 2260   2.860   4.322  11.054 -2.1711  2.7454 -0.7516
    1Sil     Hm 2261   2.713   5.302  11.074  1.5020 -2.7144  0.2250
    1Sil     Hm 2262   2.546   5.298  11.014 -1.6570 -3.1701 -1.0618
    1Sil     Hm 2263   2.611   5.163  11.104 -0.8252 -0.0521 -0.0388
    1Sil     Hm 2264   2.837   5.088  11.010 -0.5579  3.0088  0.9864
    1Sil     Hm 2265   2.818   5.016  10.853  1.5941  0.4881 -0.7609
    1Sil     Hm 2266   2.891   5.169  10.854  0.0161 -0.8271 -0.9378
    1Sil     Hm 2267   2.515   2.754  11.019  0.2472 -0.2688 -0.6382
    1Sil     Hm 2268   2.577   2.625  11.116  1.2073  0.8093  0.6751
    1Sil     Hm 2269   2.678   2.772  11.080  1.2537  0.1854  0.2026
    1Sil     Hm 2270   2.839   2.485  10.945 -1.1207 -0.4756  0.7473
    1Sil     Hm 2271   2.899   2.638  10.885  1.0105  0.3689  0.9903
    1Sil     Hm 2272   2.847   2.617  11.048  1.5226 -0.3917  0.0452
    1Sil     Hm 2273   3.159   3.618  11.040  1.2334  0.3149 -1.5538
    1Sil     Hm 2274   3.014   3.598  10.942  0.9296  0.0579 -0.1432
    1Sil     Hm 2275   3.069   3.473  11.071 -0.0864 -2.2266 -1.4039
    1Sil     Hm 2276   3.305   3.387  11.055 -1.6840 -0.5174 -0.6651
    1Sil     Hm 2277   3.385   3.400  10.898  0.8638  1.7549 -0.3272
    1Sil     Hm 2278   3.368   3.549  10.990 -0.9658  0.0655  0.2802
    1Sil     Hm 2279   3.102   4.328  11.108  1.5426 -0.4168 -0.1157
    1Sil     Hm 2280   3.210   4.470  11.098  3.4371 -1.1235 -1.9430
    1Sil     Hm 2281   3.047   4.466  11.031  0.0257  0.4973  0.0137
    1Sil     Hm 2282   3.409   4.353  10.899 -2.0258  1.4661 -0.5878
    1Sil     Hm 2283   3.359   4.270  11.044  0.2489  0.6507 -0.1358
    1Sil     Hm 2284   3.360   4.190  10.877 -1.7354 -0.4724  0.8164
    1Sil     Hm 2285   3.031   5.162  11.055 -0.8882  1.5861  2.5939
    1Sil     Hm 2286   2.994   5.306  10.956  0.4800  2.5822  1.8784
    1Sil     Hm 2287   3.130   5.306  11.076 -0.3739 -0.4026  0.9968
    1Sil     Hm 2288   3.361   5.253  11.034 -2.6457  0.3053  1.5052
    1Sil     Hm 2289   3.313   5.091  11.063 -1.7926 -1.0705 -1.6737
    1Sil     Hm 2290   3.405   5.134  10.914  0.1385 -1.2379  0.2817
    1Sil     Hm 2291   3.075   2.588  11.106  0.3030 -1.1928 -0.9751
    1Sil     Hm 2292   3.181   2.728  11.090  1.3417  1.4408 -2.2235
    1Sil     Hm 2293   3.020   2.731  11.024  0.0927  0.6153 -0.4881
    1Sil     Hm 2294   3.355   2.606  11.039 -1.2555 -0.3893  0.0662
    1Sil     Hm 2295   3.350   2.479  10.915  0.4862 -0.4299  2.0204
    1Sil     Hm 2296   3.408   2.639  10.866  0.9190 -2.1978 -0.7159
    2Eth     Ho 2297   1.015   3.029   1.129  0.3734 -4.0837  0.9451
    2Eth     Oh 2298   1.107   3.048   1.130 -0.3229 -0.2401  0.4120
    2Eth     Co 2299   1.173   2.924   1.159  0.6210  0.2035  0.0851
    2Eth    Hco 2300   1.165   2.846   1.083 -0.3225  0.7959 -0.4222
    2Eth    Hco 2301   1.114   2.879   1.239  0.8055  3.5355  2.1882
    2Eth     Ch 2302   1.314   2.960   1.194 -0.4622 -0.3786 -0.5453
    2Eth    Hcc 2303   1.320   3.019   1.285 -2.7738  0.9895 -1.2300
    2Eth    Hcc 2304   1.346   3.032   1.119 -0.6630  0.6271  0.3236
    2Eth    Hcc 2305   1.388   2.880   1.188  1.1622  1.2012 -1.8574
    3Eth     Ho 2306   0.233   1.745   1.171 -3.0637 -0.0821  0.0709
    3Eth     Oh 2307   0.231   1.661   1.128  0.9564 -0.3350  0.1908
    3Eth     Co 2308   0.315   1.590   1.211  0.7851  0.0596  0.1775
    3Eth    Hco 2309   0.277   1.575   1.312 -3.1345  1.8401 -0.9466
    3Eth    Hco 2310   0.400   1.658   1.225 -0.6436  1.6250  1.3728
    3Eth     Ch 2311   0.366   1.450   1.163  0.0949 -0.0943 -0.0302
    3Eth    Hcc 2312   0.366   1.381   1.248 -1.0715 -0.7252 -0.5319
    3Eth    Hcc 2313   0.468   1.449   1.125  0.3291  2.5964  0.4374
    3Eth    Hcc 2314   0.298   1.410   1.088 -0.3854 -0.4077  0.5676
    4Eth     Ho 2315   1.633   0.068   2.536 -0.8967  0.9090  0.9787
    4Eth     Oh 2316   1.710   0.115   2.562 -0.0853  0.0175  0.1975
    4Eth     Co 2317   1.785   0.169   2.455  0.3397  0.9711  0.5217
    4Eth    Hco 2318   1.742   0.263   2.420  0.8744  1.4005  0.9957
    4Eth    Hco 2319   1.761   0.102   2.372 -1.0246  2.1331 -0.0530
    4Eth     Ch 2320   1.938   0.173   2.481 -0.0150  0.2776  0.3246
    4Eth    Hcc 2321   1.994   0.225   2.404  0.3248 -0.7469 -0.1214
    4Eth    Hcc 2322   1.979   0.073   2.490  1.0829  0.4862 -2.0453
    4Eth    Hcc 2323   1.969   0.230   2.569 -0.1645  1.8797 -0.6312
    5Eth     Ho 2324   0.217   2.124   3.114  1.1858 -1.1642  0.6735
    5Eth     Oh 2325   0.188   2.079   3.036 -0.2691  0.3074  0.3305
    5Eth     Co 2326   0.198   1.942   3.083  0.6667  0.7590 -0.2915
    5Eth    Hco 2327   0.149   1.929   3.180 -0.7085  1.4869 -0.8751
    5Eth    Hco 2328   0.303   1.936   3.113  0.5191  0.0273  0.0975
    5Eth     Ch 2329   0.162   1.829   2.984  0.2463 -0.5625 -0.7412
    5Eth    Hcc 2330   0.057   1.816   2.961 -0.0247  0.5071 -0.1229
    5Eth    Hcc 2331   0.206   1.734   3.017  1.5811  0.7648  1.4557
    5Eth    Hcc 2332   0.217   1.847   2.891  1.1542 -1.4606 -0.3972
    6Eth     Ho 2333   1.144   1.488   1.054  3.5251  1.6280 -0.3558
    6Eth     Oh 2334   1.192   1.413   1.085 -0.0853 -0.5722  0.2213
    6Eth     Co 2335   1.264   1.457   1.199  0.0207  0.5692 -0.0251
    6Eth    Hco 2336   1.307   1.370   1.250  2.1968  1.3735 -0.4296
    6Eth    Hco 2337   1.194   1.510   1.264 -2.7645 -1.3785 -1.3049
    6Eth     Ch 2338   1.390   1.534   1.158  0.5689 -0.6249 -0.7696
    6Eth    Hcc 2339   1.438   1.573   1.248 -0.1300  1.2423 -1.1808
    6Eth    Hcc 2340   1.364   1.628   1.110  0.4253 -0.1409  0.2377
    6Eth    Hcc 2341   1.454   1.474   1.094  1.1577  0.7810 -1.5169
    7Eth     Ho 2342   1.128   3.128   8.294  0.7402 -1.1310  0.9160
    7Eth     Oh 2343   1.047   3.106   8.252  0.9507  0.5974 -0.5035
    7Eth     Co 2344   1.001   3.228   8.183  0.1862 -0.2688  0.5833
    7Eth    Hco 2345   1.083   3.266   8.122  1.7848 -0.9478  2.2522
    7Eth    Hco 2346   0.980   3.300   8.262 -1.0310  0.8170 -0.7129
    7Eth     Ch 2347   0.876   3.221   8.087  0.1318 -0.1453 -0.0092
    7Eth    Hcc 2348   0.781   3.217   8.141 -0.2194 -0.0362 -0.6169
    7Eth    Hcc 2349   0.873   3.147   8.007 -1.8533  0.6272 -0.6650
    7Eth    Hcc 2350   0.868   3.317   8.035 -2.2126  0.3006  1.0921
    8Eth     Ho 2351   2.997   1.314   8.824  0.3129 -0.8582  0.5668
    8Eth     Oh 2352   2.947   1.312   8.903 -0.1085 -0.4066  0.3151
    8Eth     Co 2353   2.865   1.427   8.909  0.1655 -0.7024 -0.7277
    8Eth    Hco 2354   2.768   1.386   8.882 -1.1161 -0.0251  2.5854
    8Eth    Hco 2355   2.887   1.516   8.851  1.9829 -0.7119 -0.0889
    8Eth     Ch 2356   2.854   1.460   9.055  0.0063  0.2773  0.7253
    8Eth    Hcc 2357   2.772   1.530   9.069 -0.5512 -0.5729  1.7699
    8Eth    Hcc 2358   2.943   1.500   9.104 -1.1291  1.2270  2.0549
    8Eth    Hcc 2359   2.831   1.366   9.105  0.6593 -0.7139 -0.8012
    9Eth     Ho 2360   2.290   2.988   4.931 -0.5409  0.1088 -0.0389
    9Eth     Oh 2361   2.280   2.926   5.001  0.3315  0.2910  0.2464
    9Eth     Co 2362   2.333   2.814   4.941 -0.4249  0.1337 -0.1633
    9Eth    Hco 2363   2.436   2.833   4.913 -0.3886 -0.3388 -0.3449
    9Eth    Hco 2364   2.280   2.797   4.848  1.0506  1.0945 -1.1948
    9Eth     Ch 2365   2.318   2.691   5.025  0.0010  1.1999 -0.0979
    9Eth    Hcc 2366   2.212   2.669   5.038  0.5859 -1.0912  0.9605
    9Eth    Hcc 2367   2.372   2.699   5.119  1.9782  1.1748 -1.2107
    9Eth    Hcc 2368   2.354   2.604   4.970 -0.9614  2.0501 -2.1582
   10Eth     Ho 2369   1.793   2.330   1.309 -0.4112  0.6521  1.1509
   10Eth     Oh 2370   1.721   2.341   1.248  0.4956 -0.0706 -0.0642
   10Eth     Co 2371   1.704   2.220   1.192 -1.0276  0.2233  0.8944
   10Eth    Hco 2372   1.694   2.157   1.280 -2.9997  0.0403  0.5692
   10Eth    Hco 2373   1.800   2.188   1.153 -0.2970  0.6831  2.3148
   10Eth     Ch 2374   1.585   2.214   1.104  0.4071 -0.2002  0.0442
   10Eth    Hcc 2375   1.573   2.115   1.060  0.8419 -0.1087 -0.2765
   10Eth    Hcc 2376   1.592   2.282   1.019 -0.1097  2.4014  2.0177
   10Eth    Hcc 2377   1.492   2.238   1.156 -0.7434 -3.9713 -0.1091
   11Eth     Ho 2378   1.025   1.382   3.488 -0.1020 -0.3703 -1.1071
   11Eth     Oh 2379   0.932   1.371   3.482 -0.1383 -0.8582  0.3892
   11Eth     Co 2380   0.876   1.441   3.592 -0.1068 -0.3359  0.8805
   11Eth    Hco 2381   0.894   1.548   3.609 -0.4857 -0.6668  3.6521
   11Eth    Hco 2382   0.922   1.399   3.681  1.0101 -1.1178 -0.0587
   11Eth     Ch 2383   0.727   1.425   3.581 -0.6084 -0.1124  0.3359
   11Eth    Hcc 2384   0.674   1.508   3.535  1.7295 -0.0373 -2.3531
   11Eth    Hcc 2385   0.694   1.427   3.685 -0.8198  0.2938  0.2633
   11Eth    Hcc 2386   0.685   1.336   3.534  0.1828  0.3335 -1.2235
   12Eth     Ho 2387   2.117   2.606   8.863 -0.5977  0.6854 -0.9978
   12Eth     Oh 2388   2.087   2.694   8.873 -0.5492  0.6050 -0.1555
   12Eth     Co 2389   2.057   2.715   9.011  0.1357 -0.4620 -0.2022
   12Eth    Hco 2390   2.145   2.695   9.071  1.2013  0.4718 -1.4394
   12Eth    Hco 2391   1.986   2.641   9.050 -0.7673  0.1761 -0.6200
   12Eth     Ch 2392   2.007   2.856   9.036 -1.1054  0.2721  0.3141
   12Eth    Hcc 2393   1.914   2.876   8.982 -0.9225  0.2160 -0.0194
   12Eth    Hcc 2394   2.080   2.930   9.004 -0.6897 -1.0036 -1.7920
   12Eth    Hcc 2395   1.983   2.868   9.142 -2.4454  1.5080 -0.1134
   13Eth     Ho 2396   1.131   0.346   1.293 -0.6817 -2.0213 -0.6274
   13Eth     Oh 2397   1.040   0.359   1.276 -0.4789  0.1962 -0.1457
   13Eth     Co 2398   1.024   0.370   1.138 -0.7377  0.6857 -0.5875
   13Eth    Hco 2399   1.104   0.318   1.085  1.0237  1.8461  0.8757
   13Eth    Hco 2400   1.041   0.475   1.111 -3.7450  1.5517  0.6506
   13Eth     Ch 2401   0.884   0.326   1.090 -0.7588  0.2999 -0.2675
   13Eth    Hcc 2402   0.869   0.336   0.982 -1.4068  2.2098 -0.0288
   13Eth    Hcc 2403   0.806   0.393   1.127 -1.5103 -0.3318 -0.7143
   13Eth    Hcc 2404   0.851   0.228   1.123  0.4926 -0.5106 -1.3788
   14Eth     Ho 2405   1.885   2.063   3.634 -3.2644 -0.3860  0.6193
   14Eth     Oh 2406   1.925   2.011   3.701 -0.0392  0.1012 -0.8450
   14Eth     Co 2407   2.016   2.095   3.759 -0.0634  0.6122 -1.2551
   14Eth    Hco 2408   2.051   2.067   3.859 -0.8849 -0.3555 -1.2327
   14Eth    Hco 2409   1.982   2.197   3.777  1.3041  0.7076  1.0052
   14Eth     Ch 2410   2.137   2.096   3.673  0.8164 -0.3376 -0.4126
   14Eth    Hcc 2411   2.171   1.992   3.673  1.3263 -0.1689 -0.5326
   14Eth    Hcc 2412   2.208   2.161   3.723  0.3535 -1.2206  1.4590
   14Eth    Hcc 2413   2.103   2.115   3.571  2.1081 -2.6512 -1.3163
   15Eth     Ho 2414   1.613   2.849   2.527  3.8941 -1.3012 -2.6378
   15Eth     Oh 2415   1.618   2.772   2.581  0.0956  0.2436  0.0957
   15Eth     Co 2416   1.536   2.781   2.690 -0.1553 -0.1920  0.0692
   15Eth    Hco 2417   1.493   2.881   2.693 -1.2957 -0.6805  0.4451
   15Eth    Hco 2418   1.581   2.763   2.788 -0.5388  0.3741  0.3486
   15Eth     Ch 2419   1.409   2.695   2.662 -0.0843 -0.2002  0.1816
   15Eth    Hcc 2420   1.373   2.710   2.560 -0.5585 -0.6150  0.2845
   15Eth    Hcc 2421   1.333   2.728   2.732  0.1907  0.6345  0.0838
   15Eth    Hcc 2422   1.422   2.586   2.666  2.2622  0.1275  2.4903
   16Eth     Ho 2423   0.927   0.161   6.943 -1.6542  0.0321  0.0269
   16Eth     Oh 2424   0.905   0.244   6.906 -0.4304  0.2852 -0.1643
   16Eth     Co 2425   0.795   0.226   6.822 -0.1750  0.0762  0.0975
   16Eth    Hco 2426   0.710   0.182   6.874  0.3159 -1.4913 -0.3784
   16Eth    Hco 2427   0.834   0.145   6.759 -0.0489  1.4151 -1.5785
   16Eth     Ch 2428   0.764   0.357   6.752 -0.0698 -0.0848 -0.1401
   16Eth    Hcc 2429   0.678   0.348   6.685 -0.3987 -0.7673  0.3639
   16Eth    Hcc 2430   0.848   0.381   6.687  0.6830 -2.2053  0.0180
   16Eth    Hcc 2431   0.736   0.426   6.831 -0.0767 -0.8461  0.5341
   17Eth     Ho 2432   0.931   2.452   8.898  0.3202 -1.0500  1.4112
   17Eth     Oh 2433   0.874   2.469   8.971 -0.1599  0.6403  0.6682
   17Eth     Co 2434   0.748   2.456   8.919 -0.2244 -0.3314  0.2349
   17Eth    Hco 2435   0.746   2.354   8.883  0.0987 -0.6811  1.1984
   17Eth    Hco 2436   0.741   2.522   8.832 -2.2022  1.7632  1.9221
   17Eth     Ch 2437   0.645   2.485   9.032 -0.0823 -0.4322 -0.2063
   17Eth    Hcc 2438   0.651   2.583   9.080  0.2786 -1.4388  1.8699
   17Eth    Hcc 2439   0.652   2.413   9.113 -1.4759  0.1159  0.4145
   17Eth    Hcc 2440   0.544   2.486   8.990 -0.1323  0.8771 -0.0836
   18Eth     Ho 2441   2.951   2.142   1.177 -1.5967 -0.2574 -1.8228
   18Eth     Oh 2442   2.960   2.049   1.177 -0.0665 -0.1460 -0.1339
   18Eth     Co 2443   2.850   1.989   1.114 -0.2169 -0.7133 -0.2811
   18Eth    Hco 2444   2.850   2.017   1.008 -1.4225  1.4971  0.2751
   18Eth    Hco 2445   2.767   2.028   1.173  0.6223  0.9330 -0.1532
   18Eth     Ch 2446   2.858   1.841   1.132  0.6681  0.1348  0.1973
   18Eth    Hcc 2447   2.891   1.811   1.232  2.3475  3.1195  0.5960
   18Eth    Hcc 2448   2.925   1.797   1.058  0.8372 -1.4079  1.2369
   18Eth    Hcc 2449   2.757   1.808   1.107  0.3442  1.2700 -0.0020
   19Eth     Ho 2450   2.799   0.582   1.239 -1.9257  0.6240 -1.8608
   19Eth     Oh 2451   2.797   0.676   1.243  0.3186  0.6275 -0.0263
   19Eth     Co 2452   2.658   0.694   1.236 -0.0839 -0.1301  0.2087
   19Eth    Hco 2453   2.616   0.786   1.277  1.8311  1.0287 -0.3588
   19Eth    Hco 2454   2.612   0.608   1.284 -0.3916  1.4847  2.9066
   19Eth     Ch 2455   2.612   0.692   1.084  0.4485 -0.8529  1.0536
   19Eth    Hcc 2456   2.504   0.693   1.075  0.3526 -1.4908  2.0960
   19Eth    Hcc 2457   2.637   0.607   1.020 -1.6274 -0.9179  0.2993
   19Eth    Hcc 2458   2.655   0.784   1.043  0.8708 -0.8670  1.4585
   20Eth     Ho 2459   3.444   0.918   5.087 -1.1089 -2.3012 -2.2993
   20Eth     Oh 2460   3.377   0.975   5.054 -0.5604 -0.3941 -0.2270
   20Eth     Co 2461   3.417   1.104   5.107 -0.2306  0.2748 -0.4588
   20Eth    Hco 2462   3.504   1.137   5.052 -1.3862 -2.1918 -3.9520
   20Eth    Hco 2463   3.436   1.100   5.214  0.0534 -1.4267 -0.5465
   20Eth     Ch 2464   3.312   1.209   5.072  0.1277  0.3775 -0.1546
   20Eth    Hcc 2465   3.267   1.194   4.974 -1.4195 -1.2463  0.7565
   20Eth    Hcc 2466   3.356   1.307   5.060  1.7035 -0.3381 -0.3806
   20Eth    Hcc 2467   3.226   1.205   5.139  3.0532 -0.8209  3.7412
   21Eth     Ho 2468   1.343   3.125   6.084 -1.1556  0.8177 -0.5580
   21Eth     Oh 2469   1.295   3.137   6.164 -0.9459 -0.1202 -0.2792
   21Eth     Co 2470   1.178   3.206   6.121  0.3211 -0.0720 -0.3620
   21Eth    Hco 2471   1.129   3.142   6.047  0.7325 -0.3888 -0.3635
   21Eth    Hco 2472   1.206   3.296   6.067 -2.5035 -0.5268 -2.7455
   21Eth     Ch 2473   1.077   3.239   6.237  0.0293  0.3413  0.1749
   21Eth    Hcc 2474   1.118   3.327   6.286  0.8306  1.4468 -2.3708
   21Eth    Hcc 2475   1.062   3.154   6.304  1.1751  1.0802  1.3943
   21Eth    Hcc 2476   0.990   3.280   6.185  0.3316  1.1982  0.3268
   22Eth     Ho 2477   1.210   1.205   1.096  0.5272  0.3253 -0.8491
   22Eth     Oh 2478   1.205   1.115   1.125 -0.0028  0.4277 -0.6127
   22Eth     Co 2479   1.327   1.048   1.078  0.4706 -0.5116 -0.4015
   22Eth    Hco 2480   1.399   1.099   1.143  1.2266 -0.5313 -1.2242
   22Eth    Hco 2481   1.349   1.076   0.975 -1.8730 -1.0964 -1.0879
   22Eth     Ch 2482   1.334   0.899   1.100 -0.2027 -0.8744  0.2163
   22Eth    Hcc 2483   1.429   0.851   1.078  1.5603  1.9817  1.4046
   22Eth    Hcc 2484   1.261   0.849   1.035 -1.3646  1.3005 -0.2041
   22Eth    Hcc 2485   1.315   0.893   1.207 -0.2337  0.9105  0.3160
   23Eth     Ho 2486   1.961   0.215   1.719  0.5613  3.1407 -2.6690
   23Eth     Oh 2487   2.054   0.216   1.735  0.1653  0.2188  0.3097
   23Eth     Co 2488   2.105   0.344   1.712  0.0513  0.1435  0.3535
   23Eth    Hco 2489   2.078   0.413   1.791 -1.1611 -2.1440  1.9733
   23Eth    Hco 2490   2.078   0.391   1.618  2.6767  3.3487  1.1102
   23Eth     Ch 2491   2.257   0.345   1.694  0.1708 -0.0430  0.3520
   23Eth    Hcc 2492   2.316   0.311   1.779 -3.2411  0.2779  2.9679
   23Eth    Hcc 2493   2.289   0.447   1.675  3.5623 -0.4523  3.3409
   23Eth    Hcc 2494   2.289   0.280   1.612 -0.3047  0.0179  0.1158
   24Eth     Ho 2495   2.387   1.659   8.560 -0.2246  1.0159  0.4213
   24Eth     Oh 2496   2.479   1.680   8.568  0.1025 -0.0811 -0.3953
   24Eth     Co 2497   2.486   1.817   8.552 -0.2832 -0.0528 -0.2226
   24Eth    Hco 2498   2.436   1.862   8.638 -0.7375  1.1234 -1.0882
   24Eth    Hco 2499   2.434   1.856   8.465  1.8474 -1.3280 -2.1141
   24Eth     Ch 2500   2.638   1.842   8.553  0.1239  0.3635  0.6468
   24Eth    Hcc 2501   2.683   1.809   8.646 -0.4346 -0.8860  0.4881
   24Eth    Hcc 2502   2.649   1.948   8.532 -1.3083  0.4321  0.1668
   24Eth    Hcc 2503   2.691   1.775   8.485  3.0716  1.2349  1.9944
   25Eth     Ho 2504   2.758   3.237   8.749 -0.7079 -0.0953  0.8403
   25Eth     Oh 2505   2.788   3.264   8.834  0.2200  0.9422  0.1989
   25Eth     Co 2506   2.861   3.162   8.887  0.3626  0.0339  0.2574
   25Eth    Hco 2507   2.952   3.142   8.831 -0.1277  1.8966 -1.2816
   25Eth    Hco 2508   2.803   3.071   8.874 -3.5145  2.5802 -1.4922
   25Eth     Ch 2509   2.881   3.193   9.032  0.1822 -0.2993  1.1171
   25Eth    Hcc 2510   2.790   3.208   9.092 -1.1142  0.1662 -0.9312
   25Eth    Hcc 2511   2.949   3.275   9.052  0.8657 -0.5572 -0.1441
   25Eth    Hcc 2512   2.929   3.113   9.089 -2.9667 -2.8264  0.3977
   26Eth     Ho 2513   0.106   1.215   8.716 -1.5203 -2.8981 -1.1161
   26Eth     Oh 2514   0.171   1.168   8.764 -0.0693 -0.3676 -0.5294
   26Eth     Co 2515   0.134   1.174   8.898 -0.6660 -0.1740 -0.1091
   26Eth    Hco 2516   0.040   1.121   8.910 -1.7663  2.1125  1.6647
   26Eth    Hco 2517   0.121   1.280   8.917  0.2543 -0.0223 -0.2860
   26Eth     Ch 2518   0.256   1.119   8.988  0.2030  0.0431  0.3523
   26Eth    Hcc 2519   0.268   1.013   8.967 -1.5549  0.2826 -2.1713
   26Eth    Hcc 2520   0.212   1.124   9.087 -0.1633 -0.7882  0.2398
   26Eth    Hcc 2521   0.351   1.172   8.990  0.9370 -1.2266 -0.3841
   27Eth     Ho 2522   2.348   0.801   9.062  0.4167  1.5314  0.0746
   27Eth     Oh 2523   2.416   0.758   9.015  0.0705  0.8191  0.2127
   27Eth     Co 2524   2.524   0.859   9.006  0.1792  0.2180 -0.1390
   27Eth    Hco 2525   2.503   0.918   9.095 -1.3568  1.0617 -1.0407
   27Eth    Hco 2526   2.495   0.919   8.919  1.5356  0.2576 -0.5714
   27Eth     Ch 2527   2.656   0.782   8.999  0.4297  0.5953  0.1085
   27Eth    Hcc 2528   2.656   0.698   9.068 -1.5420 -1.3310 -2.1616
   27Eth    Hcc 2529   2.736   0.852   9.022  0.7597  0.7823 -1.5613
   27Eth    Hcc 2530   2.681   0.757   8.896  0.9082  0.3819  0.2739
   28Eth     Ho 2531   2.268   0.236   5.201 -2.0382  1.3129 -2.4868
   28Eth     Oh 2532   2.300   0.324   5.204  0.1504  0.5320 -0.3793
   28Eth     Co 2533   2.440   0.304   5.180  0.2749  0.3334 -0.3918
   28Eth    Hco 2534   2.463   0.285   5.075  2.1716 -1.3901  0.3044
   28Eth    Hco 2535   2.483   0.221   5.236 -0.5694 -1.1472 -1.8348
   28Eth     Ch 2536   2.517   0.435   5.227  0.5184  0.1407  0.1997
   28Eth    Hcc 2537   2.624   0.419   5.213  0.5696 -0.7692  1.5466
   28Eth    Hcc 2538   2.506   0.447   5.335 -1.6582 -1.4992  0.1930
   28Eth    Hcc 2539   2.484   0.526   5.179  2.1554  0.6302 -0.0404
   29Eth     Ho 2540   3.209   2.849   8.850  0.5282 -1.4862  0.1600
   29Eth     Oh 2541   3.139   2.791   8.877 -0.2543 -0.6583 -0.0709
   29Eth     Co 2542   3.085   2.821   9.009  0.3492  0.0245  0.5005
   29Eth    Hco 2543   3.101   2.922   9.046 -3.6540  0.0464  2.4012
   29Eth    Hco 2544   3.134   2.744   9.068  0.1990 -0.7533 -0.3801
   29Eth     Ch 2545   2.937   2.809   9.013 -0.5955  0.2219  0.3239
   29Eth    Hcc 2546   2.886   2.859   8.931 -0.2503 -1.2606 -0.8164
   29Eth    Hcc 2547   2.910   2.857   9.107 -1.7777  0.9937 -0.3921
   29Eth    Hcc 2548   2.898   2.707   9.009 -0.7776  0.2365  1.6078
   30Eth     Ho 2549   0.649   0.680   8.716  0.3690 -1.1284  1.9656
   30Eth     Oh 2550   0.609   0.601   8.685 -0.2093 -0.2440  0.3838
   30Eth     Co 2551   0.655   0.587   8.550  0.0748 -0.9298 -0.3549
   30Eth    Hco 2552   0.763   0.597   8.559 -0.1965  3.5925 -0.8229
   30Eth    Hco 2553   0.613   0.673   8.498 -3.9893 -2.3274  0.3936
   30Eth     Ch 2554   0.627   0.450   8.485 -0.7034  0.0544 -0.0549
   30Eth    Hcc 2555   0.527   0.422   8.520 -0.0548 -0.8691  1.0968
   30Eth    Hcc 2556   0.693   0.375   8.528 -0.1988  0.1376 -0.6892
   30Eth    Hcc 2557   0.643   0.453   8.377  0.5614 -0.6488  0.1006
   31Eth     Ho 2558   0.679   3.327   8.929 -2.2134 -3.5487 -0.6852
   31Eth     Oh 2559   0.674   3.361   8.842  0.0240  0.0260  0.4735
   31Eth     Co 2560   0.669   3.245   8.750 -0.0470 -0.2394 -0.3029
   31Eth    Hco 2561   0.603   3.264   8.665  1.0710 -0.9911 -1.3625
   31Eth    Hco 2562   0.634   3.152   8.797  1.6532 -0.3636  0.7655
   31Eth     Ch 2563   0.816   3.214   8.707 -0.2701 -0.0478  0.8643
   31Eth    Hcc 2564   0.880   3.288   8.660 -0.3417  1.0974  2.4990
   31Eth    Hcc 2565   0.815   3.134   8.633 -0.0906  1.3023 -0.6194
   31Eth    Hcc 2566   0.889   3.187   8.783  1.2054  1.4722  0.0315
   32Eth     Ho 2567   0.698   1.834   3.614 -0.9970  0.4617  0.2572
   32Eth     Oh 2568   0.766   1.805   3.673 -0.3933 -0.8251 -1.0442
   32Eth     Co 2569   0.699   1.746   3.785  0.4572  0.2944 -0.2447
   32Eth    Hco 2570   0.645   1.655   3.761 -0.1996 -0.0144  2.3119
   32Eth    Hco 2571   0.624   1.809   3.832  2.1087 -0.3272  3.4543
   32Eth     Ch 2572   0.805   1.735   3.894 -0.2264 -0.3039  0.5306
   32Eth    Hcc 2573   0.898   1.694   3.855 -0.9526 -0.4104 -1.1293
   32Eth    Hcc 2574   0.776   1.688   3.989  1.0560 -0.6200  0.7694
   32Eth    Hcc 2575   0.829   1.839   3.918  0.1013  0.1077 -1.5079
   33Eth     Ho 2576   1.610   1.794   5.784  0.3884 -0.7204 -0.0135
   33Eth     Oh 2577   1.566   1.771   5.864 -0.1857  0.2269 -0.0497
   33Eth     Co 2578   1.592   1.884   5.934  0.1342  0.4391 -0.0816
   33Eth    Hco 2579   1.532   1.965   5.894  0.6466  0.9296  0.1463
   33Eth    Hco 2580   1.697   1.908   5.923  0.6277  0.8800  4.4380
   33Eth     Ch 2581   1.562   1.857   6.085 -0.2139  0.1193 -0.1470
   33Eth    Hcc 2582   1.582   1.949   6.140  0.1792 -0.0652  0.0247
   33Eth    Hcc 2583   1.636   1.783   6.116  0.8350  0.9469 -0.6233
   33Eth    Hcc 2584   1.459   1.829   6.106 -0.3233 -0.9460 -2.0046
   34Eth     Ho 2585   1.134   3.195   1.190 -3.4796  2.1298 -1.5216
   34Eth     Oh 2586   1.165   3.278   1.222 -0.7170  0.8162 -0.6497
   34Eth     Co 2587   1.163   3.372   1.115 -0.5711  0.3175 -0.4052
   34Eth    Hco 2588   1.059   3.386   1.087 -0.9277  1.2822  1.3641
   34Eth    Hco 2589   1.216   3.331   1.029 -1.1251  1.3858 -1.2687
   34Eth     Ch 2590   1.233   3.502   1.154 -0.5806  0.2605  0.1105
   34Eth    Hcc 2591   1.335   3.485   1.187 -1.3302 -1.3057  1.7207
   34Eth    Hcc 2592   1.179   3.561   1.228  0.1079  0.7277  0.2456
   34Eth    Hcc 2593   1.249   3.554   1.060 -0.6800  1.8761  0.9775
   35Eth     Ho 2594   1.577   2.604   7.937  2.1286 -0.4626  0.3318
   35Eth     Oh 2595   1.586   2.608   7.844  0.4831 -0.0089  0.1815
   35Eth     Co 2596   1.653   2.493   7.799  0.2929  0.2719 -0.0112
   35Eth    Hco 2597   1.607   2.396   7.814  0.3088 -0.0521 -1.9368
   35Eth    Hco 2598   1.749   2.490   7.851  1.0751  3.3109 -1.1568
   35Eth     Ch 2599   1.687   2.488   7.650 -0.2980  0.7269  0.1687
   35Eth    Hcc 2600   1.762   2.413   7.624 -0.2600  0.6002  0.6404
   35Eth    Hcc 2601   1.744   2.577   7.623 -3.3426  2.0315 -2.1988
   35Eth    Hcc 2602   1.598   2.478   7.589 -0.2732 -1.0212  0.3934
   36Eth     Ho 2603   2.706   1.870   5.891 -0.1435 -0.1619  0.1983
   36Eth     Oh 2604   2.656   1.907   5.962 -0.1451  0.0367  0.0959
   36Eth     Co 2605   2.734   1.936   6.074 -0.8155 -0.6733 -0.5084
   36Eth    Hco 2606   2.809   2.011   6.051 -0.7411 -0.5906  0.0056
   36Eth    Hco 2607   2.792   1.851   6.112  1.0807  0.7709 -0.1203
   36Eth     Ch 2608   2.657   2.005   6.188 -0.3868  0.1105  0.2803
   36Eth    Hcc 2609   2.726   2.052   6.258 -0.4037 -0.7685  0.9047
   36Eth    Hcc 2610   2.582   1.948   6.244  0.8642 -0.9938  0.8621
   36Eth    Hcc 2611   2.596   2.082   6.141 -0.2973 -0.8052 -1.3760
   37Eth     Ho 2612   2.611   0.512   6.420  0.8952  0.4060 -0.4650
   37Eth     Oh 2613   2.540   0.488   6.363  0.4151  0.4600  0.1042
   37Eth     Co 2614   2.486   0.602   6.306  0.1653 -0.0310 -0.5474
   37Eth    Hco 2615   2.563   0.648   6.244  1.0573 -0.5742  0.1304
   37Eth    Hco 2616   2.462   0.679   6.379 -0.3830  0.9606 -1.7735
   37Eth     Ch 2617   2.355   0.562   6.240 -0.2081  0.5647  0.1561
   37Eth    Hcc 2618   2.289   0.494   6.293 -0.5786  0.1863 -0.7702
   37Eth    Hcc 2619   2.372   0.512   6.144 -0.1754 -0.9862  0.9660
   37Eth    Hcc 2620   2.292   0.650   6.226  1.8346  2.0349 -0.1380
   38Eth     Ho 2621   0.346   1.009   8.745  0.2388  0.3667  0.9405
   38Eth     Oh 2622   0.396   0.948   8.694 -0.7670  0.2144  0.1170
   38Eth     Co 2623   0.447   1.029   8.587  0.3039 -0.2762  0.7930
   38Eth    Hco 2624   0.439   1.134   8.614  0.5566  0.1370 -0.7133
   38Eth    Hco 2625   0.388   0.999   8.501  0.3003  1.3801  0.2141
   38Eth     Ch 2626   0.588   0.981   8.558  0.0195 -0.4511  0.0683
   38Eth    Hcc 2627   0.653   1.052   8.507 -1.0047 -0.0575 -0.7247
   38Eth    Hcc 2628   0.599   0.887   8.504 -1.2895 -1.3856  1.3749
   38Eth    Hcc 2629   0.629   0.957   8.656  0.1909  1.4713  0.4770
   39Eth     Ho 2630   3.161   1.308   9.062 -0.5270  2.6548 -0.5661
   39Eth     Oh 2631   3.238   1.313   9.008  0.0508 -0.1154 -0.0548
   39Eth     Co 2632   3.273   1.446   8.981 -0.6921 -0.0868  0.3635
   39Eth    Hco 2633   3.217   1.511   9.048 -0.8183 -1.1132  1.2676
   39Eth    Hco 2634   3.241   1.468   8.879  0.8458 -0.5666 -0.2310
   39Eth     Ch 2635   3.425   1.469   8.985  0.2025  0.1503 -0.0299
   39Eth    Hcc 2636   3.470   1.431   9.077 -2.2388  0.1258  1.1983
   39Eth    Hcc 2637   3.446   1.575   8.968 -1.1855  0.3561 -0.5006
   39Eth    Hcc 2638   3.486   1.424   8.906 -0.3742 -1.0522  0.2005
   40Eth     Ho 2639   2.171   2.107   8.895 -0.0191  2.4305 -2.9801
   40Eth     Oh 2640   2.228   2.169   8.938  0.2402  0.2071  0.0496
   40Eth     Co 2641   2.349   2.118   8.892  0.4788  0.0683 -0.5922
   40Eth    Hco 2642   2.348   2.115   8.783  1.6687  1.1316 -0.6444
   40Eth    Hco 2643   2.353   2.017   8.933  0.4593 -0.8114 -2.6957
   40Eth     Ch 2644   2.465   2.207   8.949 -0.1760  0.1747 -0.3067
   40Eth    Hcc 2645   2.552   2.146   8.927 -1.4777 -2.4123  1.4431
   40Eth    Hcc 2646   2.464   2.235   9.054  0.7242  1.0444 -0.5250
   40Eth    Hcc 2647   2.464   2.303   8.898 -0.7893  1.1407  1.4631
   41Eth     Ho 2648   0.320   1.157   1.335  0.1800  2.7651  0.4636
   41Eth     Oh 2649   0.414   1.157   1.336  0.2183  0.1748  0.0794
   41Eth     Co 2650   0.466   1.069   1.234  0.3532 -0.3783  0.0913
   41Eth    Hco 2651   0.400   0.984   1.252  0.5319 -0.7686 -1.0563
   41Eth    Hco 2652   0.572   1.047   1.246  0.7887  1.4036 -0.3203
   41Eth     Ch 2653   0.436   1.120   1.092  0.1477  0.2141  0.2356
   41Eth    Hcc 2654   0.471   1.048   1.018 -1.3748  1.3058 -1.5929
   41Eth    Hcc 2655   0.497   1.207   1.068  1.2097 -0.6460 -0.2581
   41Eth    Hcc 2656   0.330   1.142   1.081  0.3292  0.6274 -0.7237
   42Eth     Ho 2657   1.217   2.685   4.025 -1.1783 -0.1096  0.0352
   42Eth     Oh 2658   1.207   2.744   4.098  0.3560  0.0518  0.1175
   42Eth     Co 2659   1.104   2.695   4.186 -0.5141  0.7163  0.1172
   42Eth    Hco 2660   1.018   2.651   4.135 -0.0907  0.3589 -0.2884
   42Eth    Hco 2661   1.070   2.778   4.249  0.4026  0.8496  0.4385
   42Eth     Ch 2662   1.167   2.588   4.271  0.3866  0.4612 -0.5873
   42Eth    Hcc 2663   1.092   2.556   4.344  0.4259  0.1209 -0.6934
   42Eth    Hcc 2664   1.250   2.645   4.312 -0.5771  0.7654  0.9925
   42Eth    Hcc 2665   1.205   2.502   4.216  1.7658  0.8199 -0.1947
   43Eth     Ho 2666   1.288   0.223   8.944  0.6777 -0.2997 -2.0421
   43Eth     Oh 2667   1.226   0.152   8.947  0.1524  0.2092 -0.6530
   43Eth     Co 2668   1.096   0.201   8.972  0.2579  0.2745 -0.3499
   43Eth    Hco 2669   1.060   0.257   8.885  1.0304  0.8673 -0.2939
   43Eth    Hco 2670   1.096   0.263   9.062  2.2597  0.8016 -0.6817
   43Eth     Ch 2671   1.001   0.085   8.989 -0.1422 -0.3040  0.3372
   43Eth    Hcc 2672   0.894   0.108   8.993 -0.4411 -1.5412 -0.4298
   43Eth    Hcc 2673   1.039   0.042   9.081  1.8827 -0.6572 -0.6482
   43Eth    Hcc 2674   1.015   0.005   8.916 -0.7929  0.5521 -0.7442
   44Eth     Ho 2675   0.226   3.225   1.307  1.8510  2.5306  0.2961
   44Eth     Oh 2676   0.161   3.271   1.256 -0.0048 -0.1548  0.1200
   44Eth     Co 2677   0.150   3.213   1.131 -0.3495 -0.1843 -0.6851
   44Eth    Hco 2678   0.103   3.115   1.145 -1.5000  0.5245  0.5106
   44Eth    Hco 2679   0.249   3.211   1.086 -0.0532 -0.2711 -0.0391
   44Eth     Ch 2680   0.057   3.292   1.040 -0.6029 -0.4043 -0.1617
   44Eth    Hcc 2681   0.076   3.399   1.047 -1.5585 -0.1553 -1.2171
   44Eth    Hcc 2682  -0.047   3.284   1.071 -0.9433  1.6703 -0.6852
   44Eth    Hcc 2683   0.068   3.266   0.935  2.5438 -2.8911  0.6880
   45Eth     Ho 2684   3.071   0.958   5.823  0.2880 -1.6009  0.0697
   45Eth     Oh 2685   3.027   0.952   5.740  0.4553  0.7515 -0.2348
   45Eth     Co 2686   3.106   0.853   5.668 -0.3001 -0.0803 -0.4542
   45Eth    Hco 2687   3.207   0.894   5.661 -1.0873  1.6540 -2.1392
   45Eth    Hco 2688   3.062   0.834   5.570 -1.8886 -0.5110  0.3314
   45Eth     Ch 2689   3.089   0.716   5.743  0.6850 -0.5000  0.6728
   45Eth    Hcc 2690   2.984   0.689   5.746 -0.4350  3.5892  1.6084
   45Eth    Hcc 2691   3.115   0.741   5.846  0.5536  2.7569 -0.0448
   45Eth    Hcc 2692   3.161   0.637   5.720  0.4522 -0.5294  0.0443
   46Eth     Ho 2693   0.836   2.575   5.752  3.1666  1.6789  2.6536
   46Eth     Oh 2694   0.826   2.653   5.701  0.0760 -0.2329  0.1923
   46Eth     Co 2695   0.693   2.655   5.648  0.1686 -0.2589  0.0709
   46Eth    Hco 2696   0.627   2.666   5.734 -0.1376  2.9542 -0.5051
   46Eth    Hco 2697   0.685   2.555   5.606 -1.6851 -0.7562  1.5388
   46Eth     Ch 2698   0.672   2.766   5.542  0.6045  0.1685  0.0721
   46Eth    Hcc 2699   0.576   2.752   5.492  0.6748 -0.9462  0.2299
   46Eth    Hcc 2700   0.739   2.764   5.456  0.0240 -3.4045 -0.3977
   46Eth    Hcc 2701   0.681   2.866   5.584  0.4279  0.7727 -1.2883
   47Eth     Ho 2702   2.867   1.811   3.832  0.1497 -0.4635  0.5673
   47Eth     Oh 2703   2.893   1.802   3.922  0.3059 -0.6348  0.5052
   47Eth     Co 2704   3.029   1.771   3.911 -0.5840 -0.0796 -0.9985
   47Eth    Hco 2705   3.085   1.835   3.844 -3.5769  2.1294 -1.5301
   47Eth    Hco 2706   3.055   1.679   3.859  2.3345 -0.5111  1.0696
   47Eth     Ch 2707   3.094   1.777   4.052 -0.0979 -0.5330 -0.0807
   47Eth    Hcc 2708   3.030   1.735   4.129  0.4323 -0.3398  0.4690
   47Eth    Hcc 2709   3.099   1.880   4.086 -2.7335 -0.6695  0.7916
   47Eth    Hcc 2710   3.193   1.732   4.040  0.5503  0.7398  0.3801
   48Eth     Ho 2711   0.235   0.331   9.010 -1.1837  1.0791 -2.3704
   48Eth     Oh 2712   0.245   0.415   9.051  0.2502 -0.1821 -0.0392
   48Eth     Co 2713   0.248   0.506   8.949 -0.1314  0.3373  0.0692
   48Eth    Hco 2714   0.152   0.522   8.901  0.8727 -1.8732 -2.8002
   48Eth    Hco 2715   0.299   0.460   8.864 -1.2289 -2.5687  0.9213
   48Eth     Ch 2716   0.312   0.641   8.996 -0.5910  0.0057 -0.0887
   48Eth    Hcc 2717   0.253   0.695   9.071  3.4893  1.4918  2.1930
   48Eth    Hcc 2718   0.318   0.696   8.901  1.8337 -0.9913 -0.5293
   48Eth    Hcc 2719   0.410   0.624   9.040 -1.0373 -2.0727  0.1328
   49Eth     Ho 2720   2.391   0.292   1.248 -0.2846 -0.6115 -1.1954
   49Eth     Oh 2721   2.476   0.255   1.263 -0.1620  0.1448  0.0956
   49Eth     Co 2722   2.568   0.268   1.151 -0.3422  0.1369  0.2372
   49Eth    Hco 2723   2.581   0.366   1.104 -0.9695 -0.8122 -2.0084
   49Eth    Hco 2724   2.522   0.209   1.071 -0.6417  2.3929 -1.3094
   49Eth     Ch 2725   2.703   0.224   1.199 -0.5568 -0.0005  0.2087
   49Eth    Hcc 2726   2.692   0.150   1.278  1.1367 -1.1434 -0.5937
   49Eth    Hcc 2727   2.765   0.305   1.238  0.2496 -1.3156  1.6970
   49Eth    Hcc 2728   2.762   0.181   1.118  0.5666 -0.2779  1.1845
   50Eth     Ho 2729   2.906   2.366   1.238 -1.3825 -3.2694  0.5760
   50Eth     Oh 2730   2.971   2.332   1.179 -0.4622  0.1116 -0.4809
   50Eth     Co 2731   3.058   2.449   1.169  0.9566  0.4904  0.2486
   50Eth    Hco 2732   3.061   2.493   1.269 -2.7528 -0.2680  0.7572
   50Eth    Hco 2733   3.016   2.524   1.102 -0.7299 -2.0394 -1.5736
   50Eth     Ch 2734   3.187   2.399   1.118  0.4554 -0.4042 -0.1297
   50Eth    Hcc 2735   3.265   2.474   1.127  0.1743 -0.1151 -0.0642
   50Eth    Hcc 2736   3.177   2.376   1.012  2.5192 -4.1165  0.3994
   50Eth    Hcc 2737   3.222   2.312   1.174 -2.4035 -1.3054  0.3326
   51Eth     Ho 2738   0.110   1.753   7.425 -0.3937 -1.0424 -0.1969
   51Eth     Oh 2739   0.064   1.741   7.506  0.1009  0.2636  0.2988
   51Eth     Co 2740  -0.040   1.655   7.473  0.0838 -0.3300  0.2632
   51Eth    Hco 2741   0.000   1.554   7.460  0.7681 -0.2409  1.6660
   51Eth    Hco 2742  -0.089   1.690   7.382  0.9417  1.9849  0.6710
   51Eth     Ch 2743  -0.140   1.632   7.587  0.0936  0.1741  0.9308
   51Eth    Hcc 2744  -0.109   1.605   7.688 -1.0734 -1.7727  0.8032
   51Eth    Hcc 2745  -0.214   1.556   7.563  0.6469 -0.4649  1.2141
   51Eth    Hcc 2746  -0.199   1.722   7.602  1.4455  1.6789 -2.4416
   52Eth     Ho 2747   2.672   2.516   5.127  0.2584  3.5897 -1.4927
   52Eth     Oh 2748   2.579   2.523   5.137  0.0752 -0.3244  0.0854
   52Eth     Co 2749   2.537   2.515   5.274  0.1323 -0.1162  0.1062
   52Eth    Hco 2750   2.607   2.456   5.333  0.7978  2.0902  1.5867
   52Eth    Hco 2751   2.440   2.466   5.270  1.2209 -2.2628 -1.0309
   52Eth     Ch 2752   2.524   2.658   5.341  0.4624  0.7891 -0.1450
   52Eth    Hcc 2753   2.437   2.722   5.324  2.0364  2.9431 -0.3624
   52Eth    Hcc 2754   2.617   2.713   5.326  1.6651 -0.5190  2.1583
   52Eth    Hcc 2755   2.513   2.631   5.446 -2.0203 -0.7178 -0.7522
   53Eth     Ho 2756   3.128   3.404   2.129 -0.6348  0.5680  0.2063
   53Eth     Oh 2757   3.185   3.457   2.183 -0.4013  0.2027  0.3238
   53Eth     Co 2758   3.237   3.554   2.093  0.8049 -2.0311 -0.4190
   53Eth    Hco 2759   3.152   3.585   2.033  1.5217  0.3437 -0.2548
   53Eth    Hco 2760   3.317   3.501   2.041 -0.7605 -2.9468 -1.9528
   53Eth     Ch 2761   3.297   3.665   2.180  0.2921  0.9129  0.9949
   53Eth    Hcc 2762   3.345   3.633   2.273  0.1237 -0.6154  0.5638
   53Eth    Hcc 2763   3.218   3.740   2.191  0.5183  1.6706 -2.1425
   53Eth    Hcc 2764   3.380   3.714   2.130  0.7203 -1.3745 -0.6085
   54Eth     Ho 2765   0.390   2.865   8.390 -1.6518 -0.0983 -2.0825
   54Eth     Oh 2766   0.394   2.958   8.374  0.6967  0.2333  0.0807
   54Eth     Co 2767   0.269   2.998   8.323  0.5823 -0.0925 -0.2389
   54Eth    Hco 2768   0.206   2.993   8.412  1.4231  2.9235  0.5818
   54Eth    Hco 2769   0.237   2.916   8.258  1.9029 -1.3808  0.7170
   54Eth     Ch 2770   0.272   3.140   8.255  0.2596 -0.1635 -0.6438
   54Eth    Hcc 2771   0.180   3.163   8.201 -0.7402 -0.2324  1.0029
   54Eth    Hcc 2772   0.354   3.140   8.184  1.3197  1.6825  0.5429
   54Eth    Hcc 2773   0.278   3.221   8.328 -2.1577 -1.9595  1.6360
   55Eth     Ho 2774   1.592   0.331   8.950  1.4014 -0.8241 -0.4370
   55Eth     Oh 2775   1.550   0.248   8.937 -0.0568 -0.2529  0.5583
   55Eth     Co 2776   1.632   0.156   9.007 -0.0182 -0.4838  0.7082
   55Eth    Hco 2777   1.610   0.168   9.113 -1.2042  1.6939  0.2498
   55Eth    Hco 2778   1.734   0.187   8.985 -0.7927  2.7187  1.2903
   55Eth     Ch 2779   1.615   0.008   8.962  0.1375 -0.8996 -0.4611
   55Eth    Hcc 2780   1.513  -0.026   8.979 -1.0178  1.9077 -1.6055
   55Eth    Hcc 2781   1.691  -0.051   9.013  1.5525  0.6367 -0.7615
   55Eth    Hcc 2782   1.620  -0.012   8.855 -0.3208 -1.9171 -0.3051
   56Eth     Ho 2783   2.091   1.402   8.784 -1.6530 -3.3465 -1.2636
   56Eth     Oh 2784   2.026   1.413   8.850  0.6366  0.0222  0.5644
   56Eth     Co 2785   2.069   1.529   8.913 -0.6458  0.4740  0.3960
   56Eth    Hco 2786   2.077   1.615   8.847 -0.7223  0.8062  0.8173
   56Eth    Hco 2787   2.173   1.506   8.938 -1.6936 -3.6358  1.3479
   56Eth     Ch 2788   1.993   1.570   9.043  0.2820  0.0934  0.4717
   56Eth    Hcc 2789   2.045   1.651   9.095  0.0056 -0.2510  1.2940
   56Eth    Hcc 2790   1.967   1.490   9.112 -1.7840  2.6593  2.7916
   56Eth    Hcc 2791   1.895   1.604   9.011 -0.7935 -2.3603  1.0811
   57Eth     Ho 2792   1.633   2.900   1.264 -0.4813 -0.3506 -1.7288
   57Eth     Oh 2793   1.623   2.994   1.270  0.4391 -0.3560  0.4376
   57Eth     Co 2794   1.659   3.049   1.145  0.4239  0.3199  0.1904
   57Eth    Hco 2795   1.601   3.005   1.064  0.9345 -3.6636  1.8571
   57Eth    Hco 2796   1.763   3.019   1.130 -0.3085 -2.1882 -0.1517
   57Eth     Ch 2797   1.655   3.197   1.128 -0.0218  0.0229  0.5254
   57Eth    Hcc 2798   1.554   3.225   1.159  0.0374 -1.1219  1.7969
   57Eth    Hcc 2799   1.662   3.217   1.021 -0.4039  0.3167  0.5524
   57Eth    Hcc 2800   1.733   3.250   1.181 -0.3234 -0.7918  1.7965
   58Eth     Ho 2801   0.241   1.014   6.864  1.2217  0.4807  0.7685
   58Eth     Oh 2802   0.305   0.993   6.799  0.2962 -0.5502  0.1657
   58Eth     Co 2803   0.269   1.084   6.691  0.1486 -0.1058  0.7304
   58Eth    Hco 2804   0.279   1.186   6.727 -0.8073  0.0530  0.5570
   58Eth    Hco 2805   0.169   1.057   6.660 -0.4407  0.8469  1.7599
   58Eth     Ch 2806   0.377   1.054   6.575 -0.8760 -0.8472  0.1279
   58Eth    Hcc 2807   0.364   1.121   6.491 -1.6062 -0.5336  0.4852
   58Eth    Hcc 2808   0.383   0.950   6.541  1.2025 -0.4251 -0.8205
   58Eth    Hcc 2809   0.474   1.073   6.620 -2.0162  0.2647  2.2284
   59Eth     Ho 2810   2.046   2.629   2.173 -1.7053 -0.9123  2.3158
   59Eth     Oh 2811   2.111   2.650   2.237  0.0440 -0.4679  0.4567
   59Eth     Co 2812   2.042   2.714   2.342 -0.1129 -0.0074  0.6095
   59Eth    Hco 2813   1.983   2.634   2.387 -0.7646  0.0113 -0.2011
   59Eth    Hco 2814   1.965   2.787   2.318  0.5136 -0.0088 -1.5496
   59Eth     Ch 2815   2.127   2.776   2.444  0.0560 -0.0520  0.2353
   59Eth    Hcc 2816   2.081   2.775   2.543 -0.7193 -1.0568 -0.1224
   59Eth    Hcc 2817   2.133   2.882   2.420 -0.5907  0.1425  0.9052
   59Eth    Hcc 2818   2.222   2.724   2.456 -0.6030 -1.3973 -0.3016
   60Eth     Ho 2819   2.317   0.948   1.724 -0.6273 -0.3609 -1.0449
   60Eth     Oh 2820   2.283   1.034   1.705 -0.5325 -0.0564  0.1197
   60Eth     Co 2821   2.321   1.057   1.571 -0.7287 -0.0473 -0.4434
   60Eth    Hco 2822   2.281   0.976   1.511  0.9241 -1.0828 -0.1724
   60Eth    Hco 2823   2.429   1.065   1.555 -1.0733 -0.5312 -3.3314
   60Eth     Ch 2824   2.252   1.182   1.523  0.0493  0.1630  0.1614
   60Eth    Hcc 2825   2.154   1.193   1.569  1.3043  1.2997  2.6869
   60Eth    Hcc 2826   2.251   1.184   1.414  0.6398  0.8166  0.1653
   60Eth    Hcc 2827   2.300   1.273   1.560 -0.4321  1.4341 -2.2762
   61Eth     Ho 2828   1.391   0.754   2.016 -0.7210  0.4168  0.7301
   61Eth     Oh 2829   1.408   0.682   2.073  0.0713  0.0655  0.0500
   61Eth     Co 2830   1.413   0.733   2.203 -0.2662  0.4764 -0.7079
   61Eth    Hco 2831   1.435   0.840   2.195 -0.4027  0.4989 -0.7904
   61Eth    Hco 2832   1.491   0.688   2.264 -0.4752  1.6337  0.4581
   61Eth     Ch 2833   1.274   0.732   2.270  0.0289  0.2969 -0.0289
   61Eth    Hcc 2834   1.273   0.777   2.370  2.0631 -0.7107  0.4767
   61Eth    Hcc 2835   1.237   0.632   2.294  0.8679 -0.2945 -1.1455
   61Eth    Hcc 2836   1.198   0.778   2.207 -0.4910 -0.8841 -0.2847
   62Eth     Ho 2837   3.260   3.034   8.758 -2.6358 -0.3712  0.2262
   62Eth     Oh 2838   3.290   3.009   8.844  0.1137  0.0914 -0.5664
   62Eth     Co 2839   3.384   3.099   8.898 -0.7269 -0.4062  0.1394
   62Eth    Hco 2840   3.355   3.201   8.875 -3.1085 -0.9578  0.5302
   62Eth    Hco 2841   3.478   3.082   8.845 -1.2275 -2.1073 -0.2233
   62Eth     Ch 2842   3.404   3.078   9.056  0.2334  0.6198 -0.5809
   62Eth    Hcc 2843   3.311   3.075   9.112  0.7118  0.1617  0.1961
   62Eth    Hcc 2844   3.465   3.160   9.094 -0.9436  0.5607  1.4847
   62Eth    Hcc 2845   3.461   2.985   9.049  0.4702  0.8024 -1.0791
   63Eth     Ho 2846   0.019   0.200   8.752  0.0515  0.9363 -0.6816
   63Eth     Oh 2847  -0.054   0.256   8.735 -0.7026  0.1833  0.0297
   63Eth     Co 2848  -0.101   0.314   8.858  0.3685  0.9929  0.1253
   63Eth    Hco 2849  -0.170   0.396   8.842 -0.5211  0.2376  0.0555
   63Eth    Hco 2850  -0.023   0.376   8.903 -0.8368  0.6405  2.8516
   63Eth     Ch 2851  -0.162   0.208   8.942  0.0778 -0.2514  0.2754
   63Eth    Hcc 2852  -0.098   0.120   8.949 -0.8258 -1.0429 -1.0849
   63Eth    Hcc 2853  -0.258   0.193   8.891  0.2071  1.3320 -0.4606
   63Eth    Hcc 2854  -0.165   0.263   9.036  0.0418  1.2836 -0.5994
   64Eth     Ho 2855   1.320   2.089   1.462  1.7055  0.6440  2.3206
   64Eth     Oh 2856   1.355   2.002   1.454  0.0919  0.1352  0.1774
   64Eth     Co 2857   1.266   1.911   1.512 -0.0990 -0.6683  0.1829
   64Eth    Hco 2858   1.295   1.810   1.484 -2.3587 -1.5338  0.8747
   64Eth    Hco 2859   1.162   1.939   1.493  0.5123  1.6609  0.0476
   64Eth     Ch 2860   1.279   1.917   1.674 -0.1424 -0.9475 -0.0718
   64Eth    Hcc 2861   1.216   1.993   1.722  1.1476 -1.2932  2.2724
   64Eth    Hcc 2862   1.378   1.934   1.716 -0.6613  1.5706  0.2257
   64Eth    Hcc 2863   1.250   1.816   1.706  1.1597 -1.9079 -1.8571
   65Eth     Ho 2864   0.113   3.391   8.237  1.2708 -1.9371  1.7038
   65Eth     Oh 2865   0.021   3.376   8.251  0.8112 -0.9495 -0.1072
   65Eth     Co 2866  -0.013   3.452   8.367  0.4760 -0.5779 -0.4777
   65Eth    Hco 2867  -0.053   3.551   8.341 -0.0969 -1.3586 -2.7129
   65Eth    Hco 2868   0.083   3.462   8.416  0.0741  1.7638 -0.1066
   65Eth     Ch 2869  -0.108   3.364   8.447 -0.2026 -0.8100 -0.0463
   65Eth    Hcc 2870  -0.130   3.417   8.540  2.6026 -0.9109  0.7248
   65Eth    Hcc 2871  -0.073   3.264   8.475 -1.7466 -1.5273 -0.6256
   65Eth    Hcc 2872  -0.207   3.351   8.405  0.1193 -0.9262 -0.7790
   66Eth     Ho 2873   0.968   1.939   8.991 -0.2254  4.7311  1.4672
   66Eth     Oh 2874   0.907   1.951   8.921 -0.3133 -0.2301  0.5642
   66Eth     Co 2875   0.873   2.088   8.939 -0.0991  0.0314 -0.5786
   66Eth    Hco 2876   0.819   2.125   8.851  2.1688  2.9426 -0.8278
   66Eth    Hco 2877   0.959   2.154   8.956  0.0039 -0.2997  0.2156
   66Eth     Ch 2878   0.782   2.084   9.060 -0.6042  0.0141 -0.6402
   66Eth    Hcc 2879   0.842   2.057   9.147 -0.0295  2.4685 -0.2334
   66Eth    Hcc 2880   0.696   2.019   9.047  1.2854 -2.4069 -1.4256
   66Eth    Hcc 2881   0.745   2.184   9.084  1.4417  0.2594  1.7614
   67Eth     Ho 2882   0.874   1.085   1.349 -0.7264 -0.2598  2.2535
   67Eth     Oh 2883   0.815   1.154   1.325 -0.2895 -0.2352  1.2141
   67Eth     Co 2884   0.906   1.261   1.308 -0.1871 -0.0991 -0.5205
   67Eth    Hco 2885   0.999   1.227   1.264 -0.5825 -1.6755 -0.1865
   67Eth    Hco 2886   0.924   1.303   1.407 -0.5175 -1.3135  0.0606
   67Eth     Ch 2887   0.857   1.375   1.223 -0.3875 -0.5151 -0.0633
   67Eth    Hcc 2888   0.936   1.433   1.174  0.7565 -1.3583  0.7609
   67Eth    Hcc 2889   0.782   1.441   1.265 -0.1635 -0.0357 -0.4034
   67Eth    Hcc 2890   0.809   1.327   1.137  2.0419  0.7643 -2.2195
   68Eth     Ho 2891   1.000   2.198   1.264 -1.4954  2.2869 -0.7179
   68Eth     Oh 2892   0.976   2.131   1.203  0.6066  0.0780  0.7956
   68Eth     Co 2893   1.073   2.105   1.107 -0.3000  0.6629  0.0640
   68Eth    Hco 2894   1.118   2.192   1.059  1.5662 -0.6377 -0.6400
   68Eth    Hco 2895   1.036   2.041   1.027  1.6485 -0.1158 -0.2555
   68Eth     Ch 2896   1.197   2.032   1.168  0.1622 -0.2957 -0.2128
   68Eth    Hcc 2897   1.184   1.927   1.195  0.1485 -0.2005  0.1589
   68Eth    Hcc 2898   1.239   2.087   1.253  0.8928  0.3655 -0.9994
   68Eth    Hcc 2899   1.274   2.048   1.093 -1.6813  1.3992 -1.8075
   69Eth     Ho 2900   2.304   2.093   0.990  0.8122 -0.3696 -0.8734
   69Eth     Oh 2901   2.274   2.035   1.057  0.2848  0.7270 -0.1425
   69Eth     Co 2902   2.209   2.113   1.152  0.0935 -0.3404 -0.0794
   69Eth    Hco 2903   2.259   2.210   1.149  0.1951 -0.3882  0.0742
   69Eth    Hco 2904   2.210   2.072   1.253  1.1643 -1.8823 -0.7058
   69Eth     Ch 2905   2.067   2.138   1.110 -0.3429 -0.4512  0.4840
   69Eth    Hcc 2906   2.065   2.172   1.006  1.9727 -2.3507 -0.2229
   69Eth    Hcc 2907   2.031   2.229   1.158 -1.4830 -2.2747  3.1967
   69Eth    Hcc 2908   2.001   2.056   1.137 -1.8597  0.6126  0.0847
   70Eth     Ho 2909   2.230   0.497   8.851  0.6399  1.0037  1.0606
   70Eth     Oh 2910   2.252   0.413   8.887 -0.1271  0.3973  0.1507
   70Eth     Co 2911   2.134   0.345   8.901  0.1012 -0.1740 -0.1032
   70Eth    Hco 2912   2.073   0.351   8.811 -2.3406 -1.2672  1.4101
   70Eth    Hco 2913   2.079   0.377   8.990 -0.4134 -3.2002  0.7542
   70Eth     Ch 2914   2.164   0.201   8.916 -0.1539  0.1665  0.4580
   70Eth    Hcc 2915   2.215   0.157   8.831  1.6052  0.8441  1.1301
   70Eth    Hcc 2916   2.072   0.143   8.920 -0.4668  0.7579  3.4952
   70Eth    Hcc 2917   2.233   0.176   8.997 -0.1215  1.5006  0.8582
   71Eth     Ho 2918   0.872   1.381   8.679  0.1248 -0.8354 -1.4246
   71Eth     Oh 2919   0.848   1.305   8.730 -0.0711 -0.0557 -0.3356
   71Eth     Co 2920   0.712   1.289   8.735 -0.2468  0.0434 -0.1173
   71Eth    Hco 2921   0.683   1.184   8.746  3.7014 -0.7951  2.9533
   71Eth    Hco 2922   0.664   1.327   8.645 -0.1313 -0.1500 -0.2610
   71Eth     Ch 2923   0.667   1.375   8.852 -0.8471  0.4061 -0.0187
   71Eth    Hcc 2924   0.559   1.389   8.843 -0.8399 -0.1293 -1.0020
   71Eth    Hcc 2925   0.697   1.480   8.853  0.4623  0.0293  0.6321
   71Eth    Hcc 2926   0.694   1.332   8.948  2.0372  0.0422 -0.9699
   72Eth     Ho 2927   0.423   2.300   2.277 -0.8189  1.7398  2.9781
   72Eth     Oh 2928   0.382   2.221   2.307  0.8592 -0.2427  0.3125
   72Eth     Co 2929   0.452   2.114   2.240 -0.0110 -1.2347  0.3686
   72Eth    Hco 2930   0.557   2.144   2.231 -0.5361  0.2511 -0.9335
   72Eth    Hco 2931   0.417   2.101   2.138 -0.1222  1.3503  0.0333
   72Eth     Ch 2932   0.425   1.984   2.320 -0.0642 -0.4970  0.1938
   72Eth    Hcc 2933   0.333   1.931   2.297  0.2985 -0.2677 -1.8841
   72Eth    Hcc 2934   0.434   2.010   2.426  1.1690 -0.0254 -0.0140
   72Eth    Hcc 2935   0.505   1.910   2.311  1.1227  0.5872  1.6120
   73Eth     Ho 2936   1.949   3.271   1.331  0.2120  1.2973  0.1859
   73Eth     Oh 2937   1.998   3.270   1.251  0.0463 -0.2669  0.0853
   73Eth     Co 2938   2.075   3.157   1.242 -0.0085 -0.6227  0.5797
   73Eth    Hco 2939   2.000   3.078   1.248  0.7838 -1.4364 -0.0329
   73Eth    Hco 2940   2.145   3.146   1.324  2.1176  0.4380 -1.0361
   73Eth     Ch 2941   2.129   3.139   1.104 -0.0274 -0.2295 -0.6612
   73Eth    Hcc 2942   2.186   3.047   1.104 -1.0272 -0.9528  2.8316
   73Eth    Hcc 2943   2.191   3.225   1.079 -0.7631  0.1569 -1.1883
   73Eth    Hcc 2944   2.048   3.148   1.031  1.9978  0.3211 -2.9063
   74Eth     Ho 2945   0.341   1.701   8.716 -1.2972  1.6162 -0.3669
   74Eth     Oh 2946   0.313   1.713   8.805  1.2258 -0.6697  0.8239
   74Eth     Co 2947   0.250   1.594   8.849 -0.7401  0.1210 -0.1951
   74Eth    Hco 2948   0.313   1.505   8.854 -2.9071 -1.4842 -0.6469
   74Eth    Hco 2949   0.159   1.561   8.798 -1.7562  3.5699 -0.7419
   74Eth     Ch 2950   0.194   1.632   8.994 -0.4487  1.2387 -0.3877
   74Eth    Hcc 2951   0.161   1.542   9.046  0.1622 -0.2910 -2.5654
   74Eth    Hcc 2952   0.113   1.704   8.988  1.3605  3.1892 -2.5040
   74Eth    Hcc 2953   0.269   1.676   9.060 -0.9669 -1.9653  2.5168
   75Eth     Ho 2954   2.633   0.098   2.769  1.0061 -0.2577  0.9057
   75Eth     Oh 2955   2.661   0.188   2.774  0.0695  0.1025 -0.0480
   75Eth     Co 2956   2.603   0.240   2.898 -0.7879  0.1266 -0.2250
   75Eth    Hco 2957   2.575   0.149   2.952  0.3295  0.4752  0.9657
   75Eth    Hco 2958   2.520   0.302   2.866 -1.3586 -0.4934  0.0414
   75Eth     Ch 2959   2.700   0.326   2.973 -0.8998  0.0863  0.1708
   75Eth    Hcc 2960   2.706   0.421   2.920  2.7232 -0.5894 -0.7526
   75Eth    Hcc 2961   2.801   0.286   2.981 -1.1743 -0.7609 -0.4357
   75Eth    Hcc 2962   2.669   0.355   3.074  0.1609 -0.6527  0.7123
   76Eth     Ho 2963   0.911   3.389   2.116  0.1637  1.2492  0.7891
   76Eth     Oh 2964   0.843   3.349   2.168  0.1925 -0.3983 -0.4202
   76Eth     Co 2965   0.718   3.387   2.125  0.3213 -0.7283 -1.5289
   76Eth    Hco 2966   0.704   3.334   2.031  0.1139 -1.0803 -1.2982
   76Eth    Hco 2967   0.729   3.492   2.094  2.7065 -0.5736 -0.2418
   76Eth     Ch 2968   0.602   3.347   2.229 -0.8452 -0.1314 -0.1398
   76Eth    Hcc 2969   0.626   3.248   2.268  1.0050 -0.0686 -1.0253
   76Eth    Hcc 2970   0.508   3.336   2.176 -1.4270  1.0618  0.6425
   76Eth    Hcc 2971   0.588   3.428   2.300 -3.0765 -0.1461 -0.5530
   77Eth     Ho 2972   0.526   0.674   1.245 -0.3412  1.2871 -0.1384
   77Eth     Oh 2973   0.618   0.695   1.243 -0.0943  0.2231 -0.4701
   77Eth     Co 2974   0.665   0.692   1.111  0.4816  0.3872  0.4339
   77Eth    Hco 2975   0.626   0.781   1.063  1.4770  1.4202  1.5097
   77Eth    Hco 2976   0.634   0.611   1.045  1.9951  0.1948 -0.0717
   77Eth     Ch 2977   0.819   0.695   1.117 -0.1972  0.3063  0.2233
   77Eth    Hcc 2978   0.867   0.615   1.174 -1.4747 -0.7626 -0.1657
   77Eth    Hcc 2979   0.856   0.790   1.156 -2.6388  1.1842  0.4880
   77Eth    Hcc 2980   0.865   0.682   1.019  0.0882 -0.8606  0.4976
   78Eth     Ho 2981   0.061   1.604   3.968  0.2352 -1.3521 -0.7764
   78Eth     Oh 2982   0.154   1.611   3.959  0.2329 -0.8795 -0.4475
   78Eth     Co 2983   0.188   1.477   3.933  0.6707 -0.2275  0.4901
   78Eth    Hco 2984   0.291   1.456   3.905  0.7542  0.5025  0.2450
   78Eth    Hco 2985   0.150   1.459   3.833 -1.1498 -1.2479  1.3387
   78Eth     Ch 2986   0.141   1.389   4.053  0.3040  0.3242 -0.1493
   78Eth    Hcc 2987   0.048   1.438   4.080  1.1488  1.8348  0.1239
   78Eth    Hcc 2988   0.211   1.402   4.136 -1.0111  0.0896  0.9966
   78Eth    Hcc 2989   0.121   1.282   4.048 -0.5695  0.5270 -1.2259
   79Eth     Ho 2990   1.668   1.700   1.313 -1.6982  1.1961 -3.1859
   79Eth     Oh 2991   1.747   1.669   1.272 -0.4351 -0.1488  0.0468
   79Eth     Co 2992   1.751   1.723   1.143 -0.0581  0.0469  0.4375
   79Eth    Hco 2993   1.654   1.762   1.114 -1.2945 -1.7122  2.0199
   79Eth    Hco 2994   1.779   1.642   1.075  0.0498 -0.0985  0.6538
   79Eth     Ch 2995   1.850   1.837   1.132  0.0859 -0.5813 -0.6801
   79Eth    Hcc 2996   1.951   1.827   1.172 -0.1544  0.0609  0.1051
   79Eth    Hcc 2997   1.809   1.921   1.189  2.6380  0.4749 -0.3306
   79Eth    Hcc 2998   1.870   1.857   1.026  3.3867 -1.5986 -0.3119
   80Eth     Ho 2999   2.331   1.390   1.225 -2.5215 -3.9271 -1.0315
   80Eth     Oh 3000   2.256   1.444   1.214 -0.2478 -0.3722 -0.1243
   80Eth     Co 3001   2.231   1.447   1.078  1.0486 -0.9078  0.1238
   80Eth    Hco 3002   2.222   1.345   1.042  0.7398 -1.1258  0.8020
   80Eth    Hco 3003   2.313   1.495   1.025 -1.4988 -1.5979 -4.6681
   80Eth     Ch 3004   2.105   1.529   1.072  0.2772  0.2575  0.2891
   80Eth    Hcc 3005   2.029   1.514   1.149  0.1619  2.3353  0.6186
   80Eth    Hcc 3006   2.064   1.526   0.971  1.4156  2.8582 -0.2975
   80Eth    Hcc 3007   2.148   1.629   1.082  2.4958 -0.9874  4.3474
   81Eth     Ho 3008   0.667   2.302   1.367 -0.6032  0.6753  0.3804
   81Eth     Oh 3009   0.602   2.319   1.301 -0.3599 -0.1980 -0.0956
   81Eth     Co 3010   0.670   2.324   1.175 -0.5924  0.0622  0.2418
   81Eth    Hco 3011   0.734   2.238   1.155  0.1661  0.6438  0.1385
   81Eth    Hco 3012   0.736   2.410   1.162 -0.4420 -0.0760  0.0812
   81Eth     Ch 3013   0.562   2.333   1.067  1.0771 -0.2976 -0.7672
   81Eth    Hcc 3014   0.612   2.328   0.970 -0.5666 -0.9687 -1.5908
   81Eth    Hcc 3015   0.528   2.436   1.076  1.2410 -0.3922  1.1019
   81Eth    Hcc 3016   0.495   2.248   1.071 -1.7228  1.8968  3.0723
   82Eth     Ho 3017   1.933   0.136   4.545 -0.6498 -1.5980  1.4170
   82Eth     Oh 3018   1.890   0.195   4.605 -0.7595 -0.0923 -0.0934
   82Eth     Co 3019   1.877   0.155   4.737  0.6266 -0.2903 -0.6167
   82Eth    Hco 3020   1.969   0.097   4.753  0.6017 -0.3016 -0.5148
   82Eth    Hco 3021   1.792   0.087   4.730 -1.3788  2.1519 -0.4271
   82Eth     Ch 3022   1.856   0.272   4.838  0.1474  0.2217  0.3163
   82Eth    Hcc 3023   1.758   0.319   4.835 -0.5092 -1.1570 -0.1391
   82Eth    Hcc 3024   1.926   0.355   4.826  1.8382 -0.8648  2.1094
   82Eth    Hcc 3025   1.878   0.241   4.941  1.8020 -1.6747 -0.5653
   83Eth     Ho 3026   2.388   0.084   4.409  1.1479 -1.0855 -1.6192
   83Eth     Oh 3027   2.360   0.144   4.343 -0.1011  0.3810  0.1906
   83Eth     Co 3028   2.385   0.275   4.388  0.6134  0.0545 -0.7565
   83Eth    Hco 3029   2.493   0.287   4.397  0.7030  0.9692 -2.7953
   83Eth    Hco 3030   2.346   0.288   4.489  0.9380  2.2990 -0.8946
   83Eth     Ch 3031   2.318   0.374   4.292 -0.1506 -0.2918 -0.2921
   83Eth    Hcc 3032   2.335   0.476   4.326  3.3597 -0.5422 -1.1258
   83Eth    Hcc 3033   2.212   0.350   4.282 -0.1463  0.6530 -3.0464
   83Eth    Hcc 3034   2.369   0.367   4.196  0.7398 -1.4517  0.2400
   84Eth     Ho 3035   1.795   0.636   6.627 -0.0073  3.6195 -0.7557
   84Eth     Oh 3036   1.846   0.664   6.701  0.0693  0.3228  0.5182
   84Eth     Co 3037   1.872   0.562   6.791 -0.8712  0.3027 -0.3618
   84Eth    Hco 3038   1.951   0.499   6.750 -0.0540 -0.2763  2.0640
   84Eth    Hco 3039   1.785   0.496   6.799  0.4696 -1.3709  0.8925
   84Eth     Ch 3040   1.907   0.616   6.927 -0.0344  0.1652  0.2263
   84Eth    Hcc 3041   1.856   0.707   6.957 -0.8600 -0.8540  1.9719
   84Eth    Hcc 3042   2.015   0.632   6.919  0.4961 -1.7252  3.0918
   84Eth    Hcc 3043   1.896   0.537   7.002  3.2480  0.8360  1.4810
   85Eth     Ho 3044   1.018   2.444   1.467 -3.4471 -0.7709 -0.9406
   85Eth     Oh 3045   1.051   2.464   1.381 -0.4848 -0.3683  0.2338
   85Eth     Co 3046   0.943   2.528   1.311 -0.2568  0.0227  0.8764
   85Eth    Hco 3047   0.916   2.621   1.361 -2.2709 -0.2160  0.2645
   85Eth    Hco 3048   0.856   2.463   1.322  0.8082 -1.4470  0.7628
   85Eth     Ch 3049   0.998   2.541   1.165  0.1229 -0.1634 -0.8536
   85Eth    Hcc 3050   1.027   2.447   1.119  1.1532  0.8537 -2.3171
   85Eth    Hcc 3051   1.089   2.602   1.164 -0.3144  0.4962 -1.0614
   85Eth    Hcc 3052   0.924   2.577   1.094 -2.4545  2.8355  3.1665
   86Eth     Ho 3053   0.071   2.990   3.916 -1.0618  2.4313 -0.3198
   86Eth     Oh 3054   0.121   3.020   3.991  0.4005 -0.1306 -0.2116
   86Eth     Co 3055   0.176   2.921   4.071  0.2030 -0.4163 -0.2978
   86Eth    Hco 3056   0.273   2.891   4.034 -0.0938 -0.0053 -1.4416
   86Eth    Hco 3057   0.109   2.835   4.072 -1.0206  0.5143  0.0753
   86Eth     Ch 3058   0.181   2.978   4.203  0.7430 -0.0794  0.7042
   86Eth    Hcc 3059   0.250   3.062   4.208  0.6904  0.0985 -1.2004
   86Eth    Hcc 3060   0.223   2.910   4.277  0.6914  0.2664  1.0524
   86Eth    Hcc 3061   0.084   3.009   4.240  1.1825  0.8489  1.1111
   87Eth     Ho 3062   1.266   3.172   6.709 -0.9779 -1.5879 -0.6594
   87Eth     Oh 3063   1.272   3.114   6.782 -0.1567 -0.5920  0.0708
   87Eth     Co 3064   1.324   2.994   6.742 -0.1987 -0.3498  0.5548
   87Eth    Hco 3065   1.428   2.996   6.709 -1.5646  0.9773 -3.9964
   87Eth    Hco 3066   1.259   2.961   6.661  0.2374 -0.7627  0.3675
   87Eth     Ch 3067   1.320   2.890   6.852 -0.2406 -0.2143 -0.0258
   87Eth    Hcc 3068   1.370   2.930   6.939  1.6350 -2.2987 -0.0972
   87Eth    Hcc 3069   1.370   2.799   6.819  0.3409  0.8756 -2.2280
   87Eth    Hcc 3070   1.218   2.858   6.874  0.1747 -0.4915  1.5375
   88Eth     Ho 3071   2.198   0.251   8.438 -0.2222 -0.3026  2.3140
   88Eth     Oh 3072   2.110   0.284   8.437  0.0079  0.3471 -0.4358
   88Eth     Co 3073   2.073   0.292   8.304  0.4288 -0.1260  0.5358
   88Eth    Hco 3074   2.059   0.199   8.248 -1.1190  0.2920  0.2135
   88Eth    Hco 3075   2.138   0.354   8.243  1.4112 -0.4142  1.2791
   88Eth     Ch 3076   1.956   0.375   8.284  0.2247 -0.2056  0.2348
   88Eth    Hcc 3077   1.957   0.469   8.340  0.0701 -0.1898  0.2094
   88Eth    Hcc 3078   1.870   0.315   8.314 -0.6144  0.7778 -0.1993
   88Eth    Hcc 3079   1.947   0.390   8.176  0.1976 -0.0430  0.2596
   89Eth     Ho 3080   1.259   0.530   1.317 -1.2860 -0.8007  1.6637
   89Eth     Oh 3081   1.308   0.454   1.296 -0.1154  0.1858  0.7866
   89Eth     Co 3082   1.360   0.495   1.172  0.1693  0.0075 -0.3392
   89Eth    Hco 3083   1.403   0.591   1.200  1.8020 -0.3930 -1.3785
   89Eth    Hco 3084   1.278   0.501   1.101 -1.4792 -0.7834  1.4418
   89Eth     Ch 3085   1.463   0.389   1.133  0.2082 -0.7787  0.0359
   89Eth    Hcc 3086   1.469   0.367   1.026 -1.4572  1.3062 -0.5251
   89Eth    Hcc 3087   1.431   0.300   1.186  0.1134  0.5569  2.2761
   89Eth    Hcc 3088   1.559   0.420   1.175 -0.5019 -2.6367  3.1596
   90Eth     Ho 3089   2.534   3.088   1.385  1.3796 -2.5798 -2.3868
   90Eth     Oh 3090   2.496   3.140   1.317  0.7275 -0.0967 -0.2155
   90Eth     Co 3091   2.574   3.120   1.198 -0.4410 -0.1035 -0.1122
   90Eth    Hco 3092   2.537   3.040   1.134  0.2516  1.4618 -2.5723
   90Eth    Hco 3093   2.680   3.100   1.212 -0.7497 -1.2401  0.6695
   90Eth     Ch 3094   2.573   3.236   1.100  0.2057  0.1712  0.1625
   90Eth    Hcc 3095   2.659   3.302   1.112  3.0199 -2.9227 -2.0619
   90Eth    Hcc 3096   2.476   3.284   1.090 -1.1632 -2.2671  1.2235
   90Eth    Hcc 3097   2.573   3.192   1.000 -1.7179 -1.8798  1.0081
   91Eth     Ho 3098   0.467   1.013   6.287  1.1749 -0.2981 -1.1997
   91Eth     Oh 3099   0.406   1.072   6.247  0.0827 -0.5167  0.0915
   91Eth     Co 3100   0.469   1.130   6.136 -0.1247 -0.4995 -0.3803
   91Eth    Hco 3101   0.515   1.049   6.078  1.3414 -0.1961  0.3607
   91Eth    Hco 3102   0.543   1.205   6.164 -0.2830  0.1602 -1.6591
   91Eth     Ch 3103   0.371   1.205   6.045 -1.0151  0.0110 -0.5361
   91Eth    Hcc 3104   0.322   1.284   6.102 -2.3427  0.0186 -1.6425
   91Eth    Hcc 3105   0.296   1.137   6.005 -2.3624 -0.7639  3.1319
   91Eth    Hcc 3106   0.414   1.257   5.959 -0.7101  2.6416  1.1480
   92Eth     Ho 3107   2.458   0.959   1.259 -0.6653  2.4585  0.7463
   92Eth     Oh 3108   2.374   0.918   1.261  0.3327  0.3044 -0.1595
   92Eth     Co 3109   2.293   0.951   1.153 -0.9451 -0.0742  0.5941
   92Eth    Hco 3110   2.347   0.923   1.062  0.3452  1.7553  0.7745
   92Eth    Hco 3111   2.282   1.059   1.151 -1.2179 -0.0126  3.1377
   92Eth     Ch 3112   2.163   0.884   1.172 -0.6050 -0.0025 -0.3968
   92Eth    Hcc 3113   2.176   0.775   1.171  1.6522  0.2440 -2.8973
   92Eth    Hcc 3114   2.083   0.916   1.105 -0.1991  1.9581  0.0229
   92Eth    Hcc 3115   2.123   0.893   1.273  0.0800 -2.5972  0.1512
   93Eth     Ho 3116   3.267   1.832   2.680 -0.5297  1.4963  0.7334
   93Eth     Oh 3117   3.196   1.837   2.618  0.4957  0.1540 -0.5655
   93Eth     Co 3118   3.255   1.803   2.495  0.1703 -0.7213 -0.3403
   93Eth    Hco 3119   3.331   1.726   2.510  0.3518 -0.6860 -1.0413
   93Eth    Hco 3120   3.312   1.890   2.465 -0.5308 -0.6350 -1.4453
   93Eth     Ch 3121   3.142   1.772   2.397 -0.0566  0.3565 -0.5144
   93Eth    Hcc 3122   3.172   1.793   2.294  1.5244  0.4745 -0.0445
   93Eth    Hcc 3123   3.067   1.849   2.416  1.2453  1.2366  1.1606
   93Eth    Hcc 3124   3.101   1.672   2.412 -0.1893  0.4861 -0.0125
   94Eth     Ho 3125   0.224   0.212   7.609  0.2710 -0.0543  2.5554
   94Eth     Oh 3126   0.136   0.183   7.627 -0.1238 -0.4462  0.1449
   94Eth     Co 3127   0.046   0.224   7.525  0.0086 -0.8528 -0.1122
   94Eth    Hco 3128  -0.060   0.223   7.548 -0.0465 -0.0847 -0.3338
   94Eth    Hco 3129   0.056   0.160   7.437 -0.2849  0.9150 -1.4781
   94Eth     Ch 3130   0.081   0.363   7.464 -0.2930  0.0303  0.4633
   94Eth    Hcc 3131   0.063   0.442   7.538  1.3994 -0.8835  1.8863
   94Eth    Hcc 3132   0.010   0.382   7.383 -2.6211 -0.2731  2.3772
   94Eth    Hcc 3133   0.182   0.380   7.427  0.2296 -0.9349  1.4399
   95Eth     Ho 3134   2.498   2.661   1.362 -0.2297 -0.4150  0.3659
   95Eth     Oh 3135   2.433   2.636   1.298  0.0805  0.6124 -0.3637
   95Eth     Co 3136   2.448   2.718   1.189  0.0242 -0.0246  0.3681
   95Eth    Hco 3137   2.553   2.716   1.162 -0.1210  2.4590 -0.5200
   95Eth    Hco 3138   2.421   2.817   1.226 -0.6661 -0.2469  0.4750
   95Eth     Ch 3139   2.345   2.699   1.074 -0.2813  0.1348 -0.4723
   95Eth    Hcc 3140   2.354   2.605   1.019  0.1016 -1.7405  2.7271
   95Eth    Hcc 3141   2.366   2.783   1.008 -0.0164  0.3992 -0.0516
   95Eth    Hcc 3142   2.240   2.700   1.102  0.1381 -1.3413  1.2360
   96Eth     Ho 3143   3.114   2.094   8.994 -0.4650  1.0368  1.3810
   96Eth     Oh 3144   3.039   2.126   8.946  0.1996  0.3049 -0.1931
   96Eth     Co 3145   2.927   2.107   9.029  0.1643  0.4631 -0.7214
   96Eth    Hco 3146   2.951   2.112   9.135  1.9947 -1.4540 -1.0185
   96Eth    Hco 3147   2.893   2.004   9.013  1.3765 -0.0259 -0.1457
   96Eth     Ch 3148   2.822   2.214   8.994 -0.6131 -0.7665  0.2308
   96Eth    Hcc 3149   2.866   2.313   9.009  1.9042 -1.7620 -0.3709
   96Eth    Hcc 3150   2.728   2.207   9.049 -0.6474 -0.3454  0.2306
   96Eth    Hcc 3151   2.792   2.207   8.890 -0.2855  0.0447  0.0732
   97Eth     Ho 3152   2.579   2.708   8.783  2.2537 -1.2237  1.3670
   97Eth     Oh 3153   2.541   2.622   8.790 -0.3383 -0.2551  0.0598
   97Eth     Co 3154   2.489   2.614   8.914 -0.8801  0.3416 -0.5167
   97Eth    Hco 3155   2.556   2.580   8.993 -1.6578  0.2632  0.1126
   97Eth    Hco 3156   2.411   2.538   8.905  0.1397 -0.8609  0.7068
   97Eth     Ch 3157   2.415   2.738   8.958  0.0718 -0.2716  0.5562
   97Eth    Hcc 3158   2.369   2.738   9.057 -2.0923  3.5849 -0.3426
   97Eth    Hcc 3159   2.329   2.764   8.896 -0.5308  1.8004  2.1992
   97Eth    Hcc 3160   2.483   2.823   8.958 -1.3819  0.9116  0.3811
   98Eth     Ho 3161   3.258   0.698   5.043 -2.8767  0.0376  1.5517
   98Eth     Oh 3162   3.319   0.690   5.113 -0.4165 -0.5927 -0.5679
   98Eth     Co 3163   3.253   0.723   5.239 -0.1919  0.0576 -0.1558
   98Eth    Hco 3164   3.184   0.646   5.274  1.7145 -0.9689  1.4694
   98Eth    Hco 3165   3.191   0.811   5.224 -0.7850  0.1704  2.6883
   98Eth     Ch 3166   3.354   0.758   5.340  0.1952  0.9034  1.1467
   98Eth    Hcc 3167   3.309   0.772   5.438  0.9909  4.0949  1.1071
   98Eth    Hcc 3168   3.404   0.850   5.309  2.6282 -1.1654 -1.3966
   98Eth    Hcc 3169   3.435   0.684   5.339 -0.3697  0.2784  1.4367
   99Eth     Ho 3170   3.033   2.784   6.768 -0.0277 -0.8126  0.2743
   99Eth     Oh 3171   3.077   2.797   6.850  0.4090 -0.2219 -0.0539
   99Eth     Co 3172   3.031   2.927   6.893  0.3887  0.4490  0.1377
   99Eth    Hco 3173   2.924   2.913   6.905  0.6211 -0.4670  1.1981
   99Eth    Hco 3174   3.052   2.998   6.813  0.5095 -1.0880 -1.2197
   99Eth     Ch 3175   3.089   2.972   7.021 -0.2403 -0.2980  0.5400
   99Eth    Hcc 3176   3.050   2.923   7.110 -0.2897 -1.3559 -0.0489
   99Eth    Hcc 3177   3.084   3.081   7.025 -1.4086 -0.3208  0.0468
   99Eth    Hcc 3178   3.193   2.941   7.023 -0.1790 -0.2023 -0.6506
  100Eth     Ho 3179   0.141   0.292   4.222 -1.5246  1.0609  0.0054
  100Eth     Oh 3180   0.105   0.223   4.274  0.3335  0.2044  0.1717
  100Eth     Co 3181  -0.034   0.221   4.262  0.5164 -0.3469  0.4225
  100Eth    Hco 3182  -0.064   0.185   4.164  1.4776  0.4078 -0.1664
  100Eth    Hco 3183  -0.077   0.321   4.275 -4.3248 -2.2218 -0.3005
  100Eth     Ch 3184  -0.092   0.116   4.360 -0.4676  0.1005  0.0425
  100Eth    Hcc 3185  -0.200   0.114   4.362 -0.4472 -1.9776 -0.4346
  100Eth    Hcc 3186  -0.056   0.146   4.459 -0.4921 -0.4332  0.2104
  100Eth    Hcc 3187  -0.065   0.013   4.340  0.6251  0.3168  0.3589
  101Eth     Ho 3188   1.213   2.684   7.131 -0.8482 -2.6275 -0.6751
  101Eth     Oh 3189   1.295   2.676   7.084 -0.0432  0.9687 -0.1070
  101Eth     Co 3190   1.280   2.559   7.002 -0.1960 -0.3574  0.1388
  101Eth    Hco 3191   1.228   2.570   6.907  0.2500  1.8008  0.1224
  101Eth    Hco 3192   1.237   2.474   7.056 -0.8105  1.6415  2.8959
  101Eth     Ch 3193   1.416   2.509   6.966 -0.0911  0.1481 -0.6576
  101Eth    Hcc 3194   1.477   2.476   7.050  1.8149  0.0487 -2.0467
  101Eth    Hcc 3195   1.476   2.581   6.911  0.6446  0.8983  1.1198
  101Eth    Hcc 3196   1.401   2.420   6.905 -0.0793  0.8837 -1.7551
  102Eth     Ho 3197   2.820   2.711   6.046  0.5279  0.3466 -0.7123
  102Eth     Oh 3198   2.768   2.789   6.048 -0.1070 -0.0833 -0.3246
  102Eth     Co 3199   2.865   2.899   6.027  0.3671 -0.3120  0.2005
  102Eth    Hco 3200   2.931   2.882   5.943 -0.7640  0.7648 -0.9182
  102Eth    Hco 3201   2.932   2.908   6.113  2.0060  1.1096 -1.2000
  102Eth     Ch 3202   2.789   3.031   6.018  0.3311 -0.5632  0.7282
  102Eth    Hcc 3203   2.843   3.099   5.952 -0.9778 -2.3968 -2.3139
  102Eth    Hcc 3204   2.782   3.078   6.117  1.9144  1.2657  0.0140
  102Eth    Hcc 3205   2.695   3.020   5.964  0.3005 -0.2748  0.7173
  103Eth     Ho 3206   3.335   3.187   1.219  0.2839  0.2422 -1.0476
  103Eth     Oh 3207   3.243   3.181   1.239  0.5039 -0.2128 -0.1609
  103Eth     Co 3208   3.173   3.265   1.152 -0.1612 -0.1965  0.1336
  103Eth    Hco 3209   3.153   3.229   1.051  1.3984 -1.1324  0.1465
  103Eth    Hco 3210   3.231   3.357   1.150  0.5834 -0.6733 -0.2923
  103Eth     Ch 3211   3.042   3.295   1.224  0.3209  0.0219 -0.1369
  103Eth    Hcc 3212   3.058   3.313   1.331  0.5832 -2.2587  0.2324
  103Eth    Hcc 3213   2.974   3.210   1.214  1.7243 -1.1360  0.1267
  103Eth    Hcc 3214   2.999   3.383   1.177  0.3412  0.1835  0.1456
  104Eth     Ho 3215   0.848   0.665   3.109 -0.7075  0.0691 -0.8407
  104Eth     Oh 3216   0.879   0.754   3.107 -0.5751  0.0532  0.6113
  104Eth     Co 3217   0.804   0.804   2.995  0.0473 -0.2444  0.9222
  104Eth    Hco 3218   0.706   0.757   3.000  0.0867 -0.3651  0.5450
  104Eth    Hco 3219   0.846   0.758   2.906 -0.5056  0.0297  0.5121
  104Eth     Ch 3220   0.794   0.959   2.993  0.5261 -0.2056 -0.5020
  104Eth    Hcc 3221   0.884   1.018   2.978  0.3747  0.1433 -0.0381
  104Eth    Hcc 3222   0.741   0.994   3.081  0.6568 -1.9380  0.2934
  104Eth    Hcc 3223   0.732   0.995   2.911 -1.1956  1.3112  1.4217
  105Eth     Ho 3224   1.678   2.379   8.792 -0.1903  0.5012 -0.7367
  105Eth     Oh 3225   1.619   2.415   8.856 -0.1984  0.1492 -0.5452
  105Eth     Co 3226   1.689   2.495   8.940  0.2605  0.4724 -0.4388
  105Eth    Hco 3227   1.773   2.534   8.882  0.5020 -0.1302 -0.4970
  105Eth    Hco 3228   1.728   2.440   9.026 -0.3741  1.0554  0.2272
  105Eth     Ch 3229   1.592   2.598   9.009  0.5132  0.3846  0.2217
  105Eth    Hcc 3230   1.520   2.543   9.070 -0.7506  0.6870 -0.9678
  105Eth    Hcc 3231   1.537   2.655   8.935 -1.9446  0.4033  1.9987
  105Eth    Hcc 3232   1.648   2.660   9.080  1.7935  0.1036 -0.5313
  106Eth     Ho 3233   2.988   2.886   1.329  1.0201 -0.7880  0.6761
  106Eth     Oh 3234   2.958   2.815   1.275  0.2602 -0.0529  0.1154
  106Eth     Co 3235   2.983   2.865   1.150  0.3737  0.3254 -0.0238
  106Eth    Hco 3236   3.086   2.840   1.127  0.9058  0.4628  2.1062
  106Eth    Hco 3237   2.976   2.974   1.147  2.9126  0.4937 -0.9304
  106Eth     Ch 3238   2.873   2.809   1.054 -0.5818 -0.8085 -0.3894
  106Eth    Hcc 3239   2.876   2.870   0.963 -3.4364 -1.7058 -1.1378
  106Eth    Hcc 3240   2.774   2.828   1.095 -0.2397 -2.7999  1.4678
  106Eth    Hcc 3241   2.883   2.703   1.032  0.8215 -0.4790 -1.4307
  107Eth     Ho 3242   1.643   1.850   4.567  1.2828 -1.9782 -1.8165
  107Eth     Oh 3243   1.692   1.829   4.645  0.1985 -0.1922 -0.6092
  107Eth     Co 3244   1.687   1.692   4.664 -0.2764 -0.4434  0.3679
  107Eth    Hco 3245   1.709   1.634   4.575 -0.4746  2.0856 -1.3555
  107Eth    Hco 3246   1.589   1.657   4.696 -0.3419 -1.8422 -1.2967
  107Eth     Ch 3247   1.794   1.653   4.768 -0.0182  0.4970 -0.4189
  107Eth    Hcc 3248   1.895   1.690   4.754  0.3024 -0.0590  0.3903
  107Eth    Hcc 3249   1.808   1.545   4.767 -1.2813  0.2935  1.7732
  107Eth    Hcc 3250   1.760   1.681   4.867 -1.3788  1.0321 -1.0158
  108Eth     Ho 3251   0.886   2.681   9.027  0.3909 -0.6427 -0.2977
  108Eth     Oh 3252   0.901   2.764   8.985  0.2569 -0.4009  0.1271
  108Eth     Co 3253   0.844   2.863   9.065  0.3553 -0.3813 -0.2495
  108Eth    Hco 3254   0.903   2.860   9.157  0.9217  1.5754 -0.5277
  108Eth    Hco 3255   0.744   2.832   9.096  1.6973 -0.5665  4.2726
  108Eth     Ch 3256   0.838   3.004   9.010  0.3070  0.1399  0.5428
  108Eth    Hcc 3257   0.811   3.003   8.904  2.8564 -0.5384 -0.1312
  108Eth    Hcc 3258   0.934   3.053   9.024  1.0152 -1.1067  0.1502
  108Eth    Hcc 3259   0.764   3.055   9.071  0.8275 -0.7063  1.9020
  109Eth     Ho 3260   1.608   0.226   5.202 -1.8080  1.9077 -0.1566
  109Eth     Oh 3261   1.636   0.266   5.282 -0.1172  0.1953  0.1548
  109Eth     Co 3262   1.727   0.180   5.352  0.2742 -0.2219 -0.5343
  109Eth    Hco 3263   1.794   0.143   5.275  0.7538  1.5404 -0.9820
  109Eth    Hco 3264   1.671   0.094   5.389  0.1732 -0.7054 -1.8029
  109Eth     Ch 3265   1.803   0.248   5.468  1.0967 -0.2992  0.7319
  109Eth    Hcc 3266   1.845   0.345   5.439  2.6816 -0.4813  2.3782
  109Eth    Hcc 3267   1.878   0.177   5.502 -0.9180 -2.7171  0.2465
  109Eth    Hcc 3268   1.740   0.263   5.556 -0.1262 -1.4534  0.0738
  110Eth     Ho 3269   2.687   2.247   1.390 -0.8581 -1.8637  0.8861
  110Eth     Oh 3270   2.646   2.214   1.312 -0.4810 -0.2849  0.0023
  110Eth     Co 3271   2.557   2.307   1.265  0.8041  0.1224 -0.3545
  110Eth    Hco 3272   2.596   2.404   1.296  0.3675  0.6413 -1.4088
  110Eth    Hco 3273   2.459   2.283   1.306  0.3002  0.3457 -1.4092
  110Eth     Ch 3274   2.553   2.287   1.108 -0.2534 -0.3706  0.1436
  110Eth    Hcc 3275   2.452   2.300   1.068 -0.4650 -0.9936  0.4772
  110Eth    Hcc 3276   2.579   2.186   1.077 -1.7858 -0.2964 -1.5079
  110Eth    Hcc 3277   2.617   2.360   1.059 -2.6012  1.1033 -0.8523
  111Eth     Ho 3278   1.273   3.242   8.766  1.6026  0.2258  2.4405
  111Eth     Oh 3279   1.274   3.152   8.794 -0.4390 -0.5541  0.1741
  111Eth     Co 3280   1.304   3.162   8.936  0.1971 -0.4455 -0.6475
  111Eth    Hco 3281   1.243   3.239   8.982 -0.2545 -1.5330  0.6139
  111Eth    Hco 3282   1.403   3.196   8.966 -0.4216 -0.7972  1.8867
  111Eth     Ch 3283   1.299   3.023   8.993  0.5089 -0.3426 -0.5462
  111Eth    Hcc 3284   1.204   2.974   8.975  0.4991 -1.3600  2.0663
  111Eth    Hcc 3285   1.297   3.033   9.102 -1.5869  0.8446 -0.6713
  111Eth    Hcc 3286   1.385   2.961   8.968  0.1016 -1.0061 -0.3120
  112Eth     Ho 3287   1.498   1.639   6.280  0.8313  1.5649 -0.0955
  112Eth     Oh 3288   1.586   1.605   6.287  0.1114 -0.3000  0.1399
  112Eth     Co 3289   1.590   1.470   6.232  0.0840 -0.2184 -0.5319
  112Eth    Hco 3290   1.573   1.481   6.125  0.3571  0.9394 -0.4696
  112Eth    Hco 3291   1.517   1.400   6.272 -0.0512 -0.2406 -0.8164
  112Eth     Ch 3292   1.728   1.408   6.274 -0.4249  0.0689  0.2729
  112Eth    Hcc 3293   1.761   1.414   6.378  0.6619  0.4412 -0.0874
  112Eth    Hcc 3294   1.801   1.458   6.211  0.5729 -1.1885  0.4192
  112Eth    Hcc 3295   1.725   1.302   6.249  1.7750 -0.0015  0.2341
  113Eth     Ho 3296   2.245   1.737   6.421 -0.1111  0.7313  0.5792
  113Eth     Oh 3297   2.272   1.826   6.405  0.3489  0.5016  0.0457
  113Eth     Co 3298   2.292   1.863   6.534  0.2935  0.3022  0.3920
  113Eth    Hco 3299   2.336   1.785   6.595 -2.0846 -0.0657  1.6874
  113Eth    Hco 3300   2.189   1.887   6.560 -0.5214  0.6695 -2.8853
  113Eth     Ch 3301   2.373   1.990   6.546  0.3709  0.2977 -0.5963
  113Eth    Hcc 3302   2.311   2.063   6.493 -1.3039  0.3217  1.3387
  113Eth    Hcc 3303   2.473   1.984   6.505 -0.1689  0.3569 -1.9465
  113Eth    Hcc 3304   2.392   2.024   6.648  0.2026  1.3973 -0.9209
  114Eth     Ho 3305   3.343   2.051   3.248  1.8435 -0.7541 -1.2985
  114Eth     Oh 3306   3.362   2.142   3.260 -0.0285 -0.4266 -0.5495
  114Eth     Co 3307   3.402   2.190   3.131 -0.0591 -0.0773 -0.2061
  114Eth    Hco 3308   3.320   2.180   3.060  1.2768  0.3679 -1.8431
  114Eth    Hco 3309   3.494   2.135   3.111 -0.4934 -0.9983  0.3088
  114Eth     Ch 3310   3.447   2.338   3.143 -0.3551  0.1292 -0.5506
  114Eth    Hcc 3311   3.373   2.407   3.184  0.1877 -0.2433  1.1013
  114Eth    Hcc 3312   3.467   2.373   3.042  1.5818 -3.6822 -1.5775
  114Eth    Hcc 3313   3.538   2.348   3.201  0.3107 -1.3647 -1.3001
  115Eth     Ho 3314   2.279   0.966   3.467  1.9272 -0.9738 -1.4544
  115Eth     Oh 3315   2.340   0.954   3.537 -0.1401 -0.3718  0.4850
  115Eth     Co 3316   2.390   0.825   3.509  0.2661  0.5182 -0.3399
  115Eth    Hco 3317   2.310   0.775   3.454 -0.7828 -0.6395  2.1805
  115Eth    Hco 3318   2.403   0.767   3.601 -2.4996 -1.2174 -1.0105
  115Eth     Ch 3319   2.520   0.822   3.423 -0.3018  0.0193  0.5235
  115Eth    Hcc 3320   2.513   0.853   3.319  0.3320 -0.7318  0.2455
  115Eth    Hcc 3321   2.553   0.718   3.410 -0.9461 -0.1653  0.3503
  115Eth    Hcc 3322   2.603   0.869   3.475 -0.8332  2.1233 -0.4739
  116Eth     Ho 3323   0.663   1.729   8.712  0.6286 -0.9253 -0.1873
  116Eth     Oh 3324   0.625   1.754   8.630  0.5307 -0.0545  0.1201
  116Eth     Co 3325   0.699   1.862   8.564  0.6052 -0.3280  0.4540
  116Eth    Hco 3326   0.792   1.853   8.620  0.3624  2.4036  1.3902
  116Eth    Hco 3327   0.646   1.953   8.594  2.8918  0.8471  1.0546
  116Eth     Ch 3328   0.704   1.850   8.412 -0.2657 -0.3042  0.1109
  116Eth    Hcc 3329   0.783   1.780   8.384 -1.2519 -1.8061  0.9875
  116Eth    Hcc 3330   0.720   1.947   8.365 -1.3789  0.1358  0.5990
  116Eth    Hcc 3331   0.610   1.809   8.375  0.4981 -2.7196  0.7850
  117Eth     Ho 3332   0.628   0.596   2.347  1.9705 -0.1051  0.0984
  117Eth     Oh 3333   0.632   0.688   2.329  0.9387 -0.1196 -0.2449
  117Eth     Co 3334   0.742   0.716   2.244 -0.2938  0.6764 -0.5626
  117Eth    Hco 3335   0.726   0.659   2.153  1.2538  2.7423 -2.1811
  117Eth    Hco 3336   0.839   0.692   2.289 -0.9896 -0.9226  0.1419
  117Eth     Ch 3337   0.723   0.863   2.197 -0.4381 -0.1737  0.7180
  117Eth    Hcc 3338   0.643   0.865   2.124  0.7169 -1.5298 -0.6032
  117Eth    Hcc 3339   0.809   0.895   2.139 -1.7230  1.1428 -0.4928
  117Eth    Hcc 3340   0.711   0.928   2.284  2.3470  0.2424  0.8458
  118Eth     Ho 3341   3.225   0.561   8.888  0.5587  1.8375  2.8015
  118Eth     Oh 3342   3.134   0.539   8.893  0.7997 -0.2166  0.0271
  118Eth     Co 3343   3.083   0.577   9.025 -0.9293  0.1864 -0.4094
  118Eth    Hco 3344   3.070   0.685   9.036 -2.0152  0.2960 -2.5116
  118Eth    Hco 3345   3.160   0.541   9.093  0.3907 -2.1280 -3.0269
  118Eth     Ch 3346   2.949   0.505   9.029  0.2464  0.1512  0.1268
  118Eth    Hcc 3347   2.880   0.530   8.948  1.5132 -2.2421 -1.7683
  118Eth    Hcc 3348   2.894   0.514   9.123 -0.3829  1.4526 -0.3580
  118Eth    Hcc 3349   2.971   0.398   9.026 -2.5398 -0.4742  0.9784
  119Eth     Ho 3350   3.340   2.198   9.007 -0.9363 -0.1949 -2.8415
  119Eth     Oh 3351   3.304   2.114   9.029  0.2422 -0.0359 -0.1358
  119Eth     Co 3352   3.404   2.010   9.006  0.0857 -0.1704  0.1917
  119Eth    Hco 3353   3.475   2.006   9.088 -1.6933  1.6934  1.8766
  119Eth    Hco 3354   3.452   2.026   8.909  0.5353  0.0204  0.4502
  119Eth     Ch 3355   3.324   1.880   9.001 -0.2444 -0.3633  0.3459
  119Eth    Hcc 3356   3.380   1.788   8.991 -1.0499 -1.1630  2.9252
  119Eth    Hcc 3357   3.276   1.894   8.903  3.1665 -2.0188 -1.6517
  119Eth    Hcc 3358   3.253   1.887   9.083  0.9447 -0.8900  1.4242
  120Eth     Ho 3359   1.850   0.893   1.362  1.2946 -2.8442 -0.8136
  120Eth     Oh 3360   1.778   0.860   1.311 -0.2476 -0.5432 -0.1872
  120Eth     Co 3361   1.825   0.765   1.219  0.0477 -0.1067 -0.9259
  120Eth    Hco 3362   1.776   0.668   1.226 -1.2400  0.6094  0.3401
  120Eth    Hco 3363   1.933   0.752   1.231  0.3319  3.8344  1.9277
  120Eth     Ch 3364   1.795   0.828   1.085 -0.1284  0.1825  0.2207
  120Eth    Hcc 3365   1.840   0.927   1.078 -1.5395  0.7775 -0.7747
  120Eth    Hcc 3366   1.687   0.846   1.079 -0.1868 -0.5101 -1.0777
  120Eth    Hcc 3367   1.833   0.765   1.005 -3.2081 -0.8912 -0.4608
  121Eth     Ho 3368   1.836   2.174   8.235  1.1235 -1.1716  0.1112
  121Eth     Oh 3369   1.877   2.212   8.159  0.0991  0.2923  0.2779
  121Eth     Co 3370   1.787   2.200   8.043 -0.0066 -0.0611 -1.1103
  121Eth    Hco 3371   1.696   2.260   8.053  0.0364 -0.2601  0.6760
  121Eth    Hco 3372   1.747   2.100   8.026  1.7493 -0.7023 -1.5717
  121Eth     Ch 3373   1.863   2.218   7.916 -0.1439 -0.1952 -0.5655
  121Eth    Hcc 3374   1.906   2.318   7.909 -0.2213 -0.1209 -0.0328
  121Eth    Hcc 3375   1.782   2.208   7.843 -1.2930  0.2043  0.6405
  121Eth    Hcc 3376   1.940   2.141   7.908 -0.5918 -0.6599 -0.4202
  122Eth     Ho 3377   0.153   2.687   1.116  0.3983  0.5696 -0.0211
  122Eth     Oh 3378   0.205   2.609   1.122 -0.4773  0.0134  0.5812
  122Eth     Co 3379   0.118   2.514   1.176  0.9831  0.3447 -0.3972
  122Eth    Hco 3380   0.062   2.547   1.263 -0.4898  0.6077 -1.4341
  122Eth    Hco 3381   0.186   2.438   1.215  0.1158 -1.1490 -1.7356
  122Eth     Ch 3382   0.028   2.461   1.066  0.3025 -0.6715 -0.4289
  122Eth    Hcc 3383  -0.064   2.518   1.051 -0.4204 -2.0996 -1.5786
  122Eth    Hcc 3384   0.002   2.358   1.091  0.8652 -1.0655 -1.4021
  122Eth    Hcc 3385   0.084   2.443   0.974  0.5564  1.6869 -0.7795
  123Eth     Ho 3386   2.054   0.998   8.992 -0.1527 -0.2203 -1.1053
  123Eth     Oh 3387   2.147   1.010   8.985  0.0242 -0.6451  0.4119
  123Eth     Co 3388   2.180   1.146   9.000  1.0968  0.0949 -0.2230
  123Eth    Hco 3389   2.146   1.168   9.101  0.5090  0.3866 -0.4836
  123Eth    Hco 3390   2.116   1.207   8.935  1.1309 -1.7981 -2.0772
  123Eth     Ch 3391   2.328   1.177   8.983  0.1561 -0.7119 -0.6459
  123Eth    Hcc 3392   2.389   1.120   9.053  2.3214 -1.2697 -2.9126
  123Eth    Hcc 3393   2.350   1.277   9.019  0.5780 -0.9529 -0.2125
  123Eth    Hcc 3394   2.377   1.156   8.888  0.7776 -1.6777 -0.1303
  124Eth     Ho 3395   1.722   3.272   8.669  1.4572  1.1052 -0.3727
  124Eth     Oh 3396   1.745   3.190   8.709 -0.5509  0.2946 -0.7909
  124Eth     Co 3397   1.628   3.109   8.725  0.0166 -0.4440 -0.0345
  124Eth    Hco 3398   1.596   3.068   8.630  0.0094 -1.1105  0.2560
  124Eth    Hco 3399   1.552   3.177   8.765  1.7082  1.6977 -0.3721
  124Eth     Ch 3400   1.645   2.984   8.814 -0.6301 -0.1526  0.0758
  124Eth    Hcc 3401   1.738   2.939   8.780 -1.0553 -2.2737  1.6168
  124Eth    Hcc 3402   1.563   2.913   8.808  0.0160 -1.0029  1.2032
  124Eth    Hcc 3403   1.656   3.015   8.918  0.9923 -0.2106 -0.0643
  125Eth     Ho 3404   2.047   0.851   5.768  1.0951 -0.2268 -1.3276
  125Eth     Oh 3405   2.038   0.944   5.778  0.4197 -0.3831 -0.3296
  125Eth     Co 3406   2.074   0.980   5.903  0.4239  0.3530 -0.7015
  125Eth    Hco 3407   2.168   0.929   5.926 -0.1827 -1.1253 -1.4314
  125Eth    Hco 3408   1.990   0.950   5.966  0.6608 -1.0991 -1.0532
  125Eth     Ch 3409   2.090   1.130   5.910 -0.1038 -0.1201  0.1300
  125Eth    Hcc 3410   2.140   1.149   6.005  1.8277  1.1296 -1.0858
  125Eth    Hcc 3411   1.992   1.177   5.907  0.3020  0.7772  0.6460
  125Eth    Hcc 3412   2.155   1.162   5.828  0.6890 -0.0176  0.7937
  126Eth     Ho 3413   2.629   2.303   8.191 -1.5259  1.4356  1.3895
  126Eth     Oh 3414   2.576   2.227   8.210  0.0023  0.2361  0.9157
  126Eth     Co 3415   2.569   2.151   8.088 -0.6718  0.5576  0.5868
  126Eth    Hco 3416   2.671   2.126   8.062 -1.3715 -0.9702 -0.7713
  126Eth    Hco 3417   2.519   2.193   8.001  2.2241  2.0064 -0.4127
  126Eth     Ch 3418   2.485   2.020   8.127  0.2404 -0.1771 -0.2878
  126Eth    Hcc 3419   2.506   1.989   8.230 -2.9360  2.0524  1.1178
  126Eth    Hcc 3420   2.511   1.946   8.052 -0.0921 -0.3728 -0.2109
  126Eth    Hcc 3421   2.379   2.038   8.141 -0.0293 -1.0215 -1.2355
  127Eth     Ho 3422   2.688   0.028   8.082  1.6095  2.1116 -0.7208
  127Eth     Oh 3423   2.675   0.064   8.167 -0.0526 -0.0469 -0.0114
  127Eth     Co 3424   2.648  -0.053   8.246 -0.1052  0.0985 -0.4297
  127Eth    Hco 3425   2.709  -0.142   8.233  0.7030  0.5338  0.3127
  127Eth    Hco 3426   2.546  -0.083   8.221  0.5241 -1.8963 -0.6963
  127Eth     Ch 3427   2.646  -0.008   8.394 -0.3925 -0.1127 -0.0593
  127Eth    Hcc 3428   2.637  -0.095   8.459 -1.0011 -0.6305 -0.8387
  127Eth    Hcc 3429   2.555   0.045   8.420 -1.1127 -2.2256  1.8437
  127Eth    Hcc 3430   2.744   0.035   8.420 -0.5311 -1.2239  2.4793
  128Eth     Ho 3431   2.707   0.023   8.849  1.5631  1.8728 -1.4200
  128Eth     Oh 3432   2.688   0.109   8.882  0.1996  0.9415  0.3350
  128Eth     Co 3433   2.678   0.102   9.017  0.0428  0.7354 -0.1662
  128Eth    Hco 3434   2.680   0.206   9.052  0.2556  0.4223  0.7507
  128Eth    Hco 3435   2.772   0.067   9.061  1.2145  1.6349 -1.8675
  128Eth     Ch 3436   2.557   0.015   9.063  0.2619  0.1707 -0.0259
  128Eth    Hcc 3437   2.567  -0.001   9.170 -1.3853 -0.4689  0.0448
  128Eth    Hcc 3438   2.560  -0.085   9.019 -0.7657  0.7700 -1.5196
  128Eth    Hcc 3439   2.459   0.062   9.052 -0.2313 -1.2476 -1.9889
  129Eth     Ho 3440   1.596   2.656   1.194 -0.0544  0.5699 -1.4053
  129Eth     Oh 3441   1.647   2.731   1.221  0.2286 -0.0496 -0.1831
  129Eth     Co 3442   1.791   2.710   1.231 -0.3657  0.6244 -0.2755
  129Eth    Hco 3443   1.817   2.620   1.286 -0.4127  0.3799 -0.6549
  129Eth    Hco 3444   1.846   2.792   1.279 -2.6459  3.7323 -2.7178
  129Eth     Ch 3445   1.869   2.710   1.098 -0.2617  0.1684 -0.3302
  129Eth    Hcc 3446   1.869   2.805   1.043  1.3709 -0.4721 -1.4690
  129Eth    Hcc 3447   1.830   2.637   1.027 -0.2834  0.6156 -0.7876
  129Eth    Hcc 3448   1.977   2.696   1.109 -0.1325  1.2455 -0.1830
  130Eth     Ho 3449   1.808   0.294   1.322 -1.0210 -2.5285  0.5026
  130Eth     Oh 3450   1.829   0.272   1.233 -0.5774  0.4796 -0.1779
  130Eth     Co 3451   1.783   0.140   1.224  0.4950 -0.2090  0.3183
  130Eth    Hco 3452   1.690   0.111   1.274  1.1066 -0.2148  1.4797
  130Eth    Hco 3453   1.861   0.073   1.262  0.0268  0.3594  2.3683
  130Eth     Ch 3454   1.759   0.131   1.072 -0.3301  0.1250  0.5282
  130Eth    Hcc 3455   1.689   0.049   1.053 -0.1574  0.0908  0.0245
  130Eth    Hcc 3456   1.855   0.114   1.022  2.2985  1.4873  4.7864
  130Eth    Hcc 3457   1.702   0.219   1.044 -3.1505 -1.7562  0.1880
  131Eth     Ho 3458   0.798   0.874   8.776  2.7327 -0.9667 -0.1506
  131Eth     Oh 3459   0.769   0.790   8.808  0.1397 -0.1964 -0.3304
  131Eth     Co 3460   0.695   0.818   8.926  0.3291 -0.1019 -0.1869
  131Eth    Hco 3461   0.604   0.873   8.904  1.1201  2.2195  2.1882
  131Eth    Hco 3462   0.755   0.894   8.976 -0.1085  1.7987 -2.4293
  131Eth     Ch 3463   0.691   0.699   9.022 -0.1467 -0.1170 -0.3886
  131Eth    Hcc 3464   0.651   0.724   9.121  0.6984 -0.3316  0.0137
  131Eth    Hcc 3465   0.793   0.662   9.034 -0.6542 -1.2838  0.3522
  131Eth    Hcc 3466   0.637   0.616   8.978 -0.6335  0.6613 -1.2777
  132Eth     Ho 3467   1.863   0.616   2.600  1.9772  1.2420 -0.0565
  132Eth     Oh 3468   1.870   0.594   2.509  0.2159  0.0952  0.0482
  132Eth     Co 3469   1.752   0.559   2.458 -0.1918  0.2519 -0.4973
  132Eth    Hco 3470   1.688   0.647   2.458  1.1625  1.2491  0.2013
  132Eth    Hco 3471   1.702   0.475   2.506  0.6569 -1.4739 -2.5496
  132Eth     Ch 3472   1.765   0.523   2.313 -0.0302 -0.2168 -0.1224
  132Eth    Hcc 3473   1.662   0.494   2.291 -0.0126  1.0234 -1.9123
  132Eth    Hcc 3474   1.829   0.435   2.321  2.3360  1.2502 -1.9361
  132Eth    Hcc 3475   1.801   0.610   2.257 -1.2494 -0.3242 -1.0909
  133Eth     Ho 3476   0.137   1.971   1.245 -0.5880 -1.9795  0.1814
  133Eth     Oh 3477   0.212   1.939   1.199  0.1344  0.1933 -0.2422
  133Eth     Co 3478   0.256   2.025   1.100  0.3045 -0.3451 -0.2255
  133Eth    Hco 3479   0.273   2.126   1.138  0.2551 -0.5306  0.2909
  133Eth    Hco 3480   0.193   2.029   1.011  0.2474 -0.3517 -0.1857
  133Eth     Ch 3481   0.399   1.969   1.071 -0.1157  0.7484  0.3601
  133Eth    Hcc 3482   0.446   2.040   1.002  1.2489  0.5121  1.0380
  133Eth    Hcc 3483   0.400   1.878   1.011 -0.0361  0.3159  1.0187
  133Eth    Hcc 3484   0.455   1.944   1.161 -0.2688  1.2426  0.5920
  134Eth     Ho 3485   2.768   0.747   2.133 -0.0764  0.2629  0.7226
  134Eth     Oh 3486   2.745   0.810   2.067  0.1046  0.0675  0.4710
  134Eth     Co 3487   2.614   0.860   2.086  0.2083  0.5065  0.6714
  134Eth    Hco 3488   2.615   0.918   2.178 -0.4788  2.1176 -0.3162
  134Eth    Hco 3489   2.534   0.786   2.091  1.8340 -1.1858  2.9409
  134Eth     Ch 3490   2.588   0.963   1.965 -0.7465  0.2656 -1.0608
  134Eth    Hcc 3491   2.578   0.898   1.878 -1.2511  2.5199 -2.7221
  134Eth    Hcc 3492   2.673   1.029   1.948  1.5201 -1.8542  1.3990
  134Eth    Hcc 3493   2.495   1.018   1.978 -0.9175 -0.3713  0.4607
  135Eth     Ho 3494   1.027   2.231   1.930  0.7841 -1.2166 -3.2048
  135Eth     Oh 3495   1.099   2.292   1.939 -0.2061 -0.4295 -0.0156
  135Eth     Co 3496   1.102   2.354   2.066  0.5794  0.2581 -0.2690
  135Eth    Hco 3497   1.008   2.409   2.071 -1.2699 -2.5746 -1.9733
  135Eth    Hco 3498   1.096   2.281   2.147  2.3370  0.7371  0.3055
  135Eth     Ch 3499   1.229   2.435   2.076 -0.9732  0.3215 -0.4402
  135Eth    Hcc 3500   1.328   2.389   2.079 -1.6029 -0.9819  3.4913
  135Eth    Hcc 3501   1.240   2.486   2.172 -1.5036 -0.5368  0.0778
  135Eth    Hcc 3502   1.239   2.517   2.004  0.1751 -0.0027 -0.6621
  136Eth     Ho 3503   1.808   1.259   1.495  0.0866 -2.7135 -0.2267
  136Eth     Oh 3504   1.841   1.258   1.407  0.1194 -0.7764 -0.2603
  136Eth     Co 3505   1.726   1.293   1.328 -0.2845  0.1200  0.2161
  136Eth    Hco 3506   1.707   1.390   1.373  1.7378  0.9970 -0.7337
  136Eth    Hco 3507   1.645   1.220   1.331 -0.4612  0.3058 -0.0521
  136Eth     Ch 3508   1.764   1.309   1.176  0.2373  0.2078 -0.8230
  136Eth    Hcc 3509   1.674   1.327   1.118 -2.1722 -1.3441  2.3239
  136Eth    Hcc 3510   1.820   1.223   1.139 -0.5349 -0.5092 -0.3441
  136Eth    Hcc 3511   1.831   1.395   1.167  0.6088 -0.0734 -0.7440
  137Eth     Ho 3512   2.817   0.212   3.290 -2.1919 -0.6949  0.4012
  137Eth     Oh 3513   2.827   0.120   3.270 -0.8008 -0.4806  0.0902
  137Eth     Co 3514   2.803   0.052   3.388 -0.8120  0.3129  0.1366
  137Eth    Hco 3515   2.737   0.124   3.436 -1.2154  0.6804 -0.9432
  137Eth    Hco 3516   2.885   0.049   3.459  1.7897 -0.1748 -2.7785
  137Eth     Ch 3517   2.735  -0.081   3.364  0.3300 -0.0406 -0.1725
  137Eth    Hcc 3518   2.713  -0.131   3.458 -0.8118  1.0461  0.1544
  137Eth    Hcc 3519   2.810  -0.137   3.309  1.4103  0.0811  1.1631
  137Eth    Hcc 3520   2.646  -0.048   3.310 -0.0285 -0.8130 -0.0608
  138Eth     Ho 3521   3.493   2.815   1.390 -2.5347  0.8391  0.5270
  138Eth     Oh 3522   3.467   2.790   1.303  0.1086 -0.1231 -0.0222
  138Eth     Co 3523   3.449   2.894   1.220  0.3792  0.4404 -0.1262
  138Eth    Hco 3524   3.519   2.975   1.240  2.5793 -1.0403 -1.6002
  138Eth    Hco 3525   3.346   2.924   1.242  0.4912  0.0248  1.0091
  138Eth     Ch 3526   3.463   2.836   1.081  0.0433 -0.0798 -0.3144
  138Eth    Hcc 3527   3.457   2.926   1.019 -2.1123  0.7375  1.0168
  138Eth    Hcc 3528   3.384   2.764   1.059  0.9801 -1.6963  1.5185
  138Eth    Hcc 3529   3.555   2.783   1.058 -0.8247 -1.9515  0.4347
  139Eth     Ho 3530   3.216   1.586   8.500 -0.6459 -0.5406  0.4275
  139Eth     Oh 3531   3.212   1.666   8.549 -0.4632 -0.3724  0.1691
  139Eth     Co 3532   3.087   1.645   8.602  0.3347  0.3187 -0.1068
  139Eth    Hco 3533   3.082   1.553   8.659  1.3461  1.1895  1.4455
  139Eth    Hco 3534   3.008   1.637   8.528  1.1720  1.7570 -1.2029
  139Eth     Ch 3535   3.049   1.768   8.691  0.3227  0.2287 -0.7865
  139Eth    Hcc 3536   3.032   1.858   8.633 -0.8337 -1.0436 -2.4936
  139Eth    Hcc 3537   3.116   1.786   8.775 -1.8062  1.6482  0.6645
  139Eth    Hcc 3538   2.952   1.751   8.739  0.8111 -1.3023 -0.3110
  140Eth     Ho 3539   0.868   2.000   1.261  0.2992  1.2176  1.3987
  140Eth     Oh 3540   0.815   1.933   1.300 -0.3350  0.6645 -0.3753
  140Eth     Co 3541   0.770   1.840   1.200 -0.0356  0.4407 -0.1202
  140Eth    Hco 3542   0.856   1.792   1.154 -0.2948  0.7735 -0.9566
  140Eth    Hco 3543   0.720   1.890   1.118  0.8188  1.5248  0.0057
  140Eth     Ch 3544   0.664   1.741   1.254 -0.2457 -0.0406 -0.1579
  140Eth    Hcc 3545   0.700   1.690   1.343  1.4277  0.8518 -0.3093
  140Eth    Hcc 3546   0.641   1.660   1.185 -0.9356 -0.9767  1.1478
  140Eth    Hcc 3547   0.571   1.793   1.279 -0.4700 -0.2959 -0.4548
  141Eth     Ho 3548   3.388   0.675   8.753  2.0441 -0.9240 -0.2894
  141Eth     Oh 3549   3.396   0.635   8.838 -0.2535  0.3291  0.5500
  141Eth     Co 3550   3.436   0.748   8.917 -1.0547  0.2741  0.8398
  141Eth    Hco 3551   3.356   0.822   8.926  0.7914  2.7542 -1.8524
  141Eth    Hco 3552   3.518   0.797   8.863 -1.5292 -1.3167 -1.4023
  141Eth     Ch 3553   3.485   0.700   9.049  0.2128  0.1473  0.7631
  141Eth    Hcc 3554   3.570   0.636   9.025 -1.3806 -1.1902 -1.4697
  141Eth    Hcc 3555   3.415   0.643   9.109 -0.3733 -1.3666 -1.3021
  141Eth    Hcc 3556   3.501   0.788   9.112  4.2746  0.4213 -0.4979
  142Eth     Ho 3557   0.063   2.746   8.953  0.5103 -0.5972 -0.8851
  142Eth     Oh 3558   0.139   2.797   8.972  0.0723  0.0302 -0.8086
  142Eth     Co 3559   0.258   2.729   8.970  0.2503  0.3392  0.2966
  142Eth    Hco 3560   0.263   2.690   8.868  1.0920  0.3909  0.3176
  142Eth    Hco 3561   0.256   2.648   9.044 -2.2691  1.9574  2.0920
  142Eth     Ch 3562   0.377   2.825   8.988  0.1876 -0.0891 -0.0744
  142Eth    Hcc 3563   0.382   2.873   9.086 -0.3145  0.1774 -0.1776
  142Eth    Hcc 3564   0.374   2.912   8.922  1.5319  0.1037  0.1075
  142Eth    Hcc 3565   0.475   2.781   8.974  0.6156  1.0697 -0.7933
  143Eth     Ho 3566   1.135   1.357   5.885  1.2149 -0.0623 -0.1193
  143Eth     Oh 3567   1.156   1.311   5.805 -0.3554  0.0485 -0.6126
  143Eth     Co 3568   1.033   1.251   5.758 -0.3010  0.7151  0.2349
  143Eth    Hco 3569   0.967   1.332   5.728  0.3525  1.1723  0.0327
  143Eth    Hco 3570   0.980   1.197   5.837  2.2710  2.2766  3.1228
  143Eth     Ch 3571   1.047   1.160   5.629  0.3281 -0.4445 -0.4540
  143Eth    Hcc 3572   1.126   1.196   5.563 -0.9714 -0.3498 -1.9706
  143Eth    Hcc 3573   0.952   1.157   5.576  0.4079  0.3873 -0.6418
  143Eth    Hcc 3574   1.063   1.056   5.658 -1.7290 -0.2145  1.6794
  144Eth     Ho 3575   1.161   1.459   5.439  1.6270 -0.3503  0.5247
  144Eth     Oh 3576   1.152   1.412   5.358 -0.1983  0.0639  0.4648
  144Eth     Co 3577   1.020   1.441   5.302 -0.8907  0.5115  0.2560
  144Eth    Hco 3578   0.993   1.544   5.280  1.2977  1.0177 -0.1488
  144Eth    Hco 3579   0.945   1.395   5.368 -1.0572 -0.1027 -0.3496
  144Eth     Ch 3580   1.008   1.366   5.175  0.1830  0.4083  0.2600
  144Eth    Hcc 3581   0.909   1.349   5.133  0.6878 -0.0502 -0.7825
  144Eth    Hcc 3582   1.051   1.266   5.189 -0.9921  0.0226  1.1179
  144Eth    Hcc 3583   1.069   1.408   5.094  2.0864  0.4312  1.6566
  145Eth     Ho 3584   0.228   2.399   2.922  0.6777  0.1184  0.5754
  145Eth     Oh 3585   0.190   2.482   2.903 -0.1687 -0.2598  0.5956
  145Eth     Co 3586   0.270   2.584   2.957 -0.3601 -0.2998  0.0748
  145Eth    Hco 3587   0.379   2.575   2.956 -0.0948  2.3395 -2.4323
  145Eth    Hco 3588   0.247   2.612   3.060 -1.1635  2.0539 -0.7009
  145Eth     Ch 3589   0.249   2.713   2.875 -0.0944 -0.0598  0.0383
  145Eth    Hcc 3590   0.144   2.743   2.873 -0.3477 -0.6597  2.3735
  145Eth    Hcc 3591   0.276   2.705   2.770 -0.4542 -2.1768  0.1008
  145Eth    Hcc 3592   0.298   2.798   2.925 -2.4277  1.6345 -0.4596
  146Eth     Ho 3593   2.280   2.719   6.713 -0.6996 -2.5482  1.3514
  146Eth     Oh 3594   2.343   2.757   6.771 -0.3129 -0.1817 -0.5454
  146Eth     Co 3595   2.385   2.877   6.719 -0.1166  0.0660 -0.0744
  146Eth    Hco 3596   2.308   2.950   6.746  1.7905  2.3043 -0.4858
  146Eth    Hco 3597   2.383   2.857   6.612  0.2430 -2.0493  0.2947
  146Eth     Ch 3598   2.523   2.926   6.775  0.1749  0.4728 -0.2991
  146Eth    Hcc 3599   2.515   2.929   6.884  2.1134  1.0802 -0.1520
  146Eth    Hcc 3600   2.552   3.028   6.746 -1.2771  1.4774  1.6868
  146Eth    Hcc 3601   2.604   2.858   6.749  0.3459  0.8737 -0.8232
  147Eth     Ho 3602   3.524   0.271   1.332 -0.1786  1.5286  1.1359
  147Eth     Oh 3603   3.439   0.270   1.291  0.0680  0.6012  0.6257
  147Eth     Co 3604   3.449   0.239   1.151  0.0155  0.2625 -0.1716
  147Eth    Hco 3605   3.492   0.139   1.139 -1.2341  0.0137 -2.9535
  147Eth    Hco 3606   3.515   0.316   1.111  1.4905  0.0362  1.7938
  147Eth     Ch 3607   3.312   0.250   1.097  0.6499  0.3139  0.0028
  147Eth    Hcc 3608   3.320   0.219   0.993 -0.5480 -1.4047  0.3962
  147Eth    Hcc 3609   3.270   0.350   1.089  0.7642  0.4857  1.4422
  147Eth    Hcc 3610   3.239   0.175   1.129  0.4202  0.7674  0.5592
  148Eth     Ho 3611   1.038   1.306   2.302 -0.1139  2.9869 -1.6688
  148Eth     Oh 3612   0.956   1.312   2.348  0.4629  0.5349 -0.1843
  148Eth     Co 3613   0.957   1.451   2.383 -0.0680 -0.5094  0.5316
  148Eth    Hco 3614   0.923   1.517   2.303  1.3760 -0.0019  0.3212
  148Eth    Hco 3615   1.058   1.475   2.413  0.0441  1.4011 -1.1986
  148Eth     Ch 3616   0.864   1.466   2.499  0.0135 -0.9311 -0.1177
  148Eth    Hcc 3617   0.759   1.451   2.474 -0.5671  0.4445  1.4267
  148Eth    Hcc 3618   0.870   1.569   2.533  1.2537 -0.4040 -1.8795
  148Eth    Hcc 3619   0.882   1.394   2.578  1.6011  0.3367  0.6862
  149Eth     Ho 3620   2.922   1.983   7.138  0.0782 -1.9323 -2.9662
  149Eth     Oh 3621   2.910   1.909   7.195  0.0592  0.6928  0.5293
  149Eth     Co 3622   2.856   1.952   7.320 -0.8126  0.1822  0.1053
  149Eth    Hco 3623   2.757   1.987   7.290 -0.4057  1.3282  0.0537
  149Eth    Hco 3624   2.913   2.042   7.345 -1.4016  1.4930 -3.0990
  149Eth     Ch 3625   2.847   1.842   7.430 -0.0846  0.1309  0.9599
  149Eth    Hcc 3626   2.799   1.750   7.397  1.1591 -0.6406  1.3115
  149Eth    Hcc 3627   2.789   1.887   7.510  1.1155  1.5355  1.0661
  149Eth    Hcc 3628   2.943   1.808   7.467  0.7149  1.3334  0.0557
  150Eth     Ho 3629   0.407   3.270   7.513 -1.7020  0.2465 -0.3228
  150Eth     Oh 3630   0.375   3.183   7.497 -0.5751 -0.2533  0.1210
  150Eth     Co 3631   0.299   3.175   7.382 -0.6610  0.7368  0.4186
  150Eth    Hco 3632   0.284   3.068   7.362  1.3598  0.6211 -0.7276
  150Eth    Hco 3633   0.355   3.203   7.292  1.2274 -1.2486  0.9302
  150Eth     Ch 3634   0.165   3.253   7.407 -0.4651 -0.7587 -0.4601
  150Eth    Hcc 3635   0.104   3.271   7.318 -0.8740 -0.5302 -0.1294
  150Eth    Hcc 3636   0.180   3.351   7.450 -2.9425 -0.9176  0.8414
  150Eth    Hcc 3637   0.105   3.192   7.474 -1.3862  0.1593 -0.4396
  151Eth     Ho 3638   1.783   1.807   8.908 -0.2167  1.3524 -1.2129
  151Eth     Oh 3639   1.832   1.887   8.919  0.2246  0.9319 -0.1035
  151Eth     Co 3640   1.782   1.965   9.025  0.5798  0.8574  0.1092
  151Eth    Hco 3641   1.848   1.947   9.110  0.0977 -0.4435  0.2121
  151Eth    Hco 3642   1.684   1.934   9.061  0.9979 -1.0941 -0.4034
  151Eth     Ch 3643   1.781   2.113   8.980  0.5097  0.2058 -0.4653
  151Eth    Hcc 3644   1.750   2.176   9.063  1.5741  0.7336 -0.4676
  151Eth    Hcc 3645   1.710   2.121   8.897 -1.9309  2.1424  1.7489
  151Eth    Hcc 3646   1.882   2.144   8.953  0.9835 -0.5341  0.4121
  152Sol     OW 3647   0.701   2.621   5.207  0.9083  0.0295  0.1699
  152Sol     HW 3648   0.610   2.616   5.236  1.2896 -1.6181  1.1374
  152Sol     HW 3649   0.702   2.573   5.124  0.5996  1.3597 -0.6095
  152Sol     MW 3650   0.693   2.616   5.202 -0.2631 -0.0996  0.1502
  153Sol     OW 3651   2.975   0.390   5.492  0.0812  0.0727 -0.6028
  153Sol     HW 3652   3.056   0.363   5.535  0.0735  0.2845 -0.4558
  153Sol     HW 3653   2.934   0.308   5.465 -1.0748 -0.2354  1.9037
  153Sol     MW 3654   2.978   0.380   5.494 -0.1036 -0.0081  0.2876
  154Sol     OW 3655   2.542   0.246   5.922 -0.7544  0.6928 -0.0570
  154Sol     HW 3656   2.571   0.337   5.926 -1.9094  1.1993 -2.1483
  154Sol     HW 3657   2.615   0.199   5.882  0.0521  0.5845  1.5125
  154Sol     MW 3658   2.551   0.250   5.919  0.5892 -0.2992 -0.7647
  155Sol     OW 3659   0.015   2.245   4.074  0.1405 -0.2976 -0.1242
  155Sol     HW 3660  -0.062   2.189   4.066  1.1209 -1.5761 -1.1124
  155Sol     HW 3661   0.029   2.255   4.168 -0.5297 -1.0662  0.0572
  155Sol     MW 3662   0.010   2.241   4.081 -0.4556 -0.0381  0.1585
  156Sol     OW 3663   1.336   0.534   2.618 -0.6460  0.1131 -0.0555
  156Sol     HW 3664   1.346   0.511   2.525 -0.5848  0.3115 -0.0985
  156Sol     HW 3665   1.422   0.567   2.644 -0.4698 -0.5965  0.2582
  156Sol     MW 3666   1.345   0.535   2.612 -0.0338 -0.0040 -0.5084
  157Sol     OW 3667   1.742   3.241   7.888 -0.1880  0.1718  0.3458
  157Sol     HW 3668   1.668   3.295   7.862 -0.6851 -0.2820  0.8136
  157Sol     HW 3669   1.806   3.252   7.817 -0.4299  1.0791  0.2661
  157Sol     MW 3670   1.741   3.247   7.879  0.5226  0.0119 -0.9264
  158Sol     OW 3671   3.041   2.371   7.788  0.0672  0.2838 -0.3300
  158Sol     HW 3672   3.077   2.447   7.743 -1.1062  1.9276  1.4134
  158Sol     HW 3673   3.107   2.348   7.853 -0.9687  1.8794  1.3329
  158Sol     MW 3674   3.050   2.376   7.790  0.7715  0.3895  0.3735
  159Sol     OW 3675   2.502   2.527   7.115  0.7211 -0.1500  0.2864
  159Sol     HW 3676   2.502   2.483   7.200  0.6104  0.1435  0.4391
  159Sol     HW 3677   2.475   2.617   7.134  2.2158  0.3464  0.1632
  159Sol     MW 3678   2.500   2.531   7.124  0.2752  0.2490 -0.5434
  160Sol     OW 3679   2.059   1.672   5.168 -0.0934 -0.0883  0.5488
  160Sol     HW 3680   2.108   1.592   5.188  1.1794  0.0783 -1.6437
  160Sol     HW 3681   2.104   1.741   5.219  1.8093 -0.0014 -1.1656
  160Sol     MW 3682   2.068   1.671   5.174  0.5215 -0.2462 -0.2149
  161Sol     OW 3683   0.220   0.289   8.233 -0.5149 -0.1570  0.3554
  161Sol     HW 3684   0.151   0.344   8.196 -0.9817  0.1857  1.7134
  161Sol     HW 3685   0.229   0.217   8.170  0.0642  1.4189 -1.3987
  161Sol     MW 3686   0.215   0.287   8.224 -0.1067 -0.2387  0.5768
  162Sol     OW 3687   2.152   3.274   5.885 -0.0357 -0.4140  0.5844
  162Sol     HW 3688   2.123   3.340   5.947 -3.1054 -0.4308 -0.7638
  162Sol     HW 3689   2.130   3.190   5.926  0.0448 -0.4821  0.4908
  162Sol     MW 3690   2.148   3.272   5.894  0.0555 -0.0737 -0.4034
  163Sol     OW 3691   0.593   1.090   3.597 -0.2841  0.5879 -0.0945
  163Sol     HW 3692   0.617   1.125   3.512  0.3083 -1.4268 -0.7834
  163Sol     HW 3693   0.578   0.996   3.582  0.6469  0.0270  2.1483
  163Sol     MW 3694   0.594   1.085   3.588  0.1331  0.3295 -0.4845
  164Sol     OW 3695   3.024   2.210   3.130 -0.3891  0.5626 -0.3443
  164Sol     HW 3696   3.073   2.287   3.162  1.1757 -1.0268  1.2091
  164Sol     HW 3697   3.053   2.200   3.039 -0.9276  2.0312 -0.7022
  164Sol     MW 3698   3.031   2.216   3.124 -0.1443  0.6374 -0.6017
  165Sol     OW 3699   3.414   0.742   8.597 -0.1987  0.4076 -0.1382
  165Sol     HW 3700   3.485   0.805   8.607 -0.8399  0.9247  1.3476
  165Sol     HW 3701   3.357   0.780   8.531 -0.0961  0.9268  0.0696
  165Sol     MW 3702   3.415   0.751   8.592  0.1567  0.3296 -0.5933
  166Sol     OW 3703   2.633   3.159   1.654  0.0046 -0.2872 -0.3075
  166Sol     HW 3704   2.709   3.106   1.628 -0.6738 -1.6054  0.3702
  166Sol     HW 3705   2.578   3.100   1.705 -1.1741  0.8445 -0.2311
  166Sol     MW 3706   2.635   3.149   1.656  0.5204  0.3966 -0.2850
  167Sol     OW 3707   1.613   1.291   6.957 -0.6104 -0.0657  0.7020
  167Sol     HW 3708   1.679   1.250   6.901 -0.8684 -1.5818  1.4785
  167Sol     HW 3709   1.597   1.377   6.917  0.5210 -0.4040 -0.5013
  167Sol     MW 3710   1.617   1.295   6.949  0.4708  0.0312  0.2423
  168Sol     OW 3711   1.501   1.224   2.143  0.0318  0.2358 -0.5070
  168Sol     HW 3712   1.504   1.177   2.059 -1.6887 -0.5072 -0.1765
  168Sol     HW 3713   1.525   1.159   2.208 -0.7216  0.2496 -0.2120
  168Sol     MW 3714   1.504   1.214   2.141  0.5543  0.3029 -0.2877
  169Sol     OW 3715   2.402   2.968   6.004 -0.2011  0.1058  0.0658
  169Sol     HW 3716   2.405   2.980   6.099 -0.3208 -0.7422  0.1810
  169Sol     HW 3717   2.478   2.912   5.985 -1.7862 -2.0739  0.0237
  169Sol     MW 3718   2.409   2.964   6.011 -0.3738  0.2182 -0.6436
  170Sol     OW 3719   2.365   0.883   7.335 -0.0133 -0.4910  0.5443
  170Sol     HW 3720   2.330   0.971   7.344 -2.0669 -1.1193 -0.9967
  170Sol     HW 3721   2.417   0.886   7.255 -0.1356 -0.7045  0.4575
  170Sol     MW 3722   2.367   0.891   7.329 -0.8216  0.2477  0.2057
  171Sol     OW 3723   0.251   0.119   1.190  0.4728  0.2590  0.2536
  171Sol     HW 3724   0.333   0.105   1.237  0.9151  0.8161 -0.3429
  171Sol     HW 3725   0.212   0.032   1.183  0.6906  0.0859  1.1112
  171Sol     MW 3726   0.255   0.110   1.194  0.3715 -0.0198 -0.1920
  172Sol     OW 3727   1.218   0.868   2.789 -0.2063 -0.5409 -0.1262
  172Sol     HW 3728   1.196   0.962   2.785  1.7901 -0.0451  0.0679
  172Sol     HW 3729   1.217   0.848   2.882  0.0228 -0.5523 -0.1271
  172Sol     MW 3730   1.216   0.875   2.797 -0.5040  0.6572  0.7441
  173Sol     OW 3731   3.515   0.492   5.115 -0.2120  0.0882 -0.2615
  173Sol     HW 3732   3.448   0.560   5.116  1.4840  1.7940  0.0702
  173Sol     HW 3733   3.583   0.524   5.173 -0.4170 -3.0295  1.7994
  173Sol     MW 3734   3.515   0.501   5.120  0.6412  0.4902  1.0182
  174Sol     OW 3735   1.969   0.455   5.696  0.0144  0.3025 -0.7737
  174Sol     HW 3736   2.001   0.501   5.774  2.4500 -0.5309 -1.2397
  174Sol     HW 3737   1.992   0.512   5.623  1.1492 -0.6298 -1.1711
  174Sol     MW 3738   1.974   0.464   5.697 -0.3065  1.1283 -0.0623
  175Sol     OW 3739   1.068   0.676   3.896 -0.0235  0.3495  0.6091
  175Sol     HW 3740   1.035   0.760   3.863  2.4911  1.0963 -0.2062
  175Sol     HW 3741   1.028   0.610   3.839  1.4067  1.3685 -1.6737
  175Sol     MW 3742   1.062   0.678   3.888 -0.1416  0.1642 -0.5902
  176Sol     OW 3743   0.262   3.368   6.901 -0.1417  0.3636  0.4530
  176Sol     HW 3744   0.352   3.393   6.922  0.2259  0.0139 -0.6980
  176Sol     HW 3745   0.231   3.436   6.841 -0.0092 -0.5232 -0.6372
  176Sol     MW 3746   0.267   3.376   6.898  0.2671 -0.6936  0.0912
  177Sol     OW 3747   3.247   2.316   7.951 -0.3925  0.1514 -1.0455
  177Sol     HW 3748   3.314   2.371   7.910 -0.7916  1.0869 -0.4857
  177Sol     HW 3749   3.253   2.339   8.044 -0.1006 -1.2748 -0.6990
  177Sol     MW 3750   3.254   2.323   7.956 -0.4635 -0.1789  0.0259
  178Sol     OW 3751   1.729   1.359   2.458  0.4012  0.3619  0.2259
  178Sol     HW 3752   1.818   1.334   2.480  0.5962  1.7918  1.1351
  178Sol     HW 3753   1.676   1.281   2.475  1.6845 -0.9955 -1.8130
  178Sol     MW 3754   1.732   1.350   2.461 -0.3268 -0.0556  0.1382
  179Sol     OW 3755   1.714   3.395   2.123 -0.1980  0.0868  0.0752
  179Sol     HW 3756   1.630   3.431   2.151  0.2037  1.2500 -0.1799
  179Sol     HW 3757   1.707   3.302   2.141 -2.0569 -0.0407 -1.2007
  179Sol     MW 3758   1.706   3.390   2.127 -0.1778  0.8136  0.6274
  180Sol     OW 3759   0.839   2.385   6.656  0.0290 -0.5130  0.3551
  180Sol     HW 3760   0.794   2.301   6.648 -0.8156 -0.2056  1.8055
  180Sol     HW 3761   0.810   2.420   6.740  1.6952  0.4461  0.5490
  180Sol     MW 3762   0.833   2.380   6.663  0.2573 -0.2883  0.0223
  181Sol     OW 3763   0.256   3.301   2.882 -0.4490  0.1009 -0.2485
  181Sol     HW 3764   0.248   3.214   2.921 -0.4185  0.2867  0.1738
  181Sol     HW 3765   0.184   3.351   2.920  0.7325  0.8414  1.0758
  181Sol     MW 3766   0.249   3.298   2.889  0.3195 -0.1939 -0.2661
  182Sol     OW 3767   0.962   0.983   8.038  0.3939 -0.0010 -0.2160
  182Sol     HW 3768   0.924   1.046   7.977  1.8981  2.0970  0.9299
  182Sol     HW 3769   0.906   0.988   8.116  0.8886  0.4405  0.1196
  182Sol     MW 3770   0.954   0.989   8.040  0.0965 -0.9863 -0.4267
  183Sol     OW 3771   1.431   2.788   2.243  0.1477 -0.0371 -0.2029
  183Sol     HW 3772   1.510   2.744   2.212  0.7870 -0.4597  1.9605
  183Sol     HW 3773   1.410   2.850   2.173  1.4150 -1.0843 -1.5672
  183Sol     MW 3774   1.436   2.789   2.234  0.5353  0.0523  0.3767
  184Sol     OW 3775   1.293   1.716   6.381 -0.2928  0.3089  0.4855
  184Sol     HW 3776   1.305   1.787   6.444 -1.1828 -0.3069  1.3631
  184Sol     HW 3777   1.263   1.760   6.301 -0.4428  0.9543  0.8975
  184Sol     MW 3778   1.291   1.726   6.379  0.1653 -0.0988 -0.3249
  185Sol     OW 3779   2.198   2.706   5.427 -0.3726 -0.1047  0.0718
  185Sol     HW 3780   2.238   2.715   5.514  1.8575 -0.3137 -0.8876
  185Sol     HW 3781   2.221   2.787   5.382  1.3071 -1.3609 -1.3997
  185Sol     MW 3782   2.204   2.714   5.430 -0.6235  0.4021 -0.3648
  186Sol     OW 3783   0.818   3.245   7.489 -0.3541  0.3145  0.6455
  186Sol     HW 3784   0.737   3.194   7.496 -1.0242  0.9476 -1.9362
  186Sol     HW 3785   0.856   3.241   7.576 -2.1137 -1.7490  1.3708
  186Sol     MW 3786   0.814   3.240   7.497 -0.1042  0.3322 -0.2221
  187Sol     OW 3787   0.165   2.050   3.897 -0.6570 -0.5499  0.0826
  187Sol     HW 3788   0.121   2.126   3.936 -3.0699 -1.5513 -0.5857
  187Sol     HW 3789   0.187   1.994   3.971 -1.7204 -0.6352  0.3469
  187Sol     MW 3790   0.163   2.052   3.907  0.3633 -0.2364  0.2485
  188Sol     OW 3791   0.021   2.979   2.462 -0.0688 -0.2325  0.1011
  188Sol     HW 3792   0.027   2.886   2.485 -1.0003 -0.2904  0.1218
  188Sol     HW 3793  -0.028   3.019   2.533 -2.7797 -0.3786 -1.6214
  188Sol     MW 3794   0.017   2.974   2.470  0.1010 -0.1249  0.0309
  189Sol     OW 3795   2.939   3.142   7.884  0.5405  0.0361 -0.1672
  189Sol     HW 3796   2.991   3.087   7.942  0.3639  0.0221 -0.0230
  189Sol     HW 3797   2.991   3.148   7.804  0.6358 -0.2014 -0.1220
  189Sol     MW 3798   2.948   3.138   7.882 -0.4620 -0.1149 -0.5893
  190Sol     OW 3799   0.441   0.850   3.909  0.0584  0.3057  0.2650
  190Sol     HW 3800   0.532   0.833   3.932 -0.0222  0.2586  0.5551
  190Sol     HW 3801   0.437   0.838   3.814  0.4103  0.5717  0.2197
  190Sol     MW 3802   0.449   0.847   3.903 -0.1600 -0.5848  0.1753
  191Sol     OW 3803   2.831   0.220   4.701 -0.1383  0.4063  0.1135
  191Sol     HW 3804   2.922   0.234   4.675 -0.4125  0.3496 -0.8870
  191Sol     HW 3805   2.790   0.180   4.625 -0.4176 -1.8574  1.4035
  191Sol     MW 3806   2.835   0.218   4.692  0.0013  0.0747  0.0970
  192Sol     OW 3807   0.198   0.581   5.963 -0.5482 -0.0206  0.3338
  192Sol     HW 3808   0.231   0.506   5.914 -0.9006 -0.5695  0.9318
  192Sol     HW 3809   0.267   0.648   5.954 -0.6411 -0.0839 -0.9592
  192Sol     MW 3810   0.208   0.580   5.958  0.3154 -0.4404  0.0259
  193Sol     OW 3811   0.338   1.525   3.645 -0.0732 -0.0507  0.3089
  193Sol     HW 3812   0.386   1.584   3.703  0.0406 -0.1323  0.2971
  193Sol     HW 3813   0.352   1.438   3.681 -0.3567 -0.0570  0.4078
  193Sol     MW 3814   0.343   1.523   3.653 -0.6327 -0.1890 -0.3166
  194Sol     OW 3815   0.934   0.183   1.480  0.4653 -0.6747 -0.4260
  194Sol     HW 3816   0.981   0.255   1.438  2.5822 -1.6761  0.2030
  194Sol     HW 3817   0.944   0.109   1.419 -3.0319 -0.0895 -1.8461
  194Sol     MW 3818   0.939   0.183   1.470  0.2160 -0.1442 -0.4429
  195Sol     OW 3819   3.315   2.182   7.014 -0.3702 -0.1251  0.2480
  195Sol     HW 3820   3.407   2.204   7.030 -0.7438  0.6152  1.5041
  195Sol     HW 3821   3.317   2.094   6.977  0.8550 -0.0069 -0.0050
  195Sol     MW 3822   3.323   2.176   7.012  0.4730 -0.6649  0.1167
  196Sol     OW 3823   2.195   0.199   6.240 -0.3604 -0.1537  0.2728
  196Sol     HW 3824   2.161   0.245   6.316  1.4175  0.3103  0.8095
  196Sol     HW 3825   2.117   0.176   6.189 -1.4536  0.9061  1.4342
  196Sol     MW 3826   2.185   0.201   6.242  0.2470 -0.1496 -0.1017
  197Sol     OW 3827   2.625   2.800   5.072 -0.1356  0.2137  0.9405
  197Sol     HW 3828   2.692   2.794   5.004 -0.5961  0.5379  0.4664
  197Sol     HW 3829   2.599   2.709   5.088  0.1268  0.1200  0.8496
  197Sol     MW 3830   2.629   2.791   5.068 -0.0954 -0.3651 -0.2720
  198Sol     OW 3831   1.371   1.584   4.317 -0.2675  0.1351 -0.1286
  198Sol     HW 3832   1.464   1.606   4.324 -0.4109  1.1782 -1.1977
  198Sol     HW 3833   1.370   1.496   4.279  0.2823  0.3136 -0.5729
  198Sol     MW 3834   1.379   1.578   4.314 -0.1134 -0.1399  0.2862
  199Sol     OW 3835   2.370   0.570   8.477 -0.1939 -0.4378  0.3292
  199Sol     HW 3836   2.375   0.610   8.564 -1.5457 -2.0266  1.1662
  199Sol     HW 3837   2.311   0.628   8.428  1.1084  0.8419  0.2161
  199Sol     MW 3838   2.365   0.579   8.480 -0.0352  0.7550 -0.0185
  200Sol     OW 3839   3.410   0.817   2.623 -0.4962  0.5754 -0.6049
  200Sol     HW 3840   3.347   0.747   2.634  0.8266 -0.2276  2.6001
  200Sol     HW 3841   3.357   0.897   2.617 -1.9100 -0.4280 -1.7316
  200Sol     MW 3842   3.400   0.818   2.623 -0.0976  0.3147  0.1963
  201Sol     OW 3843   0.041   2.855   5.106  0.1978 -0.2743  0.2672
  201Sol     HW 3844   0.076   2.815   5.027 -1.3731 -1.3339  0.0826
  201Sol     HW 3845  -0.014   2.926   5.075 -1.7393 -1.7177  0.2876
  201Sol     MW 3846   0.040   2.857   5.096  0.2387  0.2299 -0.2459
  202Sol     OW 3847   0.627   3.352   6.683  0.5283  0.2256 -0.0995
  202Sol     HW 3848   0.585   3.300   6.615  2.6436  0.1173 -1.3623
  202Sol     HW 3849   0.570   3.428   6.694  0.6927  0.7854 -2.7829
  202Sol     MW 3850   0.618   3.354   6.678 -0.0635  0.9882  0.1108
  203Sol     OW 3851   3.045   0.441   5.127 -0.7258 -0.2208 -0.5127
  203Sol     HW 3852   3.012   0.417   5.041 -3.1660 -0.0914  0.3493
  203Sol     HW 3853   3.010   0.529   5.143  0.0417 -0.0805  0.4288
  203Sol     MW 3854   3.039   0.446   5.121 -0.2974  0.1679 -0.0085
  204Sol     OW 3855   2.338   3.087   8.802 -0.3887  0.1878 -0.2416
  204Sol     HW 3856   2.243   3.081   8.810 -0.6381  0.7824 -2.4472
  204Sol     HW 3857   2.368   2.997   8.797 -0.7224 -0.0348  1.3571
  204Sol     MW 3858   2.332   3.079   8.802 -0.1738 -0.8899  0.1604
  205Sol     OW 3859   3.056   2.232   4.876  0.2863 -0.5403 -0.3178
  205Sol     HW 3860   3.006   2.217   4.956  0.0774 -0.3482 -0.4150
  205Sol     HW 3861   3.065   2.327   4.870 -2.1252 -0.3842 -2.0175
  205Sol     MW 3862   3.053   2.239   4.882 -0.7903 -0.4704 -0.6958
  206Sol     OW 3863   1.394   0.930   6.635 -0.0316 -0.2772  0.3886
  206Sol     HW 3864   1.453   0.996   6.597 -0.8053  1.6779  2.4591
  206Sol     HW 3865   1.308   0.950   6.598 -0.1120 -0.6056  0.4001
  206Sol     MW 3866   1.392   0.938   6.629  0.7921 -0.3421 -0.3091
  207Sol     OW 3867   2.508   2.888   7.786  0.3869 -0.2862 -0.0688
  207Sol     HW 3868   2.557   2.953   7.735  1.0210 -1.0220 -0.4092
  207Sol     HW 3869   2.574   2.824   7.813 -0.4030 -1.3317 -0.5942
  207Sol     MW 3870   2.519   2.888   7.784  0.2284  0.0334  0.1633
  208Sol     OW 3871   2.746   1.846   3.174 -0.0263  0.3996 -0.5320
  208Sol     HW 3872   2.814   1.914   3.169  0.1372  0.2505 -0.3609
  208Sol     HW 3873   2.664   1.893   3.164 -0.0842  0.9857  2.1667
  208Sol     MW 3874   2.745   1.856   3.173 -0.5251  0.0534  0.3055
  209Sol     OW 3875   1.539   1.798   1.405  0.3829  0.5580  0.4358
  209Sol     HW 3876   1.583   1.817   1.487  0.5921 -1.0456  0.7057
  209Sol     HW 3877   1.463   1.857   1.404  0.5894  0.8441  1.6012
  209Sol     MW 3878   1.536   1.805   1.412 -0.0913  0.0521 -0.2338
  210Sol     OW 3879   2.496   0.170   7.231 -0.0323  0.1729  0.7449
  210Sol     HW 3880   2.408   0.183   7.267 -0.1096 -1.5759  1.2386
  210Sol     HW 3881   2.511   0.247   7.176 -3.0205 -0.8160 -1.6420
  210Sol     MW 3882   2.489   0.178   7.229 -0.1310  0.7440 -0.7200
  211Sol     OW 3883   0.384   1.744   1.927  0.1045  0.3742 -0.0991
  211Sol     HW 3884   0.337   1.729   1.845 -0.9119 -0.8723  0.6883
  211Sol     HW 3885   0.400   1.656   1.962  1.2563  0.8597  0.6350
  211Sol     MW 3886   0.381   1.735   1.923 -0.2138  0.1451  0.2646
  212Sol     OW 3887   0.229   3.044   2.987  0.2646  0.4756  0.3906
  212Sol     HW 3888   0.266   3.020   3.072  0.4660 -0.3010  0.0892
  212Sol     HW 3889   0.297   3.018   2.924 -0.2173  0.3169 -0.0608
  212Sol     MW 3890   0.239   3.039   2.989  0.1425  0.3027  0.5526
  213Sol     OW 3891   1.918   2.847   2.799 -0.3526  0.8025  0.0340
  213Sol     HW 3892   1.943   2.925   2.849  2.3811  0.2532 -0.3831
  213Sol     HW 3893   1.889   2.784   2.866  1.4821  0.7239  0.7750
  213Sol     MW 3894   1.917   2.848   2.809 -0.5430  0.1913  0.1922
  214Sol     OW 3895   3.068   0.013   7.552 -0.2860  0.3421  0.3185
  214Sol     HW 3896   3.064  -0.083   7.556 -0.8078  0.3218 -0.7635
  214Sol     HW 3897   2.978   0.041   7.535 -0.0335  1.0051  0.0609
  214Sol     MW 3898   3.060   0.007   7.551 -0.0135  0.1901 -0.2172
  215Sol     OW 3899   1.904   2.984   2.516 -0.1529 -0.1542  0.3693
  215Sol     HW 3900   1.936   2.970   2.605 -0.0739 -0.2918  0.3184
  215Sol     HW 3901   1.968   3.043   2.477  0.4020 -0.9704  0.0483
  215Sol     MW 3902   1.912   2.988   2.521 -0.0266  0.2829  0.6717
  216Sol     OW 3903   0.416   0.771   1.500  0.0127  0.4711 -0.0650
  216Sol     HW 3904   0.446   0.764   1.409 -0.7954  1.3934 -0.4059
  216Sol     HW 3905   0.320   0.769   1.494 -0.0950 -4.0693  1.1303
  216Sol     MW 3906   0.410   0.770   1.491  0.6393  0.4360 -0.0002
  217Sol     OW 3907   1.236   1.426   3.491  0.1884 -0.1247  0.3694
  217Sol     HW 3908   1.204   1.508   3.451  0.4222 -0.7813 -1.2057
  217Sol     HW 3909   1.315   1.404   3.440  0.5977 -0.8879  1.3252
  217Sol     MW 3910   1.240   1.432   3.483  0.3907  0.1944 -0.0732
  218Sol     OW 3911   2.563   0.571   7.296  0.6647 -0.6761  0.7430
  218Sol     HW 3912   2.634   0.556   7.359  2.0298  1.5014 -0.2140
  218Sol     HW 3913   2.563   0.494   7.240  1.3707 -1.3097  1.5994
  218Sol     MW 3914   2.569   0.563   7.297  0.5227  0.4223 -0.9534
  219Sol     OW 3915   0.960   2.487   5.093  0.1594 -0.0662  0.4017
  219Sol     HW 3916   0.953   2.526   5.180 -1.2923 -0.4457  0.4774
  219Sol     HW 3917   0.935   2.557   5.033 -1.9158 -0.6630  0.5060
  219Sol     MW 3918   0.957   2.496   5.095 -0.2435 -0.5756  0.6104
  220Sol     OW 3919   2.998   2.071   3.509  0.1321 -0.3937 -0.6345
  220Sol     HW 3920   2.932   2.087   3.443 -0.6110 -0.8466  0.0000
  220Sol     HW 3921   3.044   2.155   3.517 -1.5860  0.4719  0.2672
  220Sol     MW 3922   2.997   2.080   3.504  0.1926  0.2576  0.2131
  221Sol     OW 3923   1.774   2.629   7.044 -0.8704 -0.2090 -0.0948
  221Sol     HW 3924   1.827   2.624   6.965  0.0182  1.5981  0.3641
  221Sol     HW 3925   1.798   2.551   7.095  0.2538 -0.1703 -0.5629
  221Sol     MW 3926   1.781   2.622   7.042 -0.0157 -0.1064 -0.4549
  222Sol     OW 3927   2.452   3.131   7.043 -0.1752 -0.5181  0.4265
  222Sol     HW 3928   2.512   3.064   7.076  0.0373 -0.1587  0.7726
  222Sol     HW 3929   2.365   3.095   7.057 -0.0641 -0.6613  0.7426
  222Sol     MW 3930   2.450   3.122   7.047 -0.5428  0.0090 -0.1082
  223Sol     OW 3931   2.746   1.343   6.586  0.3689 -0.0590  0.0429
  223Sol     HW 3932   2.718   1.291   6.511 -0.1601 -0.5613  0.5896
  223Sol     HW 3933   2.665   1.378   6.623  0.6169  0.0027  0.5200
  223Sol     MW 3934   2.737   1.342   6.582  0.0210  0.0064 -0.6376
  224Sol     OW 3935   1.487   1.380   6.605  0.7715 -0.3700 -0.4989
  224Sol     HW 3936   1.548   1.444   6.641 -1.0770 -0.0078  2.1615
  224Sol     HW 3937   1.413   1.432   6.573  0.3795 -0.9949 -0.6307
  224Sol     MW 3938   1.485   1.390   6.605 -0.2516 -0.3676  0.1513
  225Sol     OW 3939   3.207   2.875   6.041 -0.3108  0.1458 -0.4230
  225Sol     HW 3940   3.153   2.823   6.100 -0.2121 -1.9317 -2.0716
  225Sol     HW 3941   3.275   2.913   6.096 -0.8313 -0.8804  0.9394
  225Sol     MW 3942   3.208   2.874   6.051 -0.2572 -0.2666 -0.5065
  226Sol     OW 3943   0.337   2.348   4.476  0.6434 -0.0393  0.7037
  226Sol     HW 3944   0.326   2.332   4.383 -0.7228 -0.3952  0.9136
  226Sol     HW 3945   0.419   2.397   4.483  0.9804 -0.4001 -0.6340
  226Sol     MW 3946   0.343   2.351   4.469 -0.3830 -0.0458  0.3974
  227Sol     OW 3947   2.034   3.007   1.561  0.5697 -0.0020 -0.1131
  227Sol     HW 3948   1.959   2.948   1.561  0.3798  0.2370 -0.3265
  227Sol     HW 3949   2.098   2.965   1.502  0.2575  0.2270 -0.6170
  227Sol     MW 3950   2.033   2.998   1.556 -0.9062 -0.2749 -0.3024
  228Sol     OW 3951   3.559   2.244   7.442 -0.1154  0.3697 -0.3952
  228Sol     HW 3952   3.500   2.177   7.478 -0.2439  1.3742  1.3302
  228Sol     HW 3953   3.624   2.258   7.511  0.4080  1.4041 -1.0912
  228Sol     MW 3954   3.559   2.240   7.451  0.0372 -0.1849 -0.5936
  229Sol     OW 3955   2.775   1.721   3.415  0.1920  0.6438  0.1690
  229Sol     HW 3956   2.779   1.793   3.477  2.1791  1.7144 -1.1423
  229Sol     HW 3957   2.751   1.762   3.332  0.4748 -0.3213 -0.3969
  229Sol     MW 3958   2.773   1.731   3.413 -0.1404 -0.2514  0.3738
  230Sol     OW 3959   2.933   2.539   5.343 -0.2492  0.7769 -0.7271
  230Sol     HW 3960   2.916   2.618   5.290  0.5087  0.8093 -0.9377
  230Sol     HW 3961   3.029   2.533   5.345 -0.2569  0.9771  0.9538
  230Sol     MW 3962   2.940   2.546   5.338 -0.3810  0.2206  0.3091
  231Sol     OW 3963   0.197   0.056   4.461 -0.0141  0.0072  0.0253
  231Sol     HW 3964   0.123   0.020   4.509  0.9465 -0.3773  1.2591
  231Sol     HW 3965   0.158   0.112   4.394 -1.4470 -1.4255 -0.3698
  231Sol     MW 3966   0.187   0.058   4.459  0.4892  0.1248 -0.2427
  232Sol     OW 3967   2.035   0.389   4.047 -0.4273  0.0787  0.1615
  232Sol     HW 3968   2.078   0.323   4.101  0.7040 -0.2149 -1.0608
  232Sol     HW 3969   2.095   0.402   3.973 -2.3426 -0.2088 -1.4928
  232Sol     MW 3970   2.044   0.384   4.045  0.2690 -0.0750 -0.2034
  233Sol     OW 3971   1.976   2.886   8.259 -0.2780 -0.3935 -0.3079
  233Sol     HW 3972   2.038   2.908   8.328 -1.1522 -1.0180  0.6803
  233Sol     HW 3973   1.890   2.905   8.297 -0.8691 -2.3269 -0.6115
  233Sol     MW 3974   1.973   2.890   8.269 -0.0746 -0.3645 -0.2208
  234Sol     OW 3975   1.276   1.783   8.167 -0.6249  0.4111 -0.3382
  234Sol     HW 3976   1.316   1.844   8.105  1.5178 -0.9723 -0.3625
  234Sol     HW 3977   1.310   1.809   8.253  0.2068 -0.6520 -0.3332
  234Sol     MW 3978   1.283   1.790   8.169  0.5213 -0.5218  0.2811
  235Sol     OW 3979   2.047   1.133   3.876  0.3876  0.0730 -0.2622
  235Sol     HW 3980   2.085   1.183   3.948  0.2974  1.8163 -1.3931
  235Sol     HW 3981   2.120   1.084   3.840  0.9346  1.0112 -0.4578
  235Sol     MW 3982   2.057   1.134   3.880  0.1820  0.0181  0.3520
  236Sol     OW 3983   0.023   0.869   6.849 -0.1037  0.0905  0.7454
  236Sol     HW 3984   0.035   0.792   6.906  0.5877  0.1108  0.6359
  236Sol     HW 3985   0.061   0.941   6.899  1.2050 -0.0274 -0.0605
  236Sol     MW 3986   0.028   0.868   6.859  0.6906  0.2762 -0.3199
  237Sol     OW 3987   1.518   0.098   5.699  0.0946 -0.0850 -0.5587
  237Sol     HW 3988   1.499   0.167   5.636 -2.7020 -1.0787 -0.8913
  237Sol     HW 3989   1.451   0.108   5.766 -0.2030 -2.3052 -0.4771
  237Sol     MW 3990   1.510   0.105   5.700  0.0358  0.1591 -0.0051
  238Sol     OW 3991   3.048   0.963   6.389 -0.1683  0.3029  0.1802
  238Sol     HW 3992   3.007   0.996   6.469  0.8504  1.4892  0.2191
  238Sol     HW 3993   2.996   1.003   6.318 -0.5301 -0.0582  0.2390
  238Sol     MW 3994   3.039   0.970   6.390 -0.0397 -0.1258  0.3415
  239Sol     OW 3995   3.109   2.741   6.253 -0.1908  0.6544 -0.1972
  239Sol     HW 3996   3.196   2.706   6.272  0.5630  1.0294 -2.8152
  239Sol     HW 3997   3.101   2.816   6.313  1.1216  0.3929  0.3396
  239Sol     MW 3998   3.116   2.745   6.260 -0.1162 -0.5374  0.0335
  240Sol     OW 3999   0.658   0.845   4.603 -0.4444  0.0221  1.0779
  240Sol     HW 4000   0.705   0.901   4.665  2.1191 -1.3217  0.4229
  240Sol     HW 4001   0.721   0.829   4.533 -2.8454  0.4123 -1.2417
  240Sol     MW 4002   0.668   0.848   4.602  0.4622 -0.3975 -0.1036
  241Sol     OW 4003   1.169   2.725   1.483  0.1628  0.0974 -0.0108
  241Sol     HW 4004   1.111   2.749   1.555 -2.9647 -0.8788 -2.1119
  241Sol     HW 4005   1.142   2.637   1.459  3.0515 -0.6800 -0.5858
  241Sol     MW 4006   1.162   2.720   1.487 -0.0555  0.0267 -0.5732
  242Sol     OW 4007   1.212   2.174   4.347 -0.2444 -0.5089  1.0141
  242Sol     HW 4008   1.224   2.256   4.394 -0.9763  1.1665 -1.6211
  242Sol     HW 4009   1.125   2.145   4.373 -1.1454  1.0368 -0.1843
  242Sol     MW 4010   1.205   2.179   4.353  0.9174  0.5707  0.2688
  243Sol     OW 4011   2.980   3.391   8.078  0.0530  0.1881 -0.1114
  243Sol     HW 4012   2.948   3.339   8.005  1.2212 -0.0446 -0.4693
  243Sol     HW 4013   2.940   3.477   8.066  0.3710  0.1976 -1.1153
  243Sol     MW 4014   2.974   3.394   8.071 -0.1380  0.8413 -0.3269
  244Sol     OW 4015   0.309   3.074   1.416  0.0607 -0.1526  0.1632
  244Sol     HW 4016   0.275   2.993   1.454 -0.0881 -0.8046 -1.3362
  244Sol     HW 4017   0.310   3.136   1.489 -0.7125 -1.2302  1.1033
  244Sol     MW 4018   0.306   3.072   1.426 -0.0133 -0.0247 -0.5800
  245Sol     OW 4019   1.178   1.110   4.407  0.0198  0.9144  0.1117
  245Sol     HW 4020   1.175   1.016   4.394  0.6951  0.8620  0.3464
  245Sol     HW 4021   1.271   1.131   4.416 -0.0346  1.7570 -1.1272
  245Sol     MW 4022   1.186   1.104   4.406 -0.1912  0.0247  0.4589
  246Sol     OW 4023   2.902   0.099   8.650  0.2448 -0.5849  0.3473
  246Sol     HW 4024   2.945   0.180   8.679 -0.3952 -1.0184  2.6425
  246Sol     HW 4025   2.811   0.109   8.679 -0.1889 -1.4831 -0.7080
  246Sol     MW 4026   2.898   0.107   8.655 -0.2222 -0.3010 -0.0574
  247Sol     OW 4027   1.263   1.532   6.085  0.4556  0.2201  0.3887
  247Sol     HW 4028   1.244   1.439   6.089 -0.7940  0.3845 -1.2885
  247Sol     HW 4029   1.181   1.575   6.110  1.2742  0.8754  2.0216
  247Sol     MW 4030   1.254   1.528   6.088 -0.2634 -0.0806 -0.4359
  248Sol     OW 4031   0.027   1.015   8.070  0.5337  0.0147 -0.7863
  248Sol     HW 4032   0.046   0.932   8.027  0.0783 -0.9110  0.7672
  248Sol     HW 4033  -0.006   0.990   8.156 -1.1810  1.7484 -0.9100
  248Sol     MW 4034   0.025   1.005   8.074 -0.6430  0.1457 -0.4083
  249Sol     OW 4035   0.708   1.110   2.610 -0.0334 -0.1282 -0.2172
  249Sol     HW 4036   0.704   1.014   2.604 -0.1733 -0.0704 -1.0811
  249Sol     HW 4037   0.627   1.140   2.568  0.6512  0.4162 -1.1474
  249Sol     MW 4038   0.700   1.104   2.606  0.3765  0.9180 -0.4262
  250Sol     OW 4039   1.101   0.744   8.021 -0.3856  0.3173 -0.0853
  250Sol     HW 4040   1.039   0.813   8.046  0.2297  0.9283 -0.2397
  250Sol     HW 4041   1.096   0.742   7.925 -0.7975 -0.2189 -0.0530
  250Sol     MW 4042   1.095   0.750   8.014  0.0266  0.0094 -0.6542
  251Sol     OW 4043   0.695   2.262   7.707  0.9788 -0.2616  0.8101
  251Sol     HW 4044   0.707   2.356   7.705  0.2369 -0.1701  0.3760
  251Sol     HW 4045   0.625   2.248   7.770 -0.1897 -0.3686 -0.4955
  251Sol     MW 4046   0.690   2.269   7.712 -0.1606  0.2411  0.3045
  252Sol     OW 4047   1.768   1.794   3.637 -0.4837  0.3526  0.1432
  252Sol     HW 4048   1.815   1.876   3.655 -1.7875  0.9781  0.7959
  252Sol     HW 4049   1.679   1.822   3.615 -0.1583 -0.6862 -2.8274
  252Sol     MW 4050   1.764   1.804   3.636  0.1592  0.2544  0.4476
  253Sol     OW 4051   0.031   1.260   2.798 -0.1947 -0.5284 -0.3322
  253Sol     HW 4052  -0.017   1.212   2.865  0.1446  0.5589  0.7036
  253Sol     HW 4053  -0.025   1.256   2.720 -0.7747 -1.4518  0.1283
  253Sol     MW 4054   0.022   1.256   2.797  0.0465 -0.2263  0.4422
  254Sol     OW 4055   3.038   1.910   3.167  0.5026  0.4891  0.1553
  254Sol     HW 4056   3.060   1.982   3.226 -0.3075  0.6777  0.2211
  254Sol     HW 4057   3.069   1.939   3.081  0.4702  0.7723  0.2404
  254Sol     MW 4058   3.043   1.919   3.164  0.4810  0.2225  0.0478
  255Sol     OW 4059   2.912   2.081   7.997  0.6468 -0.4965  0.1121
  255Sol     HW 4060   3.007   2.090   7.994  0.7712 -1.6162  0.3409
  255Sol     HW 4061   2.884   2.078   7.906  0.7780  0.3254  0.0443
  255Sol     MW 4062   2.918   2.081   7.989  0.2858  0.8190 -0.2779
  256Sol     OW 4063   0.829   1.967   4.735  0.2402  0.2321 -0.1201
  256Sol     HW 4064   0.757   1.999   4.789  0.3960  1.5752 -0.6805
  256Sol     HW 4065   0.852   2.042   4.680  0.6253 -0.8714 -1.4700
  256Sol     MW 4066   0.825   1.977   4.735 -0.3922  0.2674  0.6475
  257Sol     OW 4067   0.398   2.292   5.771 -0.0505  0.1508 -0.0796
  257Sol     HW 4068   0.471   2.338   5.812  1.5699 -1.9854 -0.5185
  257Sol     HW 4069   0.396   2.325   5.681  1.2725 -0.8247 -0.4685
  257Sol     MW 4070   0.404   2.299   5.766  0.3363  0.2323 -0.1331
  258Sol     OW 4071   1.094   1.726   6.908  0.5450 -0.2600 -0.9858
  258Sol     HW 4072   1.072   1.655   6.969 -0.8468  0.7097 -0.3417
  258Sol     HW 4073   1.071   1.691   6.822 -0.8582 -0.3150 -0.5934
  258Sol     MW 4074   1.090   1.716   6.906  1.0890  0.3398 -0.1164
  259Sol     OW 4075   2.972   3.255   8.308 -0.2394  0.8642 -0.6612
  259Sol     HW 4076   2.946   3.296   8.225  1.8054  2.4464 -0.5501
  259Sol     HW 4077   3.041   3.194   8.284 -1.9477 -1.1733 -0.5518
  259Sol     MW 4078   2.976   3.253   8.298  0.1733 -0.2315  0.0344
  260Sol     OW 4079   3.289   0.693   1.787  0.1122 -0.1643 -0.1060
  260Sol     HW 4080   3.197   0.721   1.785  0.2454  0.3398  0.5371
  260Sol     HW 4081   3.339   0.774   1.790  0.5237 -0.4413  1.1635
  260Sol     MW 4082   3.285   0.703   1.787 -0.0435 -0.1873  0.5648
  261Sol     OW 4083   3.002   1.372   4.925 -0.3163 -0.3022  0.5939
  261Sol     HW 4084   3.038   1.290   4.890  2.2814  1.2006 -0.3256
  261Sol     HW 4085   3.007   1.362   5.020 -0.0451 -1.1948  0.4912
  261Sol     MW 4086   3.005   1.363   4.930  0.6857 -0.0311  0.1196
  262Sol     OW 4087   3.312   0.401   7.402  0.0040  0.3434 -0.4124
  262Sol     HW 4088   3.325   0.382   7.310 -1.6033  0.7156 -0.7288
  262Sol     HW 4089   3.307   0.315   7.444  1.8359  0.1735 -0.4850
  262Sol     MW 4090   3.313   0.392   7.398 -0.0795  0.6169 -0.2772
  263Sol     OW 4091   2.283   0.227   2.393 -0.7849  0.3795 -0.5114
  263Sol     HW 4092   2.317   0.184   2.471 -0.9536 -1.0458 -1.2157
  263Sol     HW 4093   2.347   0.296   2.374 -0.1788  0.0323  0.2572
  263Sol     MW 4094   2.292   0.230   2.398  0.5105 -0.0231 -0.5258
  264Sol     OW 4095   3.142   2.023   2.918  0.7463  1.0142 -0.1053
  264Sol     HW 4096   3.098   2.055   2.839 -0.9471 -0.9659  0.0133
  264Sol     HW 4097   3.201   1.954   2.887  0.8156  0.9178  0.2373
  264Sol     MW 4098   3.143   2.020   2.908  0.0148  0.1285  0.5049
  265Sol     OW 4099   0.734   0.008   5.218 -0.1942  0.4427 -0.0092
  265Sol     HW 4100   0.770   0.059   5.291  0.9230  0.0722 -0.2965
  265Sol     HW 4101   0.650   0.049   5.200  0.9797  2.6318 -0.7002
  265Sol     MW 4102   0.730   0.016   5.223  0.3690 -0.3828 -0.1363
  266Sol     OW 4103   0.966   2.877   3.736  0.3181  0.2286 -0.2157
  266Sol     HW 4104   1.025   2.907   3.805  0.7310 -1.3908  0.1507
  266Sol     HW 4105   1.009   2.902   3.655  0.5955  0.7010  0.0711
  266Sol     MW 4106   0.975   2.882   3.735 -1.0068 -0.0484 -0.6066
  267Sol     OW 4107   0.701   2.494   6.871 -0.3109 -0.1686 -0.3845
  267Sol     HW 4108   0.687   2.582   6.837 -0.9733 -0.3855 -0.6757
  267Sol     HW 4109   0.636   2.483   6.940 -0.3886 -0.5165 -0.5087
  267Sol     MW 4110   0.694   2.501   6.874 -0.1777  0.2124 -0.2125
  268Sol     OW 4111   0.299   1.025   8.203 -0.1145  0.1208  0.8661
  268Sol     HW 4112   0.352   1.085   8.150  0.1832  0.1881  1.2336
  268Sol     HW 4113   0.209   1.042   8.177  0.1644 -1.3612 -1.1849
  268Sol     MW 4114   0.296   1.032   8.196 -0.1453  0.4209  0.0280
  269Sol     OW 4115   0.049   0.782   1.523 -1.3043  0.2731 -0.2885
  269Sol     HW 4116   0.060   0.837   1.601 -3.7209  0.0783  0.2363
  269Sol     HW 4117   0.059   0.692   1.555  0.0482  0.2762 -0.6646
  269Sol     MW 4118   0.051   0.779   1.533 -0.4081 -0.0307  0.2197
  270Sol     OW 4119   0.446   1.987   4.939 -0.1003 -0.1344  0.2318
  270Sol     HW 4120   0.407   1.933   4.870 -0.3986 -0.3908  0.5990
  270Sol     HW 4121   0.385   2.059   4.951  0.1937  0.1740 -0.1101
  270Sol     MW 4122   0.437   1.988   4.934  0.3161 -0.3942  0.3402
  271Sol     OW 4123   0.141   0.927   1.750  0.1236  0.2603 -0.8633
  271Sol     HW 4124   0.109   1.017   1.755 -0.1325  0.2233 -1.7540
  271Sol     HW 4125   0.099   0.883   1.823  0.4515  0.9208 -0.2640
  271Sol     MW 4126   0.135   0.931   1.757  0.1797  0.1942 -0.3444
  272Sol     OW 4127   2.190   2.887   3.495  0.0480 -0.9128 -0.0408
  272Sol     HW 4128   2.188   2.981   3.479  3.0469 -1.0218 -1.3256
  272Sol     HW 4129   2.205   2.879   3.589  0.7890 -0.0914 -0.0870
  272Sol     MW 4130   2.191   2.895   3.502 -0.1344 -0.2914  0.1625
  273Sol     OW 4131   2.463   2.342   6.075 -0.2957 -0.5069  0.2895
  273Sol     HW 4132   2.532   2.331   6.010  0.4482  2.2214  0.5442
  273Sol     HW 4133   2.510   2.355   6.158 -1.0824  1.1706  0.5008
  273Sol     MW 4134   2.474   2.342   6.077  0.0389 -0.4041  0.4531
  274Sol     OW 4135   2.875   0.170   7.078 -0.0358  0.1328 -0.1662
  274Sol     HW 4136   2.856   0.078   7.060  0.6095 -0.4185  1.7714
  274Sol     HW 4137   2.946   0.192   7.017  1.6811 -1.4840  1.1650
  274Sol     MW 4138   2.880   0.164   7.071 -0.5505 -0.5055 -0.4759
  275Sol     OW 4139   2.897   3.156   2.234 -0.0677 -0.3540 -0.0561
  275Sol     HW 4140   2.971   3.178   2.176  0.2787  1.9701  1.2247
  275Sol     HW 4141   2.820   3.184   2.185 -0.0135 -1.3552 -0.7361
  275Sol     MW 4142   2.897   3.161   2.224  0.4743  0.3170 -0.2492
  276Sol     OW 4143   3.098   1.292   8.654 -0.3067  0.0088 -0.1512
  276Sol     HW 4144   3.124   1.205   8.684  2.3189  1.2213  1.2783
  276Sol     HW 4145   3.138   1.300   8.567  3.7363  1.5584  1.7157
  276Sol     MW 4146   3.104   1.285   8.649 -0.1114  0.4386  0.0254
  277Sol     OW 4147   3.101   3.324   5.106  0.8204  0.1598 -0.4268
  277Sol     HW 4148   3.043   3.397   5.129  0.6754  0.2068 -0.9539
  277Sol     HW 4149   3.139   3.298   5.190  0.7804  0.7619 -0.2142
  277Sol     MW 4150   3.099   3.328   5.116 -0.3607  0.7267  0.4356
  278Sol     OW 4151   0.969   2.524   6.984 -0.3538  0.2827 -0.1070
  278Sol     HW 4152   0.988   2.560   7.071  0.5130  0.1499 -0.2387
  278Sol     HW 4153   0.874   2.511   6.984 -0.5341  1.5464  0.3354
  278Sol     MW 4154   0.962   2.526   6.992 -0.2765 -0.8416  0.9858
  279Sol     OW 4155   0.668   1.250   5.179  0.4357 -0.1956  0.4587
  279Sol     HW 4156   0.688   1.322   5.238  0.4045  0.2430 -0.0575
  279Sol     HW 4157   0.679   1.287   5.091 -1.0767 -0.3914  0.1807
  279Sol     MW 4158   0.671   1.259   5.176 -0.0597 -0.1344  0.1202
  280Sol     OW 4159   2.945   2.119   4.424 -0.2071 -0.4321 -0.1058
  280Sol     HW 4160   2.938   2.210   4.456  0.3146 -0.2762 -0.4308
  280Sol     HW 4161   3.022   2.084   4.470 -1.5905 -1.3467  1.5533
  280Sol     MW 4162   2.952   2.124   4.431  0.3614  0.6185  0.5619
  281Sol     OW 4163   1.436   1.478   8.225  0.0638  0.3911  0.6597
  281Sol     HW 4164   1.378   1.402   8.226  0.3543  0.1499 -0.1858
  281Sol     HW 4165   1.377   1.554   8.228 -0.2689  0.1403  0.4644
  281Sol     MW 4166   1.426   1.478   8.225 -0.2536 -0.5200 -0.3446
  282Sol     OW 4167   0.336   2.682   8.413 -0.6876  0.1994 -0.2470
  282Sol     HW 4168   0.412   2.687   8.354  0.9605 -2.9312  1.4724
  282Sol     HW 4169   0.281   2.613   8.375 -1.0698  0.2018  0.3023
  282Sol     MW 4170   0.338   2.676   8.404  0.1100  0.1908  0.7880
  283Sol     OW 4171   2.363   2.168   7.666 -0.5615 -0.2517 -0.1103
  283Sol     HW 4172   2.409   2.121   7.596 -2.4753 -0.6580 -1.1125
  283Sol     HW 4173   2.303   2.104   7.704  0.4690 -0.0379  1.9549
  283Sol     MW 4174   2.362   2.158   7.663 -0.1638 -0.5051  0.0205
  284Sol     OW 4175   2.589   0.525   3.935 -0.0540 -0.6152 -0.3770
  284Sol     HW 4176   2.499   0.518   3.906 -0.2110 -0.5835  0.1016
  284Sol     HW 4177   2.596   0.613   3.972  0.5406 -0.1009 -1.6480
  284Sol     MW 4178   2.582   0.532   3.935  0.1894  0.4879  0.0516
  285Sol     OW 4179   3.290   2.249   5.321  0.0509 -0.2918 -0.6268
  285Sol     HW 4180   3.274   2.210   5.407  4.4988 -0.7203  0.0950
  285Sol     HW 4181   3.264   2.341   5.330  2.3150  0.1446  1.8070
  285Sol     MW 4182   3.286   2.254   5.329 -0.6285  0.4436  0.0706
  286Sol     OW 4183   2.463   1.363   7.232  0.4369  0.2523  0.3936
  286Sol     HW 4184   2.502   1.288   7.276  1.2846  0.2483 -0.3324
  286Sol     HW 4185   2.533   1.428   7.230  0.8324 -0.1810 -1.9673
  286Sol     MW 4186   2.473   1.362   7.236  0.2041  0.4640 -1.0748
  287Sol     OW 4187   1.951   1.932   1.529  0.5534  0.0848  0.1035
  287Sol     HW 4188   1.972   1.865   1.464  2.2727 -0.0426  0.7639
  287Sol     HW 4189   2.027   1.933   1.587 -0.2498  1.3556  1.1439
  287Sol     MW 4190   1.959   1.926   1.529  0.3205 -0.2420  0.0625
  288Sol     OW 4191   2.076   1.554   4.552 -0.0469 -0.3173  0.6055
  288Sol     HW 4192   2.063   1.591   4.465 -1.5712  1.5528  1.5758
  288Sol     HW 4193   2.134   1.616   4.596 -1.3481  0.1392  1.7282
  288Sol     MW 4194   2.080   1.563   4.548 -0.0538  0.4597  0.0450
  289Sol     OW 4195   0.097   3.317   2.619 -0.0987  0.2339 -0.6229
  289Sol     HW 4196   0.182   3.305   2.663 -0.2765 -0.2379 -0.4087
  289Sol     HW 4197   0.119   3.319   2.526  0.1280 -0.0873 -0.5784
  289Sol     MW 4198   0.107   3.316   2.615  0.4752  0.0938 -0.0374
  290Sol     OW 4199   2.450   2.496   7.976  0.4199 -0.4965  0.3199
  290Sol     HW 4200   2.516   2.455   7.921  1.1358  0.5576  0.3784
  290Sol     HW 4201   2.386   2.427   7.993  0.2110 -0.8469 -1.8114
  290Sol     MW 4202   2.450   2.486   7.973 -0.2437  0.0705 -0.3235
  291Sol     OW 4203   2.282   1.439   6.093  0.4771 -0.2752 -0.2345
  291Sol     HW 4204   2.271   1.440   5.998  1.9886  0.4098 -0.4252
  291Sol     HW 4205   2.341   1.512   6.111  0.5293 -0.6480  1.1827
  291Sol     MW 4206   2.286   1.445   6.086  0.0294  0.0185  0.2782
  292Sol     OW 4207   3.506   3.382   1.363 -0.5388  0.0238  0.2797
  292Sol     HW 4208   3.528   3.471   1.335  0.4109 -0.4072 -0.3530
  292Sol     HW 4209   3.572   3.327   1.323 -0.6853 -0.8968  1.2750
  292Sol     MW 4210   3.514   3.385   1.357  0.3134 -0.0794 -0.1215
  293Sol     OW 4211   2.595   3.034   8.489 -0.4953  0.1946 -0.6380
  293Sol     HW 4212   2.675   3.083   8.508 -0.6072 -0.3717  1.3602
  293Sol     HW 4213   2.526   3.099   8.485 -0.6779  0.2190  2.2040
  293Sol     MW 4214   2.596   3.044   8.490  0.3155  0.2845 -0.7933
  294Sol     OW 4215   2.966   2.752   7.934 -0.7511 -0.5684  0.4724
  294Sol     HW 4216   3.016   2.782   7.858 -1.1290 -1.3135 -0.0731
  294Sol     HW 4217   2.992   2.811   8.005 -0.2363 -0.0070 -0.1822
  294Sol     MW 4218   2.973   2.760   7.933  0.1240 -0.1467 -0.6928
  295Sol     OW 4219   1.858   2.480   2.789  0.6665  0.2169  0.4210
  295Sol     HW 4220   1.807   2.488   2.870  0.4709  1.6561  0.1686
  295Sol     HW 4221   1.949   2.483   2.818  0.6010 -0.0114  0.6523
  295Sol     MW 4222   1.862   2.481   2.799  0.1091  0.5855 -0.8416
  296Sol     OW 4223   0.108   0.219   1.390  0.1616  0.5147 -0.3393
  296Sol     HW 4224   0.168   0.179   1.327  1.9200  0.6260  1.2054
  296Sol     HW 4225   0.156   0.217   1.473 -3.2113 -2.3219  1.6878
  296Sol     MW 4226   0.118   0.216   1.392  0.0900 -0.2797  0.7241
  297Sol     OW 4227   2.660   0.647   1.872 -0.3598  0.0302 -0.1932
  297Sol     HW 4228   2.629   0.688   1.792  3.2877  0.4816 -1.4635
  297Sol     HW 4229   2.684   0.720   1.929 -0.6791 -0.3129  0.3914
  297Sol     MW 4230   2.659   0.657   1.870  0.6936  0.1011  0.3531
  298Sol     OW 4231   1.968   2.589   2.005  0.2549  0.3189  0.2190
  298Sol     HW 4232   2.019   2.518   1.963  0.3065 -0.0148  0.8345
  298Sol     HW 4233   1.993   2.668   1.957  2.0084  0.3002  1.0289
  298Sol     MW 4234   1.975   2.589   1.997 -0.2897 -0.1976 -0.1689
  299Sol     OW 4235   3.215   1.940   1.139 -0.4953 -0.0995  0.0943
  299Sol     HW 4236   3.292   1.983   1.175 -0.2312 -1.6849  1.5153
  299Sol     HW 4237   3.141   1.981   1.184 -0.2993 -0.5316  0.8188
  299Sol     MW 4238   3.215   1.947   1.147  0.2886 -0.4967 -0.2756
  300Sol     OW 4239   0.875   1.747   3.267 -0.3528  0.2216 -0.0504
  300Sol     HW 4240   0.796   1.772   3.315 -0.3708  1.6648 -0.8088
  300Sol     HW 4241   0.874   1.801   3.188  0.7556 -0.6325 -0.6782
  300Sol     MW 4242   0.868   1.754   3.264  0.1304  0.6473  0.1016
  301Sol     OW 4243   0.038   1.053   5.533 -0.0264  0.1824 -0.1338
  301Sol     HW 4244   0.073   0.973   5.494  0.8346 -0.2798  1.5310
  301Sol     HW 4245   0.065   1.048   5.625 -2.7888  0.7737  0.7491
  301Sol     MW 4246   0.044   1.045   5.538  0.0607 -0.0600 -0.1236
  302Sol     OW 4247   0.005   2.147   8.272 -0.3067  0.5910  0.2138
  302Sol     HW 4248   0.062   2.180   8.203  2.0729  1.3782  2.4671
  302Sol     HW 4249  -0.083   2.172   8.245  0.4797  0.1599 -2.9056
  302Sol     MW 4250   0.002   2.152   8.263  0.6260 -0.4104  0.4182
  303Sol     OW 4251   3.238   0.719   3.026  0.5949 -0.6115 -0.5583
  303Sol     HW 4252   3.228   0.803   2.979 -0.9162 -1.2715 -1.4552
  303Sol     HW 4253   3.191   0.732   3.108 -0.9548 -1.0666 -1.3540
  303Sol     MW 4254   3.233   0.728   3.029  0.0132 -0.1569  0.1065
  304Sol     OW 4255   3.016   0.357   3.193 -0.0757  0.3352 -0.0540
  304Sol     HW 4256   2.978   0.440   3.167  0.0737  0.4950  0.2262
  304Sol     HW 4257   3.041   0.314   3.111  1.3341  1.2764 -0.1336
  304Sol     MW 4258   3.015   0.360   3.184 -0.1787 -0.3180  0.1428
  305Sol     OW 4259   0.086   0.425   5.551  0.4422 -0.3085  0.5581
  305Sol     HW 4260   0.088   0.454   5.460 -0.6805  0.3327  0.7181
  305Sol     HW 4261   0.084   0.329   5.546 -3.4739 -0.3007 -0.2631
  305Sol     MW 4262   0.086   0.419   5.543  0.3525 -0.1880 -0.5874
  306Sol     OW 4263   1.558   2.325   6.665 -0.7323 -0.4177 -0.2619
  306Sol     HW 4264   1.495   2.299   6.732 -1.1690  0.2045 -0.4241
  306Sol     HW 4265   1.552   2.256   6.598 -0.9800 -0.5426 -0.1115
  306Sol     MW 4266   1.552   2.316   6.665  0.7415  0.2906  0.1132
  307Sol     OW 4267   3.121   2.577   7.620  0.6064  0.1362  0.1586
  307Sol     HW 4268   3.212   2.595   7.594  0.6412 -0.4315 -0.1199
  307Sol     HW 4269   3.080   2.542   7.541  0.1465  0.3869  0.2884
  307Sol     MW 4270   3.126   2.575   7.610 -0.5723 -0.2670 -0.7068
  308Sol     OW 4271   3.434   0.254   7.872 -0.5009 -0.3991  0.2301
  308Sol     HW 4272   3.500   0.191   7.900 -1.5515 -0.6265  2.2853
  308Sol     HW 4273   3.378   0.205   7.812  1.0140 -0.2771 -1.3146
  308Sol     MW 4274   3.435   0.244   7.869  0.6485 -0.0675 -0.4785
  309Sol     OW 4275   0.966   2.093   4.423 -0.0998  0.0946 -0.0911
  309Sol     HW 4276   0.909   2.142   4.364 -1.4795  0.7761  1.7340
  309Sol     HW 4277   0.967   2.145   4.504  2.7424 -0.1632  0.0885
  309Sol     MW 4278   0.961   2.102   4.425  0.0523  0.4995  0.0318
  310Sol     OW 4279   2.500   0.529   8.907 -0.0934  0.4148  0.1406
  310Sol     HW 4280   2.411   0.494   8.909  0.6149 -1.4126  2.9443
  310Sol     HW 4281   2.495   0.609   8.960 -0.0216  0.2127  0.4522
  310Sol     MW 4282   2.492   0.533   8.912 -0.4575 -0.8712 -1.0037
  311Sol     OW 4283   3.108   2.862   3.163  0.5329  0.5247 -0.3165
  311Sol     HW 4284   3.191   2.900   3.134  0.1947  1.5335  0.0234
  311Sol     HW 4285   3.072   2.927   3.224 -1.5821  1.1387 -2.1819
  311Sol     MW 4286   3.113   2.871   3.166  0.4927  0.2445 -0.2535
  312Sol     OW 4287   0.610   2.578   3.114 -0.7776 -0.0478 -0.0063
  312Sol     HW 4288   0.671   2.595   3.185 -0.1653 -0.9525 -0.2986
  312Sol     HW 4289   0.662   2.589   3.034 -0.5760 -2.3057 -0.2218
  312Sol     MW 4290   0.620   2.580   3.113 -0.3698  0.2377 -0.4598
  313Sol     OW 4291   0.595   2.483   4.972  0.1038 -0.5992 -0.2687
  313Sol     HW 4292   0.539   2.558   4.952  1.1443  0.0181 -0.9190
  313Sol     HW 4293   0.628   2.454   4.887  1.8503 -0.0965  0.2220
  313Sol     MW 4294   0.593   2.487   4.963 -0.2679  0.1370 -0.2506
  314Sol     OW 4295   2.254   2.349   5.027 -0.0922  0.0881 -0.1349
  314Sol     HW 4296   2.194   2.300   5.082 -1.2826 -0.6768 -2.0598
  314Sol     HW 4297   2.268   2.432   5.073  0.2468 -1.1630  2.0874
  314Sol     MW 4298   2.250   2.352   5.036  0.7029  0.5249  0.0953
  315Sol     OW 4299   2.114   0.312   7.959  0.3870 -0.2563 -0.2148
  315Sol     HW 4300   2.173   0.384   7.981  1.7613 -1.3646 -0.1739
  315Sol     HW 4301   2.166   0.255   7.901 -0.4136 -1.5778  0.3398
  315Sol     MW 4302   2.124   0.313   7.956  0.1567  0.0134  0.3536
  316Sol     OW 4303   1.962   2.556   4.512  0.2465 -0.3722  0.0786
  316Sol     HW 4304   1.951   2.561   4.416 -0.1312  1.1595  0.1790
  316Sol     HW 4305   1.897   2.617   4.546  1.2892  0.1067  1.2568
  316Sol     MW 4306   1.955   2.562   4.506 -0.3228  0.1437 -0.1643
  317Sol     OW 4307   0.961   2.241   5.897  0.1141  0.8907 -0.1713
  317Sol     HW 4308   0.922   2.154   5.887  1.1478  0.2249  1.4358
  317Sol     HW 4309   0.977   2.249   5.991 -2.2690  3.8326  0.0591
  317Sol     MW 4310   0.959   2.234   5.904 -0.8315  0.2363  0.1596
  318Sol     OW 4311   2.125   3.007   5.999  0.2644  0.3972 -0.0568
  318Sol     HW 4312   2.213   2.972   6.012  0.1648  0.3971  0.5957
  318Sol     HW 4313   2.080   2.991   6.081 -0.6915 -0.6016 -0.7576
  318Sol     MW 4314   2.129   3.002   6.007 -0.1135 -0.3087  0.5100
  319Sol     OW 4315   0.936   0.539   8.801  0.3911  0.2052  0.4488
  319Sol     HW 4316   0.881   0.617   8.793  0.1496 -0.0173 -0.1402
  319Sol     HW 4317   0.903   0.493   8.878  1.7636  1.6380  1.9409
  319Sol     MW 4318   0.928   0.542   8.807 -0.5492 -0.4363 -0.4671
  320Sol     OW 4319   1.932   1.945   2.305  0.1720  0.2060 -0.2385
  320Sol     HW 4320   2.017   1.966   2.268  0.0580  0.4535 -0.3635
  320Sol     HW 4321   1.951   1.911   2.393  0.3407  1.2027  0.1233
  320Sol     MW 4322   1.941   1.944   2.310 -0.2223  0.2380  0.1268
  321Sol     OW 4323   1.858   0.275   7.699 -0.4878  0.4177  0.5856
  321Sol     HW 4324   1.931   0.245   7.752 -1.2012  0.7139  1.7446
  321Sol     HW 4325   1.875   0.369   7.685  1.2464 -0.2437 -2.2411
  321Sol     MW 4326   1.866   0.281   7.702  0.8846 -0.3487  0.0764
  322Sol     OW 4327   3.353   2.711   5.180 -0.1357  0.5275  0.1272
  322Sol     HW 4328   3.345   2.660   5.100 -0.4046 -0.9175  1.0400
  322Sol     HW 4329   3.440   2.750   5.175  0.0218  0.0888 -0.6632
  322Sol     MW 4330   3.360   2.710   5.173  1.0065 -0.3096  0.0754
  323Sol     OW 4331   1.550   1.338   5.163 -0.3178 -0.2377 -0.2361
  323Sol     HW 4332   1.612   1.362   5.094  0.3540 -1.8995 -0.2421
  323Sol     HW 4333   1.552   1.411   5.225 -0.4660  0.9860 -1.6551
  323Sol     MW 4334   1.555   1.346   5.163 -0.3603  0.3297 -0.6344
  324Sol     OW 4335   2.605   2.400   4.551  0.5040  0.2947 -0.1795
  324Sol     HW 4336   2.524   2.445   4.575  0.9542  2.1475 -1.9470
  324Sol     HW 4337   2.576   2.320   4.507 -0.3507  0.4143  0.1478
  324Sol     MW 4338   2.595   2.397   4.549 -1.1363 -0.0041  0.6537
  325Sol     OW 4339   0.838   2.477   6.194  0.4887  0.4360  0.2475
  325Sol     HW 4340   0.801   2.489   6.281 -0.4861 -0.3961 -0.0502
  325Sol     HW 4341   0.771   2.511   6.134  1.2481  1.2265 -0.1761
  325Sol     MW 4342   0.829   2.482   6.196 -0.7554 -0.4488  0.6542
  326Sol     OW 4343   2.608   2.603   4.113 -0.3294 -0.5355  0.3375
  326Sol     HW 4344   2.676   2.536   4.120 -0.5834 -0.5368  3.3721
  326Sol     HW 4345   2.607   2.645   4.199 -1.8538  1.7400 -0.7468
  326Sol     MW 4346   2.614   2.601   4.121  0.4503 -0.0929 -0.1919
  327Sol     OW 4347   0.495   1.058   5.367  0.2650  0.5354 -0.3403
  327Sol     HW 4348   0.430   1.124   5.391 -1.3593 -1.2384  0.3492
  327Sol     HW 4349   0.523   1.083   5.279 -1.3052  1.4105 -0.6125
  327Sol     MW 4350   0.491   1.066   5.361  0.1163 -0.1743 -0.2377
  328Sol     OW 4351   1.193   3.314   4.899  0.1568 -0.0306 -0.4272
  328Sol     HW 4352   1.263   3.377   4.881 -0.3508  0.6741  0.0061
  328Sol     HW 4353   1.123   3.337   4.838  1.1817 -2.2444 -2.4996
  328Sol     MW 4354   1.193   3.322   4.892  0.0095  0.1940 -0.1293
  329Sol     OW 4355   0.524   3.382   7.864  0.3244 -0.1342 -0.2441
  329Sol     HW 4356   0.429   3.383   7.855  0.3395  0.7051 -0.2763
  329Sol     HW 4357   0.540   3.387   7.958  0.3699  1.4624 -0.3347
  329Sol     MW 4358   0.517   3.382   7.872 -0.2892  0.1694  0.4627
  330Sol     OW 4359   1.386   0.106   5.255 -0.5152 -0.3212 -0.1461
  330Sol     HW 4360   1.299   0.090   5.218 -0.1023 -1.3489 -0.6844
  330Sol     HW 4361   1.446   0.087   5.183  0.2671 -1.5971  0.8274
  330Sol     MW 4362   1.383   0.103   5.245 -0.5851  0.3748 -0.1869
  331Sol     OW 4363   3.259   0.214   8.584  0.3723 -0.0641 -0.5630
  331Sol     HW 4364   3.345   0.233   8.622  0.2002 -1.4020  0.5557
  331Sol     HW 4365   3.249   0.119   8.595 -1.0864  0.0251 -1.0238
  331Sol     MW 4366   3.266   0.207   8.589  0.5786 -0.2639  0.0707
  332Sol     OW 4367   0.487   1.630   1.601 -0.4331  0.3345 -0.0206
  332Sol     HW 4368   0.441   1.546   1.601 -0.7505  0.5083 -0.2924
  332Sol     HW 4369   0.420   1.694   1.623 -0.3580  0.6113 -0.5964
  332Sol     MW 4370   0.477   1.628   1.603 -0.1548  0.3928 -0.1912
  333Sol     OW 4371   0.252   3.298   8.616 -0.1963 -0.7662 -0.5376
  333Sol     HW 4372   0.338   3.271   8.584 -0.4057 -1.6098 -0.3872
  333Sol     HW 4373   0.198   3.220   8.609  0.0937 -1.3538  3.0808
  333Sol     MW 4374   0.255   3.289   8.613 -0.1896 -0.2441 -0.2521
  334Sol     OW 4375   3.510   2.732   3.674  0.1732 -0.4809  0.0758
  334Sol     HW 4376   3.580   2.758   3.615 -0.0605  0.1687  0.0742
  334Sol     HW 4377   3.430   2.738   3.620 -0.0099 -0.1379  0.3850
  334Sol     MW 4378   3.509   2.735   3.664  0.3962 -0.3839 -0.4107
  335Sol     OW 4379   1.756   1.258   9.060 -0.4235  0.5290 -0.5249
  335Sol     HW 4380   1.818   1.330   9.051 -0.8422  1.0015  0.3659
  335Sol     HW 4381   1.671   1.297   9.040 -0.5069 -0.0034 -1.2408
  335Sol     MW 4382   1.754   1.268   9.057  0.2771  0.3276  0.1048
  336Sol     OW 4383   1.389   1.639   7.760  0.6765 -0.0453  0.4513
  336Sol     HW 4384   1.435   1.594   7.830  1.0151  0.2040  0.3870
  336Sol     HW 4385   1.344   1.569   7.713  2.1114 -0.4539 -0.3395
  336Sol     MW 4386   1.389   1.629   7.762 -0.2032 -0.7043  0.5131
  337Sol     OW 4387   2.131   1.632   6.872 -0.2860  0.1353  0.1598
  337Sol     HW 4388   2.054   1.652   6.818  0.5367 -0.9188 -1.4284
  337Sol     HW 4389   2.097   1.627   6.961 -1.8450  0.9215 -0.3745
  337Sol     MW 4390   2.121   1.633   6.875  0.1966 -0.4719  0.7990
  338Sol     OW 4391   3.037   0.241   4.427  0.4391 -0.5658  0.5376
  338Sol     HW 4392   3.093   0.291   4.367 -0.4431  2.3144  2.0198
  338Sol     HW 4393   2.955   0.230   4.380  0.5001 -0.2543  0.3545
  338Sol     MW 4394   3.035   0.244   4.417 -0.0017 -0.5572  0.7509
  339Sol     OW 4395   0.534   0.060   6.036  0.4076  0.4080  0.0246
  339Sol     HW 4396   0.505   0.022   5.953 -0.5300 -3.1388  1.8449
  339Sol     HW 4397   0.630   0.062   6.029  0.3234  0.4351 -1.2573
  339Sol     MW 4398   0.540   0.056   6.028  0.2704  0.0348 -0.1833
  340Sol     OW 4399   2.414   1.565   1.658  0.4440 -0.0414 -0.3491
  340Sol     HW 4400   2.448   1.599   1.741 -1.0859  0.1510  0.1986
  340Sol     HW 4401   2.393   1.643   1.607 -2.0971 -0.1112  0.5165
  340Sol     MW 4402   2.415   1.575   1.661 -0.0046 -0.2362  0.5935
  341Sol     OW 4403   0.473   0.065   4.388  0.1844  0.3963 -0.2914
  341Sol     HW 4404   0.381   0.058   4.413 -0.2142  0.4248 -1.7196
  341Sol     HW 4405   0.491  -0.016   4.340  0.1224  1.6218 -2.4358
  341Sol     MW 4406   0.467   0.057   4.386  0.2692  0.4567  0.0950
  342Sol     OW 4407   0.442   0.595   4.379 -0.0221  0.1669  0.4267
  342Sol     HW 4408   0.460   0.506   4.350 -2.2184 -0.2955  0.3755
  342Sol     HW 4409   0.467   0.651   4.306  1.1933 -0.4289  0.3910
  342Sol     MW 4410   0.446   0.592   4.370  0.5119 -0.1035  0.9394
  343Sol     OW 4411   0.829   2.100   3.230  0.4467 -0.5328  0.2253
  343Sol     HW 4412   0.791   2.034   3.288  0.3344  0.6509  1.5229
  343Sol     HW 4413   0.757   2.160   3.211  0.6614 -0.5301 -0.5630
  343Sol     MW 4414   0.819   2.100   3.234  0.3744 -1.0708 -0.0705
  344Sol     OW 4415   2.699   0.629   6.549 -0.2156 -0.4898  0.3064
  344Sol     HW 4416   2.639   0.669   6.611  0.9819  1.5348  0.2277
  344Sol     HW 4417   2.786   0.646   6.586  0.3648 -2.1909 -0.2451
  344Sol     MW 4418   2.702   0.634   6.557 -0.2547 -0.9957  0.1037
  345Sol     OW 4419   0.356   1.531   5.651  0.4234 -0.1055  0.0951
  345Sol     HW 4420   0.434   1.484   5.622  0.3465 -0.6020  0.6865
  345Sol     HW 4421   0.341   1.501   5.741 -0.8584 -0.5443 -0.2536
  345Sol     MW 4422   0.361   1.524   5.657  0.1451  0.0500 -0.2928
  346Sol     OW 4423   2.434   1.877   2.067  0.4438 -0.0499 -0.6147
  346Sol     HW 4424   2.381   1.831   2.133 -0.6065  0.4503 -1.0874
  346Sol     HW 4425   2.448   1.812   1.998  0.4631 -0.1975 -0.4716
  346Sol     MW 4426   2.430   1.867   2.067 -0.0445  0.1758 -0.1440
  347Sol     OW 4427   1.409   2.769   6.413  0.8776 -0.6588 -0.6702
  347Sol     HW 4428   1.330   2.746   6.364 -0.0870  0.2883  0.4000
  347Sol     HW 4429   1.416   2.702   6.480 -0.2333  0.4251  0.5601
  347Sol     MW 4430   1.403   2.761   6.415 -0.1116 -0.2892 -0.3555
  348Sol     OW 4431   2.036   3.383   5.640 -0.3696 -1.1638 -0.3650
  348Sol     HW 4432   2.071   3.348   5.723 -1.2630 -0.5607  0.2784
  348Sol     HW 4433   1.941   3.369   5.648 -0.7557  1.4860 -0.0592
  348Sol     MW 4434   2.030   3.378   5.648  0.7821  1.0007 -0.2096
  349Sol     OW 4435   0.336   1.886   6.677  0.3254 -0.5086 -0.0407
  349Sol     HW 4436   0.418   1.908   6.721  0.2332 -1.4252  0.6173
  349Sol     HW 4437   0.302   1.969   6.645 -0.3791  0.4351  2.9864
  349Sol     MW 4438   0.340   1.895   6.678 -0.2836  0.1304 -0.3514
  350Sol     OW 4439   3.242   3.410   8.021 -0.0949  0.2597 -0.1338
  350Sol     HW 4440   3.162   3.412   8.074 -0.2791  4.1768 -0.4249
  350Sol     HW 4441   3.217   3.451   7.939  1.6878 -0.5467 -1.1001
  350Sol     MW 4442   3.233   3.413   8.019 -0.2725  0.1297 -0.4168
  351Sol     OW 4443   0.615   0.474   2.799  0.5316  0.3599  0.3700
  351Sol     HW 4444   0.569   0.416   2.860  0.9109 -0.9285 -0.5507
  351Sol     HW 4445   0.707   0.467   2.825  0.7250 -0.3835 -0.4876
  351Sol     MW 4446   0.620   0.468   2.807 -0.1791 -0.2495  0.1228
  352Sol     OW 4447   2.541   0.886   5.112 -0.8228  0.4346  0.0869
  352Sol     HW 4448   2.495   0.829   5.051  2.8697 -2.2372 -0.3877
  352Sol     HW 4449   2.610   0.926   5.058  1.3317 -0.5359  2.0671
  352Sol     MW 4450   2.543   0.885   5.101 -0.1186 -0.3405 -0.2166
  353Sol     OW 4451   0.764   2.912   2.626 -0.1870 -0.3111 -0.1011
  353Sol     HW 4452   0.752   2.996   2.670  3.4277  0.3578 -0.2460
  353Sol     HW 4453   0.733   2.927   2.536 -0.6522  0.5194  0.1998
  353Sol     MW 4454   0.760   2.921   2.622 -0.6030 -0.6865  0.2023
  354Sol     OW 4455   1.246   1.570   4.568  0.2221 -0.0444  0.2794
  354Sol     HW 4456   1.287   1.559   4.482  0.2140  1.0023  0.1372
  354Sol     HW 4457   1.155   1.546   4.555  0.1066  0.6116 -0.1244
  354Sol     MW 4458   1.242   1.567   4.559 -0.7100  0.3538  0.6037
  355Sol     OW 4459   0.425   3.268   2.542 -0.7605 -0.7231 -0.4064
  355Sol     HW 4460   0.407   3.346   2.490 -1.0837 -0.7171 -0.2890
  355Sol     HW 4461   0.364   3.202   2.509 -1.5359 -0.4787  0.5047
  355Sol     MW 4462   0.418   3.269   2.535  0.5306 -0.2310 -0.2597
  356Sol     OW 4463   3.403   0.626   7.538  0.1270 -0.0194  0.7508
  356Sol     HW 4464   3.485   0.652   7.496 -1.8078  1.8233 -2.0493
  356Sol     HW 4465   3.374   0.549   7.490 -0.7806  0.5461  0.3644
  356Sol     MW 4466   3.408   0.622   7.530  0.4859  0.8023  0.2355
  357Sol     OW 4467   2.250   2.208   4.747 -0.0532  0.1406 -0.2619
  357Sol     HW 4468   2.224   2.169   4.830  0.5473  1.5527  0.6072
  357Sol     HW 4469   2.226   2.300   4.755  0.9995  0.5173 -1.2183
  357Sol     MW 4470   2.246   2.213   4.755 -0.5518  0.4444  0.3283
  358Sol     OW 4471   2.934   0.938   1.948 -0.1664  0.2790  0.0037
  358Sol     HW 4472   2.874   0.883   2.000 -0.3120  0.1914 -0.2555
  358Sol     HW 4473   2.961   0.881   1.876  0.1112  0.3706  0.0362
  358Sol     MW 4474   2.931   0.928   1.947  0.0006 -0.2255  0.5745
  359Sol     OW 4475   0.621   2.183   6.579 -0.1053 -0.4297 -0.1043
  359Sol     HW 4476   0.560   2.246   6.617 -0.4003 -0.6513 -0.2063
  359Sol     HW 4477   0.622   2.110   6.640  0.8043 -0.0099  0.3889
  359Sol     MW 4478   0.616   2.182   6.588  0.0808  0.4486  0.5134
  360Sol     OW 4479   0.320   1.603   3.363 -0.2945 -0.2344  0.1594
  360Sol     HW 4480   0.353   1.602   3.453  0.6552 -1.3779 -0.1923
  360Sol     HW 4481   0.383   1.656   3.314 -0.6969  0.2101  0.1129
  360Sol     MW 4482   0.329   1.608   3.367  0.0307 -0.2109  0.0927
  361Sol     OW 4483   0.078   0.524   1.577  0.0165  0.0364 -0.0512
  361Sol     HW 4484   0.105   0.534   1.669  1.8384 -0.3292 -0.5133
  361Sol     HW 4485  -0.011   0.490   1.581 -0.3474  1.1080  1.5742
  361Sol     MW 4486   0.073   0.522   1.586 -0.1467 -0.0751  0.0082
  362Sol     OW 4487   1.013   2.273   3.729  0.4124 -0.5672  0.0510
  362Sol     HW 4488   1.076   2.227   3.674  0.5814  0.6025 -0.7618
  362Sol     HW 4489   1.066   2.326   3.788  0.1930 -0.1101 -0.1644
  362Sol     MW 4490   1.023   2.273   3.729 -0.3267  0.2964 -0.7671
  363Sol     OW 4491   3.414   0.628   4.093  0.4715 -0.3784 -0.2791
  363Sol     HW 4492   3.428   0.637   4.188 -0.0996  0.1030 -0.2386
  363Sol     HW 4493   3.434   0.715   4.058  2.2677 -0.9852 -0.8070
  363Sol     MW 4494   3.418   0.637   4.099  0.5576 -0.2906  0.4785
  364Sol     OW 4495   1.261   1.430   7.657 -0.2772  0.5837 -0.1763
  364Sol     HW 4496   1.231   1.350   7.699 -0.8397  0.4465 -0.8316
  364Sol     HW 4497   1.337   1.403   7.605  0.8448  0.8803  1.2624
  364Sol     MW 4498   1.265   1.421   7.656 -0.4415  0.1058 -0.2296
  365Sol     OW 4499   1.575   0.687   8.141 -0.5239 -0.1994  0.4659
  365Sol     HW 4500   1.513   0.711   8.072  1.0230  0.0577 -0.8491
  365Sol     HW 4501   1.558   0.750   8.211 -2.0764 -0.4412  0.3342
  365Sol     MW 4502   1.568   0.695   8.141 -0.1033 -1.2446 -0.4677
  366Sol     OW 4503   2.734   2.744   3.373  0.0820  0.3749  0.1255
  366Sol     HW 4504   2.803   2.768   3.435  0.1325 -0.7212  0.4931
  366Sol     HW 4505   2.654   2.742   3.425  0.1156 -0.4875  0.1467
  366Sol     MW 4506   2.733   2.746   3.383 -0.4785  0.0892 -0.2321
  367Sol     OW 4507   3.349   2.520   3.814 -0.5574  0.4500 -0.0853
  367Sol     HW 4508   3.392   2.596   3.776  0.0420 -0.5147 -1.3575
  367Sol     HW 4509   3.389   2.510   3.901  2.5145 -0.9779 -1.5878
  367Sol     MW 4510   3.356   2.526   3.819 -0.4175 -0.1190 -0.3136
  368Sol     OW 4511   0.904   1.126   7.809 -0.0286 -0.4129  0.5046
  368Sol     HW 4512   0.987   1.168   7.785 -0.0449 -0.0551  1.0545
  368Sol     HW 4513   0.882   1.072   7.733 -0.3639  1.1314 -0.5197
  368Sol     MW 4514   0.910   1.125   7.800  0.3477 -0.1252 -0.2413
  369Sol     OW 4515   2.763   1.056   4.378 -0.1353 -0.5532 -0.3249
  369Sol     HW 4516   2.805   1.042   4.293 -1.1614 -0.4657 -0.8697
  369Sol     HW 4517   2.709   1.134   4.364 -1.5749 -1.4735 -0.1009
  369Sol     MW 4518   2.762   1.062   4.369 -0.1199  0.4361  0.2824
  370Sol     OW 4519   3.394   3.041   5.389  0.1797  0.0699  0.2489
  370Sol     HW 4520   3.433   3.032   5.475 -1.6323  1.5202  1.2591
  370Sol     HW 4521   3.466   3.024   5.328  1.6025 -0.4469  2.0257
  370Sol     MW 4522   3.404   3.038   5.391 -0.0844 -0.2499 -0.4618
  371Sol     OW 4523   0.513   2.092   4.340  0.3316  0.3250  0.1179
  371Sol     HW 4524   0.478   2.174   4.305  1.1992  0.4222 -0.5340
  371Sol     HW 4525   0.519   2.034   4.264  0.1678 -0.1880  0.4950
  371Sol     MW 4526   0.510   2.094   4.330 -0.4138 -0.4041 -0.5446
  372Sol     OW 4527   0.539   0.523   3.515 -0.0330 -0.0650  0.1755
  372Sol     HW 4528   0.487   0.549   3.439 -0.0422 -0.7617 -0.0629
  372Sol     HW 4529   0.615   0.478   3.477  0.4621  0.4585  0.5413
  372Sol     MW 4530   0.541   0.521   3.504 -0.1283  0.1410  1.2337
  373Sol     OW 4531   3.365   1.435   1.167 -0.2366 -0.4032  0.1745
  373Sol     HW 4532   3.370   1.400   1.256  2.0021 -0.8417 -0.0814
  373Sol     HW 4533   3.425   1.510   1.167  0.4942 -0.9554 -1.1716
  373Sol     MW 4534   3.371   1.438   1.175  0.1579 -0.2597  0.7117
  374Sol     OW 4535   3.383   2.071   4.016  1.1261  0.4232  0.1072
  374Sol     HW 4536   3.296   2.105   4.038 -0.4811 -2.9331 -0.5986
  374Sol     HW 4537   3.374   2.043   3.924  2.9680  0.0350  0.0358
  374Sol     MW 4538   3.374   2.071   4.009  0.5710  0.4884  0.3259
  375Sol     OW 4539   2.439   1.255   3.845 -0.2236 -0.3092  0.0321
  375Sol     HW 4540   2.388   1.335   3.829 -0.3809 -0.4973 -0.4064
  375Sol     HW 4541   2.470   1.264   3.935  0.6283  0.7446 -0.3512
  375Sol     MW 4542   2.437   1.263   3.852  0.1752  0.0674 -0.3118
  376Sol     OW 4543   3.451   0.514   2.934 -0.3701 -0.2151  0.0025
  376Sol     HW 4544   3.432   0.479   2.847  0.3356 -0.2118 -0.1506
  376Sol     HW 4545   3.381   0.578   2.949  0.1075  0.5528 -0.9979
  376Sol     MW 4546   3.443   0.516   2.928  0.6515 -0.4322  0.2453
  377Sol     OW 4547   1.451   2.893   3.342  0.3714 -0.3504  0.3731
  377Sol     HW 4548   1.509   2.946   3.396  1.9144 -1.0801 -0.5281
  377Sol     HW 4549   1.488   2.805   3.346  1.8021 -0.0493 -3.4977
  377Sol     MW 4550   1.459   2.890   3.347 -0.8587  0.6203 -0.4479
  378Sol     OW 4551   1.309   0.796   8.738  0.5528  0.3278 -0.4031
  378Sol     HW 4552   1.260   0.833   8.664  1.7535 -1.4658 -2.1165
  378Sol     HW 4553   1.394   0.839   8.735  0.5713  0.3313  0.0326
  378Sol     MW 4554   1.312   0.803   8.731  0.8300 -0.1266  0.2558
  379Sol     OW 4555   0.846   1.056   5.007  0.2054 -0.5499  0.3021
  379Sol     HW 4556   0.886   1.001   5.075 -0.4525 -1.2908  0.0937
  379Sol     HW 4557   0.767   1.089   5.048  0.1546 -0.4571  0.1244
  379Sol     MW 4558   0.843   1.054   5.017  0.4368 -0.1640  0.3064
  380Sol     OW 4559   0.763   2.229   4.268  0.7464  0.4526 -0.1063
  380Sol     HW 4560   0.693   2.182   4.313 -1.5760  2.1272 -1.8319
  380Sol     HW 4561   0.774   2.182   4.186  1.2827  0.5212 -0.0760
  380Sol     MW 4562   0.758   2.220   4.265  0.1857  0.3495  0.3819
  381Sol     OW 4563   2.443   0.553   4.667 -0.0358  0.2261  0.0944
  381Sol     HW 4564   2.404   0.630   4.627  0.0594 -0.1215 -0.6667
  381Sol     HW 4565   2.536   0.559   4.646 -0.0333 -0.1125  0.0082
  381Sol     MW 4566   2.448   0.561   4.662  0.5028  0.0246 -0.0828
  382Sol     OW 4567   2.418   1.093   8.126 -0.3195  1.0612  0.3083
  382Sol     HW 4568   2.494   1.036   8.115 -1.5966 -0.6892  0.4233
  382Sol     HW 4569   2.400   1.091   8.220 -0.7502  1.1510  0.2292
  382Sol     MW 4570   2.423   1.088   8.134 -0.4473 -0.4848  0.0955
  383Sol     OW 4571   0.892   2.619   2.301  0.1505  0.4648  0.2104
  383Sol     HW 4572   0.967   2.626   2.243  1.1103  0.9124  1.4899
  383Sol     HW 4573   0.852   2.535   2.278  1.9520 -0.5255  0.6215
  383Sol     MW 4574   0.895   2.612   2.293  0.2585 -0.1598  0.2693
  384Sol     OW 4575   3.473   1.152   3.020  0.8214 -0.5927  0.0691
  384Sol     HW 4576   3.389   1.158   3.066  0.9605 -2.3708  0.5995
  384Sol     HW 4577   3.538   1.177   3.086  0.7180  0.5847 -0.2814
  384Sol     MW 4578   3.471   1.155   3.030  0.1430  0.5347 -0.6744
  385Sol     OW 4579   2.525   1.897   3.541 -0.0021  0.1621 -0.1446
  385Sol     HW 4580   2.480   1.974   3.508  0.0285  0.5796  0.7588
  385Sol     HW 4581   2.493   1.824   3.488 -0.0244  0.7979 -1.0044
  385Sol     MW 4582   2.518   1.897   3.533 -0.0982 -0.7517  0.3614
  386Sol     OW 4583   2.739   2.087   2.790 -0.3143 -0.2955 -0.3395
  386Sol     HW 4584   2.818   2.075   2.737 -1.1084 -1.5719 -1.2722
  386Sol     HW 4585   2.747   2.175   2.826  0.7957  0.1716 -1.6779
  386Sol     MW 4586   2.747   2.094   2.789  0.0701  0.2486  0.1569
  387Sol     OW 4587   3.542   1.915   7.113  0.5328 -0.6816 -0.2992
  387Sol     HW 4588   3.607   1.876   7.172  0.6526 -2.1443 -1.3385
  387Sol     HW 4589   3.491   1.840   7.082 -0.9877  0.3413 -0.2976
  387Sol     MW 4590   3.544   1.904   7.115 -0.3398 -0.8191 -0.0301
  388Sol     OW 4591   1.984   2.866   3.821  0.2070  0.1897  0.2150
  388Sol     HW 4592   1.916   2.889   3.758  0.5580  0.6429  0.0060
  388Sol     HW 4593   1.952   2.900   3.904  0.6426  1.2850 -0.0611
  388Sol     MW 4594   1.975   2.871   3.823 -0.4695 -0.1080 -0.3176
  389Sol     OW 4595   3.055   0.394   7.489  0.4492 -0.4388 -0.1658
  389Sol     HW 4596   2.987   0.389   7.422  0.8496 -0.3250 -0.5850
  389Sol     HW 4597   3.137   0.396   7.440  0.8570 -2.6439  0.3953
  389Sol     MW 4598   3.057   0.394   7.479 -0.5029 -0.0051 -0.1437
  390Sol     OW 4599   2.013   1.660   2.610 -0.6434 -0.5400 -0.4665
  390Sol     HW 4600   2.010   1.674   2.704 -1.4006 -1.0315 -0.4136
  390Sol     HW 4601   2.067   1.581   2.600 -1.3461 -1.0390 -0.3771
  390Sol     MW 4602   2.018   1.654   2.617 -0.5518  0.0956 -0.5326
  391Sol     OW 4603   0.223   1.991   4.218  0.1283 -0.2050  0.0844
  391Sol     HW 4604   0.130   1.968   4.225 -0.1548  0.4446 -1.3917
  391Sol     HW 4605   0.269   1.917   4.258 -0.9995 -0.7959  0.3071
  391Sol     MW 4606   0.218   1.982   4.222 -0.5449 -0.0698  0.2994
  392Sol     OW 4607   0.045   2.050   6.896  0.0836 -0.3928 -0.4949
  392Sol     HW 4608   0.138   2.069   6.909  0.6041 -2.3469 -1.1185
  392Sol     HW 4609   0.015   2.018   6.981  0.3339 -1.0697 -0.6577
  392Sol     MW 4610   0.051   2.049   6.905  0.1909  0.7758  0.2867
  393Sol     OW 4611   3.411   1.565   2.932  0.1517 -0.2140  0.1318
  393Sol     HW 4612   3.458   1.519   3.001  1.4036  1.5084  0.4360
  393Sol     HW 4613   3.318   1.547   2.951  0.4553  0.5732  2.5001
  393Sol     MW 4614   3.407   1.559   2.940 -0.2172  0.6508  0.2328
  394Sol     OW 4615   0.657   2.208   6.887  0.1252 -0.2835 -0.4315
  394Sol     HW 4616   0.634   2.301   6.876 -0.0252 -0.1753  0.7527
  394Sol     HW 4617   0.739   2.209   6.935  0.6578 -0.7518 -1.3234
  394Sol     MW 4618   0.662   2.217   6.890  0.7077  0.0245 -0.7860
  395Sol     OW 4619   1.544   1.133   6.517  0.0935  0.2125 -0.9743
  395Sol     HW 4620   1.526   1.159   6.427  0.3574  1.6019 -0.6312
  395Sol     HW 4621   1.540   1.214   6.567 -1.6406 -0.7612  0.5316
  395Sol     MW 4622   1.542   1.142   6.513 -0.3188  0.1970  0.1365
  396Sol     OW 4623   1.378   0.999   5.358 -0.4400  0.0233  0.3717
  396Sol     HW 4624   1.338   1.079   5.323  0.8117  0.6958  0.4592
  396Sol     HW 4625   1.323   0.928   5.325 -0.8515  0.8386 -0.7095
  396Sol     MW 4626   1.370   1.000   5.352 -1.0569 -0.1398  0.2189
  397Sol     OW 4627   2.289   1.481   4.957 -0.0909  0.3170 -0.3639
  397Sol     HW 4628   2.274   1.400   4.907 -1.5230  1.2154 -1.4103
  397Sol     HW 4629   2.321   1.544   4.893 -0.3570  0.9990  0.1676
  397Sol     MW 4630   2.291   1.479   4.947  0.3182 -0.2760  0.0232
  398Sol     OW 4631   0.511   1.615   4.280  0.0838  0.5582 -0.0875
  398Sol     HW 4632   0.498   1.591   4.371  1.3784 -0.3205 -0.1259
  398Sol     HW 4633   0.574   1.687   4.282 -0.8558  1.3932 -0.2148
  398Sol     MW 4634   0.515   1.619   4.288 -0.6719 -0.0683  0.4472
  399Sol     OW 4635   1.778   0.912   4.103  0.0802 -0.3858  0.6596
  399Sol     HW 4636   1.827   0.859   4.041 -2.0169 -0.7468 -0.7369
  399Sol     HW 4637   1.837   0.922   4.178  1.7842 -1.8186 -0.4498
  399Sol     MW 4638   1.788   0.908   4.104 -0.0598 -0.5350  0.4538
  400Sol     OW 4639   3.399   0.324   6.415 -0.1491  0.2308 -0.3975
  400Sol     HW 4640   3.390   0.419   6.409 -1.7760  0.2096  1.2383
  400Sol     HW 4641   3.309   0.292   6.420  0.4364 -1.2647  0.8978
  400Sol     MW 4642   3.390   0.329   6.415 -0.6518 -0.3147 -0.6908
  401Sol     OW 4643   2.530   2.038   4.163  0.1898 -0.1344  0.3734
  401Sol     HW 4644   2.564   2.125   4.186 -1.3327  0.9721 -1.4789
  401Sol     HW 4645   2.462   2.021   4.228  0.5267  0.0352  0.7719
  401Sol     MW 4646   2.527   2.045   4.171 -0.0024 -0.2894  0.1045
  402Sol     OW 4647   3.203   1.604   3.555  0.0278 -0.5419  0.2726
  402Sol     HW 4648   3.195   1.698   3.545 -0.4644 -0.4054  1.8344
  402Sol     HW 4649   3.113   1.572   3.563  0.2046 -1.1192  0.0211
  402Sol     MW 4650   3.195   1.609   3.555  0.2827 -0.2889  0.3281
  403Sol     OW 4651   1.666   1.045   2.333  0.1885  0.3290  0.5174
  403Sol     HW 4652   1.633   1.087   2.413  0.5846 -2.5791  2.2562
  403Sol     HW 4653   1.761   1.058   2.336  0.1588  0.6329  0.2447
  403Sol     MW 4654   1.671   1.050   2.340 -0.1500  0.1159 -0.3178
  404Sol     OW 4655   2.107   3.230   8.341 -0.5642 -0.4354 -0.3499
  404Sol     HW 4656   2.142   3.144   8.365  0.3801 -1.3589 -4.5626
  404Sol     HW 4657   2.027   3.211   8.292 -1.1741  1.2054 -0.0486
  404Sol     MW 4658   2.103   3.221   8.339  0.3124 -0.1936  0.5944
  405Sol     OW 4659   1.816   2.840   1.557 -0.4047 -0.1736 -0.0103
  405Sol     HW 4660   1.733   2.880   1.581  0.0658  0.0438  1.2819
  405Sol     HW 4661   1.801   2.746   1.568 -0.4712 -0.1324  0.2646
  405Sol     MW 4662   1.807   2.835   1.560 -0.2653 -0.7400  0.2374
  406Sol     OW 4663   1.645   2.574   5.767 -0.6330 -0.0593  0.9182
  406Sol     HW 4664   1.676   2.517   5.837 -1.7365 -1.8740 -0.0303
  406Sol     HW 4665   1.551   2.580   5.780 -1.2059 -2.2029 -1.5882
  406Sol     MW 4666   1.639   2.569   5.774  0.0540  0.1486  0.0346
  407Sol     OW 4667   3.014   0.822   4.169  0.2370  0.3098 -0.1504
  407Sol     HW 4668   2.941   0.883   4.156  0.9146  1.4155  1.1754
  407Sol     HW 4669   3.077   0.845   4.100  1.4979  2.6675  1.7008
  407Sol     MW 4670   3.013   0.830   4.161 -0.3375  0.3765 -0.4332
  408Sol     OW 4671   1.141   1.006   6.204 -0.6907  0.5161  0.6219
  408Sol     HW 4672   1.106   0.930   6.250  3.8520 -1.9395  0.3094
  408Sol     HW 4673   1.156   0.975   6.115 -0.1673  2.2731  0.0795
  408Sol     MW 4674   1.139   0.996   6.200  0.2351 -0.1716 -0.1781
  409Sol     OW 4675   2.243   3.199   5.564 -0.2068 -0.1074 -0.1064
  409Sol     HW 4676   2.175   3.242   5.616 -0.5384 -2.3777  1.4229
  409Sol     HW 4677   2.199   3.178   5.481 -0.9277 -0.1232  0.2687
  409Sol     MW 4678   2.233   3.201   5.561 -0.0936 -0.5108  0.4734
  410Sol     OW 4679   1.960   1.358   7.038 -0.3947  0.2994 -0.1698
  410Sol     HW 4680   2.052   1.330   7.035 -0.4125  0.2127  0.0912
  410Sol     HW 4681   1.920   1.318   6.960 -0.3760 -0.2433  0.0965
  410Sol     MW 4682   1.965   1.352   7.031  0.2776  0.0790  0.1220
  411Sol     OW 4683   3.254   3.264   1.707  0.3801 -0.2100  0.1809
  411Sol     HW 4684   3.330   3.264   1.766 -0.5474 -0.8148  1.3997
  411Sol     HW 4685   3.180   3.284   1.764 -0.2400  1.5231 -1.2000
  411Sol     MW 4686   3.254   3.265   1.717 -0.8411 -0.0110 -0.5445
  412Sol     OW 4687   0.993   1.751   1.947 -0.2748  0.5093 -0.0011
  412Sol     HW 4688   0.945   1.816   1.896 -0.0721  1.1968  0.6787
  412Sol     HW 4689   0.929   1.682   1.964  0.0933 -0.5281 -2.5861
  412Sol     MW 4690   0.983   1.751   1.944 -0.2169 -1.0142  0.3351
  413Sol     OW 4691   1.819   0.505   4.420 -0.5077 -0.0918  0.1120
  413Sol     HW 4692   1.909   0.472   4.420 -1.0542 -1.5790  0.7251
  413Sol     HW 4693   1.796   0.510   4.327 -0.2917 -1.0954 -0.0014
  413Sol     MW 4694   1.825   0.503   4.411  0.6798 -0.2493 -0.3370
  414Sol     OW 4695   2.303   3.404   8.203  0.0692  0.1219 -0.6336
  414Sol     HW 4696   2.355   3.433   8.278 -0.8491 -0.4569  0.2493
  414Sol     HW 4697   2.217   3.381   8.241 -0.1319 -0.9855 -1.7173
  414Sol     MW 4698   2.300   3.404   8.213  0.3801 -0.6609 -0.2106
  415Sol     OW 4699   0.036   2.495   7.365  0.3235 -0.1257  0.2207
  415Sol     HW 4700   0.016   2.490   7.272 -0.4787 -0.8135  0.4222
  415Sol     HW 4701   0.019   2.407   7.398  0.8957  0.0353  0.9592
  415Sol     MW 4702   0.032   2.487   7.360  0.5305 -0.2294  0.4591
  416Sol     OW 4703   0.606   3.105   7.364  0.4132  0.3972  0.2403
  416Sol     HW 4704   0.516   3.097   7.394 -0.1094  1.4382 -0.9865
  416Sol     HW 4705   0.600   3.091   7.269  1.6246 -0.0965  0.2326
  416Sol     MW 4706   0.597   3.103   7.358 -0.1670  0.0326 -0.6525
  417Sol     OW 4707   3.059   0.601   7.704 -0.1072  0.6323 -0.3160
  417Sol     HW 4708   3.086   0.684   7.667  0.1952  0.2518 -0.9533
  417Sol     HW 4709   3.067   0.538   7.631 -1.9340  0.3718 -0.3217
  417Sol     MW 4710   3.062   0.603   7.694  0.0088  0.2002 -0.2302
  418Sol     OW 4711   2.079   1.189   3.092  0.6733 -0.6404  0.0232
  418Sol     HW 4712   1.983   1.191   3.096  0.6525  1.3398 -0.8312
  418Sol     HW 4713   2.099   1.114   3.036 -0.3428 -1.6337  0.9727
  418Sol     MW 4714   2.072   1.182   3.087  0.8679 -0.2553 -0.0232
  419Sol     OW 4715   2.039   2.853   6.503  0.7362  0.5987 -0.0609
  419Sol     HW 4716   2.050   2.773   6.554  1.1324  0.4831 -0.3318
  419Sol     HW 4717   1.981   2.907   6.557  2.2589  1.0493  1.1677
  419Sol     MW 4718   2.034   2.851   6.513 -0.8114  0.9815  0.6793
  420Sol     OW 4719   1.661   1.918   1.617 -0.4011 -0.1863 -0.3420
  420Sol     HW 4720   1.754   1.928   1.599 -0.6798  2.7188 -0.4571
  420Sol     HW 4721   1.656   1.894   1.709  0.4497  0.7069 -0.0509
  420Sol     MW 4722   1.668   1.917   1.624  0.0554  0.3015 -0.4584
  421Sol     OW 4723   1.912   0.730   3.501  0.3526 -0.4238 -0.0777
  421Sol     HW 4724   1.983   0.670   3.478  0.3621 -0.8062  0.9451
  421Sol     HW 4725   1.891   0.709   3.592  1.6573  2.3763  0.9361
  421Sol     MW 4726   1.916   0.723   3.507 -0.1638  0.0962  0.1315
  422Sol     OW 4727   3.045   1.614   5.925  0.2275  0.2578  0.4153
  422Sol     HW 4728   3.027   1.707   5.914  1.1871  0.6227  1.8317
  422Sol     HW 4729   3.009   1.592   6.011  2.1378 -0.1102  1.1433
  422Sol     MW 4730   3.040   1.620   5.932  0.4266 -0.2674 -0.0568
  423Sol     OW 4731   0.622   0.018   6.324  0.3044 -0.1337  0.7076
  423Sol     HW 4732   0.576   0.001   6.241 -0.5300 -0.3906  1.2142
  423Sol     HW 4733   0.666  -0.064   6.344  1.3040  0.2306  0.0262
  423Sol     MW 4734   0.622   0.009   6.318 -0.5514  0.4975  0.2010
  424Sol     OW 4735   1.396   2.187   2.226 -0.1024 -0.5404  0.2157
  424Sol     HW 4736   1.325   2.152   2.172  0.8843 -0.0908 -1.3926
  424Sol     HW 4737   1.424   2.112   2.279 -0.7288 -1.1218 -0.2676
  424Sol     MW 4738   1.392   2.177   2.226  0.5768  0.8894 -0.6340
  425Sol     OW 4739   1.738   1.253   7.527  0.2502 -0.3539  0.6791
  425Sol     HW 4740   1.789   1.305   7.589 -0.7058  2.0159 -0.4496
  425Sol     HW 4741   1.783   1.265   7.443 -1.0386  0.1854  0.0514
  425Sol     MW 4742   1.747   1.259   7.525  0.3452  0.6000 -0.1359
  426Sol     OW 4743   2.454   0.255   8.752 -0.5395  0.3519 -0.1862
  426Sol     HW 4744   2.498   0.216   8.827  2.2534  2.7346 -0.5118
  426Sol     HW 4745   2.385   0.310   8.791  2.2724  3.2873  0.8332
  426Sol     MW 4746   2.451   0.257   8.762  0.3318  0.2115 -0.4918
  427Sol     OW 4747   0.267   2.155   7.228 -0.0353  0.2315  0.3049
  427Sol     HW 4748   0.278   2.134   7.321  2.0010 -0.7255 -0.1440
  427Sol     HW 4749   0.354   2.179   7.198 -0.3716 -1.0807 -1.7664
  427Sol     MW 4750   0.276   2.155   7.234  0.2664 -0.4480  0.1175
  428Sol     OW 4751   3.127   1.307   1.083  0.3931 -0.0950  0.1769
  428Sol     HW 4752   3.213   1.348   1.080 -0.1723  1.0270 -2.1591
  428Sol     HW 4753   3.069   1.373   1.121  0.5478 -0.8622  1.7874
  428Sol     MW 4754   3.129   1.316   1.086  0.4736  0.0253 -0.2016
  429Sol     OW 4755   0.604   3.087   1.445  0.2589 -0.0363 -0.0831
  429Sol     HW 4756   0.643   3.008   1.482 -0.0570  1.4287  3.5695
  429Sol     HW 4757   0.510   3.069   1.442  0.1585  0.3158  1.0163
  429Sol     MW 4758   0.600   3.078   1.448 -0.2152  0.1281  0.2286
  430Sol     OW 4759   1.041   1.937   8.668 -0.2555  0.0332 -0.5261
  430Sol     HW 4760   1.007   1.958   8.755  0.3510 -1.5109  0.0936
  430Sol     HW 4761   1.083   2.018   8.638  0.4775  0.2584  1.0665
  430Sol     MW 4762   1.042   1.946   8.673  0.5130 -0.4686 -0.4005
  431Sol     OW 4763   0.261   0.769   6.214  0.2061  0.6991 -0.0290
  431Sol     HW 4764   0.343   0.744   6.257  0.0085  0.3601  0.1584
  431Sol     HW 4765   0.287   0.794   6.126  0.4792  0.3277 -0.0559
  431Sol     MW 4766   0.271   0.769   6.210 -0.2538 -0.3029  0.3071
  432Sol     OW 4767   2.002   1.486   4.957  0.4039 -0.3306  0.4655
  432Sol     HW 4768   1.991   1.541   5.034 -0.0009 -0.4387  0.4885
  432Sol     HW 4769   2.095   1.491   4.936  0.1239  1.5243 -0.3898
  432Sol     MW 4770   2.009   1.491   4.962  0.9896  0.5283  0.0374
  433Sol     OW 4771   2.620   1.257   2.075 -0.0612 -0.1605  0.5688
  433Sol     HW 4772   2.615   1.277   1.981 -0.9294 -1.9974  0.1960
  433Sol     HW 4773   2.553   1.312   2.114 -1.1226 -0.8802 -0.1909
  433Sol     MW 4774   2.613   1.263   2.070  0.1789 -0.0422  0.3312
  434Sol     OW 4775   1.184   2.315   9.023 -0.3822  0.0782 -0.0016
  434Sol     HW 4776   1.154   2.243   9.078 -0.9741  0.0946 -0.2994
  434Sol     HW 4777   1.127   2.312   8.946  1.5591 -1.0574 -1.4380
  434Sol     MW 4778   1.176   2.308   9.021 -0.4213  0.7603 -0.2488
  435Sol     OW 4779   1.588   2.352   5.056 -0.0965 -0.1170 -0.2674
  435Sol     HW 4780   1.647   2.281   5.030 -1.4390 -1.1626 -0.4990
  435Sol     HW 4781   1.524   2.311   5.114 -1.3370  0.7319 -1.0044
  435Sol     MW 4782   1.588   2.342   5.059 -0.0124 -0.1165 -0.3947
  436Sol     OW 4783   0.356   3.407   1.914  0.4077 -0.1313  0.2105
  436Sol     HW 4784   0.364   3.466   1.989  0.0709  0.1478  0.0228
  436Sol     HW 4785   0.381   3.460   1.838  0.4114 -0.3187  0.0791
  436Sol     MW 4786   0.359   3.417   1.914 -0.5907  0.0915  0.3459
  437Sol     OW 4787   1.634   3.180   2.756 -0.7009 -0.1790 -0.0663
  437Sol     HW 4788   1.717   3.226   2.766 -0.4467 -0.7846  0.6838
  437Sol     HW 4789   1.622   3.132   2.839 -1.0255 -1.3287 -0.7582
  437Sol     MW 4790   1.640   3.180   2.764  0.1569  0.1754  0.6843
  438Sol     OW 4791   3.169   2.364   5.983  0.2413 -0.2126 -0.8299
  438Sol     HW 4792   3.209   2.451   5.986  1.2685 -0.6803 -0.4882
  438Sol     HW 4793   3.127   2.359   5.898  4.0461 -1.0170 -2.7891
  438Sol     MW 4794   3.169   2.371   5.976  0.2741  0.3100  0.0045
  439Sol     OW 4795   3.184   1.351   2.386  0.3028 -0.4558  0.0119
  439Sol     HW 4796   3.202   1.272   2.437 -1.9247 -0.0669  1.4690
  439Sol     HW 4797   3.116   1.397   2.435 -1.1734  0.4785 -2.7697
  439Sol     MW 4798   3.180   1.348   2.395  0.1458 -0.0808  0.4103
  440Sol     OW 4799   1.011   0.693   8.428  0.2329  0.3965  0.2012
  440Sol     HW 4800   1.005   0.612   8.480  2.0215  0.4340  0.5057
  440Sol     HW 4801   1.070   0.671   8.357 -0.0551  1.1620 -0.2757
  440Sol     MW 4802   1.016   0.683   8.427 -0.0183  0.4437  0.1067
  441Sol     OW 4803   2.005   2.965   6.250  0.3868 -0.7849  0.0782
  441Sol     HW 4804   1.916   2.942   6.225 -0.7125  1.0261  2.1275
  441Sol     HW 4805   2.015   2.930   6.339  1.1329  0.4528  0.4986
  441Sol     MW 4806   1.998   2.960   6.256 -0.0489 -0.3044 -0.1266
  442Sol     OW 4807   1.657   2.249   2.143 -0.0411  0.5676 -0.3357
  442Sol     HW 4808   1.567   2.223   2.165  0.5564 -0.7180  0.6528
  442Sol     HW 4809   1.655   2.345   2.145 -1.6024  0.5648 -1.1858
  442Sol     MW 4810   1.649   2.255   2.145 -0.8331 -0.1931 -0.1917
  443Sol     OW 4811   1.467   1.982   4.446  0.2093 -0.6451 -0.3705
  443Sol     HW 4812   1.516   2.064   4.440 -1.7512  0.6097  0.1903
  443Sol     HW 4813   1.395   1.992   4.384  0.4726 -2.3315 -0.9702
  443Sol     MW 4814   1.465   1.990   4.440  0.0293  0.0157  0.3713
  444Sol     OW 4815   3.133   2.764   8.556  0.2168 -0.2082  0.3252
  444Sol     HW 4816   3.157   2.677   8.585  1.5525  0.1978  0.4731
  444Sol     HW 4817   3.202   2.789   8.494  0.6336  1.3060  1.3712
  444Sol     MW 4818   3.141   2.759   8.553  0.4095 -0.5462  0.2218
  445Sol     OW 4819   0.541   3.387   2.825 -0.3090  0.3607  0.5276
  445Sol     HW 4820   0.446   3.378   2.818 -0.1265 -0.8489 -0.7085
  445Sol     HW 4821   0.575   3.299   2.811  1.0062  0.8277  0.6617
  445Sol     MW 4822   0.536   3.378   2.823  0.0381 -0.3647  0.1978
  446Sol     OW 4823   1.553   2.729   7.426  0.3215 -0.7039 -0.4877
  446Sol     HW 4824   1.480   2.692   7.475  1.3105 -0.3577  1.2841
  446Sol     HW 4825   1.518   2.810   7.389 -0.1915 -0.5238  0.3763
  446Sol     MW 4826   1.543   2.733   7.427 -0.1078  0.3241 -0.1821
  447Sol     OW 4827   1.336   3.402   2.978  0.5941 -0.0307 -0.5325
  447Sol     HW 4828   1.280   3.477   2.999  2.3217  1.4678 -1.1401
  447Sol     HW 4829   1.315   3.337   3.045 -3.3349 -0.3351 -1.8982
  447Sol     MW 4830   1.329   3.403   2.986  0.2907  0.4350  0.6182
  448Sol     OW 4831   0.371   1.150   4.388  0.0165 -0.1168 -0.3338
  448Sol     HW 4832   0.443   1.177   4.445 -0.2108  0.2872 -0.2415
  448Sol     HW 4833   0.299   1.132   4.448 -0.1292  0.0134 -0.4724
  448Sol     MW 4834   0.371   1.151   4.399 -0.1278 -0.4964 -0.2754
  449Sol     OW 4835   0.346   2.947   3.637 -0.2463 -0.4188  0.6603
  449Sol     HW 4836   0.425   2.934   3.583 -0.0972 -0.3600  0.8642
  449Sol     HW 4837   0.374   3.008   3.706 -1.0741  1.4400 -0.5982
  449Sol     MW 4838   0.356   2.952   3.638  0.5844 -0.0651  0.0439
  450Sol     OW 4839   3.063   1.355   2.124 -0.2853  0.8272  0.4980
  450Sol     HW 4840   3.093   1.361   2.215  0.8982 -1.0765  0.2600
  450Sol     HW 4841   2.999   1.284   2.125  0.3659  0.2088 -0.2850
  450Sol     MW 4842   3.060   1.349   2.132  0.0678  0.0882  0.2503
  451Sol     OW 4843   1.508   0.356   7.903 -0.4426 -0.2578  0.3421
  451Sol     HW 4844   1.482   0.313   7.821 -0.9975 -1.6191  1.2045
  451Sol     HW 4845   1.564   0.428   7.875 -2.3069  0.6037 -1.3726
  451Sol     MW 4846   1.511   0.359   7.893 -0.6391  0.2377 -0.1399
  452Sol     OW 4847   2.384   2.884   4.144 -0.0236 -0.5731  0.3057
  452Sol     HW 4848   2.375   2.811   4.083 -0.1793  1.0809 -1.7052
  452Sol     HW 4849   2.298   2.925   4.145 -0.3932 -1.3296  2.6709
  452Sol     MW 4850   2.376   2.881   4.138 -0.3894  0.5669  0.2189
  453Sol     OW 4851   1.840   2.921   5.655 -0.4512 -0.6614 -0.8202
  453Sol     HW 4852   1.877   2.904   5.741 -0.1601  0.3990 -0.7329
  453Sol     HW 4853   1.881   2.856   5.598  1.5062  0.4586 -0.7186
  453Sol     MW 4854   1.847   2.914   5.657 -0.3855 -0.0056  0.1377
  454Sol     OW 4855   0.316   2.511   7.752 -0.6510 -0.0719  0.2054
  454Sol     HW 4856   0.366   2.551   7.680  0.7441 -1.3428  0.4391
  454Sol     HW 4857   0.364   2.534   7.831 -0.1540 -1.6470  0.3980
  454Sol     MW 4858   0.325   2.516   7.752 -0.3565  0.0662  0.4813
  455Sol     OW 4859   2.914   2.387   6.785  0.0801  0.2295 -0.2049
  455Sol     HW 4860   2.864   2.353   6.711  2.6045 -0.5622 -1.5992
  455Sol     HW 4861   2.848   2.424   6.843 -2.0586 -0.2110 -2.2717
  455Sol     MW 4862   2.903   2.387   6.784  0.0762  0.0636 -0.3642
  456Sol     OW 4863   1.463   0.018   6.529  0.4797 -0.1925  0.0356
  456Sol     HW 4864   1.549  -0.020   6.508  1.0267  1.2631 -0.4063
  456Sol     HW 4865   1.483   0.104   6.565 -0.7540 -0.3255  1.0627
  456Sol     MW 4866   1.473   0.022   6.531 -0.3144 -0.4380  0.0238
  457Sol     OW 4867   0.871   0.950   7.607  0.4967 -0.2046  0.0318
  457Sol     HW 4868   0.945   0.894   7.631  0.3812 -0.6448 -0.6127
  457Sol     HW 4869   0.817   0.894   7.551  0.4366  0.5940 -0.7051
  457Sol     MW 4870   0.873   0.940   7.604 -0.7576  0.3195  0.2532
  458Sol     OW 4871   3.519   1.167   7.321 -0.4922 -0.0388 -0.1654
  458Sol     HW 4872   3.603   1.130   7.351 -0.8557 -0.4177  0.3845
  458Sol     HW 4873   3.480   1.097   7.269 -1.0895 -0.3603  0.7086
  458Sol     MW 4874   3.523   1.157   7.319  0.2989 -0.5173 -0.2267
  459Sol     OW 4875   2.284   3.355   5.045 -0.3887 -0.4556  0.7133
  459Sol     HW 4876   2.257   3.398   5.126 -1.6871 -3.0155  1.6769
  459Sol     HW 4877   2.337   3.281   5.073 -0.5751 -1.1762 -0.7757
  459Sol     MW 4878   2.286   3.352   5.055  0.5230  0.6307  0.1069
  460Sol     OW 4879   2.402   1.475   5.367 -0.0635 -0.5271 -0.2758
  460Sol     HW 4880   2.319   1.453   5.323 -1.2261 -0.8355  1.9882
  460Sol     HW 4881   2.389   1.565   5.397  1.0421 -0.0337 -1.2379
  460Sol     MW 4882   2.393   1.481   5.366  0.0374  0.3074  0.0130
  461Sol     OW 4883   2.631   0.095   4.848 -0.4381  0.0434 -0.4592
  461Sol     HW 4884   2.669   0.097   4.936  1.5965 -1.6757 -1.2585
  461Sol     HW 4885   2.689   0.150   4.796 -1.1557  0.3705 -0.9238
  461Sol     MW 4886   2.640   0.100   4.851 -0.4779 -0.0124 -0.3468
  462Sol     OW 4887   0.136   2.280   7.656 -0.7089 -0.0866 -0.4980
  462Sol     HW 4888   0.202   2.349   7.662 -1.0397  0.2658 -0.8978
  462Sol     HW 4889   0.180   2.202   7.691  0.0429  0.0572 -1.1006
  462Sol     MW 4890   0.146   2.279   7.660  0.2430  0.4700 -0.2170
  463Sol     OW 4891   2.517   2.327   4.946  0.0350 -0.4271 -0.7253
  463Sol     HW 4892   2.422   2.340   4.939  0.2332  1.6651  0.1495
  463Sol     HW 4893   2.545   2.391   5.010  2.1747 -0.5214 -1.5357
  463Sol     MW 4894   2.511   2.334   4.951  0.3514  0.1257  0.0475
  464Sol     OW 4895   0.635   3.290   1.676 -0.3829 -0.3589 -0.2819
  464Sol     HW 4896   0.719   3.334   1.690 -0.9494  0.0176  2.2008
  464Sol     HW 4897   0.654   3.221   1.612  1.3469  1.0406 -1.3066
  464Sol     MW 4898   0.644   3.287   1.671 -0.2430 -0.8609 -0.4363
  465Sol     OW 4899   2.828   2.754   7.192 -0.1353 -0.4791 -0.5689
  465Sol     HW 4900   2.915   2.722   7.171  0.8255  2.0097 -0.5364
  465Sol     HW 4901   2.815   2.732   7.284  0.5479 -0.6736 -0.5192
  465Sol     MW 4902   2.834   2.749   7.199  0.0510  0.2781  0.1370
  466Sol     OW 4903   2.961   0.906   8.766  0.2573 -0.1600 -0.4709
  466Sol     HW 4904   2.867   0.924   8.768 -0.0634 -1.4453 -2.3415
  466Sol     HW 4905   2.969   0.827   8.712  2.4851  0.4486 -1.0916
  466Sol     MW 4906   2.954   0.901   8.761  0.0344  0.5412  0.0205
  467Sol     OW 4907   1.037   2.575   8.607  0.3511  0.1182 -0.1138
  467Sol     HW 4908   1.071   2.635   8.672 -0.6540  1.2731 -0.6147
  467Sol     HW 4909   0.986   2.631   8.548 -1.0065 -1.2895 -0.3151
  467Sol     MW 4910   1.035   2.585   8.607 -0.7508 -0.3705  0.1430
  468Sol     OW 4911   1.815   2.182   5.046 -0.7925  0.6722 -0.0906
  468Sol     HW 4912   1.817   2.205   5.139 -1.9272  1.8313 -0.3216
  468Sol     HW 4913   1.809   2.087   5.044 -0.1488  0.6112  1.0170
  468Sol     MW 4914   1.814   2.176   5.054  0.7717 -0.1365  0.5231
  469Sol     OW 4915   0.124   2.015   3.433  0.2886  0.1701  0.2265
  469Sol     HW 4916   0.114   1.978   3.521  2.8174 -0.2927  0.3547
  469Sol     HW 4917   0.069   2.094   3.435 -1.6917 -1.1695  1.3621
  469Sol     MW 4918   0.118   2.019   3.441  0.2155 -0.1058  0.3534
  470Sol     OW 4919   1.084   2.149   5.424 -0.1615  0.4704  0.8079
  470Sol     HW 4920   1.100   2.120   5.334 -0.2720  1.2870  0.5138
  470Sol     HW 4921   1.126   2.235   5.429  1.5552 -0.4296  2.1468
  470Sol     MW 4922   1.089   2.154   5.416  0.3359 -0.0916  0.1936
  471Sol     OW 4923   3.137   1.266   7.396 -0.6476 -0.5364  0.1069
  471Sol     HW 4924   3.076   1.255   7.470 -0.8165 -2.6857 -0.3145
  471Sol     HW 4925   3.135   1.182   7.351  1.9665 -0.3383 -0.4567
  471Sol     MW 4926   3.131   1.258   7.399  0.2915  0.1290  0.3743
  472Sol     OW 4927   2.261   2.823   4.512 -0.1327  0.0601 -0.1264
  472Sol     HW 4928   2.237   2.864   4.595  1.2081  1.6283 -0.5070
  472Sol     HW 4929   2.178   2.816   4.464 -0.3515  2.4984 -0.1384
  472Sol     MW 4930   2.251   2.826   4.515 -0.0317 -0.5506 -0.1567
  473Sol     OW 4931   3.543   0.663   1.115 -0.4366  0.0935  0.0013
  473Sol     HW 4932   3.558   0.750   1.150 -1.2766  0.0017  0.5826
  473Sol     HW 4933   3.586   0.604   1.177 -1.3939 -0.0239  0.5694
  473Sol     MW 4934   3.548   0.665   1.123  0.0370  0.1872  0.2016
  474Sol     OW 4935   1.434   2.711   1.635 -0.0640 -0.4331  0.4135
  474Sol     HW 4936   1.348   2.708   1.595  1.6693 -0.0528 -3.6212
  474Sol     HW 4937   1.483   2.640   1.593  1.5879 -0.6897  2.6754
  474Sol     MW 4938   1.431   2.705   1.628 -0.2684  0.1298  0.0361
  475Sol     OW 4939   1.691   2.939   6.882  0.3215  0.9319 -0.2831
  475Sol     HW 4940   1.780   2.906   6.894 -0.2933 -1.3962 -1.9204
  475Sol     HW 4941   1.641   2.899   6.952 -0.1385 -0.6136 -1.4610
  475Sol     MW 4942   1.695   2.933   6.889  0.6306 -0.0118 -0.4798
  476Sol     OW 4943   0.079   2.619   7.669 -0.3791 -0.0801 -0.2691
  476Sol     HW 4944   0.154   2.563   7.690 -0.7405 -0.4084  0.1650
  476Sol     HW 4945   0.078   2.684   7.740  0.2617  0.7076 -0.9714
  476Sol     MW 4946   0.086   2.620   7.677 -0.5019  0.2449 -0.6528
  477Sol     OW 4947   0.924   2.953   1.894  0.0733 -0.3292 -0.1619
  477Sol     HW 4948   0.841   2.966   1.941 -0.2867 -0.1381 -0.8483
  477Sol     HW 4949   0.938   3.035   1.847  1.1138 -0.0249  0.6628
  477Sol     MW 4950   0.918   2.961   1.894  0.0968  0.3102  0.2424
  478Sol     OW 4951   3.476   0.294   5.944 -0.1219  0.4120 -0.5601
  478Sol     HW 4952   3.469   0.376   5.896  0.2559  0.2923 -0.8301
  478Sol     HW 4953   3.480   0.227   5.876 -3.0625 -0.0644 -0.3133
  478Sol     MW 4954   3.476   0.295   5.933 -0.6913  0.0472 -0.9997
  479Sol     OW 4955   0.483   3.147   6.536 -0.0990 -0.1131  0.7061
  479Sol     HW 4956   0.478   3.054   6.555  0.0686 -0.5529 -1.2842
  479Sol     HW 4957   0.408   3.164   6.478  0.4612  0.7641  0.2216
  479Sol     MW 4958   0.476   3.140   6.532  0.8260 -0.4779  0.0643
  480Sol     OW 4959   2.348   0.507   2.934 -0.2031  0.0021 -0.4402
  480Sol     HW 4960   2.291   0.562   2.987 -1.0056  0.0707 -1.3489
  480Sol     HW 4961   2.410   0.568   2.894  0.6049 -0.0901  0.6633
  480Sol     MW 4962   2.349   0.517   2.935  0.3495 -0.2540  0.4560
  481Sol     OW 4963   2.415   2.856   5.618 -0.0623 -0.0418 -0.0469
  481Sol     HW 4964   2.342   2.844   5.678 -0.0156  0.2173  0.0599
  481Sol     HW 4965   2.433   2.950   5.620 -0.2038  0.0035 -0.6313
  481Sol     MW 4966   2.410   2.863   5.624  0.1810  0.2419  0.0682
  482Sol     OW 4967   3.489   2.449   6.736 -0.4216 -0.4859 -0.3157
  482Sol     HW 4968   3.475   2.502   6.814  0.0514  0.8034 -1.0913
  482Sol     HW 4969   3.584   2.445   6.725 -0.4576 -1.3004 -0.4048
  482Sol     MW 4970   3.496   2.453   6.742  0.2778 -0.0288  0.0370
  483Sol     OW 4971   2.555   2.102   2.148 -0.0023  0.2920  0.1648
  483Sol     HW 4972   2.515   2.017   2.128 -1.9841  1.3190 -0.3560
  483Sol     HW 4973   2.649   2.085   2.149 -0.3753 -1.8793 -0.0676
  483Sol     MW 4974   2.560   2.093   2.147 -1.0991 -0.0957  0.3698
  484Sol     OW 4975   1.492   2.459   7.298 -0.3661 -0.1524  0.4199
  484Sol     HW 4976   1.539   2.537   7.329 -0.4804  0.7254 -1.5987
  484Sol     HW 4977   1.561   2.394   7.282  0.1306  0.9289 -1.9295
  484Sol     MW 4978   1.503   2.460   7.300  0.1864 -0.4893 -0.3193
  485Sol     OW 4979   0.228   1.550   6.692  0.0862  0.6185  0.4396
  485Sol     HW 4980   0.299   1.541   6.755 -0.2436 -0.6458  0.6317
  485Sol     HW 4981   0.262   1.510   6.612 -0.1548  0.6267  0.3321
  485Sol     MW 4982   0.238   1.546   6.690 -0.0280 -0.1300  0.1182
  486Sol     OW 4983   0.914   1.918   2.768 -0.1956 -0.4581 -0.5863
  486Sol     HW 4984   0.848   1.981   2.739  0.5886  0.9754  0.6454
  486Sol     HW 4985   0.866   1.836   2.780 -1.4868  0.2279 -0.9881
  486Sol     MW 4986   0.904   1.917   2.767 -0.2802 -0.7083 -0.1130
  487Sol     OW 4987   2.836   1.523   6.114  0.3552 -0.5967 -0.1808
  487Sol     HW 4988   2.784   1.558   6.042  0.0165 -1.0578 -0.1634
  487Sol     HW 4989   2.806   1.572   6.191  1.3168  0.4921 -0.4832
  487Sol     MW 4990   2.829   1.530   6.114 -0.4558  0.7898 -1.0949
  488Sol     OW 4991   2.855   0.636   7.922 -0.2217 -0.0720  0.0258
  488Sol     HW 4992   2.879   0.596   8.006 -0.0216  0.8150  0.4004
  488Sol     HW 4993   2.917   0.599   7.859  0.0354 -0.2651  0.3892
  488Sol     MW 4994   2.863   0.629   7.924  0.5226  0.2869 -1.7271
  489Sol     OW 4995   1.396   2.312   2.578  0.2873  0.6042 -0.3294
  489Sol     HW 4996   1.341   2.353   2.645 -2.4054 -0.4924 -1.7715
  489Sol     HW 4997   1.386   2.369   2.501  0.3606 -0.1514 -0.9032
  489Sol     MW 4998   1.390   2.321   2.577 -0.2009  0.0135 -0.0986
  490Sol     OW 4999   1.169   2.173   7.989 -0.6035  0.0050  0.6204
  490Sol     HW 5000   1.119   2.106   7.943 -1.6838  0.4514  1.1236
  490Sol     HW 5001   1.191   2.134   8.073  0.3564 -0.3762  0.2095
  490Sol     MW 5002   1.167   2.164   7.992 -0.0351  0.6716 -0.2611
  491Sol     OW 5003   1.523   2.867   6.029  0.1671  0.4506 -0.5757
  491Sol     HW 5004   1.433   2.868   5.999  0.0264 -2.4767 -0.3462
  491Sol     HW 5005   1.576   2.869   5.949 -0.0569  2.2035 -0.7078
  491Sol     MW 5006   1.520   2.867   6.019  0.8254 -0.0693 -0.0399
  492Sol     OW 5007   2.694   0.989   8.016  0.4606  0.3958 -0.5857
  492Sol     HW 5008   2.669   0.931   7.944 -0.3872  0.0539 -0.0207
  492Sol     HW 5009   2.679   1.077   7.982  2.3784  0.3313 -1.6806
  492Sol     MW 5010   2.691   0.992   8.006  0.8860 -0.3175 -0.0416
  493Sol     OW 5011   2.011   0.614   6.431 -0.2943  0.7769 -0.5390
  493Sol     HW 5012   2.057   0.693   6.459  0.5600  0.0738  0.0281
  493Sol     HW 5013   1.920   0.643   6.419 -0.2332  1.5707  0.8420
  493Sol     MW 5014   2.007   0.624   6.432 -0.6417  0.4261 -0.0429
  494Sol     OW 5015   1.655   3.121   2.154  0.0002 -0.6994  0.2740
  494Sol     HW 5016   1.637   3.111   2.248  0.4971 -0.0380  0.4435
  494Sol     HW 5017   1.569   3.110   2.112 -0.4531  0.2998  0.9160
  494Sol     MW 5018   1.645   3.119   2.159 -0.0241  0.8215  0.3367
  495Sol     OW 5019   1.474   1.144   8.264  0.3332  0.2810 -0.3121
  495Sol     HW 5020   1.497   1.122   8.355  3.8906  1.3298 -0.8890
  495Sol     HW 5021   1.391   1.191   8.272  0.4273  0.1071  2.3606
  495Sol     MW 5022   1.468   1.146   8.273 -0.2385  0.0468  0.0253
  496Sol     OW 5023   0.327   2.167   1.912 -0.0407  0.3210  0.4607
  496Sol     HW 5024   0.235   2.193   1.926 -0.6450 -2.1067  1.1534
  496Sol     HW 5025   0.377   2.244   1.937 -1.8358  1.1978  1.4937
  496Sol     MW 5026   0.323   2.176   1.915 -1.2760  0.1435  0.1827
  497Sol     OW 5027   2.265   0.241   3.736 -1.0628  0.2630 -0.1072
  497Sol     HW 5028   2.358   0.221   3.726 -0.6825  1.6368  0.6448
  497Sol     HW 5029   2.223   0.192   3.665  0.5745  2.0928 -2.4292
  497Sol     MW 5030   2.270   0.235   3.728  0.1182  0.2848  0.3123
  498Sol     OW 5031   0.350   0.364   2.633 -0.2499 -0.2040  0.1621
  498Sol     HW 5032   0.358   0.363   2.729 -0.6554  0.9774  0.2192
  498Sol     HW 5033   0.271   0.415   2.617  1.1329  1.6851 -0.8780
  498Sol     MW 5034   0.344   0.368   2.640  0.4322  0.4125  0.2333
  499Sol     OW 5035   2.918   1.042   9.005  0.3211 -0.2096  0.2930
  499Sol     HW 5036   2.956   0.987   8.937 -2.7678 -0.4368 -1.3527
  499Sol     HW 5037   2.961   1.127   8.995 -0.1881 -0.2043 -2.0678
  499Sol     MW 5038   2.925   1.045   8.998 -0.5317 -0.3361  0.7477
  500Sol     OW 5039   2.017   1.003   2.534  0.3135  0.0915  0.2169
  500Sol     HW 5040   2.012   1.098   2.523  1.6838  0.2495  0.9042
  500Sol     HW 5041   2.072   0.973   2.461  2.3749  0.1779  1.7158
  500Sol     MW 5042   2.021   1.009   2.526  0.0679  0.4946 -0.2076
  501Sol     OW 5043   2.872   0.633   5.440 -0.0589 -0.2697 -0.0704
  501Sol     HW 5044   2.873   0.650   5.346 -0.5812 -0.3970 -0.1010
  501Sol     HW 5045   2.909   0.545   5.449  0.0180 -0.2459 -0.1514
  501Sol     MW 5046   2.875   0.627   5.432 -0.2015 -0.5318  0.1567
  502Sol     OW 5047   2.333   1.961   4.334  0.1495  0.4589 -0.2770
  502Sol     HW 5048   2.312   2.008   4.414  0.8106  1.2085 -0.5368
  502Sol     HW 5049   2.255   1.971   4.279  0.1778  1.0060 -0.2181
  502Sol     MW 5050   2.324   1.966   4.336 -0.4923 -0.4450 -0.0445
  503Sol     OW 5051   2.250   0.617   2.408 -0.2490 -0.4208 -0.6460
  503Sol     HW 5052   2.215   0.589   2.493 -2.2849 -0.1839 -1.3889
  503Sol     HW 5053   2.205   0.562   2.344 -1.8114  2.2096 -1.8734
  503Sol     MW 5054   2.243   0.609   2.410 -0.3249  0.3307  0.0461
  504Sol     OW 5055   3.234   3.162   8.114 -0.4139  0.7220 -0.3002
  504Sol     HW 5056   3.310   3.130   8.163 -0.2590  2.0709  0.3489
  504Sol     HW 5057   3.263   3.245   8.075 -0.7057 -0.0527 -2.2599
  504Sol     MW 5058   3.244   3.166   8.115  0.3584 -0.2800  0.4907
  505Sol     OW 5059   1.965   2.570   5.061 -0.4902 -0.0211  0.1140
  505Sol     HW 5060   1.873   2.572   5.085 -0.2682  0.9194  0.9461
  505Sol     HW 5061   1.987   2.661   5.041  0.4265 -0.1162  0.6268
  505Sol     MW 5062   1.959   2.579   5.061 -0.3633 -0.1794 -0.3425
  506Sol     OW 5063   2.404   0.278   6.866  0.6785 -0.0123 -0.2187
  506Sol     HW 5064   2.347   0.203   6.881  0.9105 -0.1415  0.0069
  506Sol     HW 5065   2.363   0.324   6.793  0.8321 -0.6449 -0.7047
  506Sol     MW 5066   2.395   0.276   6.861 -0.6771 -0.1872 -0.1515
  507Sol     OW 5067   2.368   1.695   5.509 -0.4380  0.3818 -0.0701
  507Sol     HW 5068   2.446   1.730   5.553 -0.9234  1.5713 -0.1456
  507Sol     HW 5069   2.295   1.729   5.561 -0.9508  0.3548 -0.7706
  507Sol     MW 5070   2.368   1.701   5.518 -0.1668  0.2069  0.6615
  508Sol     OW 5071   2.465   2.981   2.667 -0.2491 -0.2181 -0.1550
  508Sol     HW 5072   2.545   3.008   2.713 -0.7886  0.7108  0.2376
  508Sol     HW 5073   2.444   3.055   2.610 -0.2400 -0.8967 -1.0573
  508Sol     MW 5074   2.471   2.990   2.666  0.1331  0.1534 -0.2529
  509Sol     OW 5075   0.655   2.148   4.886  0.1887  0.1674 -0.1344
  509Sol     HW 5076   0.576   2.099   4.909 -0.0131  1.4477  2.0538
  509Sol     HW 5077   0.645   2.167   4.793 -1.1590 -1.3239 -0.3213
  509Sol     MW 5078   0.647   2.146   4.880 -0.3054 -0.4500  0.4932
  510Sol     OW 5079   0.533   3.182   5.959  0.0525  0.1309 -0.0211
  510Sol     HW 5080   0.473   3.179   6.034 -0.0901 -0.7793 -0.1613
  510Sol     HW 5081   0.620   3.180   5.997 -0.0198 -0.9028  0.1169
  510Sol     MW 5082   0.535   3.181   5.969 -0.4117  0.3123  0.2526
  511Sol     OW 5083   3.401   1.559   6.362 -0.5209 -0.8761 -0.4362
  511Sol     HW 5084   3.418   1.482   6.415 -0.1351 -0.3616  0.1875
  511Sol     HW 5085   3.487   1.589   6.333 -0.6279 -0.3662 -0.2366
  511Sol     MW 5086   3.410   1.555   6.364 -0.8109 -0.3145  0.0090
  512Sol     OW 5087   2.952   2.767   4.177  0.1070 -0.4055  0.3386
  512Sol     HW 5088   2.901   2.806   4.248 -1.7591 -2.9602  0.4698
  512Sol     HW 5089   2.903   2.789   4.098  1.4376  1.2395 -0.0601
  512Sol     MW 5090   2.943   2.773   4.176 -0.3742 -0.1170  0.2567
  513Sol     OW 5091   0.601   2.602   1.622  0.0220  0.6982  0.4169
  513Sol     HW 5092   0.524   2.567   1.578  0.0514  1.8724 -0.6029
  513Sol     HW 5093   0.670   2.538   1.606 -0.3631  0.3784  0.0460
  513Sol     MW 5094   0.600   2.593   1.617 -0.0970 -0.3635  0.2880
  514Sol     OW 5095   2.085   0.945   7.083 -0.6180  0.3011 -0.1646
  514Sol     HW 5096   2.100   1.029   7.126 -1.1815  0.1076  0.4125
  514Sol     HW 5097   2.137   0.950   7.003 -0.0700  0.9090  0.2258
  514Sol     MW 5098   2.091   0.953   7.079  0.5366 -0.2107  0.1030
  515Sol     OW 5099   2.614   2.638   8.133  0.2912 -0.7401  0.7535
  515Sol     HW 5100   2.665   2.567   8.172 -0.8190 -0.7039  2.2992
  515Sol     HW 5101   2.545   2.594   8.084  0.0910 -0.7448  1.0377
  515Sol     MW 5102   2.612   2.628   8.132  0.2673  0.2598  0.3830
  516Sol     OW 5103   0.916   0.921   3.883 -0.0955 -0.1482  0.6459
  516Sol     HW 5104   0.884   0.992   3.828  0.6177 -0.1472  0.2226
  516Sol     HW 5105   0.945   0.964   3.963 -1.3271 -0.1728  1.1219
  516Sol     MW 5106   0.916   0.931   3.885 -0.1893  0.2225  0.0135
  517Sol     OW 5107   1.984   3.207   1.929 -0.3806 -0.7762 -0.1548
  517Sol     HW 5108   2.070   3.203   1.886  0.2169 -0.7512  1.0054
  517Sol     HW 5109   1.980   3.126   1.981 -0.6193 -0.2862  0.5966
  517Sol     MW 5110   1.992   3.199   1.930  0.1104  0.2002  0.4339
  518Sol     OW 5111   1.335   2.111   1.944 -0.1109 -0.5950 -0.1048
  518Sol     HW 5112   1.277   2.183   1.919 -0.0007 -0.9297 -1.3576
  518Sol     HW 5113   1.422   2.138   1.914 -0.1981 -1.5815 -1.3058
  518Sol     MW 5114   1.338   2.120   1.939 -0.3512 -0.1761  0.1054
  519Sol     OW 5115   0.088   0.278   5.041  0.1549  0.1803  0.2230
  519Sol     HW 5116   0.039   0.360   5.047 -0.3359 -0.0261 -0.8758
  519Sol     HW 5117   0.075   0.249   4.951 -0.0854 -1.3648  0.7391
  519Sol     MW 5118   0.082   0.283   5.034  0.6301 -0.2239 -0.1404
  520Sol     OW 5119   1.301   2.393   1.285  0.2721  0.3815  0.2663
  520Sol     HW 5120   1.287   2.325   1.351  0.0434 -0.8276 -1.0049
  520Sol     HW 5121   1.221   2.445   1.286  0.2041  0.2676  0.8233
  520Sol     MW 5122   1.293   2.392   1.291  0.1279  0.3021 -0.5048
  521Sol     OW 5123   1.426   1.379   3.923 -0.7140 -0.4933  0.2345
  521Sol     HW 5124   1.348   1.413   3.879  0.7571  0.8095 -1.4321
  521Sol     HW 5125   1.452   1.304   3.869 -1.4431 -1.6276  1.4331
  521Sol     MW 5126   1.422   1.375   3.914  0.0187  0.6860  0.1569
  522Sol     OW 5127   1.418   2.317   3.641 -0.8060  0.0011 -0.5811
  522Sol     HW 5128   1.463   2.354   3.565 -0.0129  1.3018  0.4882
  522Sol     HW 5129   1.459   2.232   3.655  0.2027  0.4842 -0.5970
  522Sol     MW 5130   1.425   2.313   3.635  0.4817  0.2597 -0.2798
  523Sol     OW 5131   1.718   2.215   2.868  0.1061  0.0875 -0.1569
  523Sol     HW 5132   1.689   2.216   2.776 -0.8307 -0.6326  0.1144
  523Sol     HW 5133   1.706   2.124   2.895  1.3481  0.0813  0.3908
  523Sol     MW 5134   1.714   2.207   2.862 -0.0513  0.1468 -0.2864
  524Sol     OW 5135   2.545   0.451   3.605  0.2660 -0.3038  0.2203
  524Sol     HW 5136   2.592   0.523   3.647  0.2864 -0.7424  0.9482
  524Sol     HW 5137   2.559   0.376   3.663  0.3477 -0.9267 -0.5976
  524Sol     MW 5138   2.551   0.451   3.614  0.6108 -0.1024 -0.2254
  525Sol     OW 5139   3.103   3.012   8.353  0.5560  0.0567 -0.5450
  525Sol     HW 5140   3.027   2.956   8.369  1.5293 -0.5374  2.2327
  525Sol     HW 5141   3.170   2.952   8.320  0.4934  0.2175 -0.9702
  525Sol     MW 5142   3.102   3.002   8.351 -0.7323 -0.0788 -0.4509
  526Sol     OW 5143   0.367   2.161   6.914  0.0472  0.9405 -0.4064
  526Sol     HW 5144   0.455   2.137   6.944 -0.0834  0.0324 -0.7394
  526Sol     HW 5145   0.381   2.196   6.826  0.1362  1.2630 -0.2633
  526Sol     MW 5146   0.376   2.162   6.909  0.3706  0.0614  0.1902
  527Sol     OW 5147   2.694   0.652   4.558 -0.1465  0.0729  0.5889
  527Sol     HW 5148   2.762   0.592   4.526  2.2350  2.9363  0.0816
  527Sol     HW 5149   2.671   0.705   4.481  0.7241  2.4927  1.9528
  527Sol     MW 5150   2.698   0.651   4.548  0.3158 -0.3536  0.1551
  528Sol     OW 5151   1.720   1.387   4.968  0.7078  0.0820  0.8345
  528Sol     HW 5152   1.810   1.419   4.960  0.7556 -0.3258 -0.4740
  528Sol     HW 5153   1.685   1.392   4.878 -0.5563  0.1849  1.3164
  528Sol     MW 5154   1.725   1.390   4.959  0.0094  0.0459  0.5012
  529Sol     OW 5155   1.954   2.060   6.002 -0.4133  0.0810 -0.3309
  529Sol     HW 5156   1.863   2.078   6.025 -0.7214 -1.9834  0.1645
  529Sol     HW 5157   1.952   1.974   5.960  1.5030 -0.6875  1.0515
  529Sol     MW 5158   1.946   2.054   6.000  0.4658  0.3088  0.1160
  530Sol     OW 5159   1.310   1.286   6.801  0.0897 -0.0388  0.0855
  530Sol     HW 5160   1.375   1.312   6.735 -0.9537  1.4317 -0.3699
  530Sol     HW 5161   1.316   1.353   6.868 -1.1382  0.2434 -0.0816
  530Sol     MW 5162   1.317   1.294   6.801 -0.1999  0.6602  0.0890
  531Sol     OW 5163   2.389   0.288   3.231  0.0781  0.0787  0.0572
  531Sol     HW 5164   2.376   0.379   3.206 -0.0880  0.6297  2.0743
  531Sol     HW 5165   2.479   0.285   3.264 -0.0927 -0.3588  0.4907
  531Sol     MW 5166   2.396   0.296   3.232 -0.2171  0.6215  0.0609
  532Sol     OW 5167   3.216   2.841   4.108  0.4379 -0.1838 -0.0574
  532Sol     HW 5168   3.129   2.803   4.121  0.1324  0.9599  1.2257
  532Sol     HW 5169   3.211   2.881   4.021 -0.4543  0.2672  0.1961
  532Sol     MW 5170   3.207   2.841   4.101 -0.0891  0.1542 -0.8188
  533Sol     OW 5171   1.974   3.227   6.344  0.1709 -0.3467 -0.0826
  533Sol     HW 5172   2.059   3.270   6.343  0.6925 -1.3623 -0.3246
  533Sol     HW 5173   1.990   3.142   6.303 -0.7283 -0.9728  0.8524
  533Sol     MW 5174   1.983   3.223   6.340 -0.1950  0.5221  0.6528
  534Sol     OW 5175   2.517   2.319   2.851 -0.0231  0.5518 -0.0922
  534Sol     HW 5176   2.500   2.413   2.853  2.6741  1.0600  0.8833
  534Sol     HW 5177   2.462   2.286   2.779 -0.4940  2.9527 -0.8700
  534Sol     MW 5178   2.510   2.324   2.844 -0.5923 -0.3254 -0.5482
  535Sol     OW 5179   1.918   2.272   1.762 -0.6599 -1.0060 -0.1875
  535Sol     HW 5180   1.874   2.218   1.828  0.0682 -1.4554 -0.0612
  535Sol     HW 5181   1.981   2.323   1.812 -0.9838 -0.4252 -0.3774
  535Sol     MW 5182   1.919   2.271   1.772 -0.2865 -0.0670  0.2721
  536Sol     OW 5183   3.439   0.175   7.005 -0.5141  0.4209  0.3528
  536Sol     HW 5184   3.401   0.134   6.927  0.5721  1.0226 -0.5261
  536Sol     HW 5185   3.492   0.106   7.045 -1.6863 -0.1157  1.0045
  536Sol     MW 5186   3.441   0.165   7.001  0.0648 -0.6522 -0.6884
  537Sol     OW 5187   0.173   1.145   3.150 -0.4186 -0.1798 -0.2157
  537Sol     HW 5188   0.175   1.236   3.178 -0.4907  0.3547 -1.9127
  537Sol     HW 5189   0.184   1.095   3.231  1.9466  1.3686  0.4728
  537Sol     MW 5190   0.174   1.148   3.160 -0.2878 -0.2569  0.1599
  538Sol     OW 5191   2.677   1.246   3.252 -0.1938  0.0425 -0.2555
  538Sol     HW 5192   2.601   1.277   3.202 -0.1783 -1.3656 -1.1648
  538Sol     HW 5193   2.638   1.202   3.328 -0.2344  1.1207  0.3657
  538Sol     MW 5194   2.666   1.245   3.255  0.0897 -0.1033 -0.9521
  539Sol     OW 5195   1.205   2.524   2.434  0.0597 -0.5080  0.0271
  539Sol     HW 5196   1.299   2.514   2.418 -0.1513 -1.2025 -0.8419
  539Sol     HW 5197   1.175   2.579   2.362  0.0898  1.1007  1.2413
  539Sol     MW 5198   1.211   2.528   2.426 -0.3044 -0.8495  0.0393
  540Sol     OW 5199   1.221   0.459   4.274  0.2134  0.1160  0.0406
  540Sol     HW 5200   1.160   0.439   4.346 -1.5364  1.1180 -1.1252
  540Sol     HW 5201   1.294   0.504   4.317 -0.9063  0.8859  1.1735
  540Sol     MW 5202   1.222   0.461   4.285  0.3215 -0.3491  1.0955
  541Sol     OW 5203   2.802   2.363   2.834 -0.7821 -0.6391  0.2820
  541Sol     HW 5204   2.768   2.383   2.747 -0.4442 -0.5652  0.1663
  541Sol     HW 5205   2.724   2.353   2.889 -0.9976 -0.7641 -0.0457
  541Sol     MW 5206   2.792   2.364   2.831 -0.4751  0.3027 -0.3373
  542Sol     OW 5207   0.009   1.375   6.142 -0.2402  0.3032 -0.2190
  542Sol     HW 5208   0.022   1.351   6.050  0.7436  0.1797 -0.0480
  542Sol     HW 5209   0.068   1.317   6.191  0.7668  1.7778  0.3449
  542Sol     MW 5210   0.015   1.367   6.138  0.5260 -0.2287  0.0562
  543Sol     OW 5211   1.031   1.290   4.073  0.4998  0.0908 -0.7481
  543Sol     HW 5212   1.029   1.292   3.977  0.0607 -1.8296 -0.8069
  543Sol     HW 5213   1.055   1.199   4.094  1.0644  0.6163  0.9614
  543Sol     MW 5214   1.033   1.282   4.066 -0.1830 -0.0791 -0.4266
  544Sol     OW 5215   0.964   3.253   7.744 -0.0089  0.2305  0.5554
  544Sol     HW 5216   0.961   3.331   7.799 -1.2592 -1.1245  2.4606
  544Sol     HW 5217   1.025   3.194   7.788 -0.1118 -0.4045 -0.1321
  544Sol     MW 5218   0.969   3.254   7.753 -0.5835 -0.4092 -0.0820
  545Sol     OW 5219   0.081   1.904   3.675 -0.2490 -0.4271  0.5278
  545Sol     HW 5220   0.113   1.964   3.742  1.2013 -2.1084  1.3742
  545Sol     HW 5221  -0.012   1.892   3.695 -0.1682  0.2469  1.3136
  545Sol     MW 5222   0.076   1.909   3.683 -0.4262  0.3143  0.0382
  546Sol     OW 5223   2.790   2.443   2.198 -0.1973 -0.1661  0.3086
  546Sol     HW 5224   2.709   2.458   2.150 -0.3560  0.8221  0.8582
  546Sol     HW 5225   2.762   2.436   2.290  0.2822 -0.3038  0.4461
  546Sol     MW 5226   2.780   2.444   2.202  0.1846  0.0233  0.0744
  547Sol     OW 5227   0.312   1.756   4.120  0.2433  0.1116 -0.7359
  547Sol     HW 5228   0.397   1.713   4.125  0.0473 -0.1427  0.5668
  547Sol     HW 5229   0.262   1.704   4.057 -0.0590 -1.7241  0.9646
  547Sol     MW 5230   0.315   1.747   4.115  0.9557 -0.4020  0.3171
  548Sol     OW 5231   1.456   2.293   5.963 -0.3797 -0.1290  0.0063
  548Sol     HW 5232   1.454   2.382   5.998  1.5414 -0.1454  0.2439
  548Sol     HW 5233   1.514   2.298   5.887  1.1082 -1.4582  0.9977
  548Sol     MW 5234   1.461   2.301   5.960 -0.2385  0.4629 -0.0488
  549Sol     OW 5235   2.662   1.787   5.684  0.6911 -0.0079  0.6684
  549Sol     HW 5236   2.730   1.763   5.621  1.6386 -0.3056  1.7953
  549Sol     HW 5237   2.638   1.877   5.659  1.1968 -0.0451  0.0163
  549Sol     MW 5238   2.666   1.793   5.676  0.1461  0.0996 -0.3525
  550Sol     OW 5239   1.365   2.060   4.738 -0.5551 -0.0953 -0.0424
  550Sol     HW 5240   1.371   1.984   4.796 -2.1751  0.6177  1.0992
  550Sol     HW 5241   1.348   2.023   4.652  0.3279 -1.0978  0.1919
  550Sol     MW 5242   1.364   2.050   4.736  0.2558 -0.3382  0.1694
  551Sol     OW 5243   0.777   2.836   3.441 -0.5230 -0.0934 -0.0978
  551Sol     HW 5244   0.820   2.909   3.396 -0.1729 -0.7082 -0.7742
  551Sol     HW 5245   0.690   2.870   3.462  0.2046  1.0955  1.1227
  551Sol     MW 5246   0.773   2.846   3.438  0.0317 -0.0863  0.4385
  552Sol     OW 5247   0.611   2.242   7.446 -0.1259  0.3290  0.5009
  552Sol     HW 5248   0.640   2.222   7.535  1.2247 -0.2869 -0.0597
  552Sol     HW 5249   0.551   2.316   7.456 -0.1382  0.1357  1.9367
  552Sol     MW 5250   0.608   2.246   7.455 -0.0980 -0.0748 -0.3128
  553Sol     OW 5251   1.318   0.019   1.963  0.2090 -0.4859  0.1224
  553Sol     HW 5252   1.380  -0.016   2.027 -0.4556 -1.2394  0.3764
  553Sol     HW 5253   1.371   0.044   1.888  0.7922 -1.3901  0.2242
  553Sol     MW 5254   1.328   0.018   1.962 -0.5599 -0.1973  0.4946
  554Sol     OW 5255   1.499   1.989   2.396  0.3776 -0.3179  0.3223
  554Sol     HW 5256   1.491   1.907   2.346  0.9386  1.3223 -2.5819
  554Sol     HW 5257   1.581   1.979   2.445  1.7761 -0.5079 -1.9849
  554Sol     MW 5258   1.506   1.981   2.396  0.3538  0.8944 -0.0501
  555Sol     OW 5259   2.807   1.267   8.615 -0.0836 -0.1857  0.8395
  555Sol     HW 5260   2.898   1.292   8.601  0.0021 -2.4031 -3.4112
  555Sol     HW 5261   2.758   1.349   8.604  1.2148  0.5943  0.7653
  555Sol     MW 5262   2.811   1.277   8.612  0.2982 -0.1602 -0.1917
  556Sol     OW 5263   1.023   1.734   7.514 -0.2489  0.3230  0.7304
  556Sol     HW 5264   0.989   1.651   7.551 -2.2086  0.9740  0.4733
  556Sol     HW 5265   1.081   1.707   7.443 -1.5554 -0.8356  0.0781
  556Sol     MW 5266   1.025   1.724   7.511 -0.1911 -0.4239 -0.4978
  557Sol     OW 5267   0.463   0.746   4.995  0.2179  0.6328  0.2402
  557Sol     HW 5268   0.406   0.750   4.918 -0.9427  2.6848  1.1620
  557Sol     HW 5269   0.431   0.671   5.045  0.3245 -0.0929 -0.7492
  557Sol     MW 5270   0.455   0.740   4.992 -0.3067 -0.0798  0.4326
  558Sol     OW 5271   1.667   1.911   3.897  0.5547 -0.0896  0.0542
  558Sol     HW 5272   1.708   1.859   3.827 -0.7587 -0.0980 -0.7150
  558Sol     HW 5273   1.638   1.846   3.961  0.9021 -0.1471  0.1552
  558Sol     MW 5274   1.668   1.900   3.896 -0.4680  0.2652  0.6783
  559Sol     OW 5275   0.101   0.529   1.847 -0.0365 -0.3403 -0.0321
  559Sol     HW 5276   0.135   0.571   1.926 -2.2810  0.5849  0.4660
  559Sol     HW 5277   0.078   0.440   1.875  0.2458 -0.3840  0.0629
  559Sol     MW 5278   0.102   0.525   1.857 -0.3713 -0.2124  0.5466
  560Sol     OW 5279   0.303   2.306   2.604 -0.4214 -0.5348  0.2069
  560Sol     HW 5280   0.353   2.383   2.630 -1.1981  0.1539 -0.2925
  560Sol     HW 5281   0.340   2.280   2.520 -1.0711  0.1541 -0.3077
  560Sol     MW 5282   0.311   2.310   2.599 -0.8723  0.6389 -0.2527
  561Sol     OW 5283   2.559   2.731   2.602  0.1320  0.0304 -0.0505
  561Sol     HW 5284   2.513   2.812   2.621  0.4214  0.1343  0.2068
  561Sol     HW 5285   2.626   2.724   2.670  2.2732  1.2444 -1.9525
  561Sol     MW 5286   2.561   2.737   2.609 -0.5153 -0.0501 -0.3500
  562Sol     OW 5287   1.311   0.122   1.571 -0.1532 -0.2433  0.1756
  562Sol     HW 5288   1.354   0.087   1.649 -0.6858  0.5863  0.8414
  562Sol     HW 5289   1.380   0.174   1.528  0.6740 -2.1586 -0.8775
  562Sol     MW 5290   1.321   0.124   1.574  0.0702  0.2949 -0.1450
  563Sol     OW 5291   0.061   3.178   2.267 -0.2079  1.3064 -0.0950
  563Sol     HW 5292   0.034   3.097   2.311  2.2924  0.8206  0.6006
  563Sol     HW 5293   0.141   3.154   2.220  0.1177  3.1908 -0.5255
  563Sol     MW 5294   0.065   3.169   2.267 -0.1446  0.5402  0.0346
  564Sol     OW 5295   0.366   0.826   5.972  0.1004 -0.2169 -0.0164
  564Sol     HW 5296   0.349   0.893   5.906 -1.6542 -0.8304 -0.1936
  564Sol     HW 5297   0.428   0.766   5.930  1.1207  0.8919 -0.1079
  564Sol     MW 5298   0.370   0.826   5.963  0.1236  0.0717  0.6519
  565Sol     OW 5299   1.756   2.323   8.608  0.3809 -0.0522  0.1022
  565Sol     HW 5300   1.816   2.251   8.592 -0.0558 -0.4397  0.2042
  565Sol     HW 5301   1.795   2.398   8.563  1.3603 -0.0995  0.8598
  565Sol     MW 5302   1.765   2.324   8.603  0.1617 -0.3517 -0.1266
  566Sol     OW 5303   1.962   0.805   8.436  0.8261  0.1843 -0.0121
  566Sol     HW 5304   1.960   0.874   8.503 -3.0750  1.3199 -1.1505
  566Sol     HW 5305   1.933   0.850   8.356  0.9422 -2.1546 -1.3934
  566Sol     MW 5306   1.959   0.815   8.435  0.1784 -0.3547 -0.0015
  567Sol     OW 5307   2.470   3.256   6.304  0.3452 -0.1826 -0.0593
  567Sol     HW 5308   2.527   3.261   6.227  1.6646 -1.3389  0.8327
  567Sol     HW 5309   2.521   3.294   6.375 -0.8754  0.8859  0.2803
  567Sol     MW 5310   2.479   3.260   6.303 -0.2667 -0.3569 -0.3431
  568Sol     OW 5311   2.916   1.029   6.627 -0.1899  0.3301 -0.7509
  568Sol     HW 5312   2.930   1.124   6.624 -1.3276  0.4935 -0.8708
  568Sol     HW 5313   2.822   1.018   6.611  0.1089 -0.8677 -1.7651
  568Sol     MW 5314   2.909   1.037   6.625  0.3348 -0.1913 -0.1919
  569Sol     OW 5315   2.852   1.486   5.487 -0.8022  0.2862 -0.2182
  569Sol     HW 5316   2.796   1.472   5.411 -3.0241  1.2644  1.2052
  569Sol     HW 5317   2.851   1.580   5.501  0.0254  0.1603  0.7217
  569Sol     MW 5318   2.847   1.493   5.481 -0.1697 -0.5155  0.0542
  570Sol     OW 5319   2.106   0.338   6.450 -0.6905  0.2293  0.0847
  570Sol     HW 5320   2.051   0.298   6.517  1.0713 -1.8746  0.3218
  570Sol     HW 5321   2.064   0.423   6.432 -2.3822 -0.0984  2.2686
  570Sol     MW 5322   2.098   0.342   6.454  0.1864 -0.1449 -0.2364
  571Sol     OW 5323   2.611   2.222   5.219  0.5803 -0.1963 -0.0563
  571Sol     HW 5324   2.582   2.157   5.282  1.0123 -0.3823 -0.0445
  571Sol     HW 5325   2.617   2.175   5.136  2.1572 -0.5166  0.2063
  571Sol     MW 5326   2.609   2.212   5.217 -0.0221  0.4631  0.3326
  572Sol     OW 5327   2.829   2.472   5.002 -0.2425  0.4068 -0.2598
  572Sol     HW 5328   2.786   2.490   4.919  0.7201 -0.1572 -0.8812
  572Sol     HW 5329   2.841   2.377   5.003  0.6018  0.5149  0.1132
  572Sol     MW 5330   2.826   2.465   4.995 -0.5037  0.2739 -0.0291
  573Sol     OW 5331   2.700   3.254   6.575  0.2172 -0.1178 -0.0561
  573Sol     HW 5332   2.665   3.255   6.664 -1.5297 -0.3568 -0.7114
  573Sol     HW 5333   2.664   3.334   6.535  1.1076  0.0625 -0.5002
  573Sol     MW 5334   2.693   3.261   6.579  0.3661 -0.0402 -0.0450
  574Sol     OW 5335   0.817   1.301   6.543 -0.6265 -0.2962 -0.1125
  574Sol     HW 5336   0.897   1.319   6.592 -0.8621  1.1387 -0.2255
  574Sol     HW 5337   0.797   1.209   6.562 -0.9500  0.3487  2.8610
  574Sol     MW 5338   0.822   1.294   6.549  0.1763  0.8933  0.0069
  575Sol     OW 5339   2.019   3.273   5.076 -0.0140  0.0296  0.6031
  575Sol     HW 5340   2.094   3.311   5.030 -0.0326  0.7793  1.1888
  575Sol     HW 5341   2.056   3.236   5.156  0.0844 -1.6548 -0.1967
  575Sol     MW 5342   2.029   3.273   5.079 -0.8067 -0.1159  0.0461
  576Sol     OW 5343   0.879   0.469   7.041  0.3201 -0.2520 -0.0488
  576Sol     HW 5344   0.957   0.458   7.095  0.0164 -1.7364  0.0963
  576Sol     HW 5345   0.883   0.398   6.977 -1.9056 -1.5456  1.1811
  576Sol     MW 5346   0.887   0.462   7.040 -0.1003 -0.2548 -0.0808
  577Sol     OW 5347   3.319   2.534   1.684 -0.1150 -0.3447  0.0071
  577Sol     HW 5348   3.341   2.606   1.742 -0.2626  1.3465 -1.9603
  577Sol     HW 5349   3.223   2.538   1.676 -0.2307 -1.4411  0.7260
  577Sol     MW 5350   3.312   2.541   1.688 -0.6343 -0.2739  0.2003
  578Sol     OW 5351   2.844   2.960   2.420 -0.9450  0.1294 -0.4991
  578Sol     HW 5352   2.760   2.925   2.391 -0.9850  0.4448 -0.7757
  578Sol     HW 5353   2.873   3.014   2.346 -0.7008  0.3544 -0.2360
  578Sol     MW 5354   2.839   2.962   2.410  0.5975  0.5214  0.2209
  579Sol     OW 5355   2.670   2.316   3.787  0.1755 -0.0940 -0.1561
  579Sol     HW 5356   2.605   2.386   3.776  0.0912 -0.1277  0.1218
  579Sol     HW 5357   2.750   2.361   3.812  0.0061 -0.1326  0.4626
  579Sol     MW 5358   2.671   2.326   3.788  0.5836 -0.2392  0.5938
  580Sol     OW 5359   0.348   2.993   3.241 -0.5598  0.2688  0.1202
  580Sol     HW 5360   0.378   2.908   3.272 -0.5097  0.7305  1.3766
  580Sol     HW 5361   0.363   3.052   3.315  2.2727  2.0267 -1.7443
  580Sol     MW 5362   0.352   2.991   3.250 -0.4103  0.0369 -0.0295
  581Sol     OW 5363   0.483   0.342   4.762 -0.2774 -0.4281  0.2273
  581Sol     HW 5364   0.546   0.277   4.792 -0.1840 -0.7974 -0.7366
  581Sol     HW 5365   0.534   0.423   4.755 -0.0310 -0.6031 -0.0257
  581Sol     MW 5366   0.493   0.344   4.764  0.1719  0.6154 -0.0967
  582Sol     OW 5367   2.022   2.243   8.575  0.0064  0.3580  0.2738
  582Sol     HW 5368   2.038   2.333   8.605  3.1868 -0.0236 -0.1809
  582Sol     HW 5369   2.027   2.190   8.654  0.1719  0.3435  0.2541
  582Sol     MW 5370   2.024   2.247   8.584 -0.1921 -0.2941 -0.3719
  583Sol     OW 5371   0.882   0.312   7.414  0.8803  0.0472  0.2880
  583Sol     HW 5372   0.941   0.300   7.341  1.0734 -0.3807  0.5131
  583Sol     HW 5373   0.934   0.290   7.491 -0.2747 -2.8127  0.3159
  583Sol     MW 5374   0.892   0.309   7.415 -0.0716  0.4081 -0.8658
  584Sol     OW 5375   2.157   3.060   4.161 -0.1755  0.0974 -0.1927
  584Sol     HW 5376   2.078   3.012   4.186  0.3957  0.9247  3.5691
  584Sol     HW 5377   2.124   3.136   4.113 -1.4983 -0.7592 -0.6638
  584Sol     MW 5378   2.147   3.063   4.159  0.1657 -0.0735  0.4671
  585Sol     OW 5379   3.392   1.432   2.259 -0.1645  0.0510  0.3894
  585Sol     HW 5380   3.319   1.394   2.308 -0.2736 -0.7248 -0.3692
  585Sol     HW 5381   3.423   1.361   2.203 -0.3532  1.0717 -1.0127
  585Sol     MW 5382   3.388   1.422   2.259  0.0910  0.0009 -0.1305
  586Sol     OW 5383   2.214   0.710   3.090  0.4528 -0.3775  0.0239
  586Sol     HW 5384   2.252   0.798   3.094  0.4892 -0.3977  0.1282
  586Sol     HW 5385   2.124   0.724   3.060  0.4077 -0.2884  0.1976
  586Sol     MW 5386   2.209   0.719   3.088  0.8972  0.4660  0.3606
  587Sol     OW 5387   2.995   0.895   1.499 -0.0768  0.5683 -0.1641
  587Sol     HW 5388   3.011   0.881   1.406 -2.0252 -2.3407 -0.1387
  587Sol     HW 5389   2.899   0.898   1.507  0.0548  0.6237  1.7659
  587Sol     MW 5390   2.988   0.894   1.491 -0.1248  0.1212  0.2128
  588Sol     OW 5391   3.016   3.031   3.409  0.5355  0.2386  0.0327
  588Sol     HW 5392   2.925   3.049   3.434  0.7268  0.5268  0.5179
  588Sol     HW 5393   3.040   2.955   3.462  0.7189  0.4329  0.2292
  588Sol     MW 5394   3.010   3.026   3.416 -0.3145 -0.6802 -0.2838
  589Sol     OW 5395   3.115   0.997   3.603  0.2121  0.7740  0.3725
  589Sol     HW 5396   3.140   1.056   3.675  0.6399 -0.3438  1.1573
  589Sol     HW 5397   3.054   0.935   3.644 -0.5114  0.8879 -0.5327
  589Sol     MW 5398   3.112   0.997   3.613  0.0192 -0.2630 -0.2329
  590Sol     OW 5399   2.609   0.515   5.941 -0.2088 -0.3423  0.3824
  590Sol     HW 5400   2.539   0.570   5.906  2.2217  0.4187 -3.6575
  590Sol     HW 5401   2.659   0.573   5.999 -0.6354  0.2396  0.1690
  590Sol     MW 5402   2.607   0.526   5.943  0.3231 -0.4281 -0.1861
  591Sol     OW 5403   1.282   1.033   3.908  0.3396 -0.9758 -0.0803
  591Sol     HW 5404   1.218   1.018   3.838 -1.5825  3.6288  0.4915
  591Sol     HW 5405   1.363   1.056   3.862 -0.5385  0.6858 -0.8407
  591Sol     MW 5406   1.284   1.034   3.897 -0.0999 -0.6335 -0.4738
  592Sol     OW 5407   2.798   0.769   2.725  0.3181 -0.1863 -0.2513
  592Sol     HW 5408   2.780   0.858   2.698  1.2001  0.6462  1.7851
  592Sol     HW 5409   2.856   0.734   2.657  1.8964  1.6019  0.1301
  592Sol     MW 5410   2.802   0.774   2.716  0.1914  0.1636  0.1266
  593Sol     OW 5411   1.865   3.255   8.174 -0.4237  0.7112 -0.2954
  593Sol     HW 5412   1.793   3.229   8.230 -0.3767  0.0026 -0.5621
  593Sol     HW 5413   1.829   3.254   8.085  0.4016 -1.4670 -0.6281
  593Sol     MW 5414   1.855   3.253   8.171  0.0169 -0.5188  0.1389
  594Sol     OW 5415   2.591   3.029   3.542 -0.1984  0.0519 -0.3658
  594Sol     HW 5416   2.600   3.074   3.625 -0.4855  0.7361 -0.7016
  594Sol     HW 5417   2.547   3.092   3.485  0.3877 -0.2444 -1.1624
  594Sol     MW 5418   2.588   3.039   3.544 -0.0974  0.5989 -0.9089
  595Sol     OW 5419   0.695   1.816   4.294 -0.0650 -0.4199 -0.4743
  595Sol     HW 5420   0.678   1.893   4.240 -2.4199 -1.0425 -0.6785
  595Sol     HW 5421   0.776   1.779   4.259  0.3794  1.2300 -1.2165
  595Sol     MW 5422   0.701   1.819   4.286  0.1709  0.3018  0.2260
  596Sol     OW 5423   1.832   1.706   6.320  0.6386 -0.1998 -0.1927
  596Sol     HW 5424   1.880   1.623   6.311  0.7878  0.0065 -1.4197
  596Sol     HW 5425   1.740   1.682   6.311  0.6662 -0.2621 -0.3080
  596Sol     MW 5426   1.828   1.696   6.318 -0.4791  0.2619 -0.1427
  597Sol     OW 5427   3.281   0.450   3.908  0.2528  0.1400 -0.0973
  597Sol     HW 5428   3.329   0.503   3.971  0.3088 -0.1378  0.0947
  597Sol     HW 5429   3.348   0.418   3.847  0.0761  1.1371 -0.8195
  597Sol     MW 5430   3.291   0.452   3.908 -0.0801 -0.2590  0.2235
  598Sol     OW 5431   2.310   2.849   7.633  0.4471 -0.4301 -0.2874
  598Sol     HW 5432   2.391   2.861   7.683  1.1476 -1.8614 -1.0127
  598Sol     HW 5433   2.295   2.754   7.636 -0.4503 -0.3231 -1.3174
  598Sol     MW 5434   2.316   2.841   7.638 -0.7216  0.3733  0.0409
  599Sol     OW 5435   2.255   2.863   3.753 -0.2822 -0.6582 -0.1503
  599Sol     HW 5436   2.171   2.861   3.799 -0.6144 -2.4518 -0.7558
  599Sol     HW 5437   2.311   2.804   3.802  0.4519  0.0884 -0.0819
  599Sol     MW 5438   2.252   2.857   3.761 -0.3844  0.0673  0.0453
  600Sol     OW 5439   0.229   0.739   8.619  0.0832 -0.2293  0.5136
  600Sol     HW 5440   0.299   0.798   8.647  0.2895  0.1435 -0.7481
  600Sol     HW 5441   0.252   0.716   8.528 -1.6959  0.2912 -0.0798
  600Sol     MW 5442   0.238   0.742   8.613 -0.6564 -0.3106  0.0171
  601Sol     OW 5443   1.213   2.233   1.521 -0.7770  0.3452  0.2407
  601Sol     HW 5444   1.231   2.285   1.599 -1.9135  0.6115  0.3320
  601Sol     HW 5445   1.123   2.203   1.532 -0.3932 -1.0090 -0.1796
  601Sol     MW 5446   1.207   2.235   1.529 -0.5629  0.5900 -0.3115
  602Sol     OW 5447   3.546   2.523   2.736  0.2298 -0.4957  0.3223
  602Sol     HW 5448   3.570   2.493   2.649  3.1750  2.6415 -0.0376
  602Sol     HW 5449   3.624   2.508   2.790 -0.0115  1.6189  1.3287
  602Sol     MW 5450   3.555   2.519   2.733  0.3069  0.7305  0.3079
  603Sol     OW 5451   1.182   2.068   8.287 -0.0327  0.1236  0.3001
  603Sol     HW 5452   1.145   1.980   8.288  0.1496  0.0468  0.4193
  603Sol     HW 5453   1.180   2.095   8.379 -1.6520  0.9056  0.0446
  603Sol     MW 5454   1.179   2.062   8.296  0.2405  0.1162  0.0984
  604Sol     OW 5455   2.165   2.620   3.139  0.0774  0.1784  0.0490
  604Sol     HW 5456   2.252   2.596   3.172 -0.3136 -1.1106  0.1934
  604Sol     HW 5457   2.116   2.537   3.141 -0.0818  0.1503 -3.4086
  604Sol     MW 5458   2.168   2.610   3.142 -0.1469  0.3423  0.1612
  605Sol     OW 5459   0.303   0.074   7.217 -0.0800 -0.9953  0.3003
  605Sol     HW 5460   0.377   0.037   7.169 -0.6303  0.1337 -1.4617
  605Sol     HW 5461   0.227   0.028   7.182 -0.6048  0.6654 -0.8008
  605Sol     MW 5462   0.303   0.066   7.209 -0.3610  0.4058 -0.0716
  606Sol     OW 5463   3.216   0.947   7.943  0.5312 -0.0150 -0.4951
  606Sol     HW 5464   3.254   0.861   7.961  0.1170  0.5722  3.5289
  606Sol     HW 5465   3.123   0.929   7.928  0.2712 -0.2292  1.2349
  606Sol     MW 5466   3.211   0.938   7.943 -0.6606 -0.2696 -0.0576
  607Sol     OW 5467   1.077   2.283   2.409 -0.3846 -0.4235 -0.4946
  607Sol     HW 5468   1.129   2.205   2.427 -0.4298  0.1564  2.4165
  607Sol     HW 5469   1.141   2.354   2.406 -0.6039 -0.2357 -0.7140
  607Sol     MW 5470   1.087   2.282   2.410  0.1847 -0.4208 -0.6030
  608Sol     OW 5471   1.498   1.778   2.973  0.1583 -0.0072 -0.1514
  608Sol     HW 5472   1.520   1.734   3.055  1.8516  0.3862 -0.3811
  608Sol     HW 5473   1.512   1.712   2.905 -0.7497 -0.1788 -0.1810
  608Sol     MW 5474   1.501   1.768   2.974 -0.1446  0.1193  0.2864
  609Sol     OW 5475   3.311   1.287   4.623  0.8361  0.1085 -0.1163
  609Sol     HW 5476   3.311   1.195   4.598  0.2038  0.5263 -1.7480
  609Sol     HW 5477   3.229   1.300   4.670  0.4218  0.0702 -0.8210
  609Sol     MW 5478   3.304   1.280   4.625 -0.8086 -0.6448  0.4589
  610Sol     OW 5479   0.935   1.617   9.036 -0.3466  0.0983  0.3562
  610Sol     HW 5480   0.943   1.524   9.053 -0.9281  0.0066  0.1624
  610Sol     HW 5481   1.014   1.656   9.072  0.0277 -0.5039  0.1868
  610Sol     MW 5482   0.943   1.613   9.041  0.1589 -0.3253  0.0146
  611Sol     OW 5483   0.300   2.660   8.044 -0.1093  0.2483  0.5203
  611Sol     HW 5484   0.340   2.721   8.106 -0.8760  0.6778  0.5972
  611Sol     HW 5485   0.360   2.585   8.042  0.9520  1.1068  0.2502
  611Sol     MW 5486   0.309   2.658   8.050  0.0815 -0.0811 -0.4214
  612Sol     OW 5487   3.226   0.951   4.018 -0.5367 -0.2104  0.4466
  612Sol     HW 5488   3.238   1.017   4.086  0.7899  0.3706 -0.3254
  612Sol     HW 5489   3.315   0.919   4.001 -0.6739  0.5467 -1.8750
  612Sol     MW 5490   3.235   0.954   4.023 -0.5343  0.4705 -0.3099
  613Sol     OW 5491   2.385   0.015   4.786  0.2146 -0.4018  0.0091
  613Sol     HW 5492   2.346  -0.020   4.866 -0.2354 -1.3754 -0.6192
  613Sol     HW 5493   2.467   0.054   4.815  0.4988 -1.5526  0.8263
  613Sol     MW 5494   2.389   0.015   4.796 -0.1647  0.5592  0.1123
  614Sol     OW 5495   2.773   0.604   7.491  0.1752  0.2896  0.1790
  614Sol     HW 5496   2.785   0.691   7.453 -0.4437  0.6497  0.7872
  614Sol     HW 5497   2.856   0.584   7.535  1.4016 -0.7299 -2.5171
  614Sol     MW 5498   2.781   0.610   7.492  0.0744  0.3242 -0.0998
  615Sol     OW 5499   2.035   3.309   3.400 -0.5153 -0.0409 -0.1949
  615Sol     HW 5500   2.077   3.394   3.417 -1.8952  0.7472 -0.7061
  615Sol     HW 5501   1.943   3.323   3.421 -0.8090 -1.3378 -0.5814
  615Sol     MW 5502   2.031   3.318   3.404  0.4361  0.7667 -0.3040
  616Sol     OW 5503   1.041   0.081   6.643  0.6934 -0.3849  0.1191
  616Sol     HW 5504   1.099   0.017   6.602  2.0257  0.5230  0.5590
  616Sol     HW 5505   1.050   0.066   6.737 -0.5881 -0.9193  0.1743
  616Sol     MW 5506   1.047   0.074   6.647 -0.1105 -0.1472  0.3307
  617Sol     OW 5507   2.976   2.572   4.634 -0.3993 -0.5474  0.0897
  617Sol     HW 5508   3.008   2.639   4.574  0.2713 -0.1272  0.9082
  617Sol     HW 5509   2.999   2.489   4.592  0.7396 -0.2555  0.1163
  617Sol     MW 5510   2.981   2.571   4.625  0.3542  0.0938  0.3905
  618Sol     OW 5511   2.684   3.390   1.841  0.0009 -0.0952 -0.2406
  618Sol     HW 5512   2.665   3.484   1.839  1.3781  0.1583 -2.1554
  618Sol     HW 5513   2.627   3.352   1.774  0.5781 -0.4206 -0.5479
  618Sol     MW 5514   2.677   3.395   1.835  0.1924 -0.4107  0.0274
  619Sol     OW 5515   3.353   2.815   4.673  0.0719 -0.3312  0.1632
  619Sol     HW 5516   3.418   2.753   4.705 -1.9822 -1.3712  2.4819
  619Sol     HW 5517   3.385   2.901   4.701  0.0120 -0.9158  2.0614
  619Sol     MW 5518   3.362   2.817   4.678 -0.1526  0.3158  0.4747
  620Sol     OW 5519   3.101   2.465   3.937  0.2399  0.2096 -0.0107
  620Sol     HW 5520   3.189   2.456   3.901 -0.2100 -0.4236 -0.9794
  620Sol     HW 5521   3.093   2.391   3.998  1.0593  1.3754  1.5421
  620Sol     MW 5522   3.108   2.457   3.939  0.4023 -0.7344  0.0538
  621Sol     OW 5523   0.139   0.758   3.619 -0.5944  0.0546 -0.0979
  621Sol     HW 5524   0.093   0.676   3.638 -2.0016  0.8667 -0.0260
  621Sol     HW 5525   0.087   0.800   3.551  1.2464 -0.0526 -1.6523
  621Sol     MW 5526   0.130   0.754   3.614 -0.5830  0.0482  0.0075
  622Sol     OW 5527   3.526   2.187   2.382  0.6385 -0.2405  0.0221
  622Sol     HW 5528   3.554   2.122   2.446 -1.0102 -3.4012 -2.2728
  622Sol     HW 5529   3.584   2.172   2.307  0.0721  0.7791 -0.6230
  622Sol     MW 5530   3.534   2.180   2.381  0.5352  0.1236 -0.1237
  623Sol     OW 5531   3.191   0.345   8.355  0.3699 -0.1459  0.1535
  623Sol     HW 5532   3.114   0.291   8.339  0.3827  0.0756 -0.6980
  623Sol     HW 5533   3.233   0.305   8.431 -0.0198 -0.8875 -0.0149
  623Sol     MW 5534   3.188   0.337   8.360 -0.2756 -0.1724  0.2546
  624Sol     OW 5535   2.700   0.266   7.452 -0.5592 -0.1758  0.1119
  624Sol     HW 5536   2.775   0.310   7.413 -0.4904 -1.1449 -0.8396
  624Sol     HW 5537   2.626   0.291   7.397 -0.9240  0.6592  0.9615
  624Sol     MW 5538   2.700   0.272   7.444  0.4177  0.1153  0.1258
  625Sol     OW 5539   1.973   2.519   5.807 -0.2885  0.3937  0.2264
  625Sol     HW 5540   2.018   2.437   5.830  0.3209  1.0496  1.4285
  625Sol     HW 5541   1.923   2.498   5.728  2.6458 -0.2133 -1.5736
  625Sol     MW 5542   1.973   2.510   5.802 -0.4711 -0.2892 -0.2100
  626Sol     OW 5543   1.105   1.868   3.982 -0.0282 -0.1901 -0.1924
  626Sol     HW 5544   1.054   1.822   4.048  0.1618  0.3636  0.3480
  626Sol     HW 5545   1.190   1.884   4.023  0.1189  0.0843 -0.5954
  626Sol     MW 5546   1.108   1.866   3.991 -0.3880 -0.1470  0.2240
  627Sol     OW 5547   1.290   3.164   4.173  0.0528 -0.1094 -0.5082
  627Sol     HW 5548   1.272   3.196   4.261 -2.1587 -1.5145 -0.3914
  627Sol     HW 5549   1.234   3.216   4.116 -1.7528 -2.0549 -0.5741
  627Sol     MW 5550   1.284   3.171   4.176 -0.0968 -0.4047 -0.4672
  628Sol     OW 5551   0.672   0.517   1.515  0.2971  0.1298  0.2457
  628Sol     HW 5552   0.670   0.554   1.426  1.6736  1.3284  0.6837
  628Sol     HW 5553   0.753   0.551   1.552  0.6670 -1.8703  1.3357
  628Sol     MW 5554   0.679   0.523   1.510  0.1457  0.5707  0.2787
  629Sol     OW 5555   3.434   0.276   3.748 -0.5459 -0.2522  0.1716
  629Sol     HW 5556   3.490   0.232   3.812  1.0682  1.5018  0.0073
  629Sol     HW 5557   3.493   0.333   3.699 -2.3745  1.2009 -0.4222
  629Sol     MW 5558   3.444   0.277   3.749 -0.0560  0.0959  0.0028
  630Sol     OW 5559   1.226   0.626   8.239  0.7781 -0.5262 -0.0517
  630Sol     HW 5560   1.193   0.678   8.166  2.5982  0.3616 -0.2605
  630Sol     HW 5561   1.288   0.565   8.200  0.7982 -0.9139  0.5820
  630Sol     MW 5562   1.229   0.625   8.229 -0.2435  0.5493 -0.8090
  631Sol     OW 5563   3.379   2.430   9.026  0.1028 -0.3843 -0.1613
  631Sol     HW 5564   3.471   2.404   9.039  0.1838  0.5026  1.1260
  631Sol     HW 5565   3.385   2.519   8.992 -0.2637 -0.5895 -0.7505
  631Sol     MW 5566   3.388   2.436   9.024  0.7843  0.6768 -0.2770
  632Sol     OW 5567   1.296   0.645   3.646  0.0527  0.1273  0.2595
  632Sol     HW 5568   1.369   0.670   3.702  1.2503 -0.2559 -1.0983
  632Sol     HW 5569   1.230   0.712   3.661  1.5964  1.7764 -0.2304
  632Sol     MW 5570   1.296   0.653   3.652 -0.5027  0.5784  0.4025
  633Sol     OW 5571   0.502   0.107   5.155 -0.3906  0.4294 -0.4557
  633Sol     HW 5572   0.417   0.068   5.132  0.2064  0.1784 -2.3218
  633Sol     HW 5573   0.493   0.199   5.131  0.0869  0.2676 -1.2466
  633Sol     MW 5574   0.493   0.112   5.151  0.0697  0.2038 -0.3234
  634Sol     OW 5575   1.746   0.089   1.629 -0.2010 -0.2501 -0.1450
  634Sol     HW 5576   1.783   0.056   1.710  1.4412  0.5086 -0.5780
  634Sol     HW 5577   1.758   0.017   1.567 -1.3753 -0.7956  0.2453
  634Sol     MW 5578   1.750   0.079   1.630  0.2567 -0.2405 -0.4723
  635Sol     OW 5579   2.855   1.505   4.675 -0.4397 -0.0271  0.4711
  635Sol     HW 5580   2.765   1.502   4.707 -0.0665 -1.8771  1.4314
  635Sol     HW 5581   2.909   1.493   4.753  0.6693  1.5594 -0.0307
  635Sol     MW 5582   2.851   1.503   4.685 -0.2095 -0.9331  0.3579
  636Sol     OW 5583   2.870   1.749   5.537 -0.5590 -0.2090 -0.0033
  636Sol     HW 5584   2.952   1.747   5.586  0.0499 -1.0833 -1.0276
  636Sol     HW 5585   2.879   1.824   5.478 -0.8816  0.2449  0.5188
  636Sol     MW 5586   2.878   1.755   5.536 -0.2310  0.1381 -0.4009
  637Sol     OW 5587   3.353   1.133   1.752 -0.6939  0.3686 -0.6497
  637Sol     HW 5588   3.301   1.177   1.820  0.6890  1.6263 -0.3974
  637Sol     HW 5589   3.304   1.148   1.671 -0.0904  2.6894 -0.6243
  637Sol     MW 5590   3.344   1.138   1.751  0.2501 -1.1485  0.2028
  638Sol     OW 5591   1.534   2.588   6.576  0.4262  0.3758  0.2889
  638Sol     HW 5592   1.533   2.504   6.622 -1.2353  0.2677  0.0915
  638Sol     HW 5593   1.554   2.565   6.485 -0.0224  0.1780  0.2354
  638Sol     MW 5594   1.536   2.578   6.572  0.3478 -0.0854 -0.2910
  639Sol     OW 5595   1.757   2.124   1.909 -0.1029 -0.2851 -0.2618
  639Sol     HW 5596   1.739   2.156   1.998 -0.2359 -0.0196 -0.3819
  639Sol     HW 5597   1.801   2.040   1.922  1.0266  0.3486  0.0786
  639Sol     MW 5598   1.759   2.120   1.918  0.1298 -0.2982  0.1704
  640Sol     OW 5599   1.015   0.287   3.545 -0.5961  0.0132 -0.1585
  640Sol     HW 5600   1.007   0.192   3.552  0.6980 -0.0531  0.5174
  640Sol     HW 5601   1.088   0.309   3.603 -0.1067  1.2884 -1.2554
  640Sol     MW 5602   1.021   0.281   3.551  0.3187 -0.4629  0.1543
  641Sol     OW 5603   1.723   1.260   1.667 -0.2684 -0.0859 -0.3017
  641Sol     HW 5604   1.810   1.263   1.706 -0.1065 -0.0939 -0.6652
  641Sol     HW 5605   1.681   1.341   1.696 -1.0197 -1.2031  1.9341
  641Sol     MW 5606   1.727   1.267   1.673 -0.2719 -0.0870 -0.0190
  642Sol     OW 5607   0.754   2.798   8.742 -0.2339 -0.3544 -0.6124
  642Sol     HW 5608   0.774   2.868   8.680  0.3036 -1.1661 -1.3755
  642Sol     HW 5609   0.837   2.781   8.787 -0.6428  0.2860  0.3986
  642Sol     MW 5610   0.763   2.802   8.740 -0.3808 -0.5872  0.4181
  643Sol     OW 5611   0.539   2.462   2.283  0.4104  0.8573  0.1011
  643Sol     HW 5612   0.478   2.518   2.330 -1.2404 -0.7910 -0.0191
  643Sol     HW 5613   0.588   2.416   2.352 -0.4857  0.0782  0.2400
  643Sol     MW 5614   0.538   2.463   2.293 -0.2275 -0.1315 -0.3392
  644Sol     OW 5615   0.395   0.294   2.911  0.5516  1.0383 -0.0844
  644Sol     HW 5616   0.389   0.220   2.970  0.9641  0.6255 -0.5520
  644Sol     HW 5617   0.319   0.349   2.932  1.4106  1.5624  1.7293
  644Sol     MW 5618   0.388   0.293   2.918 -0.2289  0.6950  0.1674
  645Sol     OW 5619   1.811   2.834   4.455  0.0329  0.7695  0.0355
  645Sol     HW 5620   1.717   2.832   4.434 -0.5597 -2.0836  2.6087
  645Sol     HW 5621   1.814   2.851   4.549  2.0320 -0.6346  0.2428
  645Sol     MW 5622   1.803   2.835   4.461 -1.0403  0.2147  0.6392
  646Sol     OW 5623   0.732   2.860   1.524  0.0617  0.2693 -0.5407
  646Sol     HW 5624   0.782   2.793   1.570 -3.5515 -0.9057  1.9252
  646Sol     HW 5625   0.711   2.820   1.440  0.7635 -0.3729 -0.4154
  646Sol     MW 5626   0.734   2.851   1.521  0.0418 -0.2156  0.0198
  647Sol     OW 5627   1.581   1.770   1.860  0.0709  0.0355 -0.3505
  647Sol     HW 5628   1.635   1.789   1.937 -0.5067  0.2255  0.0124
  647Sol     HW 5629   1.491   1.780   1.891 -0.1436  1.8046 -1.5030
  647Sol     MW 5630   1.577   1.773   1.870 -0.2276  0.2065  0.4131
  648Sol     OW 5631   1.973   2.555   4.223  0.4232  0.0559 -0.1068
  648Sol     HW 5632   2.038   2.487   4.204  0.0508 -0.1010 -0.8257
  648Sol     HW 5633   1.891   2.522   4.187  0.5803  1.6219 -2.0095
  648Sol     MW 5634   1.972   2.546   4.218  0.7245  0.1507 -0.3146
  649Sol     OW 5635   2.085   2.443   6.297 -0.0638 -0.3603 -0.8542
  649Sol     HW 5636   2.151   2.423   6.363 -0.9561 -0.4826  0.0325
  649Sol     HW 5637   2.133   2.484   6.225  0.8898  0.0605  0.0097
  649Sol     MW 5638   2.095   2.445   6.297 -0.2383  0.2339 -0.2090
  650Sol     OW 5639   2.011   2.315   7.547  0.3161  0.4476  0.3048
  650Sol     HW 5640   2.064   2.311   7.627  1.3271  1.7349 -0.2786
  650Sol     HW 5641   2.019   2.406   7.519  0.5796 -0.1754 -1.6758
  650Sol     MW 5642   2.017   2.323   7.552  0.3191 -0.0494  0.1228
  651Sol     OW 5643   0.998   2.730   4.925 -0.0397  0.1128  0.1222
  651Sol     HW 5644   1.087   2.746   4.956  0.2042 -0.3840 -0.3362
  651Sol     HW 5645   0.946   2.799   4.968  0.3753 -0.2633  1.2607
  651Sol     MW 5646   1.001   2.738   4.932 -0.2695 -0.0640  0.4748
  652Sol     OW 5647   0.870   0.932   1.759  0.9424  0.3719 -0.6116
  652Sol     HW 5648   0.779   0.915   1.736  0.7811  0.8636 -0.3559
  652Sol     HW 5649   0.870   1.022   1.792  1.3500  0.0367  0.3179
  652Sol     MW 5650   0.862   0.939   1.760 -0.7685  0.1996  0.4355
  653Sol     OW 5651   1.466   1.040   7.861 -0.5682 -0.3823  0.1373
  653Sol     HW 5652   1.436   1.038   7.770 -0.5286  0.3643  0.1061
  653Sol     HW 5653   1.385   1.042   7.913 -0.5760  0.8087  0.0753
  653Sol     MW 5654   1.456   1.040   7.858 -0.0479  0.0071 -0.2719
  654Sol     OW 5655   2.550   1.979   5.369 -0.2291 -0.4937  0.4082
  654Sol     HW 5656   2.475   1.934   5.331  0.3293 -1.9309  1.0073
  654Sol     HW 5657   2.625   1.949   5.317  0.1095 -0.0372  0.6292
  654Sol     MW 5658   2.550   1.973   5.361  0.1714  0.3569 -0.3450
  655Sol     OW 5659   0.784   3.140   3.747  0.1767 -0.5456  0.3723
  655Sol     HW 5660   0.784   3.182   3.834  1.0508  0.1890  0.0244
  655Sol     HW 5661   0.832   3.058   3.760  1.7862  0.3588  0.2178
  655Sol     MW 5662   0.788   3.136   3.756 -0.2757 -0.0251 -0.1397
  656Sol     OW 5663   1.882   2.210   4.662 -0.2426 -0.0237 -0.4748
  656Sol     HW 5664   1.790   2.196   4.683  0.0918 -3.6289 -1.0843
  656Sol     HW 5665   1.915   2.268   4.731 -2.5029 -0.2069  0.7803
  656Sol     MW 5666   1.877   2.214   4.670 -0.1911  0.5189 -0.4681
  657Sol     OW 5667   0.957   2.734   6.471 -0.1095  0.1845 -0.6605
  657Sol     HW 5668   0.952   2.793   6.546  1.3834 -0.5561  0.0400
  657Sol     HW 5669   1.024   2.670   6.495 -0.2425 -0.5826 -2.2620
  657Sol     MW 5670   0.962   2.733   6.479 -0.1880  0.9503 -0.0711
  658Sol     OW 5671   3.224   2.507   8.176  0.5369  0.0623  0.2824
  658Sol     HW 5672   3.144   2.534   8.220 -0.1375 -3.0586  1.0670
  658Sol     HW 5673   3.232   2.567   8.101 -2.8376  0.0157 -0.1796
  658Sol     MW 5674   3.218   2.515   8.173 -0.3698 -0.2902 -0.0869
  659Sol     OW 5675   1.448   0.756   6.040  0.2107 -0.0820 -0.7691
  659Sol     HW 5676   1.540   0.760   6.014  0.2642 -0.3281 -0.6091
  659Sol     HW 5677   1.448   0.713   6.125  0.1247  1.6239  0.1169
  659Sol     MW 5678   1.456   0.753   6.045 -0.3722  0.0391 -0.3618
  660Sol     OW 5679   0.480   1.229   2.467  0.5013  0.0410  0.1398
  660Sol     HW 5680   0.555   1.237   2.407  0.3342  0.5937  0.0070
  660Sol     HW 5681   0.448   1.140   2.452 -0.0076  0.4253 -1.1478
  660Sol     MW 5682   0.484   1.222   2.460 -0.1523 -0.1917 -0.3486
  661Sol     OW 5683   3.322   2.095   5.097  0.3573  0.4391  0.1856
  661Sol     HW 5684   3.291   2.138   5.177 -2.2976  1.5372 -1.3740
  661Sol     HW 5685   3.323   2.002   5.120  1.0430  0.8471  1.9268
  661Sol     MW 5686   3.319   2.090   5.106  0.4843  0.8802 -0.1923
  662Sol     OW 5687   0.478   0.415   8.164  0.3751  0.1558 -0.1154
  662Sol     HW 5688   0.541   0.348   8.192 -0.3062 -0.6781 -0.5346
  662Sol     HW 5689   0.394   0.370   8.166 -0.5082  1.8269  2.4371
  662Sol     MW 5690   0.476   0.405   8.167  0.5081  0.4351 -0.5930
  663Sol     OW 5691   1.720   0.573   1.741  0.7231  0.2724  0.6043
  663Sol     HW 5692   1.718   0.565   1.836  2.0442 -0.6257  0.5631
  663Sol     HW 5693   1.708   0.667   1.724  1.0243  0.5062  1.6697
  663Sol     MW 5694   1.719   0.581   1.748  0.2280 -0.2988  0.2214
  664Sol     OW 5695   0.736   1.373   4.889  0.3924  0.1694 -0.5890
  664Sol     HW 5696   0.760   1.465   4.902  0.0010  0.6865 -3.3016
  664Sol     HW 5697   0.783   1.348   4.809 -0.4300 -1.6563 -0.4999
  664Sol     MW 5698   0.743   1.379   4.883 -0.1436  0.0370 -0.5090
  665Sol     OW 5699   0.215   0.268   1.645 -0.3995 -0.1274  0.2376
  665Sol     HW 5700   0.204   0.359   1.618 -0.3531 -0.3278 -0.4582
  665Sol     HW 5701   0.307   0.260   1.667  0.4569 -0.9947 -3.4212
  665Sol     MW 5702   0.222   0.275   1.645 -0.0586 -0.7585 -0.0887
  666Sol     OW 5703   0.193   1.939   8.412  0.2045  0.0804 -0.2525
  666Sol     HW 5704   0.154   1.851   8.408  2.6682 -1.0188 -1.0478
  666Sol     HW 5705   0.129   1.995   8.368 -0.9358 -1.4828 -0.6648
  666Sol     MW 5706   0.184   1.936   8.408  0.0600 -0.3550  0.6678
  667Sol     OW 5707   1.935   1.929   5.414 -0.0116  0.1815 -0.1281
  667Sol     HW 5708   1.857   1.916   5.360  0.5251  1.7242 -1.3087
  667Sol     HW 5709   1.960   1.841   5.442 -1.7188 -0.3985 -0.3657
  667Sol     MW 5710   1.930   1.920   5.412 -0.3788  0.2723 -0.3904
  668Sol     OW 5711   0.066   0.731   7.448  0.1893  0.0288 -0.2096
  668Sol     HW 5712   0.014   0.759   7.374  0.2581  0.8449  0.0374
  668Sol     HW 5713   0.146   0.696   7.410  0.8118  1.6860 -0.5008
  668Sol     MW 5714   0.069   0.731   7.438 -0.1771 -1.0322  0.4451
  669Sol     OW 5715   1.806   2.567   1.586  0.4873  0.0360 -0.0521
  669Sol     HW 5716   1.736   2.514   1.549  0.1875  0.9327 -0.7649
  669Sol     HW 5717   1.780   2.580   1.677 -0.1867  0.2258 -0.2712
  669Sol     MW 5718   1.798   2.563   1.591  0.4346 -0.0052  0.1426
  670Sol     OW 5719   2.101   3.167   5.306  0.1975 -0.1796  0.6503
  670Sol     HW 5720   2.024   3.155   5.360  0.3861 -1.1017  0.7365
  670Sol     HW 5721   2.137   3.078   5.297  0.4041  0.0238 -0.6172
  670Sol     MW 5722   2.098   3.158   5.310 -0.3513 -0.1935  0.3649
  671Sol     OW 5723   0.183   1.635   7.715  0.9902 -0.5821  0.1431
  671Sol     HW 5724   0.160   1.690   7.789 -1.7072  0.0251 -1.0784
  671Sol     HW 5725   0.138   1.674   7.640  0.9540 -3.0498 -1.2039
  671Sol     MW 5726   0.177   1.643   7.715 -0.2549 -0.1386  0.2480
  672Sol     OW 5727   0.410   2.414   7.426  0.3448  0.0846 -0.1758
  672Sol     HW 5728   0.363   2.358   7.364  0.7076  0.8504 -1.1638
  672Sol     HW 5729   0.364   2.498   7.423  0.6458  0.2695  0.2538
  672Sol     MW 5730   0.402   2.417   7.420 -0.6039 -0.6067  0.9102
  673Sol     OW 5731   1.786   1.456   8.694  0.0985  0.0432  0.1073
  673Sol     HW 5732   1.830   1.516   8.634  0.7895 -1.1852 -0.6455
  673Sol     HW 5733   1.857   1.422   8.749 -0.8249  2.8702  3.1703
  673Sol     MW 5734   1.797   1.458   8.694 -0.2056 -0.3055  0.2140
  674Sol     OW 5735   3.369   1.661   4.579  0.1141  0.3722  0.7932
  674Sol     HW 5736   3.400   1.726   4.516  0.2464 -0.2604  0.2025
  674Sol     HW 5737   3.318   1.600   4.527  0.2950 -0.2025  1.2913
  674Sol     MW 5738   3.367   1.662   4.568 -0.0759 -0.0294  0.0240
  675Sol     OW 5739   1.422   2.202   3.254  0.3202  0.0701 -0.2202
  675Sol     HW 5740   1.359   2.182   3.184  0.1200  0.9116 -0.2844
  675Sol     HW 5741   1.452   2.116   3.284  0.2977 -0.3112 -1.2404
  675Sol     MW 5742   1.419   2.192   3.250 -0.7505 -0.0874  0.4535
  676Sol     OW 5743   2.945   1.295   1.434 -0.0673 -0.0878  0.4316
  676Sol     HW 5744   2.947   1.305   1.339  1.1106 -1.5987  0.2782
  676Sol     HW 5745   2.968   1.381   1.468 -1.1090  0.6246 -0.6339
  676Sol     MW 5746   2.948   1.304   1.428 -0.4218 -0.3157  0.1244
  677Sol     OW 5747   1.651   0.543   7.778  0.1998  0.0252 -0.0482
  677Sol     HW 5748   1.586   0.614   7.782  0.6934  0.5116 -0.6413
  677Sol     HW 5749   1.735   0.588   7.770  0.4793 -0.6242 -0.8609
  677Sol     MW 5750   1.652   0.554   7.777 -0.0227 -0.0282  0.5651
  678Sol     OW 5751   0.880   1.194   1.808 -0.1106 -0.5715 -0.0973
  678Sol     HW 5752   0.838   1.249   1.874  0.3671  0.0280 -0.2752
  678Sol     HW 5753   0.879   1.249   1.729  0.1803 -0.9066 -0.3319
  678Sol     MW 5754   0.876   1.204   1.807 -0.6816  0.4712  0.5807
  679Sol     OW 5755   1.578   1.451   3.132  0.6499 -0.2369  0.0780
  679Sol     HW 5756   1.612   1.475   3.046  1.9454 -0.5326  0.5008
  679Sol     HW 5757   1.502   1.508   3.145 -0.5297 -1.3090 -1.9524
  679Sol     MW 5758   1.574   1.458   3.126 -0.4236  0.4332 -0.1525
  680Sol     OW 5759   1.216   2.292   4.747  0.2201  0.1682 -0.1602
  680Sol     HW 5760   1.276   2.218   4.755 -2.2517 -1.8629  0.5151
  680Sol     HW 5761   1.211   2.329   4.835 -0.1276 -0.1815 -0.0301
  680Sol     MW 5762   1.221   2.288   4.755  0.1371  0.3139  0.2406
  681Sol     OW 5763   2.235   0.248   7.278  0.0159  0.5050  0.2657
  681Sol     HW 5764   2.197   0.328   7.240 -0.8689  0.4126  0.9414
  681Sol     HW 5765   2.183   0.232   7.357  0.7395 -0.2670  0.5939
  681Sol     MW 5766   2.227   0.254   7.282 -0.2274  0.0801 -0.0308
  682Sol     OW 5767   0.856   0.622   2.548  0.2060 -0.4663  0.2162
  682Sol     HW 5768   0.812   0.706   2.562  0.5946  0.1377 -1.9468
  682Sol     HW 5769   0.921   0.617   2.618 -0.5125  0.5641  0.9679
  682Sol     MW 5770   0.858   0.629   2.556  0.3532 -0.2395  0.0510
  683Sol     OW 5771   0.231   0.473   4.172 -0.3071 -0.7212  0.0700
  683Sol     HW 5772   0.314   0.426   4.167 -0.1930 -0.4411 -0.8291
  683Sol     HW 5773   0.253   0.557   4.212 -0.0796 -0.4825 -0.5513
  683Sol     MW 5774   0.240   0.477   4.175  0.4703 -0.2203  0.5914
  684Sol     OW 5775   2.168   0.063   1.134  0.0172  0.6164  0.0046
  684Sol     HW 5776   2.099   0.001   1.158  1.1116 -1.2695 -1.5110
  684Sol     HW 5777   2.249   0.018   1.157  0.7751  2.7413  1.6154
  684Sol     MW 5778   2.169   0.054   1.138  0.6688  0.4564  0.1983
  685Sol     OW 5779   3.301   0.499   4.770  0.5071 -0.0114  0.2675
  685Sol     HW 5780   3.286   0.470   4.680  0.6099  0.6775  0.0326
  685Sol     HW 5781   3.338   0.422   4.814 -1.6236 -1.0771  0.2947
  685Sol     MW 5782   3.303   0.489   4.766  0.0154 -0.5600  0.8049
  686Sol     OW 5783   1.084   2.367   6.752 -0.1713  0.2114 -0.3801
  686Sol     HW 5784   1.007   2.337   6.704  0.5447 -0.2404 -1.2471
  686Sol     HW 5785   1.048   2.421   6.823 -1.2428  0.7182 -1.2914
  686Sol     MW 5786   1.074   2.369   6.754  0.0019  0.1305 -0.2506
  687Sol     OW 5787   0.430   2.634   1.251 -0.5304 -0.1824  0.2663
  687Sol     HW 5788   0.368   2.617   1.180  3.1319 -1.9563 -2.7076
  687Sol     HW 5789   0.429   2.554   1.304  1.7286 -1.7437 -1.9036
  687Sol     MW 5790   0.425   2.625   1.249  0.0464 -0.4171 -0.0162
  688Sol     OW 5791   3.095   0.233   4.698  0.3772 -0.5694  0.1070
  688Sol     HW 5792   3.118   0.272   4.613 -0.9446  1.1139  0.4834
  688Sol     HW 5793   3.065   0.145   4.677  0.2548 -0.2413 -1.1679
  688Sol     MW 5794   3.094   0.229   4.688 -0.2954 -0.4001 -0.1512
  689Sol     OW 5795   3.511   1.275   8.601  0.2124  0.0081  0.3424
  689Sol     HW 5796   3.455   1.225   8.542  0.2088  0.7901 -0.3283
  689Sol     HW 5797   3.487   1.244   8.689  0.1893 -1.1305 -0.0534
  689Sol     MW 5798   3.504   1.268   8.604 -0.4280  0.2589  0.3799
  690Sol     OW 5799   0.314   3.152   6.155  0.1537 -0.4070 -0.8316
  690Sol     HW 5800   0.236   3.142   6.100  0.6873  1.4269 -1.9365
  690Sol     HW 5801   0.284   3.204   6.230 -0.1756 -1.4942 -0.1993
  690Sol     MW 5802   0.304   3.156   6.157  0.3227 -1.1183  0.2698
  691Sol     OW 5803   0.456   2.282   5.177  0.0348 -0.0198 -0.2720
  691Sol     HW 5804   0.408   2.230   5.113  0.7609 -0.7621 -0.2302
  691Sol     HW 5805   0.514   2.338   5.124 -0.2863  0.2896 -0.2978
  691Sol     MW 5806   0.457   2.283   5.166  0.3270  0.4640 -0.3459
  692Sol     OW 5807   3.226   1.367   8.386  0.1153  0.0978  0.2366
  692Sol     HW 5808   3.284   1.292   8.375  0.0529 -0.0837  1.1084
  692Sol     HW 5809   3.249   1.426   8.315  0.0009 -0.8562 -0.6025
  692Sol     MW 5810   3.233   1.366   8.379  0.5800 -0.1185  0.2934
  693Sol     OW 5811   1.208   2.944   8.624  0.6787 -0.2529  0.1863
  693Sol     HW 5812   1.219   3.032   8.662 -1.6595  0.4851 -0.7890
  693Sol     HW 5813   1.191   2.888   8.699 -2.7797  1.0010  0.4211
  693Sol     MW 5814   1.208   2.947   8.634  0.0187  0.6154  0.2660
  694Sol     OW 5815   1.981   1.964   2.581  0.1293  0.1521  0.3039
  694Sol     HW 5816   1.991   2.056   2.603  1.5269  0.3272 -0.9732
  694Sol     HW 5817   2.069   1.928   2.586 -0.3804 -1.0883  0.6501
  694Sol     MW 5818   1.990   1.969   2.583  0.0625  0.5579  0.1416
  695Sol     OW 5819   3.410   0.115   5.730 -0.0367  0.2678 -0.4449
  695Sol     HW 5820   3.404   0.034   5.780  1.2640  1.4898  1.7717
  695Sol     HW 5821   3.473   0.095   5.660  0.1912 -0.6667  0.0133
  695Sol     MW 5822   3.415   0.106   5.728  0.0618  0.0776 -0.1269
  696Sol     OW 5823   0.808   1.155   6.288 -0.1974 -0.4363 -0.5949
  696Sol     HW 5824   0.902   1.172   6.280 -0.0322 -0.6862  0.7188
  696Sol     HW 5825   0.780   1.210   6.362 -1.0319 -0.5465 -0.8286
  696Sol     MW 5826   0.814   1.162   6.294  0.4384 -0.5595  0.2617
  697Sol     OW 5827   1.128   1.515   2.711 -0.3812  0.2931 -0.3121
  697Sol     HW 5828   1.040   1.480   2.698  0.2265 -1.3100 -0.1607
  697Sol     HW 5829   1.130   1.541   2.803 -1.3221  2.1684 -0.7914
  697Sol     MW 5830   1.120   1.514   2.718  0.1285 -0.2603 -0.0758
  698Sol     OW 5831   0.162   0.111   8.721 -0.4451 -0.5663 -0.0901
  698Sol     HW 5832   0.166   0.161   8.640 -0.0985  0.1614  0.3679
  698Sol     HW 5833   0.206   0.028   8.701  0.6406  0.0557 -0.3284
  698Sol     MW 5834   0.166   0.108   8.712 -0.2708  0.2133  0.0650
  699Sol     OW 5835   3.396   1.422   3.588  0.4009 -0.7255 -0.0716
  699Sol     HW 5836   3.326   1.486   3.578  0.5373 -0.9481 -2.9540
  699Sol     HW 5837   3.476   1.470   3.568  0.5696 -1.5720 -1.5539
  699Sol     MW 5838   3.397   1.432   3.585 -0.3574 -0.0290 -0.2904
  700Sol     OW 5839   2.757   1.576   2.000 -0.7374  0.2035  0.4646
  700Sol     HW 5840   2.749   1.560   2.094 -0.4399 -2.6339  0.0700
  700Sol     HW 5841   2.852   1.582   1.985 -0.7599  0.1561  0.2989
  700Sol     MW 5842   2.765   1.575   2.007  0.6245 -0.5765 -0.7190
  701Sol     OW 5843   2.095   1.828   4.128  0.3060 -0.0885 -0.1769
  701Sol     HW 5844   2.109   1.813   4.035  1.5057 -1.3195  0.1896
  701Sol     HW 5845   2.072   1.921   4.134  1.1330  0.2262 -1.5991
  701Sol     MW 5846   2.094   1.835   4.120 -0.6875 -0.0652 -0.5042
  702Sol     OW 5847   1.365   0.513   6.584 -0.2688 -0.8740 -0.4105
  702Sol     HW 5848   1.277   0.522   6.548  0.2477 -0.4598 -1.6249
  702Sol     HW 5849   1.415   0.582   6.541  1.1336 -2.4027 -1.2955
  702Sol     MW 5850   1.362   0.520   6.577  0.1363  0.2461 -0.9376
  703Sol     OW 5851   2.531   1.696   1.878  0.2187 -0.2430  0.2219
  703Sol     HW 5852   2.602   1.654   1.926  0.8840  1.8126  1.0706
  703Sol     HW 5853   2.569   1.777   1.844 -1.3895  0.3023 -0.3261
  703Sol     MW 5854   2.540   1.700   1.879 -0.2247  0.2316  0.4789
  704Sol     OW 5855   1.739   0.745   6.023 -0.3702 -0.0379 -0.0744
  704Sol     HW 5856   1.749   0.671   5.963 -0.2350  0.0817 -0.2010
  704Sol     HW 5857   1.764   0.821   5.970 -3.8301  0.5387 -1.0320
  704Sol     MW 5858   1.742   0.745   6.013  0.0987  0.3604 -0.2424
  705Sol     OW 5859   1.537   1.156   3.770  0.1324  0.0502  0.0723
  705Sol     HW 5860   1.562   1.071   3.736  2.7809  1.1810 -0.9288
  705Sol     HW 5861   1.587   1.165   3.851 -0.9037  0.2458  0.7021
  705Sol     MW 5862   1.544   1.149   3.775 -0.1265 -0.2122 -0.6130
  706Sol     OW 5863   0.244   3.353   5.441  0.8271  0.0500  0.0889
  706Sol     HW 5864   0.243   3.373   5.347 -1.8319  4.3281  0.9042
  706Sol     HW 5865   0.330   3.383   5.470  0.1663  2.4001 -0.3083
  706Sol     MW 5866   0.252   3.357   5.435  0.3387  0.3631  0.0963
  707Sol     OW 5867   1.115   0.317   2.220 -0.2350 -0.1212 -0.2617
  707Sol     HW 5868   1.115   0.389   2.157  2.6551  0.6172  0.5252
  707Sol     HW 5869   1.039   0.335   2.276  0.2063  2.1236 -0.3249
  707Sol     MW 5870   1.108   0.325   2.219  0.1680 -0.6571  0.3811
  708Sol     OW 5871   3.337   1.085   4.461 -0.3696 -0.0035  0.6119
  708Sol     HW 5872   3.309   1.000   4.426 -0.8832  0.2384  0.4176
  708Sol     HW 5873   3.427   1.095   4.432 -0.5177 -0.1921  0.0802
  708Sol     MW 5874   3.342   1.078   4.455 -0.3248  0.0331  0.5379
  709Sol     OW 5875   0.588   0.949   7.927  0.0231  0.6025  1.1889
  709Sol     HW 5876   0.670   0.905   7.906  0.4973  2.2211 -0.5046
  709Sol     HW 5877   0.586   0.951   8.023  1.3627 -0.5469  1.2521
  709Sol     MW 5878   0.595   0.945   7.934  0.0760 -0.1342 -0.0188
  710Sol     OW 5879   2.096   1.814   8.603  0.5246 -0.7006 -0.1271
  710Sol     HW 5880   2.032   1.865   8.553 -0.3784 -0.7963  0.9219
  710Sol     HW 5881   2.125   1.746   8.542  1.3435  0.7243 -1.3717
  710Sol     MW 5882   2.093   1.813   8.593 -0.1319  0.5391  0.3003
  711Sol     OW 5883   2.799   3.281   6.982 -0.3726 -0.2120  0.2741
  711Sol     HW 5884   2.821   3.236   7.064 -3.3013 -1.4947  0.4245
  711Sol     HW 5885   2.705   3.298   6.989 -0.1805  1.9350 -1.7619
  711Sol     MW 5886   2.792   3.278   6.990 -0.4564 -0.5957 -0.4715
  712Sol     OW 5887   1.664   2.190   6.299 -0.7418 -0.4827 -0.3909
  712Sol     HW 5888   1.758   2.192   6.316 -0.9907 -0.1455  1.0584
  712Sol     HW 5889   1.634   2.111   6.345 -1.3333  0.0479  0.1476
  712Sol     MW 5890   1.670   2.183   6.305  0.3562  0.0410  0.1020
  713Sol     OW 5891   2.297   3.067   2.290 -0.1292  0.1087 -0.1832
  713Sol     HW 5892   2.358   3.098   2.358  2.1001 -0.2928 -1.9587
  713Sol     HW 5893   2.320   2.975   2.278 -2.0376 -0.4263  0.0726
  713Sol     MW 5894   2.305   3.062   2.295  0.0174  0.1021  0.1867
  714Sol     OW 5895   0.944   2.907   8.529 -0.0200 -0.4845 -0.5997
  714Sol     HW 5896   1.035   2.920   8.556 -0.3446 -2.6525  1.8228
  714Sol     HW 5897   0.949   2.840   8.461  0.3178  0.7167 -1.7786
  714Sol     MW 5898   0.953   2.902   8.525 -0.1638  0.6643 -0.1163
  715Sol     OW 5899   1.278   0.442   4.787 -0.3810  0.5087  0.5511
  715Sol     HW 5900   1.207   0.496   4.753  0.1631  0.6709 -0.3536
  715Sol     HW 5901   1.252   0.422   4.877 -2.1959 -0.5224 -0.1779
  715Sol     MW 5902   1.269   0.445   4.792 -0.0454  0.6994 -0.8739
  716Sol     OW 5903   3.023   2.025   6.867  0.1188  0.0341  0.0298
  716Sol     HW 5904   2.978   2.090   6.921  2.0930  2.1064 -0.7043
  716Sol     HW 5905   3.111   2.019   6.905  0.3821 -1.2243 -0.7343
  716Sol     MW 5906   3.027   2.031   6.875  0.0620  0.2757  0.3059
  717Sol     OW 5907   2.547   1.574   6.538 -0.0270 -0.0976  0.1935
  717Sol     HW 5908   2.625   1.617   6.573 -0.7519  1.2403  0.1858
  717Sol     HW 5909   2.482   1.583   6.608 -0.7198  0.3695 -0.5068
  717Sol     MW 5910   2.548   1.579   6.548 -0.1413  0.2031  0.4417
  718Sol     OW 5911   0.222   1.772   1.610 -0.1053 -0.0459  0.3512
  718Sol     HW 5912   0.165   1.804   1.679 -0.1177 -1.2557  0.9202
  718Sol     HW 5913   0.163   1.731   1.547 -0.1907  1.9779 -0.9117
  718Sol     MW 5914   0.212   1.771   1.611  0.0640 -0.1506 -0.3606
  719Sol     OW 5915   3.414   2.893   7.224  1.2342 -0.2184 -0.8438
  719Sol     HW 5916   3.368   2.814   7.253  1.5366 -0.2502 -0.4510
  719Sol     HW 5917   3.470   2.864   7.152  0.3717 -0.1130 -1.5668
  719Sol     MW 5918   3.415   2.883   7.221  0.5262  0.3424 -0.4247
  720Sol     OW 5919   2.742   3.282   4.753 -0.2516  0.0165 -0.2634
  720Sol     HW 5920   2.699   3.360   4.785 -0.0079 -0.1197  0.3970
  720Sol     HW 5921   2.688   3.209   4.785  0.0674 -0.1259 -0.0497
  720Sol     MW 5922   2.733   3.282   4.759 -0.5024 -0.0414 -0.3919
  721Sol     OW 5923   2.032   3.079   8.767  0.1855 -0.6955 -0.3872
  721Sol     HW 5924   2.053   2.991   8.735  1.3293 -0.5338 -0.1025
  721Sol     HW 5925   1.937   3.088   8.753  0.2482 -1.5622 -1.4046
  721Sol     MW 5926   2.025   3.072   8.763 -0.1774 -0.7823  0.0212
  722Sol     OW 5927   2.663   1.600   3.925  0.2451 -0.7260  0.2873
  722Sol     HW 5928   2.716   1.658   3.981  0.2770 -0.9196  0.4575
  722Sol     HW 5929   2.602   1.659   3.881  0.2892 -0.5587  0.4482
  722Sol     MW 5930   2.663   1.611   3.926  0.1593  0.2885  0.0528
  723Sol     OW 5931   2.216   2.598   7.634 -0.3685 -0.3838 -1.0448
  723Sol     HW 5932   2.214   2.510   7.671  0.1246  0.1286  0.2156
  723Sol     HW 5933   2.164   2.651   7.693 -0.0016  0.3395 -1.3576
  723Sol     MW 5934   2.211   2.595   7.642  0.1538 -0.5398 -0.4206
  724Sol     OW 5935   2.769   1.052   2.699  0.0188  0.2503  0.6437
  724Sol     HW 5936   2.727   1.123   2.747 -0.1563  3.3493 -3.8476
  724Sol     HW 5937   2.857   1.085   2.679 -0.8862  0.3702 -3.6305
  724Sol     MW 5938   2.773   1.061   2.701  0.3411 -0.0949  0.0784
  725Sol     OW 5939   2.657   0.361   3.358 -0.3811  0.1476 -0.3212
  725Sol     HW 5940   2.618   0.377   3.444  1.3624  1.0145  0.3262
  725Sol     HW 5941   2.661   0.448   3.317  1.6490  0.2143 -0.0311
  725Sol     MW 5942   2.654   0.371   3.362 -0.1308  0.1399 -0.3615
  726Sol     OW 5943   0.880   0.043   4.977 -0.0319  0.0702  0.2459
  726Sol     HW 5944   0.879  -0.050   4.954  0.1623  0.3390 -0.8920
  726Sol     HW 5945   0.834   0.048   5.061  0.6557 -1.1497  0.6938
  726Sol     MW 5946   0.876   0.035   4.982  0.4937  0.0510  0.2953
  727Sol     OW 5947   1.018   0.953   1.267 -0.3486 -0.1625  0.4347
  727Sol     HW 5948   1.074   0.938   1.343 -0.2375 -0.0768  0.3710
  727Sol     HW 5949   1.070   1.011   1.211 -0.2457 -0.5976  0.0846
  727Sol     MW 5950   1.028   0.957   1.269  0.8378 -0.0204  0.1272
  728Sol     OW 5951   1.764   2.469   3.606  0.0364  0.1293  0.0013
  728Sol     HW 5952   1.704   2.440   3.538  2.0939 -2.9642 -0.6064
  728Sol     HW 5953   1.850   2.469   3.564  1.2658 -1.3430  2.4165
  728Sol     MW 5954   1.766   2.466   3.596 -0.3368 -0.4137  0.6088
  729Sol     OW 5955   1.206   2.084   3.074 -0.1457  0.1793 -0.3013
  729Sol     HW 5956   1.149   2.106   3.148 -0.7588 -1.0519 -0.3889
  729Sol     HW 5957   1.188   2.152   3.009 -0.3656  0.6879  0.2843
  729Sol     MW 5958   1.199   2.092   3.075 -0.0771  0.3272  0.0959
  730Sol     OW 5959   2.395   1.135   2.826  0.1013  0.4351 -0.1246
  730Sol     HW 5960   2.365   1.100   2.910 -1.9535 -0.6005 -1.2628
  730Sol     HW 5961   2.428   1.059   2.778  1.8357  1.1122 -0.0456
  730Sol     MW 5962   2.395   1.125   2.829  0.2983  0.1165  0.2318
  731Sol     OW 5963   2.901   0.391   3.705  0.0254 -0.3443  0.3050
  731Sol     HW 5964   2.884   0.297   3.710  0.2743 -0.4835 -1.2931
  731Sol     HW 5965   2.972   0.400   3.641 -1.6666  1.1237 -1.4379
  731Sol     MW 5966   2.906   0.384   3.700 -0.5851  0.8649  0.3580
  732Sol     OW 5967   2.251   2.043   5.009  0.3871 -0.0100 -0.2541
  732Sol     HW 5968   2.207   2.084   5.084 -0.6041  0.0018 -0.8293
  732Sol     HW 5969   2.199   1.964   4.992  1.0885 -0.4365 -0.4263
  732Sol     MW 5970   2.242   2.039   5.014  0.4627  0.5028 -0.1968
  733Sol     OW 5971   1.992   1.269   2.781 -0.4959 -0.7628 -0.5662
  733Sol     HW 5972   1.916   1.284   2.838 -0.9048 -1.4415 -0.9190
  733Sol     HW 5973   2.053   1.338   2.804 -1.6101  0.3729 -0.9302
  733Sol     MW 5974   1.990   1.276   2.788 -0.6328  0.0353 -0.0736
  734Sol     OW 5975   0.526   1.926   3.587  0.7039  0.2953 -0.5428
  734Sol     HW 5976   0.473   2.003   3.566 -1.5785 -0.9220  0.5073
  734Sol     HW 5977   0.465   1.866   3.630  2.3771 -2.2035 -1.5342
  734Sol     MW 5978   0.516   1.927   3.589 -0.3467 -0.1505  0.0295
  735Sol     OW 5979   2.026   0.535   7.810 -0.3781 -0.5779  0.2623
  735Sol     HW 5980   2.041   0.461   7.869 -2.2873 -0.3041  1.1061
  735Sol     HW 5981   2.102   0.591   7.823 -0.8321 -0.4529  2.5787
  735Sol     MW 5982   2.034   0.533   7.817  0.2815  0.8403  0.3289
  736Sol     OW 5983   1.540   0.631   3.368  0.0474  0.5140  0.1720
  736Sol     HW 5984   1.605   0.610   3.300 -2.4030 -0.6948 -1.8849
  736Sol     HW 5985   1.470   0.568   3.354 -2.2653  2.7382  1.4145
  736Sol     MW 5986   1.540   0.623   3.361  0.3453 -0.3311  0.2218
  737Sol     OW 5987   2.493   2.205   2.406  0.2475  0.1368  0.2026
  737Sol     HW 5988   2.410   2.252   2.412 -1.2921 -2.3047 -0.7481
  737Sol     HW 5989   2.501   2.182   2.313  0.3433 -2.3677  0.7752
  737Sol     MW 5990   2.486   2.207   2.398 -0.0424  0.7054 -0.0517
  738Sol     OW 5991   3.296   1.939   6.900  0.0416  0.4440  0.1930
  738Sol     HW 5992   3.322   1.865   6.955 -1.4536  0.0549  0.3947
  738Sol     HW 5993   3.349   1.931   6.821  1.1423  0.1600  0.9585
  738Sol     MW 5994   3.303   1.931   6.898  0.0317 -0.1331  0.2942
  739Sol     OW 5995   1.735   2.635   1.833  0.2610 -0.0093 -0.0214
  739Sol     HW 5996   1.790   2.611   1.907 -1.5708 -0.2946  1.2649
  739Sol     HW 5997   1.724   2.729   1.840  0.6449  0.0622 -0.3357
  739Sol     MW 5998   1.739   2.641   1.840 -0.1561  0.0275  0.0042
  740Sol     OW 5999   2.991   1.216   2.933 -0.0058  0.1394 -0.2483
  740Sol     HW 6000   2.935   1.287   2.964  0.0391  0.3714 -0.6968
  740Sol     HW 6001   2.992   1.154   3.005 -0.4241  0.3757 -0.0331
  740Sol     MW 6002   2.986   1.217   2.942 -0.1703  0.3213 -0.1660
  741Sol     OW 6003   0.346   1.785   4.764  0.3100 -0.0651 -0.2928
  741Sol     HW 6004   0.308   1.731   4.833 -0.5428  0.7450 -0.1062
  741Sol     HW 6005   0.435   1.753   4.754 -0.3332 -1.8074 -0.5272
  741Sol     MW 6006   0.350   1.778   4.769 -0.6904 -0.3006  0.2816
  742Sol     OW 6007   3.467   0.769   7.239  0.3898 -0.1875 -0.3100
  742Sol     HW 6008   3.453   0.855   7.200 -0.3011 -1.0407 -2.0318
  742Sol     HW 6009   3.508   0.718   7.169  1.3999 -1.0665  0.9110
  742Sol     MW 6010   3.469   0.772   7.229 -0.5987  0.2044  1.3367
  743Sol     OW 6011   2.885   1.120   5.339 -0.1485 -0.3734  0.0032
  743Sol     HW 6012   2.917   1.197   5.292 -1.0278 -0.8893 -1.4669
  743Sol     HW 6013   2.931   1.047   5.299 -0.1035 -0.7129  0.6763
  743Sol     MW 6014   2.892   1.121   5.331  0.6031 -0.3478  0.3649
  744Sol     OW 6015   3.032   1.530   7.404  0.4149 -0.2318 -0.0377
  744Sol     HW 6016   3.062   1.439   7.404 -1.0909 -0.7385  0.1480
  744Sol     HW 6017   3.037   1.557   7.495 -0.5943 -0.6165  0.1300
  744Sol     MW 6018   3.035   1.524   7.412  0.6258 -0.2567 -0.0942
  745Sol     OW 6019   1.405   2.052   8.768  0.1417 -0.1033 -0.2107
  745Sol     HW 6020   1.453   2.108   8.706 -2.6185  3.4592  0.6668
  745Sol     HW 6021   1.403   2.104   8.849 -0.3943 -2.6183  1.4269
  745Sol     MW 6022   1.409   2.062   8.769  0.4584 -0.1308 -0.5504
  746Sol     OW 6023   1.557   0.578   4.895 -0.8490  0.2995 -0.2183
  746Sol     HW 6024   1.624   0.628   4.848 -0.1216 -0.5433 -0.0951
  746Sol     HW 6025   1.587   0.578   4.986 -0.8957 -0.2842 -0.2040
  746Sol     MW 6026   1.566   0.582   4.899 -0.3753  0.1123 -0.2010
  747Sol     OW 6027   1.143   0.195   3.052 -0.6393  0.1218  0.4840
  747Sol     HW 6028   1.065   0.171   3.003 -1.7640  0.4981  2.0636
  747Sol     HW 6029   1.111   0.244   3.128  1.2595  1.8574  0.2069
  747Sol     MW 6030   1.133   0.197   3.055 -0.3635  0.6109 -0.4042
  748Sol     OW 6031   1.616   2.307   4.166  0.3533  0.1340 -0.4007
  748Sol     HW 6032   1.677   2.246   4.125 -0.0341 -0.9974  0.6647
  748Sol     HW 6033   1.529   2.272   4.146  0.1138  0.5058 -0.0268
  748Sol     MW 6034   1.614   2.299   4.161 -0.5893 -0.3836 -0.2031
  749Sol     OW 6035   1.943   1.937   4.635  0.3059 -0.2444 -0.1562
  749Sol     HW 6036   1.923   2.030   4.648 -1.1454 -0.7002  1.0726
  749Sol     HW 6037   1.865   1.892   4.667  1.0044 -1.8861 -0.7559
  749Sol     MW 6038   1.934   1.941   4.639 -0.4605  0.0148  0.1524
  750Sol     OW 6039   2.842   3.016   3.969 -0.4449 -0.6210  0.7475
  750Sol     HW 6040   2.903   2.994   3.898  0.2031 -0.3682  1.2175
  750Sol     HW 6041   2.782   2.941   3.974 -0.1240 -0.9048  0.3240
  750Sol     MW 6042   2.842   3.007   3.963 -0.2599  0.1055 -0.2893
  751Sol     OW 6043   3.334   1.999   2.095 -0.3822 -0.1041 -0.3486
  751Sol     HW 6044   3.426   1.976   2.080 -0.7911 -0.7435 -2.0262
  751Sol     HW 6045   3.286   1.920   2.071 -1.4521  0.6434 -0.6810
  751Sol     MW 6046   3.338   1.990   2.092  0.8961 -0.0315  0.2801
  752Sol     OW 6047   0.210   1.219   2.125 -0.0934  0.4086 -0.1912
  752Sol     HW 6048   0.289   1.169   2.104  0.0200  0.6498 -0.3485
  752Sol     HW 6049   0.196   1.275   2.049 -0.2258  0.6071 -0.0229
  752Sol     MW 6050   0.216   1.219   2.117  0.2726  1.1047 -0.0737
  753Sol     OW 6051   2.131   0.147   4.179  0.0770  0.5602  0.6506
  753Sol     HW 6052   2.143   0.123   4.087  0.4872  0.5135  0.7175
  753Sol     HW 6053   2.219   0.144   4.217 -0.1767 -0.0679  1.2034
  753Sol     MW 6054   2.140   0.144   4.174  0.3255  0.4838  0.2736
  754Sol     OW 6055   2.523   2.950   5.255  0.6930 -0.0733  0.4141
  754Sol     HW 6056   2.560   2.893   5.187  0.8250  1.0603 -0.4764
  754Sol     HW 6057   2.599   2.987   5.299  0.6394  1.8856 -1.1012
  754Sol     MW 6058   2.533   2.948   5.253  0.3155 -0.1487 -0.0053
  755Sol     OW 6059   2.627   2.684   1.535 -0.4695  0.2643 -0.5745
  755Sol     HW 6060   2.692   2.650   1.473 -0.7724 -1.3215 -0.0502
  755Sol     HW 6061   2.673   2.685   1.619 -0.3580  1.5019 -0.6441
  755Sol     MW 6062   2.637   2.681   1.537 -0.4237 -0.0346 -0.3467
  756Sol     OW 6063   1.688   1.259   7.926  0.0528  0.3110  0.1866
  756Sol     HW 6064   1.725   1.211   8.000  0.0395  0.1895  0.1144
  756Sol     HW 6065   1.630   1.196   7.883  0.0083  0.4024  0.1126
  756Sol     MW 6066   1.686   1.249   7.928  0.5706  0.3547  0.3418
  757Sol     OW 6067   2.104   0.535   2.649  0.4477  0.2755 -0.0931
  757Sol     HW 6068   2.023   0.511   2.605  0.3868  0.2007  0.0628
  757Sol     HW 6069   2.124   0.461   2.707 -0.9156  1.5586  2.0616
  757Sol     MW 6070   2.099   0.526   2.650  0.3506 -0.3396 -0.4026
  758Sol     OW 6071   2.955   0.552   7.090 -0.1368 -0.3833  0.0792
  758Sol     HW 6072   3.033   0.527   7.040  0.8173 -1.9505  2.2529
  758Sol     HW 6073   2.984   0.623   7.146 -0.5452 -0.2558  0.1281
  758Sol     MW 6074   2.965   0.556   7.091 -0.3211 -0.9199  0.7395
  759Sol     OW 6075   3.211   2.571   2.304  0.7508  0.4087 -0.0979
  759Sol     HW 6076   3.144   2.629   2.340  1.2823 -0.3965  2.2284
  759Sol     HW 6077   3.208   2.493   2.360  2.8820 -0.0904 -0.6449
  759Sol     MW 6078   3.205   2.569   2.312 -0.1811 -0.0967 -0.3063
  760Sol     OW 6079   3.278   1.329   1.957 -0.2313  0.4277  0.0282
  760Sol     HW 6080   3.208   1.323   2.023  0.0145  2.3380  0.4845
  760Sol     HW 6081   3.352   1.282   1.997 -0.4728  0.5195  0.5906
  760Sol     MW 6082   3.278   1.324   1.967  0.2842  0.2330  0.2994
  761Sol     OW 6083   1.079   0.446   6.735 -0.1016 -0.2113  0.3686
  761Sol     HW 6084   1.028   0.392   6.795 -0.5029  0.5100  0.6820
  761Sol     HW 6085   1.075   0.534   6.773  1.9376 -0.2612  0.7796
  761Sol     MW 6086   1.074   0.449   6.744 -0.9390 -0.1322 -0.2431
  762Sol     OW 6087   1.184   2.937   5.538  0.5924  0.2569 -0.4022
  762Sol     HW 6088   1.120   2.913   5.606  1.1150  1.2926  0.4661
  762Sol     HW 6089   1.157   2.886   5.462 -1.6005  1.0546 -0.2140
  762Sol     MW 6090   1.176   2.930   5.537 -0.0175  0.2762  0.1105
  763Sol     OW 6091   1.898   0.686   4.000  0.1160  0.0070 -0.4512
  763Sol     HW 6092   1.989   0.657   4.015  0.3267 -0.1578 -1.9684
  763Sol     HW 6093   1.845   0.627   4.054  0.9986  1.1367  1.7280
  763Sol     MW 6094   1.902   0.678   4.006  0.2070  0.0993  0.0819
  764Sol     OW 6095   1.637   1.359   4.699 -0.4005 -0.0656 -0.3006
  764Sol     HW 6096   1.730   1.335   4.696  0.0448  1.7942 -2.5640
  764Sol     HW 6097   1.592   1.282   4.664  0.2631 -1.0174  0.9008
  764Sol     MW 6098   1.642   1.350   4.695  0.3117  0.4889 -0.0717
  765Sol     OW 6099   2.543   0.212   1.957 -0.3636  0.3923 -0.0971
  765Sol     HW 6100   2.582   0.207   2.044  0.2864 -1.4611 -0.4758
  765Sol     HW 6101   2.485   0.135   1.953 -0.1402  0.2889 -1.4066
  765Sol     MW 6102   2.541   0.204   1.965  1.0406  0.6545 -0.2503
  766Sol     OW 6103   1.123   2.981   3.945 -0.8522 -0.3768 -0.0019
  766Sol     HW 6104   1.061   3.012   4.011 -0.0710 -1.1673  1.1186
  766Sol     HW 6105   1.171   2.910   3.988  0.3317 -0.2637 -1.0959
  766Sol     MW 6106   1.122   2.978   3.955 -0.6623  0.2125  0.1570
  767Sol     OW 6107   3.538   0.761   3.422 -0.1026 -0.3862  0.6919
  767Sol     HW 6108   3.556   0.733   3.332  0.7010 -0.6576  0.9290
  767Sol     HW 6109   3.481   0.837   3.413 -0.3362 -0.6489 -0.0357
  767Sol     MW 6110   3.535   0.765   3.413  0.0378 -0.7085 -0.0099
  768Sol     OW 6111   1.881   0.789   5.146 -0.0109 -0.2082  1.3313
  768Sol     HW 6112   1.850   0.744   5.067 -0.2248  0.2055  1.1787
  768Sol     HW 6113   1.975   0.800   5.132 -0.0916  0.1038  1.0114
  768Sol     MW 6114   1.887   0.786   5.137 -0.6911  0.7209 -0.5846
  769Sol     OW 6115   1.469   3.352   5.474 -0.1377  0.4374  0.4223
  769Sol     HW 6116   1.468   3.408   5.552  1.2245 -0.0552  0.7995
  769Sol     HW 6117   1.441   3.409   5.403  3.3178  2.2005  0.4116
  769Sol     MW 6118   1.466   3.362   5.474  0.2691 -0.7474 -0.3644
  770Sol     OW 6119   1.723   1.824   8.637  0.0389 -0.0213  0.3770
  770Sol     HW 6120   1.818   1.832   8.646  0.3359 -2.3158 -0.4970
  770Sol     HW 6121   1.710   1.777   8.554 -1.8752  0.5288  0.3329
  770Sol     MW 6122   1.730   1.821   8.630 -0.4660  0.1144  0.2641
  771Sol     OW 6123   0.433   0.804   3.633  0.2603 -0.1356 -0.5708
  771Sol     HW 6124   0.345   0.813   3.597 -0.2200 -2.0532  0.0708
  771Sol     HW 6125   0.480   0.749   3.571  0.6771 -0.0517 -0.3364
  771Sol     MW 6126   0.429   0.800   3.625  0.0753 -0.0155 -0.2927
  772Sol     OW 6127   2.308   0.460   3.915  0.4300  0.4429 -0.3004
  772Sol     HW 6128   2.308   0.379   3.865 -0.7391 -1.2539  2.3547
  772Sol     HW 6129   2.234   0.510   3.880 -0.1776 -0.5828 -0.4979
  772Sol     MW 6130   2.302   0.457   3.907 -0.0613 -0.6184  0.4388
  773Sol     OW 6131   0.215   2.054   6.085 -0.0876  0.0517 -0.4365
  773Sol     HW 6132   0.125   2.023   6.095 -0.4845  0.7747 -1.5401
  773Sol     HW 6133   0.205   2.145   6.056  0.9452 -0.6004 -2.9536
  773Sol     MW 6134   0.206   2.059   6.083 -0.0402 -0.4527 -0.4539
  774Sol     OW 6135   3.256   2.231   1.685 -0.0971 -0.5464 -0.1805
  774Sol     HW 6136   3.161   2.240   1.694 -0.3364 -1.5553 -1.5732
  774Sol     HW 6137   3.290   2.318   1.708 -1.2864 -0.4185  1.1441
  774Sol     MW 6138   3.250   2.240   1.688 -0.5747 -0.0559 -0.4717
  775Sol     OW 6139   3.382   3.025   5.826  0.2900  0.3691 -0.5874
  775Sol     HW 6140   3.287   3.038   5.821  0.3447  0.3766 -1.8801
  775Sol     HW 6141   3.394   2.967   5.901 -0.7907 -0.0499 -0.7216
  775Sol     MW 6142   3.374   3.021   5.832 -0.2454  0.4938  0.9403
  776Sol     OW 6143   2.371   1.281   1.860  0.9582 -0.5168  0.3528
  776Sol     HW 6144   2.349   1.202   1.810 -1.2604  1.2719 -1.5953
  776Sol     HW 6145   2.442   1.321   1.811 -0.2870  0.5075 -0.6573
  776Sol     MW 6146   2.375   1.277   1.851  0.1779 -0.2287 -0.2902
  777Sol     OW 6147   2.922   2.506   2.586 -0.5509  0.0881 -0.3262
  777Sol     HW 6148   2.874   2.434   2.545 -0.7503 -0.4423  0.8242
  777Sol     HW 6149   3.013   2.478   2.584 -0.3574  0.7773 -1.8549
  777Sol     MW 6150   2.926   2.497   2.582  0.0916  0.6208  0.0574
  778Sol     OW 6151   2.494   2.787   3.487 -0.0922 -0.2296 -0.3579
  778Sol     HW 6152   2.403   2.785   3.518 -0.3498 -0.2834 -1.0928
  778Sol     HW 6153   2.515   2.880   3.481  1.1308 -0.2231  3.2734
  778Sol     MW 6154   2.487   2.795   3.489  0.2674 -0.4040 -0.1377
  779Sol     OW 6155   2.753   2.507   4.753  0.0717 -0.1066  0.4342
  779Sol     HW 6156   2.698   2.456   4.694 -0.1011  0.4797  0.0926
  779Sol     HW 6157   2.833   2.523   4.704 -0.5833  1.4945 -0.1219
  779Sol     MW 6158   2.755   2.504   4.744  0.5360  0.2310 -0.0296
  780Sol     OW 6159   0.569   3.006   3.493 -0.1173  0.0723 -0.1683
  780Sol     HW 6160   0.567   3.099   3.470 -1.4429  0.1293  0.1482
  780Sol     HW 6161   0.617   3.003   3.576  1.4403  0.2719 -1.0469
  780Sol     MW 6162   0.573   3.014   3.499 -0.4792  0.2280 -0.7645
  781Sol     OW 6163   3.415   2.313   4.941  0.6729 -0.1940  0.6096
  781Sol     HW 6164   3.368   2.239   4.980  1.7874 -0.5072  1.3991
  781Sol     HW 6165   3.429   2.287   4.850 -0.2464 -0.3125  0.5034
  781Sol     MW 6166   3.412   2.304   4.937  0.2172 -0.2654 -0.3287
  782Sol     OW 6167   0.402   2.965   1.159  0.3061  0.1907  0.6083
  782Sol     HW 6168   0.357   2.882   1.145  2.4401 -1.2381  2.1020
  782Sol     HW 6169   0.364   3.000   1.240 -0.3580  0.5594  0.1517
  782Sol     MW 6170   0.394   2.961   1.165 -0.0821 -0.0420  0.5392
  783Sol     OW 6171   0.675   0.116   3.025 -0.1208  0.1334 -0.5734
  783Sol     HW 6172   0.687   0.043   3.086  1.0448 -0.2536 -1.2650
  783Sol     HW 6173   0.626   0.079   2.952 -0.8903  0.4248 -0.2109
  783Sol     MW 6174   0.672   0.107   3.024  0.5051 -0.1210  0.2856
  784Sol     OW 6175   3.170   2.669   4.347  0.2117 -0.5633 -0.9617
  784Sol     HW 6176   3.244   2.706   4.299 -1.0055  0.1816 -2.3008
  784Sol     HW 6177   3.093   2.698   4.298 -0.9085 -2.3319 -0.2674
  784Sol     MW 6178   3.170   2.675   4.338 -0.6579 -0.3962 -0.2317
  785Sol     OW 6179   1.701   1.988   2.620 -0.2894  0.2272 -0.5140
  785Sol     HW 6180   1.791   1.991   2.587  0.3582 -0.0507  1.1805
  785Sol     HW 6181   1.667   2.076   2.605  0.5745  0.6026 -0.3145
  785Sol     MW 6182   1.706   1.996   2.616  0.6527  0.4550 -0.0823
  786Sol     OW 6183   0.789   0.746   7.883  0.2280 -0.1350 -0.0332
  786Sol     HW 6184   0.847   0.747   7.959  0.3408  1.0805 -0.1288
  786Sol     HW 6185   0.841   0.782   7.812 -0.2788 -0.0855 -0.3840
  786Sol     MW 6186   0.799   0.749   7.884  0.0476  0.4436  0.3293
  787Sol     OW 6187   0.918   3.206   4.430  0.5009  0.3199  0.2466
  787Sol     HW 6188   0.835   3.211   4.475 -0.0786  2.3915 -0.9928
  787Sol     HW 6189   0.933   3.294   4.396  0.7176 -1.1886 -3.8811
  787Sol     MW 6190   0.912   3.214   4.431  0.3681 -0.6182 -0.4302
  788Sol     OW 6191   0.009   1.269   5.887  0.3517  0.1470  0.4343
  788Sol     HW 6192   0.059   1.193   5.857 -0.2068  0.2112 -0.6692
  788Sol     HW 6193  -0.079   1.256   5.853  0.2117  1.2123  0.3657
  788Sol     MW 6194   0.006   1.261   5.881 -0.0831  0.5961 -0.2594
  789Sol     OW 6195   2.578   2.756   8.391 -0.6232  0.4101 -0.2304
  789Sol     HW 6196   2.606   2.848   8.393  3.3289 -0.7103  0.2560
  789Sol     HW 6197   2.559   2.739   8.299  0.9787  1.0895 -0.7044
  789Sol     MW 6198   2.579   2.763   8.383  0.3207 -0.2098  0.5326
  790Sol     OW 6199   2.150   3.247   2.614  0.7267  0.0232  0.1909
  790Sol     HW 6200   2.067   3.251   2.660  0.5643 -1.6246  0.0477
  790Sol     HW 6201   2.127   3.247   2.521  0.8690 -0.5535  0.1510
  790Sol     MW 6202   2.141   3.247   2.609 -0.0003 -0.3548 -0.2045
  791Sol     OW 6203   0.422   1.196   8.016 -0.2539 -0.8911 -0.4495
  791Sol     HW 6204   0.370   1.253   7.959 -2.0414 -0.6185  1.3762
  791Sol     HW 6205   0.471   1.140   7.956 -1.6138 -0.2139 -2.2547
  791Sol     MW 6206   0.422   1.196   8.006  0.2961 -0.5143 -0.0447
  792Sol     OW 6207   2.472   1.953   3.103  0.2782  0.4051 -0.1207
  792Sol     HW 6208   2.397   1.902   3.073 -0.4698  1.5076 -0.1324
  792Sol     HW 6209   2.441   2.043   3.104  1.4682  0.8150  0.3096
  792Sol     MW 6210   2.462   1.956   3.100  0.0577 -0.0852 -0.4466
  793Sol     OW 6211   2.118   0.647   4.642  0.1800 -0.3631 -0.0266
  793Sol     HW 6212   2.054   0.718   4.636  1.1100  0.5602  0.7113
  793Sol     HW 6213   2.143   0.646   4.735  0.5696 -1.3016 -0.1410
  793Sol     MW 6214   2.115   0.653   4.650 -0.2960 -0.1573  0.1878
  794Sol     OW 6215   1.357   2.909   8.393  0.0736 -0.2589  0.1422
  794Sol     HW 6216   1.351   2.995   8.352 -0.2338 -0.9691 -1.3535
  794Sol     HW 6217   1.332   2.923   8.484  0.3636  1.2873 -0.0113
  794Sol     MW 6218   1.354   2.918   8.397 -0.2578  0.2888 -0.0135
  795Sol     OW 6219   3.394   1.453   7.215 -0.5709  0.1626 -0.0759
  795Sol     HW 6220   3.430   1.392   7.280  0.6802 -0.1743 -1.0603
  795Sol     HW 6221   3.399   1.406   7.132 -1.2093  0.9663 -0.5808
  795Sol     MW 6222   3.398   1.443   7.213 -0.3768  0.5876  0.5788
  796Sol     OW 6223   0.564   1.759   2.972  0.3101 -0.8029  0.0671
  796Sol     HW 6224   0.649   1.753   2.928  0.0122 -1.2762 -0.4400
  796Sol     HW 6225   0.576   1.713   3.055  0.6655 -0.5142  0.1778
  796Sol     MW 6226   0.573   1.755   2.976 -0.2286 -0.6121  0.5060
  797Sol     OW 6227   2.404   1.808   1.534 -0.3750 -0.1286 -0.2147
  797Sol     HW 6228   2.489   1.829   1.494 -0.1306 -0.0322  0.3544
  797Sol     HW 6229   2.349   1.782   1.460 -0.2255  1.0105 -0.7408
  797Sol     MW 6230   2.407   1.807   1.523 -0.5087  0.2847  0.4077
  798Sol     OW 6231   2.205   1.376   8.662 -0.2100  0.3479  0.0243
  798Sol     HW 6232   2.294   1.362   8.693 -0.0740 -1.1980 -1.0037
  798Sol     HW 6233   2.177   1.290   8.631 -1.6533  1.0631 -0.6803
  798Sol     MW 6234   2.211   1.367   8.662 -0.1777 -0.2322 -0.8095
  799Sol     OW 6235   1.554   3.288   7.148 -0.0878 -0.0179 -0.5092
  799Sol     HW 6236   1.540   3.322   7.236 -1.7502 -1.8087 -0.0482
  799Sol     HW 6237   1.554   3.365   7.091 -0.4628  1.0118  0.8718
  799Sol     MW 6238   1.553   3.298   7.150 -0.3599 -0.8604 -0.0003
  800Sol     OW 6239   0.014   2.502   4.513 -0.4193 -0.1256 -0.3313
  800Sol     HW 6240  -0.031   2.557   4.577 -1.6259 -1.0952 -0.3193
  800Sol     HW 6241   0.077   2.560   4.470 -0.5259  0.8523  0.8132
  800Sol     MW 6242   0.015   2.512   4.515  0.1505  0.3447  0.5349
  801Sol     OW 6243   2.953   1.976   1.701  0.2410  0.8124  0.3063
  801Sol     HW 6244   2.932   1.962   1.608  0.1201  0.1962  0.4279
  801Sol     HW 6245   3.047   1.955   1.707 -0.1577 -0.9668  0.6858
  801Sol     MW 6246   2.960   1.973   1.693  0.0254 -0.2589  0.4737
  802Sol     OW 6247   1.356   2.810   3.098 -0.2214  0.3511 -0.5562
  802Sol     HW 6248   1.373   2.848   3.185  0.2545 -0.3757 -0.3298
  802Sol     HW 6249   1.267   2.776   3.104 -0.7576  1.6756 -0.8507
  802Sol     MW 6250   1.349   2.811   3.107 -0.4730  0.3386 -0.2672
  803Sol     OW 6251   0.913   1.860   1.557  0.3231 -0.3074  0.1245
  803Sol     HW 6252   0.949   1.772   1.570  0.0605 -0.6785 -1.4529
  803Sol     HW 6253   0.894   1.864   1.463  2.2490  2.1832 -0.2082
  803Sol     MW 6254   0.914   1.852   1.550 -0.7626 -0.1233  0.0732
  804Sol     OW 6255   1.961   0.252   6.982 -0.1324 -0.4527  0.1694
  804Sol     HW 6256   1.941   0.309   7.056 -0.9450 -2.0831  1.2363
  804Sol     HW 6257   1.910   0.173   6.999 -2.1354  0.0098 -3.3122
  804Sol     MW 6258   1.955   0.250   6.990 -0.4210 -0.0356  0.8136
  805Sol     OW 6259   0.703   0.778   4.008 -0.2652  0.3404  0.4747
  805Sol     HW 6260   0.758   0.836   3.956 -0.3297 -0.2995 -0.3071
  805Sol     HW 6261   0.758   0.752   4.082 -0.2943  1.5355  0.9306
  805Sol     MW 6262   0.713   0.781   4.010  0.3811  0.2611 -0.1750
  806Sol     OW 6263   2.210   1.907   6.890  0.1140 -0.2855 -0.0919
  806Sol     HW 6264   2.142   1.910   6.958 -1.1402  0.5056 -1.3414
  806Sol     HW 6265   2.199   1.821   6.849 -0.7860  0.2149 -0.9231
  806Sol     MW 6266   2.203   1.900   6.892  0.2169 -1.0027  0.3136
  807Sol     OW 6267   2.238   2.025   7.868  0.8039  0.3962  0.0853
  807Sol     HW 6268   2.197   2.061   7.947 -1.5424  1.8944 -1.7367
  807Sol     HW 6269   2.259   1.934   7.891 -1.3646  0.3139  1.8932
  807Sol     MW 6270   2.236   2.020   7.877 -0.3611  0.1413  0.3538
  808Sol     OW 6271   0.902   0.111   8.487  0.3353 -0.0967 -0.4148
  808Sol     HW 6272   0.814   0.075   8.473  0.1650 -0.2195  0.8850
  808Sol     HW 6273   0.899   0.146   8.576  1.4029  0.5026 -0.6132
  808Sol     MW 6274   0.894   0.111   8.494 -0.4719 -0.8483  0.1160
  809Sol     OW 6275   0.436   0.463   7.790 -0.2339 -0.3003  0.2341
  809Sol     HW 6276   0.470   0.378   7.761  0.1351 -0.0485 -0.0780
  809Sol     HW 6277   0.345   0.445   7.815 -0.0535 -0.8542  0.4956
  809Sol     MW 6278   0.431   0.454   7.790  0.2501  0.2372  0.1080
  810Sol     OW 6279   3.305   1.059   2.503  0.2877 -0.1389 -0.0553
  810Sol     HW 6280   3.260   1.084   2.583  0.1693  0.4880 -0.3182
  810Sol     HW 6281   3.381   1.116   2.499 -0.7350  1.1735 -1.3771
  810Sol     MW 6282   3.308   1.066   2.509  0.9443 -0.1494 -0.0803
  811Sol     OW 6283   0.670   0.155   4.834  0.8660  0.2256 -0.1283
  811Sol     HW 6284   0.678   0.098   4.910 -0.3286 -0.6253 -0.6304
  811Sol     HW 6285   0.743   0.217   4.843  1.7103 -0.8845  0.8215
  811Sol     MW 6286   0.677   0.156   4.842  0.6957  0.7824 -0.1424
  812Sol     OW 6287   0.781   0.820   7.404  0.8224 -0.7145  0.2178
  812Sol     HW 6288   0.875   0.829   7.389  0.2518  0.6316 -2.9564
  812Sol     HW 6289   0.762   0.727   7.392  1.1727 -0.4074 -3.0781
  812Sol     MW 6290   0.787   0.813   7.402 -0.4371 -0.4134  0.1347
  813Sol     OW 6291   0.733   2.930   8.185  0.8429  0.2549  0.3468
  813Sol     HW 6292   0.747   2.993   8.256 -2.0155  0.0112  1.1705
  813Sol     HW 6293   0.675   2.976   8.124  1.7177 -0.2493 -0.8728
  813Sol     MW 6294   0.729   2.940   8.186  0.4085 -0.3527  0.3180
  814Sol     OW 6295   1.042   1.344   6.695  0.7661  0.3483  0.0282
  814Sol     HW 6296   1.135   1.330   6.714  0.3630 -1.2497  0.9338
  814Sol     HW 6297   1.000   1.341   6.781 -0.1397  0.9433 -0.3869
  814Sol     MW 6298   1.047   1.342   6.705 -0.9043 -0.5867  0.2860
  815Sol     OW 6299   1.167   1.905   5.540 -0.6000  0.2034  0.4997
  815Sol     HW 6300   1.149   1.995   5.514  0.1753  0.4426  0.7531
  815Sol     HW 6301   1.146   1.902   5.634 -1.3365 -0.0835  0.3315
  815Sol     MW 6302   1.164   1.912   5.546 -0.4810 -0.0976 -0.1957
  816Sol     OW 6303   1.374   1.234   7.271  0.3676 -0.0086  0.0200
  816Sol     HW 6304   1.367   1.303   7.206 -1.8392  0.4345  0.6990
  816Sol     HW 6305   1.457   1.190   7.251  0.1434  0.6787 -2.5166
  816Sol     MW 6306   1.381   1.236   7.264 -0.1846 -0.2445 -0.0081
  817Sol     OW 6307   3.263   1.167   8.085 -0.4966 -0.3639 -0.0934
  817Sol     HW 6308   3.175   1.178   8.122 -1.3868  1.4871 -2.6234
  817Sol     HW 6309   3.255   1.089   8.030 -0.6389 -0.0406 -0.5332
  817Sol     MW 6310   3.254   1.161   8.084  0.0786 -0.3076  0.0043
  818Sol     OW 6311   3.151   0.714   7.272 -0.2148  0.1184  0.7639
  818Sol     HW 6312   3.168   0.734   7.364 -1.1719 -0.0608  0.9792
  818Sol     HW 6313   3.238   0.711   7.232  0.1596  0.9576  1.5015
  818Sol     MW 6314   3.161   0.715   7.277  0.0705  0.0430 -0.0684
  819Sol     OW 6315   1.325   2.737   4.589  0.2313  0.0108 -0.1076
  819Sol     HW 6316   1.344   2.831   4.579 -0.5066  0.2335  0.4636
  819Sol     HW 6317   1.359   2.715   4.676  0.9529 -0.4015 -0.4905
  819Sol     MW 6318   1.330   2.744   4.596 -0.6094 -0.4530  0.1314
  820Sol     OW 6319   1.661   0.897   6.916  0.8988  0.6828  0.5560
  820Sol     HW 6320   1.715   0.930   6.988  0.9491 -0.4732  1.0530
  820Sol     HW 6321   1.576   0.877   6.957  0.6672  0.7954  0.1317
  820Sol     MW 6322   1.658   0.898   6.927  0.4118 -0.1931 -0.2253
  821Sol     OW 6323   2.147   0.827   5.093  0.3992 -0.7665 -0.1742
  821Sol     HW 6324   2.201   0.849   5.169 -0.5436  0.6066  0.1065
  821Sol     HW 6325   2.165   0.896   5.029 -2.7446  1.0403  0.7980
  821Sol     MW 6326   2.153   0.835   5.094  0.3634  0.1370 -0.2175
  822Sol     OW 6327   2.509   0.785   7.118  0.1365 -0.1118 -0.0602
  822Sol     HW 6328   2.439   0.745   7.066  0.2885 -0.6273  0.1254
  822Sol     HW 6329   2.539   0.714   7.175 -0.2229  0.5330  0.9320
  822Sol     MW 6330   2.505   0.775   7.118  0.7555  0.0422 -1.0353
  823Sol     OW 6331   3.030   0.465   1.796 -0.4322  0.4884  0.3539
  823Sol     HW 6332   3.080   0.399   1.749 -0.0142  0.2580  1.1328
  823Sol     HW 6333   2.941   0.430   1.799 -0.7651  1.1012 -1.4186
  823Sol     MW 6334   3.026   0.456   1.792 -0.6165 -0.0651 -0.8426
  824Sol     OW 6335   0.782   1.670   2.794 -0.3056  0.0774  0.0535
  824Sol     HW 6336   0.756   1.582   2.818 -0.6314  0.1511 -0.0329
  824Sol     HW 6337   0.752   1.681   2.704 -2.9160  1.3169  1.0222
  824Sol     MW 6338   0.777   1.663   2.788  0.0126  0.5399 -0.2843
  825Sol     OW 6339   1.888   2.540   8.477 -0.6955  0.0148  0.3189
  825Sol     HW 6340   1.832   2.617   8.467 -0.5021  0.0693 -0.3741
  825Sol     HW 6341   1.976   2.575   8.487 -0.9474 -0.0065  2.9931
  825Sol     MW 6342   1.891   2.550   8.477  0.1032  0.1692  0.6022
  826Sol     OW 6343   3.259   1.770   1.961  0.2161  0.0139  0.4167
  826Sol     HW 6344   3.177   1.729   1.988 -1.1079  2.5095  0.2657
  826Sol     HW 6345   3.326   1.725   2.012 -1.3641 -1.1205  1.5408
  826Sol     MW 6346   3.258   1.762   1.968  0.8563 -0.6547  0.5400
  827Sol     OW 6347   3.416   1.830   8.605  0.6703 -0.3426  0.2454
  827Sol     HW 6348   3.386   1.912   8.566  0.6689 -0.0694  0.8175
  827Sol     HW 6349   3.337   1.777   8.613  0.5700 -0.1577  0.4662
  827Sol     MW 6350   3.407   1.832   8.602  0.3951  0.1434  0.0287
  828Sol     OW 6351   0.487   0.573   7.545  0.3624 -0.6317  0.0275
  828Sol     HW 6352   0.453   0.526   7.621 -1.8525  1.7018  0.5887
  828Sol     HW 6353   0.419   0.563   7.478  1.1633 -0.6190 -0.7957
  828Sol     MW 6354   0.478   0.568   7.546  0.3992 -0.1643 -0.4378
  829Sol     OW 6355   0.741   1.098   5.851  0.1707  0.7610  0.7482
  829Sol     HW 6356   0.749   1.008   5.883  0.1508  1.5016  2.9040
  829Sol     HW 6357   0.672   1.094   5.784  0.2197 -0.8315  0.7776
  829Sol     MW 6358   0.735   1.089   5.848 -0.7593  0.0265  0.1268
  830Sol     OW 6359   1.175   2.011   7.288  0.0549 -0.2990  0.0740
  830Sol     HW 6360   1.229   2.082   7.253  0.3185 -0.5447 -0.0271
  830Sol     HW 6361   1.210   1.995   7.376  1.4163 -1.7360 -0.6894
  830Sol     MW 6362   1.183   2.016   7.292 -0.2041 -0.4535 -0.5156
  831Sol     OW 6363   1.268   2.808   8.046 -0.1540  0.2912  0.3481
  831Sol     HW 6364   1.175   2.824   8.064  0.0605  2.5639 -0.4591
  831Sol     HW 6365   1.310   2.807   8.132 -0.6869  0.8709  0.6195
  831Sol     MW 6366   1.263   2.809   8.055 -0.0368 -0.8182  0.5662
  832Sol     OW 6367   3.038   3.083   7.413  0.2650 -0.0494  0.0753
  832Sol     HW 6368   3.013   3.106   7.324 -1.6452  0.3211  0.6869
  832Sol     HW 6369   2.961   3.040   7.450  0.5059  1.1043  2.0104
  832Sol     MW 6370   3.029   3.082   7.409  0.1592 -0.0756 -0.6549
  833Sol     OW 6371   2.881   2.742   3.633  0.1756  0.2023 -0.1157
  833Sol     HW 6372   2.792   2.727   3.666  0.0550  1.0205 -0.0762
  833Sol     HW 6373   2.907   2.826   3.670  1.2313 -0.3586  0.4300
  833Sol     MW 6374   2.875   2.748   3.639 -0.1428  0.0348 -0.4711
  834Sol     OW 6375   1.363   1.390   1.898 -0.5602  0.4523  0.0893
  834Sol     HW 6376   1.314   1.327   1.845 -0.4272 -0.5296  1.1107
  834Sol     HW 6377   1.296   1.438   1.946 -0.6077  0.2089  0.2703
  834Sol     MW 6378   1.352   1.389   1.897  0.1144  0.5731 -0.4388
  835Sol     OW 6379   1.149   1.654   3.328  0.1833 -0.1031  0.0259
  835Sol     HW 6380   1.193   1.725   3.376 -1.6075  0.8240  0.3205
  835Sol     HW 6381   1.066   1.692   3.300 -0.3352 -1.7724 -0.7368
  835Sol     MW 6382   1.146   1.664   3.330  0.6392 -0.3945 -0.0936
  836Sol     OW 6383   0.044   1.771   2.344  0.3724 -0.2893 -0.1843
  836Sol     HW 6384   0.033   1.812   2.430 -0.7550 -3.5978  1.3492
  836Sol     HW 6385   0.136   1.746   2.340  0.5631  0.4151 -0.2035
  836Sol     MW 6386   0.051   1.772   2.351  0.1245 -0.2546 -0.0216
  837Sol     OW 6387   0.375   2.030   6.318 -0.1545  0.2558 -0.2910
  837Sol     HW 6388   0.319   2.034   6.241 -0.2853  1.5747 -0.1478
  837Sol     HW 6389   0.456   2.074   6.291  0.1487 -0.0927  0.0414
  837Sol     MW 6390   0.378   2.035   6.309 -0.6979  0.2910  0.3991
  838Sol     OW 6391   1.103   2.753   8.827 -0.1281  0.5504  0.1966
  838Sol     HW 6392   1.025   2.757   8.882  0.5824  3.1672  1.0835
  838Sol     HW 6393   1.166   2.701   8.877 -0.4213  0.5871  0.6011
  838Sol     MW 6394   1.101   2.749   8.836  0.2512  0.2620  0.2697
  839Sol     OW 6395   2.107   0.675   8.119 -0.1874  0.0217  0.4922
  839Sol     HW 6396   2.014   0.652   8.115  0.0037 -0.9308  1.1159
  839Sol     HW 6397   2.152   0.599   8.082  0.3172  0.6868 -0.2711
  839Sol     MW 6398   2.103   0.666   8.115 -0.6069 -0.1259 -0.1607
  840Sol     OW 6399   2.859   1.811   4.651 -0.1681  0.0338 -0.6333
  840Sol     HW 6400   2.904   1.731   4.679  0.4195  0.9351  1.0613
  840Sol     HW 6401   2.914   1.882   4.683 -1.9154  1.1452 -0.0274
  840Sol     MW 6402   2.867   1.810   4.656  0.0920 -0.3394 -0.1653
  841Sol     OW 6403   2.984   1.720   4.401 -0.0594  0.0878 -0.2427
  841Sol     HW 6404   2.938   1.785   4.348 -1.0208 -0.4439 -0.0586
  841Sol     HW 6405   2.960   1.741   4.491 -0.8471 -0.8991 -0.2238
  841Sol     MW 6406   2.978   1.728   4.404 -0.5735 -0.3012 -0.3213
  842Sol     OW 6407   2.600   0.123   6.767  0.0616  0.1880 -0.5601
  842Sol     HW 6408   2.564   0.040   6.798  3.2268 -0.8628  0.4479
  842Sol     HW 6409   2.540   0.189   6.803 -1.5828 -1.5319 -0.0291
  842Sol     MW 6410   2.591   0.122   6.773  0.1791 -0.3515 -0.8106
  843Sol     OW 6411   3.474   0.181   6.194  0.0754  0.6203 -0.5095
  843Sol     HW 6412   3.443   0.232   6.119 -0.4733 -0.1058 -0.7824
  843Sol     HW 6413   3.450   0.233   6.270 -3.0430 -0.5336 -0.6408
  843Sol     MW 6414   3.469   0.190   6.194 -0.2095 -0.1749 -0.4157
  844Sol     OW 6415   2.105   1.484   3.116 -0.3071  0.2754  0.2995
  844Sol     HW 6416   2.061   1.402   3.137 -0.5749  0.0130 -1.1695
  844Sol     HW 6417   2.121   1.526   3.200 -0.7555 -0.9833  1.0246
  844Sol     MW 6418   2.103   1.480   3.125 -0.5711 -0.2773  0.1056
  845Sol     OW 6419   0.099   0.502   1.293  0.4089 -0.0482  0.4615
  845Sol     HW 6420   0.057   0.417   1.282 -1.1952  0.5171  2.0698
  845Sol     HW 6421   0.103   0.515   1.387  0.1718  1.9110  0.2172
  845Sol     MW 6422   0.096   0.495   1.300 -0.0935  0.2003  0.1408
  846Sol     OW 6423   2.119   1.893   2.000 -0.4554 -0.3370  0.3065
  846Sol     HW 6424   2.027   1.894   1.975 -0.6279 -1.1333  0.8860
  846Sol     HW 6425   2.137   1.802   2.024 -0.3436  0.3611  3.1620
  846Sol     MW 6426   2.112   1.885   2.000  0.1142 -0.4088  0.8430
  847Sol     OW 6427   2.341   3.356   7.406  0.1998 -0.4520 -0.1937
  847Sol     HW 6428   2.305   3.338   7.493 -0.0799 -0.7599 -0.3729
  847Sol     HW 6429   2.436   3.348   7.418  0.3016  1.7316  0.5971
  847Sol     MW 6430   2.347   3.354   7.415 -0.0434  0.3800 -0.2290
  848Sol     OW 6431   2.988   2.591   8.268  0.1860 -0.3572 -0.0447
  848Sol     HW 6432   2.922   2.536   8.225 -1.5662  1.8562 -0.2950
  848Sol     HW 6433   2.985   2.564   8.360 -2.2448  0.7431  0.2543
  848Sol     MW 6434   2.982   2.584   8.273  0.3397 -0.1783  0.4189
  849Sol     OW 6435   1.958   2.202   6.309 -0.5558 -0.5769  0.1017
  849Sol     HW 6436   1.985   2.293   6.321 -0.8822 -0.4335 -0.2290
  849Sol     HW 6437   2.033   2.160   6.267 -0.4670 -0.4233  0.1057
  849Sol     MW 6438   1.967   2.207   6.306 -0.2582  0.2002 -0.5817
  850Sol     OW 6439   1.332   0.301   2.765 -0.1072 -0.1269  0.2922
  850Sol     HW 6440   1.247   0.259   2.754  0.0931 -0.3158 -0.5477
  850Sol     HW 6441   1.329   0.378   2.707  0.3322 -0.1971  0.1727
  850Sol     MW 6442   1.324   0.304   2.759 -0.2701  0.4100 -0.2194
  851Sol     OW 6443   1.580   0.795   7.861 -0.0072 -0.0968  0.0338
  851Sol     HW 6444   1.671   0.819   7.843 -0.1718 -0.1449 -0.8971
  851Sol     HW 6445   1.535   0.879   7.870  0.0345 -0.0735  0.0245
  851Sol     MW 6446   1.584   0.805   7.860 -0.7543  0.4332  0.4673
  852Sol     OW 6447   0.621   3.303   9.099 -0.8694 -0.1430 -0.3562
  852Sol     HW 6448   0.603   3.331   9.189  0.1849  0.2612 -0.2583
  852Sol     HW 6449   0.542   3.257   9.072 -1.1763 -0.3304  0.8102
  852Sol     MW 6450   0.612   3.301   9.105 -0.1599  0.3546  0.3418
  853Sol     OW 6451   0.943   2.636   5.316 -0.1702 -0.5689  0.3120
  853Sol     HW 6452   0.967   2.580   5.389 -0.6810 -0.7045  0.3769
  853Sol     HW 6453   0.850   2.619   5.301 -0.3360  0.2534  0.3333
  853Sol     MW 6454   0.936   2.630   5.321  0.0222 -0.7415 -0.3515
  854Sol     OW 6455   2.507   1.465   4.532  0.0778  0.2780  0.1551
  854Sol     HW 6456   2.540   1.508   4.610 -0.6998 -0.7509  1.0711
  854Sol     HW 6457   2.495   1.535   4.468 -1.9440  1.5374  1.8887
  854Sol     MW 6458   2.509   1.475   4.533  0.1554  0.6879  0.5471
  855Sol     OW 6459   2.532   0.636   2.402 -0.1978  0.2011  0.1224
  855Sol     HW 6460   2.553   0.551   2.440 -0.7564 -0.3667 -0.8075
  855Sol     HW 6461   2.437   0.633   2.389 -0.4742  1.6299  1.6626
  855Sol     MW 6462   2.525   0.628   2.404 -0.7435  0.1449  0.1400
  856Sol     OW 6463   3.421   3.348   6.421  0.4554  0.3146  0.3653
  856Sol     HW 6464   3.497   3.397   6.452  0.3644  1.9377 -1.8975
  856Sol     HW 6465   3.425   3.355   6.326 -1.2737 -1.5234  0.1312
  856Sol     MW 6466   3.428   3.353   6.415 -0.5984 -0.1284 -0.1003
  857Sol     OW 6467   2.824   3.132   7.194 -0.0392 -0.2847 -0.3106
  857Sol     HW 6468   2.756   3.171   7.249 -0.6386  0.3026 -1.4571
  857Sol     HW 6469   2.782   3.054   7.157  0.4762 -0.8705  0.3081
  857Sol     MW 6470   2.814   3.128   7.196 -0.4976 -0.6093  0.2034
  858Sol     OW 6471   2.231   2.892   1.393  0.4178  0.5257  0.2651
  858Sol     HW 6472   2.325   2.907   1.408  0.8962 -1.2512 -0.8308
  858Sol     HW 6473   2.225   2.799   1.371 -1.4440  0.9244 -0.9587
  858Sol     MW 6474   2.239   2.885   1.392  0.0258  0.5367  0.7350
  859Sol     OW 6475   1.459   0.383   3.786  0.1465  0.5532 -0.3680
  859Sol     HW 6476   1.486   0.394   3.877  1.9224 -1.1748 -0.6610
  859Sol     HW 6477   1.518   0.440   3.736 -0.2468  0.8146 -0.5430
  859Sol     MW 6478   1.467   0.389   3.789  0.3478  0.6439 -0.3449
  860Sol     OW 6479   0.252   2.960   7.029 -0.3715 -0.4151 -0.2658
  860Sol     HW 6480   0.257   3.008   6.946 -0.9331 -0.7906 -0.5182
  860Sol     HW 6481   0.161   2.931   7.034 -0.3725 -0.2717  0.5509
  860Sol     MW 6482   0.245   2.962   7.022  0.5318  0.1231  0.1273
  861Sol     OW 6483   1.609   0.235   2.783 -0.0380 -0.2001  0.2062
  861Sol     HW 6484   1.515   0.222   2.770 -0.2484  0.8897  0.6373
  861Sol     HW 6485   1.649   0.194   2.707 -0.8379 -1.0745  0.2433
  861Sol     MW 6486   1.604   0.230   2.775 -0.3762  0.4221  0.9127
  862Sol     OW 6487   0.254   3.119   6.782 -0.4074 -0.1313 -0.0367
  862Sol     HW 6488   0.296   3.124   6.696  0.3752  0.5332  0.3727
  862Sol     HW 6489   0.250   3.210   6.811 -3.1723 -0.0523 -0.5550
  862Sol     MW 6490   0.257   3.128   6.777  0.1255  0.2819  0.3608
  863Sol     OW 6491   0.756   2.674   2.902  0.8564 -0.2251 -0.2993
  863Sol     HW 6492   0.800   2.747   2.946 -0.4688 -0.5375  1.6049
  863Sol     HW 6493   0.683   2.716   2.856  1.1170 -0.1411 -0.6401
  863Sol     MW 6494   0.753   2.685   2.901  0.1370 -0.0975 -0.1517
  864Sol     OW 6495   0.857   2.327   2.266 -0.1702 -0.2760 -0.6748
  864Sol     HW 6496   0.943   2.310   2.305 -0.9479  0.0023  1.2269
  864Sol     HW 6497   0.823   2.240   2.247  0.1275 -0.4335 -0.5064
  864Sol     MW 6498   0.862   2.317   2.268  0.1717 -0.4277  0.5606
  865Sol     OW 6499   2.148   3.405   7.227 -0.0633 -0.5984  0.1477
  865Sol     HW 6500   2.160   3.500   7.230 -1.0870 -0.5254  2.6821
  865Sol     HW 6501   2.212   3.371   7.291  0.3255 -1.6273 -0.7713
  865Sol     MW 6502   2.155   3.410   7.233 -0.4737  0.1242 -0.4121
  866Sol     OW 6503   1.765   0.798   6.458 -0.2485 -0.4186  0.3001
  866Sol     HW 6504   1.753   0.868   6.522 -0.1501  0.5546 -0.7231
  866Sol     HW 6505   1.726   0.832   6.377  1.0666 -0.9587 -0.5921
  866Sol     MW 6506   1.761   0.807   6.456  0.6599 -0.0138  0.6603
  867Sol     OW 6507   3.539   1.517   5.730 -0.1280  0.1181 -0.3520
  867Sol     HW 6508   3.585   1.442   5.767  0.2555  0.9482  0.9076
  867Sol     HW 6509   3.484   1.549   5.802 -1.3257  0.2120 -1.2952
  867Sol     MW 6510   3.538   1.513   5.740  0.3160  0.7806 -0.3715
  868Sol     OW 6511   3.529   3.162   3.639  0.0341 -0.2339 -0.1734
  868Sol     HW 6512   3.620   3.183   3.659  0.7925 -3.0443 -0.5529
  868Sol     HW 6513   3.501   3.234   3.582  2.0116  0.6715 -0.0624
  868Sol     MW 6514   3.535   3.171   3.636  0.5172 -0.5871  0.0394
  869Sol     OW 6515   2.198   0.816   6.533  0.0393 -0.3886  0.5887
  869Sol     HW 6516   2.219   0.889   6.474  0.0772 -1.5098 -0.7972
  869Sol     HW 6517   2.137   0.854   6.596  0.2742  0.9209  0.0542
  869Sol     MW 6518   2.195   0.826   6.533  0.6506 -0.0338 -0.5022
  870Sol     OW 6519   3.412   1.170   8.314 -0.3082  0.2986 -0.3137
  870Sol     HW 6520   3.373   1.176   8.227 -0.0545  1.6979 -0.3383
  870Sol     HW 6521   3.445   1.080   8.320  0.0798  0.3407 -1.8175
  870Sol     MW 6522   3.411   1.162   8.307 -0.3491  0.0653  0.4073
  871Sol     OW 6523   0.236   2.391   3.764  0.3233 -0.1683  0.0554
  871Sol     HW 6524   0.220   2.366   3.673 -0.1514 -1.0361  0.3740
  871Sol     HW 6525   0.227   2.487   3.764  1.0715 -0.0824 -0.9521
  871Sol     MW 6526   0.234   2.398   3.756 -0.0009  0.4400  0.7268
  872Sol     OW 6527   1.875   1.342   8.291 -0.2617 -0.1557 -0.3612
  872Sol     HW 6528   1.826   1.424   8.289 -0.3581 -0.2279 -1.9740
  872Sol     HW 6529   1.814   1.276   8.255  0.3880 -0.5926 -0.6771
  872Sol     MW 6530   1.865   1.343   8.288  0.4675  0.1161 -0.0002
  873Sol     OW 6531   2.783   2.422   8.190 -0.4071  0.1166  0.0557
  873Sol     HW 6532   2.777   2.412   8.095  1.5553  0.2313 -0.0924
  873Sol     HW 6533   2.836   2.348   8.219 -1.3042 -0.1159  1.1096
  873Sol     MW 6534   2.787   2.415   8.184 -0.3650  0.6305 -0.0592
  874Sol     OW 6535   1.718   2.983   8.357  0.1851 -0.4146  0.0704
  874Sol     HW 6536   1.682   3.071   8.372 -1.6261 -0.8929 -1.3926
  874Sol     HW 6537   1.659   2.943   8.294  0.7220 -2.8795  1.0862
  874Sol     MW 6538   1.709   2.987   8.353 -0.0345 -0.4328  0.0282
  875Sol     OW 6539   3.316   2.807   1.820 -0.2760 -0.0746  0.3973
  875Sol     HW 6540   3.370   2.856   1.882  1.1888  1.2051 -1.8734
  875Sol     HW 6541   3.298   2.868   1.749 -3.0335 -1.1248  0.1319
  875Sol     MW 6542   3.319   2.817   1.820  0.0494  0.1878 -1.0132
  876Sol     OW 6543   0.561   0.660   8.205  0.0788 -0.1775  0.4564
  876Sol     HW 6544   0.518   0.577   8.187  1.2704 -0.2108 -2.4493
  876Sol     HW 6545   0.654   0.644   8.187  0.3755  1.6927  0.1551
  876Sol     MW 6546   0.565   0.651   8.202 -0.5944 -0.1441 -0.6649
  877Sol     OW 6547   1.974   1.607   4.295 -0.1451 -0.2985  0.3601
  877Sol     HW 6548   1.913   1.672   4.331 -0.9102 -1.0642  0.4553
  877Sol     HW 6549   2.044   1.660   4.257  0.1621  0.5494  2.0305
  877Sol     MW 6550   1.975   1.618   4.295 -0.5985 -0.1289 -0.5375
  878Sol     OW 6551   2.044   1.790   6.160  0.2535  0.0571  0.8858
  878Sol     HW 6552   2.031   1.781   6.065  1.7781 -1.3817  0.7758
  878Sol     HW 6553   1.958   1.774   6.198  0.5130 -4.1420 -0.0260
  878Sol     MW 6554   2.035   1.788   6.155 -0.2416  0.0925 -0.3448
  879Sol     OW 6555   1.699   2.606   5.111 -0.3589  0.0138 -0.1137
  879Sol     HW 6556   1.686   2.616   5.205 -1.6321  1.0691 -0.3741
  879Sol     HW 6557   1.652   2.525   5.088 -0.6562  0.1383  0.0530
  879Sol     MW 6558   1.694   2.600   5.117  0.0527  0.3621 -0.0825
  880Sol     OW 6559   2.875   0.205   6.497  0.1972  0.1781  0.5990
  880Sol     HW 6560   2.852   0.258   6.573 -0.4511  0.2705  0.3467
  880Sol     HW 6561   2.801   0.217   6.437 -0.1652 -1.3643  0.7244
  880Sol     MW 6562   2.866   0.211   6.498  0.1652  0.2678  0.2887
  881Sol     OW 6563   2.411   3.034   7.405  0.1859  0.2196 -0.5014
  881Sol     HW 6564   2.320   3.013   7.428  0.3028  0.9183  0.6756
  881Sol     HW 6565   2.404   3.107   7.343 -0.0398  1.4361  0.9070
  881Sol     MW 6566   2.402   3.039   7.402 -0.1468 -0.3554  0.5548
  882Sol     OW 6567   0.040   2.701   8.131  0.1708  0.2295 -0.4640
  882Sol     HW 6568   0.127   2.669   8.109  1.1392  1.8755  0.9252
  882Sol     HW 6569   0.032   2.689   8.225 -0.9965  0.3957 -0.5287
  882Sol     MW 6570   0.047   2.697   8.137  0.1095  0.3672 -0.3134
  883Sol     OW 6571   2.699   0.931   8.295  0.4894  0.1736 -0.4679
  883Sol     HW 6572   2.708   0.949   8.202  1.6291  0.2363 -0.3593
  883Sol     HW 6573   2.656   0.846   8.300  1.3519 -0.2965 -1.0603
  883Sol     MW 6574   2.696   0.925   8.287  0.4864  0.6925  0.1617
  884Sol     OW 6575   2.118   2.388   1.904  0.3059  0.1356 -0.0170
  884Sol     HW 6576   2.117   2.304   1.950  0.3578  0.1409 -0.0056
  884Sol     HW 6577   2.179   2.375   1.831  1.9125  0.7755  1.1631
  884Sol     MW 6578   2.124   2.380   1.902  0.1453 -0.1505  0.5175
  885Sol     OW 6579   0.867   0.281   5.907  0.4049 -0.4489  0.4116
  885Sol     HW 6580   0.822   0.323   5.980 -0.0696 -2.4207  1.2893
  885Sol     HW 6581   0.957   0.268   5.939  0.0495 -1.8298  0.8805
  885Sol     MW 6582   0.871   0.283   5.917 -0.2153 -0.5442  0.1025
  886Sol     OW 6583   1.089   1.268   6.366 -0.2046 -0.1566 -0.3519
  886Sol     HW 6584   1.157   1.276   6.299 -0.4704 -0.4199 -0.6551
  886Sol     HW 6585   1.094   1.350   6.415  0.7769 -0.4464  0.0498
  886Sol     MW 6586   1.096   1.276   6.365  0.0704  0.1186 -0.2010
  887Sol     OW 6587   0.574   1.979   4.092 -0.1546 -0.4776 -0.2656
  887Sol     HW 6588   0.493   1.968   4.041 -0.6093  1.8783 -0.1222
  887Sol     HW 6589   0.638   2.012   4.029 -0.6403  2.1711  0.5520
  887Sol     MW 6590   0.572   1.981   4.081 -0.2097 -0.1680 -0.0978
  888Sol     OW 6591   1.911   1.687   2.891 -0.3354 -0.0427 -0.6000
  888Sol     HW 6592   1.864   1.764   2.921  0.1976  0.3060 -0.6514
  888Sol     HW 6593   1.951   1.651   2.970 -0.6445 -0.3136 -0.5633
  888Sol     MW 6594   1.910   1.691   2.901 -0.1153  0.3151  0.0759
  889Sol     OW 6595   1.544   2.749   4.387  0.2528 -0.0369 -0.0050
  889Sol     HW 6596   1.498   2.803   4.323  1.2495  1.6539  0.6824
  889Sol     HW 6597   1.480   2.736   4.458 -1.0668 -2.4351 -1.5703
  889Sol     MW 6598   1.534   2.753   4.388  0.1742 -0.0761 -0.2519
  890Sol     OW 6599   0.134   1.532   4.610 -0.4115 -0.7267  0.1363
  890Sol     HW 6600   0.073   1.461   4.586 -0.7349 -0.2399 -0.4927
  890Sol     HW 6601   0.160   1.570   4.526  0.9815 -1.1029  0.3783
  890Sol     MW 6602   0.131   1.529   4.600  0.5079 -0.0591 -0.4278
  891Sol     OW 6603   1.745   0.841   2.128  0.6264 -0.3118 -0.6156
  891Sol     HW 6604   1.829   0.870   2.094  0.1511 -0.0338 -1.5603
  891Sol     HW 6605   1.712   0.915   2.178  0.6373 -0.1836 -0.8000
  891Sol     MW 6606   1.749   0.850   2.130  0.6917  0.1908  0.2232
  892Sol     OW 6607   1.855   1.230   4.441  0.1063 -0.3385 -0.3329
  892Sol     HW 6608   1.880   1.255   4.530  0.5889 -1.3915 -0.1551
  892Sol     HW 6609   1.898   1.145   4.428 -0.3661 -0.4186 -1.3907
  892Sol     MW 6610   1.861   1.224   4.448  0.3797  0.0913 -0.1399
  893Sol     OW 6611   2.226   0.088   6.912  0.1060  0.6978 -0.2181
  893Sol     HW 6612   2.205   0.004   6.953 -1.4630  0.6829 -1.0047
  893Sol     HW 6613   2.165   0.150   6.953  1.0071  1.3869  0.0931
  893Sol     MW 6614   2.219   0.086   6.919 -0.2301 -0.4038  0.5601
  894Sol     OW 6615   3.034   1.605   1.973 -0.2575  0.8653  0.1559
  894Sol     HW 6616   3.046   1.583   1.881 -0.7939  0.2487  0.2271
  894Sol     HW 6617   3.039   1.521   2.019 -0.5099  1.1045  0.6308
  894Sol     MW 6618   3.036   1.596   1.969  0.0786  0.4461  0.2950
  895Sol     OW 6619   1.222   1.650   2.242  0.1979  0.1617 -0.4325
  895Sol     HW 6620   1.178   1.671   2.325  0.7294  1.3550 -0.4375
  895Sol     HW 6621   1.299   1.707   2.242  0.1894  0.1703 -1.7528
  895Sol     MW 6622   1.225   1.657   2.250  0.1185  0.6364 -0.3804
  896Sol     OW 6623   3.339   3.358   3.647 -0.1592 -0.2729  0.3578
  896Sol     HW 6624   3.377   3.436   3.606 -1.1676  0.4536  0.7979
  896Sol     HW 6625   3.275   3.327   3.582 -1.2276  0.4565  1.0375
  896Sol     MW 6626   3.337   3.362   3.637 -0.0445 -0.0529  0.4760
  897Sol     OW 6627   2.539   3.307   4.123 -0.5941  0.0337 -0.0029
  897Sol     HW 6628   2.601   3.312   4.195  0.9199 -0.0335 -1.2874
  897Sol     HW 6629   2.577   3.362   4.054 -0.3357 -2.5300 -1.9885
  897Sol     MW 6630   2.548   3.313   4.123  0.5048 -0.2397 -0.8511
  898Sol     OW 6631   1.017   1.775   5.103 -0.0947 -0.5234 -0.3042
  898Sol     HW 6632   1.099   1.736   5.132  0.2964  0.5571  0.0735
  898Sol     HW 6633   0.952   1.742   5.166  0.5742  0.9778  1.2335
  898Sol     MW 6634   1.018   1.769   5.111  0.0322 -0.3867  0.0193
  899Sol     OW 6635   2.211   2.459   3.918  0.3369  0.1161 -0.1549
  899Sol     HW 6636   2.122   2.483   3.891  1.1010 -0.3743 -3.2708
  899Sol     HW 6637   2.199   2.418   4.004 -2.4314  0.0792 -0.4925
  899Sol     MW 6638   2.202   2.458   3.924  0.1311  0.3582  0.0664
  900Sol     OW 6639   1.616   3.203   6.140 -0.6225 -0.0398  0.1098
  900Sol     HW 6640   1.628   3.111   6.167  1.0566 -0.5922 -2.3178
  900Sol     HW 6641   1.558   3.240   6.206 -1.2261 -2.8252  1.2164
  900Sol     MW 6642   1.612   3.198   6.148  0.2956  0.2384  0.4188
  901Sol     OW 6643   3.223   1.678   1.189 -0.1867  0.0625 -0.5506
  901Sol     HW 6644   3.315   1.655   1.175  0.9392  2.6494  2.1720
  901Sol     HW 6645   3.218   1.771   1.168 -1.5791  0.5618  1.8191
  901Sol     MW 6646   3.231   1.684   1.186  0.8429  0.2979  0.1624
  902Sol     OW 6647   0.856   2.508   7.432 -0.5586 -0.1835  0.1920
  902Sol     HW 6648   0.789   2.553   7.381 -0.4581  0.7204  0.8460
  902Sol     HW 6649   0.872   2.427   7.384 -0.7190  0.4913 -1.0249
  902Sol     MW 6650   0.852   2.505   7.423 -0.4826 -0.2056 -0.3317
  903Sol     OW 6651   2.363   2.684   3.984 -0.1470 -0.3361 -0.1516
  903Sol     HW 6652   2.440   2.633   4.012  0.9262  0.9423 -0.7128
  903Sol     HW 6653   2.299   2.618   3.959  1.4360 -1.4298 -1.4544
  903Sol     MW 6654   2.364   2.673   3.984 -0.6150  0.1120 -0.1771
  904Sol     OW 6655   2.403   1.391   3.469 -0.2302  0.1193 -0.0045
  904Sol     HW 6656   2.456   1.470   3.461  0.3153 -0.2581 -0.1631
  904Sol     HW 6657   2.467   1.322   3.489 -0.8152 -0.1064  1.1227
  904Sol     MW 6658   2.414   1.392   3.470 -0.1316 -0.7327 -0.1779
  905Sol     OW 6659   0.044   2.802   2.135  0.2027 -0.4567  0.3294
  905Sol     HW 6660  -0.038   2.793   2.183 -0.3384  2.0211 -0.0985
  905Sol     HW 6661   0.108   2.829   2.202  0.4158 -1.1498  0.4177
  905Sol     MW 6662   0.043   2.804   2.146 -0.0094  0.1097 -0.6476
  906Sol     OW 6663   2.350   1.534   7.837 -0.6055  0.5400 -0.5483
  906Sol     HW 6664   2.421   1.544   7.774 -1.4208 -1.6086 -1.8507
  906Sol     HW 6665   2.392   1.500   7.916 -0.0365  0.3393 -0.9368
  906Sol     MW 6666   2.360   1.532   7.838  0.6640 -0.6368 -0.3059
  907Sol     OW 6667   2.838   3.114   2.983  0.0826 -0.3303  0.5131
  907Sol     HW 6668   2.819   3.199   3.023  3.1059 -0.2861  1.9548
  907Sol     HW 6669   2.845   3.053   3.056  2.1120 -0.9496 -0.1491
  907Sol     MW 6670   2.837   3.116   2.993 -0.0958  0.0316 -0.4540
  908Sol     OW 6671   0.258   3.238   6.416  0.2345  0.0633 -0.4853
  908Sol     HW 6672   0.225   3.326   6.431  2.1927  0.3714  2.4890
  908Sol     HW 6673   0.179   3.183   6.412 -0.9002  1.5673  0.4975
  908Sol     MW 6674   0.248   3.241   6.417  1.0293 -0.3707 -0.2433
  909Sol     OW 6675   2.674   1.155   6.401  1.2452  0.0285 -0.4748
  909Sol     HW 6676   2.693   1.203   6.321  0.1840 -0.1783 -0.8582
  909Sol     HW 6677   2.635   1.072   6.371 -1.1982  0.8545  0.2899
  909Sol     MW 6678   2.672   1.152   6.392  0.7542 -0.6747 -0.8030
  910Sol     OW 6679   1.021   1.907   3.732 -0.2645  0.1411 -0.1600
  910Sol     HW 6680   0.939   1.858   3.734 -0.0755 -0.1308  1.3244
  910Sol     HW 6681   1.059   1.895   3.819 -0.8956  4.0602  0.7710
  910Sol     MW 6682   1.017   1.902   3.740 -0.1534 -0.1465 -0.3346
  911Sol     OW 6683   0.165   1.085   4.597 -0.0766 -0.4431  0.0603
  911Sol     HW 6684   0.241   1.028   4.604  0.1531 -0.4860 -2.3739
  911Sol     HW 6685   0.096   1.039   4.646  0.5000 -2.1086 -0.6640
  911Sol     MW 6686   0.165   1.076   4.602  0.5532 -0.4334  0.5823
  912Sol     OW 6687   2.178   1.871   1.689 -0.0703  0.4485  0.3965
  912Sol     HW 6688   2.197   1.956   1.728  0.0347  0.3273  0.6105
  912Sol     HW 6689   2.263   1.841   1.656 -0.2321  0.7286 -0.2744
  912Sol     MW 6690   2.188   1.875   1.689  0.1869 -0.2319 -0.0147
  913Sol     OW 6691   2.438   0.264   5.662 -0.3990  0.2868  0.0889
  913Sol     HW 6692   2.351   0.225   5.650 -2.4432  3.8040  2.6775
  913Sol     HW 6693   2.456   0.254   5.755  0.7420  2.0343  0.0733
  913Sol     MW 6694   2.432   0.260   5.669  0.0333  0.2699  0.4258
  914Sol     OW 6695   3.346   1.634   5.942 -0.4438 -0.6860  0.1122
  914Sol     HW 6696   3.294   1.613   5.864  0.3909 -1.7037 -0.1851
  914Sol     HW 6697   3.282   1.647   6.011 -1.1233 -1.4865 -0.3542
  914Sol     MW 6698   3.336   1.633   5.941  0.3545  0.0614  0.0370
  915Sol     OW 6699   3.354   1.487   4.036  0.4003  0.2983 -0.2793
  915Sol     HW 6700   3.351   1.407   3.983 -1.1267  1.0766 -1.4148
  915Sol     HW 6701   3.278   1.537   4.007  0.2196  1.2902  1.8195
  915Sol     MW 6702   3.347   1.484   4.029  0.7545  0.0516  0.2904
  916Sol     OW 6703   0.288   3.370   5.118  0.1967 -0.4564 -0.0496
  916Sol     HW 6704   0.309   3.276   5.118 -1.6722 -0.8923 -1.0407
  916Sol     HW 6705   0.193   3.373   5.105 -0.0742  1.5273  2.1169
  916Sol     MW 6706   0.282   3.361   5.117 -0.5181  0.0357  0.3449
  917Sol     OW 6707   1.577   1.494   1.779 -0.1331  0.2614  0.3520
  917Sol     HW 6708   1.577   1.587   1.801 -1.3032  0.0979  1.0748
  917Sol     HW 6709   1.492   1.462   1.810 -0.3709 -0.7210 -1.2807
  917Sol     MW 6710   1.569   1.499   1.784 -0.3524  0.6579 -0.0718
  918Sol     OW 6711   2.713   0.958   3.887  0.0149  0.0897 -0.4101
  918Sol     HW 6712   2.691   1.049   3.863  0.7448 -0.0323 -1.5560
  918Sol     HW 6713   2.798   0.943   3.847 -0.2521 -1.2115 -0.4898
  918Sol     MW 6714   2.718   0.965   3.881  0.0978 -0.1719 -0.1794
  919Sol     OW 6715   0.196   0.804   2.403  0.5397  0.6525  0.0658
  919Sol     HW 6716   0.103   0.800   2.383  0.8058 -0.0527 -1.1100
  919Sol     HW 6717   0.203   0.771   2.493 -0.2192 -0.4035 -0.2529
  919Sol     MW 6718   0.188   0.801   2.409  0.2906  0.1465  0.3929
  920Sol     OW 6719   2.977   3.219   3.628 -0.3082  0.3596 -0.0542
  920Sol     HW 6720   2.954   3.294   3.682 -0.9779  1.4016 -1.7590
  920Sol     HW 6721   3.065   3.239   3.596  0.6335 -0.8714  1.6774
  920Sol     MW 6722   2.983   3.228   3.630 -0.5057 -0.0554 -0.0607
  921Sol     OW 6723   1.860   0.082   7.332  0.1056 -0.6214  0.7537
  921Sol     HW 6724   1.910   0.048   7.407  0.9840  0.2413  0.5740
  921Sol     HW 6725   1.909   0.054   7.255  0.5333  0.5583  0.5884
  921Sol     MW 6726   1.869   0.077   7.332  0.0110  0.2231 -0.3008
  922Sol     OW 6727   2.939   2.871   4.981 -0.3323 -0.0910 -0.3860
  922Sol     HW 6728   2.918   2.960   5.011  2.9113  0.1660  1.4117
  922Sol     HW 6729   2.945   2.820   5.062 -1.0220 -1.7033 -1.3315
  922Sol     MW 6730   2.938   2.875   4.991  0.2009 -0.2069  0.0682
  923Sol     OW 6731   0.056   0.947   8.587 -0.0562  0.3005 -0.0168
  923Sol     HW 6732   0.126   0.895   8.627 -0.2177  1.0108  1.2002
  923Sol     HW 6733   0.092   1.036   8.584 -0.4098  0.4254 -0.6087
  923Sol     MW 6734   0.066   0.950   8.590 -0.0919  0.5524  0.5930
  924Sol     OW 6735   3.396   2.643   8.877 -0.2581  0.1975 -0.1260
  924Sol     HW 6736   3.406   2.653   8.782 -0.6419  2.6516  0.0495
  924Sol     HW 6737   3.310   2.681   8.896  0.2486  0.6540  1.3179
  924Sol     MW 6738   3.389   2.647   8.870  0.1601 -0.0346  0.2560
  925Sol     OW 6739   2.840   1.059   4.675  0.0708 -0.6907  0.1593
  925Sol     HW 6740   2.875   1.043   4.587  1.8721 -0.7437  0.8694
  925Sol     HW 6741   2.777   1.129   4.663  2.4291  1.3458 -0.7360
  925Sol     MW 6742   2.837   1.063   4.666 -0.6678  0.1068 -0.0062
  926Sol     OW 6743   0.195   2.756   6.745 -0.1796  0.7714 -0.6217
  926Sol     HW 6744   0.120   2.814   6.734  0.3276  1.1130 -2.4561
  926Sol     HW 6745   0.266   2.798   6.696  1.2109  0.4502  1.0791
  926Sol     MW 6746   0.195   2.765   6.739  0.0164  0.0326 -0.1051
  927Sol     OW 6747   0.604   2.771   6.547  0.0881 -0.0281 -0.1288
  927Sol     HW 6748   0.649   2.808   6.471  1.0038 -1.5413 -0.3529
  927Sol     HW 6749   0.612   2.676   6.536  0.6137 -0.2786  2.0648
  927Sol     MW 6750   0.609   2.766   6.539 -0.1422 -0.1389  0.0956
  928Sol     OW 6751   3.339   0.119   2.842  0.1386 -0.2347 -0.0048
  928Sol     HW 6752   3.313   0.027   2.837 -0.2887  0.0090 -2.3875
  928Sol     HW 6753   3.425   0.122   2.799 -0.3496  0.6721 -0.9303
  928Sol     MW 6754   3.345   0.111   2.838 -0.2273 -0.2868  0.7170
  929Sol     OW 6755   2.497   2.398   7.348 -0.3764 -0.2224 -0.3251
  929Sol     HW 6756   2.476   2.451   7.424 -1.0312 -4.3102  2.5478
  929Sol     HW 6757   2.588   2.372   7.361 -0.7518 -1.6599 -0.3917
  929Sol     MW 6758   2.503   2.400   7.356 -0.2197  0.2652  0.6088
  930Sol     OW 6759   2.384   0.338   6.602 -0.5329 -0.9388  0.4271
  930Sol     HW 6760   2.304   0.307   6.558 -0.4337 -1.3239  0.5217
  930Sol     HW 6761   2.436   0.376   6.532  0.1289 -2.5710  0.0070
  930Sol     MW 6762   2.381   0.338   6.592  0.7601  0.0104  0.2871
  931Sol     OW 6763   2.018   3.096   7.786  0.4863 -0.2898  0.3871
  931Sol     HW 6764   2.034   3.126   7.875  0.2018  2.4204 -0.4442
  931Sol     HW 6765   2.050   3.005   7.785  1.5512  0.0272  2.9103
  931Sol     MW 6766   2.023   3.090   7.794  0.3458  0.4306  0.0121
  932Sol     OW 6767   2.262   1.739   5.753 -0.5747 -0.1641  0.0894
  932Sol     HW 6768   2.187   1.796   5.734  0.9396  1.1015 -2.3080
  932Sol     HW 6769   2.315   1.789   5.814 -1.1501 -0.6453  1.0009
  932Sol     MW 6770   2.260   1.748   5.757 -0.3360 -0.1026 -0.1133
  933Sol     OW 6771   3.136   1.674   5.325 -0.0898 -0.1599 -0.1825
  933Sol     HW 6772   3.117   1.710   5.239 -0.1189  1.6036  0.5444
  933Sol     HW 6773   3.219   1.627   5.314  0.0294  0.2722 -1.1116
  933Sol     MW 6774   3.142   1.673   5.316  0.3411 -0.6765  0.1849
  934Sol     OW 6775   2.547   0.072   6.485  1.0328 -0.0370 -0.0947
  934Sol     HW 6776   2.542   0.108   6.574 -1.3850 -0.0680 -0.1947
  934Sol     HW 6777   2.590   0.141   6.434 -0.1687  1.1744  0.5031
  934Sol     MW 6778   2.551   0.081   6.489  0.0112  0.4960 -0.5811
  935Sol     OW 6779   2.819   1.877   3.663 -0.2606 -0.3640  0.1537
  935Sol     HW 6780   2.885   1.944   3.647 -0.2609 -0.4003 -0.0001
  935Sol     HW 6781   2.740   1.926   3.686  0.6069 -0.3846  3.3487
  935Sol     MW 6782   2.818   1.888   3.663 -0.2806  0.0996 -0.0859
  936Sol     OW 6783   1.784   0.662   3.222 -0.6377  0.1864  0.0391
  936Sol     HW 6784   1.844   0.611   3.276  1.0694 -1.2216 -3.0098
  936Sol     HW 6785   1.808   0.753   3.238  2.1847 -0.3413 -0.9001
  936Sol     MW 6786   1.792   0.665   3.228 -0.3100  0.0844 -0.5597
  937Sol     OW 6787   2.084   1.980   2.882 -0.3346  0.5563 -0.6184
  937Sol     HW 6788   2.142   1.957   2.809  0.1581 -0.1659 -0.0017
  937Sol     HW 6789   2.020   2.040   2.843  1.6044  2.4435 -1.0387
  937Sol     MW 6790   2.083   1.983   2.872  0.2096  0.0811  0.0478
  938Sol     OW 6791   2.160   2.411   8.831  0.2686  0.1758  0.0955
  938Sol     HW 6792   2.204   2.339   8.877  2.2614  1.8168  0.8087
  938Sol     HW 6793   2.207   2.419   8.748 -1.0289 -0.4020 -0.7222
  938Sol     MW 6794   2.168   2.405   8.828  0.0554  0.9968  0.4242
  939Sol     OW 6795   2.584   0.394   2.517 -0.6838  0.1325  0.0152
  939Sol     HW 6796   2.565   0.329   2.585 -0.1127  0.3513  0.3854
  939Sol     HW 6797   2.673   0.375   2.489 -0.4070  0.9256  0.3227
  939Sol     MW 6798   2.590   0.387   2.520 -0.3925 -0.5220 -0.6951
  940Sol     OW 6799   3.548   1.165   4.266  0.7622 -0.3609 -0.2110
  940Sol     HW 6800   3.549   1.070   4.268  1.5648 -0.3740 -0.8919
  940Sol     HW 6801   3.635   1.189   4.235  1.2619  0.6583  1.8916
  940Sol     MW 6802   3.556   1.159   4.263  0.0210  0.6653 -0.2298
  941Sol     OW 6803   0.617   2.042   1.508  0.0860  0.4830 -0.3990
  941Sol     HW 6804   0.671   2.011   1.435  0.2684 -1.3262  0.4868
  941Sol     HW 6805   0.527   2.020   1.483  0.1414 -0.0720 -0.1032
  941Sol     MW 6806   0.614   2.038   1.499 -0.2659 -0.7100  0.1530
  942Sol     OW 6807   2.862   2.439   7.181  0.2347 -0.0334  0.1521
  942Sol     HW 6808   2.784   2.430   7.236  0.5752 -0.4645  0.5716
  942Sol     HW 6809   2.833   2.491   7.106 -0.1366  0.9098  0.9382
  942Sol     MW 6810   2.852   2.443   7.179  0.1492  0.4500  0.1888
  943Sol     OW 6811   0.783   2.121   3.747 -0.0801  0.2051  0.1223
  943Sol     HW 6812   0.867   2.166   3.758 -0.6855  0.8327  2.6851
  943Sol     HW 6813   0.805   2.035   3.712  1.8383 -0.3027  2.4346
  943Sol     MW 6814   0.792   2.118   3.745 -0.5225 -0.0900  0.2619
  944Sol     OW 6815   2.556   0.705   1.629  0.1175 -0.0822  0.8902
  944Sol     HW 6816   2.543   0.629   1.572  0.0428 -1.0852  2.2004
  944Sol     HW 6817   2.468   0.727   1.660  0.4197 -1.1899  2.6426
  944Sol     MW 6818   2.547   0.700   1.627  0.1414  0.8186  0.1340
  945Sol     OW 6819   1.393   2.997   4.530 -0.0060 -0.1084  0.7943
  945Sol     HW 6820   1.301   3.022   4.530  0.2727  0.9419  0.0483
  945Sol     HW 6821   1.436   3.061   4.473  1.9218  2.1704  4.6372
  945Sol     MW 6822   1.389   3.005   4.525  0.6886 -0.0897 -0.1775
  946Sol     OW 6823   3.282   1.804   5.067  0.6604  0.0880 -0.5335
  946Sol     HW 6824   3.353   1.742   5.085 -1.0383 -2.0766 -1.0448
  946Sol     HW 6825   3.262   1.791   4.975 -0.0087  1.0939 -0.5326
  946Sol     MW 6826   3.286   1.797   5.061  0.0325 -0.0517  0.0430
  947Sol     OW 6827   1.763   1.765   2.176  0.2462  0.0558 -0.0548
  947Sol     HW 6828   1.800   1.845   2.214  0.2093  0.8508 -1.6362
  947Sol     HW 6829   1.791   1.695   2.234  0.4742  1.2012  1.2291
  947Sol     MW 6830   1.769   1.766   2.184  0.9645  0.4617 -0.4549
  948Sol     OW 6831   1.619   3.046   7.556 -0.1914  0.5206  0.0618
  948Sol     HW 6832   1.693   3.106   7.566  0.3329  0.6632 -3.7813
  948Sol     HW 6833   1.542   3.100   7.574  0.4693  1.1456  1.1148
  948Sol     MW 6834   1.619   3.056   7.558  0.1146  0.0775 -0.3454
  949Sol     OW 6835   2.585   1.550   1.249 -0.2632  0.2288  0.6551
  949Sol     HW 6836   2.570   1.598   1.167 -4.8655 -2.9249 -0.6103
  949Sol     HW 6837   2.642   1.477   1.224 -0.9460 -0.2273  0.3941
  949Sol     MW 6838   2.588   1.548   1.239 -0.1593  0.5541  0.2592
  950Sol     OW 6839   2.837   2.072   2.141  0.2067  0.6759 -0.1385
  950Sol     HW 6840   2.883   1.993   2.112  0.7145  0.3012  1.6159
  950Sol     HW 6841   2.870   2.142   2.085  0.7787 -0.1013 -0.7851
  950Sol     MW 6842   2.844   2.071   2.133 -0.1277 -0.2150 -0.0403
  951Sol     OW 6843   3.497   2.297   4.327 -0.3744  0.1217 -0.1350
  951Sol     HW 6844   3.529   2.381   4.359  1.1757 -0.0917 -1.0877
  951Sol     HW 6845   3.555   2.232   4.366 -0.3438 -0.3585 -0.9499
  951Sol     MW 6846   3.505   2.298   4.333  0.3250 -0.2054  0.2363
  952Sol     OW 6847   0.884   0.468   3.138 -0.1608  0.1915 -0.0985
  952Sol     HW 6848   0.908   0.446   3.048 -0.5280  1.8174 -0.5955
  952Sol     HW 6849   0.962   0.445   3.189  0.4318  0.2389 -0.9678
  952Sol     MW 6850   0.894   0.464   3.134  0.1399 -0.7891 -0.2964
  953Sol     OW 6851   3.236   0.467   8.116 -0.4406  0.1574  0.0863
  953Sol     HW 6852   3.302   0.529   8.148 -0.6695  0.7005 -0.4770
  953Sol     HW 6853   3.225   0.404   8.188  0.4742  0.2319  0.2996
  953Sol     MW 6854   3.241   0.467   8.125 -0.1653  1.2642 -0.5002
  954Sol     OW 6855   2.287   1.695   1.299 -0.4726 -0.7865  0.2125
  954Sol     HW 6856   2.272   1.608   1.261 -0.1682 -0.6353 -0.2509
  954Sol     HW 6857   2.199   1.731   1.309 -0.5843 -1.0273  0.1219
  954Sol     MW 6858   2.278   1.690   1.296  0.6418  0.3598  0.4552
  955Sol     OW 6859   0.687   1.705   6.416  0.1128  0.3882 -0.1246
  955Sol     HW 6860   0.624   1.665   6.476 -1.4168  3.5258  0.4722
  955Sol     HW 6861   0.641   1.711   6.332  0.7794 -0.2642 -0.5414
  955Sol     MW 6862   0.678   1.702   6.414 -0.0704  0.3445 -0.1665
  956Sol     OW 6863   0.656   2.358   5.913  0.1255  0.1404  0.5144
  956Sol     HW 6864   0.669   2.443   5.955  0.3666 -0.2046  1.1581
  956Sol     HW 6865   0.742   2.335   5.878  0.1208  0.0493  0.5616
  956Sol     MW 6866   0.665   2.363   5.914  0.3907  0.3712 -0.6034
  957Sol     OW 6867   2.466   1.355   8.696 -0.0805  0.0014 -0.0707
  957Sol     HW 6868   2.477   1.269   8.654  0.6951  0.5401 -0.9974
  957Sol     HW 6869   2.543   1.405   8.668 -0.3909  0.9147  0.6851
  957Sol     MW 6870   2.474   1.351   8.689 -0.3701 -0.0711  0.2066
  958Sol     OW 6871   0.042   1.539   6.999 -0.2558 -0.4340  0.0947
  958Sol     HW 6872   0.018   1.468   6.939  2.4733 -1.9423  0.7279
  958Sol     HW 6873   0.078   1.607   6.942 -0.2591 -0.7119 -0.2431
  958Sol     MW 6874   0.043   1.539   6.988  0.3563 -0.3938 -0.1308
  959Sol     OW 6875   1.948   3.163   6.696  0.2137  0.2320 -0.4602
  959Sol     HW 6876   2.025   3.202   6.655  0.3144 -0.0781 -0.5592
  959Sol     HW 6877   1.890   3.143   6.622 -0.6482  1.9424 -0.2961
  959Sol     MW 6878   1.949   3.165   6.686 -0.6113  0.4254 -0.3638
  960Sol     OW 6879   1.624   0.682   5.574 -0.3879 -0.0070  0.2615
  960Sol     HW 6880   1.644   0.719   5.488 -0.8524  1.1098  0.6288
  960Sol     HW 6881   1.544   0.632   5.561 -0.0429 -0.4741 -0.1171
  960Sol     MW 6882   1.619   0.681   5.565  0.4593 -0.2148 -0.6914
  961Sol     OW 6883   0.476   0.064   1.365  0.1706  0.3550 -0.4327
  961Sol     HW 6884   0.542   0.003   1.333  0.7203 -0.5403  2.2967
  961Sol     HW 6885   0.525   0.132   1.410 -0.5545  1.8559 -1.8479
  961Sol     MW 6886   0.486   0.065   1.366  0.0600 -0.4470 -0.0462
  962Sol     OW 6887   1.830   1.918   5.038 -0.3077 -0.3975  0.0297
  962Sol     HW 6888   1.801   1.839   5.083  2.5569  0.0302  2.7530
  962Sol     HW 6889   1.890   1.887   4.970 -1.8217 -0.7640 -1.1724
  962Sol     MW 6890   1.833   1.908   5.036  0.3924 -0.1224 -0.4828
  963Sol     OW 6891   0.045   0.182   4.793 -0.5342  0.6466  0.0104
  963Sol     HW 6892   0.045   0.190   4.697 -3.7499 -0.9300 -0.1787
  963Sol     HW 6893   0.116   0.121   4.812  1.1807  2.1926 -1.2001
  963Sol     MW 6894   0.051   0.177   4.786  0.7849  0.0157  0.1080
  964Sol     OW 6895   0.009   1.483   2.449 -0.7928  0.5281  0.0731
  964Sol     HW 6896  -0.045   1.505   2.373 -0.1515  0.6021 -0.3717
  964Sol     HW 6897   0.091   1.452   2.411  0.7329  3.5920  0.7494
  964Sol     MW 6898   0.012   1.482   2.438  0.1962  0.0570 -0.6749
  965Sol     OW 6899   1.966   0.820   3.039 -0.0083 -0.0059  1.0114
  965Sol     HW 6900   1.889   0.860   3.080 -0.6771 -1.2065  0.9621
  965Sol     HW 6901   1.992   0.882   2.970 -2.6106 -0.8636 -0.8086
  965Sol     MW 6902   1.961   0.829   3.036 -0.3899  0.3631 -0.4060
  966Sol     OW 6903   1.787   0.717   2.758 -1.0730  0.1969  0.4439
  966Sol     HW 6904   1.697   0.707   2.787 -0.4937 -0.4941  2.0104
  966Sol     HW 6905   1.841   0.691   2.833  0.4439 -2.0210 -1.3229
  966Sol     MW 6906   1.784   0.714   2.767 -0.4629  1.0109 -0.2974
  967Sol     OW 6907   0.297   0.715   7.920  0.4736 -0.1084  0.0932
  967Sol     HW 6908   0.341   0.733   7.838 -1.0419 -0.1495 -0.7535
  967Sol     HW 6909   0.333   0.632   7.950 -0.1239 -0.9203 -1.3714
  967Sol     MW 6910   0.304   0.709   7.916 -0.5400  0.1678  0.0744
  968Sol     OW 6911   3.542   1.617   5.495 -0.4361  0.4654 -0.0227
  968Sol     HW 6912   3.535   1.580   5.583  0.0685 -0.6174 -0.4292
  968Sol     HW 6913   3.524   1.710   5.506  1.2807  0.6451  1.5071
  968Sol     MW 6914   3.540   1.622   5.504 -0.0735 -0.2858  0.5340
  969Sol     OW 6915   1.441   1.205   4.386  0.1185  0.0061 -0.0902
  969Sol     HW 6916   1.526   1.176   4.353 -0.9485 -1.9496 -1.1800
  969Sol     HW 6917   1.410   1.266   4.319 -0.8449 -1.9136 -1.4403
  969Sol     MW 6918   1.446   1.208   4.377 -0.3537  0.2705  0.1105
  970Sol     OW 6919   0.394   2.054   7.459  0.2730 -0.0911 -0.3479
  970Sol     HW 6920   0.417   1.973   7.414  4.1351  0.4570  0.4773
  970Sol     HW 6921   0.474   2.106   7.458 -1.8930  3.4540 -0.1905
  970Sol     MW 6922   0.403   2.052   7.455 -0.1477 -0.4946 -0.2015
  971Sol     OW 6923   1.210   3.163   1.964  0.5566  0.3118 -0.0875
  971Sol     HW 6924   1.224   3.257   1.975  0.2611  0.5015 -1.2200
  971Sol     HW 6925   1.163   3.156   1.880  0.1311 -0.8043  0.2408
  971Sol     MW 6926   1.207   3.171   1.957 -0.5358  0.6054 -0.2945
  972Sol     OW 6927   0.871   2.243   8.555 -0.0356 -0.6099  0.0029
  972Sol     HW 6928   0.870   2.239   8.460 -1.7765 -1.5601  0.0394
  972Sol     HW 6929   0.792   2.292   8.579 -0.4543 -1.7272  0.9827
  972Sol     MW 6930   0.864   2.247   8.549 -0.0131 -0.5032  0.5676
  973Sol     OW 6931   0.935   0.065   3.877  0.6373 -0.0198 -0.6463
  973Sol     HW 6932   0.930   0.154   3.910 -2.2967 -0.2769 -0.2729
  973Sol     HW 6933   0.960   0.012   3.952 -0.2611  0.1615 -0.2137
  973Sol     MW 6934   0.937   0.068   3.886 -0.4081  0.3196  0.4246
  974Sol     OW 6935   1.367   1.097   5.818 -0.2419 -0.3880  0.3067
  974Sol     HW 6936   1.377   1.041   5.741  0.4195 -0.6660  0.5950
  974Sol     HW 6937   1.291   1.153   5.797 -2.0019 -2.5484  0.7307
  974Sol     MW 6938   1.361   1.097   5.809  0.9777 -0.2614  0.1424
  975Sol     OW 6939   0.685   3.162   7.756 -0.4970  0.5475  0.1971
  975Sol     HW 6940   0.637   3.245   7.747  1.4099  1.5327 -1.3012
  975Sol     HW 6941   0.773   3.188   7.781  0.6552 -0.8593 -2.2105
  975Sol     MW 6942   0.688   3.172   7.757  0.1433  0.6718  0.1669
  976Sol     OW 6943   2.712   2.478   6.940  0.1339  0.4183  0.1824
  976Sol     HW 6944   2.638   2.526   6.979 -0.5577 -1.4399  1.1889
  976Sol     HW 6945   2.673   2.397   6.907  1.8087 -0.8869  1.3211
  976Sol     MW 6946   2.702   2.475   6.941  0.1578  0.1689 -0.0415
  977Sol     OW 6947   2.459   1.641   6.131 -0.7106  0.2626 -0.2356
  977Sol     HW 6948   2.488   1.612   6.045 -0.4398  1.1995 -0.4678
  977Sol     HW 6949   2.415   1.725   6.114  0.1389  0.8961  0.6474
  977Sol     MW 6950   2.457   1.646   6.122 -0.5165 -0.8625  0.1996
  978Sol     OW 6951   2.032   1.048   1.759 -0.3310 -0.0119  0.2679
  978Sol     HW 6952   2.127   1.041   1.754 -0.3767 -0.9090  0.6362
  978Sol     HW 6953   2.016   1.140   1.780  0.4081  0.4161 -1.0010
  978Sol     MW 6954   2.039   1.056   1.761  0.0823  0.2962 -0.6994
  979Sol     OW 6955   3.360   0.406   4.510  0.6254  0.5297 -0.2847
  979Sol     HW 6956   3.353   0.375   4.420 -0.1852  0.9754 -0.3838
  979Sol     HW 6957   3.442   0.369   4.543  0.4029 -0.4971 -0.8703
  979Sol     MW 6958   3.366   0.400   4.505 -0.1581  0.3110  0.4344
  980Sol     OW 6959   0.576   1.269   4.507  0.0691 -0.5993 -0.2402
  980Sol     HW 6960   0.531   1.348   4.535  0.3378 -0.3136 -0.5913
  980Sol     HW 6961   0.667   1.283   4.534 -0.1821 -1.4900  1.1186
  980Sol     MW 6962   0.581   1.277   4.512 -0.3195 -0.0918  0.7599
  981Sol     OW 6963   1.918   2.155   5.659  0.7706 -1.1002  0.0468
  981Sol     HW 6964   1.975   2.167   5.735 -0.3641  0.0440  0.7243
  981Sol     HW 6965   1.974   2.176   5.584  1.6277 -1.3458  0.6006
  981Sol     MW 6966   1.928   2.158   5.659 -0.3481 -0.2151  0.3897
  982Sol     OW 6967   0.080   3.397   7.084  0.2581  0.3845 -0.5914
  982Sol     HW 6968   0.020   3.322   7.089 -1.3505  1.6400 -0.6844
  982Sol     HW 6969   0.128   3.384   7.002 -0.6737 -0.0794 -1.0764
  982Sol     MW 6970   0.079   3.389   7.077  0.1708 -0.2027  0.0391
  983Sol     OW 6971   0.278   2.998   7.656 -0.2400  0.1092  0.5110
  983Sol     HW 6972   0.214   2.957   7.598 -0.9102  2.1349 -0.2132
  983Sol     HW 6973   0.320   3.066   7.603  3.1697 -1.7378  0.6977
  983Sol     MW 6974   0.276   3.000   7.646 -0.0896  0.0006 -0.4120
  984Sol     OW 6975   2.080   1.504   8.211 -0.7838  0.2142  0.7746
  984Sol     HW 6976   2.010   1.448   8.246 -1.1536 -0.3294 -0.8025
  984Sol     HW 6977   2.041   1.548   8.136  1.1497 -1.7115 -1.4386
  984Sol     MW 6978   2.070   1.503   8.208  0.2182  0.6513  0.0740
  985Sol     OW 6979   3.564   2.351   5.313  0.0949 -0.1498  0.3451
  985Sol     HW 6980   3.606   2.293   5.250  1.6699 -0.8880  2.0366
  985Sol     HW 6981   3.473   2.320   5.318  0.5179 -1.4364  0.0622
  985Sol     MW 6982   3.559   2.343   5.308  0.0736  0.6536  0.0866
  986Sol     OW 6983   0.888   0.441   4.721  0.5052 -0.2633  0.0601
  986Sol     HW 6984   0.911   0.349   4.730 -0.7787 -0.5978  0.0883
  986Sol     HW 6985   0.821   0.456   4.788 -0.1480  0.3746 -0.7139
  986Sol     MW 6986   0.884   0.434   4.727  0.4050 -0.5090  0.2727
  987Sol     OW 6987   0.339   2.274   8.264 -0.2623 -0.7181  0.6518
  987Sol     HW 6988   0.324   2.227   8.182  1.3331  0.3010 -0.2368
  987Sol     HW 6989   0.380   2.210   8.322 -0.6794 -1.2181  0.3905
  987Sol     MW 6990   0.341   2.264   8.262 -0.0012  0.1312 -0.0694
  988Sol     OW 6991   2.191   0.556   5.276  0.3348  0.3071  0.1045
  988Sol     HW 6992   2.235   0.633   5.240 -0.3458  0.4708 -0.3726
  988Sol     HW 6993   2.252   0.484   5.261  0.5346  0.5715 -0.3590
  988Sol     MW 6994   2.200   0.556   5.272 -0.1067  0.1380  0.1360
  989Sol     OW 6995   2.310   2.078   5.748  0.1524 -0.2368  0.4554
  989Sol     HW 6996   2.313   2.077   5.844  0.4946 -0.3317  0.4461
  989Sol     HW 6997   2.398   2.050   5.721  0.4168  0.9097  0.1177
  989Sol     MW 6998   2.318   2.075   5.754 -0.5870  0.5286 -0.3581
  990Sol     OW 6999   3.165   2.431   2.063 -0.3952 -0.0673 -0.1333
  990Sol     HW 7000   3.177   2.469   2.150 -0.7299 -0.1328 -0.0575
  990Sol     HW 7001   3.170   2.505   2.003  0.4248 -0.1035 -0.1046
  990Sol     MW 7002   3.166   2.441   2.065  0.0482  0.1479 -0.6028
  991Sol     OW 7003   3.260   3.156   2.508  0.8027 -0.4034  0.0503
  991Sol     HW 7004   3.253   3.090   2.439  0.3848  0.5913 -0.8793
  991Sol     HW 7005   3.171   3.163   2.542  0.8204 -0.2366  0.0613
  991Sol     MW 7006   3.251   3.151   2.505 -0.4455 -0.3403 -0.1151
  992Sol     OW 7007   1.140   0.239   6.028 -0.1652  0.0137 -0.3650
  992Sol     HW 7008   1.179   0.327   6.029  0.8112 -0.3950 -2.0250
  992Sol     HW 7009   1.164   0.202   6.113 -0.8278  1.4446  0.4677
  992Sol     MW 7010   1.145   0.244   6.036 -0.3338 -0.3165  0.0178
  993Sol     OW 7011   1.965   1.680   5.495  0.8002 -0.0020 -0.1997
  993Sol     HW 7012   1.904   1.619   5.453  2.4599 -0.3855 -2.1348
  993Sol     HW 7013   2.016   1.626   5.555 -0.4734  0.2550  1.1488
  993Sol     MW 7014   1.964   1.670   5.497  0.1791 -0.3967  0.5850
  994Sol     OW 7015   2.128   0.734   4.340 -0.2640 -0.4279 -0.3247
  994Sol     HW 7016   2.174   0.708   4.420  1.0202  1.2064 -0.5174
  994Sol     HW 7017   2.188   0.711   4.269  0.4356  2.0259 -0.5582
  994Sol     MW 7018   2.138   0.729   4.341  1.1374  0.1710  0.4007
  995Sol     OW 7019   2.136   1.485   1.690 -0.1678  0.0429 -0.6939
  995Sol     HW 7020   2.225   1.521   1.686  0.2667 -0.9807 -0.3862
  995Sol     HW 7021   2.114   1.464   1.600  0.2443 -0.5303 -0.6595
  995Sol     MW 7022   2.142   1.487   1.682  0.5939  0.0956 -0.3825
  996Sol     OW 7023   3.527   2.618   4.748  0.8416 -0.0205 -0.1567
  996Sol     HW 7024   3.611   2.622   4.793 -0.4543 -0.4581  2.3881
  996Sol     HW 7025   3.464   2.599   4.817 -1.3140 -0.0320 -2.0771
  996Sol     MW 7026   3.529   2.616   4.758  0.1833  0.4227  0.4773
  997Sol     OW 7027   1.844   1.590   3.827 -0.5135 -0.0623 -0.0874
  997Sol     HW 7028   1.761   1.582   3.781 -0.9250  0.5581  0.5465
  997Sol     HW 7029   1.824   1.566   3.917  0.3348 -1.5004 -0.2503
  997Sol     MW 7030   1.835   1.587   3.831 -0.0324 -0.4197  0.2562
  998Sol     OW 7031   0.641   2.293   3.194 -0.2631 -0.2959  0.2084
  998Sol     HW 7032   0.677   2.382   3.187 -0.2658 -0.2530  0.7036
  998Sol     HW 7033   0.598   2.277   3.110 -1.4527  0.6896  0.6214
  998Sol     MW 7034   0.641   2.300   3.186 -0.0479  0.0842  0.0086
  999Sol     OW 7035   0.887   3.069   5.565  0.4185 -0.2384  1.3639
  999Sol     HW 7036   0.855   3.067   5.655  1.6626  2.9269  1.9428
  999Sol     HW 7037   0.967   3.121   5.568  0.0103  0.7295 -1.6856
  999Sol     MW 7038   0.891   3.073   5.573  0.0250 -0.2749 -0.3479
 1000Sol     OW 7039   2.682   2.798   3.945 -0.1373 -0.4897 -0.0055
 1000Sol     HW 7040   2.651   2.762   3.862  2.2854 -0.8848 -0.7664
 1000Sol     HW 7041   2.651   2.735   4.011 -1.3337 -0.6180 -0.6659
 1000Sol     MW 7042   2.676   2.789   3.944 -0.2431  0.3911  0.7714
 1001Sol     OW 7043   0.744   1.059   4.759  0.2290  0.0682 -0.5498
 1001Sol     HW 7044   0.779   1.065   4.848  1.1720 -1.2692 -0.8049
 1001Sol     HW 7045   0.682   1.131   4.753 -1.2027 -0.8932  1.8055
 1001Sol     MW 7046   0.742   1.066   4.767 -0.1747  0.4073 -0.3464
 1002Sol     OW 7047   1.849   1.595   2.390 -0.2660  0.0043  0.2931
 1002Sol     HW 7048   1.892   1.635   2.466 -1.5875  1.1914  0.4380
 1002Sol     HW 7049   1.796   1.525   2.427  1.1994 -1.2045  0.1557
 1002Sol     MW 7050   1.848   1.592   2.400 -0.0228 -0.3408 -0.1714
 1003Sol     OW 7051   0.605   2.323   3.719  0.1752  0.2710 -0.2305
 1003Sol     HW 7052   0.575   2.323   3.628  1.6738  0.8366 -0.7374
 1003Sol     HW 7053   0.671   2.254   3.722 -0.6676 -0.5155  0.7147
 1003Sol     MW 7054   0.608   2.316   3.711  0.0144 -0.4860 -0.4661
 1004Sol     OW 7055   1.294   2.458   2.869 -0.1577 -0.5055  0.6248
 1004Sol     HW 7056   1.219   2.516   2.851 -0.6416 -1.5968 -0.9453
 1004Sol     HW 7057   1.256   2.371   2.873  1.2338 -1.2875 -1.9261
 1004Sol     MW 7058   1.284   2.456   2.867 -0.1758 -0.4513 -0.5668
 1005Sol     OW 7059   0.742   0.843   5.939  0.2602  0.1727 -1.0637
 1005Sol     HW 7060   0.670   0.783   5.920 -1.7269  2.2605 -0.3799
 1005Sol     HW 7061   0.748   0.845   6.034  0.3920  0.9771 -1.0825
 1005Sol     MW 7062   0.736   0.838   5.946 -0.1449  0.2820 -0.6796
 1006Sol     OW 7063   2.208   0.372   4.674  0.4889 -0.2825 -0.4022
 1006Sol     HW 7064   2.152   0.450   4.672  1.4394  0.3890 -2.4996
 1006Sol     HW 7065   2.297   0.406   4.678  0.8470 -1.3009  0.5460
 1006Sol     MW 7066   2.211   0.382   4.674 -0.4774  0.4293 -0.2515
 1007Sol     OW 7067   2.227   3.005   8.401 -0.4200 -0.2215  0.2419
 1007Sol     HW 7068   2.297   3.021   8.337 -1.0422 -1.2595 -0.7129
 1007Sol     HW 7069   2.273   2.973   8.479  0.1377 -1.5873 -0.6205
 1007Sol     MW 7070   2.237   3.003   8.402  0.3563 -0.7526 -0.2656
 1008Sol     OW 7071   1.548   1.489   7.950  0.5155  0.5697 -0.5382
 1008Sol     HW 7072   1.524   1.493   8.043 -0.8811 -1.6925 -0.7603
 1008Sol     HW 7073   1.604   1.411   7.944  0.5527  0.6831 -1.6146
 1008Sol     MW 7074   1.551   1.482   7.958 -0.1239  0.2288  1.0072
 1009Sol     OW 7075   1.288   1.492   5.647  0.7923 -0.3310 -0.2132
 1009Sol     HW 7076   1.307   1.564   5.708  0.3401 -0.2662 -0.1468
 1009Sol     HW 7077   1.236   1.431   5.699  0.3461 -0.2409 -0.5543
 1009Sol     MW 7078   1.285   1.493   5.657  0.0500  0.4238  0.7534
 1010Sol     OW 7079   1.590   1.559   2.875  0.5994  0.0753  0.1215
 1010Sol     HW 7080   1.531   1.505   2.823  0.0082  0.6296  0.2140
 1010Sol     HW 7081   1.642   1.606   2.811 -1.9383  2.7704 -0.0395
 1010Sol     MW 7082   1.589   1.558   2.865  0.4354  0.1299 -0.0875
 1011Sol     OW 7083   1.516   1.863   7.518  0.4826 -0.1595  0.0618
 1011Sol     HW 7084   1.475   1.784   7.482  0.9457 -0.6532  0.6100
 1011Sol     HW 7085   1.549   1.910   7.442 -1.4129  0.4249 -0.4221
 1011Sol     MW 7086   1.515   1.860   7.508  0.7343 -0.0747  0.3376
 1012Sol     OW 7087   2.134   1.141   8.561 -0.2658 -0.3581 -0.0789
 1012Sol     HW 7088   2.038   1.143   8.569 -0.4821 -3.0208 -1.4194
 1012Sol     HW 7089   2.163   1.076   8.624  0.4566 -1.0388 -1.0825
 1012Sol     MW 7090   2.128   1.135   8.567  0.2150 -0.2087  0.3823
 1013Sol     OW 7091   1.022   1.094   3.190  0.0007  0.3312  0.1701
 1013Sol     HW 7092   1.099   1.148   3.208 -0.6112  0.8498  1.2705
 1013Sol     HW 7093   1.057   1.020   3.139  1.2191  0.5897  0.5960
 1013Sol     MW 7094   1.032   1.092   3.187  0.0690  0.1872 -0.0312
 1014Sol     OW 7095   0.411   0.300   6.163 -0.6330 -0.3850 -0.2223
 1014Sol     HW 7096   0.442   0.220   6.121 -0.4606 -0.5219  0.1587
 1014Sol     HW 7097   0.436   0.370   6.103  0.3413 -0.5068  0.0334
 1014Sol     MW 7098   0.416   0.299   6.154 -0.0692  0.0782 -0.2429
 1015Sol     OW 7099   2.244   2.803   1.762 -0.6795 -0.2218 -0.0951
 1015Sol     HW 7100   2.197   2.739   1.709 -0.4754 -1.3370  1.0595
 1015Sol     HW 7101   2.183   2.826   1.832  0.4519 -1.6895  1.4266
 1015Sol     MW 7102   2.234   2.800   1.764 -0.0226  0.1699 -0.0488
 1016Sol     OW 7103   3.259   2.136   5.623 -0.5211  0.0300  0.3476
 1016Sol     HW 7104   3.341   2.182   5.644 -0.4877 -0.2480  0.8477
 1016Sol     HW 7105   3.274   2.046   5.653 -2.2554  0.7770  3.6626
 1016Sol     MW 7106   3.268   2.132   5.628 -0.2143 -0.3601 -0.0514
 1017Sol     OW 7107   0.018   0.011   5.113  0.7322  0.0642  0.5558
 1017Sol     HW 7108  -0.057   0.021   5.171  0.8383  1.0218  0.5371
 1017Sol     HW 7109   0.045   0.100   5.093  0.8832 -0.2598 -0.7332
 1017Sol     MW 7110   0.014   0.020   5.116  0.4517  0.3898 -0.3589
 1018Sol     OW 7111   2.729   1.079   8.802  0.1895 -0.3229  0.1461
 1018Sol     HW 7112   2.789   1.069   8.877  2.3581 -2.0753 -1.7333
 1018Sol     HW 7113   2.757   1.161   8.761 -1.7854  1.2760  1.8494
 1018Sol     MW 7114   2.737   1.086   8.805  0.4312  0.0442 -0.1822
 1019Sol     OW 7115   1.056   0.963   6.757  0.6960 -0.1869  0.2027
 1019Sol     HW 7116   1.124   0.994   6.818  0.3752 -0.5586  0.7484
 1019Sol     HW 7117   1.043   0.872   6.780  0.6501 -0.3622 -0.5082
 1019Sol     MW 7118   1.061   0.958   6.765 -0.4133  0.2636  0.0744
 1020Sol     OW 7119   1.283   1.343   2.301 -0.0207 -0.3798  0.0966
 1020Sol     HW 7120   1.336   1.313   2.227 -0.4509 -0.3170 -0.2359
 1020Sol     HW 7121   1.263   1.434   2.281  0.0950 -0.2819  0.4246
 1020Sol     MW 7122   1.286   1.348   2.293 -0.6774 -0.4860 -0.0662
 1021Sol     OW 7123   1.395   1.657   7.375  0.5009 -0.6094 -0.0237
 1021Sol     HW 7124   1.419   1.680   7.285 -2.5612  1.5531 -0.3906
 1021Sol     HW 7125   1.308   1.617   7.366 -0.6988  1.3710  2.0920
 1021Sol     MW 7126   1.389   1.656   7.366 -0.0950  0.4754 -0.0323
 1022Sol     OW 7127   1.695   3.298   6.472  0.1362  0.1579 -0.0857
 1022Sol     HW 7128   1.753   3.321   6.399 -0.3089  0.6226 -0.2903
 1022Sol     HW 7129   1.712   3.205   6.487  2.7762  0.8308  1.4705
 1022Sol     MW 7130   1.702   3.292   6.467 -0.2476  0.8993 -0.1692
 1023Sol     OW 7131   3.396   1.275   3.831 -0.5257  0.3401 -0.1594
 1023Sol     HW 7132   3.416   1.319   3.748 -1.4983  0.1709 -0.4927
 1023Sol     HW 7133   3.471   1.217   3.846  0.0396  0.9809 -0.4995
 1023Sol     MW 7134   3.405   1.273   3.825  0.3392  0.1471 -0.6961
 1024Sol     OW 7135   1.268   1.265   1.646 -0.5638  0.3913 -0.0088
 1024Sol     HW 7136   1.207   1.200   1.682 -0.4847 -1.0966 -2.4660
 1024Sol     HW 7137   1.350   1.216   1.634  0.0558  1.4492 -0.1363
 1024Sol     MW 7138   1.270   1.254   1.649 -0.1254 -0.1485 -0.3668
 1025Sol     OW 7139   0.283   2.138   8.707  0.6326 -0.1293  0.2497
 1025Sol     HW 7140   0.226   2.208   8.739  0.6563  0.3376 -0.7132
 1025Sol     HW 7141   0.229   2.059   8.713 -0.3221  0.3905 -1.1516
 1025Sol     MW 7142   0.273   2.137   8.710 -0.5249 -0.4696 -0.2195
 1026Sol     OW 7143   1.682   3.036   3.402  0.6382  0.4043 -0.2329
 1026Sol     HW 7144   1.657   3.124   3.430 -0.5130  0.2168 -0.6535
 1026Sol     HW 7145   1.741   3.050   3.328 -1.1009  0.8064 -1.5792
 1026Sol     MW 7146   1.685   3.045   3.398  0.0903 -0.2263 -0.0939
 1027Sol     OW 7147   1.734   1.266   5.992 -0.2501  0.6258  0.6765
 1027Sol     HW 7148   1.780   1.232   5.915 -0.5107  0.1490  0.7271
 1027Sol     HW 7149   1.733   1.361   5.979  0.6151  0.6341  0.6026
 1027Sol     MW 7150   1.738   1.272   5.984 -0.1662 -0.1556  0.8499
 1028Sol     OW 7151   0.715   0.558   7.388 -0.2148 -0.0807  0.0050
 1028Sol     HW 7152   0.763   0.477   7.406 -1.3775 -0.7651  0.0493
 1028Sol     HW 7153   0.628   0.543   7.423 -0.1218  1.6206  0.9990
 1028Sol     MW 7154   0.712   0.550   7.393 -0.1948  0.0504 -0.1160
 1029Sol     OW 7155   0.665   1.734   6.115  0.0567 -0.4171 -0.3857
 1029Sol     HW 7156   0.594   1.783   6.073 -1.8848 -0.6114  2.5348
 1029Sol     HW 7157   0.643   1.642   6.100  0.2411 -0.4694 -0.3402
 1029Sol     MW 7158   0.656   1.730   6.109  0.4696  0.6026 -0.4097
 1030Sol     OW 7159   3.433   3.245   7.148 -0.0749  0.0394  0.1397
 1030Sol     HW 7160   3.433   3.178   7.216 -0.7354 -0.3541 -0.2373
 1030Sol     HW 7161   3.379   3.315   7.183  1.5822  0.8969  1.0247
 1030Sol     MW 7162   3.429   3.245   7.157 -0.1359  0.0330 -0.5115
 1031Sol     OW 7163   2.841   1.412   8.045 -0.0621 -0.2305  0.3393
 1031Sol     HW 7164   2.917   1.371   8.086 -0.5577 -0.2774  1.2320
 1031Sol     HW 7165   2.779   1.425   8.117 -2.0469 -2.8069 -0.7818
 1031Sol     MW 7166   2.842   1.409   8.055 -0.9155 -0.1677  0.5874
 1032Sol     OW 7167   1.701   1.213   5.714  0.4979  0.1478 -0.6866
 1032Sol     HW 7168   1.613   1.223   5.677  0.8472 -0.0825 -1.6011
 1032Sol     HW 7169   1.751   1.172   5.644  0.9895 -0.9855  0.3122
 1032Sol     MW 7170   1.698   1.210   5.704 -0.1054 -0.5033  0.1464
 1033Sol     OW 7171   2.866   1.031   4.110  0.2172  0.0320  0.0641
 1033Sol     HW 7172   2.897   1.117   4.080 -1.2260  0.7243  0.4783
 1033Sol     HW 7173   2.817   0.996   4.036  0.5698 -0.3173 -0.0059
 1033Sol     MW 7174   2.864   1.036   4.101 -0.7260  0.5346  0.9350
 1034Sol     OW 7175   0.765   0.753   6.196  0.7756 -0.7186 -0.6501
 1034Sol     HW 7176   0.845   0.708   6.171  1.0791 -1.0109  0.8654
 1034Sol     HW 7177   0.766   0.755   6.291  0.6829  2.3053 -0.6440
 1034Sol     MW 7178   0.772   0.749   6.202  0.5029  0.2528 -0.0547
 1035Sol     OW 7179   0.248   2.692   5.630  0.7537 -0.5706 -1.0161
 1035Sol     HW 7180   0.313   2.640   5.583  0.9943  0.0633 -1.3938
 1035Sol     HW 7181   0.271   2.783   5.610 -0.8609 -0.3607 -2.0186
 1035Sol     MW 7182   0.256   2.695   5.624 -0.1401 -0.2412 -0.3919
 1036Sol     OW 7183   3.538   0.378   6.650 -0.4382  0.0982 -0.5866
 1036Sol     HW 7184   3.500   0.348   6.567 -1.2796 -0.1067 -0.1387
 1036Sol     HW 7185   3.506   0.468   6.660  1.9427  1.1161 -1.8415
 1036Sol     MW 7186   3.532   0.383   6.644  0.4164  0.2093  0.2826
 1037Sol     OW 7187   1.549   0.915   9.018 -0.3653 -0.1659 -0.4794
 1037Sol     HW 7188   1.534   0.820   9.013 -0.7484 -0.1513  0.3523
 1037Sol     HW 7189   1.462   0.952   9.032 -0.1457  0.2801 -0.2933
 1037Sol     MW 7190   1.539   0.910   9.019  0.7710 -0.4188 -0.0984
 1038Sol     OW 7191   2.603   2.338   7.786 -0.5236  0.1134 -0.2193
 1038Sol     HW 7192   2.680   2.348   7.842 -0.2079 -1.0922 -0.4275
 1038Sol     HW 7193   2.616   2.255   7.741 -2.2578 -0.4106  0.2029
 1038Sol     MW 7194   2.611   2.332   7.787  0.2449 -0.1118 -0.3710
 1039Sol     OW 7195   1.999   0.619   6.128  0.1844  0.7300  0.5506
 1039Sol     HW 7196   2.016   0.613   6.222  2.3116  0.7404  0.1865
 1039Sol     HW 7197   1.918   0.670   6.121 -1.2753 -1.2177  2.4493
 1039Sol     MW 7198   1.993   0.623   6.135  0.3647  0.6494  0.3493
 1040Sol     OW 7199   0.396   3.016   2.731 -0.4406  0.2421 -0.5371
 1040Sol     HW 7200   0.352   3.010   2.646 -0.3342  2.8024 -0.8267
 1040Sol     HW 7201   0.413   3.110   2.743  0.9473 -0.2301  1.6094
 1040Sol     MW 7202   0.393   3.024   2.725  0.0807  0.0940  0.6558
 1041Sol     OW 7203   2.188   1.804   4.549 -0.0522  0.0221 -0.3551
 1041Sol     HW 7204   2.259   1.844   4.600 -0.1650  1.6786 -1.4535
 1041Sol     HW 7205   2.109   1.853   4.576 -0.4535 -0.4769 -0.6151
 1041Sol     MW 7206   2.187   1.812   4.556  0.1055 -0.0872 -0.3330
 1042Sol     OW 7207   3.208   3.302   5.350  0.3270  0.1796 -0.1645
 1042Sol     HW 7208   3.146   3.325   5.420 -1.6355  0.0134 -1.8141
 1042Sol     HW 7209   3.258   3.229   5.387 -2.4459 -1.6704  0.1772
 1042Sol     MW 7210   3.207   3.298   5.360  0.3404 -0.1450 -0.1224
 1043Sol     OW 7211   2.179   0.325   2.835  0.8034  0.4536 -0.0997
 1043Sol     HW 7212   2.221   0.259   2.780  1.1470  1.3160 -0.8931
 1043Sol     HW 7213   2.248   0.390   2.852  0.2421  1.0501 -0.0627
 1043Sol     MW 7214   2.189   0.325   2.831 -0.5677  0.2792 -0.0181
 1044Sol     OW 7215   0.826   2.865   1.024 -0.1050 -0.0073  0.1534
 1044Sol     HW 7216   0.768   2.941   1.031  0.4249  0.4100  0.0928
 1044Sol     HW 7217   0.842   2.855   0.930  0.2394  0.1304  0.1943
 1044Sol     MW 7218   0.822   2.871   1.016 -0.0448 -0.4283 -0.0398
 1045Sol     OW 7219   1.957   2.736   3.502  0.5684 -0.1018 -0.0711
 1045Sol     HW 7220   2.044   2.776   3.501  0.9063 -0.7700  1.0711
 1045Sol     HW 7221   1.974   2.642   3.495 -0.0617 -0.2229 -0.0102
 1045Sol     MW 7222   1.966   2.731   3.502  0.3787  0.4572 -0.5623
 1046Sol     OW 7223   0.876   1.996   5.873 -0.5690  0.4761 -0.2337
 1046Sol     HW 7224   0.826   1.994   5.792 -0.3210  0.2548 -0.3817
 1046Sol     HW 7225   0.956   1.948   5.853 -1.3493 -1.2752  0.6972
 1046Sol     MW 7226   0.879   1.991   5.864 -0.3109 -0.0530 -0.3217
 1047Sol     OW 7227   3.149   0.522   2.850  0.4282 -0.5108 -0.2465
 1047Sol     HW 7228   3.177   0.565   2.769  1.5391 -0.0354  0.3557
 1047Sol     HW 7229   3.196   0.570   2.919 -0.0375 -1.2852  0.6268
 1047Sol     MW 7230   3.156   0.531   2.849 -0.2778  0.3968  0.5972
 1048Sol     OW 7231   0.694   2.973   2.051 -0.1688 -0.6291 -0.0276
 1048Sol     HW 7232   0.641   3.043   2.011 -0.6290  0.2791  2.0940
 1048Sol     HW 7233   0.633   2.899   2.059 -1.0173  0.2364  1.9033
 1048Sol     MW 7234   0.684   2.973   2.048  0.4628 -0.1136  0.3360
 1049Sol     OW 7235   2.696   3.262   2.093  0.3459 -0.2568  0.5897
 1049Sol     HW 7236   2.687   3.302   2.007 -1.8163  1.1491  1.4106
 1049Sol     HW 7237   2.609   3.226   2.112  0.7317 -0.3855  2.2236
 1049Sol     MW 7238   2.687   3.263   2.087  0.0193  0.4759  0.5097
 1050Sol     OW 7239   3.352   0.713   7.996 -0.1442  0.5942  0.0230
 1050Sol     HW 7240   3.441   0.719   8.032 -0.4042  0.7487  0.6566
 1050Sol     HW 7241   3.353   0.633   7.944  1.0068  1.7692 -1.8377
 1050Sol     MW 7242   3.360   0.706   7.995 -0.3430  0.1521  0.7200
 1051Sol     OW 7243   0.175   0.840   5.415  0.1301 -0.4492 -0.1125
 1051Sol     HW 7244   0.261   0.841   5.457 -0.3074 -0.7202  0.7923
 1051Sol     HW 7245   0.185   0.897   5.339  1.1513 -0.5967 -0.0918
 1051Sol     MW 7246   0.184   0.845   5.412  0.2244 -0.3439 -0.4417
 1052Sol     OW 7247   3.363   2.725   8.029 -1.1638 -0.1066  0.3633
 1052Sol     HW 7248   3.373   2.783   7.954 -0.7015 -1.9340 -1.0147
 1052Sol     HW 7249   3.453   2.703   8.055 -1.3306 -3.1688 -1.4920
 1052Sol     MW 7250   3.372   2.728   8.025  0.5237 -0.6468  0.6145
 1053Sol     OW 7251   3.478   0.918   1.914  0.0403 -0.0595  0.0337
 1053Sol     HW 7252   3.448   0.988   1.856  0.8746  1.3843  1.2845
 1053Sol     HW 7253   3.430   0.933   1.996  0.6710 -0.5733  0.5021
 1053Sol     MW 7254   3.471   0.926   1.916  0.1708  0.1113 -0.5647
 1054Sol     OW 7255   1.224   1.851   3.534 -0.5532  0.0987  0.0325
 1054Sol     HW 7256   1.223   1.947   3.536 -0.4139  0.1313 -0.9252
 1054Sol     HW 7257   1.142   1.824   3.576 -1.0288  0.6582 -0.5375
 1054Sol     MW 7258   1.217   1.857   3.538 -0.2773  0.0956  0.7287
 1055Sol     OW 7259   2.029   2.870   1.919 -0.2460 -0.0621  0.0666
 1055Sol     HW 7260   1.993   2.922   1.991  1.4215 -0.2136  1.0222
 1055Sol     HW 7261   1.976   2.895   1.843 -0.4148  1.9394  0.8142
 1055Sol     MW 7262   2.021   2.877   1.918  0.0443  0.2157 -0.3028
 1056Sol     OW 7263   2.741   0.519   6.900  0.1338  0.1907  0.1954
 1056Sol     HW 7264   2.819   0.531   6.953  0.4337 -0.6621 -0.0528
 1056Sol     HW 7265   2.764   0.450   6.838 -0.8527 -0.1729  0.2178
 1056Sol     MW 7266   2.750   0.514   6.900 -0.1612  0.3813  0.6015
 1057Sol     OW 7267   3.362   1.970   3.729  0.1821  0.2689  0.1540
 1057Sol     HW 7268   3.353   2.061   3.700  0.0382  0.4027  0.6175
 1057Sol     HW 7269   3.319   1.919   3.660 -1.1265  0.6682  0.6541
 1057Sol     MW 7270   3.357   1.973   3.720  0.4422  0.3223 -0.0687
 1058Sol     OW 7271   1.618   2.512   2.142  0.0443  0.1005  0.1511
 1058Sol     HW 7272   1.668   2.593   2.150 -2.0171  1.3564  0.8034
 1058Sol     HW 7273   1.570   2.522   2.059 -0.4111 -0.3200  0.3609
 1058Sol     MW 7274   1.618   2.520   2.135 -0.2160  0.3415 -0.2143
 1059Sol     OW 7275   0.580   1.585   3.191  0.0101  0.6286  0.5728
 1059Sol     HW 7276   0.662   1.537   3.198  0.4122  1.3264  0.6260
 1059Sol     HW 7277   0.519   1.522   3.152  0.6300  0.1934  0.3011
 1059Sol     MW 7278   0.582   1.575   3.188  0.7175  0.1391  0.3341
 1060Sol     OW 7279   0.736   0.499   3.948 -0.1296 -0.3718 -0.3300
 1060Sol     HW 7280   0.706   0.586   3.974 -1.1385 -0.5519 -0.8609
 1060Sol     HW 7281   0.660   0.442   3.961  0.5696 -1.2133  0.1703
 1060Sol     MW 7282   0.727   0.502   3.952  0.3495  0.2022 -0.1346
 1061Sol     OW 7283   0.571   3.172   8.355  0.1075 -0.3589 -0.0833
 1061Sol     HW 7284   0.528   3.089   8.376  0.1847  0.2339  2.5497
 1061Sol     HW 7285   0.663   3.158   8.375  0.2186  0.1784 -0.2087
 1061Sol     MW 7286   0.575   3.163   8.358  0.5062 -0.4363 -0.0032
 1062Sol     OW 7287   0.996   0.066   4.290  0.0993 -0.4354  0.3721
 1062Sol     HW 7288   0.944   0.131   4.337  1.5143 -0.2794  1.7773
 1062Sol     HW 7289   1.058   0.118   4.239 -0.7489 -0.6333 -0.8862
 1062Sol     MW 7290   0.997   0.077   4.290 -0.8177  0.2924 -0.6971
 1063Sol     OW 7291   1.191   0.153   7.412 -0.0397  0.2129 -0.1016
 1063Sol     HW 7292   1.204   0.096   7.488 -2.0519 -0.2190 -0.0315
 1063Sol     HW 7293   1.174   0.093   7.340  1.0860  0.6459 -0.7249
 1063Sol     MW 7294   1.190   0.142   7.413 -0.1498  0.1466 -0.2185
 1064Sol     OW 7295   2.924   1.394   4.367  0.2364 -0.0886  0.2650
 1064Sol     HW 7296   2.907   1.488   4.360 -1.3084 -0.4584 -1.0507
 1064Sol     HW 7297   2.899   1.372   4.457 -0.9865  0.4324  0.0508
 1064Sol     MW 7298   2.921   1.400   4.375 -0.2607 -0.2189 -0.5409
 1065Sol     OW 7299   1.914   3.013   2.121  0.2899 -0.2978  0.0122
 1065Sol     HW 7300   1.971   3.046   2.190  0.3211  0.9356 -0.5836
 1065Sol     HW 7301   1.831   3.058   2.135  0.6826  0.9459 -1.5099
 1065Sol     MW 7302   1.912   3.020   2.128  0.0541  0.2614 -0.4038
 1066Sol     OW 7303   1.737   1.009   6.642 -0.2973 -0.1622 -0.4556
 1066Sol     HW 7304   1.662   1.058   6.608  0.3505  0.3272 -1.2251
 1066Sol     HW 7305   1.705   0.966   6.721 -1.1176  0.8252 -0.2406
 1066Sol     MW 7306   1.727   1.009   6.646  0.1173  0.1912  0.1566
 1067Sol     OW 7307   1.935   3.178   4.691  0.0271  0.0809 -0.5427
 1067Sol     HW 7308   1.855   3.220   4.723  0.5661  0.5900  0.1388
 1067Sol     HW 7309   1.937   3.201   4.597 -0.3178  0.5671 -0.4360
 1067Sol     MW 7310   1.928   3.184   4.685  0.0366 -0.0364  0.0390
 1068Sol     OW 7311   3.435   3.331   7.480  0.3697  1.1776  0.4949
 1068Sol     HW 7312   3.399   3.246   7.454 -0.7045  1.4247  1.1189
 1068Sol     HW 7313   3.490   3.313   7.556  0.1030  1.0428  0.6567
 1068Sol     MW 7314   3.436   3.322   7.484 -0.3947  0.6002 -0.4664
 1069Sol     OW 7315   2.281   2.212   2.728  0.2631  0.0538  0.0739
 1069Sol     HW 7316   2.292   2.242   2.637  0.2386  1.6991  0.6074
 1069Sol     HW 7317   2.186   2.212   2.742  0.2773 -0.0258  0.1721
 1069Sol     MW 7318   2.273   2.214   2.721 -0.0976 -0.0066 -0.3160
 1070Sol     OW 7319   1.542   1.337   8.675  0.2923 -0.8170  0.1926
 1070Sol     HW 7320   1.520   1.326   8.767  0.5206  0.3797  0.3907
 1070Sol     HW 7321   1.636   1.356   8.674 -0.2419  2.0278 -0.0571
 1070Sol     MW 7322   1.549   1.338   8.683 -0.2654 -0.2729  0.1194
 1071Sol     OW 7323   1.239   0.680   7.532 -0.2403  0.4332  0.4202
 1071Sol     HW 7324   1.229   0.585   7.539  0.1564  0.4203  0.8559
 1071Sol     HW 7325   1.334   0.694   7.529 -0.3131  0.7498 -0.6350
 1071Sol     MW 7326   1.247   0.673   7.532  0.2359 -0.5693  0.7393
 1072Sol     OW 7327   0.813   0.135   2.441  0.5685 -0.1727 -0.0884
 1072Sol     HW 7328   0.765   0.163   2.519  2.4678  0.5122  0.8702
 1072Sol     HW 7329   0.774   0.184   2.369 -0.0792  0.4499  0.6817
 1072Sol     MW 7330   0.805   0.142   2.442 -0.3698 -0.6300  0.2799
 1073Sol     OW 7331   1.061   1.015   9.028 -0.0842 -0.3838 -0.1953
 1073Sol     HW 7332   1.083   0.928   9.061 -0.4267 -0.4305 -0.0842
 1073Sol     HW 7333   0.996   0.999   8.960  2.9102 -0.5219 -3.1070
 1073Sol     MW 7334   1.057   1.006   9.025 -0.3666 -0.6977 -0.2830
 1074Sol     OW 7335   0.086   2.418   9.032  0.7557 -0.1795 -0.6648
 1074Sol     HW 7336   0.175   2.381   9.027  1.1625  0.7767 -0.5482
 1074Sol     HW 7337   0.099   2.506   9.068 -0.4660 -0.8594  1.5374
 1074Sol     MW 7338   0.095   2.422   9.035  1.0241 -0.3504  0.5776
 1075Sol     OW 7339   1.226   1.621   5.157 -0.4652 -0.0031 -0.3735
 1075Sol     HW 7340   1.257   1.677   5.227 -1.6667  0.1259  0.0721
 1075Sol     HW 7341   1.223   1.533   5.196 -0.0752 -0.1193 -0.6005
 1075Sol     MW 7342   1.228   1.618   5.167  0.0795  0.0459  0.2061
 1076Sol     OW 7343   0.779   1.089   5.378 -0.2399  0.0323 -0.0299
 1076Sol     HW 7344   0.738   1.011   5.340  1.0145 -0.5443 -0.2057
 1076Sol     HW 7345   0.758   1.159   5.315  1.7131 -0.8884 -1.7690
 1076Sol     MW 7346   0.773   1.088   5.369 -0.4215  0.2998 -0.1163
 1077Sol     OW 7347   0.541   2.767   2.718 -0.7016 -0.3170 -0.0061
 1077Sol     HW 7348   0.618   2.802   2.673 -0.2395 -1.3098  0.0012
 1077Sol     HW 7349   0.488   2.844   2.738 -1.1428  0.1217 -2.6462
 1077Sol     MW 7350   0.543   2.777   2.715 -0.0853 -0.0271  0.1351
 1078Sol     OW 7351   3.482   3.115   4.443 -0.3700 -0.2175  0.3626
 1078Sol     HW 7352   3.493   3.021   4.428  1.9454 -0.1355  1.3733
 1078Sol     HW 7353   3.461   3.122   4.536 -0.4413  0.2705  0.3102
 1078Sol     MW 7354   3.481   3.107   4.450 -0.0281 -0.1858 -0.4498
 1079Sol     OW 7355   1.061   2.757   3.133  0.0837  0.4049  0.2505
 1079Sol     HW 7356   1.084   2.828   3.192 -0.7171 -0.3609  1.4945
 1079Sol     HW 7357   0.995   2.706   3.180 -1.3836  0.3949 -1.7321
 1079Sol     MW 7358   1.057   2.759   3.142  0.1504  0.6303  0.2082
 1080Sol     OW 7359   0.879   2.135   1.987  0.1795 -0.8956  0.0226
 1080Sol     HW 7360   0.848   2.064   1.930 -2.4513 -0.7379  1.1813
 1080Sol     HW 7361   0.890   2.093   2.073 -2.4235  0.2509  0.9721
 1080Sol     MW 7362   0.877   2.125   1.990  0.6317 -0.5253 -0.5049
 1081Sol     OW 7363   3.465   1.903   5.418  0.2650  0.4999 -0.4566
 1081Sol     HW 7364   3.493   1.890   5.327 -2.1443  2.1127 -1.4901
 1081Sol     HW 7365   3.521   1.974   5.450  1.1903 -0.1387 -0.6501
 1081Sol     MW 7366   3.473   1.909   5.413  0.4219  0.0149  0.2679
 1082Sol     OW 7367   1.242   2.490   7.446  0.5586  0.0521 -0.3923
 1082Sol     HW 7368   1.261   2.547   7.521  0.7211 -0.5626  0.0376
 1082Sol     HW 7369   1.327   2.478   7.404  0.5205  0.1441 -0.4953
 1082Sol     MW 7370   1.252   2.494   7.449 -0.2202 -0.0212 -0.3140
 1083Sol     OW 7371   0.143   2.741   8.627 -0.2383  0.2257  0.4983
 1083Sol     HW 7372   0.206   2.711   8.561 -1.4034 -0.9524 -0.0944
 1083Sol     HW 7373   0.186   2.723   8.711  0.1562 -0.7315  0.0960
 1083Sol     MW 7374   0.153   2.737   8.629  0.4379 -0.5004  0.2029
 1084Sol     OW 7375   2.679   0.288   6.257  0.1581  0.1024  0.5566
 1084Sol     HW 7376   2.623   0.362   6.280  0.1335  0.0696  0.6027
 1084Sol     HW 7377   2.620   0.225   6.215  0.4263  0.6790 -0.7156
 1084Sol     MW 7378   2.669   0.289   6.255 -0.1523 -0.3070  0.3447
 1085Sol     OW 7379   1.983   0.871   1.989  0.2664  0.1415 -0.2255
 1085Sol     HW 7380   2.001   0.908   1.903 -0.2433 -0.4103 -0.5747
 1085Sol     HW 7381   2.063   0.825   2.012  0.4652  0.4340 -0.3315
 1085Sol     MW 7382   1.991   0.870   1.983  0.4898 -0.1253  0.4473
 1086Sol     OW 7383   0.624   1.798   5.076 -0.7570 -0.4187 -0.6224
 1086Sol     HW 7384   0.652   1.854   5.148  0.4929 -0.8096 -0.7913
 1086Sol     HW 7385   0.572   1.855   5.020 -0.9634  0.1203  0.1105
 1086Sol     MW 7386   0.622   1.808   5.078  0.5123  0.5701 -0.4691
 1087Sol     OW 7387   1.158   1.006   6.516  0.0800 -0.4997  0.2689
 1087Sol     HW 7388   1.105   1.009   6.596 -0.6348  0.9152 -0.2440
 1087Sol     HW 7389   1.151   1.094   6.480  1.4433 -0.7718 -0.6885
 1087Sol     MW 7390   1.153   1.014   6.520 -0.4529  0.2171 -0.1419
 1088Sol     OW 7391   1.283   0.190   7.796  0.5316 -0.2707 -0.0044
 1088Sol     HW 7392   1.257   0.120   7.736 -1.2347  0.5807 -0.2827
 1088Sol     HW 7393   1.236   0.171   7.877  0.9795 -0.0619  0.3090
 1088Sol     MW 7394   1.276   0.182   7.798  0.4586  0.4668  0.0966
 1089Sol     OW 7395   2.710   2.309   5.916 -0.0647 -0.2972 -0.1179
 1089Sol     HW 7396   2.768   2.235   5.900  0.1573 -0.1565  0.0466
 1089Sol     HW 7397   2.653   2.311   5.839  0.9574  0.3240 -0.8664
 1089Sol     MW 7398   2.710   2.303   5.907 -0.1357  0.9904  0.1443
 1090Sol     OW 7399   0.388   0.979   2.467  0.1354  0.0911 -0.1534
 1090Sol     HW 7400   0.335   0.906   2.435 -0.2240  0.4801 -0.4644
 1090Sol     HW 7401   0.351   1.000   2.553 -0.1927  0.3344 -0.3516
 1090Sol     MW 7402   0.380   0.974   2.472  0.0886  0.3760  0.1937
 1091Sol     OW 7403   1.276   2.029   7.527 -0.2558 -0.0940 -0.2510
 1091Sol     HW 7404   1.368   2.022   7.551 -0.2489 -1.0207 -0.5299
 1091Sol     HW 7405   1.231   1.970   7.588 -0.6582  0.2982 -0.1641
 1091Sol     MW 7406   1.280   2.023   7.535  0.2158  0.4246  0.3070
 1092Sol     OW 7407   1.004   0.581   6.159 -0.2162  0.2754  0.4805
 1092Sol     HW 7408   1.064   0.582   6.084 -0.8529  1.7160 -0.0215
 1092Sol     HW 7409   1.061   0.597   6.235  0.5259 -1.8345  0.4098
 1092Sol     MW 7410   1.015   0.583   6.159 -0.0739 -0.1280 -0.5446
 1093Sol     OW 7411   1.136   1.900   5.815 -0.1350 -0.2600 -0.1165
 1093Sol     HW 7412   1.201   1.949   5.865 -0.6969  0.5603 -0.1966
 1093Sol     HW 7413   1.142   1.811   5.850  0.5979 -0.0524  0.3026
 1093Sol     MW 7414   1.143   1.896   5.823 -0.1134 -0.5600  0.3101
 1094Sol     OW 7415   2.512   0.917   7.791 -0.1724  0.6078 -0.0979
 1094Sol     HW 7416   2.447   0.851   7.814  0.6874  0.7083  2.7235
 1094Sol     HW 7417   2.533   0.899   7.699 -2.1731 -1.1088 -0.2446
 1094Sol     MW 7418   2.508   0.910   7.785  0.3103 -0.8522  0.3023
 1095Sol     OW 7419   1.768   0.451   4.126 -0.7474 -0.2946 -0.6434
 1095Sol     HW 7420   1.861   0.438   4.108 -0.3983  1.0982  0.0780
 1095Sol     HW 7421   1.741   0.372   4.173  0.1888 -0.4926 -0.4417
 1095Sol     MW 7422   1.774   0.443   4.129 -0.1694  0.5590 -0.2569
 1096Sol     OW 7423   1.222   3.231   5.566 -0.2303  0.1044  0.3831
 1096Sol     HW 7424   1.307   3.261   5.536 -0.6755  0.0324 -0.9563
 1096Sol     HW 7425   1.222   3.137   5.548 -0.5591  0.0893  0.4622
 1096Sol     MW 7426   1.230   3.225   5.562 -0.2605  0.4537 -0.7386
 1097Sol     OW 7427   3.549   0.027   3.848  0.1904  0.4517 -0.1277
 1097Sol     HW 7428   3.488  -0.020   3.791 -1.1048  0.5493  1.1457
 1097Sol     HW 7429   3.583  -0.041   3.907  0.5981  0.5784 -0.2120
 1097Sol     MW 7430   3.547   0.016   3.848 -0.1666 -0.2546  0.3706
 1098Sol     OW 7431   1.312   0.713   1.623  0.0692  0.1315  0.1346
 1098Sol     HW 7432   1.374   0.639   1.624  0.3621  0.3895  2.3200
 1098Sol     HW 7433   1.294   0.730   1.715 -1.6836  1.4061 -0.4315
 1098Sol     MW 7434   1.316   0.708   1.631 -0.8137 -0.2206  0.1739
 1099Sol     OW 7435   1.854   0.637   3.749  0.3940 -0.3956 -0.0050
 1099Sol     HW 7436   1.859   0.676   3.836 -0.2816  0.5788 -0.3954
 1099Sol     HW 7437   1.906   0.557   3.756  0.8200 -0.0363  1.1337
 1099Sol     MW 7438   1.860   0.634   3.758  0.0326  0.2327  0.4570
 1100Sol     OW 7439   1.017   1.843   8.234 -0.3300  0.5661 -0.0870
 1100Sol     HW 7440   0.958   1.865   8.162  0.2735  0.3320 -0.6591
 1100Sol     HW 7441   1.093   1.804   8.192 -0.8459 -1.5253  0.8153
 1100Sol     MW 7442   1.019   1.842   8.224  0.1149 -0.3258  0.7096
 1101Sol     OW 7443   1.043   1.221   3.812 -0.1666 -0.2836  0.2422
 1101Sol     HW 7444   0.949   1.210   3.822 -0.1083  1.3400  3.1464
 1101Sol     HW 7445   1.068   1.158   3.744 -3.6244  0.7542 -2.1186
 1101Sol     MW 7446   1.037   1.214   3.807  0.0048 -0.2849 -0.0939
 1102Sol     OW 7447   1.226   1.853   4.607 -0.2780  0.1907  0.2110
 1102Sol     HW 7448   1.198   1.869   4.697 -0.5639  2.4878 -0.2473
 1102Sol     HW 7449   1.282   1.775   4.613 -1.3186 -0.4461  2.1589
 1102Sol     MW 7450   1.229   1.848   4.616 -0.3737  0.2289 -0.0157
 1103Sol     OW 7451   1.555   1.605   2.477 -0.4854  0.1128  0.1298
 1103Sol     HW 7452   1.595   1.531   2.432  0.3571 -0.3914  1.6681
 1103Sol     HW 7453   1.608   1.617   2.556 -0.5948  2.3772 -0.1020
 1103Sol     MW 7454   1.563   1.599   2.480  0.1009 -0.1181  0.5246
 1104Sol     OW 7455   3.319   0.923   3.418 -0.7481  0.1993  0.1222
 1104Sol     HW 7456   3.263   0.918   3.496 -1.0796 -0.3475 -0.1463
 1104Sol     HW 7457   3.332   1.016   3.404 -0.4982  0.2941  0.9725
 1104Sol     MW 7458   3.315   0.930   3.424  0.1451 -0.0824 -0.1361
 1105Sol     OW 7459   0.558   3.090   3.090  0.0171  0.0220  0.6538
 1105Sol     HW 7460   0.653   3.079   3.083  0.2536  0.9903  2.1216
 1105Sol     HW 7461   0.528   3.009   3.131  0.5740  0.8436  2.7436
 1105Sol     MW 7462   0.564   3.082   3.093  0.0363 -0.6735  0.7003
 1106Sol     OW 7463   2.949   0.898   5.159 -0.3958  0.6456  0.4075
 1106Sol     HW 7464   2.868   0.929   5.120  0.0599  1.1226 -0.1806
 1106Sol     HW 7465   3.013   0.901   5.087 -0.2487 -1.2887  0.4419
 1106Sol     MW 7466   2.948   0.901   5.149  0.1550  0.0105 -0.8251
 1107Sol     OW 7467   0.284   2.839   6.280  0.3950 -0.1398  0.2217
 1107Sol     HW 7468   0.324   2.862   6.197  1.7577 -0.5308  0.7535
 1107Sol     HW 7469   0.212   2.779   6.257  0.9428 -0.4736 -0.6427
 1107Sol     MW 7470   0.281   2.836   6.271 -0.1264 -0.2245 -0.5878
 1108Sol     OW 7471   3.456   1.968   4.794 -0.2917 -0.1763  0.2273
 1108Sol     HW 7472   3.541   1.930   4.771 -0.6015 -0.6802 -0.0979
 1108Sol     HW 7473   3.466   2.062   4.777  0.1891 -0.2346  0.1688
 1108Sol     MW 7474   3.464   1.973   4.791  0.1298 -0.7579 -0.1377
 1109Sol     OW 7475   3.176   0.524   6.933  0.0760  0.3377  0.6788
 1109Sol     HW 7476   3.198   0.613   6.960  0.1472  0.8356 -1.0184
 1109Sol     HW 7477   3.164   0.529   6.839  0.7107 -1.5847  0.4697
 1109Sol     MW 7478   3.177   0.532   6.927 -0.2010 -0.1274  0.3340
 1110Sol     OW 7479   2.623   3.334   7.446  0.1097 -0.4120  0.0953
 1110Sol     HW 7480   2.640   3.364   7.357 -0.8317 -0.3941 -0.0833
 1110Sol     HW 7481   2.691   3.376   7.499  0.4375 -0.1177 -0.5493
 1110Sol     MW 7482   2.631   3.340   7.442 -0.4371  0.1925  0.1787
 1111Sol     OW 7483   2.373   1.947   4.673 -0.0329  0.5575  0.2497
 1111Sol     HW 7484   2.461   1.941   4.637 -0.0340  2.2693 -0.0964
 1111Sol     HW 7485   2.368   2.036   4.708 -1.7187  0.5605  0.0258
 1111Sol     MW 7486   2.381   1.955   4.673 -0.7141 -0.6694  0.4114
 1112Sol     OW 7487   3.020   0.537   4.213  0.1167  0.2628  0.0797
 1112Sol     HW 7488   3.003   0.628   4.187 -0.4878  0.0587 -0.2375
 1112Sol     HW 7489   2.970   0.484   4.151  0.7562 -0.3025  0.0424
 1112Sol     MW 7490   3.014   0.541   4.205  0.2291 -0.0626 -0.2931
 1113Sol     OW 7491   0.610   0.567   7.027 -0.0612  0.0940  0.4888
 1113Sol     HW 7492   0.692   0.531   7.060 -0.3007  1.2564  2.4209
 1113Sol     HW 7493   0.565   0.492   6.987  0.3479 -1.3356  2.6123
 1113Sol     MW 7494   0.613   0.557   7.026  0.1866  0.0431  0.1395
 1114Sol     OW 7495   2.086   1.011   2.888  0.1578 -0.0044 -0.3675
 1114Sol     HW 7496   2.116   0.955   2.817 -0.7353  1.5754 -2.0322
 1114Sol     HW 7497   2.062   1.094   2.846 -0.1003  1.0863  1.8050
 1114Sol     MW 7498   2.087   1.014   2.878 -0.1212  0.7692  0.0017
 1115Sol     OW 7499   1.464   0.905   7.119  0.7422  0.0272 -0.2056
 1115Sol     HW 7500   1.515   0.976   7.156 -0.1580  0.4647  0.2131
 1115Sol     HW 7501   1.386   0.947   7.083  0.4147 -0.6920 -0.3483
 1115Sol     MW 7502   1.461   0.915   7.119  0.3963  0.1368 -0.2152
 1116Sol     OW 7503   1.474   1.535   5.382 -0.5757  0.2366  0.2302
 1116Sol     HW 7504   1.531   1.586   5.440 -0.8197 -1.1537  1.7135
 1116Sol     HW 7505   1.399   1.592   5.365 -0.1577  0.9207  0.6780
 1116Sol     MW 7506   1.473   1.544   5.385  0.4374 -0.0386  0.3458
 1117Sol     OW 7507   2.738   1.201   1.566  0.5254  0.0389  0.2290
 1117Sol     HW 7508   2.815   1.207   1.510  0.1331  0.7772 -0.2474
 1117Sol     HW 7509   2.684   1.277   1.541  0.3233  0.3591  1.5752
 1117Sol     MW 7510   2.740   1.209   1.559  0.0325 -0.2000  0.1633
 1118Sol     OW 7511   0.043   0.144   5.482 -0.2953 -0.1883 -0.3374
 1118Sol     HW 7512   0.109   0.075   5.475  0.6662  0.8026 -1.0671
 1118Sol     HW 7513  -0.019   0.125   5.412 -1.5563 -1.8904  1.1600
 1118Sol     MW 7514   0.044   0.136   5.475 -0.4022  0.0682 -0.0007
 1119Sol     OW 7515   3.561   2.762   5.510  0.5630  0.2939 -0.4977
 1119Sol     HW 7516   3.634   2.722   5.558 -1.1738 -1.0230  1.1729
 1119Sol     HW 7517   3.559   2.853   5.540  1.0946  0.1529 -0.0273
 1119Sol     MW 7518   3.567   2.766   5.517 -0.4584 -0.1680 -0.2123
 1120Sol     OW 7519   2.898   0.697   2.474  0.0110  0.0030  0.0089
 1120Sol     HW 7520   2.944   0.775   2.441  1.9833 -1.4949 -0.8921
 1120Sol     HW 7521   2.853   0.663   2.397  1.5270 -1.3664 -0.2919
 1120Sol     MW 7522   2.898   0.701   2.464  0.4099 -0.3301 -0.0291
 1121Sol     OW 7523   2.804   0.813   7.070 -0.4060 -0.5855 -0.2759
 1121Sol     HW 7524   2.806   0.744   7.004 -0.3358 -0.1726 -0.7103
 1121Sol     HW 7525   2.712   0.839   7.076 -0.5539 -1.2343  0.4401
 1121Sol     MW 7526   2.796   0.809   7.065 -0.2824 -0.0892  0.4666
 1122Sol     OW 7527   0.673   2.270   8.323 -0.3348  0.2981 -0.1018
 1122Sol     HW 7528   0.606   2.224   8.373 -0.4736 -0.1987 -0.7369
 1122Sol     HW 7529   0.664   2.235   8.234  0.6035  0.4095 -0.2386
 1122Sol     MW 7530   0.666   2.263   8.320  0.1995  0.2162  0.2858
 1123Sol     OW 7531   3.499   1.216   1.102  0.2345 -0.0701 -0.6043
 1123Sol     HW 7532   3.441   1.292   1.093 -0.6118 -0.5314  0.8500
 1123Sol     HW 7533   3.440   1.141   1.107  1.0956 -1.0893 -3.9356
 1123Sol     MW 7534   3.488   1.216   1.101 -0.3749  0.1051 -0.2325
 1124Sol     OW 7535   2.321   1.843   5.255 -0.2572 -0.0652 -0.4324
 1124Sol     HW 7536   2.280   1.928   5.238  0.4341  0.4723  0.5607
 1124Sol     HW 7537   2.297   1.821   5.345  1.0510 -0.0621 -0.0628
 1124Sol     MW 7538   2.315   1.849   5.261  0.3901  0.0339 -0.3319
 1125Sol     OW 7539   0.666   3.084   1.116  0.0232 -0.0918 -0.7356
 1125Sol     HW 7540   0.577   3.048   1.112 -0.7011  1.7083 -1.3704
 1125Sol     HW 7541   0.655   3.172   1.150  1.5563  0.2238 -1.0145
 1125Sol     MW 7542   0.657   3.088   1.119  0.5979 -0.4133 -0.5583
 1126Sol     OW 7543   1.438   0.652   6.831  0.2184 -0.7757 -0.5771
 1126Sol     HW 7544   1.411   0.599   6.755 -3.3894  0.0742  0.0071
 1126Sol     HW 7545   1.478   0.730   6.793 -0.6525 -0.8196 -1.6228
 1126Sol     MW 7546   1.439   0.654   6.820 -0.3684  0.2729 -0.1229
 1127Sol     OW 7547   2.191   1.799   7.514 -0.2638 -0.5748  0.1837
 1127Sol     HW 7548   2.153   1.887   7.508 -0.2827 -0.6819 -1.5165
 1127Sol     HW 7549   2.116   1.740   7.500  0.2379 -0.8035 -1.6929
 1127Sol     MW 7550   2.180   1.801   7.512  0.7122 -0.6450 -0.4821
 1128Sol     OW 7551   1.181   3.368   4.032  0.0041  0.2619  0.2330
 1128Sol     HW 7552   1.153   3.441   4.087 -0.4012 -1.5471  2.5236
 1128Sol     HW 7553   1.219   3.409   3.954 -0.9431  2.8765  1.0970
 1128Sol     MW 7554   1.182   3.378   4.030 -0.5537  0.0276  0.0861
 1129Sol     OW 7555   2.866   2.058   2.409 -0.6188 -0.1841  0.4484
 1129Sol     HW 7556   2.855   2.086   2.319  0.4205 -0.9403  0.0687
 1129Sol     HW 7557   2.803   1.987   2.420 -2.0152  1.0983  0.8790
 1129Sol     MW 7558   2.860   2.054   2.402  0.9321  0.4320  0.3012
 1130Sol     OW 7559   3.148   1.056   8.406  0.4094  0.0210  0.2680
 1130Sol     HW 7560   3.110   1.095   8.327 -1.5596  0.8561  1.5798
 1130Sol     HW 7561   3.169   0.966   8.380 -1.6668 -0.2027 -0.7992
 1130Sol     MW 7562   3.146   1.051   8.397 -0.1821 -0.6031  0.7002
 1131Sol     OW 7563   2.643   1.246   2.858  0.1256  0.7857 -0.2240
 1131Sol     HW 7564   2.552   1.221   2.872  0.7767 -0.9423  1.1725
 1131Sol     HW 7565   2.689   1.216   2.937  1.7306  2.5437 -0.4543
 1131Sol     MW 7566   2.639   1.241   2.867 -0.3840 -0.4368  0.1815
 1132Sol     OW 7567   0.254   0.977   7.648 -0.5237  0.2414 -0.1923
 1132Sol     HW 7568   0.321   0.915   7.677 -2.0075 -1.8157 -0.9667
 1132Sol     HW 7569   0.171   0.933   7.670 -1.6200  1.4667 -1.8050
 1132Sol     MW 7570   0.252   0.967   7.653  0.3002 -0.1538 -0.5915
 1133Sol     OW 7571   3.229   0.017   7.179  0.3064 -0.0450  0.3602
 1133Sol     HW 7572   3.245   0.064   7.260 -0.3176  0.0889  0.4069
 1133Sol     HW 7573   3.239   0.083   7.110  0.0819  0.0073  0.3793
 1133Sol     MW 7574   3.232   0.027   7.180  1.7285 -0.3668 -0.7066
 1134Sol     OW 7575   2.015   1.606   7.428 -0.6417 -0.0625 -0.4581
 1134Sol     HW 7576   2.102   1.582   7.396 -1.1618 -1.2363 -1.0328
 1134Sol     HW 7577   2.017   1.583   7.521  0.2869  1.7010 -0.0278
 1134Sol     MW 7578   2.023   1.602   7.433  0.0929 -0.1973  0.0557
 1135Sol     OW 7579   1.044   1.014   4.101 -0.5409  0.0851  0.0029
 1135Sol     HW 7580   1.086   0.956   4.166 -1.1506  0.0179  0.3430
 1135Sol     HW 7581   1.116   1.040   4.043  0.2702  1.1638  1.4515
 1135Sol     MW 7582   1.055   1.011   4.102  0.0602  0.6092 -0.0864
 1136Sol     OW 7583   0.984   2.455   1.664 -0.1132  0.1144 -0.5880
 1136Sol     HW 7584   0.930   2.390   1.709  1.2337 -0.8648 -0.3768
 1136Sol     HW 7585   1.070   2.449   1.705  0.0499  2.0043 -0.5963
 1136Sol     MW 7586   0.987   2.449   1.672 -0.0578  0.2461 -0.1692
 1137Sol     OW 7587   1.815   2.507   5.569  1.0144 -0.1258  0.2213
 1137Sol     HW 7588   1.786   2.473   5.485  0.5026  1.1347 -0.1211
 1137Sol     HW 7589   1.734   2.527   5.616  1.2911  1.5220  0.0338
 1137Sol     MW 7590   1.805   2.506   5.566  0.0340  0.4753 -0.8862
 1138Sol     OW 7591   0.797   2.362   2.907  0.3093 -0.7109 -0.3552
 1138Sol     HW 7592   0.840   2.304   2.844  1.8170  1.4901 -1.3980
 1138Sol     HW 7593   0.813   2.450   2.874 -3.8026  0.2907  0.0260
 1138Sol     MW 7594   0.802   2.365   2.899  0.0468  0.3341  0.6285
 1139Sol     OW 7595   1.755   1.930   7.687 -0.2648 -0.0913 -0.2618
 1139Sol     HW 7596   1.828   1.881   7.726  0.6087  1.2694 -0.1750
 1139Sol     HW 7597   1.688   1.863   7.671  0.3964 -1.1100  1.0826
 1139Sol     MW 7598   1.756   1.919   7.689  0.0346 -0.2236 -0.4082
 1140Sol     OW 7599   2.080   2.264   5.886 -0.0979 -1.0248 -0.5534
 1140Sol     HW 7600   2.030   2.197   5.932  0.2771  0.3680  1.9657
 1140Sol     HW 7601   2.172   2.238   5.896 -0.0303 -0.8388 -0.6787
 1140Sol     MW 7602   2.084   2.256   5.891 -0.2382  0.1945 -0.0610
 1141Sol     OW 7603   3.444   2.725   8.606 -0.8884  0.1450 -0.8290
 1141Sol     HW 7604   3.444   2.665   8.531 -0.4366 -1.8501  0.7417
 1141Sol     HW 7605   3.535   2.726   8.635 -1.1783  0.4537  0.0736
 1141Sol     MW 7606   3.453   2.720   8.602  0.0588 -0.6997  0.0762
 1142Sol     OW 7607   1.734   1.152   8.186 -0.2909  0.4683 -0.3540
 1142Sol     HW 7608   1.781   1.069   8.191  0.1953  0.7500 -0.2371
 1142Sol     HW 7609   1.643   1.129   8.208  0.0987  0.1904  1.0056
 1142Sol     MW 7610   1.730   1.142   8.188 -0.5138  0.5187 -0.3223
 1143Sol     OW 7611   1.632   3.191   5.210  0.4137  0.1693  0.4021
 1143Sol     HW 7612   1.614   3.103   5.177  4.3443 -0.6589  0.2905
 1143Sol     HW 7613   1.663   3.177   5.299  1.5091  1.3858  0.2230
 1143Sol     MW 7614   1.633   3.182   5.215 -0.8398  0.1561  0.1749
 1144Sol     OW 7615   0.353   0.166   2.130  0.3361 -0.2463  0.0037
 1144Sol     HW 7616   0.384   0.256   2.121  0.2783 -0.1749  0.4877
 1144Sol     HW 7617   0.260   0.174   2.149  0.4324 -0.3821  0.5682
 1144Sol     MW 7618   0.347   0.175   2.131 -0.0837  0.4000 -0.5218
 1145Sol     OW 7619   2.570   0.946   5.960  0.0624  0.1225 -0.3515
 1145Sol     HW 7620   2.501   1.009   5.938  0.9323  0.5488 -1.9927
 1145Sol     HW 7621   2.643   0.970   5.903  1.1521 -1.0653  0.5126
 1145Sol     MW 7622   2.571   0.954   5.953 -0.1179 -0.5975 -0.1487
 1146Sol     OW 7623   1.095   2.840   5.292  0.0466  0.4681 -0.4011
 1146Sol     HW 7624   1.135   2.835   5.206 -1.0386  0.2863 -0.8988
 1146Sol     HW 7625   1.048   2.758   5.302  2.0078 -0.4929  1.3045
 1146Sol     MW 7626   1.094   2.832   5.285 -0.1861 -0.4507 -0.3806
 1147Sol     OW 7627   1.544   0.835   4.248 -0.1746  0.2460  0.1888
 1147Sol     HW 7628   1.621   0.834   4.191  0.2952  2.0104  0.7646
 1147Sol     HW 7629   1.558   0.909   4.306 -0.9320 -1.1553  2.2308
 1147Sol     MW 7630   1.552   0.841   4.248 -0.3596  0.0622  0.4185
 1148Sol     OW 7631   1.438   0.186   4.062 -0.2517 -0.0083 -0.0662
 1148Sol     HW 7632   1.350   0.207   4.031 -0.4500  0.8088  1.0163
 1148Sol     HW 7633   1.476   0.271   4.086  1.1872 -0.2510 -1.4317
 1148Sol     MW 7634   1.433   0.195   4.062 -0.2056 -0.3186 -0.0566
 1149Sol     OW 7635   0.775   2.886   6.340 -0.5467  0.0714 -0.2903
 1149Sol     HW 7636   0.852   2.862   6.391 -0.7496  1.0420  0.4964
 1149Sol     HW 7637   0.774   2.981   6.341 -2.4572  0.0843  0.8201
 1149Sol     MW 7638   0.782   2.892   6.345  0.2229  0.1780  0.3524
 1150Sol     OW 7639   0.319   2.611   1.946 -0.0511 -0.1804 -0.3642
 1150Sol     HW 7640   0.367   2.529   1.958 -0.2159 -0.1104  0.8826
 1150Sol     HW 7641   0.227   2.586   1.957 -0.1850 -0.0322 -1.1322
 1150Sol     MW 7642   0.315   2.601   1.948  0.0308  0.4015  0.6056
 1151Sol     OW 7643   0.129   1.905   8.714  0.0457 -0.4278 -0.1659
 1151Sol     HW 7644   0.059   1.854   8.673  1.7788 -1.8059 -1.5167
 1151Sol     HW 7645   0.176   1.841   8.767  1.0441  0.1863 -0.2964
 1151Sol     MW 7646   0.127   1.895   8.715 -0.0936 -0.0597 -0.1804
 1152Sol     OW 7647   0.479   3.366   5.774  0.0810  0.0159  0.7588
 1152Sol     HW 7648   0.488   3.282   5.818 -0.2731 -0.1440  0.5205
 1152Sol     HW 7649   0.535   3.359   5.697  0.2233  0.0780  0.8558
 1152Sol     MW 7650   0.485   3.358   5.771 -0.1499 -0.2111  0.7935
 1153Sol     OW 7651   3.367   3.093   4.732 -0.2291 -0.1135  0.0545
 1153Sol     HW 7652   3.347   3.187   4.740 -3.2488 -0.7277  0.2019
 1153Sol     HW 7653   3.345   3.056   4.817  2.1082 -0.7823  0.3865
 1153Sol     MW 7654   3.363   3.098   4.740 -0.2889  0.0749 -0.1403
 1154Sol     OW 7655   1.722   1.448   2.037  0.4394  0.8142 -0.0689
 1154Sol     HW 7656   1.639   1.423   2.076  0.5101  0.2198 -0.2918
 1154Sol     HW 7657   1.699   1.490   1.954  0.3983 -0.3507 -0.6643
 1154Sol     MW 7658   1.713   1.449   2.033  0.5957 -0.3828 -0.4182
 1155Sol     OW 7659   2.549   0.887   7.520  0.3779  0.4134 -0.5753
 1155Sol     HW 7660   2.619   0.839   7.477  0.4276 -1.9358  1.9866
 1155Sol     HW 7661   2.472   0.873   7.464  1.1963  0.2490 -1.6615
 1155Sol     MW 7662   2.548   0.881   7.511 -0.6931 -0.0854  0.3165
 1156Sol     OW 7663   0.860   1.181   7.411  0.3628  0.3983  0.1155
 1156Sol     HW 7664   0.881   1.105   7.466  2.0765  0.3110 -0.6155
 1156Sol     HW 7665   0.931   1.243   7.429  0.7493  0.5003 -1.7174
 1156Sol     MW 7666   0.869   1.179   7.418 -0.3660 -0.0159  0.0581
 1157Sol     OW 7667   1.524   3.133   1.491  0.1338 -0.5920 -0.4244
 1157Sol     HW 7668   1.547   3.072   1.421  3.4642 -0.1135  0.1332
 1157Sol     HW 7669   1.485   3.208   1.446  0.0634 -1.2853 -1.5403
 1157Sol     MW 7670   1.523   3.134   1.481  0.3188  0.0611  0.1914
 1158Sol     OW 7671   0.501   0.045   5.452 -0.1540 -0.2330  0.1721
 1158Sol     HW 7672   0.511   0.097   5.372 -0.1167  2.4875  1.8654
 1158Sol     HW 7673   0.546  -0.037   5.433  1.3502  1.0306 -2.0160
 1158Sol     MW 7674   0.506   0.042   5.443 -0.0689 -0.3949 -0.5452
 1159Sol     OW 7675   2.096   2.280   5.481  0.1049  0.3005 -0.4263
 1159Sol     HW 7676   2.090   2.348   5.413 -0.9055 -0.0750 -0.7207
 1159Sol     HW 7677   2.170   2.307   5.534  1.1272  0.4153 -1.8790
 1159Sol     MW 7678   2.102   2.289   5.479  0.6298  0.2967 -0.3476
 1160Sol     OW 7679   2.243   3.314   6.663  0.1968  0.0101  0.2899
 1160Sol     HW 7680   2.249   3.349   6.574  2.1746 -0.7444  0.1064
 1160Sol     HW 7681   2.246   3.392   6.719 -1.2953  0.5025 -0.2947
 1160Sol     MW 7682   2.244   3.324   6.660  0.1496  0.1546  0.6053
 1161Sol     OW 7683   0.491   1.851   8.977 -0.5031 -0.0830 -0.3264
 1161Sol     HW 7684   0.564   1.795   8.950 -1.2510 -0.9405 -0.6041
 1161Sol     HW 7685   0.414   1.811   8.936 -0.9930  1.3936 -0.8695
 1161Sol     MW 7686   0.491   1.842   8.971 -0.1162 -0.0694  0.7126
 1162Sol     OW 7687   2.571   1.401   6.861 -0.4600 -0.0125 -0.2086
 1162Sol     HW 7688   2.638   1.401   6.930  0.8367 -1.2345 -1.4401
 1162Sol     HW 7689   2.541   1.310   6.857 -3.3167  0.8034  1.3553
 1162Sol     MW 7690   2.574   1.393   6.867 -0.5780 -0.4708  0.5961
 1163Sol     OW 7691   1.450   2.172   8.313  0.1157 -0.3001 -0.1787
 1163Sol     HW 7692   1.431   2.248   8.259  0.1231 -0.4545 -0.3968
 1163Sol     HW 7693   1.377   2.112   8.298 -0.1244 -0.1453  0.3473
 1163Sol     MW 7694   1.442   2.174   8.307  0.1252 -0.1862 -0.1344
 1164Sol     OW 7695   2.130   2.282   1.423  0.1964  0.3975 -0.6413
 1164Sol     HW 7696   2.187   2.217   1.465  0.6417  0.2117 -1.5213
 1164Sol     HW 7697   2.041   2.253   1.444  0.4153  1.1465  1.4374
 1164Sol     MW 7698   2.127   2.273   1.429  0.0419 -0.0815 -0.1018
 1165Sol     OW 7699   1.142   0.243   5.450  0.1843 -0.1884  0.3339
 1165Sol     HW 7700   1.232   0.226   5.477  0.2794  0.7263  0.6192
 1165Sol     HW 7701   1.127   0.184   5.377  0.6498 -1.1434  1.0005
 1165Sol     MW 7702   1.149   0.236   5.446 -0.5685  0.0539 -0.1735
 1166Sol     OW 7703   2.446   1.314   2.454  0.2024 -0.5813  0.3233
 1166Sol     HW 7704   2.500   1.237   2.433 -0.5102 -1.1930  0.7298
 1166Sol     HW 7705   2.443   1.364   2.372 -0.0597 -1.4292 -0.1883
 1166Sol     MW 7706   2.451   1.312   2.445 -0.4331 -0.2074 -0.6878
 1167Sol     OW 7707   2.889   0.884   7.849  0.1403 -0.2443 -0.1907
 1167Sol     HW 7708   2.874   0.949   7.918 -1.0954  1.3509 -1.8939
 1167Sol     HW 7709   2.850   0.803   7.882 -1.2263  0.7326  0.6097
 1167Sol     MW 7710   2.884   0.883   7.858  0.5661 -0.2552  0.1314
 1168Sol     OW 7711   2.316   1.400   8.288  0.0410  0.0373  0.2738
 1168Sol     HW 7712   2.291   1.316   8.324  0.2641 -0.5754 -0.9564
 1168Sol     HW 7713   2.236   1.436   8.250  0.0628  0.1202  0.3068
 1168Sol     MW 7714   2.307   1.396   8.288 -0.2334 -0.5173 -0.2519
 1169Sol     OW 7715   1.793   0.323   8.748 -0.1091  0.1313  0.2782
 1169Sol     HW 7716   1.809   0.396   8.688  1.0095  0.0081  0.4197
 1169Sol     HW 7717   1.857   0.256   8.723 -0.4366 -0.3950  0.8268
 1169Sol     MW 7718   1.800   0.324   8.740  0.8242 -0.5710 -0.0320
 1170Sol     OW 7719   1.124   0.299   4.996 -0.2136  0.1260  0.0997
 1170Sol     HW 7720   1.209   0.312   5.036  0.9529  0.7178 -2.4641
 1170Sol     HW 7721   1.070   0.372   5.027  1.1411  1.4753 -0.6681
 1170Sol     MW 7722   1.127   0.306   5.002  0.4411 -0.7750 -0.0036
 1171Sol     OW 7723   1.750   3.034   6.531 -0.6859  0.0735  0.3382
 1171Sol     HW 7724   1.747   2.964   6.596  1.0990 -1.0844 -0.7907
 1171Sol     HW 7725   1.701   2.999   6.456  0.6912 -0.1957 -0.4395
 1171Sol     MW 7726   1.745   3.024   6.530  0.8645  0.4221 -0.2212
 1172Sol     OW 7727   1.507   2.078   6.524  0.3116  0.4546  0.3396
 1172Sol     HW 7728   1.446   2.004   6.532  0.9685 -0.0822  0.4170
 1172Sol     HW 7729   1.593   2.040   6.541  0.5113  1.5047  1.7631
 1172Sol     MW 7730   1.509   2.068   6.526 -0.2651  0.2713  0.1127
 1173Sol     OW 7731   1.312   1.676   5.859  0.0248 -0.1070 -0.2943
 1173Sol     HW 7732   1.405   1.699   5.856  0.5498 -2.3750 -3.4894
 1173Sol     HW 7733   1.304   1.615   5.932  1.1310 -0.3666 -0.3934
 1173Sol     MW 7734   1.319   1.673   5.865 -0.4296 -0.0557 -0.8695
 1174Sol     OW 7735   2.676   1.824   2.463  0.4053 -0.3354  0.8304
 1174Sol     HW 7736   2.727   1.780   2.531 -1.0637 -0.2348  2.0284
 1174Sol     HW 7737   2.608   1.871   2.511 -0.8087 -0.4597 -0.7266
 1174Sol     MW 7738   2.674   1.824   2.473  0.5658 -0.7630  0.6861
 1175Sol     OW 7739   1.651   0.595   2.988  0.0056  0.2306 -1.4568
 1175Sol     HW 7740   1.575   0.650   2.969  1.1281  1.2254 -3.1897
 1175Sol     HW 7741   1.707   0.650   3.044  0.3384  0.2303 -1.7868
 1175Sol     MW 7742   1.649   0.605   2.992  0.4293 -0.1325  0.4940
 1176Sol     OW 7743   1.449   0.093   6.090 -0.8404  0.1375 -0.0284
 1176Sol     HW 7744   1.536   0.115   6.057 -0.9451  1.6515  0.6418
 1176Sol     HW 7745   1.401   0.062   6.013 -0.5750  2.0343 -0.9857
 1176Sol     MW 7746   1.452   0.092   6.080 -0.0109  0.3432  0.1254
 1177Sol     OW 7747   2.282   1.459   3.798 -0.5728  0.1478  0.1103
 1177Sol     HW 7748   2.283   1.536   3.855 -0.9944 -1.4196  2.2661
 1177Sol     HW 7749   2.190   1.433   3.795 -0.7443  0.8961 -2.2737
 1177Sol     MW 7750   2.274   1.464   3.803 -0.0347 -0.7972  0.3345
 1178Sol     OW 7751   0.210   0.846   4.353  0.3093 -0.3497 -0.0669
 1178Sol     HW 7752   0.282   0.869   4.412 -0.5814 -1.3469  1.4347
 1178Sol     HW 7753   0.252   0.801   4.280  1.1858 -1.1402  0.9083
 1178Sol     MW 7754   0.220   0.844   4.352 -0.1910 -0.1671 -0.2146
 1179Sol     OW 7755   0.417   2.451   8.755 -0.1510  0.2565  0.3431
 1179Sol     HW 7756   0.448   2.537   8.728 -0.4337 -0.3922 -2.1437
 1179Sol     HW 7757   0.494   2.394   8.749 -0.3911 -0.0540  0.1726
 1179Sol     MW 7758   0.426   2.453   8.752 -0.9857 -0.0284  1.1696
 1180Sol     OW 7759   1.750   2.841   7.666  0.5994  0.4582 -0.0295
 1180Sol     HW 7760   1.692   2.770   7.693  1.4183 -0.5330 -0.8297
 1180Sol     HW 7761   1.694   2.899   7.615  0.5860 -1.2501 -2.0588
 1180Sol     MW 7762   1.740   2.840   7.664 -0.2985  0.1797  0.4481
 1181Sol     OW 7763   2.600   2.287   4.246  0.2346 -0.0385  0.0125
 1181Sol     HW 7764   2.681   2.317   4.204  0.9135 -0.2391  1.1588
 1181Sol     HW 7765   2.557   2.367   4.277  0.0109  0.0633 -0.5495
 1181Sol     MW 7766   2.603   2.297   4.245  0.0562  0.2040  0.0659
 1182Sol     OW 7767   0.478   2.146   8.474 -0.3791  0.0021  0.2481
 1182Sol     HW 7768   0.479   2.083   8.402  2.4563 -0.6275  0.7761
 1182Sol     HW 7769   0.410   2.114   8.533  0.9476 -2.5846  0.4529
 1182Sol     MW 7770   0.472   2.137   8.473  0.0221 -0.2493 -0.1291
 1183Sol     OW 7771   0.008   0.941   4.813 -0.4710 -0.2973  0.4756
 1183Sol     HW 7772  -0.086   0.962   4.812  0.3613  3.9039  0.8749
 1183Sol     HW 7773   0.022   0.897   4.897 -1.9789 -0.4887  0.6438
 1183Sol     MW 7774   0.001   0.939   4.820 -0.0435  0.6369 -0.3475
 1184Sol     OW 7775   3.413   0.066   6.734  0.7908  0.5450  0.3863
 1184Sol     HW 7776   3.371  -0.010   6.774  1.3823 -0.0223 -0.0566
 1184Sol     HW 7777   3.341   0.121   6.704  0.3565 -0.8265 -1.1427
 1184Sol     MW 7778   3.403   0.064   6.735  0.2274 -0.4586 -0.7492
 1185Sol     OW 7779   0.720   3.294   2.512  0.3353 -0.2903  0.0157
 1185Sol     HW 7780   0.629   3.303   2.538 -0.1965 -0.4923 -1.6841
 1185Sol     HW 7781   0.743   3.380   2.475  0.5505 -0.5119 -0.3740
 1185Sol     MW 7782   0.714   3.303   2.511  0.5984 -0.0170 -0.2810
 1186Sol     OW 7783   1.564   2.060   3.704  0.1334 -0.1740 -0.4588
 1186Sol     HW 7784   1.535   1.989   3.647  0.0082 -1.1666  0.8158
 1186Sol     HW 7785   1.593   2.016   3.784  0.7942  1.1558  0.0464
 1186Sol     MW 7786   1.564   2.050   3.706  0.1251  0.2700 -0.3560
 1187Sol     OW 7787   0.738   1.740   8.887 -0.1136  0.0283 -0.2805
 1187Sol     HW 7788   0.779   1.688   8.956  1.4321 -1.8778 -2.5704
 1187Sol     HW 7789   0.795   1.817   8.879  1.0774 -0.9220 -1.0648
 1187Sol     MW 7790   0.747   1.742   8.893  0.8255 -0.0569 -1.0420
 1188Sol     OW 7791   0.869   0.816   4.435  0.8680  0.9791 -0.1553
 1188Sol     HW 7792   0.860   0.903   4.395 -0.5143  0.8156 -0.2335
 1188Sol     HW 7793   0.833   0.756   4.370 -0.0304  0.5557  0.7163
 1188Sol     MW 7794   0.865   0.819   4.425  0.6933 -0.4906  0.1212
 1189Sol     OW 7795   0.750   1.783   6.896 -0.1639  0.1763  0.3204
 1189Sol     HW 7796   0.705   1.703   6.872 -2.6242  1.1923  1.3510
 1189Sol     HW 7797   0.793   1.763   6.979  0.1113 -0.3936  0.0368
 1189Sol     MW 7798   0.750   1.774   6.901 -0.2710  0.4137 -0.0806
 1190Sol     OW 7799   2.721   1.460   8.284  0.9209 -0.3899  0.1899
 1190Sol     HW 7800   2.632   1.490   8.262  0.9830  1.1162  1.8643
 1190Sol     HW 7801   2.711   1.367   8.301  0.1056 -0.7347 -1.9451
 1190Sol     MW 7802   2.712   1.455   8.283 -0.0962  0.6553 -0.1056
 1191Sol     OW 7803   1.564   1.048   1.665  0.0580 -0.1623  0.5891
 1191Sol     HW 7804   1.597   1.138   1.666 -1.5165  0.4339  1.5844
 1191Sol     HW 7805   1.546   1.031   1.573 -0.2881  0.7981  0.4688
 1191Sol     MW 7806   1.565   1.055   1.657 -0.0949 -0.0568  0.0356
 1192Sol     OW 7807   1.555   0.977   1.972  0.7857 -0.1332  0.2893
 1192Sol     HW 7808   1.582   0.993   1.881 -0.3666 -0.2665 -0.0837
 1192Sol     HW 7809   1.626   0.924   2.009  0.5577 -1.3581 -0.9784
 1192Sol     MW 7810   1.564   0.973   1.967 -0.1941 -0.2013 -0.0830
 1193Sol     OW 7811   2.339   1.645   2.901  0.3181  0.5170 -0.2923
 1193Sol     HW 7812   2.356   1.551   2.897  0.2908  0.2883  3.2215
 1193Sol     HW 7813   2.396   1.683   2.835  0.7571 -1.9069 -1.3462
 1193Sol     MW 7814   2.345   1.640   2.895  0.2718  0.7391 -0.3048
 1194Sol     OW 7815   0.751   2.539   8.253 -0.2720  0.1961 -0.0221
 1194Sol     HW 7816   0.731   2.454   8.294  1.1922 -0.4218 -0.5506
 1194Sol     HW 7817   0.782   2.516   8.165 -2.4815  1.4475 -1.1785
 1194Sol     MW 7818   0.752   2.529   8.249  0.1773 -1.0010  0.0859
 1195Sol     OW 7819   2.282   0.516   3.554  0.1475  0.2460  0.2059
 1195Sol     HW 7820   2.372   0.482   3.558 -0.0596 -0.3743 -0.3048
 1195Sol     HW 7821   2.262   0.522   3.461 -1.0684 -1.6377  0.3120
 1195Sol     MW 7822   2.288   0.513   3.546 -0.0860 -0.4780  0.1564
 1196Sol     OW 7823   2.415   2.572   2.825  0.1087  0.2044  0.0492
 1196Sol     HW 7824   2.447   2.597   2.738  1.7093  0.8697  0.8045
 1196Sol     HW 7825   2.442   2.645   2.882 -2.1613  0.4390  0.8488
 1196Sol     MW 7826   2.421   2.581   2.822  0.3949 -0.1400  0.4767
 1197Sol     OW 7827   1.987   2.550   8.000  0.5294 -0.2422  0.1572
 1197Sol     HW 7828   2.066   2.497   8.017 -1.0467 -2.7153  0.0667
 1197Sol     HW 7829   1.926   2.523   8.068 -0.5630  1.0008 -0.3153
 1197Sol     MW 7830   1.989   2.543   8.008 -0.0088 -0.1568  0.0184
 1198Sol     OW 7831   3.371   1.251   7.007 -0.2831 -0.3516 -0.6368
 1198Sol     HW 7832   3.279   1.271   6.987  0.6091  2.0019 -2.7336
 1198Sol     HW 7833   3.405   1.214   6.926  0.7040 -0.9802  0.0609
 1198Sol     MW 7834   3.366   1.250   6.998 -0.1845 -0.3393  0.3756
 1199Sol     OW 7835   1.761   2.267   5.342  0.0715 -0.1470  0.0229
 1199Sol     HW 7836   1.674   2.279   5.380  0.0995 -0.7568  0.2816
 1199Sol     HW 7837   1.797   2.190   5.387  0.2497 -0.6512 -0.9695
 1199Sol     MW 7838   1.757   2.261   5.349 -0.1089  0.0560  0.0978
 1200Sol     OW 7839   0.133   0.208   3.968  0.1424  0.1516 -0.0401
 1200Sol     HW 7840   0.092   0.294   3.961 -1.0817 -0.1224  2.8200
 1200Sol     HW 7841   0.061   0.146   3.963  0.6127 -0.5254  1.2337
 1200Sol     MW 7842   0.123   0.210   3.967  0.6645  0.4491 -0.1375
 1201Sol     OW 7843   0.349   0.347   5.034  0.4637 -0.0938 -0.1059
 1201Sol     HW 7844   0.367   0.345   4.940 -1.1878 -0.7217 -0.4187
 1201Sol     HW 7845   0.255   0.332   5.041  0.5822 -0.1141  1.6549
 1201Sol     MW 7846   0.342   0.345   5.027 -0.8840 -0.2011 -0.4591
 1202Sol     OW 7847   3.295   3.306   6.928  0.6170  0.4193  1.1028
 1202Sol     HW 7848   3.309   3.281   7.020  1.5375 -2.2301  0.2918
 1202Sol     HW 7849   3.200   3.307   6.917  0.5213 -0.2082  1.8443
 1202Sol     MW 7850   3.288   3.304   6.935 -0.4822 -0.0432  0.2591
 1203Sol     OW 7851   1.713   1.712   2.691  0.6887 -0.4366  0.4577
 1203Sol     HW 7852   1.798   1.717   2.735 -0.0524 -0.6681  1.9317
 1203Sol     HW 7853   1.698   1.801   2.658  1.3471 -0.3148  0.4788
 1203Sol     MW 7854   1.719   1.720   2.692 -0.3164  0.0072 -0.0107
 1204Sol     OW 7855   1.888   3.059   5.432  0.0240  0.3185  0.5145
 1204Sol     HW 7856   1.892   3.033   5.524  1.7117  0.0383  0.3686
 1204Sol     HW 7857   1.803   3.104   5.424 -0.3031  0.0232  2.1078
 1204Sol     MW 7858   1.880   3.061   5.440 -0.0920  0.6318  0.3467
 1205Sol     OW 7859   1.816   0.162   3.833 -0.1577  0.1945 -0.6077
 1205Sol     HW 7860   1.862   0.082   3.811 -0.1526  0.4758 -1.6438
 1205Sol     HW 7861   1.815   0.164   3.929  1.2604 -0.2146 -0.5832
 1205Sol     MW 7862   1.820   0.155   3.840 -0.0514  0.5642 -0.0810
 1206Sol     OW 7863   3.292   1.454   2.703 -0.0899  0.8721 -0.0692
 1206Sol     HW 7864   3.211   1.506   2.695 -1.0456 -0.5054  0.4083
 1206Sol     HW 7865   3.341   1.495   2.773 -2.4992 -0.9617  2.8218
 1206Sol     MW 7866   3.289   1.462   2.708  0.2335  0.2554  0.2737
 1207Sol     OW 7867   2.154   2.065   5.324 -0.0177 -0.1700 -0.0172
 1207Sol     HW 7868   2.075   2.017   5.348  0.0159 -0.2673 -0.1017
 1207Sol     HW 7869   2.152   2.144   5.378 -0.8417  0.4570 -0.9496
 1207Sol     MW 7870   2.147   2.068   5.331  0.0021 -0.1876 -0.6578
 1208Sol     OW 7871   1.251   2.794   5.070  0.0812  0.6572  0.4003
 1208Sol     HW 7872   1.293   2.741   5.002 -1.6307  1.1064 -1.0228
 1208Sol     HW 7873   1.286   2.882   5.057 -0.0544  0.6919  0.2763
 1208Sol     MW 7874   1.258   2.797   5.063  0.1664  0.2413  0.5484
 1209Sol     OW 7875   1.650   1.130   3.365 -0.1953 -0.6655 -0.3486
 1209Sol     HW 7876   1.579   1.193   3.371  1.1047  1.0709 -2.3580
 1209Sol     HW 7877   1.609   1.046   3.383 -2.6500  0.3401 -1.0172
 1209Sol     MW 7878   1.640   1.128   3.367  0.1339  0.0132  0.1096
 1210Sol     OW 7879   3.443   2.573   8.382 -0.1187  0.4596  0.1933
 1210Sol     HW 7880   3.471   2.502   8.439 -1.1634 -0.1630 -0.0479
 1210Sol     HW 7881   3.367   2.538   8.335 -0.7814  1.8064  0.2245
 1210Sol     MW 7882   3.439   2.564   8.383  0.5595 -0.3761  0.2933
 1211Sol     OW 7883   0.386   1.770   6.424 -0.3525  0.2523  0.0292
 1211Sol     HW 7884   0.360   1.786   6.515 -0.3485  1.6857 -0.2090
 1211Sol     HW 7885   0.406   1.857   6.390 -0.6943 -0.2455 -1.4496
 1211Sol     MW 7886   0.386   1.779   6.429  0.1456 -0.4434 -0.2225
 1212Sol     OW 7887   2.137   2.506   4.708 -0.0351  0.0347 -0.0590
 1212Sol     HW 7888   2.086   2.458   4.773  0.2724  0.6126  0.6044
 1212Sol     HW 7889   2.079   2.511   4.631 -0.2012 -1.0952 -0.0160
 1212Sol     MW 7890   2.127   2.502   4.707  0.0703 -0.0701  0.4647
 1213Sol     OW 7891   2.057   2.825   4.337  0.0428  0.0636 -0.0177
 1213Sol     HW 7892   1.973   2.825   4.381 -0.0164 -2.2529 -0.0474
 1213Sol     HW 7893   2.047   2.759   4.267  1.9252 -0.3889  0.1179
 1213Sol     MW 7894   2.049   2.819   4.334 -0.0089  0.0790  0.3097
 1214Sol     OW 7895   2.475   1.797   1.122  0.3105  0.2458  0.4002
 1214Sol     HW 7896   2.404   1.857   1.098 -0.3972 -1.9277 -3.4616
 1214Sol     HW 7897   2.434   1.734   1.182 -1.1309 -0.9451 -1.7388
 1214Sol     MW 7898   2.465   1.796   1.125 -0.0974 -0.2903 -0.2625
 1215Sol     OW 7899   2.383   2.233   1.978  0.0910 -0.1368 -0.2241
 1215Sol     HW 7900   2.373   2.318   2.022  1.2341  0.1976 -0.6068
 1215Sol     HW 7901   2.424   2.177   2.044  0.6655  0.0143 -0.4549
 1215Sol     MW 7902   2.386   2.235   1.988  0.0055  0.2365  0.0194
 1216Sol     OW 7903   3.464   1.644   2.101 -0.1629 -0.2192  0.1132
 1216Sol     HW 7904   3.529   1.692   2.152 -0.6260  0.7331 -0.1845
 1216Sol     HW 7905   3.432   1.576   2.160  0.5253 -0.1933  0.5203
 1216Sol     MW 7906   3.467   1.642   2.111 -0.4993 -0.2437 -0.4082
 1217Sol     OW 7907   0.795   2.928   4.591 -0.2887  0.2532  0.7572
 1217Sol     HW 7908   0.789   2.892   4.502  0.9294  0.9625  0.3803
 1217Sol     HW 7909   0.866   2.879   4.631 -1.5486 -0.8233  1.7191
 1217Sol     MW 7910   0.800   2.920   4.586  0.1045  0.0746 -0.6605
 1218Sol     OW 7911   1.992   0.893   6.708  0.3156 -0.1530  0.3429
 1218Sol     HW 7912   1.974   0.800   6.724  2.8265 -0.9462 -0.9906
 1218Sol     HW 7913   1.929   0.918   6.640 -0.9372 -0.6368  1.3108
 1218Sol     MW 7914   1.985   0.887   6.703 -0.2007  0.3664 -0.0117
 1219Sol     OW 7915   0.818   2.115   4.027 -0.3092 -0.2512  0.2246
 1219Sol     HW 7916   0.913   2.114   4.034 -0.2624  0.2716 -0.2961
 1219Sol     HW 7917   0.801   2.145   3.938 -0.9441 -2.1971 -0.3434
 1219Sol     MW 7918   0.825   2.117   4.020  0.3983  0.2843  0.3282
 1220Sol     OW 7919   2.596   2.373   5.657  0.2512  0.1020 -0.1020
 1220Sol     HW 7920   2.657   2.438   5.622 -0.2124  1.6703  1.9178
 1220Sol     HW 7921   2.512   2.397   5.619  0.0713  0.7150  0.6818
 1220Sol     MW 7922   2.594   2.381   5.650  0.7995 -0.2391  0.5286
 1221Sol     OW 7923   2.800   0.194   4.282 -0.1204 -0.2591 -0.5359
 1221Sol     HW 7924   2.806   0.109   4.237 -0.7215  0.5733 -2.2275
 1221Sol     HW 7925   2.759   0.252   4.218  2.2181  1.8692 -0.2003
 1221Sol     MW 7926   2.797   0.191   4.272 -0.4725 -0.0377 -0.3533
 1222Sol     OW 7927   0.408   2.424   1.487 -0.2597  0.2435  0.1036
 1222Sol     HW 7928   0.469   2.388   1.422  0.4161  1.4036  0.0834
 1222Sol     HW 7929   0.374   2.348   1.533 -0.0876 -0.5316 -1.0414
 1222Sol     MW 7930   0.410   2.414   1.485 -0.0166 -0.2125 -0.3315
 1223Sol     OW 7931   3.100   3.206   2.017  0.2959  0.5442 -0.4273
 1223Sol     HW 7932   3.067   3.283   1.972  1.1259  1.8017  1.0784
 1223Sol     HW 7933   3.195   3.214   2.012  0.3929  0.5235  1.2460
 1223Sol     MW 7934   3.105   3.214   2.012 -0.1018  0.3815 -0.5470
 1224Sol     OW 7935   1.479   1.188   6.031 -0.0410  0.2943 -0.1250
 1224Sol     HW 7936   1.573   1.204   6.030  0.2471 -1.3829 -0.1411
 1224Sol     HW 7937   1.459   1.155   5.944 -0.5851  0.3034 -0.0051
 1224Sol     MW 7938   1.485   1.187   6.023 -0.3255  0.0508  0.5164
 1225Sol     OW 7939   0.557   0.323   9.033  0.1272  0.2711 -0.1336
 1225Sol     HW 7940   0.500   0.395   9.060 -0.4998 -0.6582  1.0846
 1225Sol     HW 7941   0.497   0.251   9.017  0.7860 -0.0926 -0.9457
 1225Sol     MW 7942   0.546   0.323   9.034 -0.7553 -0.0909 -0.5781
 1226Sol     OW 7943   1.129   0.997   2.111 -0.6164  0.3420 -0.1907
 1226Sol     HW 7944   1.119   1.086   2.077 -1.1222  0.1637 -0.4980
 1226Sol     HW 7945   1.162   1.010   2.200 -0.5534  0.8347 -0.2837
 1226Sol     MW 7946   1.131   1.006   2.116 -0.2494  0.2082 -0.1193
 1227Sol     OW 7947   0.109   3.052   8.641  0.0166  0.2792 -0.3927
 1227Sol     HW 7948   0.154   2.968   8.635  1.7377  1.3255 -2.9918
 1227Sol     HW 7949   0.022   3.035   8.604  0.3535 -0.3721 -0.8977
 1227Sol     MW 7950   0.105   3.043   8.637 -1.0101  0.3125 -0.4723
 1228Sol     OW 7951   1.147   0.220   4.133  0.0763 -0.1039 -0.1366
 1228Sol     HW 7952   1.082   0.258   4.073 -0.0565 -0.5922 -0.3037
 1228Sol     HW 7953   1.190   0.296   4.172 -0.1515  0.2221 -0.5076
 1228Sol     MW 7954   1.145   0.230   4.131 -0.0774 -0.4164  0.3098
 1229Sol     OW 7955   1.413   2.901   4.186  0.5840  0.3080 -0.0664
 1229Sol     HW 7956   1.376   2.989   4.186 -1.5408 -0.5491 -2.0851
 1229Sol     HW 7957   1.349   2.847   4.141  2.4559 -2.0397 -0.0503
 1229Sol     MW 7958   1.404   2.904   4.182  0.5368  0.1433  1.3142
 1230Sol     OW 7959   1.707   0.618   4.653  0.1010 -0.1680 -0.5621
 1230Sol     HW 7960   1.710   0.713   4.645  1.0447 -0.2510 -1.2940
 1230Sol     HW 7961   1.757   0.585   4.578  1.2661 -1.1916  0.6316
 1230Sol     MW 7962   1.712   0.623   4.646 -0.3222 -0.2121 -0.1406
 1231Sol     OW 7963   1.837   0.659   8.072  0.3152  0.8040 -0.6626
 1231Sol     HW 7964   1.847   0.687   7.981  0.6050 -0.6699 -1.0950
 1231Sol     HW 7965   1.743   0.663   8.088  0.1707  0.1701 -1.3264
 1231Sol     MW 7966   1.829   0.662   8.066 -0.3951 -0.3865 -0.2969
 1232Sol     OW 7967   3.360   2.846   6.579  0.6208  0.0212  0.1536
 1232Sol     HW 7968   3.278   2.880   6.545  0.5204 -0.9504 -0.5907
 1232Sol     HW 7969   3.347   2.844   6.674  0.0984  0.6650  0.0972
 1232Sol     MW 7970   3.351   2.848   6.585 -0.3326  0.3906 -0.0539
 1233Sol     OW 7971   0.995   0.700   6.856  0.4751  0.4633 -0.2271
 1233Sol     HW 7972   1.003   0.672   6.947  2.4827 -0.1758 -0.5798
 1233Sol     HW 7973   0.900   0.698   6.839  0.2309 -1.7206  1.1368
 1233Sol     MW 7974   0.987   0.697   6.862 -0.6263  0.1337  0.1288
 1234Sol     OW 7975   2.313   2.996   7.975  0.9452  0.2421 -0.0359
 1234Sol     HW 7976   2.255   2.929   8.010  1.6170  0.2811  1.1843
 1234Sol     HW 7977   2.377   2.947   7.923 -0.1162  0.1927 -1.3059
 1234Sol     MW 7978   2.314   2.985   7.974  0.3702  0.6187 -0.2305
 1235Sol     OW 7979   3.110   3.352   4.312 -0.2336 -0.2283 -0.3085
 1235Sol     HW 7980   3.098   3.283   4.377 -1.6318 -0.1226 -0.4344
 1235Sol     HW 7981   3.087   3.433   4.359 -1.7386 -0.2024 -1.0560
 1235Sol     MW 7982   3.107   3.353   4.322  0.2545 -0.1581  0.5173
 1236Sol     OW 7983   3.455   1.108   6.770 -0.1211 -0.0107  0.6013
 1236Sol     HW 7984   3.421   1.100   6.681  1.0001  1.0768  0.0556
 1236Sol     HW 7985   3.519   1.038   6.778  0.2429  0.2859  0.3199
 1236Sol     MW 7986   3.458   1.101   6.763  0.8273 -0.5748 -0.7704
 1237Sol     OW 7987   1.080   2.734   1.974 -0.2244  0.1323 -0.0274
 1237Sol     HW 7988   1.067   2.829   1.963 -0.4639  0.0537 -0.4567
 1237Sol     HW 7989   1.165   2.717   1.932  1.2114  0.6136  2.6049
 1237Sol     MW 7990   1.087   2.741   1.969 -0.4878 -0.0647 -0.7357
 1238Sol     OW 7991   2.563   1.412   1.495 -0.2447  0.3820  0.2437
 1238Sol     HW 7992   2.573   1.480   1.428  0.3585  0.5600  0.5078
 1238Sol     HW 7993   2.526   1.457   1.570  1.7160  0.7830  0.9946
 1238Sol     MW 7994   2.561   1.422   1.495 -0.2773  0.7282 -0.2333
 1239Sol     OW 7995   0.988   2.237   6.173 -0.0668  0.3150  0.4276
 1239Sol     HW 7996   1.044   2.251   6.250  0.3254  0.8212  0.0534
 1239Sol     HW 7997   0.916   2.298   6.185  0.8890  1.6693 -0.4665
 1239Sol     MW 7998   0.987   2.244   6.181  0.1317  0.3210 -0.3245
 1240Sol     OW 7999   0.161   3.093   8.915  0.6337 -0.1542 -0.0722
 1240Sol     HW 8000   0.147   2.999   8.928  0.6961  0.0559  1.6842
 1240Sol     HW 8001   0.120   3.112   8.831 -2.3890 -1.1164  1.1006
 1240Sol     MW 8002   0.156   3.086   8.909 -0.1030  0.8346  0.2744
 1241Sol     OW 8003   0.357   2.883   6.556 -0.2841 -0.4378 -0.3166
 1241Sol     HW 8004   0.336   2.861   6.465 -1.4422 -1.9954  0.3156
 1241Sol     HW 8005   0.439   2.837   6.574 -0.9278 -1.5059 -0.0645
 1241Sol     MW 8006   0.363   2.877   6.549  0.5760  0.1458 -0.3729
 1242Sol     OW 8007   0.577   3.021   3.936  0.4402 -0.0692 -0.4737
 1242Sol     HW 8008   0.580   2.983   3.848 -0.9788 -0.1365 -0.5055
 1242Sol     HW 8009   0.568   2.946   3.994  3.1322 -0.1622 -0.1136
 1242Sol     MW 8010   0.577   3.011   3.933  0.1208 -0.3929  0.0891
 1243Sol     OW 8011   0.943   0.418   2.386 -0.6153 -0.5107 -0.1085
 1243Sol     HW 8012   0.863   0.371   2.364 -1.4204  0.8181 -0.1265
 1243Sol     HW 8013   0.912   0.500   2.425  0.7130  0.4956 -1.1103
 1243Sol     MW 8014   0.933   0.421   2.387 -0.2912 -0.1746  0.5376
 1244Sol     OW 8015   1.725   1.196   4.009  0.1188 -0.5732 -0.1072
 1244Sol     HW 8016   1.727   1.101   4.023  0.8643 -0.4113  0.9738
 1244Sol     HW 8017   1.814   1.218   3.981  0.9844  0.2909  3.1575
 1244Sol     MW 8018   1.733   1.190   4.008 -0.2500 -0.4784 -0.0366
 1245Sol     OW 8019   2.078   1.505   2.281  0.0666 -0.7088 -0.1403
 1245Sol     HW 8020   2.048   1.445   2.213 -1.5351  0.2110 -0.2657
 1245Sol     HW 8021   1.997   1.538   2.321  0.9636  0.0168  1.1010
 1245Sol     MW 8022   2.068   1.503   2.279  0.0296 -0.2815  0.1771
 1246Sol     OW 8023   0.518   3.142   1.909 -0.1917  0.4832  0.7659
 1246Sol     HW 8024   0.455   3.207   1.939 -0.8719  0.1451  0.0907
 1246Sol     HW 8025   0.562   3.184   1.835 -0.5751  0.2233  0.3810
 1246Sol     MW 8026   0.516   3.151   1.905 -0.3183 -0.1250 -0.4518
 1247Sol     OW 8027   3.093   2.962   6.437 -0.2197  0.8870 -0.4581
 1247Sol     HW 8028   3.149   3.036   6.458 -0.2869  0.2885  2.0675
 1247Sol     HW 8029   3.006   2.988   6.468 -0.6923  0.5934 -1.5129
 1247Sol     MW 8030   3.090   2.971   6.442 -0.1861 -0.1719  0.5091
 1248Sol     OW 8031   1.986   0.174   6.695  0.4403  0.2688 -0.1555
 1248Sol     HW 8032   2.015   0.213   6.778  0.8069  0.9682 -0.6067
 1248Sol     HW 8033   1.923   0.107   6.721  0.7484  0.3022  0.7076
 1248Sol     MW 8034   1.983   0.171   6.705 -0.0116  0.4871  0.2177
 1249Sol     OW 8035   2.220   0.787   8.353  0.6084  0.8952 -0.3508
 1249Sol     HW 8036   2.133   0.769   8.389  1.8115 -1.2005  1.7303
 1249Sol     HW 8037   2.214   0.760   8.262  0.1458 -3.3307  0.7885
 1249Sol     MW 8038   2.212   0.783   8.348 -0.1610 -0.4896  0.0507
 1250Sol     OW 8039   3.177   0.072   6.471 -1.0752  0.3215  0.5180
 1250Sol     HW 8040   3.123   0.034   6.402 -1.4895  0.0051  1.0166
 1250Sol     HW 8041   3.264   0.035   6.455 -0.9094  1.1556 -0.5279
 1250Sol     MW 8042   3.180   0.065   6.464 -0.1166  0.1676 -0.3514
 1251Sol     OW 8043   2.323   0.707   5.788  0.0220  0.3567 -0.1442
 1251Sol     HW 8044   2.379   0.780   5.813  0.1439 -0.2465  1.4001
 1251Sol     HW 8045   2.373   0.660   5.721  1.6607 -0.5277  1.6578
 1251Sol     MW 8046   2.332   0.709   5.784  0.1215  0.6422  0.2970
 1252Sol     OW 8047   3.234   0.364   4.257 -0.0685 -0.1459 -0.3863
 1252Sol     HW 8048   3.216   0.314   4.177  0.7203 -1.8272  0.4631
 1252Sol     HW 8049   3.208   0.453   4.235 -2.1851 -1.0389 -1.7066
 1252Sol     MW 8050   3.230   0.367   4.247  0.3756 -0.0053  0.0799
 1253Sol     OW 8051   2.199   1.823   3.062 -0.0636 -0.1616  0.6325
 1253Sol     HW 8052   2.210   1.744   3.009 -2.1458 -0.5817  0.8157
 1253Sol     HW 8053   2.151   1.883   3.006 -0.5379  0.1210  1.3425
 1253Sol     MW 8054   2.196   1.821   3.053 -0.1034  0.0105 -0.3314
 1254Sol     OW 8055   1.299   1.384   9.048 -0.0878  0.4828  0.3208
 1254Sol     HW 8056   1.326   1.295   9.028 -0.3970  0.1345  1.4160
 1254Sol     HW 8057   1.209   1.390   9.016 -0.9092 -0.3660  2.3824
 1254Sol     MW 8058   1.293   1.377   9.044  0.2736  0.3224 -0.4096
 1255Sol     OW 8059   0.800   3.026   5.804  0.1331  0.0552  0.1505
 1255Sol     HW 8060   0.728   2.972   5.836 -0.3139  0.6336  0.1068
 1255Sol     HW 8061   0.806   3.098   5.867  1.2153 -0.4301  0.6338
 1255Sol     MW 8062   0.794   3.027   5.813  0.4278 -0.0468  0.6735
 1256Sol     OW 8063   0.555   0.166   2.617  0.0363  0.1907 -0.6024
 1256Sol     HW 8064   0.489   0.236   2.626 -2.1670 -1.9778  0.7003
 1256Sol     HW 8065   0.547   0.115   2.698  1.4735 -1.6906 -1.6146
 1256Sol     MW 8066   0.548   0.168   2.625  0.1177 -0.1692  0.5863
 1257Sol     OW 8067   0.220   1.485   5.417  0.2040 -0.7410  0.2151
 1257Sol     HW 8068   0.134   1.528   5.414  1.5265  1.8262 -3.4746
 1257Sol     HW 8069   0.259   1.515   5.498 -0.4423  2.0338 -0.4660
 1257Sol     MW 8070   0.216   1.491   5.424  0.3372  0.2032  0.6026
 1258Sol     OW 8071   1.511   2.601   3.005  0.5087  0.0983 -0.1598
 1258Sol     HW 8072   1.471   2.682   3.034 -0.0829 -0.2105 -0.0959
 1258Sol     HW 8073   1.439   2.552   2.964  0.6636 -0.7559  0.5653
 1258Sol     MW 8074   1.501   2.604   3.004 -0.2473 -0.8398  0.0962
 1259Sol     OW 8075   3.226   3.171   6.578 -0.0628  0.2398 -0.3609
 1259Sol     HW 8076   3.289   3.231   6.538  0.5674  0.5918  1.1212
 1259Sol     HW 8077   3.146   3.224   6.588  0.3940  0.7520  0.6568
 1259Sol     MW 8078   3.225   3.181   6.575  0.2079  0.0210 -0.9793
 1260Sol     OW 8079   0.490   2.377   1.973  0.3963  0.2223  0.0985
 1260Sol     HW 8080   0.509   2.401   2.063 -0.8319  0.2828  0.3514
 1260Sol     HW 8081   0.573   2.388   1.927  0.8813  0.7759  1.0930
 1260Sol     MW 8082   0.499   2.380   1.977 -0.2709 -0.1260  0.4108
 1261Sol     OW 8083   1.632   1.655   8.842 -0.0846 -0.2311 -0.1058
 1261Sol     HW 8084   1.628   1.726   8.777  0.1921  0.1452  0.2821
 1261Sol     HW 8085   1.676   1.583   8.797  0.7650  0.2830 -0.1120
 1261Sol     MW 8086   1.636   1.655   8.832  0.6970 -0.8995 -0.6895
 1262Sol     OW 8087   0.292   0.144   3.739 -0.5330 -0.6157  0.3382
 1262Sol     HW 8088   0.239   0.158   3.818 -1.2299 -1.1530 -0.0340
 1262Sol     HW 8089   0.331   0.230   3.722 -1.2656 -0.2181  0.6270
 1262Sol     MW 8090   0.291   0.153   3.745  0.2705  0.1454 -0.1386
 1263Sol     OW 8091   2.029   1.395   3.754 -0.1737  0.4503  0.2067
 1263Sol     HW 8092   2.001   1.312   3.793  0.6322  0.4560  0.8057
 1263Sol     HW 8093   1.964   1.459   3.784 -0.0975  0.2704  0.7516
 1263Sol     MW 8094   2.021   1.394   3.760 -0.5152 -0.2436 -0.3694
 1264Sol     OW 8095   3.259   0.467   1.330  0.2093 -0.2847 -0.5966
 1264Sol     HW 8096   3.323   0.398   1.312 -0.3545 -0.2025 -3.0872
 1264Sol     HW 8097   3.175   0.422   1.337  0.5005 -0.4097  2.8335
 1264Sol     MW 8098   3.258   0.457   1.329 -0.3461  0.4262  0.7604
 1265Sol     OW 8099   0.687   1.253   2.294 -0.2911  0.1977  0.2545
 1265Sol     HW 8100   0.695   1.271   2.201  0.6741  1.8620  0.6401
 1265Sol     HW 8101   0.775   1.266   2.329 -0.7586  0.1206  1.4887
 1265Sol     MW 8102   0.695   1.256   2.289  0.4349 -0.9126  0.0505
 1266Sol     OW 8103   1.273   3.202   8.370 -0.2275 -0.2359 -0.5288
 1266Sol     HW 8104   1.238   3.285   8.404  0.5066 -0.2252  0.2217
 1266Sol     HW 8105   1.329   3.227   8.297  0.0142 -0.0677 -0.2859
 1266Sol     MW 8106   1.275   3.212   8.367  0.4195  0.2647 -0.8041
 1267Sol     OW 8107   0.381   0.557   5.234 -0.2068  0.1244 -0.2828
 1267Sol     HW 8108   0.378   0.477   5.182 -1.7533  1.2523 -2.0404
 1267Sol     HW 8109   0.469   0.558   5.273 -0.1132 -2.2971 -0.3918
 1267Sol     MW 8110   0.389   0.550   5.233  0.6642  0.3067  0.1437
 1268Sol     OW 8111   2.059   1.524   6.250  0.0991  0.0316 -0.9764
 1268Sol     HW 8112   2.115   1.470   6.193  1.2215  0.1905 -0.0520
 1268Sol     HW 8113   2.068   1.613   6.214  2.0323  0.4033  0.3319
 1268Sol     MW 8114   2.065   1.527   6.241 -0.3379  0.8947 -0.1002
 1269Sol     OW 8115   1.903   2.446   7.205  0.3849  0.2965 -0.3688
 1269Sol     HW 8116   1.960   2.481   7.273  2.0899  2.0472 -2.6216
 1269Sol     HW 8117   1.955   2.380   7.160  0.1675  0.9181 -1.5603
 1269Sol     MW 8118   1.912   2.443   7.207  0.4903 -0.1084 -0.3126
 1270Sol     OW 8119   0.253   2.200   8.006  0.1892 -0.0677  0.2110
 1270Sol     HW 8120   0.200   2.122   7.989 -1.5225  1.3611 -1.2747
 1270Sol     HW 8121   0.190   2.272   8.001  1.8774  1.4683  0.8187
 1270Sol     MW 8122   0.242   2.199   8.004  0.1549 -0.0411 -0.7334
 1271Sol     OW 8123   0.754   2.871   4.263  0.0609  0.1909 -0.0439
 1271Sol     HW 8124   0.677   2.867   4.206  0.3033 -0.0299 -0.3550
 1271Sol     HW 8125   0.814   2.929   4.218 -0.5012  1.5463  0.9021
 1271Sol     MW 8126   0.752   2.876   4.254 -0.3367  0.2987  0.2244
 1272Sol     OW 8127   0.186   1.799   5.909 -0.1901  0.3692 -0.8071
 1272Sol     HW 8128   0.228   1.864   5.966  1.3474 -0.2109 -1.2586
 1272Sol     HW 8129   0.094   1.803   5.933  0.3988  0.2576  1.5949
 1272Sol     MW 8130   0.182   1.805   5.916 -0.5271 -0.7076 -0.7200
 1273Sol     OW 8131   1.642   3.139   5.838  0.2106  0.2500  0.3005
 1273Sol     HW 8132   1.625   3.136   5.932  1.3158  0.0654  0.4962
 1273Sol     HW 8133   1.618   3.052   5.806  0.3591  0.1386  0.4972
 1273Sol     MW 8134   1.638   3.131   5.843  0.4014  0.1232  0.2973
 1274Sol     OW 8135   1.330   0.447   3.427  0.1078  0.0838  0.0954
 1274Sol     HW 8136   1.319   0.357   3.457  0.9046  0.4366  1.5189
 1274Sol     HW 8137   1.336   0.498   3.508  0.5519  1.2903 -0.6898
 1274Sol     MW 8138   1.330   0.443   3.437  0.1067  0.0269 -0.1103
 1275Sol     OW 8139   1.924   3.279   2.756 -0.2639  0.0346 -0.2540
 1275Sol     HW 8140   1.944   3.207   2.816  0.4576  1.6895  1.5536
 1275Sol     HW 8141   1.921   3.356   2.812 -0.5540  1.4888 -2.2267
 1275Sol     MW 8142   1.926   3.279   2.766  0.3919  0.2579 -0.3749
 1276Sol     OW 8143   2.690   2.323   3.476  0.6391  0.1337  0.1614
 1276Sol     HW 8144   2.758   2.361   3.532  2.1333 -0.3220 -1.3310
 1276Sol     HW 8145   2.627   2.285   3.538  0.0708  3.3350  1.6261
 1276Sol     MW 8146   2.691   2.323   3.487 -0.8736 -0.4936 -0.5271
 1277Sol     OW 8147   1.554   1.580   3.741  0.0037 -0.1750  0.1570
 1277Sol     HW 8148   1.563   1.507   3.679 -1.5972 -0.0803 -0.2077
 1277Sol     HW 8149   1.498   1.546   3.811  1.2318 -0.0569  1.2194
 1277Sol     MW 8150   1.550   1.571   3.742 -0.0952 -0.6373 -0.4780
 1278Sol     OW 8151   3.019   1.022   6.895  0.6489 -0.4658  0.0553
 1278Sol     HW 8152   2.973   1.032   6.812  2.2641  1.1266 -0.7059
 1278Sol     HW 8153   2.974   1.082   6.955 -0.1917 -1.2271  0.1928
 1278Sol     MW 8154   3.011   1.029   6.893  0.0179  0.0030  0.5425
 1279Sol     OW 8155   1.636   0.530   3.623  0.2581 -0.3255  0.5085
 1279Sol     HW 8156   1.619   0.574   3.539  0.1040 -1.1140  0.1254
 1279Sol     HW 8157   1.720   0.566   3.652 -0.7877  1.6673  1.1511
 1279Sol     MW 8158   1.642   0.538   3.618  0.0205  0.5100 -0.4713
 1280Sol     OW 8159   3.033   1.543   2.709 -0.2101  0.2245 -0.1607
 1280Sol     HW 8160   2.981   1.622   2.725 -0.5680 -0.2700  1.2030
 1280Sol     HW 8161   2.973   1.482   2.666 -0.6779 -0.2358  1.1352
 1280Sol     MW 8162   3.023   1.545   2.707 -0.1735  0.6289  0.1609
 1281Sol     OW 8163   1.397   0.550   5.314 -0.4495 -0.4351 -0.0533
 1281Sol     HW 8164   1.406   0.538   5.408  1.7993 -0.0351 -0.2019
 1281Sol     HW 8165   1.465   0.614   5.291  0.2786 -1.9448 -2.2266
 1281Sol     MW 8166   1.404   0.555   5.320 -0.1500 -0.1755 -0.3562
 1282Sol     OW 8167   0.908   2.844   6.940  0.2085 -0.0743  0.2921
 1282Sol     HW 8168   0.840   2.785   6.906  1.4302 -0.2078 -2.0294
 1282Sol     HW 8169   0.978   2.785   6.969  0.3713  0.1481  0.3525
 1282Sol     MW 8170   0.909   2.833   6.939  0.0508  0.0200  0.0710
 1283Sol     OW 8171   3.140   3.141   7.664 -0.2449  0.2544 -0.5770
 1283Sol     HW 8172   3.228   3.119   7.695 -0.8024  0.0495  0.8913
 1283Sol     HW 8173   3.139   3.112   7.573  0.1036 -2.8452  0.3475
 1283Sol     MW 8174   3.148   3.137   7.659 -0.0340 -0.4865  0.3332
 1284Sol     OW 8175   0.922   0.482   5.113 -0.7205 -0.4275 -0.7707
 1284Sol     HW 8176   0.941   0.573   5.135 -0.2088 -0.5364 -0.7343
 1284Sol     HW 8177   0.915   0.438   5.198  0.3882 -0.6797 -0.7977
 1284Sol     MW 8178   0.923   0.486   5.123 -0.1355  0.1654 -0.5856
 1285Sol     OW 8179   1.452   1.600   4.997 -0.7360  0.7900  0.0325
 1285Sol     HW 8180   1.429   1.549   4.919  0.9482 -0.1592  0.1254
 1285Sol     HW 8181   1.368   1.623   5.037 -1.6565  1.8679 -2.4144
 1285Sol     MW 8182   1.442   1.598   4.993  0.1518 -0.0947  0.1400
 1286Sol     OW 8183   0.585   1.475   6.032 -0.2563  0.7119 -0.4873
 1286Sol     HW 8184   0.498   1.435   6.021 -0.3995  0.8562  0.0786
 1286Sol     HW 8185   0.644   1.401   6.042 -0.3964  0.6193 -0.3227
 1286Sol     MW 8186   0.582   1.465   6.032  0.3496  0.2515 -0.0746
 1287Sol     OW 8187   1.264   0.967   8.497 -0.3205 -0.0809 -0.1794
 1287Sol     HW 8188   1.289   1.038   8.557 -1.4379  1.8052 -1.8606
 1287Sol     HW 8189   1.171   0.983   8.479 -0.6304 -2.1025 -0.4532
 1287Sol     MW 8190   1.258   0.975   8.501 -0.5464  0.6727 -0.7034
 1288Sol     OW 8191   2.654   2.380   6.295 -0.1477 -0.2197 -0.0724
 1288Sol     HW 8192   2.600   2.455   6.319  0.7710  0.7372 -0.9348
 1288Sol     HW 8193   2.740   2.417   6.276  1.1290 -1.8352  2.2525
 1288Sol     MW 8194   2.657   2.390   6.295  0.0021 -0.4881  0.5166
 1289Sol     OW 8195   0.893   0.400   8.319  0.2425 -0.4598 -0.0383
 1289Sol     HW 8196   0.812   0.350   8.333  0.0855 -1.1053 -2.9460
 1289Sol     HW 8197   0.933   0.404   8.406 -3.0157  0.1344  1.5343
 1289Sol     MW 8198   0.889   0.396   8.328 -0.0262  0.4972 -0.6096
 1290Sol     OW 8199   2.435   0.719   4.920  0.0468  0.6328 -0.1747
 1290Sol     HW 8200   2.350   0.680   4.899  0.0426  0.5003  0.0831
 1290Sol     HW 8201   2.486   0.712   4.840 -0.5976  1.7998 -0.7035
 1290Sol     MW 8202   2.432   0.715   4.911 -0.5001  0.3258 -0.1438
 1291Sol     OW 8203   1.675   0.490   8.935 -0.8207  0.1199 -0.7300
 1291Sol     HW 8204   1.712   0.437   8.865 -0.1476  1.3627 -1.3146
 1291Sol     HW 8205   1.749   0.536   8.974 -1.3594  0.4396 -0.0537
 1291Sol     MW 8206   1.685   0.489   8.932 -0.0718  0.6054 -0.1398
 1292Sol     OW 8207   2.180   0.913   2.352  0.1122  0.1812 -0.7407
 1292Sol     HW 8208   2.272   0.939   2.357 -0.1007  0.5483  1.7435
 1292Sol     HW 8209   2.181   0.818   2.365  0.0267  0.4084  1.0693
 1292Sol     MW 8210   2.188   0.906   2.353 -0.1499  0.2571 -0.3147
 1293Sol     OW 8211   2.108   2.492   2.873 -0.4603  0.1521 -0.4567
 1293Sol     HW 8212   2.183   2.491   2.813 -0.3278 -0.3504 -0.2778
 1293Sol     HW 8213   2.128   2.564   2.934  0.4265 -0.7159  0.2942
 1293Sol     MW 8214   2.116   2.499   2.873 -0.4100  0.2843 -0.2158
 1294Sol     OW 8215   1.970   2.805   8.661 -0.2373 -0.1919 -0.1888
 1294Sol     HW 8216   2.033   2.793   8.590 -0.1468 -1.2959  0.0638
 1294Sol     HW 8217   2.015   2.770   8.738 -0.4696  0.6721  0.3389
 1294Sol     MW 8218   1.980   2.800   8.662  0.4482  0.0166 -0.0834
 1295Sol     OW 8219   3.325   0.964   2.135 -0.1892 -0.0364  0.2045
 1295Sol     HW 8220   3.240   0.919   2.132  0.0710 -0.5055 -0.4133
 1295Sol     HW 8221   3.366   0.933   2.216  0.4668 -1.8169 -0.7856
 1295Sol     MW 8222   3.321   0.957   2.142 -0.6936  0.2675 -0.6481
 1296Sol     OW 8223   1.216   0.782   5.338 -0.3063  0.9307  0.0636
 1296Sol     HW 8224   1.199   0.745   5.425  0.5414  2.5881  0.9513
 1296Sol     HW 8225   1.282   0.723   5.301  0.8725  1.3653  1.3906
 1296Sol     MW 8226   1.221   0.773   5.343  0.4580 -0.2999 -0.3775
 1297Sol     OW 8227   1.320   1.084   9.013 -0.0226  0.2079 -0.3096
 1297Sol     HW 8228   1.306   1.112   8.922 -0.2047 -1.0699 -0.6907
 1297Sol     HW 8229   1.231   1.071   9.047  0.0665 -0.7987 -0.4373
 1297Sol     MW 8230   1.310   1.086   9.008 -0.4270  0.2252 -0.2415
 1298Sol     OW 8231   2.662   1.398   2.623  0.3279  0.4009 -0.2693
 1298Sol     HW 8232   2.597   1.361   2.564  2.2020  0.1769 -2.2701
 1298Sol     HW 8233   2.661   1.340   2.700 -1.4969  0.1563 -0.4711
 1298Sol     MW 8234   2.656   1.389   2.625 -0.2305  0.3341  0.6435
 1299Sol     OW 8235   1.722   0.957   7.588  0.4675 -0.3802  0.2044
 1299Sol     HW 8236   1.741   1.050   7.595 -3.9770  0.6833 -0.1303
 1299Sol     HW 8237   1.749   0.933   7.499  0.5959  0.8758 -0.0986
 1299Sol     MW 8238   1.726   0.963   7.580 -0.1944  0.2551 -0.7138
 1300Sol     OW 8239   1.076   2.820   7.546 -0.2845  0.0543 -0.0543
 1300Sol     HW 8240   0.981   2.812   7.540 -0.2990  0.0716  0.1427
 1300Sol     HW 8241   1.097   2.789   7.634  0.0937 -1.8153 -0.7859
 1300Sol     MW 8242   1.069   2.817   7.553  0.2142 -0.0435  0.3229
 1301Sol     OW 8243   3.029   2.867   2.157 -0.0455  0.1610 -0.0716
 1301Sol     HW 8244   3.007   2.804   2.226  1.8599 -0.4864 -0.0265
 1301Sol     HW 8245   2.946   2.881   2.110 -0.8295 -1.2057  0.8694
 1301Sol     MW 8246   3.019   2.862   2.159  0.3039 -0.0141 -0.1227
 1302Sol     OW 8247   0.898   0.017   1.678 -0.2143 -0.1274 -0.5111
 1302Sol     HW 8248   0.882   0.081   1.747  0.5803  1.0241 -1.3760
 1302Sol     HW 8249   0.904   0.069   1.598  1.4656 -1.1641 -1.0878
 1302Sol     MW 8250   0.897   0.027   1.677 -0.6788  0.0823 -0.0658
 1303Sol     OW 8251   2.260   0.195   7.771 -0.6366  0.3019 -0.1023
 1303Sol     HW 8252   2.346   0.219   7.735 -0.1439 -1.2051  0.0158
 1303Sol     HW 8253   2.281   0.142   7.848 -1.6821  1.7544  1.2041
 1303Sol     MW 8254   2.270   0.192   7.774 -0.2231  0.3916  0.6620
 1304Sol     OW 8255   3.223   3.001   3.885 -0.2270 -0.3708  0.5607
 1304Sol     HW 8256   3.215   3.085   3.931  0.2287  0.4640 -0.8500
 1304Sol     HW 8257   3.317   2.991   3.871 -0.2950 -1.0659  0.6228
 1304Sol     MW 8258   3.231   3.008   3.888  0.1810  0.1515  0.4152
 1305Sol     OW 8259   2.993   1.551   1.182 -0.2101 -0.2808  0.7271
 1305Sol     HW 8260   3.074   1.601   1.170  2.0900 -3.2737  3.1370
 1305Sol     HW 8261   2.965   1.574   1.271 -0.1421 -1.8452  1.1552
 1305Sol     MW 8262   2.998   1.558   1.189  0.0833 -0.5483  0.0222
 1306Sol     OW 8263   1.773   3.350   4.971  0.1237 -0.3423 -0.4903
 1306Sol     HW 8264   1.728   3.302   5.041 -0.2082  0.9489  0.1817
 1306Sol     HW 8265   1.866   3.328   4.983  0.0517 -0.2426  0.2689
 1306Sol     MW 8266   1.778   3.343   4.978 -0.5716  0.0717 -0.1560
 1307Sol     OW 8267   2.102   0.543   7.542 -0.4880  0.0837  0.3033
 1307Sol     HW 8268   2.038   0.607   7.509 -1.4711 -0.6767  0.6930
 1307Sol     HW 8269   2.086   0.540   7.637  1.4953  1.3565  0.7040
 1307Sol     MW 8270   2.095   0.548   7.548  0.5123  0.7360 -0.2020
 1308Sol     OW 8271   3.222   2.654   5.767  0.3569 -0.2767  0.6871
 1308Sol     HW 8272   3.245   2.655   5.859  1.8143 -0.7087  0.3440
 1308Sol     HW 8273   3.133   2.618   5.764 -0.5340  1.7844  2.0724
 1308Sol     MW 8274   3.216   2.651   5.775  0.2915  0.0598  0.5626
 1309Sol     OW 8275   3.293   1.572   1.461  0.1601  0.2836 -0.4964
 1309Sol     HW 8276   3.244   1.615   1.391 -0.7655  1.6440  0.9462
 1309Sol     HW 8277   3.295   1.636   1.532  2.6036 -0.3810  0.1021
 1309Sol     MW 8278   3.289   1.582   1.461  0.4119  0.2656 -0.9427
 1310Sol     OW 8279   0.168   1.678   4.350 -0.7216 -0.4353  0.4626
 1310Sol     HW 8280   0.236   1.681   4.282 -0.3520 -1.9798  0.7482
 1310Sol     HW 8281   0.087   1.662   4.302 -0.7308  0.3268  0.2201
 1310Sol     MW 8282   0.167   1.677   4.339  0.0073 -0.4528 -0.8190
 1311Sol     OW 8283   0.283   3.047   2.484 -0.6047 -0.0811 -0.1950
 1311Sol     HW 8284   0.189   3.030   2.480 -0.6092 -0.3902  1.0664
 1311Sol     HW 8285   0.322   2.977   2.431 -1.2288  1.5174 -2.8344
 1311Sol     MW 8286   0.278   3.039   2.479  0.2929  0.0921 -0.1329
 1312Sol     OW 8287   3.161   0.234   4.036 -0.3000 -0.4537  0.3106
 1312Sol     HW 8288   3.183   0.146   4.003 -1.8699 -0.3373 -1.1136
 1312Sol     HW 8289   3.204   0.294   3.975 -1.1584 -0.2484 -0.1091
 1312Sol     MW 8290   3.167   0.231   4.027 -0.0500  0.0797  0.4023
 1313Sol     OW 8291   2.748   1.868   5.166  0.1913 -0.3067 -0.2067
 1313Sol     HW 8292   2.837   1.900   5.172  0.1588 -0.4729  1.2591
 1313Sol     HW 8293   2.737   1.845   5.074  1.8158 -0.7603 -0.2992
 1313Sol     MW 8294   2.755   1.869   5.158  0.0264  0.3260 -0.1977
 1314Sol     OW 8295   3.450   1.428   3.228 -0.1656  0.2404 -0.4310
 1314Sol     HW 8296   3.391   1.502   3.241 -2.1479 -1.3045 -0.4530
 1314Sol     HW 8297   3.417   1.360   3.286  0.0020 -1.5602 -2.3729
 1314Sol     MW 8298   3.442   1.429   3.234 -0.5906  0.1743  0.6656
 1315Sol     OW 8299   0.191   0.606   2.085 -0.6007 -0.0992  0.4690
 1315Sol     HW 8300   0.133   0.574   2.154 -0.5324  0.9499  1.0164
 1315Sol     HW 8301   0.236   0.681   2.123 -0.3621  0.3291 -0.6233
 1315Sol     MW 8302   0.190   0.610   2.094 -0.3258 -0.0192  0.4109
 1316Sol     OW 8303   1.467   1.728   7.122 -0.8460 -0.0845 -0.0355
 1316Sol     HW 8304   1.463   1.813   7.079  0.5740  0.6075  1.1519
 1316Sol     HW 8305   1.559   1.702   7.114 -1.1811 -1.3122 -0.0216
 1316Sol     MW 8306   1.475   1.733   7.117  0.0222  0.7162 -0.2899
 1317Sol     OW 8307   0.562   0.424   5.713  0.3193 -0.6055 -0.7076
 1317Sol     HW 8308   0.602   0.342   5.685  0.5364 -0.0629 -1.9988
 1317Sol     HW 8309   0.469   0.405   5.721  0.6865 -1.6306  1.4052
 1317Sol     MW 8310   0.557   0.415   5.711  0.3724  0.3541  0.4800
 1318Sol     OW 8311   0.292   2.689   1.682 -0.0196 -0.2141  0.1592
 1318Sol     HW 8312   0.330   2.776   1.693 -1.1072  0.1718  0.8988
 1318Sol     HW 8313   0.314   2.643   1.763 -1.0253 -0.0258  0.5413
 1318Sol     MW 8314   0.298   2.693   1.690 -0.2883  0.9146 -0.1328
 1319Sol     OW 8315   1.614   3.129   5.489  0.5021 -0.0383  0.5922
 1319Sol     HW 8316   1.554   3.062   5.523  0.0020  0.1336  0.0713
 1319Sol     HW 8317   1.563   3.211   5.496  0.1101 -0.1155 -1.2577
 1319Sol     MW 8318   1.604   3.131   5.493 -0.2238  0.6793 -0.1120
 1320Sol     OW 8319   3.499   2.626   6.507  0.3629  0.1922  0.2915
 1320Sol     HW 8320   3.448   2.699   6.542 -0.6020  0.0857 -0.8518
 1320Sol     HW 8321   3.485   2.555   6.569 -0.4265  0.3403  0.2838
 1320Sol     MW 8322   3.493   2.626   6.516  0.5145  0.3718 -0.0977
 1321Sol     OW 8323   2.647   2.824   6.321  0.9332 -0.2109 -0.3529
 1321Sol     HW 8324   2.604   2.743   6.348  0.0881  0.5512  0.6411
 1321Sol     HW 8325   2.684   2.805   6.235 -0.0078 -1.3819 -0.5028
 1321Sol     MW 8326   2.647   2.815   6.316 -0.4044  0.5207 -0.1207
 1322Sol     OW 8327   0.068   3.243   3.279 -0.1270  0.9232 -0.4757
 1322Sol     HW 8328   0.093   3.286   3.197  2.1572  1.2845  0.3578
 1322Sol     HW 8329   0.151   3.230   3.325 -0.7229 -4.4517 -0.6879
 1322Sol     MW 8330   0.078   3.246   3.276  0.5050 -0.6384 -0.5663
 1323Sol     OW 8331   3.106   3.028   5.816 -0.9182 -0.3093  0.4588
 1323Sol     HW 8332   3.119   2.974   5.737 -0.4685  0.2067  0.1761
 1323Sol     HW 8333   3.127   2.969   5.888  1.0390 -0.0977  0.0910
 1323Sol     MW 8334   3.109   3.018   5.815  0.3023  0.4416 -0.3527
 1324Sol     OW 8335   3.421   0.539   5.689  0.1311  0.5601  0.4363
 1324Sol     HW 8336   3.360   0.509   5.622 -0.1951  1.2422  0.4267
 1324Sol     HW 8337   3.507   0.517   5.655 -0.1368 -1.0514  0.7651
 1324Sol     MW 8338   3.423   0.534   5.680 -0.0281 -0.2426 -0.1161
 1325Sol     OW 8339   0.431   2.312   3.940  0.1355  0.4488 -0.1686
 1325Sol     HW 8340   0.360   2.353   3.891 -0.1155 -1.7657 -1.7262
 1325Sol     HW 8341   0.494   2.285   3.873  1.7392  1.0035  1.0725
 1325Sol     MW 8342   0.430   2.313   3.930 -0.4004 -0.0234 -0.1425
 1326Sol     OW 8343   1.026   2.333   8.779  0.2518 -0.0874  0.3540
 1326Sol     HW 8344   1.068   2.402   8.727 -1.9726  1.6035  0.7475
 1326Sol     HW 8345   0.989   2.274   8.713 -1.0157  1.0913 -0.0179
 1326Sol     MW 8346   1.027   2.334   8.768  0.1150 -0.5699  0.3505
 1327Sol     OW 8347   0.890   2.207   7.017  0.0265  0.4734 -0.2344
 1327Sol     HW 8348   0.920   2.254   7.095  3.2908 -0.2262 -1.0126
 1327Sol     HW 8349   0.930   2.120   7.024 -1.1363 -0.2292 -1.8054
 1327Sol     MW 8350   0.896   2.203   7.025 -0.8240  0.6092 -0.8833
 1328Sol     OW 8351   3.192   1.906   5.448 -0.3179  0.4119  0.0498
 1328Sol     HW 8352   3.175   1.825   5.400 -1.6007  0.1390  0.9311
 1328Sol     HW 8353   3.287   1.915   5.446 -0.3221  0.1673 -2.1077
 1328Sol     MW 8354   3.199   1.899   5.444  1.0145  0.6206 -0.6296
 1329Sol     OW 8355   1.876   1.990   7.243  0.2323 -0.0382  0.0969
 1329Sol     HW 8356   1.871   1.897   7.264 -0.7318 -0.4382 -1.7918
 1329Sol     HW 8357   1.932   2.027   7.311 -0.0993 -1.8318  1.3786
 1329Sol     MW 8358   1.881   1.985   7.251  0.4256  0.4183 -0.6800
 1330Sol     OW 8359   1.528   0.987   1.398 -0.2135 -0.7435  0.1089
 1330Sol     HW 8360   1.451   0.933   1.380 -0.6338  0.2857 -1.2829
 1330Sol     HW 8361   1.598   0.946   1.346 -0.1809 -0.8109  0.2062
 1330Sol     MW 8362   1.527   0.978   1.391  0.2922  0.2876 -0.4784
 1331Sol     OW 8363   2.719   2.312   6.565  0.3339  0.2389 -0.4001
 1331Sol     HW 8364   2.735   2.323   6.471 -0.0503  0.4409 -0.4434
 1331Sol     HW 8365   2.715   2.218   6.578 -2.6726  0.2126 -1.1177
 1331Sol     MW 8366   2.720   2.305   6.557  0.3060 -0.4452  0.3599
 1332Sol     OW 8367   2.453   2.969   4.388 -0.3483 -0.1523 -0.2593
 1332Sol     HW 8368   2.432   2.948   4.297 -1.2718 -1.0831  0.1562
 1332Sol     HW 8369   2.386   2.923   4.439  0.3221  0.1473  0.9046
 1332Sol     MW 8370   2.445   2.963   4.385  0.6126  0.0275  0.0030
 1333Sol     OW 8371   2.971   2.569   5.760 -0.0714 -0.1355  0.2698
 1333Sol     HW 8372   2.955   2.581   5.854 -1.2371  0.0269  0.0610
 1333Sol     HW 8373   2.998   2.478   5.751  1.6254  0.2798  0.9594
 1333Sol     MW 8374   2.972   2.562   5.768 -0.4632  0.3330  0.3025
 1334Sol     OW 8375   0.934   2.692   8.374  0.2104  0.0435 -0.1780
 1334Sol     HW 8376   0.995   2.707   8.302 -0.8687  0.0794 -1.0819
 1334Sol     HW 8377   0.871   2.628   8.341 -0.1177 -0.1769  0.8339
 1334Sol     MW 8378   0.934   2.687   8.365 -0.1395  0.0675  0.7322
 1335Sol     OW 8379   3.534   0.402   8.109 -0.3175 -0.3865 -0.5743
 1335Sol     HW 8380   3.455   0.361   8.073 -1.1148  1.5212 -1.0420
 1335Sol     HW 8381   3.574   0.447   8.034 -0.6196  1.4948  0.3654
 1335Sol     MW 8382   3.531   0.402   8.099  1.1289  0.4050  0.0493
 1336Sol     OW 8383   2.597   0.838   3.089  0.3224 -0.8471 -0.5619
 1336Sol     HW 8384   2.626   0.761   3.139 -2.6424 -0.8384  1.2864
 1336Sol     HW 8385   2.564   0.801   3.007 -0.0212 -1.4639 -0.1565
 1336Sol     MW 8386   2.597   0.827   3.086  0.5018  0.3417 -0.0910
 1337Sol     OW 8387   2.635   2.799   2.314  0.3436  0.5639 -0.2034
 1337Sol     HW 8388   2.549   2.802   2.273  0.4636 -2.0320 -0.6983
 1337Sol     HW 8389   2.623   2.744   2.392  1.3834  0.8671  0.1842
 1337Sol     MW 8390   2.626   2.794   2.318 -0.1644  0.1283 -0.5193
 1338Sol     OW 8391   3.057   2.305   5.741  0.0288  0.2725 -0.5958
 1338Sol     HW 8392   3.128   2.256   5.699  0.6909  0.7843 -0.0800
 1338Sol     HW 8393   2.981   2.246   5.736  1.1231 -1.3312  1.1298
 1338Sol     MW 8394   3.056   2.295   5.736  0.6791 -0.0943  0.5005
 1339Sol     OW 8395   0.735   3.230   4.010 -0.4276 -0.3690 -0.2371
 1339Sol     HW 8396   0.662   3.176   3.980 -1.3949  0.1344  1.1506
 1339Sol     HW 8397   0.693   3.309   4.045  0.7859 -0.0538  0.5331
 1339Sol     MW 8398   0.724   3.233   4.011 -0.4150  0.5827  0.0087
 1340Sol     OW 8399   1.462   0.490   7.579  0.2085 -0.1460  0.0369
 1340Sol     HW 8400   1.445   0.424   7.512 -0.3676 -0.2060  0.2313
 1340Sol     HW 8401   1.531   0.452   7.633 -1.2422 -1.3495  1.1364
 1340Sol     MW 8402   1.466   0.480   7.578  0.1653  0.1859 -0.0386
 1341Sol     OW 8403   2.238   1.515   7.310  1.3416  0.0433 -0.3813
 1341Sol     HW 8404   2.279   1.430   7.325 -1.3674 -1.1351  0.6295
 1341Sol     HW 8405   2.306   1.578   7.330  2.6022 -1.8351  1.4618
 1341Sol     MW 8406   2.248   1.513   7.313  0.0593 -0.3639 -0.0634
 1342Sol     OW 8407   1.057   1.631   2.956 -0.8311  0.1812  0.0771
 1342Sol     HW 8408   1.095   1.718   2.945 -0.0567 -0.3175 -1.3287
 1342Sol     HW 8409   0.963   1.644   2.944 -0.6881  0.7889 -0.4329
 1342Sol     MW 8410   1.052   1.640   2.954  0.7652 -0.0037 -0.1185
 1343Sol     OW 8411   1.955   1.325   7.330  0.9802 -0.2426 -0.6891
 1343Sol     HW 8412   1.947   1.340   7.236 -0.4771  1.7935 -0.2883
 1343Sol     HW 8413   1.996   1.405   7.364 -2.0858  0.7752  0.8662
 1343Sol     MW 8414   1.958   1.333   7.325  0.3670  0.5952  0.7947
 1344Sol     OW 8415   3.195   0.793   7.534  0.2125  0.6160 -0.6567
 1344Sol     HW 8416   3.230   0.877   7.565  1.1532 -0.7532  2.0788
 1344Sol     HW 8417   3.270   0.734   7.534 -0.7941 -0.6789 -0.9407
 1344Sol     MW 8418   3.205   0.795   7.537  0.3960  0.1260 -0.0234
 1345Sol     OW 8419   2.850   1.403   3.090 -0.2629 -0.2505  0.4699
 1345Sol     HW 8420   2.897   1.474   3.133  1.1156 -0.7024 -0.2830
 1345Sol     HW 8421   2.822   1.345   3.161  1.2493 -0.5378  0.8278
 1345Sol     MW 8422   2.851   1.404   3.100  0.1500 -0.0230 -0.0721
 1346Sol     OW 8423   3.112   2.671   1.946 -0.5649 -0.6600  0.2795
 1346Sol     HW 8424   3.090   2.714   2.028 -1.8371  0.9592 -0.8684
 1346Sol     HW 8425   3.170   2.732   1.901 -0.1746 -1.3609 -0.1859
 1346Sol     MW 8426   3.115   2.680   1.949 -0.6931  0.7612 -0.2002
 1347Sol     OW 8427   1.576   0.178   8.314 -0.0734 -0.1818 -0.1456
 1347Sol     HW 8428   1.622   0.136   8.387  1.1465  1.9785  0.3735
 1347Sol     HW 8429   1.601   0.270   8.319 -1.7415  0.4196 -1.9699
 1347Sol     MW 8430   1.583   0.183   8.321  0.2249 -0.3087  0.5163
 1348Sol     OW 8431   1.110   0.758   6.377  0.7061  0.0164  0.0639
 1348Sol     HW 8432   1.091   0.681   6.430 -0.0293 -0.1049 -0.3657
 1348Sol     HW 8433   1.119   0.829   6.441  0.7401 -0.2989  0.4134
 1348Sol     MW 8434   1.109   0.758   6.388  0.2231 -0.6641 -0.6294
 1349Sol     OW 8435   2.978   1.853   5.820 -0.2113  0.3578  0.2047
 1349Sol     HW 8436   2.923   1.931   5.819 -0.6442  0.0537  0.1129
 1349Sol     HW 8437   3.054   1.876   5.766 -0.4092  0.6640  0.0565
 1349Sol     MW 8438   2.980   1.862   5.815  0.0209  0.3494  0.1598
 1350Sol     OW 8439   0.030   2.346   8.017  0.1343 -0.2560 -0.0020
 1350Sol     HW 8440  -0.019   2.369   7.938 -0.1900 -0.1833  0.2188
 1350Sol     HW 8441   0.024   2.424   8.072  0.8486 -0.0953 -0.1455
 1350Sol     MW 8442   0.025   2.355   8.015 -0.6064  0.0898  0.2669
 1351Sol     OW 8443   0.757   2.343   1.875 -0.6753  0.5284  0.2620
 1351Sol     HW 8444   0.796   2.429   1.894 -0.9776  0.4976  1.0419
 1351Sol     HW 8445   0.814   2.281   1.920  0.2450  0.2052 -1.3006
 1351Sol     MW 8446   0.766   2.345   1.881  0.4087 -0.3640  0.4761
 1352Sol     OW 8447   2.490   2.534   7.597  0.6242 -0.9698  0.1906
 1352Sol     HW 8448   2.502   2.461   7.658  0.7420  0.6903  2.1948
 1352Sol     HW 8449   2.411   2.578   7.628  1.3364  0.5824 -0.1505
 1352Sol     MW 8450   2.484   2.531   7.606 -0.0720  0.6567  0.4953
 1353Sol     OW 8451   1.500   3.015   3.762 -0.5421 -0.1436  0.7002
 1353Sol     HW 8452   1.536   2.975   3.842  0.7592  0.1575  0.2825
 1353Sol     HW 8453   1.504   2.946   3.697  0.1457  0.1496  0.4191
 1353Sol     MW 8454   1.504   3.005   3.763  0.1045 -0.5606  0.1122
 1354Sol     OW 8455   0.611   2.877   4.775  0.2847 -0.5699 -0.1153
 1354Sol     HW 8456   0.673   2.890   4.703 -0.9628  0.3527 -1.0513
 1354Sol     HW 8457   0.555   2.954   4.773  0.5970 -0.2445  2.2562
 1354Sol     MW 8458   0.611   2.885   4.768  0.3658 -0.3271  0.0625
 1355Sol     OW 8459   2.646   1.545   2.958 -0.0068 -0.2805 -0.2683
 1355Sol     HW 8460   2.709   1.616   2.963 -0.5431  0.1943 -0.1767
 1355Sol     HW 8461   2.689   1.471   3.000  0.3132  0.1651  0.1932
 1355Sol     MW 8462   2.655   1.545   2.962 -0.1465 -0.6222 -0.1621
 1356Sol     OW 8463   0.150   1.503   2.800  0.2829  0.1675  0.2746
 1356Sol     HW 8464   0.087   1.433   2.818  2.1055 -1.1900  1.6794
 1356Sol     HW 8465   0.215   1.461   2.743 -0.5735  1.8293 -1.9887
 1356Sol     MW 8466   0.150   1.493   2.796  0.4007  0.3170 -0.3040
 1357Sol     OW 8467   1.270   1.809   8.755 -0.3814  0.2191  0.1431
 1357Sol     HW 8468   1.344   1.865   8.779  0.2843 -0.8945  0.6882
 1357Sol     HW 8469   1.201   1.871   8.729  0.5174  1.2777  0.2476
 1357Sol     MW 8470   1.270   1.820   8.755  0.0866 -0.3040  0.2784
 1358Sol     OW 8471   1.968   1.072   2.186  0.3488 -0.0825 -0.1427
 1358Sol     HW 8472   2.001   1.036   2.104  0.3463  0.0450 -0.2007
 1358Sol     HW 8473   2.022   1.031   2.254 -0.3165 -0.9495 -0.1342
 1358Sol     MW 8474   1.976   1.065   2.185 -0.0979 -0.4350 -0.2157
 1359Sol     OW 8475   2.247   2.396   6.520 -0.1917  0.1826  0.1131
 1359Sol     HW 8476   2.336   2.424   6.542 -0.7502  2.2852 -0.1195
 1359Sol     HW 8477   2.230   2.323   6.579  1.8921 -0.6355 -0.2453
 1359Sol     MW 8478   2.254   2.392   6.527 -0.7723  0.0719 -0.1805
 1360Sol     OW 8479   2.968   1.541   6.498  0.1128 -0.5647 -0.4404
 1360Sol     HW 8480   2.938   1.620   6.544 -0.5543 -1.2709  0.3471
 1360Sol     HW 8481   2.890   1.485   6.494  0.4726 -1.0010 -1.3992
 1360Sol     MW 8482   2.958   1.543   6.502  0.3055 -0.8058  0.2465
 1361Sol     OW 8483   1.252   2.491   5.233  0.0989 -0.4994 -0.2573
 1361Sol     HW 8484   1.260   2.587   5.231  1.3490 -0.6074 -0.5208
 1361Sol     HW 8485   1.228   2.467   5.144 -1.1770 -0.3654  0.0297
 1361Sol     MW 8486   1.250   2.498   5.225 -0.1241  0.1031 -0.3800
 1362Sol     OW 8487   1.255   0.421   7.112  0.6883 -0.2194  0.1786
 1362Sol     HW 8488   1.277   0.513   7.127  1.1945 -0.1681 -0.8120
 1362Sol     HW 8489   1.289   0.403   7.024 -1.2936 -0.7450 -0.5092
 1362Sol     MW 8490   1.260   0.428   7.105  0.1389 -0.1737  0.1841
 1363Sol     OW 8491   0.916   1.756   5.596  0.0470  0.0020  0.1508
 1363Sol     HW 8492   0.851   1.826   5.608  0.4596  0.0744  2.2200
 1363Sol     HW 8493   1.000   1.803   5.592  0.0816 -0.1812 -1.2179
 1363Sol     MW 8494   0.918   1.767   5.597  0.7074  0.7961 -0.2513
 1364Sol     OW 8495   0.438   2.847   2.366 -0.2929  0.4585  0.4464
 1364Sol     HW 8496   0.533   2.858   2.360 -0.3457  1.0018  0.5839
 1364Sol     HW 8497   0.427   2.762   2.409  0.0996 -0.7023 -1.6976
 1364Sol     MW 8498   0.445   2.840   2.370  0.1025  0.0443  0.3089
 1365Sol     OW 8499   3.430   0.584   2.253  0.3519  0.4543 -0.3348
 1365Sol     HW 8500   3.508   0.532   2.271  1.8112  2.0911 -1.6809
 1365Sol     HW 8501   3.403   0.557   2.166  0.0159  0.6102 -0.2782
 1365Sol     MW 8502   3.435   0.577   2.247 -0.5427 -0.1241 -0.3668
 1366Sol     OW 8503   3.353   2.248   3.669 -0.3063 -0.0574 -0.1550
 1366Sol     HW 8504   3.335   2.297   3.750 -2.1413 -2.3430  0.9005
 1366Sol     HW 8505   3.295   2.288   3.604  0.0076  0.7601  0.0595
 1366Sol     MW 8506   3.346   2.256   3.671 -0.1991  0.4865 -0.1999
 1367Sol     OW 8507   3.018   2.541   1.681  0.0083  0.5790 -0.0809
 1367Sol     HW 8508   3.013   2.593   1.761  0.8185  0.3291  0.1444
 1367Sol     HW 8509   2.988   2.454   1.706  2.0171 -0.0103  0.4406
 1367Sol     MW 8510   3.015   2.538   1.691 -0.1305 -0.3444  0.3981
 1368Sol     OW 8511   1.572   0.740   5.299 -0.1858  0.5779 -0.0019
 1368Sol     HW 8512   1.544   0.808   5.237 -0.3281  0.1424 -0.4181
 1368Sol     HW 8513   1.637   0.689   5.251 -1.7996 -1.0458 -0.5524
 1368Sol     MW 8514   1.575   0.741   5.289  0.0115 -0.3962  0.5955
 1369Sol     OW 8515   1.854   0.685   9.031 -0.6890 -0.5476 -0.1303
 1369Sol     HW 8516   1.948   0.692   9.018 -0.5849 -0.9484  0.3855
 1369Sol     HW 8517   1.824   0.775   9.044 -0.4128 -0.3989 -0.5473
 1369Sol     MW 8518   1.859   0.693   9.031 -0.1348 -0.2736  0.4041
 1370Sol     OW 8519   2.955   2.241   1.732  0.2632 -0.2226 -0.6996
 1370Sol     HW 8520   2.928   2.152   1.708 -1.7878 -0.0736  0.9878
 1370Sol     HW 8521   2.941   2.246   1.826 -0.0369  2.0489 -0.8472
 1370Sol     MW 8522   2.952   2.233   1.738 -0.0860 -0.2150  0.2778
 1371Sol     OW 8523   0.793   1.157   3.329 -0.2502 -0.6639  0.1526
 1371Sol     HW 8524   0.831   1.232   3.375 -1.4188 -0.6711  1.1604
 1371Sol     HW 8525   0.857   1.135   3.262 -1.1758  3.0788 -2.0890
 1371Sol     MW 8526   0.802   1.161   3.327 -0.2385 -0.3599  0.1012
 1372Sol     OW 8527   1.753   0.971   5.859  0.1991  0.1763  0.0667
 1372Sol     HW 8528   1.835   0.955   5.812  1.2697  1.3707  1.4865
 1372Sol     HW 8529   1.708   1.039   5.809 -0.6695 -1.5676 -1.5749
 1372Sol     MW 8530   1.756   0.975   5.850  0.5429  0.1387  0.0935
 1373Sol     OW 8531   0.021   2.824   7.026  0.3189 -0.7113 -0.2798
 1373Sol     HW 8532   0.045   2.732   7.038  1.8244 -0.5714 -1.9839
 1373Sol     HW 8533  -0.041   2.824   6.953 -1.5042 -0.5844  1.2161
 1373Sol     MW 8534   0.018   2.816   7.021 -0.6034  0.2258  0.4172
 1374Sol     OW 8535   1.056   0.648   4.178  0.0056 -0.2245  0.9244
 1374Sol     HW 8536   1.116   0.590   4.223  0.6542 -1.8958 -1.9946
 1374Sol     HW 8537   1.075   0.636   4.085 -2.8247  1.4046  0.0577
 1374Sol     MW 8538   1.063   0.642   4.174  0.3990  0.0192  0.0481
 1375Sol     OW 8539   3.522   1.919   4.194 -0.3501  0.2375  0.2152
 1375Sol     HW 8540   3.461   1.962   4.135  0.4348  1.8198  0.5359
 1375Sol     HW 8541   3.500   1.826   4.188 -1.7616  0.6306 -0.8313
 1375Sol     MW 8542   3.515   1.914   4.188  0.2534 -0.0377  0.2453
 1376Sol     OW 8543   2.356   1.102   4.143  0.6946  0.4854  0.4514
 1376Sol     HW 8544   2.280   1.159   4.135 -0.1708 -0.2035  3.1991
 1376Sol     HW 8545   2.413   1.146   4.206  0.6020 -1.0327  1.6385
 1376Sol     MW 8546   2.355   1.111   4.148  0.9514  0.5402  0.4105
 1377Sol     OW 8547   0.863   2.514   4.579 -0.3725 -0.0578  0.2610
 1377Sol     HW 8548   0.931   2.573   4.611  0.4692 -1.3883  0.9552
 1377Sol     HW 8549   0.842   2.547   4.492  3.0418 -1.1860 -1.0424
 1377Sol     MW 8550   0.867   2.522   4.574 -0.2710  0.7607 -0.6680
 1378Sol     OW 8551   1.966   2.346   4.874  0.0128  0.0623 -0.0941
 1378Sol     HW 8552   1.958   2.420   4.934 -1.7014 -0.3670  0.2375
 1378Sol     HW 8553   1.913   2.277   4.915  2.4709 -1.7166  0.1746
 1378Sol     MW 8554   1.960   2.346   4.883 -0.6792 -0.0626 -0.3010
 1379Sol     OW 8555   2.475   1.731   5.063  0.3917  0.4919  0.3039
 1379Sol     HW 8556   2.546   1.789   5.035  0.1519  0.4751 -0.3577
 1379Sol     HW 8557   2.427   1.780   5.129  1.5273  0.1757  1.3689
 1379Sol     MW 8558   2.477   1.740   5.066 -0.0978 -0.9706  0.0411
 1380Sol     OW 8559   2.616   1.705   2.239 -0.0627  0.2835 -0.3049
 1380Sol     HW 8560   2.644   1.712   2.331 -1.4961 -0.3915  0.1884
 1380Sol     HW 8561   2.581   1.791   2.218 -1.7586 -0.1854  0.4769
 1380Sol     MW 8562   2.616   1.713   2.246  1.5073 -0.2510 -0.0897
 1381Sol     OW 8563   3.286   0.399   2.468 -0.1860 -0.1064 -0.2591
 1381Sol     HW 8564   3.220   0.337   2.437  1.3937 -0.8226 -2.3525
 1381Sol     HW 8565   3.325   0.434   2.388  1.1580  1.1697  0.9215
 1381Sol     MW 8566   3.284   0.396   2.458 -0.5963  1.1206  0.5049
 1382Sol     OW 8567   1.761   2.488   4.009 -0.4934  0.5701  0.1954
 1382Sol     HW 8568   1.707   2.459   4.082  1.2458 -0.7173  1.0220
 1382Sol     HW 8569   1.758   2.415   3.947  1.3689 -0.1292  0.8722
 1382Sol     MW 8570   1.756   2.479   4.010 -0.0849 -0.0715 -0.4857
 1383Sol     OW 8571   2.933   0.831   3.689 -0.1054  0.0231  0.1774
 1383Sol     HW 8572   2.856   0.778   3.711 -0.6970 -0.0505 -1.9855
 1383Sol     HW 8573   3.007   0.779   3.720 -0.8318 -0.6496  0.8223
 1383Sol     MW 8574   2.933   0.822   3.694 -0.0452 -0.2761 -0.3237
 1384Sol     OW 8575   1.257   3.230   7.045 -0.3777  0.0710  0.5947
 1384Sol     HW 8576   1.335   3.184   7.075 -0.7899 -1.0345  0.0133
 1384Sol     HW 8577   1.232   3.185   6.964 -0.1606  2.0425 -0.5841
 1384Sol     MW 8578   1.262   3.222   7.041 -0.6702 -0.1801  0.4127
 1385Sol     OW 8579   2.134   2.941   7.421  0.1736  0.6142 -0.0374
 1385Sol     HW 8580   2.164   2.900   7.503 -0.8849  0.2354  0.1706
 1385Sol     HW 8581   2.041   2.918   7.416  0.4719 -0.2388 -1.8878
 1385Sol     MW 8582   2.129   2.936   7.428 -0.3637 -0.2359 -0.0305
 1386Sol     OW 8583   2.483   1.988   7.224  0.5287  0.1590 -0.0882
 1386Sol     HW 8584   2.496   1.967   7.132  0.8435 -0.9432  0.2027
 1386Sol     HW 8585   2.409   2.049   7.224  0.7343  0.4201 -1.0913
 1386Sol     MW 8586   2.477   1.991   7.216 -0.0482 -0.1509 -0.3177
 1387Sol     OW 8587   0.812   0.593   8.140 -0.4657 -0.5343 -0.7797
 1387Sol     HW 8588   0.797   0.521   8.079  0.4299 -0.3726 -1.2002
 1387Sol     HW 8589   0.856   0.553   8.214  0.6770 -0.2981 -1.3262
 1387Sol     MW 8590   0.814   0.583   8.141  0.1663 -0.0522 -0.3613
 1388Sol     OW 8591   0.091   2.718   2.536  0.8956  0.0917  0.2949
 1388Sol     HW 8592   0.052   2.685   2.617  4.4860 -2.8121  0.9693
 1388Sol     HW 8593   0.052   2.664   2.467 -0.2118  0.8114  0.3418
 1388Sol     MW 8594   0.084   2.710   2.537 -0.3937  0.0404  0.2151
 1389Sol     OW 8595   2.957   2.055   5.537  0.0850  0.1356  0.6862
 1389Sol     HW 8596   3.052   2.045   5.539  0.0403 -0.1961  1.4035
 1389Sol     HW 8597   2.943   2.139   5.493  0.6944  0.0089  0.2479
 1389Sol     MW 8598   2.964   2.062   5.533 -0.2951 -0.5780  0.8044
 1390Sol     OW 8599   1.141   1.020   3.664 -0.8320  0.3178 -0.3729
 1390Sol     HW 8600   1.100   0.934   3.654  0.4654 -0.3186 -0.4132
 1390Sol     HW 8601   1.171   1.042   3.576  1.8363 -0.7672  0.1996
 1390Sol     MW 8602   1.140   1.014   3.655  0.2477  0.3279  0.1305
 1391Sol     OW 8603   2.825   2.429   4.114 -0.3481  0.0802 -0.5744
 1391Sol     HW 8604   2.885   2.414   4.187  0.1685 -3.0265 -1.5360
 1391Sol     HW 8605   2.878   2.473   4.048  0.0545  0.0629 -0.2638
 1391Sol     MW 8606   2.835   2.431   4.114 -0.7837 -0.0737 -0.7544
 1392Sol     OW 8607   3.100   2.862   5.594  0.2375  0.0725 -0.0379
 1392Sol     HW 8608   3.141   2.788   5.638  2.0515  1.3781  0.5165
 1392Sol     HW 8609   3.138   2.862   5.506 -0.8872 -0.5265 -0.5442
 1392Sol     MW 8610   3.107   2.855   5.590  0.2074  0.7704  0.3505
 1393Sol     OW 8611   3.212   2.033   4.477  0.0768  0.3891 -0.4969
 1393Sol     HW 8612   3.180   2.019   4.566 -0.2041 -0.7940 -0.7682
 1393Sol     HW 8613   3.304   2.009   4.481 -0.1800 -0.6722 -0.7480
 1393Sol     MW 8614   3.217   2.029   4.485  0.0034 -0.7508  0.5346
 1394Sol     OW 8615   2.818   2.869   4.427 -0.4789 -0.0672  0.1105
 1394Sol     HW 8616   2.763   2.934   4.470  0.0749  0.9767 -0.7255
 1394Sol     HW 8617   2.905   2.883   4.465 -0.2425  0.0616 -0.4725
 1394Sol     MW 8618   2.821   2.876   4.434  0.4131  0.1039 -0.0764
 1395Sol     OW 8619   1.530   0.116   1.790  0.0091 -0.5081  0.4086
 1395Sol     HW 8620   1.597   0.104   1.722  0.7019  0.7582  0.8431
 1395Sol     HW 8621   1.572   0.174   1.854 -1.4959  0.2412  0.7231
 1395Sol     MW 8622   1.540   0.120   1.790 -0.3060 -0.5191 -1.2453
 1396Sol     OW 8623   2.863   2.260   5.381  0.1528  0.4496  0.5907
 1396Sol     HW 8624   2.773   2.258   5.348  0.5916  0.4143 -0.6208
 1396Sol     HW 8625   2.893   2.349   5.360  0.5410  0.3186  0.5983
 1396Sol     MW 8626   2.857   2.268   5.376  0.7271  0.0636  0.0724
 1397Sol     OW 8627   0.414   0.107   8.922  0.4333  0.3457 -0.0552
 1397Sol     HW 8628   0.452   0.032   8.877 -1.6235 -2.5909  2.8508
 1397Sol     HW 8629   0.351   0.144   8.860  0.8644 -0.8461 -1.2008
 1397Sol     MW 8630   0.412   0.104   8.913  0.2262  0.5769 -0.5568
 1398Sol     OW 8631   2.967   0.302   6.201 -0.0141  0.0761  0.7685
 1398Sol     HW 8632   2.875   0.280   6.216  0.3456 -1.5086  0.7942
 1398Sol     HW 8633   2.966   0.359   6.125 -1.0414  0.3434  0.9687
 1398Sol     MW 8634   2.959   0.305   6.196  0.0149 -0.7277 -0.6558
 1399Sol     OW 8635   0.236   0.511   3.480 -0.2132 -0.2564 -0.0766
 1399Sol     HW 8636   0.248   0.598   3.442  0.3567  0.8182  2.4414
 1399Sol     HW 8637   0.276   0.451   3.416 -1.3456  1.2273 -2.2186
 1399Sol     MW 8638   0.241   0.513   3.471 -0.6404 -0.2846 -0.2051
 1400Sol     OW 8639   0.045   2.681   6.249  0.4832  0.1168  0.0053
 1400Sol     HW 8640   0.018   2.601   6.204 -4.9366  2.0611 -0.5461
 1400Sol     HW 8641   0.030   2.664   6.341  0.0719  0.1927 -0.0451
 1400Sol     MW 8642   0.042   2.673   6.253  0.2215 -0.0018  0.4929
 1401Sol     OW 8643   3.313   0.343   5.214 -0.3018  0.0058  1.0492
 1401Sol     HW 8644   3.383   0.368   5.154 -0.1628 -0.7657  0.8813
 1401Sol     HW 8645   3.236   0.389   5.182  0.6791  3.0995  2.8453
 1401Sol     MW 8646   3.312   0.349   5.206  0.0095 -0.3485  0.4266
 1402Sol     OW 8647   2.746   0.102   7.873 -0.0587  0.4607 -0.2096
 1402Sol     HW 8648   2.813   0.157   7.913  1.5594 -1.4691 -0.1641
 1402Sol     HW 8649   2.665   0.152   7.883  1.0612  2.0595  1.3192
 1402Sol     MW 8650   2.745   0.112   7.877  0.4709 -0.1425 -0.4015
 1403Sol     OW 8651   0.375   2.317   6.678  0.2799  0.2841  0.0736
 1403Sol     HW 8652   0.319   2.394   6.694  0.2222  0.2747 -0.0868
 1403Sol     HW 8653   0.320   2.259   6.626  0.5207  0.3704 -0.2740
 1403Sol     MW 8654   0.365   2.319   6.675 -0.6368 -0.1900 -0.6852
 1404Sol     OW 8655   1.927   0.348   3.586  0.4980  0.0716  0.6139
 1404Sol     HW 8656   1.873   0.327   3.509  1.4528  1.7322 -0.5429
 1404Sol     HW 8657   1.887   0.298   3.657 -0.0064 -2.0277 -1.0861
 1404Sol     MW 8658   1.918   0.342   3.585 -0.8796  0.3256  0.6452
 1405Sol     OW 8659   2.070   0.636   5.863  0.1886  0.1703 -0.0106
 1405Sol     HW 8660   2.052   0.642   5.957 -0.2360  4.0952 -0.2314
 1405Sol     HW 8661   2.165   0.623   5.857  0.2286 -0.0037  0.9804
 1405Sol     MW 8662   2.077   0.636   5.871  0.2405  0.0554 -0.2343
 1406Sol     OW 8663   3.373   1.121   6.157 -0.0028  0.1894 -0.0593
 1406Sol     HW 8664   3.296   1.173   6.178 -1.1893 -0.8496 -1.6567
 1406Sol     HW 8665   3.446   1.181   6.165 -1.1281  1.5333  0.2449
 1406Sol     MW 8666   3.372   1.131   6.159  0.2583  0.2914 -0.4151
 1407Sol     OW 8667   2.977   2.486   3.678 -1.1451  0.1453  0.0634
 1407Sol     HW 8668   3.027   2.494   3.759 -1.1808  1.3576 -0.0130
 1407Sol     HW 8669   2.957   2.577   3.654  0.7016 -0.0486 -2.4350
 1407Sol     MW 8670   2.979   2.495   3.683 -0.2003 -0.2011  0.3983
 1408Sol     OW 8671   1.768   2.554   2.541 -0.6386 -0.1096 -0.4296
 1408Sol     HW 8672   1.716   2.633   2.555  0.4674  0.5649  0.0011
 1408Sol     HW 8673   1.799   2.530   2.628 -0.4991 -0.6846 -0.6369
 1408Sol     MW 8674   1.766   2.559   2.550  0.5430  0.3947  0.1294
 1409Sol     OW 8675   0.767   2.937   4.988  0.2249 -0.1939  0.2772
 1409Sol     HW 8676   0.726   3.010   5.035  1.7655  2.4927 -2.3187
 1409Sol     HW 8677   0.701   2.909   4.925  0.2627  0.1917  0.0625
 1409Sol     MW 8678   0.757   2.941   4.986  0.5742  0.3902  0.8973
 1410Sol     OW 8679   2.775   2.272   8.535 -0.4111 -0.1679 -0.0332
 1410Sol     HW 8680   2.769   2.353   8.586  0.5561  0.0681 -0.2907
 1410Sol     HW 8681   2.816   2.299   8.453 -2.9761 -0.3266 -1.4046
 1410Sol     MW 8682   2.778   2.282   8.532 -0.2722  0.0505  0.3304
 1411Sol     OW 8683   0.920   3.219   6.602 -0.0398 -0.5413  0.0361
 1411Sol     HW 8684   0.895   3.310   6.616  1.0557 -0.2985  0.4556
 1411Sol     HW 8685   1.016   3.220   6.599  0.0194 -1.7915  0.8512
 1411Sol     MW 8686   0.926   3.227   6.603 -0.5199 -0.7957 -0.2276
 1412Sol     OW 8687   3.496   2.283   5.641  0.1893 -0.3570  0.1687
 1412Sol     HW 8688   3.482   2.370   5.605  0.9778  0.7761  2.5135
 1412Sol     HW 8689   3.549   2.238   5.575  0.3075  1.1343 -0.7759
 1412Sol     MW 8690   3.500   2.286   5.632  0.2362 -0.0668  0.0269
 1413Sol     OW 8691   2.833   3.163   8.539 -0.1906 -0.4849  0.4453
 1413Sol     HW 8692   2.888   3.183   8.463  1.7550  0.1616  1.9696
 1413Sol     HW 8693   2.864   3.078   8.569 -0.8731 -0.6816  0.5998
 1413Sol     MW 8694   2.841   3.157   8.535  0.4670  0.4366  0.4124
 1414Sol     OW 8695   2.796   1.721   7.026 -0.2380  0.0852 -0.3550
 1414Sol     HW 8696   2.836   1.797   7.068 -0.9698  0.6782 -0.7217
 1414Sol     HW 8697   2.869   1.660   7.013  0.4790  0.9894 -0.6666
 1414Sol     MW 8698   2.806   1.722   7.029  0.3175 -0.2386  0.1309
 1415Sol     OW 8699   2.233   1.426   2.604  0.3994  0.4645  0.2647
 1415Sol     HW 8700   2.261   1.429   2.696  0.1778 -0.7445  0.3751
 1415Sol     HW 8701   2.273   1.346   2.570 -2.2370 -0.8562  0.2105
 1415Sol     MW 8702   2.239   1.419   2.609  0.0083 -0.4936 -0.0425
 1416Sol     OW 8703   2.860   3.024   1.594  0.6063 -1.1097  0.0445
 1416Sol     HW 8704   2.933   3.012   1.533  1.2517 -0.5071  0.6836
 1416Sol     HW 8705   2.902   3.046   1.677 -0.3476  0.4957  0.1201
 1416Sol     MW 8706   2.871   3.025   1.596  0.7474  0.3104 -0.2456
 1417Sol     OW 8707   0.591   3.033   7.987 -0.4147 -0.2500 -0.5551
 1417Sol     HW 8708   0.496   3.040   7.984 -0.4752  0.3994  1.8338
 1417Sol     HW 8709   0.621   3.067   7.903 -2.1545  1.9396 -0.3096
 1417Sol     MW 8710   0.585   3.036   7.980 -0.9971 -0.1397  1.0123
 1418Sol     OW 8711   2.009   0.023   7.578  0.3830 -0.5370 -0.3911
 1418Sol     HW 8712   1.992   0.032   7.671  2.2146 -1.5120  0.0434
 1418Sol     HW 8713   2.047   0.107   7.552  1.1726 -0.7688  0.0260
 1418Sol     MW 8714   2.011   0.031   7.584  0.0746  0.1768  0.0013
 1419Sol     OW 8715   1.229   2.988   2.672  0.1269  0.0991  0.7738
 1419Sol     HW 8716   1.233   2.932   2.595 -1.7215  0.0201  0.7102
 1419Sol     HW 8717   1.219   3.077   2.637  0.3021  0.1725  0.9096
 1419Sol     MW 8718   1.229   2.991   2.662  0.2405 -0.1974 -0.1167
 1420Sol     OW 8719   2.747   0.915   5.712  0.8729 -0.1919 -0.0399
 1420Sol     HW 8720   2.842   0.910   5.725  1.1531  0.8073 -1.5556
 1420Sol     HW 8721   2.735   0.990   5.653 -0.8580 -0.3134  0.1438
 1420Sol     MW 8722   2.754   0.921   5.708  0.5711 -0.2687 -0.4667
 1421Sol     OW 8723   0.930   1.299   3.031 -0.5148  0.1916  0.0379
 1421Sol     HW 8724   0.947   1.216   3.074  0.8698  1.1642  1.3906
 1421Sol     HW 8725   0.911   1.360   3.102 -2.0100  0.9276 -0.9743
 1421Sol     MW 8726   0.930   1.297   3.041  0.2380  0.0672  0.3650
 1422Sol     OW 8727   2.528   1.806   3.805  0.2349 -0.1519 -0.4097
 1422Sol     HW 8728   2.526   1.804   3.709 -1.4132  0.9139 -0.4079
 1422Sol     HW 8729   2.561   1.893   3.826  0.0879 -0.2002  0.0101
 1422Sol     MW 8730   2.531   1.813   3.798 -0.2720  0.5266 -0.1902
 1423Sol     OW 8731   1.290   0.827   3.275  0.2198 -0.4435 -0.2301
 1423Sol     HW 8732   1.301   0.918   3.299  3.7038 -0.6825 -0.7514
 1423Sol     HW 8733   1.304   0.778   3.356  0.0304 -0.6175 -0.3003
 1423Sol     MW 8734   1.292   0.830   3.284 -0.1652 -1.0246 -0.0144
 1424Sol     OW 8735   1.854   1.205   8.524 -0.0898 -0.2973  0.1926
 1424Sol     HW 8736   1.868   1.261   8.448  0.2344 -1.6436 -0.7513
 1424Sol     HW 8737   1.765   1.171   8.513  0.8272 -2.4370 -0.9003
 1424Sol     MW 8738   1.847   1.207   8.517 -0.0550 -0.0533  0.1121
 1425Sol     OW 8739   1.486   1.824   3.583  0.4054  0.3486  0.6869
 1425Sol     HW 8740   1.394   1.809   3.560  0.2249  0.3112  1.4343
 1425Sol     HW 8741   1.518   1.738   3.610  1.1302 -0.0022 -1.1736
 1425Sol     MW 8742   1.481   1.815   3.583  0.7178 -0.3141  0.2071
 1426Sol     OW 8743   2.978   2.146   7.630 -0.0092  0.1172  0.3141
 1426Sol     HW 8744   2.886   2.129   7.647  0.2851 -1.0129  0.8866
 1426Sol     HW 8745   2.996   2.230   7.672 -0.3465 -0.5365  1.8195
 1426Sol     MW 8746   2.972   2.152   7.635 -0.3547  0.6037 -0.1962
 1427Sol     OW 8747   2.940   0.542   8.164  0.7173 -0.2323 -0.1112
 1427Sol     HW 8748   2.897   0.551   8.249  0.7103  0.9795 -0.2352
 1427Sol     HW 8749   3.033   0.544   8.185  0.7141 -0.2142 -0.0970
 1427Sol     MW 8750   2.944   0.543   8.174 -0.3430 -0.3063 -0.0363
 1428Sol     OW 8751   2.228   0.966   8.728  0.1546  0.2718  0.0914
 1428Sol     HW 8752   2.285   0.890   8.718 -1.0118 -0.5545 -0.5058
 1428Sol     HW 8753   2.202   0.965   8.820 -0.3867 -0.4529 -0.0634
 1428Sol     MW 8754   2.231   0.959   8.735 -0.2488  0.3091 -0.2210
 1429Sol     OW 8755   2.909   0.713   3.426  0.3321  0.1589  0.3025
 1429Sol     HW 8756   2.887   0.754   3.510 -0.7960  1.1671 -0.4642
 1429Sol     HW 8757   2.955   0.633   3.450 -2.6820 -1.1691  1.9987
 1429Sol     MW 8758   2.911   0.710   3.436  0.7042  0.0480  0.1162
 1430Sol     OW 8759   0.326   2.795   1.436 -0.2261 -0.1886  0.3345
 1430Sol     HW 8760   0.364   2.743   1.366  1.6804  0.8401  0.5696
 1430Sol     HW 8761   0.323   2.736   1.512  1.4931 -0.1260  0.4757
 1430Sol     MW 8762   0.329   2.785   1.437  0.1686 -0.1043 -0.3868
 1431Sol     OW 8763   0.988   0.969   8.505 -0.3332 -0.0447  0.1745
 1431Sol     HW 8764   0.985   0.876   8.485 -2.2676  0.1915 -0.7164
 1431Sol     HW 8765   0.949   1.012   8.429  2.0858  1.6249 -0.1539
 1431Sol     MW 8766   0.984   0.965   8.497  0.2644 -0.0214  0.3297
 1432Sol     OW 8767   3.241   1.270   5.375  0.5041 -0.1945  0.2661
 1432Sol     HW 8768   3.192   1.308   5.447 -0.2252 -0.7287  0.0607
 1432Sol     HW 8769   3.275   1.187   5.410 -0.5255 -0.8454 -0.2367
 1432Sol     MW 8770   3.240   1.266   5.384 -0.2868  0.8248 -0.8726
 1433Sol     OW 8771   1.271   2.565   8.965  0.0473  0.3480 -0.0869
 1433Sol     HW 8772   1.252   2.481   9.007  2.8396  0.0995  0.7627
 1433Sol     HW 8773   1.293   2.542   8.875  0.9184  0.1579  0.1737
 1433Sol     MW 8774   1.271   2.556   8.961  0.1468 -0.3265 -0.1990
 1434Sol     OW 8775   0.630   0.112   3.555 -0.0964  0.0086  0.4119
 1434Sol     HW 8776   0.560   0.101   3.491 -0.6653 -0.5515  1.1175
 1434Sol     HW 8777   0.675   0.192   3.529  1.0730 -1.3963 -1.9982
 1434Sol     MW 8778   0.628   0.118   3.547 -0.3646 -0.6743  1.0261
 1435Sol     OW 8779   1.259   0.439   2.996  0.4841  0.0812  1.0592
 1435Sol     HW 8780   1.288   0.422   2.907 -1.1122 -0.0602  0.5461
 1435Sol     HW 8781   1.217   0.357   3.023 -0.6550  0.7226  1.2653
 1435Sol     MW 8782   1.258   0.430   2.991 -0.5298 -0.1933 -0.5637
 1436Sol     OW 8783   0.821   1.374   1.617  0.0591 -0.2345 -0.2896
 1436Sol     HW 8784   0.783   1.440   1.674  0.2870  0.1273 -0.5545
 1436Sol     HW 8785   0.746   1.321   1.588  0.0363 -0.8779  0.9201
 1436Sol     MW 8786   0.811   1.375   1.619  0.0319 -0.1359  0.0906
 1437Sol     OW 8787   1.199   1.254   6.088  0.0512  0.3108  0.5181
 1437Sol     HW 8788   1.290   1.229   6.070  0.0399 -1.2001  2.4517
 1437Sol     HW 8789   1.155   1.172   6.108 -2.3616  0.7002 -2.7354
 1437Sol     MW 8790   1.203   1.245   6.088 -0.4044 -0.3036 -0.0849
 1438Sol     OW 8791   1.096   1.022   4.828  0.2314  0.4073  0.4961
 1438Sol     HW 8792   1.155   1.079   4.876  0.6009  1.1795 -0.8362
 1438Sol     HW 8793   1.010   1.038   4.865  0.4926  1.0751  0.8144
 1438Sol     MW 8794   1.094   1.028   4.835 -0.2087  0.0989  0.7654
 1439Sol     OW 8795   1.156   0.150   8.039 -0.0297  0.1833 -0.2378
 1439Sol     HW 8796   1.228   0.149   8.102 -0.3941 -1.5918  0.1679
 1439Sol     HW 8797   1.128   0.242   8.036  0.6931  0.4709  1.3766
 1439Sol     MW 8798   1.160   0.158   8.045 -0.2046 -0.1384  0.0656
 1440Sol     OW 8799   2.680   1.414   5.690 -0.8576 -0.4327  0.3603
 1440Sol     HW 8800   2.595   1.393   5.650 -1.7128  1.5838  1.0423
 1440Sol     HW 8801   2.736   1.440   5.616 -0.7201 -2.1088 -0.1326
 1440Sol     MW 8802   2.677   1.415   5.680 -0.4190 -0.5292 -0.2235
 1441Sol     OW 8803   1.698   2.777   2.154 -0.2885 -0.1583 -0.8356
 1441Sol     HW 8804   1.711   2.837   2.228 -0.3037 -1.9875  0.7046
 1441Sol     HW 8805   1.714   2.831   2.077  3.5771  0.9113  0.5707
 1441Sol     MW 8806   1.700   2.788   2.154 -0.1074 -0.6311  0.3085
 1442Sol     OW 8807   1.281   2.385   1.734 -0.1824 -0.2887 -0.2990
 1442Sol     HW 8808   1.367   2.424   1.745 -0.6079  0.3994  0.6445
 1442Sol     HW 8809   1.252   2.366   1.824 -1.9140  1.4738 -0.4633
 1442Sol     MW 8810   1.286   2.386   1.743 -0.1294 -0.1432 -0.3241
 1443Sol     OW 8811   1.072   2.629   7.254  0.1080  0.0235  0.2087
 1443Sol     HW 8812   1.046   2.693   7.321  2.0427  1.0034  0.0554
 1443Sol     HW 8813   1.134   2.572   7.298  0.7208  0.1360 -0.4985
 1443Sol     MW 8814   1.075   2.630   7.264  0.0219  0.1351  0.1742
 1444Sol     OW 8815   0.420   1.974   8.274 -0.2117 -0.1299  0.0211
 1444Sol     HW 8816   0.428   1.906   8.206  0.1090  1.3805 -1.4847
 1444Sol     HW 8817   0.335   1.955   8.315 -0.6027 -0.8442 -1.0564
 1444Sol     MW 8818   0.413   1.966   8.271 -0.1855 -0.2216  0.3508
 1445Sol     OW 8819   1.878   1.363   7.755  0.4706  0.4509  0.5388
 1445Sol     HW 8820   1.809   1.326   7.809  0.0311 -0.5625 -0.7178
 1445Sol     HW 8821   1.947   1.296   7.754  0.5102  0.5004 -0.1003
 1445Sol     MW 8822   1.878   1.354   7.760 -0.0496  0.0705  0.5165
 1446Sol     OW 8823   2.788   1.877   7.794  0.0432 -0.6118 -0.6173
 1446Sol     HW 8824   2.825   1.847   7.877  1.4775  0.2839 -0.9126
 1446Sol     HW 8825   2.826   1.818   7.728  0.6348  0.0473 -0.8735
 1446Sol     MW 8826   2.795   1.869   7.796  0.4096  0.0349  0.6657
 1447Sol     OW 8827   0.520   2.107   8.867 -0.4685  0.5409 -0.3371
 1447Sol     HW 8828   0.439   2.103   8.816 -0.9456 -0.5124  0.4819
 1447Sol     HW 8829   0.519   2.027   8.919  1.1520  0.4682 -0.3970
 1447Sol     MW 8830   0.513   2.099   8.867 -0.6160 -0.3211  0.0817
 1448Sol     OW 8831   3.489   2.107   1.747  0.0908  0.5697  0.0568
 1448Sol     HW 8832   3.432   2.137   1.676  1.6505  1.0616 -1.0248
 1448Sol     HW 8833   3.449   2.142   1.827 -1.3014  0.6003 -0.6337
 1448Sol     MW 8834   3.480   2.113   1.748  0.3640 -0.2079  0.3292
 1449Sol     OW 8835   0.263   3.162   5.696  0.8282 -0.2973 -0.0625
 1449Sol     HW 8836   0.219   3.216   5.762 -0.8503 -1.6216 -0.0742
 1449Sol     HW 8837   0.293   3.225   5.630  0.0342  0.7588  0.5707
 1449Sol     MW 8838   0.262   3.173   5.696 -0.3620 -0.2344 -0.5093
 1450Sol     OW 8839   1.041   0.389   8.057 -0.2343 -0.6367 -0.0028
 1450Sol     HW 8840   1.116   0.445   8.080  1.1276 -2.3051 -0.2761
 1450Sol     HW 8841   0.986   0.389   8.136 -0.6854  1.7279 -0.2908
 1450Sol     MW 8842   1.043   0.394   8.066 -0.4944  0.3045  0.5477
 1451Sol     OW 8843   1.351   2.219   6.317 -0.2181  0.2501 -0.8152
 1451Sol     HW 8844   1.402   2.170   6.381  0.6273  3.6219  1.2496
 1451Sol     HW 8845   1.416   2.255   6.257 -0.7016 -0.1199 -1.5660
 1451Sol     MW 8846   1.361   2.218   6.317 -0.1235 -0.0490 -0.2031
 1452Sol     OW 8847   0.268   0.716   4.763  0.4769  0.0171  0.2999
 1452Sol     HW 8848   0.275   0.641   4.703  0.1795 -0.6554  1.0868
 1452Sol     HW 8849   0.174   0.731   4.771  0.5362  0.4535  0.1780
 1452Sol     MW 8850   0.260   0.710   4.758 -0.5173 -0.0389 -0.0295
 1453Sol     OW 8851   2.178   2.644   8.493 -0.2677 -0.6704  0.3133
 1453Sol     HW 8852   2.228   2.581   8.440 -0.2912 -0.7207  0.3502
 1453Sol     HW 8853   2.245   2.691   8.544  0.0080  1.2155 -1.6958
 1453Sol     MW 8854   2.189   2.643   8.492 -0.3786  0.0082 -0.6439
 1454Sol     OW 8855   2.500   2.922   1.488  0.9862  0.2154  0.1833
 1454Sol     HW 8856   2.473   2.948   1.576 -1.0765 -2.3890  0.3605
 1454Sol     HW 8857   2.556   2.845   1.502  1.8861  0.6849 -0.7254
 1454Sol     MW 8858   2.503   2.918   1.497 -0.0811  0.2030 -0.2370
 1455Sol     OW 8859   0.620   2.640   7.290  0.3353  0.3999  0.2116
 1455Sol     HW 8860   0.542   2.690   7.265  0.6547  0.2297 -1.1960
 1455Sol     HW 8861   0.693   2.687   7.247  1.0513  0.7539  1.7852
 1455Sol     MW 8862   0.620   2.649   7.284  0.2777 -0.4296  0.6312
 1456Sol     OW 8863   0.272   0.129   5.741 -0.2391 -0.2711  0.3796
 1456Sol     HW 8864   0.340   0.064   5.756  0.9301  1.1533  1.4664
 1456Sol     HW 8865   0.193   0.093   5.783  0.7107 -0.4281  2.0810
 1456Sol     MW 8866   0.271   0.120   5.746  0.2557  0.3282  0.1631
 1457Sol     OW 8867   1.339   0.345   6.864 -0.2247  0.5588  0.4929
 1457Sol     HW 8868   1.308   0.254   6.863  1.0630  0.1115  0.3679
 1457Sol     HW 8869   1.293   0.387   6.791  2.8194 -1.2424 -2.5962
 1457Sol     MW 8870   1.332   0.341   6.857  0.1698 -0.2169  0.3557
 1458Sol     OW 8871   3.020   1.254   8.219 -0.5845 -0.4933  0.3569
 1458Sol     HW 8872   2.943   1.213   8.259 -2.0383  1.3845 -0.4040
 1458Sol     HW 8873   3.060   1.305   8.289  0.9749 -2.8137  1.1911
 1458Sol     MW 8874   3.016   1.255   8.228 -0.3892  0.4646 -0.6806
 1459Sol     OW 8875   0.024   3.333   4.626  0.1205 -0.2209  0.2958
 1459Sol     HW 8876   0.059   3.333   4.715 -0.5126  1.8540  0.5676
 1459Sol     HW 8877  -0.070   3.343   4.638  0.3538  4.2641 -0.6322
 1459Sol     MW 8878   0.019   3.334   4.635  0.5089  0.2506  0.0521
 1460Sol     OW 8879   1.979   2.474   3.436  0.1150  0.7358 -0.3578
 1460Sol     HW 8880   2.061   2.430   3.461 -0.3042 -0.0914 -0.4128
 1460Sol     HW 8881   1.959   2.440   3.349 -0.5413  0.5678 -0.1419
 1460Sol     MW 8882   1.985   2.467   3.431 -0.3059 -0.3240  0.6337
 1461Sol     OW 8883   3.202   0.554   6.633 -0.1310  0.1786 -0.2539
 1461Sol     HW 8884   3.195   0.526   6.542  1.3770  0.1106 -0.3608
 1461Sol     HW 8885   3.277   0.614   6.635  0.8641 -1.0559  1.2215
 1461Sol     MW 8886   3.208   0.557   6.625 -0.0668 -0.0633 -0.7419
 1462Sol     OW 8887   3.016   1.585   6.984 -0.4664  0.4060 -0.3734
 1462Sol     HW 8888   3.031   1.491   6.992  0.8688  0.4639 -1.7886
 1462Sol     HW 8889   3.072   1.624   7.051  1.1796  0.2963 -1.6233
 1462Sol     MW 8890   3.023   1.580   6.990  0.1073  0.0385  0.0891
 1463Sol     OW 8891   2.217   3.025   4.731  0.1484  0.0870  0.1532
 1463Sol     HW 8892   2.263   3.074   4.662  0.3320 -1.4794 -0.8488
 1463Sol     HW 8893   2.129   3.062   4.731  0.8079  1.7050  0.6922
 1463Sol     MW 8894   2.213   3.033   4.725  0.3196  0.1312 -0.3350
 1464Sol     OW 8895   0.149   3.020   1.683  0.1641  0.0381 -0.3548
 1464Sol     HW 8896   0.144   3.101   1.733  2.0843  0.2242 -0.4243
 1464Sol     HW 8897   0.229   2.977   1.715 -1.9696 -2.8891  1.2834
 1464Sol     MW 8898   0.156   3.023   1.690 -0.3569  0.0731  0.0424
 1465Sol     OW 8899   2.158   0.486   7.143 -0.3789 -0.3723 -0.6426
 1465Sol     HW 8900   2.150   0.576   7.175 -0.3554 -1.7386  3.3619
 1465Sol     HW 8901   2.070   0.449   7.152  0.2988 -1.6906  0.7543
 1465Sol     MW 8902   2.150   0.491   7.146  0.2378 -0.2058  0.0507
 1466Sol     OW 8903   2.442   3.206   5.866  0.2840 -0.4953  0.4685
 1466Sol     HW 8904   2.355   3.245   5.873 -0.9159 -2.5335 -2.0735
 1466Sol     HW 8905   2.430   3.116   5.897  0.8907 -1.5157 -2.1350
 1466Sol     MW 8906   2.433   3.201   5.869 -0.5472 -0.3243  0.5600
 1467Sol     OW 8907   0.821   0.386   9.050  0.1971 -0.3532 -0.2559
 1467Sol     HW 8908   0.866   0.313   9.093  1.0117  0.7163  0.7227
 1467Sol     HW 8909   0.730   0.356   9.043  0.0208 -0.5398  2.2923
 1467Sol     MW 8910   0.817   0.377   9.053 -0.4211  0.2567 -0.4583
 1468Sol     OW 8911   2.201   2.361   7.776  0.5365  0.1681 -0.2832
 1468Sol     HW 8912   2.265   2.297   7.744 -0.4234 -0.5286 -0.8644
 1468Sol     HW 8913   2.193   2.342   7.869  3.3116  2.1691  0.4268
 1468Sol     MW 8914   2.206   2.353   7.781 -1.2746 -0.5997  0.4378
 1469Sol     OW 8915   2.921   1.687   8.089 -0.4589 -0.7395  0.3724
 1469Sol     HW 8916   2.830   1.718   8.081 -0.4362 -0.8440 -0.3380
 1469Sol     HW 8917   2.916   1.593   8.071 -0.2139 -0.7493  0.3526
 1469Sol     MW 8918   2.912   1.682   8.087 -0.0818  0.4395 -0.3175
 1470Sol     OW 8919   1.277   1.261   3.134 -0.1478  0.1441  0.0172
 1470Sol     HW 8920   1.359   1.226   3.099  1.8743  0.9483  3.7745
 1470Sol     HW 8921   1.291   1.355   3.140 -1.0992  0.2166  1.3277
 1470Sol     MW 8922   1.285   1.266   3.131  0.1939  0.6152 -0.6065
 1471Sol     OW 8923   2.589   1.060   7.068 -0.2315 -0.0520 -0.5628
 1471Sol     HW 8924   2.581   1.093   7.158  0.3484 -1.3336 -0.0271
 1471Sol     HW 8925   2.555   0.971   7.072  0.4590 -0.3658 -1.4541
 1471Sol     MW 8926   2.585   1.055   7.077 -0.3287  0.5033 -0.3039
 1472Sol     OW 8927   1.596   3.249   8.384 -0.5351 -0.3233  0.5074
 1472Sol     HW 8928   1.636   3.307   8.449  0.6069 -0.4160 -0.1002
 1472Sol     HW 8929   1.507   3.234   8.417 -0.0594 -0.1581  1.9016
 1472Sol     MW 8930   1.591   3.253   8.393 -0.2448  0.5593 -0.0871
 1473Sol     OW 8931   2.919   1.350   2.551 -0.3483  0.7385 -0.0544
 1473Sol     HW 8932   2.942   1.264   2.516  0.9827  0.5720  1.1742
 1473Sol     HW 8933   2.825   1.360   2.532 -0.6753 -1.2844  0.4364
 1473Sol     MW 8934   2.913   1.343   2.546  0.0094  0.0055  0.4154
 1474Sol     OW 8935   0.906   0.140   2.896 -0.2414  0.1084 -0.0656
 1474Sol     HW 8936   0.918   0.063   2.840 -1.3434 -0.4265  0.4231
 1474Sol     HW 8937   0.826   0.122   2.944  2.0290 -0.6450  3.6400
 1474Sol     MW 8938   0.900   0.131   2.895  0.5203 -0.2683  0.4360
 1475Sol     OW 8939   0.487   0.216   1.735  0.2637  0.3896 -0.1195
 1475Sol     HW 8940   0.548   0.195   1.665  0.5430 -1.5391  0.6803
 1475Sol     HW 8941   0.531   0.284   1.786  0.0112  1.8784 -1.8543
 1475Sol     MW 8942   0.496   0.220   1.733 -0.1960  0.0851 -0.2095
 1476Sol     OW 8943   1.209   1.095   8.014 -0.0835 -0.3702 -0.2964
 1476Sol     HW 8944   1.129   1.043   8.016 -1.1930  1.3188  0.1441
 1476Sol     HW 8945   1.242   1.092   8.104 -1.1153  1.1356  0.1475
 1476Sol     MW 8946   1.205   1.090   8.022 -0.9637 -0.5294 -0.1387
 1477Sol     OW 8947   0.114   1.102   6.966  0.0807  0.7638  0.3173
 1477Sol     HW 8948   0.188   1.135   7.017  2.6280 -0.7021 -2.3240
 1477Sol     HW 8949   0.076   1.180   6.925  0.3622  1.4673  1.3762
 1477Sol     MW 8950   0.117   1.112   6.967 -0.3830 -0.1749  0.4623
 1478Sol     OW 8951   1.976   0.009   7.847  0.3139 -0.0962 -0.0815
 1478Sol     HW 8952   1.923   0.066   7.902  1.5070  1.1879 -0.2229
 1478Sol     HW 8953   2.017  -0.052   7.909  0.4557  0.3652  0.2841
 1478Sol     MW 8954   1.975   0.009   7.858  0.3750 -0.1617  0.0820
 1479Sol     OW 8955   0.024   3.276   4.077 -0.1076 -0.1571 -0.0322
 1479Sol     HW 8956   0.063   3.201   4.032 -0.6101  0.6184 -1.8180
 1479Sol     HW 8957   0.084   3.295   4.149 -0.2558 -2.5780  0.7420
 1479Sol     MW 8958   0.033   3.271   4.079 -0.2310 -0.5456  0.1821
 1480Sol     OW 8959   0.252   0.743   3.316 -0.0006 -0.2959 -0.4297
 1480Sol     HW 8960   0.181   0.742   3.252 -1.0494 -0.8008  0.7407
 1480Sol     HW 8961   0.258   0.835   3.343 -0.3671 -0.2936 -0.3533
 1480Sol     MW 8962   0.246   0.751   3.312  0.4732 -0.3025 -0.8278
 1481Sol     OW 8963   0.202   1.051   7.393 -0.3002 -0.3379  0.5653
 1481Sol     HW 8964   0.225   1.016   7.479 -0.5989 -0.2099  0.7013
 1481Sol     HW 8965   0.248   0.996   7.330 -0.8628 -1.0437  0.7687
 1481Sol     MW 8966   0.208   1.043   7.395 -1.0082  0.5227 -0.1537
 1482Sol     OW 8967   0.186   1.808   7.259  0.3818  0.4019 -0.2644
 1482Sol     HW 8968   0.203   1.715   7.245  1.3301  0.3668  1.0075
 1482Sol     HW 8969   0.248   1.853   7.200 -0.6802  0.2416 -1.5288
 1482Sol     MW 8970   0.193   1.804   7.252 -0.5731 -0.7827  0.6209
 1483Sol     OW 8971   1.042   1.517   7.072  0.2251 -0.1520  0.0486
 1483Sol     HW 8972   0.984   1.461   7.019 -0.2767 -0.1750  0.6139
 1483Sol     HW 8973   0.983   1.580   7.114  0.6034 -0.2180  0.6871
 1483Sol     MW 8974   1.031   1.518   7.071 -0.0691 -0.5464  0.2154
 1484Sol     OW 8975   1.611   2.689   3.870  0.2742  0.1435  0.2014
 1484Sol     HW 8976   1.654   2.619   3.919  1.6791 -0.0894 -1.3100
 1484Sol     HW 8977   1.633   2.769   3.918  0.8485 -0.1751  0.4802
 1484Sol     MW 8978   1.617   2.690   3.879  0.4374  0.2621  0.2612
 1485Sol     OW 8979   2.247   3.226   3.790  0.2637  0.4358 -0.3056
 1485Sol     HW 8980   2.289   3.174   3.857  0.9230  0.0785 -0.9835
 1485Sol     HW 8981   2.189   3.165   3.744 -1.0812  0.9442  0.6800
 1485Sol     MW 8982   2.245   3.216   3.792 -0.0283 -0.0638 -0.5623
 1486Sol     OW 8983   0.010   1.718   2.671  0.1093  0.4631 -0.0434
 1486Sol     HW 8984   0.008   1.665   2.591  0.9353  0.3981 -0.0214
 1486Sol     HW 8985   0.030   1.656   2.741  0.0681  0.6357  0.1233
 1486Sol     MW 8986   0.011   1.708   2.670  0.1227 -0.9629  0.1436
 1487Sol     OW 8987   0.955   2.731   1.663 -0.1807  0.1866  0.3031
 1487Sol     HW 8988   0.935   2.641   1.689 -2.2330  0.4483 -0.2602
 1487Sol     HW 8989   0.941   2.783   1.742 -2.7704  0.4807 -0.2786
 1487Sol     MW 8990   0.952   2.727   1.672 -0.1606 -0.4008  1.0769
 1488Sol     OW 8991   2.415   3.029   1.730  0.3869 -0.1809  0.0431
 1488Sol     HW 8992   2.361   3.107   1.718  0.4998 -0.4050 -2.2104
 1488Sol     HW 8993   2.352   2.958   1.741  0.1794 -0.3571 -2.0185
 1488Sol     MW 8994   2.405   3.030   1.730 -0.5029  0.1218 -0.0922
 1489Sol     OW 8995   0.776   1.140   3.792  0.4334 -0.0671 -0.0056
 1489Sol     HW 8996   0.718   1.180   3.857 -0.1129 -1.0994  0.1627
 1489Sol     HW 8997   0.726   1.145   3.710  0.2197 -0.7053  0.0839
 1489Sol     MW 8998   0.766   1.144   3.790  0.1314 -1.0869  0.7820
 1490Sol     OW 8999   0.855   2.417   7.996 -0.2493  0.4693  0.0517
 1490Sol     HW 9000   0.836   2.450   7.908  0.9922 -2.7380 -1.4946
 1490Sol     HW 9001   0.947   2.439   8.010  0.2157 -1.1077 -0.4525
 1490Sol     MW 9002   0.861   2.422   7.989 -0.0873 -0.5349  0.4851
 1491Sol     OW 9003   0.954   2.159   1.565 -0.2491  0.0744  0.3533
 1491Sol     HW 9004   0.863   2.188   1.556 -0.7975 -1.8445 -0.5038
 1491Sol     HW 9005   0.948   2.073   1.606  1.1941 -0.0534  0.3325
 1491Sol     MW 9006   0.945   2.154   1.568  0.7173 -0.4521  0.4887
 1492Sol     OW 9007   1.286   1.611   8.567 -0.2198 -0.5982 -0.2088
 1492Sol     HW 9008   1.199   1.621   8.528 -0.6128 -0.2030  0.7727
 1492Sol     HW 9009   1.285   1.669   8.643  1.0977 -0.1544 -0.5185
 1492Sol     MW 9010   1.278   1.617   8.570 -0.3339 -0.3933  0.4144
 1493Sol     OW 9011   0.705   1.627   5.744  0.2806 -0.7021  0.5944
 1493Sol     HW 9012   0.753   1.579   5.811  0.6041  2.0143  2.3626
 1493Sol     HW 9013   0.772   1.657   5.683  0.7349  1.7551  2.2238
 1493Sol     MW 9014   0.715   1.626   5.744 -0.5776  0.6143  0.2603
 1494Sol     OW 9015   1.158   1.522   2.014  0.3388  0.0378  0.5200
 1494Sol     HW 9016   1.138   1.589   1.948 -0.0100 -0.5288  0.0351
 1494Sol     HW 9017   1.201   1.569   2.085  1.8852  0.4542 -0.6737
 1494Sol     MW 9018   1.160   1.532   2.014  0.1700  0.2631 -0.5370
 1495Sol     OW 9019   0.103   0.152   6.728  0.0443 -0.0284 -0.1760
 1495Sol     HW 9020   0.068   0.241   6.728 -0.8131 -0.3508 -1.2432
 1495Sol     HW 9021   0.025   0.096   6.721  0.6548 -0.8094 -0.8279
 1495Sol     MW 9022   0.093   0.155   6.727  0.2656  0.5498 -0.2792
 1496Sol     OW 9023   1.783   0.955   3.169  0.1675  0.0924  0.7611
 1496Sol     HW 9024   1.771   1.009   3.248 -3.0342  0.3623  0.1647
 1496Sol     HW 9025   1.787   1.018   3.097 -0.9520 -0.3140  0.3259
 1496Sol     MW 9026   1.782   0.966   3.170  0.0131 -0.0966  0.4889
 1497Sol     OW 9027   2.255   2.403   1.661 -0.0172  0.1978  0.2292
 1497Sol     HW 9028   2.197   2.366   1.594 -0.7445 -1.6666  1.8057
 1497Sol     HW 9029   2.224   2.493   1.672 -1.3084 -0.1474 -0.3959
 1497Sol     MW 9030   2.247   2.408   1.656  0.4932 -0.0348  0.2537
 1498Sol     OW 9031   1.570   0.633   8.734 -0.3260  0.2376 -0.1417
 1498Sol     HW 9032   1.543   0.608   8.646  1.2414  2.0773 -1.1659
 1498Sol     HW 9033   1.581   0.549   8.780 -1.9520 -0.7137 -1.4186
 1498Sol     MW 9034   1.568   0.623   8.731 -0.6545  0.0817 -0.4467
 1499Sol     OW 9035   2.026   0.973   7.604 -0.3160 -0.4911  0.3633
 1499Sol     HW 9036   1.993   0.924   7.528  1.2788 -1.3558  0.2115
 1499Sol     HW 9037   2.095   0.918   7.640  1.9143  1.9042 -0.1328
 1499Sol     MW 9038   2.029   0.963   7.600 -0.7773 -0.4542 -0.0960
 1500Sol     OW 9039   2.171   0.208   5.631 -0.2426  0.1058  0.3334
 1500Sol     HW 9040   2.115   0.130   5.627 -1.2016  0.8165 -0.0937
 1500Sol     HW 9041   2.112   0.282   5.620  0.8112  0.8589 -0.4214
 1500Sol     MW 9042   2.161   0.207   5.629  0.8337 -0.6066  0.0640
 1501Sol     OW 9043   1.479   0.299   1.465 -0.2507 -0.4313 -0.5820
 1501Sol     HW 9044   1.557   0.268   1.419 -0.1377 -0.6272 -0.2634
 1501Sol     HW 9045   1.442   0.366   1.407  0.6777  0.3435 -0.3022
 1501Sol     MW 9046   1.483   0.302   1.456  0.2429 -0.0891  0.3505
 1502Sol     OW 9047   2.338   2.510   8.320 -0.5561  0.6143  0.3703
 1502Sol     HW 9048   2.356   2.596   8.283  1.2552 -1.0303 -2.7647
 1502Sol     HW 9049   2.417   2.489   8.371  0.9437 -0.9851 -2.4922
 1502Sol     MW 9050   2.347   2.516   8.322 -0.1758 -0.2617  0.0399
 1503Sol     OW 9051   1.364   3.157   7.608  0.4728 -0.0638  1.0014
 1503Sol     HW 9052   1.340   3.114   7.690 -0.6196 -0.3287  0.5438
 1503Sol     HW 9053   1.311   3.114   7.541  1.0613  0.4233  0.2122
 1503Sol     MW 9054   1.357   3.150   7.609 -0.0934 -0.7499  0.4298
 1504Sol     OW 9055   1.645   1.550   6.837  0.2316  0.6591  0.3548
 1504Sol     HW 9056   1.663   1.611   6.766  3.4373  0.0532  0.5774
 1504Sol     HW 9057   1.664   1.600   6.917  0.6688  0.0955  0.6142
 1504Sol     MW 9058   1.649   1.560   6.838 -0.4552  1.2173 -0.3202
 1505Sol     OW 9059   0.626   0.027   8.433 -0.2350  0.8273  0.3834
 1505Sol     HW 9060   0.559   0.068   8.487 -0.5918  0.1278  0.4770
 1505Sol     HW 9061   0.600  -0.065   8.428  1.0974  0.4020  1.0054
 1505Sol     MW 9062   0.618   0.023   8.437 -0.1251 -0.7607  0.1204
 1506Sol     OW 9063   2.813   0.330   2.372  0.3156 -0.1001  0.3442
 1506Sol     HW 9064   2.771   0.274   2.307  0.5997 -0.2504  0.2906
 1506Sol     HW 9065   2.905   0.304   2.371  0.7286  1.3002 -0.6706
 1506Sol     MW 9066   2.817   0.323   2.366  0.3707 -0.5456 -0.1963
 1507Sol     OW 9067   1.959   1.657   7.999  0.5703  0.1065 -0.1582
 1507Sol     HW 9068   1.984   1.699   7.917  1.4882 -0.5359 -0.2160
 1507Sol     HW 9069   1.913   1.725   8.048 -0.2684  0.4091 -1.3330
 1507Sol     MW 9070   1.957   1.666   7.996 -0.3615  0.6866 -0.0881
 1508Sol     OW 9071   1.005   2.410   3.074  0.3833 -0.2128  0.0352
 1508Sol     HW 9072   0.934   2.384   3.016  1.6264  1.0530 -2.1112
 1508Sol     HW 9073   1.030   2.498   3.044  2.1136 -0.1866  1.4537
 1508Sol     MW 9074   1.001   2.416   3.066 -0.4685  0.3469 -0.0782
 1509Sol     OW 9075   1.467   1.351   3.376  0.2143  0.1518  0.0812
 1509Sol     HW 9076   1.531   1.375   3.443 -0.7047  1.4409  0.5245
 1509Sol     HW 9077   1.500   1.392   3.296  1.5815 -1.8126 -0.3956
 1509Sol     MW 9078   1.476   1.357   3.375  0.1605 -0.3855  0.0698
 1510Sol     OW 9079   0.523   1.815   5.825  0.4777  0.1106  0.2899
 1510Sol     HW 9080   0.457   1.755   5.789 -0.3458  0.6019  0.9577
 1510Sol     HW 9081   0.607   1.771   5.809  0.0066 -0.4565 -0.6947
 1510Sol     MW 9082   0.525   1.806   5.820  0.0358  0.1663 -0.7532
 1511Sol     OW 9083   3.192   1.545   4.374 -0.1974  0.5296 -0.2251
 1511Sol     HW 9084   3.120   1.606   4.358  0.3895  1.0930 -0.7896
 1511Sol     HW 9085   3.151   1.459   4.376 -1.0674  0.9611  0.8227
 1511Sol     MW 9086   3.182   1.543   4.372  0.5966 -0.6697 -0.2554
 1512Sol     OW 9087   0.255   2.193   4.959  0.3188 -0.2967 -0.5354
 1512Sol     HW 9088   0.184   2.174   5.020  1.0028 -0.9410  0.0764
 1512Sol     HW 9089   0.218   2.258   4.899 -0.2685  0.5913  0.7489
 1512Sol     MW 9090   0.245   2.197   4.959  0.2669 -0.1325  0.0931
 1513Sol     OW 9091   2.888   2.846   8.331  0.1178 -0.0853  0.1353
 1513Sol     HW 9092   2.813   2.868   8.275 -0.2677 -1.3729  0.1303
 1513Sol     HW 9093   2.920   2.763   8.296  1.9058  0.7258 -0.2006
 1513Sol     MW 9094   2.884   2.841   8.323 -0.0485  0.4571 -0.0027
 1514Sol     OW 9095   0.046   2.564   1.936 -0.3574 -0.4523  0.2080
 1514Sol     HW 9096   0.023   2.631   2.000  2.2043 -0.1750  0.9150
 1514Sol     HW 9097   0.028   2.603   1.851 -1.5482  0.0772  0.7012
 1514Sol     MW 9098   0.043   2.573   1.934 -0.5195 -0.2487 -0.4227
 1515Sol     OW 9099   0.475   1.685   7.649 -0.2509 -0.3739 -0.4758
 1515Sol     HW 9100   0.381   1.683   7.671 -1.1357 -1.2516 -4.0812
 1515Sol     HW 9101   0.498   1.593   7.637  1.4052 -0.2450  1.4346
 1515Sol     MW 9102   0.468   1.676   7.650  0.1253  0.1848 -0.3859
 1516Sol     OW 9103   0.255   1.030   3.374 -0.2114  0.5658 -0.0942
 1516Sol     HW 9104   0.227   1.082   3.449  0.7290 -1.0663  1.4145
 1516Sol     HW 9105   0.345   1.057   3.358 -0.0219  0.0550  0.1124
 1516Sol     MW 9106   0.260   1.037   3.379 -0.3873  0.4829  0.3009
 1517Sol     OW 9107   3.377   1.012   7.130  0.1224  0.5236  0.1227
 1517Sol     HW 9108   3.291   1.007   7.171  1.0150 -0.4939  1.9267
 1517Sol     HW 9109   3.382   1.102   7.097 -2.1691  0.1742 -1.2687
 1517Sol     MW 9110   3.370   1.020   7.131 -0.5922  0.2608  0.1846
 1518Sol     OW 9111   2.601   0.558   7.879 -0.4130 -0.2372 -0.9216
 1518Sol     HW 9112   2.600   0.463   7.890 -2.2509  0.1410  2.9584
 1518Sol     HW 9113   2.693   0.582   7.889 -0.0533 -1.5130 -1.0364
 1518Sol     MW 9114   2.609   0.551   7.881  0.0873  0.3431  0.2355
 1519Sol     OW 9115   0.624   2.447   4.700  0.3598  0.0608 -0.6704
 1519Sol     HW 9116   0.620   2.359   4.663  0.4869 -0.2708  0.0971
 1519Sol     HW 9117   0.694   2.491   4.651  2.4055 -1.2410  0.9951
 1519Sol     MW 9118   0.630   2.443   4.692  0.3681  0.2232 -0.2461
 1520Sol     OW 9119   3.503   1.685   1.147 -0.5567  0.5826 -0.6142
 1520Sol     HW 9120   3.486   1.775   1.120  0.8928  1.2053  0.5236
 1520Sol     HW 9121   3.597   1.672   1.130  0.4069  0.9348  3.8404
 1520Sol     MW 9122   3.510   1.692   1.143 -0.1452 -0.0943 -0.1255
 1521Sol     OW 9123   3.147   1.707   7.240  0.0188  0.1700 -0.0064
 1521Sol     HW 9124   3.112   1.633   7.290 -1.3634  0.3032 -0.7664
 1521Sol     HW 9125   3.076   1.770   7.236  0.7780  1.0101 -0.4330
 1521Sol     MW 9126   3.138   1.706   7.244 -0.3370  0.8992  0.0069
 1522Sol     OW 9127   0.201   2.595   3.374  0.2963  0.0316  0.9737
 1522Sol     HW 9128   0.165   2.661   3.434 -2.5160  1.7753 -2.4124
 1522Sol     HW 9129   0.287   2.629   3.349  1.3553 -0.5564  3.6953
 1522Sol     MW 9130   0.205   2.604   3.377  0.0535  0.2573 -0.4096
 1523Sol     OW 9131   2.612   2.929   7.128  0.7294  0.6604  0.0453
 1523Sol     HW 9132   2.547   2.877   7.176  1.7806 -0.4497  0.2794
 1523Sol     HW 9133   2.690   2.874   7.127  1.4776  1.7371 -0.7738
 1523Sol     MW 9134   2.613   2.919   7.132  0.5429 -1.4173 -0.0497
 1524Sol     OW 9135   1.782   2.145   7.514 -0.6984  0.4255  0.7495
 1524Sol     HW 9136   1.781   2.070   7.574 -0.5472 -0.7838 -0.7205
 1524Sol     HW 9137   1.858   2.195   7.540  1.4506 -1.9760 -0.6477
 1524Sol     MW 9138   1.789   2.142   7.522 -0.7008 -0.1520  0.3419
 1525Sol     OW 9139   2.378   2.554   4.589 -0.1342  0.2810 -0.1503
 1525Sol     HW 9140   2.305   2.532   4.647 -1.5938  1.0993 -1.6299
 1525Sol     HW 9141   2.363   2.645   4.566 -0.1387 -0.3027 -2.5836
 1525Sol     MW 9142   2.370   2.560   4.592 -0.7328  0.8474  0.6767
 1526Sol     OW 9143   2.250   0.444   1.268  0.0227 -0.5635 -0.6580
 1526Sol     HW 9144   2.240   0.538   1.283  1.2163 -0.7835  1.7712
 1526Sol     HW 9145   2.178   0.422   1.208  0.1784  2.0001 -1.8789
 1526Sol     MW 9146   2.242   0.450   1.264  0.7546 -0.4532  0.1905
 1527Sol     OW 9147   1.367   0.344   7.341 -0.3530  0.1606  0.3937
 1527Sol     HW 9148   1.313   0.362   7.264 -0.7064 -0.1191  0.5744
 1527Sol     HW 9149   1.323   0.271   7.385  0.8234 -0.8456 -0.0882
 1527Sol     MW 9150   1.358   0.339   7.338 -0.1456 -0.1781  0.0734
 1528Sol     OW 9151   1.867   2.798   7.430  0.1921  0.4068 -0.4886
 1528Sol     HW 9152   1.791   2.793   7.371  0.0963  0.8718 -0.4033
 1528Sol     HW 9153   1.833   2.839   7.509  0.2432 -0.5448  0.0263
 1528Sol     MW 9154   1.857   2.801   7.432  0.0781  0.2426 -0.3650
 1529Sol     OW 9155   1.126   0.855   3.061 -0.3725  0.2288 -0.3456
 1529Sol     HW 9156   1.038   0.818   3.065 -0.0042 -0.6298  0.1736
 1529Sol     HW 9157   1.164   0.834   3.147 -0.3996  2.4875  0.2611
 1529Sol     MW 9158   1.122   0.850   3.069  0.2189 -0.3006  0.1125
 1530Sol     OW 9159   3.219   1.880   3.497 -0.4217 -0.3494 -0.4992
 1530Sol     HW 9160   3.165   1.957   3.511 -1.2718 -0.8085 -1.2252
 1530Sol     HW 9161   3.242   1.883   3.404  0.8121 -0.1617 -0.2047
 1530Sol     MW 9162   3.216   1.887   3.490  0.2908  0.6842  0.1485
 1531Sol     OW 9163   1.562   0.155   3.029  0.0725  0.0258  0.3837
 1531Sol     HW 9164   1.508   0.087   2.989  1.7030 -1.4814  0.7208
 1531Sol     HW 9165   1.600   0.203   2.956 -0.1445 -0.1514  0.1554
 1531Sol     MW 9166   1.560   0.153   3.019  0.4113  0.1117 -0.2229
 1532Sol     OW 9167   2.228   3.367   6.380 -0.1142  0.1284  0.4170
 1532Sol     HW 9168   2.306   3.321   6.349 -0.4654 -1.0618  1.2765
 1532Sol     HW 9169   2.230   3.451   6.334 -0.0314 -1.1324 -1.9540
 1532Sol     MW 9170   2.236   3.371   6.373 -0.3865  0.9194 -0.2668
 1533Sol     OW 9171   1.156   0.102   4.563 -0.1018  0.8620  0.0619
 1533Sol     HW 9172   1.228   0.159   4.590 -0.5758  0.4160  2.4543
 1533Sol     HW 9173   1.086   0.123   4.624 -0.5132 -1.7826  0.5494
 1533Sol     MW 9174   1.156   0.109   4.571 -0.0370  0.0260  0.6944
 1534Sol     OW 9175   1.077   2.149   4.034  0.3718 -0.4328  0.2368
 1534Sol     HW 9176   1.106   2.058   4.043 -2.0488 -1.3236 -0.6958
 1534Sol     HW 9177   1.148   2.192   3.985  1.4864 -1.7976  0.6195
 1534Sol     MW 9178   1.086   2.145   4.031 -0.5805  0.1309 -0.2494
 1535Sol     OW 9179   3.217   3.109   8.587  0.0673  0.2547 -0.4168
 1535Sol     HW 9180   3.174   3.051   8.524  2.1384 -0.6569 -1.0579
 1535Sol     HW 9181   3.182   3.196   8.569  0.6053  0.0051 -2.8406
 1535Sol     MW 9182   3.210   3.111   8.580 -0.2508 -0.9634  0.3276
 1536Sol     OW 9183   3.045   0.805   1.747 -0.7036  0.2923  0.2751
 1536Sol     HW 9184   3.039   0.830   1.654  0.9954 -0.5346 -0.0757
 1536Sol     HW 9185   3.001   0.720   1.751 -1.9598  0.9365  0.5001
 1536Sol     MW 9186   3.040   0.800   1.739  0.3056  0.2126 -0.2740
 1537Sol     OW 9187   3.467   1.971   4.442  0.5938  0.2795  0.4454
 1537Sol     HW 9188   3.530   2.037   4.471  1.3189  0.4282 -1.3879
 1537Sol     HW 9189   3.495   1.949   4.353 -1.8470  0.2491 -0.3540
 1537Sol     MW 9190   3.475   1.975   4.436 -0.4954  0.4243  0.5096
 1538Sol     OW 9191   2.784   2.663   2.770 -0.0735 -0.1389  0.0096
 1538Sol     HW 9192   2.847   2.705   2.829  0.1326 -0.3436 -0.0653
 1538Sol     HW 9193   2.838   2.607   2.713 -0.2196  0.4194 -0.6886
 1538Sol     MW 9194   2.795   2.662   2.770  0.2943  0.3670 -0.2107
 1539Sol     OW 9195   0.172   2.684   4.388 -0.4790  0.4620 -0.4378
 1539Sol     HW 9196   0.101   2.746   4.372 -0.7035  0.6280  1.1380
 1539Sol     HW 9197   0.179   2.634   4.307 -1.7608  1.0718 -0.9382
 1539Sol     MW 9198   0.167   2.685   4.380  0.7586 -0.0842 -0.2676
 1540Sol     OW 9199   1.298   1.035   6.893  0.1469 -0.1734 -0.4380
 1540Sol     HW 9200   1.346   0.987   6.825  2.9929  0.9642  0.7084
 1540Sol     HW 9201   1.297   1.125   6.863  1.3970  0.3342  1.0020
 1540Sol     MW 9202   1.302   1.038   6.884  0.5332 -0.0187  0.0604
 1541Sol     OW 9203   2.776   0.143   5.824 -0.2831  0.6861 -0.0306
 1541Sol     HW 9204   2.816   0.094   5.896 -1.1670 -0.3218 -0.2179
 1541Sol     HW 9205   2.821   0.228   5.825 -0.4570  0.7806  1.8735
 1541Sol     MW 9206   2.784   0.146   5.831 -0.2905  0.1834  0.0434
 1542Sol     OW 9207   2.715   2.965   3.191 -0.2565 -0.0116 -0.0647
 1542Sol     HW 9208   2.736   2.898   3.256 -2.1751 -1.5237 -0.9582
 1542Sol     HW 9209   2.662   3.029   3.238 -1.2556 -0.8641 -0.0218
 1542Sol     MW 9210   2.712   2.965   3.201  0.0263 -0.1518  0.5584
 1543Sol     OW 9211   1.707   2.432   3.043 -0.2593 -0.0929 -0.1492
 1543Sol     HW 9212   1.628   2.476   3.013  0.9200  1.0967 -1.5918
 1543Sol     HW 9213   1.712   2.352   2.991  0.8023  1.0645 -1.8623
 1543Sol     MW 9214   1.700   2.429   3.036  0.4923  0.1464  0.3239
 1544Sol     OW 9215   2.262   3.191   4.483 -0.1069  1.0139  0.1254
 1544Sol     HW 9216   2.168   3.203   4.478 -0.5655 -1.2495  2.3633
 1544Sol     HW 9217   2.283   3.134   4.409 -0.7740  0.1211  0.6107
 1544Sol     MW 9218   2.256   3.187   4.476  0.2502  0.4312  0.1734
 1545Sol     OW 9219   2.034   1.212   5.479 -0.1502 -0.2841 -0.3878
 1545Sol     HW 9220   1.962   1.151   5.493 -1.3307  0.9940 -0.7367
 1545Sol     HW 9221   2.112   1.164   5.505 -1.1628 -1.5948  0.2714
 1545Sol     MW 9222   2.034   1.202   5.482 -0.1858 -0.7179 -0.2415
 1546Sol     OW 9223   0.361   0.894   7.204 -0.2602  0.0207 -0.0220
 1546Sol     HW 9224   0.430   0.894   7.269  0.4738  0.1965 -0.7910
 1546Sol     HW 9225   0.406   0.879   7.121 -1.2637 -0.9868 -0.4008
 1546Sol     MW 9226   0.371   0.893   7.202 -0.1074  0.3570  0.2708
 1547Sol     OW 9227   3.483   1.208   2.124  0.8730 -0.1487 -0.2098
 1547Sol     HW 9228   3.438   1.124   2.115  1.2745 -0.5040  1.0148
 1547Sol     HW 9229   3.575   1.188   2.106  1.1295 -0.1791  1.1048
 1547Sol     MW 9230   3.487   1.198   2.122 -0.1238  0.1119  0.4878
 1548Sol     OW 9231   3.118   0.507   2.076 -0.2574  0.1825  0.0939
 1548Sol     HW 9232   3.204   0.471   2.055 -0.0652  1.8522 -2.0419
 1548Sol     HW 9233   3.067   0.496   1.997 -1.2702  1.4197  0.5595
 1548Sol     MW 9234   3.121   0.502   2.067 -0.3056  0.6919 -0.2550
 1549Sol     OW 9235   2.116   1.140   4.398 -0.5215 -0.1031 -0.2730
 1549Sol     HW 9236   2.121   1.210   4.463 -0.4839 -0.5328  0.1882
 1549Sol     HW 9237   2.207   1.118   4.380 -0.5307  0.0598 -0.5194
 1549Sol     MW 9238   2.125   1.144   4.402 -0.3107  0.0234 -0.8412
 1550Sol     OW 9239   1.965   2.075   3.259  0.4489  0.0516  0.2281
 1550Sol     HW 9240   2.019   2.000   3.281 -1.0620 -1.0757  0.1600
 1550Sol     HW 9241   2.007   2.115   3.183  1.1286 -0.8436  0.1383
 1550Sol     MW 9242   1.974   2.072   3.254 -0.5000  0.3530  0.5606
 1551Sol     OW 9243   3.547   0.474   3.610  0.0061 -0.0580  0.3361
 1551Sol     HW 9244   3.474   0.448   3.555  0.3947 -0.7840  0.1552
 1551Sol     HW 9245   3.623   0.476   3.551 -0.0520  1.7623  0.2844
 1551Sol     MW 9246   3.548   0.472   3.600  0.1079  0.5030 -0.0892
 1552Sol     OW 9247   2.499   3.119   5.608  0.8602 -0.3769  0.1834
 1552Sol     HW 9248   2.412   3.143   5.577  0.1276 -2.1632  0.7700
 1552Sol     HW 9249   2.515   3.177   5.683  0.4914  0.4596 -0.3842
 1552Sol     MW 9250   2.492   3.127   5.612 -0.4957  0.0578 -0.0975
 1553Sol     OW 9251   1.730   0.782   7.306  0.5705  0.5379  0.1601
 1553Sol     HW 9252   1.728   0.691   7.277  2.4212  0.4395  0.3183
 1553Sol     HW 9253   1.655   0.789   7.365  0.0723 -0.7225 -0.2921
 1553Sol     MW 9254   1.723   0.775   7.309  0.1750 -0.3130 -0.3398
 1554Sol     OW 9255   3.409   1.475   4.790  0.0753 -0.0946  0.2359
 1554Sol     HW 9256   3.383   1.403   4.732  1.2878 -0.5119  0.1743
 1554Sol     HW 9257   3.408   1.553   4.733  1.9405 -0.6154 -0.5730
 1554Sol     MW 9258   3.407   1.476   4.779 -0.0406 -0.1156 -0.3927
 1555Sol     OW 9259   1.689   0.045   8.559  0.8284  0.0769  0.0759
 1555Sol     HW 9260   1.632   0.113   8.596  0.8238  0.2804 -0.3002
 1555Sol     HW 9261   1.778   0.075   8.578  0.8062 -0.5391  1.1886
 1555Sol     MW 9262   1.692   0.054   8.564  0.1566 -0.1624  0.5332
 1556Sol     OW 9263   0.740   2.551   6.453 -0.4104  0.0797 -0.0424
 1556Sol     HW 9264   0.776   2.492   6.520 -1.1298  0.3138  0.5554
 1556Sol     HW 9265   0.803   2.624   6.449 -0.6771  0.3580  0.8070
 1556Sol     MW 9266   0.749   2.552   6.459  0.2037  0.2676 -0.0203
 1557Sol     OW 9267   1.556   1.721   4.105 -0.4560  0.5782  1.1174
 1557Sol     HW 9268   1.605   1.748   4.182  0.9258 -0.4573  0.6118
 1557Sol     HW 9269   1.580   1.630   4.091 -0.2197  0.9068 -0.8648
 1557Sol     MW 9270   1.562   1.716   4.111  0.4100 -0.4369  0.7198
 1558Sol     OW 9271   1.377   0.251   4.612  0.5503  0.1627  0.2857
 1558Sol     HW 9272   1.466   0.271   4.583  0.9760 -0.3758  1.1877
 1558Sol     HW 9273   1.357   0.319   4.676  0.2804  0.3236  0.0341
 1558Sol     MW 9274   1.383   0.259   4.615 -0.4952  0.4260 -0.6683
 1559Sol     OW 9275   0.672   0.848   5.252 -0.4093  0.2904  0.0681
 1559Sol     HW 9276   0.755   0.819   5.213 -0.4565  0.0950  0.1089
 1559Sol     HW 9277   0.633   0.906   5.186 -1.6362 -1.9280 -1.2362
 1559Sol     MW 9278   0.676   0.850   5.242  0.1648  0.1480 -0.4027
 1560Sol     OW 9279   3.556   2.548   5.874 -0.6535  0.6095  0.1223
 1560Sol     HW 9280   3.578   2.641   5.885 -0.2352  0.6090 -0.6905
 1560Sol     HW 9281   3.554   2.535   5.779 -1.6502  0.0081  0.2220
 1560Sol     MW 9282   3.558   2.556   5.866 -0.5558 -0.2359 -0.3603
 1561Sol     OW 9283   0.325   1.431   6.447  0.2302 -0.7438 -0.4263
 1561Sol     HW 9284   0.267   1.359   6.422  2.0416 -1.4302 -2.8670
 1561Sol     HW 9285   0.303   1.502   6.387 -0.7907  0.3814  1.2520
 1561Sol     MW 9286   0.318   1.431   6.440 -0.1477  0.4515  0.4924
 1562Sol     OW 9287   2.658   0.874   4.729  0.4430  0.2280 -0.3684
 1562Sol     HW 9288   2.716   0.936   4.684 -0.1318  1.0356 -0.0207
 1562Sol     HW 9289   2.670   0.792   4.683  2.0296  0.3272 -0.1668
 1562Sol     MW 9290   2.664   0.872   4.721  0.0386 -0.4186  0.0818
 1563Sol     OW 9291   3.495   1.995   1.150  0.1012  0.1265  0.4445
 1563Sol     HW 9292   3.487   2.066   1.086  0.3885 -0.0088  0.2606
 1563Sol     HW 9293   3.524   2.038   1.230 -0.8318  0.3846  0.6553
 1563Sol     MW 9294   3.497   2.005   1.152 -0.0374 -1.1383  0.2459
 1564Sol     OW 9295   2.129   0.184   3.477  0.2229 -0.0260 -0.2625
 1564Sol     HW 9296   2.062   0.239   3.517 -0.5707 -1.5901  0.5932
 1564Sol     HW 9297   2.173   0.242   3.413 -0.7215  1.5143  0.4597
 1564Sol     MW 9298   2.127   0.194   3.475 -0.4838  0.2203 -0.1799
 1565Sol     OW 9299   3.381   3.089   6.781  0.4917  0.4667  0.2482
 1565Sol     HW 9300   3.326   3.108   6.705  1.0629  0.1897 -0.2352
 1565Sol     HW 9301   3.357   3.155   6.845 -0.4044  0.3588  0.0374
 1565Sol     MW 9302   3.374   3.096   6.780 -0.0208  0.1502 -0.4194
 1566Sol     OW 9303   2.174   0.589   4.895 -0.1828  0.4802  0.3949
 1566Sol     HW 9304   2.194   0.504   4.935  0.9961  0.5163 -0.0920
 1566Sol     HW 9305   2.135   0.640   4.966 -0.4440 -0.3056  0.8227
 1566Sol     MW 9306   2.173   0.586   4.905 -0.2010 -0.5408 -0.0278
 1567Sol     OW 9307   0.790   2.607   4.324 -0.0567 -0.2916  0.2294
 1567Sol     HW 9308   0.749   2.565   4.248  2.0564  1.3368 -1.8894
 1567Sol     HW 9309   0.770   2.700   4.315  1.1057  0.0620  1.0752
 1567Sol     MW 9310   0.785   2.611   4.316 -0.0372  0.0524  0.4367
 1568Sol     OW 9311   3.439   3.003   8.497 -0.6628  0.5667 -0.1543
 1568Sol     HW 9312   3.417   2.916   8.531  1.6029  0.3483  0.8156
 1568Sol     HW 9313   3.370   3.060   8.531 -1.7958 -0.7322 -0.2580
 1568Sol     MW 9314   3.431   3.000   8.503  0.0763 -0.6425  0.7962
 1569Sol     OW 9315   2.023   2.571   7.424  0.1358  0.1893  0.2800
 1569Sol     HW 9316   1.962   2.644   7.416 -0.2505 -0.0002  1.3409
 1569Sol     HW 9317   2.098   2.608   7.470  0.6579  0.3297 -0.6853
 1569Sol     MW 9318   2.024   2.581   7.428 -0.0753  0.4698  0.4244
 1570Sol     OW 9319   2.476   0.492   1.464 -0.3605 -0.1727 -0.4553
 1570Sol     HW 9320   2.473   0.407   1.420 -2.2283 -0.3129 -0.0868
 1570Sol     HW 9321   2.396   0.537   1.436 -0.2559  0.7743  0.7051
 1570Sol     MW 9322   2.468   0.488   1.458 -0.4335 -0.1042  0.2489
 1571Sol     OW 9323   0.420   2.642   4.790  0.1787  0.3277  0.0008
 1571Sol     HW 9324   0.471   2.573   4.747 -0.6278  0.2159 -0.7734
 1571Sol     HW 9325   0.477   2.719   4.786 -0.5560  0.7751 -2.8326
 1571Sol     MW 9326   0.430   2.643   4.786  0.5624 -0.1676  0.3402
 1572Sol     OW 9327   0.703   1.423   2.884 -0.2216 -0.0226  0.4328
 1572Sol     HW 9328   0.770   1.376   2.934  0.2998  0.2144 -0.0367
 1572Sol     HW 9329   0.636   1.357   2.867  0.1898 -0.4260  0.3661
 1572Sol     MW 9330   0.703   1.413   2.887  0.2502  0.3393  0.1455
 1573Sol     OW 9331   2.411   0.542   1.952 -0.1848  0.4287  0.6450
 1573Sol     HW 9332   2.502   0.555   1.926  0.2502  0.6702  2.2543
 1573Sol     HW 9333   2.402   0.447   1.959 -0.4031  0.3401 -0.6891
 1573Sol     MW 9334   2.418   0.534   1.950  0.0510  0.3626  0.0594
 1574Sol     OW 9335   1.311   2.386   4.505 -0.3108  0.2889 -0.2834
 1574Sol     HW 9336   1.276   2.347   4.585 -0.2402 -0.0804 -0.4301
 1574Sol     HW 9337   1.319   2.479   4.525 -0.8105  0.2830 -0.0488
 1574Sol     MW 9338   1.309   2.390   4.514  0.4433  0.7360 -0.4844
 1575Sol     OW 9339   2.245   0.529   3.281  0.1386 -0.3762 -0.7278
 1575Sol     HW 9340   2.234   0.605   3.224 -0.1770 -1.8490 -2.7042
 1575Sol     HW 9341   2.157   0.491   3.287 -0.4288  1.4187  3.1930
 1575Sol     MW 9342   2.236   0.532   3.276  0.3128 -0.1890 -0.1486
 1576Sol     OW 9343   0.683   2.798   3.725  0.1839  0.4545 -0.1670
 1576Sol     HW 9344   0.674   2.728   3.789  1.9568 -1.4068 -1.8980
 1576Sol     HW 9345   0.777   2.806   3.711 -0.1971  0.3412 -3.0561
 1576Sol     MW 9346   0.691   2.793   3.730  0.0894 -0.4794 -0.9697
 1577Sol     OW 9347   1.245   1.301   8.268 -0.1385 -0.0679  0.4281
 1577Sol     HW 9348   1.230   1.328   8.359 -0.8212  0.7092  0.0986
 1577Sol     HW 9349   1.168   1.335   8.221  0.8900  0.7458 -0.6729
 1577Sol     MW 9350   1.236   1.307   8.272 -0.0736 -0.2277  0.3942
 1578Sol     OW 9351   0.928   2.244   4.643 -0.7297  0.0803 -0.1084
 1578Sol     HW 9352   0.905   2.336   4.627  0.1105  0.3153 -0.0096
 1578Sol     HW 9353   1.012   2.249   4.690 -0.7351 -0.7361 -0.0116
 1578Sol     MW 9354   0.934   2.253   4.646 -0.7403  0.0726 -0.6075
 1579Sol     OW 9355   2.398   3.215   8.565 -0.8698 -0.0822  0.0898
 1579Sol     HW 9356   2.394   3.176   8.652  3.9713  0.5420  0.7608
 1579Sol     HW 9357   2.390   3.309   8.580  0.5259  0.0701 -0.0180
 1579Sol     MW 9358   2.397   3.220   8.574  0.3093  0.2902  0.3943
 1580Sol     OW 9359   1.621   1.115   5.302 -0.8232  0.1869  0.4904
 1580Sol     HW 9360   1.547   1.066   5.336 -0.8401  1.2543  2.0378
 1580Sol     HW 9361   1.583   1.192   5.260 -0.7635 -0.8185 -1.5022
 1580Sol     MW 9362   1.611   1.118   5.301 -0.1666  0.4301  0.2406
 1581Sol     OW 9363   1.220   2.285   5.793 -0.4978  0.2386  0.1313
 1581Sol     HW 9364   1.145   2.255   5.844 -0.1635  0.0278  0.5125
 1581Sol     HW 9365   1.291   2.291   5.858  0.3909 -1.7219 -0.5988
 1581Sol     MW 9366   1.220   2.283   5.804  0.5117 -0.9041  0.1646
 1582Sol     OW 9367   2.157   0.001   1.548  0.3391 -0.2615 -0.2722
 1582Sol     HW 9368   2.221   0.028   1.483 -2.4999 -1.0482 -3.5439
 1582Sol     HW 9369   2.127   0.083   1.587 -0.0336  0.4724 -2.0550
 1582Sol     MW 9370   2.160   0.010   1.546  0.4213  0.2464  0.7994
 1583Sol     OW 9371   0.537   1.070   3.326  0.0151  0.4776  0.1018
 1583Sol     HW 9372   0.499   1.058   3.239  0.2788 -1.1531  0.2099
 1583Sol     HW 9373   0.625   1.104   3.310  0.7799 -1.6584 -0.3416
 1583Sol     MW 9374   0.541   1.072   3.317  0.8405  1.0423  0.7325
 1584Sol     OW 9375   2.472   1.260   1.271  0.0186 -0.3461 -0.2080
 1584Sol     HW 9376   2.538   1.192   1.258  3.5009  2.9346 -0.5054
 1584Sol     HW 9377   2.496   1.302   1.353 -0.5547  2.0621 -1.2046
 1584Sol     MW 9378   2.480   1.258   1.277  0.0420 -0.0988 -0.3836
 1585Sol     OW 9379   3.343   3.398   4.697 -0.0653 -0.0185 -0.0965
 1585Sol     HW 9380   3.248   3.395   4.687 -0.0897 -0.1870  0.1603
 1585Sol     HW 9381   3.357   3.387   4.791  0.2407 -0.7591 -0.2190
 1585Sol     MW 9382   3.336   3.397   4.705 -0.1719  0.4293 -0.0929
 1586Sol     OW 9383   2.896   2.912   8.599  0.2010 -0.2087 -0.5316
 1586Sol     HW 9384   2.863   2.891   8.512  0.2267  0.2513 -0.6546
 1586Sol     HW 9385   2.979   2.865   8.605 -0.2597 -1.0008 -0.3942
 1586Sol     MW 9386   2.901   2.906   8.592  0.1520  0.0365  0.0280
 1587Sol     OW 9387   1.129   0.274   1.741 -0.6026 -0.5349 -0.2540
 1587Sol     HW 9388   1.148   0.209   1.673 -0.8807 -1.7978  0.8616
 1587Sol     HW 9389   1.049   0.242   1.783 -1.1456  0.9237 -0.1801
 1587Sol     MW 9390   1.124   0.265   1.739 -0.0870 -0.2407  0.5781
 1588Sol     OW 9391   2.653   1.752   8.130 -0.2516  0.3367  0.0391
 1588Sol     HW 9392   2.595   1.689   8.173  1.1933 -0.9040  0.2270
 1588Sol     HW 9393   2.644   1.832   8.181 -1.2704 -0.0508  0.4745
 1588Sol     MW 9394   2.647   1.754   8.138 -0.0038  0.4941 -0.1679
 1589Sol     OW 9395   1.496   0.733   6.480  0.1292 -0.9236  0.2059
 1589Sol     HW 9396   1.587   0.760   6.474  0.6640 -2.4954  1.0208
 1589Sol     HW 9397   1.455   0.799   6.536  0.8060 -0.3493  0.0327
 1589Sol     MW 9398   1.500   0.742   6.485 -0.4772  0.0920  0.3524
 1590Sol     OW 9399   3.494   3.025   3.399 -0.4095  0.6932 -0.3653
 1590Sol     HW 9400   3.454   3.070   3.473  1.2427  1.8880 -0.1641
 1590Sol     HW 9401   3.550   3.092   3.357  0.3985 -0.5685 -1.3540
 1590Sol     MW 9402   3.496   3.035   3.402  0.3689 -0.4514 -0.0656
 1591Sol     OW 9403   3.172   1.041   8.685 -0.2059 -0.3012 -0.6435
 1591Sol     HW 9404   3.178   1.036   8.590  1.0190 -0.6127 -0.5622
 1591Sol     HW 9405   3.100   0.983   8.708 -2.2235  1.7615 -1.5580
 1591Sol     MW 9406   3.166   1.035   8.679 -0.4655 -0.4845 -0.3234
 1592Sol     OW 9407   1.446   3.381   2.703  0.3782  0.0113 -0.2282
 1592Sol     HW 9408   1.520   3.321   2.692 -2.3909 -3.5976  0.0508
 1592Sol     HW 9409   1.422   3.373   2.795 -1.1081  0.2107 -0.5819
 1592Sol     MW 9410   1.450   3.375   2.710  0.2634  1.1157  0.5868
 1593Sol     OW 9411   0.763   1.272   6.046 -0.5722  0.3178  0.5060
 1593Sol     HW 9412   0.792   1.215   6.117  2.2327  1.2349  0.1447
 1593Sol     HW 9413   0.752   1.214   5.971 -5.1325 -0.9468  1.9501
 1593Sol     MW 9414   0.764   1.262   6.045 -0.2116  0.2827  0.0750
 1594Sol     OW 9415   2.338   2.940   3.142 -0.6985 -0.4185  0.5447
 1594Sol     HW 9416   2.306   2.971   3.057 -1.0802 -1.5743  0.2654
 1594Sol     HW 9417   2.259   2.910   3.188 -0.5581  0.5861  1.4805
 1594Sol     MW 9418   2.328   2.940   3.139  0.0180 -0.0682 -0.4591
 1595Sol     OW 9419   0.357   0.551   6.738 -0.0005  0.4743 -0.0229
 1595Sol     HW 9420   0.297   0.618   6.704  1.0900  1.9959  0.9876
 1595Sol     HW 9421   0.347   0.477   6.678 -2.2722  1.0066 -0.3371
 1595Sol     MW 9422   0.351   0.550   6.729 -0.2701 -0.1745  0.8900
 1596Sol     OW 9423   1.224   0.566   8.861 -0.5459  0.3790 -0.3194
 1596Sol     HW 9424   1.130   0.572   8.845 -0.6077  2.0366  0.5546
 1596Sol     HW 9425   1.259   0.647   8.823  0.7326 -0.9536 -2.0211
 1596Sol     MW 9426   1.219   0.574   8.856 -0.3412 -0.4478  0.3221
 1597Sol     OW 9427   3.117   0.381   7.850  0.1539  0.5783  0.2393
 1597Sol     HW 9428   3.109   0.458   7.793  2.2307  0.3120 -0.4497
 1597Sol     HW 9429   3.161   0.414   7.928  1.9226 -0.0620 -0.4545
 1597Sol     MW 9430   3.120   0.391   7.852 -0.3206 -0.2478 -0.0081
 1598Sol     OW 9431   2.362   2.397   8.632  0.0961 -0.3954  0.2692
 1598Sol     HW 9432   2.400   2.320   8.589 -0.2368 -0.2030 -0.3701
 1598Sol     HW 9433   2.435   2.437   8.679  0.8309  0.3321 -1.4606
 1598Sol     MW 9434   2.372   2.393   8.632  0.4421  0.4871 -0.1001
 1599Sol     OW 9435   1.176   2.169   3.554 -0.1586 -0.0599 -0.1718
 1599Sol     HW 9436   1.151   2.183   3.463 -0.3270  0.9145  0.0210
 1599Sol     HW 9437   1.237   2.240   3.574  0.1457 -0.4719  0.3735
 1599Sol     MW 9438   1.179   2.177   3.548  0.1459 -0.0570  0.1974
 1600Sol     OW 9439   1.717   1.712   7.059 -0.1798  0.7761 -0.8081
 1600Sol     HW 9440   1.768   1.770   7.002  2.0733 -1.4907 -1.1781
 1600Sol     HW 9441   1.776   1.695   7.133 -1.9255  1.2544  0.7361
 1600Sol     MW 9442   1.727   1.716   7.061 -0.1509  0.2020 -0.0964
 1601Sol     OW 9443   2.831   0.402   5.765  0.0729 -0.6326 -0.0558
 1601Sol     HW 9444   2.889   0.403   5.689  0.6401  0.2766  0.3830
 1601Sol     HW 9445   2.770   0.474   5.750 -0.0730 -0.7146  0.1517
 1601Sol     MW 9446   2.831   0.408   5.757 -0.1197  0.3631  0.0561
 1602Sol     OW 9447   2.664   2.789   5.708 -0.3125  0.0126 -0.3371
 1602Sol     HW 9448   2.586   2.814   5.660 -1.5315 -1.4742  0.8146
 1602Sol     HW 9449   2.703   2.719   5.656  0.3899  0.9018 -1.0231
 1602Sol     MW 9450   2.661   2.785   5.699  0.1127 -0.1861  0.8577
 1603Sol     OW 9451   3.100   2.340   6.415  0.2853 -0.1030  0.3023
 1603Sol     HW 9452   3.186   2.323   6.378  0.0079 -0.3820 -0.2053
 1603Sol     HW 9453   3.117   2.405   6.484  1.0053 -0.7191  0.7135
 1603Sol     MW 9454   3.109   2.344   6.418 -0.6075  0.4656 -0.1273
 1604Sol     OW 9455   3.370   2.679   7.543 -0.4388 -0.3457  0.4011
 1604Sol     HW 9456   3.439   2.624   7.504  0.6760  0.8338  0.6699
 1604Sol     HW 9457   3.413   2.720   7.619 -0.8739  1.8318 -0.4948
 1604Sol     MW 9458   3.380   2.678   7.546  0.1877  0.1050 -0.5165
 1605Sol     OW 9459   2.611   2.200   6.858 -0.4792 -0.6358 -0.1060
 1605Sol     HW 9460   2.568   2.129   6.905 -0.1167 -1.6828 -1.3165
 1605Sol     HW 9461   2.677   2.156   6.804 -0.4208  0.5999 -1.0612
 1605Sol     MW 9462   2.613   2.190   6.857 -0.3417  0.3992  0.0042
 1606Sol     OW 9463   3.256   0.457   5.472 -0.2957  0.3822 -0.2823
 1606Sol     HW 9464   3.170   0.465   5.431 -1.0471 -2.9667  0.5090
 1606Sol     HW 9465   3.317   0.448   5.398 -0.6786  2.1006 -0.8266
 1606Sol     MW 9466   3.254   0.457   5.461  0.7280 -0.0122 -0.5826
 1607Sol     OW 9467   2.597   0.888   8.677 -0.2407  0.2758  0.3509
 1607Sol     HW 9468   2.640   0.953   8.733  0.4608  0.8408 -0.8441
 1607Sol     HW 9469   2.668   0.849   8.626 -0.5768 -1.8212  1.4358
 1607Sol     MW 9470   2.607   0.890   8.678  0.9304  0.3804  0.1088
 1608Sol     OW 9471   1.325   0.806   4.075  0.1272  0.2897  0.2926
 1608Sol     HW 9472   1.311   0.890   4.032 -0.8263 -0.0232 -0.0109
 1608Sol     HW 9473   1.404   0.820   4.128  1.1463  0.7510 -1.3116
 1608Sol     MW 9474   1.331   0.815   4.076  0.4840 -0.5952  0.0680
 1609Sol     OW 9475   0.283   0.409   5.772 -0.6749  0.1044 -0.7597
 1609Sol     HW 9476   0.255   0.321   5.745 -2.1676  1.1855 -2.8913
 1609Sol     HW 9477   0.251   0.466   5.702 -0.3974  2.4534  0.9904
 1609Sol     MW 9478   0.278   0.406   5.763 -0.1710  0.5683  0.4492
 1610Sol     OW 9479   2.714   0.537   8.713  0.0673  0.1226  0.5943
 1610Sol     HW 9480   2.635   0.566   8.760 -1.4025 -1.4157 -0.8762
 1610Sol     HW 9481   2.727   0.447   8.741  1.5008  0.4549  1.0397
 1610Sol     MW 9482   2.708   0.532   8.720  0.3807  0.4597 -0.8764
 1611Sol     OW 9483   0.842   1.020   8.290  0.1822  0.0292  0.2826
 1611Sol     HW 9484   0.809   1.109   8.305 -0.2020 -0.5145  2.9771
 1611Sol     HW 9485   0.764   0.967   8.277  0.1778 -0.5045  2.2980
 1611Sol     MW 9486   0.832   1.023   8.290  0.0336 -0.1906  0.0617
 1612Sol     OW 9487   2.867   1.168   2.116 -0.3478  0.2388  0.1377
 1612Sol     HW 9488   2.878   1.101   2.048  0.1811  1.9723 -1.5276
 1612Sol     HW 9489   2.778   1.200   2.104 -0.4222  0.2026  0.5934
 1612Sol     MW 9490   2.860   1.164   2.108  0.3688 -0.1271 -0.2886
 1613Sol     OW 9491   1.025   1.292   8.942  0.1356  0.3581 -0.3901
 1613Sol     HW 9492   0.962   1.304   8.871 -0.0428  1.7012 -0.0165
 1613Sol     HW 9493   1.017   1.199   8.965 -1.0991  0.3207 -0.9040
 1613Sol     MW 9494   1.019   1.285   8.937  0.7622 -0.0435  0.1601
 1614Sol     OW 9495   1.666   2.491   4.382 -0.1051 -0.0576  0.4769
 1614Sol     HW 9496   1.632   2.442   4.306  0.2801  0.8399 -0.2807
 1614Sol     HW 9497   1.619   2.574   4.380  0.1154  0.0809  1.0615
 1614Sol     MW 9498   1.659   2.494   4.375  0.3322 -0.0451 -0.3845
 1615Sol     OW 9499   0.919   1.030   8.764 -0.2561  0.2125 -0.2477
 1615Sol     HW 9500   0.950   1.007   8.677 -0.6552  0.5761 -0.4815
 1615Sol     HW 9501   0.883   1.118   8.756 -1.8611 -0.4180 -0.1025
 1615Sol     MW 9502   0.918   1.035   8.756 -0.3300 -0.0418  0.2862
 1616Sol     OW 9503   0.030   0.377   6.939 -0.3232 -0.1759 -0.1680
 1616Sol     HW 9504  -0.001   0.408   6.854  0.1184  2.4247  0.5605
 1616Sol     HW 9505  -0.038   0.316   6.968 -0.1847 -1.5746 -2.6108
 1616Sol     MW 9506   0.021   0.374   6.934 -0.8916 -0.4705  0.3185
 1617Sol     OW 9507   0.808   3.399   5.999  0.0348 -0.2936 -0.2912
 1617Sol     HW 9508   0.868   3.417   5.926 -0.0769  1.0694 -0.0674
 1617Sol     HW 9509   0.830   3.465   6.064  1.0006 -2.3061  1.4743
 1617Sol     MW 9510   0.816   3.407   5.998 -0.1074  0.1764 -0.3230
 1618Sol     OW 9511   0.120   1.157   1.322  0.4645  0.3763 -0.3866
 1618Sol     HW 9512   0.071   1.195   1.248 -0.3600  1.7595  0.8373
 1618Sol     HW 9513   0.101   1.215   1.395  1.5644 -0.7835  0.8426
 1618Sol     MW 9514   0.114   1.166   1.322 -0.2035  0.7095 -0.2337
 1619Sol     OW 9515   3.476   0.860   6.205 -0.2454 -0.0970 -0.1409
 1619Sol     HW 9516   3.406   0.808   6.245  0.7598 -0.5718  1.0491
 1619Sol     HW 9517   3.448   0.951   6.215 -0.5773 -0.2725  0.5408
 1619Sol     MW 9518   3.467   0.863   6.209 -0.1699  0.8124 -0.1782
 1620Sol     OW 9519   1.777   0.328   1.508  0.1248 -0.5759 -0.4764
 1620Sol     HW 9520   1.782   0.254   1.568 -1.5611 -0.5040 -0.2293
 1620Sol     HW 9521   1.832   0.395   1.549 -1.1670 -0.4512  1.1115
 1620Sol     MW 9522   1.783   0.327   1.517  0.0423  0.6980  0.2692
 1621Sol     OW 9523   3.331   0.181   3.298 -0.4858  0.0386  0.1742
 1621Sol     HW 9524   3.375   0.255   3.255  1.4481 -0.8981  0.4829
 1621Sol     HW 9525   3.253   0.166   3.246 -0.0833  1.2919 -0.8224
 1621Sol     MW 9526   3.328   0.186   3.290 -0.3365 -0.0124 -0.7071
 1622Sol     OW 9527   1.007   0.179   4.770 -0.0656  0.5597  0.4201
 1622Sol     HW 9528   0.943   0.122   4.813  0.5996 -1.1234 -0.7563
 1622Sol     HW 9529   1.053   0.222   4.842 -0.4268 -0.5838  1.3496
 1622Sol     MW 9530   1.005   0.177   4.780  0.2661  1.0339  0.6909
 1623Sol     OW 9531   3.172   1.147   3.811 -0.2600  0.1984 -0.2467
 1623Sol     HW 9532   3.188   1.078   3.876 -2.9966  0.4168  0.6796
 1623Sol     HW 9533   3.253   1.198   3.812  0.8384 -1.4740  0.9086
 1623Sol     MW 9534   3.181   1.145   3.817 -0.1010 -0.4398  0.9746
 1624Sol     OW 9535   3.219   0.138   7.745 -0.2079 -0.0140  0.0098
 1624Sol     HW 9536   3.170   0.083   7.685  0.8008 -0.6385 -0.2541
 1624Sol     HW 9537   3.170   0.220   7.749  0.4215  0.5151 -2.6827
 1624Sol     MW 9538   3.210   0.141   7.740 -0.3657 -0.5163 -0.1960
 1625Sol     OW 9539   0.380   1.039   1.811  0.4421  0.3216  0.1169
 1625Sol     HW 9540   0.291   1.007   1.794  0.1660  1.0484  0.1649
 1625Sol     HW 9541   0.437   0.980   1.762 -0.0378 -0.4264  0.4590
 1625Sol     MW 9542   0.377   1.031   1.805 -0.5003  0.1820 -0.5387
 1626Sol     OW 9543   2.402   0.990   4.740 -0.2538  0.5427 -0.6133
 1626Sol     HW 9544   2.489   0.957   4.716  0.3978  1.7726 -0.0235
 1626Sol     HW 9545   2.406   1.083   4.717 -1.3727  0.6347 -0.4379
 1626Sol     MW 9546   2.410   0.996   4.736  0.0685  0.4924  0.7122
 1627Sol     OW 9547   0.054   1.444   4.972 -0.3047 -0.0196 -0.0043
 1627Sol     HW 9548  -0.007   1.427   4.901 -0.7519  1.0140  0.1234
 1627Sol     HW 9549   0.101   1.361   4.984 -0.8315 -0.4557 -0.9109
 1627Sol     MW 9550   0.053   1.435   4.967 -0.1106  0.3641  0.0618
 1628Sol     OW 9551   0.751   0.552   6.484 -0.1786  0.2003 -0.0431
 1628Sol     HW 9552   0.730   0.473   6.435 -0.0220  0.2971 -0.2612
 1628Sol     HW 9553   0.846   0.562   6.476 -0.0824 -0.0818  0.7205
 1628Sol     MW 9554   0.758   0.546   6.479  0.0679  0.2503 -0.2002
 1629Sol     OW 9555   0.700   2.292   1.593  0.1827 -0.1302  0.0419
 1629Sol     HW 9556   0.703   2.294   1.689 -0.1291 -0.5348  0.0614
 1629Sol     HW 9557   0.644   2.217   1.572  0.8690 -0.5056 -0.4652
 1629Sol     MW 9558   0.695   2.286   1.600 -0.1194 -0.0398  0.6573
 1630Sol     OW 9559   0.927   1.831   6.412  0.3561  0.1672 -0.3606
 1630Sol     HW 9560   0.945   1.851   6.320 -0.1079 -0.0592 -0.5024
 1630Sol     HW 9561   0.841   1.788   6.411  1.6587 -2.5733 -0.1597
 1630Sol     MW 9562   0.920   1.829   6.404 -0.3472  0.0441  0.3879
 1631Sol     OW 9563   2.316   1.238   6.553 -1.1723 -0.3310 -0.4465
 1631Sol     HW 9564   2.272   1.166   6.508 -0.6477 -0.9549  0.0349
 1631Sol     HW 9565   2.391   1.258   6.497 -0.4729 -1.1626  0.1825
 1631Sol     MW 9566   2.319   1.233   6.544  1.2758  0.5771 -0.3640
 1632Sol     OW 9567   1.461   0.633   9.022  0.5229 -0.2403 -0.4584
 1632Sol     HW 9568   1.387   0.612   8.966  0.7013 -0.6093 -0.5587
 1632Sol     HW 9569   1.538   0.601   8.974  0.5518 -1.8521  0.6401
 1632Sol     MW 9570   1.462   0.629   9.013 -0.6840 -0.3282 -0.1772
 1633Sol     OW 9571   0.054   1.700   8.462 -0.5665  0.2726  0.0431
 1633Sol     HW 9572   0.026   1.695   8.370 -1.4840  1.4372  0.2418
 1633Sol     HW 9573  -0.024   1.730   8.509 -0.2227 -0.7064  1.2730
 1633Sol     MW 9574   0.044   1.702   8.458  0.4362 -0.9104  0.0758
 1634Sol     OW 9575   0.403   0.887   4.587  0.6009  0.1175  0.3651
 1634Sol     HW 9576   0.496   0.868   4.578  0.3654 -0.6557 -0.5316
 1634Sol     HW 9577   0.375   0.836   4.664  0.7109 -0.4588  0.0292
 1634Sol     MW 9578   0.409   0.881   4.594  0.0531  0.1027 -0.4073
 1635Sol     OW 9579   1.302   0.431   1.887 -0.0251  0.7999  0.0153
 1635Sol     HW 9580   1.367   0.468   1.827 -0.0871  0.4592 -0.2685
 1635Sol     HW 9581   1.244   0.380   1.830  0.3112 -0.0853  0.4473
 1635Sol     MW 9582   1.303   0.430   1.876 -0.5000  0.3699 -0.0051
 1636Sol     OW 9583   2.223   0.066   5.289  0.3217 -0.4421  0.2054
 1636Sol     HW 9584   2.232  -0.024   5.322  0.4105 -0.1154  1.0998
 1636Sol     HW 9585   2.187   0.114   5.363  0.6291  0.3337 -0.1498
 1636Sol     MW 9586   2.221   0.062   5.299  0.3393  0.0635 -0.0643
 1637Sol     OW 9587   0.333   3.218   9.062  0.3355 -0.5107  0.2581
 1637Sol     HW 9588   0.278   3.170   9.001 -1.0019 -0.1012  1.1197
 1637Sol     HW 9589   0.274   3.283   9.102  1.7050  0.7135  0.3440
 1637Sol     MW 9590   0.323   3.220   9.061  0.1843  0.0047 -0.6647
 1638Sol     OW 9591   3.265   2.176   2.301 -0.4480  0.5776 -0.2277
 1638Sol     HW 9592   3.357   2.187   2.327 -1.0837  0.2824  2.2946
 1638Sol     HW 9593   3.268   2.115   2.227  1.2583 -0.9979  1.0844
 1638Sol     MW 9594   3.274   2.172   2.297 -0.7236  0.7425  0.3077
 1639Sol     OW 9595   2.276   1.202   3.277 -0.1319 -0.3981 -0.8086
 1639Sol     HW 9596   2.244   1.246   3.356 -0.6357 -0.6747 -0.8546
 1639Sol     HW 9597   2.204   1.211   3.215 -1.3433 -3.6203  0.0420
 1639Sol     MW 9598   2.266   1.207   3.279 -0.1621  0.2357  0.1531
 1640Sol     OW 9599   0.800   0.420   6.121 -0.3181 -0.0391 -0.2687
 1640Sol     HW 9600   0.786   0.362   6.196 -2.3208  0.5284 -0.1860
 1640Sol     HW 9601   0.878   0.470   6.145  0.5803 -1.6438  0.2945
 1640Sol     MW 9602   0.806   0.419   6.130  0.2609  0.3429 -0.4654
 1641Sol     OW 9603   0.898   1.870   6.113 -0.2083  1.0522 -0.1330
 1641Sol     HW 9604   0.874   1.946   6.060 -0.0117  0.7598 -0.6459
 1641Sol     HW 9605   0.818   1.816   6.115 -0.4424  1.4212  0.4901
 1641Sol     MW 9606   0.889   1.872   6.109 -0.7942  0.2258  0.1766
 1642Sol     OW 9607   2.521   0.195   3.757  0.1232  0.4427  0.1043
 1642Sol     HW 9608   2.541   0.144   3.679 -1.2736  0.7854 -0.4862
 1642Sol     HW 9609   2.567   0.150   3.828 -1.2643 -1.7697 -0.3567
 1642Sol     MW 9610   2.527   0.187   3.757 -0.2075 -0.7798 -0.2668
 1643Sol     OW 9611   2.407   1.202   5.925  0.1595 -0.3353 -0.4327
 1643Sol     HW 9612   2.369   1.163   6.003  3.0762 -1.8995  0.3044
 1643Sol     HW 9613   2.371   1.291   5.922  1.6899  0.5568  3.9787
 1643Sol     MW 9614   2.401   1.207   5.932 -0.1032 -0.2223  0.4634
 1644Sol     OW 9615   1.025   2.712   2.585 -0.5994  0.2072  0.0774
 1644Sol     HW 9616   1.002   2.787   2.530 -1.3135 -0.4152 -0.4895
 1644Sol     HW 9617   1.103   2.675   2.542 -0.9707 -0.0946 -0.3370
 1644Sol     MW 9618   1.030   2.716   2.576 -0.0438  0.0283 -0.5329
 1645Sol     OW 9619   2.697   1.654   6.302 -0.2811  0.2598 -0.3663
 1645Sol     HW 9620   2.694   1.664   6.398  1.7101 -0.9318 -0.1412
 1645Sol     HW 9621   2.610   1.680   6.273 -0.5235  1.8866  1.6504
 1645Sol     MW 9622   2.689   1.657   6.308 -0.1833  0.1881 -0.0323
 1646Sol     OW 9623   3.498   2.504   4.056 -0.5534  0.1960  0.2639
 1646Sol     HW 9624   3.589   2.532   4.067 -1.5205  2.8630  1.9992
 1646Sol     HW 9625   3.502   2.408   4.057  2.2964  0.2802 -0.3042
 1646Sol     MW 9626   3.507   2.498   4.057 -0.1323 -0.8675 -0.3251
 1647Sol     OW 9627   2.102   0.508   3.754  0.5170 -0.6614 -0.4062
 1647Sol     HW 9628   2.060   0.443   3.698 -1.5145 -0.4992  0.8856
 1647Sol     HW 9629   2.174   0.542   3.701 -0.9985 -0.9350 -2.7178
 1647Sol     MW 9630   2.104   0.506   3.744  0.9526  0.1277 -0.3669
 1648Sol     OW 9631   2.444   1.595   3.153 -0.4996 -0.5686  0.1313
 1648Sol     HW 9632   2.376   1.631   3.097 -0.3387 -2.4096 -1.2950
 1648Sol     HW 9633   2.518   1.578   3.095  0.9243  0.6997  1.5287
 1648Sol     MW 9634   2.444   1.596   3.143 -0.4288 -0.1859  0.2385
 1649Sol     OW 9635   1.945   1.433   6.613  0.2483 -0.5652  0.2304
 1649Sol     HW 9636   2.026   1.443   6.563 -0.2731  1.5596 -0.2507
 1649Sol     HW 9637   1.924   1.522   6.642 -0.9487 -1.3600  1.8836
 1649Sol     MW 9638   1.950   1.442   6.611  0.0198 -0.0999 -0.0351
 1650Sol     OW 9639   2.053   0.618   5.521  0.4630 -0.1716 -0.1994
 1650Sol     HW 9640   2.112   0.669   5.577 -0.4776  0.5070  0.1868
 1650Sol     HW 9641   2.098   0.615   5.436  1.0719  0.3150  0.0950
 1650Sol     MW 9642   2.062   0.623   5.518 -0.2505  0.2195  0.3323
 1651Sol     OW 9643   3.082   2.483   2.850  0.3597  0.2512  0.0924
 1651Sol     HW 9644   3.005   2.428   2.832  0.4507  0.0555  0.2946
 1651Sol     HW 9645   3.047   2.571   2.860 -0.0169 -0.0506  1.5942
 1651Sol     MW 9646   3.072   2.486   2.849 -0.1470 -0.2528  0.2314
 1652Sol     OW 9647   2.258   2.757   6.341  0.0029  0.5496  0.2118
 1652Sol     HW 9648   2.190   2.790   6.399  1.4785  1.5728  1.3725
 1652Sol     HW 9649   2.312   2.833   6.320  0.7324 -0.2222 -0.8024
 1652Sol     MW 9650   2.257   2.767   6.344  0.0092 -0.6920  0.5194
 1653Sol     OW 9651   2.249   1.900   2.627  0.1694  0.4185 -0.1711
 1653Sol     HW 9652   2.331   1.950   2.631 -0.1293  0.9419 -0.5993
 1653Sol     HW 9653   2.275   1.814   2.594  0.3679  0.9832 -1.4992
 1653Sol     MW 9654   2.259   1.896   2.625 -0.3325  1.2025  0.1184
 1654Sol     OW 9655   1.865   2.183   1.509  0.1307  0.8758  0.2557
 1654Sol     HW 9656   1.894   2.232   1.586 -2.9130  1.1540  1.3034
 1654Sol     HW 9657   1.891   2.093   1.526 -0.5407  0.9333  1.6437
 1654Sol     MW 9658   1.870   2.179   1.517 -0.0803  0.0452  0.0579
 1655Sol     OW 9659   0.303   1.377   7.681  0.8173 -0.2062 -0.3249
 1655Sol     HW 9660   0.228   1.321   7.663  0.2498 -0.5659  2.9264
 1655Sol     HW 9661   0.266   1.465   7.685  0.5004 -0.4047  1.4706
 1655Sol     MW 9662   0.293   1.380   7.680  0.6676  1.5126  0.3177
 1656Sol     OW 9663   3.224   1.098   1.513  0.2493  0.0148 -0.5695
 1656Sol     HW 9664   3.257   1.009   1.496 -0.1654  0.1085 -1.9325
 1656Sol     HW 9665   3.129   1.087   1.518  0.3176  0.0690  1.3429
 1656Sol     MW 9666   3.218   1.089   1.512  0.5502  0.3186 -0.0017
 1657Sol     OW 9667   0.075   1.220   7.669  0.3726 -0.1289  0.0293
 1657Sol     HW 9668   0.007   1.205   7.735  0.0175  0.4291 -0.2053
 1657Sol     HW 9669   0.111   1.133   7.651  0.4807 -0.2818  0.9702
 1657Sol     MW 9670   0.072   1.211   7.673  0.2461  0.7147 -0.3309
 1658Sol     OW 9671   1.295   1.526   3.110  0.0861 -0.1362  0.0023
 1658Sol     HW 9672   1.281   1.577   3.190 -0.6172  1.4473 -1.1126
 1658Sol     HW 9673   1.214   1.539   3.059  0.4744 -1.2368 -0.9073
 1658Sol     MW 9674   1.286   1.532   3.113  0.7840  0.0221  0.2244
 1659Sol     OW 9675   0.237   2.038   7.688 -0.2580  0.0248 -0.3812
 1659Sol     HW 9676   0.293   2.060   7.614  0.6012  0.5283  0.4079
 1659Sol     HW 9677   0.298   2.013   7.757 -0.9932  0.8728  0.5838
 1659Sol     MW 9678   0.247   2.038   7.687  0.4796 -0.2367 -0.2801
 1660Sol     OW 9679   1.207   1.799   4.342 -0.2547  0.5725  0.1488
 1660Sol     HW 9680   1.194   1.810   4.436  4.1500  1.4056  0.7585
 1660Sol     HW 9681   1.248   1.713   4.333 -0.6853  0.4787 -1.0189
 1660Sol     MW 9682   1.209   1.792   4.349  0.0692 -0.6899  0.0136
 1661Sol     OW 9683   0.378   3.325   1.560  0.1974  0.3098 -0.0745
 1661Sol     HW 9684   0.389   3.375   1.479  0.4628 -0.6494 -0.6400
 1661Sol     HW 9685   0.458   3.343   1.611 -0.0329  1.0222  0.0352
 1661Sol     MW 9686   0.386   3.331   1.557  0.6519  0.4247 -0.1032
 1662Sol     OW 9687   2.391   1.657   4.385 -0.2248  0.4838  0.0244
 1662Sol     HW 9688   2.325   1.713   4.425 -1.1726  0.3542 -1.3500
 1662Sol     HW 9689   2.461   1.717   4.359  0.8610  0.4676  2.7143
 1662Sol     MW 9690   2.392   1.667   4.386  0.7336 -0.1729  0.3606
 1663Sol     OW 9691   0.236   3.296   3.675 -0.1081 -0.2719  0.0695
 1663Sol     HW 9692   0.258   3.387   3.692  0.2947  0.0734 -2.2015
 1663Sol     HW 9693   0.262   3.250   3.755  1.0626  1.3728  0.6627
 1663Sol     MW 9694   0.240   3.300   3.684 -0.2511 -0.2794  0.0938
 1664Sol     OW 9695   1.323   1.069   3.406 -0.5782 -0.0048  0.0892
 1664Sol     HW 9696   1.341   1.160   3.382 -0.1409 -0.9782 -3.6744
 1664Sol     HW 9697   1.401   1.041   3.453  0.4633  0.8085 -1.1122
 1664Sol     MW 9698   1.332   1.075   3.408 -0.1753 -0.1529  0.7243
 1665Sol     OW 9699   1.718   0.488   7.274  0.2736  0.6131 -0.3212
 1665Sol     HW 9700   1.682   0.484   7.185  1.1445 -2.8747 -0.6013
 1665Sol     HW 9701   1.669   0.422   7.322 -0.2230  2.5183  1.8593
 1665Sol     MW 9702   1.710   0.482   7.270 -0.0006  0.2956  0.6153
 1666Sol     OW 9703   1.390   0.787   4.846  0.6751 -0.5411  0.5212
 1666Sol     HW 9704   1.387   0.814   4.755 -0.1247 -0.6667  0.5054
 1666Sol     HW 9705   1.437   0.704   4.845  1.2728 -0.2025  0.3101
 1666Sol     MW 9706   1.394   0.782   4.838  0.1654 -0.2208  0.0343
 1667Sol     OW 9707   2.684   1.504   8.561  0.3436 -0.3491 -0.1463
 1667Sol     HW 9708   2.615   1.570   8.566  0.5957 -0.1868  1.4715
 1667Sol     HW 9709   2.708   1.502   8.469 -0.3283  1.1462 -0.3769
 1667Sol     MW 9710   2.680   1.510   8.553  0.2261  0.0977  0.3076
 1668Sol     OW 9711   2.011   3.141   3.626  0.0988  0.4516  0.2208
 1668Sol     HW 9712   2.019   3.181   3.540  0.2320 -0.7761 -0.3448
 1668Sol     HW 9713   1.946   3.072   3.615  0.2321  0.1802  1.0642
 1668Sol     MW 9714   2.006   3.139   3.617 -0.3544  0.0936  0.8549
 1669Sol     OW 9715   0.140   1.745   7.987  0.8223  0.0870  0.5442
 1669Sol     HW 9716   0.088   1.744   8.067  1.0920 -1.5455  0.7046
 1669Sol     HW 9717   0.231   1.756   8.018  1.2000 -2.9354  0.6469
 1669Sol     MW 9718   0.144   1.746   7.997  0.0072  0.4513 -0.0751
 1670Sol     OW 9719   0.598   0.968   6.869 -0.2633  0.1718 -0.2919
 1670Sol     HW 9720   0.502   0.964   6.877 -0.2306 -2.1250 -0.6334
 1670Sol     HW 9721   0.630   0.942   6.955  0.0933  3.0151  0.4847
 1670Sol     MW 9722   0.592   0.965   6.877  0.2610  0.3718  0.1781
 1671Sol     OW 9723   1.693   0.011   3.463 -0.2243  0.6764  0.2501
 1671Sol     HW 9724   1.676   0.092   3.512  0.9106  0.7631  0.5102
 1671Sol     HW 9725   1.691  -0.058   3.530  0.6277  0.7111  0.3172
 1671Sol     MW 9726   1.691   0.012   3.474 -0.4144 -0.1899 -0.1024
 1672Sol     OW 9727   0.746   1.292   8.365  0.0677 -0.4342  0.5314
 1672Sol     HW 9728   0.686   1.308   8.292 -0.2351 -1.0861  0.6248
 1672Sol     HW 9729   0.791   1.375   8.379  0.2747 -0.3676 -0.5299
 1672Sol     MW 9730   0.745   1.301   8.360 -0.2925  0.2598  0.4447
 1673Sol     OW 9731   1.628   3.312   4.756 -0.1892 -0.3113 -0.0771
 1673Sol     HW 9732   1.598   3.222   4.772  2.3678 -1.5808 -2.1058
 1673Sol     HW 9733   1.691   3.329   4.826  0.2747 -0.5760 -0.4280
 1673Sol     MW 9734   1.631   3.305   4.764 -0.4220  0.9382  0.0249
 1674Sol     OW 9735   2.282   1.700   3.918  0.7137 -0.6610 -0.5023
 1674Sol     HW 9736   2.349   1.756   3.879  0.6012  0.9217  1.4636
 1674Sol     HW 9737   2.199   1.731   3.880  0.9264 -1.4895 -1.6550
 1674Sol     MW 9738   2.280   1.708   3.911  0.2904  0.7413  0.4106
 1675Sol     OW 9739   3.323   2.773   2.982 -0.9277  0.0322  0.2562
 1675Sol     HW 9740   3.398   2.782   2.923  0.4921 -0.7089  1.8991
 1675Sol     HW 9741   3.262   2.716   2.935 -1.4131  2.3063 -1.9786
 1675Sol     MW 9742   3.324   2.769   2.973 -0.3706 -0.3149 -0.0640
 1676Sol     OW 9743   3.226   2.256   4.292 -0.1019 -0.0587  0.3339
 1676Sol     HW 9744   3.320   2.265   4.310  0.1584 -0.7241 -0.6450
 1676Sol     HW 9745   3.201   2.175   4.336  0.9441 -2.7253 -3.6273
 1676Sol     MW 9746   3.233   2.249   4.297 -0.4720 -0.4997 -0.3204
 1677Sol     OW 9747   1.720   2.808   3.037 -0.1807  0.2411 -0.2003
 1677Sol     HW 9748   1.667   2.729   3.047 -1.7111  1.3884  1.1430
 1677Sol     HW 9749   1.796   2.792   3.093 -0.4695 -0.3108  0.0437
 1677Sol     MW 9750   1.722   2.799   3.043 -1.0249 -0.5139  0.1889
 1678Sol     OW 9751   1.541   2.499   1.504 -0.3560 -0.3961 -0.6301
 1678Sol     HW 9752   1.530   2.405   1.511 -1.5411 -0.5329 -3.5706
 1678Sol     HW 9753   1.554   2.515   1.410 -2.5712  2.5931 -0.5101
 1678Sol     MW 9754   1.541   2.492   1.496 -0.0828 -0.1870 -0.6832
 1679Sol     OW 9755   3.442   2.109   2.774  0.0419 -0.2898 -0.1561
 1679Sol     HW 9756   3.375   2.172   2.748 -0.4453 -0.3658  0.9140
 1679Sol     HW 9757   3.477   2.143   2.856 -2.1775 -2.8091  1.9527
 1679Sol     MW 9758   3.439   2.117   2.779  0.9134 -0.1812 -0.1406
 1680Sol     OW 9759   0.896   1.898   7.334  0.3823  0.2330 -0.1209
 1680Sol     HW 9760   0.911   1.848   7.414  0.6156  0.1127 -0.2394
 1680Sol     HW 9761   0.964   1.965   7.334  0.9192 -0.3074 -0.6534
 1680Sol     MW 9762   0.903   1.900   7.341  0.0898  0.6281  0.2271
 1681Sol     OW 9763   2.309   2.578   5.991 -0.1418 -0.6929  0.3074
 1681Sol     HW 9764   2.375   2.647   5.989 -0.2202 -0.6400 -1.4207
 1681Sol     HW 9765   2.353   2.503   6.031  1.0609 -0.7390 -1.0657
 1681Sol     MW 9766   2.319   2.578   5.994 -0.5423  0.6300  0.1555
 1682Sol     OW 9767   3.532   2.244   3.429 -0.1176 -0.3253 -0.4930
 1682Sol     HW 9768   3.475   2.225   3.355 -1.3379 -0.4722  0.4513
 1682Sol     HW 9769   3.471   2.253   3.504  0.7960  2.6220 -0.0216
 1682Sol     MW 9770   3.521   2.243   3.429 -0.1791 -0.1436 -0.6353
 1683Sol     OW 9771   0.569   2.615   7.591 -0.3024  0.0212  0.1691
 1683Sol     HW 9772   0.575   2.709   7.575 -2.7198  0.1917  0.1206
 1683Sol     HW 9773   0.576   2.576   7.504  0.1292  0.1766  0.1301
 1683Sol     MW 9774   0.570   2.620   7.582 -0.5058 -0.1965  0.1088
 1684Sol     OW 9775   3.386   1.176   8.828 -0.1977  0.0596 -0.3574
 1684Sol     HW 9776   3.339   1.225   8.896  0.5967 -1.7382  1.5237
 1684Sol     HW 9777   3.317   1.151   8.765 -1.5862 -1.3802  1.6633
 1684Sol     MW 9778   3.375   1.178   8.828  0.3800 -0.3566  0.3561
 1685Sol     OW 9779   1.814   1.511   5.355 -0.3418 -0.2190  0.1952
 1685Sol     HW 9780   1.875   1.451   5.313 -0.7838 -1.5407  1.3902
 1685Sol     HW 9781   1.754   1.454   5.403 -2.3745  1.0447 -0.7353
 1685Sol     MW 9782   1.814   1.501   5.355  0.8282 -0.1628  0.3364
 1686Sol     OW 9783   3.470   0.407   3.185 -0.1757  0.1523  0.3579
 1686Sol     HW 9784   3.548   0.351   3.179 -0.4644 -0.2343  0.2389
 1686Sol     HW 9785   3.467   0.453   3.102  1.0146  1.6018  1.0947
 1686Sol     MW 9786   3.477   0.406   3.177  0.2017 -0.4691 -0.2029
 1687Sol     OW 9787   0.352   0.361   6.538 -0.3782 -0.8442 -0.3248
 1687Sol     HW 9788   0.281   0.350   6.474 -0.3109 -1.0401 -0.3653
 1687Sol     HW 9789   0.428   0.386   6.486 -0.0219 -2.1631 -0.4552
 1687Sol     MW 9790   0.352   0.362   6.528  0.1084 -0.7977 -0.0294
 1688Sol     OW 9791   3.252   2.984   1.627 -0.3526 -0.2030 -0.0267
 1688Sol     HW 9792   3.339   3.007   1.595  0.1148  0.1469  1.4700
 1688Sol     HW 9793   3.222   3.063   1.672 -1.1669 -0.5523  0.0506
 1688Sol     MW 9794   3.257   2.993   1.628 -0.2780  0.1480 -0.3235
 1689Sol     OW 9795   3.255   1.801   4.787  0.1989  0.0700  0.4745
 1689Sol     HW 9796   3.284   1.733   4.726 -1.0511  0.4722 -0.5966
 1689Sol     HW 9797   3.325   1.867   4.785  0.0295  0.2207 -0.7644
 1689Sol     MW 9798   3.264   1.801   4.782 -0.7608 -0.7078 -0.7591
 1690Sol     OW 9799   2.757   0.604   2.255  0.4136 -0.2091 -0.4908
 1690Sol     HW 9800   2.765   0.512   2.282 -0.0551 -0.5222 -1.4014
 1690Sol     HW 9801   2.674   0.632   2.294  0.5293 -0.1866 -0.2588
 1690Sol     MW 9802   2.751   0.598   2.261 -0.0888  0.0997 -0.3315
 1691Sol     OW 9803   1.012   0.004   6.945 -0.0019 -0.0741 -0.1502
 1691Sol     HW 9804   1.069  -0.001   7.022  1.2339 -0.1818 -1.0465
 1691Sol     HW 9805   0.958  -0.074   6.950  1.7590 -1.3757 -0.6632
 1691Sol     MW 9806   1.013  -0.004   6.952  0.0951  0.1266 -0.1488
 1692Sol     OW 9807   0.556   2.899   5.939  0.0955 -0.7194 -0.3212
 1692Sol     HW 9808   0.476   2.848   5.923 -1.3296  0.9000  1.3816
 1692Sol     HW 9809   0.527   2.990   5.933  2.0602 -0.1137 -0.7429
 1692Sol     MW 9810   0.546   2.902   5.937 -0.2858 -0.3394 -0.0330
 1693Sol     OW 9811   1.046   0.731   7.725 -0.2164  0.7338  0.3841
 1693Sol     HW 9812   1.021   0.647   7.763  0.9812  1.1500  2.1085
 1693Sol     HW 9813   1.114   0.709   7.661  0.3731  0.4299  1.1098
 1693Sol     MW 9814   1.049   0.722   7.722  0.3070  0.0109  0.2159
 1694Sol     OW 9815   0.561   0.467   1.832  0.0335  0.1200 -0.3292
 1694Sol     HW 9816   0.655   0.484   1.841  0.0751  0.0578 -0.6389
 1694Sol     HW 9817   0.538   0.508   1.748 -0.0452 -0.5833 -0.6553
 1694Sol     MW 9818   0.568   0.472   1.825 -0.0040  0.0293  0.2083
 1695Sol     OW 9819   2.760   3.135   4.215  0.1350  0.1472 -0.2580
 1695Sol     HW 9820   2.770   3.082   4.294  0.4615  0.4608 -0.0877
 1695Sol     HW 9821   2.804   3.084   4.147 -0.1727 -0.1380 -0.2458
 1695Sol     MW 9822   2.765   3.126   4.216 -0.6300 -0.1146 -0.2516
 1696Sol     OW 9823   1.941   1.014   1.502  0.3045 -0.0936 -0.1460
 1696Sol     HW 9824   1.906   1.101   1.479 -0.5970 -0.2918  0.4431
 1696Sol     HW 9825   1.968   1.023   1.593 -0.9109 -0.7684  0.2885
 1696Sol     MW 9826   1.940   1.023   1.508  0.2015  0.1028  0.5150
 1697Sol     OW 9827   0.202   1.428   7.975  0.9203  0.1925 -0.8102
 1697Sol     HW 9828   0.171   1.352   7.927  1.7144  0.4730 -1.7955
 1697Sol     HW 9829   0.192   1.501   7.914 -0.5080  1.0196  0.3681
 1697Sol     MW 9830   0.198   1.428   7.966 -0.9709 -0.0026  0.4047
 1698Sol     OW 9831   1.108   2.275   6.422 -0.2783  0.2963  0.1685
 1698Sol     HW 9832   1.198   2.270   6.389 -0.2987  1.0993 -0.0206
 1698Sol     HW 9833   1.096   2.194   6.472  0.9709  0.7795  1.2667
 1698Sol     MW 9834   1.115   2.267   6.423 -0.2143 -0.5859  0.1395
 1699Sol     OW 9835   0.724   1.991   5.278  0.3059  0.0845 -0.1395
 1699Sol     HW 9836   0.727   2.064   5.215 -2.3914  0.6349  0.3013
 1699Sol     HW 9837   0.763   2.027   5.358  0.9026  0.3617 -0.5469
 1699Sol     MW 9838   0.728   2.001   5.279  0.1126 -0.6774  0.4895
 1700Sol     OW 9839   3.410   3.125   7.775  0.2570 -0.0619 -0.0327
 1700Sol     HW 9840   3.461   3.197   7.739 -1.3866  1.3140  0.3113
 1700Sol     HW 9841   3.461   3.093   7.849  2.2250 -0.9599 -1.7490
 1700Sol     MW 9842   3.419   3.128   7.778 -0.2322 -0.3599  0.1877
 1701Sol     OW 9843   0.543   1.964   1.899  0.1667  0.1385  0.1926
 1701Sol     HW 9844   0.480   2.036   1.903  0.3413  0.2779  0.4428
 1701Sol     HW 9845   0.489   1.885   1.907  0.2691  0.3256  3.4413
 1701Sol     MW 9846   0.532   1.963   1.900  0.1755 -0.0067 -0.1725
 1702Sol     OW 9847   2.210   0.103   4.605 -1.0139 -0.5555  0.0589
 1702Sol     HW 9848   2.216   0.198   4.619 -0.7112 -0.4712 -0.6247
 1702Sol     HW 9849   2.267   0.065   4.672  1.3857 -0.1082 -1.6622
 1702Sol     MW 9850   2.215   0.108   4.612 -0.5831 -0.3586 -0.7227
 1703Sol     OW 9851   1.558   2.243   1.787 -0.1076 -0.5191 -0.3233
 1703Sol     HW 9852   1.635   2.196   1.819 -1.3795 -2.9041 -0.6662
 1703Sol     HW 9853   1.564   2.238   1.691  0.5500  1.3921 -0.4033
 1703Sol     MW 9854   1.565   2.238   1.781 -0.8446 -0.2157 -0.0234
 1704Sol     OW 9855   2.276   1.068   3.765  0.0558  0.6935 -0.5843
 1704Sol     HW 9856   2.289   1.022   3.683 -0.2480 -0.3550 -0.0511
 1704Sol     HW 9857   2.347   1.133   3.768  1.6265 -0.9906 -0.4674
 1704Sol     MW 9858   2.284   1.070   3.758  0.0122  0.6224 -0.4175
 1705Sol     OW 9859   0.200   0.268   8.497  0.4067  0.1617  0.0217
 1705Sol     HW 9860   0.207   0.263   8.401 -0.3112 -0.3015 -0.0143
 1705Sol     HW 9861   0.146   0.345   8.513  0.9203  0.5139  0.0764
 1705Sol     MW 9862   0.196   0.274   8.490 -0.2463  0.4521 -0.1873
 1706Sol     OW 9863   1.675   0.263   6.019 -0.3810  0.2479  0.8436
 1706Sol     HW 9864   1.749   0.261   5.959 -0.3568  0.2951  0.8722
 1706Sol     HW 9865   1.714   0.273   6.106 -0.3807 -0.4719  0.9298
 1706Sol     MW 9866   1.685   0.263   6.022  0.2282  0.4278  0.1714
 1707Sol     OW 9867   1.442   0.407   2.108  0.3446  0.1379  0.2194
 1707Sol     HW 9868   1.428   0.500   2.122  0.0709  0.2963 -0.9910
 1707Sol     HW 9869   1.393   0.387   2.028 -1.1480 -1.4482  1.4935
 1707Sol     MW 9870   1.437   0.413   2.102  0.0820  0.3721  0.7342
 1708Sol     OW 9871   2.463   0.058   1.673  0.0662  0.3233 -0.2129
 1708Sol     HW 9872   2.408   0.064   1.595  0.8577 -3.7491 -1.1853
 1708Sol     HW 9873   2.407   0.019   1.740  0.1772  1.3637  0.5156
 1708Sol     MW 9874   2.453   0.055   1.672  0.2444 -0.2379 -0.3624
 1709Sol     OW 9875   0.379   0.372   3.309 -0.0551 -0.3051 -0.2302
 1709Sol     HW 9876   0.428   0.419   3.241  0.8781  0.3903  0.8970
 1709Sol     HW 9877   0.437   0.300   3.335  0.2904  0.3803  0.9444
 1709Sol     MW 9878   0.389   0.370   3.306 -0.8138 -0.5351 -0.1919
 1710Sol     OW 9879   0.941   2.299   2.655 -0.0197  0.0182 -0.2644
 1710Sol     HW 9880   0.904   2.387   2.661 -1.1700 -0.3845 -1.1341
 1710Sol     HW 9881   0.994   2.302   2.575  0.7552  0.2157  0.2604
 1710Sol     MW 9882   0.942   2.308   2.648  0.5292  0.5670 -0.2287
 1711Sol     OW 9883   2.317   1.049   8.379  0.0501  0.1307 -0.0956
 1711Sol     HW 9884   2.256   1.099   8.434  1.2239  0.9126  0.5165
 1711Sol     HW 9885   2.283   0.960   8.380 -2.7326  1.1008 -2.1381
 1711Sol     MW 9886   2.309   1.045   8.384 -0.7406 -0.3066  0.0453
 1712Sol     OW 9887   0.661   2.762   6.842 -0.3095 -0.3252 -0.1612
 1712Sol     HW 9888   0.651   2.781   6.749 -0.8605  0.6817  0.1029
 1712Sol     HW 9889   0.573   2.768   6.878  0.2229  1.6190  0.8625
 1712Sol     MW 9890   0.652   2.764   6.837 -0.1091  0.2839 -0.0319
 1713Sol     OW 9891   3.010   1.350   5.204  0.3315  0.0616 -0.4088
 1713Sol     HW 9892   2.977   1.424   5.255  0.1777 -0.5626  0.4008
 1713Sol     HW 9893   3.098   1.334   5.239 -0.0557 -0.8328  0.1513
 1713Sol     MW 9894   3.015   1.356   5.211  0.0037 -0.4974  0.4621
 1714Sol     OW 9895   1.738   2.358   6.851 -0.4129  0.1683  0.2334
 1714Sol     HW 9896   1.699   2.340   6.766 -0.6528  1.1653  0.1371
 1714Sol     HW 9897   1.676   2.322   6.914 -0.4871 -0.0994  0.0079
 1714Sol     MW 9898   1.729   2.353   6.849 -0.1912 -0.3079 -0.2008
 1715Sol     OW 9899   1.717   1.616   7.764 -0.0418  1.0599  0.0872
 1715Sol     HW 9900   1.648   1.581   7.821  0.1231 -1.3812 -1.1323
 1715Sol     HW 9901   1.795   1.567   7.789  0.4393  1.2729 -0.9682
 1715Sol     MW 9902   1.717   1.608   7.772  0.1677 -0.4827 -0.0660
 1716Sol     OW 9903   0.999   0.775   1.989 -0.3952 -0.2619  0.1638
 1716Sol     HW 9904   0.960   0.830   1.921  1.3208 -0.2783 -0.8712
 1716Sol     HW 9905   1.020   0.836   2.060  0.8887  0.3233 -0.7064
 1716Sol     MW 9906   0.998   0.785   1.990  0.5289  0.1289 -0.2122
 1717Sol     OW 9907   3.188   0.853   4.377 -0.6564 -0.0607 -0.0163
 1717Sol     HW 9908   3.135   0.843   4.297  0.1225 -0.6457 -0.4769
 1717Sol     HW 9909   3.125   0.848   4.448 -1.5280  1.8123 -0.6370
 1717Sol     MW 9910   3.177   0.851   4.376  0.7703  0.0149 -0.2586
 1718Sol     OW 9911   1.560   1.896   4.979 -0.3495  0.0832  0.7096
 1718Sol     HW 9912   1.647   1.922   5.009  0.1669  0.9697 -1.4242
 1718Sol     HW 9913   1.577   1.829   4.913 -1.0230  2.8108 -2.3728
 1718Sol     MW 9914   1.569   1.893   4.976 -0.3572  0.7232 -0.2869
 1719Sol     OW 9915   1.715   1.668   5.122 -0.9294 -0.2872  0.0991
 1719Sol     HW 9916   1.751   1.614   5.193  2.2152 -0.4153 -1.5295
 1719Sol     HW 9917   1.665   1.606   5.068  0.4499 -1.0899 -0.2887
 1719Sol     MW 9918   1.714   1.657   5.124 -0.3839  0.2279 -0.6216
 1720Sol     OW 9919   1.277   0.065   5.867 -0.0884  0.1839 -0.0968
 1720Sol     HW 9920   1.200   0.049   5.812 -1.0138 -1.1853  1.5331
 1720Sol     HW 9921   1.249   0.134   5.927  0.6005  1.0106 -0.7200
 1720Sol     MW 9922   1.267   0.069   5.868 -0.5213  0.3397  0.1209
 1721Sol     OW 9923   0.241   1.060   2.739  0.3167 -0.7864  0.1227
 1721Sol     HW 9924   0.159   1.103   2.764 -0.1492  0.1854 -2.9570
 1721Sol     HW 9925   0.307   1.128   2.752  0.4649 -1.1141  1.1778
 1721Sol     MW 9926   0.239   1.070   2.743 -0.0382 -0.2544  0.1132
 1722Sol     OW 9927   3.369   1.954   1.491 -0.3333 -0.3778 -0.3290
 1722Sol     HW 9928   3.325   1.887   1.543 -0.4966 -0.9086 -1.1473
 1722Sol     HW 9929   3.299   2.009   1.457 -0.4503 -1.7233 -2.3283
 1722Sol     MW 9930   3.359   1.953   1.492  0.5147 -0.0420  0.4458
 1723Sol     OW 9931   2.894   0.338   7.273 -0.3278 -0.2321 -0.2554
 1723Sol     HW 9932   2.902   0.416   7.219 -2.4627 -0.2226 -0.5879
 1723Sol     HW 9933   2.873   0.267   7.212 -0.6280 -0.6349  0.3069
 1723Sol     MW 9934   2.893   0.338   7.263  0.3967 -0.6670  0.1761
 1724Sol     OW 9935   3.014   0.009   1.865 -0.0815  0.3856 -0.1552
 1724Sol     HW 9936   2.918   0.002   1.856 -0.1304 -0.8064  1.0951
 1724Sol     HW 9937   3.036   0.090   1.820 -1.6775  0.6181 -0.5690
 1724Sol     MW 9938   3.007   0.015   1.860 -0.5372 -0.5009 -0.0406
 1725Sol     OW 9939   0.080   3.001   6.400 -0.8688 -0.3892 -0.1763
 1725Sol     HW 9940   0.154   2.946   6.374  0.6994  2.5421 -2.1829
 1725Sol     HW 9941   0.062   2.974   6.490  1.6833 -2.2153 -0.1332
 1725Sol     MW 9942   0.085   2.994   6.406 -0.1212 -0.5060 -0.4023
 1726Sol     OW 9943   0.472   3.234   4.255 -0.2565 -0.4665 -0.4515
 1726Sol     HW 9944   0.427   3.296   4.198  0.4793  0.8145  0.3050
 1726Sol     HW 9945   0.543   3.199   4.201  0.2850  0.5468 -0.4052
 1726Sol     MW 9946   0.475   3.237   4.245 -0.1225  0.6861 -0.3074
 1727Sol     OW 9947   2.768   0.542   8.432  0.4291  0.1563 -0.1575
 1727Sol     HW 9948   2.728   0.544   8.519  0.5852  1.8099 -0.1118
 1727Sol     HW 9949   2.753   0.453   8.401 -1.4598  0.1395  0.7282
 1727Sol     MW 9950   2.763   0.534   8.437  0.2189 -0.8099 -0.1318
 1728Sol     OW 9951   0.830   3.285   3.254  0.0149  0.6550  0.0870
 1728Sol     HW 9952   0.766   3.291   3.324 -1.0984  0.5739 -0.9075
 1728Sol     HW 9953   0.893   3.355   3.273 -0.3096  0.6738  1.1213
 1728Sol     MW 9954   0.830   3.292   3.262 -0.5942 -0.4004 -0.0916
 1729Sol     OW 9955   3.097   2.430   9.008 -0.0431 -0.1536 -0.1288
 1729Sol     HW 9956   3.050   2.347   8.997 -0.4318 -0.2709  2.1736
 1729Sol     HW 9957   3.187   2.405   9.027  0.6433  0.0487 -2.8724
 1729Sol     MW 9958   3.101   2.421   9.009  0.2629  0.1644 -0.2421
 1730Sol     OW 9959   1.455   2.169   7.904 -0.0177  0.9702  0.3804
 1730Sol     HW 9960   1.360   2.167   7.895  0.1623  0.1501 -1.5471
 1730Sol     HW 9961   1.488   2.175   7.815  1.7384  2.3583  1.0745
 1730Sol     MW 9962   1.449   2.170   7.896 -0.1200 -0.8961  0.1632
 1731Sol     OW 9963   2.760   0.617   3.732  0.1279  0.6307 -0.1150
 1731Sol     HW 9964   2.706   0.593   3.808  1.2027  1.3219  0.8987
 1731Sol     HW 9965   2.823   0.545   3.724 -0.4826  0.1790 -0.8389
 1731Sol     MW 9966   2.761   0.608   3.738  0.3859  0.1317  0.2081
 1732Sol     OW 9967   0.588   0.468   2.511 -0.3433  0.1745  0.1786
 1732Sol     HW 9968   0.658   0.500   2.568  0.0440  1.8362 -1.1688
 1732Sol     HW 9969   0.516   0.446   2.571  0.8147 -0.1793  1.4578
 1732Sol     MW 9970   0.588   0.469   2.521 -0.4691  0.2402  0.3065
 1733Sol     OW 9971   1.489   0.347   6.314  0.3740 -0.0934  0.0790
 1733Sol     HW 9972   1.425   0.278   6.300  0.9179 -0.1523 -2.2924
 1733Sol     HW 9973   1.572   0.308   6.286  1.0115  0.8415  0.6610
 1733Sol     MW 9974   1.491   0.337   6.310 -0.0979  0.1436 -0.6711
 1734Sol     OW 9975   2.573   2.728   4.354  0.1800 -0.1949 -0.5074
 1734Sol     HW 9976   2.648   2.771   4.396 -0.7205  1.5384 -0.6395
 1734Sol     HW 9977   2.509   2.798   4.341 -0.3275 -1.0759 -3.0357
 1734Sol     MW 9978   2.574   2.738   4.356 -0.4821 -0.4598  0.0241
 1735Sol     OW 9979   2.911   0.274   2.077 -0.0885 -0.2236  0.0272
 1735Sol     HW 9980   2.869   0.310   1.999  0.1478 -0.4697 -0.2172
 1735Sol     HW 9981   2.984   0.334   2.095 -0.4284  0.0983  0.3408
 1735Sol     MW 9982   2.914   0.283   2.072 -0.2268  0.1977  0.3640
 1736Sol     OW 9983   1.528   3.317   4.101 -0.8938 -0.4868  0.4149
 1736Sol     HW 9984   1.456   3.268   4.142 -0.5870 -1.5955 -0.3523
 1736Sol     HW 9985   1.498   3.408   4.103 -1.9544 -0.8262  0.8615
 1736Sol     MW 9986   1.519   3.320   4.105  0.4532 -0.1041 -0.3624
 1737Sol     OW 9987   1.358   1.912   4.137 -0.0440  0.1883  0.1490
 1737Sol     HW 9988   1.439   1.866   4.115  0.0220  0.2809  0.2014
 1737Sol     HW 9989   1.324   1.865   4.214 -0.4098 -0.3011 -0.3031
 1737Sol     MW 9990   1.362   1.903   4.142 -0.2642 -0.8143  0.5478
 1738Sol     OW 9991   0.993   3.351   5.536 -0.3265 -0.0794  0.0116
 1738Sol     HW 9992   0.980   3.354   5.441  2.9906  0.9988 -0.4472
 1738Sol     HW 9993   1.075   3.303   5.548  1.1584  2.8633  2.1146
 1738Sol     MW 9994   0.999   3.347   5.528 -0.6800  0.8382 -0.6551
 1739Sol     OW 9995   2.765   0.715   6.077 -0.3928 -0.3601  0.3840
 1739Sol     HW 9996   2.826   0.786   6.058 -0.5233  0.4597  2.8588
 1739Sol     HW 9997   2.748   0.723   6.171 -3.1306 -1.5282  0.0117
 1739Sol     MW 9998   2.769   0.722   6.084  0.0471  0.2115 -0.0262
 1740Sol     OW 9999   2.783   0.850   7.364 -0.3011 -1.1029  0.0706
 1740Sol     HW10000   2.848   0.896   7.417  0.6412 -3.5536  1.1678
 1740Sol     HW10001   2.809   0.868   7.273 -0.0344  0.5646  0.4662
 1740Sol     MW10002   2.791   0.855   7.360  0.1201 -0.4565 -0.1660
 1741Sol     OW10003   2.624   3.141   3.807 -0.0082  0.0539 -0.0286
 1741Sol     HW10004   2.555   3.132   3.872  0.6437  0.2751  0.7009
 1741Sol     HW10005   2.699   3.095   3.845  0.0384 -0.8203 -1.1361
 1741Sol     MW10006   2.624   3.136   3.816  0.2520 -0.1451  0.0026
 1742Sol     OW10007   3.563   1.641   6.149  0.2717  0.6984 -0.1107
 1742Sol     HW10008   3.468   1.650   6.156  0.3442  0.3343  1.5771
 1742Sol     HW10009   3.578   1.546   6.148  0.8473  0.6873  3.6949
 1742Sol     MW10010   3.556   1.633   6.149 -0.1733 -0.2435  0.9600
 1743Sol     OW10011   1.952   1.998   6.964  0.7513  0.2294  0.1596
 1743Sol     HW10012   1.933   1.992   7.057 -1.3115 -1.1736 -0.3052
 1743Sol     HW10013   1.983   2.088   6.951 -0.1022  0.8043  1.9866
 1743Sol     MW10014   1.953   2.006   6.971 -0.2218 -0.1528 -0.3762
 1744Sol     OW10015   2.597   3.332   6.075  0.0021  0.1285  0.4406
 1744Sol     HW10016   2.559   3.412   6.111 -0.8906 -0.1384  0.1104
 1744Sol     HW10017   2.543   3.312   5.998  1.2621  0.1320 -0.4611
 1744Sol     MW10018   2.588   3.337   6.071  0.0403  0.6250 -0.0971
 1745Sol     OW10019   2.759   0.971   4.975 -0.1284  0.2023  1.1589
 1745Sol     HW10020   2.761   1.066   4.960  0.6899  0.3125  1.9247
 1745Sol     HW10021   2.757   0.933   4.888 -1.5693  0.9424  0.8456
 1745Sol     MW10022   2.759   0.976   4.966  0.2157  0.2016  0.2592
 1746Sol     OW10023   2.682   3.126   7.972 -0.2798 -0.4494 -0.1331
 1746Sol     HW10024   2.614   3.176   7.927  1.4452  1.1710 -1.0150
 1746Sol     HW10025   2.764   3.158   7.935  0.9408 -3.3514 -0.0857
 1746Sol     MW10026   2.683   3.133   7.965  0.4287 -0.2972 -0.0487
 1747Sol     OW10027   0.735   2.177   8.060  0.3399 -0.0729  0.3722
 1747Sol     HW10028   0.654   2.182   8.008  0.0038 -2.3791  0.5998
 1747Sol     HW10029   0.791   2.245   8.023 -1.0574  0.3951 -0.9643
 1747Sol     MW10030   0.733   2.183   8.052 -0.4735  0.4849 -1.0010
 1748Sol     OW10031   0.488   2.277   2.933 -0.0830  0.4614 -0.7743
 1748Sol     HW10032   0.578   2.301   2.912  0.2149 -0.2898 -0.3965
 1748Sol     HW10033   0.480   2.185   2.906 -0.7130  0.4978 -0.7361
 1748Sol     MW10034   0.495   2.271   2.929  0.1419 -0.7258  0.0172
 1749Sol     OW10035   1.742   0.564   5.790 -0.3047  0.5349 -0.1667
 1749Sol     HW10036   1.826   0.525   5.765  0.0721  1.1330  0.1613
 1749Sol     HW10037   1.715   0.614   5.713 -0.7092 -0.2259 -0.5282
 1749Sol     MW10038   1.747   0.565   5.781  0.1158 -0.5270 -0.4282
 1750Sol     OW10039   0.239   0.768   2.665 -0.2992 -0.4638  0.6963
 1750Sol     HW10040   0.329   0.743   2.688 -0.3531 -0.9936  0.3292
 1750Sol     HW10041   0.223   0.848   2.715  0.4711 -0.2196  0.5503
 1750Sol     MW10042   0.246   0.773   2.672  0.2751 -0.0621  0.0707
 1751Sol     OW10043   1.962   3.181   4.421 -0.6879  0.0935  0.5101
 1751Sol     HW10044   1.975   3.275   4.404  0.3271 -0.2064 -0.4748
 1751Sol     HW10045   1.901   3.153   4.353  0.1421 -0.2483 -0.1088
 1751Sol     MW10046   1.958   3.187   4.413  0.2377  0.0316  0.3032
 1752Sol     OW10047   0.376   3.102   5.122 -0.3701 -0.2707 -0.6533
 1752Sol     HW10048   0.373   3.082   5.029  1.1098 -1.2529 -0.4997
 1752Sol     HW10049   0.469   3.104   5.144 -0.6836  0.3923  0.7142
 1752Sol     MW10050   0.384   3.101   5.116  0.2819  0.1263 -0.1227
 1753Sol     OW10051   0.504   2.013   2.865 -0.4784  0.2235 -0.1200
 1753Sol     HW10052   0.418   2.013   2.823 -0.4905 -0.4086 -0.0899
 1753Sol     HW10053   0.515   1.924   2.899  0.8399 -0.1170 -1.4170
 1753Sol     MW10054   0.497   2.005   2.865 -0.5739  0.1223 -0.0455
 1754Sol     OW10055   1.478   0.506   1.676 -0.1438  0.2269 -0.0112
 1754Sol     HW10056   1.565   0.541   1.692  1.4670 -2.9142 -1.4605
 1754Sol     HW10057   1.493   0.425   1.626 -3.8426 -0.6604  0.1449
 1754Sol     MW10058   1.487   0.501   1.673 -0.7801 -0.2647  0.3041
 1755Sol     OW10059   0.644   0.578   5.374 -0.1760  0.3095  0.3712
 1755Sol     HW10060   0.674   0.657   5.329  1.7211 -1.0005 -0.7200
 1755Sol     HW10061   0.701   0.571   5.450 -0.0840 -0.2351  0.2513
 1755Sol     MW10062   0.652   0.585   5.377  0.1317  0.2551  0.9669
 1756Sol     OW10063   2.144   0.818   2.699 -0.2177 -0.3517  0.1282
 1756Sol     HW10064   2.121   0.726   2.687 -1.5226  0.2552 -2.2602
 1756Sol     HW10065   2.088   0.866   2.638  2.4281  1.7910 -0.7236
 1756Sol     MW10066   2.137   0.814   2.693 -0.1796 -0.0954 -0.4381
 1757Sol     OW10067   1.354   0.415   2.378 -0.4671  0.6995 -0.1560
 1757Sol     HW10068   1.392   0.408   2.290 -1.0963  0.2099 -0.3945
 1757Sol     HW10069   1.262   0.393   2.365 -0.7111  1.3216  0.5139
 1757Sol     MW10070   1.349   0.413   2.369 -0.9034  0.5328 -0.3204
 1758Sol     OW10071   3.073   1.537   1.705  0.0470 -0.3599 -0.3020
 1758Sol     HW10072   3.167   1.519   1.698  0.3052  1.1657 -0.9978
 1758Sol     HW10073   3.034   1.452   1.724  1.6399 -0.8931  0.7089
 1758Sol     MW10074   3.078   1.528   1.706 -0.4710  0.3648  0.2914
 1759Sol     OW10075   0.410   3.102   4.802 -0.1131  0.4751 -0.2124
 1759Sol     HW10076   0.340   3.076   4.742  1.5135  0.8522 -2.3219
 1759Sol     HW10077   0.440   3.187   4.769  0.7788  0.7188  1.1815
 1759Sol     MW10078   0.407   3.107   4.794 -0.5508 -0.3067  0.5062
 1760Sol     OW10079   3.348   3.327   4.970  0.5105 -0.2845  0.0329
 1760Sol     HW10080   3.392   3.370   5.043  2.4496 -0.9555 -0.7015
 1760Sol     HW10081   3.257   3.320   4.998  1.5773 -2.4226  3.3123
 1760Sol     MW10082   3.344   3.330   4.979  0.5455  0.2547 -0.0817
 1761Sol     OW10083   0.088   1.913   1.798 -0.4565 -0.3652  0.7638
 1761Sol     HW10084   0.090   1.931   1.892 -0.0724  1.1409  0.4896
 1761Sol     HW10085   0.022   1.974   1.764 -0.0157 -0.3459 -0.0490
 1761Sol     MW10086   0.082   1.920   1.803 -0.0533  0.1815 -0.4770
 1762Sol     OW10087   1.996   1.682   1.820 -0.4258  0.0400  0.1805
 1762Sol     HW10088   2.057   1.750   1.790  0.2663 -0.0461  1.3738
 1762Sol     HW10089   2.023   1.603   1.773 -1.2483  0.5659 -1.2312
 1762Sol     MW10090   2.004   1.681   1.813  0.0065  0.2208 -0.0104
 1763Sol     OW10091   1.660   2.240   5.767 -0.6459 -0.1950  0.1824
 1763Sol     HW10092   1.735   2.220   5.711 -0.9482  0.1730 -0.3603
 1763Sol     HW10093   1.687   2.211   5.854  0.4551  0.6826  0.1634
 1763Sol     MW10094   1.669   2.236   5.769  0.0593 -0.3134  0.5144
 1764Sol     OW10095   0.076   2.140   5.475  0.2840 -0.0891 -0.1775
 1764Sol     HW10096   0.038   2.190   5.403  0.5470 -0.0888 -0.3168
 1764Sol     HW10097   0.169   2.162   5.474  0.5534 -1.1926 -0.7590
 1764Sol     MW10098   0.081   2.146   5.469 -0.2415 -0.0111 -0.4421
 1765Sol     OW10099   2.118   2.093   8.117 -0.4316  0.4153 -0.1357
 1765Sol     HW10100   2.026   2.116   8.125 -0.3545  0.0883  2.1827
 1765Sol     HW10101   2.149   2.087   8.208  1.4954 -0.9341 -0.8425
 1765Sol     MW10102   2.113   2.095   8.126 -0.2491  0.0246 -0.0950
 1766Sol     OW10103   1.229   0.885   5.974 -0.6623 -0.4131 -0.3013
 1766Sol     HW10104   1.304   0.836   6.005 -1.5670 -1.5283  0.1399
 1766Sol     HW10105   1.267   0.956   5.921  0.7595  0.0069  1.2313
 1766Sol     MW10106   1.239   0.887   5.972 -0.7476 -0.2460 -0.5677
 1767Sol     OW10107   1.877   2.882   5.229  0.8779 -0.1768 -0.6264
 1767Sol     HW10108   1.901   2.963   5.274 -1.0106  0.6076 -0.9819
 1767Sol     HW10109   1.883   2.814   5.297  0.1584  0.6449  0.2670
 1767Sol     MW10110   1.880   2.883   5.240  0.0512  0.2166 -0.5750
 1768Sol     OW10111   0.613   2.295   2.546  0.2042  0.5471 -0.1807
 1768Sol     HW10112   0.583   2.357   2.612 -0.8525 -0.8885  0.7370
 1768Sol     HW10113   0.706   2.313   2.537  0.5574  0.2296  2.3545
 1768Sol     MW10114   0.619   2.302   2.551  0.0703 -0.1070 -0.3753
 1769Sol     OW10115   1.587   0.227   7.226 -0.7666 -0.5707  0.0340
 1769Sol     HW10116   1.516   0.282   7.259  1.4227  0.7879  2.6925
 1769Sol     HW10117   1.583   0.147   7.279 -1.3096 -1.2015 -0.9405
 1769Sol     MW10118   1.580   0.225   7.234  0.3630 -1.0662 -0.3134
 1770Sol     OW10119   0.687   3.311   5.609  0.7026 -0.3857 -0.6121
 1770Sol     HW10120   0.778   3.315   5.582  0.8914 -1.7694 -0.2121
 1770Sol     HW10121   0.645   3.252   5.545 -0.5108  2.2940 -2.3895
 1770Sol     MW10122   0.691   3.306   5.601 -0.1470 -0.5772 -0.3492
 1771Sol     OW10123   0.954   1.603   1.544 -0.7997 -0.0235  0.1926
 1771Sol     HW10124   1.044   1.576   1.562 -1.2273 -1.0556  0.9148
 1771Sol     HW10125   0.907   1.520   1.530 -1.8435  0.4271  0.9049
 1771Sol     MW10126   0.958   1.593   1.545 -0.2113 -0.0277 -0.0460
 1772Sol     OW10127   0.512   0.738   6.347  0.3388  0.1052 -0.2334
 1772Sol     HW10128   0.564   0.818   6.336 -0.4783  0.5068 -1.3661
 1772Sol     HW10129   0.517   0.718   6.440 -1.3731  2.8441  0.5324
 1772Sol     MW10130   0.517   0.744   6.354  0.0511  1.2138 -0.2727
 1773Sol     OW10131   2.805   2.993   6.503 -0.2776 -0.1502 -0.4826
 1773Sol     HW10132   2.731   2.941   6.470 -0.7565  0.9003 -1.1014
 1773Sol     HW10133   2.767   3.078   6.523  1.0512  0.9278 -2.3502
 1773Sol     MW10134   2.795   2.996   6.502  0.8617 -0.3331 -0.5547
 1774Sol     OW10135   1.650   2.973   7.913 -0.0870 -0.0920  0.1920
 1774Sol     HW10136   1.680   2.928   7.834 -1.2242 -0.2574 -0.1545
 1774Sol     HW10137   1.685   3.061   7.906 -0.1481 -0.1182 -0.4832
 1774Sol     MW10138   1.655   2.977   7.905 -0.1340  0.5374  0.4128
 1775Sol     OW10139   3.276   0.797   8.338 -0.1272  0.2678  0.5525
 1775Sol     HW10140   3.339   0.751   8.284  0.7432 -0.6682  2.3431
 1775Sol     HW10141   3.210   0.732   8.359  0.3110  0.2326  1.8352
 1775Sol     MW10142   3.276   0.787   8.335  0.1366  0.0273 -0.3505
 1776Sol     OW10143   2.599   1.485   5.032  0.3736  0.3578  0.1102
 1776Sol     HW10144   2.520   1.432   5.047  0.5612 -0.3461 -1.2828
 1776Sol     HW10145   2.576   1.572   5.065 -1.6202  0.6245 -1.8634
 1776Sol     MW10146   2.590   1.488   5.036  0.0689 -0.1312  0.0428
 1777Sol     OW10147   1.473   0.182   8.661 -0.2849  0.2518 -0.0125
 1777Sol     HW10148   1.416   0.251   8.629  1.4177  1.1928 -1.0521
 1777Sol     HW10149   1.481   0.200   8.755 -1.0309  0.5743 -0.0034
 1777Sol     MW10150   1.469   0.190   8.667  0.6340  0.3945 -0.4454
 1778Sol     OW10151   2.844   2.400   4.401  0.1418 -0.2674 -0.1113
 1778Sol     HW10152   2.875   2.479   4.447 -0.0457 -0.9037  1.1370
 1778Sol     HW10153   2.762   2.377   4.446 -1.9083  1.0761 -3.0178
 1778Sol     MW10154   2.839   2.405   4.410  0.7035 -0.3045 -0.4149
 1779Sol     OW10155   1.360   3.336   1.395 -0.1673 -0.1330  0.0517
 1779Sol     HW10156   1.294   3.319   1.328 -0.8947 -0.7988  0.9211
 1779Sol     HW10157   1.331   3.415   1.439  0.3533  0.3496 -0.4705
 1779Sol     MW10158   1.352   3.341   1.393 -0.5158 -0.7596  0.0531
 1780Sol     OW10159   0.380   1.382   2.698  0.1384 -0.3669 -0.1018
 1780Sol     HW10160   0.403   1.475   2.698  0.4598 -0.4357 -1.5844
 1780Sol     HW10161   0.377   1.357   2.605  1.2457 -2.1240  0.2979
 1780Sol     MW10162   0.382   1.388   2.690  0.0002  0.0431  0.0289
 1781Sol     OW10163   3.124   1.340   5.885 -0.3735  0.3564  0.3280
 1781Sol     HW10164   3.064   1.273   5.853  1.6883 -0.9089 -1.0038
 1781Sol     HW10165   3.081   1.423   5.861 -0.7314 -0.5328 -2.3163
 1781Sol     MW10166   3.115   1.342   5.880  0.6493 -0.3406 -0.1982
 1782Sol     OW10167   2.334   0.075   8.573 -0.3148 -0.2523 -0.2573
 1782Sol     HW10168   2.394   0.122   8.631 -0.6191  0.5871 -0.6257
 1782Sol     HW10169   2.267   0.039   8.631 -0.9987  1.1577 -0.1485
 1782Sol     MW10170   2.334   0.076   8.583 -0.4952 -0.7424  0.2326
 1783Sol     OW10171   2.511   1.997   2.592  0.1896 -0.1702 -0.2150
 1783Sol     HW10172   2.579   2.029   2.651  1.3547 -3.4113  0.3471
 1783Sol     HW10173   2.504   2.063   2.524  2.2074  1.3586  1.0131
 1783Sol     MW10174   2.516   2.006   2.591  0.3862 -0.6753 -0.6424
 1784Sol     OW10175   1.066   3.232   5.203 -0.4554  0.2910  0.2886
 1784Sol     HW10176   1.158   3.239   5.228 -0.1731  0.3239 -0.7484
 1784Sol     HW10177   1.043   3.140   5.219 -0.1228  0.1817  0.1298
 1784Sol     MW10178   1.072   3.224   5.207 -0.4065  0.3477 -0.3407
 1785Sol     OW10179   1.915   1.596   3.518  0.4142 -0.1741 -0.0695
 1785Sol     HW10180   1.889   1.510   3.551 -0.1697 -0.7653 -1.9494
 1785Sol     HW10181   1.868   1.658   3.574  0.2181 -1.1005  0.8122
 1785Sol     MW10182   1.908   1.594   3.526 -0.0005 -0.1390 -0.1124
 1786Sol     OW10183   1.332   0.151   3.435 -0.1124  0.0122  0.4439
 1786Sol     HW10184   1.389   0.116   3.366 -2.3817 -1.3381 -0.8288
 1786Sol     HW10185   1.327   0.081   3.500 -0.1389  0.2007  0.6446
 1786Sol     MW10186   1.336   0.142   3.434 -0.0613  0.0145 -0.2052
 1787Sol     OW10187   3.402   0.488   1.617  0.2351 -0.4495  0.1540
 1787Sol     HW10188   3.347   0.487   1.538 -0.4542  0.8678  0.6020
 1787Sol     HW10189   3.371   0.564   1.666  1.8907 -0.2010  0.8369
 1787Sol     MW10190   3.394   0.495   1.614  0.1807  0.9291  0.1288
 1788Sol     OW10191   3.380   2.547   1.400 -0.2634  0.3409  0.3572
 1788Sol     HW10192   3.380   2.558   1.495 -2.1917  1.3759  0.2665
 1788Sol     HW10193   3.386   2.635   1.365  0.4229 -0.0365 -0.4837
 1788Sol     MW10194   3.380   2.556   1.405  0.2919 -0.0995 -1.1214
 1789Sol     OW10195   0.725   2.760   1.268 -0.2324  0.8454 -0.2055
 1789Sol     HW10196   0.765   2.780   1.183  0.6250  0.4315  0.0915
 1789Sol     HW10197   0.633   2.744   1.248 -0.0200  0.6875 -1.0755
 1789Sol     MW10198   0.720   2.760   1.259 -0.3046 -0.6217  0.3193
 1790Sol     OW10199   1.801   1.083   5.506 -0.1678  0.3037  0.3612
 1790Sol     HW10200   1.742   1.113   5.436  1.6666  0.3150 -1.2168
 1790Sol     HW10201   1.801   0.987   5.497  0.7401  0.3513 -0.2385
 1790Sol     MW10202   1.796   1.077   5.499 -0.3595 -0.1246 -0.6483
 1791Sol     OW10203   1.298   1.835   1.974 -0.3368 -0.0863  0.0094
 1791Sol     HW10204   1.306   1.929   1.955 -1.7519  0.0997  0.2490
 1791Sol     HW10205   1.206   1.815   1.957  0.2095 -1.7091 -1.1786
 1791Sol     MW10206   1.290   1.842   1.971 -0.0776 -0.8355  0.1573
 1792Sol     OW10207   0.918   1.503   5.933 -0.0092  0.8898  0.4045
 1792Sol     HW10208   0.855   1.439   5.967  0.3758  0.8705  1.1125
 1792Sol     HW10209   0.970   1.527   6.010  0.7315  1.0342 -0.1411
 1792Sol     MW10210   0.917   1.500   5.943 -0.0667 -0.2167 -0.1102
 1793Sol     OW10211   0.074   0.568   6.201 -0.0505 -0.0397 -0.6440
 1793Sol     HW10212   0.125   0.643   6.231 -1.2774  0.4500  0.2488
 1793Sol     HW10213   0.106   0.552   6.112  0.6361  1.1604 -0.6292
 1793Sol     MW10214   0.082   0.573   6.195  0.4348 -0.2699 -0.4076
 1794Sol     OW10215   0.822   0.831   1.428  0.0468 -0.0084 -0.2452
 1794Sol     HW10216   0.880   0.866   1.360  0.2783  0.4923  0.2055
 1794Sol     HW10217   0.752   0.788   1.380  0.5167 -0.1580 -0.8006
 1794Sol     MW10218   0.821   0.830   1.418 -0.2678 -0.4920  0.1391
 1795Sol     OW10219   2.774   1.714   6.635  0.2875  0.0153  0.1307
 1795Sol     HW10220   2.722   1.759   6.702 -0.9092 -0.6553 -0.3239
 1795Sol     HW10221   2.863   1.712   6.671 -0.4701 -0.9560  2.0476
 1795Sol     MW10222   2.777   1.718   6.644  0.6043 -0.3426  0.0341
 1796Sol     OW10223   3.512   0.897   2.960  0.0738  0.3196  0.0373
 1796Sol     HW10224   3.437   0.891   2.900 -1.1737  0.4886  1.5278
 1796Sol     HW10225   3.495   0.977   3.010  0.4516 -0.4478  1.4224
 1796Sol     MW10226   3.503   0.904   2.959  0.1454  0.1604  0.8568
 1797Sol     OW10227   1.536   1.699   3.235 -0.6227 -0.4931  0.6236
 1797Sol     HW10228   1.624   1.663   3.225 -0.5515  0.3562 -2.3839
 1797Sol     HW10229   1.549   1.782   3.279  0.4732  0.9861 -2.3403
 1797Sol     MW10230   1.545   1.703   3.238 -0.1830  1.0598  0.4664
 1798Sol     OW10231   1.374   1.712   6.829 -0.3433 -0.4071  0.0403
 1798Sol     HW10232   1.400   1.620   6.832  0.2774 -0.2218  0.4004
 1798Sol     HW10233   1.282   1.712   6.856  0.3741 -0.6420  2.5852
 1798Sol     MW10234   1.368   1.704   6.832  0.3956 -0.0782 -0.2331
 1799Sol     OW10235   2.203   0.125   3.117 -0.2176 -0.3872 -0.0968
 1799Sol     HW10236   2.271   0.177   3.159 -0.3269 -0.6618  0.4313
 1799Sol     HW10237   2.134   0.189   3.096 -0.1457 -0.2407  0.1068
 1799Sol     MW10238   2.203   0.136   3.119 -0.4256 -0.2313  0.1977
 1800Sol     OW10239   1.004   1.174   4.606  0.2311  0.2542  0.1966
 1800Sol     HW10240   1.043   1.112   4.668 -0.7891 -3.0718 -2.3612
 1800Sol     HW10241   1.053   1.162   4.525 -1.3912  1.2359 -0.9601
 1800Sol     MW10242   1.011   1.168   4.605 -0.0997 -0.3578  0.1429
 1801Sol     OW10243   3.151   1.284   6.165  0.1432 -0.4963  0.3139
 1801Sol     HW10244   3.140   1.291   6.070 -2.3550 -0.5161  0.5672
 1801Sol     HW10245   3.149   1.374   6.196 -0.4535 -0.5755  0.4965
 1801Sol     MW10246   3.150   1.292   6.159  0.4165 -0.9349  0.2276
 1802Sol     OW10247   2.344   1.722   4.828  0.3311  0.2241 -0.5126
 1802Sol     HW10248   2.351   1.802   4.777  0.8020  0.6078  0.1602
 1802Sol     HW10249   2.412   1.729   4.895 -0.9247  0.1689  0.7922
 1802Sol     MW10250   2.351   1.729   4.829  0.0999 -0.0094 -0.6390
 1803Sol     OW10251   2.195   1.040   6.355 -0.2232 -0.2101 -0.3501
 1803Sol     HW10252   2.114   1.034   6.306 -0.3312 -1.0110 -0.0816
 1803Sol     HW10253   2.262   1.055   6.288 -0.5705  0.2662 -0.5885
 1803Sol     MW10254   2.194   1.040   6.345 -0.4694 -0.0381  0.0024
 1804Sol     OW10255   2.870   2.055   4.023  0.4081  0.4178  0.1908
 1804Sol     HW10256   2.782   2.082   3.996 -0.4543 -1.1520  1.2851
 1804Sol     HW10257   2.876   1.963   3.996  2.2877  0.9300 -1.1964
 1804Sol     MW10258   2.862   2.049   4.018  0.1973  0.2023 -0.0112
 1805Sol     OW10259   1.458   1.944   6.931 -0.6104  0.0985 -0.5448
 1805Sol     HW10260   1.447   1.865   6.877  2.2263  0.0311 -1.0752
 1805Sol     HW10261   1.410   2.012   6.883 -1.0956 -0.7580 -1.3024
 1805Sol     MW10262   1.453   1.943   6.922  0.0741 -0.0166 -0.1269
 1806Sol     OW10263   0.118   0.598   5.296 -0.0615  0.1248  0.0544
 1806Sol     HW10264   0.205   0.570   5.266 -0.2034  0.1248 -0.3583
 1806Sol     HW10265   0.133   0.681   5.340  0.4416 -0.8071  1.7067
 1806Sol     MW10266   0.127   0.603   5.298 -0.2417 -1.2719 -0.1414
 1807Sol     OW10267   2.266   3.298   2.937 -0.2561 -0.2083  0.1932
 1807Sol     HW10268   2.239   3.390   2.940  0.7821  0.0733  1.8020
 1807Sol     HW10269   2.265   3.270   3.028  0.4158 -1.4962 -0.1853
 1807Sol     MW10270   2.264   3.304   2.945 -0.0891  0.3895  0.0338
 1808Sol     OW10271   1.288   0.489   6.023 -0.0820 -0.1636 -0.3087
 1808Sol     HW10272   1.359   0.480   5.959  2.2074 -1.5796  2.3095
 1808Sol     HW10273   1.330   0.528   6.100 -1.7182 -2.7056  1.9423
 1808Sol     MW10274   1.298   0.492   6.025 -0.4318  0.2899  0.5040
 1809Sol     OW10275   1.857   3.402   7.047  0.1129 -0.2883  0.0892
 1809Sol     HW10276   1.780   3.346   7.043 -0.2391  0.1181  0.9981
 1809Sol     HW10277   1.931   3.341   7.039 -0.2986 -0.3954 -3.7315
 1809Sol     MW10278   1.857   3.391   7.046  0.0193  0.0193 -0.0426
 1810Sol     OW10279   1.103   0.537   2.022  0.6860 -0.1434 -0.8691
 1810Sol     HW10280   1.183   0.527   1.972  0.8178  1.9618 -1.1152
 1810Sol     HW10281   1.079   0.629   2.011 -2.5954 -1.0830 -2.0529
 1810Sol     MW10282   1.108   0.544   2.017  0.3506  0.0803  0.1594
 1811Sol     OW10283   0.523   3.174   5.434 -0.0659  0.2424  0.6731
 1811Sol     HW10284   0.505   3.088   5.473 -0.7092  0.2255  0.3396
 1811Sol     HW10285   0.547   3.154   5.343 -1.8060  0.5352  0.1340
 1811Sol     MW10286   0.524   3.164   5.429 -0.5145 -0.1848 -0.6220
 1812Sol     OW10287   0.375   1.113   3.912  0.2040  0.1243 -0.5245
 1812Sol     HW10288   0.303   1.117   3.975  1.7933 -0.9152  1.4143
 1812Sol     HW10289   0.402   1.021   3.914  0.4879  0.1541 -2.5157
 1812Sol     MW10290   0.371   1.105   3.918 -0.0874  0.3541  0.0550
 1813Sol     OW10291   1.312   0.195   8.283  0.7616  0.0940 -0.2245
 1813Sol     HW10292   1.265   0.140   8.346  0.6098 -1.4079 -1.6135
 1813Sol     HW10293   1.402   0.165   8.287  1.8408  3.3660  2.8631
 1813Sol     MW10294   1.316   0.187   8.289  0.0926 -0.3052 -0.1306
 1814Sol     OW10295   1.577   2.203   1.522  0.2339 -0.0937 -0.0314
 1814Sol     HW10296   1.554   2.111   1.529  2.0373 -0.4247  2.1220
 1814Sol     HW10297   1.669   2.203   1.496 -0.1203  1.1197 -1.3612
 1814Sol     MW10298   1.583   2.195   1.520 -0.4551  0.6307 -0.3517
 1815Sol     OW10299   0.065   1.743   6.531  0.0292  0.0871 -0.4243
 1815Sol     HW10300   0.076   1.770   6.440  0.9872 -1.1652 -0.6898
 1815Sol     HW10301   0.151   1.710   6.557 -0.2659  0.3545  0.9054
 1815Sol     MW10302   0.074   1.742   6.525  0.2074 -0.8575  0.5646
 1816Sol     OW10303   0.443   2.719   3.287 -0.2579 -0.3597 -0.8438
 1816Sol     HW10304   0.482   2.664   3.355 -2.8140 -0.1325  0.8771
 1816Sol     HW10305   0.481   2.687   3.206 -0.0884 -3.2949  0.3173
 1816Sol     MW10306   0.450   2.711   3.286  0.3748 -0.0192 -0.2807
 1817Sol     OW10307   1.087   0.658   4.751  0.1304 -0.1854  0.0629
 1817Sol     HW10308   1.091   0.702   4.836  0.3623 -1.6245  0.8027
 1817Sol     HW10309   1.010   0.602   4.756 -0.0988  0.0517 -0.8365
 1817Sol     MW10310   1.081   0.657   4.759  0.2934  0.3181  0.3491
 1818Sol     OW10311   1.219   2.712   6.230  0.2055  0.4656 -0.0278
 1818Sol     HW10312   1.125   2.694   6.243 -0.0271  2.0959  0.6325
 1818Sol     HW10313   1.224   2.753   6.144  0.3811 -0.0884 -0.2832
 1818Sol     MW10314   1.211   2.714   6.224  0.1153 -0.1602 -0.1352
 1819Sol     OW10315   2.658   1.237   7.911  0.3522 -0.1948  0.1212
 1819Sol     HW10316   2.648   1.263   7.819  0.6093 -0.5107  0.0003
 1819Sol     HW10317   2.737   1.283   7.940 -1.2862  2.1577  1.0233
 1819Sol     MW10318   2.664   1.244   7.905  0.4101 -0.1965 -0.5410
 1820Sol     OW10319   3.379   1.316   1.425 -0.0075  0.1837 -0.4022
 1820Sol     HW10320   3.316   1.249   1.451  1.2373 -1.1581 -0.7750
 1820Sol     HW10321   3.345   1.397   1.463 -2.0950 -0.4593 -0.8389
 1820Sol     MW10322   3.370   1.317   1.431  0.1976  0.4413  0.0035
 1821Sol     OW10323   2.749   2.301   2.489  0.0443 -0.4334  0.9143
 1821Sol     HW10324   2.661   2.264   2.479  0.8954 -1.6471 -3.1527
 1821Sol     HW10325   2.808   2.227   2.477  1.6929  1.2105 -1.5464
 1821Sol     MW10326   2.747   2.291   2.487 -0.1480  0.2690  0.5321
 1822Sol     OW10327   2.343   1.299   7.542 -0.1905 -0.6506 -0.1086
 1822Sol     HW10328   2.287   1.272   7.616 -1.4813  1.6650 -0.1973
 1822Sol     HW10329   2.308   1.250   7.467 -0.7859 -0.7747  0.2394
 1822Sol     MW10330   2.334   1.292   7.542 -0.4042 -0.1932  0.2576
 1823Sol     OW10331   2.133   0.245   7.536 -0.0926 -0.0235  0.2032
 1823Sol     HW10332   2.168   0.224   7.623  1.2468 -0.3224 -0.3918
 1823Sol     HW10333   2.134   0.341   7.533  0.6093 -0.0233  0.2363
 1823Sol     MW10334   2.136   0.252   7.544 -0.6517 -0.0891  0.7901
 1824Sol     OW10335   3.039   0.014   6.209 -0.1532  0.2492 -0.0599
 1824Sol     HW10336   2.977  -0.026   6.148  2.0248  0.3500 -2.3790
 1824Sol     HW10337   3.023   0.108   6.202 -0.6541  0.2079  0.4036
 1824Sol     MW10338   3.032   0.019   6.203 -0.1965 -0.4138  0.5437
 1825Sol     OW10339   1.537   2.778   3.628  0.1130 -0.5197  0.0462
 1825Sol     HW10340   1.546   2.723   3.706  2.6043  2.3028  1.8723
 1825Sol     HW10341   1.625   2.781   3.590 -0.1070  1.6773 -0.3512
 1825Sol     MW10342   1.546   2.773   3.632  0.0962 -0.3151  0.3836
 1826Sol     OW10343   2.250   1.139   7.285 -0.3021 -0.2127  0.1114
 1826Sol     HW10344   2.250   1.164   7.193  0.3215  0.6889  0.3547
 1826Sol     HW10345   2.168   1.174   7.319  0.1468  0.7250  0.2391
 1826Sol     MW10346   2.243   1.144   7.280 -0.1282 -1.1910  0.5560
 1827Sol     OW10347   2.067   2.015   8.799 -0.1347 -0.1104  0.5029
 1827Sol     HW10348   1.983   2.005   8.842 -0.6438  1.7472  0.0153
 1827Sol     HW10349   2.074   1.939   8.741 -0.1697 -1.7577  2.6106
 1827Sol     MW10350   2.060   2.007   8.797 -0.2004  0.3190 -0.4105
 1828Sol     OW10351   3.058   0.174   6.869 -0.2348 -0.3802  0.6763
 1828Sol     HW10352   3.134   0.218   6.833 -0.6735  0.7268  1.0880
 1828Sol     HW10353   3.073   0.081   6.851 -0.7268  0.1838 -2.8778
 1828Sol     MW10354   3.066   0.170   6.865  0.1759  0.1190  0.5957
 1829Sol     OW10355   0.082   0.207   2.151  0.3912 -0.2206 -0.3673
 1829Sol     HW10356   0.029   0.135   2.185  0.0423 -0.4667 -1.4274
 1829Sol     HW10357   0.051   0.221   2.062  1.3532  0.3708 -0.6255
 1829Sol     MW10358   0.075   0.202   2.146 -0.2470 -0.5484 -0.5346
 1830Sol     OW10359   1.540   1.398   8.942 -0.4697  0.1955  0.2230
 1830Sol     HW10360   1.558   1.486   8.908  0.0642 -0.4809 -1.3132
 1830Sol     HW10361   1.457   1.406   8.988 -2.0401  0.8286 -2.6096
 1830Sol     MW10362   1.535   1.407   8.943  0.4309 -0.3306 -0.1177
 1831Sol     OW10363   0.623   0.881   1.643  0.2556 -0.1620 -0.1442
 1831Sol     HW10364   0.546   0.859   1.590 -0.2139  0.9698  0.0543
 1831Sol     HW10365   0.693   0.826   1.607 -0.6140 -1.1139 -0.4006
 1831Sol     MW10366   0.622   0.874   1.635 -0.1939 -0.1800  0.1151
 1832Sol     OW10367   1.388   0.589   6.255  0.3014 -0.1406 -0.3605
 1832Sol     HW10368   1.418   0.501   6.277  1.8359  0.5858  0.5242
 1832Sol     HW10369   1.406   0.641   6.333 -3.1795  0.3800  0.1625
 1832Sol     MW10370   1.393   0.586   6.264 -0.0929 -0.4891  0.4927
 1833Sol     OW10371   0.348   1.282   7.007 -0.3027 -0.0557 -0.8401
 1833Sol     HW10372   0.368   1.292   7.100 -0.3937 -1.1185 -0.7009
 1833Sol     HW10373   0.333   1.372   6.976 -2.0205  0.1556  0.5639
 1833Sol     MW10374   0.349   1.291   7.013  0.0608 -0.0930  0.1596
 1834Sol     OW10375   0.755   2.855   7.175 -0.4704 -0.8736 -0.2651
 1834Sol     HW10376   0.683   2.912   7.148  0.8534  1.1351  0.3174
 1834Sol     HW10377   0.810   2.847   7.097  1.6427  2.2954  0.7706
 1834Sol     MW10378   0.754   2.860   7.166 -0.3233  0.3240 -0.3031
 1835Sol     OW10379   1.810   2.926   3.603 -0.0232  0.7581  0.3929
 1835Sol     HW10380   1.753   2.961   3.534  0.6216 -1.0333 -1.0718
 1835Sol     HW10381   1.854   2.852   3.563  0.3741 -0.3298  2.7463
 1835Sol     MW10382   1.809   2.923   3.594  0.0954  0.0152 -0.2046
 1836Sol     OW10383   0.922   0.121   8.174 -0.2508  0.2905  0.1778
 1836Sol     HW10384   1.006   0.139   8.131 -0.5234 -0.1914 -0.5725
 1836Sol     HW10385   0.945   0.077   8.256  0.1787 -1.3516 -0.7947
 1836Sol     MW10386   0.932   0.119   8.177  0.2485 -0.1458  0.4721
 1837Sol     OW10387   3.224   0.264   6.672 -0.2758  0.0386  0.2339
 1837Sol     HW10388   3.194   0.214   6.596 -0.8827  1.3360 -0.3960
 1837Sol     HW10389   3.209   0.355   6.648  0.6896  0.5250  1.4227
 1837Sol     MW10390   3.220   0.268   6.663  0.4990  0.0655 -0.1903
 1838Sol     OW10391   0.488   1.090   3.081 -0.4511 -0.9422 -0.0061
 1838Sol     HW10392   0.394   1.094   3.065 -0.4844  0.5393  0.4631
 1838Sol     HW10393   0.527   1.126   3.001 -0.4274  1.6069  1.1097
 1838Sol     MW10394   0.483   1.094   3.072  0.1377 -0.2050 -0.3793
 1839Sol     OW10395   0.148   2.162   2.188 -0.1644  0.2739  0.3738
 1839Sol     HW10396   0.150   2.221   2.113  0.7937 -2.0873 -1.5124
 1839Sol     HW10397   0.234   2.171   2.228  0.3999 -0.7033 -0.6082
 1839Sol     MW10398   0.156   2.168   2.185 -0.2836 -0.1096 -0.7416
 1840Sol     OW10399   1.552   2.264   4.509  0.0158  0.5567  0.2374
 1840Sol     HW10400   1.619   2.309   4.458 -0.9081 -0.4919 -1.9455
 1840Sol     HW10401   1.471   2.312   4.490 -0.0376  1.3065  2.2121
 1840Sol     MW10402   1.551   2.273   4.503 -0.0841 -0.3027 -0.1099
 1841Sol     OW10403   2.777   1.346   7.278 -0.1212 -0.2746  0.3260
 1841Sol     HW10404   2.868   1.344   7.308 -0.0081  0.4369  0.0491
 1841Sol     HW10405   2.758   1.439   7.264 -0.3746 -0.5287 -1.1537
 1841Sol     MW10406   2.784   1.354   7.279  0.5672  0.2381 -0.0816
 1842Sol     OW10407   1.014   0.829   5.807 -0.2461 -0.1390 -0.2001
 1842Sol     HW10408   0.935   0.834   5.860 -0.9282  0.3452 -1.2506
 1842Sol     HW10409   1.085   0.845   5.869 -1.0994  1.6854  0.3441
 1842Sol     MW10410   1.013   0.831   5.817 -0.2740 -0.0802  0.2640
 1843Sol     OW10411   0.917   3.180   4.925 -0.3104  0.3679 -0.1512
 1843Sol     HW10412   0.981   3.196   4.996 -0.2552  0.4723 -0.2228
 1843Sol     HW10413   0.886   3.091   4.940  0.8156 -0.1708 -0.8695
 1843Sol     MW10414   0.920   3.174   4.933 -0.5322 -0.0020 -0.2812
 1844Sol     OW10415   1.531   0.028   7.838  0.5560 -0.0197  0.0767
 1844Sol     HW10416   1.453   0.083   7.835 -0.0964 -1.0059 -1.6339
 1844Sol     HW10417   1.549   0.018   7.932 -0.3841  1.5679  0.4550
 1844Sol     MW10418   1.526   0.032   7.846  0.1428  0.3037 -0.0004
 1845Sol     OW10419   1.634   0.010   8.086  0.3371  0.4293 -0.2748
 1845Sol     HW10420   1.607   0.070   8.155 -2.3408  0.2005 -1.0788
 1845Sol     HW10421   1.718   0.044   8.057  0.4225  1.8581  1.5172
 1845Sol     MW10422   1.639   0.018   8.090 -0.0937  0.8946 -0.7145
 1846Sol     OW10423   1.534   0.891   5.067 -0.4896  0.4404  0.5314
 1846Sol     HW10424   1.526   0.984   5.045  1.0635 -0.0148 -2.2262
 1846Sol     HW10425   1.475   0.847   5.005  1.9154 -0.6900 -1.0182
 1846Sol     MW10426   1.528   0.896   5.059  0.0581 -0.0826 -0.2594
 1847Sol     OW10427   2.157   0.275   4.945  0.1451  0.5224 -0.4013
 1847Sol     HW10428   2.166   0.279   4.850 -1.2308 -1.1760 -0.6432
 1847Sol     HW10429   2.216   0.205   4.972 -0.1473  0.3874 -0.1094
 1847Sol     MW10430   2.163   0.269   4.939 -0.3448  0.7495  0.2349
 1848Sol     OW10431   2.537   2.787   3.042 -0.6654 -0.1617  0.6009
 1848Sol     HW10432   2.452   2.821   3.071 -0.0135  2.2135 -0.1440
 1848Sol     HW10433   2.601   2.846   3.081  0.6202 -1.4772  0.5173
 1848Sol     MW10434   2.535   2.795   3.048 -0.5722  0.0775 -0.6694
 1849Sol     OW10435   2.827   1.433   3.764 -0.0357  0.5691  0.5582
 1849Sol     HW10436   2.764   1.486   3.812 -0.7768  0.0654  0.1507
 1849Sol     HW10437   2.908   1.439   3.816 -0.6311  0.6004  1.4993
 1849Sol     MW10438   2.829   1.438   3.773 -0.0484 -0.5830  0.7158
 1850Sol     OW10439   2.275   0.695   1.387 -0.3547  0.4299 -0.3881
 1850Sol     HW10440   2.315   0.768   1.340  1.3581  1.7704  3.0385
 1850Sol     HW10441   2.197   0.732   1.428  0.3217  0.2658  1.0702
 1850Sol     MW10442   2.271   0.705   1.386  0.5828  0.3555 -0.4207
 1851Sol     OW10443   2.866   0.169   5.415 -0.9579 -0.0039 -0.3576
 1851Sol     HW10444   2.782   0.160   5.461  0.2704  2.0920  2.4184
 1851Sol     HW10445   2.927   0.116   5.466  0.4252  2.3336  0.4811
 1851Sol     MW10446   2.864   0.163   5.423 -0.2261  0.2848  1.0133
 1852Sol     OW10447   0.544   2.813   4.145 -0.4727  0.5884  0.0638
 1852Sol     HW10448   0.475   2.835   4.208 -1.0265 -0.2371 -0.2523
 1852Sol     HW10449   0.511   2.736   4.099  0.8257 -0.0290  0.1556
 1852Sol     MW10450   0.535   2.808   4.147  0.0215 -0.6278  0.5470
 1853Sol     OW10451   0.436   0.167   6.722 -0.4815  0.6539  0.3348
 1853Sol     HW10452   0.375   0.207   6.661 -2.1922  0.3301  1.7952
 1853Sol     HW10453   0.449   0.233   6.790 -0.6271  0.0376  0.9708
 1853Sol     MW10454   0.432   0.176   6.723 -0.4092 -1.0721 -0.1506
 1854Sol     OW10455   2.608   2.686   3.710  0.0424 -0.5556 -0.2907
 1854Sol     HW10456   2.557   2.727   3.640 -1.3320 -0.1458  0.9110
 1854Sol     HW10457   2.551   2.616   3.742  0.6221 -0.6822  0.4633
 1854Sol     MW10458   2.598   2.683   3.707  0.2431 -0.4051 -0.3349
 1855Sol     OW10459   0.838   1.466   3.241 -0.3976  0.5006 -0.4545
 1855Sol     HW10460   0.875   1.554   3.231 -0.2264  0.5416  0.5488
 1855Sol     HW10461   0.863   1.439   3.329  0.8354 -1.1455 -1.2657
 1855Sol     MW10462   0.844   1.471   3.248  0.2329 -0.4898  0.2585
 1856Sol     OW10463   2.535   2.508   2.099  0.8121  0.5479 -0.4596
 1856Sol     HW10464   2.509   2.578   2.039 -0.5422 -0.2625 -0.8248
 1856Sol     HW10465   2.459   2.494   2.155  0.7955 -1.1634 -0.8896
 1856Sol     MW10466   2.526   2.513   2.099 -0.4144  0.1194 -0.6762
 1857Sol     OW10467   0.436   1.394   5.114 -0.2587  0.8535  0.1988
 1857Sol     HW10468   0.459   1.472   5.165 -0.0455  0.7967  0.1910
 1857Sol     HW10469   0.488   1.323   5.153 -0.6856  0.6543  0.4020
 1857Sol     MW10470   0.443   1.394   5.122  0.2244 -0.1378  0.1516
 1858Sol     OW10471   0.489   2.712   8.684 -0.1527 -0.1476 -0.2328
 1858Sol     HW10472   0.487   2.736   8.591 -0.3395  0.7653  0.0006
 1858Sol     HW10473   0.575   2.741   8.715 -0.0139 -0.6287 -0.1644
 1858Sol     MW10474   0.496   2.717   8.678 -0.1645 -0.3597 -0.0442
 1859Sol     OW10475   2.783   2.572   5.567  0.5700 -0.1103 -0.0648
 1859Sol     HW10476   2.829   2.576   5.483  2.5115  0.2062  0.9680
 1859Sol     HW10477   2.851   2.593   5.631 -0.9454 -0.1172  1.5593
 1859Sol     MW10478   2.793   2.574   5.565  0.3690 -0.0698  0.2787
 1860Sol     OW10479   1.434   0.089   4.827 -0.0905 -0.7120 -0.1042
 1860Sol     HW10480   1.429   0.144   4.748 -0.8005 -0.3420  0.1878
 1860Sol     HW10481   1.504   0.027   4.809  0.8718  0.4326 -0.3488
 1860Sol     MW10482   1.440   0.088   4.818 -0.0295  0.1377 -0.1033
 1861Sol     OW10483   1.240   1.834   2.930 -0.0175 -0.0438  0.0608
 1861Sol     HW10484   1.214   1.905   2.990  1.8125  0.8192 -0.0992
 1861Sol     HW10485   1.333   1.822   2.948  0.5461  0.1421 -2.5093
 1861Sol     MW10486   1.246   1.840   2.937  0.1666  0.2458 -0.8887
 1862Sol     OW10487   2.536   1.844   7.736  0.8898 -0.5143 -0.3029
 1862Sol     HW10488   2.471   1.832   7.806  0.6588 -1.2145 -0.6269
 1862Sol     HW10489   2.618   1.862   7.782  0.5620 -0.1012  0.1245
 1862Sol     MW10490   2.537   1.844   7.747  0.7411 -0.4225 -0.6152
 1863Sol     OW10491   1.381   3.109   5.882 -0.0277 -0.4994 -0.6038
 1863Sol     HW10492   1.322   3.137   5.812  0.6907 -2.1358 -1.8883
 1863Sol     HW10493   1.462   3.158   5.865  0.1667 -0.9421 -0.9496
 1863Sol     MW10494   1.383   3.116   5.874 -0.1712  0.3723  0.4391
 1864Sol     OW10495   1.308   1.339   8.553  0.5721  0.3926  0.3037
 1864Sol     HW10496   1.396   1.316   8.582  0.1989 -1.1222  0.2610
 1864Sol     HW10497   1.303   1.434   8.566  2.8030  0.7714 -1.3256
 1864Sol     MW10498   1.316   1.346   8.557 -0.7104  0.2279  0.5567
 1865Sol     OW10499   2.591   0.967   6.239 -0.5819 -0.4577 -0.5682
 1865Sol     HW10500   2.606   0.936   6.149 -0.0342 -1.2766 -0.2002
 1865Sol     HW10501   2.641   0.907   6.294 -0.9988 -0.0224  0.2990
 1865Sol     MW10502   2.597   0.959   6.236  0.6423  0.5637  0.6048
 1866Sol     OW10503   0.441   1.961   7.884  0.6865 -0.0131 -0.0143
 1866Sol     HW10504   0.465   1.906   7.958 -0.6339 -0.4523  0.0930
 1866Sol     HW10505   0.500   1.933   7.813 -0.6690 -2.3054 -0.2736
 1866Sol     MW10506   0.448   1.953   7.884  0.2408 -1.0203 -0.4738
 1867Sol     OW10507   1.464   0.694   3.885 -0.9330  0.1380  0.5411
 1867Sol     HW10508   1.499   0.615   3.927 -1.1074 -0.4380 -0.3791
 1867Sol     HW10509   1.397   0.725   3.945 -1.1832 -0.6825  0.6994
 1867Sol     MW10510   1.461   0.689   3.894 -0.2431 -0.3945  0.5519
 1868Sol     OW10511   1.810   0.310   6.548 -0.2943 -0.2581  0.0391
 1868Sol     HW10512   1.865   0.270   6.615  0.0284 -0.6394 -0.4520
 1868Sol     HW10513   1.721   0.291   6.576 -0.1548 -0.5841  0.2596
 1868Sol     MW10514   1.807   0.304   6.556  0.4928 -0.0793  0.1309
 1869Sol     OW10515   0.410   2.494   5.518 -0.0639 -0.2171 -0.3378
 1869Sol     HW10516   0.424   2.558   5.449  0.6417  1.0298  0.9220
 1869Sol     HW10517   0.370   2.419   5.474 -0.0113  0.7082 -2.0056
 1869Sol     MW10518   0.408   2.493   5.508  0.0955 -0.3432 -0.0613
 1870Sol     OW10519   1.258   3.201   2.269 -0.6707 -0.5731 -0.3999
 1870Sol     HW10520   1.211   3.174   2.191 -0.1942 -3.0776  0.1300
 1870Sol     HW10521   1.237   3.135   2.335 -0.1490  0.8513  1.2598
 1870Sol     MW10522   1.252   3.193   2.268 -0.5654  0.8431 -0.0153
 1871Sol     OW10523   0.066   0.428   2.315  0.3595  0.1191 -0.2464
 1871Sol     HW10524   0.119   0.434   2.394 -1.2536  1.4843  0.7742
 1871Sol     HW10525   0.068   0.335   2.292  2.2997 -0.0108  0.3579
 1871Sol     MW10526   0.071   0.420   2.320  0.2252  0.0250  0.4668
 1872Sol     OW10527   3.409   0.624   4.370  0.4223  0.4505  0.3522
 1872Sol     HW10528   3.436   0.553   4.429 -0.3915  0.0878  0.2850
 1872Sol     HW10529   3.327   0.655   4.406 -0.4019 -0.1897 -0.9486
 1872Sol     MW10530   3.404   0.620   4.379 -0.9008 -0.2792  0.2761
 1873Sol     OW10531   0.173   1.391   3.248 -0.0425  0.1315  0.7960
 1873Sol     HW10532   0.228   1.453   3.295 -0.9676 -0.5886  2.8690
 1873Sol     HW10533   0.092   1.439   3.232 -0.1612 -0.0092  0.9736
 1873Sol     MW10534   0.171   1.401   3.251  0.2441  0.0750 -0.2121
 1874Sol     OW10535   3.040   0.329   8.733 -0.2659 -0.1529 -0.5714
 1874Sol     HW10536   3.073   0.388   8.801 -0.7828 -2.0953  1.4414
 1874Sol     HW10537   3.114   0.320   8.672  0.8877  0.1424  0.7410
 1874Sol     MW10538   3.050   0.333   8.734 -1.3270  0.0541 -0.0593
 1875Sol     OW10539   0.979   1.166   2.587  0.2284  0.3101  0.1643
 1875Sol     HW10540   0.945   1.226   2.521 -0.3293  0.7944  0.8783
 1875Sol     HW10541   0.906   1.109   2.609  0.7058 -0.5046 -0.3729
 1875Sol     MW10542   0.970   1.167   2.583 -0.2707  0.2385 -0.3542
 1876Sol     OW10543   3.217   2.953   4.931 -0.2333 -0.6546  0.0975
 1876Sol     HW10544   3.122   2.954   4.932 -0.3119 -1.5868 -3.0197
 1876Sol     HW10545   3.240   2.861   4.919  1.0620 -0.3299  0.0102
 1876Sol     MW10546   3.211   2.945   4.930 -0.0247 -0.0643 -0.1208
 1877Sol     OW10547   1.042   0.354   4.453  0.2106  0.2524 -0.0715
 1877Sol     HW10548   1.006   0.416   4.517  2.8606  2.9030 -1.0163
 1877Sol     HW10549   1.083   0.286   4.505  1.9594  2.1476  1.1207
 1877Sol     MW10550   1.042   0.354   4.463 -0.0279 -0.4176 -0.3860
 1878Sol     OW10551   0.340   2.667   3.729 -0.2532 -0.3524  0.3589
 1878Sol     HW10552   0.297   2.745   3.694 -0.2122  0.1600  1.4281
 1878Sol     HW10553   0.409   2.647   3.665 -2.0285 -1.1691 -1.3600
 1878Sol     MW10554   0.343   2.673   3.720 -0.4774 -0.1512  0.2817
 1879Sol     OW10555   1.284   0.867   1.916  0.8918  0.6370  0.0862
 1879Sol     HW10556   1.363   0.921   1.925  0.3869  1.0814  1.9940
 1879Sol     HW10557   1.237   0.879   1.998 -1.5045  0.8599 -1.2827
 1879Sol     MW10558   1.287   0.873   1.924  0.0933 -0.1135  0.0017
 1880Sol     OW10559   2.673   3.092   4.508  0.3283  0.0253 -0.5453
 1880Sol     HW10560   2.602   3.047   4.462  0.5508  1.2796 -2.1363
 1880Sol     HW10561   2.628   3.153   4.567  0.0555 -1.3203  0.6884
 1880Sol     MW10562   2.662   3.094   4.509  0.2095  0.0178 -0.1818
 1881Sol     OW10563   2.515   1.648   3.428  0.0210 -0.0190  0.5083
 1881Sol     HW10564   2.487   1.661   3.337 -0.5562  1.2299  0.8578
 1881Sol     HW10565   2.610   1.664   3.426 -0.1031  0.7023  0.2544
 1881Sol     MW10566   2.521   1.651   3.420 -0.1311  0.1460  0.3142
 1882Sol     OW10567   1.686   1.495   4.064 -0.6332 -0.2073 -0.1884
 1882Sol     HW10568   1.753   1.461   4.123 -0.4464  1.7393  0.7326
 1882Sol     HW10569   1.649   1.416   4.023  0.6555 -1.4408  0.9560
 1882Sol     MW10570   1.689   1.485   4.065  0.2669  0.3158  0.7731
 1883Sol     OW10571   3.139   2.423   4.482 -0.2574 -0.2415  0.3293
 1883Sol     HW10572   3.161   2.508   4.444 -1.2688  0.3519  1.0162
 1883Sol     HW10573   3.149   2.361   4.410 -0.8675  0.6684 -0.5578
 1883Sol     MW10574   3.142   2.425   4.472 -0.5179 -0.0406  0.5973
 1884Sol     OW10575   2.429   0.753   8.036 -0.4314  0.4013  0.1299
 1884Sol     HW10576   2.497   0.702   7.991  0.3151  0.8534  0.7336
 1884Sol     HW10577   2.459   0.758   8.127 -1.3604  0.4647  0.4377
 1884Sol     MW10578   2.438   0.749   8.040  0.6563  0.4028  0.4993
 1885Sol     OW10579   3.311   1.968   6.305 -0.0605 -0.1598 -0.3525
 1885Sol     HW10580   3.276   1.989   6.392 -1.4636  0.2299 -1.0087
 1885Sol     HW10581   3.273   2.034   6.247  1.4233  0.0035 -1.1544
 1885Sol     MW10582   3.305   1.976   6.308 -0.4602  0.0595  0.2162
 1886Sol     OW10583   1.856   0.636   4.889  0.3166 -0.6000 -0.0025
 1886Sol     HW10584   1.896   0.568   4.943 -1.0172 -0.4536  1.2056
 1886Sol     HW10585   1.856   0.600   4.800  1.4630 -1.3344  0.2892
 1886Sol     MW10586   1.859   0.627   4.886  0.0717 -0.0077 -0.9183
 1887Sol     OW10587   1.530   0.748   7.478 -0.2199 -0.1705 -0.0131
 1887Sol     HW10588   1.538   0.806   7.554 -1.8502  1.6671 -1.1964
 1887Sol     HW10589   1.536   0.660   7.514 -0.4775  0.6844  2.1865
 1887Sol     MW10590   1.531   0.745   7.488 -0.1897 -0.0618  0.2480
 1888Sol     OW10591   0.229   1.070   4.173 -0.0900  0.0617 -0.0092
 1888Sol     HW10592   0.282   1.136   4.218 -2.5658  1.6815  0.6186
 1888Sol     HW10593   0.235   0.992   4.228  1.6937  0.1814 -0.0035
 1888Sol     MW10594   0.234   1.069   4.182 -0.2841  0.2044  0.3201
 1889Sol     OW10595   2.152   0.783   7.777 -0.3898  0.3629 -0.4914
 1889Sol     HW10596   2.240   0.770   7.740  0.2960 -0.7961  1.4727
 1889Sol     HW10597   2.162   0.855   7.839 -0.5372 -0.5922  0.6512
 1889Sol     MW10598   2.161   0.788   7.779 -0.0798 -1.0187 -0.4401
 1890Sol     OW10599   3.080   0.901   2.411  0.0771  0.3503  0.3243
 1890Sol     HW10600   3.095   0.876   2.320 -0.4927  0.7776  0.1092
 1890Sol     HW10601   3.164   0.935   2.441 -0.1743  1.7985 -0.5659
 1890Sol     MW10602   3.089   0.902   2.405 -0.0993 -0.0953 -0.1280
 1891Sol     OW10603   0.808   0.625   4.248  0.0369 -0.1026  0.1553
 1891Sol     HW10604   0.900   0.621   4.221 -0.8063 -4.2060 -2.6248
 1891Sol     HW10605   0.796   0.548   4.304 -1.6945  0.4511  0.5820
 1891Sol     MW10606   0.815   0.618   4.251 -0.2485 -0.1871  0.4614
 1892Sol     OW10607   2.077   2.631   1.610 -0.2988 -0.2759 -0.6304
 1892Sol     HW10608   2.103   2.637   1.518  0.9247  1.5605 -0.1879
 1892Sol     HW10609   1.983   2.611   1.607 -0.4335  0.5328 -2.2642
 1892Sol     MW10610   2.071   2.629   1.602 -0.1763 -0.1634  0.2865
 1893Sol     OW10611   0.779   0.180   8.714 -0.1479  0.3299  0.0200
 1893Sol     HW10612   0.709   0.232   8.753 -0.5375  0.8207 -1.3032
 1893Sol     HW10613   0.758   0.090   8.737  0.1352  0.6860  1.7166
 1893Sol     MW10614   0.771   0.177   8.719  0.7559  0.2286  0.0184
 1894Sol     OW10615   0.062   0.817   5.040 -0.1794  0.5217  0.0489
 1894Sol     HW10616   0.095   0.729   5.057 -0.1267  0.7431  1.1245
 1894Sol     HW10617   0.103   0.872   5.107 -0.4214  1.3148 -0.4425
 1894Sol     MW10618   0.069   0.814   5.048  0.2205 -0.3395  0.5280
 1895Sol     OW10619   0.677   3.307   1.300 -0.0168 -0.4462 -0.0506
 1895Sol     HW10620   0.766   3.334   1.322 -1.1571  0.0672  4.4423
 1895Sol     HW10621   0.661   3.230   1.355 -2.2189 -0.8043 -1.1308
 1895Sol     MW10622   0.684   3.302   1.307  0.3753 -0.2284 -0.0336
 1896Sol     OW10623   0.727   0.089   7.398  0.1502  0.2855 -0.2921
 1896Sol     HW10624   0.780   0.162   7.431  0.8404 -1.1093  1.7753
 1896Sol     HW10625   0.765   0.011   7.439 -1.8004 -1.0324 -0.9134
 1896Sol     MW10626   0.735   0.089   7.405 -0.4018 -0.3714 -0.1412
 1897Sol     OW10627   0.952   1.732   4.193  0.3446 -0.2027 -0.6459
 1897Sol     HW10628   0.962   1.641   4.219 -0.3638 -0.8727 -2.6539
 1897Sol     HW10629   1.023   1.778   4.238  1.5033 -1.9509 -0.6740
 1897Sol     MW10630   0.959   1.728   4.199  0.5662  0.1146  0.0347
 1898Sol     OW10631   2.194   1.912   3.329  0.3034  0.3918  0.5465
 1898Sol     HW10632   2.197   1.826   3.373  0.9898  0.5498  0.8197
 1898Sol     HW10633   2.214   1.893   3.238 -1.1047  0.0636  0.2998
 1898Sol     MW10634   2.196   1.902   3.325 -0.4673 -0.0362 -0.1141
 1899Sol     OW10635   3.135   2.202   4.044 -0.3570  0.1242  0.2966
 1899Sol     HW10636   3.043   2.175   4.046 -0.5558  0.6705 -0.8923
 1899Sol     HW10637   3.154   2.231   4.133 -1.7047  1.1765  0.2551
 1899Sol     MW10638   3.129   2.202   4.052 -0.6651 -0.0273 -0.1284
 1900Sol     OW10639   3.240   0.954   2.857  0.2684  0.0962 -0.2457
 1900Sol     HW10640   3.151   0.927   2.880 -0.1067  0.6161 -1.0800
 1900Sol     HW10641   3.229   1.038   2.812  1.2167  0.3729  0.0239
 1900Sol     MW10642   3.231   0.959   2.855 -0.1642  0.9283 -0.1406
 1901Sol     OW10643   3.280   0.121   7.432  0.7306 -0.4799  0.0641
 1901Sol     HW10644   3.204   0.084   7.476 -0.2504 -3.0350 -3.5744
 1901Sol     HW10645   3.352   0.061   7.453  0.3432 -1.4939 -1.4302
 1901Sol     MW10646   3.280   0.113   7.438 -0.5723  0.2199  0.1199
 1902Sol     OW10647   0.051   0.015   3.042 -0.1315  0.3037  0.1531
 1902Sol     HW10648  -0.040  -0.001   3.065  0.4069 -2.0984  0.7831
 1902Sol     HW10649   0.076   0.092   3.093 -0.9905 -0.7290  2.1621
 1902Sol     MW10650   0.045   0.021   3.048  0.4873  0.1814 -0.5971
 1903Sol     OW10651   1.736   1.881   6.826  0.3247 -0.1841 -0.0026
 1903Sol     HW10652   1.652   1.905   6.863 -0.9475 -2.1038 -1.5470
 1903Sol     HW10653   1.795   1.953   6.851 -2.0373  1.8013 -0.0052
 1903Sol     MW10654   1.734   1.889   6.832 -0.2590 -0.2386 -0.0714
 1904Sol     OW10655   0.674   0.336   5.236  0.0274  0.3659  0.3719
 1904Sol     HW10656   0.659   0.419   5.282  0.0114  0.4328  0.2469
 1904Sol     HW10657   0.716   0.280   5.301  0.0783  0.4869  0.4447
 1904Sol     MW10658   0.677   0.339   5.246  0.2068  0.2200  0.6936
 1905Sol     OW10659   2.657   0.093   5.573  0.4548  0.1011 -0.1864
 1905Sol     HW10660   2.585   0.155   5.579 -0.1115 -0.4526 -1.2455
 1905Sol     HW10661   2.702   0.102   5.657 -0.4671  0.9031  0.2405
 1905Sol     MW10662   2.655   0.100   5.581  0.1491  0.1717  0.3025
 1906Sol     OW10663   3.486   2.965   3.810 -0.3469  0.1316 -0.1656
 1906Sol     HW10664   3.501   3.042   3.754  1.3374  0.0868  0.2212
 1906Sol     HW10665   3.488   2.891   3.750 -1.4227  0.3222 -0.4570
 1906Sol     MW10666   3.487   2.966   3.799  0.6975  0.0334  0.8250
 1907Sol     OW10667   1.954   2.410   3.176 -0.2041 -0.2846 -0.4781
 1907Sol     HW10668   1.978   2.323   3.144 -1.8195 -0.0783 -2.3450
 1907Sol     HW10669   1.865   2.424   3.145 -1.2187  0.7223  2.6018
 1907Sol     MW10670   1.949   2.403   3.171 -0.2569 -0.0318  0.1876
 1908Sol     OW10671   3.200   1.749   6.147 -0.1726  0.1349  0.1390
 1908Sol     HW10672   3.196   1.825   6.205 -0.8262  1.0280 -1.0562
 1908Sol     HW10673   3.175   1.675   6.202 -0.4809  0.9287  1.0697
 1908Sol     MW10674   3.198   1.749   6.157  0.4582  0.3272 -0.2604
 1909Sol     OW10675   1.707   0.814   1.636  0.1032 -0.0693 -0.0962
 1909Sol     HW10676   1.747   0.873   1.571  0.6471  1.8216  1.9028
 1909Sol     HW10677   1.637   0.866   1.675  0.4288 -0.8335  1.5338
 1909Sol     MW10678   1.704   0.824   1.633 -0.7040 -0.0705  0.3008
 1910Sol     OW10679   0.052   2.003   7.913  0.0598 -0.3478 -0.2774
 1910Sol     HW10680   0.049   1.907   7.913 -0.6930 -0.3414 -1.5330
 1910Sol     HW10681   0.088   2.025   7.827 -1.0370  0.5087 -0.5269
 1910Sol     MW10682   0.055   1.996   7.905  0.1019  0.4183 -0.0403
 1911Sol     OW10683   3.300   3.259   2.866 -0.1338  0.3249 -0.4885
 1911Sol     HW10684   3.332   3.277   2.954  0.1844  2.3072 -0.9999
 1911Sol     HW10685   3.367   3.203   2.827  0.8159  1.2840 -0.2319
 1911Sol     MW10686   3.309   3.255   2.871  0.4010  0.0767 -0.1308
 1912Sol     OW10687   2.681   0.282   4.045  0.0435  0.5236 -0.0357
 1912Sol     HW10688   2.620   0.348   4.014 -0.7162 -0.2903 -0.2991
 1912Sol     HW10689   2.767   0.322   4.034 -0.3108  0.9110 -1.5674
 1912Sol     MW10690   2.683   0.291   4.041  0.3613  0.3089  0.1438
 1913Sol     OW10691   0.896   2.115   7.603 -0.5331  0.2272 -0.3087
 1913Sol     HW10692   0.968   2.158   7.557  1.1798 -1.4266  0.7718
 1913Sol     HW10693   0.838   2.187   7.630  1.1536  1.6440 -0.4120
 1913Sol     MW10694   0.897   2.126   7.601  0.0268 -0.7216  0.2800
 1914Sol     OW10695   0.122   1.765   6.864  0.5369 -0.4271 -0.0544
 1914Sol     HW10696   0.045   1.821   6.856 -1.0952 -2.6420 -0.1539
 1914Sol     HW10697   0.162   1.766   6.777 -0.1107 -0.3469 -0.3521
 1914Sol     MW10698   0.119   1.770   6.856 -0.3019  0.1187  0.5610
 1915Sol     OW10699   3.232   3.005   2.290 -0.6437  0.1159 -0.4267
 1915Sol     HW10700   3.151   2.966   2.257 -1.4617  1.5967 -0.2266
 1915Sol     HW10701   3.250   3.078   2.230 -0.5467  1.0168  0.6793
 1915Sol     MW10702   3.226   3.008   2.282 -0.6478 -0.8265 -0.1823
 1916Sol     OW10703   2.405   2.089   3.387  0.0255 -0.1476  0.0600
 1916Sol     HW10704   2.443   2.075   3.301 -1.3251  0.4857 -0.6585
 1916Sol     HW10705   2.325   2.036   3.387 -0.4304  0.5269  0.5896
 1916Sol     MW10706   2.401   2.083   3.379  0.4786 -0.1974  0.6319
 1917Sol     OW10707   3.075   1.321   6.953 -0.1505 -0.2595  0.2794
 1917Sol     HW10708   3.018   1.280   7.018 -0.6512 -2.4129 -1.4671
 1917Sol     HW10709   3.042   1.290   6.869  2.8371 -0.5658 -0.8489
 1917Sol     MW10710   3.067   1.315   6.951 -0.1912  0.2263 -0.4584
 1918Sol     OW10711   3.544   0.941   8.340  0.3107  0.4279 -0.4599
 1918Sol     HW10712   3.591   0.943   8.423  2.3782 -1.8084 -1.5447
 1918Sol     HW10713   3.510   0.852   8.334  0.8600  0.3348 -2.3740
 1918Sol     MW10714   3.545   0.933   8.347 -0.1495 -0.6163  0.1056
 1919Sol     OW10715   2.714   0.628   3.221 -0.9931 -0.0156  0.8802
 1919Sol     HW10716   2.782   0.618   3.155 -2.0789 -0.5743 -0.1841
 1919Sol     HW10717   2.753   0.682   3.288  0.3713 -0.0139  0.0959
 1919Sol     MW10718   2.723   0.632   3.221  0.0444  0.0118 -0.5024
 1920Sol     OW10719   2.479   0.887   5.552  0.8221 -0.0454  0.1009
 1920Sol     HW10720   2.506   0.817   5.611 -0.9998  1.7798  3.2564
 1920Sol     HW10721   2.555   0.945   5.548  0.0650  1.2408  2.9756
 1920Sol     MW10722   2.488   0.886   5.557  0.6593 -0.0593 -0.8257
 1921Sol     OW10723   2.993   0.181   8.336 -0.3419  0.2369  0.0695
 1921Sol     HW10724   2.951   0.168   8.421 -2.2658 -0.7823 -1.0020
 1921Sol     HW10725   3.030   0.095   8.314  1.3028  0.8370  0.4774
 1921Sol     MW10726   2.993   0.172   8.341 -0.1632  0.3748 -0.4952
 1922Sol     OW10727   0.010   3.344   7.706 -0.9764  0.8730 -0.0969
 1922Sol     HW10728   0.042   3.426   7.669 -0.7108  0.9387  0.2722
 1922Sol     HW10729  -0.048   3.371   7.777 -0.1192  0.7393  0.6632
 1922Sol     MW10730   0.008   3.354   7.709 -0.4242  0.4896 -0.4393
 1923Sol     OW10731   2.597   1.217   4.650  0.6737 -0.1237 -0.1957
 1923Sol     HW10732   2.576   1.301   4.610  2.2607  0.8968  1.0569
 1923Sol     HW10733   2.617   1.238   4.741 -0.0076 -2.0198  0.4172
 1923Sol     MW10734   2.597   1.226   4.654 -1.0906  0.1509  0.5601
 1924Sol     OW10735   2.842   2.987   5.591  0.4037  0.1978 -0.1325
 1924Sol     HW10736   2.783   2.924   5.631 -1.3659  0.3369 -2.4524
 1924Sol     HW10737   2.928   2.945   5.594 -0.4455 -1.5696 -0.0524
 1924Sol     MW10738   2.845   2.978   5.595  0.0724  0.4384  0.1004
 1925Sol     OW10739   0.151   2.581   5.271  0.3831 -0.5792  0.3630
 1925Sol     HW10740   0.100   2.502   5.293 -1.3915  0.3752 -0.1913
 1925Sol     HW10741   0.106   2.652   5.318  1.0036  0.3380 -0.4190
 1925Sol     MW10742   0.142   2.580   5.277 -0.5539  0.0930 -0.4056
 1926Sol     OW10743   3.232   0.199   3.584  0.1427  0.0268  0.3666
 1926Sol     HW10744   3.302   0.230   3.641 -0.1118  2.5987 -0.6531
 1926Sol     HW10745   3.259   0.225   3.496 -3.2551  3.5370  0.2066
 1926Sol     MW10746   3.240   0.204   3.581 -0.5643 -0.4328 -0.5670
 1927Sol     OW10747   1.068   1.435   8.103 -0.1979  0.0007 -0.4892
 1927Sol     HW10748   1.116   1.511   8.071  0.5838 -1.5870 -3.1890
 1927Sol     HW10749   0.976   1.460   8.094  0.0461  0.5986 -1.4013
 1927Sol     MW10750   1.064   1.444   8.100  0.0708 -0.0730 -0.6443
 1928Sol     OW10751   2.459   3.178   2.489  0.2777  0.0686  0.2479
 1928Sol     HW10752   2.554   3.173   2.478  0.4261  1.6357  0.6644
 1928Sol     HW10753   2.444   3.267   2.523 -1.3605 -0.0651 -0.1155
 1928Sol     MW10754   2.467   3.186   2.491 -0.5944  0.4575  0.2560
 1929Sol     OW10755   2.671   2.557   3.012  0.1410 -0.4027 -0.2792
 1929Sol     HW10756   2.687   2.572   2.919  2.6614 -0.0323  0.1725
 1929Sol     HW10757   2.622   2.635   3.040  1.4408  0.6349 -0.8093
 1929Sol     MW10758   2.668   2.566   3.006 -0.1313 -0.2685 -0.7453
 1930Sol     OW10759   2.264   3.024   2.881 -0.0820  1.4009 -0.8075
 1930Sol     HW10760   2.288   2.971   2.805  1.4453  1.3717 -0.3114
 1930Sol     HW10761   2.286   3.114   2.856 -1.4636  1.6612 -1.1527
 1930Sol     MW10762   2.268   3.028   2.872 -0.0895 -0.8004 -0.3209
 1931Sol     OW10763   3.046   2.970   8.085 -0.2546 -0.2653 -0.0128
 1931Sol     HW10764   3.029   2.969   8.179  0.8852  0.7078  0.2157
 1931Sol     HW10765   3.127   3.019   8.076 -0.9768  0.6711 -1.6125
 1931Sol     MW10766   3.052   2.974   8.093  0.2023  0.4518  0.6253
 1932Sol     OW10767   2.814   1.218   7.038  0.0022  0.0931  0.2124
 1932Sol     HW10768   2.743   1.154   7.028  1.2850 -1.4717  0.7637
 1932Sol     HW10769   2.798   1.258   7.123  0.4420 -1.1549  0.9061
 1932Sol     MW10770   2.806   1.216   7.045 -0.0142  0.2489  0.3933
 1933Sol     OW10771   3.109   0.253   2.944  0.0625 -0.1362 -0.0654
 1933Sol     HW10772   3.193   0.217   2.914  1.0731  1.2212  1.0423
 1933Sol     HW10773   3.108   0.342   2.908 -1.0621 -0.2641 -0.3491
 1933Sol     MW10774   3.117   0.258   2.938  0.1009  0.2394  0.2571
 1934Sol     OW10775   0.814   3.092   8.385  0.1170 -0.4144  0.9830
 1934Sol     HW10776   0.838   3.031   8.455  0.2453 -1.0341  0.4083
 1934Sol     HW10777   0.897   3.116   8.344  0.1210  0.5993  1.5707
 1934Sol     MW10778   0.824   3.089   8.387 -0.1442 -0.0093  0.2328
 1935Sol     OW10779   2.556   1.604   7.627 -0.5981 -0.6917  0.5910
 1935Sol     HW10780   2.551   1.686   7.676 -0.9756 -1.0507  1.1540
 1935Sol     HW10781   2.554   1.631   7.536  0.5917  0.0179  0.7575
 1935Sol     MW10782   2.555   1.614   7.624 -0.4180 -0.6240  0.0396
 1936Sol     OW10783   1.985   2.839   4.990  0.3278 -0.5322 -0.0152
 1936Sol     HW10784   2.071   2.875   5.010  0.1652 -0.5773  0.7639
 1936Sol     HW10785   1.930   2.864   5.064  0.2848 -2.6618  0.6930
 1936Sol     MW10786   1.988   2.845   4.998  0.2181 -0.4382 -0.4226
 1937Sol     OW10787   3.102   0.670   4.863  0.5048 -0.1112 -0.5606
 1937Sol     HW10788   3.030   0.610   4.878 -1.4770  1.8721 -1.8923
 1937Sol     HW10789   3.172   0.615   4.826 -0.3376 -2.0233  0.6421
 1937Sol     MW10790   3.102   0.659   4.861 -0.0978  0.6927 -0.7529
 1938Sol     OW10791   1.561   1.118   8.531  0.7305 -0.3225  0.5310
 1938Sol     HW10792   1.556   1.195   8.588 -1.3434 -0.4930  0.5851
 1938Sol     HW10793   1.565   1.043   8.591 -1.8466 -0.5273  0.4946
 1938Sol     MW10794   1.561   1.118   8.541 -0.5664 -0.1419 -0.7510
 1939Sol     OW10795   2.914   0.982   7.580 -0.3702  0.2590  0.0392
 1939Sol     HW10796   2.911   1.076   7.593 -0.9102  0.2350  0.0749
 1939Sol     HW10797   2.896   0.945   7.666 -0.6942  0.1200 -0.0883
 1939Sol     MW10798   2.912   0.987   7.589 -0.1024  0.8912 -0.3093
 1940Sol     OW10799   0.292   1.521   5.957  0.1739  0.0266  0.1966
 1940Sol     HW10800   0.316   1.563   6.039  0.7393  0.3222 -0.1129
 1940Sol     HW10801   0.220   1.575   5.923 -0.9324 -0.8516  1.1148
 1940Sol     MW10802   0.288   1.530   5.961 -0.1474 -0.3231  0.1779
 1941Sol     OW10803   2.325   2.355   5.612  0.2967 -0.3273 -0.2825
 1941Sol     HW10804   2.301   2.439   5.651 -0.7306 -0.0803 -1.4017
 1941Sol     HW10805   2.313   2.291   5.682 -0.7390  0.2125  0.0412
 1941Sol     MW10806   2.322   2.357   5.622  0.2942  0.3585  0.1634
 1942Sol     OW10807   1.042   0.087   2.073 -0.4869 -0.5168 -0.2519
 1942Sol     HW10808   1.125   0.048   2.046  0.1601  0.1247  0.7653
 1942Sol     HW10809   1.067   0.169   2.116 -1.7651  0.5759 -1.5362
 1942Sol     MW10810   1.051   0.091   2.074 -0.9735  0.0087  1.3499
 1943Sol     OW10811   0.868   3.007   5.298 -0.0824  0.1043  0.1949
 1943Sol     HW10812   0.928   2.932   5.299 -0.9165 -0.5738  1.9659
 1943Sol     HW10813   0.868   3.038   5.388 -0.1062  1.9630 -0.4416
 1943Sol     MW10814   0.873   3.003   5.306 -0.0408 -0.3307  0.0760
 1944Sol     OW10815   0.851   0.183   5.399 -0.9687 -0.0499  0.1635
 1944Sol     HW10816   0.944   0.190   5.417 -0.9230  0.6514 -0.3170
 1944Sol     HW10817   0.810   0.179   5.485 -0.5547  0.4584  0.3882
 1944Sol     MW10818   0.856   0.183   5.408  0.1558 -0.0151  0.3498
 1945Sol     OW10819   1.987   0.676   1.787 -0.0314 -0.1811  0.1605
 1945Sol     HW10820   1.978   0.673   1.883 -1.1438  2.2851  0.1667
 1945Sol     HW10821   1.906   0.635   1.755  0.4955 -1.3226  0.2461
 1945Sol     MW10822   1.979   0.672   1.793  0.0664 -0.8073 -0.2384
 1946Sol     OW10823   3.402   3.296   5.888  0.4977 -0.1767 -0.2056
 1946Sol     HW10824   3.402   3.201   5.893  0.1988 -0.1930 -0.4652
 1946Sol     HW10825   3.365   3.324   5.972  0.4359 -0.2927 -0.1940
 1946Sol     MW10826   3.399   3.290   5.896  0.4819  0.1523 -0.1866
 1947Sol     OW10827   0.037   0.753   7.986 -0.0041  0.0156  0.1675
 1947Sol     HW10828   0.128   0.727   7.977  0.5315  1.5148  1.0430
 1947Sol     HW10829   0.016   0.796   7.903 -0.0195 -0.6092 -0.1548
 1947Sol     MW10830   0.043   0.755   7.978 -0.1697  0.1073 -0.2670
 1948Sol     OW10831   3.102   1.394   5.580  0.5343 -0.4465  0.4124
 1948Sol     HW10832   3.072   1.323   5.637  0.5418  0.7374  1.9286
 1948Sol     HW10833   3.022   1.431   5.543  0.3575  0.1703  1.3746
 1948Sol     MW10834   3.092   1.391   5.582 -0.2707  0.3309  0.4459
 1949Sol     OW10835   0.914   3.151   6.982 -0.8587 -0.5487 -0.3364
 1949Sol     HW10836   0.915   3.057   6.965  0.4441 -0.7843  1.0078
 1949Sol     HW10837   0.909   3.159   7.077 -2.3880  0.7632 -0.4911
 1949Sol     MW10838   0.913   3.143   6.989 -0.6962  0.7928 -0.2492
 1950Sol     OW10839   0.740   1.975   5.636  0.0042 -0.2210  0.5805
 1950Sol     HW10840   0.645   1.980   5.628  0.0568 -1.4072 -1.2391
 1950Sol     HW10841   0.771   2.060   5.605 -0.4023 -0.5635 -0.8344
 1950Sol     MW10842   0.734   1.983   5.632  0.5107 -0.1197 -0.4021
 1951Sol     OW10843   1.364   3.018   2.939  0.6537  0.5063  0.1542
 1951Sol     HW10844   1.323   2.999   2.855  1.0101  0.0492  0.0838
 1951Sol     HW10845   1.345   2.941   2.993  0.7354  0.6435  0.3789
 1951Sol     MW10846   1.358   3.009   2.937  0.3136 -0.6394 -0.1179
 1952Sol     OW10847   2.381   0.726   8.718 -0.0434 -0.1715 -0.4668
 1952Sol     HW10848   2.415   0.688   8.799  0.6249 -3.3466 -2.1352
 1952Sol     HW10849   2.446   0.792   8.693 -0.0581  0.5408  1.3525
 1952Sol     MW10850   2.390   0.728   8.723  0.7263  0.3307  0.1131
 1953Sol     OW10851   0.682   1.497   5.346 -0.1994  0.1075 -0.0355
 1953Sol     HW10852   0.599   1.526   5.308 -1.9194 -1.6238  2.2643
 1953Sol     HW10853   0.743   1.569   5.327 -1.9975  1.0783 -2.4166
 1953Sol     MW10854   0.680   1.506   5.341  0.2093 -0.2934  0.2245
 1954Sol     OW10855   2.092   2.228   2.156  0.6629 -0.0825  0.2151
 1954Sol     HW10856   2.004   2.221   2.194  0.5542  2.0745  0.3991
 1954Sol     HW10857   2.137   2.149   2.185 -0.7982 -0.5630  1.2216
 1954Sol     MW10858   2.088   2.220   2.162  0.1618  0.0067 -0.0985
 1955Sol     OW10859   0.611   0.799   3.349 -0.1863  0.0508 -0.3808
 1955Sol     HW10860   0.583   0.888   3.328 -1.7167 -0.0508  1.1103
 1955Sol     HW10861   0.706   0.805   3.358 -0.1794  1.3343 -1.1341
 1955Sol     MW10862   0.617   0.807   3.348 -0.3375  0.2291  0.5010
 1956Sol     OW10863   2.620   3.071   4.869  0.1180 -0.9183 -0.2538
 1956Sol     HW10864   2.699   3.080   4.922 -0.4057 -2.3489  0.8053
 1956Sol     HW10865   2.631   2.987   4.823 -0.0185 -0.3058 -1.4229
 1956Sol     MW10866   2.628   3.064   4.870 -0.6634  0.5724 -0.5623
 1957Sol     OW10867   2.280   2.362   3.452  0.3156  0.5056  0.1616
 1957Sol     HW10868   2.311   2.275   3.425 -1.3100  0.3696 -1.3449
 1957Sol     HW10869   2.294   2.417   3.375 -3.0225  0.4727 -0.5435
 1957Sol     MW10870   2.284   2.359   3.443 -0.2269  0.0502  0.4469
 1958Sol     OW10871   1.988   2.579   3.820  0.3957  0.0691  0.4328
 1958Sol     HW10872   1.900   2.559   3.788 -0.1905 -0.5185  2.3608
 1958Sol     HW10873   1.987   2.674   3.833  0.4435  0.2287 -0.6699
 1958Sol     MW10874   1.980   2.586   3.818  0.7517  0.6894  0.5249
 1959Sol     OW10875   0.347   3.411   4.092 -0.5275  0.2830 -0.2856
 1959Sol     HW10876   0.288   3.485   4.105  0.1929  0.8263 -0.0970
 1959Sol     HW10877   0.362   3.409   3.997 -1.6052 -0.4552 -0.4587
 1959Sol     MW10878   0.343   3.417   4.085 -0.1663  0.2358 -0.1841
 1960Sol     OW10879   0.336   3.135   3.874 -0.4497  0.0360  0.0756
 1960Sol     HW10880   0.267   3.096   3.928 -0.2364  0.6913  0.8419
 1960Sol     HW10881   0.418   3.106   3.915 -0.2891  1.0360  0.4714
 1960Sol     MW10882   0.337   3.129   3.883 -0.6243  0.3640  0.3644
 1961Sol     OW10883   2.124   2.631   6.657  0.1298 -0.4083  0.3009
 1961Sol     HW10884   2.042   2.614   6.703 -0.1159 -1.8476 -0.6280
 1961Sol     HW10885   2.158   2.544   6.636  0.9077  0.1985 -1.0237
 1961Sol     MW10886   2.120   2.622   6.659  0.1834 -0.1083  0.1798
 1962Sol     OW10887   2.368   0.993   3.097 -0.7980  0.0378 -0.4768
 1962Sol     HW10888   2.350   1.062   3.160 -1.5836 -0.7279  0.1519
 1962Sol     HW10889   2.452   0.957   3.124 -0.9725 -0.0633 -0.0640
 1962Sol     MW10890   2.374   0.996   3.105  0.1196 -0.1169 -0.1863
 1963Sol     OW10891   0.034   1.197   1.740  0.1299 -0.4938 -0.2589
 1963Sol     HW10892   0.035   1.251   1.662  1.3866  0.7614  0.5984
 1963Sol     HW10893  -0.055   1.162   1.744 -0.5199  1.0154 -1.1577
 1963Sol     MW10894   0.026   1.198   1.734 -0.7767 -0.4419  0.2727
 1964Sol     OW10895   2.787   0.809   6.349 -0.0006  0.0592 -0.4789
 1964Sol     HW10896   2.770   0.743   6.415 -0.0127  2.6760  2.2540
 1964Sol     HW10897   2.879   0.833   6.362  1.0751 -1.9132 -3.8539
 1964Sol     MW10898   2.794   0.806   6.356 -0.2395 -0.2407 -1.1081
 1965Sol     OW10899   0.806   1.382   7.771  0.3628 -0.0588 -0.1033
 1965Sol     HW10900   0.829   1.290   7.781  0.6392 -0.0364 -0.5033
 1965Sol     HW10901   0.819   1.420   7.858 -1.0018 -0.6623  0.3733
 1965Sol     MW10902   0.809   1.378   7.780 -0.4004  0.0571  0.3754
 1966Sol     OW10903   3.026   0.826   1.215 -0.2722 -0.0658  0.5980
 1966Sol     HW10904   2.957   0.760   1.215  0.6638 -1.0615  0.0854
 1966Sol     HW10905   3.104   0.779   1.186  0.4373  1.2353  0.3541
 1966Sol     MW10906   3.027   0.816   1.212  0.0259  0.2547  0.2061
 1967Sol     OW10907   0.246   1.205   5.037 -0.0360  0.3317 -0.2369
 1967Sol     HW10908   0.302   1.277   5.064 -2.3271  1.8639  0.5596
 1967Sol     HW10909   0.285   1.174   4.955  2.5092  0.6898  0.7970
 1967Sol     MW10910   0.255   1.209   5.032  0.3077  0.1174 -0.2335
 1968Sol     OW10911   2.408   2.218   3.077  0.4792  0.1018  0.2895
 1968Sol     HW10912   2.441   2.234   2.988  1.7858 -0.5101  0.6557
 1968Sol     HW10913   2.465   2.269   3.134 -1.0606  1.3962  0.7036
 1968Sol     MW10914   2.416   2.224   3.074  0.9193 -0.1475 -1.1429
 1969Sol     OW10915   3.281   2.661   3.258 -0.3097 -0.3049  0.5699
 1969Sol     HW10916   3.234   2.735   3.219  0.0391 -0.0691  0.5878
 1969Sol     HW10917   3.367   2.664   3.217 -0.1544 -0.4441  0.8851
 1969Sol     MW10918   3.284   2.668   3.251  0.3316  0.3550 -0.1246
 1970Sol     OW10919   0.069   1.900   5.190  0.1587 -0.2187  0.1532
 1970Sol     HW10920   0.138   1.853   5.237 -0.2600 -0.6258  0.3729
 1970Sol     HW10921   0.032   1.835   5.130 -2.4293 -1.0945  2.5634
 1970Sol     MW10922   0.072   1.890   5.189  0.2673 -0.1789 -0.1977
 1971Sol     OW10923   0.052   1.133   3.833 -0.2259  0.5549  0.0783
 1971Sol     HW10924   0.094   1.051   3.859 -1.7932 -0.2289  0.1640
 1971Sol     HW10925   0.091   1.154   3.748  0.2399 -0.2247  0.0967
 1971Sol     MW10926   0.059   1.128   3.828  0.4686 -0.4980  0.8627
 1972Sol     OW10927   0.949   3.354   1.356  0.0263  0.1022 -0.0089
 1972Sol     HW10928   0.941   3.287   1.424 -0.7244  0.3788  0.1884
 1972Sol     HW10929   1.021   3.324   1.300  1.8379  0.7627  1.9125
 1972Sol     MW10930   0.954   3.345   1.357  0.0833 -0.1794 -0.2374
 1973Sol     OW10931   2.002   2.736   7.788 -0.9434  0.0119  0.0394
 1973Sol     HW10932   1.969   2.661   7.837 -0.5968  0.8094  1.5209
 1973Sol     HW10933   1.924   2.780   7.755 -1.3263  0.9058  2.0598
 1973Sol     MW10934   1.992   2.733   7.789 -0.0002 -0.8109  0.9006
 1974Sol     OW10935   1.444   0.068   4.331 -0.5178 -0.1849  0.5539
 1974Sol     HW10936   1.383   0.077   4.405 -0.5841 -2.2394  0.7846
 1974Sol     HW10937   1.397   0.104   4.256 -0.7916  1.1158  1.3333
 1974Sol     MW10938   1.434   0.072   4.331  0.4516  0.1831  0.1083
 1975Sol     OW10939   3.318   2.581   6.034  1.1297 -0.0502 -0.8443
 1975Sol     HW10940   3.320   2.585   6.130  0.3303 -0.1130 -0.8188
 1975Sol     HW10941   3.408   2.599   6.007  1.0950  1.2651 -0.1281
 1975Sol     MW10942   3.326   2.583   6.040  0.1318  0.1255  0.1107
 1976Sol     OW10943   0.434   0.393   7.291 -0.4546  0.4131 -0.2334
 1976Sol     HW10944   0.358   0.359   7.244 -1.6462  1.6190  0.7638
 1976Sol     HW10945   0.503   0.399   7.225 -0.3707 -3.2435 -0.5870
 1976Sol     MW10946   0.434   0.391   7.281  0.1646  0.0505 -0.6604
 1977Sol     OW10947   2.364   3.381   1.928 -0.0993  0.0933  0.2443
 1977Sol     HW10948   2.280   3.403   1.967 -0.8054 -1.5135 -0.3232
 1977Sol     HW10949   2.379   3.290   1.953  1.1278  0.1394 -0.2591
 1977Sol     MW10950   2.358   3.375   1.934 -0.1130 -0.9754  0.4640
 1978Sol     OW10951   3.250   1.396   7.926 -0.0048 -0.0675  0.7537
 1978Sol     HW10952   3.235   1.319   7.981 -2.0873  0.3709  0.8244
 1978Sol     HW10953   3.245   1.470   7.987 -2.0112  0.3994  0.0580
 1978Sol     MW10954   3.248   1.396   7.936  0.0297 -0.5373 -0.2929
 1979Sol     OW10955   0.433   0.833   5.505 -0.1157 -0.0678  0.5620
 1979Sol     HW10956   0.470   0.900   5.448 -1.7928  0.6400  0.2699
 1979Sol     HW10957   0.474   0.752   5.477 -0.2087  0.4115 -1.0101
 1979Sol     MW10958   0.440   0.832   5.498 -0.7913 -0.0480 -0.4873
 1980Sol     OW10959   1.813   2.467   8.204 -0.2965  0.3099  0.6851
 1980Sol     HW10960   1.832   2.492   8.295  0.9869 -0.1666  0.5546
 1980Sol     HW10961   1.840   2.376   8.198  1.4060  0.8843 -0.6836
 1980Sol     MW10962   1.817   2.461   8.212  0.1681  0.0761 -0.1951
 1981Sol     OW10963   0.276   0.070   8.095  0.5488  0.2149 -0.7007
 1981Sol     HW10964   0.262   0.074   8.001  1.5379 -1.6923 -0.9535
 1981Sol     HW10965   0.366   0.036   8.105 -0.0595 -1.0091  0.9127
 1981Sol     MW10966   0.283   0.067   8.088 -0.0723 -0.4105  0.2013
 1982Sol     OW10967   1.782   0.961   2.675  0.3621  0.1986  0.3868
 1982Sol     HW10968   1.854   0.976   2.614 -0.9801  0.7413 -1.1027
 1982Sol     HW10969   1.786   0.868   2.696  1.5873  0.2603  0.4302
 1982Sol     MW10970   1.789   0.954   2.671  0.3565 -0.3530  0.3546
 1983Sol     OW10971   3.241   1.595   3.298 -0.1911  0.1106  0.2504
 1983Sol     HW10972   3.159   1.582   3.250 -0.0488  2.6371 -0.7161
 1983Sol     HW10973   3.213   1.609   3.389 -0.7566 -0.0052  0.1002
 1983Sol     MW10974   3.231   1.595   3.302 -0.3702  0.3835 -0.0986
 1984Sol     OW10975   1.160   1.076   7.299 -0.0603  0.0756  0.4317
 1984Sol     HW10976   1.110   1.098   7.220  0.0313 -0.6860  0.1528
 1984Sol     HW10977   1.247   1.111   7.282  0.5516 -1.9487 -0.7338
 1984Sol     MW10978   1.163   1.081   7.290 -0.1402 -0.3890 -0.7059
 1985Sol     OW10979   0.224   0.997   5.204  0.6622  0.0641  0.0799
 1985Sol     HW10980   0.201   1.078   5.159  0.5316  0.0506  0.1247
 1985Sol     HW10981   0.319   0.990   5.193  0.4656 -0.5841 -1.2634
 1985Sol     MW10982   0.231   1.003   5.199 -0.3865 -0.4170  0.2224
 1986Sol     OW10983   1.468   1.539   1.503  0.2609 -0.5350  0.0323
 1986Sol     HW10984   1.530   1.539   1.576 -0.0907 -0.2655  0.3333
 1986Sol     HW10985   1.479   1.626   1.463  1.5441 -1.2269 -1.1743
 1986Sol     MW10986   1.474   1.547   1.506  0.1648 -0.0204  0.0145
 1987Sol     OW10987   0.471   2.282   6.111  0.0301  0.3411  0.1465
 1987Sol     HW10988   0.520   2.237   6.181 -1.9057 -1.5528  0.3352
 1987Sol     HW10989   0.538   2.302   6.045  2.0054  2.6799  2.7076
 1987Sol     MW10990   0.482   2.280   6.111 -0.6005 -0.2007 -0.1850
 1988Sol     OW10991   3.414   1.807   6.673 -0.3845  0.3852 -0.0036
 1988Sol     HW10992   3.500   1.783   6.637  0.9249  2.7086  1.4864
 1988Sol     HW10993   3.354   1.797   6.599  1.1350 -1.2685 -1.0729
 1988Sol     MW10994   3.416   1.804   6.663  0.5540  0.1035 -0.2393
 1989Sol     OW10995   0.837   1.037   4.297 -0.5759 -0.5536 -0.2911
 1989Sol     HW10996   0.897   1.031   4.222  0.3623 -2.9353  0.5830
 1989Sol     HW10997   0.864   1.116   4.343  2.2445 -1.7698  0.3068
 1989Sol     MW10998   0.845   1.043   4.294  0.8791  0.3109 -0.3333
 1990Sol     OW10999   3.104   0.178   2.404  0.5173 -0.1856  0.8553
 1990Sol     HW11000   3.062   0.133   2.478 -1.1250 -0.2227 -0.0797
 1990Sol     HW11001   3.133   0.107   2.346  1.3952 -0.1418  1.2341
 1990Sol     MW11002   3.103   0.167   2.406  0.3588  0.0169 -0.4437
 1991Sol     OW11003   0.528   1.872   7.235  0.1047  0.0357 -0.3978
 1991Sol     HW11004   0.552   1.780   7.247 -1.8367 -0.6634 -1.7042
 1991Sol     HW11005   0.476   1.873   7.155 -0.7855  2.1120  0.1797
 1991Sol     MW11006   0.525   1.863   7.229 -0.1694 -1.5198  0.0048
 1992Sol     OW11007   2.251   0.626   6.710 -0.4748 -0.1079 -0.4043
 1992Sol     HW11008   2.250   0.699   6.648  0.2755  0.2418 -0.0137
 1992Sol     HW11009   2.296   0.556   6.664  1.4007  0.6297  0.2537
 1992Sol     MW11010   2.255   0.626   6.700 -0.2343  0.1683  0.2240
 1993Sol     OW11011   3.349   1.000   6.473 -0.0587 -0.9798 -0.7256
 1993Sol     HW11012   3.265   1.021   6.432 -0.1047 -1.9099 -1.1297
 1993Sol     HW11013   3.329   0.930   6.534  0.0752  0.1869  0.6720
 1993Sol     MW11014   3.340   0.996   6.474 -0.7596  0.2586 -0.0117
 1994Sol     OW11015   3.340   3.229   2.159 -0.2511 -0.1207 -0.0410
 1994Sol     HW11016   3.319   3.321   2.172  0.8163  0.4384 -2.0397
 1994Sol     HW11017   3.425   3.218   2.201 -0.2432 -0.1286 -0.0592
 1994Sol     MW11018   3.346   3.236   2.164 -0.0009  0.3018 -0.5737
 1995Sol     OW11019   2.570   2.360   3.230  0.2377 -0.9053  0.4732
 1995Sol     HW11020   2.622   2.416   3.172 -0.3581  0.6247  1.3886
 1995Sol     HW11021   2.628   2.342   3.304  0.2536 -1.0732  0.4191
 1995Sol     MW11022   2.580   2.364   3.232  0.1352 -0.3590 -0.1146
 1996Sol     OW11023   1.457   1.264   7.553  1.1717 -0.0485  0.2328
 1996Sol     HW11024   1.426   1.298   7.469  1.9981  1.0281  0.3488
 1996Sol     HW11025   1.552   1.277   7.551  1.0328  1.4770  1.9818
 1996Sol     MW11026   1.463   1.268   7.545 -0.1305 -0.0235  0.2708
 1997Sol     OW11027   1.398   2.688   4.870 -0.1547 -0.5815  0.0454
 1997Sol     HW11028   1.408   2.600   4.834  1.8378 -0.8918  1.3151
 1997Sol     HW11029   1.487   2.722   4.878 -0.7980  0.9793  1.0043
 1997Sol     MW11030   1.407   2.683   4.867  0.0370 -0.5224 -0.0695
 1998Sol     OW11031   2.680   0.137   4.509 -0.5054 -0.3927  0.2241
 1998Sol     HW11032   2.611   0.077   4.482 -0.4165 -0.0500 -0.7680
 1998Sol     HW11033   2.719   0.169   4.427  1.4338 -1.2863  0.7582
 1998Sol     MW11034   2.678   0.135   4.499  0.2822 -0.1325  0.0825
 1999Sol     OW11035   1.886   1.856   4.381 -0.1817  0.4497 -0.3756
 1999Sol     HW11036   1.922   1.909   4.310 -2.0450  2.4305  0.1125
 1999Sol     HW11037   1.904   1.906   4.460  1.9760 -1.7967  0.6415
 1999Sol     MW11038   1.891   1.865   4.382 -0.5345 -0.7714 -0.5428
 2000Sol     OW11039   0.771   0.342   3.459  0.3078 -0.1470  0.3894
 2000Sol     HW11040   0.862   0.323   3.477  0.5385 -0.3173 -0.9102
 2000Sol     HW11041   0.760   0.325   3.365 -1.1261 -0.4249  0.5828
 2000Sol     MW11042   0.778   0.339   3.452 -0.1858  0.1210 -0.8003
 2001Sol     OW11043   1.034   0.498   5.395  0.7396 -0.3276  0.6048
 2001Sol     HW11044   0.983   0.507   5.476  2.4839  0.3965  1.6611
 2001Sol     HW11045   1.056   0.404   5.391  0.3527 -0.4268  0.7945
 2001Sol     MW11046   1.032   0.490   5.402 -0.2914  0.9059 -0.3040
 2002Sol     OW11047   1.941   1.785   5.898 -0.1747  0.3996  0.0662
 2002Sol     HW11048   1.886   1.710   5.878 -0.9814  1.2032 -0.7717
 2002Sol     HW11049   1.978   1.812   5.814  0.2114  0.8661  0.3758
 2002Sol     MW11050   1.940   1.781   5.889  0.2121 -0.5116 -0.3131
 2003Sol     OW11051   1.602   2.946   6.314  0.3294  0.6066 -0.3122
 2003Sol     HW11052   1.670   2.916   6.254  1.0936  1.3367  0.1845
 2003Sol     HW11053   1.536   2.876   6.313  3.5250 -2.6781  3.2456
 2003Sol     MW11054   1.602   2.937   6.309 -0.1230  0.1949  0.1122
 2004Sol     OW11055   1.451   0.935   5.603  0.1442 -0.1743 -0.2717
 2004Sol     HW11056   1.457   0.949   5.508  3.3065  0.7056  0.0002
 2004Sol     HW11057   1.503   0.857   5.619 -0.6188 -0.4908  0.7388
 2004Sol     MW11058   1.456   0.929   5.596  0.2684  0.3713  0.5503
 2005Sol     OW11059   1.034   0.251   7.620  0.0370 -0.0606  0.3279
 2005Sol     HW11060   1.065   0.322   7.676 -0.4766 -0.2917  0.9125
 2005Sol     HW11061   1.112   0.223   7.572  0.6247 -0.2460  1.3516
 2005Sol     MW11062   1.044   0.255   7.621  0.2024 -0.5407 -0.3504
 2006Sol     OW11063   0.317   3.219   3.416  0.1901  0.1027 -0.1864
 2006Sol     HW11064   0.357   3.299   3.380 -2.4561  1.5074 -0.0877
 2006Sol     HW11065   0.323   3.231   3.511  1.5475 -0.7368 -0.1554
 2006Sol     MW11066   0.322   3.227   3.422 -0.5317  0.0712  0.1121
 2007Sol     OW11067   1.309   3.056   4.960 -0.1554 -0.0256  0.1902
 2007Sol     HW11068   1.363   3.059   4.881 -1.1321 -0.9004 -0.5138
 2007Sol     HW11069   1.268   3.142   4.965  2.9969  1.4734  1.9615
 2007Sol     MW11070   1.310   3.064   4.954 -0.0731  0.2877  0.7265
 2008Sol     OW11071   1.457   3.406   2.206 -0.4472 -0.3517  0.3002
 2008Sol     HW11072   1.410   3.336   2.252 -1.0224 -0.2699 -0.1587
 2008Sol     HW11073   1.449   3.482   2.264 -0.2161 -0.5398  0.5827
 2008Sol     MW11074   1.452   3.407   2.216 -0.3216 -0.3576  0.1453
 2009Sol     OW11075   1.075   2.077   5.138 -0.3680  0.4835 -0.5815
 2009Sol     HW11076   1.076   1.984   5.115 -0.8723  0.1870  0.5150
 2009Sol     HW11077   0.983   2.102   5.132 -0.3573  0.6756 -0.0428
 2009Sol     MW11078   1.067   2.071   5.136 -1.2596 -0.1704 -0.1298
 2010Sol     OW11079   2.170   0.938   8.002  0.5506 -0.2326 -0.0414
 2010Sol     HW11080   2.187   0.846   8.025 -1.6562 -0.9140 -1.0228
 2010Sol     HW11081   2.257   0.978   8.000  1.4343 -1.9361  1.8595
 2010Sol     MW11082   2.180   0.933   8.004  0.3023  0.0839 -0.4914
 2011Sol     OW11083   0.895   0.433   2.870  0.6752 -0.4149  0.0932
 2011Sol     HW11084   0.974   0.470   2.831 -0.2381 -1.7747 -3.1911
 2011Sol     HW11085   0.906   0.339   2.862 -2.1912 -0.6139 -2.5055
 2011Sol     MW11086   0.903   0.428   2.866 -0.7640  0.3163  0.4068
 2012Sol     OW11087   0.938   2.305   7.272  0.4310  0.0429  0.1983
 2012Sol     HW11088   0.960   2.245   7.343 -0.5112  0.8869  1.2345
 2012Sol     HW11089   1.022   2.334   7.237  0.9678  1.3132  2.4346
 2012Sol     MW11090   0.947   2.303   7.275 -0.1303 -0.0225  0.7987
 2013Sol     OW11091   3.031   1.768   6.720  0.0622  0.0734 -0.4825
 2013Sol     HW11092   3.049   1.716   6.798 -2.4174  0.4579  0.3862
 2013Sol     HW11093   3.038   1.859   6.748 -3.0428  0.2617 -0.0563
 2013Sol     MW11094   3.033   1.772   6.729  0.2322 -0.5623  0.1143
 2014Sol     OW11095   1.850   1.325   3.247 -0.6662  1.0091  0.3771
 2014Sol     HW11096   1.761   1.344   3.216 -0.9178 -0.9460 -0.1860
 2014Sol     HW11097   1.842   1.317   3.342 -1.4595 -0.9473  0.1618
 2014Sol     MW11098   1.841   1.326   3.252  0.5717  0.4644 -0.2423
 2015Sol     OW11099   2.697   3.250   5.466 -0.2665  0.3492  0.1707
 2015Sol     HW11100   2.683   3.339   5.500 -1.9296  0.3749 -0.5287
 2015Sol     HW11101   2.634   3.196   5.514  2.4583 -0.9462  2.4230
 2015Sol     MW11102   2.690   3.253   5.474 -0.1764  0.3226 -0.0500
 2016Sol     OW11103   1.985   2.263   6.898  0.2711 -0.2198  0.5817
 2016Sol     HW11104   2.023   2.350   6.910  0.8420 -0.3166 -0.3989
 2016Sol     HW11105   1.897   2.280   6.865 -0.2517 -0.0025  2.0543
 2016Sol     MW11106   1.980   2.273   6.896 -0.1624 -0.1320  0.0706
 2017Sol     OW11107   0.513   0.580   3.175 -0.2488 -0.1517  0.3555
 2017Sol     HW11108   0.563   0.641   3.230  0.0556 -0.5501  0.5206
 2017Sol     HW11109   0.570   0.504   3.166  0.2103  0.3700 -1.4835
 2017Sol     MW11110   0.523   0.579   3.179  0.2394 -0.0724  0.2051
 2018Sol     OW11111   0.641   1.932   3.345  0.5472 -0.0873 -0.2863
 2018Sol     HW11112   0.573   1.926   3.278  0.4786 -0.5585 -0.1760
 2018Sol     HW11113   0.596   1.910   3.427  0.9754 -1.0800 -0.3039
 2018Sol     MW11114   0.631   1.929   3.346  0.1289 -0.1703  0.0929
 2019Sol     OW11115   1.506   2.444   4.809 -0.3292 -0.5287 -0.3137
 2019Sol     HW11116   1.519   2.374   4.745 -3.1487 -0.9590 -0.4714
 2019Sol     HW11117   1.504   2.400   4.893  1.4380 -0.1900 -0.0788
 2019Sol     MW11118   1.507   2.434   4.811  0.1724  0.0556  0.6749
 2020Sol     OW11119   2.950   2.205   8.274 -0.0781 -0.0964  0.6763
 2020Sol     HW11120   3.023   2.170   8.325  0.8187 -0.7253 -1.0164
 2020Sol     HW11121   2.923   2.132   8.218 -0.4492  0.8660 -0.4113
 2020Sol     MW11122   2.954   2.196   8.274  0.0020  0.1074  0.0978
 2021Sol     OW11123   1.947   0.755   7.441  0.3927  0.2097 -0.2297
 2021Sol     HW11124   2.018   0.734   7.379  0.6457 -0.2178  0.1978
 2021Sol     HW11125   1.870   0.766   7.386  0.7121  0.3017 -0.6684
 2021Sol     MW11126   1.947   0.754   7.431 -0.2396  0.6178 -0.2710
 2022Sol     OW11127   0.491   0.292   3.952 -0.3030 -0.5438  0.3840
 2022Sol     HW11128   0.514   0.210   3.907 -0.5618 -0.0836 -0.6063
 2022Sol     HW11129   0.445   0.343   3.886  1.4307  1.1529  0.4301
 2022Sol     MW11130   0.489   0.289   3.942  0.0704  0.2969  1.0142
 2023Sol     OW11131   0.738   0.450   7.909 -0.2055 -0.1327  0.0714
 2023Sol     HW11132   0.685   0.378   7.876  0.2775 -1.0840  1.3216
 2023Sol     HW11133   0.686   0.528   7.890 -0.9319 -0.8391 -0.9094
 2023Sol     MW11134   0.729   0.451   7.905 -0.2367  0.8975 -1.0711
 2024Sol     OW11135   2.397   0.044   7.941 -0.2057  0.1558  0.3409
 2024Sol     HW11136   2.441  -0.038   7.918 -1.2597 -0.8072  1.6862
 2024Sol     HW11137   2.354   0.026   8.025 -0.6250  2.0214  0.5610
 2024Sol     MW11138   2.397   0.035   7.947  0.2440 -0.5279  0.6249
 2025Sol     OW11139   1.097   1.955   2.250  0.1678 -0.3555 -0.2842
 2025Sol     HW11140   1.144   1.954   2.334 -0.0712  0.4707 -0.1340
 2025Sol     HW11141   1.129   1.878   2.204  0.0478 -1.0134  0.7138
 2025Sol     MW11142   1.104   1.948   2.254  0.4531  0.0400 -1.2565
 2026Sol     OW11143   3.561   2.352   8.508  0.5767  0.2530  0.7783
 2026Sol     HW11144   3.605   2.363   8.592 -0.4040 -1.3521  1.5267
 2026Sol     HW11145   3.603   2.276   8.468 -2.2211 -2.0587  2.0414
 2026Sol     MW11146   3.568   2.346   8.512 -0.4584 -0.0309  0.7167
 2027Sol     OW11147   2.136   0.001   2.261  0.3369 -0.1414 -0.4812
 2027Sol     HW11148   2.175   0.081   2.297 -2.4603  0.8657  0.4438
 2027Sol     HW11149   2.137   0.015   2.166  1.4921  0.2212 -0.4149
 2027Sol     MW11150   2.139   0.010   2.256 -0.3427 -0.2144 -0.1218
 2028Sol     OW11151   2.176   1.435   5.225 -0.3996  0.1832 -0.2504
 2028Sol     HW11152   2.087   1.402   5.218 -0.7728  1.1829 -0.3824
 2028Sol     HW11153   2.212   1.425   5.137 -0.4218 -0.1117 -0.2259
 2028Sol     MW11154   2.171   1.431   5.217 -0.6760 -0.2581 -0.0387
 2029Sol     OW11155   1.943   1.057   6.223  0.8557  0.5421  0.1208
 2029Sol     HW11156   1.852   1.026   6.226  1.2315 -0.7144 -0.9301
 2029Sol     HW11157   1.938   1.142   6.179  0.2662  0.1892 -0.5054
 2029Sol     MW11158   1.934   1.062   6.219  0.0493  0.5712 -0.2912
 2030Sol     OW11159   2.913   1.096   6.202  0.1284  0.0642  0.9335
 2030Sol     HW11160   2.841   1.156   6.184 -0.4129 -1.0963 -0.8764
 2030Sol     HW11161   2.992   1.149   6.190 -0.3630  0.6742  0.3579
 2030Sol     MW11162   2.913   1.106   6.200 -0.5957 -0.3288  0.3606
 2031Sol     OW11163   1.837   0.017   3.047  0.8245 -0.5980 -0.1199
 2031Sol     HW11164   1.753   0.064   3.047  0.3017 -1.1939  5.2088
 2031Sol     HW11165   1.902   0.087   3.041 -0.0014  0.1032 -1.2774
 2031Sol     MW11166   1.835   0.028   3.046 -0.4721 -0.1524  0.1318
 2032Sol     OW11167   2.083   1.918   5.684 -0.1211 -0.2155  0.1902
 2032Sol     HW11168   2.141   1.992   5.700 -1.3381  0.5932  0.9868
 2032Sol     HW11169   2.007   1.956   5.641 -0.5611 -1.0659  0.2020
 2032Sol     MW11170   2.081   1.928   5.682 -0.1418 -0.2887 -0.2302
 2033Sol     OW11171   0.470   2.046   5.646 -0.1886  0.2729  0.7543
 2033Sol     HW11172   0.459   1.969   5.702 -1.2582  1.3276  2.0486
 2033Sol     HW11173   0.432   2.118   5.698 -0.9608  1.3184 -1.2239
 2033Sol     MW11174   0.466   2.046   5.656  0.0634  0.2248  0.2645
 2034Sol     OW11175   1.339   2.618   3.884 -0.0379  0.8943  0.1954
 2034Sol     HW11176   1.318   2.524   3.885 -1.4555  1.1997  1.7548
 2034Sol     HW11177   1.433   2.622   3.899  0.1618 -0.3091 -0.6487
 2034Sol     MW11178   1.345   2.610   3.885 -0.0018 -0.8526  0.5546
 2035Sol     OW11179   0.066   0.342   4.539 -0.2521  0.1425 -0.5600
 2035Sol     HW11180   0.123   0.414   4.566 -1.9216  1.5122 -0.5816
 2035Sol     HW11181   0.102   0.312   4.456 -0.6509  2.2457 -1.5213
 2035Sol     MW11182   0.074   0.346   4.534 -0.1995 -0.4215 -0.4758
 2036Sol     OW11183   1.082   0.004   2.408  0.4860 -0.8266  0.5844
 2036Sol     HW11184   1.125  -0.003   2.323  0.7984 -1.6689  0.8089
 2036Sol     HW11185   0.993   0.034   2.387  1.0685  0.6007  0.1026
 2036Sol     MW11186   1.078   0.006   2.398  0.6142  0.0484 -0.6375
 2037Sol     OW11187   0.756   0.104   4.123 -0.6497  1.0522 -0.3341
 2037Sol     HW11188   0.836   0.059   4.149 -1.0277  0.4694 -0.1593
 2037Sol     HW11189   0.728   0.152   4.201 -1.9433 -0.9308  0.4644
 2037Sol     MW11190   0.760   0.104   4.132  0.1998 -0.4509 -0.2979
 2038Sol     OW11191   0.651   0.345   3.182  0.0998 -0.1504 -0.0326
 2038Sol     HW11192   0.737   0.383   3.165  0.5393 -0.0959  2.0729
 2038Sol     HW11193   0.655   0.258   3.143  0.0045  0.9503 -2.6104
 2038Sol     MW11194   0.659   0.341   3.177 -0.1626  0.1341 -0.1275
 2039Sol     OW11195   2.480   3.340   4.528 -0.2621  1.1946  0.1483
 2039Sol     HW11196   2.470   3.367   4.619  0.3174  1.1878  0.2122
 2039Sol     HW11197   2.401   3.289   4.510  0.0002  0.5296  0.8800
 2039Sol     MW11198   2.472   3.338   4.534 -0.2896 -0.3921 -0.8512
 2040Sol     OW11199   1.160   2.716   2.236 -0.0227  0.2465 -0.0509
 2040Sol     HW11200   1.154   2.706   2.141  0.9542 -1.7366  0.0757
 2040Sol     HW11201   1.240   2.766   2.250 -0.5523  1.1732 -0.2970
 2040Sol     MW11202   1.166   2.719   2.229 -0.2530  0.0516 -0.0882
 2041Sol     OW11203   3.241   1.171   4.211  0.5415 -0.2032 -0.0404
 2041Sol     HW11204   3.248   1.143   4.303 -2.2600  2.1395  0.9780
 2041Sol     HW11205   3.325   1.211   4.191 -0.0340  2.5685  2.7460
 2041Sol     MW11206   3.249   1.172   4.218 -0.1972  0.1116 -0.1108
 2042Sol     OW11207   0.665   0.824   7.093  0.3629  0.4775 -0.5228
 2042Sol     HW11208   0.657   0.736   7.056 -3.0873  0.2688  0.5710
 2042Sol     HW11209   0.694   0.810   7.183  0.4162  0.5211 -0.5328
 2042Sol     MW11210   0.667   0.815   7.097 -0.2277  0.3835  0.2739
 2043Sol     OW11211   1.309   0.127   6.332 -0.1205 -0.1491 -0.1693
 2043Sol     HW11212   1.364   0.077   6.393  0.6173  1.0195  0.1490
 2043Sol     HW11213   1.339   0.101   6.245 -0.5984 -1.1924 -0.0226
 2043Sol     MW11214   1.317   0.120   6.330 -0.2798 -0.0455 -0.0855
 2044Sol     OW11215   1.604   0.388   3.167 -1.3150 -0.3106  0.0019
 2044Sol     HW11216   1.551   0.322   3.121 -1.3223 -1.3010  1.3900
 2044Sol     HW11217   1.628   0.451   3.099 -2.1780 -1.1938 -1.1516
 2044Sol     MW11218   1.601   0.387   3.157  0.0356  0.3904 -0.2635
 2045Sol     OW11219   0.530   3.349   8.150  0.0184  0.6038  0.1745
 2045Sol     HW11220   0.593   3.416   8.176  0.8243  0.2850 -0.9550
 2045Sol     HW11221   0.551   3.274   8.205 -0.2721  0.9561  0.7709
 2045Sol     MW11222   0.537   3.348   8.157 -0.1969 -0.4849  0.3766
 2046Sol     OW11223   1.064   0.044   3.611  0.1279  0.1522 -0.1824
 2046Sol     HW11224   1.155   0.015   3.615  0.2567  0.7522  1.6432
 2046Sol     HW11225   1.023   0.004   3.687 -0.5540  1.8010  0.3475
 2046Sol     MW11226   1.068   0.038   3.618  0.1785 -0.1307 -0.0954
 2047Sol     OW11227   1.928   0.348   7.231  0.6657  0.0863  0.2924
 2047Sol     HW11228   1.855   0.407   7.250  1.5772  1.6152 -0.8917
 2047Sol     HW11229   1.906   0.267   7.277 -0.5980  1.3458  1.9483
 2047Sol     MW11230   1.920   0.346   7.237  0.2174 -0.3082  0.5097
 2048Sol     OW11231   1.614   2.841   5.780 -0.3204  0.8003 -0.3578
 2048Sol     HW11232   1.692   2.878   5.738 -0.5355  1.9180  0.2018
 2048Sol     HW11233   1.623   2.747   5.769  3.1189  0.6098  3.0906
 2048Sol     MW11234   1.622   2.836   5.775  0.3339  0.4942 -0.3881
 2049Sol     OW11235   3.555   2.224   7.175  0.4035  0.1706  0.1215
 2049Sol     HW11236   3.648   2.202   7.170  0.6120  1.0476 -0.0828
 2049Sol     HW11237   3.535   2.221   7.268  0.1330 -1.9764  0.0162
 2049Sol     MW11238   3.562   2.222   7.183  0.5296  0.7964 -0.5813
 2050Sol     OW11239   0.645   3.253   6.928 -0.1969  0.2618 -0.2437
 2050Sol     HW11240   0.738   3.228   6.930  0.5702  2.9251 -0.3034
 2050Sol     HW11241   0.630   3.282   6.837 -1.1269 -0.2678 -0.2660
 2050Sol     MW11242   0.652   3.253   6.920  0.2716 -0.0505 -0.2202
 2051Sol     OW11243   1.402   2.984   7.216 -0.4930  0.3196 -0.1717
 2051Sol     HW11244   1.470   3.052   7.218 -0.0956 -0.1081  1.5836
 2051Sol     HW11245   1.438   2.917   7.157  0.5390  0.1864  0.5854
 2051Sol     MW11246   1.412   2.984   7.211  0.7019 -0.3268 -0.2254
 2052Sol     OW11247   0.292   1.653   2.319  0.1475 -0.1187 -0.3663
 2052Sol     HW11248   0.306   1.558   2.329  1.8891  0.4070  2.6216
 2052Sol     HW11249   0.377   1.686   2.289 -0.1131  0.6713 -0.2333
 2052Sol     MW11250   0.301   1.647   2.317  0.3824  0.3217  0.3537
 2053Sol     OW11251   0.856   1.934   8.042 -0.2229 -0.8988  0.9037
 2053Sol     HW11252   0.924   1.940   7.976  1.4603 -0.0168  2.6727
 2053Sol     HW11253   0.817   2.021   8.045  0.3418 -0.6699  1.7219
 2053Sol     MW11254   0.858   1.942   8.037  0.5222  0.0416  0.1368
 2054Sol     OW11255   3.491   0.870   4.018 -0.3202  0.2726 -0.5177
 2054Sol     HW11256   3.519   0.873   4.110  1.0460 -1.3368 -0.8686
 2054Sol     HW11257   3.572   0.862   3.968 -1.1335 -0.1388 -1.7955
 2054Sol     MW11258   3.501   0.870   4.022 -0.4196 -0.1573  0.0137
 2055Sol     OW11259   2.980   3.044   1.833 -0.0101 -0.5612  0.1379
 2055Sol     HW11260   2.997   3.105   1.905  1.1827 -0.2000 -0.4291
 2055Sol     HW11261   2.966   2.960   1.876  0.5014 -0.3063  0.8162
 2055Sol     MW11262   2.981   3.042   1.843  0.4977  0.3280  0.0534
 2056Sol     OW11263   2.468   1.407   8.043 -0.5426 -0.4484 -0.2348
 2056Sol     HW11264   2.403   1.357   8.093  0.2317 -1.6237 -0.3672
 2056Sol     HW11265   2.525   1.340   8.006  0.1966  0.5314 -0.8743
 2056Sol     MW11266   2.467   1.396   8.044  0.9251 -0.3354 -0.3018
 2057Sol     OW11267   2.448   1.629   8.271  0.0230  0.1557 -0.4991
 2057Sol     HW11268   2.378   1.693   8.256 -0.1052  0.6110  1.9209
 2057Sol     HW11269   2.403   1.545   8.275 -0.4242  0.4626  1.1928
 2057Sol     MW11270   2.438   1.627   8.270 -0.1636 -0.1894  0.2031
 2058Sol     OW11271   2.716   2.691   7.844 -0.3227 -1.0183  0.0536
 2058Sol     HW11272   2.671   2.682   7.929  0.3111 -0.6032  0.4387
 2058Sol     HW11273   2.807   2.710   7.867 -0.3273 -0.0364 -0.7302
 2058Sol     MW11274   2.720   2.692   7.854 -0.1013 -0.2284  0.2480
 2059Sol     OW11275   0.057   2.543   7.096 -0.2439 -0.2562 -0.6805
 2059Sol     HW11276  -0.010   2.504   7.039 -1.1315  0.4268 -0.1228
 2059Sol     HW11277   0.139   2.502   7.069 -0.6857 -0.0880 -2.3091
 2059Sol     MW11278   0.058   2.535   7.089 -0.0941  0.2899 -0.1790
 2060Sol     OW11279   0.895   1.319   6.916  0.3418  0.3555 -0.7087
 2060Sol     HW11280   0.918   1.230   6.942  0.7778  1.0772  1.4843
 2060Sol     HW11281   0.823   1.309   6.854 -0.6595 -1.4605  0.7260
 2060Sol     MW11282   0.890   1.310   6.913  0.3940 -0.0015 -0.8690
 2061Sol     OW11283   1.448   0.578   8.499  0.0974  0.5803  0.1877
 2061Sol     HW11284   1.510   0.531   8.443  1.5092  0.8504  1.4813
 2061Sol     HW11285   1.455   0.669   8.471  1.4177  0.8473  1.3157
 2061Sol     MW11286   1.454   0.582   8.492  0.0885 -0.1442  0.1032
 2062Sol     OW11287   0.092   2.347   1.613 -0.2210  0.0988  0.0416
 2062Sol     HW11288   0.172   2.294   1.610 -0.5168 -0.2683 -2.3985
 2062Sol     HW11289   0.035   2.300   1.674  0.4362 -1.0790 -0.2331
 2062Sol     MW11290   0.094   2.338   1.618  0.2827  0.0082 -0.2054
 2063Sol     OW11291   0.903   1.462   4.242 -0.1822 -0.1610 -0.3082
 2063Sol     HW11292   0.814   1.445   4.211  0.2715  0.2083 -1.8983
 2063Sol     HW11293   0.959   1.420   4.177  0.8064 -0.7780  0.9238
 2063Sol     MW11294   0.900   1.457   4.233 -0.4567  0.5720  0.0183
 2064Sol     OW11295   3.186   2.875   5.313  0.3148  0.2863 -0.0674
 2064Sol     HW11296   3.253   2.831   5.260  1.1196  1.7749 -0.3305
 2064Sol     HW11297   3.230   2.952   5.348 -0.1061 -0.7983  3.0583
 2064Sol     MW11298   3.196   2.878   5.311  0.0280 -0.6031 -0.1400
 2065Sol     OW11299   2.451   3.139   2.051 -0.4762  0.0722  0.3514
 2065Sol     HW11300   2.391   3.134   2.126 -0.7398  2.0209  0.2821
 2065Sol     HW11301   2.487   3.050   2.043 -2.0418 -0.6800  1.4700
 2065Sol     MW11302   2.449   3.130   2.057 -0.5872  0.1376 -0.4423
 2066Sol     OW11303   0.800   1.059   6.699  0.6129 -0.2116  0.6642
 2066Sol     HW11304   0.748   1.028   6.773 -0.7442 -0.8347 -0.5439
 2066Sol     HW11305   0.886   1.018   6.712  0.3146 -0.5252  1.7365
 2066Sol     MW11306   0.803   1.053   6.707  0.0076  0.1537  0.4169
 2067Sol     OW11307   1.683   2.295   3.810 -0.2586  0.1107 -0.0794
 2067Sol     HW11308   1.638   2.219   3.772  0.4524 -0.7536  0.7764
 2067Sol     HW11309   1.720   2.341   3.735  0.4133 -1.1103 -0.5232
 2067Sol     MW11310   1.682   2.292   3.800  0.2125  0.1687  0.2813
 2068Sol     OW11311   0.159   0.035   6.127 -0.1615  0.1615  0.7727
 2068Sol     HW11312   0.235   0.068   6.175 -0.2113  1.5713 -0.0868
 2068Sol     HW11313   0.086   0.090   6.157 -0.1901  1.0673 -0.8901
 2068Sol     MW11314   0.159   0.043   6.134  0.8049 -0.2408  1.0034
 2069Sol     OW11315   1.664   3.246   3.677 -0.2503 -0.0742  0.3173
 2069Sol     HW11316   1.738   3.252   3.736  1.2003 -1.7711 -1.2633
 2069Sol     HW11317   1.604   3.185   3.721  0.2661 -0.3749  0.6140
 2069Sol     MW11318   1.665   3.241   3.686  0.4171  0.1861  0.0735
 2070Sol     OW11319   1.203   0.889   1.466 -0.9769  0.8208 -0.3486
 2070Sol     HW11320   1.235   0.817   1.520  0.2940  0.5727 -1.4016
 2070Sol     HW11321   1.193   0.962   1.527 -2.3022 -0.2360  0.7357
 2070Sol     MW11322   1.205   0.889   1.476  0.0525  0.1361  0.1709
 2071Sol     OW11323   3.397   0.093   5.286  0.0057 -0.0355 -0.1675
 2071Sol     HW11324   3.321   0.039   5.310  0.3178  0.1098  1.1715
 2071Sol     HW11325   3.359   0.173   5.250 -0.4735 -0.1492  0.0782
 2071Sol     MW11326   3.387   0.095   5.285  0.3431 -0.5431  0.5106
 2072Sol     OW11327   0.267   1.619   6.247  0.2923  0.1405  0.3848
 2072Sol     HW11328   0.179   1.656   6.255  0.2290  0.1903 -0.4774
 2072Sol     HW11329   0.323   1.679   6.296 -0.0726  0.4340  0.4433
 2072Sol     MW11330   0.265   1.627   6.252  1.1046 -0.3305 -0.4501
 2073Sol     OW11331   3.398   1.300   7.578 -0.2743  0.3614  0.4778
 2073Sol     HW11332   3.487   1.276   7.603 -0.2892 -0.1455  0.0485
 2073Sol     HW11333   3.391   1.276   7.486 -0.8947  0.2810  0.5406
 2073Sol     MW11334   3.405   1.295   7.572  0.3634 -0.3800  0.6169
 2074Sol     OW11335   0.134   3.326   5.885 -0.4499 -0.4709  0.3599
 2074Sol     HW11336   0.048   3.287   5.896 -0.3860 -0.5365  0.6467
 2074Sol     HW11337   0.145   3.381   5.963 -0.2456 -0.4425  0.3114
 2074Sol     MW11338   0.128   3.328   5.893 -0.1352  0.4595  0.1466
 2075Sol     OW11339   3.285   0.706   1.227  0.1944 -0.3775  0.5148
 2075Sol     HW11340   3.347   0.692   1.156 -0.6102  1.0017 -0.4963
 2075Sol     HW11341   3.274   0.620   1.267  3.8953 -0.3834  1.7026
 2075Sol     MW11342   3.289   0.697   1.224 -0.1036  0.6399 -0.3822
 2076Sol     OW11343   1.077   1.999   6.566 -0.3094 -0.4180  0.6085
 2076Sol     HW11344   1.037   2.005   6.653  0.7433 -1.8928  1.2126
 2076Sol     HW11345   1.016   1.944   6.516 -0.5812 -0.1204  0.6120
 2076Sol     MW11346   1.068   1.994   6.569 -0.1744  0.1313 -0.7409
 2077Sol     OW11347   2.450   1.462   2.216  0.4005  0.5228 -0.0822
 2077Sol     HW11348   2.479   1.552   2.199  0.5869  0.5981  0.6192
 2077Sol     HW11349   2.359   1.461   2.187  0.7450  0.6108 -1.1927
 2077Sol     MW11350   2.444   1.470   2.212 -1.2836 -0.0592 -0.3894
 2078Sol     OW11351   2.179   1.622   3.371  0.3078 -0.3115  0.3249
 2078Sol     HW11352   2.256   1.575   3.403  0.7183  1.3810  1.8818
 2078Sol     HW11353   2.105   1.578   3.413  0.5043 -1.0903 -0.1253
 2078Sol     MW11354   2.179   1.614   3.377 -0.0003  0.2080 -0.3753
 2079Sol     OW11355   3.015   2.731   2.410  0.8485 -0.1121  0.4095
 2079Sol     HW11356   2.977   2.666   2.468  0.0525  0.4167  0.4829
 2079Sol     HW11357   2.963   2.810   2.424  1.4349  0.3729 -0.1082
 2079Sol     MW11358   3.007   2.732   2.416 -0.4198 -0.1714 -0.3024
 2080Sol     OW11359   2.949   0.537   5.986  0.3134 -0.0821  0.2613
 2080Sol     HW11360   2.888   0.605   6.015  1.8703  2.6214 -2.4792
 2080Sol     HW11361   2.916   0.510   5.901  1.3941 -0.5337 -0.0291
 2080Sol     MW11362   2.941   0.541   5.981 -0.0752  0.1151 -0.1122
 2081Sol     OW11363   1.525   2.108   7.639  0.1132  0.1164  0.3760
 2081Sol     HW11364   1.578   2.148   7.570  1.6170 -0.8270  0.9865
 2081Sol     HW11365   1.544   2.015   7.634  1.1136  0.1577  2.8012
 2081Sol     MW11366   1.531   2.103   7.632  0.5254 -0.0185  0.3379
 2082Sol     OW11367   0.798   2.830   7.456  0.4268  0.1554  0.0412
 2082Sol     HW11368   0.777   2.848   7.364 -0.3945 -2.7116 -0.3719
 2082Sol     HW11369   0.718   2.850   7.503  0.6622  1.0458  0.0810
 2082Sol     MW11370   0.789   2.834   7.452 -0.4328  0.3386 -0.7990
 2083Sol     OW11371   1.647   2.229   2.591 -0.0210  0.4366 -0.8809
 2083Sol     HW11372   1.686   2.299   2.541 -1.9472  2.5462  0.4503
 2083Sol     HW11373   1.553   2.247   2.589 -0.2537  0.1040  2.6533
 2083Sol     MW11374   1.642   2.237   2.587  0.1663 -0.4995  0.9160
 2084Sol     OW11375   1.349   2.742   1.899 -0.5350 -0.1446  0.2966
 2084Sol     HW11376   1.382   2.764   1.812 -0.6751 -0.6321  0.1186
 2084Sol     HW11377   1.397   2.664   1.924 -0.9140 -0.3419  0.4143
 2084Sol     MW11378   1.356   2.737   1.893 -0.6862 -0.3542 -0.0189
 2085Sol     OW11379   1.000   2.914   2.799  0.0528 -0.4330 -0.3161
 2085Sol     HW11380   0.953   2.894   2.718  0.3243 -0.9047 -0.3597
 2085Sol     HW11381   1.090   2.929   2.772 -0.1307  0.7831 -0.2689
 2085Sol     MW11382   1.004   2.913   2.790 -0.3496 -0.1958 -0.1913
 2086Sol     OW11383   0.042   2.420   6.121 -0.5126 -0.0794  0.0941
 2086Sol     HW11384   0.011   2.427   6.031 -0.6510 -2.2066 -0.0517
 2086Sol     HW11385  -0.022   2.364   6.164  0.3864 -0.3529  1.1057
 2086Sol     MW11386   0.034   2.416   6.117 -0.3546  0.1794  0.7336
 2087Sol     OW11387   1.857   0.806   5.432 -0.0225 -0.2278  0.1378
 2087Sol     HW11388   1.840   0.795   5.338 -0.4966  1.5059  0.0186
 2087Sol     HW11389   1.920   0.737   5.452 -0.0879 -0.7698 -1.4003
 2087Sol     MW11390   1.861   0.798   5.425  0.1320 -0.0289 -0.2623
 2088Sol     OW11391   2.918   0.501   4.458  0.0693 -0.3099  0.2764
 2088Sol     HW11392   2.947   0.411   4.470  2.2705  0.0325 -1.9513
 2088Sol     HW11393   2.952   0.525   4.372  1.2056  3.2775  1.6373
 2088Sol     MW11394   2.924   0.495   4.451 -0.5164  0.3810  0.0560
 2089Sol     OW11395   2.750   0.298   8.317  0.2221 -0.0683 -0.4558
 2089Sol     HW11396   2.688   0.251   8.262  0.6732  0.8659 -1.7973
 2089Sol     HW11397   2.832   0.248   8.308  0.1300 -0.2713 -0.1422
 2089Sol     MW11398   2.752   0.290   8.311  0.8294  0.2387 -1.1118
 2090Sol     OW11399   0.120   1.041   5.798 -0.4305  0.2204  0.1772
 2090Sol     HW11400   0.212   1.017   5.787  0.0725  1.1866  2.0414
 2090Sol     HW11401   0.083   0.970   5.851 -0.9060 -0.4482 -1.0376
 2090Sol     MW11402   0.125   1.032   5.802 -0.3686 -0.8673 -0.5313
 2091Sol     OW11403   1.771   2.118   4.030 -0.4754 -0.2599 -0.1728
 2091Sol     HW11404   1.777   2.180   3.957 -0.5633 -0.0121  0.0299
 2091Sol     HW11405   1.741   2.036   3.990 -0.2145 -0.2147 -0.4643
 2091Sol     MW11406   1.769   2.116   4.020 -0.1276  0.1826  0.2926
 2092Sol     OW11407   2.585   1.676   2.697  0.4343  0.2307 -0.9981
 2092Sol     HW11408   2.627   1.719   2.771  0.2914  0.7607 -1.2142
 2092Sol     HW11409   2.631   1.593   2.686  0.0285 -0.1443  0.0894
 2092Sol     MW11410   2.593   1.673   2.702 -0.5476  0.2516 -0.4447
 2093Sol     OW11411   0.352   0.971   5.715  0.2356 -0.4846 -0.4354
 2093Sol     HW11412   0.376   0.919   5.638 -0.0886  0.9954 -1.5563
 2093Sol     HW11413   0.415   1.042   5.717 -0.3893  0.0637  0.0776
 2093Sol     MW11414   0.360   0.973   5.708  0.3231 -0.4394  0.2636
 2094Sol     OW11415   0.574   1.246   6.874 -0.2060 -0.0763 -0.3414
 2094Sol     HW11416   0.585   1.152   6.864 -1.9694 -0.4943  1.5020
 2094Sol     HW11417   0.487   1.257   6.912  0.8212  2.1781  1.4755
 2094Sol     MW11418   0.568   1.239   6.876  0.9232  0.4183 -0.0524
 2095Sol     OW11419   3.564   0.151   2.669 -0.1313  0.8167  0.4669
 2095Sol     HW11420   3.506   0.123   2.598 -0.3762 -0.4127  1.1317
 2095Sol     HW11421   3.621   0.076   2.685  1.1803  1.7738  0.2947
 2095Sol     MW11422   3.564   0.142   2.664 -0.4103 -0.2576 -0.2737
 2096Sol     OW11423   0.150   1.886   4.585  0.3688  0.4123  0.6461
 2096Sol     HW11424   0.215   1.841   4.639  0.4092 -0.4297 -0.0994
 2096Sol     HW11425   0.113   1.818   4.529  0.1019  1.2188 -0.1775
 2096Sol     MW11426   0.152   1.876   4.585 -0.7476  0.1019  0.4986
 2097Sol     OW11427   0.607   1.677   4.708 -0.1505  0.3594 -0.2471
 2097Sol     HW11428   0.665   1.661   4.782  0.0305  0.9824 -0.2583
 2097Sol     HW11429   0.665   1.679   4.632 -0.3340 -0.2655 -0.4094
 2097Sol     MW11430   0.618   1.675   4.708  0.4892  0.3095  0.1349
 2098Sol     OW11431   2.678   1.838   4.882  0.1597 -0.6885  0.3750
 2098Sol     HW11432   2.662   1.930   4.902  0.6954  0.1022 -2.6783
 2098Sol     HW11433   2.725   1.839   4.799 -0.6978 -3.7764 -0.1963
 2098Sol     MW11434   2.681   1.846   4.876  0.1999  0.5290  0.3127
 2099Sol     OW11435   3.222   0.814   6.975 -0.0157  0.2209 -0.3593
 2099Sol     HW11436   3.286   0.883   6.993  1.2553 -1.0837  0.2223
 2099Sol     HW11437   3.137   0.859   6.977  0.7261  1.6197  0.7441
 2099Sol     MW11438   3.220   0.824   6.977 -0.9831  0.5620  0.5890
 2100Sol     OW11439   1.284   0.883   4.584  0.0843 -1.2105 -0.2793
 2100Sol     HW11440   1.267   0.850   4.496 -0.6184 -1.0741 -0.1978
 2100Sol     HW11441   1.199   0.882   4.627  0.4342 -1.3194  0.4178
 2100Sol     MW11442   1.275   0.880   4.580  0.4017  0.1033  0.1025
 2101Sol     OW11443   0.641   1.516   6.841 -0.1990 -0.4368  0.3283
 2101Sol     HW11444   0.666   1.506   6.749 -1.2513  0.1134 -0.0346
 2101Sol     HW11445   0.621   1.428   6.871  0.0424 -0.6046 -0.0087
 2101Sol     MW11446   0.641   1.507   6.835  0.5730  0.5563  0.4513
 2102Sol     OW11447   0.057   1.693   3.345 -0.2474 -0.2499  0.2449
 2102Sol     HW11448   0.011   1.776   3.359 -0.4727 -0.1492 -1.0574
 2102Sol     HW11449   0.149   1.718   3.335 -0.1857 -0.2505  0.8138
 2102Sol     MW11450   0.062   1.702   3.345  0.4786  0.2154 -0.1902
 2103Sol     OW11451   3.380   1.707   7.047  0.6361 -0.4144  0.2688
 2103Sol     HW11452   3.456   1.650   7.037  1.2440  0.2159  1.2929
 2103Sol     HW11453   3.337   1.676   7.127  0.3189 -0.1831  0.1876
 2103Sol     MW11454   3.383   1.699   7.053 -0.2353 -0.3007 -0.7599
 2104Sol     OW11455   0.251   3.072   2.117  0.3875  0.0030  0.0789
 2104Sol     HW11456   0.320   3.006   2.111  0.7045  0.3196  0.1837
 2104Sol     HW11457   0.230   3.093   2.026  1.1055  0.5958  0.0461
 2104Sol     MW11458   0.255   3.068   2.108 -0.1829  0.3963 -0.2267
 2105Sol     OW11459   1.314   3.375   3.643 -0.3784  0.5504  0.6842
 2105Sol     HW11460   1.405   3.400   3.660  0.6076 -2.7364  0.5643
 2105Sol     HW11461   1.301   3.295   3.694 -3.0275  0.6741  0.2557
 2105Sol     MW11462   1.321   3.370   3.649  0.2859 -0.0294  0.4180
 2106Sol     OW11463   2.213   2.164   4.454  0.2467 -0.4810  0.4005
 2106Sol     HW11464   2.137   2.219   4.475  0.7328 -0.1522  1.3614
 2106Sol     HW11465   2.257   2.152   4.538 -0.4652 -3.2956  0.4118
 2106Sol     MW11466   2.210   2.168   4.463 -0.0665  0.3013 -0.7253
 2107Sol     OW11467   2.436   3.220   7.850 -0.8043 -0.1795 -0.0135
 2107Sol     HW11468   2.393   3.140   7.882 -1.9277  0.0073 -1.0180
 2107Sol     HW11469   2.390   3.240   7.769  0.0927  0.9825 -0.2329
 2107Sol     MW11470   2.428   3.214   7.846  0.3695  0.3191  0.3707
 2108Sol     OW11471   0.560   2.170   7.204  0.4901  0.5022 -0.1367
 2108Sol     HW11472   0.591   2.171   7.295  0.3536  0.1666 -0.0840
 2108Sol     HW11473   0.600   2.093   7.166  0.8882  0.8791 -0.4879
 2108Sol     MW11474   0.566   2.163   7.209  0.0942  0.1863 -0.0135
 2109Sol     OW11475   3.258   1.890   5.731 -0.0557  0.3426 -0.2563
 2109Sol     HW11476   3.249   1.796   5.720 -1.6226  0.6161 -1.4560
 2109Sol     HW11477   3.293   1.901   5.820 -1.6745 -1.2863  0.6134
 2109Sol     MW11478   3.261   1.883   5.738 -0.0959  0.6478  0.3378
 2110Sol     OW11479   3.241   1.898   8.382 -0.4535  0.5533 -0.1273
 2110Sol     HW11480   3.242   1.816   8.433 -0.2347  0.2664 -0.5908
 2110Sol     HW11481   3.205   1.873   8.297 -0.3172  0.9250 -0.2950
 2110Sol     MW11482   3.238   1.888   8.379  0.9446  0.5530  0.1303
 2111Sol     OW11483   2.807   2.441   7.922 -0.0436  0.1062  0.4126
 2111Sol     HW11484   2.780   2.528   7.891 -1.7262 -0.5171  0.0854
 2111Sol     HW11485   2.898   2.432   7.892 -1.0668  0.1784 -2.9509
 2111Sol     MW11486   2.813   2.448   7.917  0.6154  0.8012  0.2043
 2112Sol     OW11487   1.038   1.261   2.069 -0.0131 -0.0539 -0.2227
 2112Sol     HW11488   1.071   1.348   2.049  1.5369  0.0125  2.4592
 2112Sol     HW11489   0.943   1.273   2.078  0.1018  1.2058 -0.5663
 2112Sol     MW11490   1.032   1.270   2.068 -0.4638  1.0450 -0.0178
 2113Sol     OW11491   3.156   1.473   2.987  0.1476  0.4297  0.0463
 2113Sol     HW11492   3.126   1.383   3.003  1.2980  0.2112  1.0590
 2113Sol     HW11493   3.092   1.509   2.925 -0.2621 -1.1216 -0.4565
 2113Sol     MW11494   3.147   1.468   2.983  0.1443 -0.4711 -0.6100
 2114Sol     OW11495   3.318   0.601   3.417  0.0044  0.0869  0.0716
 2114Sol     HW11496   3.391   0.661   3.430 -0.4116  0.3906  1.0646
 2114Sol     HW11497   3.346   0.545   3.344  0.8456  0.7753 -0.1495
 2114Sol     MW11498   3.327   0.602   3.411  0.3725  0.1526 -0.4435
 2115Sol     OW11499   2.185   2.113   1.833  0.8964  0.2302  0.1639
 2115Sol     HW11500   2.252   2.173   1.866  2.1616 -1.0863 -0.0146
 2115Sol     HW11501   2.162   2.058   1.909 -0.0824  0.7503  0.2588
 2115Sol     MW11502   2.189   2.114   1.843  0.7820  0.2879 -0.0387
 2116Sol     OW11503   2.366   2.773   8.214 -0.1133 -0.4459 -0.0955
 2116Sol     HW11504   2.290   2.770   8.156  0.1924 -1.9634 -0.4402
 2116Sol     HW11505   2.390   2.865   8.217 -0.2065 -0.3183 -2.3045
 2116Sol     MW11506   2.362   2.781   8.209 -0.1852  0.3007 -0.9649
 2117Sol     OW11507   1.975   1.360   2.083 -0.2207  0.5507 -0.2390
 2117Sol     HW11508   1.971   1.277   2.131  2.9010  1.3121  1.5159
 2117Sol     HW11509   1.885   1.391   2.080 -1.0537 -1.5513  1.5239
 2117Sol     MW11510   1.967   1.355   2.087  0.1700  0.3940  0.3128
 2118Sol     OW11511   0.752   0.194   4.394 -0.0081  0.0408 -0.1022
 2118Sol     HW11512   0.773   0.283   4.421 -2.1515  1.0279 -1.5553
 2118Sol     HW11513   0.660   0.182   4.419 -0.4645 -0.8841 -2.0739
 2118Sol     MW11514   0.746   0.201   4.399  0.6420  0.6998 -0.5590
 2119Sol     OW11515   2.589   1.118   7.342  0.0190  0.3757 -0.0630
 2119Sol     HW11516   2.672   1.161   7.362  1.7500 -1.8921 -1.9612
 2119Sol     HW11517   2.577   1.055   7.413  0.4184  0.0745 -0.2570
 2119Sol     MW11518   2.596   1.116   7.350 -0.4193 -0.5439  0.2806
 2120Sol     OW11519   0.034   2.946   8.019 -0.0275 -0.8723 -0.4111
 2120Sol     HW11520   0.051   2.856   8.048 -0.9456 -1.1049 -0.5724
 2120Sol     HW11521   0.010   2.992   8.100  0.0223 -0.8839 -0.3906
 2120Sol     MW11522   0.033   2.942   8.029 -0.5112  0.1875  0.0652
 2121Sol     OW11523   2.610   1.786   6.817  0.1029  0.4045 -0.2632
 2121Sol     HW11524   2.670   1.758   6.886 -1.2143  1.7388  1.4541
 2121Sol     HW11525   2.534   1.729   6.827  0.6770 -0.6878 -1.8771
 2121Sol     MW11526   2.609   1.778   6.824  0.0102 -0.0452 -0.0262
 2122Sol     OW11527   1.757   2.452   6.003 -0.2473 -0.4117  0.2234
 2122Sol     HW11528   1.843   2.458   5.962 -0.1757 -2.0739  0.0939
 2122Sol     HW11529   1.768   2.497   6.087  0.6271 -0.2237  0.0177
 2122Sol     MW11530   1.766   2.457   6.007  0.3425  0.1706 -0.0923
 2123Sol     OW11531   2.195   1.569   6.474  0.2994  0.0337  0.1268
 2123Sol     HW11532   2.161   1.552   6.386 -1.6457 -1.5822  1.1828
 2123Sol     HW11533   2.271   1.511   6.482  0.2332 -0.1157 -0.3204
 2123Sol     MW11534   2.199   1.563   6.467  0.0780 -0.4791  0.0679
 2124Sol     OW11535   3.303   1.763   1.662 -0.4272  0.0275  0.1218
 2124Sol     HW11536   3.265   1.843   1.699 -0.0473  1.1196 -1.7705
 2124Sol     HW11537   3.314   1.705   1.737 -1.5944  1.3888  1.3918
 2124Sol     MW11538   3.300   1.765   1.672 -0.4226  0.6675  0.1991
 2125Sol     OW11539   0.846   3.015   3.258 -0.2140  0.3441  0.3321
 2125Sol     HW11540   0.942   3.017   3.263 -0.2339  0.2917  0.7242
 2125Sol     HW11541   0.819   3.105   3.276 -0.1951  0.5563 -0.6871
 2125Sol     MW11542   0.852   3.023   3.260  0.0266  0.4686 -0.2362
 2126Sol     OW11543   1.059   0.241   6.397  0.4557 -0.1180 -0.0883
 2126Sol     HW11544   1.052   0.204   6.485  0.3173  1.5337  0.6143
 2126Sol     HW11545   1.141   0.207   6.363  1.7011  1.1306  1.6005
 2126Sol     MW11546   1.065   0.235   6.402 -0.1705 -0.1492 -0.2233
 2127Sol     OW11547   3.498   3.368   1.866  0.2775  0.0698  0.3910
 2127Sol     HW11548   3.514   3.460   1.886 -0.1625  0.2696 -0.1706
 2127Sol     HW11549   3.525   3.359   1.774 -0.5477 -0.1534  0.1715
 2127Sol     MW11550   3.502   3.375   1.859  0.3765  0.1135  0.1131
 2128Sol     OW11551   1.664   1.104   4.283  0.1614 -0.2105  0.1891
 2128Sol     HW11552   1.699   1.146   4.205 -0.2605  1.6009  0.9581
 2128Sol     HW11553   1.739   1.097   4.342  0.5113 -1.7019 -0.3930
 2128Sol     MW11554   1.674   1.107   4.281 -0.2015 -0.2658 -0.1464
 2129Sol     OW11555   1.296   0.066   6.872 -0.1150  0.1389  0.3305
 2129Sol     HW11556   1.256  -0.018   6.891  0.6352 -1.2660 -3.8113
 2129Sol     HW11557   1.390   0.051   6.882 -0.0727  1.0094  1.3527
 2129Sol     MW11558   1.301   0.057   6.875  0.6702  0.1593  0.3677
 2130Sol     OW11559   1.635   1.586   7.486  0.6885 -0.1478 -0.0573
 2130Sol     HW11560   1.641   1.596   7.581 -1.5207  1.2192 -0.0003
 2130Sol     HW11561   1.541   1.593   7.468  1.2977  2.6372 -2.6159
 2130Sol     MW11562   1.627   1.588   7.493 -0.9754  0.1404  0.4874
 2131Sol     OW11563   0.247   3.317   7.856 -0.8945  0.1268  0.2137
 2131Sol     HW11564   0.246   3.230   7.894  3.8831 -0.7430 -1.2699
 2131Sol     HW11565   0.176   3.317   7.792 -0.4626 -3.0158 -0.3338
 2131Sol     MW11566   0.241   3.309   7.853 -0.2303 -0.3602 -0.8860
 2132Sol     OW11567   1.183   0.398   3.715  0.0529  0.7344 -0.1254
 2132Sol     HW11568   1.184   0.493   3.707 -0.9374  0.9082  1.4920
 2132Sol     HW11569   1.264   0.377   3.762  0.3677  0.7611 -0.6569
 2132Sol     MW11570   1.190   0.404   3.718 -0.7134  0.0282 -0.2958
 2133Sol     OW11571   0.729   1.961   2.476 -0.3165  0.0196  0.2631
 2133Sol     HW11572   0.723   1.867   2.497 -1.5936  0.3843  1.6870
 2133Sol     HW11573   0.741   2.003   2.561 -0.9381  1.2289 -0.2378
 2133Sol     MW11574   0.729   1.956   2.486  0.2356  0.1340 -0.3332
 2134Sol     OW11575   2.193   0.642   2.067 -0.2298  0.4706 -0.3391
 2134Sol     HW11576   2.279   0.612   2.040 -1.0196  0.5710 -3.1129
 2134Sol     HW11577   2.153   0.566   2.109 -0.1671 -0.7575 -2.4043
 2134Sol     MW11578   2.197   0.633   2.068  0.2280 -0.1795 -0.1523
 2135Sol     OW11579   0.925   0.547   3.697  0.0845 -0.1292  0.0276
 2135Sol     HW11580   0.852   0.526   3.755 -0.6719 -0.7545 -1.1395
 2135Sol     HW11581   0.921   0.481   3.628  0.6245  0.9435 -1.0489
 2135Sol     MW11582   0.918   0.539   3.696 -0.5920 -0.2044 -0.6085
 2136Sol     OW11583   1.502   1.083   3.007  0.0941 -0.1392  0.1900
 2136Sol     HW11584   1.457   1.094   2.924 -0.5706  1.4940  0.7430
 2136Sol     HW11585   1.501   0.989   3.023 -0.8767 -0.3445 -1.0411
 2136Sol     MW11586   1.498   1.076   3.001  0.0227 -0.5525 -0.4740
 2137Sol     OW11587   1.763   0.235   6.293  0.3329  0.9952 -0.2267
 2137Sol     HW11588   1.803   0.248   6.380 -0.6515 -0.0640  0.3940
 2137Sol     HW11589   1.784   0.145   6.270 -1.8867  0.3392  0.2199
 2137Sol     MW11590   1.768   0.228   6.299 -0.2003 -0.3388 -0.1425
 2138Sol     OW11591   0.841   0.148   6.243  0.4810  0.4325 -0.4735
 2138Sol     HW11592   0.903   0.182   6.307 -1.0659  2.0229  0.2168
 2138Sol     HW11593   0.771   0.108   6.295  1.3151 -2.1460 -1.2530
 2138Sol     MW11594   0.840   0.147   6.253 -0.3066  0.0403  0.2077
 2139Sol     OW11595   2.971   3.400   2.567 -0.5515  0.3287 -0.3109
 2139Sol     HW11596   2.956   3.423   2.659  0.1804  0.6182 -0.2582
 2139Sol     HW11597   2.983   3.306   2.567 -0.5470  0.3291 -0.1110
 2139Sol     MW11598   2.971   3.394   2.576  0.5916 -0.7122  0.0045
 2140Sol     OW11599   2.211   2.003   2.240  0.4492 -0.2868  0.2280
 2140Sol     HW11600   2.218   1.961   2.154 -1.9906 -0.8766  0.2749
 2140Sol     HW11601   2.263   1.947   2.298  2.2872  0.2325 -0.8864
 2140Sol     MW11602   2.216   1.994   2.237 -0.3098  0.4547 -0.1401
 2141Sol     OW11603   3.507   0.022   2.274 -0.6412 -0.5245 -0.3261
 2141Sol     HW11604   3.463   0.042   2.357 -0.6779  0.6520 -0.6167
 2141Sol     HW11605   3.548  -0.063   2.289 -3.6201 -2.0466 -0.3032
 2141Sol     MW11606   3.507   0.016   2.283 -0.2573  0.0137 -0.2012
 2142Sol     OW11607   1.400   1.080   6.279  0.0093 -0.0274  0.3316
 2142Sol     HW11608   1.311   1.049   6.268 -0.4080  1.2158  0.1477
 2142Sol     HW11609   1.430   1.098   6.190  0.1999  0.2418  0.4500
 2142Sol     MW11610   1.395   1.079   6.270 -0.0489  0.4502  0.2314
 2143Sol     OW11611   1.567   2.683   5.357  0.0781 -0.1152 -0.4125
 2143Sol     HW11612   1.511   2.661   5.431 -0.6772  0.4915 -0.8109
 2143Sol     HW11613   1.579   2.777   5.362  1.8003 -0.3411  0.1879
 2143Sol     MW11614   1.563   2.689   5.364 -0.2509  0.3083  0.4134
 2144Sol     OW11615   0.251   1.300   4.740 -0.1933  0.0082 -0.0136
 2144Sol     HW11616   0.215   1.381   4.703 -0.0929  0.2916  0.5057
 2144Sol     HW11617   0.215   1.231   4.685 -1.9968  0.2467  0.8193
 2144Sol     MW11618   0.244   1.301   4.732 -0.5135  0.5896 -0.2525
 2145Sol     OW11619   0.649   2.601   6.043  0.2496  0.2271  0.6913
 2145Sol     HW11620   0.567   2.650   6.035  0.2678 -0.1468 -2.1237
 2145Sol     HW11621   0.717   2.669   6.046 -0.0519  0.4963  1.9309
 2145Sol     MW11622   0.648   2.612   6.043 -0.2000 -0.3171  0.3872
 2146Sol     OW11623   0.253   2.073   2.748 -0.3532 -0.1283  0.2090
 2146Sol     HW11624   0.255   2.155   2.698  0.8615  0.3647  1.0462
 2146Sol     HW11625   0.215   2.097   2.833 -1.0525 -0.6660  0.0544
 2146Sol     MW11626   0.250   2.083   2.751 -0.0567 -0.8832  0.8959
 2147Sol     OW11627   3.458   2.739   4.206  0.5998  0.3866  0.3447
 2147Sol     HW11628   3.468   2.650   4.170 -0.5448  0.2969  0.2332
 2147Sol     HW11629   3.398   2.782   4.145  0.6717  1.0467  0.7433
 2147Sol     MW11630   3.454   2.735   4.197 -0.6966 -0.4858 -0.6317
 2148Sol     OW11631   2.501   2.459   6.609  0.0301 -0.0829 -0.6835
 2148Sol     HW11632   2.572   2.394   6.608 -0.2314 -0.3690 -0.5307
 2148Sol     HW11633   2.499   2.492   6.698  0.1399  0.1102 -0.7532
 2148Sol     MW11634   2.507   2.456   6.617 -0.0298  0.2521  0.0426
 2149Sol     OW11635   2.291   2.139   6.015  0.5691 -0.1403 -0.1553
 2149Sol     HW11636   2.359   2.203   6.034 -0.6050  1.0786 -0.0065
 2149Sol     HW11637   2.235   2.140   6.092 -0.1712 -0.4269 -0.6852
 2149Sol     MW11638   2.292   2.145   6.023 -0.0476  0.1497 -0.7467
 2150Sol     OW11639   3.090   3.359   8.529 -0.1475  0.3402  0.2364
 2150Sol     HW11640   3.025   3.406   8.580 -0.4177  2.2806 -1.8065
 2150Sol     HW11641   3.040   3.314   8.461  0.5100  0.8544 -0.5998
 2150Sol     MW11642   3.080   3.360   8.528  0.1054  0.0779  0.2405
 2151Sol     OW11643   2.752   2.341   1.543  0.5608  0.0589 -0.2788
 2151Sol     HW11644   2.683   2.400   1.571 -0.3822  0.2259 -2.8284
 2151Sol     HW11645   2.790   2.308   1.624 -1.6300  0.9716  1.1526
 2151Sol     MW11646   2.750   2.343   1.552 -0.2294  0.6359  0.0200
 2152Sol     OW11647   1.350   2.183   4.111 -0.3032 -0.0628 -0.2245
 2152Sol     HW11648   1.365   2.088   4.110 -0.7819 -0.1392 -0.4354
 2152Sol     HW11649   1.295   2.198   4.188  1.9074  0.3869  1.2866
 2152Sol     MW11650   1.346   2.176   4.118  0.1635 -0.0227 -0.1256
 2153Sol     OW11651   2.972   1.885   1.992  0.0279 -0.4113 -0.4037
 2153Sol     HW11652   2.985   1.793   2.011 -1.5068 -0.8129 -1.2164
 2153Sol     HW11653   3.017   1.898   1.908 -0.2007 -0.5410 -0.5465
 2153Sol     MW11654   2.977   1.878   1.986  0.7863 -0.1226 -0.5595
 2154Sol     OW11655   3.278   2.654   7.246 -0.1639 -0.0762 -0.2059
 2154Sol     HW11656   3.189   2.643   7.212 -0.3047  1.1811 -0.2661
 2154Sol     HW11657   3.268   2.644   7.341 -0.1370 -1.3441 -0.3358
 2154Sol     MW11658   3.269   2.652   7.252  0.2710  0.3489 -0.2360
 2155Sol     OW11659   1.206   3.051   1.534  0.2254  0.2258  0.0327
 2155Sol     HW11660   1.205   2.983   1.466 -0.7324  2.1534 -1.9552
 2155Sol     HW11661   1.276   3.110   1.507 -1.9004  2.4501 -0.8007
 2155Sol     MW11662   1.212   3.050   1.525 -0.4717  0.2578  0.5358
 2156Sol     OW11663   2.945   1.548   3.570 -0.6152 -0.5015 -0.0399
 2156Sol     HW11664   2.904   1.508   3.646 -0.6699 -2.1549 -0.9082
 2156Sol     HW11665   2.872   1.579   3.516 -0.5834  0.4667  0.4746
 2156Sol     MW11666   2.935   1.547   3.572  0.5012  0.6163  0.1949
 2157Sol     OW11667   0.549   0.995   5.049  0.2358  0.5740  0.1037
 2157Sol     HW11668   0.529   1.060   4.981 -1.4734  0.9225  0.9153
 2157Sol     HW11669   0.523   0.912   5.010  0.3135  0.6392 -0.0897
 2157Sol     MW11670   0.545   0.994   5.039 -0.4185  0.3271  0.3234
 2158Sol     OW11671   3.522   1.382   4.475 -0.6909 -0.2240  0.1685
 2158Sol     HW11672   3.508   1.363   4.382  0.2877  0.4528 -0.1303
 2158Sol     HW11673   3.449   1.339   4.520 -1.3541 -0.2820 -0.9435
 2158Sol     MW11674   3.514   1.377   4.470 -0.2216  0.1728 -1.0862
 2159Sol     OW11675   2.550   0.689   2.844 -0.1956  0.0741 -0.1120
 2159Sol     HW11676   2.628   0.686   2.789  1.3275  0.4653  1.9687
 2159Sol     HW11677   2.496   0.759   2.806  1.3706  1.1423 -0.4188
 2159Sol     MW11678   2.552   0.695   2.835  0.4022  0.7363  0.2304
 2160Sol     OW11679   2.295   0.512   8.008 -0.2420 -0.4756 -0.0683
 2160Sol     HW11680   2.349   0.591   8.018  0.4257 -1.1820  2.2953
 2160Sol     HW11681   2.358   0.440   8.010 -0.9574 -1.1384 -0.9752
 2160Sol     MW11682   2.306   0.513   8.009 -0.3687  0.3660  0.8723
 2161Sol     OW11683   3.114   2.307   3.510  0.6646 -0.0660  0.3164
 2161Sol     HW11684   3.102   2.371   3.439 -0.6481 -1.6677 -0.9393
 2161Sol     HW11685   3.068   2.345   3.585  1.6857  1.4352  0.2052
 2161Sol     MW11686   3.109   2.316   3.510  0.2285 -0.4433 -0.5616
 2162Sol     OW11687   0.927   3.327   2.713  0.4337 -0.5080  0.1270
 2162Sol     HW11688   0.870   3.317   2.637 -0.8741 -0.7316  1.1225
 2162Sol     HW11689   1.009   3.286   2.687 -0.4791 -1.8749 -0.6604
 2162Sol     MW11690   0.929   3.322   2.704 -0.4506 -0.0313  0.5776
 2163Sol     OW11691   1.645   0.482   7.021 -0.2040 -0.1347  0.5716
 2163Sol     HW11692   1.589   0.525   6.957 -0.7370 -0.0649  1.0780
 2163Sol     HW11693   1.627   0.389   7.012  1.3889 -0.3247 -0.9408
 2163Sol     MW11694   1.639   0.478   7.015  0.0695  0.2864  0.4972
 2164Sol     OW11695   1.012   2.849   5.760 -0.0717  0.1694  0.2434
 2164Sol     HW11696   0.971   2.767   5.734 -0.0127  0.9055 -2.4016
 2164Sol     HW11697   0.939   2.910   5.771 -0.0841 -0.1061  1.7327
 2164Sol     MW11698   1.002   2.847   5.758  0.1850  0.0219  0.1401
 2165Sol     OW11699   3.001   3.134   2.609  0.5249  0.0158  0.1833
 2165Sol     HW11700   2.955   3.068   2.557 -0.3455  0.1689  0.7506
 2165Sol     HW11701   3.030   3.086   2.687  0.7065  0.0908  0.1614
 2165Sol     MW11702   2.999   3.123   2.611 -0.3769  0.0207  0.1898
 2166Sol     OW11703   1.590   2.841   8.164 -0.3231 -0.4537  0.2872
 2166Sol     HW11704   1.579   2.750   8.139  0.1120 -0.1390 -1.0792
 2166Sol     HW11705   1.602   2.888   8.081  0.0540  0.7571  1.0089
 2166Sol     MW11706   1.590   2.837   8.154 -0.2082  0.3483 -0.8252
 2167Sol     OW11707   2.364   1.664   2.543  0.4004 -0.0725  0.7806
 2167Sol     HW11708   2.333   1.579   2.574 -0.0631 -0.2360 -0.1251
 2167Sol     HW11709   2.444   1.679   2.592 -1.4302  0.6672  3.6872
 2167Sol     MW11710   2.368   1.658   2.550  0.2244 -0.3011 -0.1086
 2168Sol     OW11711   0.745   1.338   2.032  0.2400 -0.2938 -0.6391
 2168Sol     HW11712   0.677   1.311   1.969  0.8986 -0.2304 -1.3872
 2168Sol     HW11713   0.742   1.433   2.031 -0.1958 -0.2992 -0.0764
 2168Sol     MW11714   0.739   1.344   2.026 -0.1301 -0.8840  0.2431
 2169Sol     OW11715   1.713   2.789   6.636  0.2682 -0.0777 -0.4419
 2169Sol     HW11716   1.648   2.723   6.613 -1.7697  1.9450 -0.6713
 2169Sol     HW11717   1.677   2.832   6.713  2.4190 -0.3878  0.7596
 2169Sol     MW11718   1.704   2.787   6.641 -0.1165  0.1093  0.1452
 2170Sol     OW11719   1.119   2.462   8.027 -0.2099  0.3294  0.8787
 2170Sol     HW11720   1.137   2.376   7.990 -1.9119  0.2127  0.2672
 2170Sol     HW11721   1.156   2.524   7.964  0.3257  0.0600  0.9287
 2170Sol     MW11722   1.124   2.460   8.018 -0.1414  0.1761  0.2656
 2171Sol     OW11723   0.192   3.110   4.637 -0.4293 -0.4135 -0.5904
 2171Sol     HW11724   0.129   3.182   4.630  0.2371  0.2347 -0.0452
 2171Sol     HW11725   0.142   3.037   4.673 -0.7108  0.3139  0.5251
 2171Sol     MW11726   0.182   3.110   4.639  0.2187  0.9037  0.0558
 2172Sol     OW11727   1.033   1.625   6.156  0.3118  0.1307 -0.2159
 2172Sol     HW11728   0.995   1.712   6.158  0.8528  0.3558  0.3197
 2172Sol     HW11729   1.018   1.590   6.244  0.9291  0.0390 -0.1461
 2172Sol     MW11730   1.028   1.629   6.164  0.6446 -0.0739 -0.3790
 2173Sol     OW11731   0.334   0.667   3.000 -0.0143 -0.1915 -0.2370
 2173Sol     HW11732   0.316   0.759   3.019  0.2368 -0.1038 -0.4189
 2173Sol     HW11733   0.398   0.641   3.067 -0.4549 -0.3698  0.1155
 2173Sol     MW11734   0.338   0.673   3.008 -0.4729 -0.0164  0.0244
 2174Sol     OW11735   3.140   2.362   2.478  0.6357  0.4357 -0.0822
 2174Sol     HW11736   3.154   2.287   2.420  2.2354  0.4054  0.3110
 2174Sol     HW11737   3.203   2.349   2.549 -1.3904  0.3927  1.7693
 2174Sol     MW11738   3.147   2.354   2.479  0.5512 -0.0557  0.3435
 2175Sol     OW11739   2.807   2.067   5.763  0.1303  0.5464  0.2957
 2175Sol     HW11740   2.858   2.050   5.683 -0.1972  3.4844 -0.5793
 2175Sol     HW11741   2.717   2.046   5.739  0.5446 -2.4120  1.1443
 2175Sol     MW11742   2.804   2.063   5.754 -0.4755  0.2652 -0.1078
 2176Sol     OW11743   2.667   1.222   5.892 -0.7116  0.0254  0.9962
 2176Sol     HW11744   2.673   1.280   5.816 -0.9318  0.2005  1.1123
 2176Sol     HW11745   2.573   1.212   5.908 -0.6591  0.6528  1.7493
 2176Sol     MW11746   2.659   1.226   5.887  0.7929  0.1070  0.1855
 2177Sol     OW11747   0.933   2.817   7.868  0.5133  0.1347 -0.1517
 2177Sol     HW11748   0.843   2.825   7.837 -0.2981 -1.1327  1.8185
 2177Sol     HW11749   0.925   2.807   7.963  2.7232 -0.3135  0.0095
 2177Sol     MW11750   0.925   2.817   7.874 -0.4085 -0.5300  0.2422
 2178Sol     OW11751   0.646   1.897   7.701  0.1930  0.2756  0.7690
 2178Sol     HW11752   0.730   1.916   7.658 -0.1839 -1.6150 -0.8760
 2178Sol     HW11753   0.609   1.825   7.650 -0.9715 -1.0551  3.3797
 2178Sol     MW11754   0.650   1.892   7.693  0.0719  0.2619  0.2275
 2179Sol     OW11755   1.575   0.077   6.937  0.3044 -0.1467 -0.5448
 2179Sol     HW11756   1.614   0.146   6.992 -1.7586 -0.2124  1.0364
 2179Sol     HW11757   1.639   0.064   6.867  1.6419  1.9987  0.2234
 2179Sol     MW11758   1.585   0.082   6.936 -1.3390  0.6383  0.6736
 2180Sol     OW11759   2.736   1.271   4.905  0.0104 -0.0306  0.1941
 2180Sol     HW11760   2.684   1.333   4.957  0.1253  2.1090 -2.1263
 2180Sol     HW11761   2.823   1.310   4.903  0.5118 -1.1508  0.0598
 2180Sol     MW11762   2.739   1.280   4.910 -0.3639  0.5358 -0.9826
 2181Sol     OW11763   0.819   1.670   7.173 -0.8787  0.1696 -0.8747
 2181Sol     HW11764   0.730   1.638   7.189 -0.6643  0.6315  1.3633
 2181Sol     HW11765   0.832   1.739   7.238  1.4998 -0.6220 -0.4664
 2181Sol     MW11766   0.812   1.673   7.180 -0.1557 -0.0617 -0.5464
 2182Sol     OW11767   1.430   1.443   2.684 -0.0134  0.2994 -0.3793
 2182Sol     HW11768   1.344   1.483   2.694  0.4811  1.2079  0.2565
 2182Sol     HW11769   1.463   1.478   2.601  0.8400  2.0131  0.6691
 2182Sol     MW11770   1.426   1.449   2.677  0.4582 -0.2228  0.6577
 2183Sol     OW11771   3.571   1.869   6.281  0.5890  0.2465  0.0097
 2183Sol     HW11772   3.565   1.797   6.219 -0.0858 -0.6591  1.1085
 2183Sol     HW11773   3.481   1.902   6.289  0.2812 -0.9549  2.0001
 2183Sol     MW11774   3.562   1.865   6.277  0.5441  0.6638 -0.1530
 2184Sol     OW11775   3.492   0.821   2.364 -0.1307  0.1288 -0.2936
 2184Sol     HW11776   3.479   0.729   2.338  0.2524  0.1788 -0.6778
 2184Sol     HW11777   3.460   0.825   2.454  0.2944 -0.4985 -0.1049
 2184Sol     MW11778   3.488   0.813   2.369 -0.6606 -0.0609 -0.2953
 2185Sol     OW11779   3.478   1.188   7.896 -0.4147 -0.1677 -0.3555
 2185Sol     HW11780   3.424   1.252   7.942 -0.1816  0.2059 -0.6008
 2185Sol     HW11781   3.499   1.122   7.963  0.6677  0.8298  0.3277
 2185Sol     MW11782   3.475   1.188   7.906 -0.9362  0.2605 -0.1577
 2186Sol     OW11783   2.148   2.804   8.057 -0.2446  0.2319  0.7676
 2186Sol     HW11784   2.090   2.827   8.130 -2.5700 -0.1418 -0.8743
 2186Sol     HW11785   2.096   2.742   8.006  2.4583 -1.7206  0.3369
 2186Sol     MW11786   2.138   2.801   8.059  0.2270  0.1992 -0.1416
 2187Sol     OW11787   1.135   0.237   2.551  0.3832 -0.5308  0.0503
 2187Sol     HW11788   1.045   0.270   2.559  0.1936 -1.3096  1.2802
 2187Sol     HW11789   1.128   0.163   2.490  0.3324 -0.0973 -0.4756
 2187Sol     MW11790   1.126   0.233   2.546  0.2855 -0.0370  0.1897
 2188Sol     OW11791   0.094   2.886   4.749  0.1619 -0.1192 -0.6670
 2188Sol     HW11792   0.165   2.842   4.794  0.9623  0.8958 -0.9223
 2188Sol     HW11793   0.078   2.834   4.671  0.0314 -0.8389 -0.1580
 2188Sol     MW11794   0.099   2.878   4.746  0.1659 -0.7318  0.4038
 2189Sol     OW11795   2.600   1.554   4.765 -0.4521 -0.0474  0.3893
 2189Sol     HW11796   2.600   1.649   4.763 -1.1075 -0.0522 -0.2959
 2189Sol     HW11797   2.579   1.531   4.856  0.3993  0.4505  0.7177
 2189Sol     MW11798   2.598   1.560   4.773 -0.1825 -0.7547 -0.7055
 2190Sol     OW11799   2.827   0.850   8.527 -0.1869 -0.2455 -0.0498
 2190Sol     HW11800   2.846   0.761   8.496  1.4051  0.2614 -0.6120
 2190Sol     HW11801   2.792   0.895   8.449 -2.0485 -0.6753  0.5200
 2190Sol     MW11802   2.826   0.846   8.517  0.5400 -0.4977  0.6114
 2191Sol     OW11803   2.301   0.767   1.762 -0.0801 -0.0206 -0.3040
 2191Sol     HW11804   2.222   0.752   1.710  0.4787 -0.3460 -1.0777
 2191Sol     HW11805   2.309   0.689   1.817  0.0993 -0.3266 -0.7563
 2191Sol     MW11806   2.295   0.758   1.762  1.4032 -0.5136 -0.1196
 2192Sol     OW11807   2.656   1.383   1.805 -0.1496  0.2316  0.0266
 2192Sol     HW11808   2.735   1.384   1.752  1.1759  1.2167  1.9337
 2192Sol     HW11809   2.677   1.438   1.881 -1.6547 -1.7781  1.9872
 2192Sol     MW11810   2.665   1.388   1.807 -0.0546  0.2829 -0.7187
 2193Sol     OW11811   2.263   1.062   5.592 -0.1371 -0.3152  0.3097
 2193Sol     HW11812   2.325   0.991   5.571 -0.6764 -0.3929 -1.0223
 2193Sol     HW11813   2.198   1.020   5.649  0.4590 -0.4835  0.8766
 2193Sol     MW11814   2.263   1.052   5.596 -0.5343  0.1608  0.2897
 2194Sol     OW11815   1.148   2.640   7.807  0.2576  0.5312 -0.2679
 2194Sol     HW11816   1.083   2.703   7.840  0.7008 -0.3999  2.5581
 2194Sol     HW11817   1.098   2.563   7.784  0.0610  0.7994 -0.7453
 2194Sol     MW11818   1.138   2.639   7.808 -0.4643 -0.4763  0.8652
 2195Sol     OW11819   0.304   2.909   5.276 -0.3128  0.2834 -0.0627
 2195Sol     HW11820   0.330   2.990   5.232 -0.8698 -0.3783 -1.6591
 2195Sol     HW11821   0.226   2.880   5.228 -0.2357 -1.0882  0.6239
 2195Sol     MW11822   0.299   2.914   5.268  0.7671 -0.1676 -0.2925
 2196Sol     OW11823   2.017   3.034   3.193  0.7669 -0.6383  0.1481
 2196Sol     HW11824   1.958   3.109   3.192  0.2152 -1.0892 -0.9080
 2196Sol     HW11825   1.961   2.959   3.212  1.0650 -1.0170 -0.4631
 2196Sol     MW11826   2.007   3.034   3.195 -0.1199  0.0246  0.3819
 2197Sol     OW11827   3.323   2.242   8.230 -0.2380 -0.2411  0.9897
 2197Sol     HW11828   3.247   2.223   8.286 -1.5443 -1.3328 -1.0777
 2197Sol     HW11829   3.322   2.338   8.221 -1.6510 -0.2725  0.6225
 2197Sol     MW11830   3.316   2.249   8.234  0.1581 -0.8617 -0.0855
 2198Sol     OW11831   1.293   2.330   3.883  0.1183 -0.0054 -0.2137
 2198Sol     HW11832   1.341   2.278   3.947 -0.7136 -0.1702  0.2897
 2198Sol     HW11833   1.347   2.327   3.804  0.8546 -0.3043  0.3001
 2198Sol     MW11834   1.302   2.325   3.881 -1.2199 -0.1752  0.0871
 2199Sol     OW11835   2.678   0.030   3.903 -0.2361 -0.0936  0.0706
 2199Sol     HW11836   2.691   0.113   3.950  1.1899  0.0028 -0.4854
 2199Sol     HW11837   2.763  -0.013   3.906 -0.3442 -0.4697 -1.7050
 2199Sol     MW11838   2.687   0.034   3.908 -0.0118 -0.1795 -0.6819
 2200Sol     OW11839   1.355   2.410   8.220  0.0362 -0.3944 -0.7395
 2200Sol     HW11840   1.280   2.427   8.164 -0.4841 -0.9152 -0.2044
 2200Sol     HW11841   1.320   2.406   8.308  1.2084  2.8494 -0.0607
 2200Sol     MW11842   1.345   2.411   8.223  0.7339  0.0950  0.0475
 2201Sol     OW11843   2.175   2.033   6.244  0.2929 -0.3123  0.4731
 2201Sol     HW11844   2.209   1.971   6.309 -0.1700  0.0967  1.1025
 2201Sol     HW11845   2.132   1.977   6.179 -0.8886 -0.6058  1.4900
 2201Sol     MW11846   2.175   2.022   6.244  0.6255  0.3657  0.1125
 2202Sol     OW11847   2.230   3.287   7.647 -0.8425 -0.0578 -0.5378
 2202Sol     HW11848   2.168   3.229   7.691 -2.0939  1.7106  0.0608
 2202Sol     HW11849   2.179   3.364   7.623  0.6864  0.6093 -1.7615
 2202Sol     MW11850   2.220   3.288   7.649  0.0130  0.7221  0.2194
 2203Sol     OW11851   0.701   2.842   2.360  0.0807 -0.3983  0.3592
 2203Sol     HW11852   0.775   2.783   2.354  2.2570  2.0723  1.8216
 2203Sol     HW11853   0.728   2.921   2.313 -1.9431  0.2234  0.1752
 2203Sol     MW11854   0.710   2.844   2.356 -0.7403  0.1078 -0.1634
 2204Sol     OW11855   0.514   0.022   7.074 -0.0506 -0.0392  0.1176
 2204Sol     HW11856   0.549  -0.044   7.013  0.2768  1.4215 -1.3304
 2204Sol     HW11857   0.581   0.090   7.075 -0.4189  0.3163  1.5491
 2204Sol     MW11858   0.523   0.022   7.068 -0.4785  0.2309 -0.1316
 2205Sol     OW11859   2.678   2.735   7.455 -0.6008  0.0611  0.2976
 2205Sol     HW11860   2.643   2.657   7.498  0.3800 -0.6020 -0.0855
 2205Sol     HW11861   2.609   2.762   7.394 -1.0501 -0.3566  0.6196
 2205Sol     MW11862   2.669   2.730   7.453 -0.3262 -0.6428 -1.0954
 2206Sol     OW11863   2.260   1.370   2.864 -0.3266 -0.0413 -0.3205
 2206Sol     HW11864   2.230   1.383   2.953 -1.4874  0.4467 -0.7729
 2206Sol     HW11865   2.312   1.290   2.867  1.6116  1.2287  1.2576
 2206Sol     MW11866   2.262   1.364   2.872  0.0432 -0.3263  0.2507
 2207Sol     OW11867   0.467   0.301   4.234  1.2308  0.0159 -0.4749
 2207Sol     HW11868   0.450   0.213   4.267  3.2543  0.3561  1.5931
 2207Sol     HW11869   0.508   0.288   4.148  3.3161 -1.1504  0.6607
 2207Sol     MW11870   0.469   0.292   4.229 -1.0095  0.1415  0.8306
 2208Sol     OW11871   1.094   0.366   3.274  0.3259 -0.7683  0.0775
 2208Sol     HW11872   1.175   0.412   3.297  1.4443 -1.8495 -1.6099
 2208Sol     HW11873   1.085   0.300   3.343 -0.7699  1.2925  1.9640
 2208Sol     MW11874   1.101   0.364   3.282  0.1361 -0.8699  0.4661
 2209Sol     OW11875   0.415   2.623   3.991  0.2368 -0.0164  0.0021
 2209Sol     HW11876   0.370   2.654   3.912  0.6668 -0.1826 -0.3088
 2209Sol     HW11877   0.494   2.580   3.958  0.3186 -0.2553  0.5146
 2209Sol     MW11878   0.418   2.622   3.981 -0.1201  0.5494  0.1621
 2210Sol     OW11879   1.436   2.252   8.963 -0.1367  0.2082  0.4740
 2210Sol     HW11880   1.356   2.300   8.981  0.3296  0.5955  1.6080
 2210Sol     HW11881   1.501   2.319   8.942  0.2854  0.0163  1.1355
 2210Sol     MW11882   1.435   2.262   8.963 -0.5720  0.7338  0.2929
 2211Sol     OW11883   2.294   1.545   4.168 -0.1261 -0.2486 -0.6789
 2211Sol     HW11884   2.292   1.608   4.095  1.3116 -1.2413 -1.6044
 2211Sol     HW11885   2.328   1.596   4.242  1.0473  0.0763 -1.4255
 2211Sol     MW11886   2.297   1.556   4.168  0.3782 -1.1235  0.6104
 2212Sol     OW11887   2.251   1.794   8.209 -0.0229 -0.8947  0.3709
 2212Sol     HW11888   2.231   1.864   8.271 -1.2048 -0.8670 -0.0263
 2212Sol     HW11889   2.168   1.747   8.199 -0.3052  0.1514 -2.4916
 2212Sol     MW11890   2.242   1.796   8.214 -0.1027  0.1594 -0.7007
 2213Sol     OW11891   0.355   2.920   1.815  0.2983  0.4815  0.6087
 2213Sol     HW11892   0.403   2.993   1.855  0.7753  1.0633 -0.9911
 2213Sol     HW11893   0.343   2.858   1.887  1.5819  1.2725  1.5361
 2213Sol     MW11894   0.358   2.921   1.825  1.2154 -0.3298  0.0545
 2214Sol     OW11895   1.444   0.543   4.596 -0.0744 -0.1215 -0.0348
 2214Sol     HW11896   1.515   0.566   4.655  0.0206 -1.6765  0.4899
 2214Sol     HW11897   1.367   0.536   4.652 -0.2606 -0.2581 -0.3065
 2214Sol     MW11898   1.444   0.544   4.606 -0.2775  0.2471  0.3539
 2215Sol     OW11899   1.630   2.148   4.743 -0.0536 -0.1942  0.3293
 2215Sol     HW11900   1.601   2.066   4.783  1.3727 -0.6387  0.4875
 2215Sol     HW11901   1.569   2.163   4.672 -1.3105 -0.5398  1.3182
 2215Sol     MW11902   1.622   2.142   4.740  0.3904  0.3720 -0.1781
 2216Sol     OW11903   1.068   0.654   4.475 -0.4210 -0.2102 -0.7538
 2216Sol     HW11904   0.984   0.700   4.479 -1.0873 -1.3597 -1.2394
 2216Sol     HW11905   1.102   0.659   4.565  0.6562  3.2404 -1.2628
 2216Sol     MW11906   1.063   0.659   4.484 -0.3019  0.1021  0.1104
 2217Sol     OW11907   2.068   0.777   1.546 -0.3378 -0.1433 -0.4828
 2217Sol     HW11908   2.024   0.861   1.533 -1.7416 -0.8459 -0.3260
 2217Sol     HW11909   2.026   0.740   1.624 -0.2171 -1.3068 -0.9626
 2217Sol     MW11910   2.060   0.782   1.552  0.1911  0.0185 -0.6889
 2218Sol     OW11911   1.572   0.186   5.039  0.6551  0.1757 -0.4919
 2218Sol     HW11912   1.653   0.136   5.034 -0.4647 -1.6323 -1.1789
 2218Sol     HW11913   1.524   0.162   4.959 -0.7008  0.9731  0.0586
 2218Sol     MW11914   1.575   0.180   5.031 -0.6544 -0.2397 -0.3132
 2219Sol     OW11915   3.197   1.807   8.128 -0.6668  0.0440  0.1770
 2219Sol     HW11916   3.209   1.874   8.061  0.6631 -1.1413 -0.8105
 2219Sol     HW11917   3.103   1.787   8.124 -0.9391  1.3089 -0.0230
 2219Sol     MW11918   3.190   1.811   8.122  0.1928 -0.5286 -0.0103
 2220Sol     OW11919   2.779   1.380   1.142 -0.0876  0.1885 -0.0581
 2220Sol     HW11920   2.799   1.314   1.075  1.0631 -1.8647  2.2464
 2220Sol     HW11921   2.854   1.439   1.141 -1.6345  2.2465 -2.9330
 2220Sol     MW11922   2.787   1.379   1.136 -0.2148  0.0021  0.1005
 2221Sol     OW11923   0.885   0.642   1.694 -0.2302 -0.4960 -0.4443
 2221Sol     HW11924   0.960   0.602   1.650 -1.5164 -0.7215 -2.4765
 2221Sol     HW11925   0.890   0.735   1.672 -0.2260 -0.4169 -0.1104
 2221Sol     MW11926   0.892   0.647   1.688  0.5142 -0.6965 -0.2357
 2222Sol     OW11927   3.202   3.400   3.895 -0.3131  0.1557 -0.2265
 2222Sol     HW11928   3.233   3.329   3.951 -2.6820  0.1193  1.0667
 2222Sol     HW11929   3.253   3.390   3.815  1.4299 -1.2430  1.0064
 2222Sol     MW11930   3.209   3.393   3.893  0.1808  0.0817 -0.0963
 2223Sol     OW11931   0.607   1.331   7.369  0.0080 -0.7008  0.0846
 2223Sol     HW11932   0.674   1.263   7.370  0.8459  0.1147 -0.8201
 2223Sol     HW11933   0.603   1.362   7.459  3.0191  1.3737 -0.4440
 2223Sol     MW11934   0.612   1.328   7.377  0.2265  0.3635 -0.4675
 2224Sol     OW11935   0.985   0.033   5.792  0.1741  0.1558  0.3630
 2224Sol     HW11936   0.952   0.120   5.769  1.7796  0.8314  0.6041
 2224Sol     HW11937   0.993  -0.013   5.709 -2.0512 -0.2707  0.3536
 2224Sol     MW11938   0.982   0.037   5.783 -0.3086 -0.4993  0.0215
 2225Sol     OW11939   1.382   2.506   8.711 -0.1287  0.2384 -0.2676
 2225Sol     HW11940   1.413   2.570   8.647  0.3013 -0.3565 -0.6668
 2225Sol     HW11941   1.450   2.438   8.712 -1.1005 -0.7642 -0.6721
 2225Sol     MW11942   1.391   2.505   8.705 -0.4069 -0.1201  0.4258
 2226Sol     OW11943   0.293   0.655   7.320 -0.5038 -0.9045  0.7082
 2226Sol     HW11944   0.326   0.575   7.280  1.1113 -0.5231  1.2087
 2226Sol     HW11945   0.321   0.724   7.260  1.1634 -0.4110  2.0101
 2226Sol     MW11946   0.299   0.654   7.311 -0.9455 -0.2589  0.2698
 2227Sol     OW11947   1.870   0.778   7.832 -0.1495 -0.1992  0.7858
 2227Sol     HW11948   1.940   0.735   7.783 -0.5101  0.4138 -0.2775
 2227Sol     HW11949   1.890   0.871   7.827 -1.1889  0.0064  0.2349
 2227Sol     MW11950   1.878   0.782   7.827  0.7821  0.4461  0.1769
 2228Sol     OW11951   2.026   1.829   7.803  0.1090 -0.2781  0.7395
 2228Sol     HW11952   2.089   1.900   7.794 -0.5059 -0.1327 -3.1196
 2228Sol     HW11953   2.059   1.759   7.746 -1.5949 -1.3851  1.0539
 2228Sol     MW11954   2.035   1.829   7.798 -0.6063 -0.3540 -0.0397
 2229Sol     OW11955   1.765   1.096   2.942  0.3336  0.4144  0.4080
 2229Sol     HW11956   1.785   1.054   2.858  1.6923  0.3050  0.7819
 2229Sol     HW11957   1.671   1.114   2.937  0.2591 -0.2302 -0.8494
 2229Sol     MW11958   1.758   1.094   2.934  0.2582  0.8140  0.0678
 2230Sol     OW11959   1.386   0.690   3.021 -0.5667 -0.4880 -0.1647
 2230Sol     HW11960   1.350   0.709   3.108  0.4711  1.0179 -0.0595
 2230Sol     HW11961   1.335   0.615   2.991 -2.8868  0.7332  0.5612
 2230Sol     MW11962   1.378   0.685   3.026 -0.3792 -0.3173  0.0776
 2231Sol     OW11963   2.466   0.892   2.460 -0.0363  0.3425  0.2936
 2231Sol     HW11964   2.499   0.802   2.456  1.1658  0.8256 -0.6158
 2231Sol     HW11965   2.542   0.947   2.443 -1.3548  1.4660 -2.1602
 2231Sol     MW11966   2.475   0.889   2.458  0.1929  0.3663 -0.1017
 2232Sol     OW11967   1.336   1.332   4.173  1.1521 -0.5121  0.4004
 2232Sol     HW11968   1.345   1.326   4.078  0.4076  3.1984  0.0207
 2232Sol     HW11969   1.254   1.286   4.192  1.4217 -1.4718 -0.7053
 2232Sol     MW11970   1.329   1.327   4.166 -0.1214  0.3596 -0.1436
 2233Sol     OW11971   1.574   1.972   7.285  0.1071  0.0229  0.1302
 2233Sol     HW11972   1.668   1.960   7.278 -0.0953 -0.4597 -2.2903
 2233Sol     HW11973   1.538   1.922   7.211 -1.8108  2.8405 -0.9371
 2233Sol     MW11974   1.579   1.966   7.277 -0.0560  0.4132 -0.2576
 2234Sol     OW11975   2.965   2.753   6.608  0.8103 -0.0518 -0.0457
 2234Sol     HW11976   2.986   2.832   6.558 -0.6717 -0.0505 -0.6733
 2234Sol     HW11977   2.870   2.753   6.616  0.8552 -1.3195  0.7073
 2234Sol     MW11978   2.958   2.760   6.604 -0.3464  0.0032  0.0315
 2235Sol     OW11979   3.349   1.843   2.845  0.1237 -0.2154 -0.2752
 2235Sol     HW11980   3.428   1.894   2.826  0.0663  0.8263  2.1040
 2235Sol     HW11981   3.380   1.754   2.860  0.7111 -0.0305 -0.4016
 2235Sol     MW11982   3.359   1.840   2.845  0.1757 -0.3591  0.1999
 2236Sol     OW11983   1.320   3.168   5.248  0.0067  0.2987 -0.1543
 2236Sol     HW11984   1.413   3.183   5.263  0.3424 -0.9235 -0.9050
 2236Sol     HW11985   1.316   3.126   5.162 -1.1170 -0.9136  0.4711
 2236Sol     MW11986   1.328   3.165   5.242  0.3912 -0.9068 -0.1405
 2237Sol     OW11987   0.900   0.219   1.865 -0.2399  0.0097  0.2113
 2237Sol     HW11988   0.959   0.183   1.931 -1.3255  0.6402  1.5579
 2237Sol     HW11989   0.884   0.309   1.895 -0.7778  0.2846 -0.8912
 2237Sol     MW11990   0.904   0.224   1.874 -0.1818 -0.0281 -0.4358
 2238Sol     OW11991   0.653   2.783   7.883 -0.4363 -0.1800  0.4219
 2238Sol     HW11992   0.637   2.842   7.956 -0.9531  2.0674 -1.4256
 2238Sol     HW11993   0.597   2.816   7.813  0.8137 -1.6330 -1.3184
 2238Sol     MW11994   0.647   2.791   7.883 -0.0579  0.9870  0.3842
 2239Sol     OW11995   1.967   0.859   4.777  0.3471  0.0591  0.0027
 2239Sol     HW11996   1.885   0.907   4.765  0.2121 -0.1234  0.2023
 2239Sol     HW11997   1.949   0.798   4.848  0.8480  0.4561  0.4774
 2239Sol     MW11998   1.958   0.858   4.783 -0.1689 -0.3322  0.1060
 2240Sol     OW11999   0.077   1.362   1.517 -0.0443  0.2515  0.0628
 2240Sol     HW12000   0.130   1.440   1.499  0.4177 -0.0209  0.2471
 2240Sol     HW12001  -0.005   1.377   1.469  0.6507  0.1502 -1.1538
 2240Sol     MW12002   0.074   1.370   1.511  0.3389  0.3233  0.1560
 2241Sol     OW12003   1.533   0.275   6.625 -0.3123  0.8395  0.0366
 2241Sol     HW12004   1.482   0.329   6.565 -1.5378 -1.3339 -0.9220
 2241Sol     HW12005   1.487   0.283   6.709 -0.5722  1.1701 -0.1349
 2241Sol     MW12006   1.524   0.281   6.628 -0.2420 -0.5407  0.6834
 2242Sol     OW12007   1.005   0.345   3.932  0.3757 -0.3301 -0.7853
 2242Sol     HW12008   1.042   0.372   3.847 -3.8903  0.9385 -2.3937
 2242Sol     HW12009   0.938   0.411   3.950 -1.0814 -2.4858  1.9362
 2242Sol     MW12010   1.002   0.353   3.926 -0.1833 -0.0311  0.4412
 2243Sol     OW12011   0.184   1.373   1.902 -0.7982  0.0907  0.6238
 2243Sol     HW12012   0.145   1.459   1.889 -2.2016 -0.5751  0.4026
 2243Sol     HW12013   0.134   1.314   1.846  0.8387 -0.7048 -0.0476
 2243Sol     MW12014   0.176   1.376   1.896  0.4611 -0.4458  0.0130
 2244Sol     OW12015   3.157   0.650   3.758 -0.3029  0.3038  0.1171
 2244Sol     HW12016   3.234   0.693   3.722 -0.4511 -0.4576 -1.1517
 2244Sol     HW12017   3.191   0.574   3.806 -0.2726 -0.1827 -0.6661
 2244Sol     MW12018   3.167   0.647   3.759  0.5458 -0.6538  0.2078
 2245Sol     OW12019   2.531   2.733   5.938 -0.6199 -0.4496 -0.3981
 2245Sol     HW12020   2.553   2.759   5.849  0.4881  0.6583  0.1930
 2245Sol     HW12021   2.615   2.724   5.982 -1.2218  0.8115  1.0380
 2245Sol     MW12022   2.540   2.734   5.934  0.7989  0.0280 -0.8926
 2246Sol     OW12023   3.006   1.276   4.145  0.4617  0.3224 -0.2252
 2246Sol     HW12024   2.975   1.292   4.234 -0.0639 -2.2610  0.1137
 2246Sol     HW12025   3.089   1.229   4.157 -0.3451 -1.3579 -1.0683
 2246Sol     MW12026   3.011   1.273   4.154  0.4127  0.4603  0.6681
 2247Sol     OW12027   3.071   1.408   3.903 -0.3954  0.0882 -0.4790
 2247Sol     HW12028   3.090   1.320   3.869 -2.9470 -0.1745 -1.3106
 2247Sol     HW12029   3.051   1.394   3.995 -0.4775 -0.1477 -0.5331
 2247Sol     MW12030   3.071   1.399   3.908 -0.0523  0.0798 -0.2481
 2248Sol     OW12031   3.542   2.987   2.904  0.2110 -0.4274 -0.3248
 2248Sol     HW12032   3.532   3.013   2.812 -1.8479  0.1922  0.0517
 2248Sol     HW12033   3.633   3.008   2.925  0.3267  0.6620 -1.8440
 2248Sol     MW12034   3.549   2.991   2.898 -0.4387  0.2004 -0.0942
 2249Sol     OW12035   2.979   0.803   4.584 -0.4851 -0.2597  0.0253
 2249Sol     HW12036   3.026   0.789   4.667 -0.0912  0.2468 -0.1105
 2249Sol     HW12037   2.935   0.720   4.567 -1.1655 -0.1322  1.1241
 2249Sol     MW12038   2.979   0.794   4.590 -0.1215  0.7844 -0.2570
 2250Sol     OW12039   0.245   1.754   5.327  0.1418 -0.1966  0.1362
 2250Sol     HW12040   0.252   1.779   5.419  1.4533 -1.6244  0.4466
 2250Sol     HW12041   0.221   1.661   5.329 -2.0611  0.3130 -0.9774
 2250Sol     MW12042   0.243   1.748   5.335 -0.1474 -0.3798  0.0436
 2251Sol     OW12043   3.512   0.013   7.980 -0.2888 -0.6606 -0.2908
 2251Sol     HW12044   3.565  -0.000   8.058 -0.9910 -0.1645  0.2773
 2251Sol     HW12045   3.421   0.012   8.011 -0.5471  0.3769 -0.9643
 2251Sol     MW12046   3.508   0.012   7.990 -0.0692  0.3955  0.7003
 2252Sol     OW12047   3.316   1.548   8.156  0.0755  0.0191  0.3828
 2252Sol     HW12048   3.410   1.535   8.163 -0.0017 -0.5349  0.4555
 2252Sol     HW12049   3.304   1.643   8.157  0.6036  0.0849  0.7562
 2252Sol     MW12050   3.323   1.555   8.157 -0.4833  0.3546 -0.2837
 2253Sol     OW12051   2.649   1.340   7.637  0.3350 -0.2135 -0.2778
 2253Sol     HW12052   2.633   1.433   7.646 -0.5320 -0.5307  1.6848
 2253Sol     HW12053   2.568   1.305   7.600 -0.9960 -0.7637  2.9542
 2253Sol     MW12054   2.640   1.345   7.635  0.2435  0.4352 -0.3676
 2254Sol     OW12055   1.079   2.616   2.870 -0.3978  0.7626  0.4009
 2254Sol     HW12056   1.052   2.689   2.926 -0.3974  0.7496  0.4179
 2254Sol     HW12057   1.067   2.650   2.781  0.0010  0.9272  0.4100
 2254Sol     MW12058   1.075   2.626   2.867  0.0336  0.0336  0.4804
 2255Sol     OW12059   3.340   2.572   4.950  0.4670  0.3689 -0.0538
 2255Sol     HW12060   3.257   2.552   4.906  1.4011  2.3535 -2.8157
 2255Sol     HW12061   3.386   2.488   4.952 -0.6363 -0.2655 -0.5847
 2255Sol     MW12062   3.336   2.562   4.946  0.2734 -0.4049  0.7490
 2256Sol     OW12063   2.430   2.481   3.760 -0.2571 -0.0914  0.0865
 2256Sol     HW12064   2.388   2.474   3.674 -1.4602 -0.8273  0.7134
 2256Sol     HW12065   2.360   2.461   3.822  0.8260 -0.4910  1.2003
 2256Sol     MW12066   2.420   2.478   3.758  0.5166  0.1361 -0.1246
 2257Sol     OW12067   3.351   1.856   3.173 -0.3640  0.3867 -0.5863
 2257Sol     HW12068   3.284   1.849   3.105 -1.3091 -0.3398  0.4020
 2257Sol     HW12069   3.383   1.766   3.183  0.2964  0.6217 -0.5919
 2257Sol     MW12070   3.348   1.847   3.168  0.1869 -0.0364 -0.9104
 2258Sol     OW12071   1.605   1.132   7.172 -0.5337  0.0228 -1.2835
 2258Sol     HW12072   1.693   1.094   7.170 -0.7971 -0.6384 -0.4715
 2258Sol     HW12073   1.604   1.194   7.099  0.5070 -0.1875 -1.4812
 2258Sol     MW12074   1.613   1.134   7.165 -0.6309  0.5767 -0.1303
 2259Sol     OW12075   2.997   2.799   2.913 -0.0890  0.2400  0.0403
 2259Sol     HW12076   3.047   2.880   2.904  0.4252 -0.0932 -0.1589
 2259Sol     HW12077   3.000   2.780   3.007 -0.0129  0.3288  0.0561
 2259Sol     MW12078   3.002   2.804   2.921  0.7670  0.1852 -0.0768
 2260Sol     OW12079   1.845   3.230   7.586  0.0294 -0.2824  0.5495
 2260Sol     HW12080   1.899   3.308   7.575 -0.0724 -0.4214 -1.1636
 2260Sol     HW12081   1.907   3.162   7.614  0.5500 -0.1361 -0.2058
 2260Sol     MW12082   1.856   3.231   7.587 -0.4773 -0.2723 -0.3378
 2261Sol     OW12083   2.407   0.671   7.717 -0.5105 -0.4466 -0.1280
 2261Sol     HW12084   2.407   0.641   7.626  1.7051 -1.1480  0.0795
 2261Sol     HW12085   2.466   0.610   7.763 -0.1329  1.0229  1.3920
 2261Sol     MW12086   2.412   0.663   7.713  0.1612 -0.1355 -0.6121
 2262Sol     OW12087   2.944   0.592   3.075  0.1693 -0.0400 -0.4918
 2262Sol     HW12088   2.976   0.582   2.985 -1.3484 -0.2444 -1.0244
 2262Sol     HW12089   2.982   0.674   3.104 -0.1522  0.5482 -1.6881
 2262Sol     MW12090   2.950   0.598   3.069  0.4059  0.1706  0.2560
 2263Sol     OW12091   3.464   2.220   4.683  0.2443 -0.1203 -0.1111
 2263Sol     HW12092   3.395   2.246   4.622  0.8991 -1.5027 -1.4575
 2263Sol     HW12093   3.545   2.236   4.636  0.8106  0.1820  0.9547
 2263Sol     MW12094   3.465   2.224   4.673  0.6601  0.2307 -0.0520
 2264Sol     OW12095   3.012   1.284   6.671  0.9532  0.1543  0.2773
 2264Sol     HW12096   2.924   1.317   6.652  0.0315 -0.3083  3.4124
 2264Sol     HW12097   3.070   1.357   6.652 -0.5687  1.9806  2.4081
 2264Sol     MW12098   3.009   1.293   6.667  0.3815  0.0445  0.4575
 2265Sol     OW12099   3.544   2.803   5.960 -0.0596 -0.0218 -0.3755
 2265Sol     HW12100   3.509   2.820   6.047  1.4982 -2.0902  0.7015
 2265Sol     HW12101   3.627   2.849   5.958  0.5417 -1.0813 -0.2535
 2265Sol     MW12102   3.548   2.809   5.967 -0.7447 -0.3359 -0.2733
 2266Sol     OW12103   1.104   2.267   7.494 -0.8719  0.6585  0.2260
 2266Sol     HW12104   1.175   2.203   7.496 -1.6942 -0.2153  2.0870
 2266Sol     HW12105   1.147   2.349   7.469  0.2405 -0.5172 -1.8776
 2266Sol     MW12106   1.114   2.269   7.492  0.2815  0.6797 -0.3402
 2267Sol     OW12107   1.054   0.716   7.136 -0.7490  0.1377 -0.2094
 2267Sol     HW12108   1.145   0.705   7.109 -0.8240  1.7166 -1.1375
 2267Sol     HW12109   1.059   0.747   7.226 -0.3039  1.7758 -0.7749
 2267Sol     MW12110   1.062   0.718   7.141 -0.5297 -0.7787 -0.0770
 2268Sol     OW12111   0.129   0.516   2.583 -0.2305 -0.2341 -1.0282
 2268Sol     HW12112   0.135   0.608   2.609  3.6036 -1.0780  1.4067
 2268Sol     HW12113   0.054   0.483   2.632  0.4090  0.8184  0.7317
 2268Sol     MW12114   0.123   0.522   2.589 -0.2888  0.5535 -0.5906
 2269Sol     OW12115   2.458   1.400   6.332  0.1667 -0.5518  0.0304
 2269Sol     HW12116   2.512   1.448   6.394  1.0411  0.8841 -1.7932
 2269Sol     HW12117   2.431   1.466   6.268 -2.9590 -1.4392  0.3503
 2269Sol     MW12118   2.461   1.410   6.332 -0.0023 -0.1063  0.4096
 2270Sol     OW12119   2.911   0.112   2.815  0.8211 -0.1251  0.0913
 2270Sol     HW12120   2.974   0.173   2.853  0.5290  0.0396  0.3074
 2270Sol     HW12121   2.829   0.161   2.813 -0.0313 -1.4006  2.6636
 2270Sol     MW12122   2.909   0.122   2.818  0.6286 -0.3248  0.3042
 2271Sol     OW12123   0.040   1.517   8.179  0.0254  0.4151 -0.0491
 2271Sol     HW12124   0.086   1.493   8.260  0.1989 -0.0466 -0.2805
 2271Sol     HW12125   0.098   1.487   8.109  0.0870  1.2270 -0.3442
 2271Sol     MW12126   0.049   1.512   8.180  0.8943  0.1702  0.3955
 2272Sol     OW12127   3.106   2.450   3.225 -0.0795  0.3291 -0.1021
 2272Sol     HW12128   3.181   2.505   3.249  0.0297  0.0017  0.3352
 2272Sol     HW12129   3.043   2.510   3.185  0.5668  0.5472 -0.8075
 2272Sol     MW12130   3.107   2.460   3.224 -0.3166  0.0303 -0.9607
 2273Sol     OW12131   3.381   2.860   7.781  0.4235  0.5436 -0.3828
 2273Sol     HW12132   3.288   2.846   7.761 -0.0872 -0.6064  2.5953
 2273Sol     HW12133   3.393   2.954   7.772 -0.8355  0.6089 -1.5885
 2273Sol     MW12134   3.373   2.867   7.778  0.0494 -0.6064  0.0959
 2274Sol     OW12135   0.548   3.044   7.088 -0.3631 -0.3398  0.9031
 2274Sol     HW12136   0.556   3.116   7.026  0.8035 -0.0834  1.3341
 2274Sol     HW12137   0.486   2.984   7.047  2.4483 -1.5225 -1.8846
 2274Sol     MW12138   0.543   3.045   7.078  0.8539 -0.2435 -0.0754
 2275Sol     OW12139   3.114   0.379   6.422  0.1052  0.2239 -0.2196
 2275Sol     HW12140   3.081   0.361   6.333 -0.9290  0.2098  0.1594
 2275Sol     HW12141   3.047   0.341   6.480  1.3175 -0.7378  0.5718
 2275Sol     MW12142   3.105   0.374   6.419 -0.3237 -0.2942  0.3251
 2276Sol     OW12143   2.833   2.948   7.534 -0.3376 -0.1416 -0.3740
 2276Sol     HW12144   2.785   2.865   7.532 -1.5935  0.5403  0.7404
 2276Sol     HW12145   2.766   3.014   7.549  0.7324  1.0149 -0.6343
 2276Sol     MW12146   2.823   2.946   7.535  0.2280  0.2098  0.1683
 2277Sol     OW12147   1.786   1.733   7.327  0.0396 -0.4406 -0.5580
 2277Sol     HW12148   1.872   1.700   7.351  0.1569  1.9970  2.7243
 2277Sol     HW12149   1.725   1.674   7.371  0.1071 -0.3740 -0.3733
 2277Sol     MW12150   1.788   1.725   7.334 -0.0135 -0.0848 -0.4721
 2278Sol     OW12151   1.112   2.962   2.371  0.1454 -0.4695 -0.3701
 2278Sol     HW12152   1.024   3.000   2.361 -0.7727 -1.4811  3.1069
 2278Sol     HW12153   1.111   2.885   2.315  0.3606  1.8167 -3.6999
 2278Sol     MW12154   1.104   2.959   2.365 -0.1568 -0.1418  0.6247
 2279Sol     OW12155   2.923   0.371   3.984 -0.0974  0.4312  0.0860
 2279Sol     HW12156   3.005   0.323   3.999 -1.2096 -1.6932 -0.3907
 2279Sol     HW12157   2.922   0.386   3.889  0.7378  2.3404  0.3664
 2279Sol     MW12158   2.930   0.368   3.977 -0.9008 -0.0615 -0.4809
 2280Sol     OW12159   2.003   1.288   2.504 -0.3879  0.1831 -0.0564
 2280Sol     HW12160   2.077   1.343   2.476 -0.5896  0.0009 -0.9555
 2280Sol     HW12161   2.014   1.281   2.599 -0.4695  1.9358  0.0992
 2280Sol     MW12162   2.011   1.293   2.510  0.2922 -0.2045 -0.5569
 2281Sol     OW12163   1.780   3.249   1.499  0.0789  0.3612  0.0837
 2281Sol     HW12164   1.690   3.216   1.501  0.2789 -0.3029 -1.3089
 2281Sol     HW12165   1.833   3.175   1.531  0.1095  0.8708  1.2453
 2281Sol     MW12166   1.777   3.239   1.502  0.8366  0.0345 -0.1963
 2282Sol     OW12167   0.447   1.510   4.557 -0.0489  0.1255  0.4657
 2282Sol     HW12168   0.499   1.562   4.617  0.2959 -0.8468  1.0126
 2282Sol     HW12169   0.357   1.517   4.591 -0.1416  1.0103  0.0710
 2282Sol     MW12170   0.443   1.515   4.565  0.9497  0.0284  0.0866
 2283Sol     OW12171   2.805   2.083   6.681  0.1942 -0.0459  0.0092
 2283Sol     HW12172   2.834   2.035   6.604 -0.1546  0.4380 -0.4304
 2283Sol     HW12173   2.885   2.096   6.732  0.0677 -2.2820  0.8142
 2283Sol     MW12174   2.815   2.080   6.678  0.1768 -0.6111 -0.3885
 2284Sol     OW12175   3.501   3.090   8.245  0.6654 -0.1691 -0.6914
 2284Sol     HW12176   3.472   3.067   8.333  0.8289 -1.7895 -1.0513
 2284Sol     HW12177   3.522   3.184   8.250 -1.1682  0.1918  0.4804
 2284Sol     MW12178   3.501   3.096   8.253 -0.2608  0.3879 -0.4906
 2285Sol     OW12179   1.980   0.458   3.282 -0.3429  0.3007 -0.1630
 2285Sol     HW12180   1.980   0.423   3.193  0.4977 -0.1519  0.0080
 2285Sol     HW12181   1.914   0.406   3.328 -1.6050  1.3019 -0.8025
 2285Sol     MW12182   1.974   0.450   3.278 -0.5604  0.2508 -0.0480
 2286Sol     OW12183   0.160   1.188   6.331  0.1303  0.1289  0.4175
 2286Sol     HW12184   0.100   1.125   6.371 -0.2319  0.0877 -0.1814
 2286Sol     HW12185   0.233   1.134   6.299 -0.9901 -0.2340 -1.6468
 2286Sol     MW12186   0.161   1.177   6.331 -0.3242  0.2245 -0.1768
 2287Sol     OW12187   3.341   1.560   6.802 -0.0932 -0.1068 -0.0129
 2287Sol     HW12188   3.368   1.640   6.758 -0.4893 -0.2723 -0.5743
 2287Sol     HW12189   3.336   1.583   6.894 -0.1082  0.4855 -0.1602
 2287Sol     MW12190   3.343   1.569   6.806  0.3852 -0.2782  0.3844
 2288Sol     OW12191   3.520   1.671   5.107  0.1394  0.0203 -0.3849
 2288Sol     HW12192   3.575   1.603   5.067  0.1807  0.2796 -0.7794
 2288Sol     HW12193   3.492   1.634   5.190 -1.7921 -1.4390 -1.6499
 2288Sol     MW12194   3.523   1.662   5.111 -0.5333 -0.3487 -0.2057
 2289Sol     OW12195   1.038   1.982   7.040 -0.5365  0.2940  0.3976
 2289Sol     HW12196   1.054   1.891   7.014  0.8103  0.8142 -0.6297
 2289Sol     HW12197   1.088   1.992   7.121 -0.2831  0.2608  0.2461
 2289Sol     MW12198   1.044   1.974   7.045  0.0302 -0.1799 -0.0232
 2290Sol     OW12199   1.843   1.058   5.149 -0.3181 -0.4178 -0.0645
 2290Sol     HW12200   1.763   1.074   5.199 -0.6080  0.2864 -0.7425
 2290Sol     HW12201   1.851   0.963   5.147  1.4035 -0.4521  3.9873
 2290Sol     MW12202   1.837   1.051   5.153  0.0672  0.5245 -0.2573
 2291Sol     OW12203   0.741   0.189   5.661 -0.0416  0.1406  1.2106
 2291Sol     HW12204   0.799   0.208   5.736  1.7878 -2.8067  0.6335
 2291Sol     HW12205   0.697   0.108   5.686  0.3969 -0.7275 -0.7848
 2291Sol     MW12206   0.742   0.184   5.670 -0.2696  0.3083 -0.0635
 2292Sol     OW12207   3.017   1.726   7.716  0.4777 -0.4354 -0.6930
 2292Sol     HW12208   3.068   1.800   7.684  1.1234 -1.1534 -1.3297
 2292Sol     HW12209   3.082   1.661   7.742 -0.0775 -0.6571  0.1879
 2292Sol     MW12210   3.027   1.727   7.716  0.6223  0.1363 -0.4367
 2293Sol     OW12211   0.320   2.191   1.636 -0.7864  0.1366  0.3529
 2293Sol     HW12212   0.327   2.111   1.584 -1.8679  1.3178 -1.6744
 2293Sol     HW12213   0.339   2.163   1.726 -0.5027 -2.2507 -0.4119
 2293Sol     MW12214   0.323   2.181   1.640  0.0573  0.7301 -0.2290
 2294Sol     OW12215   3.546   2.999   5.618  0.0302 -0.3326 -0.0654
 2294Sol     HW12216   3.497   3.015   5.699  1.4509  1.4729  0.4760
 2294Sol     HW12217   3.625   3.052   5.627  1.1543 -1.6791 -1.7841
 2294Sol     MW12218   3.549   3.005   5.626  0.0153 -0.3557 -0.3830
 2295Sol     OW12219   3.011   1.927   5.216 -0.3811  0.1349  1.0501
 2295Sol     HW12220   3.049   1.933   5.304 -0.7359 -2.1516  1.4036
 2295Sol     HW12221   3.086   1.906   5.159 -0.0876  1.9983  0.7313
 2295Sol     MW12222   3.021   1.925   5.219 -0.1117 -0.1385 -0.9025
 2296Sol     OW12223   1.758   1.495   5.632 -0.1502  0.4724 -0.0749
 2296Sol     HW12224   1.850   1.480   5.654 -0.0309 -1.1939 -1.6686
 2296Sol     HW12225   1.714   1.413   5.653 -1.3225  1.2718  0.7241
 2296Sol     MW12226   1.763   1.487   5.636 -0.2606  0.5899  0.4943
 2297Sol     OW12227   1.105   3.379   7.221  0.1428  0.7498 -0.7389
 2297Sol     HW12228   1.047   3.307   7.243  1.5906  0.0052  0.7638
 2297Sol     HW12229   1.171   3.340   7.163  0.0518  1.2077 -1.1486
 2297Sol     MW12230   1.106   3.369   7.218  0.5965 -0.3872 -0.5172
 2298Sol     OW12231   0.645   1.700   2.527 -0.2587  0.5961 -0.4940
 2298Sol     HW12232   0.633   1.656   2.443 -0.0021 -1.0628  0.3330
 2298Sol     HW12233   0.569   1.674   2.579 -0.3183  1.4723 -0.1254
 2298Sol     MW12234   0.637   1.694   2.524  0.1517  0.4995 -0.4236
 2299Sol     OW12235   3.381   3.325   3.129  0.0710  0.0591  0.2404
 2299Sol     HW12236   3.372   3.230   3.129 -1.1558  0.1672 -0.3586
 2299Sol     HW12237   3.302   3.357   3.173  0.2818  0.8130  0.0787
 2299Sol     MW12238   3.373   3.320   3.133  0.9900  0.0134 -0.0556
 2300Sol     OW12239   1.716   3.153   4.234  0.1008  0.4996 -0.5328
 2300Sol     HW12240   1.660   3.192   4.301  0.8109  0.0200  0.3595
 2300Sol     HW12241   1.670   3.168   4.152 -1.5562 -0.2949  0.2253
 2300Sol     MW12242   1.707   3.158   4.233  0.1184 -0.3776  0.1287
 2301Sol     OW12243   0.660   2.754   1.832 -0.2167 -0.6390 -0.3497
 2301Sol     HW12244   0.645   2.692   1.761 -0.1988 -0.8164 -0.1986
 2301Sol     HW12245   0.630   2.838   1.797 -0.1467 -0.7146 -0.5891
 2301Sol     MW12246   0.656   2.756   1.823  0.1481  0.4689  0.7443
 2302Sol     OW12247   2.489   2.600   6.365 -0.2806  0.2082 -0.1077
 2302Sol     HW12248   2.468   2.576   6.455  0.8149 -0.1394  0.0546
 2302Sol     HW12249   2.414   2.652   6.336 -1.2813 -0.8451  0.5440
 2302Sol     MW12250   2.480   2.602   6.370 -0.0222 -0.2023 -0.1278
 2303Sol     OW12251   1.139   2.960   3.543  0.2362  0.2742  0.0578
 2303Sol     HW12252   1.199   2.890   3.570  0.4680 -0.2359 -1.7449
 2303Sol     HW12253   1.172   3.037   3.590 -0.0370 -0.7876  2.0800
 2303Sol     MW12254   1.148   2.961   3.550  0.2049  0.6623 -0.7350
 2304Sol     OW12255   2.925   0.260   8.005 -0.9629 -0.4287 -0.4289
 2304Sol     HW12256   3.007   0.298   7.972 -0.0934 -1.4045  0.5499
 2304Sol     HW12257   2.910   0.304   8.089 -1.3357 -0.3877 -0.5177
 2304Sol     MW12258   2.931   0.267   8.010  0.2421  0.5361 -0.2795
 2305Sol     OW12259   0.187   0.454   2.930 -0.1972  0.5081  0.4601
 2305Sol     HW12260   0.235   0.532   2.957 -0.9419  0.2439  2.6599
 2305Sol     HW12261   0.102   0.487   2.901 -1.0303  0.4516  2.7039
 2305Sol     MW12262   0.183   0.464   2.930  0.4907  0.2812  0.0459
 2306Sol     OW12263   0.530   0.640   5.869  0.0300  0.2061 -0.1966
 2306Sol     HW12264   0.536   0.576   5.798  0.2634 -0.1998  0.1931
 2306Sol     HW12265   0.542   0.590   5.949 -1.9587  0.3927  0.2403
 2306Sol     MW12266   0.531   0.630   5.870 -0.1721 -0.6811 -0.5087
 2307Sol     OW12267   2.672   1.931   1.785  0.2224  0.4031  0.6450
 2307Sol     HW12268   2.688   1.884   1.704 -0.0699  2.4308 -0.6291
 2307Sol     HW12269   2.757   1.967   1.809 -0.1126  1.6146  0.0512
 2307Sol     MW12270   2.681   1.930   1.780  0.2106 -0.3618 -0.2457
 2308Sol     OW12271   0.841   3.092   2.352  0.6988 -0.4113 -0.1842
 2308Sol     HW12272   0.839   3.149   2.275  0.7510 -1.8099 -1.2444
 2308Sol     HW12273   0.787   3.138   2.417 -0.1898  0.2980 -1.4027
 2308Sol     MW12274   0.836   3.101   2.351 -0.4582  0.2671 -0.9320
 2309Sol     OW12275   1.709   1.939   2.911 -0.8189  0.4437 -0.0427
 2309Sol     HW12276   1.680   1.952   2.820 -1.5400  0.4040  0.1826
 2309Sol     HW12277   1.631   1.907   2.957 -0.6327  1.1186  0.7478
 2309Sol     MW12278   1.700   1.937   2.907  0.8803  0.0849  0.0487
 2310Sol     OW12279   2.262   2.173   7.218 -0.1181  0.1635 -0.3766
 2310Sol     HW12280   2.277   2.210   7.131  0.6115  1.3756  0.2467
 2310Sol     HW12281   2.308   2.233   7.278 -1.5820 -0.0150  0.9488
 2310Sol     MW12282   2.268   2.182   7.216 -0.5479 -0.4677  0.2479
 2311Sol     OW12283   0.541   0.322   8.761 -0.6855  0.2030  0.0038
 2311Sol     HW12284   0.546   0.317   8.856  0.3967  1.0213 -0.0029
 2311Sol     HW12285   0.562   0.413   8.740 -1.8594  0.2825 -0.9668
 2311Sol     MW12286   0.543   0.330   8.767  0.4537  0.2936  0.0523
 2312Sol     OW12287   1.414   2.984   2.034  0.5929  0.0776 -0.1520
 2312Sol     HW12288   1.334   3.032   2.015 -0.1003  0.1536  2.7747
 2312Sol     HW12289   1.397   2.895   2.003 -0.4051  0.2303 -0.0552
 2312Sol     MW12290   1.406   2.981   2.030 -0.1861  0.2022  0.3599
 2313Sol     OW12291   0.858   2.204   5.555 -0.3277 -0.0267 -0.4316
 2313Sol     HW12292   0.944   2.188   5.515 -0.1222 -1.1209  0.4146
 2313Sol     HW12293   0.871   2.281   5.611  0.2590 -0.5485  0.1563
 2313Sol     MW12294   0.867   2.209   5.556 -0.1588  0.4727 -0.5211
 2314Sol     OW12295   1.019   0.260   7.187 -0.2455  0.1804 -0.1258
 2314Sol     HW12296   1.088   0.294   7.130  2.0821  0.3175  2.6097
 2314Sol     HW12297   1.029   0.165   7.185  0.8430  0.2454  1.1577
 2314Sol     MW12298   1.026   0.255   7.182 -0.6380  0.2172 -0.1453
 2315Sol     OW12299   0.028   1.596   1.861  0.1680  0.3948 -0.4777
 2315Sol     HW12300  -0.032   1.603   1.936  0.9427  0.0455  0.1896
 2315Sol     HW12301   0.062   1.684   1.850  0.6666  0.2799  0.1058
 2315Sol     MW12302   0.025   1.605   1.867 -0.5560 -0.3722  0.1862
 2316Sol     OW12303   2.250   3.287   3.230 -0.0905  0.2087 -0.2043
 2316Sol     HW12304   2.177   3.258   3.284 -1.0753 -1.6377 -2.4370
 2316Sol     HW12305   2.223   3.371   3.193  0.1572  0.9581  1.3004
 2316Sol     MW12306   2.241   3.292   3.231  0.0181  0.8958  0.0098
 2317Sol     OW12307   2.894   1.926   1.455 -0.4717 -0.7198 -0.7357
 2317Sol     HW12308   2.805   1.922   1.421 -0.4145  0.9629 -1.1772
 2317Sol     HW12309   2.941   1.980   1.391  0.4890 -0.3510  0.2636
 2317Sol     MW12310   2.891   1.931   1.446  0.4256 -0.0148  1.0881
 2318Sol     OW12311   2.450   2.714   1.962  0.5766 -0.1152 -0.1600
 2318Sol     HW12312   2.373   2.741   1.912 -0.7721  0.5850  2.2234
 2318Sol     HW12313   2.524   2.752   1.915 -0.7795  1.8491 -0.7812
 2318Sol     MW12314   2.450   2.720   1.953 -0.6438 -0.5961  0.4301
 2319Sol     OW12315   0.695   3.269   3.496 -0.0779 -0.1211  0.1865
 2319Sol     HW12316   0.691   3.360   3.527 -0.2783 -0.1281  0.1821
 2319Sol     HW12317   0.758   3.227   3.554  1.4278  0.4737 -0.9720
 2319Sol     MW12318   0.700   3.274   3.504  0.2021  0.0211  0.3957
 2320Sol     OW12319   1.924   3.338   3.783 -0.3855  0.2888 -0.8596
 2320Sol     HW12320   1.950   3.324   3.874 -3.4755  0.2013  0.0804
 2320Sol     HW12321   1.962   3.264   3.735  0.4771 -0.1722  0.5190
 2320Sol     MW12322   1.930   3.330   3.786 -0.4537 -0.6937  0.9868
 2321Sol     OW12323   1.422   3.229   8.128 -0.6462 -0.1366  0.8708
 2321Sol     HW12324   1.509   3.266   8.113 -1.2766  0.5987 -1.1427
 2321Sol     HW12325   1.410   3.166   8.057 -2.4522  1.0966  0.0343
 2321Sol     MW12326   1.429   3.227   8.120  0.3443  0.3470 -0.2886
 2322Sol     OW12327   2.002   0.495   8.604  0.1824 -0.2016 -0.2866
 2322Sol     HW12328   1.945   0.535   8.539 -0.5036 -1.7788 -0.6698
 2322Sol     HW12329   2.047   0.425   8.557  0.1114 -0.9805  0.7788
 2322Sol     MW12330   2.001   0.492   8.594  0.3738 -0.4293  0.3508
 2323Sol     OW12331   0.013   0.708   3.155 -0.3361  0.4385  0.5489
 2323Sol     HW12332  -0.025   0.763   3.087  0.8727  0.1078 -0.4240
 2323Sol     HW12333   0.027   0.623   3.113  0.3273  0.2020  1.2237
 2323Sol     MW12334   0.011   0.705   3.145 -0.1355 -0.2141  0.5286
 2324Sol     OW12335   2.871   2.532   6.008  0.3189  0.2174  0.2101
 2324Sol     HW12336   2.817   2.460   5.975  1.1347  0.3738 -1.5497
 2324Sol     HW12337   2.912   2.498   6.088  0.8598 -1.3556 -0.7121
 2324Sol     MW12338   2.870   2.523   6.012 -0.4404 -0.9557 -0.0993
 2325Sol     OW12339   0.414   1.564   8.296 -0.0148  0.0482  0.1952
 2325Sol     HW12340   0.363   1.483   8.290 -0.1240  0.1670 -0.5942
 2325Sol     HW12341   0.382   1.608   8.375 -2.7105  1.1973 -1.4850
 2325Sol     MW12342   0.407   1.560   8.302  0.1996  0.0448 -0.1466
 2326Sol     OW12343   0.038   0.463   3.965 -0.2627  0.3078 -0.4515
 2326Sol     HW12344   0.119   0.489   4.008  0.0300 -1.0605 -0.1310
 2326Sol     HW12345  -0.030   0.517   4.006  0.2772  0.3397  0.4121
 2326Sol     MW12346   0.039   0.470   3.973 -0.2199  0.1950  0.1697
 2327Sol     OW12347   3.337   1.065   5.522 -0.3821 -0.4158 -0.0198
 2327Sol     HW12348   3.317   1.095   5.610 -0.9514 -1.4319  0.2040
 2327Sol     HW12349   3.432   1.069   5.516 -0.3565 -0.1353  0.5694
 2327Sol     MW12350   3.344   1.068   5.529  0.2429 -0.4017 -0.2932
 2328Sol     OW12351   1.560   2.571   8.115  0.0862  0.2489 -0.0016
 2328Sol     HW12352   1.638   2.517   8.119  0.8061  1.2103 -0.6268
 2328Sol     HW12353   1.491   2.519   8.156  1.0029 -0.6966  0.3365
 2328Sol     MW12354   1.561   2.562   8.119 -0.8351  0.0679 -0.3196
 2329Sol     OW12355   1.229   0.762   5.651  0.7939  0.4697 -0.5205
 2329Sol     HW12356   1.288   0.833   5.677  0.9243 -0.9666  3.3823
 2329Sol     HW12357   1.146   0.783   5.694  0.3360 -0.8367 -0.7422
 2329Sol     MW12358   1.227   0.770   5.657 -0.2280 -0.1670  0.1162
 2330Sol     OW12359   0.380   2.145   3.565  0.2567  0.5950 -0.6467
 2330Sol     HW12360   0.301   2.194   3.542  0.2600  0.5670 -0.7184
 2330Sol     HW12361   0.393   2.164   3.658  0.2211  0.6780 -0.6580
 2330Sol     MW12362   0.374   2.151   3.571 -0.8281  0.2872 -0.5121
 2331Sol     OW12363   1.173   1.943   2.694  0.4955  0.1879 -0.1117
 2331Sol     HW12364   1.217   1.915   2.775  1.2040  2.1704  0.2211
 2331Sol     HW12365   1.080   1.948   2.718  0.3003 -2.0459 -0.2587
 2331Sol     MW12366   1.168   1.941   2.704 -0.5555 -0.1023  0.4706
 2332Sol     OW12367   2.938   1.305   1.750  0.3442  0.4170  0.2962
 2332Sol     HW12368   2.882   1.264   1.684 -0.7433 -0.7048  1.8882
 2332Sol     HW12369   2.950   1.237   1.817  0.1975  2.0283  1.9899
 2332Sol     MW12370   2.934   1.295   1.750 -0.8257 -0.1046  0.2307
 2333Sol     OW12371   0.390   0.258   7.561 -0.0747  0.0829 -0.2864
 2333Sol     HW12372   0.413   0.171   7.531 -1.0474 -0.6773  1.1226
 2333Sol     HW12373   0.411   0.316   7.487  1.2226 -1.2431 -0.9624
 2333Sol     MW12374   0.394   0.256   7.552 -0.1248  0.1941 -0.3167
 2334Sol     OW12375   0.378   3.301   3.137 -0.1790  0.2949 -0.2837
 2334Sol     HW12376   0.357   3.315   3.044  1.5870  0.7378 -0.6312
 2334Sol     HW12377   0.416   3.213   3.140 -0.4786  0.1753  0.0743
 2334Sol     MW12378   0.380   3.294   3.129 -0.1185  0.2453  0.2785
 2335Sol     OW12379   1.282   3.223   3.170 -0.4312 -0.3260 -0.0291
 2335Sol     HW12380   1.320   3.178   3.095 -0.4792  0.5638 -0.5945
 2335Sol     HW12381   1.357   3.257   3.218 -0.3481 -1.8667  0.9508
 2335Sol     MW12382   1.292   3.222   3.167  0.7900 -0.0534  0.3468
 2336Sol     OW12383   0.079   0.636   7.050  0.1360 -0.3814 -0.0960
 2336Sol     HW12384   0.168   0.670   7.059 -0.1607 -0.1029  1.8479
 2336Sol     HW12385   0.090   0.556   6.999  1.3825  0.1266 -0.6726
 2336Sol     MW12386   0.088   0.632   7.046 -0.3254  0.1137  0.2621
 2337Sol     OW12387   1.640   0.460   8.316  0.7068  0.1508 -0.3889
 2337Sol     HW12388   1.607   0.509   8.241  2.3802 -0.6945 -1.7018
 2337Sol     HW12389   1.706   0.517   8.355  1.2993 -0.2499 -0.7923
 2337Sol     MW12390   1.643   0.469   8.313  0.5003  0.2280  0.0802
 2338Sol     OW12391   0.922   2.946   6.638  0.5239 -0.0686 -0.1140
 2338Sol     HW12392   0.900   3.039   6.636 -2.1470 -0.6076  1.4556
 2338Sol     HW12393   0.940   2.927   6.730 -3.3514 -1.9761  0.3532
 2338Sol     MW12394   0.921   2.953   6.646 -0.0029 -0.5813  0.1159
 2339Sol     OW12395   2.495   3.341   2.763 -0.9047 -0.0886 -0.5680
 2339Sol     HW12396   2.559   3.270   2.772 -1.0304 -0.1200  0.1365
 2339Sol     HW12397   2.429   3.321   2.830 -0.9408  0.6880 -0.3719
 2339Sol     MW12398   2.495   3.332   2.770 -0.5749 -0.1994 -0.3610
 2340Sol     OW12399   0.126   2.413   8.752  0.0373 -0.3010  0.1918
 2340Sol     HW12400   0.105   2.421   8.845  0.5242 -0.2082  0.2927
 2340Sol     HW12401   0.218   2.439   8.745  0.0436 -0.4440 -0.2936
 2340Sol     MW12402   0.132   2.416   8.759  0.2168 -0.4056 -0.2857
 2341Sol     OW12403   2.905   1.114   2.397  0.3613 -0.2697  0.6095
 2341Sol     HW12404   2.891   1.128   2.303 -0.9724  2.2346  1.1294
 2341Sol     HW12405   2.961   1.037   2.402  3.1792  1.4602 -2.3765
 2341Sol     MW12406   2.909   1.108   2.389 -0.3464  0.1534  0.0548
 2342Sol     OW12407   0.472   0.038   7.437 -0.2374 -0.3300  0.4319
 2342Sol     HW12408   0.410   0.044   7.364 -0.7112  1.4164  0.9504
 2342Sol     HW12409   0.557   0.055   7.397 -0.5860  1.4694  0.3811
 2342Sol     MW12410   0.474   0.040   7.427 -1.0453 -0.1230 -0.1108
 2343Sol     OW12411   2.932   2.010   6.436  0.2920  0.0379  0.0830
 2343Sol     HW12412   3.021   2.010   6.472  0.9787  1.0040 -1.5651
 2343Sol     HW12413   2.927   1.928   6.386  0.7690  0.6707 -1.0203
 2343Sol     MW12414   2.940   2.002   6.435  0.0414  0.0462 -0.0382
 2344Sol     OW12415   2.338   0.868   5.296 -0.2984 -0.3618 -0.0015
 2344Sol     HW12416   2.423   0.897   5.262 -0.8318  0.9694 -0.2136
 2344Sol     HW12417   2.336   0.900   5.386  0.5929 -2.8284  0.9531
 2344Sol     MW12418   2.345   0.873   5.301 -0.3228  0.4956  0.3534
 2345Sol     OW12419   1.587   2.933   1.668  0.2131  0.3032  0.2497
 2345Sol     HW12420   1.537   2.853   1.651 -2.3574  1.2631  2.8494
 2345Sol     HW12421   1.549   2.997   1.608  1.0416  0.0482 -0.5559
 2345Sol     MW12422   1.579   2.931   1.661 -0.2022  0.2275  0.1668
 2346Sol     OW12423   3.107   2.446   8.496 -0.6345  0.5571  0.2499
 2346Sol     HW12424   3.069   2.448   8.584 -0.2085  0.1693  0.4453
 2346Sol     HW12425   3.118   2.353   8.477 -0.9590  0.6350 -0.3164
 2346Sol     MW12426   3.104   2.438   8.502  0.0768 -0.3482 -0.1477
 2347Sol     OW12427   2.338   1.786   7.943  0.0566 -0.1657 -0.3049
 2347Sol     HW12428   2.322   1.766   8.035  3.0422  1.0067  0.4978
 2347Sol     HW12429   2.333   1.701   7.899  0.1237 -0.9361  1.1622
 2347Sol     MW12430   2.336   1.776   7.947 -0.5459 -0.1335  0.4887
 2348Sol     OW12431   3.197   0.620   6.076 -0.2906  0.8022 -0.3349
 2348Sol     HW12432   3.257   0.644   6.005 -0.5293 -0.6186 -1.0540
 2348Sol     HW12433   3.119   0.588   6.031 -0.5731  0.2090  0.5656
 2348Sol     MW12434   3.196   0.619   6.065  0.2364  0.1463 -1.2011
 2349Sol     OW12435   1.214   1.506   1.538  0.2519 -0.0962  0.6511
 2349Sol     HW12436   1.211   1.417   1.573  2.0509 -0.8716 -1.1164
 2349Sol     HW12437   1.303   1.516   1.505 -1.3754  0.5337 -3.8242
 2349Sol     MW12438   1.221   1.499   1.538 -0.8313 -0.4215  0.1865
 2350Sol     OW12439   1.226   1.712   9.030 -0.1693  0.6950 -0.1982
 2350Sol     HW12440   1.275   1.632   9.049 -1.2053  0.5787  2.1156
 2350Sol     HW12441   1.231   1.721   8.935 -0.3980 -2.3252 -0.5387
 2350Sol     MW12442   1.231   1.706   9.023  0.0677  0.1641 -0.2580
 2351Sol     OW12443   2.244   2.358   2.496 -0.5320  0.5807  0.3187
 2351Sol     HW12444   2.151   2.374   2.510 -0.2655  2.1950  0.3607
 2351Sol     HW12445   2.263   2.401   2.412  0.4284  1.3950  0.9344
 2351Sol     MW12446   2.237   2.364   2.490 -0.4115  0.7664  0.1510
 2352Sol     OW12447   3.244   3.019   4.339  0.2610  0.2087 -0.1755
 2352Sol     HW12448   3.279   2.985   4.256  1.2321  1.1151 -0.1443
 2352Sol     HW12449   3.315   3.072   4.375 -0.3910  0.3386  0.9337
 2352Sol     MW12450   3.254   3.021   4.335  0.3641  0.4466 -0.1929
 2353Sol     OW12451   1.578   0.011   7.400 -0.5246  0.3027 -0.1762
 2353Sol     HW12452   1.592   0.075   7.470 -1.5302  0.6535 -0.2933
 2353Sol     HW12453   1.657  -0.043   7.401  0.0128  1.0942  0.3988
 2353Sol     MW12454   1.587   0.012   7.406 -0.4607 -0.1249 -0.0053
 2354Sol     OW12455   0.276   3.055   7.924 -0.3756  0.3485  0.4653
 2354Sol     HW12456   0.263   3.009   7.841 -0.9315 -1.1509  1.3789
 2354Sol     HW12457   0.199   3.035   7.976  0.1838  0.9035  1.5388
 2354Sol     MW12458   0.268   3.049   7.921 -0.3112 -0.2491  0.0711
 2355Sol     OW12459   2.042   1.456   5.626  0.4359 -0.0542  0.2069
 2355Sol     HW12460   2.032   1.381   5.568  1.4956 -0.0387 -0.0035
 2355Sol     HW12461   2.116   1.433   5.682  1.6029  1.3953 -0.7292
 2355Sol     MW12462   2.048   1.447   5.626 -0.3293  0.3133  0.5831
 2356Sol     OW12463   0.557   1.148   5.635  0.4547  0.0935  0.1405
 2356Sol     HW12464   0.550   1.241   5.658 -0.6367  0.1423 -0.3641
 2356Sol     HW12465   0.545   1.145   5.540  1.0917 -0.5072  0.0712
 2356Sol     MW12466   0.555   1.156   5.629 -0.0390 -0.7925 -0.4734
 2357Sol     OW12467   0.265   1.819   2.615 -0.3222 -0.1614  0.2133
 2357Sol     HW12468   0.272   1.895   2.673  1.4809 -0.5243  0.4754
 2357Sol     HW12469   0.175   1.788   2.628 -0.7102  1.2243  0.9659
 2357Sol     MW12470   0.257   1.823   2.622 -0.0353 -0.2644  0.1818
 2358Sol     OW12471   1.737   1.945   6.486 -0.0625 -0.6425  0.1139
 2358Sol     HW12472   1.820   1.986   6.508  0.3094  0.1105 -2.4630
 2358Sol     HW12473   1.760   1.874   6.425 -1.2940 -0.3086 -0.7678
 2358Sol     MW12474   1.746   1.942   6.482 -0.3310  0.0803  0.0390
 2359Sol     OW12475   1.654   1.121   4.969  0.2431  0.8544 -0.6532
 2359Sol     HW12476   1.656   1.216   4.981 -0.8790  0.7683  0.3253
 2359Sol     HW12477   1.722   1.087   5.027 -0.6820  0.9213  0.4717
 2359Sol     MW12478   1.660   1.126   4.975 -0.0042  0.1885 -0.3464
 2360Sol     OW12479   3.357   0.257   4.895 -0.2822 -0.2029  0.5242
 2360Sol     HW12480   3.409   0.202   4.837  0.6531 -0.5380  1.6577
 2360Sol     HW12481   3.268   0.223   4.886  0.2933 -1.9720  1.2505
 2360Sol     MW12482   3.353   0.249   4.889 -0.0104 -0.9199 -0.2494
 2361Sol     OW12483   1.073   0.106   5.215  0.3666  0.5900 -0.0965
 2361Sol     HW12484   1.026   0.024   5.200  0.6126  0.2604  0.9005
 2361Sol     HW12485   1.048   0.161   5.142 -1.4220  0.3490  0.3083
 2361Sol     MW12486   1.066   0.103   5.207 -0.2812 -0.0381  0.0470
 2362Sol     OW12487   3.139   1.516   6.277  0.2450 -0.2431 -0.3356
 2362Sol     HW12488   3.218   1.531   6.327 -0.4450  0.6080  0.5044
 2362Sol     HW12489   3.069   1.511   6.342 -0.6319  0.6622 -1.1854
 2362Sol     MW12490   3.139   1.517   6.287 -0.2133  0.6839  0.0334
 2363Sol     OW12491   1.943   1.307   5.239 -0.2398  0.2023 -0.0751
 2363Sol     HW12492   1.975   1.271   5.322  1.8865 -0.1562 -1.0134
 2363Sol     HW12493   1.920   1.230   5.187  1.7257  0.2414 -1.0675
 2363Sol     MW12494   1.944   1.297   5.242 -0.1839  0.1843 -0.4349
 2364Sol     OW12495   0.089   2.867   7.479  0.0771 -0.3048  0.0436
 2364Sol     HW12496   0.093   2.822   7.395  0.5211 -0.0766 -0.0551
 2364Sol     HW12497   0.001   2.904   7.482  0.3442  0.4079 -0.6903
 2364Sol     MW12498   0.081   2.866   7.472  0.0919  0.3475  0.2638
 2365Sol     OW12499   2.832   3.322   1.484  0.1880  0.3873  0.2621
 2365Sol     HW12500   2.881   3.245   1.454  0.1702  0.4445  0.0857
 2365Sol     HW12501   2.767   3.286   1.545 -0.1550  0.1961 -0.2072
 2365Sol     MW12502   2.830   3.312   1.486  0.0887 -0.0443 -0.6332
 2366Sol     OW12503   1.767   0.022   6.723 -0.1313  0.3041  0.4571
 2366Sol     HW12504   1.748   0.002   6.631 -0.4211 -0.2025  0.6260
 2366Sol     HW12505   1.781  -0.064   6.764 -2.3691  0.3394  1.4075
 2366Sol     MW12506   1.766   0.012   6.718  0.1792  0.1470  0.5224
 2367Sol     OW12507   1.742   0.335   3.391  0.2382 -0.5070  0.3361
 2367Sol     HW12508   1.690   0.374   3.460  0.5817  0.5408  0.0043
 2367Sol     HW12509   1.690   0.346   3.312 -0.1062 -1.6070  0.3941
 2367Sol     MW12510   1.733   0.339   3.390 -0.1900  0.3994  0.3553
 2368Sol     OW12511   1.166   2.214   2.803 -0.7697 -0.5915 -0.1391
 2368Sol     HW12512   1.210   2.167   2.732 -0.5275 -1.2056  0.4179
 2368Sol     HW12513   1.081   2.238   2.766 -0.4889 -0.5401 -0.7770
 2368Sol     MW12514   1.163   2.212   2.793 -1.0880 -0.0375  0.6152
 2369Sol     OW12515   1.675   0.516   5.170 -0.1098  0.4834  0.7073
 2369Sol     HW12516   1.752   0.484   5.123  0.9376  0.2926  2.5024
 2369Sol     HW12517   1.642   0.439   5.216 -3.4573 -0.2852 -2.7269
 2369Sol     MW12518   1.679   0.506   5.170 -0.2314  0.3141 -0.0612
 2370Sol     OW12519   0.554   2.630   3.524 -0.3549  0.0458 -0.1489
 2370Sol     HW12520   0.601   2.547   3.522 -1.4769 -0.5824 -1.9628
 2370Sol     HW12521   0.606   2.685   3.582  1.4725 -1.3015 -0.4371
 2370Sol     MW12522   0.563   2.628   3.529  0.0582  0.0598 -0.3144
 2371Sol     OW12523   2.972   1.629   3.215  0.0547  0.0320 -0.2240
 2371Sol     HW12524   2.904   1.624   3.282 -0.8439 -0.3520 -1.1355
 2371Sol     HW12525   2.981   1.722   3.197 -0.7895  0.0395 -0.6414
 2371Sol     MW12526   2.967   1.636   3.219 -0.1309 -0.4842  0.0406
 2372Sol     OW12527   2.973   0.636   8.710  0.1880 -0.2839  0.2610
 2372Sol     HW12528   3.026   0.583   8.768  0.8374 -0.0091 -0.0752
 2372Sol     HW12529   2.889   0.590   8.704  0.9172 -1.5315 -0.4396
 2372Sol     MW12530   2.970   0.627   8.715 -0.2763  0.4181  0.1593
 2373Sol     OW12531   3.496   0.596   6.417  0.3925 -0.3618 -0.1617
 2373Sol     HW12532   3.411   0.624   6.384  0.8324  0.6615 -0.4368
 2373Sol     HW12533   3.550   0.584   6.338  0.6003 -0.7105  0.0276
 2373Sol     MW12534   3.493   0.597   6.407 -0.2071  0.2912 -0.0767
 2374Sol     OW12535   2.591   1.909   1.344 -0.5535 -0.0934  0.2562
 2374Sol     HW12536   2.558   1.874   1.261  1.3787 -2.0367  0.2688
 2374Sol     HW12537   2.586   2.004   1.333  1.2181 -0.2588 -2.7676
 2374Sol     MW12538   2.588   1.915   1.335 -0.1591 -0.1769 -0.3183
 2375Sol     OW12539   2.225   2.728   7.022  0.1632  0.2017 -0.3008
 2375Sol     HW12540   2.258   2.742   6.933 -0.1299 -0.7523 -0.5631
 2375Sol     HW12541   2.162   2.799   7.036 -0.5424 -0.2234 -1.2389
 2375Sol     MW12542   2.222   2.736   7.015  0.6898 -0.1973 -0.3676
 2376Sol     OW12543   2.123   1.306   4.090  0.0279 -0.1292  0.1766
 2376Sol     HW12544   2.046   1.345   4.132 -0.2357 -1.0153  0.5321
 2376Sol     HW12545   2.193   1.370   4.103 -0.5907  0.5820  0.0500
 2376Sol     MW12546   2.122   1.316   4.095  0.1393 -0.7588 -0.3416
 2377Sol     OW12547   2.865   0.645   5.143 -0.6967 -0.2968  0.6808
 2377Sol     HW12548   2.771   0.654   5.126 -0.3211 -0.8604 -1.8661
 2377Sol     HW12549   2.901   0.732   5.128 -0.2091 -1.0190 -2.7147
 2377Sol     MW12550   2.860   0.654   5.140 -0.0597 -0.4173  0.3647
 2378Sol     OW12551   0.722   3.163   6.381 -0.2346  0.0826  0.0573
 2378Sol     HW12552   0.796   3.181   6.439 -0.3721  1.3672 -0.1435
 2378Sol     HW12553   0.652   3.135   6.439  0.6491 -1.9605  0.1722
 2378Sol     MW12554   0.722   3.162   6.391  0.0900 -0.8649  0.0118
 2379Sol     OW12555   2.108   1.813   4.939 -0.0005 -0.5033  0.6810
 2379Sol     HW12556   2.079   1.750   5.005  1.1020 -0.8567  0.8340
 2379Sol     HW12557   2.182   1.770   4.896 -1.6063 -0.9045 -1.7782
 2379Sol     MW12558   2.112   1.803   4.941 -0.0539  0.0673 -0.6001
 2380Sol     OW12559   0.211   0.762   6.656 -0.1242 -0.1513  0.2380
 2380Sol     HW12560   0.172   0.807   6.581 -1.0935  1.0765  1.4482
 2380Sol     HW12561   0.230   0.832   6.719 -1.6446 -1.3838  2.1364
 2380Sol     MW12562   0.209   0.772   6.655  0.0346 -0.8853  0.3335
 2381Sol     OW12563   3.035   3.316   6.859 -0.6778 -0.3273 -0.1018
 2381Sol     HW12564   2.956   3.305   6.911 -1.4544  1.0787 -0.9452
 2381Sol     HW12565   3.003   3.333   6.770  0.4159  4.2978  0.2650
 2381Sol     MW12566   3.025   3.316   6.856  0.5117  0.0944 -0.2059
 2382Sol     OW12567   2.435   2.776   7.280 -0.1603  0.4071  0.0423
 2382Sol     HW12568   2.416   2.832   7.355  0.8159  0.4114  0.2859
 2382Sol     HW12569   2.349   2.758   7.242 -0.6204  0.7706  0.8954
 2382Sol     MW12570   2.425   2.779   7.283  0.1125 -0.6870 -0.7415
 2383Sol     OW12571   0.466   0.424   2.097  0.8597 -0.1984 -0.0565
 2383Sol     HW12572   0.516   0.443   2.018  3.4462  0.8279  1.7937
 2383Sol     HW12573   0.392   0.485   2.094  1.2017  0.1642 -1.4314
 2383Sol     MW12574   0.464   0.431   2.089 -0.3328  0.2518  0.6000
 2384Sol     OW12575   1.011   0.441   8.542 -0.2990  0.2549 -0.1784
 2384Sol     HW12576   0.977   0.450   8.632 -1.7314  0.2044 -0.7023
 2384Sol     HW12577   1.105   0.428   8.554 -0.4193  0.5690  1.3093
 2384Sol     MW12578   1.016   0.440   8.551 -0.2699 -0.3717 -0.2082
 2385Sol     OW12579   2.234   2.115   8.404 -0.2416 -0.1956 -0.1140
 2385Sol     HW12580   2.184   2.173   8.462 -1.0292 -0.6840 -0.3070
 2385Sol     HW12581   2.325   2.126   8.433 -0.7008 -1.0302  1.7711
 2385Sol     MW12582   2.238   2.121   8.412  0.5020 -0.4051  0.5329
 2386Sol     OW12583   1.257   2.714   3.622  0.1987  0.1969  0.0051
 2386Sol     HW12584   1.349   2.733   3.601  0.1467 -0.1487 -0.5579
 2386Sol     HW12585   1.259   2.684   3.713  0.4298  1.7297  0.5215
 2386Sol     MW12586   1.266   2.713   3.628  0.6929 -0.1021  0.3573
 2387Sol     OW12587   1.121   2.997   3.268  0.3234  0.0095  0.4002
 2387Sol     HW12588   1.126   2.999   3.364 -0.3289  0.8740  0.4204
 2387Sol     HW12589   1.175   3.071   3.240  2.1921 -1.4742  0.0207
 2387Sol     MW12590   1.126   3.004   3.274 -0.3149 -0.0335  0.1149
 2388Sol     OW12591   1.461   1.273   5.606  0.3313  0.0397 -0.2974
 2388Sol     HW12592   1.412   1.229   5.536 -1.2082 -1.1269  1.4657
 2388Sol     HW12593   1.415   1.356   5.619 -0.9422 -0.8557  1.0439
 2388Sol     MW12594   1.453   1.277   5.601  0.1242 -0.3038 -0.3106
 2389Sol     OW12595   3.015   2.129   8.655  0.3556  0.4264 -0.3451
 2389Sol     HW12596   3.010   2.114   8.750  0.9430  2.4616  0.0313
 2389Sol     HW12597   2.927   2.159   8.631  0.0916 -0.4794 -0.5272
 2389Sol     MW12598   3.006   2.130   8.662 -0.1595 -0.4597  0.3852
 2390Sol     OW12599   1.716   1.544   5.913 -0.3295  0.5593 -0.2715
 2390Sol     HW12600   1.687   1.541   5.822  0.1993  1.8971 -0.4939
 2390Sol     HW12601   1.660   1.609   5.955 -0.2568  0.2963  0.2393
 2390Sol     MW12602   1.708   1.550   5.909 -0.9968  0.1264  0.6779
 2391Sol     OW12603   1.267   1.527   6.559 -0.2606 -0.1013  0.0072
 2391Sol     HW12604   1.279   1.599   6.498  0.0358 -0.7796 -0.7456
 2391Sol     HW12605   1.173   1.527   6.579  0.1182  2.0533  1.9760
 2391Sol     MW12606   1.260   1.533   6.555  0.0290  0.6806 -0.0304
 2392Sol     OW12607   0.200   2.949   5.917 -0.3078 -0.0033  0.2464
 2392Sol     HW12608   0.239   3.017   5.862 -1.6700  1.1304  0.6689
 2392Sol     HW12609   0.258   2.873   5.905  0.2991  0.7063 -1.4942
 2392Sol     MW12610   0.209   2.948   5.911 -0.0857 -0.0294 -0.3392
 2393Sol     OW12611   0.297   0.503   4.611  0.7049  0.3163 -0.0858
 2393Sol     HW12612   0.345   0.430   4.651  0.7964  0.8627  0.7965
 2393Sol     HW12613   0.353   0.532   4.539  1.1164  0.1440  0.1644
 2393Sol     MW12614   0.307   0.499   4.608 -0.3926  0.3091 -0.0788
 2394Sol     OW12615   1.905   0.230   5.843  0.4452 -0.1339  0.0539
 2394Sol     HW12616   1.923   0.308   5.789  0.2791 -0.3191 -0.2700
 2394Sol     HW12617   1.896   0.159   5.779  2.2628 -0.7386  0.4308
 2394Sol     MW12618   1.906   0.231   5.832 -0.0821 -0.1278 -0.8186
 2395Sol     OW12619   1.611   1.672   6.590  0.5142 -0.0391 -0.3389
 2395Sol     HW12620   1.620   1.767   6.589  2.3304 -0.1842 -0.3054
 2395Sol     HW12621   1.624   1.646   6.499  1.3990 -0.3415 -0.1379
 2395Sol     MW12622   1.613   1.678   6.582 -0.0604  0.6606 -0.0918
 2396Sol     OW12623   1.147   1.723   2.509 -0.3448  0.4180  0.4211
 2396Sol     HW12624   1.133   1.668   2.586 -1.8975  0.6739  0.3301
 2396Sol     HW12625   1.173   1.808   2.545 -0.7505  0.4435  0.6592
 2396Sol     MW12626   1.148   1.725   2.519  0.0769 -0.1320  0.7471
 2397Sol     OW12627   1.328   1.205   4.919 -0.0870  0.0185 -0.3013
 2397Sol     HW12628   1.313   1.228   5.011  0.3809 -2.4032  0.4220
 2397Sol     HW12629   1.361   1.285   4.879  0.4129  0.9125  1.8213
 2397Sol     MW12630   1.330   1.214   4.924 -0.3149 -0.0498  0.0473
 2398Sol     OW12631   1.963   2.287   4.409  0.2264 -0.4816  0.3243
 2398Sol     HW12632   1.962   2.380   4.432 -1.2734  0.1811 -2.3147
 2398Sol     HW12633   1.924   2.244   4.485 -0.1651  1.1651  1.0925
 2398Sol     MW12634   1.960   2.292   4.418  0.0207  0.5755 -0.3125
 2399Sol     OW12635   1.343   3.053   6.442 -0.4517  0.0019 -0.0157
 2399Sol     HW12636   1.361   2.960   6.431  2.8768  0.7091 -1.1245
 2399Sol     HW12637   1.335   3.087   6.353  0.1014  1.0760  0.3325
 2399Sol     MW12638   1.344   3.048   6.433 -0.0595 -0.5958  0.1190
 2400Sol     OW12639   1.337   1.887   6.580 -0.2669 -0.1810  0.6705
 2400Sol     HW12640   1.351   1.818   6.645 -0.1709 -0.0723  0.7662
 2400Sol     HW12641   1.244   1.905   6.583 -0.1425  0.3368  1.2987
 2400Sol     MW12642   1.330   1.882   6.586 -0.0997  0.0572 -0.3344
 2401Sol     OW12643   3.369   2.248   1.993  0.4124  0.4094 -0.4023
 2401Sol     HW12644   3.307   2.314   2.024 -0.2612 -0.1849 -0.4863
 2401Sol     HW12645   3.331   2.164   2.018  0.7167 -0.0011 -1.2711
 2401Sol     MW12646   3.360   2.246   1.998 -0.2932  0.7349  0.1806
 2402Sol     OW12647   1.241   2.053   2.465 -0.4919  0.0122  0.5578
 2402Sol     HW12648   1.219   2.014   2.550  1.8211 -1.2474  0.5937
 2402Sol     HW12649   1.336   2.047   2.459 -0.5199  1.2058 -1.6099
 2402Sol     MW12650   1.247   2.049   2.472 -0.1563 -0.1068 -0.2264
 2403Sol     OW12651   0.447   1.640   2.726  0.6786  0.2400  0.5975
 2403Sol     HW12652   0.459   1.664   2.818 -0.4399  0.5430  0.6829
 2403Sol     HW12653   0.384   1.705   2.693  1.0232  0.0907 -0.3581
 2403Sol     MW12654   0.442   1.648   2.731  0.2249 -0.4203 -0.2449
 2404Sol     OW12655   3.505   2.914   1.559 -0.4199 -0.4751 -0.2485
 2404Sol     HW12656   3.580   2.966   1.587 -0.0921  0.0476 -2.0596
 2404Sol     HW12657   3.511   2.833   1.611 -0.6626  1.0377  2.2156
 2404Sol     MW12658   3.512   2.911   1.566 -0.5622 -0.2202  0.4221
 2405Sol     OW12659   1.627   0.296   4.565 -0.0296  0.0904  0.5260
 2405Sol     HW12660   1.648   0.389   4.561  0.2147  0.1368  2.7293
 2405Sol     HW12661   1.708   0.254   4.594 -0.2058 -0.7929 -0.2176
 2405Sol     MW12662   1.636   0.300   4.567  0.0225  0.9474  0.2733
 2406Sol     OW12663   3.326   2.823   3.497  0.4135  0.1896 -0.1083
 2406Sol     HW12664   3.300   2.772   3.420 -1.7509  0.2346  0.5888
 2406Sol     HW12665   3.392   2.884   3.463  2.0619 -2.1352 -1.2051
 2406Sol     MW12666   3.330   2.824   3.487 -0.8981 -0.1327 -0.1043
 2407Sol     OW12667   0.513   2.222   7.925 -0.2235  0.8571  1.1831
 2407Sol     HW12668   0.480   2.132   7.928  0.8950  0.4669  2.3112
 2407Sol     HW12669   0.438   2.276   7.951 -0.6788  0.1916  1.2685
 2407Sol     MW12670   0.503   2.219   7.927  0.8722  0.5113  0.6678
 2408Sol     OW12671   2.177   2.357   4.205 -0.1367  0.0590 -0.1237
 2408Sol     HW12672   2.176   2.288   4.271  0.5342 -0.3570 -0.5517
 2408Sol     HW12673   2.235   2.424   4.242  0.5187 -0.3287 -0.4507
 2408Sol     MW12674   2.182   2.357   4.215  0.6031  0.6113 -0.1714
 2409Sol     OW12675   2.966   2.182   7.119  0.0282  0.4014 -0.3205
 2409Sol     HW12676   3.046   2.183   7.171  0.1424 -0.7090 -0.4703
 2409Sol     HW12677   2.922   2.265   7.140  0.1133  0.0015  1.4639
 2409Sol     MW12678   2.969   2.190   7.126 -0.9974  0.8414 -0.2448
 2410Sol     OW12679   0.793   2.825   6.077 -0.2522  0.1762  0.4940
 2410Sol     HW12680   0.780   2.845   6.170  1.1199  2.4682  0.2394
 2410Sol     HW12681   0.725   2.876   6.032  0.6114  0.9792  0.0929
 2410Sol     MW12682   0.785   2.831   6.081  0.4666 -0.1327  0.5675
 2411Sol     OW12683   1.694   2.047   8.322  0.0751 -0.3198  0.1031
 2411Sol     HW12684   1.615   2.100   8.333 -0.0860 -1.0853  2.8432
 2411Sol     HW12685   1.667   1.975   8.265 -0.6770  0.5198 -0.6019
 2411Sol     MW12686   1.684   2.045   8.318 -0.0740  0.6426 -0.2010
 2412Sol     OW12687   1.591   1.594   8.401 -0.2228 -0.6182  0.0564
 2412Sol     HW12688   1.558   1.525   8.345 -1.0298  0.9820 -1.4974
 2412Sol     HW12689   1.523   1.608   8.466  0.3341 -1.8849  0.9180
 2412Sol     MW12690   1.582   1.589   8.402  0.5638 -0.5972  0.1392
 2413Sol     OW12691   0.273   1.364   2.349  0.3455  0.7585  0.4416
 2413Sol     HW12692   0.233   1.320   2.274 -2.2712 -0.1334  2.2479
 2413Sol     HW12693   0.363   1.331   2.352 -0.2837 -1.1419 -0.8028
 2413Sol     MW12694   0.277   1.357   2.343 -0.3232 -0.0422  0.8736
 2414Sol     OW12695   0.191   2.673   4.956  0.3098  0.2137  0.2624
 2414Sol     HW12696   0.203   2.606   5.023 -1.1840 -0.5356 -0.1951
 2414Sol     HW12697   0.246   2.644   4.883  0.4263  0.0039  0.4321
 2414Sol     MW12698   0.197   2.665   4.956 -1.0681  0.1456  0.0685
 2415Sol     OW12699   2.470   3.149   5.077 -0.1336  0.3475  0.0140
 2415Sol     HW12700   2.506   3.116   4.996 -1.0987  0.1398 -0.3362
 2415Sol     HW12701   2.483   3.078   5.140  0.9337  0.6428  0.1433
 2415Sol     MW12702   2.474   3.140   5.076 -0.2330  0.2735 -0.8574
 2416Sol     OW12703   0.291   2.520   6.084 -0.4298 -0.3256 -0.7421
 2416Sol     HW12704   0.335   2.437   6.101 -1.0410 -1.0135 -2.3439
 2416Sol     HW12705   0.204   2.509   6.121 -0.2282 -0.0883 -0.2045
 2416Sol     MW12706   0.287   2.512   6.089 -0.2271  0.4293  0.2319
 2417Sol     OW12707   3.363   1.532   5.303 -0.8375 -0.3196  0.6187
 2417Sol     HW12708   3.332   1.442   5.313 -0.1358 -0.5930  0.3999
 2417Sol     HW12709   3.414   1.549   5.383 -1.3003  0.0228  0.8430
 2417Sol     MW12710   3.365   1.525   5.311  0.3822  0.0278  0.0146
 2418Sol     OW12711   1.587   0.235   7.644  0.8747  0.2576  0.1048
 2418Sol     HW12712   1.579   0.154   7.695 -0.7162 -0.4907 -1.2574
 2418Sol     HW12713   1.677   0.264   7.659  1.0565 -1.0346  1.6810
 2418Sol     MW12714   1.594   0.230   7.650  0.2440 -0.6160  0.2480
 2419Sol     OW12715   2.792   3.016   5.312 -0.1709  0.2964 -0.4444
 2419Sol     HW12716   2.789   3.023   5.408 -1.3973  1.1374 -0.5336
 2419Sol     HW12717   2.855   3.084   5.286  0.0908  0.1327 -0.2538
 2419Sol     MW12718   2.798   3.023   5.319 -0.1907 -0.3535  0.2525
 2420Sol     OW12719   3.152   1.186   2.717 -0.7473 -0.9724 -0.1497
 2420Sol     HW12720   3.206   1.265   2.728  0.8318 -1.7881 -1.7996
 2420Sol     HW12721   3.077   1.200   2.775  0.1928  1.1306  0.6081
 2420Sol     MW12722   3.150   1.195   2.723  0.1480 -0.1925  0.4472
 2421Sol     OW12723   2.123   0.403   2.239 -0.0894  0.2402 -0.3351
 2421Sol     HW12724   2.152   0.342   2.307 -0.5633 -0.2804 -0.5967
 2421Sol     HW12725   2.050   0.358   2.196 -0.0569  0.7403 -0.9176
 2421Sol     MW12726   2.119   0.393   2.241 -0.5978 -0.0375  0.8552
 2422Sol     OW12727   2.418   1.608   6.787 -0.1615  0.4658  0.3504
 2422Sol     HW12728   2.469   1.529   6.804 -0.4227 -0.0697 -1.1738
 2422Sol     HW12729   2.328   1.584   6.811  0.2933  1.4323  3.1012
 2422Sol     MW12730   2.414   1.599   6.790  0.1679 -0.2494  0.2595
 2423Sol     OW12731   0.922   1.536   6.452 -0.3527 -0.4399 -0.8260
 2423Sol     HW12732   0.844   1.588   6.435  0.4978  0.4340 -2.1566
 2423Sol     HW12733   0.889   1.453   6.485 -1.7732  0.5661  0.3739
 2423Sol     MW12734   0.912   1.533   6.454  0.4344 -0.3936 -0.1509
 2424Sol     OW12735   1.147   2.559   6.553 -0.3834 -0.1006 -0.1921
 2424Sol     HW12736   1.139   2.501   6.478 -0.0401 -0.7681  0.2820
 2424Sol     HW12737   1.124   2.505   6.628  0.2697  0.2844  0.2920
 2424Sol     MW12738   1.144   2.549   6.553  0.6786 -0.1118 -0.0387
 2425Sol     OW12739   1.672   0.297   1.982 -0.1642 -0.6215  0.0814
 2425Sol     HW12740   1.750   0.338   2.018 -1.6350  2.6759 -0.3324
 2425Sol     HW12741   1.604   0.309   2.049 -1.7131  1.4623 -1.7793
 2425Sol     MW12742   1.673   0.302   1.991 -0.1590 -0.1306  0.5691
 2426Sol     OW12743   0.725   0.458   4.484 -0.2156 -0.2916  0.1777
 2426Sol     HW12744   0.759   0.463   4.574 -0.1309  0.1413  0.1226
 2426Sol     HW12745   0.643   0.507   4.487 -1.4109 -2.2993  0.5712
 2426Sol     MW12746   0.721   0.463   4.493 -0.2082  0.0974 -0.1074
 2427Sol     OW12747   0.363   0.584   1.225  0.2616 -0.9518  0.4530
 2427Sol     HW12748   0.327   0.655   1.172  3.3351  1.1198  0.9687
 2427Sol     HW12749   0.287   0.537   1.258 -1.8042  0.6733 -1.8401
 2427Sol     MW12750   0.353   0.586   1.223  0.0156  0.7017  0.3007
 2428Sol     OW12751   3.302   3.366   6.154 -0.8668 -0.2924  0.2034
 2428Sol     HW12752   3.211   3.386   6.174 -0.0091  1.3449  2.6250
 2428Sol     HW12753   3.351   3.444   6.180  1.4692 -1.9161  0.8634
 2428Sol     MW12754   3.298   3.375   6.158  0.2793 -0.7854 -0.0243
 2429Sol     OW12755   2.100   3.242   8.019  0.1488 -0.2997 -0.2292
 2429Sol     HW12756   2.180   3.208   8.060  1.0519  0.7546 -1.0868
 2429Sol     HW12757   2.040   3.255   8.092  0.9146 -0.6634  0.4825
 2429Sol     MW12758   2.102   3.240   8.029  0.1972 -1.0205  0.6887
 2430Sol     OW12759   1.486   3.400   3.279 -0.2441 -0.1541  0.3548
 2430Sol     HW12760   1.547   3.436   3.215  0.7974 -0.6323  1.0723
 2430Sol     HW12761   1.541   3.377   3.354 -1.1496 -1.6018  0.5808
 2430Sol     MW12762   1.496   3.401   3.280 -0.0209  0.0991 -0.2724
 2431Sol     OW12763   2.422   3.038   8.216  0.2286  0.5558 -0.5045
 2431Sol     HW12764   2.403   3.032   8.123 -0.2068 -2.2938 -0.2729
 2431Sol     HW12765   2.518   3.038   8.222  0.2498  0.1792 -0.9044
 2431Sol     MW12766   2.429   3.038   8.208 -0.1743  0.7302 -0.0997
 2432Sol     OW12767   3.126   2.851   7.698 -0.1607 -0.0991  0.0340
 2432Sol     HW12768   3.042   2.882   7.664 -0.3219 -0.9413 -0.3442
 2432Sol     HW12769   3.129   2.758   7.675  0.4440 -0.3013  0.9102
 2432Sol     MW12770   3.119   2.845   7.693  0.6201 -0.3480  0.6944
 2433Sol     OW12771   0.580   1.421   5.586 -0.6769 -0.1094  0.2844
 2433Sol     HW12772   0.624   1.440   5.504 -0.8362  0.7807  0.4050
 2433Sol     HW12773   0.621   1.480   5.650 -0.5933 -0.7503  0.8320
 2433Sol     MW12774   0.587   1.428   5.585 -0.2476 -0.1133 -0.0219
 2434Sol     OW12775   0.810   2.555   2.642  0.2666  0.0793  0.7081
 2434Sol     HW12776   0.852   2.615   2.580 -1.6071 -0.4488 -1.1448
 2434Sol     HW12777   0.807   2.603   2.724 -0.1629  2.1063 -0.4544
 2434Sol     MW12778   0.814   2.564   2.643 -0.4011  0.3651  0.6647
 2435Sol     OW12779   1.389   3.027   7.887 -0.2299  0.5184 -0.0489
 2435Sol     HW12780   1.369   2.945   7.931  0.0919  0.3265 -0.2526
 2435Sol     HW12781   1.481   3.018   7.861 -0.5786  0.3800 -1.2786
 2435Sol     MW12782   1.396   3.019   7.888  0.0125  0.3139  0.0975
 2436Sol     OW12783   1.621   1.788   4.351 -0.2960  0.0105  0.2873
 2436Sol     HW12784   1.712   1.817   4.354 -0.5599  0.8923  0.1759
 2436Sol     HW12785   1.572   1.860   4.391 -1.2950  1.1437 -2.8367
 2436Sol     MW12786   1.625   1.797   4.355 -0.2006 -0.0352  0.2225
 2437Sol     OW12787   1.274   0.010   8.708  0.4785 -0.1580  0.1606
 2437Sol     HW12788   1.342   0.075   8.695  0.6259 -0.4617 -0.6111
 2437Sol     HW12789   1.255   0.014   8.802  1.1164  0.3604  0.2735
 2437Sol     MW12790   1.278   0.016   8.715 -0.7707  0.1733 -0.8040
 2438Sol     OW12791   3.111   0.208   1.711 -0.5898 -0.0466  0.0346
 2438Sol     HW12792   3.206   0.206   1.704 -0.6160 -0.0304 -0.3658
 2438Sol     HW12793   3.080   0.194   1.621 -0.9343  2.5168 -0.2849
 2438Sol     MW12794   3.117   0.207   1.702 -0.3038  0.2525 -0.5394
 2439Sol     OW12795   3.167   1.957   7.679 -0.3221  0.0587  0.1359
 2439Sol     HW12796   3.251   1.981   7.641  1.0248 -0.9994  2.3459
 2439Sol     HW12797   3.104   2.013   7.634  1.7575  2.0250 -0.4202
 2439Sol     MW12798   3.169   1.964   7.672  0.1803  0.0542 -0.8008
 2440Sol     OW12799   0.180   0.333   6.336  0.1254 -0.1098  0.7385
 2440Sol     HW12800   0.248   0.321   6.269  2.2692  0.9763  2.6795
 2440Sol     HW12801   0.122   0.400   6.300  1.2846  0.4993 -0.0151
 2440Sol     MW12802   0.180   0.338   6.326  0.0110  0.5235  0.4526
 2441Sol     OW12803   1.186   0.840   4.308 -0.5614 -0.7189  0.1465
 2441Sol     HW12804   1.144   0.770   4.357 -0.1447 -1.1397 -0.0840
 2441Sol     HW12805   1.224   0.796   4.232 -1.1264 -0.0847 -0.4993
 2441Sol     MW12806   1.186   0.830   4.306  0.6139 -0.3413 -0.4842
 2442Sol     OW12807   0.637   0.246   1.505  0.2091 -0.1568 -0.1365
 2442Sol     HW12808   0.633   0.341   1.520 -0.7306 -0.2776  0.4563
 2442Sol     HW12809   0.730   0.227   1.493  0.5608  0.6365  1.1625
 2442Sol     MW12810   0.645   0.253   1.506  0.0339 -0.0972 -0.4270
 2443Sol     OW12811   0.788   2.524   7.719 -0.2342 -0.2583  0.2736
 2443Sol     HW12812   0.844   2.533   7.642 -0.5536 -1.5941 -0.1312
 2443Sol     HW12813   0.712   2.578   7.699  0.4916  0.8266  0.4260
 2443Sol     MW12814   0.786   2.529   7.710  0.2857 -0.1036 -0.3203
 2444Sol     OW12815   0.025   1.913   2.116  0.1204 -0.2942 -0.4179
 2444Sol     HW12816   0.069   1.998   2.119  0.0490 -0.2954  0.7723
 2444Sol     HW12817   0.033   1.879   2.205 -1.4069 -0.7402 -0.4424
 2444Sol     MW12818   0.029   1.918   2.124 -0.5532 -0.3499  0.0441
 2445Sol     OW12819   3.240   2.513   5.345  0.1189 -0.1748 -0.6327
 2445Sol     HW12820   3.303   2.511   5.417  0.3917 -1.5660 -0.8905
 2445Sol     HW12821   3.270   2.584   5.289  0.8649 -0.1584 -0.2263
 2445Sol     MW12822   3.248   2.519   5.347 -0.1846 -0.2215 -0.3486
 2446Sol     OW12823   0.260   0.311   7.082  0.2411 -0.6463 -0.5392
 2446Sol     HW12824   0.257   0.227   7.128 -1.2604 -0.3206  0.0021
 2446Sol     HW12825   0.171   0.321   7.047  0.7290  0.2070 -1.5105
 2446Sol     MW12826   0.251   0.304   7.083  0.1563  0.2048  0.1217
 2447Sol     OW12827   0.353   1.958   1.444  0.1607  0.2186 -0.1163
 2447Sol     HW12828   0.310   1.886   1.490 -0.0268 -1.0311 -2.1749
 2447Sol     HW12829   0.320   1.952   1.355 -0.1163  3.1071 -0.2530
 2447Sol     MW12830   0.346   1.951   1.440  0.0943  0.2660  0.2154
 2448Sol     OW12831   0.609   1.262   3.953  0.1583 -0.0532 -0.5334
 2448Sol     HW12832   0.613   1.310   4.036  0.8435 -1.5670  0.3304
 2448Sol     HW12833   0.528   1.211   3.959 -0.0112  0.1628 -0.9793
 2448Sol     MW12834   0.602   1.261   3.961  0.9494  0.2565  0.3223
 2449Sol     OW12835   1.026   0.767   3.598  0.0183 -0.3479 -0.4070
 2449Sol     HW12836   0.973   0.701   3.642 -1.8085  1.9559  0.9327
 2449Sol     HW12837   0.973   0.796   3.524 -0.0107  0.9493  0.1073
 2449Sol     MW12838   1.017   0.763   3.596  0.0123  0.1412 -0.1520
 2450Sol     OW12839   0.117   0.252   3.159 -0.3325 -0.0588 -0.4256
 2450Sol     HW12840   0.177   0.297   3.219 -0.7354  0.9786 -0.7958
 2450Sol     HW12841   0.143   0.281   3.072 -0.7599 -0.3493 -0.6522
 2450Sol     MW12842   0.124   0.258   3.157  0.4955 -0.5147 -0.2995
 2451Sol     OW12843   0.628   2.164   6.303  0.0583  0.4503 -0.5328
 2451Sol     HW12844   0.722   2.147   6.291 -0.1890 -0.9931 -0.5790
 2451Sol     HW12845   0.622   2.213   6.385  0.7417 -0.7322  0.2315
 2451Sol     MW12846   0.636   2.167   6.309  0.0391  0.3343  0.3162
 2452Sol     OW12847   2.108   2.175   3.069 -0.4787  0.6277 -0.5221
 2452Sol     HW12848   2.196   2.210   3.080 -0.9643  1.4136  0.9659
 2452Sol     HW12849   2.116   2.111   2.998  1.5610 -0.2158  0.4309
 2452Sol     MW12850   2.117   2.172   3.064 -0.0485  0.1928 -0.4555
 2453Sol     OW12851   3.198   1.633   5.702  0.7659 -0.0936  0.3482
 2453Sol     HW12852   3.117   1.633   5.753  1.6345 -0.2512  1.7707
 2453Sol     HW12853   3.183   1.570   5.632 -0.2846 -0.2399  0.6983
 2453Sol     MW12854   3.189   1.627   5.700  0.1878  0.2942  0.3516
 2454Sol     OW12855   0.046   2.057   1.396 -0.0652 -0.4883 -0.5203
 2454Sol     HW12856  -0.021   2.013   1.448 -0.8611  0.0965 -1.0362
 2454Sol     HW12857   0.016   2.148   1.392  1.6746  0.1813  0.7551
 2454Sol     MW12858   0.037   2.061   1.400 -0.4809 -0.3549 -0.5298
 2455Sol     OW12859   1.497   1.104   4.675 -0.3199  0.3777 -0.2819
 2455Sol     HW12860   1.456   1.118   4.760 -1.2912  0.9099 -0.8393
 2455Sol     HW12861   1.425   1.109   4.612  0.7844  2.9132 -1.4268
 2455Sol     MW12862   1.487   1.106   4.677  0.4005 -0.0243 -0.1408
 2456Sol     OW12863   1.549   1.959   3.359  0.0666  0.2383  0.1302
 2456Sol     HW12864   1.644   1.968   3.372  0.1213 -0.8394  0.5831
 2456Sol     HW12865   1.515   1.932   3.444 -0.7342  1.1880  0.1135
 2456Sol     MW12866   1.555   1.957   3.368 -0.1921 -0.0242 -0.2062
 2457Sol     OW12867   2.472   1.134   6.838  0.5252  0.3757 -0.1781
 2457Sol     HW12868   2.490   1.091   6.922  2.1059  0.8989 -0.2323
 2457Sol     HW12869   2.377   1.130   6.829  0.4497 -0.9283  0.9739
 2457Sol     MW12870   2.465   1.129   6.845  0.1867 -0.2226  0.3959
 2458Sol     OW12871   1.221   3.268   4.440  0.2603 -0.2429  0.3347
 2458Sol     HW12872   1.194   3.356   4.465 -0.9261 -0.1479 -1.2253
 2458Sol     HW12873   1.159   3.210   4.484  0.1996 -0.2357  0.2578
 2458Sol     MW12874   1.213   3.271   4.446 -0.6960 -0.5667 -0.2877
 2459Sol     OW12875   0.603   0.633   4.742  0.0254  0.7893 -0.4285
 2459Sol     HW12876   0.631   0.704   4.684 -0.7920  1.0251 -0.5385
 2459Sol     HW12877   0.543   0.676   4.804 -0.0768  0.2942 -0.1838
 2459Sol     MW12878   0.600   0.644   4.743  0.0932 -0.1986  0.2357
 2460Sol     OW12879   3.417   2.005   7.542 -0.1611 -0.4478 -0.2604
 2460Sol     HW12880   3.498   1.959   7.564 -0.6026 -0.8424  0.5468
 2460Sol     HW12881   3.377   1.951   7.474 -0.0698 -0.5993 -0.1942
 2460Sol     MW12882   3.421   1.996   7.537 -0.6795  0.1420 -0.1661
 2461Sol     OW12883   1.014   2.009   7.823 -0.5649  0.3053  0.5134
 2461Sol     HW12884   1.077   1.944   7.791  0.2758  1.0744  0.5855
 2461Sol     HW12885   0.975   2.046   7.744  1.1940  1.8933  0.3505
 2461Sol     MW12886   1.016   2.007   7.813 -0.9974  0.7865  0.8794
 2462Sol     OW12887   0.570   2.922   7.639 -0.2875  0.4226  0.1437
 2462Sol     HW12888   0.615   3.004   7.661  0.4227  0.4572 -1.3454
 2462Sol     HW12889   0.477   2.944   7.643 -0.1977  0.4506  2.8931
 2462Sol     MW12890   0.566   2.931   7.641  0.1212  0.1505  0.7972
 2463Sol     OW12891   1.105   1.286   7.850 -0.0043 -0.3205 -0.6507
 2463Sol     HW12892   1.101   1.362   7.909 -1.0999 -1.0825  0.2900
 2463Sol     HW12893   1.170   1.228   7.890  2.1071  0.8647 -2.2995
 2463Sol     MW12894   1.111   1.287   7.859 -0.2120  0.0898  0.2501
 2464Sol     OW12895   1.884   1.781   8.242  0.4947 -0.4876 -0.0094
 2464Sol     HW12896   1.797   1.813   8.218 -0.1149 -2.0992 -0.0469
 2464Sol     HW12897   1.910   1.835   8.316 -1.0270 -0.6926  0.6941
 2464Sol     MW12898   1.878   1.788   8.247 -0.1358 -0.1000  0.2544
 2465Sol     OW12899   0.163   0.896   3.859 -0.0425  0.4761 -0.0564
 2465Sol     HW12900   0.166   0.851   3.775 -0.0462 -1.0953  0.7770
 2465Sol     HW12901   0.252   0.888   3.895 -0.1962  0.6135  0.3665
 2465Sol     MW12902   0.171   0.892   3.855 -0.7453  0.4662 -0.7234
 2466Sol     OW12903   1.155   2.332   5.006  0.1932  0.1998 -0.0258
 2466Sol     HW12904   1.077   2.382   5.030  0.2568  0.0280  0.5389
 2466Sol     HW12905   1.137   2.243   5.035 -0.4233 -0.3786 -2.1386
 2466Sol     MW12906   1.146   2.328   5.011 -1.0468  0.1135  0.6663
 2467Sol     OW12907   0.408   3.059   4.468 -0.1549 -0.0970 -0.3036
 2467Sol     HW12908   0.408   3.128   4.401  0.5995  0.4429  0.2557
 2467Sol     HW12909   0.337   3.083   4.527  1.9915  1.8627  1.5812
 2467Sol     MW12910   0.401   3.067   4.467 -0.2394 -0.5855 -0.0455
 2468Sol     OW12911   0.577   2.435   7.109 -0.2622  0.4765 -0.1279
 2468Sol     HW12912   0.585   2.341   7.127  0.7261  0.7796  1.0784
 2468Sol     HW12913   0.587   2.476   7.195  1.1720  1.8035 -0.9125
 2468Sol     MW12914   0.578   2.430   7.119  0.3947 -0.5326  1.1376
 2469Sol     OW12915   2.736   3.276   2.434 -0.1672 -0.0560  0.0619
 2469Sol     HW12916   2.797   3.308   2.501 -1.1889  0.1440  0.9080
 2469Sol     HW12917   2.792   3.235   2.368  0.7420 -1.7559  1.8585
 2469Sol     MW12918   2.746   3.275   2.434  0.0253 -0.5966 -0.3542
 2470Sol     OW12919   2.145   1.318   3.510  0.0620  0.5010  0.4334
 2470Sol     HW12920   2.235   1.347   3.500  1.3469 -3.2281  0.5207
 2470Sol     HW12921   2.120   1.346   3.599  1.7197  0.1005  1.0420
 2470Sol     MW12922   2.151   1.323   3.517 -0.1137  0.2334 -0.2337
 2471Sol     OW12923   2.197   1.028   6.832  0.0549 -0.5607  0.1979
 2471Sol     HW12924   2.135   0.962   6.801 -1.9876  1.1690  0.4883
 2471Sol     HW12925   2.165   1.110   6.795  2.3528  0.3367  0.1377
 2471Sol     MW12926   2.189   1.029   6.826 -0.0018  0.3663  0.1449
 2472Sol     OW12927   3.328   1.011   7.708  0.4896  0.3859 -0.1815
 2472Sol     HW12928   3.293   0.978   7.791  1.4682  0.2081  0.1638
 2472Sol     HW12929   3.370   1.094   7.731  1.3000  0.0403 -0.3793
 2472Sol     MW12930   3.329   1.015   7.718  0.0224 -0.6339 -0.0600
 2473Sol     OW12931   2.046   1.628   7.124 -0.1832  0.0374 -0.1519
 2473Sol     HW12932   2.122   1.589   7.168 -0.1961  0.3287  0.1344
 2473Sol     HW12933   1.996   1.554   7.091  0.1553 -0.1601 -0.2151
 2473Sol     MW12934   2.048   1.618   7.125 -0.3048  0.9778 -0.4242
 2474Sol     OW12935   2.836   0.284   6.750 -0.1613  0.1323  0.1041
 2474Sol     HW12936   2.782   0.205   6.751  0.2311 -0.2630 -3.2287
 2474Sol     HW12937   2.903   0.268   6.816 -0.3402 -2.1839 -0.2252
 2474Sol     MW12938   2.837   0.275   6.756 -0.1055  0.4613 -0.7473
 2475Sol     OW12939   1.613   1.842   8.180  0.1659 -0.0584 -0.1127
 2475Sol     HW12940   1.559   1.860   8.103  0.5289 -1.0501 -0.5998
 2475Sol     HW12941   1.576   1.762   8.217 -0.2531  0.6179  0.9768
 2475Sol     MW12942   1.605   1.837   8.176 -0.3307 -0.1014  0.3961
 2476Sol     OW12943   1.936   1.703   6.693 -0.0887 -0.1545 -0.1919
 2476Sol     HW12944   1.952   1.728   6.602  0.8840  0.8476  0.2323
 2476Sol     HW12945   1.868   1.764   6.723 -1.0799 -1.0977 -0.5196
 2476Sol     MW12946   1.931   1.711   6.688 -0.2167  0.0765 -0.0714
 2477Sol     OW12947   1.726   0.572   2.004 -0.0082  0.2508 -0.7412
 2477Sol     HW12948   1.727   0.651   2.058 -1.8835  0.2016 -0.6136
 2477Sol     HW12949   1.647   0.525   2.031  0.5756 -1.2055 -1.4888
 2477Sol     MW12950   1.719   0.575   2.011 -0.8018 -0.4101 -0.6957
 2478Sol     OW12951   3.020   2.441   7.420 -0.4578  0.0722  0.0035
 2478Sol     HW12952   2.981   2.471   7.338  2.1252  1.8513 -0.6536
 2478Sol     HW12953   3.071   2.364   7.396 -1.4421 -0.6862  0.3499
 2478Sol     MW12954   3.021   2.437   7.411 -0.7304 -0.4733  0.1077
 2479Sol     OW12955   1.214   2.413   8.500 -0.4120  0.8161  0.6591
 2479Sol     HW12956   1.153   2.485   8.517  0.4760  1.2145  2.2972
 2479Sol     HW12957   1.290   2.434   8.554  0.0946 -1.0665  0.6942
 2479Sol     MW12958   1.215   2.422   8.507  0.1790  0.2739 -0.4031
 2480Sol     OW12959   3.570   0.883   7.693  0.0666  0.6477 -0.2826
 2480Sol     HW12960   3.588   0.830   7.616  0.1266 -0.0366  0.1974
 2480Sol     HW12961   3.479   0.912   7.681  0.7023  2.2062 -1.5784
 2480Sol     MW12962   3.563   0.881   7.685  0.0269 -0.4290 -0.0861
 2481Sol     OW12963   2.397   2.576   3.287 -0.1537 -0.2151 -0.0603
 2481Sol     HW12964   2.464   2.508   3.282 -0.9954 -1.1315  1.1591
 2481Sol     HW12965   2.445   2.655   3.313  0.4933 -0.7888  0.4759
 2481Sol     MW12966   2.408   2.577   3.289  0.1367  0.6653  0.3192
 2482Sol     OW12967   0.132   2.219   5.853  0.0018  0.0530  0.2435
 2482Sol     HW12968   0.075   2.243   5.780 -0.9127  1.4454  1.4158
 2482Sol     HW12969   0.209   2.276   5.843  1.0065 -1.4806 -1.0489
 2482Sol     MW12970   0.134   2.226   5.845  0.2226 -0.2176 -0.1534
 2483Sol     OW12971   2.328   2.311   6.983 -0.4282 -0.3972  0.1562
 2483Sol     HW12972   2.390   2.371   7.025 -0.9389  2.1966 -2.5920
 2483Sol     HW12973   2.383   2.255   6.928 -0.2511  0.1090 -0.1913
 2483Sol     MW12974   2.339   2.312   6.982 -0.3262  0.1034 -0.5072
 2484Sol     OW12975   1.057   2.389   7.745  0.4797 -0.4654  0.7115
 2484Sol     HW12976   1.104   2.346   7.673  0.2824 -0.0054  0.3017
 2484Sol     HW12977   0.965   2.366   7.730  0.3358  0.3563  0.3052
 2484Sol     MW12978   1.053   2.383   7.737  0.0208  0.0762  0.1914
 2485Sol     OW12979   3.289   2.152   6.098 -0.1900 -0.1670  0.4110
 2485Sol     HW12980   3.361   2.138   6.037  0.3754  0.1682  0.9899
 2485Sol     HW12981   3.227   2.207   6.050 -0.5242 -1.2626 -0.4276
 2485Sol     MW12982   3.290   2.156   6.089 -0.6793  0.2572  0.4360
 2486Sol     OW12983   1.939   0.938   4.323 -0.0278 -0.4240 -0.5238
 2486Sol     HW12984   2.009   1.003   4.324  0.3881 -0.8703 -0.4267
 2486Sol     HW12985   1.985   0.854   4.324 -0.5861 -0.7165  0.3869
 2486Sol     MW12986   1.950   0.936   4.323  1.0726 -0.8310  0.5119
 2487Sol     OW12987   2.704   0.944   1.506  0.1161 -0.8544  0.1158
 2487Sol     HW12988   2.692   1.033   1.541  0.3788 -0.2677 -1.2471
 2487Sol     HW12989   2.634   0.893   1.546 -0.4492  0.1332  0.4081
 2487Sol     MW12990   2.697   0.948   1.512  0.3879  0.3477  0.4510
 2488Sol     OW12991   3.385   2.782   2.263  0.2847 -0.4718  0.3354
 2488Sol     HW12992   3.327   2.706   2.274  0.3769 -0.7347 -0.9035
 2488Sol     HW12993   3.330   2.857   2.286  0.4118 -0.9535  2.3007
 2488Sol     MW12994   3.375   2.782   2.266 -0.0894  0.2531 -1.0827
 2489Sol     OW12995   1.488   2.497   2.399 -0.0530 -0.2297  0.3081
 2489Sol     HW12996   1.526   2.486   2.311 -1.3963  0.8619 -0.4314
 2489Sol     HW12997   1.540   2.566   2.439  0.5150 -0.6771  0.3465
 2489Sol     MW12998   1.496   2.502   2.395 -0.0410  0.2095 -0.1131
 2490Sol     OW12999   0.819   2.609   3.292 -0.1599 -0.2836 -0.4935
 2490Sol     HW13000   0.839   2.532   3.345 -4.0024 -1.3803 -0.4801
 2490Sol     HW13001   0.796   2.677   3.355 -2.1334 -0.7936 -0.6457
 2490Sol     MW13002   0.819   2.608   3.302  0.0299  0.1393  0.2550
 2491Sol     OW13003   2.342   0.874   3.997  0.4330  0.0037  0.1285
 2491Sol     HW13004   2.325   0.946   4.058  1.4643 -1.1403  1.7961
 2491Sol     HW13005   2.328   0.912   3.911 -0.5453  1.7933  1.0455
 2491Sol     MW13006   2.339   0.884   3.995 -0.3869  0.0995 -0.0420
 2492Sol     OW13007   1.314   1.752   5.380 -0.4153  0.2364  0.0873
 2492Sol     HW13008   1.259   1.800   5.441  0.5927  1.2041  0.2494
 2492Sol     HW13009   1.374   1.817   5.344 -0.0236 -0.6059 -0.8261
 2492Sol     MW13010   1.315   1.762   5.382  0.5323  0.3916 -0.1043
 2493Sol     OW13011   2.811   0.058   7.595 -0.0789 -0.4714 -0.0272
 2493Sol     HW13012   2.785   0.146   7.566 -0.0573 -0.5752 -0.3564
 2493Sol     HW13013   2.797   0.060   7.690  0.7203  0.1684  0.0830
 2493Sol     MW13014   2.807   0.066   7.601 -0.6000  0.1723  0.2954
 2494Sol     OW13015   3.025   0.099   3.724 -0.0517  0.4451  0.3691
 2494Sol     HW13016   3.087   0.132   3.659  0.5398  0.1727  0.7898
 2494Sol     HW13017   3.080   0.055   3.789 -0.4810  1.9847  1.8221
 2494Sol     MW13018   3.035   0.098   3.724 -0.6135  0.0003  0.5451
 2495Sol     OW13019   2.978   3.205   4.529  0.2383 -0.4374  0.0366
 2495Sol     HW13020   2.883   3.204   4.521  0.2778  1.0033 -0.8533
 2495Sol     HW13021   3.003   3.113   4.535 -1.0359 -0.9653 -2.1704
 2495Sol     MW13022   2.972   3.197   4.529  0.0347  0.1023  0.2256
 2496Sol     OW13023   0.822   1.769   4.541 -0.0973  0.3075  0.1049
 2496Sol     HW13024   0.832   1.838   4.606 -1.3381  0.1777  0.4464
 2496Sol     HW13025   0.756   1.802   4.481 -0.9035 -0.6815  0.4253
 2496Sol     MW13026   0.817   1.778   4.542  0.0457  0.3603 -0.9659
 2497Sol     OW13027   2.025   1.712   1.379 -0.1584  0.3670  0.0825
 2497Sol     HW13028   1.935   1.716   1.346 -0.3505 -0.3309  0.5185
 2497Sol     HW13029   2.044   1.619   1.386  0.6893  0.5097 -0.2422
 2497Sol     MW13030   2.018   1.704   1.376 -0.0419 -0.3110  0.1318
 2498Sol     OW13031   3.509   2.956   1.949  0.1549  0.0214  0.0427
 2498Sol     HW13032   3.569   3.019   1.909 -0.3300  0.5774  0.1804
 2498Sol     HW13033   3.555   2.923   2.026  0.3364  0.3422  0.0711
 2498Sol     MW13034   3.518   2.958   1.952  0.3685  0.4829  0.1985
 2499Sol     OW13035   0.056   0.849   5.973 -0.2768 -0.1749 -0.4728
 2499Sol     HW13036   0.106   0.767   5.981  0.3524  0.2693  0.2932
 2499Sol     HW13037   0.006   0.854   6.054  1.9075  1.6243  0.8514
 2499Sol     MW13038   0.056   0.842   5.981  0.3941  0.0222 -0.1085
 2500Sol     OW13039   2.909   3.233   5.743 -0.4307 -0.1511 -0.2512
 2500Sol     HW13040   2.963   3.158   5.767  0.8186  0.9965  0.5918
 2500Sol     HW13041   2.844   3.198   5.682  2.0465 -1.3079 -2.2739
 2500Sol     MW13042   2.908   3.223   5.740  0.1622  0.2973  0.0415
 2501Sol     OW13043   3.192   0.628   2.595 -0.1622  0.6666 -0.2732
 2501Sol     HW13044   3.208   0.545   2.550  0.7464 -0.6410  2.3707
 2501Sol     HW13045   3.125   0.671   2.542 -0.2006 -1.4562 -2.0302
 2501Sol     MW13046   3.188   0.624   2.586  0.3682 -0.6693 -0.1580
 2502Sol     OW13047   2.409   0.879   2.724  0.5680 -0.3777  0.4593
 2502Sol     HW13048   2.439   0.878   2.633  1.6333 -0.5426  0.8031
 2502Sol     HW13049   2.317   0.851   2.720  0.5825 -0.2809 -0.5691
 2502Sol     MW13050   2.403   0.876   2.716 -0.0615 -0.7969  1.3845
 2503Sol     OW13051   2.642   1.862   2.904 -0.1241 -0.0445  0.5208
 2503Sol     HW13052   2.573   1.894   2.961 -0.9713 -0.7265 -0.1117
 2503Sol     HW13053   2.675   1.940   2.860 -1.9769  0.0200 -0.8044
 2503Sol     MW13054   2.639   1.872   2.905  0.0554  0.3297  0.4034
 2504Sol     OW13055   0.855   2.574   1.946  0.0019 -0.2174 -0.5824
 2504Sol     HW13056   0.933   2.611   1.985 -0.7944  0.5077  0.3484
 2504Sol     HW13057   0.796   2.648   1.934 -0.4798 -0.7236 -1.4410
 2504Sol     MW13058   0.856   2.584   1.948 -0.4075  0.6324  0.1430
 2505Sol     OW13059   2.577   0.709   6.793 -0.2516 -0.5486  0.0882
 2505Sol     HW13060   2.636   0.641   6.826 -0.9704 -1.0681  0.3174
 2505Sol     HW13061   2.493   0.689   6.833 -0.6606  0.0047 -0.4880
 2505Sol     MW13062   2.575   0.701   6.800  0.1232 -0.3119 -0.0003
 2506Sol     OW13063   0.436   0.141   8.575 -0.6302  0.2675 -0.4143
 2506Sol     HW13064   0.374   0.201   8.534 -1.5485  0.5643  1.3644
 2506Sol     HW13065   0.479   0.193   8.643 -0.5940 -0.7642  0.3706
 2506Sol     MW13066   0.435   0.151   8.577 -0.3970 -0.2370  0.5123
 2507Sol     OW13067   1.189   2.865   5.976  0.5651  0.1496  0.6786
 2507Sol     HW13068   1.137   2.850   5.897  0.5062  0.2862  0.6918
 2507Sol     HW13069   1.220   2.955   5.968  0.9335  0.0137  0.5952
 2507Sol     MW13070   1.187   2.871   5.968  0.0318  0.2853 -0.0704
 2508Sol     OW13071   1.939   2.813   5.895  0.3581  0.4325  0.4487
 2508Sol     HW13072   1.951   2.719   5.888  1.5162  0.6850 -1.6080
 2508Sol     HW13073   2.026   2.846   5.918  0.3610  1.1235 -0.5120
 2508Sol     MW13074   1.948   2.808   5.896  0.5229 -0.3119  0.2842
 2509Sol     OW13075   2.068   3.174   2.358 -0.2104 -0.0883 -0.3362
 2509Sol     HW13076   2.155   3.140   2.339 -0.5678 -0.8924 -0.5184
 2509Sol     HW13077   2.067   3.261   2.317  0.4909 -0.0841 -0.3562
 2509Sol     MW13078   2.076   3.179   2.353  0.8723  0.2636 -0.3231
 2510Sol     OW13079   2.823   3.387   3.038 -0.1772 -0.1138  0.4167
 2510Sol     HW13080   2.787   3.447   3.104 -0.8964  0.9917 -0.9576
 2510Sol     HW13081   2.867   3.444   2.975  1.2215 -1.2249  0.3619
 2510Sol     MW13082   2.823   3.398   3.038 -0.4797 -0.0703  0.1502
 2511Sol     OW13083   0.472   1.213   4.868  0.2001  0.5412  0.5796
 2511Sol     HW13084   0.533   1.283   4.846  1.1267 -1.0189 -2.0615
 2511Sol     HW13085   0.392   1.234   4.820  0.7726 -0.6214 -0.9304
 2511Sol     MW13086   0.470   1.221   4.862 -0.0883 -0.4557  0.2861
 2512Sol     OW13087   0.248   3.385   4.823 -0.3001  0.5141 -0.3012
 2512Sol     HW13088   0.334   3.371   4.783 -0.1892  2.8744 -0.9335
 2512Sol     HW13089   0.260   3.358   4.914  0.6867 -0.5945 -0.7405
 2512Sol     MW13090   0.257   3.381   4.828  0.0029 -0.2177  0.3552
 2513Sol     OW13091   0.350   2.713   5.897 -0.1463  0.0042  0.0695
 2513Sol     HW13092   0.310   2.647   5.954  0.3695 -0.0117  0.4191
 2513Sol     HW13093   0.328   2.686   5.809  3.4734 -2.9285 -0.0291
 2513Sol     MW13094   0.344   2.705   5.895  0.6741 -0.2879 -0.0504
 2514Sol     OW13095   1.686   3.199   6.928  0.0116 -0.1197 -0.4129
 2514Sol     HW13096   1.623   3.225   6.995  2.0967  0.1751  1.5298
 2514Sol     HW13097   1.670   3.106   6.915  1.0876 -0.7332  2.2661
 2514Sol     MW13098   1.679   3.193   6.933 -0.1941 -0.5408  0.1642
 2515Sol     OW13099   1.550   2.784   7.045 -0.0193 -0.0160  0.6241
 2515Sol     HW13100   1.625   2.724   7.045  0.2116  0.2491  2.2105
 2515Sol     HW13101   1.473   2.726   7.047  0.0665 -0.3177 -2.4312
 2515Sol     MW13102   1.550   2.773   7.045  0.1603 -0.2239  0.1181
 2516Sol     OW13103   3.477   2.059   5.916  0.3250  0.6199  0.3587
 2516Sol     HW13104   3.479   2.003   5.839 -0.6313 -0.9128  1.4023
 2516Sol     HW13105   3.550   2.120   5.904 -0.3100  0.9284 -2.1155
 2516Sol     MW13106   3.484   2.059   5.908  0.2067 -0.4086 -0.6653
 2517Sol     OW13107   2.806   2.710   2.100 -0.5501  0.2773 -0.6545
 2517Sol     HW13108   2.732   2.728   2.157  2.0383  1.6097  2.4316
 2517Sol     HW13109   2.829   2.619   2.119  1.0739  1.0946  1.3996
 2517Sol     MW13110   2.802   2.703   2.107  0.1787 -0.3031 -0.3640
 2518Sol     OW13111   3.046   1.203   3.394 -0.3588 -0.0885 -0.2950
 2518Sol     HW13112   2.974   1.254   3.431  1.5837  0.9891  2.0894
 2518Sol     HW13113   3.054   1.127   3.451  0.5915 -0.0500 -0.3623
 2518Sol     MW13114   3.040   1.201   3.402 -0.2063 -0.3875  0.1608
 2519Sol     OW13115   3.006   0.121   1.467  0.3216 -0.2312 -0.1190
 2519Sol     HW13116   2.941   0.058   1.500 -0.5746  1.6019  1.7014
 2519Sol     HW13117   3.082   0.067   1.445 -1.5339 -2.3437 -1.6135
 2519Sol     MW13118   3.007   0.111   1.468 -0.1909 -0.4526 -0.5045
 2520Sol     OW13119   1.146   2.542   5.785 -0.1113  0.9721 -0.3249
 2520Sol     HW13120   1.084   2.564   5.855 -2.2355  0.2936 -1.9648
 2520Sol     HW13121   1.152   2.447   5.788 -1.1859  0.8456 -1.8684
 2520Sol     MW13122   1.141   2.536   5.792 -0.3146  0.3717 -0.1557
 2521Sol     OW13123   0.373   1.477   3.039  0.4088  0.3859  0.2561
 2521Sol     HW13124   0.350   1.489   2.947 -2.1780  1.0196  0.9450
 2521Sol     HW13125   0.303   1.422   3.074  0.5325  1.4292  2.2080
 2521Sol     MW13126   0.365   1.473   3.033 -0.0957 -1.2761 -0.1306
 2522Sol     OW13127   2.201   0.051   3.926 -0.8037  0.2806  0.4740
 2522Sol     HW13128   2.223   0.118   3.861 -0.2030  0.6074  1.0043
 2522Sol     HW13129   2.237  -0.030   3.891 -0.7605  0.3992  0.2455
 2522Sol     MW13130   2.206   0.050   3.917  0.1820 -0.2695  0.1376
 2523Sol     OW13131   1.592   2.459   6.302 -0.4402 -0.1353 -0.3833
 2523Sol     HW13132   1.679   2.498   6.299 -0.6939  0.3865 -1.9822
 2523Sol     HW13133   1.607   2.365   6.300  0.1159 -0.0607  0.4843
 2523Sol     MW13134   1.601   2.454   6.301  0.4443  0.9693  0.2421
 2524Sol     OW13135   1.204   3.253   2.617  0.0136  0.3369 -0.2115
 2524Sol     HW13136   1.285   3.297   2.643  0.4981 -0.7895  0.2343
 2524Sol     HW13137   1.168   3.307   2.547  0.9237  1.0942 -0.0977
 2524Sol     MW13138   1.208   3.261   2.613 -0.3125  0.2971  0.5964
 2525Sol     OW13139   3.297   0.365   7.138  0.1293 -0.3165 -0.1592
 2525Sol     HW13140   3.360   0.312   7.090 -0.9622 -1.2640 -0.5660
 2525Sol     HW13141   3.259   0.422   7.072  0.9326  0.6334  0.1853
 2525Sol     MW13142   3.299   0.365   7.128 -0.7940  0.4621 -0.2917
 2526Sol     OW13143   1.491   0.446   4.065  0.1874 -0.1330 -0.3881
 2526Sol     HW13144   1.584   0.461   4.082 -0.0160  0.9220 -0.1624
 2526Sol     HW13145   1.448   0.469   4.148 -0.5172  2.0089 -1.3104
 2526Sol     MW13146   1.496   0.449   4.074 -0.5928 -0.8606  0.0615
 2527Sol     OW13147   1.951   0.116   8.622 -0.1823 -0.9091 -0.0202
 2527Sol     HW13148   2.012   0.043   8.620 -0.1479 -0.8735 -0.2929
 2527Sol     HW13149   1.982   0.175   8.553  0.0009 -0.4684  0.4296
 2527Sol     MW13150   1.959   0.115   8.616  0.6801  0.4112 -0.4794
 2528Sol     OW13151   0.461   0.377   6.910  0.4144 -0.1764 -0.5725
 2528Sol     HW13152   0.392   0.345   6.968  0.3465 -0.2055 -0.6691
 2528Sol     HW13153   0.418   0.441   6.854  1.0341  1.7152  1.0915
 2528Sol     MW13154   0.451   0.380   6.910 -0.3195 -0.2054  0.1754
 2529Sol     OW13155   2.218   0.645   4.090 -0.2350 -0.0192  0.0157
 2529Sol     HW13156   2.263   0.565   4.064 -1.3668 -0.5480 -0.2957
 2529Sol     HW13157   2.275   0.715   4.058 -0.6756 -0.6674 -2.2748
 2529Sol     MW13158   2.227   0.644   4.085  0.1431  0.4970  0.1565
 2530Sol     OW13159   0.974   1.545   4.529 -0.8395 -0.7772 -0.1348
 2530Sol     HW13160   0.930   1.630   4.533  1.7259  0.6683 -1.3828
 2530Sol     HW13161   0.961   1.516   4.438  0.6301 -0.3908 -0.4823
 2530Sol     MW13162   0.969   1.550   4.521  0.3175 -0.8274  1.2721
 2531Sol     OW13163   0.350   1.800   3.730  0.0571 -0.9736 -0.1661
 2531Sol     HW13164   0.272   1.790   3.676  0.2472 -0.3574 -0.5586
 2531Sol     HW13165   0.332   1.875   3.786  0.2018 -1.0853  0.0324
 2531Sol     MW13166   0.342   1.806   3.730  0.4271 -0.9809  0.4875
 2532Sol     OW13167   2.537   1.103   8.527 -0.6527 -0.6698 -0.9405
 2532Sol     HW13168   2.456   1.089   8.479 -1.9859  1.6521  0.5672
 2532Sol     HW13169   2.553   1.020   8.571 -1.8347 -1.3609 -1.7823
 2532Sol     MW13170   2.531   1.094   8.527 -0.9026 -0.2066 -0.0004
 2533Sol     OW13171   3.090   3.067   2.874  0.2824  0.1569  0.4191
 2533Sol     HW13172   3.004   3.082   2.912 -0.8976 -2.1914 -1.2127
 2533Sol     HW13173   3.137   3.149   2.888 -2.7858  2.0997 -0.2239
 2533Sol     MW13174   3.087   3.076   2.878 -0.2303 -0.2694  0.1207
 2534Sol     OW13175   3.438   2.917   6.199  0.2730  0.4839  0.1216
 2534Sol     HW13176   3.465   2.845   6.257  0.7001  0.5020 -0.0542
 2534Sol     HW13177   3.463   2.996   6.246 -0.0173  0.5178  0.2252
 2534Sol     MW13178   3.442   2.918   6.209  0.0061  0.0942  0.2859
 2535Sol     OW13179   0.256   0.937   2.984  0.0618 -0.1776 -0.0934
 2535Sol     HW13180   0.203   1.003   3.029  0.0345  0.6905 -1.3659
 2535Sol     HW13181   0.246   0.958   2.891  1.3461 -0.9995 -0.4290
 2535Sol     MW13182   0.250   0.945   2.979  0.1647 -0.0116  0.2421
 2536Sol     OW13183   3.075   0.465   3.488 -1.1773  0.8521  0.5969
 2536Sol     HW13184   3.157   0.509   3.464 -2.3572  2.9945  0.3929
 2536Sol     HW13185   3.056   0.408   3.412 -0.2772  0.8944  0.3314
 2536Sol     MW13186   3.080   0.463   3.479 -0.2907  0.2997 -0.0288
 2537Sol     OW13187   0.956   3.184   1.770 -0.2117  0.4090 -0.1744
 2537Sol     HW13188   0.959   3.279   1.779 -0.4045  0.4034 -0.0593
 2537Sol     HW13189   0.929   3.169   1.680 -1.5178  0.4637  0.1937
 2537Sol     MW13190   0.954   3.191   1.763 -0.3444 -0.1756  0.1202
 2538Sol     OW13191   1.459   2.597   3.304 -0.5113  0.4381  0.1708
 2538Sol     HW13192   1.380   2.582   3.356  0.4563 -1.4420  1.1134
 2538Sol     HW13193   1.427   2.605   3.214 -1.7892 -0.2167  0.5608
 2538Sol     MW13194   1.449   2.596   3.301 -0.1691 -0.3931 -0.3743
 2539Sol     OW13195   0.550   1.588   7.244 -1.0881  0.1158  0.7649
 2539Sol     HW13196   0.461   1.592   7.279 -1.0437 -0.7574  0.9919
 2539Sol     HW13197   0.593   1.520   7.296 -0.0862  1.0122  1.1076
 2539Sol     MW13198   0.546   1.582   7.252 -0.4222 -0.5410  0.2734
 2540Sol     OW13199   2.554   2.018   7.499 -0.0384 -0.0688  0.4670
 2540Sol     HW13200   2.550   1.928   7.531 -1.1868 -0.0376  0.4337
 2540Sol     HW13201   2.521   2.013   7.410 -1.3695  0.5821  0.9123
 2540Sol     MW13202   2.551   2.009   7.494  0.1382 -0.2084  0.0421
 2541Sol     OW13203   2.497   3.282   6.784 -0.3343  0.1006  0.0563
 2541Sol     HW13204   2.414   3.263   6.741 -2.5347  2.1818  3.1188
 2541Sol     HW13205   2.497   3.226   6.862  0.1911  1.4500  1.0582
 2541Sol     MW13206   2.489   3.276   6.787 -0.3052  0.2477  0.2464
 2542Sol     OW13207   1.503   2.489   1.891  0.0233 -0.2097  0.5341
 2542Sol     HW13208   1.526   2.398   1.872  3.4108 -0.1416  3.8597
 2542Sol     HW13209   1.573   2.541   1.850  0.5946  0.6226  2.5283
 2542Sol     MW13210   1.511   2.486   1.885 -0.1369 -0.1662  0.1980
 2543Sol     OW13211   3.111   0.819   3.244  0.4435  0.3669 -0.0896
 2543Sol     HW13212   3.188   0.826   3.301  0.1149  1.2482  0.2521
 2543Sol     HW13213   3.037   0.816   3.304  0.2541 -1.4526 -0.3841
 2543Sol     MW13214   3.111   0.819   3.254  0.5047  0.7448  0.1845
 2544Sol     OW13215   2.008   3.080   2.930  0.4797 -0.5127 -0.2679
 2544Sol     HW13216   2.012   3.056   3.023  1.2698 -0.9877 -0.4238
 2544Sol     HW13217   2.098   3.075   2.900  0.3411  0.4116 -0.8777
 2544Sol     MW13218   2.016   3.078   2.936  0.2315  0.5016 -0.2719
 2545Sol     OW13219   1.604   0.889   3.723  0.0917  0.2773  0.1762
 2545Sol     HW13220   1.695   0.902   3.753  0.0156  2.6939 -0.5117
 2545Sol     HW13221   1.571   0.818   3.779  2.5153 -0.9438  0.1640
 2545Sol     MW13222   1.609   0.884   3.731  0.0949  0.7120 -0.5121
 2546Sol     OW13223   2.850   1.913   4.264 -0.1945  0.3772  0.1168
 2546Sol     HW13224   2.837   1.952   4.178  2.7767  0.1981 -0.4573
 2546Sol     HW13225   2.875   1.986   4.321  1.9553 -0.1006 -0.1671
 2546Sol     MW13226   2.851   1.923   4.261 -0.4217 -0.1245  0.3890
 2547Sol     OW13227   0.507   0.722   2.788 -0.5501  0.5304  0.2696
 2547Sol     HW13228   0.458   0.710   2.869 -0.5668  0.3328  0.2301
 2547Sol     HW13229   0.534   0.634   2.763  1.8169  0.8802  1.5190
 2547Sol     MW13230   0.505   0.713   2.793  0.5209 -0.4994  0.3839
 2548Sol     OW13231   1.157   1.161   7.555  0.1508 -0.2417  0.5511
 2548Sol     HW13232   1.158   1.150   7.460 -0.6130  0.2456  0.4903
 2548Sol     HW13233   1.215   1.092   7.587  2.7500  1.3991 -0.4553
 2548Sol     MW13234   1.163   1.154   7.550  0.0335 -0.0569  0.0791
 2549Sol     OW13235   0.672   0.952   6.398  0.2636 -0.1796  0.3641
 2549Sol     HW13236   0.701   0.936   6.488  1.2962 -0.2261  0.0248
 2549Sol     HW13237   0.731   1.019   6.365  0.2471 -0.5660 -0.4631
 2549Sol     MW13238   0.680   0.956   6.403 -0.3088  0.3071 -1.2659
 2550Sol     OW13239   0.612   2.285   8.679  0.6208  0.0478  0.1813
 2550Sol     HW13240   0.572   2.244   8.602 -1.3825 -0.5527  1.4981
 2550Sol     HW13241   0.618   2.214   8.743 -0.2019  1.1282  1.4889
 2550Sol     MW13242   0.609   2.275   8.678  0.0073  0.2347 -0.9218
 2551Sol     OW13243   2.699   3.141   2.749 -0.0032 -0.7934  0.4865
 2551Sol     HW13244   2.771   3.144   2.687 -0.8847 -0.4858 -0.5462
 2551Sol     HW13245   2.738   3.113   2.831  1.0392 -2.0209 -0.4199
 2551Sol     MW13246   2.709   3.139   2.751  0.1693  0.7893  0.2934
 2552Sol     OW13247   1.571   0.135   3.689 -0.7057  0.6809  0.3372
 2552Sol     HW13248   1.643   0.148   3.751 -1.3501  0.3908  1.1597
 2552Sol     HW13249   1.518   0.214   3.697 -0.8528  0.5915  0.2346
 2552Sol     MW13250   1.573   0.143   3.695  0.0129 -0.5989  0.2679
 2553Sol     OW13251   0.934   3.121   1.509 -0.4332  0.2741 -0.2842
 2553Sol     HW13252   0.869   3.051   1.511 -0.3851  0.2376  2.2554
 2553Sol     HW13253   1.014   3.080   1.540 -0.4973  1.4937  1.6052
 2553Sol     MW13254   0.935   3.111   1.512 -0.2037  0.2594  0.1752
 2554Sol     OW13255   2.464   0.145   6.162 -0.2302  0.0230 -0.0460
 2554Sol     HW13256   2.472   0.188   6.077 -1.2857 -2.3916 -1.4199
 2554Sol     HW13257   2.380   0.175   6.196  0.9846  2.3635  0.9853
 2554Sol     MW13258   2.457   0.151   6.157 -0.6620  0.5292 -0.4417
 2555Sol     OW13259   1.053   2.488   5.531 -0.2179 -0.1975  0.0693
 2555Sol     HW13260   1.074   2.514   5.621  0.1891 -2.1852  0.5739
 2555Sol     HW13261   1.138   2.472   5.490 -0.4558 -0.8398 -0.1857
 2555Sol     MW13262   1.062   2.489   5.535 -0.1658 -1.2348  0.4864
 2556Sol     OW13263   2.571   2.474   1.716  0.3436 -0.5358  0.3780
 2556Sol     HW13264   2.491   2.421   1.726 -0.2989  0.5662  1.2476
 2556Sol     HW13265   2.547   2.541   1.652  1.2565 -1.4873 -0.9661
 2556Sol     MW13266   2.561   2.475   1.711 -0.4172 -0.1364 -0.2709
 2557Sol     OW13267   2.850   3.368   4.136  0.3636 -0.0490 -0.1744
 2557Sol     HW13268   2.943   3.353   4.154  0.5777  2.3233  0.8996
 2557Sol     HW13269   2.809   3.283   4.150  2.2939 -0.9813 -0.0294
 2557Sol     MW13270   2.855   3.359   4.139 -0.0007  0.9402 -0.0273
 2558Sol     OW13271   2.141   0.734   7.255  0.0013  0.0320 -0.4852
 2558Sol     HW13272   2.109   0.804   7.198  1.7489  0.6021 -0.7884
 2558Sol     HW13273   2.228   0.764   7.283 -0.4697 -0.6366  1.7875
 2558Sol     MW13274   2.146   0.743   7.252  0.5395 -0.3146  0.3919
 2559Sol     OW13275   1.792   2.812   6.142 -0.6839 -0.5277  0.6515
 2559Sol     HW13276   1.863   2.802   6.079 -0.4217  1.4387  0.6054
 2559Sol     HW13277   1.713   2.802   6.090 -0.4721  1.1654 -0.0308
 2559Sol     MW13278   1.792   2.810   6.132  0.2617 -0.2079 -0.0072
 2560Sol     OW13279   2.651   1.070   1.245 -0.0805  0.0775  0.7211
 2560Sol     HW13280   2.693   1.047   1.328  0.7117  1.0724  0.5949
 2560Sol     HW13281   2.714   1.044   1.178 -0.4229 -0.0755  0.4566
 2560Sol     MW13282   2.660   1.065   1.246 -0.4223 -0.0110 -0.2627
 2561Sol     OW13283   0.393   1.344   1.577  0.2517 -0.6222  0.3188
 2561Sol     HW13284   0.446   1.275   1.538  0.5430 -0.6696  0.7942
 2561Sol     HW13285   0.305   1.307   1.581  0.2199 -0.6255 -0.2684
 2561Sol     MW13286   0.390   1.335   1.574  0.3166  0.2474  1.3460
 2562Sol     OW13287   1.294   2.207   7.125  0.1574  0.2945  0.3381
 2562Sol     HW13288   1.354   2.209   7.050 -0.5613  1.9498 -0.2146
 2562Sol     HW13289   1.341   2.251   7.195  0.3533 -0.1554  0.4870
 2562Sol     MW13290   1.304   2.211   7.124 -0.6840  0.0866 -0.5672
 2563Sol     OW13291   2.611   1.923   4.548  0.1244 -0.6650 -0.0974
 2563Sol     HW13292   2.695   1.880   4.562  0.7260  0.5932  0.2128
 2563Sol     HW13293   2.610   1.945   4.454  0.5898  0.2238  0.0983
 2563Sol     MW13294   2.619   1.921   4.541 -0.1143 -0.2509  0.1005
 2564Sol     OW13295   2.033   1.787   3.845  0.6019  0.6482 -0.2130
 2564Sol     HW13296   2.010   1.858   3.786  0.0383 -0.5227 -1.4204
 2564Sol     HW13297   1.975   1.715   3.820  2.3551 -0.8130 -0.1838
 2564Sol     MW13298   2.026   1.787   3.838 -0.5708  0.1117  0.6536
 2565Sol     OW13299   1.981   2.221   2.721  0.3630 -0.5254 -0.8520
 2565Sol     HW13300   1.997   2.301   2.671  2.1347  0.9367  1.9334
 2565Sol     HW13301   1.911   2.245   2.782  1.2881 -0.9011  0.3725
 2565Sol     MW13302   1.976   2.231   2.722  0.5902  0.3055  0.2472
 2566Sol     OW13303   0.632   0.318   6.347 -0.1191 -0.3833 -0.6473
 2566Sol     HW13304   0.557   0.354   6.299 -0.6033 -1.0139 -0.3788
 2566Sol     HW13305   0.609   0.226   6.361  0.1688 -0.2957  0.4728
 2566Sol     MW13306   0.623   0.313   6.344  0.5126 -0.0156 -0.7767
 2567Sol     OW13307   3.213   1.128   3.147 -0.0241  0.5431 -0.4377
 2567Sol     HW13308   3.154   1.135   3.222 -0.3519  0.6377 -0.7046
 2567Sol     HW13309   3.184   1.049   3.101  0.7788 -0.0457  0.0592
 2567Sol     MW13310   3.205   1.121   3.150 -0.0923 -0.6931  0.0862
 2568Sol     OW13311   2.072   0.306   1.102 -0.5996  1.1306  0.0881
 2568Sol     HW13312   2.118   0.222   1.104 -0.6657  1.0113 -1.8928
 2568Sol     HW13313   1.990   0.289   1.148 -0.0828  0.4474  0.7808
 2568Sol     MW13314   2.069   0.297   1.106 -0.4479 -0.1001 -0.7732
 2569Sol     OW13315   2.935   1.579   1.443 -0.5078  0.2679 -0.8251
 2569Sol     HW13316   2.987   1.591   1.522 -1.2914 -2.6701  0.2018
 2569Sol     HW13317   2.864   1.642   1.450  0.2739  1.0629  0.0593
 2569Sol     MW13318   2.933   1.586   1.450  0.0878  0.2566 -0.2346
 2570Sol     OW13319   3.177   2.044   7.969 -0.2183  0.4694 -0.1582
 2570Sol     HW13320   3.172   2.027   7.875  0.3933 -0.6058 -0.0093
 2570Sol     HW13321   3.232   2.121   7.977 -0.0318  0.3904 -0.6591
 2570Sol     MW13322   3.181   2.049   7.961 -0.4957  0.3032  0.6232
 2571Sol     OW13323   2.975   2.976   3.747  0.1730 -0.1936  0.4055
 2571Sol     HW13324   3.070   2.975   3.762  0.5567 -1.4681 -1.8611
 2571Sol     HW13325   2.961   3.053   3.693 -0.0758 -0.0389  0.6936
 2571Sol     MW13326   2.983   2.983   3.743 -0.0073  0.2143 -0.6900
 2572Sol     OW13327   1.673   0.247   4.293  0.4448  0.6086 -0.1449
 2572Sol     HW13328   1.680   0.270   4.385  0.9558  0.8319 -0.2358
 2572Sol     HW13329   1.603   0.182   4.289  1.1962 -0.2430  0.5448
 2572Sol     MW13330   1.667   0.244   4.301 -0.1629  0.5218 -0.7234
 2573Sol     OW13331   1.604   1.153   2.572  0.6694 -0.4395  0.0561
 2573Sol     HW13332   1.519   1.130   2.610  1.2229 -1.6501  0.6050
 2573Sol     HW13333   1.663   1.084   2.603  1.6797 -0.0418 -0.9590
 2573Sol     MW13334   1.602   1.145   2.578  0.4715 -0.1462 -0.1226
 2574Sol     OW13335   2.340   2.532   4.316  0.4702  0.2804 -0.2433
 2574Sol     HW13336   2.397   2.609   4.315 -0.7161  1.2213  1.7865
 2574Sol     HW13337   2.314   2.522   4.407 -0.5845 -1.6470 -0.7271
 2574Sol     MW13338   2.343   2.538   4.324 -0.1399  0.1038 -0.2457
 2575Sol     OW13339   1.837   0.009   1.864  0.2928  0.3011  0.0286
 2575Sol     HW13340   1.868  -0.081   1.870 -0.4758  0.0847  0.9164
 2575Sol     HW13341   1.776   0.018   1.937 -0.2864  1.2846 -0.5684
 2575Sol     MW13342   1.834   0.002   1.871 -0.8608 -0.3194  1.2363
 2576Sol     OW13343   1.603   3.038   3.046 -0.5876 -0.3407 -0.5413
 2576Sol     HW13344   1.513   3.028   3.015  0.1899  0.0322 -3.0066
 2576Sol     HW13345   1.639   2.949   3.044 -0.9811 -0.5461  0.7910
 2576Sol     MW13346   1.598   3.029   3.043  0.4061 -0.3028 -0.1013
 2577Sol     OW13347   2.572   1.120   3.480  0.0300 -0.4848  0.4754
 2577Sol     HW13348   2.619   1.134   3.562 -1.7885  1.1736  1.2752
 2577Sol     HW13349   2.492   1.073   3.506 -0.0623 -0.8875 -0.4973
 2577Sol     MW13350   2.569   1.117   3.489  0.6636  0.4327  0.5170
 2578Sol     OW13351   2.342   2.087   1.494  0.2716  0.2282  0.2460
 2578Sol     HW13352   2.383   2.000   1.503 -1.7962 -0.8979 -1.0122
 2578Sol     HW13353   2.379   2.137   1.567  2.6967 -1.2118  0.0772
 2578Sol     MW13354   2.349   2.083   1.502 -0.0467  0.0841 -0.1437
 2579Sol     OW13355   3.461   2.395   7.781 -0.2870  0.2142 -0.1351
 2579Sol     HW13356   3.510   2.470   7.748  0.2676 -0.8433 -1.7114
 2579Sol     HW13357   3.509   2.319   7.752 -1.7157 -0.8072  0.1060
 2579Sol     MW13358   3.469   2.395   7.776 -0.2866  0.0621  0.5189
 2580Sol     OW13359   3.472   1.647   4.223  0.7122 -0.0902  0.0135
 2580Sol     HW13360   3.432   1.638   4.309 -0.3887  2.0466 -0.2284
 2580Sol     HW13361   3.435   1.576   4.171 -2.2614  1.3333  0.0329
 2580Sol     MW13362   3.465   1.640   4.226  0.2431  0.2757  0.1908
 2581Sol     OW13363   2.927   2.504   6.284 -0.1097  0.5046  0.3385
 2581Sol     HW13364   2.961   2.586   6.320 -1.0498 -0.0856  2.7005
 2581Sol     HW13365   2.978   2.436   6.329 -0.9544 -0.2446  0.1694
 2581Sol     MW13366   2.935   2.505   6.291  0.1162 -0.2022 -0.1006
 2582Sol     OW13367   1.440   1.880   7.963  0.3009  0.9887 -0.7200
 2582Sol     HW13368   1.461   1.969   7.935 -0.8594  0.9562 -1.7473
 2582Sol     HW13369   1.470   1.825   7.891  3.3007  0.3003  0.9921
 2582Sol     MW13370   1.445   1.883   7.954 -0.1247 -0.4663  0.0857
 2583Sol     OW13371   3.082   2.511   4.892 -0.3908 -0.2867 -0.0156
 2583Sol     HW13372   3.038   2.507   4.807 -3.1429 -3.4714  1.4054
 2583Sol     HW13373   3.010   2.521   4.955  1.2035 -1.8882  2.1588
 2583Sol     MW13374   3.071   2.511   4.890 -0.7790  0.0373 -0.1909
 2584Sol     OW13375   0.545   0.545   6.141 -0.4711  0.1767  0.5522
 2584Sol     HW13376   0.640   0.533   6.142 -0.8630 -3.6476  1.8915
 2584Sol     HW13377   0.530   0.625   6.191  1.9909  0.0351  1.5792
 2584Sol     MW13378   0.552   0.551   6.146 -0.8565 -0.3952 -0.1384
 2585Sol     OW13379   1.862   2.939   4.131  0.0803 -0.4050 -0.0725
 2585Sol     HW13380   1.863   2.877   4.205  0.3175 -0.1160  0.1656
 2585Sol     HW13381   1.814   3.014   4.164  0.0720 -0.3313 -0.2568
 2585Sol     MW13382   1.858   2.940   4.141 -0.1782 -0.0697  0.7941
 2586Sol     OW13383   1.050   2.237   3.280 -0.2673 -0.1412  0.8659
 2586Sol     HW13384   1.048   2.292   3.202 -1.0376 -1.8159 -0.3088
 2586Sol     HW13385   0.972   2.182   3.274  2.1365 -3.6934  0.2839
 2586Sol     MW13386   1.043   2.237   3.273  0.2877 -0.3506 -0.2500
 2587Sol     OW13387   2.443   0.294   8.080  0.0847  0.4115  0.6408
 2587Sol     HW13388   2.414   0.279   8.170  1.7118  2.0387  1.4648
 2587Sol     HW13389   2.440   0.208   8.040 -2.3087 -0.0698  1.7404
 2587Sol     MW13390   2.440   0.285   8.085  0.2820 -0.2548 -0.1974
 2588Sol     OW13391   0.132   2.834   3.501 -0.2826 -0.0063  0.2079
 2588Sol     HW13392   0.182   2.908   3.535 -0.0280  0.4721 -1.2015
 2588Sol     HW13393   0.068   2.873   3.442 -0.2773 -0.8911 -0.3897
 2588Sol     MW13394   0.130   2.844   3.499  0.8288  0.6203  0.0791
 2589Sol     OW13395   2.547   0.657   8.267  0.0811  0.2074 -0.2054
 2589Sol     HW13396   2.481   0.632   8.331  0.5462  1.6350  0.8507
 2589Sol     HW13397   2.616   0.592   8.277  0.9987  1.4776  2.0832
 2589Sol     MW13398   2.547   0.649   8.274 -0.2807  0.1231 -0.0956
 2590Sol     OW13399   1.371   2.675   7.653  0.1227 -0.0398 -0.3662
 2590Sol     HW13400   1.302   2.682   7.719  1.3840 -0.2874  1.0174
 2590Sol     HW13401   1.447   2.641   7.701  1.7086  1.7736 -1.4682
 2590Sol     MW13402   1.372   2.673   7.663  0.2816 -0.0111  0.3563
 2591Sol     OW13403   2.356   2.817   2.213 -0.1413  0.7594  0.1696
 2591Sol     HW13404   2.370   2.785   2.124 -2.1199 -0.0202  0.1108
 2591Sol     HW13405   2.276   2.774   2.242  1.1429  0.0403  2.8108
 2591Sol     MW13406   2.350   2.810   2.207 -0.0895  0.8097 -0.2619
 2592Sol     OW13407   2.641   2.865   8.695  0.4772 -0.4597  0.3582
 2592Sol     HW13408   2.735   2.865   8.677  0.4896  1.1730  0.3449
 2592Sol     HW13409   2.602   2.912   8.621 -0.1904  0.2250  1.1401
 2592Sol     MW13410   2.646   2.869   8.687 -0.5329  0.3822 -0.0177
 2593Sol     OW13411   2.018   0.041   4.423  0.7040 -0.0220  0.7263
 2593Sol     HW13412   2.100   0.071   4.464 -0.3702  1.1039  2.0871
 2593Sol     HW13413   2.031   0.058   4.330  1.8568  0.5542  0.9755
 2593Sol     MW13414   2.027   0.045   4.419  0.8963 -0.9494 -0.5372
 2594Sol     OW13415   0.057   3.364   1.614  1.0422  0.0254  0.0343
 2594Sol     HW13416   0.152   3.350   1.613  1.3451  1.9117 -0.1122
 2594Sol     HW13417   0.037   3.397   1.527  0.3981  0.5473  0.3788
 2594Sol     MW13418   0.064   3.366   1.606 -0.2276 -0.2286 -0.0090
 2595Sol     OW13419   2.688   1.117   5.516  0.4084 -0.3455 -0.4396
 2595Sol     HW13420   2.636   1.196   5.502 -1.7179 -2.0158 -2.1731
 2595Sol     HW13421   2.761   1.125   5.454  1.4804  1.2766  0.9603
 2595Sol     MW13422   2.690   1.125   5.510 -0.0443 -0.7296 -0.2052
 2596Sol     OW13423   3.405   2.524   5.575  0.0835  0.0161 -0.4721
 2596Sol     HW13424   3.347   2.563   5.641 -0.6921  0.7833 -1.5790
 2596Sol     HW13425   3.451   2.599   5.537 -0.2733 -0.2874 -1.5340
 2596Sol     MW13426   3.404   2.534   5.577  0.2611  0.0095 -0.4686
 2597Sol     OW13427   0.200   0.160   3.460 -0.5683 -0.0660  0.8557
 2597Sol     HW13428   0.112   0.124   3.470 -0.3786 -1.3189 -1.5277
 2597Sol     HW13429   0.235   0.165   3.548 -2.4799 -0.9421  1.6882
 2597Sol     MW13430   0.195   0.158   3.469 -0.2782  0.3757 -0.1163
 2598Sol     OW13431   2.762   1.065   3.053 -0.2302 -0.4555  0.4513
 2598Sol     HW13432   2.753   1.111   3.136 -1.2519  0.5209 -0.1983
 2598Sol     HW13433   2.695   0.997   3.056 -0.1771 -0.5078  0.4706
 2598Sol     MW13434   2.755   1.063   3.061 -0.1308  0.0900  0.3302
 2599Sol     OW13435   0.540   2.542   7.945  0.2595  0.4253  0.3098
 2599Sol     HW13436   0.606   2.483   7.980 -0.1357 -0.4714 -0.4234
 2599Sol     HW13437   0.586   2.624   7.928  1.1592 -0.1701 -0.1286
 2599Sol     MW13438   0.550   2.544   7.947 -0.5609  0.3160  0.3716
 2600Sol     OW13439   0.974   3.147   7.267 -0.5115 -0.1975  0.0034
 2600Sol     HW13440   0.903   3.136   7.330  0.0430  1.3623  0.9501
 2600Sol     HW13441   1.048   3.099   7.306 -0.5372 -0.3197 -0.0976
 2600Sol     MW13442   0.975   3.142   7.277 -0.8158  0.0991  0.4842
 2601Sol     OW13443   2.125   0.658   8.783  0.1712  0.1873  0.5489
 2601Sol     HW13444   2.206   0.684   8.740 -0.4811  1.9146  0.2953
 2601Sol     HW13445   2.085   0.595   8.723  0.8092  0.1285  0.1806
 2601Sol     MW13446   2.129   0.655   8.774  0.1081  0.6667  0.0215
 2602Sol     OW13447   0.952   0.093   7.827 -0.5236  0.3871  0.2713
 2602Sol     HW13448   0.989   0.144   7.756 -0.1529  0.4752  0.5245
 2602Sol     HW13449   0.997   0.125   7.906 -0.7203  0.0927  0.5063
 2602Sol     MW13450   0.959   0.100   7.828  0.0194 -0.2313  0.4657
 2603Sol     OW13451   3.315   1.930   7.297 -0.0618  0.2509 -0.4528
 2603Sol     HW13452   3.383   1.935   7.230  0.5826 -2.5724 -0.0766
 2603Sol     HW13453   3.257   1.860   7.267 -0.2521 -0.4679  1.4920
 2603Sol     MW13454   3.316   1.924   7.288  0.7725  0.1891  0.7298
 2604Sol     OW13455   0.725   0.428   4.936 -0.7214  0.6075 -0.4086
 2604Sol     HW13456   0.791   0.454   5.001 -0.5774 -0.8376  0.0495
 2604Sol     HW13457   0.642   0.458   4.971 -0.4241  1.5383 -0.4948
 2604Sol     MW13458   0.724   0.433   4.945  0.3849  0.0705  0.2614
 2605Sol     OW13459   3.324   3.097   7.382 -0.2478  0.7536  0.0550
 2605Sol     HW13460   3.356   3.020   7.334  0.2567  1.5515 -0.9049
 2605Sol     HW13461   3.230   3.081   7.392 -0.5138  0.9476 -1.9256
 2605Sol     MW13462   3.318   3.089   7.378  0.2975 -0.4858 -0.3006
 2606Sol     OW13463   0.671   0.247   7.160 -0.0488  0.2274 -0.2387
 2606Sol     HW13464   0.744   0.308   7.152  1.7901 -1.9519 -0.4546
 2606Sol     HW13465   0.693   0.193   7.236 -1.7613 -0.0591  0.0903
 2606Sol     MW13466   0.679   0.247   7.166  0.0064  0.0786 -0.1623
 2607Sol     OW13467   2.656   1.596   7.226  0.5132  0.2448  0.2023
 2607Sol     HW13468   2.693   1.648   7.155  0.1049  1.2481  0.7018
 2607Sol     HW13469   2.573   1.639   7.246 -0.3368 -1.2381 -0.0727
 2607Sol     MW13470   2.652   1.605   7.222 -0.2853 -0.3512 -0.5126
 2608Sol     OW13471   0.600   0.063   3.851  0.1028 -0.6838 -0.7523
 2608Sol     HW13472   0.668   0.096   3.910 -0.5375 -0.1432 -0.3157
 2608Sol     HW13473   0.632   0.084   3.763 -1.6418  3.8094 -0.4259
 2608Sol     MW13474   0.609   0.068   3.849  0.0888 -0.0740  0.1948
 2609Sol     OW13475   1.062   0.622   2.717  0.2235  0.1359 -0.1156
 2609Sol     HW13476   1.090   0.712   2.727  0.0508  0.1047  0.6680
 2609Sol     HW13477   1.138   0.577   2.680 -0.2650  0.9459 -2.2193
 2609Sol     MW13478   1.071   0.626   2.714  0.4258 -0.3333 -0.5573
 2610Sol     OW13479   1.808   2.139   3.495 -0.4581 -0.1249  0.0395
 2610Sol     HW13480   1.860   2.140   3.415 -1.1611 -0.7883 -0.4421
 2610Sol     HW13481   1.750   2.216   3.487  0.0825  0.3128  0.3288
 2610Sol     MW13482   1.807   2.146   3.487 -0.3721  0.6468  0.3541
 2611Sol     OW13483   1.856   0.991   3.503  0.1845  0.0567  0.0145
 2611Sol     HW13484   1.772   1.007   3.460 -0.8624 -1.8613  1.3348
 2611Sol     HW13485   1.871   0.897   3.493  0.8562 -0.0825  2.1537
 2611Sol     MW13486   1.850   0.984   3.498 -0.1203  0.3790 -0.0086
 2612Sol     OW13487   3.134   2.406   6.923 -0.1043 -0.4098 -0.4986
 2612Sol     HW13488   3.181   2.323   6.913  0.9631  0.2339 -0.8627
 2612Sol     HW13489   3.061   2.399   6.862  0.3136 -0.8473 -0.9569
 2612Sol     MW13490   3.132   2.398   6.916  0.2166  0.1254 -0.3137
 2613Sol     OW13491   0.035   2.143   5.133 -0.1032 -0.3595  0.1979
 2613Sol     HW13492  -0.052   2.144   5.094 -0.8901  0.6805  1.9131
 2613Sol     HW13493   0.052   2.051   5.153 -0.4159 -0.6757 -0.9458
 2613Sol     MW13494   0.029   2.135   5.131  0.2903 -0.6781  0.0660
 2614Sol     OW13495   0.094   2.163   4.498  0.5958  0.4800 -0.7643
 2614Sol     HW13496   0.139   2.090   4.540  1.0476  0.5861 -1.0703
 2614Sol     HW13497   0.156   2.235   4.501 -0.4233  1.3354  0.9774
 2614Sol     MW13498   0.103   2.163   4.502 -0.4933 -0.4126 -0.6369
 2615Sol     OW13499   0.914   3.064   4.148 -0.7555  0.3813  0.6015
 2615Sol     HW13500   0.852   3.134   4.124 -0.4889 -0.0373 -1.3682
 2615Sol     HW13501   0.937   3.084   4.239 -2.2118  1.7167  0.7168
 2615Sol     MW13502   0.910   3.072   4.154  0.4874 -0.1186 -0.7096
 2616Sol     OW13503   1.547   0.925   8.728 -0.5199  0.2565 -0.0945
 2616Sol     HW13504   1.569   0.833   8.734  0.1651  0.3984 -0.4502
 2616Sol     HW13505   1.563   0.960   8.816  0.5825  0.3386 -0.3240
 2616Sol     MW13506   1.550   0.920   8.736 -0.0053 -0.2006  0.1216
 2617Sol     OW13507   3.486   3.114   2.680  0.0353 -0.0972 -0.2551
 2617Sol     HW13508   3.539   3.190   2.655  1.4516 -0.9667  0.0818
 2617Sol     HW13509   3.405   3.124   2.629  1.3082  0.2058 -2.2908
 2617Sol     MW13510   3.483   3.122   2.673  0.1931 -0.6412  0.0343
 2618Sol     OW13511   3.366   0.874   1.435 -0.0677  0.4192  0.5153
 2618Sol     HW13512   3.334   0.837   1.353 -0.8714  0.5040  0.7913
 2618Sol     HW13513   3.450   0.829   1.450 -0.1810  0.0066 -0.0627
 2618Sol     MW13514   3.371   0.867   1.429 -1.0158  0.2404  0.5340
 2619Sol     OW13515   1.211   1.082   2.399 -0.2344 -0.4388  0.0318
 2619Sol     HW13516   1.247   1.167   2.375 -0.6733 -0.6021 -1.2967
 2619Sol     HW13517   1.164   1.096   2.481 -1.3431  0.8813 -0.8114
 2619Sol     MW13518   1.210   1.091   2.404 -0.1379  0.6281  0.8003
 2620Sol     OW13519   0.860   0.565   5.603 -0.3939 -0.2680  0.2686
 2620Sol     HW13520   0.878   0.657   5.622  0.5411 -0.9385  2.7999
 2620Sol     HW13521   0.811   0.534   5.678  0.9747 -2.3214  0.3658
 2620Sol     MW13522   0.858   0.571   5.611 -0.0426  0.3073 -0.1026
 2621Sol     OW13523   2.522   0.306   7.673 -0.0522 -0.1596  0.1551
 2621Sol     HW13524   2.462   0.372   7.637 -1.5984 -1.6567 -0.1043
 2621Sol     HW13525   2.580   0.286   7.600 -0.9842 -0.6737 -0.4616
 2621Sol     MW13526   2.522   0.310   7.663  0.3392 -0.3734 -0.2810
 2622Sol     OW13527   0.996   2.621   6.013 -0.3217 -0.4424 -0.2233
 2622Sol     HW13528   0.951   2.705   6.017 -0.4670 -0.5135 -0.3674
 2622Sol     HW13529   0.961   2.571   6.088 -1.0805 -0.7961 -0.8063
 2622Sol     MW13530   0.989   2.624   6.020 -0.3309 -0.2658 -0.8661
 2623Sol     OW13531   0.332   2.274   4.194  0.2987 -0.5951 -0.2441
 2623Sol     HW13532   0.353   2.275   4.101 -1.9722 -0.5630 -0.7790
 2623Sol     HW13533   0.275   2.198   4.206 -0.2921  0.0135  0.9131
 2623Sol     MW13534   0.329   2.267   4.187 -0.7276  0.5066  0.4920
 2624Sol     OW13535   1.171   0.016   8.456 -0.4355 -1.2073  0.3644
 2624Sol     HW13536   1.083   0.052   8.461  0.4708  1.0802  0.5768
 2624Sol     HW13537   1.203   0.018   8.546  1.0596  1.2757 -0.1645
 2624Sol     MW13538   1.166   0.019   8.465  0.2936 -0.1482 -0.3040
 2625Sol     OW13539   0.551   0.952   4.296  1.0753  0.7679 -0.0808
 2625Sol     HW13540   0.630   0.990   4.334  1.5945  0.2531 -0.6452
 2625Sol     HW13541   0.481   1.013   4.321  1.7876  1.7281 -0.3872
 2625Sol     MW13542   0.552   0.961   4.302 -0.0859  0.1173 -0.2763
 2626Sol     OW13543   1.391   1.167   2.765  0.4225  0.4382  0.5220
 2626Sol     HW13544   1.303   1.161   2.804 -0.0746 -1.9162 -0.9033
 2626Sol     HW13545   1.397   1.258   2.735 -1.1119  0.9195  1.5924
 2626Sol     MW13546   1.384   1.175   2.766 -0.2635 -0.2026 -0.2725
 2627Sol     OW13547   2.875   3.370   6.000  0.1277 -0.0982 -0.0547
 2627Sol     HW13548   2.790   3.351   6.039 -0.1915 -0.9641 -1.1515
 2627Sol     HW13549   2.878   3.317   5.920  1.8899 -0.4635  0.2103
 2627Sol     MW13550   2.868   3.363   5.996  0.4901 -0.1578 -0.0945
 2628Sol     OW13551   2.603   1.767   4.232  0.4028 -0.3484 -0.0998
 2628Sol     HW13552   2.697   1.763   4.250  0.4830  1.5811 -0.0586
 2628Sol     HW13553   2.593   1.841   4.173 -1.2968  0.5132  1.2587
 2628Sol     MW13554   2.611   1.773   4.229 -0.3396 -0.4392  0.6844
 2629Sol     OW13555   3.219   2.057   6.534 -0.0019  0.4605 -0.4519
 2629Sol     HW13556   3.182   2.145   6.537 -2.0001 -0.3728  0.7955
 2629Sol     HW13557   3.276   2.051   6.610 -1.6429 -0.0482  0.7566
 2629Sol     MW13558   3.221   2.064   6.541  0.2701 -0.2117  0.5128
 2630Sol     OW13559   0.330   2.941   5.547 -0.1974 -0.0570 -0.0653
 2630Sol     HW13560   0.307   2.924   5.455 -1.0244 -1.6339  0.4230
 2630Sol     HW13561   0.277   3.017   5.570 -1.3735 -0.7704 -0.3661
 2630Sol     MW13562   0.323   2.946   5.541 -0.5986  0.0012  0.0513
 2631Sol     OW13563   2.902   1.071   1.109  0.4758 -0.1041  0.5162
 2631Sol     HW13564   2.941   0.987   1.133 -0.3890 -0.0254  2.2419
 2631Sol     HW13565   2.968   1.113   1.054  1.1506 -1.6619  0.1060
 2631Sol     MW13566   2.911   1.067   1.106 -0.2758  0.3675  0.0220
 2632Sol     OW13567   0.743   0.745   6.751  0.1647 -0.5109 -0.1997
 2632Sol     HW13568   0.658   0.783   6.776  0.7189  2.1745 -2.1215
 2632Sol     HW13569   0.721   0.673   6.693 -0.8308  0.6453 -1.2971
 2632Sol     MW13570   0.733   0.742   6.748  0.0224  0.2402 -0.1289
 2633Sol     OW13571   3.233   1.454   6.586  0.0555  0.6169  0.1576
 2633Sol     HW13572   3.261   1.489   6.671 -0.4440  1.2710  0.0595
 2633Sol     HW13573   3.149   1.498   6.569  0.4048  0.8753 -0.9167
 2633Sol     MW13574   3.228   1.461   6.592 -0.2118 -0.6811 -0.3109
 2634Sol     OW13575   0.239   2.144   6.522  0.4606  0.0406 -0.4625
 2634Sol     HW13576   0.156   2.166   6.480  0.3535 -1.4888 -1.0705
 2634Sol     HW13577   0.286   2.093   6.456  1.3964 -0.0879  0.3055
 2634Sol     MW13578   0.236   2.142   6.512  0.9997 -0.4214  0.8181
 2635Sol     OW13579   2.389   1.870   5.985 -0.5865 -0.3227 -0.4922
 2635Sol     HW13580   2.336   1.941   6.023 -1.0317 -1.2959  0.7197
 2635Sol     HW13581   2.479   1.901   5.992 -0.6144 -0.6825  1.8288
 2635Sol     MW13582   2.392   1.879   5.989  0.4241  0.5260  0.0021
 2636Sol     OW13583   2.633   1.105   2.460  0.2137  0.1458  0.0958
 2636Sol     HW13584   2.647   1.087   2.553 -2.5388  2.5848  1.0622
 2636Sol     HW13585   2.717   1.137   2.428  0.5554  1.5563  2.3323
 2636Sol     MW13586   2.642   1.106   2.466  0.6270 -0.1916 -0.1962
 2637Sol     OW13587   1.823   0.969   7.137  0.1455 -0.9084  0.3012
 2637Sol     HW13588   1.904   0.942   7.095 -0.5571 -2.2438 -0.2198
 2637Sol     HW13589   1.802   0.898   7.197 -0.0338 -0.0345  1.2791
 2637Sol     MW13590   1.828   0.960   7.138 -0.4656 -0.3337 -0.4697
 2638Sol     OW13591   3.345   3.043   3.130  0.0897 -0.0933 -0.7034
 2638Sol     HW13592   3.380   3.024   3.217  0.5886 -1.2948 -1.1586
 2638Sol     HW13593   3.415   3.017   3.070 -1.0581 -1.2317 -1.5615
 2638Sol     MW13594   3.354   3.039   3.133  0.6666 -0.1708 -0.4210
 2639Sol     OW13595   1.931   2.757   3.211  0.2901 -0.1401  0.5021
 2639Sol     HW13596   1.936   2.746   3.306  1.3525 -2.1297  0.2405
 2639Sol     HW13597   2.020   2.741   3.180 -0.5577 -1.9844 -1.0755
 2639Sol     MW13598   1.940   2.755   3.217 -0.2383  0.4213  1.0886
 2640Sol     OW13599   3.500   2.317   1.377 -0.4844 -0.5490  0.1220
 2640Sol     HW13600   3.441   2.392   1.368 -0.3729 -0.6323 -1.3607
 2640Sol     HW13601   3.568   2.348   1.438  0.3256  1.0475 -1.5345
 2640Sol     MW13602   3.501   2.327   1.382 -0.7163 -0.3146 -0.1149
 2641Sol     OW13603   2.130   2.467   5.272 -0.1133  0.3456 -0.3759
 2641Sol     HW13604   2.164   2.547   5.311 -0.2898 -0.4869  1.5354
 2641Sol     HW13605   2.061   2.496   5.213  0.5139  1.6697 -0.4686
 2641Sol     MW13606   2.127   2.476   5.270  0.1624  0.4256  0.4575
 2642Sol     OW13607   0.370   1.547   6.907 -0.0627 -0.0101  0.4505
 2642Sol     HW13608   0.360   1.606   6.981  1.6593 -0.1817  0.8578
 2642Sol     HW13609   0.464   1.551   6.887 -0.3902 -0.5397 -1.2349
 2642Sol     MW13610   0.378   1.552   6.912 -0.0995 -0.1213  0.0723
 2643Sol     OW13611   1.198   3.399   7.632 -0.2861 -0.0762 -0.1438
 2643Sol     HW13612   1.256   3.324   7.615 -0.0945  0.7072 -3.2809
 2643Sol     HW13613   1.112   3.359   7.645  0.1813 -0.9780  0.2635
 2643Sol     MW13614   1.196   3.389   7.632  0.2216  0.2484 -0.3037
 2644Sol     OW13615   2.062   1.432   1.418 -0.2814 -0.9476 -0.0940
 2644Sol     HW13616   2.112   1.412   1.339  0.6324 -1.4285  0.6022
 2644Sol     HW13617   1.981   1.380   1.409 -1.9609  1.9194 -2.5376
 2644Sol     MW13618   2.059   1.426   1.410  0.2779 -0.9920 -0.0544
 2645Sol     OW13619   2.681   2.923   8.154 -0.1399  0.0257 -0.9351
 2645Sol     HW13620   2.665   2.980   8.080  0.0745 -0.4922 -1.3841
 2645Sol     HW13621   2.644   2.838   8.129  1.9053 -0.7801 -1.4000
 2645Sol     MW13622   2.676   2.920   8.145 -0.3004  0.1992 -0.1690
 2646Sol     OW13623   0.366   1.719   8.521 -0.0821 -0.1308  0.9767
 2646Sol     HW13624   0.307   1.795   8.519 -1.0255 -0.8350  1.1901
 2646Sol     HW13625   0.447   1.753   8.558  0.1011  1.1602 -0.5720
 2646Sol     MW13626   0.368   1.729   8.524  0.2230  0.1617  1.0717
 2647Sol     OW13627   1.424   0.156   2.435  0.4684 -0.0600  0.2193
 2647Sol     HW13628   1.411   0.250   2.435 -1.3043 -0.2846  0.3407
 2647Sol     HW13629   1.361   0.122   2.499  3.1624 -1.0893  2.4196
 2647Sol     MW13630   1.417   0.161   2.440  1.2477 -0.0680 -0.5077
 2648Sol     OW13631   2.951   0.892   2.946  0.4561 -0.0771 -0.1007
 2648Sol     HW13632   2.881   0.950   2.975  0.7254  0.5344 -0.6558
 2648Sol     HW13633   2.910   0.834   2.882  0.0695 -0.8400  0.8236
 2648Sol     MW13634   2.941   0.892   2.943 -0.0743  0.9818  0.2889
 2649Sol     OW13635   2.535   2.054   4.966 -0.1230  0.2460 -0.0121
 2649Sol     HW13636   2.441   2.043   4.983 -0.6205  1.0019 -2.1252
 2649Sol     HW13637   2.544   2.147   4.943  1.3689  0.4853  1.4460
 2649Sol     MW13638   2.527   2.062   4.965 -0.0523  0.1393 -0.4541
 2650Sol     OW13639   2.964   1.216   5.717  0.1873  0.2591 -0.2299
 2650Sol     HW13640   2.870   1.224   5.704  0.1442  0.1614  0.0174
 2650Sol     HW13641   2.982   1.122   5.707 -0.1176 -0.0851  2.1637
 2650Sol     MW13642   2.957   1.208   5.715 -0.8678  0.4151 -0.1348
 2651Sol     OW13643   2.237   2.930   5.269  0.0981 -0.0229  0.2297
 2651Sol     HW13644   2.330   2.932   5.291  0.6116  0.6917 -1.8800
 2651Sol     HW13645   2.235   2.904   5.176 -1.7498  0.8227  0.0173
 2651Sol     MW13646   2.245   2.928   5.262  0.0649  0.0614  0.5215
 2652Sol     OW13647   0.142   1.432   8.424 -0.4986 -0.1399 -0.3643
 2652Sol     HW13648   0.085   1.363   8.456 -0.2627 -0.0854  0.1793
 2652Sol     HW13649   0.106   1.513   8.461 -0.1690 -0.0867 -0.1566
 2652Sol     MW13650   0.134   1.433   8.430 -0.2143  0.1903  0.1072
 2653Sol     OW13651   2.452   0.582   5.603 -0.1286 -0.8049  1.2980
 2653Sol     HW13652   2.548   0.579   5.607 -0.0232 -1.2511 -1.1428
 2653Sol     HW13653   2.426   0.493   5.580 -1.1105 -0.4952  1.1815
 2653Sol     MW13654   2.458   0.574   5.602 -0.1414 -0.7492 -0.2220
 2654Sol     OW13655   0.112   0.885   1.251 -0.6861 -0.3270  0.0794
 2654Sol     HW13656   0.089   0.973   1.280 -0.0062 -0.2633  0.4307
 2654Sol     HW13657   0.107   0.831   1.330  1.7741 -0.0322  0.4786
 2654Sol     MW13658   0.109   0.888   1.261 -0.3593  0.6135 -0.1674
 2655Sol     OW13659   1.499   2.263   8.589 -0.4871  0.3462 -0.1612
 2655Sol     HW13660   1.591   2.286   8.583  0.1751 -1.7617  1.3458
 2655Sol     HW13661   1.466   2.273   8.499  0.5877  3.4241 -0.2719
 2655Sol     MW13662   1.504   2.266   8.580  0.3554  0.1774  0.3179
 2656Sol     OW13663   2.926   2.274   1.999 -0.6096 -0.1411  0.4051
 2656Sol     HW13664   3.009   2.321   2.002 -0.0937 -0.9954 -0.4298
 2656Sol     HW13665   2.869   2.322   2.060  0.8833 -0.3333  1.9798
 2656Sol     MW13666   2.928   2.283   2.005 -0.0889  0.4533 -0.4614
 2657Sol     OW13667   2.873   3.130   5.032 -0.4699  0.0576  0.6079
 2657Sol     HW13668   2.943   3.189   5.004 -0.0454 -0.4684  0.5567
 2657Sol     HW13669   2.799   3.188   5.052  0.0380  0.6283  0.8413
 2657Sol     MW13670   2.872   3.140   5.032 -0.0766 -0.2767 -0.4420
 2658Sol     OW13671   3.058   2.006   4.697  0.2392  0.3162  0.2068
 2658Sol     HW13672   3.127   1.956   4.741  0.8059  0.4914 -0.4827
 2658Sol     HW13673   3.047   2.085   4.750 -2.8661 -1.9412  3.1531
 2658Sol     MW13674   3.063   2.008   4.705  0.0805  0.3049  0.3821
 2659Sol     OW13675   2.677   1.446   5.290  0.5987 -0.2961  0.0850
 2659Sol     HW13676   2.585   1.461   5.312  0.8751  0.7175  0.5630
 2659Sol     HW13677   2.681   1.458   5.195  0.2617 -0.1943  0.0848
 2659Sol     MW13678   2.669   1.448   5.283 -0.5915  0.1725 -0.0975
 2660Sol     OW13679   2.464   1.973   6.956 -0.0498  0.5357  0.3925
 2660Sol     HW13680   2.513   1.917   6.897  0.1286  1.6979 -0.5705
 2660Sol     HW13681   2.372   1.954   6.937  0.0123 -0.0808  0.7011
 2660Sol     MW13682   2.460   1.966   6.949  0.0617 -0.1035 -0.1657
 2661Sol     OW13683   0.261   2.643   7.455  0.0837 -0.3049 -0.5566
 2661Sol     HW13684   0.184   2.589   7.436 -0.8598  1.6561 -2.4069
 2661Sol     HW13685   0.235   2.695   7.531  0.0328 -0.5452 -0.4089
 2661Sol     MW13686   0.251   2.643   7.460  0.3415 -0.2869  0.0170
 2662Sol     OW13687   2.389   0.811   4.538  0.0187  0.0024 -0.6351
 2662Sol     HW13688   2.447   0.843   4.468 -0.5133  0.0713 -1.0493
 2662Sol     HW13689   2.375   0.887   4.594 -1.3422  0.5604 -1.6853
 2662Sol     MW13690   2.393   0.821   4.537 -0.0004  0.3085  0.0206
 2663Sol     OW13691   2.487   3.115   3.299 -0.0979 -0.5792 -0.0281
 2663Sol     HW13692   2.434   3.195   3.296 -2.3354 -1.9111  1.7255
 2663Sol     HW13693   2.437   3.052   3.247  1.9349 -0.7094 -1.8678
 2663Sol     MW13694   2.477   3.117   3.294 -0.0908  0.0347 -0.2690
 2664Sol     OW13695   0.123   1.206   3.568  0.0156  0.7044  0.0871
 2664Sol     HW13696   0.088   1.290   3.539 -0.2502  0.9555  1.1184
 2664Sol     HW13697   0.208   1.226   3.607  0.4500  0.3454 -0.6622
 2664Sol     MW13698   0.127   1.215   3.569  0.1841 -0.7583  0.2503
 2665Sol     OW13699   0.259   1.547   7.211 -0.0149  0.6095 -0.2427
 2665Sol     HW13700   0.196   1.511   7.148 -1.6947  1.9174  0.6349
 2665Sol     HW13701   0.292   1.471   7.258  1.0836 -0.3587 -2.5262
 2665Sol     MW13702   0.256   1.537   7.210  0.3138 -0.3507  0.2133
 2666Sol     OW13703   2.376   0.482   7.504 -0.1603  0.5209  0.6757
 2666Sol     HW13704   2.282   0.500   7.496 -0.1412  0.3990  0.1352
 2666Sol     HW13705   2.415   0.530   7.431 -0.0001 -0.9162 -0.2004
 2666Sol     MW13706   2.371   0.488   7.496  0.2603  0.2941 -0.2682
 2667Sol     OW13707   0.557   2.722   8.251 -0.1015 -0.2200 -0.1443
 2667Sol     HW13708   0.611   2.644   8.237 -1.7248 -1.5987  1.0765
 2667Sol     HW13709   0.616   2.795   8.235  1.1431 -1.6793 -2.5897
 2667Sol     MW13710   0.567   2.721   8.248 -0.2746 -0.2542 -0.0847
 2668Sol     OW13711   1.769   3.404   5.710 -0.3140  0.1614 -0.0794
 2668Sol     HW13712   1.701   3.471   5.703  0.3597  1.1319  2.0803
 2668Sol     HW13713   1.721   3.322   5.721 -1.1540  0.6913  0.2578
 2668Sol     MW13714   1.759   3.403   5.710 -0.3827 -0.1539  0.0183
 2669Sol     OW13715   3.116   3.409   3.217  0.1475 -0.0266 -0.0251
 2669Sol     HW13716   3.054   3.370   3.155 -0.2204  0.5877 -0.0398
 2669Sol     HW13717   3.068   3.479   3.259  0.0415 -1.1490  1.7806
 2669Sol     MW13718   3.106   3.412   3.215  0.1084  0.2077  0.6168
 2670Sol     OW13719   3.086   1.164   4.760  0.6685  0.2690  1.0375
 2670Sol     HW13720   3.112   1.104   4.830  1.2733  0.5442  1.0514
 2670Sol     HW13721   3.004   1.128   4.727  0.2396  0.2837  2.0647
 2670Sol     MW13722   3.081   1.155   4.763  0.4934  0.3058 -0.3709
 2671Sol     OW13723   0.191   2.472   6.769 -0.2468  0.1826  0.3522
 2671Sol     HW13724   0.224   2.464   6.859  1.3621  1.4938 -0.0959
 2671Sol     HW13725   0.190   2.566   6.752 -0.6645 -0.0463 -0.9740
 2671Sol     MW13726   0.194   2.480   6.776 -0.2469 -0.6024 -0.3427
 2672Sol     OW13727   1.373   1.824   8.430  0.1955 -0.5198  0.6466
 2672Sol     HW13728   1.343   1.741   8.467 -3.1264  0.2954 -0.0088
 2672Sol     HW13729   1.402   1.875   8.505 -1.1880 -0.9456  1.4799
 2672Sol     MW13730   1.373   1.821   8.440  0.1774 -0.5274 -0.5339
 2673Sol     OW13731   2.956   0.426   4.854  0.1999 -0.3443 -0.3306
 2673Sol     HW13732   2.870   0.392   4.830  0.1251  0.6127 -1.4399
 2673Sol     HW13733   3.018   0.364   4.815  0.0306 -0.6314 -0.1450
 2673Sol     MW13734   2.954   0.417   4.849  1.0024  0.1866 -0.3918
 2674Sol     OW13735   1.202   3.039   7.411  0.1826 -0.6107 -0.2776
 2674Sol     HW13736   1.272   3.024   7.347  0.0374 -1.1196 -0.3214
 2674Sol     HW13737   1.161   2.953   7.421  0.9630 -0.8002  1.3868
 2674Sol     MW13738   1.205   3.030   7.406  0.5843 -0.6435 -0.6207
 2675Sol     OW13739   2.432   1.316   5.573 -0.3027 -0.2954 -0.1559
 2675Sol     HW13740   2.398   1.227   5.563 -0.2334 -0.3608  0.1853
 2675Sol     HW13741   2.413   1.359   5.490 -3.0126  0.2890  0.7233
 2675Sol     MW13742   2.427   1.312   5.565  0.4294  0.0936  0.1511
 2676Sol     OW13743   3.301   0.822   6.685 -0.0370  0.4440  0.4930
 2676Sol     HW13744   3.300   0.886   6.757 -0.7336 -0.7293  1.5435
 2676Sol     HW13745   3.385   0.778   6.693  1.0744  2.1914 -1.1239
 2676Sol     MW13746   3.308   0.824   6.692 -0.3533  0.6028 -0.0008
 2677Sol     OW13747   2.695   3.279   5.175 -0.4270  0.5990 -0.2661
 2677Sol     HW13748   2.686   3.275   5.270  0.8476  1.7193 -0.0848
 2677Sol     HW13749   2.606   3.273   5.142 -0.9704  1.3003  1.0450
 2677Sol     MW13750   2.687   3.278   5.180  0.9139  0.1976 -0.4010
 2678Sol     OW13751   1.931   1.333   4.689 -0.4669 -0.2630  0.7407
 2678Sol     HW13752   1.955   1.406   4.632  1.5783 -2.1010 -0.8410
 2678Sol     HW13753   1.971   1.354   4.774  1.9388 -0.5193 -0.2879
 2678Sol     MW13754   1.937   1.342   4.692 -0.2115 -0.8539  0.5088
 2679Sol     OW13755   0.106   0.078   6.469 -0.1654 -0.4602 -0.1379
 2679Sol     HW13756   0.106   0.161   6.420  1.2165 -1.4627 -1.8928
 2679Sol     HW13757   0.108   0.105   6.561  2.2953  1.4909 -0.6871
 2679Sol     MW13758   0.106   0.088   6.473 -0.1333  0.2621 -0.6348
 2680Sol     OW13759   0.431   2.802   4.409  0.5039 -0.1020  0.2594
 2680Sol     HW13760   0.423   2.890   4.448 -0.4765  0.6825 -1.6691
 2680Sol     HW13761   0.344   2.763   4.420 -0.3692  0.8589 -2.8104
 2680Sol     MW13762   0.423   2.806   4.414 -0.1885  0.2250 -0.3279
 2681Sol     OW13763   0.590   1.398   8.131 -0.0085 -0.0262  0.2038
 2681Sol     HW13764   0.537   1.463   8.177  0.0314  0.5927 -0.6095
 2681Sol     HW13765   0.526   1.335   8.096 -0.0132 -0.7106  1.4030
 2681Sol     MW13766   0.579   1.398   8.132  0.0343  0.2665  0.2645
 2682Sol     OW13767   1.656   0.923   6.235  0.3736  0.0381  0.5502
 2682Sol     HW13768   1.666   0.863   6.162  0.3025  0.4197  0.2221
 2682Sol     HW13769   1.562   0.942   6.238  0.6924  2.0160 -0.8879
 2682Sol     MW13770   1.648   0.920   6.229  0.1050  0.3532  0.5210
 2683Sol     OW13771   2.290   0.099   2.664  0.2084  0.2262  1.2433
 2683Sol     HW13772   2.229   0.028   2.643  2.0722 -0.7114 -1.1481
 2683Sol     HW13773   2.366   0.055   2.703  0.4645  1.1325  1.7824
 2683Sol     MW13774   2.291   0.088   2.666 -0.0005 -0.1465 -0.1433
 2684Sol     OW13775   1.356   0.388   5.099  0.2803  0.0584  0.3018
 2684Sol     HW13776   1.372   0.443   5.177  0.3025  3.3963 -1.9464
 2684Sol     HW13777   1.443   0.356   5.075  0.6361  1.0149  0.2731
 2684Sol     MW13778   1.366   0.390   5.104  0.0113 -0.1304 -0.6850
 2685Sol     OW13779   0.350   0.795   2.182  0.4305  0.8178 -0.3633
 2685Sol     HW13780   0.309   0.820   2.265  1.0396  0.6596 -0.0089
 2685Sol     HW13781   0.435   0.759   2.208  1.2844  2.2166 -1.1607
 2685Sol     MW13782   0.354   0.794   2.192 -0.5053  0.4074  0.1974
 2686Sol     OW13783   2.200   2.561   1.379 -0.1505  0.0091  0.1060
 2686Sol     HW13784   2.278   2.566   1.323 -0.0652 -0.7322  0.1589
 2686Sol     HW13785   2.187   2.468   1.394  1.0079  0.2486  2.9591
 2686Sol     MW13786   2.206   2.553   1.376  0.0026  0.0191 -0.1357
 2687Sol     OW13787   0.268   1.185   5.487  0.1754 -0.1913 -0.5672
 2687Sol     HW13788   0.190   1.131   5.482  0.3893 -0.5757  0.1741
 2687Sol     HW13789   0.236   1.275   5.476 -0.2424 -0.4233 -1.2693
 2687Sol     MW13790   0.258   1.188   5.485  0.9646 -0.3325  0.1579
 2688Sol     OW13791   2.851   2.586   1.383  0.0472  0.2974 -0.9235
 2688Sol     HW13792   2.905   2.572   1.462 -0.2249 -1.6756 -1.0769
 2688Sol     HW13793   2.888   2.665   1.344  1.0528  0.5495  0.4648
 2688Sol     MW13794   2.859   2.592   1.387 -0.1162 -0.5781 -0.3680
 2689Sol     OW13795   0.020   0.232   1.859  0.1315 -0.0216  0.1117
 2689Sol     HW13796  -0.037   0.232   1.782 -0.3873  2.3468  0.4355
 2689Sol     HW13797   0.109   0.225   1.823 -0.1926 -0.3732 -0.6218
 2689Sol     MW13798   0.023   0.232   1.849 -0.0539 -0.3988  0.0946
 2690Sol     OW13799   1.771   0.616   8.500  0.0607 -0.6796 -0.6023
 2690Sol     HW13800   1.823   0.679   8.449 -1.3443 -0.4922 -1.8466
 2690Sol     HW13801   1.750   0.662   8.581  0.3004 -0.0866 -0.8763
 2690Sol     MW13802   1.774   0.626   8.503  0.1406 -0.6634 -0.0706
 2691Sol     OW13803   1.324   2.212   6.769 -0.0311 -0.4639  0.0654
 2691Sol     HW13804   1.250   2.270   6.786  0.9060  1.4581 -2.1371
 2691Sol     HW13805   1.300   2.164   6.690  1.2617  0.5283 -0.9464
 2691Sol     MW13806   1.315   2.213   6.764 -1.1706 -0.6094  0.2158
 2692Sol     OW13807   1.752   1.842   5.629 -0.5676  0.4055 -0.4353
 2692Sol     HW13808   1.776   1.755   5.596 -2.0956  0.0426 -0.6441
 2692Sol     HW13809   1.739   1.894   5.550  2.1092  1.3488 -0.2955
 2692Sol     MW13810   1.753   1.839   5.619 -0.1192 -0.4440 -0.6606
 2693Sol     OW13811   3.176   2.149   8.449  0.5629  0.4291 -0.0946
 2693Sol     HW13812   3.194   2.059   8.423  0.7207  0.2316  0.6909
 2693Sol     HW13813   3.123   2.141   8.528  1.1550  1.0222  0.3689
 2693Sol     MW13814   3.173   2.140   8.453  0.3093 -0.4828 -0.4087
 2694Sol     OW13815   0.145   3.201   1.887 -0.2349 -0.3129 -0.4712
 2694Sol     HW13816   0.204   3.271   1.912  0.6206 -0.3131 -2.4020
 2694Sol     HW13817   0.058   3.233   1.909  0.3013  0.5878  0.3486
 2694Sol     MW13818   0.142   3.210   1.891 -0.5480  0.7510 -0.6028
 2695Sol     OW13819   2.196   1.271   4.825 -0.3710 -0.0843 -0.3749
 2695Sol     HW13820   2.189   1.272   4.730 -0.5705 -0.1478 -0.3604
 2695Sol     HW13821   2.156   1.189   4.852 -0.2217 -0.1142 -0.2437
 2695Sol     MW13822   2.192   1.264   4.819  0.6533  0.1935 -0.4628
 2696Sol     OW13823   1.125   0.802   4.977  0.0451  0.1755  0.1176
 2696Sol     HW13824   1.218   0.779   4.967 -0.1082 -0.0891 -0.7096
 2696Sol     HW13825   1.114   0.880   4.922 -0.2083  0.2573  0.2835
 2696Sol     MW13826   1.133   0.807   4.971  0.1215  0.1818  0.8608
 2697Sol     OW13827   2.943   2.186   5.119 -0.6040 -0.3248  0.5074
 2697Sol     HW13828   2.903   2.202   5.205 -0.8790 -0.6865  0.4526
 2697Sol     HW13829   2.975   2.096   5.125  0.9809  0.2580  0.8450
 2697Sol     MW13830   2.942   2.179   5.127 -0.1274  1.2745  0.2171
 2698Sol     OW13831   1.142   0.670   1.326 -0.3174 -0.3262 -0.3052
 2698Sol     HW13832   1.048   0.665   1.346 -0.3772 -0.4795 -0.6215
 2698Sol     HW13833   1.172   0.749   1.371 -0.1296 -1.5068  1.7047
 2698Sol     MW13834   1.136   0.676   1.332  0.5295  0.2593 -0.0445
 2699Sol     OW13835   0.926   0.751   5.176  0.5544  0.9553  0.0051
 2699Sol     HW13836   0.962   0.756   5.265 -0.2679  3.1649  0.2551
 2699Sol     HW13837   1.002   0.767   5.119  1.2223 -1.2019  0.2632
 2699Sol     MW13838   0.936   0.753   5.179  0.1792 -0.2557 -0.2871
 2700Sol     OW13839   2.760   2.482   8.691 -0.3811  0.0318  0.1805
 2700Sol     HW13840   2.843   2.521   8.718 -0.4377 -0.4770  1.1194
 2700Sol     HW13841   2.695   2.549   8.712 -0.0889  0.9662 -1.7803
 2700Sol     MW13842   2.761   2.492   8.695 -0.3124  0.1503 -0.2751
 2701Sol     OW13843   3.218   1.978   1.771 -0.0053  0.2688  0.0589
 2701Sol     HW13844   3.236   2.071   1.757 -0.5826  0.2157 -1.0561
 2701Sol     HW13845   3.261   1.958   1.854 -1.3195  1.9472  1.1729
 2701Sol     MW13846   3.224   1.985   1.777  0.1083  0.2999  0.4367
 2702Sol     OW13847   0.541   1.290   1.836 -0.0900  0.3540 -0.2772
 2702Sol     HW13848   0.566   1.291   1.743  0.5700  1.7189 -0.0889
 2702Sol     HW13849   0.486   1.212   1.845 -0.2505  0.2769 -1.8394
 2702Sol     MW13850   0.538   1.283   1.828  0.4322  0.2888 -0.3135
 2703Sol     OW13851   2.096   2.034   7.428 -0.6660 -0.2001 -0.3176
 2703Sol     HW13852   2.061   2.110   7.474  0.9003 -0.3108  1.0978
 2703Sol     HW13853   2.128   2.069   7.345 -0.1423  0.6559  0.2408
 2703Sol     MW13854   2.096   2.044   7.424  1.1023 -0.0052 -0.1492
 2704Sol     OW13855   3.070   3.031   1.409 -0.7051 -0.5266  0.0919
 2704Sol     HW13856   3.120   2.992   1.481 -1.2466  1.0899  1.3589
 2704Sol     HW13857   3.134   3.086   1.364 -0.4229 -1.3630 -0.5390
 2704Sol     MW13858   3.081   3.033   1.411  0.6457 -0.2771 -0.2750
 2705Sol     OW13859   1.300   1.234   5.229  0.0242  0.2488 -0.1732
 2705Sol     HW13860   1.382   1.280   5.213 -0.0316  0.4420  0.1107
 2705Sol     HW13861   1.243   1.298   5.271  0.0316 -0.1514  0.4474
 2705Sol     MW13862   1.302   1.244   5.231  0.2282 -0.2472  0.1235
 2706Sol     OW13863   2.471   1.209   5.071  0.4086  0.2699 -0.1801
 2706Sol     HW13864   2.509   1.155   5.141 -1.9023 -0.6428  0.4170
 2706Sol     HW13865   2.399   1.156   5.036 -1.5827  2.7081  0.0395
 2706Sol     MW13866   2.468   1.199   5.074  0.4452  0.2975 -0.1449
 2707Sol     OW13867   0.041   2.959   6.670 -0.1673 -0.1451  0.0777
 2707Sol     HW13868  -0.048   2.985   6.696 -0.2405 -1.6474  1.4474
 2707Sol     HW13869   0.098   3.010   6.727 -0.2366 -0.8373  0.7875
 2707Sol     MW13870   0.038   2.966   6.678 -0.7335 -0.3454 -0.0664
 2708Sol     OW13871   2.600   0.830   4.343  0.2094  0.3076  0.8153
 2708Sol     HW13872   2.615   0.806   4.251 -0.1443 -1.6094  1.2353
 2708Sol     HW13873   2.646   0.914   4.354 -0.2504  0.8669 -1.2645
 2708Sol     MW13874   2.605   0.836   4.335 -0.2145  0.3237 -0.5766
 2709Sol     OW13875   0.755   3.149   6.105  0.1745 -0.0795  1.0330
 2709Sol     HW13876   0.774   3.239   6.077  1.7423 -0.2297  1.5765
 2709Sol     HW13877   0.743   3.157   6.200 -1.0932 -0.2289  0.8958
 2709Sol     MW13878   0.755   3.158   6.111 -0.1507  0.0408  0.3942
 2710Sol     OW13879   1.555   3.238   4.474 -0.3411 -0.0004  0.0555
 2710Sol     HW13880   1.529   3.310   4.417  1.4616 -0.0622 -0.8741
 2710Sol     HW13881   1.577   3.279   4.557 -1.8149  0.2202  0.3529
 2710Sol     MW13882   1.554   3.248   4.476  0.1674 -0.0759 -0.5584
 2711Sol     OW13883   1.865   2.215   2.305 -0.2422  0.8036  0.0361
 2711Sol     HW13884   1.871   2.122   2.330 -0.0017  1.1963  1.4782
 2711Sol     HW13885   1.784   2.220   2.254  0.4021 -0.4363 -1.1611
 2711Sol     MW13886   1.858   2.207   2.303 -0.4020 -0.1351 -0.3410
 2712Sol     OW13887   2.235   2.599   5.737  0.1569 -0.6917  0.0020
 2712Sol     HW13888   2.291   2.603   5.815  0.4650 -1.2075 -0.1873
 2712Sol     HW13889   2.146   2.591   5.771  0.1659  0.4208  0.3096
 2712Sol     MW13890   2.232   2.599   5.747  0.5129 -0.1619 -0.5190
 2713Sol     OW13891   0.372   2.735   7.226 -0.6846  0.9364 -0.2588
 2713Sol     HW13892   0.333   2.716   7.311 -2.9294  0.4298 -1.3636
 2713Sol     HW13893   0.335   2.819   7.201  1.4125  1.9876  0.0630
 2713Sol     MW13894   0.365   2.741   7.231  0.4919  0.0164 -0.0968
 2714Sol     OW13895   1.977   2.396   2.494 -0.0500  0.2372 -0.0730
 2714Sol     HW13896   1.895   2.443   2.510 -0.8369 -0.9515 -0.5590
 2714Sol     HW13897   1.962   2.348   2.412  1.2813  0.3422 -0.3880
 2714Sol     MW13898   1.968   2.396   2.488  0.2687  0.0500  0.1092
 2715Sol     OW13899   3.245   0.944   5.968 -0.0339 -0.6674  0.5231
 2715Sol     HW13900   3.296   0.870   5.935  2.0408  1.0667 -0.3151
 2715Sol     HW13901   3.287   0.967   6.051 -0.5163 -0.2770  0.6637
 2715Sol     MW13902   3.253   0.939   5.972 -0.2530  0.6707  0.0212
 2716Sol     OW13903   0.317   0.782   8.357 -0.4860 -0.6912 -0.6328
 2716Sol     HW13904   0.389   0.728   8.324 -0.1958  0.0942 -1.3090
 2716Sol     HW13905   0.291   0.834   8.281 -1.3334 -0.5058 -0.2102
 2716Sol     MW13906   0.321   0.782   8.347 -0.3860 -0.1273 -0.2279
 2717Sol     OW13907   1.862   0.097   4.130  0.1220  0.2197  0.1844
 2717Sol     HW13908   1.803   0.141   4.191  0.3172  0.8734 -0.1011
 2717Sol     HW13909   1.947   0.138   4.144  0.9043 -1.8160  1.7529
 2717Sol     MW13910   1.864   0.104   4.137  0.5079  0.2611 -0.1993
 2718Sol     OW13911   3.106   0.825   2.142  0.6538 -0.1548  0.3494
 2718Sol     HW13912   3.064   0.855   2.061  0.3454 -2.0251 -0.2049
 2718Sol     HW13913   3.100   0.729   2.138  0.1278 -0.2502  2.8576
 2718Sol     MW13914   3.102   0.819   2.134  0.1592  1.1714 -0.2530
 2719Sol     OW13915   0.449   1.768   8.075  0.1406  0.3344  0.3443
 2719Sol     HW13916   0.432   1.711   8.150  0.0783  0.5923  0.5227
 2719Sol     HW13917   0.531   1.735   8.038 -1.5535 -1.9967 -1.5064
 2719Sol     MW13918   0.455   1.760   8.078  0.2143 -0.3715 -0.2197
 2720Sol     OW13919   2.938   2.793   5.245  0.1648 -0.3796 -0.3393
 2720Sol     HW13920   2.877   2.865   5.263  0.0931 -0.3739 -0.6053
 2720Sol     HW13921   3.025   2.834   5.247  0.2313 -0.5785  1.0410
 2720Sol     MW13922   2.941   2.803   5.247 -0.2156 -0.5449  0.3065
 2721Sol     OW13923   0.051   0.527   8.501  0.0071 -0.4918 -0.2562
 2721Sol     HW13924   0.099   0.582   8.563 -0.4158  0.3955 -0.7013
 2721Sol     HW13925  -0.026   0.498   8.550 -0.5946  0.6333 -0.5084
 2721Sol     MW13926   0.048   0.529   8.511  0.3968 -0.0270 -0.0198
 2722Sol     OW13927   0.613   0.208   7.781 -0.4257  0.2404 -0.2795
 2722Sol     HW13928   0.565   0.127   7.800 -1.4744  1.2278  1.3879
 2722Sol     HW13929   0.704   0.187   7.801 -0.6933 -0.5144  0.1595
 2722Sol     MW13930   0.617   0.198   7.784 -0.4936  0.3312  0.5223
 2723Sol     OW13931   2.107   2.481   6.987  0.2936 -0.2155 -0.6513
 2723Sol     HW13932   2.143   2.568   7.002  0.9074 -0.2798 -1.7107
 2723Sol     HW13933   2.183   2.423   6.986  0.0038 -0.5940 -1.1715
 2723Sol     MW13934   2.117   2.483   6.988 -0.5392  0.5041  0.6556
 2724Sol     OW13935   3.064   2.649   7.093 -0.6274  0.3075 -0.1490
 2724Sol     HW13936   3.044   2.701   7.015 -0.1032  1.6355  0.5917
 2724Sol     HW13937   3.083   2.561   7.059 -0.9348  0.7377 -1.4641
 2724Sol     MW13938   3.064   2.645   7.083 -0.4233  0.2623 -0.0257
 2725Sol     OW13939   0.803   1.637   4.932 -0.1059  0.3327  0.4073
 2725Sol     HW13940   0.741   1.684   4.988 -1.7563 -0.0442 -1.0554
 2725Sol     HW13941   0.889   1.671   4.958 -0.9988  1.6694  1.7161
 2725Sol     MW13942   0.805   1.644   4.939  0.8451 -0.6595 -0.2771
 2726Sol     OW13943   3.261   1.072   1.142 -0.8080  0.0135 -0.1762
 2726Sol     HW13944   3.203   1.148   1.141 -0.1822  0.5594  1.6172
 2726Sol     HW13945   3.234   1.023   1.220  2.8365  1.6973  2.2964
 2726Sol     MW13946   3.254   1.074   1.149 -0.0670 -0.0795  0.4522
 2727Sol     OW13947   1.291   0.402   8.635 -0.1582 -0.0324 -0.1227
 2727Sol     HW13948   1.281   0.438   8.723  1.4057 -0.0226  0.0733
 2727Sol     HW13949   1.336   0.471   8.586  0.5677 -0.7287 -0.4423
 2727Sol     MW13950   1.294   0.411   8.639  0.2103 -0.7451  0.3028
 2728Sol     OW13951   1.511   2.507   1.186 -0.2726 -0.0337 -0.3923
 2728Sol     HW13952   1.429   2.470   1.217 -0.7258  0.4630 -0.9904
 2728Sol     HW13953   1.576   2.437   1.200 -0.9249 -0.6774 -0.5750
 2728Sol     MW13954   1.510   2.497   1.190  0.2158 -1.0746  0.4248
 2729Sol     OW13955   0.044   1.348   6.774  0.5827  0.3257  0.2468
 2729Sol     HW13956   0.076   1.426   6.729  2.0936 -1.7068 -2.3712
 2729Sol     HW13957  -0.002   1.298   6.706 -3.2540  0.4707  2.6549
 2729Sol     MW13958   0.043   1.350   6.764  0.8763  0.3218  0.2068
 2730Sol     OW13959   1.867   2.906   4.729  0.0465 -0.2420  0.3705
 2730Sol     HW13960   1.935   2.875   4.789  0.1323  1.7102  1.3181
 2730Sol     HW13961   1.898   2.992   4.700 -1.0845 -0.1874 -0.7086
 2730Sol     MW13962   1.876   2.911   4.732 -0.1253  0.4023 -0.0329
 2731Sol     OW13963   1.065   0.457   1.557  0.3612 -0.0885  0.5101
 2731Sol     HW13964   1.083   0.382   1.613  0.0919  1.1252  2.2517
 2731Sol     HW13965   1.123   0.444   1.481  0.5622 -1.8579  0.9422
 2731Sol     MW13966   1.072   0.449   1.555  0.0936 -0.0041  0.3715
 2732Sol     OW13967   1.972   2.058   6.551  0.2589 -0.3537 -0.1318
 2732Sol     HW13968   2.039   2.108   6.598  1.4575 -1.5155 -0.5848
 2732Sol     HW13969   1.978   2.091   6.461 -0.5858  0.3744  0.0788
 2732Sol     MW13970   1.979   2.066   6.547  0.0006  0.1994 -0.7851
 2733Sol     OW13971   0.648   3.171   4.542  1.0787 -0.7434 -0.3055
 2733Sol     HW13972   0.579   3.125   4.495 -0.8115  2.0834 -0.3962
 2733Sol     HW13973   0.710   3.103   4.567 -0.7511 -3.0574 -1.9432
 2733Sol     MW13974   0.648   3.161   4.540 -0.1844 -0.0646  0.3497
 2734Sol     OW13975   3.225   2.202   7.270 -0.0170 -0.3169  0.1102
 2734Sol     HW13976   3.259   2.117   7.298  2.3304  1.3765  2.7555
 2734Sol     HW13977   3.261   2.215   7.182 -0.0728 -1.8642 -0.1559
 2734Sol     MW13978   3.231   2.196   7.265 -1.0731 -0.2759 -0.8200
 2735Sol     OW13979   2.896   1.759   2.913 -0.0674 -0.4062 -0.0376
 2735Sol     HW13980   2.810   1.791   2.941  0.8545  2.1700 -0.0551
 2735Sol     HW13981   2.942   1.738   2.994  0.0213  0.1496  0.0538
 2735Sol     MW13982   2.892   1.760   2.923  0.5825 -0.3787 -0.0748
 2736Sol     OW13983   1.420   2.242   5.252  0.4400  0.0451 -0.3510
 2736Sol     HW13984   1.369   2.322   5.237  1.9951  1.1047 -0.1592
 2736Sol     HW13985   1.458   2.255   5.339  1.9678 -0.2087 -0.9752
 2736Sol     MW13986   1.419   2.251   5.259  0.1172  0.2895 -0.5747
 2737Sol     OW13987   2.885   1.799   2.635  0.0038  0.3595 -0.3428
 2737Sol     HW13988   2.960   1.855   2.618 -0.6272  0.5553 -2.7547
 2737Sol     HW13989   2.884   1.786   2.730  3.4183 -0.1394 -0.3192
 2737Sol     MW13990   2.892   1.803   2.642  0.2332 -0.8276 -0.2231
 2738Sol     OW13991   0.656   2.555   3.885  0.3864 -0.0977 -0.0928
 2738Sol     HW13992   0.663   2.519   3.973 -0.0344  0.0472  0.0007
 2738Sol     HW13993   0.648   2.478   3.828  2.0038 -0.2478 -0.1452
 2738Sol     MW13994   0.656   2.545   3.888 -0.0938 -0.1697 -0.1737
 2739Sol     OW13995   3.497   0.899   4.280 -0.3175  0.0714 -0.2101
 2739Sol     HW13996   3.566   0.848   4.325 -0.4360  1.0344  1.0859
 2739Sol     HW13997   3.420   0.842   4.284 -0.1959 -0.0595  0.3680
 2739Sol     MW13998   3.497   0.889   4.285 -0.3597 -0.0799  0.6613
 2740Sol     OW13999   0.368   1.227   3.676 -0.6658 -0.1730 -0.1519
 2740Sol     HW14000   0.444   1.179   3.642 -1.0184  0.2499 -1.5856
 2740Sol     HW14001   0.357   1.194   3.765  1.1772 -0.2684  0.0742
 2740Sol     MW14002   0.374   1.220   3.681  0.0394  0.2104 -0.3769
 2741Sol     OW14003   2.106   0.032   2.003  0.3616 -0.8947  0.4245
 2741Sol     HW14004   2.070   0.079   1.928  1.1533 -1.2637 -0.2039
 2741Sol     HW14005   2.056  -0.049   2.006 -0.7625 -0.1843  1.2902
 2741Sol     MW14006   2.099   0.029   1.996  0.3050  0.4210 -0.0817
 2742Sol     OW14007   0.215   2.520   4.162 -0.5984 -0.4725  0.4888
 2742Sol     HW14008   0.280   2.561   4.106 -1.3945  0.6679  0.3792
 2742Sol     HW14009   0.255   2.437   4.188  1.2966  0.6367  1.2149
 2742Sol     MW14010   0.224   2.517   4.159 -0.6340 -0.8477  0.6812
 2743Sol     OW14011   1.416   0.807   8.337 -0.0722  0.0335  0.0490
 2743Sol     HW14012   1.371   0.876   8.386  0.0323  0.4330 -0.4069
 2743Sol     HW14013   1.345   0.751   8.304 -0.1429 -0.2326  0.6420
 2743Sol     MW14014   1.406   0.808   8.338 -0.4342 -0.8236 -0.7340
 2744Sol     OW14015   1.479   1.766   2.265 -0.5625 -0.2033 -0.3788
 2744Sol     HW14016   1.558   1.758   2.211 -0.9715 -1.2202 -0.8291
 2744Sol     HW14017   1.501   1.720   2.346 -1.9963 -3.8483 -1.9621
 2744Sol     MW14018   1.488   1.761   2.268  0.2387  0.2834 -0.2683
 2745Sol     OW14019   3.253   0.660   6.333 -0.0161 -0.1846  0.6581
 2745Sol     HW14020   3.181   0.721   6.350  0.0150  0.2008 -0.5190
 2745Sol     HW14021   3.228   0.616   6.251  1.8439  1.1311 -0.6488
 2745Sol     MW14022   3.244   0.661   6.327  0.1423  0.4439 -0.3995
 2746Sol     OW14023   2.836   2.121   3.290 -0.1130  0.3693 -0.2477
 2746Sol     HW14024   2.797   2.193   3.338  3.0848  0.5985  2.1788
 2746Sol     HW14025   2.895   2.163   3.227 -0.4356 -0.0559 -0.8412
 2746Sol     MW14026   2.838   2.131   3.288  1.0169 -0.3631  0.0292
 2747Sol     OW14027   0.652   3.164   5.161  0.3228 -0.0107 -0.5273
 2747Sol     HW14028   0.725   3.128   5.211 -1.0210 -1.2430  0.5740
 2747Sol     HW14029   0.673   3.258   5.153  1.2875 -0.0758  1.0511
 2747Sol     MW14030   0.660   3.170   5.165  0.2314 -0.7017 -0.8257
 2748Sol     OW14031   1.849   1.205   6.821  0.1761 -0.2971  0.7220
 2748Sol     HW14032   1.873   1.265   6.749  0.5763  0.2801  1.3269
 2748Sol     HW14033   1.826   1.123   6.777 -2.6109  0.9705 -0.3005
 2748Sol     MW14034   1.849   1.203   6.810 -0.0140  0.3986  0.0554
 2749Sol     OW14035   1.011   0.465   7.781  0.0849  0.1322  0.1743
 2749Sol     HW14036   0.916   0.466   7.779  0.0541 -0.9393  0.5514
 2749Sol     HW14037   1.033   0.435   7.869  0.7340 -1.8721 -0.6333
 2749Sol     MW14038   1.005   0.462   7.789 -0.1276 -0.1724 -0.9153
 2750Sol     OW14039   2.450   1.306   3.108 -0.0112  0.6366 -1.3138
 2750Sol     HW14040   2.388   1.264   3.167  0.6988  0.8347 -0.4071
 2750Sol     HW14041   2.439   1.400   3.124 -1.9274  0.8554 -3.6739
 2750Sol     MW14042   2.444   1.311   3.115  0.0753  0.5017 -0.7877
 2751Sol     OW14043   2.210   2.359   8.069  0.3182 -0.1587  0.0401
 2751Sol     HW14044   2.189   2.266   8.078  2.9260 -0.9287 -1.2442
 2751Sol     HW14045   2.251   2.382   8.153  1.0401 -0.5741 -0.1936
 2751Sol     MW14046   2.212   2.352   8.078  0.3338  0.4258  0.2113
 2752Sol     OW14047   1.466   0.578   4.327  0.7582  0.6918 -0.5952
 2752Sol     HW14048   1.486   0.669   4.303 -0.7365  1.1802 -0.0281
 2752Sol     HW14049   1.481   0.575   4.422  2.0765 -0.0052 -0.8156
 2752Sol     MW14050   1.469   0.586   4.333  0.0350  0.5662 -0.2340
 2753Sol     OW14051   2.370   0.030   1.396 -0.6535  0.4442 -0.1087
 2753Sol     HW14052   2.421  -0.047   1.371 -2.1014 -1.0792  1.4653
 2753Sol     HW14053   2.408   0.102   1.346  0.4009 -1.3886 -1.9913
 2753Sol     MW14054   2.378   0.029   1.389 -0.1053 -0.0788  0.7436
 2754Sol     OW14055   2.359   2.800   8.591 -0.1265  0.3991 -0.6528
 2754Sol     HW14056   2.411   2.789   8.511  0.8105  0.7829 -0.1152
 2754Sol     HW14057   2.414   2.764   8.660 -2.2286 -2.7861 -0.5680
 2754Sol     MW14058   2.369   2.796   8.590  0.3731 -0.1280  0.0099
 2755Sol     OW14059   1.110   1.163   2.820 -0.2686 -0.2600  0.0675
 2755Sol     HW14060   1.077   1.221   2.888  0.1749 -0.3918  0.3966
 2755Sol     HW14061   1.060   1.188   2.742  1.9001  2.5290 -0.5109
 2755Sol     MW14062   1.102   1.171   2.819  0.0079 -0.3195  0.2091
 2756Sol     OW14063   2.543   1.433   4.092  0.5357  0.6565 -0.3059
 2756Sol     HW14064   2.597   1.502   4.054 -1.5270  1.2618 -2.2776
 2756Sol     HW14065   2.459   1.475   4.108  0.2032 -0.6204  1.4012
 2756Sol     MW14066   2.540   1.443   4.090 -0.2228  0.4932  0.0151
 2757Sol     OW14067   0.579   0.929   8.205 -0.3351  0.3968  1.0897
 2757Sol     HW14068   0.486   0.945   8.215 -0.7945 -1.5181  0.1612
 2757Sol     HW14069   0.585   0.839   8.174  1.8007  0.6433  0.6695
 2757Sol     MW14070   0.571   0.922   8.203  0.3085  0.3843 -0.0787
 2758Sol     OW14071   1.798   0.421   2.848  0.1282 -0.1815 -0.6339
 2758Sol     HW14072   1.750   0.491   2.894  1.1056 -0.2730  0.5451
 2758Sol     HW14073   1.729   0.362   2.817 -0.7691  1.7270 -2.3800
 2758Sol     MW14074   1.787   0.422   2.850 -0.7279 -0.0885 -0.1151
 2759Sol     OW14075   1.730   2.756   8.508  0.1004  0.1677  0.1600
 2759Sol     HW14076   1.720   2.836   8.457  0.7329  0.5340  0.6028
 2759Sol     HW14077   1.794   2.778   8.575 -0.7359 -0.2971  1.1326
 2759Sol     MW14078   1.734   2.765   8.509 -0.4990 -0.0797 -0.0206
 2760Sol     OW14079   0.183   0.355   7.896 -0.7226 -0.0862  0.6137
 2760Sol     HW14080   0.202   0.292   7.826  1.4055  0.6411  0.4918
 2760Sol     HW14081   0.093   0.383   7.879 -0.7689 -1.0829 -0.9214
 2760Sol     MW14082   0.177   0.352   7.888  0.4279 -0.4102 -0.1015
 2761Sol     OW14083   1.907   0.905   8.162 -0.4939 -0.3345 -0.5507
 2761Sol     HW14084   1.986   0.928   8.112 -1.4454  0.5733 -1.6705
 2761Sol     HW14085   1.881   0.820   8.127  0.3706 -0.9731  0.3164
 2761Sol     MW14086   1.912   0.900   8.154 -0.2643  0.0053 -0.9398
 2762Sol     OW14087   2.413   0.335   8.352 -0.6011  0.3437  0.3388
 2762Sol     HW14088   2.486   0.296   8.399 -0.7710  0.1239  0.4262
 2762Sol     HW14089   2.393   0.415   8.399 -1.5397 -0.4706  1.3585
 2762Sol     MW14090   2.418   0.339   8.360  0.1972  0.5506  0.4674
 2763Sol     OW14091   0.806   1.352   4.630  0.4150  0.2823 -0.8847
 2763Sol     HW14092   0.857   1.272   4.618 -0.0823 -0.0519 -0.8381
 2763Sol     HW14093   0.864   1.423   4.605  0.3410 -0.1988 -2.4865
 2763Sol     MW14094   0.815   1.351   4.627 -0.0242 -0.3084  0.5657
 2764Sol     OW14095   1.557   2.186   7.030  0.6054  0.6180 -0.0139
 2764Sol     HW14096   1.532   2.095   7.046 -0.0030  1.0717  1.7636
 2764Sol     HW14097   1.614   2.209   7.103  0.8293  1.6278 -0.4962
 2764Sol     MW14098   1.560   2.180   7.038 -0.4408  0.4942  0.2768
 2765Sol     OW14099   1.072   0.484   6.470 -0.1677 -0.3871  0.2805
 2765Sol     HW14100   1.061   0.459   6.562  0.6405 -0.9582  0.2316
 2765Sol     HW14101   1.079   0.400   6.424 -0.3085 -0.0975 -0.2705
 2765Sol     MW14102   1.072   0.474   6.474  0.3034  0.5361  0.4091
 2766Sol     OW14103   1.357   0.417   8.113  0.3091  0.0055  0.2564
 2766Sol     HW14104   1.417   0.376   8.050 -1.2341  0.3853 -1.5251
 2766Sol     HW14105   1.326   0.345   8.167  0.8987 -0.4953 -0.0605
 2766Sol     MW14106   1.360   0.407   8.112 -0.1050  0.2637 -0.4842
 2767Sol     OW14107   2.390   1.136   6.201  0.0687 -0.3572  0.4832
 2767Sol     HW14108   2.474   1.091   6.204 -0.7103 -1.7931  0.9873
 2767Sol     HW14109   2.409   1.225   6.230  1.5261 -0.4921 -0.0485
 2767Sol     MW14110   2.399   1.140   6.204 -0.1560  0.7283 -0.3716
 2768Sol     OW14111   3.352   2.315   6.322 -0.3029 -0.0122 -0.0248
 2768Sol     HW14112   3.429   2.270   6.357  1.7248  1.6106 -2.2731
 2768Sol     HW14113   3.319   2.258   6.253 -0.0485  0.1514 -0.2797
 2768Sol     MW14114   3.356   2.306   6.319 -0.5236  0.4233  0.3758
 2769Sol     OW14115   3.515   1.842   8.244  0.1405 -0.2692  0.1572
 2769Sol     HW14116   3.426   1.868   8.268 -0.2368  0.0783 -1.5939
 2769Sol     HW14117   3.551   1.918   8.199  1.2078 -0.5370  0.5537
 2769Sol     MW14118   3.510   1.851   8.242  0.6091 -0.5833 -0.5704
 2770Sol     OW14119   0.638   0.331   2.289  0.6460 -0.2719  0.0140
 2770Sol     HW14120   0.575   0.349   2.220  1.5869 -1.2142 -1.1133
 2770Sol     HW14121   0.598   0.368   2.368 -2.2161 -2.4895 -0.2995
 2770Sol     MW14122   0.629   0.335   2.290  0.0239  0.2611 -0.0143
 2771Sol     OW14123   2.962   0.896   6.036 -0.2012 -0.1068  0.5336
 2771Sol     HW14124   3.056   0.894   6.054 -0.0149  1.8535 -0.0436
 2771Sol     HW14125   2.926   0.958   6.100 -0.7420  0.8713 -0.6966
 2771Sol     MW14126   2.967   0.901   6.043 -0.0767 -0.1153 -0.0905
 2772Sol     OW14127   2.587   3.338   7.145 -0.1097  0.2306  0.6846
 2772Sol     HW14128   2.520   3.276   7.116  0.2747 -0.9121  2.1438
 2772Sol     HW14129   2.539   3.419   7.164 -0.8730 -0.1425  0.3580
 2772Sol     MW14130   2.576   3.339   7.144 -0.2152  0.1672 -0.6193
 2773Sol     OW14131   2.430   3.110   3.980  0.1636  0.0564 -0.5438
 2773Sol     HW14132   2.420   3.027   4.027 -0.9426  0.6694  0.3509
 2773Sol     HW14133   2.461   3.171   4.047  0.7261  0.4193 -1.1350
 2773Sol     MW14134   2.432   3.108   3.990  0.0861  0.5523  1.1836
 2774Sol     OW14135   0.287   2.395   7.038 -0.3553 -1.1079 -0.3280
 2774Sol     HW14136   0.373   2.435   7.046 -1.2852  0.6548  0.9354
 2774Sol     HW14137   0.306   2.303   7.016  1.8126 -0.6104 -0.6495
 2774Sol     MW14138   0.296   2.390   7.037  0.4337  0.8361 -0.1722
 2775Sol     OW14139   3.508   0.044   3.451  0.2747  0.5736 -0.4749
 2775Sol     HW14140   3.445   0.086   3.393 -0.2867 -0.3878 -0.5681
 2775Sol     HW14141   3.556  -0.017   3.394 -0.9023 -1.0549  0.2343
 2775Sol     MW14142   3.507   0.042   3.441  0.2328 -0.6774 -0.4780
 2776Sol     OW14143   1.325   1.486   6.975  0.0410  0.4186  0.1604
 2776Sol     HW14144   1.364   1.565   7.012  1.7599 -0.8148  1.0595
 2776Sol     HW14145   1.246   1.472   7.027  0.0624  1.1753  0.4114
 2776Sol     MW14146   1.322   1.492   6.983  0.4952  0.3521  0.0910
 2777Sol     OW14147   0.438   0.066   3.356  0.0768  0.2694 -0.5217
 2777Sol     HW14148   0.422   0.014   3.277 -1.1344  1.0461 -0.8060
 2777Sol     HW14149   0.350   0.094   3.384  0.6209  1.2274  0.2568
 2777Sol     MW14150   0.428   0.064   3.351 -0.3238  0.0060  0.0610
 2778Sol     OW14151   2.013   3.277   4.035 -0.2106  0.4554 -0.5659
 2778Sol     HW14152   2.088   3.335   4.032 -0.5497  0.8573 -1.3737
 2778Sol     HW14153   1.946   3.326   4.082  1.1209 -1.1990  3.2183
 2778Sol     MW14154   2.014   3.286   4.039 -0.3065 -0.5327 -0.3722
 2779Sol     OW14155   2.749   0.124   5.070 -0.4748 -0.2660 -0.3075
 2779Sol     HW14156   2.840   0.154   5.078 -0.5189 -0.1835 -0.1297
 2779Sol     HW14157   2.746   0.044   5.122 -0.4638 -0.3589 -0.4468
 2779Sol     MW14158   2.757   0.119   5.075 -0.4181 -0.5636 -0.0266
 2780Sol     OW14159   1.928   2.726   5.467  0.3172 -0.4046 -0.9679
 2780Sol     HW14160   2.020   2.703   5.455  0.2369 -1.4207  0.2394
 2780Sol     HW14161   1.887   2.644   5.495 -1.0059 -0.0121 -1.7178
 2780Sol     MW14162   1.933   2.717   5.468  0.1861 -0.1368 -0.6558
 2781Sol     OW14163   3.522   2.836   4.449 -0.0642 -0.1336  0.0631
 2781Sol     HW14164   3.456   2.829   4.518  1.2378  1.1110  1.4656
 2781Sol     HW14165   3.474   2.816   4.368 -2.1067  0.5717  1.0613
 2781Sol     MW14166   3.512   2.834   4.448  0.9334  0.7388  0.4106
 2782Sol     OW14167   3.020   2.060   2.646  0.2422  0.4971  0.2888
 2782Sol     HW14168   2.965   2.060   2.568 -0.0493  1.0103  0.4899
 2782Sol     HW14169   3.093   2.002   2.624  1.5664  2.7050 -1.3589
 2782Sol     MW14170   3.022   2.055   2.637  0.3727 -0.2424  0.5469
 2783Sol     OW14171   0.508   2.539   4.417  0.2551 -0.9937 -0.6226
 2783Sol     HW14172   0.598   2.550   4.448  0.1243 -1.0220 -0.2367
 2783Sol     HW14173   0.473   2.629   4.413 -0.1667 -1.0975  0.6160
 2783Sol     MW14174   0.513   2.548   4.419  0.4482 -0.5699  0.5302
 2784Sol     OW14175   0.160   2.488   8.290  0.0085  0.1048  0.1977
 2784Sol     HW14176   0.082   2.447   8.328  0.0711 -0.8508 -0.6792
 2784Sol     HW14177   0.229   2.423   8.304  0.4974  0.6579  0.3623
 2784Sol     MW14178   0.159   2.478   8.295  0.0207 -0.0803 -0.3187
 2785Sol     OW14179   3.394   0.522   1.987  0.4118 -0.1972 -0.3465
 2785Sol     HW14180   3.476   0.505   1.940  0.1691  0.1661 -0.9125
 2785Sol     HW14181   3.348   0.586   1.932 -1.0194 -1.6683 -0.9314
 2785Sol     MW14182   3.397   0.526   1.978  0.7040  0.3245 -0.7229
 2786Sol     OW14183   2.501   2.209   8.475 -0.4359  0.4366  0.4429
 2786Sol     HW14184   2.591   2.229   8.499 -0.5358  0.0610  1.1526
 2786Sol     HW14185   2.498   2.220   8.380 -0.2998  3.0574  0.6900
 2786Sol     MW14186   2.508   2.212   8.469  0.5837  0.4425 -0.2594
 2787Sol     OW14187   1.503   0.438   5.856  0.0048  0.7369  0.4088
 2787Sol     HW14188   1.588   0.472   5.827 -0.3677  1.6697  0.4285
 2787Sol     HW14189   1.526   0.375   5.924  0.8241 -0.7207 -1.1558
 2787Sol     MW14190   1.513   0.435   5.859  0.4570  0.1260 -0.2498
 2788Sol     OW14191   0.464   1.624   5.228 -0.4577 -0.0093  0.0914
 2788Sol     HW14192   0.507   1.683   5.167 -0.0100 -1.1917 -0.7673
 2788Sol     HW14193   0.380   1.665   5.246  0.5429  1.7531  0.8884
 2788Sol     MW14194   0.460   1.633   5.224 -0.5210  0.8385 -0.4525
 2789Sol     OW14195   1.024   1.675   6.663 -0.2980 -0.2480 -0.0112
 2789Sol     HW14196   1.006   1.616   6.590  2.7879  0.3544 -1.3348
 2789Sol     HW14197   1.018   1.763   6.625  0.7362  0.0876  0.5829
 2789Sol     MW14198   1.022   1.678   6.653  1.0075  0.1013 -0.2871
 2790Sol     OW14199   1.374   2.741   5.615  0.3270  0.2261 -0.4058
 2790Sol     HW14200   1.302   2.804   5.616 -1.1119 -1.3749  1.6252
 2790Sol     HW14201   1.389   2.721   5.708  2.6314 -0.3391 -0.8689
 2790Sol     MW14202   1.369   2.745   5.624  1.0489 -0.1218 -0.1832
 2791Sol     OW14203   1.694   2.265   7.273  0.3153  0.0940 -0.3095
 2791Sol     HW14204   1.784   2.298   7.265  0.0740  0.8771  0.1849
 2791Sol     HW14205   1.699   2.200   7.344  0.5548 -0.1200 -0.5186
 2791Sol     MW14206   1.703   2.262   7.279  0.2280 -0.1221  0.0297
 2792Sol     OW14207   0.709   3.142   2.780 -0.2774 -0.0005  0.5793
 2792Sol     HW14208   0.789   3.194   2.790  1.8806 -2.8372 -1.3031
 2792Sol     HW14209   0.712   3.079   2.851  0.2018 -1.3658 -0.6214
 2792Sol     MW14210   0.717   3.141   2.787 -0.2901  0.3055  0.0662
 2793Sol     OW14211   3.338   2.585   6.299 -0.0023 -0.5626 -0.2343
 2793Sol     HW14212   3.327   2.491   6.313 -0.1540 -0.4130  0.7249
 2793Sol     HW14213   3.400   2.613   6.366  0.6301 -0.1068 -0.9999
 2793Sol     MW14214   3.342   2.579   6.306 -0.5328  0.2455  0.2030
 2794Sol     OW14215   3.124   0.939   4.937  0.6946 -0.2584 -0.4233
 2794Sol     HW14216   3.117   0.850   4.902  0.5588 -0.7062  0.7233
 2794Sol     HW14217   3.209   0.940   4.982 -0.8323 -0.9032  2.5736
 2794Sol     MW14218   3.131   0.931   4.938  0.9793 -0.2026 -0.3296
 2795Sol     OW14219   0.791   1.952   1.796  0.0587 -0.5557  0.2780
 2795Sol     HW14220   0.810   1.927   1.705  0.8482 -0.1027  0.3154
 2795Sol     HW14221   0.696   1.950   1.801  0.0322 -1.3563 -0.3420
 2795Sol     MW14222   0.784   1.949   1.788 -0.7542  0.2544  0.3694
 2796Sol     OW14223   0.116   0.898   6.419  1.5063 -0.5674 -0.1198
 2796Sol     HW14224   0.027   0.879   6.389  1.3594 -1.0163  0.5982
 2796Sol     HW14225   0.173   0.862   6.351  1.1553 -0.9360 -0.2202
 2796Sol     MW14226   0.113   0.893   6.410 -0.4905 -0.0110  0.3237
 2797Sol     OW14227   2.343   0.622   6.967 -0.0041  0.1299  0.0053
 2797Sol     HW14228   2.277   0.613   6.897  0.9233 -0.6154 -0.7831
 2797Sol     HW14229   2.330   0.545   7.022 -1.1774  1.0530  1.0565
 2797Sol     MW14230   2.336   0.615   6.966  0.2673  0.6276  0.0987
 2798Sol     OW14231   2.252   1.335   4.568 -0.3788  0.2036  0.4252
 2798Sol     HW14232   2.342   1.364   4.553  0.1011 -0.0121  2.6926
 2798Sol     HW14233   2.201   1.416   4.565 -0.0835  0.3720 -0.4962
 2798Sol     MW14234   2.256   1.345   4.566 -0.4250 -0.0642  0.1852
 2799Sol     OW14235   2.766   2.652   1.820  0.0033  0.1711  0.0393
 2799Sol     HW14236   2.697   2.585   1.818  0.2815 -0.1064 -1.2032
 2799Sol     HW14237   2.791   2.658   1.912 -0.3811 -1.0803  0.2424
 2799Sol     MW14238   2.762   2.646   1.828 -0.1246 -0.8083  0.6536
 2800Sol     OW14239   0.574   2.169   4.624 -0.0388  0.3188 -0.1990
 2800Sol     HW14240   0.606   2.136   4.539 -1.5060 -2.9252  0.4225
 2800Sol     HW14241   0.479   2.163   4.617 -0.1561 -0.3043  1.7706
 2800Sol     MW14242   0.569   2.165   4.615 -0.1671  0.0961  0.4918
 2801Sol     OW14243   2.246   1.467   2.035 -0.7736  0.4776  0.3557
 2801Sol     HW14244   2.158   1.429   2.034 -0.6064  0.0926  0.1723
 2801Sol     HW14245   2.299   1.405   1.985  0.2963 -0.9447  3.1174
 2801Sol     MW14246   2.243   1.458   2.031  0.0077 -0.6963  0.5027
 2802Sol     OW14247   2.410   2.970   6.287 -0.2170  0.1781 -0.0492
 2802Sol     HW14248   2.419   3.062   6.310 -1.8335  0.4982 -0.6338
 2802Sol     HW14249   2.498   2.934   6.295  0.2857  1.6053  0.8915
 2802Sol     MW14250   2.419   2.975   6.289 -0.3560 -0.3992  0.3246
 2803Sol     OW14251   0.817   1.744   5.323 -0.6209  0.2696  0.3057
 2803Sol     HW14252   0.851   1.741   5.413 -3.0418 -0.9557  1.2145
 2803Sol     HW14253   0.761   1.821   5.322 -1.4404 -0.3272  0.1602
 2803Sol     MW14254   0.815   1.751   5.331  0.0301 -0.1712  0.4803
 2804Sol     OW14255   0.931   0.870   3.354  0.1003  0.2562  0.3787
 2804Sol     HW14256   0.947   0.961   3.332  1.6105  0.0631  0.6555
 2804Sol     HW14257   0.920   0.826   3.270  0.6270  0.4649  0.2008
 2804Sol     MW14258   0.931   0.874   3.345 -1.1681  0.3586 -0.0500
 2805Sol     OW14259   0.338   0.088   2.433  0.4441  0.5310 -0.2720
 2805Sol     HW14260   0.337   0.126   2.345  0.9374  0.7658 -0.1764
 2805Sol     HW14261   0.408   0.134   2.479 -0.2618  0.8979  0.4663
 2805Sol     MW14262   0.344   0.096   2.429  0.0623 -1.0044 -0.2296
 2806Sol     OW14263   1.984   0.448   5.100 -0.2037 -0.3247  0.2908
 2806Sol     HW14264   2.035   0.373   5.068  0.9189  0.9266 -0.9283
 2806Sol     HW14265   2.040   0.487   5.167  0.5239  1.0863 -1.0902
 2806Sol     MW14266   1.994   0.445   5.103 -0.2237 -1.1529 -0.1442
 2807Sol     OW14267   0.246   1.771   5.610 -0.3476  0.2406  0.1864
 2807Sol     HW14268   0.286   1.686   5.626  0.8841  0.6904 -0.4314
 2807Sol     HW14269   0.243   1.813   5.696  0.2777  0.1053  0.2754
 2807Sol     MW14270   0.249   1.767   5.619  0.5033  0.8192 -0.2274
 2808Sol     OW14271   0.652   1.862   2.115 -0.0671  0.1241 -0.4279
 2808Sol     HW14272   0.609   1.894   2.036 -0.4077  1.6257  0.3514
 2808Sol     HW14273   0.685   1.941   2.157  3.5005 -0.9635 -1.0169
 2808Sol     MW14274   0.651   1.872   2.111  0.4431 -0.6082 -0.4495
 2809Sol     OW14275   0.687   1.747   7.951  0.0770  0.5152  0.0340
 2809Sol     HW14276   0.734   1.826   7.975 -2.0899  1.5583  0.9094
 2809Sol     HW14277   0.671   1.757   7.857 -0.9814  1.5280  0.3244
 2809Sol     MW14278   0.690   1.755   7.944 -0.4620  0.0907 -0.9451
 2810Sol     OW14279   1.220   1.445   3.760  0.1260 -0.1673 -0.2856
 2810Sol     HW14280   1.218   1.440   3.664  0.4286  0.0658 -0.3053
 2810Sol     HW14281   1.165   1.372   3.789 -0.0569 -0.1713 -0.6380
 2810Sol     MW14282   1.215   1.438   3.754  0.1314  0.1713 -0.0205
 2811Sol     OW14283   3.065   2.923   4.531  0.1655 -0.8119 -0.4193
 2811Sol     HW14284   3.125   2.905   4.603 -0.2742 -0.6840 -0.0223
 2811Sol     HW14285   3.121   2.956   4.460  0.4922 -0.1989  0.1231
 2811Sol     MW14286   3.075   2.924   4.531 -0.6376  0.1555 -0.1693
 2812Sol     OW14287   0.498   0.867   7.445  0.5023  0.2114  0.3402
 2812Sol     HW14288   0.481   0.834   7.533  0.2560 -2.2063 -0.5862
 2812Sol     HW14289   0.585   0.832   7.423  0.1372 -0.0246 -0.7537
 2812Sol     MW14290   0.505   0.861   7.451  0.1558  0.5649  1.0999
 2813Sol     OW14291   2.502   2.154   1.730  0.4588 -0.0435  0.2127
 2813Sol     HW14292   2.550   2.072   1.745  0.1133 -0.3955 -0.5730
 2813Sol     HW14293   2.472   2.180   1.817 -0.9688 -1.7108  0.2394
 2813Sol     MW14294   2.504   2.149   1.739 -0.0603  0.8204 -0.1179
 2814Sol     OW14295   2.311   1.736   2.279 -0.3864 -0.6557 -0.4565
 2814Sol     HW14296   2.356   1.715   2.361  1.2222 -0.5933 -1.2991
 2814Sol     HW14297   2.239   1.673   2.274 -1.3910  0.3048  1.7141
 2814Sol     MW14298   2.308   1.728   2.286  0.5639 -0.0819 -0.5488
 2815Sol     OW14299   1.680   1.857   5.328  0.8536 -0.3403 -0.4141
 2815Sol     HW14300   1.615   1.922   5.304  1.6833  0.6701  0.0352
 2815Sol     HW14301   1.682   1.796   5.254 -0.1836 -0.0591 -0.6773
 2815Sol     MW14302   1.675   1.857   5.319 -0.6015  0.3429 -0.1135
 2816Sol     OW14303   2.224   1.279   7.052 -0.1742 -0.0267 -0.1602
 2816Sol     HW14304   2.208   1.308   6.962  1.7566 -2.4166 -1.3255
 2816Sol     HW14305   2.310   1.315   7.074 -1.8864  3.0808  1.8988
 2816Sol     MW14306   2.230   1.285   7.046 -0.9072 -0.9563 -0.4247
 2817Sol     OW14307   3.088   1.008   7.313 -0.1765  0.0631 -0.6108
 2817Sol     HW14308   3.115   0.920   7.287  0.4537 -0.0237  0.3099
 2817Sol     HW14309   3.041   0.996   7.395 -1.6028  0.4065 -1.3467
 2817Sol     MW14310   3.086   0.999   7.318  0.2281  0.0271 -0.7470
 2818Sol     OW14311   1.867   1.379   4.220  0.1256 -0.2542 -0.4008
 2818Sol     HW14312   1.875   1.312   4.289  1.4249 -2.4028 -2.5369
 2818Sol     HW14313   1.897   1.460   4.262 -0.6664 -1.1704  2.0206
 2818Sol     MW14314   1.871   1.380   4.230  0.2165  1.1811 -0.0687
 2819Sol     OW14315   1.874   2.598   6.765  0.4519 -0.1742 -0.7992
 2819Sol     HW14316   1.823   2.653   6.706 -1.6458  0.4895  1.5572
 2819Sol     HW14317   1.819   2.522   6.781  0.3375  0.3131  1.3761
 2819Sol     MW14318   1.864   2.596   6.761 -0.3507 -0.0926 -0.5643
 2820Sol     OW14319   2.188   3.181   1.708 -0.0911  0.0721 -0.2644
 2820Sol     HW14320   2.190   3.242   1.635 -0.2018  0.3892 -0.0002
 2820Sol     HW14321   2.129   3.112   1.679 -1.1885  0.8737  0.0664
 2820Sol     MW14322   2.183   3.180   1.699  0.5489  0.3135 -0.1132
 2821Sol     OW14323   0.837   0.499   1.903 -0.4655  0.6521  0.5652
 2821Sol     HW14324   0.859   0.559   1.832 -1.4517  0.3201 -0.0417
 2821Sol     HW14325   0.912   0.502   1.962  0.4833  0.7151 -0.6408
 2821Sol     MW14326   0.845   0.505   1.902 -0.2077 -0.4663  0.4428
 2822Sol     OW14327   0.413   2.724   6.921 -0.2024 -0.6348 -0.3195
 2822Sol     HW14328   0.384   2.726   7.012  0.9939 -2.2353  0.0995
 2822Sol     HW14329   0.333   2.708   6.871 -0.5828 -1.5794  0.5813
 2822Sol     MW14330   0.403   2.723   6.925 -0.8590 -0.4628 -0.0678
 2823Sol     OW14331   3.383   2.525   6.994  0.9280  0.0026 -0.3232
 2823Sol     HW14332   3.362   2.555   7.082  0.8946  0.6582 -0.5467
 2823Sol     HW14333   3.310   2.468   6.970 -0.2839  1.7188 -0.8299
 2823Sol     MW14334   3.375   2.523   7.000 -0.4561  0.4273 -0.0904
 2824Sol     OW14335   2.775   1.189   8.336  0.4937 -0.4274 -0.7068
 2824Sol     HW14336   2.796   1.201   8.428  1.1780 -0.0157 -0.9179
 2824Sol     HW14337   2.721   1.109   8.334 -0.0857 -0.0689  0.1219
 2824Sol     MW14338   2.772   1.183   8.344  0.1638  0.0977  0.0476
 2825Sol     OW14339   3.282   0.021   1.480  0.1652  0.4420  0.0151
 2825Sol     HW14340   3.366   0.004   1.438 -0.7470 -0.9338 -1.2852
 2825Sol     HW14341   3.281  -0.037   1.556  0.5794  0.8079  0.3037
 2825Sol     MW14342   3.289   0.014   1.483  0.2496 -0.5456 -0.1568
 2826Sol     OW14343   1.013   2.872   8.124  0.3140 -0.1092 -0.7495
 2826Sol     HW14344   1.056   2.953   8.150  1.2662 -0.9737  0.4322
 2826Sol     HW14345   0.921   2.885   8.148  0.6091  0.3171  0.2052
 2826Sol     MW14346   1.009   2.880   8.129 -0.4275  0.2518 -0.0155
 2827Sol     OW14347   3.338   1.215   3.405  0.3600 -0.2974 -0.3227
 2827Sol     HW14348   3.245   1.235   3.402 -0.1786 -2.5361  0.4928
 2827Sol     HW14349   3.376   1.288   3.454 -0.9221  0.6839 -0.7456
 2827Sol     MW14350   3.333   1.224   3.409  0.1602 -0.2723 -0.3581
 2828Sol     OW14351   0.258   1.606   4.952 -0.0024  0.6718  0.5240
 2828Sol     HW14352   0.303   1.558   5.021 -0.1541  1.0909  0.9199
 2828Sol     HW14353   0.174   1.562   4.943  0.3092  0.1554  0.0848
 2828Sol     MW14354   0.255   1.598   4.958  0.6542  0.1798 -0.1260
 2829Sol     OW14355   0.815   2.180   5.105 -0.7859  0.1843 -1.0931
 2829Sol     HW14356   0.841   2.271   5.121 -1.7520  0.3351 -0.3817
 2829Sol     HW14357   0.790   2.179   5.013 -0.5848  0.5871 -1.1558
 2829Sol     MW14358   0.815   2.188   5.098  0.8071 -0.4972 -0.1092
 2830Sol     OW14359   0.864   2.383   3.501 -0.4709 -0.4575 -0.8489
 2830Sol     HW14360   0.848   2.315   3.435 -2.1734  0.0802 -1.0121
 2830Sol     HW14361   0.895   2.335   3.578 -1.5219 -1.4145 -1.0096
 2830Sol     MW14362   0.865   2.373   3.502  0.4431 -0.1563 -0.5067
 2831Sol     OW14363   3.036   3.347   4.757 -0.1587 -0.1810  0.4404
 2831Sol     HW14364   2.964   3.366   4.818 -0.2234 -0.3864  0.4302
 2831Sol     HW14365   2.994   3.301   4.684  0.0232 -0.5254  0.5522
 2831Sol     MW14366   3.026   3.345   4.756 -0.7802 -0.0195 -0.6589
 2832Sol     OW14367   1.601   2.932   5.153 -0.2805  0.0391  0.1133
 2832Sol     HW14368   1.604   2.914   5.059  0.1971  0.8805 -0.0343
 2832Sol     HW14369   1.687   2.905   5.184 -0.6030 -0.6768  0.3920
 2832Sol     MW14370   1.609   2.928   5.147  0.2928  0.4508  0.7455
 2833Sol     OW14371   2.749   2.815   4.807 -0.1231  0.3279  0.3001
 2833Sol     HW14372   2.836   2.824   4.846 -0.2376 -1.6675  1.0855
 2833Sol     HW14373   2.751   2.729   4.764 -1.7193  0.2293  0.3845
 2833Sol     MW14374   2.757   2.808   4.807  0.3881 -0.1759  0.9872
 2834Sol     OW14375   2.537   1.239   4.317  0.0508  0.1204 -0.9057
 2834Sol     HW14376   2.580   1.312   4.273 -1.0092  1.1646 -0.2357
 2834Sol     HW14377   2.497   1.278   4.396 -0.1322 -1.2555 -0.2971
 2834Sol     MW14378   2.537   1.249   4.321  0.2091  0.3978 -0.5024
 2835Sol     OW14379   1.251   3.130   3.747  0.2715  0.6709  0.4531
 2835Sol     HW14380   1.202   3.096   3.821 -1.0550  1.0415 -0.2450
 2835Sol     HW14381   1.335   3.085   3.751 -0.5780 -0.9109  0.9318
 2835Sol     MW14382   1.254   3.123   3.754 -0.3619  0.0805  0.1715
 2836Sol     OW14383   1.622   1.352   3.590 -0.0348  0.3339  0.2848
 2836Sol     HW14384   1.711   1.317   3.581 -0.0488 -0.3426  2.4076
 2836Sol     HW14385   1.572   1.280   3.629 -0.7672  1.7022  1.9823
 2836Sol     MW14386   1.625   1.342   3.593  0.7686 -0.1462 -0.0836
 2837Sol     OW14387   1.909   0.913   8.699  0.2658  0.7624 -0.0754
 2837Sol     HW14388   1.969   0.859   8.751  1.3835  1.6392 -0.4277
 2837Sol     HW14389   1.849   0.951   8.763  0.2008  0.0155  0.3058
 2837Sol     MW14390   1.909   0.912   8.710  1.0093  0.3891  0.3979
 2838Sol     OW14391   3.451   2.183   6.669 -0.1292  0.3365  0.0222
 2838Sol     HW14392   3.497   2.156   6.749  1.8862  1.3399 -0.7702
 2838Sol     HW14393   3.448   2.278   6.674  1.4931  0.5269 -1.8688
 2838Sol     MW14394   3.455   2.189   6.677  0.6173 -0.0755  0.0486
 2839Sol     OW14395   1.970   2.080   4.189 -0.2683  0.2709 -0.0354
 2839Sol     HW14396   1.903   2.106   4.125  3.0114  1.9923 -2.9612
 2839Sol     HW14397   1.980   2.157   4.245  0.0197  0.4032 -0.2690
 2839Sol     MW14398   1.965   2.089   4.188  0.5216 -0.0898 -0.5591
 2840Sol     OW14399   0.657   0.190   8.233  0.2736  0.1867 -0.1104
 2840Sol     HW14400   0.748   0.171   8.211  0.6451  2.6645 -0.8166
 2840Sol     HW14401   0.641   0.138   8.312  2.2422 -0.3808 -0.0528
 2840Sol     MW14402   0.663   0.183   8.238  0.8757 -0.0172  0.5441
 2841Sol     OW14403   1.851   1.867   1.935  0.5163  0.1381  0.2952
 2841Sol     HW14404   1.908   1.803   1.892 -1.3910 -0.2697 -1.7151
 2841Sol     HW14405   1.817   1.821   2.012 -1.8410 -1.7956 -1.8132
 2841Sol     MW14406   1.853   1.857   1.938 -0.0804 -0.8771 -0.1793
 2842Sol     OW14407   2.140   3.312   8.638 -0.4016  0.2117 -0.0051
 2842Sol     HW14408   2.156   3.283   8.548  0.6265  0.8985 -0.0500
 2842Sol     HW14409   2.091   3.240   8.678  1.0119 -1.0353 -0.4892
 2842Sol     MW14410   2.137   3.303   8.634  0.6728  0.5369  0.3521
 2843Sol     OW14411   1.062   0.840   7.369  0.2439 -0.0667 -0.1802
 2843Sol     HW14412   1.125   0.803   7.431 -0.0898 -0.7928 -0.2757
 2843Sol     HW14413   1.095   0.928   7.351  1.1909 -0.4140 -0.1644
 2843Sol     MW14414   1.071   0.845   7.373 -0.1094  0.9721 -0.1913
 2844Sol     OW14415   3.142   1.405   7.673  0.1058  0.0588  0.2994
 2844Sol     HW14416   3.174   1.397   7.763 -0.9911 -0.1555  0.6823
 2844Sol     HW14417   3.212   1.368   7.619  0.5103 -0.3711  1.1103
 2844Sol     MW14418   3.151   1.401   7.677 -0.4513  0.2987 -1.2002
 2845Sol     OW14419   0.480   2.483   2.731  0.2085  0.2474  0.1986
 2845Sol     HW14420   0.515   2.569   2.753 -1.2782  1.1799 -0.9943
 2845Sol     HW14421   0.473   2.438   2.815  1.5149  1.0828  0.7645
 2845Sol     MW14422   0.482   2.486   2.741 -0.1878  0.4683  0.0445
 2846Sol     OW14423   2.687   0.162   1.578  0.2850  0.1828  0.4221
 2846Sol     HW14424   2.598   0.133   1.599  0.4600 -0.4802  0.2743
 2846Sol     HW14425   2.727   0.087   1.533  0.8614  0.5350  0.3374
 2846Sol     MW14426   2.683   0.153   1.576  0.4373 -0.3173  0.7030
 2847Sol     OW14427   1.170   1.997   9.048  0.1863  0.2404  0.8914
 2847Sol     HW14428   1.209   1.910   9.058 -0.5413 -0.6916 -3.5900
 2847Sol     HW14429   1.240   2.050   9.011  0.1132  1.2075  2.0806
 2847Sol     MW14430   1.180   1.994   9.046  0.1325  0.1019  0.5082
 2848Sol     OW14431   2.706   1.286   6.164  0.1132  0.0728  0.3929
 2848Sol     HW14432   2.689   1.258   6.074  0.4819  0.9158  0.0520
 2848Sol     HW14433   2.747   1.373   6.155  0.6956 -0.0902  1.3456
 2848Sol     MW14434   2.708   1.292   6.155 -0.6538 -0.4597  0.5795
 2849Sol     OW14435   2.023   0.071   6.031  0.0916  1.0286  0.1222
 2849Sol     HW14436   1.993   0.146   5.979 -0.7702 -1.2398 -2.7547
 2849Sol     HW14437   1.943   0.037   6.071  0.3764  1.1525  0.8089
 2849Sol     MW14438   2.013   0.075   6.030  0.1603 -0.0510 -0.0761
 2850Sol     OW14439   3.300   2.355   2.752 -0.0351 -0.2172 -0.3628
 2850Sol     HW14440   3.225   2.408   2.781 -0.2429 -0.9680  0.4640
 2850Sol     HW14441   3.374   2.415   2.757 -0.7162  0.8043 -2.0612
 2850Sol     MW14442   3.300   2.365   2.755  0.1672  0.4848  0.0946
 2851Sol     OW14443   3.438   0.423   2.687  1.0331  0.2395  0.1012
 2851Sol     HW14444   3.459   0.331   2.705 -0.2501  0.0445  0.6784
 2851Sol     HW14445   3.386   0.421   2.607 -0.0460  0.3286  0.7847
 2851Sol     MW14446   3.435   0.415   2.682  0.1651 -0.0661 -0.2716
 2852Sol     OW14447   2.168   0.998   4.882  0.1828  0.2034 -0.1654
 2852Sol     HW14448   2.098   0.953   4.834 -1.0229  2.2771 -0.4111
 2852Sol     HW14449   2.245   0.990   4.826 -0.3390 -0.4050 -0.8028
 2852Sol     MW14450   2.169   0.993   4.873  0.5471  0.0977  0.1434
 2853Sol     OW14451   0.586   1.468   6.531 -0.1448  0.2564  0.1418
 2853Sol     HW14452   0.637   1.388   6.539 -0.3733  0.1006  0.0434
 2853Sol     HW14453   0.500   1.439   6.502 -0.1530  0.5635 -0.1451
 2853Sol     MW14454   0.583   1.458   6.529  0.0999 -0.3486  0.1647
 2854Sol     OW14455   0.566   1.426   7.629 -0.4988 -0.3340  0.1361
 2854Sol     HW14456   0.630   1.403   7.697 -2.2329  2.9146  3.0395
 2854Sol     HW14457   0.484   1.388   7.660 -1.3209  1.2191 -0.0721
 2854Sol     MW14458   0.564   1.420   7.638 -0.4098  0.3884 -0.5854
 2855Sol     OW14459   1.886   1.270   3.522 -0.0945  0.3172  0.1775
 2855Sol     HW14460   1.979   1.292   3.516 -0.3487  1.1931 -0.5695
 2855Sol     HW14461   1.884   1.174   3.518  0.5442  0.4007 -2.9773
 2855Sol     MW14462   1.894   1.263   3.521 -0.3478  0.6240 -0.0931
 2856Sol     OW14463   3.010   0.389   1.358  0.2308  0.1004 -0.0703
 2856Sol     HW14464   2.926   0.425   1.386  0.1498  0.5236 -0.8350
 2856Sol     HW14465   3.008   0.297   1.384  0.3783  0.6096  1.7696
 2856Sol     MW14466   3.003   0.384   1.363 -0.1666  0.3750  0.3936
 2857Sol     OW14467   0.088   2.309   1.933 -0.0925  0.6128 -0.4966
 2857Sol     HW14468   0.083   2.404   1.932 -0.3167  0.6639  1.9859
 2857Sol     HW14469  -0.002   2.280   1.941 -0.0169  0.1802 -1.1524
 2857Sol     MW14470   0.080   2.315   1.934 -0.2128 -0.9674  0.6945
 2858Sol     OW14471   2.603   3.093   7.599  0.0107  0.0665 -0.3410
 2858Sol     HW14472   2.545   3.045   7.539 -1.9936  2.0891 -0.0908
 2858Sol     HW14473   2.602   3.183   7.566  1.7669  0.4604  0.6315
 2858Sol     MW14474   2.597   3.097   7.591  0.1137 -0.4090 -0.0662
 2859Sol     OW14475   1.063   1.867   4.836 -0.3865 -0.3913  0.0271
 2859Sol     HW14476   1.060   1.850   4.931 -0.6556  0.2785  0.1436
 2859Sol     HW14477   0.973   1.887   4.813 -0.3748 -0.8578 -0.4368
 2859Sol     MW14478   1.055   1.867   4.843  0.3020 -0.3643 -0.3646
 2860Sol     OW14479   2.603   1.578   5.901  0.0524 -0.2737  0.4709
 2860Sol     HW14480   2.638   1.516   5.836  1.2040 -0.5906  1.3730
 2860Sol     HW14481   2.586   1.658   5.852  1.1838 -0.4235 -0.1697
 2860Sol     MW14482   2.605   1.579   5.891 -0.1066 -0.3323 -0.2515
 2861Sol     OW14483   0.718   1.584   1.743  0.0370  0.2848  0.4553
 2861Sol     HW14484   0.639   1.597   1.690  0.0200  1.7485  0.8297
 2861Sol     HW14485   0.779   1.650   1.712  2.1601 -2.5419 -1.7289
 2861Sol     MW14486   0.716   1.591   1.735 -0.2572  0.1963 -0.1615
 2862Sol     OW14487   1.131   1.032   1.707 -0.1367 -0.3688 -0.3082
 2862Sol     HW14488   1.037   1.024   1.725  0.0158 -0.9447  0.2721
 2862Sol     HW14489   1.173   0.981   1.777  0.6872  1.4439  0.5466
 2862Sol     MW14490   1.126   1.026   1.715 -0.0283  0.7324 -0.1021
 2863Sol     OW14491   2.387   1.754   7.349  0.3169  0.0970  0.0834
 2863Sol     HW14492   2.403   1.840   7.311 -1.5788  0.7844  0.7415
 2863Sol     HW14493   2.314   1.768   7.410  0.0836 -1.9346  0.3248
 2863Sol     MW14494   2.382   1.763   7.351 -0.1160 -0.4429 -0.3481
 2864Sol     OW14495   1.960   1.305   1.794  0.4882  0.2928  0.2725
 2864Sol     HW14496   2.037   1.352   1.762 -0.5594  1.1875 -1.0292
 2864Sol     HW14497   1.956   1.327   1.887  2.7759 -1.1746  0.7414
 2864Sol     MW14498   1.966   1.312   1.800  0.2323 -0.2692  0.2409
 2865Sol     OW14499   1.390   0.560   5.598 -0.5784  0.1120  0.4408
 2865Sol     HW14500   1.423   0.526   5.681 -0.9241 -0.5347  0.3186
 2865Sol     HW14501   1.326   0.626   5.623 -0.6625 -0.0656  0.6910
 2865Sol     MW14502   1.387   0.563   5.607  0.2687 -0.0304  0.7802
 2866Sol     OW14503   1.495   0.780   2.772  0.1614  0.6496  0.6313
 2866Sol     HW14504   1.435   0.780   2.846  0.0203  1.5215  0.5238
 2866Sol     HW14505   1.456   0.840   2.709  1.1689  1.2622  0.5778
 2866Sol     MW14506   1.486   0.785   2.773 -0.5278  0.0046 -0.8446
 2867Sol     OW14507   1.053   1.705   8.499 -0.1120  0.2952  0.0981
 2867Sol     HW14508   1.053   1.729   8.407  0.1644 -1.3923 -0.3485
 2867Sol     HW14509   1.060   1.789   8.545  0.6795  1.0871 -1.4243
 2867Sol     MW14510   1.054   1.715   8.495  1.1772  0.9546 -0.6396
 2868Sol     OW14511   1.141   1.537   7.340 -0.1505  0.1772  0.0743
 2868Sol     HW14512   1.102   1.479   7.406 -1.7369 -0.5646 -1.4893
 2868Sol     HW14513   1.110   1.503   7.256 -0.5144  2.8356 -0.9183
 2868Sol     MW14514   1.135   1.529   7.339  0.4425 -0.6578 -0.0776
 2869Sol     OW14515   1.783   3.179   3.178  0.1882 -0.6486  0.0030
 2869Sol     HW14516   1.802   3.266   3.142 -1.2616 -0.0087  0.7255
 2869Sol     HW14517   1.714   3.144   3.121  1.3272 -1.6991 -0.7838
 2869Sol     MW14518   1.778   3.184   3.169 -0.1145  0.2272 -0.1682
 2870Sol     OW14519   3.039   0.024   5.561  0.1806 -0.3060 -0.3243
 2870Sol     HW14520   3.020  -0.038   5.631 -1.6932  1.1899  0.5219
 2870Sol     HW14521   3.096   0.089   5.602  1.6286 -1.1053 -1.0426
 2870Sol     MW14522   3.043   0.025   5.571 -0.3766  0.1745 -0.0265
 2871Sol     OW14523   3.380   2.802   6.854 -0.1145  0.6619 -0.1713
 2871Sol     HW14524   3.338   2.717   6.868  1.6560  0.1014  2.1990
 2871Sol     HW14525   3.315   2.867   6.879 -0.0844 -0.1542  2.1380
 2871Sol     MW14526   3.371   2.800   6.857  0.3970  0.1337 -0.4698
 2872Sol     OW14527   3.359   1.484   1.755 -0.0922 -0.4400  1.0507
 2872Sol     HW14528   3.327   1.421   1.820 -0.3285 -0.9415  0.4508
 2872Sol     HW14529   3.446   1.508   1.786 -1.0345  0.9716  2.7362
 2872Sol     MW14530   3.364   1.481   1.764  0.6265  0.5496  0.3791
 2873Sol     OW14531   1.671   2.899   1.924  0.5413  0.6762  0.5463
 2873Sol     HW14532   1.672   2.928   1.833  0.8667 -2.6712 -0.5967
 2873Sol     HW14533   1.600   2.948   1.965 -1.6162  0.0255 -2.2981
 2873Sol     MW14534   1.665   2.906   1.920 -0.3026 -0.9772  0.4206
 2874Sol     OW14535   0.491   3.354   4.720  0.3584 -0.5441  0.3613
 2874Sol     HW14536   0.536   3.438   4.725  0.2144 -0.5279  1.5422
 2874Sol     HW14537   0.514   3.319   4.634  0.5640  0.6189 -0.0581
 2874Sol     MW14538   0.497   3.358   4.713 -0.1806 -1.2052  0.2271
 2875Sol     OW14539   3.462   1.278   2.565 -0.0243 -0.1281  0.3802
 2875Sol     HW14540   3.515   1.340   2.517  1.2084 -0.4450  1.3149
 2875Sol     HW14541   3.403   1.332   2.617  1.2462  0.2817  1.4235
 2875Sol     MW14542   3.461   1.288   2.565  0.2158  0.7577 -0.6831
 2876Sol     OW14543   0.646   1.172   1.572  0.2707 -0.1285  0.1758
 2876Sol     HW14544   0.676   1.173   1.481  2.2874 -1.4373  0.8175
 2876Sol     HW14545   0.668   1.085   1.604  0.2288  0.5655  2.1421
 2876Sol     MW14546   0.650   1.165   1.567  0.1967  0.0092 -0.0627
 2877Sol     OW14547   0.537   2.361   3.449 -0.0559 -0.5641 -0.5479
 2877Sol     HW14548   0.580   2.344   3.364  0.4865  0.4610 -0.4940
 2877Sol     HW14549   0.476   2.288   3.460 -0.2381 -0.6349 -1.8969
 2877Sol     MW14550   0.535   2.353   3.442 -0.1668  0.9507  0.0769
 2878Sol     OW14551   2.873   2.610   3.195  0.4278  0.9361 -0.5710
 2878Sol     HW14552   2.806   2.642   3.255 -0.4281 -1.0854 -0.4237
 2878Sol     HW14553   2.828   2.599   3.111  1.3476  2.6303 -1.3171
 2878Sol     MW14554   2.863   2.612   3.193  0.6912  0.6955  0.3019
 2879Sol     OW14555   3.163   2.123   1.399 -0.6889  0.2859  0.2489
 2879Sol     HW14556   3.113   2.157   1.474  0.3961  1.8651  0.2718
 2879Sol     HW14557   3.157   2.192   1.333  0.9307  0.2127  0.0171
 2879Sol     MW14558   3.158   2.132   1.400 -0.0779  0.4276  0.2840
 2880Sol     OW14559   1.445   1.973   5.237  0.4797 -0.4471  0.0212
 2880Sol     HW14560   1.457   1.952   5.144 -3.2708 -0.6484 -0.5017
 2880Sol     HW14561   1.418   2.064   5.238 -0.4165 -0.7144  0.8528
 2880Sol     MW14562   1.444   1.979   5.229 -0.2860  0.3122 -0.5844
 2881Sol     OW14563   0.035   1.689   1.424  0.3929 -0.2478  0.0363
 2881Sol     HW14564  -0.043   1.722   1.469 -0.0802 -1.7697  0.3500
 2881Sol     HW14565   0.007   1.679   1.333  0.3838 -0.2402  0.0382
 2881Sol     MW14566   0.025   1.691   1.420 -0.6730  0.6236 -0.2931
 2882Sol     OW14567   2.743   2.362   7.447  0.9780 -0.1535 -0.2454
 2882Sol     HW14568   2.837   2.381   7.452  1.0042 -0.5931  1.1694
 2882Sol     HW14569   2.722   2.323   7.532 -0.4331 -0.3044 -0.6529
 2882Sol     MW14570   2.750   2.361   7.455  0.0603  0.4216  0.1098
 2883Sol     OW14571   1.385   2.517   6.137  0.9306  0.2105  0.0803
 2883Sol     HW14572   1.454   2.498   6.200  1.2902 -0.8289 -0.6110
 2883Sol     HW14573   1.327   2.578   6.182  0.3701 -1.6569  1.9609
 2883Sol     MW14574   1.386   2.521   6.146 -0.2844 -0.4952  0.3010
 2884Sol     OW14575   0.858   1.508   8.473  0.4597  0.0834  0.4623
 2884Sol     HW14576   0.932   1.559   8.507 -0.9009 -0.2827  4.1930
 2884Sol     HW14577   0.784   1.569   8.475 -0.3545 -0.9138  1.3593
 2884Sol     MW14578   0.858   1.518   8.476 -0.1758 -0.4345 -0.0235
 2885Sol     OW14579   1.847   0.984   3.783 -0.3661  0.1520  0.4565
 2885Sol     HW14580   1.866   0.975   3.690 -1.3211  0.8621  0.1912
 2885Sol     HW14581   1.927   1.019   3.821  0.3358 -0.9873  0.0581
 2885Sol     MW14582   1.856   0.986   3.778  0.1551  0.0541  0.3333
 2886Sol     OW14583   3.301   3.225   4.109  0.2308  0.2226  0.1030
 2886Sol     HW14584   3.395   3.242   4.113  0.5342 -1.4951  0.6242
 2886Sol     HW14585   3.265   3.267   4.188  0.5107  1.1164 -0.2415
 2886Sol     MW14586   3.306   3.230   4.117 -0.4804  0.4663  0.1812
 2887Sol     OW14587   1.097   3.031   7.828  0.0951 -0.2249 -0.9655
 2887Sol     HW14588   1.050   2.952   7.854 -0.5836  1.0096  1.7502
 2887Sol     HW14589   1.187   3.016   7.856  0.7427 -1.4014 -3.5540
 2887Sol     MW14590   1.101   3.023   7.833  0.1499 -0.0114  0.6753
 2888Sol     OW14591   2.754   0.371   1.866 -0.3987  0.0452  0.0078
 2888Sol     HW14592   2.721   0.461   1.870  0.4926  0.3187  1.3814
 2888Sol     HW14593   2.676   0.317   1.871 -0.8166  0.7244  1.0995
 2888Sol     MW14594   2.744   0.374   1.867  1.2914 -0.4639  0.0894
 2889Sol     OW14595   2.338   1.121   7.810  0.4830  0.1442 -0.0952
 2889Sol     HW14596   2.411   1.062   7.791  1.4536  1.6409 -1.1599
 2889Sol     HW14597   2.375   1.186   7.870 -0.6609 -0.4981  1.3173
 2889Sol     MW14598   2.348   1.122   7.814  0.0120 -0.1736 -0.4024
 2890Sol     OW14599   0.133   2.413   4.769  0.2140  0.6004 -0.9500
 2890Sol     HW14600   0.170   2.440   4.685 -0.0732  0.9862 -0.9562
 2890Sol     HW14601   0.038   2.425   4.758  0.2761  1.9192 -0.1272
 2890Sol     MW14602   0.128   2.416   4.761  0.4583 -0.0668  0.1897
 2891Sol     OW14603   2.710   2.111   7.682  0.0545 -0.0095 -0.2482
 2891Sol     HW14604   2.662   2.069   7.611  0.0999  1.3658 -1.1122
 2891Sol     HW14605   2.741   2.039   7.737 -1.5965 -0.9963 -0.5843
 2891Sol     MW14606   2.708   2.101   7.681 -0.2931 -0.4393  0.5727
 2892Sol     OW14607   1.558   0.902   3.465 -0.3941  0.0595  0.1825
 2892Sol     HW14608   1.556   0.874   3.556 -0.2343 -0.2070  0.1030
 2892Sol     HW14609   1.535   0.824   3.414 -1.2463  0.4002  0.0379
 2892Sol     MW14610   1.556   0.893   3.468  0.4964 -0.0332 -0.3944
 2893Sol     OW14611   1.974   0.277   3.029 -0.1125  0.7949  0.1653
 2893Sol     HW14612   2.032   0.295   2.954  0.8651 -1.7287  0.2292
 2893Sol     HW14613   1.889   0.311   3.002  0.6051  1.4233 -1.4146
 2893Sol     MW14614   1.972   0.281   3.020 -0.2065 -0.2379 -0.6339
 2894Sol     OW14615   2.963   0.693   6.583 -0.4637  0.0670 -0.1219
 2894Sol     HW14616   2.980   0.778   6.621  1.4443 -0.3358 -0.0398
 2894Sol     HW14617   3.045   0.645   6.592 -1.5636 -1.8483  0.0114
 2894Sol     MW14618   2.972   0.696   6.587  0.6948 -0.3594 -0.6754
 2895Sol     OW14619   2.642   0.943   6.672  0.1126  0.6145 -0.5262
 2895Sol     HW14620   2.587   1.007   6.717 -0.4252 -0.5448  0.5229
 2895Sol     HW14621   2.636   0.864   6.727  2.6939  0.4099 -0.4777
 2895Sol     MW14622   2.637   0.941   6.681  0.0193 -0.4890 -0.1540
 2896Sol     OW14623   3.331   1.154   5.802  0.0450  0.1161 -0.1788
 2896Sol     HW14624   3.302   1.078   5.853  1.5521 -1.2885 -1.3641
 2896Sol     HW14625   3.278   1.226   5.836  0.6901 -0.8450  3.0627
 2896Sol     MW14626   3.323   1.153   5.809  0.7528 -0.0034  0.9112
 2897Sol     OW14627   3.530   0.657   6.668  0.3746  0.4779 -0.5971
 2897Sol     HW14628   3.543   0.644   6.574  0.2015  3.8330 -1.1372
 2897Sol     HW14629   3.599   0.719   6.693  4.5508 -5.0474  2.8624
 2897Sol     MW14630   3.538   0.661   6.662 -0.4069 -0.2350  0.1659
 2898Sol     OW14631   2.088   1.213   7.740 -0.3063 -0.2828  0.5782
 2898Sol     HW14632   2.064   1.135   7.691 -0.2795 -1.4911  2.4363
 2898Sol     HW14633   2.165   1.187   7.791 -0.1352  1.0248  1.0195
 2898Sol     MW14634   2.093   1.204   7.740  0.1173  0.2768  0.0092
 2899Sol     OW14635   2.078   1.558   7.710  0.0360  0.3704  0.1203
 2899Sol     HW14636   2.001   1.501   7.717 -0.0180  0.2898 -0.9371
 2899Sol     HW14637   2.147   1.512   7.758 -0.8273  0.9043  1.8800
 2899Sol     MW14638   2.078   1.549   7.715 -0.2504  0.0931  0.1575
 2900Sol     OW14639   1.380   1.004   7.582  0.1949 -0.1462 -0.1007
 2900Sol     HW14640   1.415   0.947   7.514 -0.1367  1.0099 -1.2753
 2900Sol     HW14641   1.420   1.089   7.564 -0.8779  0.4707  0.3765
 2900Sol     MW14642   1.387   1.007   7.575 -0.7744  0.0517 -0.2103
 2901Sol     OW14643   3.107   2.521   6.624  0.1071 -0.1820 -0.2306
 2901Sol     HW14644   3.055   2.597   6.600 -0.4161  0.3910  2.5819
 2901Sol     HW14645   3.056   2.477   6.692  2.1966 -0.8635  0.9581
 2901Sol     MW14646   3.098   2.524   6.628  0.2345  0.1338 -0.3622
 2902Sol     OW14647   1.921   1.974   8.458  0.4148 -0.1843  0.2475
 2902Sol     HW14648   1.839   2.001   8.417  0.6266 -0.9571 -0.7088
 2902Sol     HW14649   1.963   2.056   8.484  0.0948  0.2984 -0.7405
 2902Sol     MW14650   1.918   1.984   8.457  0.2468  0.0117  0.5520
 2903Sol     OW14651   0.623   1.380   4.205  0.1973  0.3961 -0.6665
 2903Sol     HW14652   0.623   1.324   4.283  0.6595 -0.3640 -1.2032
 2903Sol     HW14653   0.574   1.458   4.231  0.0891  0.0138  0.2892
 2903Sol     MW14654   0.619   1.382   4.214 -0.2585  0.5474 -0.0028
 2904Sol     OW14655   0.362   1.851   6.992 -0.7203 -0.5294 -0.2750
 2904Sol     HW14656   0.390   1.921   6.934 -1.4172  0.2137  0.2844
 2904Sol     HW14657   0.294   1.805   6.942  0.8676 -1.8412 -1.3068
 2904Sol     MW14658   0.359   1.853   6.982  0.4850 -0.5290  0.4781
 2905Sol     OW14659   0.667   0.817   2.568  0.0535  0.0479 -0.3506
 2905Sol     HW14660   0.639   0.797   2.479  2.2205  0.1649 -1.0829
 2905Sol     HW14661   0.595   0.787   2.624 -1.2980 -0.0487 -2.1336
 2905Sol     MW14662   0.658   0.813   2.565  0.6725  0.4400 -0.0964
 2906Sol     OW14663   3.546   2.701   3.235  0.2087 -0.3321  0.5165
 2906Sol     HW14664   3.633   2.667   3.257  0.4078  1.0590  1.9697
 2906Sol     HW14665   3.561   2.759   3.160  0.4330 -0.5471  0.3916
 2906Sol     MW14666   3.555   2.703   3.230  0.6828  0.5734  0.3913
 2907Sol     OW14667   1.223   3.269   6.567 -0.1334  0.2584 -0.2320
 2907Sol     HW14668   1.293   3.335   6.558  0.5257 -0.1718  1.4515
 2907Sol     HW14669   1.262   3.189   6.532  0.3818 -0.0767  1.0787
 2907Sol     MW14670   1.233   3.268   6.563 -0.0105 -0.1152  0.4997
 2908Sol     OW14671   0.086   1.478   3.532  0.1668  0.1394 -0.3488
 2908Sol     HW14672   0.058   1.539   3.463 -2.8091  1.4735  1.9072
 2908Sol     HW14673   0.167   1.516   3.566 -0.5421  1.7170 -0.3654
 2908Sol     MW14674   0.091   1.487   3.529  0.4064  0.5498  0.2950
 2909Sol     OW14675   2.493   3.343   3.644  0.0043 -0.0016  0.4089
 2909Sol     HW14676   2.405   3.313   3.664 -0.3048  0.8344  0.3185
 2909Sol     HW14677   2.550   3.290   3.701 -0.4545 -1.3273 -0.3595
 2909Sol     MW14678   2.491   3.336   3.651 -0.4858  0.3198  0.1579
 2910Sol     OW14679   0.591   1.578   2.252  0.2239  0.3119 -0.5826
 2910Sol     HW14680   0.528   1.538   2.192  1.4901 -1.8638 -0.4973
 2910Sol     HW14681   0.646   1.633   2.196 -0.8736  1.1731 -0.8474
 2910Sol     MW14682   0.590   1.579   2.242 -0.2798 -0.4838 -0.0504
 2911Sol     OW14683   3.357   0.024   2.515  0.7860 -0.0045 -0.2483
 2911Sol     HW14684   3.285   0.087   2.511  1.5488  1.3628  4.3990
 2911Sol     HW14685   3.313  -0.061   2.519 -0.5454  0.6830  0.3349
 2911Sol     MW14686   3.346   0.022   2.515 -0.2382 -0.1036 -0.3320
 2912Sol     OW14687   2.626   2.051   3.892  0.8766 -0.6677 -0.0945
 2912Sol     HW14688   2.584   2.054   3.978  1.5178  0.2587  0.1987
 2912Sol     HW14689   2.631   2.143   3.865  0.5132 -0.9690 -1.2021
 2912Sol     MW14690   2.623   2.060   3.897 -0.4538  0.2011  0.2700
 2913Sol     OW14691   1.161   1.933   6.233  0.7791 -0.3040 -0.0109
 2913Sol     HW14692   1.101   1.933   6.158  1.6088  0.6033 -0.6901
 2913Sol     HW14693   1.177   2.026   6.251 -0.0690 -0.4880  1.8479
 2913Sol     MW14694   1.157   1.942   6.228  0.0560 -0.3513 -0.4690
 2914Sol     OW14695   0.532   1.197   2.833 -0.2272 -0.1518  0.0350
 2914Sol     HW14696   0.490   1.265   2.781 -0.0608  1.9625  2.5950
 2914Sol     HW14697   0.598   1.159   2.774 -1.4698  0.7300 -1.9560
 2914Sol     MW14698   0.535   1.200   2.823  0.1366  0.4436 -0.2808
 2915Sol     OW14699   3.387   0.720   5.892  0.1799  0.5663  0.1078
 2915Sol     HW14700   3.398   0.660   5.818 -0.4977  0.1512  0.3436
 2915Sol     HW14701   3.469   0.770   5.894  0.6509 -0.1798 -0.2399
 2915Sol     MW14702   3.396   0.719   5.886 -0.4474 -0.0129  0.2348
 2916Sol     OW14703   0.298   0.778   1.057 -0.6167  0.2421  0.1882
 2916Sol     HW14704   0.248   0.781   0.975 -0.2705  1.7202  0.0116
 2916Sol     HW14705   0.248   0.831   1.118 -0.1648  0.2834  0.5279
 2916Sol     MW14706   0.289   0.783   1.055 -0.0767 -0.0547 -0.1900
 2917Sol     OW14707   0.565   1.974   6.791 -0.0550  0.7748 -0.1704
 2917Sol     HW14708   0.614   1.898   6.825  0.0147  0.0322 -1.8823
 2917Sol     HW14709   0.620   2.049   6.814  1.0632  0.0927 -0.5509
 2917Sol     MW14710   0.575   1.974   6.796  0.1748 -0.1180  0.0015
 2918Sol     OW14711   0.907   1.980   6.786  0.4642 -0.0286 -0.1598
 2918Sol     HW14712   0.957   2.016   6.860  2.6827 -2.0350 -0.6349
 2918Sol     HW14713   0.856   1.909   6.825  0.3559  0.0097 -0.2335
 2918Sol     MW14714   0.907   1.977   6.796  0.0915  0.5308  0.0558
 2919Sol     OW14715   0.333   2.291   8.999  0.5625  0.1656  0.2775
 2919Sol     HW14716   0.372   2.207   9.026  0.4851 -0.1116 -0.4513
 2919Sol     HW14717   0.396   2.327   8.937  0.7032  0.7585  0.7673
 2919Sol     MW14718   0.342   2.286   8.996  0.4733 -0.5708  0.0582
 2920Sol     OW14719   1.643   3.045   2.471  0.4936 -0.1364 -0.3427
 2920Sol     HW14720   1.729   3.005   2.486  1.1914  1.7367  0.7294
 2920Sol     HW14721   1.637   3.115   2.536 -1.8833 -0.2846 -0.3572
 2920Sol     MW14722   1.650   3.047   2.478  0.3892  0.3521  0.4611
 2921Sol     OW14723   1.528   3.053   4.767 -0.5716  0.3592  0.1267
 2921Sol     HW14724   1.486   3.047   4.681  1.1240  3.4515 -1.0105
 2921Sol     HW14725   1.592   2.983   4.767 -0.8497  0.0896 -0.9836
 2921Sol     MW14726   1.530   3.047   4.759  0.2506 -0.4666  0.2954
 2922Sol     OW14727   1.110   3.045   4.598 -0.0719 -0.3005  0.0623
 2922Sol     HW14728   1.043   3.073   4.535  1.0164  1.7366 -0.2319
 2922Sol     HW14729   1.068   3.054   4.683 -0.5153  0.0335 -0.1873
 2922Sol     MW14730   1.100   3.049   4.600  0.1233  0.0613 -0.2144
 2923Sol     OW14731   0.886   0.861   5.553 -0.4203  0.1915  0.4354
 2923Sol     HW14732   0.939   0.862   5.632  0.3356  1.8826 -0.0898
 2923Sol     HW14733   0.865   0.953   5.536 -0.4855 -0.1386 -1.3852
 2923Sol     MW14734   0.889   0.869   5.559  0.9652 -0.3840 -0.1531
 2924Sol     OW14735   3.029   1.642   4.829  0.0382  0.0785 -0.3049
 2924Sol     HW14736   3.042   1.565   4.884  0.9226 -0.2715 -0.9970
 2924Sol     HW14737   3.115   1.685   4.828 -0.3845  0.9404 -0.1272
 2924Sol     MW14738   3.038   1.639   4.834  0.0054  0.3186  0.3623
 2925Sol     OW14739   1.129   0.767   9.122 -0.1738 -0.3196  0.6535
 2925Sol     HW14740   1.201   0.745   9.182  0.8950 -1.0493 -0.8814
 2925Sol     HW14741   1.143   0.711   9.046 -0.1116  2.2591 -1.3252
 2925Sol     MW14742   1.137   0.760   9.121 -0.2371  0.5960 -0.0933
 2926Sol     OW14743   1.323   2.441   5.570 -0.4064 -0.3856  0.0144
 2926Sol     HW14744   1.300   2.392   5.649  0.5131 -1.5137 -0.4059
 2926Sol     HW14745   1.339   2.530   5.601  2.4301 -1.3590  1.5151
 2926Sol     MW14746   1.322   2.445   5.580 -0.1722  0.4635 -1.0548
 2927Sol     OW14747   1.019   2.748   4.634 -0.0700 -0.1678 -0.5030
 2927Sol     HW14748   1.108   2.736   4.600  0.6616  1.3264  0.8309
 2927Sol     HW14749   1.031   2.776   4.724 -1.9525 -2.6294  0.6045
 2927Sol     MW14750   1.028   2.749   4.639  0.0293 -0.1149  0.4633
 2928Sol     OW14751   1.395   1.444   4.790  0.3271  0.3163  0.1631
 2928Sol     HW14752   1.479   1.421   4.751 -0.3695 -0.7649 -0.7515
 2928Sol     HW14753   1.348   1.491   4.721  0.0705  0.6745  0.5744
 2928Sol     MW14754   1.398   1.446   4.781  0.2308  0.1980 -0.0681
 2929Sol     OW14755   3.435   3.055   5.058  0.0541 -0.1971  0.0468
 2929Sol     HW14756   3.351   3.009   5.047  0.4420 -1.3919  1.9483
 2929Sol     HW14757   3.413   3.147   5.045 -1.6732 -0.4483  0.9616
 2929Sol     MW14758   3.425   3.059   5.056 -0.0954 -0.9981  0.1453
 2930Sol     OW14759   0.447   0.771   7.704 -0.4921 -0.0949 -0.2700
 2930Sol     HW14760   0.476   0.696   7.653  1.6000 -0.3191  1.1868
 2930Sol     HW14761   0.514   0.782   7.771 -2.5443  0.9077  1.7053
 2930Sol     MW14762   0.456   0.765   7.706  0.5986 -0.3986 -0.2546
 2931Sol     OW14763   1.332   0.678   7.081 -0.1999  0.6246  0.1912
 2931Sol     HW14764   1.365   0.681   6.991  0.7294 -0.9206  0.4542
 2931Sol     HW14765   1.387   0.741   7.129  1.7791 -1.2212  0.4174
 2931Sol     MW14766   1.340   0.684   7.078  0.1789  0.3854  0.3159
 2932Sol     OW14767   0.395   0.771   4.168  0.3679  0.2402 -0.0286
 2932Sol     HW14768   0.412   0.780   4.074  0.3164 -0.6984 -0.1313
 2932Sol     HW14769   0.442   0.844   4.208 -0.1181  1.0146 -0.8385
 2932Sol     MW14770   0.401   0.778   4.163  0.4295  0.1085  0.0729
 2933Sol     OW14771   2.531   0.402   7.075  0.4482  0.0800  0.0942
 2933Sol     HW14772   2.586   0.466   7.030 -0.5487  0.0506 -1.1939
 2933Sol     HW14773   2.482   0.359   7.005 -1.4673  0.3460  1.2342
 2933Sol     MW14774   2.532   0.404   7.065  0.5643  0.0274  0.2626
 2934Sol     OW14775   0.341   1.301   7.328  0.0157  0.0058 -0.0231
 2934Sol     HW14776   0.435   1.298   7.348 -0.3576  0.8164  2.0161
 2934Sol     HW14777   0.304   1.229   7.380 -0.5198 -0.2140 -0.7056
 2934Sol     MW14778   0.346   1.294   7.335  0.7686  0.4836 -0.4440
 2935Sol     OW14779   0.388   0.421   3.718 -0.3589 -0.6710 -0.4209
 2935Sol     HW14780   0.331   0.493   3.692 -0.3303  0.1989  1.8163
 2935Sol     HW14781   0.465   0.429   3.661  0.0783  1.6547  0.4507
 2935Sol     MW14782   0.390   0.428   3.710 -0.4131  0.2885 -0.2548
 2936Sol     OW14783   1.208   2.522   3.435  0.0685  0.0471  0.3214
 2936Sol     HW14784   1.211   2.577   3.513 -0.2720 -0.4963  0.7169
 2936Sol     HW14785   1.119   2.485   3.435 -0.4870  1.3474 -1.2117
 2936Sol     MW14786   1.200   2.523   3.442  0.1397 -0.1475 -0.6710
 2937Sol     OW14787   1.663   2.806   4.917  0.1375 -0.0655 -0.5551
 2937Sol     HW14788   1.740   2.825   4.863  0.9660  1.0889  0.9626
 2937Sol     HW14789   1.686   2.726   4.964 -0.0453 -0.3484 -0.9513
 2937Sol     MW14790   1.672   2.801   4.917  0.2050  0.3465  0.2517
 2938Sol     OW14791   1.795   3.388   6.231  0.0598 -0.1319  0.0181
 2938Sol     HW14792   1.871   3.335   6.255 -0.8159 -1.2997  0.2758
 2938Sol     HW14793   1.736   3.326   6.187 -0.8961  0.6678  0.1549
 2938Sol     MW14794   1.796   3.377   6.229 -0.2796 -0.2105 -0.8034
 2939Sol     OW14795   2.165   3.005   7.123  0.2272  0.3722  0.2717
 2939Sol     HW14796   2.098   3.065   7.087  1.7897  2.0788  0.1259
 2939Sol     HW14797   2.140   2.995   7.215 -1.2377 -0.4312 -0.1927
 2939Sol     MW14798   2.157   3.010   7.128  0.2675  0.0677  0.0819
 2940Sol     OW14799   0.202   2.334   3.464  0.5595  0.8692  0.2833
 2940Sol     HW14800   0.208   2.427   3.440 -0.8696  0.8015 -0.3787
 2940Sol     HW14801   0.115   2.307   3.434  1.1875 -0.8411 -0.0673
 2940Sol     MW14802   0.195   2.340   3.459  0.5660 -1.1958 -0.7880
 2941Sol     OW14803   3.115   0.594   8.415 -0.1281  0.3251  0.0280
 2941Sol     HW14804   3.148   0.505   8.418 -2.1181 -0.4859 -1.3063
 2941Sol     HW14805   3.089   0.613   8.505  1.0898 -0.1290  0.4784
 2941Sol     MW14806   3.115   0.588   8.423 -0.3340  0.1010  0.1357
 2942Sol     OW14807   1.465   2.705   8.520  0.4214  0.2450  0.1707
 2942Sol     HW14808   1.435   2.769   8.455  0.7253  2.0090  1.7206
 2942Sol     HW14809   1.559   2.722   8.528  0.5720 -0.6572  0.3133
 2942Sol     MW14810   1.471   2.712   8.515  0.3643 -0.1490 -0.1331
 2943Sol     OW14811   2.268   1.461   5.782  0.1042  0.0053  0.3752
 2943Sol     HW14812   2.279   1.554   5.761 -1.9704  0.4130  0.9288
 2943Sol     HW14813   2.316   1.415   5.714  0.3022  1.4712 -0.5035
 2943Sol     MW14814   2.273   1.465   5.774 -0.3875  0.3307  0.5016
 2944Sol     OW14815   0.831   2.041   2.238 -0.0732  0.2787 -0.2129
 2944Sol     HW14816   0.912   1.990   2.245 -0.0786  0.1509 -1.0260
 2944Sol     HW14817   0.785   2.024   2.319  0.2144 -0.5178 -0.2139
 2944Sol     MW14818   0.834   2.035   2.246  0.2363 -0.1387 -0.3927
 2945Sol     OW14819   1.721   2.183   6.037  0.2271 -0.0360 -0.6148
 2945Sol     HW14820   1.691   2.170   6.127 -1.1015  1.9394 -0.7255
 2945Sol     HW14821   1.712   2.277   6.023 -1.3020 -0.5394 -3.3746
 2945Sol     MW14822   1.717   2.190   6.044 -0.3969  0.5740 -0.0668
 2946Sol     OW14823   1.584   2.379   3.409 -0.1220  0.0733  0.2887
 2946Sol     HW14824   1.548   2.461   3.376  0.0083 -0.5934 -1.5459
 2946Sol     HW14825   1.531   2.311   3.368  1.3230 -0.8319 -0.1121
 2946Sol     MW14826   1.576   2.380   3.402 -0.5660  0.0746 -0.1445
 2947Sol     OW14827   0.375   0.712   6.977  0.3107 -0.0658  0.4860
 2947Sol     HW14828   0.346   0.676   6.893  0.5094  0.5006  0.1671
 2947Sol     HW14829   0.450   0.658   7.002 -0.4566 -0.9633  0.8704
 2947Sol     MW14830   0.379   0.704   6.972  0.7974 -0.3592 -0.2923
 2948Sol     OW14831   3.202   3.245   3.441  0.0519 -0.0415 -0.7651
 2948Sol     HW14832   3.149   3.166   3.434  0.6165 -0.6008  1.0858
 2948Sol     HW14833   3.163   3.306   3.378 -1.9064 -0.9397 -0.4512
 2948Sol     MW14834   3.194   3.244   3.435  0.1476 -0.6936 -0.9369
 2949Sol     OW14835   2.274   2.443   2.209  0.4082  0.4438  0.1009
 2949Sol     HW14836   2.218   2.520   2.218 -0.3219 -0.2269  1.4128
 2949Sol     HW14837   2.213   2.371   2.190  0.9190 -0.1165  0.5698
 2949Sol     MW14838   2.263   2.443   2.208  0.3258 -0.3752 -0.1733
 2950Sol     OW14839   0.005   2.638   1.653  0.5473 -0.6985 -0.1577
 2950Sol     HW14840  -0.012   2.559   1.602  1.5081 -0.0397 -1.5132
 2950Sol     HW14841   0.100   2.651   1.645  0.4334  0.4206  0.3167
 2950Sol     MW14842   0.012   2.632   1.648 -0.3354  0.2699 -0.0409
 2951Sol     OW14843   3.459   0.616   8.262 -0.1592  0.2891 -0.0928
 2951Sol     HW14844   3.500   0.598   8.347  0.7375  0.4177 -0.4884
 2951Sol     HW14845   3.488   0.544   8.205 -2.3735 -0.8989  0.2219
 2951Sol     MW14846   3.465   0.608   8.265 -0.8789  0.3700  0.7527
 2952Sol     OW14847   1.029   0.059   3.320  0.8138  0.1903  0.2034
 2952Sol     HW14848   1.110   0.061   3.269  1.2339 -0.6587  0.8343
 2952Sol     HW14849   1.057   0.055   3.411  0.0636 -0.1876  0.4267
 2952Sol     MW14850   1.038   0.059   3.323 -0.5772 -0.7505  0.1814
 2953Sol     OW14851   0.803   2.939   2.973  0.5882 -0.1581 -0.1026
 2953Sol     HW14852   0.830   2.956   3.063  1.4043 -0.6577 -0.2449
 2953Sol     HW14853   0.882   2.951   2.921 -0.0425  0.8252 -0.8450
 2953Sol     MW14854   0.812   2.941   2.976  0.2185  0.1673 -0.0214
 2954Sol     OW14855   1.714   0.951   4.750  0.3320  0.4425 -0.2535
 2954Sol     HW14856   1.658   0.997   4.687  0.2030 -0.6679 -0.9672
 2954Sol     HW14857   1.682   0.979   4.835  0.4051  1.8520 -0.6843
 2954Sol     MW14858   1.706   0.957   4.752 -0.3738 -0.3555 -0.0976
 2955Sol     OW14859   1.799   1.621   3.233  0.4915  0.2822 -0.1443
 2955Sol     HW14860   1.856   1.607   3.309 -0.2513  0.2754  0.4187
 2955Sol     HW14861   1.793   1.535   3.192 -1.2220 -0.3255  1.3038
 2955Sol     MW14862   1.804   1.612   3.236  0.1659  0.1738 -0.1249
 2956Sol     OW14863   1.927   0.204   2.131  0.9052  0.1250  0.1013
 2956Sol     HW14864   1.875   0.125   2.146  2.3040 -0.2874  3.1004
 2956Sol     HW14865   2.002   0.174   2.080  1.1185 -0.3479  0.6972
 2956Sol     MW14866   1.929   0.194   2.127 -0.0976 -0.1461  0.4370
 2957Sol     OW14867   0.374   2.603   2.469  0.4561 -0.1302 -0.0538
 2957Sol     HW14868   0.398   2.609   2.562  2.0893  0.8576 -0.5243
 2957Sol     HW14869   0.280   2.621   2.468  0.5772  0.7003  1.3345
 2957Sol     MW14870   0.368   2.605   2.477 -0.2707 -0.7338 -0.4951
 2958Sol     OW14871   1.210   1.840   7.718  0.0176  0.1061 -0.2668
 2958Sol     HW14872   1.156   1.788   7.658 -3.1799  1.0459  1.6756
 2958Sol     HW14873   1.288   1.787   7.732 -0.7656 -1.7188 -2.4972
 2958Sol     MW14874   1.212   1.831   7.714 -0.4979  0.2701  0.1118
 2959Sol     OW14875   2.087   2.693   6.114  0.0167 -0.2714  0.2327
 2959Sol     HW14876   2.115   2.719   6.202 -0.0399 -0.1459  0.2138
 2959Sol     HW14877   2.169   2.676   6.067  0.1203  1.4959 -0.2491
 2959Sol     MW14878   2.097   2.694   6.118 -0.9078  0.4987  0.1690
 2960Sol     OW14879   2.229   1.592   8.491  0.0642 -0.1268 -0.0134
 2960Sol     HW14880   2.247   1.522   8.428  0.2453  0.6283 -0.8185
 2960Sol     HW14881   2.243   1.552   8.577  1.0776 -0.8198 -0.4915
 2960Sol     MW14882   2.232   1.582   8.493  1.0622  0.4500 -0.1520
 2961Sol     OW14883   2.148   2.185   6.703  0.0916  0.0070 -0.3430
 2961Sol     HW14884   2.199   2.118   6.749  1.2567  1.9317  1.2854
 2961Sol     HW14885   2.087   2.218   6.770 -0.4626  0.5780 -1.1228
 2961Sol     MW14886   2.147   2.182   6.713 -0.0436 -0.1444 -0.5043
 2962Sol     OW14887   3.458   1.312   6.533 -0.1187  0.3736  0.2552
 2962Sol     HW14888   3.391   1.344   6.594  0.3311  2.5298 -0.3398
 2962Sol     HW14889   3.423   1.229   6.502 -2.5463  1.4456 -0.0387
 2962Sol     MW14890   3.449   1.308   6.536  0.2590 -0.0723  0.6216
 2963Sol     OW14891   0.641   2.455   4.150 -0.5723 -0.0128  1.0437
 2963Sol     HW14892   0.690   2.379   4.182  0.2004  0.5285  1.1881
 2963Sol     HW14893   0.567   2.463   4.209  0.5345  0.6349  2.3730
 2963Sol     MW14894   0.639   2.449   4.158 -0.2285  0.9119  0.4666
 2964Sol     OW14895   1.393   2.611   5.874 -0.1493  0.7025  0.4390
 2964Sol     HW14896   1.406   2.596   5.967  0.8912  2.7379  0.6557
 2964Sol     HW14897   1.299   2.604   5.861 -0.1614 -1.0839  1.3502
 2964Sol     MW14898   1.386   2.609   5.881  0.1027  0.2425  0.5598
 2965Sol     OW14899   0.058   2.423   2.493  0.3432 -0.0446  0.1907
 2965Sol     HW14900   0.147   2.389   2.502  0.9590  0.9023 -1.8771
 2965Sol     HW14901   0.009   2.351   2.454  1.2100  0.7067 -2.4479
 2965Sol     MW14902   0.062   2.414   2.490  0.1371 -0.3286  0.2078
 2966Sol     OW14903   3.390   0.216   1.653  0.1374  0.4940 -0.2551
 2966Sol     HW14904   3.388   0.311   1.640 -1.0279  0.8299  2.0744
 2966Sol     HW14905   3.366   0.180   1.568 -1.8303  2.3828 -0.5595
 2966Sol     MW14906   3.387   0.221   1.644  0.3033 -0.2347 -0.1579
 2967Sol     OW14907   2.705   0.645   5.658 -0.7247 -0.6499  0.1344
 2967Sol     HW14908   2.709   0.739   5.676 -0.1822 -0.9199  1.4924
 2967Sol     HW14909   2.767   0.631   5.587  2.7544 -0.6877  3.0643
 2967Sol     MW14910   2.711   0.652   5.653 -0.0259 -0.4041 -0.4369
 2968Sol     OW14911   2.908   1.261   7.554 -0.5660  0.3191 -0.3477
 2968Sol     HW14912   2.819   1.297   7.547 -0.2405  0.9705 -1.1352
 2968Sol     HW14913   2.954   1.323   7.611  0.1499  1.4781 -2.1439
 2968Sol     MW14914   2.904   1.270   7.559  0.2065 -0.1427  0.1074
 2969Sol     OW14915   1.801   0.206   8.017 -0.0727 -0.3411 -0.1792
 2969Sol     HW14916   1.849   0.272   8.067 -1.2577 -0.1376  0.6995
 2969Sol     HW14917   1.733   0.255   7.972 -0.6505 -0.8833  0.0959
 2969Sol     MW14918   1.799   0.216   8.018 -0.0495 -1.3202 -0.2912
 2970Sol     OW14919   3.449   0.524   7.828 -0.3265  0.1343  0.2988
 2970Sol     HW14920   3.432   0.431   7.811  0.3747 -0.1212  0.9370
 2970Sol     HW14921   3.423   0.568   7.748  1.4284 -0.8720 -0.8707
 2970Sol     MW14922   3.445   0.519   7.819  0.3144 -0.8479 -0.1940
 2971Sol     OW14923   0.975   1.450   7.573  0.5499 -0.2851 -0.3334
 2971Sol     HW14924   0.897   1.427   7.624 -0.0585 -0.9965 -1.5421
 2971Sol     HW14925   1.048   1.415   7.623 -0.0343 -1.0137  0.0200
 2971Sol     MW14926   0.974   1.445   7.582  0.0779 -0.3960  0.1605
 2972Sol     OW14927   1.969   3.133   6.978 -0.4043 -0.1707  0.4361
 2972Sol     HW14928   1.876   3.118   6.963 -0.8630  2.0851  0.7559
 2972Sol     HW14929   2.004   3.153   6.891 -0.9818  2.5101  0.7484
 2972Sol     MW14930   1.964   3.134   6.969 -0.3573 -0.1086  0.1414
 2973Sol     OW14931   0.895   1.912   3.039  0.2093 -0.1577  0.6485
 2973Sol     HW14932   0.875   1.986   3.096 -3.4151 -0.9045  0.5092
 2973Sol     HW14933   0.892   1.949   2.951 -0.9671 -0.2876  0.6172
 2973Sol     MW14934   0.893   1.922   3.036 -0.5000  0.6248 -0.2142
 2974Sol     OW14935   3.004   0.165   5.160 -0.5030  0.0222  0.2167
 2974Sol     HW14936   3.011   0.260   5.151 -0.0550 -0.0183  0.1080
 2974Sol     HW14937   2.969   0.152   5.248  1.1883  0.2391  0.9580
 2974Sol     MW14938   3.002   0.173   5.167 -0.0218 -0.0929 -0.2539
 2975Sol     OW14939   3.294   2.809   8.286 -0.3778 -0.2275 -0.8732
 2975Sol     HW14940   3.307   2.790   8.193 -0.3648 -1.0329 -0.7068
 2975Sol     HW14941   3.368   2.768   8.330 -0.1924  0.4512 -0.5320
 2975Sol     MW14942   3.302   2.804   8.282 -0.2723 -0.3074  0.5265
 2976Sol     OW14943   0.418   1.463   2.012  0.4313 -0.2425  0.1387
 2976Sol     HW14944   0.328   1.436   1.990  0.0737  2.2640 -1.7045
 2976Sol     HW14945   0.473   1.411   1.953  0.0923 -0.6258  0.1556
 2976Sol     MW14946   0.415   1.456   2.004  0.0048 -0.4208  0.8008
 2977Sol     OW14947   0.348   2.227   5.449  0.6388 -1.1979  0.0509
 2977Sol     HW14948   0.388   2.242   5.363 -0.6098 -1.2779 -0.5704
 2977Sol     HW14949   0.380   2.141   5.476  0.7614 -1.3272 -0.5040
 2977Sol     MW14950   0.354   2.221   5.443  0.3227  0.5872 -0.7449
 2978Sol     OW14951   1.821   0.998   8.963 -0.4872  0.3630  0.0091
 2978Sol     HW14952   1.823   1.091   8.984 -0.9254  0.4378 -0.2819
 2978Sol     HW14953   1.736   0.968   8.993 -0.1763 -0.0435  0.5002
 2978Sol     MW14954   1.814   1.003   8.968  0.7515 -0.0730  0.0922
 2979Sol     OW14955   2.762   0.436   1.508 -0.1736 -0.0279  0.3170
 2979Sol     HW14956   2.672   0.471   1.510 -0.2093 -0.0944 -0.0701
 2979Sol     HW14957   2.752   0.343   1.525 -0.1235  0.0617  0.8514
 2979Sol     MW14958   2.753   0.431   1.509  0.2762 -0.7013 -0.0611
 2980Sol     OW14959   2.962   3.317   6.599  0.0877 -0.3095 -0.3006
 2980Sol     HW14960   2.876   3.277   6.593 -0.3376  0.4421  0.7193
 2980Sol     HW14961   2.954   3.399   6.551 -0.0074  0.1606  0.5153
 2980Sol     MW14962   2.954   3.320   6.594  0.3949 -0.3856 -0.1479
 2981Sol     OW14963   2.591   0.780   4.053  0.3502  0.5493 -0.0431
 2981Sol     HW14964   2.651   0.831   3.998 -0.2083  1.5471  0.2522
 2981Sol     HW14965   2.503   0.808   4.025  0.0374 -0.3433  0.0428
 2981Sol     MW14966   2.588   0.787   4.046  0.4820 -0.2316 -1.1482
 2982Sol     OW14967   0.814   1.499   8.030  0.2546  0.2354 -0.0658
 2982Sol     HW14968   0.781   1.586   8.009  0.3870 -0.0831 -1.5988
 2982Sol     HW14969   0.737   1.451   8.059  0.0460  0.6303  0.0399
 2982Sol     MW14970   0.804   1.503   8.031 -0.6472 -0.3747  0.1808
 2983Sol     OW14971   1.227   1.145   8.742  0.5312  0.1641  0.0853
 2983Sol     HW14972   1.240   1.213   8.677  1.4600 -1.5333 -1.5675
 2983Sol     HW14973   1.133   1.147   8.761  0.6248  2.1684  0.3950
 2983Sol     MW14974   1.220   1.151   8.738 -0.0331  0.5120  0.1585
 2984Sol     OW14975   0.407   2.653   5.281  0.0891 -0.0201  0.7442
 2984Sol     HW14976   0.377   2.743   5.290  0.3755  0.1717 -0.2111
 2984Sol     HW14977   0.330   2.605   5.250  0.0841 -0.0078  0.7382
 2984Sol     MW14978   0.398   2.657   5.279 -0.1639 -0.5731 -0.6640
 2985Sol     OW14979   3.191   0.246   5.634 -0.4446  0.0299 -0.3646
 2985Sol     HW14980   3.240   0.318   5.594 -2.5098  1.6343 -0.0538
 2985Sol     HW14981   3.256   0.201   5.688  1.5571 -0.1289 -2.8094
 2985Sol     MW14982   3.202   0.249   5.635  0.7565 -0.1169 -0.5537
 2986Sol     OW14983   1.428   0.252   5.505 -0.3833 -0.4146 -0.1999
 2986Sol     HW14984   1.405   0.344   5.521  1.5485 -0.2452  1.9439
 2986Sol     HW14985   1.459   0.250   5.415 -1.1420  0.8906 -0.4994
 2986Sol     MW14986   1.429   0.260   5.499 -0.3307  0.6100 -0.1012
 2987Sol     OW14987   0.945   1.081   7.100 -0.7534  0.5682  0.1198
 2987Sol     HW14988   0.910   0.993   7.085 -1.6844  1.0939 -0.7978
 2987Sol     HW14989   0.891   1.116   7.171 -1.5791  1.0822 -0.7579
 2987Sol     MW14990   0.937   1.076   7.105  0.7612 -0.0541 -0.2338
 2988Sol     OW14991   1.829   2.563   6.277  0.3860  0.2379 -0.1434
 2988Sol     HW14992   1.819   2.657   6.257 -0.4191 -0.1458 -1.6022
 2988Sol     HW14993   1.923   2.549   6.277  0.5985  1.4399  1.9976
 2988Sol     MW14994   1.836   2.571   6.275  0.1952  0.3642  0.0744
 2989Sol     OW14995   2.692   0.138   2.201  0.4730  0.3955 -0.0732
 2989Sol     HW14996   2.776   0.160   2.161  1.7163  0.4460  2.4954
 2989Sol     HW14997   2.674   0.049   2.172  0.6082  0.9656 -1.9400
 2989Sol     MW14998   2.698   0.132   2.195  0.5123 -0.2140 -0.4573
 2990Sol     OW14999   1.619   2.932   4.001  0.1460  0.4730  0.1815
 2990Sol     HW15000   1.706   2.935   4.041 -0.1677 -0.1320  0.9325
 2990Sol     HW15001   1.560   2.912   4.074 -0.6983  1.4853 -0.2092
 2990Sol     MW15002   1.621   2.930   4.011 -0.2024 -0.4556 -0.0833
 2991Sol     OW15003   0.027   2.007   2.550 -0.0109 -0.0174  0.4955
 2991Sol     HW15004  -0.046   2.007   2.612  0.2593 -0.3716  0.8170
 2991Sol     HW15005   0.105   2.013   2.606  0.1302  2.6266  0.0665
 2991Sol     MW15006   0.027   2.008   2.561  0.0705 -0.1146  0.2927
 2992Sol     OW15007   2.559   2.085   5.621 -0.6061 -0.3710 -0.1493
 2992Sol     HW15008   2.561   2.047   5.533  4.8170 -1.2637  0.1631
 2992Sol     HW15009   2.572   2.179   5.608 -1.0563 -0.3359 -0.3489
 2992Sol     MW15010   2.560   2.090   5.612 -0.8682  0.7210  0.0940
 2993Sol     OW15011   1.525   2.284   5.510  0.2116  0.0470 -0.8597
 2993Sol     HW15012   1.542   2.268   5.602  1.2783  2.8998 -0.5054
 2993Sol     HW15013   1.449   2.342   5.509 -0.5506 -0.9526 -1.8323
 2993Sol     MW15014   1.520   2.288   5.518  0.6920 -0.4300  0.4716
 2994Sol     OW15015   0.716   2.079   2.719  0.0826 -0.0432  0.4195
 2994Sol     HW15016   0.640   2.055   2.773 -0.0754 -2.4630 -0.8056
 2994Sol     HW15017   0.680   2.138   2.652 -0.7210 -1.1412 -0.1260
 2994Sol     MW15018   0.706   2.082   2.718 -0.6410  0.2058  0.2142
 2995Sol     OW15019   3.534   2.155   6.424  0.3833  0.1775 -0.2866
 2995Sol     HW15020   3.512   2.150   6.517 -0.1574  0.5079 -0.3900
 2995Sol     HW15021   3.538   2.063   6.396  0.4887  0.0769  0.0493
 2995Sol     MW15022   3.532   2.146   6.430 -0.1245 -1.0010 -0.4060
 2996Sol     OW15023   0.422   2.840   2.094  0.6989  0.6290 -0.3434
 2996Sol     HW15024   0.443   2.831   2.186  0.7707 -1.2862 -0.5327
 2996Sol     HW15025   0.389   2.754   2.068 -0.9512  1.6325 -1.6814
 2996Sol     MW15026   0.421   2.832   2.100  0.2035 -0.2985  0.3657
 2997Sol     OW15027   2.157   1.311   6.770 -0.2824 -0.0294  0.8353
 2997Sol     HW15028   2.096   1.377   6.736 -1.1716 -1.0752  0.3683
 2997Sol     HW15029   2.207   1.284   6.693 -1.4441 -1.4967  0.5666
 2997Sol     MW15030   2.156   1.314   6.760 -0.5815 -0.8888  0.4004
 2998Sol     OW15031   3.007   2.560   8.791 -0.3326  0.1619 -0.0398
 2998Sol     HW15032   3.031   2.647   8.824  0.0273  0.3272 -0.7216
 2998Sol     HW15033   3.030   2.500   8.863  1.7778  0.3688 -0.5159
 2998Sol     MW15034   3.012   2.562   8.801  0.1458 -0.5230 -0.1053
 2999Sol     OW15035   2.683   1.193   3.751 -0.0096 -0.8857  0.3042
 2999Sol     HW15036   2.735   1.272   3.769  1.2626 -1.4122 -1.0440
 2999Sol     HW15037   2.594   1.218   3.776  0.3865  0.9768 -0.0591
 2999Sol     MW15038   2.679   1.203   3.755  0.5820  0.1757  0.1714
 3000Sol     OW15039   0.728   1.626   2.006  0.5258  0.3653 -0.4633
 3000Sol     HW15040   0.715   1.619   1.912 -2.1294 -0.0314 -0.1262
 3000Sol     HW15041   0.704   1.716   2.028  2.5244  0.8816 -0.3448
 3000Sol     MW15042   0.725   1.633   2.000 -0.5091 -0.3747 -0.1385
 3001Sol     OW15043   1.188   2.140   8.564  0.2423 -0.5002 -0.0570
 3001Sol     HW15044   1.266   2.151   8.618  1.0224  0.5900 -1.3519
 3001Sol     HW15045   1.174   2.227   8.525 -0.9073 -0.9983 -0.7760
 3001Sol     MW15046   1.194   2.149   8.565  0.5346  0.0245  0.3926
   3.57130   3.41140  10.22910
