[ moleculetype ]
; Name   nrexcl
Eth     3

[ atoms ]
;  nr  type  resnr  resid  atom  cgnr  charge    mass
1	Ho	1	Eth	Ho	1	0.4180	1.00784
2	Oh	1	Eth	Oh	2	-0.6830	15.999
3	Co	1	Eth	Co	3	0.145	12.011
4	Hco	1	Eth	Hco	4	0.06	1.00784
5	Hco	1	Eth	Hco	5	0.06	1.00784
6	Ch	1	Eth	Ch	6	-0.18	12.011
7	Hcc	1	Eth	Hcc	7	0.06	1.00784
8	Hcc	1	Eth	Hcc	8	0.06	1.00784
9	Hcc	1	Eth	Hcc	9	0.06	1.00784

[ bonds ]
;  ai   aj  funct   c0         c1
1	2	1	0.094	462750.4
3	4	1	0.109	284512.0
3	5	1	0.109	284512.0
6	7	1	0.109	284512.0
6	8	1	0.109	284512.0
6	9	1	0.109	284512.0
3	6	1	0.153	224262.4
2	3	1	0.141	267776.0

[ angles ]
;  ai   aj   ak  funct   angle     fc
1	2	3	1	108.6	460.24
4	3	5	1	107.8	276.144
4	3	6	1	110.7	313.8
5	3	6	1	110.7	313.8
2	3	4	1	109.5	292.88
2	3	5	1	109.5	292.88
2	3	6	1	109.5	418.4
7	6	8	1	107.8	276.144
7	6	9	1	107.8	276.144
8	6	9	1	107.8	276.144
3	6	7	1	110.7	313.8
3	6	8	1	110.7	313.8
3	6	9	1	110.7	313.8

[ dihedrals ]
;  ai   aj   ak   al  funct   C1    C2   C3   C4
1	2	3	4	5	0.0	0.0	1.883	0.0
1	2	3	5	5	0.0	0.0	1.883	0.0
1	2	3	6	5	-1.49	-0.728	2.059	0.0
4	3	6	7	5	0.0	0.0	1.331	0.0
5	3	6	7	5	0.0	0.0	1.331	0.0
2	3	6	7	5	0.0	0.0	1.958	0.0
4	3	6	8	5	0.0	0.0	1.331	0.0
5	3	6	8	5	0.0	0.0	1.331	0.0
2	3	6	8	5	0.0	0.0	1.958	0.0
4	3	6	9	5	0.0	0.0	1.331	0.0
5	3	6	9	5	0.0	0.0	1.331	0.0
2	3	6	9	5	0.0	0.0	1.958	0.0
