[ moleculetype ]
; Name   nrexcl
Sil     2

[ atoms ]
;  nr  type  resnr  resid  atom  cgnr  charge    mass
1	Ob	1	Sil	Ob	1	-0.550000011920929	15.999
2	Ob	1	Sil	Ob	2	-0.550000011920929	15.999
3	Ob	1	Sil	Ob	3	-0.550000011920929	15.999
4	Ob	1	Sil	Ob	4	-0.550000011920929	15.999
5	Ob	1	Sil	Ob	5	-0.550000011920929	15.999
6	Ob	1	Sil	Ob	6	-0.550000011920929	15.999
7	Ob	1	Sil	Ob	7	-0.550000011920929	15.999
8	Ob	1	Sil	Ob	8	-0.550000011920929	15.999
9	Ob	1	Sil	Ob	9	-0.550000011920929	15.999
10	Ob	1	Sil	Ob	10	-0.550000011920929	15.999
11	Ob	1	Sil	Ob	11	-0.550000011920929	15.999
12	Ob	1	Sil	Ob	12	-0.550000011920929	15.999
13	Ob	1	Sil	Ob	13	-0.550000011920929	15.999
14	Ob	1	Sil	Ob	14	-0.550000011920929	15.999
15	Ob	1	Sil	Ob	15	-0.550000011920929	15.999
16	Ob	1	Sil	Ob	16	-0.550000011920929	15.999
17	Ob	1	Sil	Ob	17	-0.550000011920929	15.999
18	Ob	1	Sil	Ob	18	-0.550000011920929	15.999
19	Ob	1	Sil	Ob	19	-0.550000011920929	15.999
20	Ob	1	Sil	Ob	20	-0.550000011920929	15.999
21	Ob	1	Sil	Ob	21	-0.550000011920929	15.999
22	Ob	1	Sil	Ob	22	-0.550000011920929	15.999
23	Ob	1	Sil	Ob	23	-0.550000011920929	15.999
24	Ob	1	Sil	Ob	24	-0.550000011920929	15.999
25	Ob	1	Sil	Ob	25	-0.550000011920929	15.999
26	Ob	1	Sil	Ob	26	-0.550000011920929	15.999
27	Ob	1	Sil	Ob	27	-0.550000011920929	15.999
28	Ob	1	Sil	Ob	28	-0.550000011920929	15.999
29	Ob	1	Sil	Ob	29	-0.550000011920929	15.999
30	Ob	1	Sil	Ob	30	-0.550000011920929	15.999
31	Ob	1	Sil	Ob	31	-0.550000011920929	15.999
32	Ob	1	Sil	Ob	32	-0.550000011920929	15.999
33	Ob	1	Sil	Ob	33	-0.550000011920929	15.999
34	Ob	1	Sil	Ob	34	-0.550000011920929	15.999
35	Ob	1	Sil	Ob	35	-0.550000011920929	15.999
36	Ob	1	Sil	Ob	36	-0.550000011920929	15.999
37	Ob	1	Sil	Ob	37	-0.550000011920929	15.999
38	Ob	1	Sil	Ob	38	-0.550000011920929	15.999
39	Ob	1	Sil	Ob	39	-0.550000011920929	15.999
40	Ob	1	Sil	Ob	40	-0.550000011920929	15.999
41	Ob	1	Sil	Ob	41	-0.550000011920929	15.999
42	Ob	1	Sil	Ob	42	-0.550000011920929	15.999
43	Ob	1	Sil	Ob	43	-0.550000011920929	15.999
44	Ob	1	Sil	Ob	44	-0.550000011920929	15.999
45	Ob	1	Sil	Ob	45	-0.550000011920929	15.999
46	Ob	1	Sil	Ob	46	-0.550000011920929	15.999
47	Ob	1	Sil	Ob	47	-0.550000011920929	15.999
48	Ob	1	Sil	Ob	48	-0.550000011920929	15.999
49	Ob	1	Sil	Ob	49	-0.550000011920929	15.999
50	Ob	1	Sil	Ob	50	-0.550000011920929	15.999
51	Ob	1	Sil	Ob	51	-0.550000011920929	15.999
52	Ob	1	Sil	Ob	52	-0.550000011920929	15.999
53	Ob	1	Sil	Ob	53	-0.550000011920929	15.999
54	Ob	1	Sil	Ob	54	-0.550000011920929	15.999
55	Ob	1	Sil	Ob	55	-0.550000011920929	15.999
56	Ob	1	Sil	Ob	56	-0.550000011920929	15.999
57	Ob	1	Sil	Ob	57	-0.550000011920929	15.999
58	Ob	1	Sil	Ob	58	-0.550000011920929	15.999
59	Ob	1	Sil	Ob	59	-0.550000011920929	15.999
60	Ob	1	Sil	Ob	60	-0.550000011920929	15.999
61	Ob	1	Sil	Ob	61	-0.550000011920929	15.999
62	Ob	1	Sil	Ob	62	-0.550000011920929	15.999
63	Ob	1	Sil	Ob	63	-0.550000011920929	15.999
64	Ob	1	Sil	Ob	64	-0.550000011920929	15.999
65	Ob	1	Sil	Ob	65	-0.550000011920929	15.999
66	Ob	1	Sil	Ob	66	-0.550000011920929	15.999
67	Ob	1	Sil	Ob	67	-0.550000011920929	15.999
68	Ob	1	Sil	Ob	68	-0.550000011920929	15.999
69	Ob	1	Sil	Ob	69	-0.550000011920929	15.999
70	Ob	1	Sil	Ob	70	-0.550000011920929	15.999
71	Ob	1	Sil	Ob	71	-0.550000011920929	15.999
72	Ob	1	Sil	Ob	72	-0.550000011920929	15.999
73	Ob	1	Sil	Ob	73	-0.550000011920929	15.999
74	Ob	1	Sil	Ob	74	-0.550000011920929	15.999
75	Ob	1	Sil	Ob	75	-0.550000011920929	15.999
76	Ob	1	Sil	Ob	76	-0.550000011920929	15.999
77	Ob	1	Sil	Ob	77	-0.550000011920929	15.999
78	Ob	1	Sil	Ob	78	-0.550000011920929	15.999
79	Ob	1	Sil	Ob	79	-0.550000011920929	15.999
80	Ob	1	Sil	Ob	80	-0.550000011920929	15.999
81	Ob	1	Sil	Ob	81	-0.550000011920929	15.999
82	Ob	1	Sil	Ob	82	-0.550000011920929	15.999
83	Ob	1	Sil	Ob	83	-0.550000011920929	15.999
84	Ob	1	Sil	Ob	84	-0.550000011920929	15.999
85	Ob	1	Sil	Ob	85	-0.550000011920929	15.999
86	Ob	1	Sil	Ob	86	-0.550000011920929	15.999
87	Ob	1	Sil	Ob	87	-0.550000011920929	15.999
88	Ob	1	Sil	Ob	88	-0.550000011920929	15.999
89	Ob	1	Sil	Ob	89	-0.550000011920929	15.999
90	Ob	1	Sil	Ob	90	-0.550000011920929	15.999
91	Ob	1	Sil	Ob	91	-0.550000011920929	15.999
92	Ob	1	Sil	Ob	92	-0.550000011920929	15.999
93	Ob	1	Sil	Ob	93	-0.550000011920929	15.999
94	Ob	1	Sil	Ob	94	-0.550000011920929	15.999
95	Ob	1	Sil	Ob	95	-0.550000011920929	15.999
96	Ob	1	Sil	Ob	96	-0.550000011920929	15.999
97	Ob	1	Sil	Ob	97	-0.550000011920929	15.999
98	Ob	1	Sil	Ob	98	-0.550000011920929	15.999
99	Ob	1	Sil	Ob	99	-0.550000011920929	15.999
100	Ob	1	Sil	Ob	100	-0.550000011920929	15.999
101	Ob	1	Sil	Ob	101	-0.550000011920929	15.999
102	Ob	1	Sil	Ob	102	-0.550000011920929	15.999
103	Ob	1	Sil	Ob	103	-0.550000011920929	15.999
104	Ob	1	Sil	Ob	104	-0.550000011920929	15.999
105	Ob	1	Sil	Ob	105	-0.550000011920929	15.999
106	Ob	1	Sil	Ob	106	-0.550000011920929	15.999
107	Ob	1	Sil	Ob	107	-0.550000011920929	15.999
108	Ob	1	Sil	Ob	108	-0.550000011920929	15.999
109	Ob	1	Sil	Ob	109	-0.550000011920929	15.999
110	Ob	1	Sil	Ob	110	-0.550000011920929	15.999
111	Ob	1	Sil	Ob	111	-0.550000011920929	15.999
112	Ob	1	Sil	Ob	112	-0.550000011920929	15.999
113	Ob	1	Sil	Ob	113	-0.550000011920929	15.999
114	Ob	1	Sil	Ob	114	-0.550000011920929	15.999
115	Ob	1	Sil	Ob	115	-0.550000011920929	15.999
116	Ob	1	Sil	Ob	116	-0.550000011920929	15.999
117	Ob	1	Sil	Ob	117	-0.550000011920929	15.999
118	Ob	1	Sil	Ob	118	-0.550000011920929	15.999
119	Ob	1	Sil	Ob	119	-0.550000011920929	15.999
120	Ob	1	Sil	Ob	120	-0.550000011920929	15.999
121	Ob	1	Sil	Ob	121	-0.550000011920929	15.999
122	Ob	1	Sil	Ob	122	-0.550000011920929	15.999
123	Ob	1	Sil	Ob	123	-0.550000011920929	15.999
124	Ob	1	Sil	Ob	124	-0.550000011920929	15.999
125	Ob	1	Sil	Ob	125	-0.550000011920929	15.999
126	Ob	1	Sil	Ob	126	-0.550000011920929	15.999
127	Ob	1	Sil	Ob	127	-0.550000011920929	15.999
128	Ob	1	Sil	Ob	128	-0.550000011920929	15.999
129	Ob	1	Sil	Ob	129	-0.550000011920929	15.999
130	Ob	1	Sil	Ob	130	-0.550000011920929	15.999
131	Ob	1	Sil	Ob	131	-0.550000011920929	15.999
132	Ob	1	Sil	Ob	132	-0.550000011920929	15.999
133	Ob	1	Sil	Ob	133	-0.550000011920929	15.999
134	Ob	1	Sil	Ob	134	-0.550000011920929	15.999
135	Ob	1	Sil	Ob	135	-0.550000011920929	15.999
136	Ob	1	Sil	Ob	136	-0.550000011920929	15.999
137	Ob	1	Sil	Ob	137	-0.550000011920929	15.999
138	Ob	1	Sil	Ob	138	-0.550000011920929	15.999
139	Ob	1	Sil	Ob	139	-0.550000011920929	15.999
140	Ob	1	Sil	Ob	140	-0.550000011920929	15.999
141	Ob	1	Sil	Ob	141	-0.550000011920929	15.999
142	Ob	1	Sil	Ob	142	-0.550000011920929	15.999
143	Ob	1	Sil	Ob	143	-0.550000011920929	15.999
144	Ob	1	Sil	Ob	144	-0.550000011920929	15.999
145	Ob	1	Sil	Ob	145	-0.550000011920929	15.999
146	Ob	1	Sil	Ob	146	-0.550000011920929	15.999
147	Ob	1	Sil	Ob	147	-0.550000011920929	15.999
148	Ob	1	Sil	Ob	148	-0.550000011920929	15.999
149	Ob	1	Sil	Ob	149	-0.550000011920929	15.999
150	Ob	1	Sil	Ob	150	-0.550000011920929	15.999
151	Ob	1	Sil	Ob	151	-0.550000011920929	15.999
152	Ob	1	Sil	Ob	152	-0.550000011920929	15.999
153	Ob	1	Sil	Ob	153	-0.550000011920929	15.999
154	Ob	1	Sil	Ob	154	-0.550000011920929	15.999
155	Ob	1	Sil	Ob	155	-0.550000011920929	15.999
156	Ob	1	Sil	Ob	156	-0.550000011920929	15.999
157	Ob	1	Sil	Ob	157	-0.550000011920929	15.999
158	Ob	1	Sil	Ob	158	-0.550000011920929	15.999
159	Ob	1	Sil	Ob	159	-0.550000011920929	15.999
160	Ob	1	Sil	Ob	160	-0.550000011920929	15.999
161	Ob	1	Sil	Ob	161	-0.550000011920929	15.999
162	Ob	1	Sil	Ob	162	-0.550000011920929	15.999
163	Ob	1	Sil	Ob	163	-0.550000011920929	15.999
164	Ob	1	Sil	Ob	164	-0.550000011920929	15.999
165	Ob	1	Sil	Ob	165	-0.550000011920929	15.999
166	Ob	1	Sil	Ob	166	-0.550000011920929	15.999
167	Ob	1	Sil	Ob	167	-0.550000011920929	15.999
168	Ob	1	Sil	Ob	168	-0.550000011920929	15.999
169	Ob	1	Sil	Ob	169	-0.550000011920929	15.999
170	Ob	1	Sil	Ob	170	-0.550000011920929	15.999
171	Ob	1	Sil	Ob	171	-0.550000011920929	15.999
172	Ob	1	Sil	Ob	172	-0.550000011920929	15.999
173	Ob	1	Sil	Ob	173	-0.550000011920929	15.999
174	Ob	1	Sil	Ob	174	-0.550000011920929	15.999
175	Ob	1	Sil	Ob	175	-0.550000011920929	15.999
176	Ob	1	Sil	Ob	176	-0.550000011920929	15.999
177	Ob	1	Sil	Ob	177	-0.550000011920929	15.999
178	Ob	1	Sil	Ob	178	-0.550000011920929	15.999
179	Ob	1	Sil	Ob	179	-0.550000011920929	15.999
180	Ob	1	Sil	Ob	180	-0.550000011920929	15.999
181	Ob	1	Sil	Ob	181	-0.550000011920929	15.999
182	Ob	1	Sil	Ob	182	-0.550000011920929	15.999
183	Ob	1	Sil	Ob	183	-0.550000011920929	15.999
184	Ob	1	Sil	Ob	184	-0.550000011920929	15.999
185	Ob	1	Sil	Ob	185	-0.550000011920929	15.999
186	Ob	1	Sil	Ob	186	-0.550000011920929	15.999
187	Ob	1	Sil	Ob	187	-0.550000011920929	15.999
188	Ob	1	Sil	Ob	188	-0.550000011920929	15.999
189	Ob	1	Sil	Ob	189	-0.550000011920929	15.999
190	Ob	1	Sil	Ob	190	-0.550000011920929	15.999
191	Ob	1	Sil	Ob	191	-0.550000011920929	15.999
192	Ob	1	Sil	Ob	192	-0.550000011920929	15.999
193	Ob	1	Sil	Ob	193	-0.550000011920929	15.999
194	Ob	1	Sil	Ob	194	-0.550000011920929	15.999
195	Ob	1	Sil	Ob	195	-0.550000011920929	15.999
196	Ob	1	Sil	Ob	196	-0.550000011920929	15.999
197	Ob	1	Sil	Ob	197	-0.550000011920929	15.999
198	Ob	1	Sil	Ob	198	-0.550000011920929	15.999
199	Ob	1	Sil	Ob	199	-0.550000011920929	15.999
200	Ob	1	Sil	Ob	200	-0.550000011920929	15.999
201	Ob	1	Sil	Ob	201	-0.550000011920929	15.999
202	Ob	1	Sil	Ob	202	-0.550000011920929	15.999
203	Ob	1	Sil	Ob	203	-0.550000011920929	15.999
204	Ob	1	Sil	Ob	204	-0.550000011920929	15.999
205	Ob	1	Sil	Ob	205	-0.550000011920929	15.999
206	Ob	1	Sil	Ob	206	-0.550000011920929	15.999
207	Ob	1	Sil	Ob	207	-0.550000011920929	15.999
208	Ob	1	Sil	Ob	208	-0.550000011920929	15.999
209	Ob	1	Sil	Ob	209	-0.550000011920929	15.999
210	Ob	1	Sil	Ob	210	-0.550000011920929	15.999
211	Ob	1	Sil	Ob	211	-0.550000011920929	15.999
212	Ob	1	Sil	Ob	212	-0.550000011920929	15.999
213	Ob	1	Sil	Ob	213	-0.550000011920929	15.999
214	Ob	1	Sil	Ob	214	-0.550000011920929	15.999
215	Ob	1	Sil	Ob	215	-0.550000011920929	15.999
216	Ob	1	Sil	Ob	216	-0.550000011920929	15.999
217	Ob	1	Sil	Ob	217	-0.550000011920929	15.999
218	Ob	1	Sil	Ob	218	-0.550000011920929	15.999
219	Ob	1	Sil	Ob	219	-0.550000011920929	15.999
220	Ob	1	Sil	Ob	220	-0.550000011920929	15.999
221	Ob	1	Sil	Ob	221	-0.550000011920929	15.999
222	Ob	1	Sil	Ob	222	-0.550000011920929	15.999
223	Ob	1	Sil	Ob	223	-0.550000011920929	15.999
224	Ob	1	Sil	Ob	224	-0.550000011920929	15.999
225	Ob	1	Sil	Ob	225	-0.550000011920929	15.999
226	Ob	1	Sil	Ob	226	-0.550000011920929	15.999
227	Ob	1	Sil	Ob	227	-0.550000011920929	15.999
228	Ob	1	Sil	Ob	228	-0.550000011920929	15.999
229	Ob	1	Sil	Ob	229	-0.550000011920929	15.999
230	Ob	1	Sil	Ob	230	-0.550000011920929	15.999
231	Ob	1	Sil	Ob	231	-0.550000011920929	15.999
232	Ob	1	Sil	Ob	232	-0.550000011920929	15.999
233	Ob	1	Sil	Ob	233	-0.550000011920929	15.999
234	Ob	1	Sil	Ob	234	-0.550000011920929	15.999
235	Ob	1	Sil	Ob	235	-0.550000011920929	15.999
236	Ob	1	Sil	Ob	236	-0.550000011920929	15.999
237	Ob	1	Sil	Ob	237	-0.550000011920929	15.999
238	Ob	1	Sil	Ob	238	-0.550000011920929	15.999
239	Ob	1	Sil	Ob	239	-0.550000011920929	15.999
240	Ob	1	Sil	Ob	240	-0.550000011920929	15.999
241	Ob	1	Sil	Ob	241	-0.550000011920929	15.999
242	Ob	1	Sil	Ob	242	-0.550000011920929	15.999
243	Ob	1	Sil	Ob	243	-0.550000011920929	15.999
244	Ob	1	Sil	Ob	244	-0.550000011920929	15.999
245	Ob	1	Sil	Ob	245	-0.550000011920929	15.999
246	Ob	1	Sil	Ob	246	-0.550000011920929	15.999
247	Ob	1	Sil	Ob	247	-0.550000011920929	15.999
248	Ob	1	Sil	Ob	248	-0.550000011920929	15.999
249	Ob	1	Sil	Ob	249	-0.550000011920929	15.999
250	Ob	1	Sil	Ob	250	-0.550000011920929	15.999
251	Ob	1	Sil	Ob	251	-0.550000011920929	15.999
252	Ob	1	Sil	Ob	252	-0.550000011920929	15.999
253	Ob	1	Sil	Ob	253	-0.550000011920929	15.999
254	Ob	1	Sil	Ob	254	-0.550000011920929	15.999
255	Ob	1	Sil	Ob	255	-0.550000011920929	15.999
256	Ob	1	Sil	Ob	256	-0.550000011920929	15.999
257	Ob	1	Sil	Ob	257	-0.550000011920929	15.999
258	Ob	1	Sil	Ob	258	-0.550000011920929	15.999
259	Ob	1	Sil	Ob	259	-0.550000011920929	15.999
260	Ob	1	Sil	Ob	260	-0.550000011920929	15.999
261	Ob	1	Sil	Ob	261	-0.550000011920929	15.999
262	Ob	1	Sil	Ob	262	-0.550000011920929	15.999
263	Ob	1	Sil	Ob	263	-0.550000011920929	15.999
264	Ob	1	Sil	Ob	264	-0.550000011920929	15.999
265	Ob	1	Sil	Ob	265	-0.550000011920929	15.999
266	Ob	1	Sil	Ob	266	-0.550000011920929	15.999
267	Ob	1	Sil	Ob	267	-0.550000011920929	15.999
268	Ob	1	Sil	Ob	268	-0.550000011920929	15.999
269	Ob	1	Sil	Ob	269	-0.550000011920929	15.999
270	Ob	1	Sil	Ob	270	-0.550000011920929	15.999
271	Ob	1	Sil	Ob	271	-0.550000011920929	15.999
272	Ob	1	Sil	Ob	272	-0.550000011920929	15.999
273	Ob	1	Sil	Ob	273	-0.550000011920929	15.999
274	Ob	1	Sil	Ob	274	-0.550000011920929	15.999
275	Ob	1	Sil	Ob	275	-0.550000011920929	15.999
276	Ob	1	Sil	Ob	276	-0.550000011920929	15.999
277	Ob	1	Sil	Ob	277	-0.550000011920929	15.999
278	Ob	1	Sil	Ob	278	-0.550000011920929	15.999
279	Ob	1	Sil	Ob	279	-0.550000011920929	15.999
280	Ob	1	Sil	Ob	280	-0.550000011920929	15.999
281	Ob	1	Sil	Ob	281	-0.550000011920929	15.999
282	Ob	1	Sil	Ob	282	-0.550000011920929	15.999
283	Ob	1	Sil	Ob	283	-0.550000011920929	15.999
284	Ob	1	Sil	Ob	284	-0.550000011920929	15.999
285	Ob	1	Sil	Ob	285	-0.550000011920929	15.999
286	Ob	1	Sil	Ob	286	-0.550000011920929	15.999
287	Ob	1	Sil	Ob	287	-0.550000011920929	15.999
288	Ob	1	Sil	Ob	288	-0.550000011920929	15.999
289	Ob	1	Sil	Ob	289	-0.550000011920929	15.999
290	Ob	1	Sil	Ob	290	-0.550000011920929	15.999
291	Ob	1	Sil	Ob	291	-0.550000011920929	15.999
292	Ob	1	Sil	Ob	292	-0.550000011920929	15.999
293	Ob	1	Sil	Ob	293	-0.550000011920929	15.999
294	Ob	1	Sil	Ob	294	-0.550000011920929	15.999
295	Ob	1	Sil	Ob	295	-0.550000011920929	15.999
296	Ob	1	Sil	Ob	296	-0.550000011920929	15.999
297	Ob	1	Sil	Ob	297	-0.550000011920929	15.999
298	Ob	1	Sil	Ob	298	-0.550000011920929	15.999
299	Ob	1	Sil	Ob	299	-0.550000011920929	15.999
300	Ob	1	Sil	Ob	300	-0.550000011920929	15.999
301	Ob	1	Sil	Ob	301	-0.550000011920929	15.999
302	Ob	1	Sil	Ob	302	-0.550000011920929	15.999
303	Ob	1	Sil	Ob	303	-0.550000011920929	15.999
304	Ob	1	Sil	Ob	304	-0.550000011920929	15.999
305	Ob	1	Sil	Ob	305	-0.550000011920929	15.999
306	Ob	1	Sil	Ob	306	-0.550000011920929	15.999
307	Ob	1	Sil	Ob	307	-0.550000011920929	15.999
308	Ob	1	Sil	Ob	308	-0.550000011920929	15.999
309	Ob	1	Sil	Ob	309	-0.550000011920929	15.999
310	Ob	1	Sil	Ob	310	-0.550000011920929	15.999
311	Ob	1	Sil	Ob	311	-0.550000011920929	15.999
312	Ob	1	Sil	Ob	312	-0.550000011920929	15.999
313	Ob	1	Sil	Ob	313	-0.550000011920929	15.999
314	Ob	1	Sil	Ob	314	-0.550000011920929	15.999
315	Ob	1	Sil	Ob	315	-0.550000011920929	15.999
316	Ob	1	Sil	Ob	316	-0.550000011920929	15.999
317	Ob	1	Sil	Ob	317	-0.550000011920929	15.999
318	Ob	1	Sil	Ob	318	-0.550000011920929	15.999
319	Ob	1	Sil	Ob	319	-0.550000011920929	15.999
320	Ob	1	Sil	Ob	320	-0.550000011920929	15.999
321	Ob	1	Sil	Ob	321	-0.550000011920929	15.999
322	Ob	1	Sil	Ob	322	-0.550000011920929	15.999
323	Ob	1	Sil	Ob	323	-0.550000011920929	15.999
324	Ob	1	Sil	Ob	324	-0.550000011920929	15.999
325	Ob	1	Sil	Ob	325	-0.550000011920929	15.999
326	Ob	1	Sil	Ob	326	-0.550000011920929	15.999
327	Ob	1	Sil	Ob	327	-0.550000011920929	15.999
328	Ob	1	Sil	Ob	328	-0.550000011920929	15.999
329	Ob	1	Sil	Ob	329	-0.550000011920929	15.999
330	Ob	1	Sil	Ob	330	-0.550000011920929	15.999
331	Ob	1	Sil	Ob	331	-0.550000011920929	15.999
332	Ob	1	Sil	Ob	332	-0.550000011920929	15.999
333	Ob	1	Sil	Ob	333	-0.550000011920929	15.999
334	Ob	1	Sil	Ob	334	-0.550000011920929	15.999
335	Ob	1	Sil	Ob	335	-0.550000011920929	15.999
336	Ob	1	Sil	Ob	336	-0.550000011920929	15.999
337	Ob	1	Sil	Ob	337	-0.550000011920929	15.999
338	Ob	1	Sil	Ob	338	-0.550000011920929	15.999
339	Ob	1	Sil	Ob	339	-0.550000011920929	15.999
340	Ob	1	Sil	Ob	340	-0.550000011920929	15.999
341	Ob	1	Sil	Ob	341	-0.550000011920929	15.999
342	Ob	1	Sil	Ob	342	-0.550000011920929	15.999
343	Ob	1	Sil	Ob	343	-0.550000011920929	15.999
344	Ob	1	Sil	Ob	344	-0.550000011920929	15.999
345	Ob	1	Sil	Ob	345	-0.550000011920929	15.999
346	Ob	1	Sil	Ob	346	-0.550000011920929	15.999
347	Ob	1	Sil	Ob	347	-0.550000011920929	15.999
348	Ob	1	Sil	Ob	348	-0.550000011920929	15.999
349	Ob	1	Sil	Ob	349	-0.550000011920929	15.999
350	Ob	1	Sil	Ob	350	-0.550000011920929	15.999
351	Ob	1	Sil	Ob	351	-0.550000011920929	15.999
352	Ob	1	Sil	Ob	352	-0.550000011920929	15.999
353	Ob	1	Sil	Ob	353	-0.550000011920929	15.999
354	Ob	1	Sil	Ob	354	-0.550000011920929	15.999
355	Ob	1	Sil	Ob	355	-0.550000011920929	15.999
356	Ob	1	Sil	Ob	356	-0.550000011920929	15.999
357	Ob	1	Sil	Ob	357	-0.550000011920929	15.999
358	Ob	1	Sil	Ob	358	-0.550000011920929	15.999
359	Ob	1	Sil	Ob	359	-0.550000011920929	15.999
360	Ob	1	Sil	Ob	360	-0.550000011920929	15.999
361	Ob	1	Sil	Ob	361	-0.550000011920929	15.999
362	Ob	1	Sil	Ob	362	-0.550000011920929	15.999
363	Ob	1	Sil	Ob	363	-0.550000011920929	15.999
364	Ob	1	Sil	Ob	364	-0.550000011920929	15.999
365	Ob	1	Sil	Ob	365	-0.550000011920929	15.999
366	Ob	1	Sil	Ob	366	-0.550000011920929	15.999
367	Ob	1	Sil	Ob	367	-0.550000011920929	15.999
368	Ob	1	Sil	Ob	368	-0.550000011920929	15.999
369	Ob	1	Sil	Ob	369	-0.550000011920929	15.999
370	Ob	1	Sil	Ob	370	-0.550000011920929	15.999
371	Ob	1	Sil	Ob	371	-0.550000011920929	15.999
372	Ob	1	Sil	Ob	372	-0.550000011920929	15.999
373	Ob	1	Sil	Ob	373	-0.550000011920929	15.999
374	Ob	1	Sil	Ob	374	-0.550000011920929	15.999
375	Ob	1	Sil	Ob	375	-0.550000011920929	15.999
376	Ob	1	Sil	Ob	376	-0.550000011920929	15.999
377	Ob	1	Sil	Ob	377	-0.550000011920929	15.999
378	Ob	1	Sil	Ob	378	-0.550000011920929	15.999
379	Ob	1	Sil	Ob	379	-0.550000011920929	15.999
380	Ob	1	Sil	Ob	380	-0.550000011920929	15.999
381	Ob	1	Sil	Ob	381	-0.550000011920929	15.999
382	Ob	1	Sil	Ob	382	-0.550000011920929	15.999
383	Ob	1	Sil	Ob	383	-0.550000011920929	15.999
384	Ob	1	Sil	Ob	384	-0.550000011920929	15.999
385	Ob	1	Sil	Ob	385	-0.550000011920929	15.999
386	Ob	1	Sil	Ob	386	-0.550000011920929	15.999
387	Ob	1	Sil	Ob	387	-0.550000011920929	15.999
388	Ob	1	Sil	Ob	388	-0.550000011920929	15.999
389	Ob	1	Sil	Ob	389	-0.550000011920929	15.999
390	Ob	1	Sil	Ob	390	-0.550000011920929	15.999
391	Ob	1	Sil	Ob	391	-0.550000011920929	15.999
392	Ob	1	Sil	Ob	392	-0.550000011920929	15.999
393	Ob	1	Sil	Ob	393	-0.550000011920929	15.999
394	Ob	1	Sil	Ob	394	-0.550000011920929	15.999
395	Ob	1	Sil	Ob	395	-0.550000011920929	15.999
396	Ob	1	Sil	Ob	396	-0.550000011920929	15.999
397	Ob	1	Sil	Ob	397	-0.550000011920929	15.999
398	Ob	1	Sil	Ob	398	-0.550000011920929	15.999
399	Ob	1	Sil	Ob	399	-0.550000011920929	15.999
400	Ob	1	Sil	Ob	400	-0.550000011920929	15.999
401	Ob	1	Sil	Ob	401	-0.550000011920929	15.999
402	Ob	1	Sil	Ob	402	-0.550000011920929	15.999
403	Ob	1	Sil	Ob	403	-0.550000011920929	15.999
404	Ob	1	Sil	Ob	404	-0.550000011920929	15.999
405	Ob	1	Sil	Ob	405	-0.550000011920929	15.999
406	Ob	1	Sil	Ob	406	-0.550000011920929	15.999
407	Ob	1	Sil	Ob	407	-0.550000011920929	15.999
408	Ob	1	Sil	Ob	408	-0.550000011920929	15.999
409	Ob	1	Sil	Ob	409	-0.550000011920929	15.999
410	Ob	1	Sil	Ob	410	-0.550000011920929	15.999
411	Ob	1	Sil	Ob	411	-0.550000011920929	15.999
412	Ob	1	Sil	Ob	412	-0.550000011920929	15.999
413	Ob	1	Sil	Ob	413	-0.550000011920929	15.999
414	Ob	1	Sil	Ob	414	-0.550000011920929	15.999
415	Ob	1	Sil	Ob	415	-0.550000011920929	15.999
416	Ob	1	Sil	Ob	416	-0.550000011920929	15.999
417	Ob	1	Sil	Ob	417	-0.550000011920929	15.999
418	Ob	1	Sil	Ob	418	-0.550000011920929	15.999
419	Ob	1	Sil	Ob	419	-0.550000011920929	15.999
420	Ob	1	Sil	Ob	420	-0.550000011920929	15.999
421	Ob	1	Sil	Ob	421	-0.550000011920929	15.999
422	Ob	1	Sil	Ob	422	-0.550000011920929	15.999
423	Ob	1	Sil	Ob	423	-0.550000011920929	15.999
424	Ob	1	Sil	Ob	424	-0.550000011920929	15.999
425	Ob	1	Sil	Ob	425	-0.550000011920929	15.999
426	Ob	1	Sil	Ob	426	-0.550000011920929	15.999
427	Ob	1	Sil	Ob	427	-0.550000011920929	15.999
428	Ob	1	Sil	Ob	428	-0.550000011920929	15.999
429	Ob	1	Sil	Ob	429	-0.550000011920929	15.999
430	Ob	1	Sil	Ob	430	-0.550000011920929	15.999
431	Ob	1	Sil	Ob	431	-0.550000011920929	15.999
432	Ob	1	Sil	Ob	432	-0.550000011920929	15.999
433	Ob	1	Sil	Ob	433	-0.550000011920929	15.999
434	Ob	1	Sil	Ob	434	-0.550000011920929	15.999
435	Ob	1	Sil	Ob	435	-0.550000011920929	15.999
436	Ob	1	Sil	Ob	436	-0.550000011920929	15.999
437	Ob	1	Sil	Ob	437	-0.550000011920929	15.999
438	Ob	1	Sil	Ob	438	-0.550000011920929	15.999
439	Ob	1	Sil	Ob	439	-0.550000011920929	15.999
440	Ob	1	Sil	Ob	440	-0.550000011920929	15.999
441	Ob	1	Sil	Ob	441	-0.550000011920929	15.999
442	Ob	1	Sil	Ob	442	-0.550000011920929	15.999
443	Ob	1	Sil	Ob	443	-0.550000011920929	15.999
444	Ob	1	Sil	Ob	444	-0.550000011920929	15.999
445	Ob	1	Sil	Ob	445	-0.550000011920929	15.999
446	Ob	1	Sil	Ob	446	-0.550000011920929	15.999
447	Ob	1	Sil	Ob	447	-0.550000011920929	15.999
448	Ob	1	Sil	Ob	448	-0.550000011920929	15.999
449	Ob	1	Sil	Ob	449	-0.550000011920929	15.999
450	Ob	1	Sil	Ob	450	-0.550000011920929	15.999
451	Ob	1	Sil	Ob	451	-0.550000011920929	15.999
452	Ob	1	Sil	Ob	452	-0.550000011920929	15.999
453	Ob	1	Sil	Ob	453	-0.550000011920929	15.999
454	Ob	1	Sil	Ob	454	-0.550000011920929	15.999
455	Ob	1	Sil	Ob	455	-0.550000011920929	15.999
456	Ob	1	Sil	Ob	456	-0.550000011920929	15.999
457	Ob	1	Sil	Ob	457	-0.550000011920929	15.999
458	Ob	1	Sil	Ob	458	-0.550000011920929	15.999
459	Ob	1	Sil	Ob	459	-0.550000011920929	15.999
460	Ob	1	Sil	Ob	460	-0.550000011920929	15.999
461	Ob	1	Sil	Ob	461	-0.550000011920929	15.999
462	Ob	1	Sil	Ob	462	-0.550000011920929	15.999
463	Ob	1	Sil	Ob	463	-0.550000011920929	15.999
464	Ob	1	Sil	Ob	464	-0.550000011920929	15.999
465	Ob	1	Sil	Ob	465	-0.550000011920929	15.999
466	Ob	1	Sil	Ob	466	-0.550000011920929	15.999
467	Ob	1	Sil	Ob	467	-0.550000011920929	15.999
468	Ob	1	Sil	Ob	468	-0.550000011920929	15.999
469	Ob	1	Sil	Ob	469	-0.550000011920929	15.999
470	Ob	1	Sil	Ob	470	-0.550000011920929	15.999
471	Ob	1	Sil	Ob	471	-0.550000011920929	15.999
472	Ob	1	Sil	Ob	472	-0.550000011920929	15.999
473	Ob	1	Sil	Ob	473	-0.550000011920929	15.999
474	Ob	1	Sil	Ob	474	-0.550000011920929	15.999
475	Ob	1	Sil	Ob	475	-0.550000011920929	15.999
476	Ob	1	Sil	Ob	476	-0.550000011920929	15.999
477	Ob	1	Sil	Ob	477	-0.550000011920929	15.999
478	Ob	1	Sil	Ob	478	-0.550000011920929	15.999
479	Ob	1	Sil	Ob	479	-0.550000011920929	15.999
480	Ob	1	Sil	Ob	480	-0.550000011920929	15.999
481	Ob	1	Sil	Ob	481	-0.550000011920929	15.999
482	Ob	1	Sil	Ob	482	-0.550000011920929	15.999
483	Ob	1	Sil	Ob	483	-0.550000011920929	15.999
484	Ob	1	Sil	Ob	484	-0.550000011920929	15.999
485	Ob	1	Sil	Ob	485	-0.550000011920929	15.999
486	Ob	1	Sil	Ob	486	-0.550000011920929	15.999
487	Ob	1	Sil	Ob	487	-0.550000011920929	15.999
488	Ob	1	Sil	Ob	488	-0.550000011920929	15.999
489	Ob	1	Sil	Ob	489	-0.550000011920929	15.999
490	Ob	1	Sil	Ob	490	-0.550000011920929	15.999
491	Ob	1	Sil	Ob	491	-0.550000011920929	15.999
492	Ob	1	Sil	Ob	492	-0.550000011920929	15.999
493	Ob	1	Sil	Ob	493	-0.550000011920929	15.999
494	Ob	1	Sil	Ob	494	-0.550000011920929	15.999
495	Ob	1	Sil	Ob	495	-0.550000011920929	15.999
496	Ob	1	Sil	Ob	496	-0.550000011920929	15.999
497	Ob	1	Sil	Ob	497	-0.550000011920929	15.999
498	Ob	1	Sil	Ob	498	-0.550000011920929	15.999
499	Ob	1	Sil	Ob	499	-0.550000011920929	15.999
500	Ob	1	Sil	Ob	500	-0.550000011920929	15.999
501	Ob	1	Sil	Ob	501	-0.550000011920929	15.999
502	Ob	1	Sil	Ob	502	-0.550000011920929	15.999
503	Ob	1	Sil	Ob	503	-0.550000011920929	15.999
504	Ob	1	Sil	Ob	504	-0.550000011920929	15.999
505	Ob	1	Sil	Ob	505	-0.550000011920929	15.999
506	Ob	1	Sil	Ob	506	-0.550000011920929	15.999
507	Ob	1	Sil	Ob	507	-0.550000011920929	15.999
508	Ob	1	Sil	Ob	508	-0.550000011920929	15.999
509	Ob	1	Sil	Ob	509	-0.550000011920929	15.999
510	Ob	1	Sil	Ob	510	-0.550000011920929	15.999
511	Ob	1	Sil	Ob	511	-0.550000011920929	15.999
512	Ob	1	Sil	Ob	512	-0.550000011920929	15.999
513	Ob	1	Sil	Ob	513	-0.550000011920929	15.999
514	Ob	1	Sil	Ob	514	-0.550000011920929	15.999
515	Ob	1	Sil	Ob	515	-0.550000011920929	15.999
516	Ob	1	Sil	Ob	516	-0.550000011920929	15.999
517	Ob	1	Sil	Ob	517	-0.550000011920929	15.999
518	Ob	1	Sil	Ob	518	-0.550000011920929	15.999
519	Ob	1	Sil	Ob	519	-0.550000011920929	15.999
520	Ob	1	Sil	Ob	520	-0.550000011920929	15.999
521	Ob	1	Sil	Ob	521	-0.550000011920929	15.999
522	Ob	1	Sil	Ob	522	-0.550000011920929	15.999
523	Ob	1	Sil	Ob	523	-0.550000011920929	15.999
524	Ob	1	Sil	Ob	524	-0.550000011920929	15.999
525	Ob	1	Sil	Ob	525	-0.550000011920929	15.999
526	Ob	1	Sil	Ob	526	-0.550000011920929	15.999
527	Ob	1	Sil	Ob	527	-0.550000011920929	15.999
528	Ob	1	Sil	Ob	528	-0.550000011920929	15.999
529	Ob	1	Sil	Ob	529	-0.550000011920929	15.999
530	Ob	1	Sil	Ob	530	-0.550000011920929	15.999
531	Ob	1	Sil	Ob	531	-0.550000011920929	15.999
532	Ob	1	Sil	Ob	532	-0.550000011920929	15.999
533	Ob	1	Sil	Ob	533	-0.550000011920929	15.999
534	Ob	1	Sil	Ob	534	-0.550000011920929	15.999
535	Ob	1	Sil	Ob	535	-0.550000011920929	15.999
536	Ob	1	Sil	Ob	536	-0.550000011920929	15.999
537	Ob	1	Sil	Ob	537	-0.550000011920929	15.999
538	Ob	1	Sil	Ob	538	-0.550000011920929	15.999
539	Ob	1	Sil	Ob	539	-0.550000011920929	15.999
540	Ob	1	Sil	Ob	540	-0.550000011920929	15.999
541	Ob	1	Sil	Ob	541	-0.550000011920929	15.999
542	Ob	1	Sil	Ob	542	-0.550000011920929	15.999
543	Ob	1	Sil	Ob	543	-0.550000011920929	15.999
544	Ob	1	Sil	Ob	544	-0.550000011920929	15.999
545	Ob	1	Sil	Ob	545	-0.550000011920929	15.999
546	Ob	1	Sil	Ob	546	-0.550000011920929	15.999
547	Ob	1	Sil	Ob	547	-0.550000011920929	15.999
548	Ob	1	Sil	Ob	548	-0.550000011920929	15.999
549	Ob	1	Sil	Ob	549	-0.550000011920929	15.999
550	Ob	1	Sil	Ob	550	-0.550000011920929	15.999
551	Ob	1	Sil	Ob	551	-0.550000011920929	15.999
552	Ob	1	Sil	Ob	552	-0.550000011920929	15.999
553	Ob	1	Sil	Ob	553	-0.550000011920929	15.999
554	Ob	1	Sil	Ob	554	-0.550000011920929	15.999
555	Ob	1	Sil	Ob	555	-0.550000011920929	15.999
556	Ob	1	Sil	Ob	556	-0.550000011920929	15.999
557	Ob	1	Sil	Ob	557	-0.550000011920929	15.999
558	Ob	1	Sil	Ob	558	-0.550000011920929	15.999
559	Ob	1	Sil	Ob	559	-0.550000011920929	15.999
560	Ob	1	Sil	Ob	560	-0.550000011920929	15.999
561	Ob	1	Sil	Ob	561	-0.550000011920929	15.999
562	Ob	1	Sil	Ob	562	-0.550000011920929	15.999
563	Ob	1	Sil	Ob	563	-0.550000011920929	15.999
564	Ob	1	Sil	Ob	564	-0.550000011920929	15.999
565	Ob	1	Sil	Ob	565	-0.550000011920929	15.999
566	Ob	1	Sil	Ob	566	-0.550000011920929	15.999
567	Ob	1	Sil	Ob	567	-0.550000011920929	15.999
568	Ob	1	Sil	Ob	568	-0.550000011920929	15.999
569	Ob	1	Sil	Ob	569	-0.550000011920929	15.999
570	Ob	1	Sil	Ob	570	-0.550000011920929	15.999
571	Ob	1	Sil	Ob	571	-0.550000011920929	15.999
572	Ob	1	Sil	Ob	572	-0.550000011920929	15.999
573	Ob	1	Sil	Ob	573	-0.550000011920929	15.999
574	Ob	1	Sil	Ob	574	-0.550000011920929	15.999
575	Ob	1	Sil	Ob	575	-0.550000011920929	15.999
576	Ob	1	Sil	Ob	576	-0.550000011920929	15.999
577	Ob	1	Sil	Ob	577	-0.550000011920929	15.999
578	Ob	1	Sil	Ob	578	-0.550000011920929	15.999
579	Ob	1	Sil	Ob	579	-0.550000011920929	15.999
580	Ob	1	Sil	Ob	580	-0.550000011920929	15.999
581	Ob	1	Sil	Ob	581	-0.550000011920929	15.999
582	Ob	1	Sil	Ob	582	-0.550000011920929	15.999
583	Ob	1	Sil	Ob	583	-0.550000011920929	15.999
584	Ob	1	Sil	Ob	584	-0.550000011920929	15.999
585	Ob	1	Sil	Ob	585	-0.550000011920929	15.999
586	Ob	1	Sil	Ob	586	-0.550000011920929	15.999
587	Ob	1	Sil	Ob	587	-0.550000011920929	15.999
588	Ob	1	Sil	Ob	588	-0.550000011920929	15.999
589	Ob	1	Sil	Ob	589	-0.550000011920929	15.999
590	Ob	1	Sil	Ob	590	-0.550000011920929	15.999
591	Ob	1	Sil	Ob	591	-0.550000011920929	15.999
592	Ob	1	Sil	Ob	592	-0.550000011920929	15.999
593	Ob	1	Sil	Ob	593	-0.550000011920929	15.999
594	Ob	1	Sil	Ob	594	-0.550000011920929	15.999
595	Ob	1	Sil	Ob	595	-0.550000011920929	15.999
596	Ob	1	Sil	Ob	596	-0.550000011920929	15.999
597	Ob	1	Sil	Ob	597	-0.550000011920929	15.999
598	Ob	1	Sil	Ob	598	-0.550000011920929	15.999
599	Ob	1	Sil	Ob	599	-0.550000011920929	15.999
600	Ob	1	Sil	Ob	600	-0.550000011920929	15.999
601	Ob	1	Sil	Ob	601	-0.550000011920929	15.999
602	Ob	1	Sil	Ob	602	-0.550000011920929	15.999
603	Ob	1	Sil	Ob	603	-0.550000011920929	15.999
604	Ob	1	Sil	Ob	604	-0.550000011920929	15.999
605	Ob	1	Sil	Ob	605	-0.550000011920929	15.999
606	Ob	1	Sil	Ob	606	-0.550000011920929	15.999
607	Ob	1	Sil	Ob	607	-0.550000011920929	15.999
608	Ob	1	Sil	Ob	608	-0.550000011920929	15.999
609	Ob	1	Sil	Ob	609	-0.550000011920929	15.999
610	Ob	1	Sil	Ob	610	-0.550000011920929	15.999
611	Ob	1	Sil	Ob	611	-0.550000011920929	15.999
612	Ob	1	Sil	Ob	612	-0.550000011920929	15.999
613	Ob	1	Sil	Ob	613	-0.550000011920929	15.999
614	Ob	1	Sil	Ob	614	-0.550000011920929	15.999
615	Ob	1	Sil	Ob	615	-0.550000011920929	15.999
616	Ob	1	Sil	Ob	616	-0.550000011920929	15.999
617	Ob	1	Sil	Ob	617	-0.550000011920929	15.999
618	Ob	1	Sil	Ob	618	-0.550000011920929	15.999
619	Ob	1	Sil	Ob	619	-0.550000011920929	15.999
620	Ob	1	Sil	Ob	620	-0.550000011920929	15.999
621	Ob	1	Sil	Ob	621	-0.550000011920929	15.999
622	Ob	1	Sil	Ob	622	-0.550000011920929	15.999
623	Ob	1	Sil	Ob	623	-0.550000011920929	15.999
624	Ob	1	Sil	Ob	624	-0.550000011920929	15.999
625	Ob	1	Sil	Ob	625	-0.550000011920929	15.999
626	Ob	1	Sil	Ob	626	-0.550000011920929	15.999
627	Ob	1	Sil	Ob	627	-0.550000011920929	15.999
628	Ob	1	Sil	Ob	628	-0.550000011920929	15.999
629	Ob	1	Sil	Ob	629	-0.550000011920929	15.999
630	Ob	1	Sil	Ob	630	-0.550000011920929	15.999
631	Ob	1	Sil	Ob	631	-0.550000011920929	15.999
632	Ob	1	Sil	Ob	632	-0.550000011920929	15.999
633	Ob	1	Sil	Ob	633	-0.550000011920929	15.999
634	Ob	1	Sil	Ob	634	-0.550000011920929	15.999
635	Ob	1	Sil	Ob	635	-0.550000011920929	15.999
636	Ob	1	Sil	Ob	636	-0.550000011920929	15.999
637	Ob	1	Sil	Ob	637	-0.550000011920929	15.999
638	Ob	1	Sil	Ob	638	-0.550000011920929	15.999
639	Ob	1	Sil	Ob	639	-0.550000011920929	15.999
640	Ob	1	Sil	Ob	640	-0.550000011920929	15.999
641	Ob	1	Sil	Ob	641	-0.550000011920929	15.999
642	Ob	1	Sil	Ob	642	-0.550000011920929	15.999
643	Ob	1	Sil	Ob	643	-0.550000011920929	15.999
644	Ob	1	Sil	Ob	644	-0.550000011920929	15.999
645	Ob	1	Sil	Ob	645	-0.550000011920929	15.999
646	Ob	1	Sil	Ob	646	-0.550000011920929	15.999
647	Ob	1	Sil	Ob	647	-0.550000011920929	15.999
648	Ob	1	Sil	Ob	648	-0.550000011920929	15.999
649	Ob	1	Sil	Ob	649	-0.550000011920929	15.999
650	Ob	1	Sil	Ob	650	-0.550000011920929	15.999
651	Ob	1	Sil	Ob	651	-0.550000011920929	15.999
652	Ob	1	Sil	Ob	652	-0.550000011920929	15.999
653	Ob	1	Sil	Ob	653	-0.550000011920929	15.999
654	Ob	1	Sil	Ob	654	-0.550000011920929	15.999
655	Ob	1	Sil	Ob	655	-0.550000011920929	15.999
656	Ob	1	Sil	Ob	656	-0.550000011920929	15.999
657	Ob	1	Sil	Ob	657	-0.550000011920929	15.999
658	Ob	1	Sil	Ob	658	-0.550000011920929	15.999
659	Ob	1	Sil	Ob	659	-0.550000011920929	15.999
660	Ob	1	Sil	Ob	660	-0.550000011920929	15.999
661	Ob	1	Sil	Ob	661	-0.550000011920929	15.999
662	Ob	1	Sil	Ob	662	-0.550000011920929	15.999
663	Ob	1	Sil	Ob	663	-0.550000011920929	15.999
664	Ob	1	Sil	Ob	664	-0.550000011920929	15.999
665	Ob	1	Sil	Ob	665	-0.550000011920929	15.999
666	Ob	1	Sil	Ob	666	-0.550000011920929	15.999
667	Ob	1	Sil	Ob	667	-0.550000011920929	15.999
668	Ob	1	Sil	Ob	668	-0.550000011920929	15.999
669	Ob	1	Sil	Ob	669	-0.550000011920929	15.999
670	Ob	1	Sil	Ob	670	-0.550000011920929	15.999
671	Ob	1	Sil	Ob	671	-0.550000011920929	15.999
672	Ob	1	Sil	Ob	672	-0.550000011920929	15.999
673	Ob	1	Sil	Ob	673	-0.550000011920929	15.999
674	Ob	1	Sil	Ob	674	-0.550000011920929	15.999
675	Ob	1	Sil	Ob	675	-0.550000011920929	15.999
676	Ob	1	Sil	Ob	676	-0.550000011920929	15.999
677	Ob	1	Sil	Ob	677	-0.550000011920929	15.999
678	Ob	1	Sil	Ob	678	-0.550000011920929	15.999
679	Ob	1	Sil	Ob	679	-0.550000011920929	15.999
680	Ob	1	Sil	Ob	680	-0.550000011920929	15.999
681	Ob	1	Sil	Ob	681	-0.550000011920929	15.999
682	Ob	1	Sil	Ob	682	-0.550000011920929	15.999
683	Ob	1	Sil	Ob	683	-0.550000011920929	15.999
684	Ob	1	Sil	Ob	684	-0.550000011920929	15.999
685	Ob	1	Sil	Ob	685	-0.550000011920929	15.999
686	Ob	1	Sil	Ob	686	-0.550000011920929	15.999
687	Ob	1	Sil	Ob	687	-0.550000011920929	15.999
688	Ob	1	Sil	Ob	688	-0.550000011920929	15.999
689	Ob	1	Sil	Ob	689	-0.550000011920929	15.999
690	Ob	1	Sil	Ob	690	-0.550000011920929	15.999
691	Ob	1	Sil	Ob	691	-0.550000011920929	15.999
692	Ob	1	Sil	Ob	692	-0.550000011920929	15.999
693	Ob	1	Sil	Ob	693	-0.550000011920929	15.999
694	Ob	1	Sil	Ob	694	-0.550000011920929	15.999
695	Ob	1	Sil	Ob	695	-0.550000011920929	15.999
696	Ob	1	Sil	Ob	696	-0.550000011920929	15.999
697	Ob	1	Sil	Ob	697	-0.550000011920929	15.999
698	Ob	1	Sil	Ob	698	-0.550000011920929	15.999
699	Ob	1	Sil	Ob	699	-0.550000011920929	15.999
700	Ob	1	Sil	Ob	700	-0.550000011920929	15.999
701	Ob	1	Sil	Ob	701	-0.550000011920929	15.999
702	Ob	1	Sil	Ob	702	-0.550000011920929	15.999
703	Ob	1	Sil	Ob	703	-0.550000011920929	15.999
704	Ob	1	Sil	Ob	704	-0.550000011920929	15.999
705	Ob	1	Sil	Ob	705	-0.550000011920929	15.999
706	Ob	1	Sil	Ob	706	-0.550000011920929	15.999
707	Ob	1	Sil	Ob	707	-0.550000011920929	15.999
708	Ob	1	Sil	Ob	708	-0.550000011920929	15.999
709	Ob	1	Sil	Ob	709	-0.550000011920929	15.999
710	Ob	1	Sil	Ob	710	-0.550000011920929	15.999
711	Ob	1	Sil	Ob	711	-0.550000011920929	15.999
712	Ob	1	Sil	Ob	712	-0.550000011920929	15.999
713	Ob	1	Sil	Ob	713	-0.550000011920929	15.999
714	Ob	1	Sil	Ob	714	-0.550000011920929	15.999
715	Ob	1	Sil	Ob	715	-0.550000011920929	15.999
716	Ob	1	Sil	Ob	716	-0.550000011920929	15.999
717	Ob	1	Sil	Ob	717	-0.550000011920929	15.999
718	Ob	1	Sil	Ob	718	-0.550000011920929	15.999
719	Ob	1	Sil	Ob	719	-0.550000011920929	15.999
720	Ob	1	Sil	Ob	720	-0.550000011920929	15.999
721	Ob	1	Sil	Ob	721	-0.550000011920929	15.999
722	Ob	1	Sil	Ob	722	-0.550000011920929	15.999
723	Ob	1	Sil	Ob	723	-0.550000011920929	15.999
724	Ob	1	Sil	Ob	724	-0.550000011920929	15.999
725	Ob	1	Sil	Ob	725	-0.550000011920929	15.999
726	Ob	1	Sil	Ob	726	-0.550000011920929	15.999
727	Ob	1	Sil	Ob	727	-0.550000011920929	15.999
728	Ob	1	Sil	Ob	728	-0.550000011920929	15.999
729	Ob	1	Sil	Ob	729	-0.550000011920929	15.999
730	Ob	1	Sil	Ob	730	-0.550000011920929	15.999
731	Ob	1	Sil	Ob	731	-0.550000011920929	15.999
732	Ob	1	Sil	Ob	732	-0.550000011920929	15.999
733	Ob	1	Sil	Ob	733	-0.550000011920929	15.999
734	Ob	1	Sil	Ob	734	-0.550000011920929	15.999
735	Ob	1	Sil	Ob	735	-0.550000011920929	15.999
736	Ob	1	Sil	Ob	736	-0.550000011920929	15.999
737	Ob	1	Sil	Ob	737	-0.550000011920929	15.999
738	Ob	1	Sil	Ob	738	-0.550000011920929	15.999
739	Ob	1	Sil	Ob	739	-0.550000011920929	15.999
740	Ob	1	Sil	Ob	740	-0.550000011920929	15.999
741	Ob	1	Sil	Ob	741	-0.550000011920929	15.999
742	Ob	1	Sil	Ob	742	-0.550000011920929	15.999
743	Ob	1	Sil	Ob	743	-0.550000011920929	15.999
744	Ob	1	Sil	Ob	744	-0.550000011920929	15.999
745	Ob	1	Sil	Ob	745	-0.550000011920929	15.999
746	Ob	1	Sil	Ob	746	-0.550000011920929	15.999
747	Ob	1	Sil	Ob	747	-0.550000011920929	15.999
748	Ob	1	Sil	Ob	748	-0.550000011920929	15.999
749	Ob	1	Sil	Ob	749	-0.550000011920929	15.999
750	Ob	1	Sil	Ob	750	-0.550000011920929	15.999
751	Ob	1	Sil	Ob	751	-0.550000011920929	15.999
752	Ob	1	Sil	Ob	752	-0.550000011920929	15.999
753	Ob	1	Sil	Ob	753	-0.550000011920929	15.999
754	Ob	1	Sil	Ob	754	-0.550000011920929	15.999
755	Ob	1	Sil	Ob	755	-0.550000011920929	15.999
756	Ob	1	Sil	Ob	756	-0.550000011920929	15.999
757	Ob	1	Sil	Ob	757	-0.550000011920929	15.999
758	Ob	1	Sil	Ob	758	-0.550000011920929	15.999
759	Ob	1	Sil	Ob	759	-0.550000011920929	15.999
760	Ob	1	Sil	Ob	760	-0.550000011920929	15.999
761	Ob	1	Sil	Ob	761	-0.550000011920929	15.999
762	Ob	1	Sil	Ob	762	-0.550000011920929	15.999
763	Ob	1	Sil	Ob	763	-0.550000011920929	15.999
764	Ob	1	Sil	Ob	764	-0.550000011920929	15.999
765	Ob	1	Sil	Ob	765	-0.550000011920929	15.999
766	Ob	1	Sil	Ob	766	-0.550000011920929	15.999
767	Ob	1	Sil	Ob	767	-0.550000011920929	15.999
768	Ob	1	Sil	Ob	768	-0.550000011920929	15.999
769	Ob	1	Sil	Ob	769	-0.550000011920929	15.999
770	Ob	1	Sil	Ob	770	-0.550000011920929	15.999
771	Ob	1	Sil	Ob	771	-0.550000011920929	15.999
772	Ob	1	Sil	Ob	772	-0.550000011920929	15.999
773	Ob	1	Sil	Ob	773	-0.550000011920929	15.999
774	Ob	1	Sil	Ob	774	-0.550000011920929	15.999
775	Ob	1	Sil	Ob	775	-0.550000011920929	15.999
776	Ob	1	Sil	Ob	776	-0.550000011920929	15.999
777	Ob	1	Sil	Ob	777	-0.550000011920929	15.999
778	Ob	1	Sil	Ob	778	-0.550000011920929	15.999
779	Ob	1	Sil	Ob	779	-0.550000011920929	15.999
780	Ob	1	Sil	Ob	780	-0.550000011920929	15.999
781	Ob	1	Sil	Ob	781	-0.550000011920929	15.999
782	Ob	1	Sil	Ob	782	-0.550000011920929	15.999
783	Ob	1	Sil	Ob	783	-0.550000011920929	15.999
784	Ob	1	Sil	Ob	784	-0.550000011920929	15.999
785	Ob	1	Sil	Ob	785	-0.550000011920929	15.999
786	Ob	1	Sil	Ob	786	-0.550000011920929	15.999
787	Ob	1	Sil	Ob	787	-0.550000011920929	15.999
788	Ob	1	Sil	Ob	788	-0.550000011920929	15.999
789	Ob	1	Sil	Ob	789	-0.550000011920929	15.999
790	Ob	1	Sil	Ob	790	-0.550000011920929	15.999
791	Ob	1	Sil	Ob	791	-0.550000011920929	15.999
792	Ob	1	Sil	Ob	792	-0.550000011920929	15.999
793	Ob	1	Sil	Ob	793	-0.550000011920929	15.999
794	Ob	1	Sil	Ob	794	-0.550000011920929	15.999
795	Ob	1	Sil	Ob	795	-0.550000011920929	15.999
796	Ob	1	Sil	Ob	796	-0.550000011920929	15.999
797	Ob	1	Sil	Ob	797	-0.550000011920929	15.999
798	Ob	1	Sil	Ob	798	-0.550000011920929	15.999
799	Ob	1	Sil	Ob	799	-0.550000011920929	15.999
800	Ob	1	Sil	Ob	800	-0.550000011920929	15.999
801	Ob	1	Sil	Ob	801	-0.550000011920929	15.999
802	Ob	1	Sil	Ob	802	-0.550000011920929	15.999
803	Ob	1	Sil	Ob	803	-0.550000011920929	15.999
804	Ob	1	Sil	Ob	804	-0.550000011920929	15.999
805	Ob	1	Sil	Ob	805	-0.550000011920929	15.999
806	Ob	1	Sil	Ob	806	-0.550000011920929	15.999
807	Ob	1	Sil	Ob	807	-0.550000011920929	15.999
808	Ob	1	Sil	Ob	808	-0.550000011920929	15.999
809	Ob	1	Sil	Ob	809	-0.550000011920929	15.999
810	Ob	1	Sil	Ob	810	-0.550000011920929	15.999
811	Ob	1	Sil	Ob	811	-0.550000011920929	15.999
812	Ob	1	Sil	Ob	812	-0.550000011920929	15.999
813	Ob	1	Sil	Ob	813	-0.550000011920929	15.999
814	Ob	1	Sil	Ob	814	-0.550000011920929	15.999
815	Ob	1	Sil	Ob	815	-0.550000011920929	15.999
816	Ob	1	Sil	Ob	816	-0.550000011920929	15.999
817	Ob	1	Sil	Ob	817	-0.550000011920929	15.999
818	Ob	1	Sil	Ob	818	-0.550000011920929	15.999
819	Ob	1	Sil	Ob	819	-0.550000011920929	15.999
820	Ob	1	Sil	Ob	820	-0.550000011920929	15.999
821	Ob	1	Sil	Ob	821	-0.550000011920929	15.999
822	Ob	1	Sil	Ob	822	-0.550000011920929	15.999
823	Ob	1	Sil	Ob	823	-0.550000011920929	15.999
824	Ob	1	Sil	Ob	824	-0.550000011920929	15.999
825	Ob	1	Sil	Ob	825	-0.550000011920929	15.999
826	Ob	1	Sil	Ob	826	-0.550000011920929	15.999
827	Ob	1	Sil	Ob	827	-0.550000011920929	15.999
828	Ob	1	Sil	Ob	828	-0.550000011920929	15.999
829	Ob	1	Sil	Ob	829	-0.550000011920929	15.999
830	Ob	1	Sil	Ob	830	-0.550000011920929	15.999
831	Ob	1	Sil	Ob	831	-0.550000011920929	15.999
832	Ob	1	Sil	Ob	832	-0.550000011920929	15.999
833	Ob	1	Sil	Ob	833	-0.550000011920929	15.999
834	Ob	1	Sil	Ob	834	-0.550000011920929	15.999
835	Ob	1	Sil	Ob	835	-0.550000011920929	15.999
836	Ob	1	Sil	Ob	836	-0.550000011920929	15.999
837	Ob	1	Sil	Ob	837	-0.550000011920929	15.999
838	Ob	1	Sil	Ob	838	-0.550000011920929	15.999
839	Ob	1	Sil	Ob	839	-0.550000011920929	15.999
840	Ob	1	Sil	Ob	840	-0.550000011920929	15.999
841	Ob	1	Sil	Ob	841	-0.550000011920929	15.999
842	Ob	1	Sil	Ob	842	-0.550000011920929	15.999
843	Ob	1	Sil	Ob	843	-0.550000011920929	15.999
844	Ob	1	Sil	Ob	844	-0.550000011920929	15.999
845	Ob	1	Sil	Ob	845	-0.550000011920929	15.999
846	Ob	1	Sil	Ob	846	-0.550000011920929	15.999
847	Ob	1	Sil	Ob	847	-0.550000011920929	15.999
848	Ob	1	Sil	Ob	848	-0.550000011920929	15.999
849	Ob	1	Sil	Ob	849	-0.550000011920929	15.999
850	Ob	1	Sil	Ob	850	-0.550000011920929	15.999
851	Ob	1	Sil	Ob	851	-0.550000011920929	15.999
852	Ob	1	Sil	Ob	852	-0.550000011920929	15.999
853	Ob	1	Sil	Ob	853	-0.550000011920929	15.999
854	Ob	1	Sil	Ob	854	-0.550000011920929	15.999
855	Ob	1	Sil	Ob	855	-0.550000011920929	15.999
856	Ob	1	Sil	Ob	856	-0.550000011920929	15.999
857	Ob	1	Sil	Ob	857	-0.550000011920929	15.999
858	Ob	1	Sil	Ob	858	-0.550000011920929	15.999
859	Ob	1	Sil	Ob	859	-0.550000011920929	15.999
860	Ob	1	Sil	Ob	860	-0.550000011920929	15.999
861	Ob	1	Sil	Ob	861	-0.550000011920929	15.999
862	Ob	1	Sil	Ob	862	-0.550000011920929	15.999
863	Ob	1	Sil	Ob	863	-0.550000011920929	15.999
864	Ob	1	Sil	Ob	864	-0.550000011920929	15.999
865	Ob	1	Sil	Ob	865	-0.550000011920929	15.999
866	Ob	1	Sil	Ob	866	-0.550000011920929	15.999
867	Ob	1	Sil	Ob	867	-0.550000011920929	15.999
868	Ob	1	Sil	Ob	868	-0.550000011920929	15.999
869	Ob	1	Sil	Ob	869	-0.550000011920929	15.999
870	Ob	1	Sil	Ob	870	-0.550000011920929	15.999
871	Ob	1	Sil	Ob	871	-0.550000011920929	15.999
872	Ob	1	Sil	Ob	872	-0.550000011920929	15.999
873	Ob	1	Sil	Ob	873	-0.550000011920929	15.999
874	Ob	1	Sil	Ob	874	-0.550000011920929	15.999
875	Ob	1	Sil	Ob	875	-0.550000011920929	15.999
876	Ob	1	Sil	Ob	876	-0.550000011920929	15.999
877	Ob	1	Sil	Ob	877	-0.550000011920929	15.999
878	Ob	1	Sil	Ob	878	-0.550000011920929	15.999
879	Ob	1	Sil	Ob	879	-0.550000011920929	15.999
880	Ob	1	Sil	Ob	880	-0.550000011920929	15.999
881	Ob	1	Sil	Ob	881	-0.550000011920929	15.999
882	Ob	1	Sil	Ob	882	-0.550000011920929	15.999
883	Ob	1	Sil	Ob	883	-0.550000011920929	15.999
884	Ob	1	Sil	Ob	884	-0.550000011920929	15.999
885	Ob	1	Sil	Ob	885	-0.550000011920929	15.999
886	Ob	1	Sil	Ob	886	-0.550000011920929	15.999
887	Ob	1	Sil	Ob	887	-0.550000011920929	15.999
888	Ob	1	Sil	Ob	888	-0.550000011920929	15.999
889	Ob	1	Sil	Ob	889	-0.550000011920929	15.999
890	Ob	1	Sil	Ob	890	-0.550000011920929	15.999
891	Ob	1	Sil	Ob	891	-0.550000011920929	15.999
892	Ob	1	Sil	Ob	892	-0.550000011920929	15.999
893	Ob	1	Sil	Ob	893	-0.550000011920929	15.999
894	Ob	1	Sil	Ob	894	-0.550000011920929	15.999
895	Ob	1	Sil	Ob	895	-0.550000011920929	15.999
896	Ob	1	Sil	Ob	896	-0.550000011920929	15.999
897	Ob	1	Sil	Ob	897	-0.550000011920929	15.999
898	Ob	1	Sil	Ob	898	-0.550000011920929	15.999
899	Ob	1	Sil	Ob	899	-0.550000011920929	15.999
900	Ob	1	Sil	Ob	900	-0.550000011920929	15.999
901	Ob	1	Sil	Ob	901	-0.550000011920929	15.999
902	Ob	1	Sil	Ob	902	-0.550000011920929	15.999
903	Ob	1	Sil	Ob	903	-0.550000011920929	15.999
904	Ob	1	Sil	Ob	904	-0.550000011920929	15.999
905	Ob	1	Sil	Ob	905	-0.550000011920929	15.999
906	Ob	1	Sil	Ob	906	-0.550000011920929	15.999
907	Ob	1	Sil	Ob	907	-0.550000011920929	15.999
908	Ob	1	Sil	Ob	908	-0.550000011920929	15.999
909	Ob	1	Sil	Ob	909	-0.550000011920929	15.999
910	Ob	1	Sil	Ob	910	-0.550000011920929	15.999
911	Ob	1	Sil	Ob	911	-0.550000011920929	15.999
912	Ob	1	Sil	Ob	912	-0.550000011920929	15.999
913	Ob	1	Sil	Ob	913	-0.550000011920929	15.999
914	Ob	1	Sil	Ob	914	-0.550000011920929	15.999
915	Ob	1	Sil	Ob	915	-0.550000011920929	15.999
916	Ob	1	Sil	Ob	916	-0.550000011920929	15.999
917	Ob	1	Sil	Ob	917	-0.550000011920929	15.999
918	Ob	1	Sil	Ob	918	-0.550000011920929	15.999
919	Ob	1	Sil	Ob	919	-0.550000011920929	15.999
920	Ob	1	Sil	Ob	920	-0.550000011920929	15.999
921	Ob	1	Sil	Ob	921	-0.550000011920929	15.999
922	Ob	1	Sil	Ob	922	-0.550000011920929	15.999
923	Ob	1	Sil	Ob	923	-0.550000011920929	15.999
924	Ob	1	Sil	Ob	924	-0.550000011920929	15.999
925	Ob	1	Sil	Ob	925	-0.550000011920929	15.999
926	Ob	1	Sil	Ob	926	-0.550000011920929	15.999
927	Ob	1	Sil	Ob	927	-0.550000011920929	15.999
928	Ob	1	Sil	Ob	928	-0.550000011920929	15.999
929	Ob	1	Sil	Ob	929	-0.550000011920929	15.999
930	Ob	1	Sil	Ob	930	-0.550000011920929	15.999
931	Ob	1	Sil	Ob	931	-0.550000011920929	15.999
932	Ob	1	Sil	Ob	932	-0.550000011920929	15.999
933	Ob	1	Sil	Ob	933	-0.550000011920929	15.999
934	Ob	1	Sil	Ob	934	-0.550000011920929	15.999
935	Ob	1	Sil	Ob	935	-0.550000011920929	15.999
936	Ob	1	Sil	Ob	936	-0.550000011920929	15.999
937	Ob	1	Sil	Ob	937	-0.550000011920929	15.999
938	Ob	1	Sil	Ob	938	-0.550000011920929	15.999
939	Ob	1	Sil	Ob	939	-0.550000011920929	15.999
940	Ob	1	Sil	Ob	940	-0.550000011920929	15.999
941	Ob	1	Sil	Ob	941	-0.550000011920929	15.999
942	Ob	1	Sil	Ob	942	-0.550000011920929	15.999
943	Ob	1	Sil	Ob	943	-0.550000011920929	15.999
944	Ob	1	Sil	Ob	944	-0.550000011920929	15.999
945	Ob	1	Sil	Ob	945	-0.550000011920929	15.999
946	Ob	1	Sil	Ob	946	-0.550000011920929	15.999
947	Ob	1	Sil	Ob	947	-0.550000011920929	15.999
948	Ob	1	Sil	Ob	948	-0.550000011920929	15.999
949	Ob	1	Sil	Ob	949	-0.550000011920929	15.999
950	Ob	1	Sil	Ob	950	-0.550000011920929	15.999
951	Ob	1	Sil	Ob	951	-0.550000011920929	15.999
952	Ob	1	Sil	Ob	952	-0.550000011920929	15.999
953	Ob	1	Sil	Ob	953	-0.550000011920929	15.999
954	Ob	1	Sil	Ob	954	-0.550000011920929	15.999
955	Ob	1	Sil	Ob	955	-0.550000011920929	15.999
956	Ob	1	Sil	Ob	956	-0.550000011920929	15.999
957	Ob	1	Sil	Ob	957	-0.550000011920929	15.999
958	Ob	1	Sil	Ob	958	-0.550000011920929	15.999
959	Ob	1	Sil	Ob	959	-0.550000011920929	15.999
960	Ob	1	Sil	Ob	960	-0.550000011920929	15.999
961	Ob	1	Sil	Ob	961	-0.550000011920929	15.999
962	Ob	1	Sil	Ob	962	-0.550000011920929	15.999
963	Ob	1	Sil	Ob	963	-0.550000011920929	15.999
964	Ob	1	Sil	Ob	964	-0.550000011920929	15.999
965	Ob	1	Sil	Ob	965	-0.550000011920929	15.999
966	Ob	1	Sil	Ob	966	-0.550000011920929	15.999
967	Ob	1	Sil	Ob	967	-0.550000011920929	15.999
968	Ob	1	Sil	Ob	968	-0.550000011920929	15.999
969	Ob	1	Sil	Ob	969	-0.550000011920929	15.999
970	Ob	1	Sil	Ob	970	-0.550000011920929	15.999
971	Ob	1	Sil	Ob	971	-0.550000011920929	15.999
972	Ob	1	Sil	Ob	972	-0.550000011920929	15.999
973	Ob	1	Sil	Ob	973	-0.550000011920929	15.999
974	Ob	1	Sil	Ob	974	-0.550000011920929	15.999
975	Ob	1	Sil	Ob	975	-0.550000011920929	15.999
976	Ob	1	Sil	Ob	976	-0.550000011920929	15.999
977	Ob	1	Sil	Ob	977	-0.550000011920929	15.999
978	Ob	1	Sil	Ob	978	-0.550000011920929	15.999
979	Ob	1	Sil	Ob	979	-0.550000011920929	15.999
980	Ob	1	Sil	Ob	980	-0.550000011920929	15.999
981	Ob	1	Sil	Ob	981	-0.550000011920929	15.999
982	Ob	1	Sil	Ob	982	-0.550000011920929	15.999
983	Ob	1	Sil	Ob	983	-0.550000011920929	15.999
984	Ob	1	Sil	Ob	984	-0.550000011920929	15.999
985	Ob	1	Sil	Ob	985	-0.550000011920929	15.999
986	Ob	1	Sil	Ob	986	-0.550000011920929	15.999
987	Ob	1	Sil	Ob	987	-0.550000011920929	15.999
988	Ob	1	Sil	Ob	988	-0.550000011920929	15.999
989	Ob	1	Sil	Ob	989	-0.550000011920929	15.999
990	Ob	1	Sil	Ob	990	-0.550000011920929	15.999
991	Ob	1	Sil	Ob	991	-0.550000011920929	15.999
992	Ob	1	Sil	Ob	992	-0.550000011920929	15.999
993	Ob	1	Sil	Ob	993	-0.550000011920929	15.999
994	Ob	1	Sil	Ob	994	-0.550000011920929	15.999
995	Ob	1	Sil	Ob	995	-0.550000011920929	15.999
996	Ob	1	Sil	Ob	996	-0.550000011920929	15.999
997	Ob	1	Sil	Ob	997	-0.550000011920929	15.999
998	Ob	1	Sil	Ob	998	-0.550000011920929	15.999
999	Ob	1	Sil	Ob	999	-0.550000011920929	15.999
1000	Ob	1	Sil	Ob	1000	-0.550000011920929	15.999
1001	Ob	1	Sil	Ob	1001	-0.550000011920929	15.999
1002	Ob	1	Sil	Ob	1002	-0.550000011920929	15.999
1003	Ob	1	Sil	Ob	1003	-0.550000011920929	15.999
1004	Ob	1	Sil	Ob	1004	-0.550000011920929	15.999
1005	Ob	1	Sil	Ob	1005	-0.550000011920929	15.999
1006	Ob	1	Sil	Ob	1006	-0.550000011920929	15.999
1007	Ob	1	Sil	Ob	1007	-0.550000011920929	15.999
1008	Ob	1	Sil	Ob	1008	-0.550000011920929	15.999
1009	Ob	1	Sil	Ob	1009	-0.550000011920929	15.999
1010	Ob	1	Sil	Ob	1010	-0.550000011920929	15.999
1011	Ob	1	Sil	Ob	1011	-0.550000011920929	15.999
1012	Ob	1	Sil	Ob	1012	-0.550000011920929	15.999
1013	Ob	1	Sil	Ob	1013	-0.550000011920929	15.999
1014	Ob	1	Sil	Ob	1014	-0.550000011920929	15.999
1015	Ob	1	Sil	Ob	1015	-0.550000011920929	15.999
1016	Ob	1	Sil	Ob	1016	-0.550000011920929	15.999
1017	Ob	1	Sil	Ob	1017	-0.550000011920929	15.999
1018	Ob	1	Sil	Ob	1018	-0.550000011920929	15.999
1019	Ob	1	Sil	Ob	1019	-0.550000011920929	15.999
1020	Ob	1	Sil	Ob	1020	-0.550000011920929	15.999
1021	Ob	1	Sil	Ob	1021	-0.550000011920929	15.999
1022	Ob	1	Sil	Ob	1022	-0.550000011920929	15.999
1023	Ob	1	Sil	Ob	1023	-0.550000011920929	15.999
1024	Ob	1	Sil	Ob	1024	-0.550000011920929	15.999
1025	Ob	1	Sil	Ob	1025	-0.550000011920929	15.999
1026	Ob	1	Sil	Ob	1026	-0.550000011920929	15.999
1027	Ob	1	Sil	Ob	1027	-0.550000011920929	15.999
1028	Ob	1	Sil	Ob	1028	-0.550000011920929	15.999
1029	Ob	1	Sil	Ob	1029	-0.550000011920929	15.999
1030	Ob	1	Sil	Ob	1030	-0.550000011920929	15.999
1031	Ob	1	Sil	Ob	1031	-0.550000011920929	15.999
1032	Ob	1	Sil	Ob	1032	-0.550000011920929	15.999
1033	Ob	1	Sil	Ob	1033	-0.550000011920929	15.999
1034	Ob	1	Sil	Ob	1034	-0.550000011920929	15.999
1035	Ob	1	Sil	Ob	1035	-0.550000011920929	15.999
1036	Ob	1	Sil	Ob	1036	-0.550000011920929	15.999
1037	Ob	1	Sil	Ob	1037	-0.550000011920929	15.999
1038	Ob	1	Sil	Ob	1038	-0.550000011920929	15.999
1039	Ob	1	Sil	Ob	1039	-0.550000011920929	15.999
1040	Ob	1	Sil	Ob	1040	-0.550000011920929	15.999
1041	Ob	1	Sil	Ob	1041	-0.550000011920929	15.999
1042	Ob	1	Sil	Ob	1042	-0.550000011920929	15.999
1043	Ob	1	Sil	Ob	1043	-0.550000011920929	15.999
1044	Ob	1	Sil	Ob	1044	-0.550000011920929	15.999
1045	Ob	1	Sil	Ob	1045	-0.550000011920929	15.999
1046	Ob	1	Sil	Ob	1046	-0.550000011920929	15.999
1047	Ob	1	Sil	Ob	1047	-0.550000011920929	15.999
1048	Ob	1	Sil	Ob	1048	-0.550000011920929	15.999
1049	Ob	1	Sil	Ob	1049	-0.550000011920929	15.999
1050	Ob	1	Sil	Ob	1050	-0.550000011920929	15.999
1051	Ob	1	Sil	Ob	1051	-0.550000011920929	15.999
1052	Ob	1	Sil	Ob	1052	-0.550000011920929	15.999
1053	Ob	1	Sil	Ob	1053	-0.550000011920929	15.999
1054	Ob	1	Sil	Ob	1054	-0.550000011920929	15.999
1055	Ob	1	Sil	Ob	1055	-0.550000011920929	15.999
1056	Ob	1	Sil	Ob	1056	-0.550000011920929	15.999
1057	Ob	1	Sil	Ob	1057	-0.550000011920929	15.999
1058	Ob	1	Sil	Ob	1058	-0.550000011920929	15.999
1059	Ob	1	Sil	Ob	1059	-0.550000011920929	15.999
1060	Ob	1	Sil	Ob	1060	-0.550000011920929	15.999
1061	Ob	1	Sil	Ob	1061	-0.550000011920929	15.999
1062	Ob	1	Sil	Ob	1062	-0.550000011920929	15.999
1063	Ob	1	Sil	Ob	1063	-0.550000011920929	15.999
1064	Ob	1	Sil	Ob	1064	-0.550000011920929	15.999
1065	Ob	1	Sil	Ob	1065	-0.550000011920929	15.999
1066	Ob	1	Sil	Ob	1066	-0.550000011920929	15.999
1067	Ob	1	Sil	Ob	1067	-0.550000011920929	15.999
1068	Ob	1	Sil	Ob	1068	-0.550000011920929	15.999
1069	Ob	1	Sil	Ob	1069	-0.550000011920929	15.999
1070	Ob	1	Sil	Ob	1070	-0.550000011920929	15.999
1071	Ob	1	Sil	Ob	1071	-0.550000011920929	15.999
1072	Ob	1	Sil	Ob	1072	-0.550000011920929	15.999
1073	Ob	1	Sil	Ob	1073	-0.550000011920929	15.999
1074	Ob	1	Sil	Ob	1074	-0.550000011920929	15.999
1075	Ob	1	Sil	Ob	1075	-0.550000011920929	15.999
1076	Ob	1	Sil	Ob	1076	-0.550000011920929	15.999
1077	Ob	1	Sil	Ob	1077	-0.550000011920929	15.999
1078	Ob	1	Sil	Ob	1078	-0.550000011920929	15.999
1079	Ob	1	Sil	Ob	1079	-0.550000011920929	15.999
1080	Ob	1	Sil	Ob	1080	-0.550000011920929	15.999
1081	Ob	1	Sil	Ob	1081	-0.550000011920929	15.999
1082	Ob	1	Sil	Ob	1082	-0.550000011920929	15.999
1083	Ob	1	Sil	Ob	1083	-0.550000011920929	15.999
1084	Ob	1	Sil	Ob	1084	-0.550000011920929	15.999
1085	Ob	1	Sil	Ob	1085	-0.550000011920929	15.999
1086	Ob	1	Sil	Ob	1086	-0.550000011920929	15.999
1087	Ob	1	Sil	Ob	1087	-0.550000011920929	15.999
1088	Ob	1	Sil	Ob	1088	-0.550000011920929	15.999
1089	Ob	1	Sil	Ob	1089	-0.550000011920929	15.999
1090	Ob	1	Sil	Ob	1090	-0.550000011920929	15.999
1091	Ob	1	Sil	Ob	1091	-0.550000011920929	15.999
1092	Ob	1	Sil	Ob	1092	-0.550000011920929	15.999
1093	Ob	1	Sil	Ob	1093	-0.550000011920929	15.999
1094	Ob	1	Sil	Ob	1094	-0.550000011920929	15.999
1095	Ob	1	Sil	Ob	1095	-0.550000011920929	15.999
1096	Ob	1	Sil	Ob	1096	-0.550000011920929	15.999
1097	Ob	1	Sil	Ob	1097	-0.550000011920929	15.999
1098	Ob	1	Sil	Ob	1098	-0.550000011920929	15.999
1099	Ob	1	Sil	Ob	1099	-0.550000011920929	15.999
1100	Ob	1	Sil	Ob	1100	-0.550000011920929	15.999
1101	Ob	1	Sil	Ob	1101	-0.550000011920929	15.999
1102	Ob	1	Sil	Ob	1102	-0.550000011920929	15.999
1103	Ob	1	Sil	Ob	1103	-0.550000011920929	15.999
1104	Ob	1	Sil	Ob	1104	-0.550000011920929	15.999
1105	Ob	1	Sil	Ob	1105	-0.550000011920929	15.999
1106	Ob	1	Sil	Ob	1106	-0.550000011920929	15.999
1107	Ob	1	Sil	Ob	1107	-0.550000011920929	15.999
1108	Ob	1	Sil	Ob	1108	-0.550000011920929	15.999
1109	Ob	1	Sil	Ob	1109	-0.550000011920929	15.999
1110	Ob	1	Sil	Ob	1110	-0.550000011920929	15.999
1111	Ob	1	Sil	Ob	1111	-0.550000011920929	15.999
1112	Ob	1	Sil	Ob	1112	-0.550000011920929	15.999
1113	Ob	1	Sil	Ob	1113	-0.550000011920929	15.999
1114	Ob	1	Sil	Ob	1114	-0.550000011920929	15.999
1115	Ob	1	Sil	Ob	1115	-0.550000011920929	15.999
1116	Ob	1	Sil	Ob	1116	-0.550000011920929	15.999
1117	Ob	1	Sil	Ob	1117	-0.550000011920929	15.999
1118	Ob	1	Sil	Ob	1118	-0.550000011920929	15.999
1119	Ob	1	Sil	Ob	1119	-0.550000011920929	15.999
1120	Ob	1	Sil	Ob	1120	-0.550000011920929	15.999
1121	Ob	1	Sil	Ob	1121	-0.550000011920929	15.999
1122	Ob	1	Sil	Ob	1122	-0.550000011920929	15.999
1123	Ob	1	Sil	Ob	1123	-0.550000011920929	15.999
1124	Ob	1	Sil	Ob	1124	-0.550000011920929	15.999
1125	Ob	1	Sil	Ob	1125	-0.550000011920929	15.999
1126	Ob	1	Sil	Ob	1126	-0.550000011920929	15.999
1127	Ob	1	Sil	Ob	1127	-0.550000011920929	15.999
1128	Ob	1	Sil	Ob	1128	-0.550000011920929	15.999
1129	Ob	1	Sil	Ob	1129	-0.550000011920929	15.999
1130	Ob	1	Sil	Ob	1130	-0.550000011920929	15.999
1131	Ob	1	Sil	Ob	1131	-0.550000011920929	15.999
1132	Ob	1	Sil	Ob	1132	-0.550000011920929	15.999
1133	Ob	1	Sil	Ob	1133	-0.550000011920929	15.999
1134	Ob	1	Sil	Ob	1134	-0.550000011920929	15.999
1135	Ob	1	Sil	Ob	1135	-0.550000011920929	15.999
1136	Ob	1	Sil	Ob	1136	-0.550000011920929	15.999
1137	Ob	1	Sil	Ob	1137	-0.550000011920929	15.999
1138	Ob	1	Sil	Ob	1138	-0.550000011920929	15.999
1139	Ob	1	Sil	Ob	1139	-0.550000011920929	15.999
1140	Ob	1	Sil	Ob	1140	-0.550000011920929	15.999
1141	Ob	1	Sil	Ob	1141	-0.550000011920929	15.999
1142	Ob	1	Sil	Ob	1142	-0.550000011920929	15.999
1143	Ob	1	Sil	Ob	1143	-0.550000011920929	15.999
1144	Ob	1	Sil	Ob	1144	-0.550000011920929	15.999
1145	Ob	1	Sil	Ob	1145	-0.550000011920929	15.999
1146	Ob	1	Sil	Ob	1146	-0.550000011920929	15.999
1147	Ob	1	Sil	Ob	1147	-0.550000011920929	15.999
1148	Ob	1	Sil	Ob	1148	-0.550000011920929	15.999
1149	Ob	1	Sil	Ob	1149	-0.550000011920929	15.999
1150	Ob	1	Sil	Ob	1150	-0.550000011920929	15.999
1151	Ob	1	Sil	Ob	1151	-0.550000011920929	15.999
1152	Ob	1	Sil	Ob	1152	-0.550000011920929	15.999
1153	Ob	1	Sil	Ob	1153	-0.550000011920929	15.999
1154	Ob	1	Sil	Ob	1154	-0.550000011920929	15.999
1155	Ob	1	Sil	Ob	1155	-0.550000011920929	15.999
1156	Ob	1	Sil	Ob	1156	-0.550000011920929	15.999
1157	Ob	1	Sil	Ob	1157	-0.550000011920929	15.999
1158	Ob	1	Sil	Ob	1158	-0.550000011920929	15.999
1159	Ob	1	Sil	Ob	1159	-0.550000011920929	15.999
1160	Ob	1	Sil	Ob	1160	-0.550000011920929	15.999
1161	Ob	1	Sil	Ob	1161	-0.550000011920929	15.999
1162	Ob	1	Sil	Ob	1162	-0.550000011920929	15.999
1163	Ob	1	Sil	Ob	1163	-0.550000011920929	15.999
1164	Ob	1	Sil	Ob	1164	-0.550000011920929	15.999
1165	Ob	1	Sil	Ob	1165	-0.550000011920929	15.999
1166	Ob	1	Sil	Ob	1166	-0.550000011920929	15.999
1167	Ob	1	Sil	Ob	1167	-0.550000011920929	15.999
1168	Ob	1	Sil	Ob	1168	-0.550000011920929	15.999
1169	Ob	1	Sil	Ob	1169	-0.550000011920929	15.999
1170	Ob	1	Sil	Ob	1170	-0.550000011920929	15.999
1171	Ob	1	Sil	Ob	1171	-0.550000011920929	15.999
1172	Ob	1	Sil	Ob	1172	-0.550000011920929	15.999
1173	Ob	1	Sil	Ob	1173	-0.550000011920929	15.999
1174	Ob	1	Sil	Ob	1174	-0.550000011920929	15.999
1175	Ob	1	Sil	Ob	1175	-0.550000011920929	15.999
1176	Ob	1	Sil	Ob	1176	-0.550000011920929	15.999
1177	Ob	1	Sil	Ob	1177	-0.550000011920929	15.999
1178	Ob	1	Sil	Ob	1178	-0.550000011920929	15.999
1179	Ob	1	Sil	Ob	1179	-0.550000011920929	15.999
1180	Ob	1	Sil	Ob	1180	-0.550000011920929	15.999
1181	Ob	1	Sil	Ob	1181	-0.550000011920929	15.999
1182	Ob	1	Sil	Ob	1182	-0.550000011920929	15.999
1183	Ob	1	Sil	Ob	1183	-0.550000011920929	15.999
1184	Ob	1	Sil	Ob	1184	-0.550000011920929	15.999
1185	Ob	1	Sil	Ob	1185	-0.550000011920929	15.999
1186	Ob	1	Sil	Ob	1186	-0.550000011920929	15.999
1187	Ob	1	Sil	Ob	1187	-0.550000011920929	15.999
1188	Ob	1	Sil	Ob	1188	-0.550000011920929	15.999
1189	Ob	1	Sil	Ob	1189	-0.550000011920929	15.999
1190	Ob	1	Sil	Ob	1190	-0.550000011920929	15.999
1191	Ob	1	Sil	Ob	1191	-0.550000011920929	15.999
1192	Ob	1	Sil	Ob	1192	-0.550000011920929	15.999
1193	Ob	1	Sil	Ob	1193	-0.550000011920929	15.999
1194	Ob	1	Sil	Ob	1194	-0.550000011920929	15.999
1195	Ob	1	Sil	Ob	1195	-0.550000011920929	15.999
1196	Ob	1	Sil	Ob	1196	-0.550000011920929	15.999
1197	Ob	1	Sil	Ob	1197	-0.550000011920929	15.999
1198	Ob	1	Sil	Ob	1198	-0.550000011920929	15.999
1199	Ob	1	Sil	Ob	1199	-0.550000011920929	15.999
1200	Ob	1	Sil	Ob	1200	-0.550000011920929	15.999
1201	Ob	1	Sil	Ob	1201	-0.550000011920929	15.999
1202	Ob	1	Sil	Ob	1202	-0.550000011920929	15.999
1203	Ob	1	Sil	Ob	1203	-0.550000011920929	15.999
1204	Ob	1	Sil	Ob	1204	-0.550000011920929	15.999
1205	Ob	1	Sil	Ob	1205	-0.550000011920929	15.999
1206	Ob	1	Sil	Ob	1206	-0.550000011920929	15.999
1207	Ob	1	Sil	Ob	1207	-0.550000011920929	15.999
1208	Ob	1	Sil	Ob	1208	-0.550000011920929	15.999
1209	Ob	1	Sil	Ob	1209	-0.550000011920929	15.999
1210	Ob	1	Sil	Ob	1210	-0.550000011920929	15.999
1211	Ob	1	Sil	Ob	1211	-0.550000011920929	15.999
1212	Ob	1	Sil	Ob	1212	-0.550000011920929	15.999
1213	Ob	1	Sil	Ob	1213	-0.550000011920929	15.999
1214	Ob	1	Sil	Ob	1214	-0.550000011920929	15.999
1215	Ob	1	Sil	Ob	1215	-0.550000011920929	15.999
1216	Ob	1	Sil	Ob	1216	-0.550000011920929	15.999
1217	Ob	1	Sil	Ob	1217	-0.550000011920929	15.999
1218	Ob	1	Sil	Ob	1218	-0.550000011920929	15.999
1219	Ob	1	Sil	Ob	1219	-0.550000011920929	15.999
1220	Ob	1	Sil	Ob	1220	-0.550000011920929	15.999
1221	Ob	1	Sil	Ob	1221	-0.550000011920929	15.999
1222	Ob	1	Sil	Ob	1222	-0.550000011920929	15.999
1223	Ob	1	Sil	Ob	1223	-0.550000011920929	15.999
1224	Ob	1	Sil	Ob	1224	-0.550000011920929	15.999
1225	Ob	1	Sil	Ob	1225	-0.550000011920929	15.999
1226	Ob	1	Sil	Ob	1226	-0.550000011920929	15.999
1227	Ob	1	Sil	Ob	1227	-0.550000011920929	15.999
1228	Ob	1	Sil	Ob	1228	-0.550000011920929	15.999
1229	Ob	1	Sil	Ob	1229	-0.550000011920929	15.999
1230	Ob	1	Sil	Ob	1230	-0.550000011920929	15.999
1231	Ob	1	Sil	Ob	1231	-0.550000011920929	15.999
1232	Ob	1	Sil	Ob	1232	-0.550000011920929	15.999
1233	Ob	1	Sil	Ob	1233	-0.550000011920929	15.999
1234	Ob	1	Sil	Ob	1234	-0.550000011920929	15.999
1235	Ob	1	Sil	Ob	1235	-0.550000011920929	15.999
1236	Ob	1	Sil	Ob	1236	-0.550000011920929	15.999
1237	Ob	1	Sil	Ob	1237	-0.550000011920929	15.999
1238	Ob	1	Sil	Ob	1238	-0.550000011920929	15.999
1239	Ob	1	Sil	Ob	1239	-0.550000011920929	15.999
1240	Ob	1	Sil	Ob	1240	-0.550000011920929	15.999
1241	Ob	1	Sil	Ob	1241	-0.550000011920929	15.999
1242	Ob	1	Sil	Ob	1242	-0.550000011920929	15.999
1243	Ob	1	Sil	Ob	1243	-0.550000011920929	15.999
1244	Ob	1	Sil	Ob	1244	-0.550000011920929	15.999
1245	Ob	1	Sil	Ob	1245	-0.550000011920929	15.999
1246	Ob	1	Sil	Ob	1246	-0.550000011920929	15.999
1247	Ob	1	Sil	Ob	1247	-0.550000011920929	15.999
1248	Ob	1	Sil	Ob	1248	-0.550000011920929	15.999
1249	Ob	1	Sil	Ob	1249	-0.550000011920929	15.999
1250	Ob	1	Sil	Ob	1250	-0.550000011920929	15.999
1251	Ob	1	Sil	Ob	1251	-0.550000011920929	15.999
1252	Ob	1	Sil	Ob	1252	-0.550000011920929	15.999
1253	Ob	1	Sil	Ob	1253	-0.550000011920929	15.999
1254	Ob	1	Sil	Ob	1254	-0.550000011920929	15.999
1255	Ob	1	Sil	Ob	1255	-0.550000011920929	15.999
1256	Ob	1	Sil	Ob	1256	-0.550000011920929	15.999
1257	Ob	1	Sil	Ob	1257	-0.550000011920929	15.999
1258	Ob	1	Sil	Ob	1258	-0.550000011920929	15.999
1259	Ob	1	Sil	Ob	1259	-0.550000011920929	15.999
1260	Ob	1	Sil	Ob	1260	-0.550000011920929	15.999
1261	Ob	1	Sil	Ob	1261	-0.550000011920929	15.999
1262	Ob	1	Sil	Ob	1262	-0.550000011920929	15.999
1263	Ob	1	Sil	Ob	1263	-0.550000011920929	15.999
1264	Ob	1	Sil	Ob	1264	-0.550000011920929	15.999
1265	Cm	1	Sil	Cm	1265	-0.3499999940395355	12.011
1266	Cm	1	Sil	Cm	1266	-0.3499999940395355	12.011
1267	Cm	1	Sil	Cm	1267	-0.3499999940395355	12.011
1268	Cm	1	Sil	Cm	1268	-0.3499999940395355	12.011
1269	Cm	1	Sil	Cm	1269	-0.3499999940395355	12.011
1270	Cm	1	Sil	Cm	1270	-0.3499999940395355	12.011
1271	Cm	1	Sil	Cm	1271	-0.3499999940395355	12.011
1272	Cm	1	Sil	Cm	1272	-0.3499999940395355	12.011
1273	Cm	1	Sil	Cm	1273	-0.3499999940395355	12.011
1274	Cm	1	Sil	Cm	1274	-0.3499999940395355	12.011
1275	Cm	1	Sil	Cm	1275	-0.3499999940395355	12.011
1276	Cm	1	Sil	Cm	1276	-0.3499999940395355	12.011
1277	Cm	1	Sil	Cm	1277	-0.3499999940395355	12.011
1278	Cm	1	Sil	Cm	1278	-0.3499999940395355	12.011
1279	Cm	1	Sil	Cm	1279	-0.3499999940395355	12.011
1280	Cm	1	Sil	Cm	1280	-0.3499999940395355	12.011
1281	Cm	1	Sil	Cm	1281	-0.3499999940395355	12.011
1282	Cm	1	Sil	Cm	1282	-0.3499999940395355	12.011
1283	Cm	1	Sil	Cm	1283	-0.3499999940395355	12.011
1284	Cm	1	Sil	Cm	1284	-0.3499999940395355	12.011
1285	Cm	1	Sil	Cm	1285	-0.3499999940395355	12.011
1286	Cm	1	Sil	Cm	1286	-0.3499999940395355	12.011
1287	Cm	1	Sil	Cm	1287	-0.3499999940395355	12.011
1288	Cm	1	Sil	Cm	1288	-0.3499999940395355	12.011
1289	Cm	1	Sil	Cm	1289	-0.3499999940395355	12.011
1290	Cm	1	Sil	Cm	1290	-0.3499999940395355	12.011
1291	Cm	1	Sil	Cm	1291	-0.3499999940395355	12.011
1292	Cm	1	Sil	Cm	1292	-0.3499999940395355	12.011
1293	Cm	1	Sil	Cm	1293	-0.3499999940395355	12.011
1294	Cm	1	Sil	Cm	1294	-0.3499999940395355	12.011
1295	Cm	1	Sil	Cm	1295	-0.3499999940395355	12.011
1296	Cm	1	Sil	Cm	1296	-0.3499999940395355	12.011
1297	Cm	1	Sil	Cm	1297	-0.3499999940395355	12.011
1298	Cm	1	Sil	Cm	1298	-0.3499999940395355	12.011
1299	Cm	1	Sil	Cm	1299	-0.3499999940395355	12.011
1300	Cm	1	Sil	Cm	1300	-0.3499999940395355	12.011
1301	Cm	1	Sil	Cm	1301	-0.3499999940395355	12.011
1302	Cm	1	Sil	Cm	1302	-0.3499999940395355	12.011
1303	Cm	1	Sil	Cm	1303	-0.3499999940395355	12.011
1304	Cm	1	Sil	Cm	1304	-0.3499999940395355	12.011
1305	Cm	1	Sil	Cm	1305	-0.3499999940395355	12.011
1306	Cm	1	Sil	Cm	1306	-0.3499999940395355	12.011
1307	Cm	1	Sil	Cm	1307	-0.3499999940395355	12.011
1308	Cm	1	Sil	Cm	1308	-0.3499999940395355	12.011
1309	Cm	1	Sil	Cm	1309	-0.3499999940395355	12.011
1310	Cm	1	Sil	Cm	1310	-0.3499999940395355	12.011
1311	Cm	1	Sil	Cm	1311	-0.3499999940395355	12.011
1312	Cm	1	Sil	Cm	1312	-0.3499999940395355	12.011
1313	Cm	1	Sil	Cm	1313	-0.3499999940395355	12.011
1314	Cm	1	Sil	Cm	1314	-0.3499999940395355	12.011
1315	Cm	1	Sil	Cm	1315	-0.3499999940395355	12.011
1316	Cm	1	Sil	Cm	1316	-0.3499999940395355	12.011
1317	Cm	1	Sil	Cm	1317	-0.3499999940395355	12.011
1318	Cm	1	Sil	Cm	1318	-0.3499999940395355	12.011
1319	Cm	1	Sil	Cm	1319	-0.3499999940395355	12.011
1320	Cm	1	Sil	Cm	1320	-0.3499999940395355	12.011
1321	Cm	1	Sil	Cm	1321	-0.3499999940395355	12.011
1322	Cm	1	Sil	Cm	1322	-0.3499999940395355	12.011
1323	Cm	1	Sil	Cm	1323	-0.3499999940395355	12.011
1324	Cm	1	Sil	Cm	1324	-0.3499999940395355	12.011
1325	Cm	1	Sil	Cm	1325	-0.3499999940395355	12.011
1326	Cm	1	Sil	Cm	1326	-0.3499999940395355	12.011
1327	Cm	1	Sil	Cm	1327	-0.3499999940395355	12.011
1328	Cm	1	Sil	Cm	1328	-0.3499999940395355	12.011
1329	Cm	1	Sil	Cm	1329	-0.3499999940395355	12.011
1330	Cm	1	Sil	Cm	1330	-0.3499999940395355	12.011
1331	Cm	1	Sil	Cm	1331	-0.3499999940395355	12.011
1332	Cm	1	Sil	Cm	1332	-0.3499999940395355	12.011
1333	Cm	1	Sil	Cm	1333	-0.3499999940395355	12.011
1334	Cm	1	Sil	Cm	1334	-0.3499999940395355	12.011
1335	Cm	1	Sil	Cm	1335	-0.3499999940395355	12.011
1336	Cm	1	Sil	Cm	1336	-0.3499999940395355	12.011
1337	Cm	1	Sil	Cm	1337	-0.3499999940395355	12.011
1338	Cm	1	Sil	Cm	1338	-0.3499999940395355	12.011
1339	Cm	1	Sil	Cm	1339	-0.3499999940395355	12.011
1340	Cm	1	Sil	Cm	1340	-0.3499999940395355	12.011
1341	Cm	1	Sil	Cm	1341	-0.3499999940395355	12.011
1342	Cm	1	Sil	Cm	1342	-0.3499999940395355	12.011
1343	Cm	1	Sil	Cm	1343	-0.3499999940395355	12.011
1344	Cm	1	Sil	Cm	1344	-0.3499999940395355	12.011
1345	Cm	1	Sil	Cm	1345	-0.3499999940395355	12.011
1346	Cm	1	Sil	Cm	1346	-0.3499999940395355	12.011
1347	Cm	1	Sil	Cm	1347	-0.3499999940395355	12.011
1348	Cm	1	Sil	Cm	1348	-0.3499999940395355	12.011
1349	Cm	1	Sil	Cm	1349	-0.3499999940395355	12.011
1350	Cm	1	Sil	Cm	1350	-0.3499999940395355	12.011
1351	Cm	1	Sil	Cm	1351	-0.3499999940395355	12.011
1352	Cm	1	Sil	Cm	1352	-0.3499999940395355	12.011
1353	Cm	1	Sil	Cm	1353	-0.3499999940395355	12.011
1354	Cm	1	Sil	Cm	1354	-0.3499999940395355	12.011
1355	Cm	1	Sil	Cm	1355	-0.3499999940395355	12.011
1356	Cm	1	Sil	Cm	1356	-0.3499999940395355	12.011
1357	Cm	1	Sil	Cm	1357	-0.3499999940395355	12.011
1358	Cm	1	Sil	Cm	1358	-0.3499999940395355	12.011
1359	Cm	1	Sil	Cm	1359	-0.3499999940395355	12.011
1360	Cm	1	Sil	Cm	1360	-0.3499999940395355	12.011
1361	Cm	1	Sil	Cm	1361	-0.3499999940395355	12.011
1362	Cm	1	Sil	Cm	1362	-0.3499999940395355	12.011
1363	Cm	1	Sil	Cm	1363	-0.3499999940395355	12.011
1364	Cm	1	Sil	Cm	1364	-0.3499999940395355	12.011
1365	Cm	1	Sil	Cm	1365	-0.3499999940395355	12.011
1366	Cm	1	Sil	Cm	1366	-0.3499999940395355	12.011
1367	Cm	1	Sil	Cm	1367	-0.3499999940395355	12.011
1368	Cm	1	Sil	Cm	1368	-0.3499999940395355	12.011
1369	Cm	1	Sil	Cm	1369	-0.3499999940395355	12.011
1370	Cm	1	Sil	Cm	1370	-0.3499999940395355	12.011
1371	Cm	1	Sil	Cm	1371	-0.3499999940395355	12.011
1372	Cm	1	Sil	Cm	1372	-0.3499999940395355	12.011
1373	Cm	1	Sil	Cm	1373	-0.3499999940395355	12.011
1374	Cm	1	Sil	Cm	1374	-0.3499999940395355	12.011
1375	Cm	1	Sil	Cm	1375	-0.3499999940395355	12.011
1376	Cm	1	Sil	Cm	1376	-0.3499999940395355	12.011
1377	Cm	1	Sil	Cm	1377	-0.3499999940395355	12.011
1378	Cm	1	Sil	Cm	1378	-0.3499999940395355	12.011
1379	Cm	1	Sil	Cm	1379	-0.3499999940395355	12.011
1380	Cm	1	Sil	Cm	1380	-0.3499999940395355	12.011
1381	Cm	1	Sil	Cm	1381	-0.3499999940395355	12.011
1382	Cm	1	Sil	Cm	1382	-0.3499999940395355	12.011
1383	Cm	1	Sil	Cm	1383	-0.3499999940395355	12.011
1384	Cm	1	Sil	Cm	1384	-0.3499999940395355	12.011
1385	Cm	1	Sil	Cm	1385	-0.3499999940395355	12.011
1386	Cm	1	Sil	Cm	1386	-0.3499999940395355	12.011
1387	Cm	1	Sil	Cm	1387	-0.3499999940395355	12.011
1388	Cm	1	Sil	Cm	1388	-0.3499999940395355	12.011
1389	Cm	1	Sil	Cm	1389	-0.3499999940395355	12.011
1390	Cm	1	Sil	Cm	1390	-0.3499999940395355	12.011
1391	Cm	1	Sil	Cm	1391	-0.3499999940395355	12.011
1392	Cm	1	Sil	Cm	1392	-0.3499999940395355	12.011
1393	Cm	1	Sil	Cm	1393	-0.3499999940395355	12.011
1394	Cm	1	Sil	Cm	1394	-0.3499999940395355	12.011
1395	Cm	1	Sil	Cm	1395	-0.3499999940395355	12.011
1396	Cm	1	Sil	Cm	1396	-0.3499999940395355	12.011
1397	Cm	1	Sil	Cm	1397	-0.3499999940395355	12.011
1398	Cm	1	Sil	Cm	1398	-0.3499999940395355	12.011
1399	Cm	1	Sil	Cm	1399	-0.3499999940395355	12.011
1400	Cm	1	Sil	Cm	1400	-0.3499999940395355	12.011
1401	Cm	1	Sil	Cm	1401	-0.3499999940395355	12.011
1402	Cm	1	Sil	Cm	1402	-0.3499999940395355	12.011
1403	Cm	1	Sil	Cm	1403	-0.3499999940395355	12.011
1404	Cm	1	Sil	Cm	1404	-0.3499999940395355	12.011
1405	Cm	1	Sil	Cm	1405	-0.3499999940395355	12.011
1406	Cm	1	Sil	Cm	1406	-0.3499999940395355	12.011
1407	Cm	1	Sil	Cm	1407	-0.3499999940395355	12.011
1408	Cm	1	Sil	Cm	1408	-0.3499999940395355	12.011
1409	Cm	1	Sil	Cm	1409	-0.3499999940395355	12.011
1410	Cm	1	Sil	Cm	1410	-0.3499999940395355	12.011
1411	Cm	1	Sil	Cm	1411	-0.3499999940395355	12.011
1412	Cm	1	Sil	Cm	1412	-0.3499999940395355	12.011
1413	Cm	1	Sil	Cm	1413	-0.3499999940395355	12.011
1414	Cm	1	Sil	Cm	1414	-0.3499999940395355	12.011
1415	Cm	1	Sil	Cm	1415	-0.3499999940395355	12.011
1416	Cm	1	Sil	Cm	1416	-0.3499999940395355	12.011
1417	Cm	1	Sil	Cm	1417	-0.3499999940395355	12.011
1418	Cm	1	Sil	Cm	1418	-0.3499999940395355	12.011
1419	Cm	1	Sil	Cm	1419	-0.3499999940395355	12.011
1420	Cm	1	Sil	Cm	1420	-0.3499999940395355	12.011
1421	Cm	1	Sil	Cm	1421	-0.3499999940395355	12.011
1422	Cm	1	Sil	Cm	1422	-0.3499999940395355	12.011
1423	Cm	1	Sil	Cm	1423	-0.3499999940395355	12.011
1424	Cm	1	Sil	Cm	1424	-0.3499999940395355	12.011
1425	Sim	1	Sil	Sim	1425	0.9110000133514404	28.0855
1426	Sib	1	Sil	Sib	1426	1.100000023841858	28.0855
1427	Sib	1	Sil	Sib	1427	1.100000023841858	28.0855
1428	Sib	1	Sil	Sib	1428	1.100000023841858	28.0855
1429	Sib	1	Sil	Sib	1429	1.100000023841858	28.0855
1430	Sim	1	Sil	Sim	1430	0.9110000133514404	28.0855
1431	Sib	1	Sil	Sib	1431	1.100000023841858	28.0855
1432	Sib	1	Sil	Sib	1432	1.100000023841858	28.0855
1433	Sib	1	Sil	Sib	1433	1.100000023841858	28.0855
1434	Sib	1	Sil	Sib	1434	1.100000023841858	28.0855
1435	Sib	1	Sil	Sib	1435	1.100000023841858	28.0855
1436	Sib	1	Sil	Sib	1436	1.100000023841858	28.0855
1437	Sib	1	Sil	Sib	1437	1.100000023841858	28.0855
1438	Sib	1	Sil	Sib	1438	1.100000023841858	28.0855
1439	Sib	1	Sil	Sib	1439	1.100000023841858	28.0855
1440	Sib	1	Sil	Sib	1440	1.100000023841858	28.0855
1441	Sim	1	Sil	Sim	1441	0.9110000133514404	28.0855
1442	Sib	1	Sil	Sib	1442	1.100000023841858	28.0855
1443	Sim	1	Sil	Sim	1443	0.722000002861023	28.0855
1444	Sib	1	Sil	Sib	1444	1.100000023841858	28.0855
1445	Sib	1	Sil	Sib	1445	1.100000023841858	28.0855
1446	Sib	1	Sil	Sib	1446	1.100000023841858	28.0855
1447	Sim	1	Sil	Sim	1447	0.9110000133514404	28.0855
1448	Sib	1	Sil	Sib	1448	1.100000023841858	28.0855
1449	Sim	1	Sil	Sim	1449	0.722000002861023	28.0855
1450	Sib	1	Sil	Sib	1450	1.100000023841858	28.0855
1451	Sib	1	Sil	Sib	1451	1.100000023841858	28.0855
1452	Sib	1	Sil	Sib	1452	1.100000023841858	28.0855
1453	Sib	1	Sil	Sib	1453	1.100000023841858	28.0855
1454	Sim	1	Sil	Sim	1454	0.9110000133514404	28.0855
1455	Sib	1	Sil	Sib	1455	1.100000023841858	28.0855
1456	Sib	1	Sil	Sib	1456	1.100000023841858	28.0855
1457	Sib	1	Sil	Sib	1457	1.100000023841858	28.0855
1458	Sib	1	Sil	Sib	1458	1.100000023841858	28.0855
1459	Sib	1	Sil	Sib	1459	1.100000023841858	28.0855
1460	Sim	1	Sil	Sim	1460	0.9110000133514404	28.0855
1461	Sib	1	Sil	Sib	1461	1.100000023841858	28.0855
1462	Sib	1	Sil	Sib	1462	1.100000023841858	28.0855
1463	Sib	1	Sil	Sib	1463	1.100000023841858	28.0855
1464	Sib	1	Sil	Sib	1464	1.100000023841858	28.0855
1465	Sib	1	Sil	Sib	1465	1.100000023841858	28.0855
1466	Sib	1	Sil	Sib	1466	1.100000023841858	28.0855
1467	Sim	1	Sil	Sim	1467	0.9110000133514404	28.0855
1468	Sib	1	Sil	Sib	1468	1.100000023841858	28.0855
1469	Sib	1	Sil	Sib	1469	1.100000023841858	28.0855
1470	Sib	1	Sil	Sib	1470	1.100000023841858	28.0855
1471	Sim	1	Sil	Sim	1471	0.9110000133514404	28.0855
1472	Sib	1	Sil	Sib	1472	1.100000023841858	28.0855
1473	Sim	1	Sil	Sim	1473	0.9110000133514404	28.0855
1474	Sib	1	Sil	Sib	1474	1.100000023841858	28.0855
1475	Sib	1	Sil	Sib	1475	1.100000023841858	28.0855
1476	Sib	1	Sil	Sib	1476	1.100000023841858	28.0855
1477	Sib	1	Sil	Sib	1477	1.100000023841858	28.0855
1478	Sim	1	Sil	Sim	1478	0.9110000133514404	28.0855
1479	Sib	1	Sil	Sib	1479	1.100000023841858	28.0855
1480	Sib	1	Sil	Sib	1480	1.100000023841858	28.0855
1481	Sib	1	Sil	Sib	1481	1.100000023841858	28.0855
1482	Sib	1	Sil	Sib	1482	1.100000023841858	28.0855
1483	Sib	1	Sil	Sib	1483	1.100000023841858	28.0855
1484	Sib	1	Sil	Sib	1484	1.100000023841858	28.0855
1485	Sib	1	Sil	Sib	1485	1.100000023841858	28.0855
1486	Sib	1	Sil	Sib	1486	1.100000023841858	28.0855
1487	Sib	1	Sil	Sib	1487	1.100000023841858	28.0855
1488	Sib	1	Sil	Sib	1488	1.100000023841858	28.0855
1489	Sib	1	Sil	Sib	1489	1.100000023841858	28.0855
1490	Sib	1	Sil	Sib	1490	1.100000023841858	28.0855
1491	Sim	1	Sil	Sim	1491	0.9110000133514404	28.0855
1492	Sib	1	Sil	Sib	1492	1.100000023841858	28.0855
1493	Sib	1	Sil	Sib	1493	1.100000023841858	28.0855
1494	Sib	1	Sil	Sib	1494	1.100000023841858	28.0855
1495	Sim	1	Sil	Sim	1495	0.9110000133514404	28.0855
1496	Sib	1	Sil	Sib	1496	1.100000023841858	28.0855
1497	Sim	1	Sil	Sim	1497	0.722000002861023	28.0855
1498	Sib	1	Sil	Sib	1498	1.100000023841858	28.0855
1499	Sib	1	Sil	Sib	1499	1.100000023841858	28.0855
1500	Sib	1	Sil	Sib	1500	1.100000023841858	28.0855
1501	Sib	1	Sil	Sib	1501	1.100000023841858	28.0855
1502	Sim	1	Sil	Sim	1502	0.9110000133514404	28.0855
1503	Sib	1	Sil	Sib	1503	1.100000023841858	28.0855
1504	Sib	1	Sil	Sib	1504	1.100000023841858	28.0855
1505	Sib	1	Sil	Sib	1505	1.100000023841858	28.0855
1506	Sib	1	Sil	Sib	1506	1.100000023841858	28.0855
1507	Sib	1	Sil	Sib	1507	1.100000023841858	28.0855
1508	Sim	1	Sil	Sim	1508	0.9110000133514404	28.0855
1509	Sib	1	Sil	Sib	1509	1.100000023841858	28.0855
1510	Sib	1	Sil	Sib	1510	1.100000023841858	28.0855
1511	Sib	1	Sil	Sib	1511	1.100000023841858	28.0855
1512	Sib	1	Sil	Sib	1512	1.100000023841858	28.0855
1513	Sim	1	Sil	Sim	1513	0.9110000133514404	28.0855
1514	Sib	1	Sil	Sib	1514	1.100000023841858	28.0855
1515	Sim	1	Sil	Sim	1515	0.722000002861023	28.0855
1516	Sib	1	Sil	Sib	1516	1.100000023841858	28.0855
1517	Sib	1	Sil	Sib	1517	1.100000023841858	28.0855
1518	Sib	1	Sil	Sib	1518	1.100000023841858	28.0855
1519	Sim	1	Sil	Sim	1519	0.9110000133514404	28.0855
1520	Sib	1	Sil	Sib	1520	1.100000023841858	28.0855
1521	Sim	1	Sil	Sim	1521	0.9110000133514404	28.0855
1522	Sib	1	Sil	Sib	1522	1.100000023841858	28.0855
1523	Sib	1	Sil	Sib	1523	1.100000023841858	28.0855
1524	Sib	1	Sil	Sib	1524	1.100000023841858	28.0855
1525	Sib	1	Sil	Sib	1525	1.100000023841858	28.0855
1526	Sim	1	Sil	Sim	1526	0.9110000133514404	28.0855
1527	Sib	1	Sil	Sib	1527	1.100000023841858	28.0855
1528	Sib	1	Sil	Sib	1528	1.100000023841858	28.0855
1529	Sib	1	Sil	Sib	1529	1.100000023841858	28.0855
1530	Sib	1	Sil	Sib	1530	1.100000023841858	28.0855
1531	Sib	1	Sil	Sib	1531	1.100000023841858	28.0855
1532	Sib	1	Sil	Sib	1532	1.100000023841858	28.0855
1533	Sib	1	Sil	Sib	1533	1.100000023841858	28.0855
1534	Sib	1	Sil	Sib	1534	1.100000023841858	28.0855
1535	Sib	1	Sil	Sib	1535	1.100000023841858	28.0855
1536	Sib	1	Sil	Sib	1536	1.100000023841858	28.0855
1537	Sib	1	Sil	Sib	1537	1.100000023841858	28.0855
1538	Sib	1	Sil	Sib	1538	1.100000023841858	28.0855
1539	Sim	1	Sil	Sim	1539	0.9110000133514404	28.0855
1540	Sib	1	Sil	Sib	1540	1.100000023841858	28.0855
1541	Sib	1	Sil	Sib	1541	1.100000023841858	28.0855
1542	Sib	1	Sil	Sib	1542	1.100000023841858	28.0855
1543	Sim	1	Sil	Sim	1543	0.9110000133514404	28.0855
1544	Sib	1	Sil	Sib	1544	1.100000023841858	28.0855
1545	Sim	1	Sil	Sim	1545	0.722000002861023	28.0855
1546	Sib	1	Sil	Sib	1546	1.100000023841858	28.0855
1547	Sib	1	Sil	Sib	1547	1.100000023841858	28.0855
1548	Sib	1	Sil	Sib	1548	1.100000023841858	28.0855
1549	Sib	1	Sil	Sib	1549	1.100000023841858	28.0855
1550	Sim	1	Sil	Sim	1550	0.9110000133514404	28.0855
1551	Sib	1	Sil	Sib	1551	1.100000023841858	28.0855
1552	Sib	1	Sil	Sib	1552	1.100000023841858	28.0855
1553	Sib	1	Sil	Sib	1553	1.100000023841858	28.0855
1554	Sib	1	Sil	Sib	1554	1.100000023841858	28.0855
1555	Sib	1	Sil	Sib	1555	1.100000023841858	28.0855
1556	Sim	1	Sil	Sim	1556	0.9110000133514404	28.0855
1557	Sib	1	Sil	Sib	1557	1.100000023841858	28.0855
1558	Sib	1	Sil	Sib	1558	1.100000023841858	28.0855
1559	Sib	1	Sil	Sib	1559	1.100000023841858	28.0855
1560	Sib	1	Sil	Sib	1560	1.100000023841858	28.0855
1561	Sib	1	Sil	Sib	1561	1.100000023841858	28.0855
1562	Sib	1	Sil	Sib	1562	1.100000023841858	28.0855
1563	Sim	1	Sil	Sim	1563	0.9110000133514404	28.0855
1564	Sib	1	Sil	Sib	1564	1.100000023841858	28.0855
1565	Sib	1	Sil	Sib	1565	1.100000023841858	28.0855
1566	Sib	1	Sil	Sib	1566	1.100000023841858	28.0855
1567	Sim	1	Sil	Sim	1567	0.9110000133514404	28.0855
1568	Sib	1	Sil	Sib	1568	1.100000023841858	28.0855
1569	Sim	1	Sil	Sim	1569	0.9110000133514404	28.0855
1570	Sib	1	Sil	Sib	1570	1.100000023841858	28.0855
1571	Sib	1	Sil	Sib	1571	1.100000023841858	28.0855
1572	Sib	1	Sil	Sib	1572	1.100000023841858	28.0855
1573	Sib	1	Sil	Sib	1573	1.100000023841858	28.0855
1574	Sim	1	Sil	Sim	1574	0.9110000133514404	28.0855
1575	Sib	1	Sil	Sib	1575	1.100000023841858	28.0855
1576	Sib	1	Sil	Sib	1576	1.100000023841858	28.0855
1577	Sib	1	Sil	Sib	1577	1.100000023841858	28.0855
1578	Sib	1	Sil	Sib	1578	1.100000023841858	28.0855
1579	Sib	1	Sil	Sib	1579	1.100000023841858	28.0855
1580	Sib	1	Sil	Sib	1580	1.100000023841858	28.0855
1581	Sib	1	Sil	Sib	1581	1.100000023841858	28.0855
1582	Sib	1	Sil	Sib	1582	1.100000023841858	28.0855
1583	Sib	1	Sil	Sib	1583	1.100000023841858	28.0855
1584	Sib	1	Sil	Sib	1584	1.100000023841858	28.0855
1585	Sim	1	Sil	Sim	1585	0.9110000133514404	28.0855
1586	Sib	1	Sil	Sib	1586	1.100000023841858	28.0855
1587	Sim	1	Sil	Sim	1587	0.722000002861023	28.0855
1588	Sib	1	Sil	Sib	1588	1.100000023841858	28.0855
1589	Sib	1	Sil	Sib	1589	1.100000023841858	28.0855
1590	Sib	1	Sil	Sib	1590	1.100000023841858	28.0855
1591	Sim	1	Sil	Sim	1591	0.9110000133514404	28.0855
1592	Sib	1	Sil	Sib	1592	1.100000023841858	28.0855
1593	Sim	1	Sil	Sim	1593	0.722000002861023	28.0855
1594	Sib	1	Sil	Sib	1594	1.100000023841858	28.0855
1595	Sib	1	Sil	Sib	1595	1.100000023841858	28.0855
1596	Sib	1	Sil	Sib	1596	1.100000023841858	28.0855
1597	Sib	1	Sil	Sib	1597	1.100000023841858	28.0855
1598	Sim	1	Sil	Sim	1598	0.9110000133514404	28.0855
1599	Sib	1	Sil	Sib	1599	1.100000023841858	28.0855
1600	Sib	1	Sil	Sib	1600	1.100000023841858	28.0855
1601	Sib	1	Sil	Sib	1601	1.100000023841858	28.0855
1602	Sib	1	Sil	Sib	1602	1.100000023841858	28.0855
1603	Sib	1	Sil	Sib	1603	1.100000023841858	28.0855
1604	Sim	1	Sil	Sim	1604	0.9110000133514404	28.0855
1605	Sib	1	Sil	Sib	1605	1.100000023841858	28.0855
1606	Sib	1	Sil	Sib	1606	1.100000023841858	28.0855
1607	Sib	1	Sil	Sib	1607	1.100000023841858	28.0855
1608	Sib	1	Sil	Sib	1608	1.100000023841858	28.0855
1609	Sim	1	Sil	Sim	1609	0.9110000133514404	28.0855
1610	Sib	1	Sil	Sib	1610	1.100000023841858	28.0855
1611	Sim	1	Sil	Sim	1611	0.722000002861023	28.0855
1612	Sib	1	Sil	Sib	1612	1.100000023841858	28.0855
1613	Sib	1	Sil	Sib	1613	1.100000023841858	28.0855
1614	Sib	1	Sil	Sib	1614	1.100000023841858	28.0855
1615	Sim	1	Sil	Sim	1615	0.9110000133514404	28.0855
1616	Sib	1	Sil	Sib	1616	1.100000023841858	28.0855
1617	Sim	1	Sil	Sim	1617	0.9110000133514404	28.0855
1618	Sib	1	Sil	Sib	1618	1.100000023841858	28.0855
1619	Sib	1	Sil	Sib	1619	1.100000023841858	28.0855
1620	Sib	1	Sil	Sib	1620	1.100000023841858	28.0855
1621	Sib	1	Sil	Sib	1621	1.100000023841858	28.0855
1622	Sim	1	Sil	Sim	1622	0.9110000133514404	28.0855
1623	Sib	1	Sil	Sib	1623	1.100000023841858	28.0855
1624	Sib	1	Sil	Sib	1624	1.100000023841858	28.0855
1625	Sib	1	Sil	Sib	1625	1.100000023841858	28.0855
1626	Sib	1	Sil	Sib	1626	1.100000023841858	28.0855
1627	Sib	1	Sil	Sib	1627	1.100000023841858	28.0855
1628	Sib	1	Sil	Sib	1628	1.100000023841858	28.0855
1629	Sib	1	Sil	Sib	1629	1.100000023841858	28.0855
1630	Sib	1	Sil	Sib	1630	1.100000023841858	28.0855
1631	Sib	1	Sil	Sib	1631	1.100000023841858	28.0855
1632	Sib	1	Sil	Sib	1632	1.100000023841858	28.0855
1633	Sib	1	Sil	Sib	1633	1.100000023841858	28.0855
1634	Sib	1	Sil	Sib	1634	1.100000023841858	28.0855
1635	Sim	1	Sil	Sim	1635	0.9110000133514404	28.0855
1636	Sib	1	Sil	Sib	1636	1.100000023841858	28.0855
1637	Sib	1	Sil	Sib	1637	1.100000023841858	28.0855
1638	Sib	1	Sil	Sib	1638	1.100000023841858	28.0855
1639	Sim	1	Sil	Sim	1639	0.9110000133514404	28.0855
1640	Sib	1	Sil	Sib	1640	1.100000023841858	28.0855
1641	Sim	1	Sil	Sim	1641	0.722000002861023	28.0855
1642	Sib	1	Sil	Sib	1642	1.100000023841858	28.0855
1643	Sib	1	Sil	Sib	1643	1.100000023841858	28.0855
1644	Sib	1	Sil	Sib	1644	1.100000023841858	28.0855
1645	Sib	1	Sil	Sib	1645	1.100000023841858	28.0855
1646	Sim	1	Sil	Sim	1646	0.9110000133514404	28.0855
1647	Sib	1	Sil	Sib	1647	1.100000023841858	28.0855
1648	Sib	1	Sil	Sib	1648	1.100000023841858	28.0855
1649	Sib	1	Sil	Sib	1649	1.100000023841858	28.0855
1650	Sib	1	Sil	Sib	1650	1.100000023841858	28.0855
1651	Sib	1	Sil	Sib	1651	1.100000023841858	28.0855
1652	Sim	1	Sil	Sim	1652	0.9110000133514404	28.0855
1653	Sib	1	Sil	Sib	1653	1.100000023841858	28.0855
1654	Sib	1	Sil	Sib	1654	1.100000023841858	28.0855
1655	Sib	1	Sil	Sib	1655	1.100000023841858	28.0855
1656	Sib	1	Sil	Sib	1656	1.100000023841858	28.0855
1657	Sib	1	Sil	Sib	1657	1.100000023841858	28.0855
1658	Sib	1	Sil	Sib	1658	1.100000023841858	28.0855
1659	Sim	1	Sil	Sim	1659	0.9110000133514404	28.0855
1660	Sib	1	Sil	Sib	1660	1.100000023841858	28.0855
1661	Sib	1	Sil	Sib	1661	1.100000023841858	28.0855
1662	Sib	1	Sil	Sib	1662	1.100000023841858	28.0855
1663	Sim	1	Sil	Sim	1663	0.9110000133514404	28.0855
1664	Sib	1	Sil	Sib	1664	1.100000023841858	28.0855
1665	Sim	1	Sil	Sim	1665	0.9110000133514404	28.0855
1666	Sib	1	Sil	Sib	1666	1.100000023841858	28.0855
1667	Sib	1	Sil	Sib	1667	1.100000023841858	28.0855
1668	Sib	1	Sil	Sib	1668	1.100000023841858	28.0855
1669	Sib	1	Sil	Sib	1669	1.100000023841858	28.0855
1670	Sim	1	Sil	Sim	1670	0.9110000133514404	28.0855
1671	Sib	1	Sil	Sib	1671	1.100000023841858	28.0855
1672	Sib	1	Sil	Sib	1672	1.100000023841858	28.0855
1673	Sib	1	Sil	Sib	1673	1.100000023841858	28.0855
1674	Sib	1	Sil	Sib	1674	1.100000023841858	28.0855
1675	Sib	1	Sil	Sib	1675	1.100000023841858	28.0855
1676	Sib	1	Sil	Sib	1676	1.100000023841858	28.0855
1677	Sib	1	Sil	Sib	1677	1.100000023841858	28.0855
1678	Sib	1	Sil	Sib	1678	1.100000023841858	28.0855
1679	Sib	1	Sil	Sib	1679	1.100000023841858	28.0855
1680	Sib	1	Sil	Sib	1680	1.100000023841858	28.0855
1681	Sim	1	Sil	Sim	1681	0.9110000133514404	28.0855
1682	Sib	1	Sil	Sib	1682	1.100000023841858	28.0855
1683	Sim	1	Sil	Sim	1683	0.722000002861023	28.0855
1684	Sib	1	Sil	Sib	1684	1.100000023841858	28.0855
1685	Sib	1	Sil	Sib	1685	1.100000023841858	28.0855
1686	Sib	1	Sil	Sib	1686	1.100000023841858	28.0855
1687	Sim	1	Sil	Sim	1687	0.9110000133514404	28.0855
1688	Sib	1	Sil	Sib	1688	1.100000023841858	28.0855
1689	Sim	1	Sil	Sim	1689	0.9110000133514404	28.0855
1690	Sib	1	Sil	Sib	1690	1.100000023841858	28.0855
1691	Sib	1	Sil	Sib	1691	1.100000023841858	28.0855
1692	Sib	1	Sil	Sib	1692	1.100000023841858	28.0855
1693	Sib	1	Sil	Sib	1693	1.100000023841858	28.0855
1694	Sim	1	Sil	Sim	1694	0.9110000133514404	28.0855
1695	Sib	1	Sil	Sib	1695	1.100000023841858	28.0855
1696	Sib	1	Sil	Sib	1696	1.100000023841858	28.0855
1697	Sib	1	Sil	Sib	1697	1.100000023841858	28.0855
1698	Sib	1	Sil	Sib	1698	1.100000023841858	28.0855
1699	Sib	1	Sil	Sib	1699	1.100000023841858	28.0855
1700	Sib	1	Sil	Sib	1700	1.100000023841858	28.0855
1701	Sib	1	Sil	Sib	1701	1.100000023841858	28.0855
1702	Sib	1	Sil	Sib	1702	1.100000023841858	28.0855
1703	Sib	1	Sil	Sib	1703	1.100000023841858	28.0855
1704	Sib	1	Sil	Sib	1704	1.100000023841858	28.0855
1705	Sib	1	Sil	Sib	1705	1.100000023841858	28.0855
1706	Sib	1	Sil	Sib	1706	1.100000023841858	28.0855
1707	Sim	1	Sil	Sim	1707	0.9110000133514404	28.0855
1708	Sib	1	Sil	Sib	1708	1.100000023841858	28.0855
1709	Sib	1	Sil	Sib	1709	1.100000023841858	28.0855
1710	Sib	1	Sil	Sib	1710	1.100000023841858	28.0855
1711	Sim	1	Sil	Sim	1711	0.9110000133514404	28.0855
1712	Sib	1	Sil	Sib	1712	1.100000023841858	28.0855
1713	Sim	1	Sil	Sim	1713	0.722000002861023	28.0855
1714	Sib	1	Sil	Sib	1714	1.100000023841858	28.0855
1715	Sib	1	Sil	Sib	1715	1.100000023841858	28.0855
1716	Sib	1	Sil	Sib	1716	1.100000023841858	28.0855
1717	Sib	1	Sil	Sib	1717	1.100000023841858	28.0855
1718	Sim	1	Sil	Sim	1718	0.9110000133514404	28.0855
1719	Sib	1	Sil	Sib	1719	1.100000023841858	28.0855
1720	Sib	1	Sil	Sib	1720	1.100000023841858	28.0855
1721	Sib	1	Sil	Sib	1721	1.100000023841858	28.0855
1722	Sib	1	Sil	Sib	1722	1.100000023841858	28.0855
1723	Sib	1	Sil	Sib	1723	1.100000023841858	28.0855
1724	Sim	1	Sil	Sim	1724	0.9110000133514404	28.0855
1725	Sib	1	Sil	Sib	1725	1.100000023841858	28.0855
1726	Sib	1	Sil	Sib	1726	1.100000023841858	28.0855
1727	Sib	1	Sil	Sib	1727	1.100000023841858	28.0855
1728	Sib	1	Sil	Sib	1728	1.100000023841858	28.0855
1729	Sib	1	Sil	Sib	1729	1.100000023841858	28.0855
1730	Sib	1	Sil	Sib	1730	1.100000023841858	28.0855
1731	Sim	1	Sil	Sim	1731	0.9110000133514404	28.0855
1732	Sib	1	Sil	Sib	1732	1.100000023841858	28.0855
1733	Sib	1	Sil	Sib	1733	1.100000023841858	28.0855
1734	Sib	1	Sil	Sib	1734	1.100000023841858	28.0855
1735	Sim	1	Sil	Sim	1735	0.9110000133514404	28.0855
1736	Sib	1	Sil	Sib	1736	1.100000023841858	28.0855
1737	Sim	1	Sil	Sim	1737	0.9110000133514404	28.0855
1738	Sib	1	Sil	Sib	1738	1.100000023841858	28.0855
1739	Sib	1	Sil	Sib	1739	1.100000023841858	28.0855
1740	Sib	1	Sil	Sib	1740	1.100000023841858	28.0855
1741	Sib	1	Sil	Sib	1741	1.100000023841858	28.0855
1742	Sim	1	Sil	Sim	1742	0.9110000133514404	28.0855
1743	Sib	1	Sil	Sib	1743	1.100000023841858	28.0855
1744	Sib	1	Sil	Sib	1744	1.100000023841858	28.0855
1745	Sib	1	Sil	Sib	1745	1.100000023841858	28.0855
1746	Sib	1	Sil	Sib	1746	1.100000023841858	28.0855
1747	Sib	1	Sil	Sib	1747	1.100000023841858	28.0855
1748	Sib	1	Sil	Sib	1748	1.100000023841858	28.0855
1749	Sib	1	Sil	Sib	1749	1.100000023841858	28.0855
1750	Sib	1	Sil	Sib	1750	1.100000023841858	28.0855
1751	Sib	1	Sil	Sib	1751	1.100000023841858	28.0855
1752	Sib	1	Sil	Sib	1752	1.100000023841858	28.0855
1753	Sim	1	Sil	Sim	1753	0.9110000133514404	28.0855
1754	Sib	1	Sil	Sib	1754	1.100000023841858	28.0855
1755	Sim	1	Sil	Sim	1755	0.722000002861023	28.0855
1756	Sib	1	Sil	Sib	1756	1.100000023841858	28.0855
1757	Sib	1	Sil	Sib	1757	1.100000023841858	28.0855
1758	Sib	1	Sil	Sib	1758	1.100000023841858	28.0855
1759	Sim	1	Sil	Sim	1759	0.9110000133514404	28.0855
1760	Sib	1	Sil	Sib	1760	1.100000023841858	28.0855
1761	Sim	1	Sil	Sim	1761	0.9110000133514404	28.0855
1762	Sib	1	Sil	Sib	1762	1.100000023841858	28.0855
1763	Sib	1	Sil	Sib	1763	1.100000023841858	28.0855
1764	Sib	1	Sil	Sib	1764	1.100000023841858	28.0855
1765	Sib	1	Sil	Sib	1765	1.100000023841858	28.0855
1766	Sim	1	Sil	Sim	1766	0.9110000133514404	28.0855
1767	Sib	1	Sil	Sib	1767	1.100000023841858	28.0855
1768	Sib	1	Sil	Sib	1768	1.100000023841858	28.0855
1769	Sib	1	Sil	Sib	1769	1.100000023841858	28.0855
1770	Sib	1	Sil	Sib	1770	1.100000023841858	28.0855
1771	Sib	1	Sil	Sib	1771	1.100000023841858	28.0855
1772	Sib	1	Sil	Sib	1772	1.100000023841858	28.0855
1773	Sib	1	Sil	Sib	1773	1.100000023841858	28.0855
1774	Sib	1	Sil	Sib	1774	1.100000023841858	28.0855
1775	Sib	1	Sil	Sib	1775	1.100000023841858	28.0855
1776	Sib	1	Sil	Sib	1776	1.100000023841858	28.0855
1777	Sib	1	Sil	Sib	1777	1.100000023841858	28.0855
1778	Sib	1	Sil	Sib	1778	1.100000023841858	28.0855
1779	Sim	1	Sil	Sim	1779	0.9110000133514404	28.0855
1780	Sib	1	Sil	Sib	1780	1.100000023841858	28.0855
1781	Sib	1	Sil	Sib	1781	1.100000023841858	28.0855
1782	Sib	1	Sil	Sib	1782	1.100000023841858	28.0855
1783	Sim	1	Sil	Sim	1783	0.9110000133514404	28.0855
1784	Sib	1	Sil	Sib	1784	1.100000023841858	28.0855
1785	Sim	1	Sil	Sim	1785	0.722000002861023	28.0855
1786	Sib	1	Sil	Sib	1786	1.100000023841858	28.0855
1787	Sib	1	Sil	Sib	1787	1.100000023841858	28.0855
1788	Sib	1	Sil	Sib	1788	1.100000023841858	28.0855
1789	Sib	1	Sil	Sib	1789	1.100000023841858	28.0855
1790	Sim	1	Sil	Sim	1790	0.9110000133514404	28.0855
1791	Sib	1	Sil	Sib	1791	1.100000023841858	28.0855
1792	Sib	1	Sil	Sib	1792	1.100000023841858	28.0855
1793	Sib	1	Sil	Sib	1793	1.100000023841858	28.0855
1794	Sib	1	Sil	Sib	1794	1.100000023841858	28.0855
1795	Sib	1	Sil	Sib	1795	1.100000023841858	28.0855
1796	Sim	1	Sil	Sim	1796	0.9110000133514404	28.0855
1797	Sib	1	Sil	Sib	1797	1.100000023841858	28.0855
1798	Sib	1	Sil	Sib	1798	1.100000023841858	28.0855
1799	Sib	1	Sil	Sib	1799	1.100000023841858	28.0855
1800	Sib	1	Sil	Sib	1800	1.100000023841858	28.0855
1801	Sim	1	Sil	Sim	1801	0.9110000133514404	28.0855
1802	Sib	1	Sil	Sib	1802	1.100000023841858	28.0855
1803	Sim	1	Sil	Sim	1803	0.722000002861023	28.0855
1804	Sib	1	Sil	Sib	1804	1.100000023841858	28.0855
1805	Sib	1	Sil	Sib	1805	1.100000023841858	28.0855
1806	Sib	1	Sil	Sib	1806	1.100000023841858	28.0855
1807	Sim	1	Sil	Sim	1807	0.9110000133514404	28.0855
1808	Sib	1	Sil	Sib	1808	1.100000023841858	28.0855
1809	Sim	1	Sil	Sim	1809	0.9110000133514404	28.0855
1810	Sib	1	Sil	Sib	1810	1.100000023841858	28.0855
1811	Sib	1	Sil	Sib	1811	1.100000023841858	28.0855
1812	Sib	1	Sil	Sib	1812	1.100000023841858	28.0855
1813	Sib	1	Sil	Sib	1813	1.100000023841858	28.0855
1814	Sim	1	Sil	Sim	1814	0.9110000133514404	28.0855
1815	Sib	1	Sil	Sib	1815	1.100000023841858	28.0855
1816	Sib	1	Sil	Sib	1816	1.100000023841858	28.0855
1817	Sib	1	Sil	Sib	1817	1.100000023841858	28.0855
1818	Sib	1	Sil	Sib	1818	1.100000023841858	28.0855
1819	Sib	1	Sil	Sib	1819	1.100000023841858	28.0855
1820	Sib	1	Sil	Sib	1820	1.100000023841858	28.0855
1821	Sib	1	Sil	Sib	1821	1.100000023841858	28.0855
1822	Sib	1	Sil	Sib	1822	1.100000023841858	28.0855
1823	Sib	1	Sil	Sib	1823	1.100000023841858	28.0855
1824	Sib	1	Sil	Sib	1824	1.100000023841858	28.0855
1825	Sib	1	Sil	Sib	1825	1.100000023841858	28.0855
1826	Sib	1	Sil	Sib	1826	1.100000023841858	28.0855
1827	Sim	1	Sil	Sim	1827	0.9110000133514404	28.0855
1828	Sib	1	Sil	Sib	1828	1.100000023841858	28.0855
1829	Sib	1	Sil	Sib	1829	1.100000023841858	28.0855
1830	Sib	1	Sil	Sib	1830	1.100000023841858	28.0855
1831	Sim	1	Sil	Sim	1831	0.9110000133514404	28.0855
1832	Sib	1	Sil	Sib	1832	1.100000023841858	28.0855
1833	Sim	1	Sil	Sim	1833	0.722000002861023	28.0855
1834	Sib	1	Sil	Sib	1834	1.100000023841858	28.0855
1835	Sib	1	Sil	Sib	1835	1.100000023841858	28.0855
1836	Sib	1	Sil	Sib	1836	1.100000023841858	28.0855
1837	Sib	1	Sil	Sib	1837	1.100000023841858	28.0855
1838	Sim	1	Sil	Sim	1838	0.9110000133514404	28.0855
1839	Sib	1	Sil	Sib	1839	1.100000023841858	28.0855
1840	Sib	1	Sil	Sib	1840	1.100000023841858	28.0855
1841	Sib	1	Sil	Sib	1841	1.100000023841858	28.0855
1842	Sib	1	Sil	Sib	1842	1.100000023841858	28.0855
1843	Sib	1	Sil	Sib	1843	1.100000023841858	28.0855
1844	Sim	1	Sil	Sim	1844	0.9110000133514404	28.0855
1845	Sib	1	Sil	Sib	1845	1.100000023841858	28.0855
1846	Sib	1	Sil	Sib	1846	1.100000023841858	28.0855
1847	Sib	1	Sil	Sib	1847	1.100000023841858	28.0855
1848	Sib	1	Sil	Sib	1848	1.100000023841858	28.0855
1849	Sim	1	Sil	Sim	1849	0.9110000133514404	28.0855
1850	Sib	1	Sil	Sib	1850	1.100000023841858	28.0855
1851	Sim	1	Sil	Sim	1851	0.722000002861023	28.0855
1852	Sib	1	Sil	Sib	1852	1.100000023841858	28.0855
1853	Sib	1	Sil	Sib	1853	1.100000023841858	28.0855
1854	Sib	1	Sil	Sib	1854	1.100000023841858	28.0855
1855	Sim	1	Sil	Sim	1855	0.9110000133514404	28.0855
1856	Sib	1	Sil	Sib	1856	1.100000023841858	28.0855
1857	Sim	1	Sil	Sim	1857	0.9110000133514404	28.0855
1858	Sib	1	Sil	Sib	1858	1.100000023841858	28.0855
1859	Sib	1	Sil	Sib	1859	1.100000023841858	28.0855
1860	Sib	1	Sil	Sib	1860	1.100000023841858	28.0855
1861	Sib	1	Sil	Sib	1861	1.100000023841858	28.0855
1862	Sim	1	Sil	Sim	1862	0.9110000133514404	28.0855
1863	Sib	1	Sil	Sib	1863	1.100000023841858	28.0855
1864	Sib	1	Sil	Sib	1864	1.100000023841858	28.0855
1865	Sib	1	Sil	Sib	1865	1.100000023841858	28.0855
1866	Sib	1	Sil	Sib	1866	1.100000023841858	28.0855
1867	Sib	1	Sil	Sib	1867	1.100000023841858	28.0855
1868	Sib	1	Sil	Sib	1868	1.100000023841858	28.0855
1869	Sib	1	Sil	Sib	1869	1.100000023841858	28.0855
1870	Sib	1	Sil	Sib	1870	1.100000023841858	28.0855
1871	Sib	1	Sil	Sib	1871	1.100000023841858	28.0855
1872	Sib	1	Sil	Sib	1872	1.100000023841858	28.0855
1873	Sib	1	Sil	Sib	1873	1.100000023841858	28.0855
1874	Sib	1	Sil	Sib	1874	1.100000023841858	28.0855
1875	Sim	1	Sil	Sim	1875	0.9110000133514404	28.0855
1876	Sib	1	Sil	Sib	1876	1.100000023841858	28.0855
1877	Sib	1	Sil	Sib	1877	1.100000023841858	28.0855
1878	Sib	1	Sil	Sib	1878	1.100000023841858	28.0855
1879	Sim	1	Sil	Sim	1879	0.9110000133514404	28.0855
1880	Sib	1	Sil	Sib	1880	1.100000023841858	28.0855
1881	Sim	1	Sil	Sim	1881	0.722000002861023	28.0855
1882	Sib	1	Sil	Sib	1882	1.100000023841858	28.0855
1883	Sib	1	Sil	Sib	1883	1.100000023841858	28.0855
1884	Sib	1	Sil	Sib	1884	1.100000023841858	28.0855
1885	Sib	1	Sil	Sib	1885	1.100000023841858	28.0855
1886	Sim	1	Sil	Sim	1886	0.9110000133514404	28.0855
1887	Sib	1	Sil	Sib	1887	1.100000023841858	28.0855
1888	Sib	1	Sil	Sib	1888	1.100000023841858	28.0855
1889	Sib	1	Sil	Sib	1889	1.100000023841858	28.0855
1890	Sib	1	Sil	Sib	1890	1.100000023841858	28.0855
1891	Sib	1	Sil	Sib	1891	1.100000023841858	28.0855
1892	Sim	1	Sil	Sim	1892	0.9110000133514404	28.0855
1893	Sib	1	Sil	Sib	1893	1.100000023841858	28.0855
1894	Sib	1	Sil	Sib	1894	1.100000023841858	28.0855
1895	Sib	1	Sil	Sib	1895	1.100000023841858	28.0855
1896	Sib	1	Sil	Sib	1896	1.100000023841858	28.0855
1897	Sim	1	Sil	Sim	1897	0.9110000133514404	28.0855
1898	Sib	1	Sil	Sib	1898	1.100000023841858	28.0855
1899	Sim	1	Sil	Sim	1899	0.722000002861023	28.0855
1900	Sib	1	Sil	Sib	1900	1.100000023841858	28.0855
1901	Sib	1	Sil	Sib	1901	1.100000023841858	28.0855
1902	Sib	1	Sil	Sib	1902	1.100000023841858	28.0855
1903	Sim	1	Sil	Sim	1903	0.9110000133514404	28.0855
1904	Sib	1	Sil	Sib	1904	1.100000023841858	28.0855
1905	Sim	1	Sil	Sim	1905	0.9110000133514404	28.0855
1906	Sib	1	Sil	Sib	1906	1.100000023841858	28.0855
1907	Sib	1	Sil	Sib	1907	1.100000023841858	28.0855
1908	Sib	1	Sil	Sib	1908	1.100000023841858	28.0855
1909	Sib	1	Sil	Sib	1909	1.100000023841858	28.0855
1910	Sim	1	Sil	Sim	1910	0.9110000133514404	28.0855
1911	Sib	1	Sil	Sib	1911	1.100000023841858	28.0855
1912	Sib	1	Sil	Sib	1912	1.100000023841858	28.0855
1913	Sib	1	Sil	Sib	1913	1.100000023841858	28.0855
1914	Sib	1	Sil	Sib	1914	1.100000023841858	28.0855
1915	Sib	1	Sil	Sib	1915	1.100000023841858	28.0855
1916	Sib	1	Sil	Sib	1916	1.100000023841858	28.0855
1917	Sib	1	Sil	Sib	1917	1.100000023841858	28.0855
1918	Sib	1	Sil	Sib	1918	1.100000023841858	28.0855
1919	Sib	1	Sil	Sib	1919	1.100000023841858	28.0855
1920	Sib	1	Sil	Sib	1920	1.100000023841858	28.0855
1921	Sib	1	Sil	Sib	1921	1.100000023841858	28.0855
1922	Sib	1	Sil	Sib	1922	1.100000023841858	28.0855
1923	Sim	1	Sil	Sim	1923	0.9110000133514404	28.0855
1924	Sib	1	Sil	Sib	1924	1.100000023841858	28.0855
1925	Sib	1	Sil	Sib	1925	1.100000023841858	28.0855
1926	Sib	1	Sil	Sib	1926	1.100000023841858	28.0855
1927	Sim	1	Sil	Sim	1927	0.9110000133514404	28.0855
1928	Sib	1	Sil	Sib	1928	1.100000023841858	28.0855
1929	Sim	1	Sil	Sim	1929	0.9110000133514404	28.0855
1930	Sib	1	Sil	Sib	1930	1.100000023841858	28.0855
1931	Sib	1	Sil	Sib	1931	1.100000023841858	28.0855
1932	Sib	1	Sil	Sib	1932	1.100000023841858	28.0855
1933	Sib	1	Sil	Sib	1933	1.100000023841858	28.0855
1934	Sim	1	Sil	Sim	1934	0.9110000133514404	28.0855
1935	Sib	1	Sil	Sib	1935	1.100000023841858	28.0855
1936	Sib	1	Sil	Sib	1936	1.100000023841858	28.0855
1937	Sib	1	Sil	Sib	1937	1.100000023841858	28.0855
1938	Sib	1	Sil	Sib	1938	1.100000023841858	28.0855
1939	Sib	1	Sil	Sib	1939	1.100000023841858	28.0855
1940	Sib	1	Sil	Sib	1940	1.100000023841858	28.0855
1941	Sib	1	Sil	Sib	1941	1.100000023841858	28.0855
1942	Sib	1	Sil	Sib	1942	1.100000023841858	28.0855
1943	Sib	1	Sil	Sib	1943	1.100000023841858	28.0855
1944	Sib	1	Sil	Sib	1944	1.100000023841858	28.0855
1945	Sib	1	Sil	Sib	1945	1.100000023841858	28.0855
1946	Sib	1	Sil	Sib	1946	1.100000023841858	28.0855
1947	Sim	1	Sil	Sim	1947	0.9110000133514404	28.0855
1948	Sib	1	Sil	Sib	1948	1.100000023841858	28.0855
1949	Sib	1	Sil	Sib	1949	1.100000023841858	28.0855
1950	Sib	1	Sil	Sib	1950	1.100000023841858	28.0855
1951	Sim	1	Sil	Sim	1951	0.9110000133514404	28.0855
1952	Sib	1	Sil	Sib	1952	1.100000023841858	28.0855
1953	Sim	1	Sil	Sim	1953	0.722000002861023	28.0855
1954	Sib	1	Sil	Sib	1954	1.100000023841858	28.0855
1955	Sib	1	Sil	Sib	1955	1.100000023841858	28.0855
1956	Sib	1	Sil	Sib	1956	1.100000023841858	28.0855
1957	Sib	1	Sil	Sib	1957	1.100000023841858	28.0855
1958	Sim	1	Sil	Sim	1958	0.9110000133514404	28.0855
1959	Sib	1	Sil	Sib	1959	1.100000023841858	28.0855
1960	Sib	1	Sil	Sib	1960	1.100000023841858	28.0855
1961	Sib	1	Sil	Sib	1961	1.100000023841858	28.0855
1962	Sib	1	Sil	Sib	1962	1.100000023841858	28.0855
1963	Sib	1	Sil	Sib	1963	1.100000023841858	28.0855
1964	Sim	1	Sil	Sim	1964	0.9110000133514404	28.0855
1965	Sib	1	Sil	Sib	1965	1.100000023841858	28.0855
1966	Sib	1	Sil	Sib	1966	1.100000023841858	28.0855
1967	Sib	1	Sil	Sib	1967	1.100000023841858	28.0855
1968	Sib	1	Sil	Sib	1968	1.100000023841858	28.0855
1969	Sim	1	Sil	Sim	1969	0.9110000133514404	28.0855
1970	Sib	1	Sil	Sib	1970	1.100000023841858	28.0855
1971	Sim	1	Sil	Sim	1971	0.722000002861023	28.0855
1972	Sib	1	Sil	Sib	1972	1.100000023841858	28.0855
1973	Sib	1	Sil	Sib	1973	1.100000023841858	28.0855
1974	Sib	1	Sil	Sib	1974	1.100000023841858	28.0855
1975	Sim	1	Sil	Sim	1975	0.9110000133514404	28.0855
1976	Sib	1	Sil	Sib	1976	1.100000023841858	28.0855
1977	Sim	1	Sil	Sim	1977	0.9110000133514404	28.0855
1978	Sib	1	Sil	Sib	1978	1.100000023841858	28.0855
1979	Sib	1	Sil	Sib	1979	1.100000023841858	28.0855
1980	Sib	1	Sil	Sib	1980	1.100000023841858	28.0855
1981	Sib	1	Sil	Sib	1981	1.100000023841858	28.0855
1982	Sim	1	Sil	Sim	1982	0.9110000133514404	28.0855
1983	Sib	1	Sil	Sib	1983	1.100000023841858	28.0855
1984	Sib	1	Sil	Sib	1984	1.100000023841858	28.0855
1985	Sib	1	Sil	Sib	1985	1.100000023841858	28.0855
1986	Sib	1	Sil	Sib	1986	1.100000023841858	28.0855
1987	Sib	1	Sil	Sib	1987	1.100000023841858	28.0855
1988	Sib	1	Sil	Sib	1988	1.100000023841858	28.0855
1989	Sib	1	Sil	Sib	1989	1.100000023841858	28.0855
1990	Sib	1	Sil	Sib	1990	1.100000023841858	28.0855
1991	Sib	1	Sil	Sib	1991	1.100000023841858	28.0855
1992	Sib	1	Sil	Sib	1992	1.100000023841858	28.0855
1993	Sib	1	Sil	Sib	1993	1.100000023841858	28.0855
1994	Sib	1	Sil	Sib	1994	1.100000023841858	28.0855
1995	Sim	1	Sil	Sim	1995	0.9110000133514404	28.0855
1996	Sib	1	Sil	Sib	1996	1.100000023841858	28.0855
1997	Sib	1	Sil	Sib	1997	1.100000023841858	28.0855
1998	Sib	1	Sil	Sib	1998	1.100000023841858	28.0855
1999	Sim	1	Sil	Sim	1999	0.9110000133514404	28.0855
2000	Sib	1	Sil	Sib	2000	1.100000023841858	28.0855
2001	Sim	1	Sil	Sim	2001	0.722000002861023	28.0855
2002	Sib	1	Sil	Sib	2002	1.100000023841858	28.0855
2003	Sib	1	Sil	Sib	2003	1.100000023841858	28.0855
2004	Sib	1	Sil	Sib	2004	1.100000023841858	28.0855
2005	Sib	1	Sil	Sib	2005	1.100000023841858	28.0855
2006	Sim	1	Sil	Sim	2006	0.9110000133514404	28.0855
2007	Sib	1	Sil	Sib	2007	1.100000023841858	28.0855
2008	Sib	1	Sil	Sib	2008	1.100000023841858	28.0855
2009	Sib	1	Sil	Sib	2009	1.100000023841858	28.0855
2010	Sib	1	Sil	Sib	2010	1.100000023841858	28.0855
2011	Sib	1	Sil	Sib	2011	1.100000023841858	28.0855
2012	Sim	1	Sil	Sim	2012	0.9110000133514404	28.0855
2013	Sib	1	Sil	Sib	2013	1.100000023841858	28.0855
2014	Sib	1	Sil	Sib	2014	1.100000023841858	28.0855
2015	Sib	1	Sil	Sib	2015	1.100000023841858	28.0855
2016	Sib	1	Sil	Sib	2016	1.100000023841858	28.0855
2017	Sim	1	Sil	Sim	2017	0.9110000133514404	28.0855
2018	Sib	1	Sil	Sib	2018	1.100000023841858	28.0855
2019	Sim	1	Sil	Sim	2019	0.722000002861023	28.0855
2020	Sib	1	Sil	Sib	2020	1.100000023841858	28.0855
2021	Sib	1	Sil	Sib	2021	1.100000023841858	28.0855
2022	Sib	1	Sil	Sib	2022	1.100000023841858	28.0855
2023	Sim	1	Sil	Sim	2023	0.9110000133514404	28.0855
2024	Sib	1	Sil	Sib	2024	1.100000023841858	28.0855
2025	Sim	1	Sil	Sim	2025	0.9110000133514404	28.0855
2026	Sib	1	Sil	Sib	2026	1.100000023841858	28.0855
2027	Sib	1	Sil	Sib	2027	1.100000023841858	28.0855
2028	Sib	1	Sil	Sib	2028	1.100000023841858	28.0855
2029	Sib	1	Sil	Sib	2029	1.100000023841858	28.0855
2030	Sim	1	Sil	Sim	2030	0.9110000133514404	28.0855
2031	Sib	1	Sil	Sib	2031	1.100000023841858	28.0855
2032	Sib	1	Sil	Sib	2032	1.100000023841858	28.0855
2033	Sib	1	Sil	Sib	2033	1.100000023841858	28.0855
2034	Sib	1	Sil	Sib	2034	1.100000023841858	28.0855
2035	Sib	1	Sil	Sib	2035	1.100000023841858	28.0855
2036	Sib	1	Sil	Sib	2036	1.100000023841858	28.0855
2037	Sib	1	Sil	Sib	2037	1.100000023841858	28.0855
2038	Sib	1	Sil	Sib	2038	1.100000023841858	28.0855
2039	Sib	1	Sil	Sib	2039	1.100000023841858	28.0855
2040	Sib	1	Sil	Sib	2040	1.100000023841858	28.0855
2041	Sib	1	Sil	Sib	2041	1.100000023841858	28.0855
2042	Sib	1	Sil	Sib	2042	1.100000023841858	28.0855
2043	Sim	1	Sil	Sim	2043	0.9110000133514404	28.0855
2044	Sib	1	Sil	Sib	2044	1.100000023841858	28.0855
2045	Sib	1	Sil	Sib	2045	1.100000023841858	28.0855
2046	Sib	1	Sil	Sib	2046	1.100000023841858	28.0855
2047	Sim	1	Sil	Sim	2047	0.9110000133514404	28.0855
2048	Sib	1	Sil	Sib	2048	1.100000023841858	28.0855
2049	Sim	1	Sil	Sim	2049	0.722000002861023	28.0855
2050	Sib	1	Sil	Sib	2050	1.100000023841858	28.0855
2051	Sib	1	Sil	Sib	2051	1.100000023841858	28.0855
2052	Sib	1	Sil	Sib	2052	1.100000023841858	28.0855
2053	Sib	1	Sil	Sib	2053	1.100000023841858	28.0855
2054	Sim	1	Sil	Sim	2054	0.9110000133514404	28.0855
2055	Sib	1	Sil	Sib	2055	1.100000023841858	28.0855
2056	Sib	1	Sil	Sib	2056	1.100000023841858	28.0855
2057	Sib	1	Sil	Sib	2057	1.100000023841858	28.0855
2058	Sib	1	Sil	Sib	2058	1.100000023841858	28.0855
2059	Sib	1	Sil	Sib	2059	1.100000023841858	28.0855
2060	Sim	1	Sil	Sim	2060	0.9110000133514404	28.0855
2061	Sib	1	Sil	Sib	2061	1.100000023841858	28.0855
2062	Sib	1	Sil	Sib	2062	1.100000023841858	28.0855
2063	Sib	1	Sil	Sib	2063	1.100000023841858	28.0855
2064	Sib	1	Sil	Sib	2064	1.100000023841858	28.0855
2065	Sim	1	Sil	Sim	2065	0.9110000133514404	28.0855
2066	Sib	1	Sil	Sib	2066	1.100000023841858	28.0855
2067	Sim	1	Sil	Sim	2067	0.722000002861023	28.0855
2068	Sib	1	Sil	Sib	2068	1.100000023841858	28.0855
2069	Sib	1	Sil	Sib	2069	1.100000023841858	28.0855
2070	Sib	1	Sil	Sib	2070	1.100000023841858	28.0855
2071	Sim	1	Sil	Sim	2071	0.9110000133514404	28.0855
2072	Sib	1	Sil	Sib	2072	1.100000023841858	28.0855
2073	Sim	1	Sil	Sim	2073	0.9110000133514404	28.0855
2074	Sib	1	Sil	Sib	2074	1.100000023841858	28.0855
2075	Sib	1	Sil	Sib	2075	1.100000023841858	28.0855
2076	Sib	1	Sil	Sib	2076	1.100000023841858	28.0855
2077	Sib	1	Sil	Sib	2077	1.100000023841858	28.0855
2078	Sim	1	Sil	Sim	2078	0.9110000133514404	28.0855
2079	Sib	1	Sil	Sib	2079	1.100000023841858	28.0855
2080	Sib	1	Sil	Sib	2080	1.100000023841858	28.0855
2081	Sib	1	Sil	Sib	2081	1.100000023841858	28.0855
2082	Sib	1	Sil	Sib	2082	1.100000023841858	28.0855
2083	Sib	1	Sil	Sib	2083	1.100000023841858	28.0855
2084	Sib	1	Sil	Sib	2084	1.100000023841858	28.0855
2085	Sib	1	Sil	Sib	2085	1.100000023841858	28.0855
2086	Sib	1	Sil	Sib	2086	1.100000023841858	28.0855
2087	Sib	1	Sil	Sib	2087	1.100000023841858	28.0855
2088	Sib	1	Sil	Sib	2088	1.100000023841858	28.0855
2089	Sib	1	Sil	Sib	2089	1.100000023841858	28.0855
2090	Sib	1	Sil	Sib	2090	1.100000023841858	28.0855
2091	Sim	1	Sil	Sim	2091	0.9110000133514404	28.0855
2092	Sib	1	Sil	Sib	2092	1.100000023841858	28.0855
2093	Sib	1	Sil	Sib	2093	1.100000023841858	28.0855
2094	Sib	1	Sil	Sib	2094	1.100000023841858	28.0855
2095	Sim	1	Sil	Sim	2095	0.9110000133514404	28.0855
2096	Sib	1	Sil	Sib	2096	1.100000023841858	28.0855
2097	Hm	1	Sil	Hm	2097	0.08799999952316284	1.00784
2098	Hm	1	Sil	Hm	2098	0.08799999952316284	1.00784
2099	Hm	1	Sil	Hm	2099	0.08799999952316284	1.00784
2100	Hm	1	Sil	Hm	2100	0.08799999952316284	1.00784
2101	Hm	1	Sil	Hm	2101	0.08799999952316284	1.00784
2102	Hm	1	Sil	Hm	2102	0.08799999952316284	1.00784
2103	Hm	1	Sil	Hm	2103	0.08799999952316284	1.00784
2104	Hm	1	Sil	Hm	2104	0.08799999952316284	1.00784
2105	Hm	1	Sil	Hm	2105	0.08799999952316284	1.00784
2106	Hm	1	Sil	Hm	2106	0.08799999952316284	1.00784
2107	Hm	1	Sil	Hm	2107	0.08799999952316284	1.00784
2108	Hm	1	Sil	Hm	2108	0.08799999952316284	1.00784
2109	Hm	1	Sil	Hm	2109	0.08799999952316284	1.00784
2110	Hm	1	Sil	Hm	2110	0.08799999952316284	1.00784
2111	Hm	1	Sil	Hm	2111	0.08799999952316284	1.00784
2112	Hm	1	Sil	Hm	2112	0.08799999952316284	1.00784
2113	Hm	1	Sil	Hm	2113	0.08799999952316284	1.00784
2114	Hm	1	Sil	Hm	2114	0.08799999952316284	1.00784
2115	Hm	1	Sil	Hm	2115	0.08799999952316284	1.00784
2116	Hm	1	Sil	Hm	2116	0.08799999952316284	1.00784
2117	Hm	1	Sil	Hm	2117	0.08799999952316284	1.00784
2118	Hm	1	Sil	Hm	2118	0.08799999952316284	1.00784
2119	Hm	1	Sil	Hm	2119	0.08799999952316284	1.00784
2120	Hm	1	Sil	Hm	2120	0.08799999952316284	1.00784
2121	Hm	1	Sil	Hm	2121	0.08799999952316284	1.00784
2122	Hm	1	Sil	Hm	2122	0.08799999952316284	1.00784
2123	Hm	1	Sil	Hm	2123	0.08799999952316284	1.00784
2124	Hm	1	Sil	Hm	2124	0.08799999952316284	1.00784
2125	Hm	1	Sil	Hm	2125	0.08799999952316284	1.00784
2126	Hm	1	Sil	Hm	2126	0.08799999952316284	1.00784
2127	Hm	1	Sil	Hm	2127	0.08799999952316284	1.00784
2128	Hm	1	Sil	Hm	2128	0.08799999952316284	1.00784
2129	Hm	1	Sil	Hm	2129	0.08799999952316284	1.00784
2130	Hm	1	Sil	Hm	2130	0.08799999952316284	1.00784
2131	Hm	1	Sil	Hm	2131	0.08799999952316284	1.00784
2132	Hm	1	Sil	Hm	2132	0.08799999952316284	1.00784
2133	Hm	1	Sil	Hm	2133	0.08799999952316284	1.00784
2134	Hm	1	Sil	Hm	2134	0.08799999952316284	1.00784
2135	Hm	1	Sil	Hm	2135	0.08799999952316284	1.00784
2136	Hm	1	Sil	Hm	2136	0.08799999952316284	1.00784
2137	Hm	1	Sil	Hm	2137	0.08799999952316284	1.00784
2138	Hm	1	Sil	Hm	2138	0.08799999952316284	1.00784
2139	Hm	1	Sil	Hm	2139	0.08799999952316284	1.00784
2140	Hm	1	Sil	Hm	2140	0.08799999952316284	1.00784
2141	Hm	1	Sil	Hm	2141	0.08799999952316284	1.00784
2142	Hm	1	Sil	Hm	2142	0.08799999952316284	1.00784
2143	Hm	1	Sil	Hm	2143	0.08799999952316284	1.00784
2144	Hm	1	Sil	Hm	2144	0.08799999952316284	1.00784
2145	Hm	1	Sil	Hm	2145	0.08799999952316284	1.00784
2146	Hm	1	Sil	Hm	2146	0.08799999952316284	1.00784
2147	Hm	1	Sil	Hm	2147	0.08799999952316284	1.00784
2148	Hm	1	Sil	Hm	2148	0.08799999952316284	1.00784
2149	Hm	1	Sil	Hm	2149	0.08799999952316284	1.00784
2150	Hm	1	Sil	Hm	2150	0.08799999952316284	1.00784
2151	Hm	1	Sil	Hm	2151	0.08799999952316284	1.00784
2152	Hm	1	Sil	Hm	2152	0.08799999952316284	1.00784
2153	Hm	1	Sil	Hm	2153	0.08799999952316284	1.00784
2154	Hm	1	Sil	Hm	2154	0.08799999952316284	1.00784
2155	Hm	1	Sil	Hm	2155	0.08799999952316284	1.00784
2156	Hm	1	Sil	Hm	2156	0.08799999952316284	1.00784
2157	Hm	1	Sil	Hm	2157	0.08799999952316284	1.00784
2158	Hm	1	Sil	Hm	2158	0.08799999952316284	1.00784
2159	Hm	1	Sil	Hm	2159	0.08799999952316284	1.00784
2160	Hm	1	Sil	Hm	2160	0.08799999952316284	1.00784
2161	Hm	1	Sil	Hm	2161	0.08799999952316284	1.00784
2162	Hm	1	Sil	Hm	2162	0.08799999952316284	1.00784
2163	Hm	1	Sil	Hm	2163	0.08799999952316284	1.00784
2164	Hm	1	Sil	Hm	2164	0.08799999952316284	1.00784
2165	Hm	1	Sil	Hm	2165	0.08799999952316284	1.00784
2166	Hm	1	Sil	Hm	2166	0.08799999952316284	1.00784
2167	Hm	1	Sil	Hm	2167	0.08799999952316284	1.00784
2168	Hm	1	Sil	Hm	2168	0.08799999952316284	1.00784
2169	Hm	1	Sil	Hm	2169	0.08799999952316284	1.00784
2170	Hm	1	Sil	Hm	2170	0.08799999952316284	1.00784
2171	Hm	1	Sil	Hm	2171	0.08799999952316284	1.00784
2172	Hm	1	Sil	Hm	2172	0.08799999952316284	1.00784
2173	Hm	1	Sil	Hm	2173	0.08799999952316284	1.00784
2174	Hm	1	Sil	Hm	2174	0.08799999952316284	1.00784
2175	Hm	1	Sil	Hm	2175	0.08799999952316284	1.00784
2176	Hm	1	Sil	Hm	2176	0.08799999952316284	1.00784
2177	Hm	1	Sil	Hm	2177	0.08799999952316284	1.00784
2178	Hm	1	Sil	Hm	2178	0.08799999952316284	1.00784
2179	Hm	1	Sil	Hm	2179	0.08799999952316284	1.00784
2180	Hm	1	Sil	Hm	2180	0.08799999952316284	1.00784
2181	Hm	1	Sil	Hm	2181	0.08799999952316284	1.00784
2182	Hm	1	Sil	Hm	2182	0.08799999952316284	1.00784
2183	Hm	1	Sil	Hm	2183	0.08799999952316284	1.00784
2184	Hm	1	Sil	Hm	2184	0.08799999952316284	1.00784
2185	Hm	1	Sil	Hm	2185	0.08799999952316284	1.00784
2186	Hm	1	Sil	Hm	2186	0.08799999952316284	1.00784
2187	Hm	1	Sil	Hm	2187	0.08799999952316284	1.00784
2188	Hm	1	Sil	Hm	2188	0.08799999952316284	1.00784
2189	Hm	1	Sil	Hm	2189	0.08799999952316284	1.00784
2190	Hm	1	Sil	Hm	2190	0.08799999952316284	1.00784
2191	Hm	1	Sil	Hm	2191	0.08799999952316284	1.00784
2192	Hm	1	Sil	Hm	2192	0.08799999952316284	1.00784
2193	Hm	1	Sil	Hm	2193	0.08799999952316284	1.00784
2194	Hm	1	Sil	Hm	2194	0.08799999952316284	1.00784
2195	Hm	1	Sil	Hm	2195	0.08799999952316284	1.00784
2196	Hm	1	Sil	Hm	2196	0.08799999952316284	1.00784
2197	Hm	1	Sil	Hm	2197	0.08799999952316284	1.00784
2198	Hm	1	Sil	Hm	2198	0.08799999952316284	1.00784
2199	Hm	1	Sil	Hm	2199	0.08799999952316284	1.00784
2200	Hm	1	Sil	Hm	2200	0.08799999952316284	1.00784
2201	Hm	1	Sil	Hm	2201	0.08799999952316284	1.00784
2202	Hm	1	Sil	Hm	2202	0.08799999952316284	1.00784
2203	Hm	1	Sil	Hm	2203	0.08799999952316284	1.00784
2204	Hm	1	Sil	Hm	2204	0.08799999952316284	1.00784
2205	Hm	1	Sil	Hm	2205	0.08799999952316284	1.00784
2206	Hm	1	Sil	Hm	2206	0.08799999952316284	1.00784
2207	Hm	1	Sil	Hm	2207	0.08799999952316284	1.00784
2208	Hm	1	Sil	Hm	2208	0.08799999952316284	1.00784
2209	Hm	1	Sil	Hm	2209	0.08799999952316284	1.00784
2210	Hm	1	Sil	Hm	2210	0.08799999952316284	1.00784
2211	Hm	1	Sil	Hm	2211	0.08799999952316284	1.00784
2212	Hm	1	Sil	Hm	2212	0.08799999952316284	1.00784
2213	Hm	1	Sil	Hm	2213	0.08799999952316284	1.00784
2214	Hm	1	Sil	Hm	2214	0.08799999952316284	1.00784
2215	Hm	1	Sil	Hm	2215	0.08799999952316284	1.00784
2216	Hm	1	Sil	Hm	2216	0.08799999952316284	1.00784
2217	Hm	1	Sil	Hm	2217	0.08799999952316284	1.00784
2218	Hm	1	Sil	Hm	2218	0.08799999952316284	1.00784
2219	Hm	1	Sil	Hm	2219	0.08799999952316284	1.00784
2220	Hm	1	Sil	Hm	2220	0.08799999952316284	1.00784
2221	Hm	1	Sil	Hm	2221	0.08799999952316284	1.00784
2222	Hm	1	Sil	Hm	2222	0.08799999952316284	1.00784
2223	Hm	1	Sil	Hm	2223	0.08799999952316284	1.00784
2224	Hm	1	Sil	Hm	2224	0.08799999952316284	1.00784
2225	Hm	1	Sil	Hm	2225	0.08799999952316284	1.00784
2226	Hm	1	Sil	Hm	2226	0.08799999952316284	1.00784
2227	Hm	1	Sil	Hm	2227	0.08799999952316284	1.00784
2228	Hm	1	Sil	Hm	2228	0.08799999952316284	1.00784
2229	Hm	1	Sil	Hm	2229	0.08799999952316284	1.00784
2230	Hm	1	Sil	Hm	2230	0.08799999952316284	1.00784
2231	Hm	1	Sil	Hm	2231	0.08799999952316284	1.00784
2232	Hm	1	Sil	Hm	2232	0.08799999952316284	1.00784
2233	Hm	1	Sil	Hm	2233	0.08799999952316284	1.00784
2234	Hm	1	Sil	Hm	2234	0.08799999952316284	1.00784
2235	Hm	1	Sil	Hm	2235	0.08799999952316284	1.00784
2236	Hm	1	Sil	Hm	2236	0.08799999952316284	1.00784
2237	Hm	1	Sil	Hm	2237	0.08799999952316284	1.00784
2238	Hm	1	Sil	Hm	2238	0.08799999952316284	1.00784
2239	Hm	1	Sil	Hm	2239	0.08799999952316284	1.00784
2240	Hm	1	Sil	Hm	2240	0.08799999952316284	1.00784
2241	Hm	1	Sil	Hm	2241	0.08799999952316284	1.00784
2242	Hm	1	Sil	Hm	2242	0.08799999952316284	1.00784
2243	Hm	1	Sil	Hm	2243	0.08799999952316284	1.00784
2244	Hm	1	Sil	Hm	2244	0.08799999952316284	1.00784
2245	Hm	1	Sil	Hm	2245	0.08799999952316284	1.00784
2246	Hm	1	Sil	Hm	2246	0.08799999952316284	1.00784
2247	Hm	1	Sil	Hm	2247	0.08799999952316284	1.00784
2248	Hm	1	Sil	Hm	2248	0.08799999952316284	1.00784
2249	Hm	1	Sil	Hm	2249	0.08799999952316284	1.00784
2250	Hm	1	Sil	Hm	2250	0.08799999952316284	1.00784
2251	Hm	1	Sil	Hm	2251	0.08799999952316284	1.00784
2252	Hm	1	Sil	Hm	2252	0.08799999952316284	1.00784
2253	Hm	1	Sil	Hm	2253	0.08799999952316284	1.00784
2254	Hm	1	Sil	Hm	2254	0.08799999952316284	1.00784
2255	Hm	1	Sil	Hm	2255	0.08799999952316284	1.00784
2256	Hm	1	Sil	Hm	2256	0.08799999952316284	1.00784
2257	Hm	1	Sil	Hm	2257	0.08799999952316284	1.00784
2258	Hm	1	Sil	Hm	2258	0.08799999952316284	1.00784
2259	Hm	1	Sil	Hm	2259	0.08799999952316284	1.00784
2260	Hm	1	Sil	Hm	2260	0.08799999952316284	1.00784
2261	Hm	1	Sil	Hm	2261	0.08799999952316284	1.00784
2262	Hm	1	Sil	Hm	2262	0.08799999952316284	1.00784
2263	Hm	1	Sil	Hm	2263	0.08799999952316284	1.00784
2264	Hm	1	Sil	Hm	2264	0.08799999952316284	1.00784
2265	Hm	1	Sil	Hm	2265	0.08799999952316284	1.00784
2266	Hm	1	Sil	Hm	2266	0.08799999952316284	1.00784
2267	Hm	1	Sil	Hm	2267	0.08799999952316284	1.00784
2268	Hm	1	Sil	Hm	2268	0.08799999952316284	1.00784
2269	Hm	1	Sil	Hm	2269	0.08799999952316284	1.00784
2270	Hm	1	Sil	Hm	2270	0.08799999952316284	1.00784
2271	Hm	1	Sil	Hm	2271	0.08799999952316284	1.00784
2272	Hm	1	Sil	Hm	2272	0.08799999952316284	1.00784
2273	Hm	1	Sil	Hm	2273	0.08799999952316284	1.00784
2274	Hm	1	Sil	Hm	2274	0.08799999952316284	1.00784
2275	Hm	1	Sil	Hm	2275	0.08799999952316284	1.00784
2276	Hm	1	Sil	Hm	2276	0.08799999952316284	1.00784
2277	Hm	1	Sil	Hm	2277	0.08799999952316284	1.00784
2278	Hm	1	Sil	Hm	2278	0.08799999952316284	1.00784
2279	Hm	1	Sil	Hm	2279	0.08799999952316284	1.00784
2280	Hm	1	Sil	Hm	2280	0.08799999952316284	1.00784
2281	Hm	1	Sil	Hm	2281	0.08799999952316284	1.00784
2282	Hm	1	Sil	Hm	2282	0.08799999952316284	1.00784
2283	Hm	1	Sil	Hm	2283	0.08799999952316284	1.00784
2284	Hm	1	Sil	Hm	2284	0.08799999952316284	1.00784
2285	Hm	1	Sil	Hm	2285	0.08799999952316284	1.00784
2286	Hm	1	Sil	Hm	2286	0.08799999952316284	1.00784
2287	Hm	1	Sil	Hm	2287	0.08799999952316284	1.00784
2288	Hm	1	Sil	Hm	2288	0.08799999952316284	1.00784
2289	Hm	1	Sil	Hm	2289	0.08799999952316284	1.00784
2290	Hm	1	Sil	Hm	2290	0.08799999952316284	1.00784
2291	Hm	1	Sil	Hm	2291	0.08799999952316284	1.00784
2292	Hm	1	Sil	Hm	2292	0.08799999952316284	1.00784
2293	Hm	1	Sil	Hm	2293	0.08799999952316284	1.00784
2294	Hm	1	Sil	Hm	2294	0.08799999952316284	1.00784
2295	Hm	1	Sil	Hm	2295	0.08799999952316284	1.00784
2296	Hm	1	Sil	Hm	2296	0.08799999952316284	1.00784
2297	Hm	1	Sil	Hm	2297	0.08799999952316284	1.00784
2298	Hm	1	Sil	Hm	2298	0.08799999952316284	1.00784
2299	Hm	1	Sil	Hm	2299	0.08799999952316284	1.00784
2300	Hm	1	Sil	Hm	2300	0.08799999952316284	1.00784
2301	Hm	1	Sil	Hm	2301	0.08799999952316284	1.00784
2302	Hm	1	Sil	Hm	2302	0.08799999952316284	1.00784
2303	Hm	1	Sil	Hm	2303	0.08799999952316284	1.00784
2304	Hm	1	Sil	Hm	2304	0.08799999952316284	1.00784
2305	Hm	1	Sil	Hm	2305	0.08799999952316284	1.00784
2306	Hm	1	Sil	Hm	2306	0.08799999952316284	1.00784
2307	Hm	1	Sil	Hm	2307	0.08799999952316284	1.00784
2308	Hm	1	Sil	Hm	2308	0.08799999952316284	1.00784
2309	Hm	1	Sil	Hm	2309	0.08799999952316284	1.00784
2310	Hm	1	Sil	Hm	2310	0.08799999952316284	1.00784
2311	Hm	1	Sil	Hm	2311	0.08799999952316284	1.00784
2312	Hm	1	Sil	Hm	2312	0.08799999952316284	1.00784
2313	Hm	1	Sil	Hm	2313	0.08799999952316284	1.00784
2314	Hm	1	Sil	Hm	2314	0.08799999952316284	1.00784
2315	Hm	1	Sil	Hm	2315	0.08799999952316284	1.00784
2316	Hm	1	Sil	Hm	2316	0.08799999952316284	1.00784
2317	Hm	1	Sil	Hm	2317	0.08799999952316284	1.00784
2318	Hm	1	Sil	Hm	2318	0.08799999952316284	1.00784
2319	Hm	1	Sil	Hm	2319	0.08799999952316284	1.00784
2320	Hm	1	Sil	Hm	2320	0.08799999952316284	1.00784
2321	Hm	1	Sil	Hm	2321	0.08799999952316284	1.00784
2322	Hm	1	Sil	Hm	2322	0.08799999952316284	1.00784
2323	Hm	1	Sil	Hm	2323	0.08799999952316284	1.00784
2324	Hm	1	Sil	Hm	2324	0.08799999952316284	1.00784
2325	Hm	1	Sil	Hm	2325	0.08799999952316284	1.00784
2326	Hm	1	Sil	Hm	2326	0.08799999952316284	1.00784
2327	Hm	1	Sil	Hm	2327	0.08799999952316284	1.00784
2328	Hm	1	Sil	Hm	2328	0.08799999952316284	1.00784
2329	Hm	1	Sil	Hm	2329	0.08799999952316284	1.00784
2330	Hm	1	Sil	Hm	2330	0.08799999952316284	1.00784
2331	Hm	1	Sil	Hm	2331	0.08799999952316284	1.00784
2332	Hm	1	Sil	Hm	2332	0.08799999952316284	1.00784
2333	Hm	1	Sil	Hm	2333	0.08799999952316284	1.00784
2334	Hm	1	Sil	Hm	2334	0.08799999952316284	1.00784
2335	Hm	1	Sil	Hm	2335	0.08799999952316284	1.00784
2336	Hm	1	Sil	Hm	2336	0.08799999952316284	1.00784
2337	Hm	1	Sil	Hm	2337	0.08799999952316284	1.00784
2338	Hm	1	Sil	Hm	2338	0.08799999952316284	1.00784
2339	Hm	1	Sil	Hm	2339	0.08799999952316284	1.00784
2340	Hm	1	Sil	Hm	2340	0.08799999952316284	1.00784
2341	Hm	1	Sil	Hm	2341	0.08799999952316284	1.00784
2342	Hm	1	Sil	Hm	2342	0.08799999952316284	1.00784
2343	Hm	1	Sil	Hm	2343	0.08799999952316284	1.00784
2344	Hm	1	Sil	Hm	2344	0.08799999952316284	1.00784
2345	Hm	1	Sil	Hm	2345	0.08799999952316284	1.00784
2346	Hm	1	Sil	Hm	2346	0.08799999952316284	1.00784
2347	Hm	1	Sil	Hm	2347	0.08799999952316284	1.00784
2348	Hm	1	Sil	Hm	2348	0.08799999952316284	1.00784
2349	Hm	1	Sil	Hm	2349	0.08799999952316284	1.00784
2350	Hm	1	Sil	Hm	2350	0.08799999952316284	1.00784
2351	Hm	1	Sil	Hm	2351	0.08799999952316284	1.00784
2352	Hm	1	Sil	Hm	2352	0.08799999952316284	1.00784
2353	Hm	1	Sil	Hm	2353	0.08799999952316284	1.00784
2354	Hm	1	Sil	Hm	2354	0.08799999952316284	1.00784
2355	Hm	1	Sil	Hm	2355	0.08799999952316284	1.00784
2356	Hm	1	Sil	Hm	2356	0.08799999952316284	1.00784
2357	Hm	1	Sil	Hm	2357	0.08799999952316284	1.00784
2358	Hm	1	Sil	Hm	2358	0.08799999952316284	1.00784
2359	Hm	1	Sil	Hm	2359	0.08799999952316284	1.00784
2360	Hm	1	Sil	Hm	2360	0.08799999952316284	1.00784
2361	Hm	1	Sil	Hm	2361	0.08799999952316284	1.00784
2362	Hm	1	Sil	Hm	2362	0.08799999952316284	1.00784
2363	Hm	1	Sil	Hm	2363	0.08799999952316284	1.00784
2364	Hm	1	Sil	Hm	2364	0.08799999952316284	1.00784
2365	Hm	1	Sil	Hm	2365	0.08799999952316284	1.00784
2366	Hm	1	Sil	Hm	2366	0.08799999952316284	1.00784
2367	Hm	1	Sil	Hm	2367	0.08799999952316284	1.00784
2368	Hm	1	Sil	Hm	2368	0.08799999952316284	1.00784
2369	Hm	1	Sil	Hm	2369	0.08799999952316284	1.00784
2370	Hm	1	Sil	Hm	2370	0.08799999952316284	1.00784
2371	Hm	1	Sil	Hm	2371	0.08799999952316284	1.00784
2372	Hm	1	Sil	Hm	2372	0.08799999952316284	1.00784
2373	Hm	1	Sil	Hm	2373	0.08799999952316284	1.00784
2374	Hm	1	Sil	Hm	2374	0.08799999952316284	1.00784
2375	Hm	1	Sil	Hm	2375	0.08799999952316284	1.00784
2376	Hm	1	Sil	Hm	2376	0.08799999952316284	1.00784
2377	Hm	1	Sil	Hm	2377	0.08799999952316284	1.00784
2378	Hm	1	Sil	Hm	2378	0.08799999952316284	1.00784
2379	Hm	1	Sil	Hm	2379	0.08799999952316284	1.00784
2380	Hm	1	Sil	Hm	2380	0.08799999952316284	1.00784
2381	Hm	1	Sil	Hm	2381	0.08799999952316284	1.00784
2382	Hm	1	Sil	Hm	2382	0.08799999952316284	1.00784
2383	Hm	1	Sil	Hm	2383	0.08799999952316284	1.00784
2384	Hm	1	Sil	Hm	2384	0.08799999952316284	1.00784
2385	Hm	1	Sil	Hm	2385	0.08799999952316284	1.00784
2386	Hm	1	Sil	Hm	2386	0.08799999952316284	1.00784
2387	Hm	1	Sil	Hm	2387	0.08799999952316284	1.00784
2388	Hm	1	Sil	Hm	2388	0.08799999952316284	1.00784
2389	Hm	1	Sil	Hm	2389	0.08799999952316284	1.00784
2390	Hm	1	Sil	Hm	2390	0.08799999952316284	1.00784
2391	Hm	1	Sil	Hm	2391	0.08799999952316284	1.00784
2392	Hm	1	Sil	Hm	2392	0.08799999952316284	1.00784
2393	Hm	1	Sil	Hm	2393	0.08799999952316284	1.00784
2394	Hm	1	Sil	Hm	2394	0.08799999952316284	1.00784
2395	Hm	1	Sil	Hm	2395	0.08799999952316284	1.00784
2396	Hm	1	Sil	Hm	2396	0.08799999952316284	1.00784
2397	Hm	1	Sil	Hm	2397	0.08799999952316284	1.00784
2398	Hm	1	Sil	Hm	2398	0.08799999952316284	1.00784
2399	Hm	1	Sil	Hm	2399	0.08799999952316284	1.00784
2400	Hm	1	Sil	Hm	2400	0.08799999952316284	1.00784
2401	Hm	1	Sil	Hm	2401	0.08799999952316284	1.00784
2402	Hm	1	Sil	Hm	2402	0.08799999952316284	1.00784
2403	Hm	1	Sil	Hm	2403	0.08799999952316284	1.00784
2404	Hm	1	Sil	Hm	2404	0.08799999952316284	1.00784
2405	Hm	1	Sil	Hm	2405	0.08799999952316284	1.00784
2406	Hm	1	Sil	Hm	2406	0.08799999952316284	1.00784
2407	Hm	1	Sil	Hm	2407	0.08799999952316284	1.00784
2408	Hm	1	Sil	Hm	2408	0.08799999952316284	1.00784
2409	Hm	1	Sil	Hm	2409	0.08799999952316284	1.00784
2410	Hm	1	Sil	Hm	2410	0.08799999952316284	1.00784
2411	Hm	1	Sil	Hm	2411	0.08799999952316284	1.00784
2412	Hm	1	Sil	Hm	2412	0.08799999952316284	1.00784
2413	Hm	1	Sil	Hm	2413	0.08799999952316284	1.00784
2414	Hm	1	Sil	Hm	2414	0.08799999952316284	1.00784
2415	Hm	1	Sil	Hm	2415	0.08799999952316284	1.00784
2416	Hm	1	Sil	Hm	2416	0.08799999952316284	1.00784
2417	Hm	1	Sil	Hm	2417	0.08799999952316284	1.00784
2418	Hm	1	Sil	Hm	2418	0.08799999952316284	1.00784
2419	Hm	1	Sil	Hm	2419	0.08799999952316284	1.00784
2420	Hm	1	Sil	Hm	2420	0.08799999952316284	1.00784
2421	Hm	1	Sil	Hm	2421	0.08799999952316284	1.00784
2422	Hm	1	Sil	Hm	2422	0.08799999952316284	1.00784
2423	Hm	1	Sil	Hm	2423	0.08799999952316284	1.00784
2424	Hm	1	Sil	Hm	2424	0.08799999952316284	1.00784
2425	Hm	1	Sil	Hm	2425	0.08799999952316284	1.00784
2426	Hm	1	Sil	Hm	2426	0.08799999952316284	1.00784
2427	Hm	1	Sil	Hm	2427	0.08799999952316284	1.00784
2428	Hm	1	Sil	Hm	2428	0.08799999952316284	1.00784
2429	Hm	1	Sil	Hm	2429	0.08799999952316284	1.00784
2430	Hm	1	Sil	Hm	2430	0.08799999952316284	1.00784
2431	Hm	1	Sil	Hm	2431	0.08799999952316284	1.00784
2432	Hm	1	Sil	Hm	2432	0.08799999952316284	1.00784
2433	Hm	1	Sil	Hm	2433	0.08799999952316284	1.00784
2434	Hm	1	Sil	Hm	2434	0.08799999952316284	1.00784
2435	Hm	1	Sil	Hm	2435	0.08799999952316284	1.00784
2436	Hm	1	Sil	Hm	2436	0.08799999952316284	1.00784
2437	Hm	1	Sil	Hm	2437	0.08799999952316284	1.00784
2438	Hm	1	Sil	Hm	2438	0.08799999952316284	1.00784
2439	Hm	1	Sil	Hm	2439	0.08799999952316284	1.00784
2440	Hm	1	Sil	Hm	2440	0.08799999952316284	1.00784
2441	Hm	1	Sil	Hm	2441	0.08799999952316284	1.00784
2442	Hm	1	Sil	Hm	2442	0.08799999952316284	1.00784
2443	Hm	1	Sil	Hm	2443	0.08799999952316284	1.00784
2444	Hm	1	Sil	Hm	2444	0.08799999952316284	1.00784
2445	Hm	1	Sil	Hm	2445	0.08799999952316284	1.00784
2446	Hm	1	Sil	Hm	2446	0.08799999952316284	1.00784
2447	Hm	1	Sil	Hm	2447	0.08799999952316284	1.00784
2448	Hm	1	Sil	Hm	2448	0.08799999952316284	1.00784
2449	Hm	1	Sil	Hm	2449	0.08799999952316284	1.00784
2450	Hm	1	Sil	Hm	2450	0.08799999952316284	1.00784
2451	Hm	1	Sil	Hm	2451	0.08799999952316284	1.00784
2452	Hm	1	Sil	Hm	2452	0.08799999952316284	1.00784
2453	Hm	1	Sil	Hm	2453	0.08799999952316284	1.00784
2454	Hm	1	Sil	Hm	2454	0.08799999952316284	1.00784
2455	Hm	1	Sil	Hm	2455	0.08799999952316284	1.00784
2456	Hm	1	Sil	Hm	2456	0.08799999952316284	1.00784
2457	Hm	1	Sil	Hm	2457	0.08799999952316284	1.00784
2458	Hm	1	Sil	Hm	2458	0.08799999952316284	1.00784
2459	Hm	1	Sil	Hm	2459	0.08799999952316284	1.00784
2460	Hm	1	Sil	Hm	2460	0.08799999952316284	1.00784
2461	Hm	1	Sil	Hm	2461	0.08799999952316284	1.00784
2462	Hm	1	Sil	Hm	2462	0.08799999952316284	1.00784
2463	Hm	1	Sil	Hm	2463	0.08799999952316284	1.00784
2464	Hm	1	Sil	Hm	2464	0.08799999952316284	1.00784
2465	Hm	1	Sil	Hm	2465	0.08799999952316284	1.00784
2466	Hm	1	Sil	Hm	2466	0.08799999952316284	1.00784
2467	Hm	1	Sil	Hm	2467	0.08799999952316284	1.00784
2468	Hm	1	Sil	Hm	2468	0.08799999952316284	1.00784
2469	Hm	1	Sil	Hm	2469	0.08799999952316284	1.00784
2470	Hm	1	Sil	Hm	2470	0.08799999952316284	1.00784
2471	Hm	1	Sil	Hm	2471	0.08799999952316284	1.00784
2472	Hm	1	Sil	Hm	2472	0.08799999952316284	1.00784
2473	Hm	1	Sil	Hm	2473	0.08799999952316284	1.00784
2474	Hm	1	Sil	Hm	2474	0.08799999952316284	1.00784
2475	Hm	1	Sil	Hm	2475	0.08799999952316284	1.00784
2476	Hm	1	Sil	Hm	2476	0.08799999952316284	1.00784
2477	Hm	1	Sil	Hm	2477	0.08799999952316284	1.00784
2478	Hm	1	Sil	Hm	2478	0.08799999952316284	1.00784
2479	Hm	1	Sil	Hm	2479	0.08799999952316284	1.00784
2480	Hm	1	Sil	Hm	2480	0.08799999952316284	1.00784
2481	Hm	1	Sil	Hm	2481	0.08799999952316284	1.00784
2482	Hm	1	Sil	Hm	2482	0.08799999952316284	1.00784
2483	Hm	1	Sil	Hm	2483	0.08799999952316284	1.00784
2484	Hm	1	Sil	Hm	2484	0.08799999952316284	1.00784
2485	Hm	1	Sil	Hm	2485	0.08799999952316284	1.00784
2486	Hm	1	Sil	Hm	2486	0.08799999952316284	1.00784
2487	Hm	1	Sil	Hm	2487	0.08799999952316284	1.00784
2488	Hm	1	Sil	Hm	2488	0.08799999952316284	1.00784
2489	Hm	1	Sil	Hm	2489	0.08799999952316284	1.00784
2490	Hm	1	Sil	Hm	2490	0.08799999952316284	1.00784
2491	Hm	1	Sil	Hm	2491	0.08799999952316284	1.00784
2492	Hm	1	Sil	Hm	2492	0.08799999952316284	1.00784
2493	Hm	1	Sil	Hm	2493	0.08799999952316284	1.00784
2494	Hm	1	Sil	Hm	2494	0.08799999952316284	1.00784
2495	Hm	1	Sil	Hm	2495	0.08799999952316284	1.00784
2496	Hm	1	Sil	Hm	2496	0.08799999952316284	1.00784
2497	Hm	1	Sil	Hm	2497	0.08799999952316284	1.00784
2498	Hm	1	Sil	Hm	2498	0.08799999952316284	1.00784
2499	Hm	1	Sil	Hm	2499	0.08799999952316284	1.00784
2500	Hm	1	Sil	Hm	2500	0.08799999952316284	1.00784
2501	Hm	1	Sil	Hm	2501	0.08799999952316284	1.00784
2502	Hm	1	Sil	Hm	2502	0.08799999952316284	1.00784
2503	Hm	1	Sil	Hm	2503	0.08799999952316284	1.00784
2504	Hm	1	Sil	Hm	2504	0.08799999952316284	1.00784
2505	Hm	1	Sil	Hm	2505	0.08799999952316284	1.00784
2506	Hm	1	Sil	Hm	2506	0.08799999952316284	1.00784
2507	Hm	1	Sil	Hm	2507	0.08799999952316284	1.00784
2508	Hm	1	Sil	Hm	2508	0.08799999952316284	1.00784
2509	Hm	1	Sil	Hm	2509	0.08799999952316284	1.00784
2510	Hm	1	Sil	Hm	2510	0.08799999952316284	1.00784
2511	Hm	1	Sil	Hm	2511	0.08799999952316284	1.00784
2512	Hm	1	Sil	Hm	2512	0.08799999952316284	1.00784
2513	Hm	1	Sil	Hm	2513	0.08799999952316284	1.00784
2514	Hm	1	Sil	Hm	2514	0.08799999952316284	1.00784
2515	Hm	1	Sil	Hm	2515	0.08799999952316284	1.00784
2516	Hm	1	Sil	Hm	2516	0.08799999952316284	1.00784
2517	Hm	1	Sil	Hm	2517	0.08799999952316284	1.00784
2518	Hm	1	Sil	Hm	2518	0.08799999952316284	1.00784
2519	Hm	1	Sil	Hm	2519	0.08799999952316284	1.00784
2520	Hm	1	Sil	Hm	2520	0.08799999952316284	1.00784
2521	Hm	1	Sil	Hm	2521	0.08799999952316284	1.00784
2522	Hm	1	Sil	Hm	2522	0.08799999952316284	1.00784
2523	Hm	1	Sil	Hm	2523	0.08799999952316284	1.00784
2524	Hm	1	Sil	Hm	2524	0.08799999952316284	1.00784
2525	Hm	1	Sil	Hm	2525	0.08799999952316284	1.00784
2526	Hm	1	Sil	Hm	2526	0.08799999952316284	1.00784
2527	Hm	1	Sil	Hm	2527	0.08799999952316284	1.00784
2528	Hm	1	Sil	Hm	2528	0.08799999952316284	1.00784
2529	Hm	1	Sil	Hm	2529	0.08799999952316284	1.00784
2530	Hm	1	Sil	Hm	2530	0.08799999952316284	1.00784
2531	Hm	1	Sil	Hm	2531	0.08799999952316284	1.00784
2532	Hm	1	Sil	Hm	2532	0.08799999952316284	1.00784
2533	Hm	1	Sil	Hm	2533	0.08799999952316284	1.00784
2534	Hm	1	Sil	Hm	2534	0.08799999952316284	1.00784
2535	Hm	1	Sil	Hm	2535	0.08799999952316284	1.00784
2536	Hm	1	Sil	Hm	2536	0.08799999952316284	1.00784
2537	Hm	1	Sil	Hm	2537	0.08799999952316284	1.00784
2538	Hm	1	Sil	Hm	2538	0.08799999952316284	1.00784
2539	Hm	1	Sil	Hm	2539	0.08799999952316284	1.00784
2540	Hm	1	Sil	Hm	2540	0.08799999952316284	1.00784
2541	Hm	1	Sil	Hm	2541	0.08799999952316284	1.00784
2542	Hm	1	Sil	Hm	2542	0.08799999952316284	1.00784
2543	Hm	1	Sil	Hm	2543	0.08799999952316284	1.00784
2544	Hm	1	Sil	Hm	2544	0.08799999952316284	1.00784
2545	Hm	1	Sil	Hm	2545	0.08799999952316284	1.00784
2546	Hm	1	Sil	Hm	2546	0.08799999952316284	1.00784
2547	Hm	1	Sil	Hm	2547	0.08799999952316284	1.00784
2548	Hm	1	Sil	Hm	2548	0.08799999952316284	1.00784
2549	Hm	1	Sil	Hm	2549	0.08799999952316284	1.00784
2550	Hm	1	Sil	Hm	2550	0.08799999952316284	1.00784
2551	Hm	1	Sil	Hm	2551	0.08799999952316284	1.00784
2552	Hm	1	Sil	Hm	2552	0.08799999952316284	1.00784
2553	Hm	1	Sil	Hm	2553	0.08799999952316284	1.00784
2554	Hm	1	Sil	Hm	2554	0.08799999952316284	1.00784
2555	Hm	1	Sil	Hm	2555	0.08799999952316284	1.00784
2556	Hm	1	Sil	Hm	2556	0.08799999952316284	1.00784
2557	Hm	1	Sil	Hm	2557	0.08799999952316284	1.00784
2558	Hm	1	Sil	Hm	2558	0.08799999952316284	1.00784
2559	Hm	1	Sil	Hm	2559	0.08799999952316284	1.00784
2560	Hm	1	Sil	Hm	2560	0.08799999952316284	1.00784
2561	Hm	1	Sil	Hm	2561	0.08799999952316284	1.00784
2562	Hm	1	Sil	Hm	2562	0.08799999952316284	1.00784
2563	Hm	1	Sil	Hm	2563	0.08799999952316284	1.00784
2564	Hm	1	Sil	Hm	2564	0.08799999952316284	1.00784
2565	Hm	1	Sil	Hm	2565	0.08799999952316284	1.00784
2566	Hm	1	Sil	Hm	2566	0.08799999952316284	1.00784
2567	Hm	1	Sil	Hm	2567	0.08799999952316284	1.00784
2568	Hm	1	Sil	Hm	2568	0.08799999952316284	1.00784
2569	Hm	1	Sil	Hm	2569	0.08799999952316284	1.00784
2570	Hm	1	Sil	Hm	2570	0.08799999952316284	1.00784
2571	Hm	1	Sil	Hm	2571	0.08799999952316284	1.00784
2572	Hm	1	Sil	Hm	2572	0.08799999952316284	1.00784
2573	Hm	1	Sil	Hm	2573	0.08799999952316284	1.00784
2574	Hm	1	Sil	Hm	2574	0.08799999952316284	1.00784
2575	Hm	1	Sil	Hm	2575	0.08799999952316284	1.00784
2576	Hm	1	Sil	Hm	2576	0.08799999952316284	1.00784

[ bonds ]
;  ai   aj  funct   c0         c1
1	1426	1	0.165	238488.0
1	1575	1	0.165	238488.0
2	1425	1	0.165	238488.0
2	1744	1	0.165	238488.0
3	1427	1	0.165	238488.0
3	1577	1	0.165	238488.0
4	1428	1	0.165	238488.0
4	1458	1	0.165	238488.0
5	1429	1	0.165	238488.0
5	1459	1	0.165	238488.0
6	1430	1	0.165	238488.0
6	1460	1	0.165	238488.0
7	1429	1	0.165	238488.0
7	1431	1	0.165	238488.0
8	1430	1	0.165	238488.0
8	1432	1	0.165	238488.0
9	1433	1	0.165	238488.0
9	1596	1	0.165	238488.0
10	1426	1	0.165	238488.0
10	1434	1	0.165	238488.0
11	1427	1	0.165	238488.0
11	1436	1	0.165	238488.0
12	1426	1	0.165	238488.0
12	1431	1	0.165	238488.0
13	1427	1	0.165	238488.0
13	1433	1	0.165	238488.0
14	1428	1	0.165	238488.0
14	1434	1	0.165	238488.0
15	1429	1	0.165	238488.0
15	1435	1	0.165	238488.0
16	1430	1	0.165	238488.0
16	1436	1	0.165	238488.0
17	1425	1	0.165	238488.0
17	1436	1	0.165	238488.0
18	1426	1	0.165	238488.0
18	1939	1	0.165	238488.0
19	1427	1	0.165	238488.0
19	1434	1	0.165	238488.0
20	1428	1	0.165	238488.0
20	1432	1	0.165	238488.0
21	1429	1	0.165	238488.0
21	1433	1	0.165	238488.0
22	1438	1	0.165	238488.0
22	1587	1	0.165	238488.0
23	1437	1	0.165	238488.0
23	1756	1	0.165	238488.0
24	1439	1	0.165	238488.0
24	1589	1	0.165	238488.0
25	1440	1	0.165	238488.0
25	1470	1	0.165	238488.0
26	1441	1	0.165	238488.0
26	1471	1	0.165	238488.0
27	1442	1	0.165	238488.0
27	1472	1	0.165	238488.0
28	1442	1	0.165	238488.0
28	1444	1	0.165	238488.0
29	1445	1	0.165	238488.0
29	1608	1	0.165	238488.0
30	1438	1	0.165	238488.0
30	1446	1	0.165	238488.0
31	1435	1	0.165	238488.0
31	1437	1	0.165	238488.0
32	1439	1	0.165	238488.0
32	1448	1	0.165	238488.0
33	1438	1	0.165	238488.0
33	1443	1	0.165	238488.0
34	1439	1	0.165	238488.0
34	1445	1	0.165	238488.0
35	1440	1	0.165	238488.0
35	1446	1	0.165	238488.0
36	1441	1	0.165	238488.0
36	1447	1	0.165	238488.0
37	1442	1	0.165	238488.0
37	1448	1	0.165	238488.0
38	1437	1	0.165	238488.0
38	1448	1	0.165	238488.0
39	1438	1	0.165	238488.0
39	1951	1	0.165	238488.0
40	1439	1	0.165	238488.0
40	1446	1	0.165	238488.0
41	1440	1	0.165	238488.0
41	1444	1	0.165	238488.0
42	1441	1	0.165	238488.0
42	1445	1	0.165	238488.0
43	1431	1	0.165	238488.0
43	1442	1	0.165	238488.0
44	1431	1	0.165	238488.0
44	1450	1	0.165	238488.0
45	1449	1	0.165	238488.0
45	1600	1	0.165	238488.0
46	1433	1	0.165	238488.0
46	1451	1	0.165	238488.0
47	1452	1	0.165	238488.0
47	1482	1	0.165	238488.0
48	1453	1	0.165	238488.0
48	1483	1	0.165	238488.0
49	1454	1	0.165	238488.0
49	1484	1	0.165	238488.0
50	1453	1	0.165	238488.0
50	1455	1	0.165	238488.0
51	1454	1	0.165	238488.0
51	1456	1	0.165	238488.0
52	1457	1	0.165	238488.0
52	1620	1	0.165	238488.0
53	1450	1	0.165	238488.0
53	1458	1	0.165	238488.0
54	1451	1	0.165	238488.0
54	1460	1	0.165	238488.0
55	1450	1	0.165	238488.0
55	1455	1	0.165	238488.0
56	1451	1	0.165	238488.0
56	1457	1	0.165	238488.0
57	1452	1	0.165	238488.0
57	1458	1	0.165	238488.0
58	1453	1	0.165	238488.0
58	1459	1	0.165	238488.0
59	1454	1	0.165	238488.0
59	1460	1	0.165	238488.0
60	1450	1	0.165	238488.0
60	1963	1	0.165	238488.0
61	1451	1	0.165	238488.0
61	1458	1	0.165	238488.0
62	1452	1	0.165	238488.0
62	1456	1	0.165	238488.0
63	1453	1	0.165	238488.0
63	1457	1	0.165	238488.0
64	1443	1	0.165	238488.0
64	1462	1	0.165	238488.0
65	1461	1	0.165	238488.0
65	1612	1	0.165	238488.0
66	1445	1	0.165	238488.0
66	1463	1	0.165	238488.0
67	1464	1	0.165	238488.0
67	1494	1	0.165	238488.0
68	1465	1	0.165	238488.0
68	1495	1	0.165	238488.0
69	1466	1	0.165	238488.0
69	1496	1	0.165	238488.0
70	1465	1	0.165	238488.0
70	1467	1	0.165	238488.0
71	1466	1	0.165	238488.0
71	1468	1	0.165	238488.0
72	1469	1	0.165	238488.0
72	1632	1	0.165	238488.0
73	1462	1	0.165	238488.0
73	1470	1	0.165	238488.0
74	1459	1	0.165	238488.0
74	1461	1	0.165	238488.0
75	1463	1	0.165	238488.0
75	1472	1	0.165	238488.0
76	1462	1	0.165	238488.0
76	1467	1	0.165	238488.0
77	1463	1	0.165	238488.0
77	1469	1	0.165	238488.0
78	1464	1	0.165	238488.0
78	1470	1	0.165	238488.0
79	1465	1	0.165	238488.0
79	1471	1	0.165	238488.0
80	1466	1	0.165	238488.0
80	1472	1	0.165	238488.0
81	1461	1	0.165	238488.0
81	1472	1	0.165	238488.0
82	1462	1	0.165	238488.0
82	1975	1	0.165	238488.0
83	1463	1	0.165	238488.0
83	1470	1	0.165	238488.0
84	1464	1	0.165	238488.0
84	1468	1	0.165	238488.0
85	1465	1	0.165	238488.0
85	1469	1	0.165	238488.0
86	1455	1	0.165	238488.0
86	1466	1	0.165	238488.0
87	1455	1	0.165	238488.0
87	1474	1	0.165	238488.0
88	1473	1	0.165	238488.0
88	1624	1	0.165	238488.0
89	1457	1	0.165	238488.0
89	1475	1	0.165	238488.0
90	1476	1	0.165	238488.0
90	1506	1	0.165	238488.0
91	1477	1	0.165	238488.0
91	1507	1	0.165	238488.0
92	1478	1	0.165	238488.0
92	1508	1	0.165	238488.0
93	1477	1	0.165	238488.0
93	1479	1	0.165	238488.0
94	1478	1	0.165	238488.0
94	1480	1	0.165	238488.0
95	1481	1	0.165	238488.0
95	1644	1	0.165	238488.0
96	1474	1	0.165	238488.0
96	1482	1	0.165	238488.0
97	1475	1	0.165	238488.0
97	1484	1	0.165	238488.0
98	1474	1	0.165	238488.0
98	1479	1	0.165	238488.0
99	1475	1	0.165	238488.0
99	1481	1	0.165	238488.0
100	1476	1	0.165	238488.0
100	1482	1	0.165	238488.0
101	1477	1	0.165	238488.0
101	1483	1	0.165	238488.0
102	1478	1	0.165	238488.0
102	1484	1	0.165	238488.0
103	1473	1	0.165	238488.0
103	1484	1	0.165	238488.0
104	1474	1	0.165	238488.0
104	1987	1	0.165	238488.0
105	1475	1	0.165	238488.0
105	1482	1	0.165	238488.0
106	1476	1	0.165	238488.0
106	1480	1	0.165	238488.0
107	1477	1	0.165	238488.0
107	1481	1	0.165	238488.0
108	1467	1	0.165	238488.0
108	1486	1	0.165	238488.0
109	1485	1	0.165	238488.0
109	1636	1	0.165	238488.0
110	1469	1	0.165	238488.0
110	1487	1	0.165	238488.0
111	1488	1	0.165	238488.0
111	1518	1	0.165	238488.0
112	1489	1	0.165	238488.0
112	1519	1	0.165	238488.0
113	1490	1	0.165	238488.0
113	1520	1	0.165	238488.0
114	1489	1	0.165	238488.0
114	1491	1	0.165	238488.0
115	1490	1	0.165	238488.0
115	1492	1	0.165	238488.0
116	1493	1	0.165	238488.0
116	1656	1	0.165	238488.0
117	1486	1	0.165	238488.0
117	1494	1	0.165	238488.0
118	1483	1	0.165	238488.0
118	1485	1	0.165	238488.0
119	1487	1	0.165	238488.0
119	1496	1	0.165	238488.0
120	1486	1	0.165	238488.0
120	1491	1	0.165	238488.0
121	1487	1	0.165	238488.0
121	1493	1	0.165	238488.0
122	1488	1	0.165	238488.0
122	1494	1	0.165	238488.0
123	1489	1	0.165	238488.0
123	1495	1	0.165	238488.0
124	1490	1	0.165	238488.0
124	1496	1	0.165	238488.0
125	1485	1	0.165	238488.0
125	1496	1	0.165	238488.0
126	1486	1	0.165	238488.0
126	1999	1	0.165	238488.0
127	1487	1	0.165	238488.0
127	1494	1	0.165	238488.0
128	1488	1	0.165	238488.0
128	1492	1	0.165	238488.0
129	1489	1	0.165	238488.0
129	1493	1	0.165	238488.0
130	1479	1	0.165	238488.0
130	1490	1	0.165	238488.0
131	1479	1	0.165	238488.0
131	1498	1	0.165	238488.0
132	1497	1	0.165	238488.0
132	1648	1	0.165	238488.0
133	1481	1	0.165	238488.0
133	1499	1	0.165	238488.0
134	1500	1	0.165	238488.0
134	1530	1	0.165	238488.0
135	1501	1	0.165	238488.0
135	1531	1	0.165	238488.0
136	1502	1	0.165	238488.0
136	1532	1	0.165	238488.0
137	1501	1	0.165	238488.0
137	1503	1	0.165	238488.0
138	1502	1	0.165	238488.0
138	1504	1	0.165	238488.0
139	1505	1	0.165	238488.0
139	1668	1	0.165	238488.0
140	1498	1	0.165	238488.0
140	1506	1	0.165	238488.0
141	1499	1	0.165	238488.0
141	1508	1	0.165	238488.0
142	1498	1	0.165	238488.0
142	1503	1	0.165	238488.0
143	1499	1	0.165	238488.0
143	1505	1	0.165	238488.0
144	1500	1	0.165	238488.0
144	1506	1	0.165	238488.0
145	1501	1	0.165	238488.0
145	1507	1	0.165	238488.0
146	1502	1	0.165	238488.0
146	1508	1	0.165	238488.0
147	1498	1	0.165	238488.0
147	2011	1	0.165	238488.0
148	1499	1	0.165	238488.0
148	1506	1	0.165	238488.0
149	1500	1	0.165	238488.0
149	1504	1	0.165	238488.0
150	1501	1	0.165	238488.0
150	1505	1	0.165	238488.0
151	1491	1	0.165	238488.0
151	1510	1	0.165	238488.0
152	1509	1	0.165	238488.0
152	1660	1	0.165	238488.0
153	1493	1	0.165	238488.0
153	1511	1	0.165	238488.0
154	1512	1	0.165	238488.0
154	1542	1	0.165	238488.0
155	1513	1	0.165	238488.0
155	1543	1	0.165	238488.0
156	1514	1	0.165	238488.0
156	1544	1	0.165	238488.0
157	1514	1	0.165	238488.0
157	1516	1	0.165	238488.0
158	1517	1	0.165	238488.0
158	1680	1	0.165	238488.0
159	1510	1	0.165	238488.0
159	1518	1	0.165	238488.0
160	1507	1	0.165	238488.0
160	1509	1	0.165	238488.0
161	1511	1	0.165	238488.0
161	1520	1	0.165	238488.0
162	1510	1	0.165	238488.0
162	1515	1	0.165	238488.0
163	1511	1	0.165	238488.0
163	1517	1	0.165	238488.0
164	1512	1	0.165	238488.0
164	1518	1	0.165	238488.0
165	1513	1	0.165	238488.0
165	1519	1	0.165	238488.0
166	1514	1	0.165	238488.0
166	1520	1	0.165	238488.0
167	1509	1	0.165	238488.0
167	1520	1	0.165	238488.0
168	1510	1	0.165	238488.0
168	2023	1	0.165	238488.0
169	1511	1	0.165	238488.0
169	1518	1	0.165	238488.0
170	1512	1	0.165	238488.0
170	1516	1	0.165	238488.0
171	1513	1	0.165	238488.0
171	1517	1	0.165	238488.0
172	1503	1	0.165	238488.0
172	1514	1	0.165	238488.0
173	1503	1	0.165	238488.0
173	1522	1	0.165	238488.0
174	1521	1	0.165	238488.0
174	1672	1	0.165	238488.0
175	1505	1	0.165	238488.0
175	1523	1	0.165	238488.0
176	1524	1	0.165	238488.0
176	1554	1	0.165	238488.0
177	1525	1	0.165	238488.0
177	1555	1	0.165	238488.0
178	1526	1	0.165	238488.0
178	1556	1	0.165	238488.0
179	1525	1	0.165	238488.0
179	1527	1	0.165	238488.0
180	1526	1	0.165	238488.0
180	1528	1	0.165	238488.0
181	1529	1	0.165	238488.0
181	1692	1	0.165	238488.0
182	1522	1	0.165	238488.0
182	1530	1	0.165	238488.0
183	1523	1	0.165	238488.0
183	1532	1	0.165	238488.0
184	1522	1	0.165	238488.0
184	1527	1	0.165	238488.0
185	1523	1	0.165	238488.0
185	1529	1	0.165	238488.0
186	1524	1	0.165	238488.0
186	1530	1	0.165	238488.0
187	1525	1	0.165	238488.0
187	1531	1	0.165	238488.0
188	1526	1	0.165	238488.0
188	1532	1	0.165	238488.0
189	1521	1	0.165	238488.0
189	1532	1	0.165	238488.0
190	1522	1	0.165	238488.0
190	2035	1	0.165	238488.0
191	1523	1	0.165	238488.0
191	1530	1	0.165	238488.0
192	1524	1	0.165	238488.0
192	1528	1	0.165	238488.0
193	1525	1	0.165	238488.0
193	1529	1	0.165	238488.0
194	1515	1	0.165	238488.0
194	1534	1	0.165	238488.0
195	1533	1	0.165	238488.0
195	1684	1	0.165	238488.0
196	1517	1	0.165	238488.0
196	1535	1	0.165	238488.0
197	1536	1	0.165	238488.0
197	1566	1	0.165	238488.0
198	1537	1	0.165	238488.0
198	1567	1	0.165	238488.0
199	1538	1	0.165	238488.0
199	1568	1	0.165	238488.0
200	1537	1	0.165	238488.0
200	1539	1	0.165	238488.0
201	1538	1	0.165	238488.0
201	1540	1	0.165	238488.0
202	1541	1	0.165	238488.0
202	1704	1	0.165	238488.0
203	1534	1	0.165	238488.0
203	1542	1	0.165	238488.0
204	1531	1	0.165	238488.0
204	1533	1	0.165	238488.0
205	1535	1	0.165	238488.0
205	1544	1	0.165	238488.0
206	1534	1	0.165	238488.0
206	1539	1	0.165	238488.0
207	1535	1	0.165	238488.0
207	1541	1	0.165	238488.0
208	1536	1	0.165	238488.0
208	1542	1	0.165	238488.0
209	1537	1	0.165	238488.0
209	1543	1	0.165	238488.0
210	1538	1	0.165	238488.0
210	1544	1	0.165	238488.0
211	1533	1	0.165	238488.0
211	1544	1	0.165	238488.0
212	1534	1	0.165	238488.0
212	2047	1	0.165	238488.0
213	1535	1	0.165	238488.0
213	1542	1	0.165	238488.0
214	1536	1	0.165	238488.0
214	1540	1	0.165	238488.0
215	1537	1	0.165	238488.0
215	1541	1	0.165	238488.0
216	1527	1	0.165	238488.0
216	1538	1	0.165	238488.0
217	1527	1	0.165	238488.0
217	1546	1	0.165	238488.0
218	1545	1	0.165	238488.0
218	1696	1	0.165	238488.0
219	1529	1	0.165	238488.0
219	1547	1	0.165	238488.0
220	1548	1	0.165	238488.0
220	1578	1	0.165	238488.0
221	1549	1	0.165	238488.0
221	1579	1	0.165	238488.0
222	1550	1	0.165	238488.0
222	1580	1	0.165	238488.0
223	1549	1	0.165	238488.0
223	1551	1	0.165	238488.0
224	1550	1	0.165	238488.0
224	1552	1	0.165	238488.0
225	1553	1	0.165	238488.0
225	1716	1	0.165	238488.0
226	1546	1	0.165	238488.0
226	1554	1	0.165	238488.0
227	1547	1	0.165	238488.0
227	1556	1	0.165	238488.0
228	1546	1	0.165	238488.0
228	1551	1	0.165	238488.0
229	1547	1	0.165	238488.0
229	1553	1	0.165	238488.0
230	1548	1	0.165	238488.0
230	1554	1	0.165	238488.0
231	1549	1	0.165	238488.0
231	1555	1	0.165	238488.0
232	1550	1	0.165	238488.0
232	1556	1	0.165	238488.0
233	1546	1	0.165	238488.0
233	2059	1	0.165	238488.0
234	1547	1	0.165	238488.0
234	1554	1	0.165	238488.0
235	1548	1	0.165	238488.0
235	1552	1	0.165	238488.0
236	1549	1	0.165	238488.0
236	1553	1	0.165	238488.0
237	1539	1	0.165	238488.0
237	1558	1	0.165	238488.0
238	1557	1	0.165	238488.0
238	1708	1	0.165	238488.0
239	1541	1	0.165	238488.0
239	1559	1	0.165	238488.0
240	1560	1	0.165	238488.0
240	1590	1	0.165	238488.0
241	1561	1	0.165	238488.0
241	1591	1	0.165	238488.0
242	1562	1	0.165	238488.0
242	1592	1	0.165	238488.0
243	1561	1	0.165	238488.0
243	1563	1	0.165	238488.0
244	1562	1	0.165	238488.0
244	1564	1	0.165	238488.0
245	1565	1	0.165	238488.0
245	1728	1	0.165	238488.0
246	1558	1	0.165	238488.0
246	1566	1	0.165	238488.0
247	1555	1	0.165	238488.0
247	1557	1	0.165	238488.0
248	1559	1	0.165	238488.0
248	1568	1	0.165	238488.0
249	1558	1	0.165	238488.0
249	1563	1	0.165	238488.0
250	1559	1	0.165	238488.0
250	1565	1	0.165	238488.0
251	1560	1	0.165	238488.0
251	1566	1	0.165	238488.0
252	1561	1	0.165	238488.0
252	1567	1	0.165	238488.0
253	1562	1	0.165	238488.0
253	1568	1	0.165	238488.0
254	1557	1	0.165	238488.0
254	1568	1	0.165	238488.0
255	1558	1	0.165	238488.0
255	2071	1	0.165	238488.0
256	1559	1	0.165	238488.0
256	1566	1	0.165	238488.0
257	1560	1	0.165	238488.0
257	1564	1	0.165	238488.0
258	1561	1	0.165	238488.0
258	1565	1	0.165	238488.0
259	1551	1	0.165	238488.0
259	1562	1	0.165	238488.0
260	1551	1	0.165	238488.0
260	1570	1	0.165	238488.0
261	1569	1	0.165	238488.0
261	1720	1	0.165	238488.0
262	1553	1	0.165	238488.0
262	1571	1	0.165	238488.0
263	1434	1	0.165	238488.0
263	1572	1	0.165	238488.0
264	1435	1	0.165	238488.0
264	1573	1	0.165	238488.0
265	1436	1	0.165	238488.0
265	1574	1	0.165	238488.0
266	1573	1	0.165	238488.0
266	1575	1	0.165	238488.0
267	1574	1	0.165	238488.0
267	1576	1	0.165	238488.0
268	1577	1	0.165	238488.0
268	1740	1	0.165	238488.0
269	1570	1	0.165	238488.0
269	1578	1	0.165	238488.0
270	1571	1	0.165	238488.0
270	1580	1	0.165	238488.0
271	1570	1	0.165	238488.0
271	1575	1	0.165	238488.0
272	1571	1	0.165	238488.0
272	1577	1	0.165	238488.0
273	1572	1	0.165	238488.0
273	1578	1	0.165	238488.0
274	1573	1	0.165	238488.0
274	1579	1	0.165	238488.0
275	1574	1	0.165	238488.0
275	1580	1	0.165	238488.0
276	1569	1	0.165	238488.0
276	1580	1	0.165	238488.0
277	1570	1	0.165	238488.0
277	2083	1	0.165	238488.0
278	1571	1	0.165	238488.0
278	1578	1	0.165	238488.0
279	1572	1	0.165	238488.0
279	1576	1	0.165	238488.0
280	1573	1	0.165	238488.0
280	1577	1	0.165	238488.0
281	1563	1	0.165	238488.0
281	1582	1	0.165	238488.0
282	1581	1	0.165	238488.0
282	1732	1	0.165	238488.0
283	1565	1	0.165	238488.0
283	1583	1	0.165	238488.0
284	1446	1	0.165	238488.0
284	1584	1	0.165	238488.0
285	1447	1	0.165	238488.0
285	1585	1	0.165	238488.0
286	1448	1	0.165	238488.0
286	1586	1	0.165	238488.0
287	1586	1	0.165	238488.0
287	1588	1	0.165	238488.0
288	1589	1	0.165	238488.0
288	1752	1	0.165	238488.0
289	1582	1	0.165	238488.0
289	1590	1	0.165	238488.0
290	1579	1	0.165	238488.0
290	1581	1	0.165	238488.0
291	1583	1	0.165	238488.0
291	1592	1	0.165	238488.0
292	1582	1	0.165	238488.0
292	1587	1	0.165	238488.0
293	1583	1	0.165	238488.0
293	1589	1	0.165	238488.0
294	1584	1	0.165	238488.0
294	1590	1	0.165	238488.0
295	1585	1	0.165	238488.0
295	1591	1	0.165	238488.0
296	1586	1	0.165	238488.0
296	1592	1	0.165	238488.0
297	1581	1	0.165	238488.0
297	1592	1	0.165	238488.0
298	1582	1	0.165	238488.0
298	2095	1	0.165	238488.0
299	1583	1	0.165	238488.0
299	1590	1	0.165	238488.0
300	1584	1	0.165	238488.0
300	1588	1	0.165	238488.0
301	1585	1	0.165	238488.0
301	1589	1	0.165	238488.0
302	1575	1	0.165	238488.0
302	1586	1	0.165	238488.0
303	1594	1	0.165	238488.0
303	1743	1	0.165	238488.0
304	1593	1	0.165	238488.0
304	1912	1	0.165	238488.0
305	1595	1	0.165	238488.0
305	1745	1	0.165	238488.0
306	1596	1	0.165	238488.0
306	1626	1	0.165	238488.0
307	1597	1	0.165	238488.0
307	1627	1	0.165	238488.0
308	1598	1	0.165	238488.0
308	1628	1	0.165	238488.0
309	1597	1	0.165	238488.0
309	1599	1	0.165	238488.0
310	1598	1	0.165	238488.0
310	1600	1	0.165	238488.0
311	1601	1	0.165	238488.0
311	1764	1	0.165	238488.0
312	1594	1	0.165	238488.0
312	1602	1	0.165	238488.0
313	1595	1	0.165	238488.0
313	1604	1	0.165	238488.0
314	1594	1	0.165	238488.0
314	1599	1	0.165	238488.0
315	1425	1	0.165	238488.0
315	1600	1	0.165	238488.0
316	1595	1	0.165	238488.0
316	1601	1	0.165	238488.0
317	1596	1	0.165	238488.0
317	1602	1	0.165	238488.0
318	1597	1	0.165	238488.0
318	1603	1	0.165	238488.0
319	1598	1	0.165	238488.0
319	1604	1	0.165	238488.0
320	1435	1	0.165	238488.0
320	1594	1	0.165	238488.0
321	1595	1	0.165	238488.0
321	1602	1	0.165	238488.0
322	1596	1	0.165	238488.0
322	1600	1	0.165	238488.0
323	1597	1	0.165	238488.0
323	1601	1	0.165	238488.0
324	1606	1	0.165	238488.0
324	1755	1	0.165	238488.0
325	1605	1	0.165	238488.0
325	1924	1	0.165	238488.0
326	1607	1	0.165	238488.0
326	1757	1	0.165	238488.0
327	1608	1	0.165	238488.0
327	1638	1	0.165	238488.0
328	1609	1	0.165	238488.0
328	1639	1	0.165	238488.0
329	1610	1	0.165	238488.0
329	1640	1	0.165	238488.0
330	1610	1	0.165	238488.0
330	1612	1	0.165	238488.0
331	1613	1	0.165	238488.0
331	1776	1	0.165	238488.0
332	1606	1	0.165	238488.0
332	1614	1	0.165	238488.0
333	1603	1	0.165	238488.0
333	1605	1	0.165	238488.0
334	1607	1	0.165	238488.0
334	1616	1	0.165	238488.0
335	1606	1	0.165	238488.0
335	1611	1	0.165	238488.0
336	1437	1	0.165	238488.0
336	1612	1	0.165	238488.0
337	1607	1	0.165	238488.0
337	1613	1	0.165	238488.0
338	1608	1	0.165	238488.0
338	1614	1	0.165	238488.0
339	1609	1	0.165	238488.0
339	1615	1	0.165	238488.0
340	1610	1	0.165	238488.0
340	1616	1	0.165	238488.0
341	1605	1	0.165	238488.0
341	1616	1	0.165	238488.0
342	1447	1	0.165	238488.0
342	1606	1	0.165	238488.0
343	1607	1	0.165	238488.0
343	1614	1	0.165	238488.0
344	1608	1	0.165	238488.0
344	1612	1	0.165	238488.0
345	1609	1	0.165	238488.0
345	1613	1	0.165	238488.0
346	1599	1	0.165	238488.0
346	1610	1	0.165	238488.0
347	1599	1	0.165	238488.0
347	1618	1	0.165	238488.0
348	1617	1	0.165	238488.0
348	1768	1	0.165	238488.0
349	1601	1	0.165	238488.0
349	1619	1	0.165	238488.0
350	1620	1	0.165	238488.0
350	1650	1	0.165	238488.0
351	1621	1	0.165	238488.0
351	1651	1	0.165	238488.0
352	1622	1	0.165	238488.0
352	1652	1	0.165	238488.0
353	1621	1	0.165	238488.0
353	1623	1	0.165	238488.0
354	1622	1	0.165	238488.0
354	1624	1	0.165	238488.0
355	1625	1	0.165	238488.0
355	1788	1	0.165	238488.0
356	1618	1	0.165	238488.0
356	1626	1	0.165	238488.0
357	1619	1	0.165	238488.0
357	1628	1	0.165	238488.0
358	1618	1	0.165	238488.0
358	1623	1	0.165	238488.0
359	1449	1	0.165	238488.0
359	1624	1	0.165	238488.0
360	1619	1	0.165	238488.0
360	1625	1	0.165	238488.0
361	1620	1	0.165	238488.0
361	1626	1	0.165	238488.0
362	1621	1	0.165	238488.0
362	1627	1	0.165	238488.0
363	1622	1	0.165	238488.0
363	1628	1	0.165	238488.0
364	1617	1	0.165	238488.0
364	1628	1	0.165	238488.0
365	1459	1	0.165	238488.0
365	1618	1	0.165	238488.0
366	1619	1	0.165	238488.0
366	1626	1	0.165	238488.0
367	1620	1	0.165	238488.0
367	1624	1	0.165	238488.0
368	1621	1	0.165	238488.0
368	1625	1	0.165	238488.0
369	1611	1	0.165	238488.0
369	1630	1	0.165	238488.0
370	1629	1	0.165	238488.0
370	1780	1	0.165	238488.0
371	1613	1	0.165	238488.0
371	1631	1	0.165	238488.0
372	1632	1	0.165	238488.0
372	1662	1	0.165	238488.0
373	1633	1	0.165	238488.0
373	1663	1	0.165	238488.0
374	1634	1	0.165	238488.0
374	1664	1	0.165	238488.0
375	1633	1	0.165	238488.0
375	1635	1	0.165	238488.0
376	1634	1	0.165	238488.0
376	1636	1	0.165	238488.0
377	1637	1	0.165	238488.0
377	1800	1	0.165	238488.0
378	1630	1	0.165	238488.0
378	1638	1	0.165	238488.0
379	1627	1	0.165	238488.0
379	1629	1	0.165	238488.0
380	1631	1	0.165	238488.0
380	1640	1	0.165	238488.0
381	1630	1	0.165	238488.0
381	1635	1	0.165	238488.0
382	1461	1	0.165	238488.0
382	1636	1	0.165	238488.0
383	1631	1	0.165	238488.0
383	1637	1	0.165	238488.0
384	1632	1	0.165	238488.0
384	1638	1	0.165	238488.0
385	1633	1	0.165	238488.0
385	1639	1	0.165	238488.0
386	1634	1	0.165	238488.0
386	1640	1	0.165	238488.0
387	1629	1	0.165	238488.0
387	1640	1	0.165	238488.0
388	1471	1	0.165	238488.0
388	1630	1	0.165	238488.0
389	1631	1	0.165	238488.0
389	1638	1	0.165	238488.0
390	1632	1	0.165	238488.0
390	1636	1	0.165	238488.0
391	1633	1	0.165	238488.0
391	1637	1	0.165	238488.0
392	1623	1	0.165	238488.0
392	1634	1	0.165	238488.0
393	1623	1	0.165	238488.0
393	1642	1	0.165	238488.0
394	1641	1	0.165	238488.0
394	1792	1	0.165	238488.0
395	1625	1	0.165	238488.0
395	1643	1	0.165	238488.0
396	1644	1	0.165	238488.0
396	1674	1	0.165	238488.0
397	1645	1	0.165	238488.0
397	1675	1	0.165	238488.0
398	1646	1	0.165	238488.0
398	1676	1	0.165	238488.0
399	1645	1	0.165	238488.0
399	1647	1	0.165	238488.0
400	1646	1	0.165	238488.0
400	1648	1	0.165	238488.0
401	1649	1	0.165	238488.0
401	1812	1	0.165	238488.0
402	1642	1	0.165	238488.0
402	1650	1	0.165	238488.0
403	1643	1	0.165	238488.0
403	1652	1	0.165	238488.0
404	1642	1	0.165	238488.0
404	1647	1	0.165	238488.0
405	1473	1	0.165	238488.0
405	1648	1	0.165	238488.0
406	1643	1	0.165	238488.0
406	1649	1	0.165	238488.0
407	1644	1	0.165	238488.0
407	1650	1	0.165	238488.0
408	1645	1	0.165	238488.0
408	1651	1	0.165	238488.0
409	1646	1	0.165	238488.0
409	1652	1	0.165	238488.0
410	1483	1	0.165	238488.0
410	1642	1	0.165	238488.0
411	1643	1	0.165	238488.0
411	1650	1	0.165	238488.0
412	1644	1	0.165	238488.0
412	1648	1	0.165	238488.0
413	1645	1	0.165	238488.0
413	1649	1	0.165	238488.0
414	1635	1	0.165	238488.0
414	1654	1	0.165	238488.0
415	1653	1	0.165	238488.0
415	1804	1	0.165	238488.0
416	1637	1	0.165	238488.0
416	1655	1	0.165	238488.0
417	1656	1	0.165	238488.0
417	1686	1	0.165	238488.0
418	1657	1	0.165	238488.0
418	1687	1	0.165	238488.0
419	1658	1	0.165	238488.0
419	1688	1	0.165	238488.0
420	1657	1	0.165	238488.0
420	1659	1	0.165	238488.0
421	1658	1	0.165	238488.0
421	1660	1	0.165	238488.0
422	1661	1	0.165	238488.0
422	1824	1	0.165	238488.0
423	1654	1	0.165	238488.0
423	1662	1	0.165	238488.0
424	1651	1	0.165	238488.0
424	1653	1	0.165	238488.0
425	1655	1	0.165	238488.0
425	1664	1	0.165	238488.0
426	1654	1	0.165	238488.0
426	1659	1	0.165	238488.0
427	1485	1	0.165	238488.0
427	1660	1	0.165	238488.0
428	1655	1	0.165	238488.0
428	1661	1	0.165	238488.0
429	1656	1	0.165	238488.0
429	1662	1	0.165	238488.0
430	1657	1	0.165	238488.0
430	1663	1	0.165	238488.0
431	1658	1	0.165	238488.0
431	1664	1	0.165	238488.0
432	1653	1	0.165	238488.0
432	1664	1	0.165	238488.0
433	1495	1	0.165	238488.0
433	1654	1	0.165	238488.0
434	1655	1	0.165	238488.0
434	1662	1	0.165	238488.0
435	1656	1	0.165	238488.0
435	1660	1	0.165	238488.0
436	1657	1	0.165	238488.0
436	1661	1	0.165	238488.0
437	1647	1	0.165	238488.0
437	1658	1	0.165	238488.0
438	1647	1	0.165	238488.0
438	1666	1	0.165	238488.0
439	1665	1	0.165	238488.0
439	1816	1	0.165	238488.0
440	1649	1	0.165	238488.0
440	1667	1	0.165	238488.0
441	1668	1	0.165	238488.0
441	1698	1	0.165	238488.0
442	1669	1	0.165	238488.0
442	1699	1	0.165	238488.0
443	1670	1	0.165	238488.0
443	1700	1	0.165	238488.0
444	1669	1	0.165	238488.0
444	1671	1	0.165	238488.0
445	1670	1	0.165	238488.0
445	1672	1	0.165	238488.0
446	1673	1	0.165	238488.0
446	1836	1	0.165	238488.0
447	1666	1	0.165	238488.0
447	1674	1	0.165	238488.0
448	1667	1	0.165	238488.0
448	1676	1	0.165	238488.0
449	1666	1	0.165	238488.0
449	1671	1	0.165	238488.0
450	1497	1	0.165	238488.0
450	1672	1	0.165	238488.0
451	1667	1	0.165	238488.0
451	1673	1	0.165	238488.0
452	1668	1	0.165	238488.0
452	1674	1	0.165	238488.0
453	1669	1	0.165	238488.0
453	1675	1	0.165	238488.0
454	1670	1	0.165	238488.0
454	1676	1	0.165	238488.0
455	1665	1	0.165	238488.0
455	1676	1	0.165	238488.0
456	1507	1	0.165	238488.0
456	1666	1	0.165	238488.0
457	1667	1	0.165	238488.0
457	1674	1	0.165	238488.0
458	1668	1	0.165	238488.0
458	1672	1	0.165	238488.0
459	1669	1	0.165	238488.0
459	1673	1	0.165	238488.0
460	1659	1	0.165	238488.0
460	1678	1	0.165	238488.0
461	1677	1	0.165	238488.0
461	1828	1	0.165	238488.0
462	1661	1	0.165	238488.0
462	1679	1	0.165	238488.0
463	1680	1	0.165	238488.0
463	1710	1	0.165	238488.0
464	1681	1	0.165	238488.0
464	1711	1	0.165	238488.0
465	1682	1	0.165	238488.0
465	1712	1	0.165	238488.0
466	1682	1	0.165	238488.0
466	1684	1	0.165	238488.0
467	1685	1	0.165	238488.0
467	1848	1	0.165	238488.0
468	1678	1	0.165	238488.0
468	1686	1	0.165	238488.0
469	1675	1	0.165	238488.0
469	1677	1	0.165	238488.0
470	1679	1	0.165	238488.0
470	1688	1	0.165	238488.0
471	1678	1	0.165	238488.0
471	1683	1	0.165	238488.0
472	1509	1	0.165	238488.0
472	1684	1	0.165	238488.0
473	1679	1	0.165	238488.0
473	1685	1	0.165	238488.0
474	1680	1	0.165	238488.0
474	1686	1	0.165	238488.0
475	1681	1	0.165	238488.0
475	1687	1	0.165	238488.0
476	1682	1	0.165	238488.0
476	1688	1	0.165	238488.0
477	1677	1	0.165	238488.0
477	1688	1	0.165	238488.0
478	1519	1	0.165	238488.0
478	1678	1	0.165	238488.0
479	1679	1	0.165	238488.0
479	1686	1	0.165	238488.0
480	1680	1	0.165	238488.0
480	1684	1	0.165	238488.0
481	1681	1	0.165	238488.0
481	1685	1	0.165	238488.0
482	1671	1	0.165	238488.0
482	1682	1	0.165	238488.0
483	1671	1	0.165	238488.0
483	1690	1	0.165	238488.0
484	1689	1	0.165	238488.0
484	1840	1	0.165	238488.0
485	1673	1	0.165	238488.0
485	1691	1	0.165	238488.0
486	1692	1	0.165	238488.0
486	1722	1	0.165	238488.0
487	1693	1	0.165	238488.0
487	1723	1	0.165	238488.0
488	1694	1	0.165	238488.0
488	1724	1	0.165	238488.0
489	1693	1	0.165	238488.0
489	1695	1	0.165	238488.0
490	1694	1	0.165	238488.0
490	1696	1	0.165	238488.0
491	1697	1	0.165	238488.0
491	1860	1	0.165	238488.0
492	1690	1	0.165	238488.0
492	1698	1	0.165	238488.0
493	1691	1	0.165	238488.0
493	1700	1	0.165	238488.0
494	1690	1	0.165	238488.0
494	1695	1	0.165	238488.0
495	1521	1	0.165	238488.0
495	1696	1	0.165	238488.0
496	1691	1	0.165	238488.0
496	1697	1	0.165	238488.0
497	1692	1	0.165	238488.0
497	1698	1	0.165	238488.0
498	1693	1	0.165	238488.0
498	1699	1	0.165	238488.0
499	1694	1	0.165	238488.0
499	1700	1	0.165	238488.0
500	1689	1	0.165	238488.0
500	1700	1	0.165	238488.0
501	1531	1	0.165	238488.0
501	1690	1	0.165	238488.0
502	1691	1	0.165	238488.0
502	1698	1	0.165	238488.0
503	1692	1	0.165	238488.0
503	1696	1	0.165	238488.0
504	1693	1	0.165	238488.0
504	1697	1	0.165	238488.0
505	1683	1	0.165	238488.0
505	1702	1	0.165	238488.0
506	1701	1	0.165	238488.0
506	1852	1	0.165	238488.0
507	1685	1	0.165	238488.0
507	1703	1	0.165	238488.0
508	1704	1	0.165	238488.0
508	1734	1	0.165	238488.0
509	1705	1	0.165	238488.0
509	1735	1	0.165	238488.0
510	1706	1	0.165	238488.0
510	1736	1	0.165	238488.0
511	1705	1	0.165	238488.0
511	1707	1	0.165	238488.0
512	1706	1	0.165	238488.0
512	1708	1	0.165	238488.0
513	1709	1	0.165	238488.0
513	1872	1	0.165	238488.0
514	1702	1	0.165	238488.0
514	1710	1	0.165	238488.0
515	1699	1	0.165	238488.0
515	1701	1	0.165	238488.0
516	1703	1	0.165	238488.0
516	1712	1	0.165	238488.0
517	1702	1	0.165	238488.0
517	1707	1	0.165	238488.0
518	1533	1	0.165	238488.0
518	1708	1	0.165	238488.0
519	1703	1	0.165	238488.0
519	1709	1	0.165	238488.0
520	1704	1	0.165	238488.0
520	1710	1	0.165	238488.0
521	1705	1	0.165	238488.0
521	1711	1	0.165	238488.0
522	1706	1	0.165	238488.0
522	1712	1	0.165	238488.0
523	1701	1	0.165	238488.0
523	1712	1	0.165	238488.0
524	1543	1	0.165	238488.0
524	1702	1	0.165	238488.0
525	1703	1	0.165	238488.0
525	1710	1	0.165	238488.0
526	1704	1	0.165	238488.0
526	1708	1	0.165	238488.0
527	1705	1	0.165	238488.0
527	1709	1	0.165	238488.0
528	1695	1	0.165	238488.0
528	1706	1	0.165	238488.0
529	1695	1	0.165	238488.0
529	1714	1	0.165	238488.0
530	1713	1	0.165	238488.0
530	1864	1	0.165	238488.0
531	1697	1	0.165	238488.0
531	1715	1	0.165	238488.0
532	1716	1	0.165	238488.0
532	1746	1	0.165	238488.0
533	1717	1	0.165	238488.0
533	1747	1	0.165	238488.0
534	1718	1	0.165	238488.0
534	1748	1	0.165	238488.0
535	1717	1	0.165	238488.0
535	1719	1	0.165	238488.0
536	1718	1	0.165	238488.0
536	1720	1	0.165	238488.0
537	1721	1	0.165	238488.0
537	1884	1	0.165	238488.0
538	1714	1	0.165	238488.0
538	1722	1	0.165	238488.0
539	1715	1	0.165	238488.0
539	1724	1	0.165	238488.0
540	1714	1	0.165	238488.0
540	1719	1	0.165	238488.0
541	1545	1	0.165	238488.0
541	1720	1	0.165	238488.0
542	1715	1	0.165	238488.0
542	1721	1	0.165	238488.0
543	1716	1	0.165	238488.0
543	1722	1	0.165	238488.0
544	1717	1	0.165	238488.0
544	1723	1	0.165	238488.0
545	1718	1	0.165	238488.0
545	1724	1	0.165	238488.0
546	1555	1	0.165	238488.0
546	1714	1	0.165	238488.0
547	1715	1	0.165	238488.0
547	1722	1	0.165	238488.0
548	1716	1	0.165	238488.0
548	1720	1	0.165	238488.0
549	1717	1	0.165	238488.0
549	1721	1	0.165	238488.0
550	1707	1	0.165	238488.0
550	1726	1	0.165	238488.0
551	1725	1	0.165	238488.0
551	1876	1	0.165	238488.0
552	1709	1	0.165	238488.0
552	1727	1	0.165	238488.0
553	1728	1	0.165	238488.0
553	1758	1	0.165	238488.0
554	1729	1	0.165	238488.0
554	1759	1	0.165	238488.0
555	1730	1	0.165	238488.0
555	1760	1	0.165	238488.0
556	1729	1	0.165	238488.0
556	1731	1	0.165	238488.0
557	1730	1	0.165	238488.0
557	1732	1	0.165	238488.0
558	1733	1	0.165	238488.0
558	1896	1	0.165	238488.0
559	1726	1	0.165	238488.0
559	1734	1	0.165	238488.0
560	1723	1	0.165	238488.0
560	1725	1	0.165	238488.0
561	1727	1	0.165	238488.0
561	1736	1	0.165	238488.0
562	1726	1	0.165	238488.0
562	1731	1	0.165	238488.0
563	1557	1	0.165	238488.0
563	1732	1	0.165	238488.0
564	1727	1	0.165	238488.0
564	1733	1	0.165	238488.0
565	1728	1	0.165	238488.0
565	1734	1	0.165	238488.0
566	1729	1	0.165	238488.0
566	1735	1	0.165	238488.0
567	1730	1	0.165	238488.0
567	1736	1	0.165	238488.0
568	1725	1	0.165	238488.0
568	1736	1	0.165	238488.0
569	1567	1	0.165	238488.0
569	1726	1	0.165	238488.0
570	1727	1	0.165	238488.0
570	1734	1	0.165	238488.0
571	1728	1	0.165	238488.0
571	1732	1	0.165	238488.0
572	1729	1	0.165	238488.0
572	1733	1	0.165	238488.0
573	1719	1	0.165	238488.0
573	1730	1	0.165	238488.0
574	1719	1	0.165	238488.0
574	1738	1	0.165	238488.0
575	1737	1	0.165	238488.0
575	1888	1	0.165	238488.0
576	1721	1	0.165	238488.0
576	1739	1	0.165	238488.0
577	1602	1	0.165	238488.0
577	1740	1	0.165	238488.0
578	1603	1	0.165	238488.0
578	1741	1	0.165	238488.0
579	1604	1	0.165	238488.0
579	1742	1	0.165	238488.0
580	1741	1	0.165	238488.0
580	1743	1	0.165	238488.0
581	1742	1	0.165	238488.0
581	1744	1	0.165	238488.0
582	1745	1	0.165	238488.0
582	1908	1	0.165	238488.0
583	1738	1	0.165	238488.0
583	1746	1	0.165	238488.0
584	1739	1	0.165	238488.0
584	1748	1	0.165	238488.0
585	1738	1	0.165	238488.0
585	1743	1	0.165	238488.0
586	1569	1	0.165	238488.0
586	1744	1	0.165	238488.0
587	1739	1	0.165	238488.0
587	1745	1	0.165	238488.0
588	1740	1	0.165	238488.0
588	1746	1	0.165	238488.0
589	1741	1	0.165	238488.0
589	1747	1	0.165	238488.0
590	1742	1	0.165	238488.0
590	1748	1	0.165	238488.0
591	1737	1	0.165	238488.0
591	1748	1	0.165	238488.0
592	1579	1	0.165	238488.0
592	1738	1	0.165	238488.0
593	1739	1	0.165	238488.0
593	1746	1	0.165	238488.0
594	1740	1	0.165	238488.0
594	1744	1	0.165	238488.0
595	1741	1	0.165	238488.0
595	1745	1	0.165	238488.0
596	1731	1	0.165	238488.0
596	1750	1	0.165	238488.0
597	1749	1	0.165	238488.0
597	1900	1	0.165	238488.0
598	1733	1	0.165	238488.0
598	1751	1	0.165	238488.0
599	1614	1	0.165	238488.0
599	1752	1	0.165	238488.0
600	1615	1	0.165	238488.0
600	1753	1	0.165	238488.0
601	1616	1	0.165	238488.0
601	1754	1	0.165	238488.0
602	1754	1	0.165	238488.0
602	1756	1	0.165	238488.0
603	1757	1	0.165	238488.0
603	1920	1	0.165	238488.0
604	1750	1	0.165	238488.0
604	1758	1	0.165	238488.0
605	1747	1	0.165	238488.0
605	1749	1	0.165	238488.0
606	1751	1	0.165	238488.0
606	1760	1	0.165	238488.0
607	1750	1	0.165	238488.0
607	1755	1	0.165	238488.0
608	1581	1	0.165	238488.0
608	1756	1	0.165	238488.0
609	1751	1	0.165	238488.0
609	1757	1	0.165	238488.0
610	1752	1	0.165	238488.0
610	1758	1	0.165	238488.0
611	1753	1	0.165	238488.0
611	1759	1	0.165	238488.0
612	1754	1	0.165	238488.0
612	1760	1	0.165	238488.0
613	1749	1	0.165	238488.0
613	1760	1	0.165	238488.0
614	1591	1	0.165	238488.0
614	1750	1	0.165	238488.0
615	1751	1	0.165	238488.0
615	1758	1	0.165	238488.0
616	1752	1	0.165	238488.0
616	1756	1	0.165	238488.0
617	1753	1	0.165	238488.0
617	1757	1	0.165	238488.0
618	1743	1	0.165	238488.0
618	1754	1	0.165	238488.0
619	1762	1	0.165	238488.0
619	1911	1	0.165	238488.0
620	1761	1	0.165	238488.0
620	2080	1	0.165	238488.0
621	1763	1	0.165	238488.0
621	1913	1	0.165	238488.0
622	1764	1	0.165	238488.0
622	1794	1	0.165	238488.0
623	1765	1	0.165	238488.0
623	1795	1	0.165	238488.0
624	1766	1	0.165	238488.0
624	1796	1	0.165	238488.0
625	1765	1	0.165	238488.0
625	1767	1	0.165	238488.0
626	1766	1	0.165	238488.0
626	1768	1	0.165	238488.0
627	1769	1	0.165	238488.0
627	1932	1	0.165	238488.0
628	1762	1	0.165	238488.0
628	1770	1	0.165	238488.0
629	1763	1	0.165	238488.0
629	1772	1	0.165	238488.0
630	1762	1	0.165	238488.0
630	1767	1	0.165	238488.0
631	1593	1	0.165	238488.0
631	1768	1	0.165	238488.0
632	1763	1	0.165	238488.0
632	1769	1	0.165	238488.0
633	1764	1	0.165	238488.0
633	1770	1	0.165	238488.0
634	1765	1	0.165	238488.0
634	1771	1	0.165	238488.0
635	1766	1	0.165	238488.0
635	1772	1	0.165	238488.0
636	1761	1	0.165	238488.0
636	1772	1	0.165	238488.0
637	1603	1	0.165	238488.0
637	1762	1	0.165	238488.0
638	1763	1	0.165	238488.0
638	1770	1	0.165	238488.0
639	1764	1	0.165	238488.0
639	1768	1	0.165	238488.0
640	1765	1	0.165	238488.0
640	1769	1	0.165	238488.0
641	1774	1	0.165	238488.0
641	1923	1	0.165	238488.0
642	1773	1	0.165	238488.0
642	2092	1	0.165	238488.0
643	1775	1	0.165	238488.0
643	1925	1	0.165	238488.0
644	1776	1	0.165	238488.0
644	1806	1	0.165	238488.0
645	1777	1	0.165	238488.0
645	1807	1	0.165	238488.0
646	1778	1	0.165	238488.0
646	1808	1	0.165	238488.0
647	1777	1	0.165	238488.0
647	1779	1	0.165	238488.0
648	1778	1	0.165	238488.0
648	1780	1	0.165	238488.0
649	1781	1	0.165	238488.0
649	1944	1	0.165	238488.0
650	1774	1	0.165	238488.0
650	1782	1	0.165	238488.0
651	1771	1	0.165	238488.0
651	1773	1	0.165	238488.0
652	1775	1	0.165	238488.0
652	1784	1	0.165	238488.0
653	1774	1	0.165	238488.0
653	1779	1	0.165	238488.0
654	1605	1	0.165	238488.0
654	1780	1	0.165	238488.0
655	1775	1	0.165	238488.0
655	1781	1	0.165	238488.0
656	1776	1	0.165	238488.0
656	1782	1	0.165	238488.0
657	1777	1	0.165	238488.0
657	1783	1	0.165	238488.0
658	1778	1	0.165	238488.0
658	1784	1	0.165	238488.0
659	1773	1	0.165	238488.0
659	1784	1	0.165	238488.0
660	1615	1	0.165	238488.0
660	1774	1	0.165	238488.0
661	1775	1	0.165	238488.0
661	1782	1	0.165	238488.0
662	1776	1	0.165	238488.0
662	1780	1	0.165	238488.0
663	1777	1	0.165	238488.0
663	1781	1	0.165	238488.0
664	1767	1	0.165	238488.0
664	1778	1	0.165	238488.0
665	1767	1	0.165	238488.0
665	1786	1	0.165	238488.0
666	1785	1	0.165	238488.0
666	1936	1	0.165	238488.0
667	1769	1	0.165	238488.0
667	1787	1	0.165	238488.0
668	1788	1	0.165	238488.0
668	1818	1	0.165	238488.0
669	1789	1	0.165	238488.0
669	1819	1	0.165	238488.0
670	1790	1	0.165	238488.0
670	1820	1	0.165	238488.0
671	1789	1	0.165	238488.0
671	1791	1	0.165	238488.0
672	1790	1	0.165	238488.0
672	1792	1	0.165	238488.0
673	1793	1	0.165	238488.0
673	1956	1	0.165	238488.0
674	1786	1	0.165	238488.0
674	1794	1	0.165	238488.0
675	1787	1	0.165	238488.0
675	1796	1	0.165	238488.0
676	1786	1	0.165	238488.0
676	1791	1	0.165	238488.0
677	1617	1	0.165	238488.0
677	1792	1	0.165	238488.0
678	1787	1	0.165	238488.0
678	1793	1	0.165	238488.0
679	1788	1	0.165	238488.0
679	1794	1	0.165	238488.0
680	1789	1	0.165	238488.0
680	1795	1	0.165	238488.0
681	1790	1	0.165	238488.0
681	1796	1	0.165	238488.0
682	1627	1	0.165	238488.0
682	1786	1	0.165	238488.0
683	1787	1	0.165	238488.0
683	1794	1	0.165	238488.0
684	1788	1	0.165	238488.0
684	1792	1	0.165	238488.0
685	1789	1	0.165	238488.0
685	1793	1	0.165	238488.0
686	1779	1	0.165	238488.0
686	1798	1	0.165	238488.0
687	1797	1	0.165	238488.0
687	1948	1	0.165	238488.0
688	1781	1	0.165	238488.0
688	1799	1	0.165	238488.0
689	1800	1	0.165	238488.0
689	1830	1	0.165	238488.0
690	1801	1	0.165	238488.0
690	1831	1	0.165	238488.0
691	1802	1	0.165	238488.0
691	1832	1	0.165	238488.0
692	1802	1	0.165	238488.0
692	1804	1	0.165	238488.0
693	1805	1	0.165	238488.0
693	1968	1	0.165	238488.0
694	1798	1	0.165	238488.0
694	1806	1	0.165	238488.0
695	1795	1	0.165	238488.0
695	1797	1	0.165	238488.0
696	1799	1	0.165	238488.0
696	1808	1	0.165	238488.0
697	1798	1	0.165	238488.0
697	1803	1	0.165	238488.0
698	1629	1	0.165	238488.0
698	1804	1	0.165	238488.0
699	1799	1	0.165	238488.0
699	1805	1	0.165	238488.0
700	1800	1	0.165	238488.0
700	1806	1	0.165	238488.0
701	1801	1	0.165	238488.0
701	1807	1	0.165	238488.0
702	1802	1	0.165	238488.0
702	1808	1	0.165	238488.0
703	1797	1	0.165	238488.0
703	1808	1	0.165	238488.0
704	1639	1	0.165	238488.0
704	1798	1	0.165	238488.0
705	1799	1	0.165	238488.0
705	1806	1	0.165	238488.0
706	1800	1	0.165	238488.0
706	1804	1	0.165	238488.0
707	1801	1	0.165	238488.0
707	1805	1	0.165	238488.0
708	1791	1	0.165	238488.0
708	1802	1	0.165	238488.0
709	1791	1	0.165	238488.0
709	1810	1	0.165	238488.0
710	1809	1	0.165	238488.0
710	1960	1	0.165	238488.0
711	1793	1	0.165	238488.0
711	1811	1	0.165	238488.0
712	1812	1	0.165	238488.0
712	1842	1	0.165	238488.0
713	1813	1	0.165	238488.0
713	1843	1	0.165	238488.0
714	1814	1	0.165	238488.0
714	1844	1	0.165	238488.0
715	1813	1	0.165	238488.0
715	1815	1	0.165	238488.0
716	1814	1	0.165	238488.0
716	1816	1	0.165	238488.0
717	1817	1	0.165	238488.0
717	1980	1	0.165	238488.0
718	1810	1	0.165	238488.0
718	1818	1	0.165	238488.0
719	1811	1	0.165	238488.0
719	1820	1	0.165	238488.0
720	1810	1	0.165	238488.0
720	1815	1	0.165	238488.0
721	1641	1	0.165	238488.0
721	1816	1	0.165	238488.0
722	1811	1	0.165	238488.0
722	1817	1	0.165	238488.0
723	1812	1	0.165	238488.0
723	1818	1	0.165	238488.0
724	1813	1	0.165	238488.0
724	1819	1	0.165	238488.0
725	1814	1	0.165	238488.0
725	1820	1	0.165	238488.0
726	1809	1	0.165	238488.0
726	1820	1	0.165	238488.0
727	1651	1	0.165	238488.0
727	1810	1	0.165	238488.0
728	1811	1	0.165	238488.0
728	1818	1	0.165	238488.0
729	1812	1	0.165	238488.0
729	1816	1	0.165	238488.0
730	1813	1	0.165	238488.0
730	1817	1	0.165	238488.0
731	1803	1	0.165	238488.0
731	1822	1	0.165	238488.0
732	1821	1	0.165	238488.0
732	1972	1	0.165	238488.0
733	1805	1	0.165	238488.0
733	1823	1	0.165	238488.0
734	1824	1	0.165	238488.0
734	1854	1	0.165	238488.0
735	1825	1	0.165	238488.0
735	1855	1	0.165	238488.0
736	1826	1	0.165	238488.0
736	1856	1	0.165	238488.0
737	1825	1	0.165	238488.0
737	1827	1	0.165	238488.0
738	1826	1	0.165	238488.0
738	1828	1	0.165	238488.0
739	1829	1	0.165	238488.0
739	1992	1	0.165	238488.0
740	1822	1	0.165	238488.0
740	1830	1	0.165	238488.0
741	1819	1	0.165	238488.0
741	1821	1	0.165	238488.0
742	1823	1	0.165	238488.0
742	1832	1	0.165	238488.0
743	1822	1	0.165	238488.0
743	1827	1	0.165	238488.0
744	1653	1	0.165	238488.0
744	1828	1	0.165	238488.0
745	1823	1	0.165	238488.0
745	1829	1	0.165	238488.0
746	1824	1	0.165	238488.0
746	1830	1	0.165	238488.0
747	1825	1	0.165	238488.0
747	1831	1	0.165	238488.0
748	1826	1	0.165	238488.0
748	1832	1	0.165	238488.0
749	1821	1	0.165	238488.0
749	1832	1	0.165	238488.0
750	1663	1	0.165	238488.0
750	1822	1	0.165	238488.0
751	1823	1	0.165	238488.0
751	1830	1	0.165	238488.0
752	1824	1	0.165	238488.0
752	1828	1	0.165	238488.0
753	1825	1	0.165	238488.0
753	1829	1	0.165	238488.0
754	1815	1	0.165	238488.0
754	1826	1	0.165	238488.0
755	1815	1	0.165	238488.0
755	1834	1	0.165	238488.0
756	1833	1	0.165	238488.0
756	1984	1	0.165	238488.0
757	1817	1	0.165	238488.0
757	1835	1	0.165	238488.0
758	1836	1	0.165	238488.0
758	1866	1	0.165	238488.0
759	1837	1	0.165	238488.0
759	1867	1	0.165	238488.0
760	1838	1	0.165	238488.0
760	1868	1	0.165	238488.0
761	1837	1	0.165	238488.0
761	1839	1	0.165	238488.0
762	1838	1	0.165	238488.0
762	1840	1	0.165	238488.0
763	1841	1	0.165	238488.0
763	2004	1	0.165	238488.0
764	1834	1	0.165	238488.0
764	1842	1	0.165	238488.0
765	1835	1	0.165	238488.0
765	1844	1	0.165	238488.0
766	1834	1	0.165	238488.0
766	1839	1	0.165	238488.0
767	1665	1	0.165	238488.0
767	1840	1	0.165	238488.0
768	1835	1	0.165	238488.0
768	1841	1	0.165	238488.0
769	1836	1	0.165	238488.0
769	1842	1	0.165	238488.0
770	1837	1	0.165	238488.0
770	1843	1	0.165	238488.0
771	1838	1	0.165	238488.0
771	1844	1	0.165	238488.0
772	1675	1	0.165	238488.0
772	1834	1	0.165	238488.0
773	1835	1	0.165	238488.0
773	1842	1	0.165	238488.0
774	1836	1	0.165	238488.0
774	1840	1	0.165	238488.0
775	1837	1	0.165	238488.0
775	1841	1	0.165	238488.0
776	1827	1	0.165	238488.0
776	1846	1	0.165	238488.0
777	1845	1	0.165	238488.0
777	1996	1	0.165	238488.0
778	1829	1	0.165	238488.0
778	1847	1	0.165	238488.0
779	1848	1	0.165	238488.0
779	1878	1	0.165	238488.0
780	1849	1	0.165	238488.0
780	1879	1	0.165	238488.0
781	1850	1	0.165	238488.0
781	1880	1	0.165	238488.0
782	1850	1	0.165	238488.0
782	1852	1	0.165	238488.0
783	1853	1	0.165	238488.0
783	2016	1	0.165	238488.0
784	1846	1	0.165	238488.0
784	1854	1	0.165	238488.0
785	1843	1	0.165	238488.0
785	1845	1	0.165	238488.0
786	1847	1	0.165	238488.0
786	1856	1	0.165	238488.0
787	1846	1	0.165	238488.0
787	1851	1	0.165	238488.0
788	1677	1	0.165	238488.0
788	1852	1	0.165	238488.0
789	1847	1	0.165	238488.0
789	1853	1	0.165	238488.0
790	1848	1	0.165	238488.0
790	1854	1	0.165	238488.0
791	1849	1	0.165	238488.0
791	1855	1	0.165	238488.0
792	1850	1	0.165	238488.0
792	1856	1	0.165	238488.0
793	1845	1	0.165	238488.0
793	1856	1	0.165	238488.0
794	1687	1	0.165	238488.0
794	1846	1	0.165	238488.0
795	1847	1	0.165	238488.0
795	1854	1	0.165	238488.0
796	1848	1	0.165	238488.0
796	1852	1	0.165	238488.0
797	1849	1	0.165	238488.0
797	1853	1	0.165	238488.0
798	1839	1	0.165	238488.0
798	1850	1	0.165	238488.0
799	1839	1	0.165	238488.0
799	1858	1	0.165	238488.0
800	1857	1	0.165	238488.0
800	2008	1	0.165	238488.0
801	1841	1	0.165	238488.0
801	1859	1	0.165	238488.0
802	1860	1	0.165	238488.0
802	1890	1	0.165	238488.0
803	1861	1	0.165	238488.0
803	1891	1	0.165	238488.0
804	1862	1	0.165	238488.0
804	1892	1	0.165	238488.0
805	1861	1	0.165	238488.0
805	1863	1	0.165	238488.0
806	1862	1	0.165	238488.0
806	1864	1	0.165	238488.0
807	1865	1	0.165	238488.0
807	2028	1	0.165	238488.0
808	1858	1	0.165	238488.0
808	1866	1	0.165	238488.0
809	1859	1	0.165	238488.0
809	1868	1	0.165	238488.0
810	1858	1	0.165	238488.0
810	1863	1	0.165	238488.0
811	1689	1	0.165	238488.0
811	1864	1	0.165	238488.0
812	1859	1	0.165	238488.0
812	1865	1	0.165	238488.0
813	1860	1	0.165	238488.0
813	1866	1	0.165	238488.0
814	1861	1	0.165	238488.0
814	1867	1	0.165	238488.0
815	1862	1	0.165	238488.0
815	1868	1	0.165	238488.0
816	1857	1	0.165	238488.0
816	1868	1	0.165	238488.0
817	1699	1	0.165	238488.0
817	1858	1	0.165	238488.0
818	1859	1	0.165	238488.0
818	1866	1	0.165	238488.0
819	1860	1	0.165	238488.0
819	1864	1	0.165	238488.0
820	1861	1	0.165	238488.0
820	1865	1	0.165	238488.0
821	1851	1	0.165	238488.0
821	1870	1	0.165	238488.0
822	1869	1	0.165	238488.0
822	2020	1	0.165	238488.0
823	1853	1	0.165	238488.0
823	1871	1	0.165	238488.0
824	1872	1	0.165	238488.0
824	1902	1	0.165	238488.0
825	1873	1	0.165	238488.0
825	1903	1	0.165	238488.0
826	1874	1	0.165	238488.0
826	1904	1	0.165	238488.0
827	1873	1	0.165	238488.0
827	1875	1	0.165	238488.0
828	1874	1	0.165	238488.0
828	1876	1	0.165	238488.0
829	1877	1	0.165	238488.0
829	2040	1	0.165	238488.0
830	1870	1	0.165	238488.0
830	1878	1	0.165	238488.0
831	1867	1	0.165	238488.0
831	1869	1	0.165	238488.0
832	1871	1	0.165	238488.0
832	1880	1	0.165	238488.0
833	1870	1	0.165	238488.0
833	1875	1	0.165	238488.0
834	1701	1	0.165	238488.0
834	1876	1	0.165	238488.0
835	1871	1	0.165	238488.0
835	1877	1	0.165	238488.0
836	1872	1	0.165	238488.0
836	1878	1	0.165	238488.0
837	1873	1	0.165	238488.0
837	1879	1	0.165	238488.0
838	1874	1	0.165	238488.0
838	1880	1	0.165	238488.0
839	1869	1	0.165	238488.0
839	1880	1	0.165	238488.0
840	1711	1	0.165	238488.0
840	1870	1	0.165	238488.0
841	1871	1	0.165	238488.0
841	1878	1	0.165	238488.0
842	1872	1	0.165	238488.0
842	1876	1	0.165	238488.0
843	1873	1	0.165	238488.0
843	1877	1	0.165	238488.0
844	1863	1	0.165	238488.0
844	1874	1	0.165	238488.0
845	1863	1	0.165	238488.0
845	1882	1	0.165	238488.0
846	1881	1	0.165	238488.0
846	2032	1	0.165	238488.0
847	1865	1	0.165	238488.0
847	1883	1	0.165	238488.0
848	1884	1	0.165	238488.0
848	1914	1	0.165	238488.0
849	1885	1	0.165	238488.0
849	1915	1	0.165	238488.0
850	1886	1	0.165	238488.0
850	1916	1	0.165	238488.0
851	1885	1	0.165	238488.0
851	1887	1	0.165	238488.0
852	1886	1	0.165	238488.0
852	1888	1	0.165	238488.0
853	1889	1	0.165	238488.0
853	2052	1	0.165	238488.0
854	1882	1	0.165	238488.0
854	1890	1	0.165	238488.0
855	1883	1	0.165	238488.0
855	1892	1	0.165	238488.0
856	1882	1	0.165	238488.0
856	1887	1	0.165	238488.0
857	1713	1	0.165	238488.0
857	1888	1	0.165	238488.0
858	1883	1	0.165	238488.0
858	1889	1	0.165	238488.0
859	1884	1	0.165	238488.0
859	1890	1	0.165	238488.0
860	1885	1	0.165	238488.0
860	1891	1	0.165	238488.0
861	1886	1	0.165	238488.0
861	1892	1	0.165	238488.0
862	1723	1	0.165	238488.0
862	1882	1	0.165	238488.0
863	1883	1	0.165	238488.0
863	1890	1	0.165	238488.0
864	1884	1	0.165	238488.0
864	1888	1	0.165	238488.0
865	1885	1	0.165	238488.0
865	1889	1	0.165	238488.0
866	1875	1	0.165	238488.0
866	1894	1	0.165	238488.0
867	1893	1	0.165	238488.0
867	2044	1	0.165	238488.0
868	1877	1	0.165	238488.0
868	1895	1	0.165	238488.0
869	1896	1	0.165	238488.0
869	1926	1	0.165	238488.0
870	1897	1	0.165	238488.0
870	1927	1	0.165	238488.0
871	1898	1	0.165	238488.0
871	1928	1	0.165	238488.0
872	1898	1	0.165	238488.0
872	1900	1	0.165	238488.0
873	1901	1	0.165	238488.0
873	2064	1	0.165	238488.0
874	1894	1	0.165	238488.0
874	1902	1	0.165	238488.0
875	1891	1	0.165	238488.0
875	1893	1	0.165	238488.0
876	1895	1	0.165	238488.0
876	1904	1	0.165	238488.0
877	1894	1	0.165	238488.0
877	1899	1	0.165	238488.0
878	1725	1	0.165	238488.0
878	1900	1	0.165	238488.0
879	1895	1	0.165	238488.0
879	1901	1	0.165	238488.0
880	1896	1	0.165	238488.0
880	1902	1	0.165	238488.0
881	1897	1	0.165	238488.0
881	1903	1	0.165	238488.0
882	1898	1	0.165	238488.0
882	1904	1	0.165	238488.0
883	1893	1	0.165	238488.0
883	1904	1	0.165	238488.0
884	1735	1	0.165	238488.0
884	1894	1	0.165	238488.0
885	1895	1	0.165	238488.0
885	1902	1	0.165	238488.0
886	1896	1	0.165	238488.0
886	1900	1	0.165	238488.0
887	1897	1	0.165	238488.0
887	1901	1	0.165	238488.0
888	1887	1	0.165	238488.0
888	1898	1	0.165	238488.0
889	1887	1	0.165	238488.0
889	1906	1	0.165	238488.0
890	1905	1	0.165	238488.0
890	2056	1	0.165	238488.0
891	1889	1	0.165	238488.0
891	1907	1	0.165	238488.0
892	1770	1	0.165	238488.0
892	1908	1	0.165	238488.0
893	1771	1	0.165	238488.0
893	1909	1	0.165	238488.0
894	1772	1	0.165	238488.0
894	1910	1	0.165	238488.0
895	1909	1	0.165	238488.0
895	1911	1	0.165	238488.0
896	1910	1	0.165	238488.0
896	1912	1	0.165	238488.0
897	1913	1	0.165	238488.0
897	2076	1	0.165	238488.0
898	1906	1	0.165	238488.0
898	1914	1	0.165	238488.0
899	1907	1	0.165	238488.0
899	1916	1	0.165	238488.0
900	1906	1	0.165	238488.0
900	1911	1	0.165	238488.0
901	1737	1	0.165	238488.0
901	1912	1	0.165	238488.0
902	1907	1	0.165	238488.0
902	1913	1	0.165	238488.0
903	1908	1	0.165	238488.0
903	1914	1	0.165	238488.0
904	1909	1	0.165	238488.0
904	1915	1	0.165	238488.0
905	1910	1	0.165	238488.0
905	1916	1	0.165	238488.0
906	1905	1	0.165	238488.0
906	1916	1	0.165	238488.0
907	1747	1	0.165	238488.0
907	1906	1	0.165	238488.0
908	1907	1	0.165	238488.0
908	1914	1	0.165	238488.0
909	1908	1	0.165	238488.0
909	1912	1	0.165	238488.0
910	1909	1	0.165	238488.0
910	1913	1	0.165	238488.0
911	1899	1	0.165	238488.0
911	1918	1	0.165	238488.0
912	1917	1	0.165	238488.0
912	2068	1	0.165	238488.0
913	1901	1	0.165	238488.0
913	1919	1	0.165	238488.0
914	1782	1	0.165	238488.0
914	1920	1	0.165	238488.0
915	1783	1	0.165	238488.0
915	1921	1	0.165	238488.0
916	1784	1	0.165	238488.0
916	1922	1	0.165	238488.0
917	1921	1	0.165	238488.0
917	1923	1	0.165	238488.0
918	1922	1	0.165	238488.0
918	1924	1	0.165	238488.0
919	1925	1	0.165	238488.0
919	2088	1	0.165	238488.0
920	1918	1	0.165	238488.0
920	1926	1	0.165	238488.0
921	1915	1	0.165	238488.0
921	1917	1	0.165	238488.0
922	1919	1	0.165	238488.0
922	1928	1	0.165	238488.0
923	1918	1	0.165	238488.0
923	1923	1	0.165	238488.0
924	1749	1	0.165	238488.0
924	1924	1	0.165	238488.0
925	1919	1	0.165	238488.0
925	1925	1	0.165	238488.0
926	1920	1	0.165	238488.0
926	1926	1	0.165	238488.0
927	1921	1	0.165	238488.0
927	1927	1	0.165	238488.0
928	1922	1	0.165	238488.0
928	1928	1	0.165	238488.0
929	1917	1	0.165	238488.0
929	1928	1	0.165	238488.0
930	1759	1	0.165	238488.0
930	1918	1	0.165	238488.0
931	1919	1	0.165	238488.0
931	1926	1	0.165	238488.0
932	1920	1	0.165	238488.0
932	1924	1	0.165	238488.0
933	1921	1	0.165	238488.0
933	1925	1	0.165	238488.0
934	1911	1	0.165	238488.0
934	1922	1	0.165	238488.0
935	1930	1	0.165	238488.0
935	2079	1	0.165	238488.0
936	1931	1	0.165	238488.0
936	2081	1	0.165	238488.0
937	1932	1	0.165	238488.0
937	1962	1	0.165	238488.0
938	1933	1	0.165	238488.0
938	1963	1	0.165	238488.0
939	1934	1	0.165	238488.0
939	1964	1	0.165	238488.0
940	1933	1	0.165	238488.0
940	1935	1	0.165	238488.0
941	1934	1	0.165	238488.0
941	1936	1	0.165	238488.0
942	1428	1	0.165	238488.0
942	1937	1	0.165	238488.0
943	1930	1	0.165	238488.0
943	1938	1	0.165	238488.0
944	1931	1	0.165	238488.0
944	1940	1	0.165	238488.0
945	1930	1	0.165	238488.0
945	1935	1	0.165	238488.0
946	1761	1	0.165	238488.0
946	1936	1	0.165	238488.0
947	1931	1	0.165	238488.0
947	1937	1	0.165	238488.0
948	1932	1	0.165	238488.0
948	1938	1	0.165	238488.0
949	1933	1	0.165	238488.0
949	1939	1	0.165	238488.0
950	1934	1	0.165	238488.0
950	1940	1	0.165	238488.0
951	1929	1	0.165	238488.0
951	1940	1	0.165	238488.0
952	1771	1	0.165	238488.0
952	1930	1	0.165	238488.0
953	1931	1	0.165	238488.0
953	1938	1	0.165	238488.0
954	1932	1	0.165	238488.0
954	1936	1	0.165	238488.0
955	1933	1	0.165	238488.0
955	1937	1	0.165	238488.0
956	1942	1	0.165	238488.0
956	2091	1	0.165	238488.0
957	1943	1	0.165	238488.0
957	2093	1	0.165	238488.0
958	1944	1	0.165	238488.0
958	1974	1	0.165	238488.0
959	1945	1	0.165	238488.0
959	1975	1	0.165	238488.0
960	1946	1	0.165	238488.0
960	1976	1	0.165	238488.0
961	1945	1	0.165	238488.0
961	1947	1	0.165	238488.0
962	1946	1	0.165	238488.0
962	1948	1	0.165	238488.0
963	1440	1	0.165	238488.0
963	1949	1	0.165	238488.0
964	1942	1	0.165	238488.0
964	1950	1	0.165	238488.0
965	1943	1	0.165	238488.0
965	1952	1	0.165	238488.0
966	1942	1	0.165	238488.0
966	1947	1	0.165	238488.0
967	1773	1	0.165	238488.0
967	1948	1	0.165	238488.0
968	1943	1	0.165	238488.0
968	1949	1	0.165	238488.0
969	1944	1	0.165	238488.0
969	1950	1	0.165	238488.0
970	1945	1	0.165	238488.0
970	1951	1	0.165	238488.0
971	1946	1	0.165	238488.0
971	1952	1	0.165	238488.0
972	1941	1	0.165	238488.0
972	1952	1	0.165	238488.0
973	1783	1	0.165	238488.0
973	1942	1	0.165	238488.0
974	1943	1	0.165	238488.0
974	1950	1	0.165	238488.0
975	1944	1	0.165	238488.0
975	1948	1	0.165	238488.0
976	1945	1	0.165	238488.0
976	1949	1	0.165	238488.0
977	1935	1	0.165	238488.0
977	1946	1	0.165	238488.0
978	1935	1	0.165	238488.0
978	1954	1	0.165	238488.0
979	1937	1	0.165	238488.0
979	1955	1	0.165	238488.0
980	1956	1	0.165	238488.0
980	1986	1	0.165	238488.0
981	1957	1	0.165	238488.0
981	1987	1	0.165	238488.0
982	1958	1	0.165	238488.0
982	1988	1	0.165	238488.0
983	1957	1	0.165	238488.0
983	1959	1	0.165	238488.0
984	1958	1	0.165	238488.0
984	1960	1	0.165	238488.0
985	1452	1	0.165	238488.0
985	1961	1	0.165	238488.0
986	1954	1	0.165	238488.0
986	1962	1	0.165	238488.0
987	1955	1	0.165	238488.0
987	1964	1	0.165	238488.0
988	1954	1	0.165	238488.0
988	1959	1	0.165	238488.0
989	1785	1	0.165	238488.0
989	1960	1	0.165	238488.0
990	1955	1	0.165	238488.0
990	1961	1	0.165	238488.0
991	1956	1	0.165	238488.0
991	1962	1	0.165	238488.0
992	1957	1	0.165	238488.0
992	1963	1	0.165	238488.0
993	1958	1	0.165	238488.0
993	1964	1	0.165	238488.0
994	1795	1	0.165	238488.0
994	1954	1	0.165	238488.0
995	1955	1	0.165	238488.0
995	1962	1	0.165	238488.0
996	1956	1	0.165	238488.0
996	1960	1	0.165	238488.0
997	1957	1	0.165	238488.0
997	1961	1	0.165	238488.0
998	1947	1	0.165	238488.0
998	1966	1	0.165	238488.0
999	1949	1	0.165	238488.0
999	1967	1	0.165	238488.0
1000	1968	1	0.165	238488.0
1000	1998	1	0.165	238488.0
1001	1969	1	0.165	238488.0
1001	1999	1	0.165	238488.0
1002	1970	1	0.165	238488.0
1002	2000	1	0.165	238488.0
1003	1970	1	0.165	238488.0
1003	1972	1	0.165	238488.0
1004	1464	1	0.165	238488.0
1004	1973	1	0.165	238488.0
1005	1966	1	0.165	238488.0
1005	1974	1	0.165	238488.0
1006	1967	1	0.165	238488.0
1006	1976	1	0.165	238488.0
1007	1966	1	0.165	238488.0
1007	1971	1	0.165	238488.0
1008	1797	1	0.165	238488.0
1008	1972	1	0.165	238488.0
1009	1967	1	0.165	238488.0
1009	1973	1	0.165	238488.0
1010	1968	1	0.165	238488.0
1010	1974	1	0.165	238488.0
1011	1969	1	0.165	238488.0
1011	1975	1	0.165	238488.0
1012	1970	1	0.165	238488.0
1012	1976	1	0.165	238488.0
1013	1965	1	0.165	238488.0
1013	1976	1	0.165	238488.0
1014	1807	1	0.165	238488.0
1014	1966	1	0.165	238488.0
1015	1967	1	0.165	238488.0
1015	1974	1	0.165	238488.0
1016	1968	1	0.165	238488.0
1016	1972	1	0.165	238488.0
1017	1969	1	0.165	238488.0
1017	1973	1	0.165	238488.0
1018	1959	1	0.165	238488.0
1018	1970	1	0.165	238488.0
1019	1959	1	0.165	238488.0
1019	1978	1	0.165	238488.0
1020	1961	1	0.165	238488.0
1020	1979	1	0.165	238488.0
1021	1980	1	0.165	238488.0
1021	2010	1	0.165	238488.0
1022	1981	1	0.165	238488.0
1022	2011	1	0.165	238488.0
1023	1982	1	0.165	238488.0
1023	2012	1	0.165	238488.0
1024	1981	1	0.165	238488.0
1024	1983	1	0.165	238488.0
1025	1982	1	0.165	238488.0
1025	1984	1	0.165	238488.0
1026	1476	1	0.165	238488.0
1026	1985	1	0.165	238488.0
1027	1978	1	0.165	238488.0
1027	1986	1	0.165	238488.0
1028	1979	1	0.165	238488.0
1028	1988	1	0.165	238488.0
1029	1978	1	0.165	238488.0
1029	1983	1	0.165	238488.0
1030	1809	1	0.165	238488.0
1030	1984	1	0.165	238488.0
1031	1979	1	0.165	238488.0
1031	1985	1	0.165	238488.0
1032	1980	1	0.165	238488.0
1032	1986	1	0.165	238488.0
1033	1981	1	0.165	238488.0
1033	1987	1	0.165	238488.0
1034	1982	1	0.165	238488.0
1034	1988	1	0.165	238488.0
1035	1977	1	0.165	238488.0
1035	1988	1	0.165	238488.0
1036	1819	1	0.165	238488.0
1036	1978	1	0.165	238488.0
1037	1979	1	0.165	238488.0
1037	1986	1	0.165	238488.0
1038	1980	1	0.165	238488.0
1038	1984	1	0.165	238488.0
1039	1981	1	0.165	238488.0
1039	1985	1	0.165	238488.0
1040	1971	1	0.165	238488.0
1040	1990	1	0.165	238488.0
1041	1973	1	0.165	238488.0
1041	1991	1	0.165	238488.0
1042	1992	1	0.165	238488.0
1042	2022	1	0.165	238488.0
1043	1993	1	0.165	238488.0
1043	2023	1	0.165	238488.0
1044	1994	1	0.165	238488.0
1044	2024	1	0.165	238488.0
1045	1993	1	0.165	238488.0
1045	1995	1	0.165	238488.0
1046	1994	1	0.165	238488.0
1046	1996	1	0.165	238488.0
1047	1488	1	0.165	238488.0
1047	1997	1	0.165	238488.0
1048	1990	1	0.165	238488.0
1048	1998	1	0.165	238488.0
1049	1991	1	0.165	238488.0
1049	2000	1	0.165	238488.0
1050	1990	1	0.165	238488.0
1050	1995	1	0.165	238488.0
1051	1821	1	0.165	238488.0
1051	1996	1	0.165	238488.0
1052	1991	1	0.165	238488.0
1052	1997	1	0.165	238488.0
1053	1992	1	0.165	238488.0
1053	1998	1	0.165	238488.0
1054	1993	1	0.165	238488.0
1054	1999	1	0.165	238488.0
1055	1994	1	0.165	238488.0
1055	2000	1	0.165	238488.0
1056	1989	1	0.165	238488.0
1056	2000	1	0.165	238488.0
1057	1831	1	0.165	238488.0
1057	1990	1	0.165	238488.0
1058	1991	1	0.165	238488.0
1058	1998	1	0.165	238488.0
1059	1992	1	0.165	238488.0
1059	1996	1	0.165	238488.0
1060	1993	1	0.165	238488.0
1060	1997	1	0.165	238488.0
1061	1983	1	0.165	238488.0
1061	1994	1	0.165	238488.0
1062	1983	1	0.165	238488.0
1062	2002	1	0.165	238488.0
1063	1985	1	0.165	238488.0
1063	2003	1	0.165	238488.0
1064	2004	1	0.165	238488.0
1064	2034	1	0.165	238488.0
1065	2005	1	0.165	238488.0
1065	2035	1	0.165	238488.0
1066	2006	1	0.165	238488.0
1066	2036	1	0.165	238488.0
1067	2005	1	0.165	238488.0
1067	2007	1	0.165	238488.0
1068	2006	1	0.165	238488.0
1068	2008	1	0.165	238488.0
1069	1500	1	0.165	238488.0
1069	2009	1	0.165	238488.0
1070	2002	1	0.165	238488.0
1070	2010	1	0.165	238488.0
1071	2003	1	0.165	238488.0
1071	2012	1	0.165	238488.0
1072	2002	1	0.165	238488.0
1072	2007	1	0.165	238488.0
1073	1833	1	0.165	238488.0
1073	2008	1	0.165	238488.0
1074	2003	1	0.165	238488.0
1074	2009	1	0.165	238488.0
1075	2004	1	0.165	238488.0
1075	2010	1	0.165	238488.0
1076	2005	1	0.165	238488.0
1076	2011	1	0.165	238488.0
1077	2006	1	0.165	238488.0
1077	2012	1	0.165	238488.0
1078	1843	1	0.165	238488.0
1078	2002	1	0.165	238488.0
1079	2003	1	0.165	238488.0
1079	2010	1	0.165	238488.0
1080	2004	1	0.165	238488.0
1080	2008	1	0.165	238488.0
1081	2005	1	0.165	238488.0
1081	2009	1	0.165	238488.0
1082	1995	1	0.165	238488.0
1082	2014	1	0.165	238488.0
1083	1997	1	0.165	238488.0
1083	2015	1	0.165	238488.0
1084	2016	1	0.165	238488.0
1084	2046	1	0.165	238488.0
1085	2017	1	0.165	238488.0
1085	2047	1	0.165	238488.0
1086	2018	1	0.165	238488.0
1086	2048	1	0.165	238488.0
1087	2018	1	0.165	238488.0
1087	2020	1	0.165	238488.0
1088	1512	1	0.165	238488.0
1088	2021	1	0.165	238488.0
1089	2014	1	0.165	238488.0
1089	2022	1	0.165	238488.0
1090	2015	1	0.165	238488.0
1090	2024	1	0.165	238488.0
1091	2014	1	0.165	238488.0
1091	2019	1	0.165	238488.0
1092	1845	1	0.165	238488.0
1092	2020	1	0.165	238488.0
1093	2015	1	0.165	238488.0
1093	2021	1	0.165	238488.0
1094	2016	1	0.165	238488.0
1094	2022	1	0.165	238488.0
1095	2017	1	0.165	238488.0
1095	2023	1	0.165	238488.0
1096	2018	1	0.165	238488.0
1096	2024	1	0.165	238488.0
1097	2013	1	0.165	238488.0
1097	2024	1	0.165	238488.0
1098	1855	1	0.165	238488.0
1098	2014	1	0.165	238488.0
1099	2015	1	0.165	238488.0
1099	2022	1	0.165	238488.0
1100	2016	1	0.165	238488.0
1100	2020	1	0.165	238488.0
1101	2017	1	0.165	238488.0
1101	2021	1	0.165	238488.0
1102	2007	1	0.165	238488.0
1102	2018	1	0.165	238488.0
1103	2007	1	0.165	238488.0
1103	2026	1	0.165	238488.0
1104	2009	1	0.165	238488.0
1104	2027	1	0.165	238488.0
1105	2028	1	0.165	238488.0
1105	2058	1	0.165	238488.0
1106	2029	1	0.165	238488.0
1106	2059	1	0.165	238488.0
1107	2030	1	0.165	238488.0
1107	2060	1	0.165	238488.0
1108	2029	1	0.165	238488.0
1108	2031	1	0.165	238488.0
1109	2030	1	0.165	238488.0
1109	2032	1	0.165	238488.0
1110	1524	1	0.165	238488.0
1110	2033	1	0.165	238488.0
1111	2026	1	0.165	238488.0
1111	2034	1	0.165	238488.0
1112	2027	1	0.165	238488.0
1112	2036	1	0.165	238488.0
1113	2026	1	0.165	238488.0
1113	2031	1	0.165	238488.0
1114	1857	1	0.165	238488.0
1114	2032	1	0.165	238488.0
1115	2027	1	0.165	238488.0
1115	2033	1	0.165	238488.0
1116	2028	1	0.165	238488.0
1116	2034	1	0.165	238488.0
1117	2029	1	0.165	238488.0
1117	2035	1	0.165	238488.0
1118	2030	1	0.165	238488.0
1118	2036	1	0.165	238488.0
1119	2025	1	0.165	238488.0
1119	2036	1	0.165	238488.0
1120	1867	1	0.165	238488.0
1120	2026	1	0.165	238488.0
1121	2027	1	0.165	238488.0
1121	2034	1	0.165	238488.0
1122	2028	1	0.165	238488.0
1122	2032	1	0.165	238488.0
1123	2029	1	0.165	238488.0
1123	2033	1	0.165	238488.0
1124	2019	1	0.165	238488.0
1124	2038	1	0.165	238488.0
1125	2021	1	0.165	238488.0
1125	2039	1	0.165	238488.0
1126	2040	1	0.165	238488.0
1126	2070	1	0.165	238488.0
1127	2041	1	0.165	238488.0
1127	2071	1	0.165	238488.0
1128	2042	1	0.165	238488.0
1128	2072	1	0.165	238488.0
1129	2041	1	0.165	238488.0
1129	2043	1	0.165	238488.0
1130	2042	1	0.165	238488.0
1130	2044	1	0.165	238488.0
1131	1536	1	0.165	238488.0
1131	2045	1	0.165	238488.0
1132	2038	1	0.165	238488.0
1132	2046	1	0.165	238488.0
1133	2039	1	0.165	238488.0
1133	2048	1	0.165	238488.0
1134	2038	1	0.165	238488.0
1134	2043	1	0.165	238488.0
1135	1869	1	0.165	238488.0
1135	2044	1	0.165	238488.0
1136	2039	1	0.165	238488.0
1136	2045	1	0.165	238488.0
1137	2040	1	0.165	238488.0
1137	2046	1	0.165	238488.0
1138	2041	1	0.165	238488.0
1138	2047	1	0.165	238488.0
1139	2042	1	0.165	238488.0
1139	2048	1	0.165	238488.0
1140	2037	1	0.165	238488.0
1140	2048	1	0.165	238488.0
1141	1879	1	0.165	238488.0
1141	2038	1	0.165	238488.0
1142	2039	1	0.165	238488.0
1142	2046	1	0.165	238488.0
1143	2040	1	0.165	238488.0
1143	2044	1	0.165	238488.0
1144	2041	1	0.165	238488.0
1144	2045	1	0.165	238488.0
1145	2031	1	0.165	238488.0
1145	2042	1	0.165	238488.0
1146	2031	1	0.165	238488.0
1146	2050	1	0.165	238488.0
1147	2033	1	0.165	238488.0
1147	2051	1	0.165	238488.0
1148	2052	1	0.165	238488.0
1148	2082	1	0.165	238488.0
1149	2053	1	0.165	238488.0
1149	2083	1	0.165	238488.0
1150	2054	1	0.165	238488.0
1150	2084	1	0.165	238488.0
1151	2053	1	0.165	238488.0
1151	2055	1	0.165	238488.0
1152	2054	1	0.165	238488.0
1152	2056	1	0.165	238488.0
1153	1548	1	0.165	238488.0
1153	2057	1	0.165	238488.0
1154	2050	1	0.165	238488.0
1154	2058	1	0.165	238488.0
1155	2051	1	0.165	238488.0
1155	2060	1	0.165	238488.0
1156	2050	1	0.165	238488.0
1156	2055	1	0.165	238488.0
1157	1881	1	0.165	238488.0
1157	2056	1	0.165	238488.0
1158	2051	1	0.165	238488.0
1158	2057	1	0.165	238488.0
1159	2052	1	0.165	238488.0
1159	2058	1	0.165	238488.0
1160	2053	1	0.165	238488.0
1160	2059	1	0.165	238488.0
1161	2054	1	0.165	238488.0
1161	2060	1	0.165	238488.0
1162	1891	1	0.165	238488.0
1162	2050	1	0.165	238488.0
1163	2051	1	0.165	238488.0
1163	2058	1	0.165	238488.0
1164	2052	1	0.165	238488.0
1164	2056	1	0.165	238488.0
1165	2053	1	0.165	238488.0
1165	2057	1	0.165	238488.0
1166	2043	1	0.165	238488.0
1166	2062	1	0.165	238488.0
1167	2045	1	0.165	238488.0
1167	2063	1	0.165	238488.0
1168	2064	1	0.165	238488.0
1168	2094	1	0.165	238488.0
1169	2065	1	0.165	238488.0
1169	2095	1	0.165	238488.0
1170	2066	1	0.165	238488.0
1170	2096	1	0.165	238488.0
1171	2066	1	0.165	238488.0
1171	2068	1	0.165	238488.0
1172	1560	1	0.165	238488.0
1172	2069	1	0.165	238488.0
1173	2062	1	0.165	238488.0
1173	2070	1	0.165	238488.0
1174	2063	1	0.165	238488.0
1174	2072	1	0.165	238488.0
1175	2062	1	0.165	238488.0
1175	2067	1	0.165	238488.0
1176	1893	1	0.165	238488.0
1176	2068	1	0.165	238488.0
1177	2063	1	0.165	238488.0
1177	2069	1	0.165	238488.0
1178	2064	1	0.165	238488.0
1178	2070	1	0.165	238488.0
1179	2065	1	0.165	238488.0
1179	2071	1	0.165	238488.0
1180	2066	1	0.165	238488.0
1180	2072	1	0.165	238488.0
1181	2061	1	0.165	238488.0
1181	2072	1	0.165	238488.0
1182	1903	1	0.165	238488.0
1182	2062	1	0.165	238488.0
1183	2063	1	0.165	238488.0
1183	2070	1	0.165	238488.0
1184	2064	1	0.165	238488.0
1184	2068	1	0.165	238488.0
1185	2065	1	0.165	238488.0
1185	2069	1	0.165	238488.0
1186	2055	1	0.165	238488.0
1186	2066	1	0.165	238488.0
1187	2055	1	0.165	238488.0
1187	2074	1	0.165	238488.0
1188	2057	1	0.165	238488.0
1188	2075	1	0.165	238488.0
1189	1938	1	0.165	238488.0
1189	2076	1	0.165	238488.0
1190	1939	1	0.165	238488.0
1190	2077	1	0.165	238488.0
1191	1940	1	0.165	238488.0
1191	2078	1	0.165	238488.0
1192	2077	1	0.165	238488.0
1192	2079	1	0.165	238488.0
1193	2078	1	0.165	238488.0
1193	2080	1	0.165	238488.0
1194	1572	1	0.165	238488.0
1194	2081	1	0.165	238488.0
1195	2074	1	0.165	238488.0
1195	2082	1	0.165	238488.0
1196	2075	1	0.165	238488.0
1196	2084	1	0.165	238488.0
1197	2074	1	0.165	238488.0
1197	2079	1	0.165	238488.0
1198	1905	1	0.165	238488.0
1198	2080	1	0.165	238488.0
1199	2075	1	0.165	238488.0
1199	2081	1	0.165	238488.0
1200	2076	1	0.165	238488.0
1200	2082	1	0.165	238488.0
1201	2077	1	0.165	238488.0
1201	2083	1	0.165	238488.0
1202	2078	1	0.165	238488.0
1202	2084	1	0.165	238488.0
1203	2073	1	0.165	238488.0
1203	2084	1	0.165	238488.0
1204	1915	1	0.165	238488.0
1204	2074	1	0.165	238488.0
1205	2075	1	0.165	238488.0
1205	2082	1	0.165	238488.0
1206	2076	1	0.165	238488.0
1206	2080	1	0.165	238488.0
1207	2077	1	0.165	238488.0
1207	2081	1	0.165	238488.0
1208	2067	1	0.165	238488.0
1208	2086	1	0.165	238488.0
1209	2069	1	0.165	238488.0
1209	2087	1	0.165	238488.0
1210	1950	1	0.165	238488.0
1210	2088	1	0.165	238488.0
1211	1951	1	0.165	238488.0
1211	2089	1	0.165	238488.0
1212	1952	1	0.165	238488.0
1212	2090	1	0.165	238488.0
1213	2089	1	0.165	238488.0
1213	2091	1	0.165	238488.0
1214	2090	1	0.165	238488.0
1214	2092	1	0.165	238488.0
1215	1584	1	0.165	238488.0
1215	2093	1	0.165	238488.0
1216	2086	1	0.165	238488.0
1216	2094	1	0.165	238488.0
1217	2087	1	0.165	238488.0
1217	2096	1	0.165	238488.0
1218	2086	1	0.165	238488.0
1218	2091	1	0.165	238488.0
1219	1917	1	0.165	238488.0
1219	2092	1	0.165	238488.0
1220	2087	1	0.165	238488.0
1220	2093	1	0.165	238488.0
1221	2088	1	0.165	238488.0
1221	2094	1	0.165	238488.0
1222	2089	1	0.165	238488.0
1222	2095	1	0.165	238488.0
1223	2090	1	0.165	238488.0
1223	2096	1	0.165	238488.0
1224	2085	1	0.165	238488.0
1224	2096	1	0.165	238488.0
1225	1927	1	0.165	238488.0
1225	2086	1	0.165	238488.0
1226	2087	1	0.165	238488.0
1226	2094	1	0.165	238488.0
1227	2088	1	0.165	238488.0
1227	2092	1	0.165	238488.0
1228	2089	1	0.165	238488.0
1228	2093	1	0.165	238488.0
1229	2079	1	0.165	238488.0
1229	2090	1	0.165	238488.0
1230	1576	1	0.165	238488.0
1230	1929	1	0.165	238488.0
1231	1588	1	0.165	238488.0
1231	1941	1	0.165	238488.0
1232	1939	1	0.165	238488.0
1232	1941	1	0.165	238488.0
1233	1432	1	0.165	238488.0
1233	1953	1	0.165	238488.0
1234	1444	1	0.165	238488.0
1234	1965	1	0.165	238488.0
1235	1963	1	0.165	238488.0
1235	1965	1	0.165	238488.0
1236	1456	1	0.165	238488.0
1236	1977	1	0.165	238488.0
1237	1468	1	0.165	238488.0
1237	1989	1	0.165	238488.0
1238	1987	1	0.165	238488.0
1238	1989	1	0.165	238488.0
1239	1480	1	0.165	238488.0
1239	2001	1	0.165	238488.0
1240	1492	1	0.165	238488.0
1240	2013	1	0.165	238488.0
1241	2011	1	0.165	238488.0
1241	2013	1	0.165	238488.0
1242	1504	1	0.165	238488.0
1242	2025	1	0.165	238488.0
1243	1516	1	0.165	238488.0
1243	2037	1	0.165	238488.0
1244	2035	1	0.165	238488.0
1244	2037	1	0.165	238488.0
1245	1528	1	0.165	238488.0
1245	2049	1	0.165	238488.0
1246	1540	1	0.165	238488.0
1246	2061	1	0.165	238488.0
1247	2059	1	0.165	238488.0
1247	2061	1	0.165	238488.0
1248	1552	1	0.165	238488.0
1248	2073	1	0.165	238488.0
1249	1564	1	0.165	238488.0
1249	2085	1	0.165	238488.0
1250	2083	1	0.165	238488.0
1250	2085	1	0.165	238488.0
1251	1432	1	0.165	238488.0
1251	1929	1	0.165	238488.0
1252	1444	1	0.165	238488.0
1252	1941	1	0.165	238488.0
1253	1456	1	0.165	238488.0
1253	1953	1	0.165	238488.0
1254	1468	1	0.165	238488.0
1254	1965	1	0.165	238488.0
1255	1480	1	0.165	238488.0
1255	1977	1	0.165	238488.0
1256	1492	1	0.165	238488.0
1256	1989	1	0.165	238488.0
1257	1504	1	0.165	238488.0
1257	2001	1	0.165	238488.0
1258	1516	1	0.165	238488.0
1258	2013	1	0.165	238488.0
1259	1528	1	0.165	238488.0
1259	2025	1	0.165	238488.0
1260	1540	1	0.165	238488.0
1260	2037	1	0.165	238488.0
1261	1552	1	0.165	238488.0
1261	2049	1	0.165	238488.0
1262	1564	1	0.165	238488.0
1262	2061	1	0.165	238488.0
1263	1576	1	0.165	238488.0
1263	2073	1	0.165	238488.0
1264	1588	1	0.165	238488.0
1264	2085	1	0.165	238488.0
1265	1425	1	0.187	29999.278
1265	2097	1	0.109	292272.472
1265	2098	1	0.109	292272.472
1265	2099	1	0.109	292272.472
1266	1430	1	0.187	29999.278
1266	2100	1	0.109	292272.472
1266	2101	1	0.109	292272.472
1266	2102	1	0.109	292272.472
1267	1443	1	0.187	29999.278
1267	2103	1	0.109	292272.472
1267	2104	1	0.109	292272.472
1267	2105	1	0.109	292272.472
1268	1449	1	0.187	29999.278
1268	2106	1	0.109	292272.472
1268	2107	1	0.109	292272.472
1268	2108	1	0.109	292272.472
1269	1497	1	0.187	29999.278
1269	2109	1	0.109	292272.472
1269	2110	1	0.109	292272.472
1269	2111	1	0.109	292272.472
1270	1515	1	0.187	29999.278
1270	2112	1	0.109	292272.472
1270	2113	1	0.109	292272.472
1270	2114	1	0.109	292272.472
1271	1545	1	0.187	29999.278
1271	2115	1	0.109	292272.472
1271	2116	1	0.109	292272.472
1271	2117	1	0.109	292272.472
1272	1587	1	0.187	29999.278
1272	2118	1	0.109	292272.472
1272	2119	1	0.109	292272.472
1272	2120	1	0.109	292272.472
1273	1593	1	0.187	29999.278
1273	2121	1	0.109	292272.472
1273	2122	1	0.109	292272.472
1273	2123	1	0.109	292272.472
1274	1611	1	0.187	29999.278
1274	2124	1	0.109	292272.472
1274	2125	1	0.109	292272.472
1274	2126	1	0.109	292272.472
1275	1641	1	0.187	29999.278
1275	2127	1	0.109	292272.472
1275	2128	1	0.109	292272.472
1275	2129	1	0.109	292272.472
1276	1683	1	0.187	29999.278
1276	2130	1	0.109	292272.472
1276	2131	1	0.109	292272.472
1276	2132	1	0.109	292272.472
1277	1713	1	0.187	29999.278
1277	2133	1	0.109	292272.472
1277	2134	1	0.109	292272.472
1277	2135	1	0.109	292272.472
1278	1755	1	0.187	29999.278
1278	2136	1	0.109	292272.472
1278	2137	1	0.109	292272.472
1278	2138	1	0.109	292272.472
1279	1785	1	0.187	29999.278
1279	2139	1	0.109	292272.472
1279	2140	1	0.109	292272.472
1279	2141	1	0.109	292272.472
1280	1803	1	0.187	29999.278
1280	2142	1	0.109	292272.472
1280	2143	1	0.109	292272.472
1280	2144	1	0.109	292272.472
1281	1833	1	0.187	29999.278
1281	2145	1	0.109	292272.472
1281	2146	1	0.109	292272.472
1281	2147	1	0.109	292272.472
1282	1851	1	0.187	29999.278
1282	2148	1	0.109	292272.472
1282	2149	1	0.109	292272.472
1282	2150	1	0.109	292272.472
1283	1881	1	0.187	29999.278
1283	2151	1	0.109	292272.472
1283	2152	1	0.109	292272.472
1283	2153	1	0.109	292272.472
1284	1899	1	0.187	29999.278
1284	2154	1	0.109	292272.472
1284	2155	1	0.109	292272.472
1284	2156	1	0.109	292272.472
1285	1953	1	0.187	29999.278
1285	2157	1	0.109	292272.472
1285	2158	1	0.109	292272.472
1285	2159	1	0.109	292272.472
1286	1971	1	0.187	29999.278
1286	2160	1	0.109	292272.472
1286	2161	1	0.109	292272.472
1286	2162	1	0.109	292272.472
1287	2001	1	0.187	29999.278
1287	2163	1	0.109	292272.472
1287	2164	1	0.109	292272.472
1287	2165	1	0.109	292272.472
1288	2019	1	0.187	29999.278
1288	2166	1	0.109	292272.472
1288	2167	1	0.109	292272.472
1288	2168	1	0.109	292272.472
1289	2049	1	0.187	29999.278
1289	2169	1	0.109	292272.472
1289	2170	1	0.109	292272.472
1289	2171	1	0.109	292272.472
1290	2067	1	0.187	29999.278
1290	2172	1	0.109	292272.472
1290	2173	1	0.109	292272.472
1290	2174	1	0.109	292272.472
1291	1441	1	0.187	29999.278
1291	2175	1	0.109	292272.472
1291	2176	1	0.109	292272.472
1291	2177	1	0.109	292272.472
1292	1447	1	0.187	29999.278
1292	2178	1	0.109	292272.472
1292	2179	1	0.109	292272.472
1292	2180	1	0.109	292272.472
1293	1443	1	0.187	29999.278
1293	2181	1	0.109	292272.472
1293	2182	1	0.109	292272.472
1293	2183	1	0.109	292272.472
1294	1471	1	0.187	29999.278
1294	2184	1	0.109	292272.472
1294	2185	1	0.109	292272.472
1294	2186	1	0.109	292272.472
1295	1467	1	0.187	29999.278
1295	2187	1	0.109	292272.472
1295	2188	1	0.109	292272.472
1295	2189	1	0.109	292272.472
1296	1495	1	0.187	29999.278
1296	2190	1	0.109	292272.472
1296	2191	1	0.109	292272.472
1296	2192	1	0.109	292272.472
1297	1491	1	0.187	29999.278
1297	2193	1	0.109	292272.472
1297	2194	1	0.109	292272.472
1297	2195	1	0.109	292272.472
1298	1519	1	0.187	29999.278
1298	2196	1	0.109	292272.472
1298	2197	1	0.109	292272.472
1298	2198	1	0.109	292272.472
1299	1515	1	0.187	29999.278
1299	2199	1	0.109	292272.472
1299	2200	1	0.109	292272.472
1299	2201	1	0.109	292272.472
1300	1543	1	0.187	29999.278
1300	2202	1	0.109	292272.472
1300	2203	1	0.109	292272.472
1300	2204	1	0.109	292272.472
1301	1539	1	0.187	29999.278
1301	2205	1	0.109	292272.472
1301	2206	1	0.109	292272.472
1301	2207	1	0.109	292272.472
1302	1567	1	0.187	29999.278
1302	2208	1	0.109	292272.472
1302	2209	1	0.109	292272.472
1302	2210	1	0.109	292272.472
1303	1563	1	0.187	29999.278
1303	2211	1	0.109	292272.472
1303	2212	1	0.109	292272.472
1303	2213	1	0.109	292272.472
1304	1591	1	0.187	29999.278
1304	2214	1	0.109	292272.472
1304	2215	1	0.109	292272.472
1304	2216	1	0.109	292272.472
1305	1587	1	0.187	29999.278
1305	2217	1	0.109	292272.472
1305	2218	1	0.109	292272.472
1305	2219	1	0.109	292272.472
1306	1615	1	0.187	29999.278
1306	2220	1	0.109	292272.472
1306	2221	1	0.109	292272.472
1306	2222	1	0.109	292272.472
1307	1611	1	0.187	29999.278
1307	2223	1	0.109	292272.472
1307	2224	1	0.109	292272.472
1307	2225	1	0.109	292272.472
1308	1639	1	0.187	29999.278
1308	2226	1	0.109	292272.472
1308	2227	1	0.109	292272.472
1308	2228	1	0.109	292272.472
1309	1635	1	0.187	29999.278
1309	2229	1	0.109	292272.472
1309	2230	1	0.109	292272.472
1309	2231	1	0.109	292272.472
1310	1663	1	0.187	29999.278
1310	2232	1	0.109	292272.472
1310	2233	1	0.109	292272.472
1310	2234	1	0.109	292272.472
1311	1659	1	0.187	29999.278
1311	2235	1	0.109	292272.472
1311	2236	1	0.109	292272.472
1311	2237	1	0.109	292272.472
1312	1687	1	0.187	29999.278
1312	2238	1	0.109	292272.472
1312	2239	1	0.109	292272.472
1312	2240	1	0.109	292272.472
1313	1683	1	0.187	29999.278
1313	2241	1	0.109	292272.472
1313	2242	1	0.109	292272.472
1313	2243	1	0.109	292272.472
1314	1711	1	0.187	29999.278
1314	2244	1	0.109	292272.472
1314	2245	1	0.109	292272.472
1314	2246	1	0.109	292272.472
1315	1707	1	0.187	29999.278
1315	2247	1	0.109	292272.472
1315	2248	1	0.109	292272.472
1315	2249	1	0.109	292272.472
1316	1735	1	0.187	29999.278
1316	2250	1	0.109	292272.472
1316	2251	1	0.109	292272.472
1316	2252	1	0.109	292272.472
1317	1731	1	0.187	29999.278
1317	2253	1	0.109	292272.472
1317	2254	1	0.109	292272.472
1317	2255	1	0.109	292272.472
1318	1759	1	0.187	29999.278
1318	2256	1	0.109	292272.472
1318	2257	1	0.109	292272.472
1318	2258	1	0.109	292272.472
1319	1755	1	0.187	29999.278
1319	2259	1	0.109	292272.472
1319	2260	1	0.109	292272.472
1319	2261	1	0.109	292272.472
1320	1783	1	0.187	29999.278
1320	2262	1	0.109	292272.472
1320	2263	1	0.109	292272.472
1320	2264	1	0.109	292272.472
1321	1779	1	0.187	29999.278
1321	2265	1	0.109	292272.472
1321	2266	1	0.109	292272.472
1321	2267	1	0.109	292272.472
1322	1807	1	0.187	29999.278
1322	2268	1	0.109	292272.472
1322	2269	1	0.109	292272.472
1322	2270	1	0.109	292272.472
1323	1803	1	0.187	29999.278
1323	2271	1	0.109	292272.472
1323	2272	1	0.109	292272.472
1323	2273	1	0.109	292272.472
1324	1831	1	0.187	29999.278
1324	2274	1	0.109	292272.472
1324	2275	1	0.109	292272.472
1324	2276	1	0.109	292272.472
1325	1827	1	0.187	29999.278
1325	2277	1	0.109	292272.472
1325	2278	1	0.109	292272.472
1325	2279	1	0.109	292272.472
1326	1855	1	0.187	29999.278
1326	2280	1	0.109	292272.472
1326	2281	1	0.109	292272.472
1326	2282	1	0.109	292272.472
1327	1851	1	0.187	29999.278
1327	2283	1	0.109	292272.472
1327	2284	1	0.109	292272.472
1327	2285	1	0.109	292272.472
1328	1879	1	0.187	29999.278
1328	2286	1	0.109	292272.472
1328	2287	1	0.109	292272.472
1328	2288	1	0.109	292272.472
1329	1875	1	0.187	29999.278
1329	2289	1	0.109	292272.472
1329	2290	1	0.109	292272.472
1329	2291	1	0.109	292272.472
1330	1903	1	0.187	29999.278
1330	2292	1	0.109	292272.472
1330	2293	1	0.109	292272.472
1330	2294	1	0.109	292272.472
1331	1899	1	0.187	29999.278
1331	2295	1	0.109	292272.472
1331	2296	1	0.109	292272.472
1331	2297	1	0.109	292272.472
1332	1927	1	0.187	29999.278
1332	2298	1	0.109	292272.472
1332	2299	1	0.109	292272.472
1332	2300	1	0.109	292272.472
1333	1923	1	0.187	29999.278
1333	2301	1	0.109	292272.472
1333	2302	1	0.109	292272.472
1333	2303	1	0.109	292272.472
1334	1947	1	0.187	29999.278
1334	2304	1	0.109	292272.472
1334	2305	1	0.109	292272.472
1334	2306	1	0.109	292272.472
1335	1971	1	0.187	29999.278
1335	2307	1	0.109	292272.472
1335	2308	1	0.109	292272.472
1335	2309	1	0.109	292272.472
1336	1995	1	0.187	29999.278
1336	2310	1	0.109	292272.472
1336	2311	1	0.109	292272.472
1336	2312	1	0.109	292272.472
1337	2019	1	0.187	29999.278
1337	2313	1	0.109	292272.472
1337	2314	1	0.109	292272.472
1337	2315	1	0.109	292272.472
1338	2043	1	0.187	29999.278
1338	2316	1	0.109	292272.472
1338	2317	1	0.109	292272.472
1338	2318	1	0.109	292272.472
1339	2067	1	0.187	29999.278
1339	2319	1	0.109	292272.472
1339	2320	1	0.109	292272.472
1339	2321	1	0.109	292272.472
1340	2091	1	0.187	29999.278
1340	2322	1	0.109	292272.472
1340	2323	1	0.109	292272.472
1340	2324	1	0.109	292272.472
1341	1951	1	0.187	29999.278
1341	2325	1	0.109	292272.472
1341	2326	1	0.109	292272.472
1341	2327	1	0.109	292272.472
1342	1975	1	0.187	29999.278
1342	2328	1	0.109	292272.472
1342	2329	1	0.109	292272.472
1342	2330	1	0.109	292272.472
1343	1999	1	0.187	29999.278
1343	2331	1	0.109	292272.472
1343	2332	1	0.109	292272.472
1343	2333	1	0.109	292272.472
1344	2023	1	0.187	29999.278
1344	2334	1	0.109	292272.472
1344	2335	1	0.109	292272.472
1344	2336	1	0.109	292272.472
1345	2047	1	0.187	29999.278
1345	2337	1	0.109	292272.472
1345	2338	1	0.109	292272.472
1345	2339	1	0.109	292272.472
1346	2071	1	0.187	29999.278
1346	2340	1	0.109	292272.472
1346	2341	1	0.109	292272.472
1346	2342	1	0.109	292272.472
1347	2095	1	0.187	29999.278
1347	2343	1	0.109	292272.472
1347	2344	1	0.109	292272.472
1347	2345	1	0.109	292272.472
1348	1449	1	0.187	29999.278
1348	2346	1	0.109	292272.472
1348	2347	1	0.109	292272.472
1348	2348	1	0.109	292272.472
1349	1460	1	0.187	29999.278
1349	2349	1	0.109	292272.472
1349	2350	1	0.109	292272.472
1349	2351	1	0.109	292272.472
1350	1454	1	0.187	29999.278
1350	2352	1	0.109	292272.472
1350	2353	1	0.109	292272.472
1350	2354	1	0.109	292272.472
1351	1473	1	0.187	29999.278
1351	2355	1	0.109	292272.472
1351	2356	1	0.109	292272.472
1351	2357	1	0.109	292272.472
1352	1478	1	0.187	29999.278
1352	2358	1	0.109	292272.472
1352	2359	1	0.109	292272.472
1352	2360	1	0.109	292272.472
1353	1497	1	0.187	29999.278
1353	2361	1	0.109	292272.472
1353	2362	1	0.109	292272.472
1353	2363	1	0.109	292272.472
1354	1508	1	0.187	29999.278
1354	2364	1	0.109	292272.472
1354	2365	1	0.109	292272.472
1354	2366	1	0.109	292272.472
1355	1502	1	0.187	29999.278
1355	2367	1	0.109	292272.472
1355	2368	1	0.109	292272.472
1355	2369	1	0.109	292272.472
1356	1513	1	0.187	29999.278
1356	2370	1	0.109	292272.472
1356	2371	1	0.109	292272.472
1356	2372	1	0.109	292272.472
1357	1521	1	0.187	29999.278
1357	2373	1	0.109	292272.472
1357	2374	1	0.109	292272.472
1357	2375	1	0.109	292272.472
1358	1526	1	0.187	29999.278
1358	2376	1	0.109	292272.472
1358	2377	1	0.109	292272.472
1358	2378	1	0.109	292272.472
1359	1545	1	0.187	29999.278
1359	2379	1	0.109	292272.472
1359	2380	1	0.109	292272.472
1359	2381	1	0.109	292272.472
1360	1556	1	0.187	29999.278
1360	2382	1	0.109	292272.472
1360	2383	1	0.109	292272.472
1360	2384	1	0.109	292272.472
1361	1550	1	0.187	29999.278
1361	2385	1	0.109	292272.472
1361	2386	1	0.109	292272.472
1361	2387	1	0.109	292272.472
1362	1569	1	0.187	29999.278
1362	2388	1	0.109	292272.472
1362	2389	1	0.109	292272.472
1362	2390	1	0.109	292272.472
1363	1574	1	0.187	29999.278
1363	2391	1	0.109	292272.472
1363	2392	1	0.109	292272.472
1363	2393	1	0.109	292272.472
1364	1585	1	0.187	29999.278
1364	2394	1	0.109	292272.472
1364	2395	1	0.109	292272.472
1364	2396	1	0.109	292272.472
1365	1593	1	0.187	29999.278
1365	2397	1	0.109	292272.472
1365	2398	1	0.109	292272.472
1365	2399	1	0.109	292272.472
1366	1604	1	0.187	29999.278
1366	2400	1	0.109	292272.472
1366	2401	1	0.109	292272.472
1366	2402	1	0.109	292272.472
1367	1598	1	0.187	29999.278
1367	2403	1	0.109	292272.472
1367	2404	1	0.109	292272.472
1367	2405	1	0.109	292272.472
1368	1609	1	0.187	29999.278
1368	2406	1	0.109	292272.472
1368	2407	1	0.109	292272.472
1368	2408	1	0.109	292272.472
1369	1617	1	0.187	29999.278
1369	2409	1	0.109	292272.472
1369	2410	1	0.109	292272.472
1369	2411	1	0.109	292272.472
1370	1622	1	0.187	29999.278
1370	2412	1	0.109	292272.472
1370	2413	1	0.109	292272.472
1370	2414	1	0.109	292272.472
1371	1641	1	0.187	29999.278
1371	2415	1	0.109	292272.472
1371	2416	1	0.109	292272.472
1371	2417	1	0.109	292272.472
1372	1652	1	0.187	29999.278
1372	2418	1	0.109	292272.472
1372	2419	1	0.109	292272.472
1372	2420	1	0.109	292272.472
1373	1646	1	0.187	29999.278
1373	2421	1	0.109	292272.472
1373	2422	1	0.109	292272.472
1373	2423	1	0.109	292272.472
1374	1665	1	0.187	29999.278
1374	2424	1	0.109	292272.472
1374	2425	1	0.109	292272.472
1374	2426	1	0.109	292272.472
1375	1670	1	0.187	29999.278
1375	2427	1	0.109	292272.472
1375	2428	1	0.109	292272.472
1375	2429	1	0.109	292272.472
1376	1681	1	0.187	29999.278
1376	2430	1	0.109	292272.472
1376	2431	1	0.109	292272.472
1376	2432	1	0.109	292272.472
1377	1689	1	0.187	29999.278
1377	2433	1	0.109	292272.472
1377	2434	1	0.109	292272.472
1377	2435	1	0.109	292272.472
1378	1694	1	0.187	29999.278
1378	2436	1	0.109	292272.472
1378	2437	1	0.109	292272.472
1378	2438	1	0.109	292272.472
1379	1713	1	0.187	29999.278
1379	2439	1	0.109	292272.472
1379	2440	1	0.109	292272.472
1379	2441	1	0.109	292272.472
1380	1724	1	0.187	29999.278
1380	2442	1	0.109	292272.472
1380	2443	1	0.109	292272.472
1380	2444	1	0.109	292272.472
1381	1718	1	0.187	29999.278
1381	2445	1	0.109	292272.472
1381	2446	1	0.109	292272.472
1381	2447	1	0.109	292272.472
1382	1737	1	0.187	29999.278
1382	2448	1	0.109	292272.472
1382	2449	1	0.109	292272.472
1382	2450	1	0.109	292272.472
1383	1742	1	0.187	29999.278
1383	2451	1	0.109	292272.472
1383	2452	1	0.109	292272.472
1383	2453	1	0.109	292272.472
1384	1753	1	0.187	29999.278
1384	2454	1	0.109	292272.472
1384	2455	1	0.109	292272.472
1384	2456	1	0.109	292272.472
1385	1761	1	0.187	29999.278
1385	2457	1	0.109	292272.472
1385	2458	1	0.109	292272.472
1385	2459	1	0.109	292272.472
1386	1766	1	0.187	29999.278
1386	2460	1	0.109	292272.472
1386	2461	1	0.109	292272.472
1386	2462	1	0.109	292272.472
1387	1785	1	0.187	29999.278
1387	2463	1	0.109	292272.472
1387	2464	1	0.109	292272.472
1387	2465	1	0.109	292272.472
1388	1796	1	0.187	29999.278
1388	2466	1	0.109	292272.472
1388	2467	1	0.109	292272.472
1388	2468	1	0.109	292272.472
1389	1790	1	0.187	29999.278
1389	2469	1	0.109	292272.472
1389	2470	1	0.109	292272.472
1389	2471	1	0.109	292272.472
1390	1801	1	0.187	29999.278
1390	2472	1	0.109	292272.472
1390	2473	1	0.109	292272.472
1390	2474	1	0.109	292272.472
1391	1809	1	0.187	29999.278
1391	2475	1	0.109	292272.472
1391	2476	1	0.109	292272.472
1391	2477	1	0.109	292272.472
1392	1814	1	0.187	29999.278
1392	2478	1	0.109	292272.472
1392	2479	1	0.109	292272.472
1392	2480	1	0.109	292272.472
1393	1833	1	0.187	29999.278
1393	2481	1	0.109	292272.472
1393	2482	1	0.109	292272.472
1393	2483	1	0.109	292272.472
1394	1844	1	0.187	29999.278
1394	2484	1	0.109	292272.472
1394	2485	1	0.109	292272.472
1394	2486	1	0.109	292272.472
1395	1838	1	0.187	29999.278
1395	2487	1	0.109	292272.472
1395	2488	1	0.109	292272.472
1395	2489	1	0.109	292272.472
1396	1849	1	0.187	29999.278
1396	2490	1	0.109	292272.472
1396	2491	1	0.109	292272.472
1396	2492	1	0.109	292272.472
1397	1857	1	0.187	29999.278
1397	2493	1	0.109	292272.472
1397	2494	1	0.109	292272.472
1397	2495	1	0.109	292272.472
1398	1862	1	0.187	29999.278
1398	2496	1	0.109	292272.472
1398	2497	1	0.109	292272.472
1398	2498	1	0.109	292272.472
1399	1881	1	0.187	29999.278
1399	2499	1	0.109	292272.472
1399	2500	1	0.109	292272.472
1399	2501	1	0.109	292272.472
1400	1892	1	0.187	29999.278
1400	2502	1	0.109	292272.472
1400	2503	1	0.109	292272.472
1400	2504	1	0.109	292272.472
1401	1886	1	0.187	29999.278
1401	2505	1	0.109	292272.472
1401	2506	1	0.109	292272.472
1401	2507	1	0.109	292272.472
1402	1897	1	0.187	29999.278
1402	2508	1	0.109	292272.472
1402	2509	1	0.109	292272.472
1402	2510	1	0.109	292272.472
1403	1905	1	0.187	29999.278
1403	2511	1	0.109	292272.472
1403	2512	1	0.109	292272.472
1403	2513	1	0.109	292272.472
1404	1910	1	0.187	29999.278
1404	2514	1	0.109	292272.472
1404	2515	1	0.109	292272.472
1404	2516	1	0.109	292272.472
1405	1934	1	0.187	29999.278
1405	2517	1	0.109	292272.472
1405	2518	1	0.109	292272.472
1405	2519	1	0.109	292272.472
1406	1964	1	0.187	29999.278
1406	2520	1	0.109	292272.472
1406	2521	1	0.109	292272.472
1406	2522	1	0.109	292272.472
1407	1958	1	0.187	29999.278
1407	2523	1	0.109	292272.472
1407	2524	1	0.109	292272.472
1407	2525	1	0.109	292272.472
1408	1969	1	0.187	29999.278
1408	2526	1	0.109	292272.472
1408	2527	1	0.109	292272.472
1408	2528	1	0.109	292272.472
1409	1982	1	0.187	29999.278
1409	2529	1	0.109	292272.472
1409	2530	1	0.109	292272.472
1409	2531	1	0.109	292272.472
1410	2012	1	0.187	29999.278
1410	2532	1	0.109	292272.472
1410	2533	1	0.109	292272.472
1410	2534	1	0.109	292272.472
1411	2006	1	0.187	29999.278
1411	2535	1	0.109	292272.472
1411	2536	1	0.109	292272.472
1411	2537	1	0.109	292272.472
1412	2017	1	0.187	29999.278
1412	2538	1	0.109	292272.472
1412	2539	1	0.109	292272.472
1412	2540	1	0.109	292272.472
1413	2030	1	0.187	29999.278
1413	2541	1	0.109	292272.472
1413	2542	1	0.109	292272.472
1413	2543	1	0.109	292272.472
1414	2060	1	0.187	29999.278
1414	2544	1	0.109	292272.472
1414	2545	1	0.109	292272.472
1414	2546	1	0.109	292272.472
1415	2054	1	0.187	29999.278
1415	2547	1	0.109	292272.472
1415	2548	1	0.109	292272.472
1415	2549	1	0.109	292272.472
1416	2065	1	0.187	29999.278
1416	2550	1	0.109	292272.472
1416	2551	1	0.109	292272.472
1416	2552	1	0.109	292272.472
1417	2078	1	0.187	29999.278
1417	2553	1	0.109	292272.472
1417	2554	1	0.109	292272.472
1417	2555	1	0.109	292272.472
1418	1929	1	0.187	29999.278
1418	2556	1	0.109	292272.472
1418	2557	1	0.109	292272.472
1418	2558	1	0.109	292272.472
1419	1953	1	0.187	29999.278
1419	2559	1	0.109	292272.472
1419	2560	1	0.109	292272.472
1419	2561	1	0.109	292272.472
1420	1977	1	0.187	29999.278
1420	2562	1	0.109	292272.472
1420	2563	1	0.109	292272.472
1420	2564	1	0.109	292272.472
1421	2001	1	0.187	29999.278
1421	2565	1	0.109	292272.472
1421	2566	1	0.109	292272.472
1421	2567	1	0.109	292272.472
1422	2025	1	0.187	29999.278
1422	2568	1	0.109	292272.472
1422	2569	1	0.109	292272.472
1422	2570	1	0.109	292272.472
1423	2049	1	0.187	29999.278
1423	2571	1	0.109	292272.472
1423	2572	1	0.109	292272.472
1423	2573	1	0.109	292272.472
1424	2073	1	0.187	29999.278
1424	2574	1	0.109	292272.472
1424	2575	1	0.109	292272.472
1424	2576	1	0.109	292272.472

[ angles ]
;  ai   aj   ak  funct   angle     fc
1	1426	10	1	109.5	836.8
1	1426	12	1	109.5	836.8
1	1426	18	1	109.5	836.8
1	1575	266	1	109.5	836.8
1	1575	271	1	109.5	836.8
1	1575	302	1	109.5	836.8
2	1425	17	1	109.5	836.8
2	1425	315	1	109.5	836.8
2	1425	1265	1	109.5	836.8
2	1744	581	1	109.5	836.8
2	1744	586	1	109.5	836.8
2	1744	594	1	109.5	836.8
3	1427	11	1	109.5	836.8
3	1427	13	1	109.5	836.8
3	1427	19	1	109.5	836.8
3	1577	268	1	109.5	836.8
3	1577	272	1	109.5	836.8
3	1577	280	1	109.5	836.8
4	1428	14	1	109.5	836.8
4	1428	20	1	109.5	836.8
4	1428	942	1	109.5	836.8
4	1458	53	1	109.5	836.8
4	1458	57	1	109.5	836.8
4	1458	61	1	109.5	836.8
5	1429	7	1	109.5	836.8
5	1429	15	1	109.5	836.8
5	1429	21	1	109.5	836.8
5	1459	58	1	109.5	836.8
5	1459	74	1	109.5	836.8
5	1459	365	1	109.5	836.8
6	1430	8	1	109.5	836.8
6	1430	16	1	109.5	836.8
6	1430	1266	1	109.5	836.8
6	1460	54	1	109.5	836.8
6	1460	59	1	109.5	836.8
6	1460	1349	1	109.5	836.8
7	1429	15	1	109.5	836.8
7	1429	21	1	109.5	836.8
7	1431	12	1	109.5	836.8
7	1431	43	1	109.5	836.8
7	1431	44	1	109.5	836.8
8	1430	16	1	109.5	836.8
8	1430	1266	1	109.5	836.8
8	1432	20	1	109.5	836.8
8	1432	1233	1	109.5	836.8
8	1432	1251	1	109.5	836.8
9	1433	13	1	109.5	836.8
9	1433	21	1	109.5	836.8
9	1433	46	1	109.5	836.8
9	1596	306	1	109.5	836.8
9	1596	317	1	109.5	836.8
9	1596	322	1	109.5	836.8
10	1426	12	1	109.5	836.8
10	1426	18	1	109.5	836.8
10	1434	14	1	109.5	836.8
10	1434	19	1	109.5	836.8
10	1434	263	1	109.5	836.8
11	1427	13	1	109.5	836.8
11	1427	19	1	109.5	836.8
11	1436	16	1	109.5	836.8
11	1436	17	1	109.5	836.8
11	1436	265	1	109.5	836.8
12	1426	18	1	109.5	836.8
12	1431	43	1	109.5	836.8
12	1431	44	1	109.5	836.8
13	1427	19	1	109.5	836.8
13	1433	21	1	109.5	836.8
13	1433	46	1	109.5	836.8
14	1428	20	1	109.5	836.8
14	1428	942	1	109.5	836.8
14	1434	19	1	109.5	836.8
14	1434	263	1	109.5	836.8
15	1429	21	1	109.5	836.8
15	1435	31	1	109.5	836.8
15	1435	264	1	109.5	836.8
15	1435	320	1	109.5	836.8
16	1430	1266	1	109.5	836.8
16	1436	17	1	109.5	836.8
16	1436	265	1	109.5	836.8
17	1425	315	1	109.5	836.8
17	1425	1265	1	109.5	836.8
17	1436	265	1	109.5	836.8
18	1939	949	1	109.5	836.8
18	1939	1190	1	109.5	836.8
18	1939	1232	1	109.5	836.8
19	1434	263	1	109.5	836.8
20	1428	942	1	109.5	836.8
20	1432	1233	1	109.5	836.8
20	1432	1251	1	109.5	836.8
21	1433	46	1	109.5	836.8
22	1438	30	1	109.5	836.8
22	1438	33	1	109.5	836.8
22	1438	39	1	109.5	836.8
22	1587	292	1	109.5	836.8
22	1587	1272	1	109.5	836.8
22	1587	1305	1	109.5	836.8
23	1437	31	1	109.5	836.8
23	1437	38	1	109.5	836.8
23	1437	336	1	109.5	836.8
23	1756	602	1	109.5	836.8
23	1756	608	1	109.5	836.8
23	1756	616	1	109.5	836.8
24	1439	32	1	109.5	836.8
24	1439	34	1	109.5	836.8
24	1439	40	1	109.5	836.8
24	1589	288	1	109.5	836.8
24	1589	293	1	109.5	836.8
24	1589	301	1	109.5	836.8
25	1440	35	1	109.5	836.8
25	1440	41	1	109.5	836.8
25	1440	963	1	109.5	836.8
25	1470	73	1	109.5	836.8
25	1470	78	1	109.5	836.8
25	1470	83	1	109.5	836.8
26	1441	36	1	109.5	836.8
26	1441	42	1	109.5	836.8
26	1441	1291	1	109.5	836.8
26	1471	79	1	109.5	836.8
26	1471	388	1	109.5	836.8
26	1471	1294	1	109.5	836.8
27	1442	28	1	109.5	836.8
27	1442	37	1	109.5	836.8
27	1442	43	1	109.5	836.8
27	1472	75	1	109.5	836.8
27	1472	80	1	109.5	836.8
27	1472	81	1	109.5	836.8
28	1442	37	1	109.5	836.8
28	1442	43	1	109.5	836.8
28	1444	41	1	109.5	836.8
28	1444	1234	1	109.5	836.8
28	1444	1252	1	109.5	836.8
29	1445	34	1	109.5	836.8
29	1445	42	1	109.5	836.8
29	1445	66	1	109.5	836.8
29	1608	327	1	109.5	836.8
29	1608	338	1	109.5	836.8
29	1608	344	1	109.5	836.8
30	1438	33	1	109.5	836.8
30	1438	39	1	109.5	836.8
30	1446	35	1	109.5	836.8
30	1446	40	1	109.5	836.8
30	1446	284	1	109.5	836.8
31	1435	264	1	109.5	836.8
31	1435	320	1	109.5	836.8
31	1437	38	1	109.5	836.8
31	1437	336	1	109.5	836.8
32	1439	34	1	109.5	836.8
32	1439	40	1	109.5	836.8
32	1448	37	1	109.5	836.8
32	1448	38	1	109.5	836.8
32	1448	286	1	109.5	836.8
33	1438	39	1	109.5	836.8
33	1443	64	1	109.5	836.8
33	1443	1267	1	109.5	836.8
33	1443	1293	1	109.5	836.8
34	1439	40	1	109.5	836.8
34	1445	42	1	109.5	836.8
34	1445	66	1	109.5	836.8
35	1440	41	1	109.5	836.8
35	1440	963	1	109.5	836.8
35	1446	40	1	109.5	836.8
35	1446	284	1	109.5	836.8
36	1441	42	1	109.5	836.8
36	1441	1291	1	109.5	836.8
36	1447	285	1	109.5	836.8
36	1447	342	1	109.5	836.8
36	1447	1292	1	109.5	836.8
37	1442	43	1	109.5	836.8
37	1448	38	1	109.5	836.8
37	1448	286	1	109.5	836.8
38	1437	336	1	109.5	836.8
38	1448	286	1	109.5	836.8
39	1951	970	1	109.5	836.8
39	1951	1211	1	109.5	836.8
39	1951	1341	1	109.5	836.8
40	1446	284	1	109.5	836.8
41	1440	963	1	109.5	836.8
41	1444	1234	1	109.5	836.8
41	1444	1252	1	109.5	836.8
42	1441	1291	1	109.5	836.8
42	1445	66	1	109.5	836.8
43	1431	44	1	109.5	836.8
44	1450	53	1	109.5	836.8
44	1450	55	1	109.5	836.8
44	1450	60	1	109.5	836.8
45	1449	359	1	109.5	836.8
45	1449	1268	1	109.5	836.8
45	1449	1348	1	109.5	836.8
45	1600	310	1	109.5	836.8
45	1600	315	1	109.5	836.8
45	1600	322	1	109.5	836.8
46	1451	54	1	109.5	836.8
46	1451	56	1	109.5	836.8
46	1451	61	1	109.5	836.8
47	1452	57	1	109.5	836.8
47	1452	62	1	109.5	836.8
47	1452	985	1	109.5	836.8
47	1482	96	1	109.5	836.8
47	1482	100	1	109.5	836.8
47	1482	105	1	109.5	836.8
48	1453	50	1	109.5	836.8
48	1453	58	1	109.5	836.8
48	1453	63	1	109.5	836.8
48	1483	101	1	109.5	836.8
48	1483	118	1	109.5	836.8
48	1483	410	1	109.5	836.8
49	1454	51	1	109.5	836.8
49	1454	59	1	109.5	836.8
49	1454	1350	1	109.5	836.8
49	1484	97	1	109.5	836.8
49	1484	102	1	109.5	836.8
49	1484	103	1	109.5	836.8
50	1453	58	1	109.5	836.8
50	1453	63	1	109.5	836.8
50	1455	55	1	109.5	836.8
50	1455	86	1	109.5	836.8
50	1455	87	1	109.5	836.8
51	1454	59	1	109.5	836.8
51	1454	1350	1	109.5	836.8
51	1456	62	1	109.5	836.8
51	1456	1236	1	109.5	836.8
51	1456	1253	1	109.5	836.8
52	1457	56	1	109.5	836.8
52	1457	63	1	109.5	836.8
52	1457	89	1	109.5	836.8
52	1620	350	1	109.5	836.8
52	1620	361	1	109.5	836.8
52	1620	367	1	109.5	836.8
53	1450	55	1	109.5	836.8
53	1450	60	1	109.5	836.8
53	1458	57	1	109.5	836.8
53	1458	61	1	109.5	836.8
54	1451	56	1	109.5	836.8
54	1451	61	1	109.5	836.8
54	1460	59	1	109.5	836.8
54	1460	1349	1	109.5	836.8
55	1450	60	1	109.5	836.8
55	1455	86	1	109.5	836.8
55	1455	87	1	109.5	836.8
56	1451	61	1	109.5	836.8
56	1457	63	1	109.5	836.8
56	1457	89	1	109.5	836.8
57	1452	62	1	109.5	836.8
57	1452	985	1	109.5	836.8
57	1458	61	1	109.5	836.8
58	1453	63	1	109.5	836.8
58	1459	74	1	109.5	836.8
58	1459	365	1	109.5	836.8
59	1454	1350	1	109.5	836.8
59	1460	1349	1	109.5	836.8
60	1963	938	1	109.5	836.8
60	1963	992	1	109.5	836.8
60	1963	1235	1	109.5	836.8
62	1452	985	1	109.5	836.8
62	1456	1236	1	109.5	836.8
62	1456	1253	1	109.5	836.8
63	1457	89	1	109.5	836.8
64	1443	1267	1	109.5	836.8
64	1443	1293	1	109.5	836.8
64	1462	73	1	109.5	836.8
64	1462	76	1	109.5	836.8
64	1462	82	1	109.5	836.8
65	1461	74	1	109.5	836.8
65	1461	81	1	109.5	836.8
65	1461	382	1	109.5	836.8
65	1612	330	1	109.5	836.8
65	1612	336	1	109.5	836.8
65	1612	344	1	109.5	836.8
66	1463	75	1	109.5	836.8
66	1463	77	1	109.5	836.8
66	1463	83	1	109.5	836.8
67	1464	78	1	109.5	836.8
67	1464	84	1	109.5	836.8
67	1464	1004	1	109.5	836.8
67	1494	117	1	109.5	836.8
67	1494	122	1	109.5	836.8
67	1494	127	1	109.5	836.8
68	1465	70	1	109.5	836.8
68	1465	79	1	109.5	836.8
68	1465	85	1	109.5	836.8
68	1495	123	1	109.5	836.8
68	1495	433	1	109.5	836.8
68	1495	1296	1	109.5	836.8
69	1466	71	1	109.5	836.8
69	1466	80	1	109.5	836.8
69	1466	86	1	109.5	836.8
69	1496	119	1	109.5	836.8
69	1496	124	1	109.5	836.8
69	1496	125	1	109.5	836.8
70	1465	79	1	109.5	836.8
70	1465	85	1	109.5	836.8
70	1467	76	1	109.5	836.8
70	1467	108	1	109.5	836.8
70	1467	1295	1	109.5	836.8
71	1466	80	1	109.5	836.8
71	1466	86	1	109.5	836.8
71	1468	84	1	109.5	836.8
71	1468	1237	1	109.5	836.8
71	1468	1254	1	109.5	836.8
72	1469	77	1	109.5	836.8
72	1469	85	1	109.5	836.8
72	1469	110	1	109.5	836.8
72	1632	372	1	109.5	836.8
72	1632	384	1	109.5	836.8
72	1632	390	1	109.5	836.8
73	1462	76	1	109.5	836.8
73	1462	82	1	109.5	836.8
73	1470	78	1	109.5	836.8
73	1470	83	1	109.5	836.8
74	1459	365	1	109.5	836.8
74	1461	81	1	109.5	836.8
74	1461	382	1	109.5	836.8
75	1463	77	1	109.5	836.8
75	1463	83	1	109.5	836.8
75	1472	80	1	109.5	836.8
75	1472	81	1	109.5	836.8
76	1462	82	1	109.5	836.8
76	1467	108	1	109.5	836.8
76	1467	1295	1	109.5	836.8
77	1463	83	1	109.5	836.8
77	1469	85	1	109.5	836.8
77	1469	110	1	109.5	836.8
78	1464	84	1	109.5	836.8
78	1464	1004	1	109.5	836.8
78	1470	83	1	109.5	836.8
79	1465	85	1	109.5	836.8
79	1471	388	1	109.5	836.8
79	1471	1294	1	109.5	836.8
80	1466	86	1	109.5	836.8
80	1472	81	1	109.5	836.8
81	1461	382	1	109.5	836.8
82	1975	959	1	109.5	836.8
82	1975	1011	1	109.5	836.8
82	1975	1342	1	109.5	836.8
84	1464	1004	1	109.5	836.8
84	1468	1237	1	109.5	836.8
84	1468	1254	1	109.5	836.8
85	1469	110	1	109.5	836.8
86	1455	87	1	109.5	836.8
87	1474	96	1	109.5	836.8
87	1474	98	1	109.5	836.8
87	1474	104	1	109.5	836.8
88	1473	103	1	109.5	836.8
88	1473	405	1	109.5	836.8
88	1473	1351	1	109.5	836.8
88	1624	354	1	109.5	836.8
88	1624	359	1	109.5	836.8
88	1624	367	1	109.5	836.8
89	1475	97	1	109.5	836.8
89	1475	99	1	109.5	836.8
89	1475	105	1	109.5	836.8
90	1476	100	1	109.5	836.8
90	1476	106	1	109.5	836.8
90	1476	1026	1	109.5	836.8
90	1506	140	1	109.5	836.8
90	1506	144	1	109.5	836.8
90	1506	148	1	109.5	836.8
91	1477	93	1	109.5	836.8
91	1477	101	1	109.5	836.8
91	1477	107	1	109.5	836.8
91	1507	145	1	109.5	836.8
91	1507	160	1	109.5	836.8
91	1507	456	1	109.5	836.8
92	1478	94	1	109.5	836.8
92	1478	102	1	109.5	836.8
92	1478	1352	1	109.5	836.8
92	1508	141	1	109.5	836.8
92	1508	146	1	109.5	836.8
92	1508	1354	1	109.5	836.8
93	1477	101	1	109.5	836.8
93	1477	107	1	109.5	836.8
93	1479	98	1	109.5	836.8
93	1479	130	1	109.5	836.8
93	1479	131	1	109.5	836.8
94	1478	102	1	109.5	836.8
94	1478	1352	1	109.5	836.8
94	1480	106	1	109.5	836.8
94	1480	1239	1	109.5	836.8
94	1480	1255	1	109.5	836.8
95	1481	99	1	109.5	836.8
95	1481	107	1	109.5	836.8
95	1481	133	1	109.5	836.8
95	1644	396	1	109.5	836.8
95	1644	407	1	109.5	836.8
95	1644	412	1	109.5	836.8
96	1474	98	1	109.5	836.8
96	1474	104	1	109.5	836.8
96	1482	100	1	109.5	836.8
96	1482	105	1	109.5	836.8
97	1475	99	1	109.5	836.8
97	1475	105	1	109.5	836.8
97	1484	102	1	109.5	836.8
97	1484	103	1	109.5	836.8
98	1474	104	1	109.5	836.8
98	1479	130	1	109.5	836.8
98	1479	131	1	109.5	836.8
99	1475	105	1	109.5	836.8
99	1481	107	1	109.5	836.8
99	1481	133	1	109.5	836.8
100	1476	106	1	109.5	836.8
100	1476	1026	1	109.5	836.8
100	1482	105	1	109.5	836.8
101	1477	107	1	109.5	836.8
101	1483	118	1	109.5	836.8
101	1483	410	1	109.5	836.8
102	1478	1352	1	109.5	836.8
102	1484	103	1	109.5	836.8
103	1473	405	1	109.5	836.8
103	1473	1351	1	109.5	836.8
104	1987	981	1	109.5	836.8
104	1987	1033	1	109.5	836.8
104	1987	1238	1	109.5	836.8
106	1476	1026	1	109.5	836.8
106	1480	1239	1	109.5	836.8
106	1480	1255	1	109.5	836.8
107	1481	133	1	109.5	836.8
108	1467	1295	1	109.5	836.8
108	1486	117	1	109.5	836.8
108	1486	120	1	109.5	836.8
108	1486	126	1	109.5	836.8
109	1485	118	1	109.5	836.8
109	1485	125	1	109.5	836.8
109	1485	427	1	109.5	836.8
109	1636	376	1	109.5	836.8
109	1636	382	1	109.5	836.8
109	1636	390	1	109.5	836.8
110	1487	119	1	109.5	836.8
110	1487	121	1	109.5	836.8
110	1487	127	1	109.5	836.8
111	1488	122	1	109.5	836.8
111	1488	128	1	109.5	836.8
111	1488	1047	1	109.5	836.8
111	1518	159	1	109.5	836.8
111	1518	164	1	109.5	836.8
111	1518	169	1	109.5	836.8
112	1489	114	1	109.5	836.8
112	1489	123	1	109.5	836.8
112	1489	129	1	109.5	836.8
112	1519	165	1	109.5	836.8
112	1519	478	1	109.5	836.8
112	1519	1298	1	109.5	836.8
113	1490	115	1	109.5	836.8
113	1490	124	1	109.5	836.8
113	1490	130	1	109.5	836.8
113	1520	161	1	109.5	836.8
113	1520	166	1	109.5	836.8
113	1520	167	1	109.5	836.8
114	1489	123	1	109.5	836.8
114	1489	129	1	109.5	836.8
114	1491	120	1	109.5	836.8
114	1491	151	1	109.5	836.8
114	1491	1297	1	109.5	836.8
115	1490	124	1	109.5	836.8
115	1490	130	1	109.5	836.8
115	1492	128	1	109.5	836.8
115	1492	1240	1	109.5	836.8
115	1492	1256	1	109.5	836.8
116	1493	121	1	109.5	836.8
116	1493	129	1	109.5	836.8
116	1493	153	1	109.5	836.8
116	1656	417	1	109.5	836.8
116	1656	429	1	109.5	836.8
116	1656	435	1	109.5	836.8
117	1486	120	1	109.5	836.8
117	1486	126	1	109.5	836.8
117	1494	122	1	109.5	836.8
117	1494	127	1	109.5	836.8
118	1483	410	1	109.5	836.8
118	1485	125	1	109.5	836.8
118	1485	427	1	109.5	836.8
119	1487	121	1	109.5	836.8
119	1487	127	1	109.5	836.8
119	1496	124	1	109.5	836.8
119	1496	125	1	109.5	836.8
120	1486	126	1	109.5	836.8
120	1491	151	1	109.5	836.8
120	1491	1297	1	109.5	836.8
121	1487	127	1	109.5	836.8
121	1493	129	1	109.5	836.8
121	1493	153	1	109.5	836.8
122	1488	128	1	109.5	836.8
122	1488	1047	1	109.5	836.8
122	1494	127	1	109.5	836.8
123	1489	129	1	109.5	836.8
123	1495	433	1	109.5	836.8
123	1495	1296	1	109.5	836.8
124	1490	130	1	109.5	836.8
124	1496	125	1	109.5	836.8
125	1485	427	1	109.5	836.8
126	1999	1001	1	109.5	836.8
126	1999	1054	1	109.5	836.8
126	1999	1343	1	109.5	836.8
128	1488	1047	1	109.5	836.8
128	1492	1240	1	109.5	836.8
128	1492	1256	1	109.5	836.8
129	1493	153	1	109.5	836.8
130	1479	131	1	109.5	836.8
131	1498	140	1	109.5	836.8
131	1498	142	1	109.5	836.8
131	1498	147	1	109.5	836.8
132	1497	450	1	109.5	836.8
132	1497	1269	1	109.5	836.8
132	1497	1353	1	109.5	836.8
132	1648	400	1	109.5	836.8
132	1648	405	1	109.5	836.8
132	1648	412	1	109.5	836.8
133	1499	141	1	109.5	836.8
133	1499	143	1	109.5	836.8
133	1499	148	1	109.5	836.8
134	1500	144	1	109.5	836.8
134	1500	149	1	109.5	836.8
134	1500	1069	1	109.5	836.8
134	1530	182	1	109.5	836.8
134	1530	186	1	109.5	836.8
134	1530	191	1	109.5	836.8
135	1501	137	1	109.5	836.8
135	1501	145	1	109.5	836.8
135	1501	150	1	109.5	836.8
135	1531	187	1	109.5	836.8
135	1531	204	1	109.5	836.8
135	1531	501	1	109.5	836.8
136	1502	138	1	109.5	836.8
136	1502	146	1	109.5	836.8
136	1502	1355	1	109.5	836.8
136	1532	183	1	109.5	836.8
136	1532	188	1	109.5	836.8
136	1532	189	1	109.5	836.8
137	1501	145	1	109.5	836.8
137	1501	150	1	109.5	836.8
137	1503	142	1	109.5	836.8
137	1503	172	1	109.5	836.8
137	1503	173	1	109.5	836.8
138	1502	146	1	109.5	836.8
138	1502	1355	1	109.5	836.8
138	1504	149	1	109.5	836.8
138	1504	1242	1	109.5	836.8
138	1504	1257	1	109.5	836.8
139	1505	143	1	109.5	836.8
139	1505	150	1	109.5	836.8
139	1505	175	1	109.5	836.8
139	1668	441	1	109.5	836.8
139	1668	452	1	109.5	836.8
139	1668	458	1	109.5	836.8
140	1498	142	1	109.5	836.8
140	1498	147	1	109.5	836.8
140	1506	144	1	109.5	836.8
140	1506	148	1	109.5	836.8
141	1499	143	1	109.5	836.8
141	1499	148	1	109.5	836.8
141	1508	146	1	109.5	836.8
141	1508	1354	1	109.5	836.8
142	1498	147	1	109.5	836.8
142	1503	172	1	109.5	836.8
142	1503	173	1	109.5	836.8
143	1499	148	1	109.5	836.8
143	1505	150	1	109.5	836.8
143	1505	175	1	109.5	836.8
144	1500	149	1	109.5	836.8
144	1500	1069	1	109.5	836.8
144	1506	148	1	109.5	836.8
145	1501	150	1	109.5	836.8
145	1507	160	1	109.5	836.8
145	1507	456	1	109.5	836.8
146	1502	1355	1	109.5	836.8
146	1508	1354	1	109.5	836.8
147	2011	1022	1	109.5	836.8
147	2011	1076	1	109.5	836.8
147	2011	1241	1	109.5	836.8
149	1500	1069	1	109.5	836.8
149	1504	1242	1	109.5	836.8
149	1504	1257	1	109.5	836.8
150	1505	175	1	109.5	836.8
151	1491	1297	1	109.5	836.8
151	1510	159	1	109.5	836.8
151	1510	162	1	109.5	836.8
151	1510	168	1	109.5	836.8
152	1509	160	1	109.5	836.8
152	1509	167	1	109.5	836.8
152	1509	472	1	109.5	836.8
152	1660	421	1	109.5	836.8
152	1660	427	1	109.5	836.8
152	1660	435	1	109.5	836.8
153	1511	161	1	109.5	836.8
153	1511	163	1	109.5	836.8
153	1511	169	1	109.5	836.8
154	1512	164	1	109.5	836.8
154	1512	170	1	109.5	836.8
154	1512	1088	1	109.5	836.8
154	1542	203	1	109.5	836.8
154	1542	208	1	109.5	836.8
154	1542	213	1	109.5	836.8
155	1513	165	1	109.5	836.8
155	1513	171	1	109.5	836.8
155	1513	1356	1	109.5	836.8
155	1543	209	1	109.5	836.8
155	1543	524	1	109.5	836.8
155	1543	1300	1	109.5	836.8
156	1514	157	1	109.5	836.8
156	1514	166	1	109.5	836.8
156	1514	172	1	109.5	836.8
156	1544	205	1	109.5	836.8
156	1544	210	1	109.5	836.8
156	1544	211	1	109.5	836.8
157	1514	166	1	109.5	836.8
157	1514	172	1	109.5	836.8
157	1516	170	1	109.5	836.8
157	1516	1243	1	109.5	836.8
157	1516	1258	1	109.5	836.8
158	1517	163	1	109.5	836.8
158	1517	171	1	109.5	836.8
158	1517	196	1	109.5	836.8
158	1680	463	1	109.5	836.8
158	1680	474	1	109.5	836.8
158	1680	480	1	109.5	836.8
159	1510	162	1	109.5	836.8
159	1510	168	1	109.5	836.8
159	1518	164	1	109.5	836.8
159	1518	169	1	109.5	836.8
160	1507	456	1	109.5	836.8
160	1509	167	1	109.5	836.8
160	1509	472	1	109.5	836.8
161	1511	163	1	109.5	836.8
161	1511	169	1	109.5	836.8
161	1520	166	1	109.5	836.8
161	1520	167	1	109.5	836.8
162	1510	168	1	109.5	836.8
162	1515	194	1	109.5	836.8
162	1515	1270	1	109.5	836.8
162	1515	1299	1	109.5	836.8
163	1511	169	1	109.5	836.8
163	1517	171	1	109.5	836.8
163	1517	196	1	109.5	836.8
164	1512	170	1	109.5	836.8
164	1512	1088	1	109.5	836.8
164	1518	169	1	109.5	836.8
165	1513	171	1	109.5	836.8
165	1513	1356	1	109.5	836.8
165	1519	478	1	109.5	836.8
165	1519	1298	1	109.5	836.8
166	1514	172	1	109.5	836.8
166	1520	167	1	109.5	836.8
167	1509	472	1	109.5	836.8
168	2023	1043	1	109.5	836.8
168	2023	1095	1	109.5	836.8
168	2023	1344	1	109.5	836.8
170	1512	1088	1	109.5	836.8
170	1516	1243	1	109.5	836.8
170	1516	1258	1	109.5	836.8
171	1513	1356	1	109.5	836.8
171	1517	196	1	109.5	836.8
172	1503	173	1	109.5	836.8
173	1522	182	1	109.5	836.8
173	1522	184	1	109.5	836.8
173	1522	190	1	109.5	836.8
174	1521	189	1	109.5	836.8
174	1521	495	1	109.5	836.8
174	1521	1357	1	109.5	836.8
174	1672	445	1	109.5	836.8
174	1672	450	1	109.5	836.8
174	1672	458	1	109.5	836.8
175	1523	183	1	109.5	836.8
175	1523	185	1	109.5	836.8
175	1523	191	1	109.5	836.8
176	1524	186	1	109.5	836.8
176	1524	192	1	109.5	836.8
176	1524	1110	1	109.5	836.8
176	1554	226	1	109.5	836.8
176	1554	230	1	109.5	836.8
176	1554	234	1	109.5	836.8
177	1525	179	1	109.5	836.8
177	1525	187	1	109.5	836.8
177	1525	193	1	109.5	836.8
177	1555	231	1	109.5	836.8
177	1555	247	1	109.5	836.8
177	1555	546	1	109.5	836.8
178	1526	180	1	109.5	836.8
178	1526	188	1	109.5	836.8
178	1526	1358	1	109.5	836.8
178	1556	227	1	109.5	836.8
178	1556	232	1	109.5	836.8
178	1556	1360	1	109.5	836.8
179	1525	187	1	109.5	836.8
179	1525	193	1	109.5	836.8
179	1527	184	1	109.5	836.8
179	1527	216	1	109.5	836.8
179	1527	217	1	109.5	836.8
180	1526	188	1	109.5	836.8
180	1526	1358	1	109.5	836.8
180	1528	192	1	109.5	836.8
180	1528	1245	1	109.5	836.8
180	1528	1259	1	109.5	836.8
181	1529	185	1	109.5	836.8
181	1529	193	1	109.5	836.8
181	1529	219	1	109.5	836.8
181	1692	486	1	109.5	836.8
181	1692	497	1	109.5	836.8
181	1692	503	1	109.5	836.8
182	1522	184	1	109.5	836.8
182	1522	190	1	109.5	836.8
182	1530	186	1	109.5	836.8
182	1530	191	1	109.5	836.8
183	1523	185	1	109.5	836.8
183	1523	191	1	109.5	836.8
183	1532	188	1	109.5	836.8
183	1532	189	1	109.5	836.8
184	1522	190	1	109.5	836.8
184	1527	216	1	109.5	836.8
184	1527	217	1	109.5	836.8
185	1523	191	1	109.5	836.8
185	1529	193	1	109.5	836.8
185	1529	219	1	109.5	836.8
186	1524	192	1	109.5	836.8
186	1524	1110	1	109.5	836.8
186	1530	191	1	109.5	836.8
187	1525	193	1	109.5	836.8
187	1531	204	1	109.5	836.8
187	1531	501	1	109.5	836.8
188	1526	1358	1	109.5	836.8
188	1532	189	1	109.5	836.8
189	1521	495	1	109.5	836.8
189	1521	1357	1	109.5	836.8
190	2035	1065	1	109.5	836.8
190	2035	1117	1	109.5	836.8
190	2035	1244	1	109.5	836.8
192	1524	1110	1	109.5	836.8
192	1528	1245	1	109.5	836.8
192	1528	1259	1	109.5	836.8
193	1529	219	1	109.5	836.8
194	1515	1270	1	109.5	836.8
194	1515	1299	1	109.5	836.8
194	1534	203	1	109.5	836.8
194	1534	206	1	109.5	836.8
194	1534	212	1	109.5	836.8
195	1533	204	1	109.5	836.8
195	1533	211	1	109.5	836.8
195	1533	518	1	109.5	836.8
195	1684	466	1	109.5	836.8
195	1684	472	1	109.5	836.8
195	1684	480	1	109.5	836.8
196	1535	205	1	109.5	836.8
196	1535	207	1	109.5	836.8
196	1535	213	1	109.5	836.8
197	1536	208	1	109.5	836.8
197	1536	214	1	109.5	836.8
197	1536	1131	1	109.5	836.8
197	1566	246	1	109.5	836.8
197	1566	251	1	109.5	836.8
197	1566	256	1	109.5	836.8
198	1537	200	1	109.5	836.8
198	1537	209	1	109.5	836.8
198	1537	215	1	109.5	836.8
198	1567	252	1	109.5	836.8
198	1567	569	1	109.5	836.8
198	1567	1302	1	109.5	836.8
199	1538	201	1	109.5	836.8
199	1538	210	1	109.5	836.8
199	1538	216	1	109.5	836.8
199	1568	248	1	109.5	836.8
199	1568	253	1	109.5	836.8
199	1568	254	1	109.5	836.8
200	1537	209	1	109.5	836.8
200	1537	215	1	109.5	836.8
200	1539	206	1	109.5	836.8
200	1539	237	1	109.5	836.8
200	1539	1301	1	109.5	836.8
201	1538	210	1	109.5	836.8
201	1538	216	1	109.5	836.8
201	1540	214	1	109.5	836.8
201	1540	1246	1	109.5	836.8
201	1540	1260	1	109.5	836.8
202	1541	207	1	109.5	836.8
202	1541	215	1	109.5	836.8
202	1541	239	1	109.5	836.8
202	1704	508	1	109.5	836.8
202	1704	520	1	109.5	836.8
202	1704	526	1	109.5	836.8
203	1534	206	1	109.5	836.8
203	1534	212	1	109.5	836.8
203	1542	208	1	109.5	836.8
203	1542	213	1	109.5	836.8
204	1531	501	1	109.5	836.8
204	1533	211	1	109.5	836.8
204	1533	518	1	109.5	836.8
205	1535	207	1	109.5	836.8
205	1535	213	1	109.5	836.8
205	1544	210	1	109.5	836.8
205	1544	211	1	109.5	836.8
206	1534	212	1	109.5	836.8
206	1539	237	1	109.5	836.8
206	1539	1301	1	109.5	836.8
207	1535	213	1	109.5	836.8
207	1541	215	1	109.5	836.8
207	1541	239	1	109.5	836.8
208	1536	214	1	109.5	836.8
208	1536	1131	1	109.5	836.8
208	1542	213	1	109.5	836.8
209	1537	215	1	109.5	836.8
209	1543	524	1	109.5	836.8
209	1543	1300	1	109.5	836.8
210	1538	216	1	109.5	836.8
210	1544	211	1	109.5	836.8
211	1533	518	1	109.5	836.8
212	2047	1085	1	109.5	836.8
212	2047	1138	1	109.5	836.8
212	2047	1345	1	109.5	836.8
214	1536	1131	1	109.5	836.8
214	1540	1246	1	109.5	836.8
214	1540	1260	1	109.5	836.8
215	1541	239	1	109.5	836.8
216	1527	217	1	109.5	836.8
217	1546	226	1	109.5	836.8
217	1546	228	1	109.5	836.8
217	1546	233	1	109.5	836.8
218	1545	541	1	109.5	836.8
218	1545	1271	1	109.5	836.8
218	1545	1359	1	109.5	836.8
218	1696	490	1	109.5	836.8
218	1696	495	1	109.5	836.8
218	1696	503	1	109.5	836.8
219	1547	227	1	109.5	836.8
219	1547	229	1	109.5	836.8
219	1547	234	1	109.5	836.8
220	1548	230	1	109.5	836.8
220	1548	235	1	109.5	836.8
220	1548	1153	1	109.5	836.8
220	1578	269	1	109.5	836.8
220	1578	273	1	109.5	836.8
220	1578	278	1	109.5	836.8
221	1549	223	1	109.5	836.8
221	1549	231	1	109.5	836.8
221	1549	236	1	109.5	836.8
221	1579	274	1	109.5	836.8
221	1579	290	1	109.5	836.8
221	1579	592	1	109.5	836.8
222	1550	224	1	109.5	836.8
222	1550	232	1	109.5	836.8
222	1550	1361	1	109.5	836.8
222	1580	270	1	109.5	836.8
222	1580	275	1	109.5	836.8
222	1580	276	1	109.5	836.8
223	1549	231	1	109.5	836.8
223	1549	236	1	109.5	836.8
223	1551	228	1	109.5	836.8
223	1551	259	1	109.5	836.8
223	1551	260	1	109.5	836.8
224	1550	232	1	109.5	836.8
224	1550	1361	1	109.5	836.8
224	1552	235	1	109.5	836.8
224	1552	1248	1	109.5	836.8
224	1552	1261	1	109.5	836.8
225	1553	229	1	109.5	836.8
225	1553	236	1	109.5	836.8
225	1553	262	1	109.5	836.8
225	1716	532	1	109.5	836.8
225	1716	543	1	109.5	836.8
225	1716	548	1	109.5	836.8
226	1546	228	1	109.5	836.8
226	1546	233	1	109.5	836.8
226	1554	230	1	109.5	836.8
226	1554	234	1	109.5	836.8
227	1547	229	1	109.5	836.8
227	1547	234	1	109.5	836.8
227	1556	232	1	109.5	836.8
227	1556	1360	1	109.5	836.8
228	1546	233	1	109.5	836.8
228	1551	259	1	109.5	836.8
228	1551	260	1	109.5	836.8
229	1547	234	1	109.5	836.8
229	1553	236	1	109.5	836.8
229	1553	262	1	109.5	836.8
230	1548	235	1	109.5	836.8
230	1548	1153	1	109.5	836.8
230	1554	234	1	109.5	836.8
231	1549	236	1	109.5	836.8
231	1555	247	1	109.5	836.8
231	1555	546	1	109.5	836.8
232	1550	1361	1	109.5	836.8
232	1556	1360	1	109.5	836.8
233	2059	1106	1	109.5	836.8
233	2059	1160	1	109.5	836.8
233	2059	1247	1	109.5	836.8
235	1548	1153	1	109.5	836.8
235	1552	1248	1	109.5	836.8
235	1552	1261	1	109.5	836.8
236	1553	262	1	109.5	836.8
237	1539	1301	1	109.5	836.8
237	1558	246	1	109.5	836.8
237	1558	249	1	109.5	836.8
237	1558	255	1	109.5	836.8
238	1557	247	1	109.5	836.8
238	1557	254	1	109.5	836.8
238	1557	563	1	109.5	836.8
238	1708	512	1	109.5	836.8
238	1708	518	1	109.5	836.8
238	1708	526	1	109.5	836.8
239	1559	248	1	109.5	836.8
239	1559	250	1	109.5	836.8
239	1559	256	1	109.5	836.8
240	1560	251	1	109.5	836.8
240	1560	257	1	109.5	836.8
240	1560	1172	1	109.5	836.8
240	1590	289	1	109.5	836.8
240	1590	294	1	109.5	836.8
240	1590	299	1	109.5	836.8
241	1561	243	1	109.5	836.8
241	1561	252	1	109.5	836.8
241	1561	258	1	109.5	836.8
241	1591	295	1	109.5	836.8
241	1591	614	1	109.5	836.8
241	1591	1304	1	109.5	836.8
242	1562	244	1	109.5	836.8
242	1562	253	1	109.5	836.8
242	1562	259	1	109.5	836.8
242	1592	291	1	109.5	836.8
242	1592	296	1	109.5	836.8
242	1592	297	1	109.5	836.8
243	1561	252	1	109.5	836.8
243	1561	258	1	109.5	836.8
243	1563	249	1	109.5	836.8
243	1563	281	1	109.5	836.8
243	1563	1303	1	109.5	836.8
244	1562	253	1	109.5	836.8
244	1562	259	1	109.5	836.8
244	1564	257	1	109.5	836.8
244	1564	1249	1	109.5	836.8
244	1564	1262	1	109.5	836.8
245	1565	250	1	109.5	836.8
245	1565	258	1	109.5	836.8
245	1565	283	1	109.5	836.8
245	1728	553	1	109.5	836.8
245	1728	565	1	109.5	836.8
245	1728	571	1	109.5	836.8
246	1558	249	1	109.5	836.8
246	1558	255	1	109.5	836.8
246	1566	251	1	109.5	836.8
246	1566	256	1	109.5	836.8
247	1555	546	1	109.5	836.8
247	1557	254	1	109.5	836.8
247	1557	563	1	109.5	836.8
248	1559	250	1	109.5	836.8
248	1559	256	1	109.5	836.8
248	1568	253	1	109.5	836.8
248	1568	254	1	109.5	836.8
249	1558	255	1	109.5	836.8
249	1563	281	1	109.5	836.8
249	1563	1303	1	109.5	836.8
250	1559	256	1	109.5	836.8
250	1565	258	1	109.5	836.8
250	1565	283	1	109.5	836.8
251	1560	257	1	109.5	836.8
251	1560	1172	1	109.5	836.8
251	1566	256	1	109.5	836.8
252	1561	258	1	109.5	836.8
252	1567	569	1	109.5	836.8
252	1567	1302	1	109.5	836.8
253	1562	259	1	109.5	836.8
253	1568	254	1	109.5	836.8
254	1557	563	1	109.5	836.8
255	2071	1127	1	109.5	836.8
255	2071	1179	1	109.5	836.8
255	2071	1346	1	109.5	836.8
257	1560	1172	1	109.5	836.8
257	1564	1249	1	109.5	836.8
257	1564	1262	1	109.5	836.8
258	1565	283	1	109.5	836.8
259	1551	260	1	109.5	836.8
260	1570	269	1	109.5	836.8
260	1570	271	1	109.5	836.8
260	1570	277	1	109.5	836.8
261	1569	276	1	109.5	836.8
261	1569	586	1	109.5	836.8
261	1569	1362	1	109.5	836.8
261	1720	536	1	109.5	836.8
261	1720	541	1	109.5	836.8
261	1720	548	1	109.5	836.8
262	1571	270	1	109.5	836.8
262	1571	272	1	109.5	836.8
262	1571	278	1	109.5	836.8
263	1572	273	1	109.5	836.8
263	1572	279	1	109.5	836.8
263	1572	1194	1	109.5	836.8
264	1435	320	1	109.5	836.8
264	1573	266	1	109.5	836.8
264	1573	274	1	109.5	836.8
264	1573	280	1	109.5	836.8
265	1574	267	1	109.5	836.8
265	1574	275	1	109.5	836.8
265	1574	1363	1	109.5	836.8
266	1573	274	1	109.5	836.8
266	1573	280	1	109.5	836.8
266	1575	271	1	109.5	836.8
266	1575	302	1	109.5	836.8
267	1574	275	1	109.5	836.8
267	1574	1363	1	109.5	836.8
267	1576	279	1	109.5	836.8
267	1576	1230	1	109.5	836.8
267	1576	1263	1	109.5	836.8
268	1577	272	1	109.5	836.8
268	1577	280	1	109.5	836.8
268	1740	577	1	109.5	836.8
268	1740	588	1	109.5	836.8
268	1740	594	1	109.5	836.8
269	1570	271	1	109.5	836.8
269	1570	277	1	109.5	836.8
269	1578	273	1	109.5	836.8
269	1578	278	1	109.5	836.8
270	1571	272	1	109.5	836.8
270	1571	278	1	109.5	836.8
270	1580	275	1	109.5	836.8
270	1580	276	1	109.5	836.8
271	1570	277	1	109.5	836.8
271	1575	302	1	109.5	836.8
272	1571	278	1	109.5	836.8
272	1577	280	1	109.5	836.8
273	1572	279	1	109.5	836.8
273	1572	1194	1	109.5	836.8
273	1578	278	1	109.5	836.8
274	1573	280	1	109.5	836.8
274	1579	290	1	109.5	836.8
274	1579	592	1	109.5	836.8
275	1574	1363	1	109.5	836.8
275	1580	276	1	109.5	836.8
276	1569	586	1	109.5	836.8
276	1569	1362	1	109.5	836.8
277	2083	1149	1	109.5	836.8
277	2083	1201	1	109.5	836.8
277	2083	1250	1	109.5	836.8
279	1572	1194	1	109.5	836.8
279	1576	1230	1	109.5	836.8
279	1576	1263	1	109.5	836.8
281	1563	1303	1	109.5	836.8
281	1582	289	1	109.5	836.8
281	1582	292	1	109.5	836.8
281	1582	298	1	109.5	836.8
282	1581	290	1	109.5	836.8
282	1581	297	1	109.5	836.8
282	1581	608	1	109.5	836.8
282	1732	557	1	109.5	836.8
282	1732	563	1	109.5	836.8
282	1732	571	1	109.5	836.8
283	1583	291	1	109.5	836.8
283	1583	293	1	109.5	836.8
283	1583	299	1	109.5	836.8
284	1584	294	1	109.5	836.8
284	1584	300	1	109.5	836.8
284	1584	1215	1	109.5	836.8
285	1447	342	1	109.5	836.8
285	1447	1292	1	109.5	836.8
285	1585	295	1	109.5	836.8
285	1585	301	1	109.5	836.8
285	1585	1364	1	109.5	836.8
286	1586	287	1	109.5	836.8
286	1586	296	1	109.5	836.8
286	1586	302	1	109.5	836.8
287	1586	296	1	109.5	836.8
287	1586	302	1	109.5	836.8
287	1588	300	1	109.5	836.8
287	1588	1231	1	109.5	836.8
287	1588	1264	1	109.5	836.8
288	1589	293	1	109.5	836.8
288	1589	301	1	109.5	836.8
288	1752	599	1	109.5	836.8
288	1752	610	1	109.5	836.8
288	1752	616	1	109.5	836.8
289	1582	292	1	109.5	836.8
289	1582	298	1	109.5	836.8
289	1590	294	1	109.5	836.8
289	1590	299	1	109.5	836.8
290	1579	592	1	109.5	836.8
290	1581	297	1	109.5	836.8
290	1581	608	1	109.5	836.8
291	1583	293	1	109.5	836.8
291	1583	299	1	109.5	836.8
291	1592	296	1	109.5	836.8
291	1592	297	1	109.5	836.8
292	1582	298	1	109.5	836.8
292	1587	1272	1	109.5	836.8
292	1587	1305	1	109.5	836.8
293	1583	299	1	109.5	836.8
293	1589	301	1	109.5	836.8
294	1584	300	1	109.5	836.8
294	1584	1215	1	109.5	836.8
294	1590	299	1	109.5	836.8
295	1585	301	1	109.5	836.8
295	1585	1364	1	109.5	836.8
295	1591	614	1	109.5	836.8
295	1591	1304	1	109.5	836.8
296	1586	302	1	109.5	836.8
296	1592	297	1	109.5	836.8
297	1581	608	1	109.5	836.8
298	2095	1169	1	109.5	836.8
298	2095	1222	1	109.5	836.8
298	2095	1347	1	109.5	836.8
300	1584	1215	1	109.5	836.8
300	1588	1231	1	109.5	836.8
300	1588	1264	1	109.5	836.8
301	1585	1364	1	109.5	836.8
303	1594	312	1	109.5	836.8
303	1594	314	1	109.5	836.8
303	1594	320	1	109.5	836.8
303	1743	580	1	109.5	836.8
303	1743	585	1	109.5	836.8
303	1743	618	1	109.5	836.8
304	1593	631	1	109.5	836.8
304	1593	1273	1	109.5	836.8
304	1593	1365	1	109.5	836.8
304	1912	896	1	109.5	836.8
304	1912	901	1	109.5	836.8
304	1912	909	1	109.5	836.8
305	1595	313	1	109.5	836.8
305	1595	316	1	109.5	836.8
305	1595	321	1	109.5	836.8
305	1745	582	1	109.5	836.8
305	1745	587	1	109.5	836.8
305	1745	595	1	109.5	836.8
306	1596	317	1	109.5	836.8
306	1596	322	1	109.5	836.8
306	1626	356	1	109.5	836.8
306	1626	361	1	109.5	836.8
306	1626	366	1	109.5	836.8
307	1597	309	1	109.5	836.8
307	1597	318	1	109.5	836.8
307	1597	323	1	109.5	836.8
307	1627	362	1	109.5	836.8
307	1627	379	1	109.5	836.8
307	1627	682	1	109.5	836.8
308	1598	310	1	109.5	836.8
308	1598	319	1	109.5	836.8
308	1598	1367	1	109.5	836.8
308	1628	357	1	109.5	836.8
308	1628	363	1	109.5	836.8
308	1628	364	1	109.5	836.8
309	1597	318	1	109.5	836.8
309	1597	323	1	109.5	836.8
309	1599	314	1	109.5	836.8
309	1599	346	1	109.5	836.8
309	1599	347	1	109.5	836.8
310	1598	319	1	109.5	836.8
310	1598	1367	1	109.5	836.8
310	1600	315	1	109.5	836.8
310	1600	322	1	109.5	836.8
311	1601	316	1	109.5	836.8
311	1601	323	1	109.5	836.8
311	1601	349	1	109.5	836.8
311	1764	622	1	109.5	836.8
311	1764	633	1	109.5	836.8
311	1764	639	1	109.5	836.8
312	1594	314	1	109.5	836.8
312	1594	320	1	109.5	836.8
312	1602	317	1	109.5	836.8
312	1602	321	1	109.5	836.8
312	1602	577	1	109.5	836.8
313	1595	316	1	109.5	836.8
313	1595	321	1	109.5	836.8
313	1604	319	1	109.5	836.8
313	1604	579	1	109.5	836.8
313	1604	1366	1	109.5	836.8
314	1594	320	1	109.5	836.8
314	1599	346	1	109.5	836.8
314	1599	347	1	109.5	836.8
315	1425	1265	1	109.5	836.8
315	1600	322	1	109.5	836.8
316	1595	321	1	109.5	836.8
316	1601	323	1	109.5	836.8
316	1601	349	1	109.5	836.8
317	1596	322	1	109.5	836.8
317	1602	321	1	109.5	836.8
317	1602	577	1	109.5	836.8
318	1597	323	1	109.5	836.8
318	1603	333	1	109.5	836.8
318	1603	578	1	109.5	836.8
318	1603	637	1	109.5	836.8
319	1598	1367	1	109.5	836.8
319	1604	579	1	109.5	836.8
319	1604	1366	1	109.5	836.8
321	1602	577	1	109.5	836.8
323	1601	349	1	109.5	836.8
324	1606	332	1	109.5	836.8
324	1606	335	1	109.5	836.8
324	1606	342	1	109.5	836.8
324	1755	607	1	109.5	836.8
324	1755	1278	1	109.5	836.8
324	1755	1319	1	109.5	836.8
325	1605	333	1	109.5	836.8
325	1605	341	1	109.5	836.8
325	1605	654	1	109.5	836.8
325	1924	918	1	109.5	836.8
325	1924	924	1	109.5	836.8
325	1924	932	1	109.5	836.8
326	1607	334	1	109.5	836.8
326	1607	337	1	109.5	836.8
326	1607	343	1	109.5	836.8
326	1757	603	1	109.5	836.8
326	1757	609	1	109.5	836.8
326	1757	617	1	109.5	836.8
327	1608	338	1	109.5	836.8
327	1608	344	1	109.5	836.8
327	1638	378	1	109.5	836.8
327	1638	384	1	109.5	836.8
327	1638	389	1	109.5	836.8
328	1609	339	1	109.5	836.8
328	1609	345	1	109.5	836.8
328	1609	1368	1	109.5	836.8
328	1639	385	1	109.5	836.8
328	1639	704	1	109.5	836.8
328	1639	1308	1	109.5	836.8
329	1610	330	1	109.5	836.8
329	1610	340	1	109.5	836.8
329	1610	346	1	109.5	836.8
329	1640	380	1	109.5	836.8
329	1640	386	1	109.5	836.8
329	1640	387	1	109.5	836.8
330	1610	340	1	109.5	836.8
330	1610	346	1	109.5	836.8
330	1612	336	1	109.5	836.8
330	1612	344	1	109.5	836.8
331	1613	337	1	109.5	836.8
331	1613	345	1	109.5	836.8
331	1613	371	1	109.5	836.8
331	1776	644	1	109.5	836.8
331	1776	656	1	109.5	836.8
331	1776	662	1	109.5	836.8
332	1606	335	1	109.5	836.8
332	1606	342	1	109.5	836.8
332	1614	338	1	109.5	836.8
332	1614	343	1	109.5	836.8
332	1614	599	1	109.5	836.8
333	1603	578	1	109.5	836.8
333	1603	637	1	109.5	836.8
333	1605	341	1	109.5	836.8
333	1605	654	1	109.5	836.8
334	1607	337	1	109.5	836.8
334	1607	343	1	109.5	836.8
334	1616	340	1	109.5	836.8
334	1616	341	1	109.5	836.8
334	1616	601	1	109.5	836.8
335	1606	342	1	109.5	836.8
335	1611	369	1	109.5	836.8
335	1611	1274	1	109.5	836.8
335	1611	1307	1	109.5	836.8
336	1612	344	1	109.5	836.8
337	1607	343	1	109.5	836.8
337	1613	345	1	109.5	836.8
337	1613	371	1	109.5	836.8
338	1608	344	1	109.5	836.8
338	1614	343	1	109.5	836.8
338	1614	599	1	109.5	836.8
339	1609	345	1	109.5	836.8
339	1609	1368	1	109.5	836.8
339	1615	600	1	109.5	836.8
339	1615	660	1	109.5	836.8
339	1615	1306	1	109.5	836.8
340	1610	346	1	109.5	836.8
340	1616	341	1	109.5	836.8
340	1616	601	1	109.5	836.8
341	1605	654	1	109.5	836.8
341	1616	601	1	109.5	836.8
342	1447	1292	1	109.5	836.8
343	1614	599	1	109.5	836.8
345	1609	1368	1	109.5	836.8
345	1613	371	1	109.5	836.8
346	1599	347	1	109.5	836.8
347	1618	356	1	109.5	836.8
347	1618	358	1	109.5	836.8
347	1618	365	1	109.5	836.8
348	1617	364	1	109.5	836.8
348	1617	677	1	109.5	836.8
348	1617	1369	1	109.5	836.8
348	1768	626	1	109.5	836.8
348	1768	631	1	109.5	836.8
348	1768	639	1	109.5	836.8
349	1619	357	1	109.5	836.8
349	1619	360	1	109.5	836.8
349	1619	366	1	109.5	836.8
350	1620	361	1	109.5	836.8
350	1620	367	1	109.5	836.8
350	1650	402	1	109.5	836.8
350	1650	407	1	109.5	836.8
350	1650	411	1	109.5	836.8
351	1621	353	1	109.5	836.8
351	1621	362	1	109.5	836.8
351	1621	368	1	109.5	836.8
351	1651	408	1	109.5	836.8
351	1651	424	1	109.5	836.8
351	1651	727	1	109.5	836.8
352	1622	354	1	109.5	836.8
352	1622	363	1	109.5	836.8
352	1622	1370	1	109.5	836.8
352	1652	403	1	109.5	836.8
352	1652	409	1	109.5	836.8
352	1652	1372	1	109.5	836.8
353	1621	362	1	109.5	836.8
353	1621	368	1	109.5	836.8
353	1623	358	1	109.5	836.8
353	1623	392	1	109.5	836.8
353	1623	393	1	109.5	836.8
354	1622	363	1	109.5	836.8
354	1622	1370	1	109.5	836.8
354	1624	359	1	109.5	836.8
354	1624	367	1	109.5	836.8
355	1625	360	1	109.5	836.8
355	1625	368	1	109.5	836.8
355	1625	395	1	109.5	836.8
355	1788	668	1	109.5	836.8
355	1788	679	1	109.5	836.8
355	1788	684	1	109.5	836.8
356	1618	358	1	109.5	836.8
356	1618	365	1	109.5	836.8
356	1626	361	1	109.5	836.8
356	1626	366	1	109.5	836.8
357	1619	360	1	109.5	836.8
357	1619	366	1	109.5	836.8
357	1628	363	1	109.5	836.8
357	1628	364	1	109.5	836.8
358	1618	365	1	109.5	836.8
358	1623	392	1	109.5	836.8
358	1623	393	1	109.5	836.8
359	1449	1268	1	109.5	836.8
359	1449	1348	1	109.5	836.8
359	1624	367	1	109.5	836.8
360	1619	366	1	109.5	836.8
360	1625	368	1	109.5	836.8
360	1625	395	1	109.5	836.8
361	1620	367	1	109.5	836.8
361	1626	366	1	109.5	836.8
362	1621	368	1	109.5	836.8
362	1627	379	1	109.5	836.8
362	1627	682	1	109.5	836.8
363	1622	1370	1	109.5	836.8
363	1628	364	1	109.5	836.8
364	1617	677	1	109.5	836.8
364	1617	1369	1	109.5	836.8
368	1625	395	1	109.5	836.8
369	1611	1274	1	109.5	836.8
369	1611	1307	1	109.5	836.8
369	1630	378	1	109.5	836.8
369	1630	381	1	109.5	836.8
369	1630	388	1	109.5	836.8
370	1629	379	1	109.5	836.8
370	1629	387	1	109.5	836.8
370	1629	698	1	109.5	836.8
370	1780	648	1	109.5	836.8
370	1780	654	1	109.5	836.8
370	1780	662	1	109.5	836.8
371	1631	380	1	109.5	836.8
371	1631	383	1	109.5	836.8
371	1631	389	1	109.5	836.8
372	1632	384	1	109.5	836.8
372	1632	390	1	109.5	836.8
372	1662	423	1	109.5	836.8
372	1662	429	1	109.5	836.8
372	1662	434	1	109.5	836.8
373	1633	375	1	109.5	836.8
373	1633	385	1	109.5	836.8
373	1633	391	1	109.5	836.8
373	1663	430	1	109.5	836.8
373	1663	750	1	109.5	836.8
373	1663	1310	1	109.5	836.8
374	1634	376	1	109.5	836.8
374	1634	386	1	109.5	836.8
374	1634	392	1	109.5	836.8
374	1664	425	1	109.5	836.8
374	1664	431	1	109.5	836.8
374	1664	432	1	109.5	836.8
375	1633	385	1	109.5	836.8
375	1633	391	1	109.5	836.8
375	1635	381	1	109.5	836.8
375	1635	414	1	109.5	836.8
375	1635	1309	1	109.5	836.8
376	1634	386	1	109.5	836.8
376	1634	392	1	109.5	836.8
376	1636	382	1	109.5	836.8
376	1636	390	1	109.5	836.8
377	1637	383	1	109.5	836.8
377	1637	391	1	109.5	836.8
377	1637	416	1	109.5	836.8
377	1800	689	1	109.5	836.8
377	1800	700	1	109.5	836.8
377	1800	706	1	109.5	836.8
378	1630	381	1	109.5	836.8
378	1630	388	1	109.5	836.8
378	1638	384	1	109.5	836.8
378	1638	389	1	109.5	836.8
379	1627	682	1	109.5	836.8
379	1629	387	1	109.5	836.8
379	1629	698	1	109.5	836.8
380	1631	383	1	109.5	836.8
380	1631	389	1	109.5	836.8
380	1640	386	1	109.5	836.8
380	1640	387	1	109.5	836.8
381	1630	388	1	109.5	836.8
381	1635	414	1	109.5	836.8
381	1635	1309	1	109.5	836.8
382	1636	390	1	109.5	836.8
383	1631	389	1	109.5	836.8
383	1637	391	1	109.5	836.8
383	1637	416	1	109.5	836.8
384	1632	390	1	109.5	836.8
384	1638	389	1	109.5	836.8
385	1633	391	1	109.5	836.8
385	1639	704	1	109.5	836.8
385	1639	1308	1	109.5	836.8
386	1634	392	1	109.5	836.8
386	1640	387	1	109.5	836.8
387	1629	698	1	109.5	836.8
388	1471	1294	1	109.5	836.8
391	1637	416	1	109.5	836.8
392	1623	393	1	109.5	836.8
393	1642	402	1	109.5	836.8
393	1642	404	1	109.5	836.8
393	1642	410	1	109.5	836.8
394	1641	721	1	109.5	836.8
394	1641	1275	1	109.5	836.8
394	1641	1371	1	109.5	836.8
394	1792	672	1	109.5	836.8
394	1792	677	1	109.5	836.8
394	1792	684	1	109.5	836.8
395	1643	403	1	109.5	836.8
395	1643	406	1	109.5	836.8
395	1643	411	1	109.5	836.8
396	1644	407	1	109.5	836.8
396	1644	412	1	109.5	836.8
396	1674	447	1	109.5	836.8
396	1674	452	1	109.5	836.8
396	1674	457	1	109.5	836.8
397	1645	399	1	109.5	836.8
397	1645	408	1	109.5	836.8
397	1645	413	1	109.5	836.8
397	1675	453	1	109.5	836.8
397	1675	469	1	109.5	836.8
397	1675	772	1	109.5	836.8
398	1646	400	1	109.5	836.8
398	1646	409	1	109.5	836.8
398	1646	1373	1	109.5	836.8
398	1676	448	1	109.5	836.8
398	1676	454	1	109.5	836.8
398	1676	455	1	109.5	836.8
399	1645	408	1	109.5	836.8
399	1645	413	1	109.5	836.8
399	1647	404	1	109.5	836.8
399	1647	437	1	109.5	836.8
399	1647	438	1	109.5	836.8
400	1646	409	1	109.5	836.8
400	1646	1373	1	109.5	836.8
400	1648	405	1	109.5	836.8
400	1648	412	1	109.5	836.8
401	1649	406	1	109.5	836.8
401	1649	413	1	109.5	836.8
401	1649	440	1	109.5	836.8
401	1812	712	1	109.5	836.8
401	1812	723	1	109.5	836.8
401	1812	729	1	109.5	836.8
402	1642	404	1	109.5	836.8
402	1642	410	1	109.5	836.8
402	1650	407	1	109.5	836.8
402	1650	411	1	109.5	836.8
403	1643	406	1	109.5	836.8
403	1643	411	1	109.5	836.8
403	1652	409	1	109.5	836.8
403	1652	1372	1	109.5	836.8
404	1642	410	1	109.5	836.8
404	1647	437	1	109.5	836.8
404	1647	438	1	109.5	836.8
405	1473	1351	1	109.5	836.8
405	1648	412	1	109.5	836.8
406	1643	411	1	109.5	836.8
406	1649	413	1	109.5	836.8
406	1649	440	1	109.5	836.8
407	1644	412	1	109.5	836.8
407	1650	411	1	109.5	836.8
408	1645	413	1	109.5	836.8
408	1651	424	1	109.5	836.8
408	1651	727	1	109.5	836.8
409	1646	1373	1	109.5	836.8
409	1652	1372	1	109.5	836.8
413	1649	440	1	109.5	836.8
414	1635	1309	1	109.5	836.8
414	1654	423	1	109.5	836.8
414	1654	426	1	109.5	836.8
414	1654	433	1	109.5	836.8
415	1653	424	1	109.5	836.8
415	1653	432	1	109.5	836.8
415	1653	744	1	109.5	836.8
415	1804	692	1	109.5	836.8
415	1804	698	1	109.5	836.8
415	1804	706	1	109.5	836.8
416	1655	425	1	109.5	836.8
416	1655	428	1	109.5	836.8
416	1655	434	1	109.5	836.8
417	1656	429	1	109.5	836.8
417	1656	435	1	109.5	836.8
417	1686	468	1	109.5	836.8
417	1686	474	1	109.5	836.8
417	1686	479	1	109.5	836.8
418	1657	420	1	109.5	836.8
418	1657	430	1	109.5	836.8
418	1657	436	1	109.5	836.8
418	1687	475	1	109.5	836.8
418	1687	794	1	109.5	836.8
418	1687	1312	1	109.5	836.8
419	1658	421	1	109.5	836.8
419	1658	431	1	109.5	836.8
419	1658	437	1	109.5	836.8
419	1688	470	1	109.5	836.8
419	1688	476	1	109.5	836.8
419	1688	477	1	109.5	836.8
420	1657	430	1	109.5	836.8
420	1657	436	1	109.5	836.8
420	1659	426	1	109.5	836.8
420	1659	460	1	109.5	836.8
420	1659	1311	1	109.5	836.8
421	1658	431	1	109.5	836.8
421	1658	437	1	109.5	836.8
421	1660	427	1	109.5	836.8
421	1660	435	1	109.5	836.8
422	1661	428	1	109.5	836.8
422	1661	436	1	109.5	836.8
422	1661	462	1	109.5	836.8
422	1824	734	1	109.5	836.8
422	1824	746	1	109.5	836.8
422	1824	752	1	109.5	836.8
423	1654	426	1	109.5	836.8
423	1654	433	1	109.5	836.8
423	1662	429	1	109.5	836.8
423	1662	434	1	109.5	836.8
424	1651	727	1	109.5	836.8
424	1653	432	1	109.5	836.8
424	1653	744	1	109.5	836.8
425	1655	428	1	109.5	836.8
425	1655	434	1	109.5	836.8
425	1664	431	1	109.5	836.8
425	1664	432	1	109.5	836.8
426	1654	433	1	109.5	836.8
426	1659	460	1	109.5	836.8
426	1659	1311	1	109.5	836.8
427	1660	435	1	109.5	836.8
428	1655	434	1	109.5	836.8
428	1661	436	1	109.5	836.8
428	1661	462	1	109.5	836.8
429	1656	435	1	109.5	836.8
429	1662	434	1	109.5	836.8
430	1657	436	1	109.5	836.8
430	1663	750	1	109.5	836.8
430	1663	1310	1	109.5	836.8
431	1658	437	1	109.5	836.8
431	1664	432	1	109.5	836.8
432	1653	744	1	109.5	836.8
433	1495	1296	1	109.5	836.8
436	1661	462	1	109.5	836.8
437	1647	438	1	109.5	836.8
438	1666	447	1	109.5	836.8
438	1666	449	1	109.5	836.8
438	1666	456	1	109.5	836.8
439	1665	455	1	109.5	836.8
439	1665	767	1	109.5	836.8
439	1665	1374	1	109.5	836.8
439	1816	716	1	109.5	836.8
439	1816	721	1	109.5	836.8
439	1816	729	1	109.5	836.8
440	1667	448	1	109.5	836.8
440	1667	451	1	109.5	836.8
440	1667	457	1	109.5	836.8
441	1668	452	1	109.5	836.8
441	1668	458	1	109.5	836.8
441	1698	492	1	109.5	836.8
441	1698	497	1	109.5	836.8
441	1698	502	1	109.5	836.8
442	1669	444	1	109.5	836.8
442	1669	453	1	109.5	836.8
442	1669	459	1	109.5	836.8
442	1699	498	1	109.5	836.8
442	1699	515	1	109.5	836.8
442	1699	817	1	109.5	836.8
443	1670	445	1	109.5	836.8
443	1670	454	1	109.5	836.8
443	1670	1375	1	109.5	836.8
443	1700	493	1	109.5	836.8
443	1700	499	1	109.5	836.8
443	1700	500	1	109.5	836.8
444	1669	453	1	109.5	836.8
444	1669	459	1	109.5	836.8
444	1671	449	1	109.5	836.8
444	1671	482	1	109.5	836.8
444	1671	483	1	109.5	836.8
445	1670	454	1	109.5	836.8
445	1670	1375	1	109.5	836.8
445	1672	450	1	109.5	836.8
445	1672	458	1	109.5	836.8
446	1673	451	1	109.5	836.8
446	1673	459	1	109.5	836.8
446	1673	485	1	109.5	836.8
446	1836	758	1	109.5	836.8
446	1836	769	1	109.5	836.8
446	1836	774	1	109.5	836.8
447	1666	449	1	109.5	836.8
447	1666	456	1	109.5	836.8
447	1674	452	1	109.5	836.8
447	1674	457	1	109.5	836.8
448	1667	451	1	109.5	836.8
448	1667	457	1	109.5	836.8
448	1676	454	1	109.5	836.8
448	1676	455	1	109.5	836.8
449	1666	456	1	109.5	836.8
449	1671	482	1	109.5	836.8
449	1671	483	1	109.5	836.8
450	1497	1269	1	109.5	836.8
450	1497	1353	1	109.5	836.8
450	1672	458	1	109.5	836.8
451	1667	457	1	109.5	836.8
451	1673	459	1	109.5	836.8
451	1673	485	1	109.5	836.8
452	1668	458	1	109.5	836.8
452	1674	457	1	109.5	836.8
453	1669	459	1	109.5	836.8
453	1675	469	1	109.5	836.8
453	1675	772	1	109.5	836.8
454	1670	1375	1	109.5	836.8
454	1676	455	1	109.5	836.8
455	1665	767	1	109.5	836.8
455	1665	1374	1	109.5	836.8
459	1673	485	1	109.5	836.8
460	1659	1311	1	109.5	836.8
460	1678	468	1	109.5	836.8
460	1678	471	1	109.5	836.8
460	1678	478	1	109.5	836.8
461	1677	469	1	109.5	836.8
461	1677	477	1	109.5	836.8
461	1677	788	1	109.5	836.8
461	1828	738	1	109.5	836.8
461	1828	744	1	109.5	836.8
461	1828	752	1	109.5	836.8
462	1679	470	1	109.5	836.8
462	1679	473	1	109.5	836.8
462	1679	479	1	109.5	836.8
463	1680	474	1	109.5	836.8
463	1680	480	1	109.5	836.8
463	1710	514	1	109.5	836.8
463	1710	520	1	109.5	836.8
463	1710	525	1	109.5	836.8
464	1681	475	1	109.5	836.8
464	1681	481	1	109.5	836.8
464	1681	1376	1	109.5	836.8
464	1711	521	1	109.5	836.8
464	1711	840	1	109.5	836.8
464	1711	1314	1	109.5	836.8
465	1682	466	1	109.5	836.8
465	1682	476	1	109.5	836.8
465	1682	482	1	109.5	836.8
465	1712	516	1	109.5	836.8
465	1712	522	1	109.5	836.8
465	1712	523	1	109.5	836.8
466	1682	476	1	109.5	836.8
466	1682	482	1	109.5	836.8
466	1684	472	1	109.5	836.8
466	1684	480	1	109.5	836.8
467	1685	473	1	109.5	836.8
467	1685	481	1	109.5	836.8
467	1685	507	1	109.5	836.8
467	1848	779	1	109.5	836.8
467	1848	790	1	109.5	836.8
467	1848	796	1	109.5	836.8
468	1678	471	1	109.5	836.8
468	1678	478	1	109.5	836.8
468	1686	474	1	109.5	836.8
468	1686	479	1	109.5	836.8
469	1675	772	1	109.5	836.8
469	1677	477	1	109.5	836.8
469	1677	788	1	109.5	836.8
470	1679	473	1	109.5	836.8
470	1679	479	1	109.5	836.8
470	1688	476	1	109.5	836.8
470	1688	477	1	109.5	836.8
471	1678	478	1	109.5	836.8
471	1683	505	1	109.5	836.8
471	1683	1276	1	109.5	836.8
471	1683	1313	1	109.5	836.8
472	1684	480	1	109.5	836.8
473	1679	479	1	109.5	836.8
473	1685	481	1	109.5	836.8
473	1685	507	1	109.5	836.8
474	1680	480	1	109.5	836.8
474	1686	479	1	109.5	836.8
475	1681	481	1	109.5	836.8
475	1681	1376	1	109.5	836.8
475	1687	794	1	109.5	836.8
475	1687	1312	1	109.5	836.8
476	1682	482	1	109.5	836.8
476	1688	477	1	109.5	836.8
477	1677	788	1	109.5	836.8
478	1519	1298	1	109.5	836.8
481	1681	1376	1	109.5	836.8
481	1685	507	1	109.5	836.8
482	1671	483	1	109.5	836.8
483	1690	492	1	109.5	836.8
483	1690	494	1	109.5	836.8
483	1690	501	1	109.5	836.8
484	1689	500	1	109.5	836.8
484	1689	811	1	109.5	836.8
484	1689	1377	1	109.5	836.8
484	1840	762	1	109.5	836.8
484	1840	767	1	109.5	836.8
484	1840	774	1	109.5	836.8
485	1691	493	1	109.5	836.8
485	1691	496	1	109.5	836.8
485	1691	502	1	109.5	836.8
486	1692	497	1	109.5	836.8
486	1692	503	1	109.5	836.8
486	1722	538	1	109.5	836.8
486	1722	543	1	109.5	836.8
486	1722	547	1	109.5	836.8
487	1693	489	1	109.5	836.8
487	1693	498	1	109.5	836.8
487	1693	504	1	109.5	836.8
487	1723	544	1	109.5	836.8
487	1723	560	1	109.5	836.8
487	1723	862	1	109.5	836.8
488	1694	490	1	109.5	836.8
488	1694	499	1	109.5	836.8
488	1694	1378	1	109.5	836.8
488	1724	539	1	109.5	836.8
488	1724	545	1	109.5	836.8
488	1724	1380	1	109.5	836.8
489	1693	498	1	109.5	836.8
489	1693	504	1	109.5	836.8
489	1695	494	1	109.5	836.8
489	1695	528	1	109.5	836.8
489	1695	529	1	109.5	836.8
490	1694	499	1	109.5	836.8
490	1694	1378	1	109.5	836.8
490	1696	495	1	109.5	836.8
490	1696	503	1	109.5	836.8
491	1697	496	1	109.5	836.8
491	1697	504	1	109.5	836.8
491	1697	531	1	109.5	836.8
491	1860	802	1	109.5	836.8
491	1860	813	1	109.5	836.8
491	1860	819	1	109.5	836.8
492	1690	494	1	109.5	836.8
492	1690	501	1	109.5	836.8
492	1698	497	1	109.5	836.8
492	1698	502	1	109.5	836.8
493	1691	496	1	109.5	836.8
493	1691	502	1	109.5	836.8
493	1700	499	1	109.5	836.8
493	1700	500	1	109.5	836.8
494	1690	501	1	109.5	836.8
494	1695	528	1	109.5	836.8
494	1695	529	1	109.5	836.8
495	1521	1357	1	109.5	836.8
495	1696	503	1	109.5	836.8
496	1691	502	1	109.5	836.8
496	1697	504	1	109.5	836.8
496	1697	531	1	109.5	836.8
497	1692	503	1	109.5	836.8
497	1698	502	1	109.5	836.8
498	1693	504	1	109.5	836.8
498	1699	515	1	109.5	836.8
498	1699	817	1	109.5	836.8
499	1694	1378	1	109.5	836.8
499	1700	500	1	109.5	836.8
500	1689	811	1	109.5	836.8
500	1689	1377	1	109.5	836.8
504	1697	531	1	109.5	836.8
505	1683	1276	1	109.5	836.8
505	1683	1313	1	109.5	836.8
505	1702	514	1	109.5	836.8
505	1702	517	1	109.5	836.8
505	1702	524	1	109.5	836.8
506	1701	515	1	109.5	836.8
506	1701	523	1	109.5	836.8
506	1701	834	1	109.5	836.8
506	1852	782	1	109.5	836.8
506	1852	788	1	109.5	836.8
506	1852	796	1	109.5	836.8
507	1703	516	1	109.5	836.8
507	1703	519	1	109.5	836.8
507	1703	525	1	109.5	836.8
508	1704	520	1	109.5	836.8
508	1704	526	1	109.5	836.8
508	1734	559	1	109.5	836.8
508	1734	565	1	109.5	836.8
508	1734	570	1	109.5	836.8
509	1705	511	1	109.5	836.8
509	1705	521	1	109.5	836.8
509	1705	527	1	109.5	836.8
509	1735	566	1	109.5	836.8
509	1735	884	1	109.5	836.8
509	1735	1316	1	109.5	836.8
510	1706	512	1	109.5	836.8
510	1706	522	1	109.5	836.8
510	1706	528	1	109.5	836.8
510	1736	561	1	109.5	836.8
510	1736	567	1	109.5	836.8
510	1736	568	1	109.5	836.8
511	1705	521	1	109.5	836.8
511	1705	527	1	109.5	836.8
511	1707	517	1	109.5	836.8
511	1707	550	1	109.5	836.8
511	1707	1315	1	109.5	836.8
512	1706	522	1	109.5	836.8
512	1706	528	1	109.5	836.8
512	1708	518	1	109.5	836.8
512	1708	526	1	109.5	836.8
513	1709	519	1	109.5	836.8
513	1709	527	1	109.5	836.8
513	1709	552	1	109.5	836.8
513	1872	824	1	109.5	836.8
513	1872	836	1	109.5	836.8
513	1872	842	1	109.5	836.8
514	1702	517	1	109.5	836.8
514	1702	524	1	109.5	836.8
514	1710	520	1	109.5	836.8
514	1710	525	1	109.5	836.8
515	1699	817	1	109.5	836.8
515	1701	523	1	109.5	836.8
515	1701	834	1	109.5	836.8
516	1703	519	1	109.5	836.8
516	1703	525	1	109.5	836.8
516	1712	522	1	109.5	836.8
516	1712	523	1	109.5	836.8
517	1702	524	1	109.5	836.8
517	1707	550	1	109.5	836.8
517	1707	1315	1	109.5	836.8
518	1708	526	1	109.5	836.8
519	1703	525	1	109.5	836.8
519	1709	527	1	109.5	836.8
519	1709	552	1	109.5	836.8
520	1704	526	1	109.5	836.8
520	1710	525	1	109.5	836.8
521	1705	527	1	109.5	836.8
521	1711	840	1	109.5	836.8
521	1711	1314	1	109.5	836.8
522	1706	528	1	109.5	836.8
522	1712	523	1	109.5	836.8
523	1701	834	1	109.5	836.8
524	1543	1300	1	109.5	836.8
527	1709	552	1	109.5	836.8
528	1695	529	1	109.5	836.8
529	1714	538	1	109.5	836.8
529	1714	540	1	109.5	836.8
529	1714	546	1	109.5	836.8
530	1713	857	1	109.5	836.8
530	1713	1277	1	109.5	836.8
530	1713	1379	1	109.5	836.8
530	1864	806	1	109.5	836.8
530	1864	811	1	109.5	836.8
530	1864	819	1	109.5	836.8
531	1715	539	1	109.5	836.8
531	1715	542	1	109.5	836.8
531	1715	547	1	109.5	836.8
532	1716	543	1	109.5	836.8
532	1716	548	1	109.5	836.8
532	1746	583	1	109.5	836.8
532	1746	588	1	109.5	836.8
532	1746	593	1	109.5	836.8
533	1717	535	1	109.5	836.8
533	1717	544	1	109.5	836.8
533	1717	549	1	109.5	836.8
533	1747	589	1	109.5	836.8
533	1747	605	1	109.5	836.8
533	1747	907	1	109.5	836.8
534	1718	536	1	109.5	836.8
534	1718	545	1	109.5	836.8
534	1718	1381	1	109.5	836.8
534	1748	584	1	109.5	836.8
534	1748	590	1	109.5	836.8
534	1748	591	1	109.5	836.8
535	1717	544	1	109.5	836.8
535	1717	549	1	109.5	836.8
535	1719	540	1	109.5	836.8
535	1719	573	1	109.5	836.8
535	1719	574	1	109.5	836.8
536	1718	545	1	109.5	836.8
536	1718	1381	1	109.5	836.8
536	1720	541	1	109.5	836.8
536	1720	548	1	109.5	836.8
537	1721	542	1	109.5	836.8
537	1721	549	1	109.5	836.8
537	1721	576	1	109.5	836.8
537	1884	848	1	109.5	836.8
537	1884	859	1	109.5	836.8
537	1884	864	1	109.5	836.8
538	1714	540	1	109.5	836.8
538	1714	546	1	109.5	836.8
538	1722	543	1	109.5	836.8
538	1722	547	1	109.5	836.8
539	1715	542	1	109.5	836.8
539	1715	547	1	109.5	836.8
539	1724	545	1	109.5	836.8
539	1724	1380	1	109.5	836.8
540	1714	546	1	109.5	836.8
540	1719	573	1	109.5	836.8
540	1719	574	1	109.5	836.8
541	1545	1271	1	109.5	836.8
541	1545	1359	1	109.5	836.8
541	1720	548	1	109.5	836.8
542	1715	547	1	109.5	836.8
542	1721	549	1	109.5	836.8
542	1721	576	1	109.5	836.8
543	1716	548	1	109.5	836.8
543	1722	547	1	109.5	836.8
544	1717	549	1	109.5	836.8
544	1723	560	1	109.5	836.8
544	1723	862	1	109.5	836.8
545	1718	1381	1	109.5	836.8
545	1724	1380	1	109.5	836.8
549	1721	576	1	109.5	836.8
550	1707	1315	1	109.5	836.8
550	1726	559	1	109.5	836.8
550	1726	562	1	109.5	836.8
550	1726	569	1	109.5	836.8
551	1725	560	1	109.5	836.8
551	1725	568	1	109.5	836.8
551	1725	878	1	109.5	836.8
551	1876	828	1	109.5	836.8
551	1876	834	1	109.5	836.8
551	1876	842	1	109.5	836.8
552	1727	561	1	109.5	836.8
552	1727	564	1	109.5	836.8
552	1727	570	1	109.5	836.8
553	1728	565	1	109.5	836.8
553	1728	571	1	109.5	836.8
553	1758	604	1	109.5	836.8
553	1758	610	1	109.5	836.8
553	1758	615	1	109.5	836.8
554	1729	556	1	109.5	836.8
554	1729	566	1	109.5	836.8
554	1729	572	1	109.5	836.8
554	1759	611	1	109.5	836.8
554	1759	930	1	109.5	836.8
554	1759	1318	1	109.5	836.8
555	1730	557	1	109.5	836.8
555	1730	567	1	109.5	836.8
555	1730	573	1	109.5	836.8
555	1760	606	1	109.5	836.8
555	1760	612	1	109.5	836.8
555	1760	613	1	109.5	836.8
556	1729	566	1	109.5	836.8
556	1729	572	1	109.5	836.8
556	1731	562	1	109.5	836.8
556	1731	596	1	109.5	836.8
556	1731	1317	1	109.5	836.8
557	1730	567	1	109.5	836.8
557	1730	573	1	109.5	836.8
557	1732	563	1	109.5	836.8
557	1732	571	1	109.5	836.8
558	1733	564	1	109.5	836.8
558	1733	572	1	109.5	836.8
558	1733	598	1	109.5	836.8
558	1896	869	1	109.5	836.8
558	1896	880	1	109.5	836.8
558	1896	886	1	109.5	836.8
559	1726	562	1	109.5	836.8
559	1726	569	1	109.5	836.8
559	1734	565	1	109.5	836.8
559	1734	570	1	109.5	836.8
560	1723	862	1	109.5	836.8
560	1725	568	1	109.5	836.8
560	1725	878	1	109.5	836.8
561	1727	564	1	109.5	836.8
561	1727	570	1	109.5	836.8
561	1736	567	1	109.5	836.8
561	1736	568	1	109.5	836.8
562	1726	569	1	109.5	836.8
562	1731	596	1	109.5	836.8
562	1731	1317	1	109.5	836.8
563	1732	571	1	109.5	836.8
564	1727	570	1	109.5	836.8
564	1733	572	1	109.5	836.8
564	1733	598	1	109.5	836.8
565	1728	571	1	109.5	836.8
565	1734	570	1	109.5	836.8
566	1729	572	1	109.5	836.8
566	1735	884	1	109.5	836.8
566	1735	1316	1	109.5	836.8
567	1730	573	1	109.5	836.8
567	1736	568	1	109.5	836.8
568	1725	878	1	109.5	836.8
569	1567	1302	1	109.5	836.8
572	1733	598	1	109.5	836.8
573	1719	574	1	109.5	836.8
574	1738	583	1	109.5	836.8
574	1738	585	1	109.5	836.8
574	1738	592	1	109.5	836.8
575	1737	591	1	109.5	836.8
575	1737	901	1	109.5	836.8
575	1737	1382	1	109.5	836.8
575	1888	852	1	109.5	836.8
575	1888	857	1	109.5	836.8
575	1888	864	1	109.5	836.8
576	1739	584	1	109.5	836.8
576	1739	587	1	109.5	836.8
576	1739	593	1	109.5	836.8
577	1740	588	1	109.5	836.8
577	1740	594	1	109.5	836.8
578	1603	637	1	109.5	836.8
578	1741	580	1	109.5	836.8
578	1741	589	1	109.5	836.8
578	1741	595	1	109.5	836.8
579	1604	1366	1	109.5	836.8
579	1742	581	1	109.5	836.8
579	1742	590	1	109.5	836.8
579	1742	1383	1	109.5	836.8
580	1741	589	1	109.5	836.8
580	1741	595	1	109.5	836.8
580	1743	585	1	109.5	836.8
580	1743	618	1	109.5	836.8
581	1742	590	1	109.5	836.8
581	1742	1383	1	109.5	836.8
581	1744	586	1	109.5	836.8
581	1744	594	1	109.5	836.8
582	1745	587	1	109.5	836.8
582	1745	595	1	109.5	836.8
582	1908	892	1	109.5	836.8
582	1908	903	1	109.5	836.8
582	1908	909	1	109.5	836.8
583	1738	585	1	109.5	836.8
583	1738	592	1	109.5	836.8
583	1746	588	1	109.5	836.8
583	1746	593	1	109.5	836.8
584	1739	587	1	109.5	836.8
584	1739	593	1	109.5	836.8
584	1748	590	1	109.5	836.8
584	1748	591	1	109.5	836.8
585	1738	592	1	109.5	836.8
585	1743	618	1	109.5	836.8
586	1569	1362	1	109.5	836.8
586	1744	594	1	109.5	836.8
587	1739	593	1	109.5	836.8
587	1745	595	1	109.5	836.8
588	1740	594	1	109.5	836.8
588	1746	593	1	109.5	836.8
589	1741	595	1	109.5	836.8
589	1747	605	1	109.5	836.8
589	1747	907	1	109.5	836.8
590	1742	1383	1	109.5	836.8
590	1748	591	1	109.5	836.8
591	1737	901	1	109.5	836.8
591	1737	1382	1	109.5	836.8
596	1731	1317	1	109.5	836.8
596	1750	604	1	109.5	836.8
596	1750	607	1	109.5	836.8
596	1750	614	1	109.5	836.8
597	1749	605	1	109.5	836.8
597	1749	613	1	109.5	836.8
597	1749	924	1	109.5	836.8
597	1900	872	1	109.5	836.8
597	1900	878	1	109.5	836.8
597	1900	886	1	109.5	836.8
598	1751	606	1	109.5	836.8
598	1751	609	1	109.5	836.8
598	1751	615	1	109.5	836.8
599	1752	610	1	109.5	836.8
599	1752	616	1	109.5	836.8
600	1615	660	1	109.5	836.8
600	1615	1306	1	109.5	836.8
600	1753	611	1	109.5	836.8
600	1753	617	1	109.5	836.8
600	1753	1384	1	109.5	836.8
601	1754	602	1	109.5	836.8
601	1754	612	1	109.5	836.8
601	1754	618	1	109.5	836.8
602	1754	612	1	109.5	836.8
602	1754	618	1	109.5	836.8
602	1756	608	1	109.5	836.8
602	1756	616	1	109.5	836.8
603	1757	609	1	109.5	836.8
603	1757	617	1	109.5	836.8
603	1920	914	1	109.5	836.8
603	1920	926	1	109.5	836.8
603	1920	932	1	109.5	836.8
604	1750	607	1	109.5	836.8
604	1750	614	1	109.5	836.8
604	1758	610	1	109.5	836.8
604	1758	615	1	109.5	836.8
605	1747	907	1	109.5	836.8
605	1749	613	1	109.5	836.8
605	1749	924	1	109.5	836.8
606	1751	609	1	109.5	836.8
606	1751	615	1	109.5	836.8
606	1760	612	1	109.5	836.8
606	1760	613	1	109.5	836.8
607	1750	614	1	109.5	836.8
607	1755	1278	1	109.5	836.8
607	1755	1319	1	109.5	836.8
608	1756	616	1	109.5	836.8
609	1751	615	1	109.5	836.8
609	1757	617	1	109.5	836.8
610	1752	616	1	109.5	836.8
610	1758	615	1	109.5	836.8
611	1753	617	1	109.5	836.8
611	1753	1384	1	109.5	836.8
611	1759	930	1	109.5	836.8
611	1759	1318	1	109.5	836.8
612	1754	618	1	109.5	836.8
612	1760	613	1	109.5	836.8
613	1749	924	1	109.5	836.8
614	1591	1304	1	109.5	836.8
617	1753	1384	1	109.5	836.8
619	1762	628	1	109.5	836.8
619	1762	630	1	109.5	836.8
619	1762	637	1	109.5	836.8
619	1911	895	1	109.5	836.8
619	1911	900	1	109.5	836.8
619	1911	934	1	109.5	836.8
620	1761	636	1	109.5	836.8
620	1761	946	1	109.5	836.8
620	1761	1385	1	109.5	836.8
620	2080	1193	1	109.5	836.8
620	2080	1198	1	109.5	836.8
620	2080	1206	1	109.5	836.8
621	1763	629	1	109.5	836.8
621	1763	632	1	109.5	836.8
621	1763	638	1	109.5	836.8
621	1913	897	1	109.5	836.8
621	1913	902	1	109.5	836.8
621	1913	910	1	109.5	836.8
622	1764	633	1	109.5	836.8
622	1764	639	1	109.5	836.8
622	1794	674	1	109.5	836.8
622	1794	679	1	109.5	836.8
622	1794	683	1	109.5	836.8
623	1765	625	1	109.5	836.8
623	1765	634	1	109.5	836.8
623	1765	640	1	109.5	836.8
623	1795	680	1	109.5	836.8
623	1795	695	1	109.5	836.8
623	1795	994	1	109.5	836.8
624	1766	626	1	109.5	836.8
624	1766	635	1	109.5	836.8
624	1766	1386	1	109.5	836.8
624	1796	675	1	109.5	836.8
624	1796	681	1	109.5	836.8
624	1796	1388	1	109.5	836.8
625	1765	634	1	109.5	836.8
625	1765	640	1	109.5	836.8
625	1767	630	1	109.5	836.8
625	1767	664	1	109.5	836.8
625	1767	665	1	109.5	836.8
626	1766	635	1	109.5	836.8
626	1766	1386	1	109.5	836.8
626	1768	631	1	109.5	836.8
626	1768	639	1	109.5	836.8
627	1769	632	1	109.5	836.8
627	1769	640	1	109.5	836.8
627	1769	667	1	109.5	836.8
627	1932	937	1	109.5	836.8
627	1932	948	1	109.5	836.8
627	1932	954	1	109.5	836.8
628	1762	630	1	109.5	836.8
628	1762	637	1	109.5	836.8
628	1770	633	1	109.5	836.8
628	1770	638	1	109.5	836.8
628	1770	892	1	109.5	836.8
629	1763	632	1	109.5	836.8
629	1763	638	1	109.5	836.8
629	1772	635	1	109.5	836.8
629	1772	636	1	109.5	836.8
629	1772	894	1	109.5	836.8
630	1762	637	1	109.5	836.8
630	1767	664	1	109.5	836.8
630	1767	665	1	109.5	836.8
631	1593	1273	1	109.5	836.8
631	1593	1365	1	109.5	836.8
631	1768	639	1	109.5	836.8
632	1763	638	1	109.5	836.8
632	1769	640	1	109.5	836.8
632	1769	667	1	109.5	836.8
633	1764	639	1	109.5	836.8
633	1770	638	1	109.5	836.8
633	1770	892	1	109.5	836.8
634	1765	640	1	109.5	836.8
634	1771	651	1	109.5	836.8
634	1771	893	1	109.5	836.8
634	1771	952	1	109.5	836.8
635	1766	1386	1	109.5	836.8
635	1772	636	1	109.5	836.8
635	1772	894	1	109.5	836.8
636	1761	946	1	109.5	836.8
636	1761	1385	1	109.5	836.8
636	1772	894	1	109.5	836.8
638	1770	892	1	109.5	836.8
640	1769	667	1	109.5	836.8
641	1774	650	1	109.5	836.8
641	1774	653	1	109.5	836.8
641	1774	660	1	109.5	836.8
641	1923	917	1	109.5	836.8
641	1923	923	1	109.5	836.8
641	1923	1333	1	109.5	836.8
642	1773	651	1	109.5	836.8
642	1773	659	1	109.5	836.8
642	1773	967	1	109.5	836.8
642	2092	1214	1	109.5	836.8
642	2092	1219	1	109.5	836.8
642	2092	1227	1	109.5	836.8
643	1775	652	1	109.5	836.8
643	1775	655	1	109.5	836.8
643	1775	661	1	109.5	836.8
643	1925	919	1	109.5	836.8
643	1925	925	1	109.5	836.8
643	1925	933	1	109.5	836.8
644	1776	656	1	109.5	836.8
644	1776	662	1	109.5	836.8
644	1806	694	1	109.5	836.8
644	1806	700	1	109.5	836.8
644	1806	705	1	109.5	836.8
645	1777	647	1	109.5	836.8
645	1777	657	1	109.5	836.8
645	1777	663	1	109.5	836.8
645	1807	701	1	109.5	836.8
645	1807	1014	1	109.5	836.8
645	1807	1322	1	109.5	836.8
646	1778	648	1	109.5	836.8
646	1778	658	1	109.5	836.8
646	1778	664	1	109.5	836.8
646	1808	696	1	109.5	836.8
646	1808	702	1	109.5	836.8
646	1808	703	1	109.5	836.8
647	1777	657	1	109.5	836.8
647	1777	663	1	109.5	836.8
647	1779	653	1	109.5	836.8
647	1779	686	1	109.5	836.8
647	1779	1321	1	109.5	836.8
648	1778	658	1	109.5	836.8
648	1778	664	1	109.5	836.8
648	1780	654	1	109.5	836.8
648	1780	662	1	109.5	836.8
649	1781	655	1	109.5	836.8
649	1781	663	1	109.5	836.8
649	1781	688	1	109.5	836.8
649	1944	958	1	109.5	836.8
649	1944	969	1	109.5	836.8
649	1944	975	1	109.5	836.8
650	1774	653	1	109.5	836.8
650	1774	660	1	109.5	836.8
650	1782	656	1	109.5	836.8
650	1782	661	1	109.5	836.8
650	1782	914	1	109.5	836.8
651	1771	893	1	109.5	836.8
651	1771	952	1	109.5	836.8
651	1773	659	1	109.5	836.8
651	1773	967	1	109.5	836.8
652	1775	655	1	109.5	836.8
652	1775	661	1	109.5	836.8
652	1784	658	1	109.5	836.8
652	1784	659	1	109.5	836.8
652	1784	916	1	109.5	836.8
653	1774	660	1	109.5	836.8
653	1779	686	1	109.5	836.8
653	1779	1321	1	109.5	836.8
654	1780	662	1	109.5	836.8
655	1775	661	1	109.5	836.8
655	1781	663	1	109.5	836.8
655	1781	688	1	109.5	836.8
656	1776	662	1	109.5	836.8
656	1782	661	1	109.5	836.8
656	1782	914	1	109.5	836.8
657	1777	663	1	109.5	836.8
657	1783	915	1	109.5	836.8
657	1783	973	1	109.5	836.8
657	1783	1320	1	109.5	836.8
658	1778	664	1	109.5	836.8
658	1784	659	1	109.5	836.8
658	1784	916	1	109.5	836.8
659	1773	967	1	109.5	836.8
659	1784	916	1	109.5	836.8
660	1615	1306	1	109.5	836.8
661	1782	914	1	109.5	836.8
663	1781	688	1	109.5	836.8
664	1767	665	1	109.5	836.8
665	1786	674	1	109.5	836.8
665	1786	676	1	109.5	836.8
665	1786	682	1	109.5	836.8
666	1785	989	1	109.5	836.8
666	1785	1279	1	109.5	836.8
666	1785	1387	1	109.5	836.8
666	1936	941	1	109.5	836.8
666	1936	946	1	109.5	836.8
666	1936	954	1	109.5	836.8
667	1787	675	1	109.5	836.8
667	1787	678	1	109.5	836.8
667	1787	683	1	109.5	836.8
668	1788	679	1	109.5	836.8
668	1788	684	1	109.5	836.8
668	1818	718	1	109.5	836.8
668	1818	723	1	109.5	836.8
668	1818	728	1	109.5	836.8
669	1789	671	1	109.5	836.8
669	1789	680	1	109.5	836.8
669	1789	685	1	109.5	836.8
669	1819	724	1	109.5	836.8
669	1819	741	1	109.5	836.8
669	1819	1036	1	109.5	836.8
670	1790	672	1	109.5	836.8
670	1790	681	1	109.5	836.8
670	1790	1389	1	109.5	836.8
670	1820	719	1	109.5	836.8
670	1820	725	1	109.5	836.8
670	1820	726	1	109.5	836.8
671	1789	680	1	109.5	836.8
671	1789	685	1	109.5	836.8
671	1791	676	1	109.5	836.8
671	1791	708	1	109.5	836.8
671	1791	709	1	109.5	836.8
672	1790	681	1	109.5	836.8
672	1790	1389	1	109.5	836.8
672	1792	677	1	109.5	836.8
672	1792	684	1	109.5	836.8
673	1793	678	1	109.5	836.8
673	1793	685	1	109.5	836.8
673	1793	711	1	109.5	836.8
673	1956	980	1	109.5	836.8
673	1956	991	1	109.5	836.8
673	1956	996	1	109.5	836.8
674	1786	676	1	109.5	836.8
674	1786	682	1	109.5	836.8
674	1794	679	1	109.5	836.8
674	1794	683	1	109.5	836.8
675	1787	678	1	109.5	836.8
675	1787	683	1	109.5	836.8
675	1796	681	1	109.5	836.8
675	1796	1388	1	109.5	836.8
676	1786	682	1	109.5	836.8
676	1791	708	1	109.5	836.8
676	1791	709	1	109.5	836.8
677	1617	1369	1	109.5	836.8
677	1792	684	1	109.5	836.8
678	1787	683	1	109.5	836.8
678	1793	685	1	109.5	836.8
678	1793	711	1	109.5	836.8
679	1788	684	1	109.5	836.8
679	1794	683	1	109.5	836.8
680	1789	685	1	109.5	836.8
680	1795	695	1	109.5	836.8
680	1795	994	1	109.5	836.8
681	1790	1389	1	109.5	836.8
681	1796	1388	1	109.5	836.8
685	1793	711	1	109.5	836.8
686	1779	1321	1	109.5	836.8
686	1798	694	1	109.5	836.8
686	1798	697	1	109.5	836.8
686	1798	704	1	109.5	836.8
687	1797	695	1	109.5	836.8
687	1797	703	1	109.5	836.8
687	1797	1008	1	109.5	836.8
687	1948	962	1	109.5	836.8
687	1948	967	1	109.5	836.8
687	1948	975	1	109.5	836.8
688	1799	696	1	109.5	836.8
688	1799	699	1	109.5	836.8
688	1799	705	1	109.5	836.8
689	1800	700	1	109.5	836.8
689	1800	706	1	109.5	836.8
689	1830	740	1	109.5	836.8
689	1830	746	1	109.5	836.8
689	1830	751	1	109.5	836.8
690	1801	701	1	109.5	836.8
690	1801	707	1	109.5	836.8
690	1801	1390	1	109.5	836.8
690	1831	747	1	109.5	836.8
690	1831	1057	1	109.5	836.8
690	1831	1324	1	109.5	836.8
691	1802	692	1	109.5	836.8
691	1802	702	1	109.5	836.8
691	1802	708	1	109.5	836.8
691	1832	742	1	109.5	836.8
691	1832	748	1	109.5	836.8
691	1832	749	1	109.5	836.8
692	1802	702	1	109.5	836.8
692	1802	708	1	109.5	836.8
692	1804	698	1	109.5	836.8
692	1804	706	1	109.5	836.8
693	1805	699	1	109.5	836.8
693	1805	707	1	109.5	836.8
693	1805	733	1	109.5	836.8
693	1968	1000	1	109.5	836.8
693	1968	1010	1	109.5	836.8
693	1968	1016	1	109.5	836.8
694	1798	697	1	109.5	836.8
694	1798	704	1	109.5	836.8
694	1806	700	1	109.5	836.8
694	1806	705	1	109.5	836.8
695	1795	994	1	109.5	836.8
695	1797	703	1	109.5	836.8
695	1797	1008	1	109.5	836.8
696	1799	699	1	109.5	836.8
696	1799	705	1	109.5	836.8
696	1808	702	1	109.5	836.8
696	1808	703	1	109.5	836.8
697	1798	704	1	109.5	836.8
697	1803	731	1	109.5	836.8
697	1803	1280	1	109.5	836.8
697	1803	1323	1	109.5	836.8
698	1804	706	1	109.5	836.8
699	1799	705	1	109.5	836.8
699	1805	707	1	109.5	836.8
699	1805	733	1	109.5	836.8
700	1800	706	1	109.5	836.8
700	1806	705	1	109.5	836.8
701	1801	707	1	109.5	836.8
701	1801	1390	1	109.5	836.8
701	1807	1014	1	109.5	836.8
701	1807	1322	1	109.5	836.8
702	1802	708	1	109.5	836.8
702	1808	703	1	109.5	836.8
703	1797	1008	1	109.5	836.8
704	1639	1308	1	109.5	836.8
707	1801	1390	1	109.5	836.8
707	1805	733	1	109.5	836.8
708	1791	709	1	109.5	836.8
709	1810	718	1	109.5	836.8
709	1810	720	1	109.5	836.8
709	1810	727	1	109.5	836.8
710	1809	726	1	109.5	836.8
710	1809	1030	1	109.5	836.8
710	1809	1391	1	109.5	836.8
710	1960	984	1	109.5	836.8
710	1960	989	1	109.5	836.8
710	1960	996	1	109.5	836.8
711	1811	719	1	109.5	836.8
711	1811	722	1	109.5	836.8
711	1811	728	1	109.5	836.8
712	1812	723	1	109.5	836.8
712	1812	729	1	109.5	836.8
712	1842	764	1	109.5	836.8
712	1842	769	1	109.5	836.8
712	1842	773	1	109.5	836.8
713	1813	715	1	109.5	836.8
713	1813	724	1	109.5	836.8
713	1813	730	1	109.5	836.8
713	1843	770	1	109.5	836.8
713	1843	785	1	109.5	836.8
713	1843	1078	1	109.5	836.8
714	1814	716	1	109.5	836.8
714	1814	725	1	109.5	836.8
714	1814	1392	1	109.5	836.8
714	1844	765	1	109.5	836.8
714	1844	771	1	109.5	836.8
714	1844	1394	1	109.5	836.8
715	1813	724	1	109.5	836.8
715	1813	730	1	109.5	836.8
715	1815	720	1	109.5	836.8
715	1815	754	1	109.5	836.8
715	1815	755	1	109.5	836.8
716	1814	725	1	109.5	836.8
716	1814	1392	1	109.5	836.8
716	1816	721	1	109.5	836.8
716	1816	729	1	109.5	836.8
717	1817	722	1	109.5	836.8
717	1817	730	1	109.5	836.8
717	1817	757	1	109.5	836.8
717	1980	1021	1	109.5	836.8
717	1980	1032	1	109.5	836.8
717	1980	1038	1	109.5	836.8
718	1810	720	1	109.5	836.8
718	1810	727	1	109.5	836.8
718	1818	723	1	109.5	836.8
718	1818	728	1	109.5	836.8
719	1811	722	1	109.5	836.8
719	1811	728	1	109.5	836.8
719	1820	725	1	109.5	836.8
719	1820	726	1	109.5	836.8
720	1810	727	1	109.5	836.8
720	1815	754	1	109.5	836.8
720	1815	755	1	109.5	836.8
721	1641	1275	1	109.5	836.8
721	1641	1371	1	109.5	836.8
721	1816	729	1	109.5	836.8
722	1811	728	1	109.5	836.8
722	1817	730	1	109.5	836.8
722	1817	757	1	109.5	836.8
723	1812	729	1	109.5	836.8
723	1818	728	1	109.5	836.8
724	1813	730	1	109.5	836.8
724	1819	741	1	109.5	836.8
724	1819	1036	1	109.5	836.8
725	1814	1392	1	109.5	836.8
725	1820	726	1	109.5	836.8
726	1809	1030	1	109.5	836.8
726	1809	1391	1	109.5	836.8
730	1817	757	1	109.5	836.8
731	1803	1280	1	109.5	836.8
731	1803	1323	1	109.5	836.8
731	1822	740	1	109.5	836.8
731	1822	743	1	109.5	836.8
731	1822	750	1	109.5	836.8
732	1821	741	1	109.5	836.8
732	1821	749	1	109.5	836.8
732	1821	1051	1	109.5	836.8
732	1972	1003	1	109.5	836.8
732	1972	1008	1	109.5	836.8
732	1972	1016	1	109.5	836.8
733	1823	742	1	109.5	836.8
733	1823	745	1	109.5	836.8
733	1823	751	1	109.5	836.8
734	1824	746	1	109.5	836.8
734	1824	752	1	109.5	836.8
734	1854	784	1	109.5	836.8
734	1854	790	1	109.5	836.8
734	1854	795	1	109.5	836.8
735	1825	737	1	109.5	836.8
735	1825	747	1	109.5	836.8
735	1825	753	1	109.5	836.8
735	1855	791	1	109.5	836.8
735	1855	1098	1	109.5	836.8
735	1855	1326	1	109.5	836.8
736	1826	738	1	109.5	836.8
736	1826	748	1	109.5	836.8
736	1826	754	1	109.5	836.8
736	1856	786	1	109.5	836.8
736	1856	792	1	109.5	836.8
736	1856	793	1	109.5	836.8
737	1825	747	1	109.5	836.8
737	1825	753	1	109.5	836.8
737	1827	743	1	109.5	836.8
737	1827	776	1	109.5	836.8
737	1827	1325	1	109.5	836.8
738	1826	748	1	109.5	836.8
738	1826	754	1	109.5	836.8
738	1828	744	1	109.5	836.8
738	1828	752	1	109.5	836.8
739	1829	745	1	109.5	836.8
739	1829	753	1	109.5	836.8
739	1829	778	1	109.5	836.8
739	1992	1042	1	109.5	836.8
739	1992	1053	1	109.5	836.8
739	1992	1059	1	109.5	836.8
740	1822	743	1	109.5	836.8
740	1822	750	1	109.5	836.8
740	1830	746	1	109.5	836.8
740	1830	751	1	109.5	836.8
741	1819	1036	1	109.5	836.8
741	1821	749	1	109.5	836.8
741	1821	1051	1	109.5	836.8
742	1823	745	1	109.5	836.8
742	1823	751	1	109.5	836.8
742	1832	748	1	109.5	836.8
742	1832	749	1	109.5	836.8
743	1822	750	1	109.5	836.8
743	1827	776	1	109.5	836.8
743	1827	1325	1	109.5	836.8
744	1828	752	1	109.5	836.8
745	1823	751	1	109.5	836.8
745	1829	753	1	109.5	836.8
745	1829	778	1	109.5	836.8
746	1824	752	1	109.5	836.8
746	1830	751	1	109.5	836.8
747	1825	753	1	109.5	836.8
747	1831	1057	1	109.5	836.8
747	1831	1324	1	109.5	836.8
748	1826	754	1	109.5	836.8
748	1832	749	1	109.5	836.8
749	1821	1051	1	109.5	836.8
750	1663	1310	1	109.5	836.8
753	1829	778	1	109.5	836.8
754	1815	755	1	109.5	836.8
755	1834	764	1	109.5	836.8
755	1834	766	1	109.5	836.8
755	1834	772	1	109.5	836.8
756	1833	1073	1	109.5	836.8
756	1833	1281	1	109.5	836.8
756	1833	1393	1	109.5	836.8
756	1984	1025	1	109.5	836.8
756	1984	1030	1	109.5	836.8
756	1984	1038	1	109.5	836.8
757	1835	765	1	109.5	836.8
757	1835	768	1	109.5	836.8
757	1835	773	1	109.5	836.8
758	1836	769	1	109.5	836.8
758	1836	774	1	109.5	836.8
758	1866	808	1	109.5	836.8
758	1866	813	1	109.5	836.8
758	1866	818	1	109.5	836.8
759	1837	761	1	109.5	836.8
759	1837	770	1	109.5	836.8
759	1837	775	1	109.5	836.8
759	1867	814	1	109.5	836.8
759	1867	831	1	109.5	836.8
759	1867	1120	1	109.5	836.8
760	1838	762	1	109.5	836.8
760	1838	771	1	109.5	836.8
760	1838	1395	1	109.5	836.8
760	1868	809	1	109.5	836.8
760	1868	815	1	109.5	836.8
760	1868	816	1	109.5	836.8
761	1837	770	1	109.5	836.8
761	1837	775	1	109.5	836.8
761	1839	766	1	109.5	836.8
761	1839	798	1	109.5	836.8
761	1839	799	1	109.5	836.8
762	1838	771	1	109.5	836.8
762	1838	1395	1	109.5	836.8
762	1840	767	1	109.5	836.8
762	1840	774	1	109.5	836.8
763	1841	768	1	109.5	836.8
763	1841	775	1	109.5	836.8
763	1841	801	1	109.5	836.8
763	2004	1064	1	109.5	836.8
763	2004	1075	1	109.5	836.8
763	2004	1080	1	109.5	836.8
764	1834	766	1	109.5	836.8
764	1834	772	1	109.5	836.8
764	1842	769	1	109.5	836.8
764	1842	773	1	109.5	836.8
765	1835	768	1	109.5	836.8
765	1835	773	1	109.5	836.8
765	1844	771	1	109.5	836.8
765	1844	1394	1	109.5	836.8
766	1834	772	1	109.5	836.8
766	1839	798	1	109.5	836.8
766	1839	799	1	109.5	836.8
767	1665	1374	1	109.5	836.8
767	1840	774	1	109.5	836.8
768	1835	773	1	109.5	836.8
768	1841	775	1	109.5	836.8
768	1841	801	1	109.5	836.8
769	1836	774	1	109.5	836.8
769	1842	773	1	109.5	836.8
770	1837	775	1	109.5	836.8
770	1843	785	1	109.5	836.8
770	1843	1078	1	109.5	836.8
771	1838	1395	1	109.5	836.8
771	1844	1394	1	109.5	836.8
775	1841	801	1	109.5	836.8
776	1827	1325	1	109.5	836.8
776	1846	784	1	109.5	836.8
776	1846	787	1	109.5	836.8
776	1846	794	1	109.5	836.8
777	1845	785	1	109.5	836.8
777	1845	793	1	109.5	836.8
777	1845	1092	1	109.5	836.8
777	1996	1046	1	109.5	836.8
777	1996	1051	1	109.5	836.8
777	1996	1059	1	109.5	836.8
778	1847	786	1	109.5	836.8
778	1847	789	1	109.5	836.8
778	1847	795	1	109.5	836.8
779	1848	790	1	109.5	836.8
779	1848	796	1	109.5	836.8
779	1878	830	1	109.5	836.8
779	1878	836	1	109.5	836.8
779	1878	841	1	109.5	836.8
780	1849	791	1	109.5	836.8
780	1849	797	1	109.5	836.8
780	1849	1396	1	109.5	836.8
780	1879	837	1	109.5	836.8
780	1879	1141	1	109.5	836.8
780	1879	1328	1	109.5	836.8
781	1850	782	1	109.5	836.8
781	1850	792	1	109.5	836.8
781	1850	798	1	109.5	836.8
781	1880	832	1	109.5	836.8
781	1880	838	1	109.5	836.8
781	1880	839	1	109.5	836.8
782	1850	792	1	109.5	836.8
782	1850	798	1	109.5	836.8
782	1852	788	1	109.5	836.8
782	1852	796	1	109.5	836.8
783	1853	789	1	109.5	836.8
783	1853	797	1	109.5	836.8
783	1853	823	1	109.5	836.8
783	2016	1084	1	109.5	836.8
783	2016	1094	1	109.5	836.8
783	2016	1100	1	109.5	836.8
784	1846	787	1	109.5	836.8
784	1846	794	1	109.5	836.8
784	1854	790	1	109.5	836.8
784	1854	795	1	109.5	836.8
785	1843	1078	1	109.5	836.8
785	1845	793	1	109.5	836.8
785	1845	1092	1	109.5	836.8
786	1847	789	1	109.5	836.8
786	1847	795	1	109.5	836.8
786	1856	792	1	109.5	836.8
786	1856	793	1	109.5	836.8
787	1846	794	1	109.5	836.8
787	1851	821	1	109.5	836.8
787	1851	1282	1	109.5	836.8
787	1851	1327	1	109.5	836.8
788	1852	796	1	109.5	836.8
789	1847	795	1	109.5	836.8
789	1853	797	1	109.5	836.8
789	1853	823	1	109.5	836.8
790	1848	796	1	109.5	836.8
790	1854	795	1	109.5	836.8
791	1849	797	1	109.5	836.8
791	1849	1396	1	109.5	836.8
791	1855	1098	1	109.5	836.8
791	1855	1326	1	109.5	836.8
792	1850	798	1	109.5	836.8
792	1856	793	1	109.5	836.8
793	1845	1092	1	109.5	836.8
794	1687	1312	1	109.5	836.8
797	1849	1396	1	109.5	836.8
797	1853	823	1	109.5	836.8
798	1839	799	1	109.5	836.8
799	1858	808	1	109.5	836.8
799	1858	810	1	109.5	836.8
799	1858	817	1	109.5	836.8
800	1857	816	1	109.5	836.8
800	1857	1114	1	109.5	836.8
800	1857	1397	1	109.5	836.8
800	2008	1068	1	109.5	836.8
800	2008	1073	1	109.5	836.8
800	2008	1080	1	109.5	836.8
801	1859	809	1	109.5	836.8
801	1859	812	1	109.5	836.8
801	1859	818	1	109.5	836.8
802	1860	813	1	109.5	836.8
802	1860	819	1	109.5	836.8
802	1890	854	1	109.5	836.8
802	1890	859	1	109.5	836.8
802	1890	863	1	109.5	836.8
803	1861	805	1	109.5	836.8
803	1861	814	1	109.5	836.8
803	1861	820	1	109.5	836.8
803	1891	860	1	109.5	836.8
803	1891	875	1	109.5	836.8
803	1891	1162	1	109.5	836.8
804	1862	806	1	109.5	836.8
804	1862	815	1	109.5	836.8
804	1862	1398	1	109.5	836.8
804	1892	855	1	109.5	836.8
804	1892	861	1	109.5	836.8
804	1892	1400	1	109.5	836.8
805	1861	814	1	109.5	836.8
805	1861	820	1	109.5	836.8
805	1863	810	1	109.5	836.8
805	1863	844	1	109.5	836.8
805	1863	845	1	109.5	836.8
806	1862	815	1	109.5	836.8
806	1862	1398	1	109.5	836.8
806	1864	811	1	109.5	836.8
806	1864	819	1	109.5	836.8
807	1865	812	1	109.5	836.8
807	1865	820	1	109.5	836.8
807	1865	847	1	109.5	836.8
807	2028	1105	1	109.5	836.8
807	2028	1116	1	109.5	836.8
807	2028	1122	1	109.5	836.8
808	1858	810	1	109.5	836.8
808	1858	817	1	109.5	836.8
808	1866	813	1	109.5	836.8
808	1866	818	1	109.5	836.8
809	1859	812	1	109.5	836.8
809	1859	818	1	109.5	836.8
809	1868	815	1	109.5	836.8
809	1868	816	1	109.5	836.8
810	1858	817	1	109.5	836.8
810	1863	844	1	109.5	836.8
810	1863	845	1	109.5	836.8
811	1689	1377	1	109.5	836.8
811	1864	819	1	109.5	836.8
812	1859	818	1	109.5	836.8
812	1865	820	1	109.5	836.8
812	1865	847	1	109.5	836.8
813	1860	819	1	109.5	836.8
813	1866	818	1	109.5	836.8
814	1861	820	1	109.5	836.8
814	1867	831	1	109.5	836.8
814	1867	1120	1	109.5	836.8
815	1862	1398	1	109.5	836.8
815	1868	816	1	109.5	836.8
816	1857	1114	1	109.5	836.8
816	1857	1397	1	109.5	836.8
820	1865	847	1	109.5	836.8
821	1851	1282	1	109.5	836.8
821	1851	1327	1	109.5	836.8
821	1870	830	1	109.5	836.8
821	1870	833	1	109.5	836.8
821	1870	840	1	109.5	836.8
822	1869	831	1	109.5	836.8
822	1869	839	1	109.5	836.8
822	1869	1135	1	109.5	836.8
822	2020	1087	1	109.5	836.8
822	2020	1092	1	109.5	836.8
822	2020	1100	1	109.5	836.8
823	1871	832	1	109.5	836.8
823	1871	835	1	109.5	836.8
823	1871	841	1	109.5	836.8
824	1872	836	1	109.5	836.8
824	1872	842	1	109.5	836.8
824	1902	874	1	109.5	836.8
824	1902	880	1	109.5	836.8
824	1902	885	1	109.5	836.8
825	1873	827	1	109.5	836.8
825	1873	837	1	109.5	836.8
825	1873	843	1	109.5	836.8
825	1903	881	1	109.5	836.8
825	1903	1182	1	109.5	836.8
825	1903	1330	1	109.5	836.8
826	1874	828	1	109.5	836.8
826	1874	838	1	109.5	836.8
826	1874	844	1	109.5	836.8
826	1904	876	1	109.5	836.8
826	1904	882	1	109.5	836.8
826	1904	883	1	109.5	836.8
827	1873	837	1	109.5	836.8
827	1873	843	1	109.5	836.8
827	1875	833	1	109.5	836.8
827	1875	866	1	109.5	836.8
827	1875	1329	1	109.5	836.8
828	1874	838	1	109.5	836.8
828	1874	844	1	109.5	836.8
828	1876	834	1	109.5	836.8
828	1876	842	1	109.5	836.8
829	1877	835	1	109.5	836.8
829	1877	843	1	109.5	836.8
829	1877	868	1	109.5	836.8
829	2040	1126	1	109.5	836.8
829	2040	1137	1	109.5	836.8
829	2040	1143	1	109.5	836.8
830	1870	833	1	109.5	836.8
830	1870	840	1	109.5	836.8
830	1878	836	1	109.5	836.8
830	1878	841	1	109.5	836.8
831	1867	1120	1	109.5	836.8
831	1869	839	1	109.5	836.8
831	1869	1135	1	109.5	836.8
832	1871	835	1	109.5	836.8
832	1871	841	1	109.5	836.8
832	1880	838	1	109.5	836.8
832	1880	839	1	109.5	836.8
833	1870	840	1	109.5	836.8
833	1875	866	1	109.5	836.8
833	1875	1329	1	109.5	836.8
834	1876	842	1	109.5	836.8
835	1871	841	1	109.5	836.8
835	1877	843	1	109.5	836.8
835	1877	868	1	109.5	836.8
836	1872	842	1	109.5	836.8
836	1878	841	1	109.5	836.8
837	1873	843	1	109.5	836.8
837	1879	1141	1	109.5	836.8
837	1879	1328	1	109.5	836.8
838	1874	844	1	109.5	836.8
838	1880	839	1	109.5	836.8
839	1869	1135	1	109.5	836.8
840	1711	1314	1	109.5	836.8
843	1877	868	1	109.5	836.8
844	1863	845	1	109.5	836.8
845	1882	854	1	109.5	836.8
845	1882	856	1	109.5	836.8
845	1882	862	1	109.5	836.8
846	1881	1157	1	109.5	836.8
846	1881	1283	1	109.5	836.8
846	1881	1399	1	109.5	836.8
846	2032	1109	1	109.5	836.8
846	2032	1114	1	109.5	836.8
846	2032	1122	1	109.5	836.8
847	1883	855	1	109.5	836.8
847	1883	858	1	109.5	836.8
847	1883	863	1	109.5	836.8
848	1884	859	1	109.5	836.8
848	1884	864	1	109.5	836.8
848	1914	898	1	109.5	836.8
848	1914	903	1	109.5	836.8
848	1914	908	1	109.5	836.8
849	1885	851	1	109.5	836.8
849	1885	860	1	109.5	836.8
849	1885	865	1	109.5	836.8
849	1915	904	1	109.5	836.8
849	1915	921	1	109.5	836.8
849	1915	1204	1	109.5	836.8
850	1886	852	1	109.5	836.8
850	1886	861	1	109.5	836.8
850	1886	1401	1	109.5	836.8
850	1916	899	1	109.5	836.8
850	1916	905	1	109.5	836.8
850	1916	906	1	109.5	836.8
851	1885	860	1	109.5	836.8
851	1885	865	1	109.5	836.8
851	1887	856	1	109.5	836.8
851	1887	888	1	109.5	836.8
851	1887	889	1	109.5	836.8
852	1886	861	1	109.5	836.8
852	1886	1401	1	109.5	836.8
852	1888	857	1	109.5	836.8
852	1888	864	1	109.5	836.8
853	1889	858	1	109.5	836.8
853	1889	865	1	109.5	836.8
853	1889	891	1	109.5	836.8
853	2052	1148	1	109.5	836.8
853	2052	1159	1	109.5	836.8
853	2052	1164	1	109.5	836.8
854	1882	856	1	109.5	836.8
854	1882	862	1	109.5	836.8
854	1890	859	1	109.5	836.8
854	1890	863	1	109.5	836.8
855	1883	858	1	109.5	836.8
855	1883	863	1	109.5	836.8
855	1892	861	1	109.5	836.8
855	1892	1400	1	109.5	836.8
856	1882	862	1	109.5	836.8
856	1887	888	1	109.5	836.8
856	1887	889	1	109.5	836.8
857	1713	1277	1	109.5	836.8
857	1713	1379	1	109.5	836.8
857	1888	864	1	109.5	836.8
858	1883	863	1	109.5	836.8
858	1889	865	1	109.5	836.8
858	1889	891	1	109.5	836.8
859	1884	864	1	109.5	836.8
859	1890	863	1	109.5	836.8
860	1885	865	1	109.5	836.8
860	1891	875	1	109.5	836.8
860	1891	1162	1	109.5	836.8
861	1886	1401	1	109.5	836.8
861	1892	1400	1	109.5	836.8
865	1889	891	1	109.5	836.8
866	1875	1329	1	109.5	836.8
866	1894	874	1	109.5	836.8
866	1894	877	1	109.5	836.8
866	1894	884	1	109.5	836.8
867	1893	875	1	109.5	836.8
867	1893	883	1	109.5	836.8
867	1893	1176	1	109.5	836.8
867	2044	1130	1	109.5	836.8
867	2044	1135	1	109.5	836.8
867	2044	1143	1	109.5	836.8
868	1895	876	1	109.5	836.8
868	1895	879	1	109.5	836.8
868	1895	885	1	109.5	836.8
869	1896	880	1	109.5	836.8
869	1896	886	1	109.5	836.8
869	1926	920	1	109.5	836.8
869	1926	926	1	109.5	836.8
869	1926	931	1	109.5	836.8
870	1897	881	1	109.5	836.8
870	1897	887	1	109.5	836.8
870	1897	1402	1	109.5	836.8
870	1927	927	1	109.5	836.8
870	1927	1225	1	109.5	836.8
870	1927	1332	1	109.5	836.8
871	1898	872	1	109.5	836.8
871	1898	882	1	109.5	836.8
871	1898	888	1	109.5	836.8
871	1928	922	1	109.5	836.8
871	1928	928	1	109.5	836.8
871	1928	929	1	109.5	836.8
872	1898	882	1	109.5	836.8
872	1898	888	1	109.5	836.8
872	1900	878	1	109.5	836.8
872	1900	886	1	109.5	836.8
873	1901	879	1	109.5	836.8
873	1901	887	1	109.5	836.8
873	1901	913	1	109.5	836.8
873	2064	1168	1	109.5	836.8
873	2064	1178	1	109.5	836.8
873	2064	1184	1	109.5	836.8
874	1894	877	1	109.5	836.8
874	1894	884	1	109.5	836.8
874	1902	880	1	109.5	836.8
874	1902	885	1	109.5	836.8
875	1891	1162	1	109.5	836.8
875	1893	883	1	109.5	836.8
875	1893	1176	1	109.5	836.8
876	1895	879	1	109.5	836.8
876	1895	885	1	109.5	836.8
876	1904	882	1	109.5	836.8
876	1904	883	1	109.5	836.8
877	1894	884	1	109.5	836.8
877	1899	911	1	109.5	836.8
877	1899	1284	1	109.5	836.8
877	1899	1331	1	109.5	836.8
878	1900	886	1	109.5	836.8
879	1895	885	1	109.5	836.8
879	1901	887	1	109.5	836.8
879	1901	913	1	109.5	836.8
880	1896	886	1	109.5	836.8
880	1902	885	1	109.5	836.8
881	1897	887	1	109.5	836.8
881	1897	1402	1	109.5	836.8
881	1903	1182	1	109.5	836.8
881	1903	1330	1	109.5	836.8
882	1898	888	1	109.5	836.8
882	1904	883	1	109.5	836.8
883	1893	1176	1	109.5	836.8
884	1735	1316	1	109.5	836.8
887	1897	1402	1	109.5	836.8
887	1901	913	1	109.5	836.8
888	1887	889	1	109.5	836.8
889	1906	898	1	109.5	836.8
889	1906	900	1	109.5	836.8
889	1906	907	1	109.5	836.8
890	1905	906	1	109.5	836.8
890	1905	1198	1	109.5	836.8
890	1905	1403	1	109.5	836.8
890	2056	1152	1	109.5	836.8
890	2056	1157	1	109.5	836.8
890	2056	1164	1	109.5	836.8
891	1907	899	1	109.5	836.8
891	1907	902	1	109.5	836.8
891	1907	908	1	109.5	836.8
892	1908	903	1	109.5	836.8
892	1908	909	1	109.5	836.8
893	1771	952	1	109.5	836.8
893	1909	895	1	109.5	836.8
893	1909	904	1	109.5	836.8
893	1909	910	1	109.5	836.8
894	1910	896	1	109.5	836.8
894	1910	905	1	109.5	836.8
894	1910	1404	1	109.5	836.8
895	1909	904	1	109.5	836.8
895	1909	910	1	109.5	836.8
895	1911	900	1	109.5	836.8
895	1911	934	1	109.5	836.8
896	1910	905	1	109.5	836.8
896	1910	1404	1	109.5	836.8
896	1912	901	1	109.5	836.8
896	1912	909	1	109.5	836.8
897	1913	902	1	109.5	836.8
897	1913	910	1	109.5	836.8
897	2076	1189	1	109.5	836.8
897	2076	1200	1	109.5	836.8
897	2076	1206	1	109.5	836.8
898	1906	900	1	109.5	836.8
898	1906	907	1	109.5	836.8
898	1914	903	1	109.5	836.8
898	1914	908	1	109.5	836.8
899	1907	902	1	109.5	836.8
899	1907	908	1	109.5	836.8
899	1916	905	1	109.5	836.8
899	1916	906	1	109.5	836.8
900	1906	907	1	109.5	836.8
900	1911	934	1	109.5	836.8
901	1737	1382	1	109.5	836.8
901	1912	909	1	109.5	836.8
902	1907	908	1	109.5	836.8
902	1913	910	1	109.5	836.8
903	1908	909	1	109.5	836.8
903	1914	908	1	109.5	836.8
904	1909	910	1	109.5	836.8
904	1915	921	1	109.5	836.8
904	1915	1204	1	109.5	836.8
905	1910	1404	1	109.5	836.8
905	1916	906	1	109.5	836.8
906	1905	1198	1	109.5	836.8
906	1905	1403	1	109.5	836.8
911	1899	1284	1	109.5	836.8
911	1899	1331	1	109.5	836.8
911	1918	920	1	109.5	836.8
911	1918	923	1	109.5	836.8
911	1918	930	1	109.5	836.8
912	1917	921	1	109.5	836.8
912	1917	929	1	109.5	836.8
912	1917	1219	1	109.5	836.8
912	2068	1171	1	109.5	836.8
912	2068	1176	1	109.5	836.8
912	2068	1184	1	109.5	836.8
913	1919	922	1	109.5	836.8
913	1919	925	1	109.5	836.8
913	1919	931	1	109.5	836.8
914	1920	926	1	109.5	836.8
914	1920	932	1	109.5	836.8
915	1783	973	1	109.5	836.8
915	1783	1320	1	109.5	836.8
915	1921	917	1	109.5	836.8
915	1921	927	1	109.5	836.8
915	1921	933	1	109.5	836.8
916	1922	918	1	109.5	836.8
916	1922	928	1	109.5	836.8
916	1922	934	1	109.5	836.8
917	1921	927	1	109.5	836.8
917	1921	933	1	109.5	836.8
917	1923	923	1	109.5	836.8
917	1923	1333	1	109.5	836.8
918	1922	928	1	109.5	836.8
918	1922	934	1	109.5	836.8
918	1924	924	1	109.5	836.8
918	1924	932	1	109.5	836.8
919	1925	925	1	109.5	836.8
919	1925	933	1	109.5	836.8
919	2088	1210	1	109.5	836.8
919	2088	1221	1	109.5	836.8
919	2088	1227	1	109.5	836.8
920	1918	923	1	109.5	836.8
920	1918	930	1	109.5	836.8
920	1926	926	1	109.5	836.8
920	1926	931	1	109.5	836.8
921	1915	1204	1	109.5	836.8
921	1917	929	1	109.5	836.8
921	1917	1219	1	109.5	836.8
922	1919	925	1	109.5	836.8
922	1919	931	1	109.5	836.8
922	1928	928	1	109.5	836.8
922	1928	929	1	109.5	836.8
923	1918	930	1	109.5	836.8
923	1923	1333	1	109.5	836.8
924	1924	932	1	109.5	836.8
925	1919	931	1	109.5	836.8
925	1925	933	1	109.5	836.8
926	1920	932	1	109.5	836.8
926	1926	931	1	109.5	836.8
927	1921	933	1	109.5	836.8
927	1927	1225	1	109.5	836.8
927	1927	1332	1	109.5	836.8
928	1922	934	1	109.5	836.8
928	1928	929	1	109.5	836.8
929	1917	1219	1	109.5	836.8
930	1759	1318	1	109.5	836.8
935	1930	943	1	109.5	836.8
935	1930	945	1	109.5	836.8
935	1930	952	1	109.5	836.8
935	2079	1192	1	109.5	836.8
935	2079	1197	1	109.5	836.8
935	2079	1229	1	109.5	836.8
936	1931	944	1	109.5	836.8
936	1931	947	1	109.5	836.8
936	1931	953	1	109.5	836.8
936	2081	1194	1	109.5	836.8
936	2081	1199	1	109.5	836.8
936	2081	1207	1	109.5	836.8
937	1932	948	1	109.5	836.8
937	1932	954	1	109.5	836.8
937	1962	986	1	109.5	836.8
937	1962	991	1	109.5	836.8
937	1962	995	1	109.5	836.8
938	1933	940	1	109.5	836.8
938	1933	949	1	109.5	836.8
938	1933	955	1	109.5	836.8
938	1963	992	1	109.5	836.8
938	1963	1235	1	109.5	836.8
939	1934	941	1	109.5	836.8
939	1934	950	1	109.5	836.8
939	1934	1405	1	109.5	836.8
939	1964	987	1	109.5	836.8
939	1964	993	1	109.5	836.8
939	1964	1406	1	109.5	836.8
940	1933	949	1	109.5	836.8
940	1933	955	1	109.5	836.8
940	1935	945	1	109.5	836.8
940	1935	977	1	109.5	836.8
940	1935	978	1	109.5	836.8
941	1934	950	1	109.5	836.8
941	1934	1405	1	109.5	836.8
941	1936	946	1	109.5	836.8
941	1936	954	1	109.5	836.8
942	1937	947	1	109.5	836.8
942	1937	955	1	109.5	836.8
942	1937	979	1	109.5	836.8
943	1930	945	1	109.5	836.8
943	1930	952	1	109.5	836.8
943	1938	948	1	109.5	836.8
943	1938	953	1	109.5	836.8
943	1938	1189	1	109.5	836.8
944	1931	947	1	109.5	836.8
944	1931	953	1	109.5	836.8
944	1940	950	1	109.5	836.8
944	1940	951	1	109.5	836.8
944	1940	1191	1	109.5	836.8
945	1930	952	1	109.5	836.8
945	1935	977	1	109.5	836.8
945	1935	978	1	109.5	836.8
946	1761	1385	1	109.5	836.8
946	1936	954	1	109.5	836.8
947	1931	953	1	109.5	836.8
947	1937	955	1	109.5	836.8
947	1937	979	1	109.5	836.8
948	1932	954	1	109.5	836.8
948	1938	953	1	109.5	836.8
948	1938	1189	1	109.5	836.8
949	1933	955	1	109.5	836.8
949	1939	1190	1	109.5	836.8
949	1939	1232	1	109.5	836.8
950	1934	1405	1	109.5	836.8
950	1940	951	1	109.5	836.8
950	1940	1191	1	109.5	836.8
951	1929	1230	1	109.5	836.8
951	1929	1251	1	109.5	836.8
951	1929	1418	1	109.5	836.8
951	1940	1191	1	109.5	836.8
953	1938	1189	1	109.5	836.8
955	1937	979	1	109.5	836.8
956	1942	964	1	109.5	836.8
956	1942	966	1	109.5	836.8
956	1942	973	1	109.5	836.8
956	2091	1213	1	109.5	836.8
956	2091	1218	1	109.5	836.8
956	2091	1340	1	109.5	836.8
957	1943	965	1	109.5	836.8
957	1943	968	1	109.5	836.8
957	1943	974	1	109.5	836.8
957	2093	1215	1	109.5	836.8
957	2093	1220	1	109.5	836.8
957	2093	1228	1	109.5	836.8
958	1944	969	1	109.5	836.8
958	1944	975	1	109.5	836.8
958	1974	1005	1	109.5	836.8
958	1974	1010	1	109.5	836.8
958	1974	1015	1	109.5	836.8
959	1945	961	1	109.5	836.8
959	1945	970	1	109.5	836.8
959	1945	976	1	109.5	836.8
959	1975	1011	1	109.5	836.8
959	1975	1342	1	109.5	836.8
960	1946	962	1	109.5	836.8
960	1946	971	1	109.5	836.8
960	1946	977	1	109.5	836.8
960	1976	1006	1	109.5	836.8
960	1976	1012	1	109.5	836.8
960	1976	1013	1	109.5	836.8
961	1945	970	1	109.5	836.8
961	1945	976	1	109.5	836.8
961	1947	966	1	109.5	836.8
961	1947	998	1	109.5	836.8
961	1947	1334	1	109.5	836.8
962	1946	971	1	109.5	836.8
962	1946	977	1	109.5	836.8
962	1948	967	1	109.5	836.8
962	1948	975	1	109.5	836.8
963	1949	968	1	109.5	836.8
963	1949	976	1	109.5	836.8
963	1949	999	1	109.5	836.8
964	1942	966	1	109.5	836.8
964	1942	973	1	109.5	836.8
964	1950	969	1	109.5	836.8
964	1950	974	1	109.5	836.8
964	1950	1210	1	109.5	836.8
965	1943	968	1	109.5	836.8
965	1943	974	1	109.5	836.8
965	1952	971	1	109.5	836.8
965	1952	972	1	109.5	836.8
965	1952	1212	1	109.5	836.8
966	1942	973	1	109.5	836.8
966	1947	998	1	109.5	836.8
966	1947	1334	1	109.5	836.8
967	1948	975	1	109.5	836.8
968	1943	974	1	109.5	836.8
968	1949	976	1	109.5	836.8
968	1949	999	1	109.5	836.8
969	1944	975	1	109.5	836.8
969	1950	974	1	109.5	836.8
969	1950	1210	1	109.5	836.8
970	1945	976	1	109.5	836.8
970	1951	1211	1	109.5	836.8
970	1951	1341	1	109.5	836.8
971	1946	977	1	109.5	836.8
971	1952	972	1	109.5	836.8
971	1952	1212	1	109.5	836.8
972	1941	1231	1	109.5	836.8
972	1941	1232	1	109.5	836.8
972	1941	1252	1	109.5	836.8
972	1952	1212	1	109.5	836.8
973	1783	1320	1	109.5	836.8
974	1950	1210	1	109.5	836.8
976	1949	999	1	109.5	836.8
977	1935	978	1	109.5	836.8
978	1954	986	1	109.5	836.8
978	1954	988	1	109.5	836.8
978	1954	994	1	109.5	836.8
979	1955	987	1	109.5	836.8
979	1955	990	1	109.5	836.8
979	1955	995	1	109.5	836.8
980	1956	991	1	109.5	836.8
980	1956	996	1	109.5	836.8
980	1986	1027	1	109.5	836.8
980	1986	1032	1	109.5	836.8
980	1986	1037	1	109.5	836.8
981	1957	983	1	109.5	836.8
981	1957	992	1	109.5	836.8
981	1957	997	1	109.5	836.8
981	1987	1033	1	109.5	836.8
981	1987	1238	1	109.5	836.8
982	1958	984	1	109.5	836.8
982	1958	993	1	109.5	836.8
982	1958	1407	1	109.5	836.8
982	1988	1028	1	109.5	836.8
982	1988	1034	1	109.5	836.8
982	1988	1035	1	109.5	836.8
983	1957	992	1	109.5	836.8
983	1957	997	1	109.5	836.8
983	1959	988	1	109.5	836.8
983	1959	1018	1	109.5	836.8
983	1959	1019	1	109.5	836.8
984	1958	993	1	109.5	836.8
984	1958	1407	1	109.5	836.8
984	1960	989	1	109.5	836.8
984	1960	996	1	109.5	836.8
985	1961	990	1	109.5	836.8
985	1961	997	1	109.5	836.8
985	1961	1020	1	109.5	836.8
986	1954	988	1	109.5	836.8
986	1954	994	1	109.5	836.8
986	1962	991	1	109.5	836.8
986	1962	995	1	109.5	836.8
987	1955	990	1	109.5	836.8
987	1955	995	1	109.5	836.8
987	1964	993	1	109.5	836.8
987	1964	1406	1	109.5	836.8
988	1954	994	1	109.5	836.8
988	1959	1018	1	109.5	836.8
988	1959	1019	1	109.5	836.8
989	1785	1279	1	109.5	836.8
989	1785	1387	1	109.5	836.8
989	1960	996	1	109.5	836.8
990	1955	995	1	109.5	836.8
990	1961	997	1	109.5	836.8
990	1961	1020	1	109.5	836.8
991	1956	996	1	109.5	836.8
991	1962	995	1	109.5	836.8
992	1957	997	1	109.5	836.8
992	1963	1235	1	109.5	836.8
993	1958	1407	1	109.5	836.8
993	1964	1406	1	109.5	836.8
997	1961	1020	1	109.5	836.8
998	1947	1334	1	109.5	836.8
998	1966	1005	1	109.5	836.8
998	1966	1007	1	109.5	836.8
998	1966	1014	1	109.5	836.8
999	1967	1006	1	109.5	836.8
999	1967	1009	1	109.5	836.8
999	1967	1015	1	109.5	836.8
1000	1968	1010	1	109.5	836.8
1000	1968	1016	1	109.5	836.8
1000	1998	1048	1	109.5	836.8
1000	1998	1053	1	109.5	836.8
1000	1998	1058	1	109.5	836.8
1001	1969	1011	1	109.5	836.8
1001	1969	1017	1	109.5	836.8
1001	1969	1408	1	109.5	836.8
1001	1999	1054	1	109.5	836.8
1001	1999	1343	1	109.5	836.8
1002	1970	1003	1	109.5	836.8
1002	1970	1012	1	109.5	836.8
1002	1970	1018	1	109.5	836.8
1002	2000	1049	1	109.5	836.8
1002	2000	1055	1	109.5	836.8
1002	2000	1056	1	109.5	836.8
1003	1970	1012	1	109.5	836.8
1003	1970	1018	1	109.5	836.8
1003	1972	1008	1	109.5	836.8
1003	1972	1016	1	109.5	836.8
1004	1973	1009	1	109.5	836.8
1004	1973	1017	1	109.5	836.8
1004	1973	1041	1	109.5	836.8
1005	1966	1007	1	109.5	836.8
1005	1966	1014	1	109.5	836.8
1005	1974	1010	1	109.5	836.8
1005	1974	1015	1	109.5	836.8
1006	1967	1009	1	109.5	836.8
1006	1967	1015	1	109.5	836.8
1006	1976	1012	1	109.5	836.8
1006	1976	1013	1	109.5	836.8
1007	1966	1014	1	109.5	836.8
1007	1971	1040	1	109.5	836.8
1007	1971	1286	1	109.5	836.8
1007	1971	1335	1	109.5	836.8
1008	1972	1016	1	109.5	836.8
1009	1967	1015	1	109.5	836.8
1009	1973	1017	1	109.5	836.8
1009	1973	1041	1	109.5	836.8
1010	1968	1016	1	109.5	836.8
1010	1974	1015	1	109.5	836.8
1011	1969	1017	1	109.5	836.8
1011	1969	1408	1	109.5	836.8
1011	1975	1342	1	109.5	836.8
1012	1970	1018	1	109.5	836.8
1012	1976	1013	1	109.5	836.8
1013	1965	1234	1	109.5	836.8
1013	1965	1235	1	109.5	836.8
1013	1965	1254	1	109.5	836.8
1014	1807	1322	1	109.5	836.8
1017	1969	1408	1	109.5	836.8
1017	1973	1041	1	109.5	836.8
1018	1959	1019	1	109.5	836.8
1019	1978	1027	1	109.5	836.8
1019	1978	1029	1	109.5	836.8
1019	1978	1036	1	109.5	836.8
1020	1979	1028	1	109.5	836.8
1020	1979	1031	1	109.5	836.8
1020	1979	1037	1	109.5	836.8
1021	1980	1032	1	109.5	836.8
1021	1980	1038	1	109.5	836.8
1021	2010	1070	1	109.5	836.8
1021	2010	1075	1	109.5	836.8
1021	2010	1079	1	109.5	836.8
1022	1981	1024	1	109.5	836.8
1022	1981	1033	1	109.5	836.8
1022	1981	1039	1	109.5	836.8
1022	2011	1076	1	109.5	836.8
1022	2011	1241	1	109.5	836.8
1023	1982	1025	1	109.5	836.8
1023	1982	1034	1	109.5	836.8
1023	1982	1409	1	109.5	836.8
1023	2012	1071	1	109.5	836.8
1023	2012	1077	1	109.5	836.8
1023	2012	1410	1	109.5	836.8
1024	1981	1033	1	109.5	836.8
1024	1981	1039	1	109.5	836.8
1024	1983	1029	1	109.5	836.8
1024	1983	1061	1	109.5	836.8
1024	1983	1062	1	109.5	836.8
1025	1982	1034	1	109.5	836.8
1025	1982	1409	1	109.5	836.8
1025	1984	1030	1	109.5	836.8
1025	1984	1038	1	109.5	836.8
1026	1985	1031	1	109.5	836.8
1026	1985	1039	1	109.5	836.8
1026	1985	1063	1	109.5	836.8
1027	1978	1029	1	109.5	836.8
1027	1978	1036	1	109.5	836.8
1027	1986	1032	1	109.5	836.8
1027	1986	1037	1	109.5	836.8
1028	1979	1031	1	109.5	836.8
1028	1979	1037	1	109.5	836.8
1028	1988	1034	1	109.5	836.8
1028	1988	1035	1	109.5	836.8
1029	1978	1036	1	109.5	836.8
1029	1983	1061	1	109.5	836.8
1029	1983	1062	1	109.5	836.8
1030	1809	1391	1	109.5	836.8
1030	1984	1038	1	109.5	836.8
1031	1979	1037	1	109.5	836.8
1031	1985	1039	1	109.5	836.8
1031	1985	1063	1	109.5	836.8
1032	1980	1038	1	109.5	836.8
1032	1986	1037	1	109.5	836.8
1033	1981	1039	1	109.5	836.8
1033	1987	1238	1	109.5	836.8
1034	1982	1409	1	109.5	836.8
1034	1988	1035	1	109.5	836.8
1035	1977	1236	1	109.5	836.8
1035	1977	1255	1	109.5	836.8
1035	1977	1420	1	109.5	836.8
1039	1985	1063	1	109.5	836.8
1040	1971	1286	1	109.5	836.8
1040	1971	1335	1	109.5	836.8
1040	1990	1048	1	109.5	836.8
1040	1990	1050	1	109.5	836.8
1040	1990	1057	1	109.5	836.8
1041	1991	1049	1	109.5	836.8
1041	1991	1052	1	109.5	836.8
1041	1991	1058	1	109.5	836.8
1042	1992	1053	1	109.5	836.8
1042	1992	1059	1	109.5	836.8
1042	2022	1089	1	109.5	836.8
1042	2022	1094	1	109.5	836.8
1042	2022	1099	1	109.5	836.8
1043	1993	1045	1	109.5	836.8
1043	1993	1054	1	109.5	836.8
1043	1993	1060	1	109.5	836.8
1043	2023	1095	1	109.5	836.8
1043	2023	1344	1	109.5	836.8
1044	1994	1046	1	109.5	836.8
1044	1994	1055	1	109.5	836.8
1044	1994	1061	1	109.5	836.8
1044	2024	1090	1	109.5	836.8
1044	2024	1096	1	109.5	836.8
1044	2024	1097	1	109.5	836.8
1045	1993	1054	1	109.5	836.8
1045	1993	1060	1	109.5	836.8
1045	1995	1050	1	109.5	836.8
1045	1995	1082	1	109.5	836.8
1045	1995	1336	1	109.5	836.8
1046	1994	1055	1	109.5	836.8
1046	1994	1061	1	109.5	836.8
1046	1996	1051	1	109.5	836.8
1046	1996	1059	1	109.5	836.8
1047	1997	1052	1	109.5	836.8
1047	1997	1060	1	109.5	836.8
1047	1997	1083	1	109.5	836.8
1048	1990	1050	1	109.5	836.8
1048	1990	1057	1	109.5	836.8
1048	1998	1053	1	109.5	836.8
1048	1998	1058	1	109.5	836.8
1049	1991	1052	1	109.5	836.8
1049	1991	1058	1	109.5	836.8
1049	2000	1055	1	109.5	836.8
1049	2000	1056	1	109.5	836.8
1050	1990	1057	1	109.5	836.8
1050	1995	1082	1	109.5	836.8
1050	1995	1336	1	109.5	836.8
1051	1996	1059	1	109.5	836.8
1052	1991	1058	1	109.5	836.8
1052	1997	1060	1	109.5	836.8
1052	1997	1083	1	109.5	836.8
1053	1992	1059	1	109.5	836.8
1053	1998	1058	1	109.5	836.8
1054	1993	1060	1	109.5	836.8
1054	1999	1343	1	109.5	836.8
1055	1994	1061	1	109.5	836.8
1055	2000	1056	1	109.5	836.8
1056	1989	1237	1	109.5	836.8
1056	1989	1238	1	109.5	836.8
1056	1989	1256	1	109.5	836.8
1057	1831	1324	1	109.5	836.8
1060	1997	1083	1	109.5	836.8
1061	1983	1062	1	109.5	836.8
1062	2002	1070	1	109.5	836.8
1062	2002	1072	1	109.5	836.8
1062	2002	1078	1	109.5	836.8
1063	2003	1071	1	109.5	836.8
1063	2003	1074	1	109.5	836.8
1063	2003	1079	1	109.5	836.8
1064	2004	1075	1	109.5	836.8
1064	2004	1080	1	109.5	836.8
1064	2034	1111	1	109.5	836.8
1064	2034	1116	1	109.5	836.8
1064	2034	1121	1	109.5	836.8
1065	2005	1067	1	109.5	836.8
1065	2005	1076	1	109.5	836.8
1065	2005	1081	1	109.5	836.8
1065	2035	1117	1	109.5	836.8
1065	2035	1244	1	109.5	836.8
1066	2006	1068	1	109.5	836.8
1066	2006	1077	1	109.5	836.8
1066	2006	1411	1	109.5	836.8
1066	2036	1112	1	109.5	836.8
1066	2036	1118	1	109.5	836.8
1066	2036	1119	1	109.5	836.8
1067	2005	1076	1	109.5	836.8
1067	2005	1081	1	109.5	836.8
1067	2007	1072	1	109.5	836.8
1067	2007	1102	1	109.5	836.8
1067	2007	1103	1	109.5	836.8
1068	2006	1077	1	109.5	836.8
1068	2006	1411	1	109.5	836.8
1068	2008	1073	1	109.5	836.8
1068	2008	1080	1	109.5	836.8
1069	2009	1074	1	109.5	836.8
1069	2009	1081	1	109.5	836.8
1069	2009	1104	1	109.5	836.8
1070	2002	1072	1	109.5	836.8
1070	2002	1078	1	109.5	836.8
1070	2010	1075	1	109.5	836.8
1070	2010	1079	1	109.5	836.8
1071	2003	1074	1	109.5	836.8
1071	2003	1079	1	109.5	836.8
1071	2012	1077	1	109.5	836.8
1071	2012	1410	1	109.5	836.8
1072	2002	1078	1	109.5	836.8
1072	2007	1102	1	109.5	836.8
1072	2007	1103	1	109.5	836.8
1073	1833	1281	1	109.5	836.8
1073	1833	1393	1	109.5	836.8
1073	2008	1080	1	109.5	836.8
1074	2003	1079	1	109.5	836.8
1074	2009	1081	1	109.5	836.8
1074	2009	1104	1	109.5	836.8
1075	2004	1080	1	109.5	836.8
1075	2010	1079	1	109.5	836.8
1076	2005	1081	1	109.5	836.8
1076	2011	1241	1	109.5	836.8
1077	2006	1411	1	109.5	836.8
1077	2012	1410	1	109.5	836.8
1081	2009	1104	1	109.5	836.8
1082	1995	1336	1	109.5	836.8
1082	2014	1089	1	109.5	836.8
1082	2014	1091	1	109.5	836.8
1082	2014	1098	1	109.5	836.8
1083	2015	1090	1	109.5	836.8
1083	2015	1093	1	109.5	836.8
1083	2015	1099	1	109.5	836.8
1084	2016	1094	1	109.5	836.8
1084	2016	1100	1	109.5	836.8
1084	2046	1132	1	109.5	836.8
1084	2046	1137	1	109.5	836.8
1084	2046	1142	1	109.5	836.8
1085	2017	1095	1	109.5	836.8
1085	2017	1101	1	109.5	836.8
1085	2017	1412	1	109.5	836.8
1085	2047	1138	1	109.5	836.8
1085	2047	1345	1	109.5	836.8
1086	2018	1087	1	109.5	836.8
1086	2018	1096	1	109.5	836.8
1086	2018	1102	1	109.5	836.8
1086	2048	1133	1	109.5	836.8
1086	2048	1139	1	109.5	836.8
1086	2048	1140	1	109.5	836.8
1087	2018	1096	1	109.5	836.8
1087	2018	1102	1	109.5	836.8
1087	2020	1092	1	109.5	836.8
1087	2020	1100	1	109.5	836.8
1088	2021	1093	1	109.5	836.8
1088	2021	1101	1	109.5	836.8
1088	2021	1125	1	109.5	836.8
1089	2014	1091	1	109.5	836.8
1089	2014	1098	1	109.5	836.8
1089	2022	1094	1	109.5	836.8
1089	2022	1099	1	109.5	836.8
1090	2015	1093	1	109.5	836.8
1090	2015	1099	1	109.5	836.8
1090	2024	1096	1	109.5	836.8
1090	2024	1097	1	109.5	836.8
1091	2014	1098	1	109.5	836.8
1091	2019	1124	1	109.5	836.8
1091	2019	1288	1	109.5	836.8
1091	2019	1337	1	109.5	836.8
1092	2020	1100	1	109.5	836.8
1093	2015	1099	1	109.5	836.8
1093	2021	1101	1	109.5	836.8
1093	2021	1125	1	109.5	836.8
1094	2016	1100	1	109.5	836.8
1094	2022	1099	1	109.5	836.8
1095	2017	1101	1	109.5	836.8
1095	2017	1412	1	109.5	836.8
1095	2023	1344	1	109.5	836.8
1096	2018	1102	1	109.5	836.8
1096	2024	1097	1	109.5	836.8
1097	2013	1240	1	109.5	836.8
1097	2013	1241	1	109.5	836.8
1097	2013	1258	1	109.5	836.8
1098	1855	1326	1	109.5	836.8
1101	2017	1412	1	109.5	836.8
1101	2021	1125	1	109.5	836.8
1102	2007	1103	1	109.5	836.8
1103	2026	1111	1	109.5	836.8
1103	2026	1113	1	109.5	836.8
1103	2026	1120	1	109.5	836.8
1104	2027	1112	1	109.5	836.8
1104	2027	1115	1	109.5	836.8
1104	2027	1121	1	109.5	836.8
1105	2028	1116	1	109.5	836.8
1105	2028	1122	1	109.5	836.8
1105	2058	1154	1	109.5	836.8
1105	2058	1159	1	109.5	836.8
1105	2058	1163	1	109.5	836.8
1106	2029	1108	1	109.5	836.8
1106	2029	1117	1	109.5	836.8
1106	2029	1123	1	109.5	836.8
1106	2059	1160	1	109.5	836.8
1106	2059	1247	1	109.5	836.8
1107	2030	1109	1	109.5	836.8
1107	2030	1118	1	109.5	836.8
1107	2030	1413	1	109.5	836.8
1107	2060	1155	1	109.5	836.8
1107	2060	1161	1	109.5	836.8
1107	2060	1414	1	109.5	836.8
1108	2029	1117	1	109.5	836.8
1108	2029	1123	1	109.5	836.8
1108	2031	1113	1	109.5	836.8
1108	2031	1145	1	109.5	836.8
1108	2031	1146	1	109.5	836.8
1109	2030	1118	1	109.5	836.8
1109	2030	1413	1	109.5	836.8
1109	2032	1114	1	109.5	836.8
1109	2032	1122	1	109.5	836.8
1110	2033	1115	1	109.5	836.8
1110	2033	1123	1	109.5	836.8
1110	2033	1147	1	109.5	836.8
1111	2026	1113	1	109.5	836.8
1111	2026	1120	1	109.5	836.8
1111	2034	1116	1	109.5	836.8
1111	2034	1121	1	109.5	836.8
1112	2027	1115	1	109.5	836.8
1112	2027	1121	1	109.5	836.8
1112	2036	1118	1	109.5	836.8
1112	2036	1119	1	109.5	836.8
1113	2026	1120	1	109.5	836.8
1113	2031	1145	1	109.5	836.8
1113	2031	1146	1	109.5	836.8
1114	1857	1397	1	109.5	836.8
1114	2032	1122	1	109.5	836.8
1115	2027	1121	1	109.5	836.8
1115	2033	1123	1	109.5	836.8
1115	2033	1147	1	109.5	836.8
1116	2028	1122	1	109.5	836.8
1116	2034	1121	1	109.5	836.8
1117	2029	1123	1	109.5	836.8
1117	2035	1244	1	109.5	836.8
1118	2030	1413	1	109.5	836.8
1118	2036	1119	1	109.5	836.8
1119	2025	1242	1	109.5	836.8
1119	2025	1259	1	109.5	836.8
1119	2025	1422	1	109.5	836.8
1123	2033	1147	1	109.5	836.8
1124	2019	1288	1	109.5	836.8
1124	2019	1337	1	109.5	836.8
1124	2038	1132	1	109.5	836.8
1124	2038	1134	1	109.5	836.8
1124	2038	1141	1	109.5	836.8
1125	2039	1133	1	109.5	836.8
1125	2039	1136	1	109.5	836.8
1125	2039	1142	1	109.5	836.8
1126	2040	1137	1	109.5	836.8
1126	2040	1143	1	109.5	836.8
1126	2070	1173	1	109.5	836.8
1126	2070	1178	1	109.5	836.8
1126	2070	1183	1	109.5	836.8
1127	2041	1129	1	109.5	836.8
1127	2041	1138	1	109.5	836.8
1127	2041	1144	1	109.5	836.8
1127	2071	1179	1	109.5	836.8
1127	2071	1346	1	109.5	836.8
1128	2042	1130	1	109.5	836.8
1128	2042	1139	1	109.5	836.8
1128	2042	1145	1	109.5	836.8
1128	2072	1174	1	109.5	836.8
1128	2072	1180	1	109.5	836.8
1128	2072	1181	1	109.5	836.8
1129	2041	1138	1	109.5	836.8
1129	2041	1144	1	109.5	836.8
1129	2043	1134	1	109.5	836.8
1129	2043	1166	1	109.5	836.8
1129	2043	1338	1	109.5	836.8
1130	2042	1139	1	109.5	836.8
1130	2042	1145	1	109.5	836.8
1130	2044	1135	1	109.5	836.8
1130	2044	1143	1	109.5	836.8
1131	2045	1136	1	109.5	836.8
1131	2045	1144	1	109.5	836.8
1131	2045	1167	1	109.5	836.8
1132	2038	1134	1	109.5	836.8
1132	2038	1141	1	109.5	836.8
1132	2046	1137	1	109.5	836.8
1132	2046	1142	1	109.5	836.8
1133	2039	1136	1	109.5	836.8
1133	2039	1142	1	109.5	836.8
1133	2048	1139	1	109.5	836.8
1133	2048	1140	1	109.5	836.8
1134	2038	1141	1	109.5	836.8
1134	2043	1166	1	109.5	836.8
1134	2043	1338	1	109.5	836.8
1135	2044	1143	1	109.5	836.8
1136	2039	1142	1	109.5	836.8
1136	2045	1144	1	109.5	836.8
1136	2045	1167	1	109.5	836.8
1137	2040	1143	1	109.5	836.8
1137	2046	1142	1	109.5	836.8
1138	2041	1144	1	109.5	836.8
1138	2047	1345	1	109.5	836.8
1139	2042	1145	1	109.5	836.8
1139	2048	1140	1	109.5	836.8
1140	2037	1243	1	109.5	836.8
1140	2037	1244	1	109.5	836.8
1140	2037	1260	1	109.5	836.8
1141	1879	1328	1	109.5	836.8
1144	2045	1167	1	109.5	836.8
1145	2031	1146	1	109.5	836.8
1146	2050	1154	1	109.5	836.8
1146	2050	1156	1	109.5	836.8
1146	2050	1162	1	109.5	836.8
1147	2051	1155	1	109.5	836.8
1147	2051	1158	1	109.5	836.8
1147	2051	1163	1	109.5	836.8
1148	2052	1159	1	109.5	836.8
1148	2052	1164	1	109.5	836.8
1148	2082	1195	1	109.5	836.8
1148	2082	1200	1	109.5	836.8
1148	2082	1205	1	109.5	836.8
1149	2053	1151	1	109.5	836.8
1149	2053	1160	1	109.5	836.8
1149	2053	1165	1	109.5	836.8
1149	2083	1201	1	109.5	836.8
1149	2083	1250	1	109.5	836.8
1150	2054	1152	1	109.5	836.8
1150	2054	1161	1	109.5	836.8
1150	2054	1415	1	109.5	836.8
1150	2084	1196	1	109.5	836.8
1150	2084	1202	1	109.5	836.8
1150	2084	1203	1	109.5	836.8
1151	2053	1160	1	109.5	836.8
1151	2053	1165	1	109.5	836.8
1151	2055	1156	1	109.5	836.8
1151	2055	1186	1	109.5	836.8
1151	2055	1187	1	109.5	836.8
1152	2054	1161	1	109.5	836.8
1152	2054	1415	1	109.5	836.8
1152	2056	1157	1	109.5	836.8
1152	2056	1164	1	109.5	836.8
1153	2057	1158	1	109.5	836.8
1153	2057	1165	1	109.5	836.8
1153	2057	1188	1	109.5	836.8
1154	2050	1156	1	109.5	836.8
1154	2050	1162	1	109.5	836.8
1154	2058	1159	1	109.5	836.8
1154	2058	1163	1	109.5	836.8
1155	2051	1158	1	109.5	836.8
1155	2051	1163	1	109.5	836.8
1155	2060	1161	1	109.5	836.8
1155	2060	1414	1	109.5	836.8
1156	2050	1162	1	109.5	836.8
1156	2055	1186	1	109.5	836.8
1156	2055	1187	1	109.5	836.8
1157	1881	1283	1	109.5	836.8
1157	1881	1399	1	109.5	836.8
1157	2056	1164	1	109.5	836.8
1158	2051	1163	1	109.5	836.8
1158	2057	1165	1	109.5	836.8
1158	2057	1188	1	109.5	836.8
1159	2052	1164	1	109.5	836.8
1159	2058	1163	1	109.5	836.8
1160	2053	1165	1	109.5	836.8
1160	2059	1247	1	109.5	836.8
1161	2054	1415	1	109.5	836.8
1161	2060	1414	1	109.5	836.8
1165	2057	1188	1	109.5	836.8
1166	2043	1338	1	109.5	836.8
1166	2062	1173	1	109.5	836.8
1166	2062	1175	1	109.5	836.8
1166	2062	1182	1	109.5	836.8
1167	2063	1174	1	109.5	836.8
1167	2063	1177	1	109.5	836.8
1167	2063	1183	1	109.5	836.8
1168	2064	1178	1	109.5	836.8
1168	2064	1184	1	109.5	836.8
1168	2094	1216	1	109.5	836.8
1168	2094	1221	1	109.5	836.8
1168	2094	1226	1	109.5	836.8
1169	2065	1179	1	109.5	836.8
1169	2065	1185	1	109.5	836.8
1169	2065	1416	1	109.5	836.8
1169	2095	1222	1	109.5	836.8
1169	2095	1347	1	109.5	836.8
1170	2066	1171	1	109.5	836.8
1170	2066	1180	1	109.5	836.8
1170	2066	1186	1	109.5	836.8
1170	2096	1217	1	109.5	836.8
1170	2096	1223	1	109.5	836.8
1170	2096	1224	1	109.5	836.8
1171	2066	1180	1	109.5	836.8
1171	2066	1186	1	109.5	836.8
1171	2068	1176	1	109.5	836.8
1171	2068	1184	1	109.5	836.8
1172	2069	1177	1	109.5	836.8
1172	2069	1185	1	109.5	836.8
1172	2069	1209	1	109.5	836.8
1173	2062	1175	1	109.5	836.8
1173	2062	1182	1	109.5	836.8
1173	2070	1178	1	109.5	836.8
1173	2070	1183	1	109.5	836.8
1174	2063	1177	1	109.5	836.8
1174	2063	1183	1	109.5	836.8
1174	2072	1180	1	109.5	836.8
1174	2072	1181	1	109.5	836.8
1175	2062	1182	1	109.5	836.8
1175	2067	1208	1	109.5	836.8
1175	2067	1290	1	109.5	836.8
1175	2067	1339	1	109.5	836.8
1176	2068	1184	1	109.5	836.8
1177	2063	1183	1	109.5	836.8
1177	2069	1185	1	109.5	836.8
1177	2069	1209	1	109.5	836.8
1178	2064	1184	1	109.5	836.8
1178	2070	1183	1	109.5	836.8
1179	2065	1185	1	109.5	836.8
1179	2065	1416	1	109.5	836.8
1179	2071	1346	1	109.5	836.8
1180	2066	1186	1	109.5	836.8
1180	2072	1181	1	109.5	836.8
1181	2061	1246	1	109.5	836.8
1181	2061	1247	1	109.5	836.8
1181	2061	1262	1	109.5	836.8
1182	1903	1330	1	109.5	836.8
1185	2065	1416	1	109.5	836.8
1185	2069	1209	1	109.5	836.8
1186	2055	1187	1	109.5	836.8
1187	2074	1195	1	109.5	836.8
1187	2074	1197	1	109.5	836.8
1187	2074	1204	1	109.5	836.8
1188	2075	1196	1	109.5	836.8
1188	2075	1199	1	109.5	836.8
1188	2075	1205	1	109.5	836.8
1189	2076	1200	1	109.5	836.8
1189	2076	1206	1	109.5	836.8
1190	1939	1232	1	109.5	836.8
1190	2077	1192	1	109.5	836.8
1190	2077	1201	1	109.5	836.8
1190	2077	1207	1	109.5	836.8
1191	2078	1193	1	109.5	836.8
1191	2078	1202	1	109.5	836.8
1191	2078	1417	1	109.5	836.8
1192	2077	1201	1	109.5	836.8
1192	2077	1207	1	109.5	836.8
1192	2079	1197	1	109.5	836.8
1192	2079	1229	1	109.5	836.8
1193	2078	1202	1	109.5	836.8
1193	2078	1417	1	109.5	836.8
1193	2080	1198	1	109.5	836.8
1193	2080	1206	1	109.5	836.8
1194	2081	1199	1	109.5	836.8
1194	2081	1207	1	109.5	836.8
1195	2074	1197	1	109.5	836.8
1195	2074	1204	1	109.5	836.8
1195	2082	1200	1	109.5	836.8
1195	2082	1205	1	109.5	836.8
1196	2075	1199	1	109.5	836.8
1196	2075	1205	1	109.5	836.8
1196	2084	1202	1	109.5	836.8
1196	2084	1203	1	109.5	836.8
1197	2074	1204	1	109.5	836.8
1197	2079	1229	1	109.5	836.8
1198	1905	1403	1	109.5	836.8
1198	2080	1206	1	109.5	836.8
1199	2075	1205	1	109.5	836.8
1199	2081	1207	1	109.5	836.8
1200	2076	1206	1	109.5	836.8
1200	2082	1205	1	109.5	836.8
1201	2077	1207	1	109.5	836.8
1201	2083	1250	1	109.5	836.8
1202	2078	1417	1	109.5	836.8
1202	2084	1203	1	109.5	836.8
1203	2073	1248	1	109.5	836.8
1203	2073	1263	1	109.5	836.8
1203	2073	1424	1	109.5	836.8
1208	2067	1290	1	109.5	836.8
1208	2067	1339	1	109.5	836.8
1208	2086	1216	1	109.5	836.8
1208	2086	1218	1	109.5	836.8
1208	2086	1225	1	109.5	836.8
1209	2087	1217	1	109.5	836.8
1209	2087	1220	1	109.5	836.8
1209	2087	1226	1	109.5	836.8
1210	2088	1221	1	109.5	836.8
1210	2088	1227	1	109.5	836.8
1211	1951	1341	1	109.5	836.8
1211	2089	1213	1	109.5	836.8
1211	2089	1222	1	109.5	836.8
1211	2089	1228	1	109.5	836.8
1212	2090	1214	1	109.5	836.8
1212	2090	1223	1	109.5	836.8
1212	2090	1229	1	109.5	836.8
1213	2089	1222	1	109.5	836.8
1213	2089	1228	1	109.5	836.8
1213	2091	1218	1	109.5	836.8
1213	2091	1340	1	109.5	836.8
1214	2090	1223	1	109.5	836.8
1214	2090	1229	1	109.5	836.8
1214	2092	1219	1	109.5	836.8
1214	2092	1227	1	109.5	836.8
1215	2093	1220	1	109.5	836.8
1215	2093	1228	1	109.5	836.8
1216	2086	1218	1	109.5	836.8
1216	2086	1225	1	109.5	836.8
1216	2094	1221	1	109.5	836.8
1216	2094	1226	1	109.5	836.8
1217	2087	1220	1	109.5	836.8
1217	2087	1226	1	109.5	836.8
1217	2096	1223	1	109.5	836.8
1217	2096	1224	1	109.5	836.8
1218	2086	1225	1	109.5	836.8
1218	2091	1340	1	109.5	836.8
1219	2092	1227	1	109.5	836.8
1220	2087	1226	1	109.5	836.8
1220	2093	1228	1	109.5	836.8
1221	2088	1227	1	109.5	836.8
1221	2094	1226	1	109.5	836.8
1222	2089	1228	1	109.5	836.8
1222	2095	1347	1	109.5	836.8
1223	2090	1229	1	109.5	836.8
1223	2096	1224	1	109.5	836.8
1224	2085	1249	1	109.5	836.8
1224	2085	1250	1	109.5	836.8
1224	2085	1264	1	109.5	836.8
1225	1927	1332	1	109.5	836.8
1230	1576	1263	1	109.5	836.8
1230	1929	1251	1	109.5	836.8
1230	1929	1418	1	109.5	836.8
1231	1588	1264	1	109.5	836.8
1231	1941	1232	1	109.5	836.8
1231	1941	1252	1	109.5	836.8
1232	1941	1252	1	109.5	836.8
1233	1432	1251	1	109.5	836.8
1233	1953	1253	1	109.5	836.8
1233	1953	1285	1	109.5	836.8
1233	1953	1419	1	109.5	836.8
1234	1444	1252	1	109.5	836.8
1234	1965	1235	1	109.5	836.8
1234	1965	1254	1	109.5	836.8
1235	1965	1254	1	109.5	836.8
1236	1456	1253	1	109.5	836.8
1236	1977	1255	1	109.5	836.8
1236	1977	1420	1	109.5	836.8
1237	1468	1254	1	109.5	836.8
1237	1989	1238	1	109.5	836.8
1237	1989	1256	1	109.5	836.8
1238	1989	1256	1	109.5	836.8
1239	1480	1255	1	109.5	836.8
1239	2001	1257	1	109.5	836.8
1239	2001	1287	1	109.5	836.8
1239	2001	1421	1	109.5	836.8
1240	1492	1256	1	109.5	836.8
1240	2013	1241	1	109.5	836.8
1240	2013	1258	1	109.5	836.8
1241	2013	1258	1	109.5	836.8
1242	1504	1257	1	109.5	836.8
1242	2025	1259	1	109.5	836.8
1242	2025	1422	1	109.5	836.8
1243	1516	1258	1	109.5	836.8
1243	2037	1244	1	109.5	836.8
1243	2037	1260	1	109.5	836.8
1244	2037	1260	1	109.5	836.8
1245	1528	1259	1	109.5	836.8
1245	2049	1261	1	109.5	836.8
1245	2049	1289	1	109.5	836.8
1245	2049	1423	1	109.5	836.8
1246	1540	1260	1	109.5	836.8
1246	2061	1247	1	109.5	836.8
1246	2061	1262	1	109.5	836.8
1247	2061	1262	1	109.5	836.8
1248	1552	1261	1	109.5	836.8
1248	2073	1263	1	109.5	836.8
1248	2073	1424	1	109.5	836.8
1249	1564	1262	1	109.5	836.8
1249	2085	1250	1	109.5	836.8
1249	2085	1264	1	109.5	836.8
1250	2085	1264	1	109.5	836.8
1251	1929	1418	1	109.5	836.8
1253	1953	1285	1	109.5	836.8
1253	1953	1419	1	109.5	836.8
1255	1977	1420	1	109.5	836.8
1257	2001	1287	1	109.5	836.8
1257	2001	1421	1	109.5	836.8
1259	2025	1422	1	109.5	836.8
1261	2049	1289	1	109.5	836.8
1261	2049	1423	1	109.5	836.8
1263	2073	1424	1	109.5	836.8
1267	1443	1293	1	109.5	836.8
1268	1449	1348	1	109.5	836.8
1269	1497	1353	1	109.5	836.8
1270	1515	1299	1	109.5	836.8
1271	1545	1359	1	109.5	836.8
1272	1587	1305	1	109.5	836.8
1273	1593	1365	1	109.5	836.8
1274	1611	1307	1	109.5	836.8
1275	1641	1371	1	109.5	836.8
1276	1683	1313	1	109.5	836.8
1277	1713	1379	1	109.5	836.8
1278	1755	1319	1	109.5	836.8
1279	1785	1387	1	109.5	836.8
1280	1803	1323	1	109.5	836.8
1281	1833	1393	1	109.5	836.8
1282	1851	1327	1	109.5	836.8
1283	1881	1399	1	109.5	836.8
1284	1899	1331	1	109.5	836.8
1285	1953	1419	1	109.5	836.8
1286	1971	1335	1	109.5	836.8
1287	2001	1421	1	109.5	836.8
1288	2019	1337	1	109.5	836.8
1289	2049	1423	1	109.5	836.8
1290	2067	1339	1	109.5	836.8
1425	2	1744	1	149.0	836.8
1425	17	1436	1	149.0	836.8
1425	315	1600	1	149.0	836.8
1425	1265	2097	1	111.0	461.16
1425	1265	2098	1	111.0	461.16
1425	1265	2099	1	111.0	461.16
1426	1	1575	1	149.0	836.8
1426	10	1434	1	149.0	836.8
1426	12	1431	1	149.0	836.8
1426	18	1939	1	149.0	836.8
1427	3	1577	1	149.0	836.8
1427	11	1436	1	149.0	836.8
1427	13	1433	1	149.0	836.8
1427	19	1434	1	149.0	836.8
1428	4	1458	1	149.0	836.8
1428	14	1434	1	149.0	836.8
1428	20	1432	1	149.0	836.8
1428	942	1937	1	149.0	836.8
1429	5	1459	1	149.0	836.8
1429	7	1431	1	149.0	836.8
1429	15	1435	1	149.0	836.8
1429	21	1433	1	149.0	836.8
1430	6	1460	1	149.0	836.8
1430	8	1432	1	149.0	836.8
1430	16	1436	1	149.0	836.8
1430	1266	2100	1	111.0	461.16
1430	1266	2101	1	111.0	461.16
1430	1266	2102	1	111.0	461.16
1431	43	1442	1	149.0	836.8
1431	44	1450	1	149.0	836.8
1432	1233	1953	1	149.0	836.8
1432	1251	1929	1	149.0	836.8
1433	9	1596	1	149.0	836.8
1433	46	1451	1	149.0	836.8
1434	263	1572	1	149.0	836.8
1435	31	1437	1	149.0	836.8
1435	264	1573	1	149.0	836.8
1435	320	1594	1	149.0	836.8
1436	265	1574	1	149.0	836.8
1437	23	1756	1	149.0	836.8
1437	38	1448	1	149.0	836.8
1437	336	1612	1	149.0	836.8
1438	22	1587	1	149.0	836.8
1438	30	1446	1	149.0	836.8
1438	33	1443	1	149.0	836.8
1438	39	1951	1	149.0	836.8
1439	24	1589	1	149.0	836.8
1439	32	1448	1	149.0	836.8
1439	34	1445	1	149.0	836.8
1439	40	1446	1	149.0	836.8
1440	25	1470	1	149.0	836.8
1440	35	1446	1	149.0	836.8
1440	41	1444	1	149.0	836.8
1440	963	1949	1	149.0	836.8
1441	26	1471	1	149.0	836.8
1441	36	1447	1	149.0	836.8
1441	42	1445	1	149.0	836.8
1441	1291	2175	1	111.0	461.16
1441	1291	2176	1	111.0	461.16
1441	1291	2177	1	111.0	461.16
1442	27	1472	1	149.0	836.8
1442	28	1444	1	149.0	836.8
1442	37	1448	1	149.0	836.8
1443	64	1462	1	149.0	836.8
1443	1267	2103	1	111.0	461.16
1443	1267	2104	1	111.0	461.16
1443	1267	2105	1	111.0	461.16
1443	1293	2181	1	111.0	461.16
1443	1293	2182	1	111.0	461.16
1443	1293	2183	1	111.0	461.16
1444	1234	1965	1	149.0	836.8
1444	1252	1941	1	149.0	836.8
1445	29	1608	1	149.0	836.8
1445	66	1463	1	149.0	836.8
1446	284	1584	1	149.0	836.8
1447	285	1585	1	149.0	836.8
1447	342	1606	1	149.0	836.8
1447	1292	2178	1	111.0	461.16
1447	1292	2179	1	111.0	461.16
1447	1292	2180	1	111.0	461.16
1448	286	1586	1	149.0	836.8
1449	45	1600	1	149.0	836.8
1449	359	1624	1	149.0	836.8
1449	1268	2106	1	111.0	461.16
1449	1268	2107	1	111.0	461.16
1449	1268	2108	1	111.0	461.16
1449	1348	2346	1	111.0	461.16
1449	1348	2347	1	111.0	461.16
1449	1348	2348	1	111.0	461.16
1450	53	1458	1	149.0	836.8
1450	55	1455	1	149.0	836.8
1450	60	1963	1	149.0	836.8
1451	54	1460	1	149.0	836.8
1451	56	1457	1	149.0	836.8
1451	61	1458	1	149.0	836.8
1452	47	1482	1	149.0	836.8
1452	57	1458	1	149.0	836.8
1452	62	1456	1	149.0	836.8
1452	985	1961	1	149.0	836.8
1453	48	1483	1	149.0	836.8
1453	50	1455	1	149.0	836.8
1453	58	1459	1	149.0	836.8
1453	63	1457	1	149.0	836.8
1454	49	1484	1	149.0	836.8
1454	51	1456	1	149.0	836.8
1454	59	1460	1	149.0	836.8
1454	1350	2352	1	111.0	461.16
1454	1350	2353	1	111.0	461.16
1454	1350	2354	1	111.0	461.16
1455	86	1466	1	149.0	836.8
1455	87	1474	1	149.0	836.8
1456	1236	1977	1	149.0	836.8
1456	1253	1953	1	149.0	836.8
1457	52	1620	1	149.0	836.8
1457	89	1475	1	149.0	836.8
1459	74	1461	1	149.0	836.8
1459	365	1618	1	149.0	836.8
1460	1349	2349	1	111.0	461.16
1460	1349	2350	1	111.0	461.16
1460	1349	2351	1	111.0	461.16
1461	65	1612	1	149.0	836.8
1461	81	1472	1	149.0	836.8
1461	382	1636	1	149.0	836.8
1462	73	1470	1	149.0	836.8
1462	76	1467	1	149.0	836.8
1462	82	1975	1	149.0	836.8
1463	75	1472	1	149.0	836.8
1463	77	1469	1	149.0	836.8
1463	83	1470	1	149.0	836.8
1464	67	1494	1	149.0	836.8
1464	78	1470	1	149.0	836.8
1464	84	1468	1	149.0	836.8
1464	1004	1973	1	149.0	836.8
1465	68	1495	1	149.0	836.8
1465	70	1467	1	149.0	836.8
1465	79	1471	1	149.0	836.8
1465	85	1469	1	149.0	836.8
1466	69	1496	1	149.0	836.8
1466	71	1468	1	149.0	836.8
1466	80	1472	1	149.0	836.8
1467	108	1486	1	149.0	836.8
1467	1295	2187	1	111.0	461.16
1467	1295	2188	1	111.0	461.16
1467	1295	2189	1	111.0	461.16
1468	1237	1989	1	149.0	836.8
1468	1254	1965	1	149.0	836.8
1469	72	1632	1	149.0	836.8
1469	110	1487	1	149.0	836.8
1471	388	1630	1	149.0	836.8
1471	1294	2184	1	111.0	461.16
1471	1294	2185	1	111.0	461.16
1471	1294	2186	1	111.0	461.16
1473	88	1624	1	149.0	836.8
1473	103	1484	1	149.0	836.8
1473	405	1648	1	149.0	836.8
1473	1351	2355	1	111.0	461.16
1473	1351	2356	1	111.0	461.16
1473	1351	2357	1	111.0	461.16
1474	96	1482	1	149.0	836.8
1474	98	1479	1	149.0	836.8
1474	104	1987	1	149.0	836.8
1475	97	1484	1	149.0	836.8
1475	99	1481	1	149.0	836.8
1475	105	1482	1	149.0	836.8
1476	90	1506	1	149.0	836.8
1476	100	1482	1	149.0	836.8
1476	106	1480	1	149.0	836.8
1476	1026	1985	1	149.0	836.8
1477	91	1507	1	149.0	836.8
1477	93	1479	1	149.0	836.8
1477	101	1483	1	149.0	836.8
1477	107	1481	1	149.0	836.8
1478	92	1508	1	149.0	836.8
1478	94	1480	1	149.0	836.8
1478	102	1484	1	149.0	836.8
1478	1352	2358	1	111.0	461.16
1478	1352	2359	1	111.0	461.16
1478	1352	2360	1	111.0	461.16
1479	130	1490	1	149.0	836.8
1479	131	1498	1	149.0	836.8
1480	1239	2001	1	149.0	836.8
1480	1255	1977	1	149.0	836.8
1481	95	1644	1	149.0	836.8
1481	133	1499	1	149.0	836.8
1483	118	1485	1	149.0	836.8
1483	410	1642	1	149.0	836.8
1485	109	1636	1	149.0	836.8
1485	125	1496	1	149.0	836.8
1485	427	1660	1	149.0	836.8
1486	117	1494	1	149.0	836.8
1486	120	1491	1	149.0	836.8
1486	126	1999	1	149.0	836.8
1487	119	1496	1	149.0	836.8
1487	121	1493	1	149.0	836.8
1487	127	1494	1	149.0	836.8
1488	111	1518	1	149.0	836.8
1488	122	1494	1	149.0	836.8
1488	128	1492	1	149.0	836.8
1488	1047	1997	1	149.0	836.8
1489	112	1519	1	149.0	836.8
1489	114	1491	1	149.0	836.8
1489	123	1495	1	149.0	836.8
1489	129	1493	1	149.0	836.8
1490	113	1520	1	149.0	836.8
1490	115	1492	1	149.0	836.8
1490	124	1496	1	149.0	836.8
1491	151	1510	1	149.0	836.8
1491	1297	2193	1	111.0	461.16
1491	1297	2194	1	111.0	461.16
1491	1297	2195	1	111.0	461.16
1492	1240	2013	1	149.0	836.8
1492	1256	1989	1	149.0	836.8
1493	116	1656	1	149.0	836.8
1493	153	1511	1	149.0	836.8
1495	433	1654	1	149.0	836.8
1495	1296	2190	1	111.0	461.16
1495	1296	2191	1	111.0	461.16
1495	1296	2192	1	111.0	461.16
1497	132	1648	1	149.0	836.8
1497	450	1672	1	149.0	836.8
1497	1269	2109	1	111.0	461.16
1497	1269	2110	1	111.0	461.16
1497	1269	2111	1	111.0	461.16
1497	1353	2361	1	111.0	461.16
1497	1353	2362	1	111.0	461.16
1497	1353	2363	1	111.0	461.16
1498	140	1506	1	149.0	836.8
1498	142	1503	1	149.0	836.8
1498	147	2011	1	149.0	836.8
1499	141	1508	1	149.0	836.8
1499	143	1505	1	149.0	836.8
1499	148	1506	1	149.0	836.8
1500	134	1530	1	149.0	836.8
1500	144	1506	1	149.0	836.8
1500	149	1504	1	149.0	836.8
1500	1069	2009	1	149.0	836.8
1501	135	1531	1	149.0	836.8
1501	137	1503	1	149.0	836.8
1501	145	1507	1	149.0	836.8
1501	150	1505	1	149.0	836.8
1502	136	1532	1	149.0	836.8
1502	138	1504	1	149.0	836.8
1502	146	1508	1	149.0	836.8
1502	1355	2367	1	111.0	461.16
1502	1355	2368	1	111.0	461.16
1502	1355	2369	1	111.0	461.16
1503	172	1514	1	149.0	836.8
1503	173	1522	1	149.0	836.8
1504	1242	2025	1	149.0	836.8
1504	1257	2001	1	149.0	836.8
1505	139	1668	1	149.0	836.8
1505	175	1523	1	149.0	836.8
1507	160	1509	1	149.0	836.8
1507	456	1666	1	149.0	836.8
1508	1354	2364	1	111.0	461.16
1508	1354	2365	1	111.0	461.16
1508	1354	2366	1	111.0	461.16
1509	152	1660	1	149.0	836.8
1509	167	1520	1	149.0	836.8
1509	472	1684	1	149.0	836.8
1510	159	1518	1	149.0	836.8
1510	162	1515	1	149.0	836.8
1510	168	2023	1	149.0	836.8
1511	161	1520	1	149.0	836.8
1511	163	1517	1	149.0	836.8
1511	169	1518	1	149.0	836.8
1512	154	1542	1	149.0	836.8
1512	164	1518	1	149.0	836.8
1512	170	1516	1	149.0	836.8
1512	1088	2021	1	149.0	836.8
1513	155	1543	1	149.0	836.8
1513	165	1519	1	149.0	836.8
1513	171	1517	1	149.0	836.8
1513	1356	2370	1	111.0	461.16
1513	1356	2371	1	111.0	461.16
1513	1356	2372	1	111.0	461.16
1514	156	1544	1	149.0	836.8
1514	157	1516	1	149.0	836.8
1514	166	1520	1	149.0	836.8
1515	194	1534	1	149.0	836.8
1515	1270	2112	1	111.0	461.16
1515	1270	2113	1	111.0	461.16
1515	1270	2114	1	111.0	461.16
1515	1299	2199	1	111.0	461.16
1515	1299	2200	1	111.0	461.16
1515	1299	2201	1	111.0	461.16
1516	1243	2037	1	149.0	836.8
1516	1258	2013	1	149.0	836.8
1517	158	1680	1	149.0	836.8
1517	196	1535	1	149.0	836.8
1519	478	1678	1	149.0	836.8
1519	1298	2196	1	111.0	461.16
1519	1298	2197	1	111.0	461.16
1519	1298	2198	1	111.0	461.16
1521	174	1672	1	149.0	836.8
1521	189	1532	1	149.0	836.8
1521	495	1696	1	149.0	836.8
1521	1357	2373	1	111.0	461.16
1521	1357	2374	1	111.0	461.16
1521	1357	2375	1	111.0	461.16
1522	182	1530	1	149.0	836.8
1522	184	1527	1	149.0	836.8
1522	190	2035	1	149.0	836.8
1523	183	1532	1	149.0	836.8
1523	185	1529	1	149.0	836.8
1523	191	1530	1	149.0	836.8
1524	176	1554	1	149.0	836.8
1524	186	1530	1	149.0	836.8
1524	192	1528	1	149.0	836.8
1524	1110	2033	1	149.0	836.8
1525	177	1555	1	149.0	836.8
1525	179	1527	1	149.0	836.8
1525	187	1531	1	149.0	836.8
1525	193	1529	1	149.0	836.8
1526	178	1556	1	149.0	836.8
1526	180	1528	1	149.0	836.8
1526	188	1532	1	149.0	836.8
1526	1358	2376	1	111.0	461.16
1526	1358	2377	1	111.0	461.16
1526	1358	2378	1	111.0	461.16
1527	216	1538	1	149.0	836.8
1527	217	1546	1	149.0	836.8
1528	1245	2049	1	149.0	836.8
1528	1259	2025	1	149.0	836.8
1529	181	1692	1	149.0	836.8
1529	219	1547	1	149.0	836.8
1531	204	1533	1	149.0	836.8
1531	501	1690	1	149.0	836.8
1533	195	1684	1	149.0	836.8
1533	211	1544	1	149.0	836.8
1533	518	1708	1	149.0	836.8
1534	203	1542	1	149.0	836.8
1534	206	1539	1	149.0	836.8
1534	212	2047	1	149.0	836.8
1535	205	1544	1	149.0	836.8
1535	207	1541	1	149.0	836.8
1535	213	1542	1	149.0	836.8
1536	197	1566	1	149.0	836.8
1536	208	1542	1	149.0	836.8
1536	214	1540	1	149.0	836.8
1536	1131	2045	1	149.0	836.8
1537	198	1567	1	149.0	836.8
1537	200	1539	1	149.0	836.8
1537	209	1543	1	149.0	836.8
1537	215	1541	1	149.0	836.8
1538	199	1568	1	149.0	836.8
1538	201	1540	1	149.0	836.8
1538	210	1544	1	149.0	836.8
1539	237	1558	1	149.0	836.8
1539	1301	2205	1	111.0	461.16
1539	1301	2206	1	111.0	461.16
1539	1301	2207	1	111.0	461.16
1540	1246	2061	1	149.0	836.8
1540	1260	2037	1	149.0	836.8
1541	202	1704	1	149.0	836.8
1541	239	1559	1	149.0	836.8
1543	524	1702	1	149.0	836.8
1543	1300	2202	1	111.0	461.16
1543	1300	2203	1	111.0	461.16
1543	1300	2204	1	111.0	461.16
1545	218	1696	1	149.0	836.8
1545	541	1720	1	149.0	836.8
1545	1271	2115	1	111.0	461.16
1545	1271	2116	1	111.0	461.16
1545	1271	2117	1	111.0	461.16
1545	1359	2379	1	111.0	461.16
1545	1359	2380	1	111.0	461.16
1545	1359	2381	1	111.0	461.16
1546	226	1554	1	149.0	836.8
1546	228	1551	1	149.0	836.8
1546	233	2059	1	149.0	836.8
1547	227	1556	1	149.0	836.8
1547	229	1553	1	149.0	836.8
1547	234	1554	1	149.0	836.8
1548	220	1578	1	149.0	836.8
1548	230	1554	1	149.0	836.8
1548	235	1552	1	149.0	836.8
1548	1153	2057	1	149.0	836.8
1549	221	1579	1	149.0	836.8
1549	223	1551	1	149.0	836.8
1549	231	1555	1	149.0	836.8
1549	236	1553	1	149.0	836.8
1550	222	1580	1	149.0	836.8
1550	224	1552	1	149.0	836.8
1550	232	1556	1	149.0	836.8
1550	1361	2385	1	111.0	461.16
1550	1361	2386	1	111.0	461.16
1550	1361	2387	1	111.0	461.16
1551	259	1562	1	149.0	836.8
1551	260	1570	1	149.0	836.8
1552	1248	2073	1	149.0	836.8
1552	1261	2049	1	149.0	836.8
1553	225	1716	1	149.0	836.8
1553	262	1571	1	149.0	836.8
1555	247	1557	1	149.0	836.8
1555	546	1714	1	149.0	836.8
1556	1360	2382	1	111.0	461.16
1556	1360	2383	1	111.0	461.16
1556	1360	2384	1	111.0	461.16
1557	238	1708	1	149.0	836.8
1557	254	1568	1	149.0	836.8
1557	563	1732	1	149.0	836.8
1558	246	1566	1	149.0	836.8
1558	249	1563	1	149.0	836.8
1558	255	2071	1	149.0	836.8
1559	248	1568	1	149.0	836.8
1559	250	1565	1	149.0	836.8
1559	256	1566	1	149.0	836.8
1560	240	1590	1	149.0	836.8
1560	251	1566	1	149.0	836.8
1560	257	1564	1	149.0	836.8
1560	1172	2069	1	149.0	836.8
1561	241	1591	1	149.0	836.8
1561	243	1563	1	149.0	836.8
1561	252	1567	1	149.0	836.8
1561	258	1565	1	149.0	836.8
1562	242	1592	1	149.0	836.8
1562	244	1564	1	149.0	836.8
1562	253	1568	1	149.0	836.8
1563	281	1582	1	149.0	836.8
1563	1303	2211	1	111.0	461.16
1563	1303	2212	1	111.0	461.16
1563	1303	2213	1	111.0	461.16
1564	1249	2085	1	149.0	836.8
1564	1262	2061	1	149.0	836.8
1565	245	1728	1	149.0	836.8
1565	283	1583	1	149.0	836.8
1567	569	1726	1	149.0	836.8
1567	1302	2208	1	111.0	461.16
1567	1302	2209	1	111.0	461.16
1567	1302	2210	1	111.0	461.16
1569	261	1720	1	149.0	836.8
1569	276	1580	1	149.0	836.8
1569	586	1744	1	149.0	836.8
1569	1362	2388	1	111.0	461.16
1569	1362	2389	1	111.0	461.16
1569	1362	2390	1	111.0	461.16
1570	269	1578	1	149.0	836.8
1570	271	1575	1	149.0	836.8
1570	277	2083	1	149.0	836.8
1571	270	1580	1	149.0	836.8
1571	272	1577	1	149.0	836.8
1571	278	1578	1	149.0	836.8
1572	273	1578	1	149.0	836.8
1572	279	1576	1	149.0	836.8
1572	1194	2081	1	149.0	836.8
1573	266	1575	1	149.0	836.8
1573	274	1579	1	149.0	836.8
1573	280	1577	1	149.0	836.8
1574	267	1576	1	149.0	836.8
1574	275	1580	1	149.0	836.8
1574	1363	2391	1	111.0	461.16
1574	1363	2392	1	111.0	461.16
1574	1363	2393	1	111.0	461.16
1575	302	1586	1	149.0	836.8
1576	1230	1929	1	149.0	836.8
1576	1263	2073	1	149.0	836.8
1577	268	1740	1	149.0	836.8
1579	290	1581	1	149.0	836.8
1579	592	1738	1	149.0	836.8
1581	282	1732	1	149.0	836.8
1581	297	1592	1	149.0	836.8
1581	608	1756	1	149.0	836.8
1582	289	1590	1	149.0	836.8
1582	292	1587	1	149.0	836.8
1582	298	2095	1	149.0	836.8
1583	291	1592	1	149.0	836.8
1583	293	1589	1	149.0	836.8
1583	299	1590	1	149.0	836.8
1584	294	1590	1	149.0	836.8
1584	300	1588	1	149.0	836.8
1584	1215	2093	1	149.0	836.8
1585	295	1591	1	149.0	836.8
1585	301	1589	1	149.0	836.8
1585	1364	2394	1	111.0	461.16
1585	1364	2395	1	111.0	461.16
1585	1364	2396	1	111.0	461.16
1586	287	1588	1	149.0	836.8
1586	296	1592	1	149.0	836.8
1587	1272	2118	1	111.0	461.16
1587	1272	2119	1	111.0	461.16
1587	1272	2120	1	111.0	461.16
1587	1305	2217	1	111.0	461.16
1587	1305	2218	1	111.0	461.16
1587	1305	2219	1	111.0	461.16
1588	1231	1941	1	149.0	836.8
1588	1264	2085	1	149.0	836.8
1589	288	1752	1	149.0	836.8
1591	614	1750	1	149.0	836.8
1591	1304	2214	1	111.0	461.16
1591	1304	2215	1	111.0	461.16
1591	1304	2216	1	111.0	461.16
1593	304	1912	1	149.0	836.8
1593	631	1768	1	149.0	836.8
1593	1273	2121	1	111.0	461.16
1593	1273	2122	1	111.0	461.16
1593	1273	2123	1	111.0	461.16
1593	1365	2397	1	111.0	461.16
1593	1365	2398	1	111.0	461.16
1593	1365	2399	1	111.0	461.16
1594	303	1743	1	149.0	836.8
1594	312	1602	1	149.0	836.8
1594	314	1599	1	149.0	836.8
1595	305	1745	1	149.0	836.8
1595	313	1604	1	149.0	836.8
1595	316	1601	1	149.0	836.8
1595	321	1602	1	149.0	836.8
1596	306	1626	1	149.0	836.8
1596	317	1602	1	149.0	836.8
1596	322	1600	1	149.0	836.8
1597	307	1627	1	149.0	836.8
1597	309	1599	1	149.0	836.8
1597	318	1603	1	149.0	836.8
1597	323	1601	1	149.0	836.8
1598	308	1628	1	149.0	836.8
1598	310	1600	1	149.0	836.8
1598	319	1604	1	149.0	836.8
1598	1367	2403	1	111.0	461.16
1598	1367	2404	1	111.0	461.16
1598	1367	2405	1	111.0	461.16
1599	346	1610	1	149.0	836.8
1599	347	1618	1	149.0	836.8
1601	311	1764	1	149.0	836.8
1601	349	1619	1	149.0	836.8
1602	577	1740	1	149.0	836.8
1603	333	1605	1	149.0	836.8
1603	578	1741	1	149.0	836.8
1603	637	1762	1	149.0	836.8
1604	579	1742	1	149.0	836.8
1604	1366	2400	1	111.0	461.16
1604	1366	2401	1	111.0	461.16
1604	1366	2402	1	111.0	461.16
1605	325	1924	1	149.0	836.8
1605	341	1616	1	149.0	836.8
1605	654	1780	1	149.0	836.8
1606	324	1755	1	149.0	836.8
1606	332	1614	1	149.0	836.8
1606	335	1611	1	149.0	836.8
1607	326	1757	1	149.0	836.8
1607	334	1616	1	149.0	836.8
1607	337	1613	1	149.0	836.8
1607	343	1614	1	149.0	836.8
1608	327	1638	1	149.0	836.8
1608	338	1614	1	149.0	836.8
1608	344	1612	1	149.0	836.8
1609	328	1639	1	149.0	836.8
1609	339	1615	1	149.0	836.8
1609	345	1613	1	149.0	836.8
1609	1368	2406	1	111.0	461.16
1609	1368	2407	1	111.0	461.16
1609	1368	2408	1	111.0	461.16
1610	329	1640	1	149.0	836.8
1610	330	1612	1	149.0	836.8
1610	340	1616	1	149.0	836.8
1611	369	1630	1	149.0	836.8
1611	1274	2124	1	111.0	461.16
1611	1274	2125	1	111.0	461.16
1611	1274	2126	1	111.0	461.16
1611	1307	2223	1	111.0	461.16
1611	1307	2224	1	111.0	461.16
1611	1307	2225	1	111.0	461.16
1613	331	1776	1	149.0	836.8
1613	371	1631	1	149.0	836.8
1614	599	1752	1	149.0	836.8
1615	600	1753	1	149.0	836.8
1615	660	1774	1	149.0	836.8
1615	1306	2220	1	111.0	461.16
1615	1306	2221	1	111.0	461.16
1615	1306	2222	1	111.0	461.16
1616	601	1754	1	149.0	836.8
1617	348	1768	1	149.0	836.8
1617	364	1628	1	149.0	836.8
1617	677	1792	1	149.0	836.8
1617	1369	2409	1	111.0	461.16
1617	1369	2410	1	111.0	461.16
1617	1369	2411	1	111.0	461.16
1618	356	1626	1	149.0	836.8
1618	358	1623	1	149.0	836.8
1619	357	1628	1	149.0	836.8
1619	360	1625	1	149.0	836.8
1619	366	1626	1	149.0	836.8
1620	350	1650	1	149.0	836.8
1620	361	1626	1	149.0	836.8
1620	367	1624	1	149.0	836.8
1621	351	1651	1	149.0	836.8
1621	353	1623	1	149.0	836.8
1621	362	1627	1	149.0	836.8
1621	368	1625	1	149.0	836.8
1622	352	1652	1	149.0	836.8
1622	354	1624	1	149.0	836.8
1622	363	1628	1	149.0	836.8
1622	1370	2412	1	111.0	461.16
1622	1370	2413	1	111.0	461.16
1622	1370	2414	1	111.0	461.16
1623	392	1634	1	149.0	836.8
1623	393	1642	1	149.0	836.8
1625	355	1788	1	149.0	836.8
1625	395	1643	1	149.0	836.8
1627	379	1629	1	149.0	836.8
1627	682	1786	1	149.0	836.8
1629	370	1780	1	149.0	836.8
1629	387	1640	1	149.0	836.8
1629	698	1804	1	149.0	836.8
1630	378	1638	1	149.0	836.8
1630	381	1635	1	149.0	836.8
1631	380	1640	1	149.0	836.8
1631	383	1637	1	149.0	836.8
1631	389	1638	1	149.0	836.8
1632	372	1662	1	149.0	836.8
1632	384	1638	1	149.0	836.8
1632	390	1636	1	149.0	836.8
1633	373	1663	1	149.0	836.8
1633	375	1635	1	149.0	836.8
1633	385	1639	1	149.0	836.8
1633	391	1637	1	149.0	836.8
1634	374	1664	1	149.0	836.8
1634	376	1636	1	149.0	836.8
1634	386	1640	1	149.0	836.8
1635	414	1654	1	149.0	836.8
1635	1309	2229	1	111.0	461.16
1635	1309	2230	1	111.0	461.16
1635	1309	2231	1	111.0	461.16
1637	377	1800	1	149.0	836.8
1637	416	1655	1	149.0	836.8
1639	704	1798	1	149.0	836.8
1639	1308	2226	1	111.0	461.16
1639	1308	2227	1	111.0	461.16
1639	1308	2228	1	111.0	461.16
1641	394	1792	1	149.0	836.8
1641	721	1816	1	149.0	836.8
1641	1275	2127	1	111.0	461.16
1641	1275	2128	1	111.0	461.16
1641	1275	2129	1	111.0	461.16
1641	1371	2415	1	111.0	461.16
1641	1371	2416	1	111.0	461.16
1641	1371	2417	1	111.0	461.16
1642	402	1650	1	149.0	836.8
1642	404	1647	1	149.0	836.8
1643	403	1652	1	149.0	836.8
1643	406	1649	1	149.0	836.8
1643	411	1650	1	149.0	836.8
1644	396	1674	1	149.0	836.8
1644	407	1650	1	149.0	836.8
1644	412	1648	1	149.0	836.8
1645	397	1675	1	149.0	836.8
1645	399	1647	1	149.0	836.8
1645	408	1651	1	149.0	836.8
1645	413	1649	1	149.0	836.8
1646	398	1676	1	149.0	836.8
1646	400	1648	1	149.0	836.8
1646	409	1652	1	149.0	836.8
1646	1373	2421	1	111.0	461.16
1646	1373	2422	1	111.0	461.16
1646	1373	2423	1	111.0	461.16
1647	437	1658	1	149.0	836.8
1647	438	1666	1	149.0	836.8
1649	401	1812	1	149.0	836.8
1649	440	1667	1	149.0	836.8
1651	424	1653	1	149.0	836.8
1651	727	1810	1	149.0	836.8
1652	1372	2418	1	111.0	461.16
1652	1372	2419	1	111.0	461.16
1652	1372	2420	1	111.0	461.16
1653	415	1804	1	149.0	836.8
1653	432	1664	1	149.0	836.8
1653	744	1828	1	149.0	836.8
1654	423	1662	1	149.0	836.8
1654	426	1659	1	149.0	836.8
1655	425	1664	1	149.0	836.8
1655	428	1661	1	149.0	836.8
1655	434	1662	1	149.0	836.8
1656	417	1686	1	149.0	836.8
1656	429	1662	1	149.0	836.8
1656	435	1660	1	149.0	836.8
1657	418	1687	1	149.0	836.8
1657	420	1659	1	149.0	836.8
1657	430	1663	1	149.0	836.8
1657	436	1661	1	149.0	836.8
1658	419	1688	1	149.0	836.8
1658	421	1660	1	149.0	836.8
1658	431	1664	1	149.0	836.8
1659	460	1678	1	149.0	836.8
1659	1311	2235	1	111.0	461.16
1659	1311	2236	1	111.0	461.16
1659	1311	2237	1	111.0	461.16
1661	422	1824	1	149.0	836.8
1661	462	1679	1	149.0	836.8
1663	750	1822	1	149.0	836.8
1663	1310	2232	1	111.0	461.16
1663	1310	2233	1	111.0	461.16
1663	1310	2234	1	111.0	461.16
1665	439	1816	1	149.0	836.8
1665	455	1676	1	149.0	836.8
1665	767	1840	1	149.0	836.8
1665	1374	2424	1	111.0	461.16
1665	1374	2425	1	111.0	461.16
1665	1374	2426	1	111.0	461.16
1666	447	1674	1	149.0	836.8
1666	449	1671	1	149.0	836.8
1667	448	1676	1	149.0	836.8
1667	451	1673	1	149.0	836.8
1667	457	1674	1	149.0	836.8
1668	441	1698	1	149.0	836.8
1668	452	1674	1	149.0	836.8
1668	458	1672	1	149.0	836.8
1669	442	1699	1	149.0	836.8
1669	444	1671	1	149.0	836.8
1669	453	1675	1	149.0	836.8
1669	459	1673	1	149.0	836.8
1670	443	1700	1	149.0	836.8
1670	445	1672	1	149.0	836.8
1670	454	1676	1	149.0	836.8
1670	1375	2427	1	111.0	461.16
1670	1375	2428	1	111.0	461.16
1670	1375	2429	1	111.0	461.16
1671	482	1682	1	149.0	836.8
1671	483	1690	1	149.0	836.8
1673	446	1836	1	149.0	836.8
1673	485	1691	1	149.0	836.8
1675	469	1677	1	149.0	836.8
1675	772	1834	1	149.0	836.8
1677	461	1828	1	149.0	836.8
1677	477	1688	1	149.0	836.8
1677	788	1852	1	149.0	836.8
1678	468	1686	1	149.0	836.8
1678	471	1683	1	149.0	836.8
1679	470	1688	1	149.0	836.8
1679	473	1685	1	149.0	836.8
1679	479	1686	1	149.0	836.8
1680	463	1710	1	149.0	836.8
1680	474	1686	1	149.0	836.8
1680	480	1684	1	149.0	836.8
1681	464	1711	1	149.0	836.8
1681	475	1687	1	149.0	836.8
1681	481	1685	1	149.0	836.8
1681	1376	2430	1	111.0	461.16
1681	1376	2431	1	111.0	461.16
1681	1376	2432	1	111.0	461.16
1682	465	1712	1	149.0	836.8
1682	466	1684	1	149.0	836.8
1682	476	1688	1	149.0	836.8
1683	505	1702	1	149.0	836.8
1683	1276	2130	1	111.0	461.16
1683	1276	2131	1	111.0	461.16
1683	1276	2132	1	111.0	461.16
1683	1313	2241	1	111.0	461.16
1683	1313	2242	1	111.0	461.16
1683	1313	2243	1	111.0	461.16
1685	467	1848	1	149.0	836.8
1685	507	1703	1	149.0	836.8
1687	794	1846	1	149.0	836.8
1687	1312	2238	1	111.0	461.16
1687	1312	2239	1	111.0	461.16
1687	1312	2240	1	111.0	461.16
1689	484	1840	1	149.0	836.8
1689	500	1700	1	149.0	836.8
1689	811	1864	1	149.0	836.8
1689	1377	2433	1	111.0	461.16
1689	1377	2434	1	111.0	461.16
1689	1377	2435	1	111.0	461.16
1690	492	1698	1	149.0	836.8
1690	494	1695	1	149.0	836.8
1691	493	1700	1	149.0	836.8
1691	496	1697	1	149.0	836.8
1691	502	1698	1	149.0	836.8
1692	486	1722	1	149.0	836.8
1692	497	1698	1	149.0	836.8
1692	503	1696	1	149.0	836.8
1693	487	1723	1	149.0	836.8
1693	489	1695	1	149.0	836.8
1693	498	1699	1	149.0	836.8
1693	504	1697	1	149.0	836.8
1694	488	1724	1	149.0	836.8
1694	490	1696	1	149.0	836.8
1694	499	1700	1	149.0	836.8
1694	1378	2436	1	111.0	461.16
1694	1378	2437	1	111.0	461.16
1694	1378	2438	1	111.0	461.16
1695	528	1706	1	149.0	836.8
1695	529	1714	1	149.0	836.8
1697	491	1860	1	149.0	836.8
1697	531	1715	1	149.0	836.8
1699	515	1701	1	149.0	836.8
1699	817	1858	1	149.0	836.8
1701	506	1852	1	149.0	836.8
1701	523	1712	1	149.0	836.8
1701	834	1876	1	149.0	836.8
1702	514	1710	1	149.0	836.8
1702	517	1707	1	149.0	836.8
1703	516	1712	1	149.0	836.8
1703	519	1709	1	149.0	836.8
1703	525	1710	1	149.0	836.8
1704	508	1734	1	149.0	836.8
1704	520	1710	1	149.0	836.8
1704	526	1708	1	149.0	836.8
1705	509	1735	1	149.0	836.8
1705	511	1707	1	149.0	836.8
1705	521	1711	1	149.0	836.8
1705	527	1709	1	149.0	836.8
1706	510	1736	1	149.0	836.8
1706	512	1708	1	149.0	836.8
1706	522	1712	1	149.0	836.8
1707	550	1726	1	149.0	836.8
1707	1315	2247	1	111.0	461.16
1707	1315	2248	1	111.0	461.16
1707	1315	2249	1	111.0	461.16
1709	513	1872	1	149.0	836.8
1709	552	1727	1	149.0	836.8
1711	840	1870	1	149.0	836.8
1711	1314	2244	1	111.0	461.16
1711	1314	2245	1	111.0	461.16
1711	1314	2246	1	111.0	461.16
1713	530	1864	1	149.0	836.8
1713	857	1888	1	149.0	836.8
1713	1277	2133	1	111.0	461.16
1713	1277	2134	1	111.0	461.16
1713	1277	2135	1	111.0	461.16
1713	1379	2439	1	111.0	461.16
1713	1379	2440	1	111.0	461.16
1713	1379	2441	1	111.0	461.16
1714	538	1722	1	149.0	836.8
1714	540	1719	1	149.0	836.8
1715	539	1724	1	149.0	836.8
1715	542	1721	1	149.0	836.8
1715	547	1722	1	149.0	836.8
1716	532	1746	1	149.0	836.8
1716	543	1722	1	149.0	836.8
1716	548	1720	1	149.0	836.8
1717	533	1747	1	149.0	836.8
1717	535	1719	1	149.0	836.8
1717	544	1723	1	149.0	836.8
1717	549	1721	1	149.0	836.8
1718	534	1748	1	149.0	836.8
1718	536	1720	1	149.0	836.8
1718	545	1724	1	149.0	836.8
1718	1381	2445	1	111.0	461.16
1718	1381	2446	1	111.0	461.16
1718	1381	2447	1	111.0	461.16
1719	573	1730	1	149.0	836.8
1719	574	1738	1	149.0	836.8
1721	537	1884	1	149.0	836.8
1721	576	1739	1	149.0	836.8
1723	560	1725	1	149.0	836.8
1723	862	1882	1	149.0	836.8
1724	1380	2442	1	111.0	461.16
1724	1380	2443	1	111.0	461.16
1724	1380	2444	1	111.0	461.16
1725	551	1876	1	149.0	836.8
1725	568	1736	1	149.0	836.8
1725	878	1900	1	149.0	836.8
1726	559	1734	1	149.0	836.8
1726	562	1731	1	149.0	836.8
1727	561	1736	1	149.0	836.8
1727	564	1733	1	149.0	836.8
1727	570	1734	1	149.0	836.8
1728	553	1758	1	149.0	836.8
1728	565	1734	1	149.0	836.8
1728	571	1732	1	149.0	836.8
1729	554	1759	1	149.0	836.8
1729	556	1731	1	149.0	836.8
1729	566	1735	1	149.0	836.8
1729	572	1733	1	149.0	836.8
1730	555	1760	1	149.0	836.8
1730	557	1732	1	149.0	836.8
1730	567	1736	1	149.0	836.8
1731	596	1750	1	149.0	836.8
1731	1317	2253	1	111.0	461.16
1731	1317	2254	1	111.0	461.16
1731	1317	2255	1	111.0	461.16
1733	558	1896	1	149.0	836.8
1733	598	1751	1	149.0	836.8
1735	884	1894	1	149.0	836.8
1735	1316	2250	1	111.0	461.16
1735	1316	2251	1	111.0	461.16
1735	1316	2252	1	111.0	461.16
1737	575	1888	1	149.0	836.8
1737	591	1748	1	149.0	836.8
1737	901	1912	1	149.0	836.8
1737	1382	2448	1	111.0	461.16
1737	1382	2449	1	111.0	461.16
1737	1382	2450	1	111.0	461.16
1738	583	1746	1	149.0	836.8
1738	585	1743	1	149.0	836.8
1739	584	1748	1	149.0	836.8
1739	587	1745	1	149.0	836.8
1739	593	1746	1	149.0	836.8
1740	588	1746	1	149.0	836.8
1740	594	1744	1	149.0	836.8
1741	580	1743	1	149.0	836.8
1741	589	1747	1	149.0	836.8
1741	595	1745	1	149.0	836.8
1742	581	1744	1	149.0	836.8
1742	590	1748	1	149.0	836.8
1742	1383	2451	1	111.0	461.16
1742	1383	2452	1	111.0	461.16
1742	1383	2453	1	111.0	461.16
1743	618	1754	1	149.0	836.8
1745	582	1908	1	149.0	836.8
1747	605	1749	1	149.0	836.8
1747	907	1906	1	149.0	836.8
1749	597	1900	1	149.0	836.8
1749	613	1760	1	149.0	836.8
1749	924	1924	1	149.0	836.8
1750	604	1758	1	149.0	836.8
1750	607	1755	1	149.0	836.8
1751	606	1760	1	149.0	836.8
1751	609	1757	1	149.0	836.8
1751	615	1758	1	149.0	836.8
1752	610	1758	1	149.0	836.8
1752	616	1756	1	149.0	836.8
1753	611	1759	1	149.0	836.8
1753	617	1757	1	149.0	836.8
1753	1384	2454	1	111.0	461.16
1753	1384	2455	1	111.0	461.16
1753	1384	2456	1	111.0	461.16
1754	602	1756	1	149.0	836.8
1754	612	1760	1	149.0	836.8
1755	1278	2136	1	111.0	461.16
1755	1278	2137	1	111.0	461.16
1755	1278	2138	1	111.0	461.16
1755	1319	2259	1	111.0	461.16
1755	1319	2260	1	111.0	461.16
1755	1319	2261	1	111.0	461.16
1757	603	1920	1	149.0	836.8
1759	930	1918	1	149.0	836.8
1759	1318	2256	1	111.0	461.16
1759	1318	2257	1	111.0	461.16
1759	1318	2258	1	111.0	461.16
1761	620	2080	1	149.0	836.8
1761	636	1772	1	149.0	836.8
1761	946	1936	1	149.0	836.8
1761	1385	2457	1	111.0	461.16
1761	1385	2458	1	111.0	461.16
1761	1385	2459	1	111.0	461.16
1762	619	1911	1	149.0	836.8
1762	628	1770	1	149.0	836.8
1762	630	1767	1	149.0	836.8
1763	621	1913	1	149.0	836.8
1763	629	1772	1	149.0	836.8
1763	632	1769	1	149.0	836.8
1763	638	1770	1	149.0	836.8
1764	622	1794	1	149.0	836.8
1764	633	1770	1	149.0	836.8
1764	639	1768	1	149.0	836.8
1765	623	1795	1	149.0	836.8
1765	625	1767	1	149.0	836.8
1765	634	1771	1	149.0	836.8
1765	640	1769	1	149.0	836.8
1766	624	1796	1	149.0	836.8
1766	626	1768	1	149.0	836.8
1766	635	1772	1	149.0	836.8
1766	1386	2460	1	111.0	461.16
1766	1386	2461	1	111.0	461.16
1766	1386	2462	1	111.0	461.16
1767	664	1778	1	149.0	836.8
1767	665	1786	1	149.0	836.8
1769	627	1932	1	149.0	836.8
1769	667	1787	1	149.0	836.8
1770	892	1908	1	149.0	836.8
1771	651	1773	1	149.0	836.8
1771	893	1909	1	149.0	836.8
1771	952	1930	1	149.0	836.8
1772	894	1910	1	149.0	836.8
1773	642	2092	1	149.0	836.8
1773	659	1784	1	149.0	836.8
1773	967	1948	1	149.0	836.8
1774	641	1923	1	149.0	836.8
1774	650	1782	1	149.0	836.8
1774	653	1779	1	149.0	836.8
1775	643	1925	1	149.0	836.8
1775	652	1784	1	149.0	836.8
1775	655	1781	1	149.0	836.8
1775	661	1782	1	149.0	836.8
1776	644	1806	1	149.0	836.8
1776	656	1782	1	149.0	836.8
1776	662	1780	1	149.0	836.8
1777	645	1807	1	149.0	836.8
1777	647	1779	1	149.0	836.8
1777	657	1783	1	149.0	836.8
1777	663	1781	1	149.0	836.8
1778	646	1808	1	149.0	836.8
1778	648	1780	1	149.0	836.8
1778	658	1784	1	149.0	836.8
1779	686	1798	1	149.0	836.8
1779	1321	2265	1	111.0	461.16
1779	1321	2266	1	111.0	461.16
1779	1321	2267	1	111.0	461.16
1781	649	1944	1	149.0	836.8
1781	688	1799	1	149.0	836.8
1782	914	1920	1	149.0	836.8
1783	915	1921	1	149.0	836.8
1783	973	1942	1	149.0	836.8
1783	1320	2262	1	111.0	461.16
1783	1320	2263	1	111.0	461.16
1783	1320	2264	1	111.0	461.16
1784	916	1922	1	149.0	836.8
1785	666	1936	1	149.0	836.8
1785	989	1960	1	149.0	836.8
1785	1279	2139	1	111.0	461.16
1785	1279	2140	1	111.0	461.16
1785	1279	2141	1	111.0	461.16
1785	1387	2463	1	111.0	461.16
1785	1387	2464	1	111.0	461.16
1785	1387	2465	1	111.0	461.16
1786	674	1794	1	149.0	836.8
1786	676	1791	1	149.0	836.8
1787	675	1796	1	149.0	836.8
1787	678	1793	1	149.0	836.8
1787	683	1794	1	149.0	836.8
1788	668	1818	1	149.0	836.8
1788	679	1794	1	149.0	836.8
1788	684	1792	1	149.0	836.8
1789	669	1819	1	149.0	836.8
1789	671	1791	1	149.0	836.8
1789	680	1795	1	149.0	836.8
1789	685	1793	1	149.0	836.8
1790	670	1820	1	149.0	836.8
1790	672	1792	1	149.0	836.8
1790	681	1796	1	149.0	836.8
1790	1389	2469	1	111.0	461.16
1790	1389	2470	1	111.0	461.16
1790	1389	2471	1	111.0	461.16
1791	708	1802	1	149.0	836.8
1791	709	1810	1	149.0	836.8
1793	673	1956	1	149.0	836.8
1793	711	1811	1	149.0	836.8
1795	695	1797	1	149.0	836.8
1795	994	1954	1	149.0	836.8
1796	1388	2466	1	111.0	461.16
1796	1388	2467	1	111.0	461.16
1796	1388	2468	1	111.0	461.16
1797	687	1948	1	149.0	836.8
1797	703	1808	1	149.0	836.8
1797	1008	1972	1	149.0	836.8
1798	694	1806	1	149.0	836.8
1798	697	1803	1	149.0	836.8
1799	696	1808	1	149.0	836.8
1799	699	1805	1	149.0	836.8
1799	705	1806	1	149.0	836.8
1800	689	1830	1	149.0	836.8
1800	700	1806	1	149.0	836.8
1800	706	1804	1	149.0	836.8
1801	690	1831	1	149.0	836.8
1801	701	1807	1	149.0	836.8
1801	707	1805	1	149.0	836.8
1801	1390	2472	1	111.0	461.16
1801	1390	2473	1	111.0	461.16
1801	1390	2474	1	111.0	461.16
1802	691	1832	1	149.0	836.8
1802	692	1804	1	149.0	836.8
1802	702	1808	1	149.0	836.8
1803	731	1822	1	149.0	836.8
1803	1280	2142	1	111.0	461.16
1803	1280	2143	1	111.0	461.16
1803	1280	2144	1	111.0	461.16
1803	1323	2271	1	111.0	461.16
1803	1323	2272	1	111.0	461.16
1803	1323	2273	1	111.0	461.16
1805	693	1968	1	149.0	836.8
1805	733	1823	1	149.0	836.8
1807	1014	1966	1	149.0	836.8
1807	1322	2268	1	111.0	461.16
1807	1322	2269	1	111.0	461.16
1807	1322	2270	1	111.0	461.16
1809	710	1960	1	149.0	836.8
1809	726	1820	1	149.0	836.8
1809	1030	1984	1	149.0	836.8
1809	1391	2475	1	111.0	461.16
1809	1391	2476	1	111.0	461.16
1809	1391	2477	1	111.0	461.16
1810	718	1818	1	149.0	836.8
1810	720	1815	1	149.0	836.8
1811	719	1820	1	149.0	836.8
1811	722	1817	1	149.0	836.8
1811	728	1818	1	149.0	836.8
1812	712	1842	1	149.0	836.8
1812	723	1818	1	149.0	836.8
1812	729	1816	1	149.0	836.8
1813	713	1843	1	149.0	836.8
1813	715	1815	1	149.0	836.8
1813	724	1819	1	149.0	836.8
1813	730	1817	1	149.0	836.8
1814	714	1844	1	149.0	836.8
1814	716	1816	1	149.0	836.8
1814	725	1820	1	149.0	836.8
1814	1392	2478	1	111.0	461.16
1814	1392	2479	1	111.0	461.16
1814	1392	2480	1	111.0	461.16
1815	754	1826	1	149.0	836.8
1815	755	1834	1	149.0	836.8
1817	717	1980	1	149.0	836.8
1817	757	1835	1	149.0	836.8
1819	741	1821	1	149.0	836.8
1819	1036	1978	1	149.0	836.8
1821	732	1972	1	149.0	836.8
1821	749	1832	1	149.0	836.8
1821	1051	1996	1	149.0	836.8
1822	740	1830	1	149.0	836.8
1822	743	1827	1	149.0	836.8
1823	742	1832	1	149.0	836.8
1823	745	1829	1	149.0	836.8
1823	751	1830	1	149.0	836.8
1824	734	1854	1	149.0	836.8
1824	746	1830	1	149.0	836.8
1824	752	1828	1	149.0	836.8
1825	735	1855	1	149.0	836.8
1825	737	1827	1	149.0	836.8
1825	747	1831	1	149.0	836.8
1825	753	1829	1	149.0	836.8
1826	736	1856	1	149.0	836.8
1826	738	1828	1	149.0	836.8
1826	748	1832	1	149.0	836.8
1827	776	1846	1	149.0	836.8
1827	1325	2277	1	111.0	461.16
1827	1325	2278	1	111.0	461.16
1827	1325	2279	1	111.0	461.16
1829	739	1992	1	149.0	836.8
1829	778	1847	1	149.0	836.8
1831	1057	1990	1	149.0	836.8
1831	1324	2274	1	111.0	461.16
1831	1324	2275	1	111.0	461.16
1831	1324	2276	1	111.0	461.16
1833	756	1984	1	149.0	836.8
1833	1073	2008	1	149.0	836.8
1833	1281	2145	1	111.0	461.16
1833	1281	2146	1	111.0	461.16
1833	1281	2147	1	111.0	461.16
1833	1393	2481	1	111.0	461.16
1833	1393	2482	1	111.0	461.16
1833	1393	2483	1	111.0	461.16
1834	764	1842	1	149.0	836.8
1834	766	1839	1	149.0	836.8
1835	765	1844	1	149.0	836.8
1835	768	1841	1	149.0	836.8
1835	773	1842	1	149.0	836.8
1836	758	1866	1	149.0	836.8
1836	769	1842	1	149.0	836.8
1836	774	1840	1	149.0	836.8
1837	759	1867	1	149.0	836.8
1837	761	1839	1	149.0	836.8
1837	770	1843	1	149.0	836.8
1837	775	1841	1	149.0	836.8
1838	760	1868	1	149.0	836.8
1838	762	1840	1	149.0	836.8
1838	771	1844	1	149.0	836.8
1838	1395	2487	1	111.0	461.16
1838	1395	2488	1	111.0	461.16
1838	1395	2489	1	111.0	461.16
1839	798	1850	1	149.0	836.8
1839	799	1858	1	149.0	836.8
1841	763	2004	1	149.0	836.8
1841	801	1859	1	149.0	836.8
1843	785	1845	1	149.0	836.8
1843	1078	2002	1	149.0	836.8
1844	1394	2484	1	111.0	461.16
1844	1394	2485	1	111.0	461.16
1844	1394	2486	1	111.0	461.16
1845	777	1996	1	149.0	836.8
1845	793	1856	1	149.0	836.8
1845	1092	2020	1	149.0	836.8
1846	784	1854	1	149.0	836.8
1846	787	1851	1	149.0	836.8
1847	786	1856	1	149.0	836.8
1847	789	1853	1	149.0	836.8
1847	795	1854	1	149.0	836.8
1848	779	1878	1	149.0	836.8
1848	790	1854	1	149.0	836.8
1848	796	1852	1	149.0	836.8
1849	780	1879	1	149.0	836.8
1849	791	1855	1	149.0	836.8
1849	797	1853	1	149.0	836.8
1849	1396	2490	1	111.0	461.16
1849	1396	2491	1	111.0	461.16
1849	1396	2492	1	111.0	461.16
1850	781	1880	1	149.0	836.8
1850	782	1852	1	149.0	836.8
1850	792	1856	1	149.0	836.8
1851	821	1870	1	149.0	836.8
1851	1282	2148	1	111.0	461.16
1851	1282	2149	1	111.0	461.16
1851	1282	2150	1	111.0	461.16
1851	1327	2283	1	111.0	461.16
1851	1327	2284	1	111.0	461.16
1851	1327	2285	1	111.0	461.16
1853	783	2016	1	149.0	836.8
1853	823	1871	1	149.0	836.8
1855	1098	2014	1	149.0	836.8
1855	1326	2280	1	111.0	461.16
1855	1326	2281	1	111.0	461.16
1855	1326	2282	1	111.0	461.16
1857	800	2008	1	149.0	836.8
1857	816	1868	1	149.0	836.8
1857	1114	2032	1	149.0	836.8
1857	1397	2493	1	111.0	461.16
1857	1397	2494	1	111.0	461.16
1857	1397	2495	1	111.0	461.16
1858	808	1866	1	149.0	836.8
1858	810	1863	1	149.0	836.8
1859	809	1868	1	149.0	836.8
1859	812	1865	1	149.0	836.8
1859	818	1866	1	149.0	836.8
1860	802	1890	1	149.0	836.8
1860	813	1866	1	149.0	836.8
1860	819	1864	1	149.0	836.8
1861	803	1891	1	149.0	836.8
1861	805	1863	1	149.0	836.8
1861	814	1867	1	149.0	836.8
1861	820	1865	1	149.0	836.8
1862	804	1892	1	149.0	836.8
1862	806	1864	1	149.0	836.8
1862	815	1868	1	149.0	836.8
1862	1398	2496	1	111.0	461.16
1862	1398	2497	1	111.0	461.16
1862	1398	2498	1	111.0	461.16
1863	844	1874	1	149.0	836.8
1863	845	1882	1	149.0	836.8
1865	807	2028	1	149.0	836.8
1865	847	1883	1	149.0	836.8
1867	831	1869	1	149.0	836.8
1867	1120	2026	1	149.0	836.8
1869	822	2020	1	149.0	836.8
1869	839	1880	1	149.0	836.8
1869	1135	2044	1	149.0	836.8
1870	830	1878	1	149.0	836.8
1870	833	1875	1	149.0	836.8
1871	832	1880	1	149.0	836.8
1871	835	1877	1	149.0	836.8
1871	841	1878	1	149.0	836.8
1872	824	1902	1	149.0	836.8
1872	836	1878	1	149.0	836.8
1872	842	1876	1	149.0	836.8
1873	825	1903	1	149.0	836.8
1873	827	1875	1	149.0	836.8
1873	837	1879	1	149.0	836.8
1873	843	1877	1	149.0	836.8
1874	826	1904	1	149.0	836.8
1874	828	1876	1	149.0	836.8
1874	838	1880	1	149.0	836.8
1875	866	1894	1	149.0	836.8
1875	1329	2289	1	111.0	461.16
1875	1329	2290	1	111.0	461.16
1875	1329	2291	1	111.0	461.16
1877	829	2040	1	149.0	836.8
1877	868	1895	1	149.0	836.8
1879	1141	2038	1	149.0	836.8
1879	1328	2286	1	111.0	461.16
1879	1328	2287	1	111.0	461.16
1879	1328	2288	1	111.0	461.16
1881	846	2032	1	149.0	836.8
1881	1157	2056	1	149.0	836.8
1881	1283	2151	1	111.0	461.16
1881	1283	2152	1	111.0	461.16
1881	1283	2153	1	111.0	461.16
1881	1399	2499	1	111.0	461.16
1881	1399	2500	1	111.0	461.16
1881	1399	2501	1	111.0	461.16
1882	854	1890	1	149.0	836.8
1882	856	1887	1	149.0	836.8
1883	855	1892	1	149.0	836.8
1883	858	1889	1	149.0	836.8
1883	863	1890	1	149.0	836.8
1884	848	1914	1	149.0	836.8
1884	859	1890	1	149.0	836.8
1884	864	1888	1	149.0	836.8
1885	849	1915	1	149.0	836.8
1885	851	1887	1	149.0	836.8
1885	860	1891	1	149.0	836.8
1885	865	1889	1	149.0	836.8
1886	850	1916	1	149.0	836.8
1886	852	1888	1	149.0	836.8
1886	861	1892	1	149.0	836.8
1886	1401	2505	1	111.0	461.16
1886	1401	2506	1	111.0	461.16
1886	1401	2507	1	111.0	461.16
1887	888	1898	1	149.0	836.8
1887	889	1906	1	149.0	836.8
1889	853	2052	1	149.0	836.8
1889	891	1907	1	149.0	836.8
1891	875	1893	1	149.0	836.8
1891	1162	2050	1	149.0	836.8
1892	1400	2502	1	111.0	461.16
1892	1400	2503	1	111.0	461.16
1892	1400	2504	1	111.0	461.16
1893	867	2044	1	149.0	836.8
1893	883	1904	1	149.0	836.8
1893	1176	2068	1	149.0	836.8
1894	874	1902	1	149.0	836.8
1894	877	1899	1	149.0	836.8
1895	876	1904	1	149.0	836.8
1895	879	1901	1	149.0	836.8
1895	885	1902	1	149.0	836.8
1896	869	1926	1	149.0	836.8
1896	880	1902	1	149.0	836.8
1896	886	1900	1	149.0	836.8
1897	870	1927	1	149.0	836.8
1897	881	1903	1	149.0	836.8
1897	887	1901	1	149.0	836.8
1897	1402	2508	1	111.0	461.16
1897	1402	2509	1	111.0	461.16
1897	1402	2510	1	111.0	461.16
1898	871	1928	1	149.0	836.8
1898	872	1900	1	149.0	836.8
1898	882	1904	1	149.0	836.8
1899	911	1918	1	149.0	836.8
1899	1284	2154	1	111.0	461.16
1899	1284	2155	1	111.0	461.16
1899	1284	2156	1	111.0	461.16
1899	1331	2295	1	111.0	461.16
1899	1331	2296	1	111.0	461.16
1899	1331	2297	1	111.0	461.16
1901	873	2064	1	149.0	836.8
1901	913	1919	1	149.0	836.8
1903	1182	2062	1	149.0	836.8
1903	1330	2292	1	111.0	461.16
1903	1330	2293	1	111.0	461.16
1903	1330	2294	1	111.0	461.16
1905	890	2056	1	149.0	836.8
1905	906	1916	1	149.0	836.8
1905	1198	2080	1	149.0	836.8
1905	1403	2511	1	111.0	461.16
1905	1403	2512	1	111.0	461.16
1905	1403	2513	1	111.0	461.16
1906	898	1914	1	149.0	836.8
1906	900	1911	1	149.0	836.8
1907	899	1916	1	149.0	836.8
1907	902	1913	1	149.0	836.8
1907	908	1914	1	149.0	836.8
1908	903	1914	1	149.0	836.8
1908	909	1912	1	149.0	836.8
1909	895	1911	1	149.0	836.8
1909	904	1915	1	149.0	836.8
1909	910	1913	1	149.0	836.8
1910	896	1912	1	149.0	836.8
1910	905	1916	1	149.0	836.8
1910	1404	2514	1	111.0	461.16
1910	1404	2515	1	111.0	461.16
1910	1404	2516	1	111.0	461.16
1911	934	1922	1	149.0	836.8
1913	897	2076	1	149.0	836.8
1915	921	1917	1	149.0	836.8
1915	1204	2074	1	149.0	836.8
1917	912	2068	1	149.0	836.8
1917	929	1928	1	149.0	836.8
1917	1219	2092	1	149.0	836.8
1918	920	1926	1	149.0	836.8
1918	923	1923	1	149.0	836.8
1919	922	1928	1	149.0	836.8
1919	925	1925	1	149.0	836.8
1919	931	1926	1	149.0	836.8
1920	926	1926	1	149.0	836.8
1920	932	1924	1	149.0	836.8
1921	917	1923	1	149.0	836.8
1921	927	1927	1	149.0	836.8
1921	933	1925	1	149.0	836.8
1922	918	1924	1	149.0	836.8
1922	928	1928	1	149.0	836.8
1923	1333	2301	1	111.0	461.16
1923	1333	2302	1	111.0	461.16
1923	1333	2303	1	111.0	461.16
1925	919	2088	1	149.0	836.8
1927	1225	2086	1	149.0	836.8
1927	1332	2298	1	111.0	461.16
1927	1332	2299	1	111.0	461.16
1927	1332	2300	1	111.0	461.16
1929	951	1940	1	149.0	836.8
1929	1418	2556	1	111.0	461.16
1929	1418	2557	1	111.0	461.16
1929	1418	2558	1	111.0	461.16
1930	935	2079	1	149.0	836.8
1930	943	1938	1	149.0	836.8
1930	945	1935	1	149.0	836.8
1931	936	2081	1	149.0	836.8
1931	944	1940	1	149.0	836.8
1931	947	1937	1	149.0	836.8
1931	953	1938	1	149.0	836.8
1932	937	1962	1	149.0	836.8
1932	948	1938	1	149.0	836.8
1932	954	1936	1	149.0	836.8
1933	938	1963	1	149.0	836.8
1933	940	1935	1	149.0	836.8
1933	949	1939	1	149.0	836.8
1933	955	1937	1	149.0	836.8
1934	939	1964	1	149.0	836.8
1934	941	1936	1	149.0	836.8
1934	950	1940	1	149.0	836.8
1934	1405	2517	1	111.0	461.16
1934	1405	2518	1	111.0	461.16
1934	1405	2519	1	111.0	461.16
1935	977	1946	1	149.0	836.8
1935	978	1954	1	149.0	836.8
1937	979	1955	1	149.0	836.8
1938	1189	2076	1	149.0	836.8
1939	1190	2077	1	149.0	836.8
1939	1232	1941	1	149.0	836.8
1940	1191	2078	1	149.0	836.8
1941	972	1952	1	149.0	836.8
1942	956	2091	1	149.0	836.8
1942	964	1950	1	149.0	836.8
1942	966	1947	1	149.0	836.8
1943	957	2093	1	149.0	836.8
1943	965	1952	1	149.0	836.8
1943	968	1949	1	149.0	836.8
1943	974	1950	1	149.0	836.8
1944	958	1974	1	149.0	836.8
1944	969	1950	1	149.0	836.8
1944	975	1948	1	149.0	836.8
1945	959	1975	1	149.0	836.8
1945	961	1947	1	149.0	836.8
1945	970	1951	1	149.0	836.8
1945	976	1949	1	149.0	836.8
1946	960	1976	1	149.0	836.8
1946	962	1948	1	149.0	836.8
1946	971	1952	1	149.0	836.8
1947	998	1966	1	149.0	836.8
1947	1334	2304	1	111.0	461.16
1947	1334	2305	1	111.0	461.16
1947	1334	2306	1	111.0	461.16
1949	999	1967	1	149.0	836.8
1950	1210	2088	1	149.0	836.8
1951	1211	2089	1	149.0	836.8
1951	1341	2325	1	111.0	461.16
1951	1341	2326	1	111.0	461.16
1951	1341	2327	1	111.0	461.16
1952	1212	2090	1	149.0	836.8
1953	1285	2157	1	111.0	461.16
1953	1285	2158	1	111.0	461.16
1953	1285	2159	1	111.0	461.16
1953	1419	2559	1	111.0	461.16
1953	1419	2560	1	111.0	461.16
1953	1419	2561	1	111.0	461.16
1954	986	1962	1	149.0	836.8
1954	988	1959	1	149.0	836.8
1955	987	1964	1	149.0	836.8
1955	990	1961	1	149.0	836.8
1955	995	1962	1	149.0	836.8
1956	980	1986	1	149.0	836.8
1956	991	1962	1	149.0	836.8
1956	996	1960	1	149.0	836.8
1957	981	1987	1	149.0	836.8
1957	983	1959	1	149.0	836.8
1957	992	1963	1	149.0	836.8
1957	997	1961	1	149.0	836.8
1958	982	1988	1	149.0	836.8
1958	984	1960	1	149.0	836.8
1958	993	1964	1	149.0	836.8
1958	1407	2523	1	111.0	461.16
1958	1407	2524	1	111.0	461.16
1958	1407	2525	1	111.0	461.16
1959	1018	1970	1	149.0	836.8
1959	1019	1978	1	149.0	836.8
1961	1020	1979	1	149.0	836.8
1963	1235	1965	1	149.0	836.8
1964	1406	2520	1	111.0	461.16
1964	1406	2521	1	111.0	461.16
1964	1406	2522	1	111.0	461.16
1965	1013	1976	1	149.0	836.8
1966	1005	1974	1	149.0	836.8
1966	1007	1971	1	149.0	836.8
1967	1006	1976	1	149.0	836.8
1967	1009	1973	1	149.0	836.8
1967	1015	1974	1	149.0	836.8
1968	1000	1998	1	149.0	836.8
1968	1010	1974	1	149.0	836.8
1968	1016	1972	1	149.0	836.8
1969	1001	1999	1	149.0	836.8
1969	1011	1975	1	149.0	836.8
1969	1017	1973	1	149.0	836.8
1969	1408	2526	1	111.0	461.16
1969	1408	2527	1	111.0	461.16
1969	1408	2528	1	111.0	461.16
1970	1002	2000	1	149.0	836.8
1970	1003	1972	1	149.0	836.8
1970	1012	1976	1	149.0	836.8
1971	1040	1990	1	149.0	836.8
1971	1286	2160	1	111.0	461.16
1971	1286	2161	1	111.0	461.16
1971	1286	2162	1	111.0	461.16
1971	1335	2307	1	111.0	461.16
1971	1335	2308	1	111.0	461.16
1971	1335	2309	1	111.0	461.16
1973	1041	1991	1	149.0	836.8
1975	1342	2328	1	111.0	461.16
1975	1342	2329	1	111.0	461.16
1975	1342	2330	1	111.0	461.16
1977	1035	1988	1	149.0	836.8
1977	1420	2562	1	111.0	461.16
1977	1420	2563	1	111.0	461.16
1977	1420	2564	1	111.0	461.16
1978	1027	1986	1	149.0	836.8
1978	1029	1983	1	149.0	836.8
1979	1028	1988	1	149.0	836.8
1979	1031	1985	1	149.0	836.8
1979	1037	1986	1	149.0	836.8
1980	1021	2010	1	149.0	836.8
1980	1032	1986	1	149.0	836.8
1980	1038	1984	1	149.0	836.8
1981	1022	2011	1	149.0	836.8
1981	1024	1983	1	149.0	836.8
1981	1033	1987	1	149.0	836.8
1981	1039	1985	1	149.0	836.8
1982	1023	2012	1	149.0	836.8
1982	1025	1984	1	149.0	836.8
1982	1034	1988	1	149.0	836.8
1982	1409	2529	1	111.0	461.16
1982	1409	2530	1	111.0	461.16
1982	1409	2531	1	111.0	461.16
1983	1061	1994	1	149.0	836.8
1983	1062	2002	1	149.0	836.8
1985	1063	2003	1	149.0	836.8
1987	1238	1989	1	149.0	836.8
1989	1056	2000	1	149.0	836.8
1990	1048	1998	1	149.0	836.8
1990	1050	1995	1	149.0	836.8
1991	1049	2000	1	149.0	836.8
1991	1052	1997	1	149.0	836.8
1991	1058	1998	1	149.0	836.8
1992	1042	2022	1	149.0	836.8
1992	1053	1998	1	149.0	836.8
1992	1059	1996	1	149.0	836.8
1993	1043	2023	1	149.0	836.8
1993	1045	1995	1	149.0	836.8
1993	1054	1999	1	149.0	836.8
1993	1060	1997	1	149.0	836.8
1994	1044	2024	1	149.0	836.8
1994	1046	1996	1	149.0	836.8
1994	1055	2000	1	149.0	836.8
1995	1082	2014	1	149.0	836.8
1995	1336	2310	1	111.0	461.16
1995	1336	2311	1	111.0	461.16
1995	1336	2312	1	111.0	461.16
1997	1083	2015	1	149.0	836.8
1999	1343	2331	1	111.0	461.16
1999	1343	2332	1	111.0	461.16
1999	1343	2333	1	111.0	461.16
2001	1287	2163	1	111.0	461.16
2001	1287	2164	1	111.0	461.16
2001	1287	2165	1	111.0	461.16
2001	1421	2565	1	111.0	461.16
2001	1421	2566	1	111.0	461.16
2001	1421	2567	1	111.0	461.16
2002	1070	2010	1	149.0	836.8
2002	1072	2007	1	149.0	836.8
2003	1071	2012	1	149.0	836.8
2003	1074	2009	1	149.0	836.8
2003	1079	2010	1	149.0	836.8
2004	1064	2034	1	149.0	836.8
2004	1075	2010	1	149.0	836.8
2004	1080	2008	1	149.0	836.8
2005	1065	2035	1	149.0	836.8
2005	1067	2007	1	149.0	836.8
2005	1076	2011	1	149.0	836.8
2005	1081	2009	1	149.0	836.8
2006	1066	2036	1	149.0	836.8
2006	1068	2008	1	149.0	836.8
2006	1077	2012	1	149.0	836.8
2006	1411	2535	1	111.0	461.16
2006	1411	2536	1	111.0	461.16
2006	1411	2537	1	111.0	461.16
2007	1102	2018	1	149.0	836.8
2007	1103	2026	1	149.0	836.8
2009	1104	2027	1	149.0	836.8
2011	1241	2013	1	149.0	836.8
2012	1410	2532	1	111.0	461.16
2012	1410	2533	1	111.0	461.16
2012	1410	2534	1	111.0	461.16
2013	1097	2024	1	149.0	836.8
2014	1089	2022	1	149.0	836.8
2014	1091	2019	1	149.0	836.8
2015	1090	2024	1	149.0	836.8
2015	1093	2021	1	149.0	836.8
2015	1099	2022	1	149.0	836.8
2016	1084	2046	1	149.0	836.8
2016	1094	2022	1	149.0	836.8
2016	1100	2020	1	149.0	836.8
2017	1085	2047	1	149.0	836.8
2017	1095	2023	1	149.0	836.8
2017	1101	2021	1	149.0	836.8
2017	1412	2538	1	111.0	461.16
2017	1412	2539	1	111.0	461.16
2017	1412	2540	1	111.0	461.16
2018	1086	2048	1	149.0	836.8
2018	1087	2020	1	149.0	836.8
2018	1096	2024	1	149.0	836.8
2019	1124	2038	1	149.0	836.8
2019	1288	2166	1	111.0	461.16
2019	1288	2167	1	111.0	461.16
2019	1288	2168	1	111.0	461.16
2019	1337	2313	1	111.0	461.16
2019	1337	2314	1	111.0	461.16
2019	1337	2315	1	111.0	461.16
2021	1125	2039	1	149.0	836.8
2023	1344	2334	1	111.0	461.16
2023	1344	2335	1	111.0	461.16
2023	1344	2336	1	111.0	461.16
2025	1119	2036	1	149.0	836.8
2025	1422	2568	1	111.0	461.16
2025	1422	2569	1	111.0	461.16
2025	1422	2570	1	111.0	461.16
2026	1111	2034	1	149.0	836.8
2026	1113	2031	1	149.0	836.8
2027	1112	2036	1	149.0	836.8
2027	1115	2033	1	149.0	836.8
2027	1121	2034	1	149.0	836.8
2028	1105	2058	1	149.0	836.8
2028	1116	2034	1	149.0	836.8
2028	1122	2032	1	149.0	836.8
2029	1106	2059	1	149.0	836.8
2029	1108	2031	1	149.0	836.8
2029	1117	2035	1	149.0	836.8
2029	1123	2033	1	149.0	836.8
2030	1107	2060	1	149.0	836.8
2030	1109	2032	1	149.0	836.8
2030	1118	2036	1	149.0	836.8
2030	1413	2541	1	111.0	461.16
2030	1413	2542	1	111.0	461.16
2030	1413	2543	1	111.0	461.16
2031	1145	2042	1	149.0	836.8
2031	1146	2050	1	149.0	836.8
2033	1147	2051	1	149.0	836.8
2035	1244	2037	1	149.0	836.8
2037	1140	2048	1	149.0	836.8
2038	1132	2046	1	149.0	836.8
2038	1134	2043	1	149.0	836.8
2039	1133	2048	1	149.0	836.8
2039	1136	2045	1	149.0	836.8
2039	1142	2046	1	149.0	836.8
2040	1126	2070	1	149.0	836.8
2040	1137	2046	1	149.0	836.8
2040	1143	2044	1	149.0	836.8
2041	1127	2071	1	149.0	836.8
2041	1129	2043	1	149.0	836.8
2041	1138	2047	1	149.0	836.8
2041	1144	2045	1	149.0	836.8
2042	1128	2072	1	149.0	836.8
2042	1130	2044	1	149.0	836.8
2042	1139	2048	1	149.0	836.8
2043	1166	2062	1	149.0	836.8
2043	1338	2316	1	111.0	461.16
2043	1338	2317	1	111.0	461.16
2043	1338	2318	1	111.0	461.16
2045	1167	2063	1	149.0	836.8
2047	1345	2337	1	111.0	461.16
2047	1345	2338	1	111.0	461.16
2047	1345	2339	1	111.0	461.16
2049	1289	2169	1	111.0	461.16
2049	1289	2170	1	111.0	461.16
2049	1289	2171	1	111.0	461.16
2049	1423	2571	1	111.0	461.16
2049	1423	2572	1	111.0	461.16
2049	1423	2573	1	111.0	461.16
2050	1154	2058	1	149.0	836.8
2050	1156	2055	1	149.0	836.8
2051	1155	2060	1	149.0	836.8
2051	1158	2057	1	149.0	836.8
2051	1163	2058	1	149.0	836.8
2052	1148	2082	1	149.0	836.8
2052	1159	2058	1	149.0	836.8
2052	1164	2056	1	149.0	836.8
2053	1149	2083	1	149.0	836.8
2053	1151	2055	1	149.0	836.8
2053	1160	2059	1	149.0	836.8
2053	1165	2057	1	149.0	836.8
2054	1150	2084	1	149.0	836.8
2054	1152	2056	1	149.0	836.8
2054	1161	2060	1	149.0	836.8
2054	1415	2547	1	111.0	461.16
2054	1415	2548	1	111.0	461.16
2054	1415	2549	1	111.0	461.16
2055	1186	2066	1	149.0	836.8
2055	1187	2074	1	149.0	836.8
2057	1188	2075	1	149.0	836.8
2059	1247	2061	1	149.0	836.8
2060	1414	2544	1	111.0	461.16
2060	1414	2545	1	111.0	461.16
2060	1414	2546	1	111.0	461.16
2061	1181	2072	1	149.0	836.8
2062	1173	2070	1	149.0	836.8
2062	1175	2067	1	149.0	836.8
2063	1174	2072	1	149.0	836.8
2063	1177	2069	1	149.0	836.8
2063	1183	2070	1	149.0	836.8
2064	1168	2094	1	149.0	836.8
2064	1178	2070	1	149.0	836.8
2064	1184	2068	1	149.0	836.8
2065	1169	2095	1	149.0	836.8
2065	1179	2071	1	149.0	836.8
2065	1185	2069	1	149.0	836.8
2065	1416	2550	1	111.0	461.16
2065	1416	2551	1	111.0	461.16
2065	1416	2552	1	111.0	461.16
2066	1170	2096	1	149.0	836.8
2066	1171	2068	1	149.0	836.8
2066	1180	2072	1	149.0	836.8
2067	1208	2086	1	149.0	836.8
2067	1290	2172	1	111.0	461.16
2067	1290	2173	1	111.0	461.16
2067	1290	2174	1	111.0	461.16
2067	1339	2319	1	111.0	461.16
2067	1339	2320	1	111.0	461.16
2067	1339	2321	1	111.0	461.16
2069	1209	2087	1	149.0	836.8
2071	1346	2340	1	111.0	461.16
2071	1346	2341	1	111.0	461.16
2071	1346	2342	1	111.0	461.16
2073	1203	2084	1	149.0	836.8
2073	1424	2574	1	111.0	461.16
2073	1424	2575	1	111.0	461.16
2073	1424	2576	1	111.0	461.16
2074	1195	2082	1	149.0	836.8
2074	1197	2079	1	149.0	836.8
2075	1196	2084	1	149.0	836.8
2075	1199	2081	1	149.0	836.8
2075	1205	2082	1	149.0	836.8
2076	1200	2082	1	149.0	836.8
2076	1206	2080	1	149.0	836.8
2077	1192	2079	1	149.0	836.8
2077	1201	2083	1	149.0	836.8
2077	1207	2081	1	149.0	836.8
2078	1193	2080	1	149.0	836.8
2078	1202	2084	1	149.0	836.8
2078	1417	2553	1	111.0	461.16
2078	1417	2554	1	111.0	461.16
2078	1417	2555	1	111.0	461.16
2079	1229	2090	1	149.0	836.8
2083	1250	2085	1	149.0	836.8
2085	1224	2096	1	149.0	836.8
2086	1216	2094	1	149.0	836.8
2086	1218	2091	1	149.0	836.8
2087	1217	2096	1	149.0	836.8
2087	1220	2093	1	149.0	836.8
2087	1226	2094	1	149.0	836.8
2088	1221	2094	1	149.0	836.8
2088	1227	2092	1	149.0	836.8
2089	1213	2091	1	149.0	836.8
2089	1222	2095	1	149.0	836.8
2089	1228	2093	1	149.0	836.8
2090	1214	2092	1	149.0	836.8
2090	1223	2096	1	149.0	836.8
2091	1340	2322	1	111.0	461.16
2091	1340	2323	1	111.0	461.16
2091	1340	2324	1	111.0	461.16
2095	1347	2343	1	111.0	461.16
2095	1347	2344	1	111.0	461.16
2095	1347	2345	1	111.0	461.16
2097	1265	2098	1	108.0	419.83
2097	1265	2099	1	108.0	419.83
2098	1265	2099	1	108.0	419.83
2100	1266	2101	1	108.0	419.83
2100	1266	2102	1	108.0	419.83
2101	1266	2102	1	108.0	419.83
2103	1267	2104	1	108.0	419.83
2103	1267	2105	1	108.0	419.83
2104	1267	2105	1	108.0	419.83
2106	1268	2107	1	108.0	419.83
2106	1268	2108	1	108.0	419.83
2107	1268	2108	1	108.0	419.83
2109	1269	2110	1	108.0	419.83
2109	1269	2111	1	108.0	419.83
2110	1269	2111	1	108.0	419.83
2112	1270	2113	1	108.0	419.83
2112	1270	2114	1	108.0	419.83
2113	1270	2114	1	108.0	419.83
2115	1271	2116	1	108.0	419.83
2115	1271	2117	1	108.0	419.83
2116	1271	2117	1	108.0	419.83
2118	1272	2119	1	108.0	419.83
2118	1272	2120	1	108.0	419.83
2119	1272	2120	1	108.0	419.83
2121	1273	2122	1	108.0	419.83
2121	1273	2123	1	108.0	419.83
2122	1273	2123	1	108.0	419.83
2124	1274	2125	1	108.0	419.83
2124	1274	2126	1	108.0	419.83
2125	1274	2126	1	108.0	419.83
2127	1275	2128	1	108.0	419.83
2127	1275	2129	1	108.0	419.83
2128	1275	2129	1	108.0	419.83
2130	1276	2131	1	108.0	419.83
2130	1276	2132	1	108.0	419.83
2131	1276	2132	1	108.0	419.83
2133	1277	2134	1	108.0	419.83
2133	1277	2135	1	108.0	419.83
2134	1277	2135	1	108.0	419.83
2136	1278	2137	1	108.0	419.83
2136	1278	2138	1	108.0	419.83
2137	1278	2138	1	108.0	419.83
2139	1279	2140	1	108.0	419.83
2139	1279	2141	1	108.0	419.83
2140	1279	2141	1	108.0	419.83
2142	1280	2143	1	108.0	419.83
2142	1280	2144	1	108.0	419.83
2143	1280	2144	1	108.0	419.83
2145	1281	2146	1	108.0	419.83
2145	1281	2147	1	108.0	419.83
2146	1281	2147	1	108.0	419.83
2148	1282	2149	1	108.0	419.83
2148	1282	2150	1	108.0	419.83
2149	1282	2150	1	108.0	419.83
2151	1283	2152	1	108.0	419.83
2151	1283	2153	1	108.0	419.83
2152	1283	2153	1	108.0	419.83
2154	1284	2155	1	108.0	419.83
2154	1284	2156	1	108.0	419.83
2155	1284	2156	1	108.0	419.83
2157	1285	2158	1	108.0	419.83
2157	1285	2159	1	108.0	419.83
2158	1285	2159	1	108.0	419.83
2160	1286	2161	1	108.0	419.83
2160	1286	2162	1	108.0	419.83
2161	1286	2162	1	108.0	419.83
2163	1287	2164	1	108.0	419.83
2163	1287	2165	1	108.0	419.83
2164	1287	2165	1	108.0	419.83
2166	1288	2167	1	108.0	419.83
2166	1288	2168	1	108.0	419.83
2167	1288	2168	1	108.0	419.83
2169	1289	2170	1	108.0	419.83
2169	1289	2171	1	108.0	419.83
2170	1289	2171	1	108.0	419.83
2172	1290	2173	1	108.0	419.83
2172	1290	2174	1	108.0	419.83
2173	1290	2174	1	108.0	419.83
2175	1291	2176	1	108.0	419.83
2175	1291	2177	1	108.0	419.83
2176	1291	2177	1	108.0	419.83
2178	1292	2179	1	108.0	419.83
2178	1292	2180	1	108.0	419.83
2179	1292	2180	1	108.0	419.83
2181	1293	2182	1	108.0	419.83
2181	1293	2183	1	108.0	419.83
2182	1293	2183	1	108.0	419.83
2184	1294	2185	1	108.0	419.83
2184	1294	2186	1	108.0	419.83
2185	1294	2186	1	108.0	419.83
2187	1295	2188	1	108.0	419.83
2187	1295	2189	1	108.0	419.83
2188	1295	2189	1	108.0	419.83
2190	1296	2191	1	108.0	419.83
2190	1296	2192	1	108.0	419.83
2191	1296	2192	1	108.0	419.83
2193	1297	2194	1	108.0	419.83
2193	1297	2195	1	108.0	419.83
2194	1297	2195	1	108.0	419.83
2196	1298	2197	1	108.0	419.83
2196	1298	2198	1	108.0	419.83
2197	1298	2198	1	108.0	419.83
2199	1299	2200	1	108.0	419.83
2199	1299	2201	1	108.0	419.83
2200	1299	2201	1	108.0	419.83
2202	1300	2203	1	108.0	419.83
2202	1300	2204	1	108.0	419.83
2203	1300	2204	1	108.0	419.83
2205	1301	2206	1	108.0	419.83
2205	1301	2207	1	108.0	419.83
2206	1301	2207	1	108.0	419.83
2208	1302	2209	1	108.0	419.83
2208	1302	2210	1	108.0	419.83
2209	1302	2210	1	108.0	419.83
2211	1303	2212	1	108.0	419.83
2211	1303	2213	1	108.0	419.83
2212	1303	2213	1	108.0	419.83
2214	1304	2215	1	108.0	419.83
2214	1304	2216	1	108.0	419.83
2215	1304	2216	1	108.0	419.83
2217	1305	2218	1	108.0	419.83
2217	1305	2219	1	108.0	419.83
2218	1305	2219	1	108.0	419.83
2220	1306	2221	1	108.0	419.83
2220	1306	2222	1	108.0	419.83
2221	1306	2222	1	108.0	419.83
2223	1307	2224	1	108.0	419.83
2223	1307	2225	1	108.0	419.83
2224	1307	2225	1	108.0	419.83
2226	1308	2227	1	108.0	419.83
2226	1308	2228	1	108.0	419.83
2227	1308	2228	1	108.0	419.83
2229	1309	2230	1	108.0	419.83
2229	1309	2231	1	108.0	419.83
2230	1309	2231	1	108.0	419.83
2232	1310	2233	1	108.0	419.83
2232	1310	2234	1	108.0	419.83
2233	1310	2234	1	108.0	419.83
2235	1311	2236	1	108.0	419.83
2235	1311	2237	1	108.0	419.83
2236	1311	2237	1	108.0	419.83
2238	1312	2239	1	108.0	419.83
2238	1312	2240	1	108.0	419.83
2239	1312	2240	1	108.0	419.83
2241	1313	2242	1	108.0	419.83
2241	1313	2243	1	108.0	419.83
2242	1313	2243	1	108.0	419.83
2244	1314	2245	1	108.0	419.83
2244	1314	2246	1	108.0	419.83
2245	1314	2246	1	108.0	419.83
2247	1315	2248	1	108.0	419.83
2247	1315	2249	1	108.0	419.83
2248	1315	2249	1	108.0	419.83
2250	1316	2251	1	108.0	419.83
2250	1316	2252	1	108.0	419.83
2251	1316	2252	1	108.0	419.83
2253	1317	2254	1	108.0	419.83
2253	1317	2255	1	108.0	419.83
2254	1317	2255	1	108.0	419.83
2256	1318	2257	1	108.0	419.83
2256	1318	2258	1	108.0	419.83
2257	1318	2258	1	108.0	419.83
2259	1319	2260	1	108.0	419.83
2259	1319	2261	1	108.0	419.83
2260	1319	2261	1	108.0	419.83
2262	1320	2263	1	108.0	419.83
2262	1320	2264	1	108.0	419.83
2263	1320	2264	1	108.0	419.83
2265	1321	2266	1	108.0	419.83
2265	1321	2267	1	108.0	419.83
2266	1321	2267	1	108.0	419.83
2268	1322	2269	1	108.0	419.83
2268	1322	2270	1	108.0	419.83
2269	1322	2270	1	108.0	419.83
2271	1323	2272	1	108.0	419.83
2271	1323	2273	1	108.0	419.83
2272	1323	2273	1	108.0	419.83
2274	1324	2275	1	108.0	419.83
2274	1324	2276	1	108.0	419.83
2275	1324	2276	1	108.0	419.83
2277	1325	2278	1	108.0	419.83
2277	1325	2279	1	108.0	419.83
2278	1325	2279	1	108.0	419.83
2280	1326	2281	1	108.0	419.83
2280	1326	2282	1	108.0	419.83
2281	1326	2282	1	108.0	419.83
2283	1327	2284	1	108.0	419.83
2283	1327	2285	1	108.0	419.83
2284	1327	2285	1	108.0	419.83
2286	1328	2287	1	108.0	419.83
2286	1328	2288	1	108.0	419.83
2287	1328	2288	1	108.0	419.83
2289	1329	2290	1	108.0	419.83
2289	1329	2291	1	108.0	419.83
2290	1329	2291	1	108.0	419.83
2292	1330	2293	1	108.0	419.83
2292	1330	2294	1	108.0	419.83
2293	1330	2294	1	108.0	419.83
2295	1331	2296	1	108.0	419.83
2295	1331	2297	1	108.0	419.83
2296	1331	2297	1	108.0	419.83
2298	1332	2299	1	108.0	419.83
2298	1332	2300	1	108.0	419.83
2299	1332	2300	1	108.0	419.83
2301	1333	2302	1	108.0	419.83
2301	1333	2303	1	108.0	419.83
2302	1333	2303	1	108.0	419.83
2304	1334	2305	1	108.0	419.83
2304	1334	2306	1	108.0	419.83
2305	1334	2306	1	108.0	419.83
2307	1335	2308	1	108.0	419.83
2307	1335	2309	1	108.0	419.83
2308	1335	2309	1	108.0	419.83
2310	1336	2311	1	108.0	419.83
2310	1336	2312	1	108.0	419.83
2311	1336	2312	1	108.0	419.83
2313	1337	2314	1	108.0	419.83
2313	1337	2315	1	108.0	419.83
2314	1337	2315	1	108.0	419.83
2316	1338	2317	1	108.0	419.83
2316	1338	2318	1	108.0	419.83
2317	1338	2318	1	108.0	419.83
2319	1339	2320	1	108.0	419.83
2319	1339	2321	1	108.0	419.83
2320	1339	2321	1	108.0	419.83
2322	1340	2323	1	108.0	419.83
2322	1340	2324	1	108.0	419.83
2323	1340	2324	1	108.0	419.83
2325	1341	2326	1	108.0	419.83
2325	1341	2327	1	108.0	419.83
2326	1341	2327	1	108.0	419.83
2328	1342	2329	1	108.0	419.83
2328	1342	2330	1	108.0	419.83
2329	1342	2330	1	108.0	419.83
2331	1343	2332	1	108.0	419.83
2331	1343	2333	1	108.0	419.83
2332	1343	2333	1	108.0	419.83
2334	1344	2335	1	108.0	419.83
2334	1344	2336	1	108.0	419.83
2335	1344	2336	1	108.0	419.83
2337	1345	2338	1	108.0	419.83
2337	1345	2339	1	108.0	419.83
2338	1345	2339	1	108.0	419.83
2340	1346	2341	1	108.0	419.83
2340	1346	2342	1	108.0	419.83
2341	1346	2342	1	108.0	419.83
2343	1347	2344	1	108.0	419.83
2343	1347	2345	1	108.0	419.83
2344	1347	2345	1	108.0	419.83
2346	1348	2347	1	108.0	419.83
2346	1348	2348	1	108.0	419.83
2347	1348	2348	1	108.0	419.83
2349	1349	2350	1	108.0	419.83
2349	1349	2351	1	108.0	419.83
2350	1349	2351	1	108.0	419.83
2352	1350	2353	1	108.0	419.83
2352	1350	2354	1	108.0	419.83
2353	1350	2354	1	108.0	419.83
2355	1351	2356	1	108.0	419.83
2355	1351	2357	1	108.0	419.83
2356	1351	2357	1	108.0	419.83
2358	1352	2359	1	108.0	419.83
2358	1352	2360	1	108.0	419.83
2359	1352	2360	1	108.0	419.83
2361	1353	2362	1	108.0	419.83
2361	1353	2363	1	108.0	419.83
2362	1353	2363	1	108.0	419.83
2364	1354	2365	1	108.0	419.83
2364	1354	2366	1	108.0	419.83
2365	1354	2366	1	108.0	419.83
2367	1355	2368	1	108.0	419.83
2367	1355	2369	1	108.0	419.83
2368	1355	2369	1	108.0	419.83
2370	1356	2371	1	108.0	419.83
2370	1356	2372	1	108.0	419.83
2371	1356	2372	1	108.0	419.83
2373	1357	2374	1	108.0	419.83
2373	1357	2375	1	108.0	419.83
2374	1357	2375	1	108.0	419.83
2376	1358	2377	1	108.0	419.83
2376	1358	2378	1	108.0	419.83
2377	1358	2378	1	108.0	419.83
2379	1359	2380	1	108.0	419.83
2379	1359	2381	1	108.0	419.83
2380	1359	2381	1	108.0	419.83
2382	1360	2383	1	108.0	419.83
2382	1360	2384	1	108.0	419.83
2383	1360	2384	1	108.0	419.83
2385	1361	2386	1	108.0	419.83
2385	1361	2387	1	108.0	419.83
2386	1361	2387	1	108.0	419.83
2388	1362	2389	1	108.0	419.83
2388	1362	2390	1	108.0	419.83
2389	1362	2390	1	108.0	419.83
2391	1363	2392	1	108.0	419.83
2391	1363	2393	1	108.0	419.83
2392	1363	2393	1	108.0	419.83
2394	1364	2395	1	108.0	419.83
2394	1364	2396	1	108.0	419.83
2395	1364	2396	1	108.0	419.83
2397	1365	2398	1	108.0	419.83
2397	1365	2399	1	108.0	419.83
2398	1365	2399	1	108.0	419.83
2400	1366	2401	1	108.0	419.83
2400	1366	2402	1	108.0	419.83
2401	1366	2402	1	108.0	419.83
2403	1367	2404	1	108.0	419.83
2403	1367	2405	1	108.0	419.83
2404	1367	2405	1	108.0	419.83
2406	1368	2407	1	108.0	419.83
2406	1368	2408	1	108.0	419.83
2407	1368	2408	1	108.0	419.83
2409	1369	2410	1	108.0	419.83
2409	1369	2411	1	108.0	419.83
2410	1369	2411	1	108.0	419.83
2412	1370	2413	1	108.0	419.83
2412	1370	2414	1	108.0	419.83
2413	1370	2414	1	108.0	419.83
2415	1371	2416	1	108.0	419.83
2415	1371	2417	1	108.0	419.83
2416	1371	2417	1	108.0	419.83
2418	1372	2419	1	108.0	419.83
2418	1372	2420	1	108.0	419.83
2419	1372	2420	1	108.0	419.83
2421	1373	2422	1	108.0	419.83
2421	1373	2423	1	108.0	419.83
2422	1373	2423	1	108.0	419.83
2424	1374	2425	1	108.0	419.83
2424	1374	2426	1	108.0	419.83
2425	1374	2426	1	108.0	419.83
2427	1375	2428	1	108.0	419.83
2427	1375	2429	1	108.0	419.83
2428	1375	2429	1	108.0	419.83
2430	1376	2431	1	108.0	419.83
2430	1376	2432	1	108.0	419.83
2431	1376	2432	1	108.0	419.83
2433	1377	2434	1	108.0	419.83
2433	1377	2435	1	108.0	419.83
2434	1377	2435	1	108.0	419.83
2436	1378	2437	1	108.0	419.83
2436	1378	2438	1	108.0	419.83
2437	1378	2438	1	108.0	419.83
2439	1379	2440	1	108.0	419.83
2439	1379	2441	1	108.0	419.83
2440	1379	2441	1	108.0	419.83
2442	1380	2443	1	108.0	419.83
2442	1380	2444	1	108.0	419.83
2443	1380	2444	1	108.0	419.83
2445	1381	2446	1	108.0	419.83
2445	1381	2447	1	108.0	419.83
2446	1381	2447	1	108.0	419.83
2448	1382	2449	1	108.0	419.83
2448	1382	2450	1	108.0	419.83
2449	1382	2450	1	108.0	419.83
2451	1383	2452	1	108.0	419.83
2451	1383	2453	1	108.0	419.83
2452	1383	2453	1	108.0	419.83
2454	1384	2455	1	108.0	419.83
2454	1384	2456	1	108.0	419.83
2455	1384	2456	1	108.0	419.83
2457	1385	2458	1	108.0	419.83
2457	1385	2459	1	108.0	419.83
2458	1385	2459	1	108.0	419.83
2460	1386	2461	1	108.0	419.83
2460	1386	2462	1	108.0	419.83
2461	1386	2462	1	108.0	419.83
2463	1387	2464	1	108.0	419.83
2463	1387	2465	1	108.0	419.83
2464	1387	2465	1	108.0	419.83
2466	1388	2467	1	108.0	419.83
2466	1388	2468	1	108.0	419.83
2467	1388	2468	1	108.0	419.83
2469	1389	2470	1	108.0	419.83
2469	1389	2471	1	108.0	419.83
2470	1389	2471	1	108.0	419.83
2472	1390	2473	1	108.0	419.83
2472	1390	2474	1	108.0	419.83
2473	1390	2474	1	108.0	419.83
2475	1391	2476	1	108.0	419.83
2475	1391	2477	1	108.0	419.83
2476	1391	2477	1	108.0	419.83
2478	1392	2479	1	108.0	419.83
2478	1392	2480	1	108.0	419.83
2479	1392	2480	1	108.0	419.83
2481	1393	2482	1	108.0	419.83
2481	1393	2483	1	108.0	419.83
2482	1393	2483	1	108.0	419.83
2484	1394	2485	1	108.0	419.83
2484	1394	2486	1	108.0	419.83
2485	1394	2486	1	108.0	419.83
2487	1395	2488	1	108.0	419.83
2487	1395	2489	1	108.0	419.83
2488	1395	2489	1	108.0	419.83
2490	1396	2491	1	108.0	419.83
2490	1396	2492	1	108.0	419.83
2491	1396	2492	1	108.0	419.83
2493	1397	2494	1	108.0	419.83
2493	1397	2495	1	108.0	419.83
2494	1397	2495	1	108.0	419.83
2496	1398	2497	1	108.0	419.83
2496	1398	2498	1	108.0	419.83
2497	1398	2498	1	108.0	419.83
2499	1399	2500	1	108.0	419.83
2499	1399	2501	1	108.0	419.83
2500	1399	2501	1	108.0	419.83
2502	1400	2503	1	108.0	419.83
2502	1400	2504	1	108.0	419.83
2503	1400	2504	1	108.0	419.83
2505	1401	2506	1	108.0	419.83
2505	1401	2507	1	108.0	419.83
2506	1401	2507	1	108.0	419.83
2508	1402	2509	1	108.0	419.83
2508	1402	2510	1	108.0	419.83
2509	1402	2510	1	108.0	419.83
2511	1403	2512	1	108.0	419.83
2511	1403	2513	1	108.0	419.83
2512	1403	2513	1	108.0	419.83
2514	1404	2515	1	108.0	419.83
2514	1404	2516	1	108.0	419.83
2515	1404	2516	1	108.0	419.83
2517	1405	2518	1	108.0	419.83
2517	1405	2519	1	108.0	419.83
2518	1405	2519	1	108.0	419.83
2520	1406	2521	1	108.0	419.83
2520	1406	2522	1	108.0	419.83
2521	1406	2522	1	108.0	419.83
2523	1407	2524	1	108.0	419.83
2523	1407	2525	1	108.0	419.83
2524	1407	2525	1	108.0	419.83
2526	1408	2527	1	108.0	419.83
2526	1408	2528	1	108.0	419.83
2527	1408	2528	1	108.0	419.83
2529	1409	2530	1	108.0	419.83
2529	1409	2531	1	108.0	419.83
2530	1409	2531	1	108.0	419.83
2532	1410	2533	1	108.0	419.83
2532	1410	2534	1	108.0	419.83
2533	1410	2534	1	108.0	419.83
2535	1411	2536	1	108.0	419.83
2535	1411	2537	1	108.0	419.83
2536	1411	2537	1	108.0	419.83
2538	1412	2539	1	108.0	419.83
2538	1412	2540	1	108.0	419.83
2539	1412	2540	1	108.0	419.83
2541	1413	2542	1	108.0	419.83
2541	1413	2543	1	108.0	419.83
2542	1413	2543	1	108.0	419.83
2544	1414	2545	1	108.0	419.83
2544	1414	2546	1	108.0	419.83
2545	1414	2546	1	108.0	419.83
2547	1415	2548	1	108.0	419.83
2547	1415	2549	1	108.0	419.83
2548	1415	2549	1	108.0	419.83
2550	1416	2551	1	108.0	419.83
2550	1416	2552	1	108.0	419.83
2551	1416	2552	1	108.0	419.83
2553	1417	2554	1	108.0	419.83
2553	1417	2555	1	108.0	419.83
2554	1417	2555	1	108.0	419.83
2556	1418	2557	1	108.0	419.83
2556	1418	2558	1	108.0	419.83
2557	1418	2558	1	108.0	419.83
2559	1419	2560	1	108.0	419.83
2559	1419	2561	1	108.0	419.83
2560	1419	2561	1	108.0	419.83
2562	1420	2563	1	108.0	419.83
2562	1420	2564	1	108.0	419.83
2563	1420	2564	1	108.0	419.83
2565	1421	2566	1	108.0	419.83
2565	1421	2567	1	108.0	419.83
2566	1421	2567	1	108.0	419.83
2568	1422	2569	1	108.0	419.83
2568	1422	2570	1	108.0	419.83
2569	1422	2570	1	108.0	419.83
2571	1423	2572	1	108.0	419.83
2571	1423	2573	1	108.0	419.83
2572	1423	2573	1	108.0	419.83
2574	1424	2575	1	108.0	419.83
2574	1424	2576	1	108.0	419.83
2575	1424	2576	1	108.0	419.83
