Water-ethanol mixture in organosilica
12750
    1Eth     Ho    1   0.254   0.443   6.619 -2.6109 -0.3317  0.1945
    1Eth     Oh    2   0.260   0.419   6.528 -0.3324  0.5538  0.0818
    1Eth     Co    3   0.395   0.401   6.493  0.4372 -0.0399 -0.9610
    1Eth    Hco    4   0.432   0.318   6.553 -2.2267  0.4406  1.4895
    1Eth    Hco    5   0.448   0.492   6.522 -0.2133 -0.3802  1.3642
    1Eth     Ch    6   0.417   0.359   6.344 -0.0765 -0.3547  0.0354
    1Eth    Hcc    7   0.403   0.436   6.268  0.0083 -0.2639  0.1101
    1Eth    Hcc    8   0.357   0.276   6.307 -0.2177  0.2529 -1.1494
    1Eth    Hcc    9   0.521   0.324   6.341  0.6249  1.6447  0.0601
    2Eth     Ho   10   3.219   2.713   9.604  0.1454 -1.2889 -0.1405
    2Eth     Oh   11   3.307   2.745   9.613 -0.4314  0.1997  0.4549
    2Eth     Co   12   3.333   2.755   9.749 -0.1403  0.4443 -0.3437
    2Eth    Hco   13   3.265   2.693   9.808 -0.7816  1.5343  0.0958
    2Eth    Hco   14   3.314   2.859   9.776 -0.3160  0.7735 -1.7235
    2Eth     Ch   15   3.476   2.718   9.765  0.0093  0.0598  0.3170
    2Eth    Hcc   16   3.540   2.778   9.700 -1.6384 -0.5593 -1.9228
    2Eth    Hcc   17   3.497   2.614   9.742  0.8195  0.4912 -0.9265
    2Eth    Hcc   18   3.508   2.743   9.867 -2.8076  1.1025  0.9798
    3Eth     Ho   19   2.838   0.186   6.004  1.4514  0.7940  0.1097
    3Eth     Oh   20   2.781   0.258   5.986  0.4435  0.1028  0.4845
    3Eth     Co   21   2.856   0.348   5.901 -0.9385  0.8434 -0.0896
    3Eth    Hco   22   2.873   0.287   5.812 -0.3671  0.0692  0.5430
    3Eth    Hco   23   2.949   0.379   5.948 -0.5831 -0.5160  0.1283
    3Eth     Ch   24   2.783   0.481   5.871 -0.0700  0.2462  0.5756
    3Eth    Hcc   25   2.865   0.549   5.847  0.3755 -0.5040 -0.0972
    3Eth    Hcc   26   2.739   0.513   5.965 -0.1716  0.3818  0.4814
    3Eth    Hcc   27   2.710   0.471   5.791 -0.2601  1.4671  0.5995
    4Eth     Ho   28   0.223   1.808  14.260  1.1444 -0.0743 -0.6270
    4Eth     Oh   29   0.238   1.727  14.305 -0.6964 -0.1548 -0.1255
    4Eth     Co   30   0.363   1.750  14.380  0.2421  1.0390 -0.5950
    4Eth    Hco   31   0.358   1.809  14.472 -0.8194 -0.7343  0.5123
    4Eth    Hco   32   0.442   1.785  14.313 -0.5679  0.4421 -1.8952
    4Eth     Ch   33   0.416   1.613  14.433  0.1506 -0.6930  0.5285
    4Eth    Hcc   34   0.520   1.611  14.465  0.4757  0.6215 -0.4029
    4Eth    Hcc   35   0.407   1.560  14.338 -3.1732 -0.4238  0.6188
    4Eth    Hcc   36   0.341   1.558  14.491 -1.6320 -2.6392 -3.4185
    5Eth     Ho   37   2.185   1.281  10.407 -3.7206  0.3577  1.8996
    5Eth     Oh   38   2.144   1.288  10.322  0.1831 -0.1211 -0.1350
    5Eth     Co   39   2.014   1.332  10.345 -0.7620  0.0957  0.3515
    5Eth    Hco   40   1.999   1.440  10.339 -3.6771 -0.3192 -1.2100
    5Eth    Hco   41   2.010   1.310  10.451  1.4759 -0.8317  0.2658
    5Eth     Ch   42   1.910   1.265  10.261 -0.2405  0.8141  0.4021
    5Eth    Hcc   43   1.927   1.294  10.157  1.4379  2.0266  0.9807
    5Eth    Hcc   44   1.815   1.306  10.296  0.1533  0.7544  1.5786
    5Eth    Hcc   45   1.901   1.157  10.260  1.1531  0.6831 -2.6075
    6Eth     Ho   46   2.100   0.776  13.337 -3.1877  1.2335  1.4723
    6Eth     Oh   47   2.156   0.844  13.369 -0.2433 -0.5191  0.2982
    6Eth     Co   48   2.287   0.805  13.363  0.1606 -0.1721 -0.9263
    6Eth    Hco   49   2.314   0.765  13.266 -2.0623 -3.5956 -0.2045
    6Eth    Hco   50   2.305   0.721  13.431 -0.7780  1.4670  1.4142
    6Eth     Ch   51   2.379   0.928  13.405 -0.0265  0.7301 -0.2263
    6Eth    Hcc   52   2.381   1.009  13.333  0.8364  2.7967  2.0730
    6Eth    Hcc   53   2.481   0.893  13.396  0.4327  2.4763 -2.2706
    6Eth    Hcc   54   2.353   0.974  13.500 -0.8225  1.0001 -0.5686
    7Eth     Ho   55   3.105   1.400   9.509  0.0222 -0.3519 -0.6914
    7Eth     Oh   56   3.166   1.335   9.539  0.3348  0.3726  0.2835
    7Eth     Co   57   3.266   1.312   9.443 -0.4283 -0.2173  0.2610
    7Eth    Hco   58   3.224   1.248   9.365  0.2665  0.9475 -1.0833
    7Eth    Hco   59   3.344   1.252   9.491  0.2208 -1.2210 -1.9599
    7Eth     Ch   60   3.325   1.440   9.391 -0.5151 -0.1332  0.1833
    7Eth    Hcc   61   3.411   1.418   9.327  0.0361 -0.1245  0.9121
    7Eth    Hcc   62   3.362   1.506   9.469 -0.2028 -0.2702  0.1516
    7Eth    Hcc   63   3.253   1.504   9.342 -2.8258 -2.2496  0.7038
    8Eth     Ho   64   3.315   0.896  10.328  1.0636 -1.6350  0.0997
    8Eth     Oh   65   3.236   0.850  10.308 -0.4245  0.7914  0.2815
    8Eth     Co   66   3.162   0.843  10.424 -0.6515 -0.9226 -0.4281
    8Eth    Hco   67   3.220   0.805  10.508 -1.4218  2.2701  1.6357
    8Eth    Hco   68   3.075   0.777  10.426 -0.2305 -1.5043 -1.1019
    8Eth     Ch   69   3.112   0.979  10.471  0.4925  0.2682  0.1586
    8Eth    Hcc   70   3.031   1.010  10.406 -0.4010 -0.2091  1.0368
    8Eth    Hcc   71   3.201   1.040  10.455  0.0513  0.9054  0.1187
    8Eth    Hcc   72   3.088   0.989  10.577 -0.0963 -0.1009  0.0611
    9Eth     Ho   73   2.719   2.205  11.895  1.3445 -0.8831 -0.4273
    9Eth     Oh   74   2.747   2.156  11.970  0.2562 -0.5458  0.2043
    9Eth     Co   75   2.806   2.258  12.043  0.8089  0.0352 -0.7116
    9Eth    Hco   76   2.741   2.319  12.107 -1.5680 -1.2680 -1.8328
    9Eth    Hco   77   2.836   2.334  11.972  2.1095  0.2552  0.0454
    9Eth     Ch   78   2.922   2.215  12.120 -0.1716 -0.0812 -0.3487
    9Eth    Hcc   79   3.000   2.158  12.071 -1.3256 -0.6253 -1.5930
    9Eth    Hcc   80   2.891   2.157  12.207  1.0432  1.5363  1.2169
    9Eth    Hcc   81   2.962   2.311  12.153 -3.3583  1.4743 -0.7540
   10Eth     Ho   82   0.303   2.144  14.187  0.7392  0.3196 -0.6152
   10Eth     Oh   83   0.348   2.141  14.269 -0.0278 -0.1004 -0.1989
   10Eth     Co   84   0.267   2.202  14.360  0.0199  0.5007 -0.6017
   10Eth    Hco   85   0.164   2.169  14.358 -0.3400  1.6530 -2.2064
   10Eth    Hco   86   0.269   2.309  14.341 -2.4651  1.1218  2.2978
   10Eth     Ch   87   0.328   2.192  14.502 -0.5326  0.1518 -0.6384
   10Eth    Hcc   88   0.416   2.256  14.510 -0.8158  0.8472 -2.8034
   10Eth    Hcc   89   0.346   2.090  14.535  1.0701  0.6446  0.0578
   10Eth    Hcc   90   0.253   2.230  14.572 -0.6360 -0.4952 -0.4015
   11Eth     Ho   91   0.848   0.920  14.189  0.6920  0.5527 -1.4236
   11Eth     Oh   92   0.825   1.007  14.215  0.0014 -0.0608  0.0843
   11Eth     Co   93   0.698   1.021  14.276  0.8164 -0.1819  0.0018
   11Eth    Hco   94   0.666   0.921  14.304 -0.6185  0.2214 -0.1493
   11Eth    Hco   95   0.621   1.049  14.204  0.3744 -0.7673  0.2447
   11Eth     Ch   96   0.703   1.110  14.405 -1.0418  0.5360  0.7498
   11Eth    Hcc   97   0.719   1.214  14.379  0.7702  0.2091  0.4526
   11Eth    Hcc   98   0.789   1.073  14.461 -1.5761 -1.6479  0.2071
   11Eth    Hcc   99   0.614   1.118  14.466 -0.2984 -0.2076  1.9595
   12Eth     Ho  100   3.139   0.814  12.673  0.1515  0.1254 -0.5891
   12Eth     Oh  101   3.076   0.806  12.604  0.0079  0.7872 -0.5387
   12Eth     Co  102   2.965   0.864  12.660  0.8925  0.2878 -0.5841
   12Eth    Hco  103   2.978   0.972  12.668  2.1127  0.0857  0.3708
   12Eth    Hco  104   2.968   0.836  12.765  0.5591  1.4260 -0.2674
   12Eth     Ch  105   2.832   0.815  12.595 -0.6770 -0.1613 -0.2777
   12Eth    Hcc  106   2.832   0.845  12.491  4.6053  2.0541  0.1888
   12Eth    Hcc  107   2.745   0.872  12.630  0.4567  0.0493  2.3278
   12Eth    Hcc  108   2.804   0.712  12.617  0.4190 -0.0150  2.0139
   13Eth     Ho  109   2.955   1.889  11.220 -0.7275  2.5644 -1.1014
   13Eth     Oh  110   2.878   1.878  11.273  0.0335  0.0074 -0.4253
   13Eth     Co  111   2.859   2.005  11.334 -0.3825 -0.1975 -0.5997
   13Eth    Hco  112   2.811   2.073  11.263  0.2127  0.4155 -0.4183
   13Eth    Hco  113   2.953   2.055  11.355 -1.2496  0.4262  2.0371
   13Eth     Ch  114   2.783   1.989  11.470  0.6194 -0.1301 -0.0176
   13Eth    Hcc  115   2.678   1.965  11.453  0.5611  0.9778 -1.4069
   13Eth    Hcc  116   2.783   2.085  11.522  0.3571 -0.1156 -0.0422
   13Eth    Hcc  117   2.831   1.923  11.541 -2.2191 -0.7851  1.3551
   14Eth     Ho  118   2.700   0.735   6.723  0.0858 -0.4222  0.0073
   14Eth     Oh  119   2.745   0.719   6.641  0.2550  0.3721 -0.0542
   14Eth     Co  120   2.677   0.786   6.543  0.0435 -0.7230  0.6467
   14Eth    Hco  121   2.729   0.764   6.450 -0.4516 -0.6114  0.3445
   14Eth    Hco  122   2.680   0.893   6.559  2.3457 -0.9931  2.2617
   14Eth     Ch  123   2.539   0.722   6.526 -0.3242 -0.8678 -0.6910
   14Eth    Hcc  124   2.462   0.741   6.601  0.8139 -1.6821  0.7131
   14Eth    Hcc  125   2.552   0.616   6.506  0.1041 -0.9421 -0.0272
   14Eth    Hcc  126   2.500   0.744   6.426 -0.9102  0.9171 -0.0938
   15Eth     Ho  127   0.910   3.108  11.894  0.4550 -0.0775  2.2466
   15Eth     Oh  128   0.999   3.134  11.882  0.2395 -0.2325  0.0888
   15Eth     Co  129   1.031   3.183  12.011 -0.3140 -0.6351 -0.4044
   15Eth    Hco  130   0.977   3.124  12.085 -3.5400  2.8734  0.2418
   15Eth    Hco  131   0.980   3.279  12.024  1.6270  0.1009  2.2619
   15Eth     Ch  132   1.182   3.205  12.041 -0.1531  0.4349  0.2594
   15Eth    Hcc  133   1.236   3.244  11.955  1.5528 -1.3569  0.4662
   15Eth    Hcc  134   1.234   3.116  12.077 -0.4096  0.9833  2.0456
   15Eth    Hcc  135   1.195   3.278  12.121  1.9445 -0.2292  0.5574
   16Eth     Ho  136   1.317   0.298  14.346  0.5721 -2.8928 -1.7690
   16Eth     Oh  137   1.227   0.276  14.355 -0.0923 -0.0468 -0.8355
   16Eth     Co  138   1.204   0.232  14.485 -0.9163  0.9227 -0.0099
   16Eth    Hco  139   1.295   0.254  14.541 -0.0498  3.3995 -2.2487
   16Eth    Hco  140   1.190   0.124  14.481 -1.7081  1.0050  0.5480
   16Eth     Ch  141   1.085   0.297  14.547 -0.2302 -0.1158 -0.1939
   16Eth    Hcc  142   0.997   0.285  14.483 -0.0106  0.0611 -0.5290
   16Eth    Hcc  143   1.109   0.397  14.585  2.2883 -1.2363  1.2553
   16Eth    Hcc  144   1.047   0.240  14.632 -0.0044  1.0864  0.7347
   17Eth     Ho  145   0.191   0.905  10.645  1.1694 -0.3020 -0.9741
   17Eth     Oh  146   0.173   0.813  10.642 -0.0969 -0.0956  0.0946
   17Eth     Co  147   0.146   0.774  10.776 -0.1640 -0.1402  0.0694
   17Eth    Hco  148   0.110   0.863  10.828 -0.8011  0.6385 -1.6683
   17Eth    Hco  149   0.240   0.736  10.817  0.3319  0.0485 -0.8673
   17Eth     Ch  150   0.034   0.673  10.782 -0.3972  0.5880 -0.1050
   17Eth    Hcc  151  -0.063   0.709  10.749 -1.6391 -1.3722  1.3209
   17Eth    Hcc  152   0.015   0.645  10.886 -0.6495  1.6699  0.1479
   17Eth    Hcc  153   0.053   0.578  10.732 -0.3696 -0.1058  1.1983
   18Eth     Ho  154   2.575   3.437  13.780  0.9319 -0.7854  0.6267
   18Eth     Oh  155   2.598   3.366  13.836 -0.3836 -1.0948  0.7764
   18Eth     Co  156   2.733   3.381  13.872 -0.1862 -0.0850 -0.2815
   18Eth    Hco  157   2.735   3.474  13.928 -1.4276  0.5163 -1.1925
   18Eth    Hco  158   2.796   3.383  13.784 -1.3437 -0.0241 -1.1191
   18Eth     Ch  159   2.745   3.254  13.959 -0.0028  0.6577 -0.7921
   18Eth    Hcc  160   2.719   3.167  13.899  1.3773  0.3563 -0.9804
   18Eth    Hcc  161   2.673   3.246  14.041  0.9821 -0.6969 -0.0447
   18Eth    Hcc  162   2.841   3.240  14.010 -0.7104  0.9736  0.6703
   19Eth     Ho  163   0.612   2.091  11.359 -2.1641  0.3834  0.4639
   19Eth     Oh  164   0.624   1.998  11.350  0.1214  0.6408  0.4091
   19Eth     Co  165   0.564   1.974  11.227 -0.0236  0.3554 -0.0524
   19Eth    Hco  166   0.606   2.047  11.158  0.3896  0.0361 -0.1447
   19Eth    Hco  167   0.456   1.987  11.234 -0.2620 -0.3330 -2.0442
   19Eth     Ch  168   0.594   1.827  11.185  0.3715 -0.2161  0.4446
   19Eth    Hcc  169   0.700   1.807  11.170  0.5279  0.6776  0.3585
   19Eth    Hcc  170   0.541   1.822  11.090 -0.4140  0.0558  0.8610
   19Eth    Hcc  171   0.545   1.760  11.256  1.1926 -1.1893  0.1100
   20Eth     Ho  172   0.579   0.863  10.669 -2.2885  0.7460 -0.8280
   20Eth     Oh  173   0.586   0.783  10.620  0.2315  0.2784  0.2287
   20Eth     Co  174   0.575   0.670  10.704  0.2563  0.7023 -0.5198
   20Eth    Hco  175   0.477   0.624  10.696 -0.8815  2.7031  1.2184
   20Eth    Hco  176   0.587   0.699  10.809  0.0636 -0.5684 -0.1465
   20Eth     Ch  177   0.693   0.572  10.672 -0.1265 -0.3692 -0.0873
   20Eth    Hcc  178   0.794   0.606  10.694  0.0329 -1.4967  0.9527
   20Eth    Hcc  179   0.693   0.552  10.565 -0.0769  1.7576 -0.5220
   20Eth    Hcc  180   0.674   0.480  10.727  1.6249 -0.0939  1.0152
   21Eth     Ho  181   1.189   1.793  11.631 -0.1330 -0.6541 -0.3283
   21Eth     Oh  182   1.241   1.850  11.684 -0.7337  0.1420 -0.5793
   21Eth     Co  183   1.255   1.796  11.810 -0.2269  0.0474 -0.0003
   21Eth    Hco  184   1.165   1.813  11.869  0.7092 -0.4050  1.5855
   21Eth    Hco  185   1.325   1.858  11.866  1.4733 -2.5675  0.8455
   21Eth     Ch  186   1.296   1.650  11.803  0.1491 -0.3667 -0.2556
   21Eth    Hcc  187   1.404   1.639  11.788  0.1224 -0.8366 -0.1054
   21Eth    Hcc  188   1.242   1.580  11.740 -0.6278  1.1569 -1.3114
   21Eth    Hcc  189   1.276   1.609  11.902 -2.3890  1.0278 -0.1518
   22Eth     Ho  190   2.024   0.748   8.301 -3.1780 -1.1010  1.2727
   22Eth     Oh  191   2.010   0.688   8.230  0.0880 -0.1638 -0.2993
   22Eth     Co  192   2.112   0.588   8.233 -0.3098  0.0303  0.3848
   22Eth    Hco  193   2.155   0.592   8.333 -1.0926  1.3855  0.6805
   22Eth    Hco  194   2.190   0.624   8.166  0.3221 -0.3477  0.9221
   22Eth     Ch  195   2.058   0.453   8.183  0.4438  1.1124  0.5388
   22Eth    Hcc  196   1.988   0.472   8.102  0.0036  2.1744  1.1654
   22Eth    Hcc  197   2.014   0.391   8.261  2.0970 -2.0028 -0.9163
   22Eth    Hcc  198   2.143   0.399   8.142 -0.1995  0.4192  0.1214
   23Eth     Ho  199   1.506   2.240   7.083  0.3239  0.8832  2.3560
   23Eth     Oh  200   1.596   2.243   7.056 -0.3846  0.0323 -0.2005
   23Eth     Co  201   1.668   2.130   7.092  0.5863  0.9675 -0.2197
   23Eth    Hco  202   1.680   2.127   7.200 -0.5002  0.6993 -0.0971
   23Eth    Hco  203   1.605   2.044   7.070  0.9459  0.7826 -0.5397
   23Eth     Ch  204   1.801   2.131   7.013  0.2946  0.1480 -0.0513
   23Eth    Hcc  205   1.852   2.225   7.031  2.9946 -1.1584 -0.5682
   23Eth    Hcc  206   1.787   2.125   6.905 -0.4684  1.4388 -0.0342
   23Eth    Hcc  207   1.861   2.047   7.048 -0.9109 -0.4233  0.6845
   24Eth     Ho  208   1.763   0.341  13.195  0.4576 -2.1173 -0.7217
   24Eth     Oh  209   1.844   0.343  13.243 -0.1237 -0.4025  0.2450
   24Eth     Co  210   1.832   0.458  13.321  0.4335  0.0095 -0.6184
   24Eth    Hco  211   1.728   0.458  13.355  0.3029  2.5464 -0.9160
   24Eth    Hco  212   1.843   0.548  13.260 -0.6228 -0.9737 -2.3038
   24Eth     Ch  213   1.919   0.443  13.447  0.2365 -0.2206  0.4444
   24Eth    Hcc  214   2.020   0.415  13.419 -0.3953 -1.1981 -0.8778
   24Eth    Hcc  215   1.869   0.374  13.515  0.3008 -0.3393  0.3685
   24Eth    Hcc  216   1.920   0.539  13.499 -0.6302  1.3108 -2.2555
   25Eth     Ho  217   1.047   0.323  10.321 -3.5648  1.0260 -1.7748
   25Eth     Oh  218   1.075   0.263  10.254  0.1560  0.7278 -0.1230
   25Eth     Co  219   1.168   0.340  10.171 -0.4840 -0.0157  0.0363
   25Eth    Hco  220   1.270   0.339  10.209 -0.2758 -3.2866 -0.4605
   25Eth    Hco  221   1.126   0.440  10.177 -2.6293 -0.9758  1.6903
   25Eth     Ch  222   1.166   0.292  10.025  0.3681 -0.3990  0.4029
   25Eth    Hcc  223   1.224   0.351   9.955  0.5974 -1.4789 -0.3388
   25Eth    Hcc  224   1.071   0.289   9.972  0.7998 -2.5793 -0.3140
   25Eth    Hcc  225   1.204   0.190  10.018 -2.2204 -1.3895  0.0655
   26Eth     Ho  226   0.358   2.041  11.776  1.1584 -0.5426  2.1851
   26Eth     Oh  227   0.387   2.123  11.812 -0.0941  0.7797  0.2936
   26Eth     Co  228   0.516   2.152  11.758 -0.0242 -0.2422  0.2186
   26Eth    Hco  229   0.518   2.260  11.751 -0.9469 -0.3052 -1.0804
   26Eth    Hco  230   0.524   2.117  11.655  1.0970  1.0752 -0.1642
   26Eth     Ch  231   0.625   2.098  11.849 -1.2412 -0.1284  0.4300
   26Eth    Hcc  232   0.720   2.111  11.798 -1.8912 -1.1680 -1.0709
   26Eth    Hcc  233   0.624   1.991  11.871 -1.4047 -0.0907  0.6050
   26Eth    Hcc  234   0.629   2.160  11.939 -4.8403 -0.6387  1.0049
   27Eth     Ho  235   1.890   0.303  14.265  3.0663 -0.1168 -0.3912
   27Eth     Oh  236   1.891   0.395  14.282  0.3725 -0.2515  0.7210
   27Eth     Co  237   1.918   0.407  14.418  0.1701  0.1224  0.5304
   27Eth    Hco  238   2.018   0.436  14.452 -0.2388  2.3402 -0.1125
   27Eth    Hco  239   1.902   0.306  14.455 -0.3209 -0.0799 -0.2174
   27Eth     Ch  240   1.829   0.518  14.485 -0.4781  0.4024  0.1093
   27Eth    Hcc  241   1.728   0.478  14.478 -0.1996 -0.2482 -0.1539
   27Eth    Hcc  242   1.846   0.619  14.448 -0.7369  2.0489  4.2210
   27Eth    Hcc  243   1.868   0.518  14.587 -1.5386  0.5456  0.5295
   28Eth     Ho  244   1.968   1.426  11.957 -1.9942  0.1417  1.3831
   28Eth     Oh  245   2.008   1.379  12.028  0.3500  0.7689  0.5477
   28Eth     Co  246   2.103   1.296  11.958 -0.7262 -0.3170 -1.0846
   28Eth    Hco  247   2.173   1.364  11.910 -0.8775  0.6343  0.0283
   28Eth    Hco  248   2.052   1.238  11.881  0.4768 -0.5056 -1.7580
   28Eth     Ch  249   2.186   1.200  12.049  0.6867  0.2183 -0.2465
   28Eth    Hcc  250   2.244   1.247  12.129 -0.9989  0.3006  0.9416
   28Eth    Hcc  251   2.264   1.154  11.987  0.3328 -0.2559 -0.3461
   28Eth    Hcc  252   2.129   1.119  12.094 -0.0031 -0.0718 -1.6282
   29Eth     Ho  253   3.107   1.121   9.506 -1.6821  0.4906 -0.3330
   29Eth     Oh  254   3.088   1.048   9.450 -0.1283 -0.0075 -0.2333
   29Eth     Co  255   3.059   0.934   9.530  0.0040 -0.7016 -0.5035
   29Eth    Hco  256   3.091   0.937   9.635  0.5312  0.9679 -0.7017
   29Eth    Hco  257   3.119   0.854   9.486  2.2266  0.6179  0.0447
   29Eth     Ch  258   2.910   0.899   9.537 -0.0807  0.2601 -0.4088
   29Eth    Hcc  259   2.856   0.888   9.443  1.5382  1.0515 -1.4606
   29Eth    Hcc  260   2.846   0.974   9.581 -1.8232 -0.6682 -1.2872
   29Eth    Hcc  261   2.894   0.806   9.591 -0.3077 -0.4980 -1.7358
   30Eth     Ho  262   0.058   1.062  11.194 -2.7132 -0.8166 -0.8328
   30Eth     Oh  263   0.082   1.131  11.135  0.4346 -0.5264  0.6945
   30Eth     Co  264   0.044   1.251  11.211 -0.1827  0.0119 -0.6051
   30Eth    Hco  265   0.070   1.239  11.316 -0.9299  2.8230 -0.0727
   30Eth    Hco  266  -0.062   1.276  11.208 -0.2685 -0.3363 -0.5677
   30Eth     Ch  267   0.124   1.377  11.156  0.0258  0.5542  0.5416
   30Eth    Hcc  268   0.109   1.375  11.048  1.5471  0.5632  0.3106
   30Eth    Hcc  269   0.229   1.369  11.184  0.3881  2.1230 -0.2691
   30Eth    Hcc  270   0.070   1.466  11.190  0.2272  0.3407  1.4421
   31Eth     Ho  271   2.349   2.718   5.994 -0.0768  1.4249 -0.7593
   31Eth     Oh  272   2.414   2.710   5.926  0.1729 -0.7016 -0.2863
   31Eth     Co  273   2.375   2.790   5.811 -0.0132  0.4587 -0.5203
   31Eth    Hco  274   2.412   2.892   5.813  1.6823 -0.1540  1.6266
   31Eth    Hco  275   2.267   2.795   5.828  0.3463  0.8224  1.7525
   31Eth     Ch  276   2.413   2.724   5.679  0.1355  0.3884 -0.6215
   31Eth    Hcc  277   2.366   2.627   5.667  0.4802  0.2293 -0.6920
   31Eth    Hcc  278   2.521   2.710   5.685  0.1075  1.0879  2.8189
   31Eth    Hcc  279   2.388   2.786   5.593  3.0230  0.3666 -1.5485
   32Eth     Ho  280   2.990   0.983   6.254 -0.1490  1.1813 -0.2918
   32Eth     Oh  281   3.072   0.938   6.254 -0.5908  0.3325  0.3014
   32Eth     Co  282   3.035   0.798   6.261 -0.3868  0.5534  0.3226
   32Eth    Hco  283   3.048   0.747   6.165 -1.4041 -1.5305  1.2689
   32Eth    Hco  284   2.927   0.796   6.277 -0.4164 -1.2431  0.0529
   32Eth     Ch  285   3.094   0.729   6.383 -0.2772  0.0905 -0.4764
   32Eth    Hcc  286   3.062   0.627   6.401  1.2038 -0.2509  0.2765
   32Eth    Hcc  287   3.068   0.793   6.467  0.4555  1.6307 -1.3976
   32Eth    Hcc  288   3.202   0.720   6.388 -0.1557 -1.6250 -4.2809
   33Eth     Ho  289   0.672   1.649   6.075 -1.8195  0.9984  0.3338
   33Eth     Oh  290   0.625   1.599   6.011 -0.2949  0.0922 -0.1062
   33Eth     Co  291   0.674   1.618   5.881  0.7928 -0.3533  0.3528
   33Eth    Hco  292   0.782   1.633   5.881  1.0326 -1.9750  1.2040
   33Eth    Hco  293   0.631   1.710   5.840  2.5639  0.5747  0.4922
   33Eth     Ch  294   0.647   1.502   5.792 -0.4154  0.3850  0.1542
   33Eth    Hcc  295   0.661   1.405   5.841 -1.8057  0.1164  0.0237
   33Eth    Hcc  296   0.718   1.504   5.709  0.2885  2.0976  0.7676
   33Eth    Hcc  297   0.548   1.506   5.748 -0.9198 -0.9782  1.1163
   34Eth     Ho  298   2.478   3.191   6.099 -1.5899  0.7852 -1.9070
   34Eth     Oh  299   2.495   3.279   6.071 -0.1309  0.9686 -0.5201
   34Eth     Co  300   2.499   3.270   5.931 -0.3695 -0.5804  0.7928
   34Eth    Hco  301   2.420   3.201   5.903  1.0525 -2.0980  0.4277
   34Eth    Hco  302   2.592   3.223   5.897 -0.0212  0.1964  0.6762
   34Eth     Ch  303   2.477   3.396   5.859  0.4456  0.8547  0.2036
   34Eth    Hcc  304   2.380   3.441   5.881  0.1320  0.6704 -0.7658
   34Eth    Hcc  305   2.466   3.371   5.753 -1.0858 -1.1047  0.8047
   34Eth    Hcc  306   2.552   3.474   5.869 -2.1601  3.2139  1.9039
   35Eth     Ho  307   0.349   0.155   5.911  1.7600  0.4421 -0.5631
   35Eth     Oh  308   0.366   0.207   5.987  0.1479  0.1444  0.0136
   35Eth     Co  309   0.332   0.339   5.945 -0.0372 -0.5556  0.2558
   35Eth    Hco  310   0.384   0.358   5.851  0.1864  0.2544  0.5331
   35Eth    Hco  311   0.371   0.419   6.009  1.8654  1.0011 -2.7049
   35Eth     Ch  312   0.191   0.371   5.909  0.9226  0.6665 -0.3248
   35Eth    Hcc  313   0.124   0.386   5.993 -0.2406 -4.2534 -0.2150
   35Eth    Hcc  314   0.149   0.292   5.848  0.9690 -0.1396  0.6706
   35Eth    Hcc  315   0.190   0.467   5.858  1.0365  0.6368 -0.3848
   36Eth     Ho  316   0.375   1.998  12.122  1.1901 -0.0791 -0.2819
   36Eth     Oh  317   0.347   1.918  12.081  0.0976 -0.0662  0.4279
   36Eth     Co  318   0.204   1.913  12.078  0.3047  0.1282  0.7052
   36Eth    Hco  319   0.164   1.900  12.179 -0.2050 -2.3847  0.2130
   36Eth    Hco  320   0.176   1.826  12.019  0.1178  1.1352 -0.7173
   36Eth     Ch  321   0.147   2.038  12.009 -0.1304  0.1891  0.0678
   36Eth    Hcc  322   0.172   2.034  11.903  0.4490 -0.9480  0.2385
   36Eth    Hcc  323   0.171   2.134  12.056  0.0599  0.4828 -0.6142
   36Eth    Hcc  324   0.039   2.027  12.002  0.0716 -0.1700 -2.9194
   37Eth     Ho  325   1.249   1.104  13.592 -0.8279  1.8157  1.8593
   37Eth     Oh  326   1.326   1.086  13.644  0.1784  0.1192 -0.1742
   37Eth     Co  327   1.400   1.201  13.668 -0.0390 -1.4096 -0.0865
   37Eth    Hco  328   1.340   1.283  13.707  1.5341 -0.8292  1.2055
   37Eth    Hco  329   1.445   1.224  13.571  0.3017 -0.3419  0.3121
   37Eth     Ch  330   1.514   1.176  13.771  0.3031 -0.0963 -0.8809
   37Eth    Hcc  331   1.580   1.094  13.742  1.2673  0.1755  0.5489
   37Eth    Hcc  332   1.479   1.162  13.873  1.3622  0.0906 -0.4935
   37Eth    Hcc  333   1.567   1.271  13.778 -0.6835  0.4555 -0.7851
   38Eth     Ho  334   1.628   0.747  11.828  0.5072 -0.0340  0.2375
   38Eth     Oh  335   1.615   0.655  11.827 -0.2288  0.0724  0.1886
   38Eth     Co  336   1.515   0.642  11.724 -0.2798 -0.6445 -0.1494
   38Eth    Hco  337   1.567   0.669  11.632  1.3740 -0.5866  0.7819
   38Eth    Hco  338   1.433   0.714  11.734  0.4493  0.3676 -1.3218
   38Eth     Ch  339   1.460   0.500  11.722  0.2344  0.3909  0.9079
   38Eth    Hcc  340   1.387   0.489  11.641  2.3304 -0.3621 -0.9435
   38Eth    Hcc  341   1.415   0.466  11.815  0.0693  0.3978  0.8313
   38Eth    Hcc  342   1.543   0.431  11.706 -1.5475 -1.7893  0.7069
   39Eth     Ho  343   1.493   0.427  14.288 -0.2735  0.3077 -1.3979
   39Eth     Oh  344   1.502   0.344  14.330 -0.2121  0.7745 -0.4691
   39Eth     Co  345   1.566   0.247  14.245  0.0681 -0.5033 -0.0071
   39Eth    Hco  346   1.673   0.264  14.232  0.0635 -1.5185 -1.4591
   39Eth    Hco  347   1.526   0.258  14.145 -1.1059 -1.3732  0.3665
   39Eth     Ch  348   1.532   0.105  14.295 -0.6868 -0.2129  0.7374
   39Eth    Hcc  349   1.539   0.107  14.404  2.8157 -0.5938  0.5855
   39Eth    Hcc  350   1.596   0.035  14.242 -0.9372  0.0891  0.0398
   39Eth    Hcc  351   1.432   0.070  14.269 -0.2288  0.0319 -1.4362
   40Eth     Ho  352   0.973   0.226   5.862 -0.9845 -0.3387  1.3656
   40Eth     Oh  353   0.957   0.134   5.863  0.1326 -0.5503  0.2185
   40Eth     Co  354   0.830   0.128   5.801 -0.1441 -0.3018  0.1344
   40Eth    Hco  355   0.852   0.141   5.695 -0.2216 -1.5467 -0.0427
   40Eth    Hco  356   0.760   0.209   5.822  1.4218  1.3115 -0.6940
   40Eth     Ch  357   0.766  -0.013   5.843 -0.5113  0.1390  0.0469
   40Eth    Hcc  358   0.664   0.002   5.810 -0.7890 -0.8444  0.4620
   40Eth    Hcc  359   0.774  -0.040   5.948  0.2469 -2.4272 -0.6358
   40Eth    Hcc  360   0.819  -0.088   5.784  0.1823 -0.8003  1.8446
   41Eth     Ho  361   2.217   2.355   9.237  0.9461  0.7556  1.5087
   41Eth     Oh  362   2.148   2.322   9.291 -0.2801 -0.1904 -0.5810
   41Eth     Co  363   2.108   2.202   9.231 -0.0092 -0.7412 -0.6495
   41Eth    Hco  364   2.178   2.124   9.259  0.1337  0.2085  1.6930
   41Eth    Hco  365   2.110   2.216   9.122  0.0125 -2.1416 -0.8390
   41Eth     Ch  366   1.968   2.152   9.264 -0.2641 -0.2897 -0.7280
   41Eth    Hcc  367   1.942   2.143   9.369 -0.1192  1.6832 -0.5109
   41Eth    Hcc  368   1.937   2.058   9.219  2.1812 -0.6794 -1.7128
   41Eth    Hcc  369   1.892   2.225   9.239  0.1639  0.4423  0.0965
   42Eth     Ho  370   0.860   0.306   8.216  0.6187 -0.4408 -1.2535
   42Eth     Oh  371   0.811   0.227   8.223 -0.1339  0.0868 -0.5434
   42Eth     Co  372   0.677   0.248   8.275 -0.1023  0.1866  0.0635
   42Eth    Hco  373   0.605   0.220   8.198 -0.9206  2.9339 -0.2425
   42Eth    Hco  374   0.663   0.356   8.284  1.9712  0.3183  2.2383
   42Eth     Ch  375   0.658   0.179   8.417 -0.1525  0.3863  0.5101
   42Eth    Hcc  376   0.667   0.070   8.420  3.0736  0.6400  1.9293
   42Eth    Hcc  377   0.557   0.199   8.454 -0.1865 -1.0231  1.2218
   42Eth    Hcc  378   0.725   0.223   8.490  0.5596  1.2476 -0.6409
   43Eth     Ho  379   3.277   0.857  14.194  0.9118 -0.7933  0.2804
   43Eth     Oh  380   3.269   0.909  14.271  0.2188 -0.5726  0.0600
   43Eth     Co  381   3.156   0.880  14.345 -0.7574 -0.2011  0.5416
   43Eth    Hco  382   3.153   0.780  14.388  0.7277 -0.6076 -0.2710
   43Eth    Hco  383   3.081   0.879  14.265 -0.1503 -0.9871 -0.0253
   43Eth     Ch  384   3.127   0.993  14.449  0.0604 -0.2561 -0.0605
   43Eth    Hcc  385   3.021   1.016  14.458  0.2924  0.2624  1.6953
   43Eth    Hcc  386   3.189   1.080  14.428  0.2704 -0.7595 -1.5369
   43Eth    Hcc  387   3.180   0.977  14.543  2.1243  1.9230 -0.8064
   44Eth     Ho  388   2.351   1.930  14.585  1.2724 -0.8673 -1.6801
   44Eth     Oh  389   2.334   1.839  14.605  0.2363 -0.4711 -0.6566
   44Eth     Co  390   2.444   1.780  14.680  0.0323 -0.3931  0.4171
   44Eth    Hco  391   2.476   1.849  14.758  0.7744 -0.8670  0.5330
   44Eth    Hco  392   2.525   1.756  14.612 -0.1532 -1.7384  0.6605
   44Eth     Ch  393   2.408   1.644  14.736 -0.7627 -0.0433 -0.4411
   44Eth    Hcc  394   2.305   1.657  14.770 -0.1050  1.2765  1.1266
   44Eth    Hcc  395   2.478   1.611  14.813 -0.8510 -1.8602 -1.1044
   44Eth    Hcc  396   2.409   1.569  14.657  1.8900 -0.1091 -0.4030
   45Eth     Ho  397   0.619   1.217  10.956  0.0149  0.4406 -0.3499
   45Eth     Oh  398   0.585   1.132  10.934  0.5099  0.0813  0.2466
   45Eth     Co  399   0.476   1.129  11.028 -0.0959  0.2653 -0.2785
   45Eth    Hco  400   0.402   1.204  11.001  0.6364  1.6550  1.5117
   45Eth    Hco  401   0.514   1.156  11.127  0.1911  0.9322 -0.5735
   45Eth     Ch  402   0.403   0.990  11.040  0.1783 -0.1117  0.6327
   45Eth    Hcc  403   0.363   0.945  10.949 -0.5965  0.2489  0.7915
   45Eth    Hcc  404   0.309   1.016  11.090 -0.4084  0.4839 -0.7515
   45Eth    Hcc  405   0.468   0.935  11.107  0.7825  1.0996  1.0474
   46Eth     Ho  406   3.141   1.234  13.703 -0.0533  0.4737  0.6910
   46Eth     Oh  407   3.162   1.151  13.741  0.1307  0.1626 -0.0839
   46Eth     Co  408   3.059   1.124  13.840 -0.1146 -0.2324  0.1927
   46Eth    Hco  409   2.964   1.115  13.787  0.6036  1.1845 -1.3792
   46Eth    Hco  410   3.060   1.210  13.908  2.2518 -0.8835  1.0352
   46Eth     Ch  411   3.085   0.993  13.919 -0.6320 -0.5325 -0.0368
   46Eth    Hcc  412   3.057   0.901  13.868 -1.3325  0.7788 -2.0781
   46Eth    Hcc  413   3.038   1.001  14.017 -0.2762 -1.2370  0.1943
   46Eth    Hcc  414   3.192   0.989  13.937 -0.7032  0.5563  0.6618
   47Eth     Ho  415   1.065   2.610  14.224 -1.3318  1.3682  0.5485
   47Eth     Oh  416   1.146   2.652  14.199 -0.3988 -0.2777  0.7687
   47Eth     Co  417   1.234   2.610  14.298  0.5227 -0.1403  0.0063
   47Eth    Hco  418   1.227   2.502  14.307 -1.4085  0.0489  0.8791
   47Eth    Hco  419   1.193   2.638  14.395 -0.4997 -1.6073  0.0033
   47Eth     Ch  420   1.384   2.668  14.283  0.4790  0.7093 -0.3985
   47Eth    Hcc  421   1.438   2.632  14.195 -0.3713  0.6898 -0.9133
   47Eth    Hcc  422   1.445   2.642  14.370 -1.4239 -0.6735  0.5505
   47Eth    Hcc  423   1.382   2.776  14.267  1.5746  0.5030 -2.0832
   48Eth     Ho  424   1.395   2.051  14.269 -2.1734 -0.4887 -2.6610
   48Eth     Oh  425   1.374   1.967  14.305  0.2923 -0.0976 -0.1637
   48Eth     Co  426   1.270   1.989  14.404  0.4156 -0.0328 -0.2266
   48Eth    Hco  427   1.192   2.057  14.371 -0.5942 -0.7323  0.7005
   48Eth    Hco  428   1.333   2.021  14.487  0.5092  0.1524 -0.3663
   48Eth     Ch  429   1.209   1.854  14.426  0.7810 -0.0205  0.0073
   48Eth    Hcc  430   1.136   1.844  14.346  2.0568 -0.4297 -1.1274
   48Eth    Hcc  431   1.157   1.857  14.522  2.8021 -1.7715  1.2024
   48Eth    Hcc  432   1.271   1.765  14.416  0.2588 -0.2601 -1.1077
   49Eth     Ho  433   1.844   0.317  10.099  0.4777 -1.1764 -0.9026
   49Eth     Oh  434   1.929   0.297  10.135  0.5044 -0.0205 -0.3052
   49Eth     Co  435   2.036   0.391  10.103  0.1512 -0.5384  0.0266
   49Eth    Hco  436   2.007   0.483  10.155  0.2743  0.3411 -1.4334
   49Eth    Hco  437   2.055   0.416   9.999  3.2644  0.6482  0.8390
   49Eth     Ch  438   2.166   0.330  10.148 -0.2195  0.2298  0.3915
   49Eth    Hcc  439   2.233   0.416  10.145 -0.1463  0.2073  1.2821
   49Eth    Hcc  440   2.196   0.252  10.078 -1.2553  0.6389 -0.5159
   49Eth    Hcc  441   2.169   0.293  10.251  2.6288 -0.4059  0.1132
   50Eth     Ho  442   2.859   2.654   6.125 -0.3830 -0.3960 -2.4016
   50Eth     Oh  443   2.846   2.746   6.108 -0.2904  0.1476  0.3252
   50Eth     Co  444   2.708   2.767   6.093 -0.0696 -0.4306  0.2276
   50Eth    Hco  445   2.651   2.756   6.185 -1.0664  1.7109 -0.1047
   50Eth    Hco  446   2.657   2.710   6.015 -0.7350  2.0216 -1.1802
   50Eth     Ch  447   2.676   2.913   6.048 -0.9190  0.6704  0.0977
   50Eth    Hcc  448   2.679   2.992   6.123  0.4407  0.2568  0.4999
   50Eth    Hcc  449   2.573   2.922   6.014 -1.9225  1.7545  3.2197
   50Eth    Hcc  450   2.736   2.952   5.967 -0.1183  0.6704  0.6818
   51Eth     Ho  451   2.797   0.470   9.104  1.5568 -0.6005 -1.6089
   51Eth     Oh  452   2.791   0.563   9.087  0.1682 -0.3395  0.1747
   51Eth     Co  453   2.650   0.587   9.082  0.0120  0.5729 -0.4153
   51Eth    Hco  454   2.599   0.568   9.176  1.2567  0.0597  0.1667
   51Eth    Hco  455   2.605   0.512   9.016  2.2149 -3.0942  2.0392
   51Eth     Ch  456   2.611   0.725   9.042 -0.4014 -0.1434  0.7863
   51Eth    Hcc  457   2.652   0.808   9.101 -0.3426  1.6008 -1.6570
   51Eth    Hcc  458   2.502   0.731   9.043 -0.4916 -0.8417 -1.7299
   51Eth    Hcc  459   2.624   0.745   8.936 -1.7877  0.3026  0.6857
   52Eth     Ho  460   0.996   2.586   6.080  0.1790 -1.3842  0.4615
   52Eth     Oh  461   0.904   2.585   6.063  0.3529 -0.1968 -0.5925
   52Eth     Co  462   0.879   2.648   5.938  0.2899 -0.0863  0.9163
   52Eth    Hco  463   0.921   2.580   5.865 -1.8939  0.4302 -0.8704
   52Eth    Hco  464   0.912   2.751   5.932 -1.7290  0.5225 -0.2331
   52Eth     Ch  465   0.735   2.631   5.913  0.8118  0.3285 -0.2872
   52Eth    Hcc  466   0.679   2.676   5.995  2.0246 -0.8435  1.2034
   52Eth    Hcc  467   0.705   2.529   5.890 -0.5961  0.6971 -0.1254
   52Eth    Hcc  468   0.717   2.689   5.823  1.5188  0.0062 -0.6359
   53Eth     Ho  469   0.997   0.538   8.744  0.5434  0.9331  1.3445
   53Eth     Oh  470   0.928   0.602   8.739 -0.2492  0.0246  0.6781
   53Eth     Co  471   0.820   0.521   8.695  0.4143 -0.4661  0.0058
   53Eth    Hco  472   0.825   0.420   8.736  1.8837 -0.5933 -0.4676
   53Eth    Hco  473   0.818   0.502   8.588  0.2246  0.0796 -0.0900
   53Eth     Ch  474   0.690   0.592   8.739  0.7171 -0.1563 -0.5976
   53Eth    Hcc  475   0.669   0.678   8.675 -1.2655  0.7557  1.2381
   53Eth    Hcc  476   0.696   0.622   8.844  0.4843 -0.3750 -0.5222
   53Eth    Hcc  477   0.609   0.522   8.719 -2.3062  2.9825  0.2029
   54Eth     Ho  478   1.568   3.100  14.113  1.4064 -0.7279  3.7246
   54Eth     Oh  479   1.481   3.124  14.138  0.4991  0.5211 -0.3415
   54Eth     Co  480   1.484   3.168  14.274 -0.0596 -0.0124  0.1799
   54Eth    Hco  481   1.543   3.260  14.272 -1.9065  1.1887  0.2156
   54Eth    Hco  482   1.555   3.104  14.326  3.5449  2.3133 -1.6437
   54Eth     Ch  483   1.350   3.178  14.342  0.4389 -0.3346  0.2692
   54Eth    Hcc  484   1.362   3.213  14.444 -0.6333  0.3145  0.1808
   54Eth    Hcc  485   1.307   3.078  14.346 -0.0489 -0.0643  2.1676
   54Eth    Hcc  486   1.278   3.235  14.282  0.2887  1.4642  2.1133
   55Eth     Ho  487   1.109   1.784  13.671  1.1978 -1.4755 -0.6460
   55Eth     Oh  488   1.128   1.746  13.755 -0.2024  0.0311  0.4008
   55Eth     Co  489   1.017   1.697  13.817 -0.0436 -0.5400  0.7271
   55Eth    Hco  490   0.939   1.689  13.740 -0.9957 -0.4575  1.6694
   55Eth    Hco  491   0.977   1.770  13.888 -0.3195 -1.3277  1.3878
   55Eth     Ch  492   1.033   1.564  13.892  0.1090 -0.4882  0.1686
   55Eth    Hcc  493   1.113   1.559  13.966 -0.9750 -0.9675  1.3213
   55Eth    Hcc  494   1.067   1.480  13.832 -0.7565 -1.5047  1.0825
   55Eth    Hcc  495   0.943   1.535  13.946 -0.9929 -0.1407 -1.4498
   56Eth     Ho  496   2.360   2.606   6.243 -1.0497 -1.1758 -1.3055
   56Eth     Oh  497   2.391   2.533   6.293 -0.3672 -0.0815 -0.0879
   56Eth     Co  498   2.462   2.461   6.195 -0.7175 -0.3206  0.5971
   56Eth    Hco  499   2.476   2.519   6.104  0.3225 -0.3311  0.7441
   56Eth    Hco  500   2.408   2.370   6.168 -3.2197  0.2887  3.3350
   56Eth     Ch  501   2.600   2.436   6.253 -0.2852  0.2351 -0.2315
   56Eth    Hcc  502   2.591   2.355   6.326 -0.0882  0.4671  0.0487
   56Eth    Hcc  503   2.636   2.526   6.302  1.1418 -0.3193 -0.2437
   56Eth    Hcc  504   2.676   2.417   6.177  1.0728 -0.9746  1.3769
   57Eth     Ho  505   1.171   1.012  13.047 -1.5377 -1.3475 -0.4999
   57Eth     Oh  506   1.089   1.058  13.054 -0.7328  0.0215  0.0833
   57Eth     Co  507   1.001   0.964  13.117 -0.3977  0.1585 -0.0248
   57Eth    Hco  508   1.050   0.924  13.206 -0.3322 -1.1564 -0.6441
   57Eth    Hco  509   0.991   0.882  13.046  0.0567 -2.0933  2.4493
   57Eth     Ch  510   0.876   1.044  13.156  0.0646 -0.2145 -0.3204
   57Eth    Hcc  511   0.884   1.142  13.203  0.2900  0.4527 -1.6933
   57Eth    Hcc  512   0.825   0.979  13.227  0.4310  1.8565  1.8951
   57Eth    Hcc  513   0.805   1.057  13.074 -1.4865 -0.8110  0.9140
   58Eth     Ho  514   2.322   1.130  14.596  2.4183 -2.3110  0.0670
   58Eth     Oh  515   2.356   1.206  14.639 -0.0401 -0.7994 -0.5937
   58Eth     Co  516   2.414   1.179  14.755  0.0026 -0.3366 -1.0367
   58Eth    Hco  517   2.513   1.135  14.740  1.0437  0.7643  2.2280
   58Eth    Hco  518   2.340   1.113  14.799 -1.8382  1.2969 -1.6283
   58Eth     Ch  519   2.427   1.304  14.844  0.0235  0.3469  0.6080
   58Eth    Hcc  520   2.457   1.392  14.788  3.2723  1.2113  3.5583
   58Eth    Hcc  521   2.493   1.289  14.930  1.5527 -2.1003 -0.9272
   58Eth    Hcc  522   2.329   1.332  14.883  0.0680  2.4215 -0.7354
   59Eth     Ho  523   0.071   1.932   5.773  2.9149  1.0510 -0.1677
   59Eth     Oh  524   0.076   1.923   5.866 -0.3307 -0.6251 -0.0634
   59Eth     Co  525  -0.050   1.967   5.929  0.3005  0.2938 -0.3464
   59Eth    Hco  526  -0.113   1.881   5.952 -2.8230  3.1822  2.5546
   59Eth    Hco  527  -0.100   2.019   5.847  0.3138 -0.5527 -0.8904
   59Eth     Ch  528  -0.039   2.061   6.042 -0.1658  0.2862  0.0415
   59Eth    Hcc  529  -0.131   2.077   6.098 -1.1981  0.9673 -1.8169
   59Eth    Hcc  530  -0.009   2.156   5.997 -0.1680  0.0771 -0.3970
   59Eth    Hcc  531   0.043   2.030   6.108 -0.4867  2.3023  1.4335
   60Eth     Ho  532   0.722   1.214  13.834 -0.6620 -0.8789 -0.6108
   60Eth     Oh  533   0.812   1.187  13.838 -0.2431  0.4877 -0.5613
   60Eth     Co  534   0.819   1.056  13.780 -0.1105 -0.3041  0.1710
   60Eth    Hco  535   0.822   1.064  13.671  0.2761  1.9652  0.3253
   60Eth    Hco  536   0.735   0.998  13.817  0.2198 -1.9267 -1.5357
   60Eth     Ch  537   0.943   0.983  13.822  0.2605 -0.5942  0.1839
   60Eth    Hcc  538   0.965   0.997  13.927 -0.0747  0.1390  0.1607
   60Eth    Hcc  539   1.020   1.042  13.772 -0.7970  1.5835  1.0699
   60Eth    Hcc  540   0.950   0.879  13.791 -0.6837 -0.4224 -0.6519
   61Eth     Ho  541   1.558   2.151   9.147  1.5054 -3.8675  2.2620
   61Eth     Oh  542   1.498   2.181   9.213  0.3997 -0.4852 -0.1707
   61Eth     Co  543   1.558   2.273   9.308  0.1761  0.1653 -0.2258
   61Eth    Hco  544   1.577   2.368   9.258  0.0643 -0.1535 -0.8719
   61Eth    Hco  545   1.652   2.233   9.346 -0.3388  0.0421  0.9551
   61Eth     Ch  546   1.457   2.290   9.426 -0.7091  0.2814  0.1700
   61Eth    Hcc  547   1.508   2.362   9.490 -0.1576  0.2328 -0.2092
   61Eth    Hcc  548   1.447   2.188   9.464  1.2379  0.0170  0.0392
   61Eth    Hcc  549   1.359   2.331   9.403 -1.4791 -0.0061  2.7238
   62Eth     Ho  550   3.150   1.281  10.893  0.7139 -0.2954  0.7636
   62Eth     Oh  551   3.134   1.203  10.843  0.3006  0.2568  0.0354
   62Eth     Co  552   3.097   1.111  10.941 -0.9334 -0.2066 -0.2920
   62Eth    Hco  553   3.009   1.147  10.994 -1.8250  0.8758 -2.4640
   62Eth    Hco  554   3.180   1.111  11.012 -1.4745  0.5264  0.3619
   62Eth     Ch  555   3.070   0.988  10.871  0.2411 -0.4154  0.3967
   62Eth    Hcc  556   3.066   0.895  10.929 -0.7323 -0.4727  0.2442
   62Eth    Hcc  557   3.129   0.969  10.781 -1.5280  2.5485 -1.4506
   62Eth    Hcc  558   2.969   0.993  10.828 -0.1681 -2.3775  1.0661
   63Eth     Ho  559   3.118   3.184   6.667 -1.1412  1.0230  2.0373
   63Eth     Oh  560   3.117   3.248   6.598  0.2641 -0.2827  0.7481
   63Eth     Co  561   3.002   3.218   6.516 -0.2912  0.3151  0.2428
   63Eth    Hco  562   2.921   3.273   6.562  1.5169  2.0963  1.3962
   63Eth    Hco  563   2.977   3.112   6.525  2.3312 -0.5748 -2.1251
   63Eth     Ch  564   3.045   3.248   6.380 -0.2494  0.8387  0.8092
   63Eth    Hcc  565   2.960   3.244   6.311 -1.6920  3.5853  2.3057
   63Eth    Hcc  566   3.123   3.182   6.342 -0.5982  1.4308 -0.9934
   63Eth    Hcc  567   3.082   3.348   6.358  2.3748 -0.4555 -0.8817
   64Eth     Ho  568   0.092   2.499  10.786  0.9293 -2.1707  0.8259
   64Eth     Oh  569   0.012   2.474  10.828 -0.1322 -0.1456  0.0920
   64Eth     Co  570  -0.064   2.588  10.837 -0.0948 -0.4275  0.3325
   64Eth    Hco  571  -0.160   2.578  10.786  0.3403  1.4071 -0.9344
   64Eth    Hco  572  -0.014   2.670  10.785 -0.0125  1.0310  2.6390
   64Eth     Ch  573  -0.080   2.633  10.978 -0.0409  0.5518 -0.4481
   64Eth    Hcc  574  -0.133   2.559  11.039  1.1956 -0.0296 -0.0576
   64Eth    Hcc  575  -0.142   2.723  10.978  0.3700  0.8341 -0.2161
   64Eth    Hcc  576   0.015   2.662  11.023 -0.7653  1.9136  0.2275
   65Eth     Ho  577   2.530   2.516   9.867 -0.4824  0.3744 -0.8780
   65Eth     Oh  578   2.502   2.430   9.842 -0.2417  0.1491 -0.3890
   65Eth     Co  579   2.473   2.361   9.961 -0.4522 -0.1632  0.1021
   65Eth    Hco  580   2.480   2.253   9.942  1.1641  0.0546 -0.6793
   65Eth    Hco  581   2.367   2.375   9.978 -0.8341 -4.0204  1.5038
   65Eth     Ch  582   2.577   2.406  10.075  0.6439  0.7112 -0.5882
   65Eth    Hcc  583   2.675   2.397  10.028  2.0642  0.9848  2.1877
   65Eth    Hcc  584   2.572   2.342  10.163  0.8914 -1.0560 -1.8333
   65Eth    Hcc  585   2.564   2.512  10.097 -0.5551  0.9191 -2.2466
   66Eth     Ho  586   1.203   1.290   6.162 -2.0322  1.2920 -0.7523
   66Eth     Oh  587   1.148   1.215   6.143  0.1723 -0.5361 -0.1889
   66Eth     Co  588   1.054   1.268   6.049  0.6477  0.4438  0.1271
   66Eth    Hco  589   1.100   1.348   5.991  0.7762  0.8929  0.8429
   66Eth    Hco  590   0.980   1.321   6.109  2.0559  0.9743  1.4319
   66Eth     Ch  591   0.988   1.168   5.964  0.3617  0.3643  0.5313
   66Eth    Hcc  592   0.930   1.221   5.887 -1.7835 -1.7028  0.6593
   66Eth    Hcc  593   0.916   1.105   6.017  1.1811 -1.8571 -0.9421
   66Eth    Hcc  594   1.069   1.107   5.924 -0.4968 -0.6057  0.2544
   67Eth     Ho  595   0.640   3.021  11.662 -1.9460  1.3391 -0.6420
   67Eth     Oh  596   0.705   3.088  11.651 -0.2865 -0.1239  0.1031
   67Eth     Co  597   0.695   3.154  11.525  0.0734  0.2135  0.2196
   67Eth    Hco  598   0.695   3.065  11.461 -0.9449  0.7526 -0.5306
   67Eth    Hco  599   0.786   3.206  11.493 -0.0976  0.9963  1.0049
   67Eth     Ch  600   0.574   3.242  11.508 -0.1758  1.2023  0.1336
   67Eth    Hcc  601   0.607   3.340  11.541 -0.6180  1.2281  0.5096
   67Eth    Hcc  602   0.492   3.196  11.564  0.2907 -2.9124 -2.3419
   67Eth    Hcc  603   0.550   3.264  11.404  0.8606 -2.1473 -0.8783
   68Eth     Ho  604   3.146   0.005   5.971 -0.5762 -1.2452  1.4274
   68Eth     Oh  605   3.079  -0.016   5.909  0.1490  0.2081  0.1113
   68Eth     Co  606   3.130  -0.075   5.800  0.0568 -0.0836  0.0237
   68Eth    Hco  607   3.159  -0.173   5.836 -1.9176 -0.3457  0.9363
   68Eth    Hco  608   3.224  -0.031   5.765  1.5022 -3.1821 -0.1764
   68Eth     Ch  609   3.024  -0.065   5.690 -0.1154 -0.0966  0.8667
   68Eth    Hcc  610   2.939  -0.127   5.722  0.2481 -0.8358  0.4176
   68Eth    Hcc  611   3.052  -0.088   5.587  0.4079  1.2102  0.7182
   68Eth    Hcc  612   2.992   0.038   5.682  1.6531  0.5802  2.2186
   69Eth     Ho  613   2.894   0.460  13.239 -0.0091 -0.3300 -0.2877
   69Eth     Oh  614   2.962   0.414  13.193 -0.2009 -0.6271 -0.2761
   69Eth     Co  615   2.995   0.509  13.095 -0.0328  0.1697  0.3260
   69Eth    Hco  616   3.042   0.596  13.141  0.3122  1.3083 -2.0918
   69Eth    Hco  617   2.903   0.545  13.047  0.2212  0.8108  0.3180
   69Eth     Ch  618   3.086   0.453  12.984 -0.2508 -0.0878 -0.7157
   69Eth    Hcc  619   3.102   0.529  12.908 -0.3161  0.7837  0.1288
   69Eth    Hcc  620   3.037   0.371  12.933 -0.6370  0.0318 -0.5443
   69Eth    Hcc  621   3.187   0.437  13.021 -0.3113  0.3608 -0.3400
   70Eth     Ho  622   2.508   2.212  12.601 -0.9205 -0.7873 -0.0811
   70Eth     Oh  623   2.450   2.284  12.620  0.0388 -0.1403  0.4475
   70Eth     Co  624   2.329   2.263  12.548  0.1582 -0.5556  0.7169
   70Eth    Hco  625   2.290   2.168  12.585  2.4878 -1.8730 -0.1272
   70Eth    Hco  626   2.342   2.251  12.441  2.0105  0.7833  0.7570
   70Eth     Ch  627   2.231   2.377  12.586  0.1219  0.9717  0.0630
   70Eth    Hcc  628   2.200   2.368  12.690  0.5885 -1.1364  0.0386
   70Eth    Hcc  629   2.133   2.370  12.537  0.2934  1.3535 -0.3351
   70Eth    Hcc  630   2.265   2.478  12.562  2.9491 -0.4298 -2.1006
   71Eth     Ho  631   1.885   1.582   6.452  0.3350 -0.7430 -0.1323
   71Eth     Oh  632   1.922   1.661   6.416  0.0705 -0.3848  0.3772
   71Eth     Co  633   1.982   1.645   6.287  0.1111 -0.3446  0.0939
   71Eth    Hco  634   2.040   1.553   6.292  0.4023 -0.1382  0.5714
   71Eth    Hco  635   2.046   1.724   6.248 -0.2316  0.0701  0.3669
   71Eth     Ch  636   1.862   1.624   6.191 -0.5079  0.1161  0.0034
   71Eth    Hcc  637   1.802   1.543   6.231 -0.1188 -0.8632 -1.3403
   71Eth    Hcc  638   1.892   1.594   6.090 -0.4973 -2.2042  0.6656
   71Eth    Hcc  639   1.790   1.705   6.182  0.0353  0.5322 -0.6489
   72Eth     Ho  640   1.119   1.614   6.124 -0.1582 -4.4453 -1.4600
   72Eth     Oh  641   1.060   1.645   6.057  0.3339 -0.0329  0.0278
   72Eth     Co  642   1.093   1.773   6.006 -0.0966  0.5292  0.0155
   72Eth    Hco  643   1.192   1.765   5.961 -0.5383  2.0583 -1.2577
   72Eth    Hco  644   1.103   1.838   6.093 -0.4570 -0.1169  0.5419
   72Eth     Ch  645   0.998   1.816   5.897  0.1545 -0.3705 -0.1786
   72Eth    Hcc  646   0.998   1.758   5.805  0.1884 -0.0218 -0.4013
   72Eth    Hcc  647   1.011   1.917   5.857 -0.8663 -0.2928 -0.3255
   72Eth    Hcc  648   0.896   1.833   5.932  0.6131  1.2019  0.4630
   73Eth     Ho  649   0.597   1.883   8.467  1.9646  1.0748 -0.3803
   73Eth     Oh  650   0.619   1.889   8.558  0.0066 -0.0700  0.1846
   73Eth     Co  651   0.500   1.841   8.626 -0.7887 -0.2891  0.9487
   73Eth    Hco  652   0.489   1.742   8.581 -1.6103  1.2569 -2.3987
   73Eth    Hco  653   0.414   1.906   8.613 -0.5209 -0.3279 -1.2804
   73Eth     Ch  654   0.506   1.841   8.781  0.0364  0.3103 -0.2167
   73Eth    Hcc  655   0.416   1.823   8.840 -0.5764  0.8730 -0.9710
   73Eth    Hcc  656   0.551   1.934   8.815  0.4589 -0.2258  0.6944
   73Eth    Hcc  657   0.585   1.768   8.798 -1.0430 -0.3574  2.0973
   74Eth     Ho  658   1.645   2.304  10.481  0.4382  0.9152 -0.4764
   74Eth     Oh  659   1.609   2.360  10.547 -0.0657 -0.2192  0.2203
   74Eth     Co  660   1.677   2.346  10.676 -0.4378 -0.5577  0.3844
   74Eth    Hco  661   1.643   2.419  10.749  0.0445  0.2860 -0.2357
   74Eth    Hco  662   1.781   2.364  10.651 -1.3042  3.7873 -0.3740
   74Eth     Ch  663   1.653   2.204  10.720 -0.3816  0.0506  0.0446
   74Eth    Hcc  664   1.550   2.171  10.725  0.3025 -1.8023  2.8106
   74Eth    Hcc  665   1.707   2.196  10.815  0.7316  2.0781 -0.3607
   74Eth    Hcc  666   1.695   2.123  10.661 -3.1324  0.2755 -2.3316
   75Eth     Ho  667   0.834   0.005  14.370  1.6057 -0.6653 -1.3695
   75Eth     Oh  668   0.807  -0.078  14.405  0.0618  0.7197  0.8916
   75Eth     Co  669   0.834  -0.070  14.542 -0.0692  1.0922  0.4353
   75Eth    Hco  670   0.746  -0.034  14.594  0.5186 -0.3581  2.5351
   75Eth    Hco  671   0.923  -0.016  14.576  0.4202  1.0452 -0.7553
   75Eth     Ch  672   0.853  -0.207  14.595 -0.6123 -0.8729 -0.6631
   75Eth    Hcc  673   0.764  -0.261  14.562 -1.1458 -0.0548 -0.5759
   75Eth    Hcc  674   0.850  -0.222  14.702  3.2204  0.0746 -0.3613
   75Eth    Hcc  675   0.937  -0.262  14.553 -0.1930  0.2267 -1.3028
   76Eth     Ho  676   0.441   0.224   8.981 -0.1489 -1.4742 -0.7321
   76Eth     Oh  677   0.411   0.270   8.904 -0.3469 -0.1913  0.0964
   76Eth     Co  678   0.365   0.180   8.805 -0.0349  0.0959  0.0833
   76Eth    Hco  679   0.276   0.132   8.845 -0.2598  0.4057 -0.0404
   76Eth    Hco  680   0.431   0.095   8.792 -1.2426 -1.3450  2.9410
   76Eth     Ch  681   0.343   0.253   8.677  0.3907  0.0929 -0.7103
   76Eth    Hcc  682   0.260   0.323   8.666  1.1947  1.5285  1.8875
   76Eth    Hcc  683   0.327   0.167   8.612  0.6775 -1.2894  1.0041
   76Eth    Hcc  684   0.435   0.307   8.656  0.6091 -0.0556 -0.1500
   77Eth     Ho  685   2.725   3.335  11.940 -1.0193  0.4788  0.7845
   77Eth     Oh  686   2.664   3.267  11.963 -0.3809 -0.3587  0.0185
   77Eth     Co  687   2.526   3.298  11.932 -0.2689 -0.0713 -0.3653
   77Eth    Hco  688   2.516   3.315  11.825  1.5167  0.6022 -0.4374
   77Eth    Hco  689   2.502   3.395  11.977 -0.0958  0.8630 -2.2321
   77Eth     Ch  690   2.418   3.199  11.989 -0.1341 -0.4706  0.3499
   77Eth    Hcc  691   2.317   3.238  11.982 -0.6959 -0.9860  4.4444
   77Eth    Hcc  692   2.437   3.163  12.091 -0.7812 -0.5840  0.4305
   77Eth    Hcc  693   2.430   3.109  11.928  1.7554  0.8786 -1.3171
   78Eth     Ho  694   1.355   2.409   8.491 -0.3108 -0.3171 -0.8211
   78Eth     Oh  695   1.290   2.467   8.527  0.1859 -0.0383 -0.3552
   78Eth     Co  696   1.345   2.592   8.571  0.4250  0.1940 -0.1023
   78Eth    Hco  697   1.404   2.645   8.495  0.4401  3.0802  1.8481
   78Eth    Hco  698   1.414   2.577   8.653 -1.1980 -2.8908  0.7814
   78Eth     Ch  699   1.219   2.681   8.611 -0.1286 -1.0449  0.0312
   78Eth    Hcc  700   1.159   2.643   8.694  1.2671 -0.3092  1.4155
   78Eth    Hcc  701   1.165   2.712   8.522  2.4083  0.3458 -1.0931
   78Eth    Hcc  702   1.270   2.769   8.649  1.0748 -1.2002 -1.1805
   79Eth     Ho  703   3.225   1.967  11.577  0.7438  0.3126  0.5157
   79Eth     Oh  704   3.163   1.917  11.627 -0.0443  0.2210 -0.5541
   79Eth     Co  705   3.079   2.016  11.677  0.7258  0.2267 -0.5436
   79Eth    Hco  706   2.984   1.970  11.705  1.0246 -0.6413 -0.9479
   79Eth    Hco  707   3.053   2.086  11.598 -2.7926  0.3989  0.6503
   79Eth     Ch  708   3.131   2.100  11.795  0.7597 -0.4783  0.4824
   79Eth    Hcc  709   3.056   2.171  11.830  0.0874 -1.4183  0.9789
   79Eth    Hcc  710   3.223   2.150  11.766 -0.4680  0.2853 -2.2882
   79Eth    Hcc  711   3.156   2.023  11.868  0.2658  0.0517  1.2174
   80Eth     Ho  712   2.275   0.939  14.459  1.9634  0.8100 -0.1445
   80Eth     Oh  713   2.252   1.026  14.485 -0.0291  0.1053  0.5029
   80Eth     Co  714   2.120   1.015  14.546 -0.4907  0.1702 -0.1376
   80Eth    Hco  715   2.122   1.058  14.646  2.5371  0.7096 -0.3842
   80Eth    Hco  716   2.105   0.908  14.540  4.1052 -0.5724 -0.2342
   80Eth     Ch  717   2.004   1.057  14.452  0.1211  0.1870  0.1975
   80Eth    Hcc  718   2.016   1.010  14.354 -1.1298  1.1509 -0.4313
   80Eth    Hcc  719   1.997   1.166  14.452 -1.5509  0.0869  1.2046
   80Eth    Hcc  720   1.903   1.024  14.474 -0.0186 -0.1124 -0.8486
   81Eth     Ho  721   2.846   2.396  11.096  0.6206 -0.8387  0.7566
   81Eth     Oh  722   2.805   2.443  11.166 -0.4309  0.0338 -0.4514
   81Eth     Co  723   2.767   2.576  11.121  0.7490 -0.0952 -0.5292
   81Eth    Hco  724   2.724   2.567  11.022  3.5326  0.5094 -1.8212
   81Eth    Hco  725   2.861   2.627  11.099 -0.3392  1.4430 -1.7257
   81Eth     Ch  726   2.679   2.655  11.223  0.3999  1.0460  0.2117
   81Eth    Hcc  727   2.575   2.623  11.209  0.2660  0.9241  1.3645
   81Eth    Hcc  728   2.685   2.762  11.208  0.0396  0.9369 -0.7156
   81Eth    Hcc  729   2.718   2.634  11.323  0.7645  0.5500 -0.0353
   82Eth     Ho  730   1.289   0.686  14.251  0.3433  0.5024 -0.1743
   82Eth     Oh  731   1.238   0.765  14.255  0.1833  0.3855  0.0827
   82Eth     Co  732   1.227   0.784  14.399 -0.4219 -0.3054  0.1979
   82Eth    Hco  733   1.320   0.804  14.452 -0.3789 -0.1581  0.0655
   82Eth    Hco  734   1.180   0.702  14.453 -0.8969  1.8296  3.1566
   82Eth     Ch  735   1.133   0.912  14.413 -0.0912 -0.1238 -0.9261
   82Eth    Hcc  736   1.179   0.995  14.360  0.4035 -0.0704 -0.4210
   82Eth    Hcc  737   1.122   0.939  14.518  0.6764  0.1658 -0.9130
   82Eth    Hcc  738   1.035   0.899  14.369 -1.3128  2.4804  0.9147
   83Eth     Ho  739   1.445   1.900   9.417  2.0094  2.3052  0.9293
   83Eth     Oh  740   1.505   1.828   9.418 -0.2535  0.3283 -0.5161
   83Eth     Co  741   1.427   1.716   9.412  0.3454 -0.1662 -0.6793
   83Eth    Hco  742   1.339   1.728   9.349 -2.0450  2.2045  2.9035
   83Eth    Hco  743   1.383   1.703   9.511  0.4898 -2.4301 -0.8909
   83Eth     Ch  744   1.525   1.606   9.379  0.2265 -0.8730  0.6211
   83Eth    Hcc  745   1.597   1.595   9.460 -0.2021 -1.1234  0.9694
   83Eth    Hcc  746   1.591   1.620   9.294 -0.6784 -1.1263 -0.1274
   83Eth    Hcc  747   1.472   1.511   9.368 -1.7523  0.2980 -0.1591
   84Eth     Ho  748   1.735   3.134  11.835  0.1218  1.5581 -0.5269
   84Eth     Oh  749   1.825   3.140  11.862  0.2665 -0.7373 -0.4734
   84Eth     Co  750   1.849   3.280  11.876 -0.0675  0.0791  0.1169
   84Eth    Hco  751   1.798   3.320  11.963  1.4100  0.7392  0.7025
   84Eth    Hco  752   1.813   3.340  11.792 -2.2557  0.3652  1.2489
   84Eth     Ch  753   1.999   3.281  11.903  0.0845  0.0739 -0.1737
   84Eth    Hcc  754   2.058   3.210  11.845  0.2265  1.4593 -1.7596
   84Eth    Hcc  755   2.011   3.247  12.006  0.3431  1.0150  0.1026
   84Eth    Hcc  756   2.026   3.384  11.884 -1.9368  0.6226 -0.2566
   85Eth     Ho  757   2.781   0.640  10.932  3.6872  2.3652 -2.1979
   85Eth     Oh  758   2.836   0.563  10.935  0.4734  0.0617  0.0252
   85Eth     Co  759   2.958   0.590  10.876 -0.1669 -0.0312 -0.7145
   85Eth    Hco  760   3.010   0.496  10.859 -0.0228 -0.0975  0.1035
   85Eth    Hco  761   3.014   0.666  10.930  1.1635 -0.1471 -1.9053
   85Eth     Ch  762   2.932   0.631  10.728 -0.1209  0.0781 -0.2952
   85Eth    Hcc  763   2.879   0.727  10.733 -0.0054  0.2468 -2.0427
   85Eth    Hcc  764   2.863   0.561  10.681  0.6286 -2.0678  1.7313
   85Eth    Hcc  765   3.026   0.637  10.672  0.9469 -2.2519  1.1789
   86Eth     Ho  766   2.293   1.931   6.849  0.8127  1.0403  3.5422
   86Eth     Oh  767   2.341   1.853   6.871  0.6360 -0.1242  0.0426
   86Eth     Co  768   2.290   1.817   6.992  0.1099 -0.5803  0.1260
   86Eth    Hco  769   2.315   1.718   7.030 -3.3680 -0.7220  2.2323
   86Eth    Hco  770   2.181   1.822   6.989  0.2210  2.4187  0.5433
   86Eth     Ch  771   2.342   1.908   7.093  0.0320  0.1087 -0.1725
   86Eth    Hcc  772   2.450   1.917   7.077 -0.3619  1.7661 -2.0923
   86Eth    Hcc  773   2.309   1.861   7.186  0.7163 -1.3488 -0.6418
   86Eth    Hcc  774   2.298   2.008   7.091  0.8887  0.4866 -2.1406
   87Eth     Ho  775   1.014   2.102  10.722  0.0873  0.5946 -1.6153
   87Eth     Oh  776   0.925   2.111  10.752  0.2069 -0.2604 -0.9784
   87Eth     Co  777   0.930   2.184  10.880  0.6173  0.1112 -0.2648
   87Eth    Hco  778   0.974   2.282  10.863  1.8761 -0.6260 -1.4090
   87Eth    Hco  779   0.992   2.125  10.948  0.8843  0.1124 -0.5065
   87Eth     Ch  780   0.785   2.201  10.932 -0.1445 -0.3850 -0.0757
   87Eth    Hcc  781   0.725   2.113  10.910  0.2629 -0.7558  0.2852
   87Eth    Hcc  782   0.741   2.298  10.909  0.9267  0.2051  0.3265
   87Eth    Hcc  783   0.797   2.205  11.041  3.0766 -0.8471 -0.3813
   88Eth     Ho  784   0.956   2.178   6.203 -0.1851 -0.3750  0.2349
   88Eth     Oh  785   1.018   2.158   6.135 -0.4169  0.3793 -0.2109
   88Eth     Co  786   1.006   2.264   6.043  0.3433 -0.1279  0.2766
   88Eth    Hco  787   1.042   2.353   6.095 -0.6457  0.6887 -0.4306
   88Eth    Hco  788   0.900   2.278   6.022  0.3357  0.6848  0.8198
   88Eth     Ch  789   1.076   2.229   5.913 -0.0770  0.1039  0.4677
   88Eth    Hcc  790   1.181   2.207   5.929  0.5829  2.0677 -0.9905
   88Eth    Hcc  791   1.069   2.302   5.833  0.2871 -1.6027 -1.1721
   88Eth    Hcc  792   1.050   2.131   5.873 -0.0913  0.8344 -1.3658
   89Eth     Ho  793   2.323   0.757   7.030 -1.4908 -1.7792  1.8460
   89Eth     Oh  794   2.331   0.815   7.104  0.1028  0.2433  0.1201
   89Eth     Co  795   2.325   0.743   7.223 -0.4749  0.4181  0.0633
   89Eth    Hco  796   2.411   0.678   7.238 -0.2883  0.5811 -0.2910
   89Eth    Hco  797   2.237   0.681   7.235  1.9756 -3.1420  0.3028
   89Eth     Ch  798   2.319   0.840   7.343 -0.0048 -0.7043 -0.3797
   89Eth    Hcc  799   2.308   0.795   7.442  2.5121  1.5827  1.0119
   89Eth    Hcc  800   2.233   0.906   7.331  0.3866  0.3071  2.0249
   89Eth    Hcc  801   2.407   0.904   7.348 -1.4158  1.1651  1.0428
   90Eth     Ho  802   2.766   1.931  13.727 -1.5026  0.1529  1.6572
   90Eth     Oh  803   2.714   1.866  13.684 -0.0723 -0.0477  0.1483
   90Eth     Co  804   2.681   1.765  13.777 -0.0991  0.1211 -0.2414
   90Eth    Hco  805   2.676   1.814  13.875  0.9541  2.6259 -1.3908
   90Eth    Hco  806   2.759   1.689  13.771  1.6096  1.8080  0.1203
   90Eth     Ch  807   2.542   1.709  13.741 -0.2235  0.4394  0.5704
   90Eth    Hcc  808   2.470   1.788  13.718 -0.8473  0.1133  1.3712
   90Eth    Hcc  809   2.505   1.655  13.827  0.9673  0.1747  0.9228
   90Eth    Hcc  810   2.545   1.641  13.656  1.3083  0.4462  0.6032
   91Eth     Ho  811   3.312   2.265  10.126  0.6818 -1.0720 -1.4150
   91Eth     Oh  812   3.321   2.196  10.189  0.4286  0.4737  0.3432
   91Eth     Co  813   3.399   2.245  10.301  0.3174  0.4929  0.6246
   91Eth    Hco  814   3.351   2.315  10.369  0.4777  1.8289 -0.6057
   91Eth    Hco  815   3.484   2.296  10.255  0.6021  0.4039  1.0561
   91Eth     Ch  816   3.459   2.132  10.375 -0.0758 -0.0030 -0.7142
   91Eth    Hcc  817   3.385   2.054  10.392 -0.1794  0.6437  2.0036
   91Eth    Hcc  818   3.497   2.167  10.471 -2.2359 -1.3665  0.6775
   91Eth    Hcc  819   3.551   2.096  10.328  1.4509  2.1085  0.5608
   92Eth     Ho  820   0.260   2.792   6.186 -1.9394 -0.0773  1.2296
   92Eth     Oh  821   0.246   2.835   6.104 -0.4316 -0.2186  0.8746
   92Eth     Co  822   0.284   2.736   6.010 -0.1210  0.0610  0.1339
   92Eth    Hco  823   0.215   2.662   6.051  0.3873 -1.0339 -0.9699
   92Eth    Hco  824   0.389   2.711   6.023  0.0208  0.9188  0.7187
   92Eth     Ch  825   0.251   2.772   5.870 -0.6107  0.3571 -0.5054
   92Eth    Hcc  826   0.145   2.796   5.857 -0.4460  0.1740 -2.3735
   92Eth    Hcc  827   0.313   2.856   5.839  0.8606 -1.2567 -2.0387
   92Eth    Hcc  828   0.280   2.686   5.808  1.6870  0.1631  0.8065
   93Eth     Ho  829   1.696   2.871   6.511 -0.4853  0.1745 -0.3063
   93Eth     Oh  830   1.705   2.864   6.417 -0.2372  0.0820 -0.2748
   93Eth     Co  831   1.650   2.748   6.370 -0.0892 -0.6922 -0.4289
   93Eth    Hco  832   1.547   2.733   6.401 -0.1998  1.1232  0.1305
   93Eth    Hco  833   1.687   2.659   6.421  0.2493 -1.1235 -1.4114
   93Eth     Ch  834   1.650   2.727   6.222 -0.6391 -0.3559  0.0143
   93Eth    Hcc  835   1.607   2.629   6.204  0.5850 -0.9909  0.4903
   93Eth    Hcc  836   1.753   2.729   6.185 -0.1094 -2.0860  1.3468
   93Eth    Hcc  837   1.595   2.801   6.164  0.7828 -1.3090 -2.6473
   94Eth     Ho  838   2.447   3.364  14.249  0.0934  0.0161  2.0588
   94Eth     Oh  839   2.508   3.433  14.271  0.5976  0.3097 -0.1684
   94Eth     Co  840   2.509   3.413  14.412  0.3708 -0.2713 -0.2278
   94Eth    Hco  841   2.562   3.320  14.432 -0.1987 -0.9226 -1.6481
   94Eth    Hco  842   2.406   3.398  14.442 -0.0153  0.1704 -1.3150
   94Eth     Ch  843   2.598   3.517  14.479  0.3749 -0.1233  0.6891
   94Eth    Hcc  844   2.550   3.614  14.496 -2.0915 -1.0789 -0.6197
   94Eth    Hcc  845   2.683   3.539  14.413 -0.0451 -0.4162  0.0468
   94Eth    Hcc  846   2.633   3.490  14.578  0.5901  0.1918  0.7032
   95Eth     Ho  847   2.050   2.840   6.012  1.1388  0.3888  1.1490
   95Eth     Oh  848   2.082   2.758   6.047  0.0725 -0.3267  0.4740
   95Eth     Co  849   1.990   2.656   6.028 -0.3574  0.2278 -0.6796
   95Eth    Hco  850   2.018   2.602   5.937 -2.0404  0.5042 -1.3721
   95Eth    Hco  851   1.889   2.698   6.024 -0.9606 -1.1542 -0.0116
   95Eth     Ch  852   2.005   2.578   6.156  0.4243 -0.1909 -0.0729
   95Eth    Hcc  853   2.101   2.527   6.152  1.8088  2.3574 -0.0430
   95Eth    Hcc  854   1.924   2.505   6.153 -1.1714  1.5649 -0.7310
   95Eth    Hcc  855   2.005   2.638   6.247 -1.1715  0.6952 -0.6333
   96Eth     Ho  856   1.342   0.869   6.007  2.2043  0.1534  1.3558
   96Eth     Oh  857   1.406   0.843   5.944  0.0543 -0.4463 -0.6738
   96Eth     Co  858   1.501   0.944   5.960 -0.0760 -0.3390  0.0764
   96Eth    Hco  859   1.519   0.943   6.067  1.3500 -1.7718 -0.1527
   96Eth    Hco  860   1.467   1.043   5.931 -0.3024 -0.2313  0.7043
   96Eth     Ch  861   1.633   0.903   5.882  0.1823 -0.2359  0.3349
   96Eth    Hcc  862   1.663   0.803   5.915  0.2217 -0.5028 -0.5109
   96Eth    Hcc  863   1.711   0.975   5.909  0.2491 -1.2653  3.0722
   96Eth    Hcc  864   1.623   0.899   5.774  1.0007 -0.7763  0.2767
   97Eth     Ho  865   0.713   0.167  11.312 -0.4048  1.4058  1.2077
   97Eth     Oh  866   0.657   0.096  11.336  0.4735  0.2187 -0.1813
   97Eth     Co  867   0.529   0.157  11.365 -0.2396  0.1519 -0.0827
   97Eth    Hco  868   0.442   0.106  11.324  1.1267 -1.3528 -1.1730
   97Eth    Hco  869   0.541   0.248  11.307 -0.2863 -0.5713 -1.2306
   97Eth     Ch  870   0.505   0.184  11.513  0.2378 -0.5382  0.5474
   97Eth    Hcc  871   0.420   0.250  11.528  0.6047 -0.2000  1.1630
   97Eth    Hcc  872   0.584   0.229  11.573 -0.8091  3.6640 -1.0323
   97Eth    Hcc  873   0.477   0.087  11.556  0.3279 -1.8258 -2.1990
   98Eth     Ho  874   2.997   1.704  14.357  1.3929  0.7944 -3.2862
   98Eth     Oh  875   3.025   1.789  14.382 -0.1033  0.4547 -0.2896
   98Eth     Co  876   3.153   1.820  14.331 -0.4431 -0.6395 -0.5817
   98Eth    Hco  877   3.148   1.885  14.244 -2.1452 -0.9533 -0.7303
   98Eth    Hco  878   3.209   1.729  14.309  2.4354  1.1316 -0.8547
   98Eth     Ch  879   3.234   1.903  14.433  0.5775 -0.6941 -0.2647
   98Eth    Hcc  880   3.321   1.952  14.390  0.9060  0.1192  1.2644
   98Eth    Hcc  881   3.250   1.844  14.524 -2.7126  0.4881  1.1641
   98Eth    Hcc  882   3.182   1.988  14.478 -0.0586 -1.9893  1.5335
   99Eth     Ho  883   1.704   2.496   8.412  1.4598  0.9166  0.8840
   99Eth     Oh  884   1.722   2.557   8.342 -0.5612 -0.0458 -0.4992
   99Eth     Co  885   1.596   2.615   8.305  0.0171 -0.0189  0.1003
   99Eth    Hco  886   1.562   2.691   8.375  2.7084  0.9678  0.3994
   99Eth    Hco  887   1.518   2.540   8.292  0.9976 -1.0319 -0.0713
   99Eth     Ch  888   1.588   2.663   8.160 -0.4224  0.1532  0.2099
   99Eth    Hcc  889   1.629   2.585   8.096  1.7720 -0.1527  1.9047
   99Eth    Hcc  890   1.656   2.747   8.142 -0.6839  0.1349 -0.8551
   99Eth    Hcc  891   1.489   2.693   8.124 -0.8083  0.4609  1.5049
  100Eth     Ho  892   0.643   2.355   8.062  6.0862 -0.3490  0.7428
  100Eth     Oh  893   0.630   2.285   8.122 -0.4460  0.0801  0.1923
  100Eth     Co  894   0.758   2.225   8.140  0.5236  0.2795 -0.4946
  100Eth    Hco  895   0.822   2.304   8.178 -1.1953  0.5115  2.0842
  100Eth    Hco  896   0.812   2.184   8.054 -0.3948  0.1812 -1.0363
  100Eth     Ch  897   0.749   2.126   8.260 -0.5941  0.2458 -0.5696
  100Eth    Hcc  898   0.691   2.040   8.229  1.5769 -0.2736 -3.4493
  100Eth    Hcc  899   0.717   2.178   8.351 -1.9971 -1.4427 -0.0755
  100Eth    Hcc  900   0.844   2.087   8.298  0.8495  4.2260  0.2193
  101Eth     Ho  901   1.959   3.133  12.458  1.1672  0.1415 -0.0605
  101Eth     Oh  902   1.957   3.194  12.386 -1.2928 -0.0786 -0.2114
  101Eth     Co  903   1.889   3.309  12.450 -0.2564 -1.2490  0.5002
  101Eth    Hco  904   1.950   3.355  12.528 -0.6279  0.4323 -0.1617
  101Eth    Hco  905   1.806   3.281  12.515  0.0755  0.2911  1.6223
  101Eth     Ch  906   1.835   3.406  12.340  0.2194 -0.4855 -0.2056
  101Eth    Hcc  907   1.742   3.365  12.301 -0.8816  4.2194 -2.8195
  101Eth    Hcc  908   1.917   3.419  12.271 -0.4478  4.9646 -0.1584
  101Eth    Hcc  909   1.792   3.498  12.380  1.2865 -0.5467  1.1073
  102Eth     Ho  910   1.081   0.581  11.591 -1.5404  1.6440  0.6845
  102Eth     Oh  911   1.014   0.529  11.551 -0.3933  0.7756 -0.1420
  102Eth     Co  912   1.003   0.403  11.617  0.6049  0.4336 -0.2167
  102Eth    Hco  913   1.043   0.419  11.717  0.2174  0.2424 -0.0318
  102Eth    Hco  914   1.064   0.330  11.565 -0.8583 -0.3214 -0.9148
  102Eth     Ch  915   0.858   0.357  11.624 -0.2522  0.3500 -0.3243
  102Eth    Hcc  916   0.846   0.275  11.695  1.3835 -0.8244 -1.3587
  102Eth    Hcc  917   0.827   0.313  11.529 -1.2689 -1.0183  0.6237
  102Eth    Hcc  918   0.794   0.440  11.655  0.7760  1.6440 -1.6263
  103Eth     Ho  919   1.278   1.276  10.905  0.8514 -2.0291 -0.6962
  103Eth     Oh  920   1.259   1.289  10.814  0.0839 -0.4687 -0.3227
  103Eth     Co  921   1.378   1.308  10.741  0.3487  0.9054  0.8282
  103Eth    Hco  922   1.451   1.236  10.779 -0.6114 -0.0329  0.8974
  103Eth    Hco  923   1.422   1.408  10.748  0.2059  1.0837 -0.7449
  103Eth     Ch  924   1.367   1.282  10.598 -0.2194 -0.3093 -0.0919
  103Eth    Hcc  925   1.465   1.294  10.552 -0.1133  1.0262  0.4633
  103Eth    Hcc  926   1.309   1.357  10.544  0.0069 -0.2000 -0.1832
  103Eth    Hcc  927   1.333   1.185  10.561  2.7946 -1.7922  0.8785
  104Eth     Ho  928   1.059   1.772   8.369 -1.3081 -0.6125  1.3374
  104Eth     Oh  929   1.051   1.700   8.309 -0.2032 -0.1545  0.6112
  104Eth     Co  930   1.178   1.650   8.288  0.3266 -0.1996 -1.0864
  104Eth    Hco  931   1.163   1.556   8.236  1.7529  0.5066 -2.8433
  104Eth    Hco  932   1.203   1.641   8.393 -0.5245  2.0992 -0.6578
  104Eth     Ch  933   1.267   1.742   8.207 -0.2370 -0.6346  0.2434
  104Eth    Hcc  934   1.234   1.732   8.103  0.9375  1.4970 -0.3538
  104Eth    Hcc  935   1.372   1.718   8.225  0.5043  1.8604 -0.5795
  104Eth    Hcc  936   1.258   1.847   8.233  0.2028 -0.1691 -1.4397
  105Eth     Ho  937   0.466   3.180   6.244  0.2783  0.3015 -0.5763
  105Eth     Oh  938   0.542   3.143   6.203  0.1577 -0.0593 -0.4732
  105Eth     Co  939   0.508   3.058   6.096  0.5325  0.2222 -0.4819
  105Eth    Hco  940   0.424   3.092   6.035  0.9653 -1.2446 -1.9431
  105Eth    Hco  941   0.474   2.965   6.141 -0.7279  1.1530  0.5289
  105Eth     Ch  942   0.638   3.016   6.022  0.2501 -0.2685  0.7179
  105Eth    Hcc  943   0.619   2.936   5.950 -0.0204 -1.1858  1.7993
  105Eth    Hcc  944   0.708   2.985   6.099  0.7360 -1.7858 -0.3243
  105Eth    Hcc  945   0.668   3.109   5.973 -0.3370  0.3084  1.4372
  106Eth     Ho  946   0.227   3.346  10.369 -1.9630  0.6131  0.2062
  106Eth     Oh  947   0.252   3.314  10.454  0.3241  1.0490 -0.2649
  106Eth     Co  948   0.282   3.180  10.464 -0.4114 -0.0317  0.0853
  106Eth    Hco  949   0.342   3.156  10.552  1.0236 -0.5265 -0.9890
  106Eth    Hco  950   0.337   3.158  10.372 -0.4342 -2.8427  0.6858
  106Eth     Ch  951   0.163   3.085  10.470 -0.3859  0.5672 -0.1324
  106Eth    Hcc  952   0.127   3.094  10.572 -2.5581 -0.1195 -0.8092
  106Eth    Hcc  953   0.190   2.981  10.451  1.2569  0.7278  1.2408
  106Eth    Hcc  954   0.088   3.114  10.396 -0.0703 -4.0889 -2.4018
  107Eth     Ho  955   3.109   0.263  13.329 -2.5733 -0.0819  0.2438
  107Eth     Oh  956   3.128   0.172  13.341  0.0887  0.3996 -0.0847
  107Eth     Co  957   3.190   0.117  13.219 -0.0021  0.0836 -0.7247
  107Eth    Hco  958   3.276   0.181  13.200  0.1194 -0.2012 -1.1578
  107Eth    Hco  959   3.114   0.126  13.141 -1.2363 -0.8452  0.3664
  107Eth     Ch  960   3.237  -0.032  13.215  0.0557  0.0360 -0.3666
  107Eth    Hcc  961   3.300  -0.064  13.298 -0.1737 -0.5626 -0.4164
  107Eth    Hcc  962   3.293  -0.056  13.124 -0.4704 -0.8731 -0.4531
  107Eth    Hcc  963   3.145  -0.090  13.216  0.4941 -0.7433 -2.3521
  108Eth     Ho  964   2.690   0.292  13.873 -0.8965 -1.4841  0.7249
  108Eth     Oh  965   2.775   0.271  13.906 -0.1603  0.4380  0.1224
  108Eth     Co  966   2.787   0.344  14.024  0.0737 -0.9670 -0.2125
  108Eth    Hco  967   2.720   0.426  13.997 -0.0216 -1.8472 -2.7947
  108Eth    Hco  968   2.893   0.362  14.047  0.3442 -0.6480 -1.6421
  108Eth     Ch  969   2.712   0.288  14.146  0.1396  0.5012  1.1674
  108Eth    Hcc  970   2.751   0.188  14.163  0.8025  0.4123 -0.7824
  108Eth    Hcc  971   2.612   0.259  14.115  0.8057  1.8850 -2.4831
  108Eth    Hcc  972   2.709   0.356  14.231  0.2539  1.3287  0.5167
  109Eth     Ho  973   0.513   1.061   6.149  0.3985  0.1743 -0.6856
  109Eth     Oh  974   0.549   0.982   6.185 -0.3282  0.2636  0.2394
  109Eth     Co  975   0.598   0.921   6.067  0.6424  0.2895  0.3136
  109Eth    Hco  976   0.701   0.953   6.050  0.2827  0.5488 -1.4427
  109Eth    Hco  977   0.532   0.957   5.988  0.1773 -2.0514 -0.4027
  109Eth     Ch  978   0.619   0.771   6.089  0.0208 -0.0843 -0.5222
  109Eth    Hcc  979   0.649   0.734   5.990 -0.9367 -0.1794 -0.7799
  109Eth    Hcc  980   0.531   0.711   6.111 -0.0078  0.3703  0.6408
  109Eth    Hcc  981   0.694   0.746   6.164  0.7309  2.2100 -0.4493
  110Eth     Ho  982   2.806   2.150  14.486  0.0859  1.2756 -1.1914
  110Eth     Oh  983   2.739   2.207  14.519 -0.1035  0.2973  0.1603
  110Eth     Co  984   2.618   2.144  14.511  0.2446  0.2065 -0.1873
  110Eth    Hco  985   2.538   2.208  14.548  0.1846  0.5850 -0.9669
  110Eth    Hco  986   2.617   2.054  14.574  2.8281 -0.2528 -0.7266
  110Eth     Ch  987   2.572   2.105  14.372  0.1763  0.6089  0.1744
  110Eth    Hcc  988   2.652   2.052  14.320 -0.9336 -0.4935 -0.4363
  110Eth    Hcc  989   2.560   2.194  14.311 -0.8101  0.0264 -0.4824
  110Eth    Hcc  990   2.479   2.049  14.377  1.4114 -1.4478  0.6844
  111Eth     Ho  991   2.353   2.208  14.589  0.7248  0.4013  0.8272
  111Eth     Oh  992   2.281   2.161  14.626  0.0266  0.6813 -0.1604
  111Eth     Co  993   2.158   2.223  14.586  0.3219  0.0028  0.0944
  111Eth    Hco  994   2.164   2.227  14.477 -0.3704  0.6098  0.0749
  111Eth    Hco  995   2.164   2.325  14.626 -1.1060  0.0184  0.2882
  111Eth     Ch  996   2.036   2.132  14.630  0.0909 -0.1999  0.1462
  111Eth    Hcc  997   1.947   2.194  14.636  0.9091  1.5060 -3.7555
  111Eth    Hcc  998   2.060   2.091  14.728  0.5174 -2.4304 -0.8644
  111Eth    Hcc  999   2.012   2.049  14.563  1.7430 -1.1044  0.6550
  112Eth     Ho 1000   2.729   2.647  13.918 -0.2708  0.0962 -0.4422
  112Eth     Oh 1001   2.675   2.709  13.964 -0.0337 -0.1958  0.2436
  112Eth     Co 1002   2.734   2.796  14.052 -0.5933  0.2700 -0.6419
  112Eth    Hco 1003   2.814   2.850  14.002 -0.0218 -0.3131 -0.3557
  112Eth    Hco 1004   2.771   2.748  14.143 -1.2515  0.4320 -0.2846
  112Eth     Ch 1005   2.620   2.897  14.096 -0.1546 -0.5645 -0.1908
  112Eth    Hcc 1006   2.587   2.960  14.014  1.4753 -0.6790 -0.9660
  112Eth    Hcc 1007   2.636   2.958  14.186  0.6326 -1.2017  0.1113
  112Eth    Hcc 1008   2.532   2.840  14.125 -0.0703 -1.2740 -1.3488
  113Eth     Ho 1009   2.074   2.427  13.504  0.9517 -0.2316 -0.3612
  113Eth     Oh 1010   2.001   2.395  13.453  0.0888  0.2116  0.5831
  113Eth     Co 1011   1.890   2.365  13.532  0.7546  0.5073  0.3001
  113Eth    Hco 1012   1.852   2.446  13.595  2.8662  1.2195  0.6998
  113Eth    Hco 1013   1.920   2.289  13.604  0.6806  0.3417  0.1537
  113Eth     Ch 1014   1.771   2.303  13.439  0.1686 -0.3011  0.2793
  113Eth    Hcc 1015   1.799   2.199  13.424  1.4742 -0.1023  1.2804
  113Eth    Hcc 1016   1.751   2.349  13.342 -1.6969 -1.7880 -0.0767
  113Eth    Hcc 1017   1.673   2.299  13.488 -1.0891  1.2273 -2.0296
  114Eth     Ho 1018   1.474   2.159   8.073 -1.3173 -1.9712  0.8298
  114Eth     Oh 1019   1.417   2.167   7.999  0.3017  0.2708 -0.2334
  114Eth     Co 1020   1.309   2.246   8.046 -0.0929  0.1323  0.1110
  114Eth    Hco 1021   1.248   2.277   7.961 -0.1589 -0.3453 -0.0144
  114Eth    Hco 1022   1.360   2.334   8.086 -1.0383  1.4129 -1.4096
  114Eth     Ch 1023   1.208   2.180   8.146 -0.2166  0.4271  0.4052
  114Eth    Hcc 1024   1.256   2.160   8.241  0.1260  2.1148  0.6070
  114Eth    Hcc 1025   1.178   2.083   8.106 -2.0062  1.3518 -0.5843
  114Eth    Hcc 1026   1.116   2.238   8.155 -1.8246 -2.4201  2.7827
  115Eth     Ho 1027   1.301   2.478  10.949  2.1731  0.8451  0.2034
  115Eth     Oh 1028   1.339   2.406  10.995 -0.0303 -0.6266 -0.1992
  115Eth     Co 1029   1.457   2.451  11.064  0.6799 -0.1761  0.4059
  115Eth    Hco 1030   1.444   2.501  11.160  1.7478  1.2534 -0.1776
  115Eth    Hco 1031   1.499   2.541  11.019 -2.7746  0.2130 -2.1956
  115Eth     Ch 1032   1.563   2.341  11.056  1.0176 -0.6181  1.0383
  115Eth    Hcc 1033   1.592   2.309  10.956 -0.7841  1.3885 -0.1602
  115Eth    Hcc 1034   1.525   2.255  11.111 -1.8224 -0.8740 -1.2235
  115Eth    Hcc 1035   1.657   2.369  11.104  0.6686  0.1077  1.3082
  116Eth     Ho 1036   0.053   0.322  14.439 -0.0744  0.1598 -2.9558
  116Eth     Oh 1037   0.141   0.293  14.453 -0.4280  0.3690  0.0275
  116Eth     Co 1038   0.185   0.341  14.583 -0.7626  0.3815 -0.7686
  116Eth    Hco 1039   0.126   0.302  14.666 -1.1143 -1.0947 -1.6758
  116Eth    Hco 1040   0.167   0.448  14.579 -4.7592 -0.1905 -0.2460
  116Eth     Ch 1041   0.331   0.310  14.620 -0.3438  0.8066  0.5362
  116Eth    Hcc 1042   0.394   0.369  14.553  1.1078 -2.0258 -0.6879
  116Eth    Hcc 1043   0.343   0.202  14.614  0.3409  0.8598  0.9353
  116Eth    Hcc 1044   0.355   0.350  14.718  4.6690 -3.3534  1.2168
  117Eth     Ho 1045   0.640   1.486   9.629  1.5124  2.0627 -0.0416
  117Eth     Oh 1046   0.669   1.456   9.713 -0.2350  0.3609 -0.0274
  117Eth     Co 1047   0.808   1.438   9.723 -0.5574 -0.6570  0.9128
  117Eth    Hco 1048   0.860   1.532   9.706  0.2577 -1.2341  0.1136
  117Eth    Hco 1049   0.835   1.375   9.638 -1.1574  0.8719 -0.4295
  117Eth     Ch 1050   0.856   1.374   9.854  0.4302  0.2235  0.4650
  117Eth    Hcc 1051   0.790   1.296   9.893  0.9799 -0.6400 -0.3138
  117Eth    Hcc 1052   0.890   1.444   9.930 -1.6781  0.8399  0.8848
  117Eth    Hcc 1053   0.954   1.331   9.835  1.8280  3.3134  0.3533
  118Eth     Ho 1054   1.219   2.075   6.953  1.1248 -0.0730  1.1982
  118Eth     Oh 1055   1.158   2.141   6.979 -0.5596 -1.0622 -0.1557
  118Eth     Co 1056   1.189   2.251   6.891 -0.0680  0.0436  0.1620
  118Eth    Hco 1057   1.187   2.208   6.791  0.1713  0.9014 -0.2170
  118Eth    Hco 1058   1.289   2.294   6.903 -0.1017  0.1715 -0.0211
  118Eth     Ch 1059   1.084   2.358   6.912  0.1514  0.0830  0.7382
  118Eth    Hcc 1060   0.982   2.329   6.885  1.0526 -2.3708 -0.2042
  118Eth    Hcc 1061   1.119   2.448   6.863 -2.2500  1.4869  1.4995
  118Eth    Hcc 1062   1.081   2.393   7.016 -0.1995  0.2051  0.6875
  119Eth     Ho 1063   1.986   1.296  14.146  2.8897 -1.3070  2.1156
  119Eth     Oh 1064   1.966   1.219  14.097  0.1460  0.4671  0.3091
  119Eth     Co 1065   1.832   1.191  14.115 -0.6470  0.1426 -0.7751
  119Eth    Hco 1066   1.783   1.287  14.094  1.1400  1.2292 -0.0250
  119Eth    Hco 1067   1.805   1.174  14.219 -1.0995 -2.3968 -1.2801
  119Eth     Ch 1068   1.803   1.090  14.011  0.7771  0.6904  0.1580
  119Eth    Hcc 1069   1.866   1.001  14.020 -0.3866 -0.0205  1.6191
  119Eth    Hcc 1070   1.812   1.140  13.915  0.4741  0.2132 -0.1204
  119Eth    Hcc 1071   1.703   1.047  14.009 -0.6550  3.9227 -0.3486
  120Eth     Ho 1072   2.022   3.067   5.972 -0.3230 -1.6598  1.2849
  120Eth     Oh 1073   2.017   3.008   5.898  0.5397 -0.1454 -0.0160
  120Eth     Co 1074   2.024   3.090   5.780 -0.3061 -0.5255 -0.0956
  120Eth    Hco 1075   1.956   3.176   5.789 -0.1708 -0.5717  1.5482
  120Eth    Hco 1076   2.003   3.035   5.689 -0.6134 -1.1600  0.3543
  120Eth     Ch 1077   2.166   3.154   5.787 -1.0416 -0.0846  0.9673
  120Eth    Hcc 1078   2.192   3.211   5.876  0.5478  2.0649 -0.8494
  120Eth    Hcc 1079   2.183   3.223   5.705  1.5102 -0.1818  1.3769
  120Eth    Hcc 1080   2.237   3.074   5.766 -0.7299  0.0856  1.3607
  121Eth     Ho 1081   0.128   1.188  14.147  0.0428  1.8401 -3.1364
  121Eth     Oh 1082   0.215   1.218  14.169  0.0868 -0.2169 -0.1461
  121Eth     Co 1083   0.235   1.157  14.294  0.0503  0.8250  0.0627
  121Eth    Hco 1084   0.230   1.049  14.278 -1.6081  0.4699  2.5484
  121Eth    Hco 1085   0.151   1.189  14.356  0.0260 -0.6338  0.8016
  121Eth     Ch 1086   0.359   1.211  14.370  0.0582  0.1940  0.4323
  121Eth    Hcc 1087   0.365   1.320  14.372 -0.5836  0.2726 -1.3980
  121Eth    Hcc 1088   0.452   1.174  14.329  0.2589  3.3685 -2.1778
  121Eth    Hcc 1089   0.358   1.176  14.473 -0.9191 -1.6459 -0.1809
  122Eth     Ho 1090   2.347   2.716  14.249 -0.4903 -3.6013 -0.2520
  122Eth     Oh 1091   2.310   2.718  14.335  0.3081 -0.2640  0.0984
  122Eth     Co 1092   2.392   2.659  14.432  0.2894  0.0656  0.1888
  122Eth    Hco 1093   2.369   2.697  14.532  1.3647 -1.6473  1.1175
  122Eth    Hco 1094   2.493   2.696  14.418  1.2185 -2.2075  0.6747
  122Eth     Ch 1095   2.392   2.502  14.444  1.2513 -0.9043  0.5243
  122Eth    Hcc 1096   2.432   2.473  14.346 -1.3203  2.2779 -1.5818
  122Eth    Hcc 1097   2.295   2.463  14.473  0.8114  1.1974  1.9365
  122Eth    Hcc 1098   2.466   2.473  14.518  3.3833  0.5211 -0.9776
  123Eth     Ho 1099   1.760   1.594  14.188 -0.1764 -1.0013  0.2782
  123Eth     Oh 1100   1.813   1.607  14.264 -0.2863  0.9498  0.0370
  123Eth     Co 1101   1.739   1.551  14.379  0.0210  0.2622  0.0146
  123Eth    Hco 1102   1.744   1.442  14.375  0.3915  0.3409 -2.1344
  123Eth    Hco 1103   1.635   1.580  14.388  0.5885  2.5367 -0.5766
  123Eth     Ch 1104   1.818   1.589  14.508 -0.1250 -0.5689  0.6175
  123Eth    Hcc 1105   1.807   1.696  14.529 -1.9407 -0.8634  1.3166
  123Eth    Hcc 1106   1.922   1.562  14.491  0.2474  1.0865  0.1262
  123Eth    Hcc 1107   1.785   1.541  14.601 -0.1492 -0.7683  0.5064
  124Eth     Ho 1108   0.065   1.126   6.251  0.4625 -0.8408  0.0490
  124Eth     Oh 1109   0.147   1.138   6.206  0.4673  0.4384  0.3950
  124Eth     Co 1110   0.173   1.016   6.142  0.4741  0.0148 -0.0964
  124Eth    Hco 1111   0.078   0.962   6.149  0.5115  0.1162  1.2792
  124Eth    Hco 1112   0.252   0.958   6.189 -0.2945 -0.0199  1.1762
  124Eth     Ch 1113   0.211   1.039   6.000  0.4589 -0.3639 -0.4692
  124Eth    Hcc 1114   0.131   1.079   5.937 -0.7141 -2.3191 -0.2525
  124Eth    Hcc 1115   0.233   0.938   5.966 -1.7393 -1.1915  0.4780
  124Eth    Hcc 1116   0.297   1.103   5.982  1.2552 -1.9525 -2.5471
  125Eth     Ho 1117   0.540   2.246   5.953 -1.5124 -0.2119 -4.4392
  125Eth     Oh 1118   0.620   2.275   5.915  0.3363  0.0513 -0.5460
  125Eth     Co 1119   0.587   2.246   5.781  0.2302  0.7577 -0.0200
  125Eth    Hco 1120   0.486   2.286   5.777  0.2274  0.7223 -0.3228
  125Eth    Hco 1121   0.583   2.137   5.770  1.7167  0.3913  2.6633
  125Eth     Ch 1122   0.674   2.313   5.671  0.8095 -0.0310  0.6179
  125Eth    Hcc 1123   0.648   2.274   5.573  1.9673  0.0107  0.2917
  125Eth    Hcc 1124   0.779   2.296   5.696 -0.1266 -3.9732  2.1351
  125Eth    Hcc 1125   0.665   2.422   5.674  2.7259  0.2029 -1.1796
  126Eth     Ho 1126   1.006   2.546  13.387  1.5962 -1.0254 -0.4177
  126Eth     Oh 1127   0.968   2.471  13.344  0.1028 -0.2860 -0.4050
  126Eth     Co 1128   1.071   2.373  13.347 -0.6924 -0.0666 -0.2167
  126Eth    Hco 1129   1.150   2.411  13.282  0.9900  0.1737  1.9505
  126Eth    Hco 1130   1.046   2.276  13.303  2.3199 -0.6195 -0.8261
  126Eth     Ch 1131   1.116   2.342  13.485 -0.0080 -0.6225  0.0151
  126Eth    Hcc 1132   1.179   2.253  13.492  1.2612  0.2122 -0.6660
  126Eth    Hcc 1133   1.037   2.320  13.556 -0.3385  1.8368  0.4547
  126Eth    Hcc 1134   1.169   2.428  13.527 -0.9974  1.5607 -3.0521
  127Eth     Ho 1135   1.467   1.598   6.138  0.6703  0.1120  1.1807
  127Eth     Oh 1136   1.463   1.685   6.105 -0.0413 -0.2811  0.2012
  127Eth     Co 1137   1.545   1.673   5.997  0.0668 -0.5044 -0.3862
  127Eth    Hco 1138   1.490   1.604   5.933  1.1274 -2.4115  0.6976
  127Eth    Hco 1139   1.644   1.644   6.033  0.9159  0.0369 -2.1751
  127Eth     Ch 1140   1.548   1.814   5.930  0.0272  0.6426 -0.0749
  127Eth    Hcc 1141   1.446   1.839   5.900  0.8841  3.1813 -0.9698
  127Eth    Hcc 1142   1.609   1.825   5.840 -0.3581  0.7139 -0.3304
  127Eth    Hcc 1143   1.592   1.883   6.001 -0.8360 -0.8364  1.9453
  128Eth     Ho 1144   1.923   0.497  11.056  0.9317 -1.8854  1.5333
  128Eth     Oh 1145   1.978   0.459  10.990  0.4870 -0.0812  0.0893
  128Eth     Co 1146   2.113   0.488  11.023  0.7861  0.2445 -0.8437
  128Eth    Hco 1147   2.127   0.461  11.127 -2.3234  2.0078  0.1090
  128Eth    Hco 1148   2.136   0.594  11.012 -1.1098  0.8140  0.3756
  128Eth     Ch 1149   2.203   0.395  10.940 -0.1342  0.2360  0.0888
  128Eth    Hcc 1150   2.293   0.380  11.000 -1.1218 -1.7093  1.1266
  128Eth    Hcc 1151   2.230   0.433  10.842 -2.4803  1.9816  0.0854
  128Eth    Hcc 1152   2.172   0.292  10.923  2.2704 -0.4291 -0.5385
  129Eth     Ho 1153   2.687   2.498   7.460  0.0454  1.6560 -1.1256
  129Eth     Oh 1154   2.669   2.422   7.408 -0.4897  0.3891  0.8722
  129Eth     Co 1155   2.560   2.447   7.327  0.2128  0.8715 -0.3373
  129Eth    Hco 1156   2.596   2.501   7.239  1.8630  1.5105  0.7124
  129Eth    Hco 1157   2.495   2.521   7.375 -1.0615  0.4634 -1.3963
  129Eth     Ch 1158   2.479   2.331   7.296 -0.0761 -0.5381  0.0695
  129Eth    Hcc 1159   2.394   2.357   7.233  1.4033  0.6505 -1.4612
  129Eth    Hcc 1160   2.431   2.293   7.387  1.3151  0.3085  1.1797
  129Eth    Hcc 1161   2.533   2.254   7.241 -2.5945 -0.1137 -3.1355
  130Eth     Ho 1162   2.658   1.324  11.350 -0.0852  2.0220 -0.0589
  130Eth     Oh 1163   2.632   1.324  11.259  0.2776 -0.6031 -0.2151
  130Eth     Co 1164   2.659   1.190  11.218 -0.3663 -0.2827 -0.1283
  130Eth    Hco 1165   2.596   1.135  11.287 -0.0181 -1.3525 -0.6400
  130Eth    Hco 1166   2.764   1.160  11.222  0.0702  1.3472  1.2104
  130Eth     Ch 1167   2.619   1.166  11.076  0.6083  0.5854  0.4064
  130Eth    Hcc 1168   2.614   1.063  11.040  0.2663  1.3966 -1.9526
  130Eth    Hcc 1169   2.696   1.221  11.022  1.0303  0.5217  0.9430
  130Eth    Hcc 1170   2.518   1.206  11.065 -0.2402 -1.6979 -0.4556
  131Eth     Ho 1171   2.644   1.193  14.384  0.0176 -0.4269  0.8772
  131Eth     Oh 1172   2.664   1.104  14.363 -0.0239 -0.3830  0.6522
  131Eth     Co 1173   2.714   1.053  14.487 -0.0605 -0.3315 -0.2726
  131Eth    Hco 1174   2.645   1.099  14.559  1.9893  3.6208 -0.7356
  131Eth    Hco 1175   2.809   1.104  14.499  1.0060 -1.6050 -2.9337
  131Eth     Ch 1176   2.714   0.901  14.499  0.6355  0.4754 -0.4920
  131Eth    Hcc 1177   2.800   0.865  14.556  0.0641 -0.1979 -0.0416
  131Eth    Hcc 1178   2.728   0.852  14.403  2.6833  0.8030 -0.3864
  131Eth    Hcc 1179   2.629   0.862  14.554  1.8153 -1.0360  0.3066
  132Eth     Ho 1180   2.585   1.481   7.514 -1.0216  0.4637  0.2192
  132Eth     Oh 1181   2.560   1.525   7.435 -0.1229  0.0614 -0.3018
  132Eth     Co 1182   2.566   1.433   7.328 -0.6288  0.1496  0.2290
  132Eth    Hco 1183   2.508   1.343   7.346 -0.2534  0.1673  1.5984
  132Eth    Hco 1184   2.672   1.407   7.316 -0.6918 -1.3065  2.5963
  132Eth     Ch 1185   2.503   1.485   7.197 -0.8289  0.4116  0.0279
  132Eth    Hcc 1186   2.528   1.412   7.121 -0.8264 -2.7987  2.9986
  132Eth    Hcc 1187   2.547   1.582   7.173  1.2749 -0.3004  0.8835
  132Eth    Hcc 1188   2.395   1.487   7.211 -0.8735  0.4187 -0.3100
  133Eth     Ho 1189   1.347   2.365   9.779 -1.2795 -0.3245 -1.3189
  133Eth     Oh 1190   1.317   2.454   9.774  0.2629  0.3058  0.0680
  133Eth     Co 1191   1.416   2.542   9.824 -0.2816 -0.4825 -0.4443
  133Eth    Hco 1192   1.427   2.522   9.930  0.0461 -1.1392 -0.6029
  133Eth    Hco 1193   1.515   2.535   9.778 -0.4569 -1.1987 -0.7132
  133Eth     Ch 1194   1.383   2.692   9.810 -0.4552 -0.3704  0.2103
  133Eth    Hcc 1195   1.311   2.706   9.890  0.2427 -1.6464  1.0839
  133Eth    Hcc 1196   1.343   2.715   9.711 -0.8686  0.0049  0.4708
  133Eth    Hcc 1197   1.472   2.750   9.834 -1.0323 -0.2352  2.0930
  134Eth     Ho 1198   1.414   1.876   9.120  0.2255  1.3223  0.8661
  134Eth     Oh 1199   1.322   1.894   9.120  0.0629  0.5451  0.3539
  134Eth     Co 1200   1.253   1.783   9.066 -0.1934  0.1772 -0.0584
  134Eth    Hco 1201   1.234   1.705   9.140 -0.9542 -2.9163 -3.3454
  134Eth    Hco 1202   1.311   1.734   8.987 -0.3954 -0.3169  0.0979
  134Eth     Ch 1203   1.126   1.856   9.025  1.1178  0.4717  0.4314
  134Eth    Hcc 1204   1.075   1.788   8.958 -0.9073  0.0609  2.3380
  134Eth    Hcc 1205   1.128   1.946   8.963  0.6942 -0.0896 -0.3928
  134Eth    Hcc 1206   1.065   1.867   9.114 -1.2903 -0.7480 -1.0179
  135Eth     Ho 1207   1.432   0.455   6.426  2.2797  0.1052  1.0551
  135Eth     Oh 1208   1.415   0.374   6.471  0.0327 -0.1859 -0.2072
  135Eth     Co 1209   1.375   0.407   6.604 -0.2325 -0.6517  0.6707
  135Eth    Hco 1210   1.315   0.498   6.600  2.4845  1.2454  1.3428
  135Eth    Hco 1211   1.461   0.429   6.668 -0.7157  0.2106  1.0248
  135Eth     Ch 1212   1.296   0.291   6.667 -0.4767 -0.4872 -0.8477
  135Eth    Hcc 1213   1.246   0.327   6.757 -1.0775 -2.4705 -0.3766
  135Eth    Hcc 1214   1.366   0.215   6.699  0.1923  0.2417 -0.5557
  135Eth    Hcc 1215   1.223   0.240   6.603  0.5979 -4.0075  0.6421
  136Eth     Ho 1216   1.537   2.308  14.259 -0.9062 -1.6374  3.7774
  136Eth     Oh 1217   1.629   2.319  14.276 -0.1877 -0.1363 -0.4182
  136Eth     Co 1218   1.681   2.202  14.335 -0.0343  0.2640 -0.4227
  136Eth    Hco 1219   1.643   2.122  14.272 -0.9530  1.9677 -2.0936
  136Eth    Hco 1220   1.632   2.191  14.432  0.7129 -0.7563 -0.1549
  136Eth     Ch 1221   1.836   2.199  14.344  0.2006  0.6474  0.0376
  136Eth    Hcc 1222   1.868   2.288  14.398  1.2691  1.0410 -1.1960
  136Eth    Hcc 1223   1.886   2.197  14.247  0.5728 -1.2814  0.2571
  136Eth    Hcc 1224   1.870   2.113  14.400  0.0951  0.2979 -0.4277
  137Eth     Ho 1225   0.845   2.413  14.176  1.6234  0.2187  2.8110
  137Eth     Oh 1226   0.810   2.494  14.208 -0.1293  0.4670  0.4028
  137Eth     Co 1227   0.704   2.462  14.301 -0.1952  0.0526 -0.5873
  137Eth    Hco 1228   0.739   2.439  14.401 -2.3475 -1.2157 -0.1144
  137Eth    Hco 1229   0.669   2.363  14.272 -1.8105  0.3240  0.4241
  137Eth     Ch 1230   0.587   2.565  14.312  0.6366  0.1324 -0.7537
  137Eth    Hcc 1231   0.628   2.657  14.352 -1.3662  0.3709  0.8526
  137Eth    Hcc 1232   0.509   2.531  14.380  2.5504 -1.4870  0.6792
  137Eth    Hcc 1233   0.547   2.580  14.212  0.6237 -2.0073 -1.0945
  138Eth     Ho 1234   1.640   1.218   8.381 -0.0478  0.0465 -1.7192
  138Eth     Oh 1235   1.714   1.161   8.375  0.2689  0.3007 -0.4966
  138Eth     Co 1236   1.737   1.077   8.490  0.2183  0.3604  0.2707
  138Eth    Hco 1237   1.647   1.015   8.495  0.7385 -0.2861  1.7302
  138Eth    Hco 1238   1.739   1.146   8.574  0.6475  1.7155 -0.8362
  138Eth     Ch 1239   1.872   1.001   8.483 -0.3679  0.0596  0.3768
  138Eth    Hcc 1240   1.954   1.073   8.486  0.0878 -0.3963 -0.7642
  138Eth    Hcc 1241   1.887   0.934   8.398 -2.8536 -1.8546  1.4045
  138Eth    Hcc 1242   1.895   0.938   8.568 -0.3461  0.0717  0.3808
  139Eth     Ho 1243   2.394   1.021   8.095 -0.5076  1.0807  0.5335
  139Eth     Oh 1244   2.411   1.085   8.028  0.8370  0.0401 -0.1185
  139Eth     Co 1245   2.345   1.045   7.913 -0.2183 -0.5709 -0.5392
  139Eth    Hco 1246   2.240   1.018   7.929 -1.5211  3.8080 -1.0689
  139Eth    Hco 1247   2.390   0.956   7.870 -1.4040 -1.5789  0.2726
  139Eth     Ch 1248   2.348   1.158   7.814 -0.2434  0.4650 -0.1527
  139Eth    Hcc 1249   2.337   1.252   7.868  0.9162 -0.1158  1.1191
  139Eth    Hcc 1250   2.265   1.147   7.745  1.0569 -2.5634 -1.3143
  139Eth    Hcc 1251   2.438   1.152   7.752  1.0494 -1.3198  1.8114
  140Eth     Ho 1252   2.166   3.464  14.278 -1.0613  1.1947  0.2556
  140Eth     Oh 1253   2.156   3.392  14.338  0.2805  0.6159 -0.1876
  140Eth     Co 1254   2.030   3.337  14.299  0.0295 -0.2075 -0.5770
  140Eth    Hco 1255   2.050   3.309  14.195 -1.3079  0.2611 -0.9692
  140Eth    Hco 1256   1.958   3.419  14.296 -0.3073 -0.5196 -1.0816
  140Eth     Ch 1257   1.979   3.214  14.378  0.0207 -0.6094 -0.2189
  140Eth    Hcc 1258   1.942   3.245  14.476 -4.0796  2.0918 -2.4595
  140Eth    Hcc 1259   2.058   3.140  14.389 -0.3337 -0.7817  1.2573
  140Eth    Hcc 1260   1.895   3.157  14.338 -1.6903 -0.7168  3.2814
  141Eth     Ho 1261   1.990   1.793   8.265 -0.4281  0.9478  0.2505
  141Eth     Oh 1262   1.923   1.751   8.216  0.4982  0.0427 -0.2412
  141Eth     Co 1263   1.843   1.841   8.163  0.3881 -0.7814  0.7307
  141Eth    Hco 1264   1.876   1.871   8.064 -0.3423 -0.9876  0.4200
  141Eth    Hco 1265   1.817   1.929   8.221  0.2885  0.7055 -1.5020
  141Eth     Ch 1266   1.708   1.780   8.130 -1.2550  0.6849  0.1146
  141Eth    Hcc 1267   1.658   1.757   8.224 -1.6166 -0.1923 -0.2809
  141Eth    Hcc 1268   1.731   1.692   8.069  2.7344  0.3308  1.9907
  141Eth    Hcc 1269   1.656   1.854   8.069 -0.0644  1.4699  0.0383
  142Eth     Ho 1270   3.116   1.970  12.497  0.4802  0.1650  0.8791
  142Eth     Oh 1271   3.046   1.953  12.557 -0.6256  0.1827 -0.3794
  142Eth     Co 1272   2.968   1.849  12.500  0.1987 -0.6259  0.4940
  142Eth    Hco 1273   3.035   1.765  12.483  0.2687  0.1252 -3.1517
  142Eth    Hco 1274   2.927   1.878  12.403 -1.3678 -1.3571  0.9165
  142Eth     Ch 1275   2.864   1.798  12.602 -0.2115  0.1103  0.3058
  142Eth    Hcc 1276   2.784   1.744  12.552  2.3712 -2.1947 -1.4715
  142Eth    Hcc 1277   2.822   1.879  12.662 -0.5926 -0.4249  0.7600
  142Eth    Hcc 1278   2.903   1.719  12.666 -0.2406 -0.2080 -0.0658
  143Eth     Ho 1279   2.644   2.182   7.459  1.8053 -0.9437  2.4224
  143Eth     Oh 1280   2.594   2.113   7.498  0.1416 -0.7489  0.7372
  143Eth     Co 1281   2.530   2.177   7.610  0.0017  0.5149 -0.4567
  143Eth    Hco 1282   2.434   2.206   7.569 -1.0937 -0.3366  1.4628
  143Eth    Hco 1283   2.570   2.271   7.647 -0.4905  0.7134 -0.4362
  143Eth     Ch 1284   2.534   2.078   7.738 -0.1179 -0.2915  0.1005
  143Eth    Hcc 1285   2.638   2.054   7.761 -0.5669 -1.3792  1.0860
  143Eth    Hcc 1286   2.471   1.991   7.717  0.9579 -0.4954 -2.4528
  143Eth    Hcc 1287   2.489   2.121   7.827 -0.5296  1.8711 -1.1369
  144Eth     Ho 1288   0.401   2.134   6.148 -0.9455 -1.4595 -0.7959
  144Eth     Oh 1289   0.378   2.181   6.070  0.5798  0.3483 -0.1999
  144Eth     Co 1290   0.274   2.274   6.097 -0.4736 -0.3299 -0.3362
  144Eth    Hco 1291   0.298   2.353   6.168  1.7651 -0.7919 -0.5435
  144Eth    Hco 1292   0.185   2.214   6.116 -2.0918  1.8049 -1.0230
  144Eth     Ch 1293   0.257   2.353   5.972  0.4379  0.1588 -0.0570
  144Eth    Hcc 1294   0.161   2.405   5.971  1.7626  2.7543  0.8748
  144Eth    Hcc 1295   0.236   2.292   5.884 -1.9644 -0.5107  0.9431
  144Eth    Hcc 1296   0.344   2.418   5.958  1.9123 -1.5532  0.9768
  145Eth     Ho 1297   2.338   0.910  10.958  0.0142 -0.3597 -0.4678
  145Eth     Oh 1298   2.385   0.889  11.037  0.0703  0.4760 -0.2768
  145Eth     Co 1299   2.290   0.892  11.146  0.9548 -0.3770 -0.2932
  145Eth    Hco 1300   2.218   0.811  11.133  1.1628 -0.2943 -2.1774
  145Eth    Hco 1301   2.226   0.981  11.144  3.6022  1.5853  0.1342
  145Eth     Ch 1302   2.362   0.872  11.282  0.4131 -0.3432 -0.9290
  145Eth    Hcc 1303   2.423   0.783  11.294 -0.2015 -0.5347  0.8452
  145Eth    Hcc 1304   2.293   0.876  11.366 -1.2523  2.2234 -2.3562
  145Eth    Hcc 1305   2.424   0.961  11.294  0.7854 -0.7546  0.2359
  146Eth     Ho 1306   2.968   1.841  12.077  1.0260  0.0969 -3.2996
  146Eth     Oh 1307   3.055   1.831  12.113 -0.2155  0.4251  0.0311
  146Eth     Co 1308   3.116   1.739  12.029 -0.7095 -0.1713 -0.0960
  146Eth    Hco 1309   3.110   1.786  11.931 -4.1206  0.9729  0.5824
  146Eth    Hco 1310   3.069   1.641  12.020 -1.0595 -0.2214  1.9778
  146Eth     Ch 1311   3.261   1.719  12.057 -0.4596 -0.3609 -0.1830
  146Eth    Hcc 1312   3.305   1.811  12.018 -0.6361  0.5102  1.6102
  146Eth    Hcc 1313   3.303   1.639  11.997  0.8053 -1.7422  2.4389
  146Eth    Hcc 1314   3.289   1.715  12.163  0.5862  0.3605 -0.4291
  147Eth     Ho 1315   1.505   1.313  14.186 -0.2624  1.5295  0.7391
  147Eth     Oh 1316   1.540   1.281  14.266  0.6031 -0.1979 -0.3000
  147Eth     Co 1317   1.441   1.309  14.368 -0.0549  0.6670 -0.1003
  147Eth    Hco 1318   1.347   1.341  14.321 -0.5549  0.2742  0.6175
  147Eth    Hco 1319   1.472   1.406  14.406 -2.2849  1.7468 -0.9294
  147Eth     Ch 1320   1.438   1.192  14.462 -0.4562 -0.7137  0.2316
  147Eth    Hcc 1321   1.387   1.104  14.421  0.7341 -0.1064 -2.6258
  147Eth    Hcc 1322   1.386   1.212  14.556 -0.4546 -1.2041  0.3388
  147Eth    Hcc 1323   1.542   1.165  14.478  0.6083  1.7323 -2.2761
  148Eth     Ho 1324   1.620   0.778  13.926 -1.7865 -1.7534  0.5480
  148Eth     Oh 1325   1.604   0.778  13.834 -0.2817 -0.1007  0.2422
  148Eth     Co 1326   1.597   0.642  13.793 -0.2555 -0.6776 -0.3108
  148Eth    Hco 1327   1.516   0.628  13.721 -0.2073  1.5989 -0.8419
  148Eth    Hco 1328   1.585   0.587  13.886  1.3809  3.8067  2.6821
  148Eth     Ch 1329   1.735   0.616  13.731  0.1868 -0.5247 -0.1467
  148Eth    Hcc 1330   1.811   0.685  13.767  1.4121 -2.8259  1.8212
  148Eth    Hcc 1331   1.732   0.642  13.626 -1.1000  2.8082  0.6558
  148Eth    Hcc 1332   1.783   0.518  13.740 -2.0978 -1.4416  3.4475
  149Eth     Ho 1333   0.651   1.020   7.641  1.4687 -0.8057  1.1981
  149Eth     Oh 1334   0.691   1.082   7.583 -0.6288 -0.5452 -0.0390
  149Eth     Co 1335   0.580   1.153   7.523  0.8074  0.1906 -0.3330
  149Eth    Hco 1336   0.520   1.204   7.599 -0.2656  0.3230 -1.2653
  149Eth    Hco 1337   0.516   1.078   7.476 -1.1075  0.7823  1.2451
  149Eth     Ch 1338   0.614   1.263   7.424  1.1496  0.2596 -0.1495
  149Eth    Hcc 1339   0.529   1.330   7.407  0.0848 -0.8521  0.6438
  149Eth    Hcc 1340   0.647   1.226   7.327 -0.7913  0.7676 -1.0240
  149Eth    Hcc 1341   0.699   1.319   7.462 -0.0767  0.5547  2.2651
  150Eth     Ho 1342   1.449   0.539   9.545  0.3900 -0.3079 -0.3188
  150Eth     Oh 1343   1.369   0.496   9.571  0.3651  0.2514  0.5525
  150Eth     Co 1344   1.408   0.364   9.622 -0.8100  0.0871 -0.2469
  150Eth    Hco 1345   1.473   0.380   9.708  0.1920 -0.3007 -0.9287
  150Eth    Hco 1346   1.469   0.308   9.552  2.2286 -0.5813  2.7954
  150Eth     Ch 1347   1.285   0.275   9.651  0.2127 -0.0066  0.0334
  150Eth    Hcc 1348   1.252   0.230   9.558 -1.0287 -3.0795  1.8761
  150Eth    Hcc 1349   1.201   0.316   9.708 -0.9635 -0.1787 -1.5454
  150Eth    Hcc 1350   1.327   0.191   9.707  2.9145  0.5215 -1.1226
  151Sol     OW 1351   0.165   1.557   6.932  0.2142 -0.2386  0.2082
  151Sol     HW 1352   0.204   1.618   6.996  0.0902 -1.1815  1.1992
  151Sol     HW 1353   0.224   1.481   6.933 -1.3013 -1.4278  1.2851
  151Sol     MW 1354   0.174   1.556   6.938 -0.0086 -0.2493 -0.3004
  152Sol     OW 1355   2.883   0.322  10.179  0.7177 -0.5615  0.0560
  152Sol     HW 1356   2.955   0.360  10.128  0.0051  0.0060 -0.5554
  152Sol     HW 1357   2.879   0.376  10.258 -0.1023  0.4797 -0.6761
  152Sol     MW 1358   2.889   0.330  10.181 -0.0803  0.5086  0.2458
  153Sol     OW 1359   2.512   2.096  13.157 -0.2539  0.2796  0.0620
  153Sol     HW 1360   2.449   2.024  13.150  0.2424 -0.1697  0.1552
  153Sol     HW 1361   2.459   2.173  13.173 -0.6974 -0.3281  1.6023
  153Sol     MW 1362   2.502   2.096  13.158  0.0126 -0.5923 -0.6811
  154Sol     OW 1363   1.941   1.463  13.325  0.0107  0.0720  0.6322
  154Sol     HW 1364   2.013   1.416  13.366  0.0605  0.0168  0.4834
  154Sol     HW 1365   1.973   1.553  13.316 -0.1040  0.1463  0.9648
  154Sol     MW 1366   1.951   1.467  13.328  0.2144 -0.0187  0.7373
  155Sol     OW 1367   0.554   0.916   6.830 -0.0375 -0.2963  0.4408
  155Sol     HW 1368   0.555   0.830   6.789 -1.6241  0.2600 -0.8082
  155Sol     HW 1369   0.523   0.975   6.761 -0.6310  0.9877  1.7867
  155Sol     MW 1370   0.551   0.914   6.820 -0.5746 -0.1929  0.0206
  156Sol     OW 1371   0.863   2.569   7.177 -0.1576  0.1897 -1.0080
  156Sol     HW 1372   0.956   2.591   7.177  0.1153 -0.8936 -2.4222
  156Sol     HW 1373   0.838   2.573   7.270  1.3339  0.3096 -0.5891
  156Sol     MW 1374   0.869   2.571   7.186 -0.3992  0.1693 -0.5484
  157Sol     OW 1375   0.483   2.987  10.167 -0.4745  0.0479  0.1538
  157Sol     HW 1376   0.510   3.062  10.221  1.5732 -1.1077  0.7942
  157Sol     HW 1377   0.527   3.001  10.083 -0.9255  0.0974 -0.0737
  157Sol     MW 1378   0.489   2.995  10.164 -0.4553  0.2377 -0.7037
  158Sol     OW 1379   3.301   1.403   8.883 -0.4061  0.1420 -0.5915
  158Sol     HW 1380   3.302   1.346   8.806 -0.1641 -0.4878 -0.1267
  158Sol     HW 1381   3.273   1.346   8.954 -0.6852  0.7388 -0.2272
  158Sol     MW 1382   3.299   1.393   8.882  0.1703  0.2455  0.3769
  159Sol     OW 1383   2.757   2.584   6.551  0.2597  0.1748  0.3018
  159Sol     HW 1384   2.688   2.624   6.498  1.6548  0.7417 -1.1332
  159Sol     HW 1385   2.814   2.542   6.487 -0.2773 -2.7182  1.6776
  159Sol     MW 1386   2.756   2.584   6.540  0.7792  1.0771  0.2690
  160Sol     OW 1387   0.248   2.057   8.780  0.0894  0.2862 -0.1685
  160Sol     HW 1388   0.316   2.120   8.756 -0.1997  0.5200 -0.3688
  160Sol     HW 1389   0.231   2.075   8.873  1.2691 -0.6807  0.2519
  160Sol     MW 1390   0.253   2.065   8.786 -0.5119  0.0861 -0.0964
  161Sol     OW 1391   2.912   0.426  10.436  0.2738  0.7496  0.1528
  161Sol     HW 1392   2.857   0.500  10.412  0.0588 -0.2749 -2.7677
  161Sol     HW 1393   2.850   0.361  10.470  0.1157  0.9435  0.2356
  161Sol     MW 1394   2.901   0.426  10.437 -0.1054 -0.5522  0.0615
  162Sol     OW 1395   0.447   1.070  10.480 -0.3932 -0.5358 -0.6900
  162Sol     HW 1396   0.363   1.040  10.514 -0.1699  0.2530  0.6097
  162Sol     HW 1397   0.506   1.064  10.555  0.4715 -0.1516 -1.3353
  162Sol     MW 1398   0.445   1.066  10.490  0.9498 -0.1568  0.0778
  163Sol     OW 1399   0.285   2.304  13.916 -0.0631 -0.2509 -0.1436
  163Sol     HW 1400   0.284   2.395  13.943 -0.9144 -0.2253 -0.2529
  163Sol     HW 1401   0.376   2.275  13.931 -0.7008 -0.5198  3.6475
  163Sol     MW 1402   0.293   2.309  13.919 -0.3316 -0.2970  0.6907
  164Sol     OW 1403   2.156   2.235   8.292 -0.2885  0.2732 -0.1014
  164Sol     HW 1404   2.171   2.141   8.288  0.5951  0.4324 -0.6035
  164Sol     HW 1405   2.063   2.244   8.314 -0.3306 -0.7124  0.1275
  164Sol     MW 1406   2.149   2.227   8.294  0.6174 -0.2910  0.0769
  165Sol     OW 1407   0.302   0.710  11.669 -0.0706  0.3393  0.6232
  165Sol     HW 1408   0.275   0.772  11.602  0.8696  2.4081  2.1120
  165Sol     HW 1409   0.384   0.672  11.635 -2.2892 -2.5688 -1.7756
  165Sol     MW 1410   0.307   0.712  11.660 -0.0493  0.4082  0.1127
  166Sol     OW 1411   2.881   2.393  10.370 -0.5763  0.0981 -0.1444
  166Sol     HW 1412   2.838   2.325  10.421  0.2819 -0.3836 -0.0598
  166Sol     HW 1413   2.814   2.461  10.359 -0.4400  0.7195  2.5618
  166Sol     MW 1414   2.871   2.393  10.374  0.1789 -0.4555 -0.5602
  167Sol     OW 1415   3.181   0.816  13.235 -0.7184 -0.0488  0.2658
  167Sol     HW 1416   3.133   0.769  13.304 -2.0198  0.9975  0.0968
  167Sol     HW 1417   3.241   0.751  13.199 -0.1486 -0.6434  2.2756
  167Sol     MW 1418   3.182   0.806  13.238 -0.1158  0.0808 -0.1821
  168Sol     OW 1419   0.313   3.012   6.467 -0.3619 -0.0645 -0.9866
  168Sol     HW 1420   0.366   3.062   6.529  0.2646  0.2648 -1.7799
  168Sol     HW 1421   0.252   2.962   6.522  1.4864 -1.2756 -0.0108
  168Sol     MW 1422   0.312   3.012   6.478 -0.2138  0.5251 -0.0908
  169Sol     OW 1423   0.510   2.490  11.549  0.2527 -0.6024 -0.5666
  169Sol     HW 1424   0.423   2.486  11.509  0.3680 -2.4237 -0.6912
  169Sol     HW 1425   0.561   2.547  11.490 -0.6988  0.0213 -0.7916
  169Sol     MW 1426   0.507   2.495  11.540  0.1242 -0.5890  0.0975
  170Sol     OW 1427   2.383   1.489  11.468 -0.1065 -0.3121  0.4362
  170Sol     HW 1428   2.326   1.553  11.426  0.3950  0.6028  1.1431
  170Sol     HW 1429   2.455   1.540  11.505  0.6499 -1.3502  0.4290
  170Sol     MW 1430   2.384   1.499  11.468 -0.2181  0.0783  0.3863
  171Sol     OW 1431   2.716   3.396  10.678 -0.2922 -0.5781  0.9063
  171Sol     HW 1432   2.627   3.373  10.649 -1.0037  0.4784  2.1445
  171Sol     HW 1433   2.743   3.467  10.620  1.0609 -3.0105 -1.5481
  171Sol     MW 1434   2.710   3.400  10.670  0.0800 -0.0014 -0.3525
  172Sol     OW 1435   3.149   3.183  11.329  0.1538  0.2655 -0.2711
  172Sol     HW 1436   3.104   3.248  11.383 -0.3363 -1.2556  1.2277
  172Sol     HW 1437   3.236   3.176  11.367  0.1119 -0.1409 -0.2415
  172Sol     MW 1438   3.153   3.188  11.337  0.5650  0.1512 -0.7866
  173Sol     OW 1439   2.179   0.565  13.648 -0.2732 -0.1377  0.0924
  173Sol     HW 1440   2.219   0.521  13.574 -0.8689 -1.1396  0.3549
  173Sol     HW 1441   2.091   0.528  13.654 -1.0302  1.5714 -0.0863
  173Sol     MW 1442   2.175   0.558  13.642  0.5549  0.2630  0.3514
  174Sol     OW 1443   1.512   2.606   6.664 -0.0998 -0.3064 -0.1874
  174Sol     HW 1444   1.453   2.602   6.739  0.9467 -2.4272  0.5491
  174Sol     HW 1445   1.542   2.697   6.662 -0.3580 -0.1506  1.7868
  174Sol     MW 1446   1.509   2.614   6.670 -0.5450  0.0932 -0.8135
  175Sol     OW 1447   0.147   2.600   9.424 -0.1108  0.3070 -0.3759
  175Sol     HW 1448   0.091   2.656   9.477  0.4425 -0.2197  0.7835
  175Sol     HW 1449   0.212   2.659   9.387 -0.5182  0.6855 -0.4917
  175Sol     MW 1450   0.147   2.610   9.426  0.5893 -0.0060 -0.0918
  176Sol     OW 1451   1.242   0.250  11.826  0.2527 -0.6997  0.3890
  176Sol     HW 1452   1.243   0.210  11.739 -0.2960  2.2122 -0.9915
  176Sol     HW 1453   1.172   0.204  11.873 -0.1587 -1.5576 -1.0282
  176Sol     MW 1454   1.236   0.242  11.822 -0.5032 -0.6769  0.0216
  177Sol     OW 1455   1.716   0.908  12.343 -0.1275 -0.0769 -0.0797
  177Sol     HW 1456   1.783   0.859  12.390  0.9411  2.2641  0.9118
  177Sol     HW 1457   1.760   0.989  12.316 -2.0111  0.6407 -1.1061
  177Sol     MW 1458   1.726   0.911  12.345 -0.3273 -0.5789  0.1654
  178Sol     OW 1459   1.396   3.364   8.775 -0.6156  0.1317  0.1319
  178Sol     HW 1460   1.347   3.321   8.705 -2.3044  2.9846 -0.5111
  178Sol     HW 1461   1.330   3.408   8.828  0.8821  0.2541  1.9419
  178Sol     MW 1462   1.386   3.364   8.773  0.0953  0.3263 -0.4598
  179Sol     OW 1463   1.842   1.989  13.701  0.4598  0.0858 -0.8650
  179Sol     HW 1464   1.885   1.958  13.622 -2.1327 -2.0297 -1.5413
  179Sol     HW 1465   1.845   1.914  13.761  0.8432  1.0822  0.3703
  179Sol     MW 1466   1.846   1.979  13.699 -0.3585 -0.6201 -0.1026
  180Sol     OW 1467   2.515   0.616   9.822  0.4006  0.4275 -0.3447
  180Sol     HW 1468   2.536   0.637   9.913  1.4814 -1.5679 -0.0891
  180Sol     HW 1469   2.433   0.568   9.827 -1.0281  2.7740 -0.7276
  180Sol     MW 1470   2.510   0.613   9.831 -0.9296 -0.3231  0.5253
  181Sol     OW 1471   1.543   1.952  12.952 -0.2190 -0.0637 -0.3248
  181Sol     HW 1472   1.612   1.915  12.898  0.2417  0.1243  0.1367
  181Sol     HW 1473   1.507   1.877  13.000 -0.4188 -0.1783 -0.6446
  181Sol     MW 1474   1.546   1.942  12.951 -0.2498  0.4708 -0.1416
  182Sol     OW 1475   3.284   1.167   9.819  0.4566  0.1697 -0.2014
  182Sol     HW 1476   3.340   1.101   9.776 -0.0148 -0.2930 -0.1031
  182Sol     HW 1477   3.308   1.249   9.776  0.7646 -0.1261 -0.6023
  182Sol     MW 1478   3.291   1.168   9.811 -0.2125  0.2104  0.2341
  183Sol     OW 1479   0.691   1.644  12.112 -1.2132 -0.2443 -0.2780
  183Sol     HW 1480   0.621   1.589  12.077 -1.6407  0.0746  0.0695
  183Sol     HW 1481   0.764   1.633  12.050 -2.0251  0.4693 -1.3585
  183Sol     MW 1482   0.692   1.638  12.103  0.2246 -0.1905 -0.1246
  184Sol     OW 1483   2.030   0.497   7.627 -0.3390 -0.5540  0.6099
  184Sol     HW 1484   1.937   0.507   7.609 -0.4859 -0.3619  1.4364
  184Sol     HW 1485   2.035   0.424   7.688  0.0146 -0.3177  0.8653
  184Sol     MW 1486   2.022   0.491   7.631  0.3685  0.0056  0.9212
  185Sol     OW 1487   3.324   1.907  10.664 -0.3758  0.0730 -0.1565
  185Sol     HW 1488   3.287   1.828  10.625 -3.1573  0.5422  1.3768
  185Sol     HW 1489   3.249   1.966  10.674  1.1368  1.8019  1.3367
  185Sol     MW 1490   3.314   1.905  10.661 -0.3373  0.1377 -0.3134
  186Sol     OW 1491   1.465   3.314   7.422 -0.3784 -0.4555 -0.0217
  186Sol     HW 1492   1.509   3.347   7.500 -1.0373 -1.7925  0.9401
  186Sol     HW 1493   1.532   3.264   7.376  0.4396  1.6278 -1.1412
  186Sol     MW 1494   1.475   3.312   7.425  0.1024  0.2124 -0.4427
  187Sol     OW 1495   2.683   0.614   7.132  0.2157 -0.1463  0.1673
  187Sol     HW 1496   2.618   0.545   7.120  0.6851 -0.6735  0.6347
  187Sol     HW 1497   2.680   0.633   7.226 -0.7398  1.2860 -0.1344
  187Sol     MW 1498   2.677   0.610   7.139  0.3271  0.1156 -0.2861
  188Sol     OW 1499   0.364   1.360  12.782  0.1416 -0.1192 -0.1714
  188Sol     HW 1500   0.320   1.394  12.860 -0.3234  0.1893 -0.5653
  188Sol     HW 1501   0.381   1.437  12.729  2.9986  0.0235  0.8847
  188Sol     MW 1502   0.362   1.370  12.784  0.1779 -0.5790 -0.2978
  189Sol     OW 1503   3.280   0.491   7.564 -0.0943  0.2445 -0.3336
  189Sol     HW 1504   3.203   0.495   7.507 -0.1682  0.3167 -0.2286
  189Sol     HW 1505   3.353   0.515   7.506 -0.5801  3.6233  0.3618
  189Sol     MW 1506   3.280   0.494   7.553 -0.3955 -0.0227 -0.7168
  190Sol     OW 1507   1.327   0.867   9.803 -0.0973 -0.2939 -0.2295
  190Sol     HW 1508   1.274   0.946   9.813 -1.4574 -0.6076 -4.2109
  190Sol     HW 1509   1.405   0.895   9.756  0.3133 -1.0158 -0.0039
  190Sol     MW 1510   1.329   0.876   9.800  0.2512  0.7240  0.2023
  191Sol     OW 1511   0.585   0.247   7.100 -0.2044  0.0522 -0.0588
  191Sol     HW 1512   0.502   0.211   7.131  0.9788 -0.2861  2.9191
  191Sol     HW 1513   0.643   0.171   7.094  0.1545  0.4125 -1.1829
  191Sol     MW 1514   0.583   0.237   7.102  0.1425 -0.8883  0.2245
  192Sol     OW 1515   2.021   0.466   7.025  1.0851  0.2144  0.5390
  192Sol     HW 1516   1.986   0.525   6.957  0.2180 -1.7490 -0.7593
  192Sol     HW 1517   2.088   0.415   6.980  1.3616 -0.2619  1.4859
  192Sol     MW 1518   2.024   0.467   7.015  0.3750  0.1562  0.2975
  193Sol     OW 1519   0.115   2.641   7.546  0.2698  0.4221  0.1161
  193Sol     HW 1520   0.036   2.615   7.498  1.3883 -0.6293 -1.1824
  193Sol     HW 1521   0.110   2.737   7.549 -2.4382  0.2997  2.4935
  193Sol     MW 1522   0.107   2.648   7.542 -0.8314 -0.3908  0.5906
  194Sol     OW 1523   1.985   2.182  12.343 -0.5733  0.3331 -0.0142
  194Sol     HW 1524   1.919   2.117  12.322  0.4483 -0.7129 -0.0584
  194Sol     HW 1525   2.059   2.161  12.286 -0.5065  2.0135 -0.5958
  194Sol     MW 1526   1.986   2.175  12.336  0.2593  0.2214  0.0851
  195Sol     OW 1527   0.557   3.259  10.281  0.9535 -0.0062 -0.5015
  195Sol     HW 1528   0.499   3.323  10.240 -0.2273  0.1325  1.3328
  195Sol     HW 1529   0.570   3.292  10.369 -0.3537 -2.7173  0.7639
  195Sol     MW 1530   0.553   3.267  10.285  0.0500  0.0415  0.0148
  196Sol     OW 1531   1.485   2.617   7.385 -0.2546 -0.0716 -0.3830
  196Sol     HW 1532   1.487   2.590   7.477 -1.2656  0.2417 -0.2664
  196Sol     HW 1533   1.577   2.621   7.360  0.0220 -0.4617  0.5263
  196Sol     MW 1534   1.493   2.615   7.391 -0.1186 -0.3973  0.8521
  197Sol     OW 1535   2.119   0.698  12.899 -0.4505 -0.3394 -0.2260
  197Sol     HW 1536   2.049   0.761  12.914  0.2019  0.1550  0.8471
  197Sol     HW 1537   2.198   0.752  12.889 -0.0580 -0.9330 -0.3840
  197Sol     MW 1538   2.120   0.708  12.899  0.1114 -0.2938  0.2191
  198Sol     OW 1539   3.319   2.470   9.063  0.5069  0.0438  0.1729
  198Sol     HW 1540   3.408   2.456   9.095  0.3570 -0.5336  0.3417
  198Sol     HW 1541   3.299   2.561   9.087 -0.1436 -0.8259  3.0792
  198Sol     MW 1542   3.325   2.477   9.068  0.0076 -0.4391 -0.5060
  199Sol     OW 1543   0.813   3.272  10.222  0.0627  0.2616 -0.3728
  199Sol     HW 1544   0.718   3.267  10.232  0.0734  2.1928  0.9795
  199Sol     HW 1545   0.830   3.362  10.195  1.5413  0.0232 -0.2827
  199Sol     MW 1546   0.806   3.280  10.221 -0.3031 -0.3856 -0.0106
  200Sol     OW 1547   0.624   2.544   6.609  0.4565  0.5474  0.3140
  200Sol     HW 1548   0.659   2.612   6.551 -1.2008  1.2028  0.0752
  200Sol     HW 1549   0.587   2.592   6.683  2.6568 -0.2968  2.0074
  200Sol     MW 1550   0.624   2.554   6.610  0.1330  0.2614 -0.4704
  201Sol     OW 1551   1.239   2.062   6.257 -0.0273  1.0859  0.0989
  201Sol     HW 1552   1.229   2.096   6.346 -0.4789  0.1486  0.4178
  201Sol     HW 1553   1.168   2.103   6.208 -1.3160 -0.2852  0.7659
  201Sol     MW 1554   1.231   2.068   6.260 -0.3143 -0.5549 -0.2785
  202Sol     OW 1555   1.539   2.932   8.876 -0.9574 -0.1718  0.8418
  202Sol     HW 1556   1.625   2.972   8.889 -1.1448  0.3063  0.6159
  202Sol     HW 1557   1.477   2.997   8.908 -1.2664 -0.2688  0.4414
  202Sol     MW 1558   1.541   2.941   8.880  0.4456 -0.2922 -0.1557
  203Sol     OW 1559   1.456   2.033  12.238 -0.2235  0.0586  0.0995
  203Sol     HW 1560   1.452   1.973  12.312 -0.6358  0.1730  0.1735
  203Sol     HW 1561   1.409   2.111  12.268  0.4060  0.4587  0.0412
  203Sol     MW 1562   1.451   2.035  12.247 -0.4573  1.1164  0.1108
  204Sol     OW 1563   1.052   2.434   8.378  0.0283  0.5078  0.3956
  204Sol     HW 1564   1.067   2.501   8.312  0.3737  2.1288  2.0723
  204Sol     HW 1565   1.115   2.453   8.447 -1.8667  0.2759  2.2543
  204Sol     MW 1566   1.059   2.441   8.378  0.2517  0.4177 -0.0159
  205Sol     OW 1567   1.335   2.090  13.244  0.0914  0.5342  0.0119
  205Sol     HW 1568   1.356   2.184  13.249 -2.9660  1.2417  0.7527
  205Sol     HW 1569   1.288   2.082  13.161  0.5158 -0.3956 -0.1366
  205Sol     MW 1570   1.332   2.098  13.237  0.3285  0.7642  0.4030
  206Sol     OW 1571   1.224   0.724  10.025 -0.2897  0.0402  0.1126
  206Sol     HW 1572   1.268   0.710  10.109 -3.4407 -0.4709  1.7816
  206Sol     HW 1573   1.287   0.773   9.972  2.2927 -0.8239  2.2700
  206Sol     MW 1574   1.234   0.727  10.028  0.1475 -0.4001  0.8965
  207Sol     OW 1575   3.300   2.408  11.793  0.5286  0.1066 -0.7013
  207Sol     HW 1576   3.362   2.448  11.853 -2.0070 -0.0906  2.1834
  207Sol     HW 1577   3.336   2.321  11.776  0.9626 -0.0932  1.1128
  207Sol     MW 1578   3.308   2.404  11.797  0.0108  0.5401  0.1063
  208Sol     OW 1579   2.617   2.838  10.076 -0.1755 -0.3669 -0.4422
  208Sol     HW 1580   2.629   2.804   9.987 -2.9757  0.8163 -1.3270
  208Sol     HW 1581   2.532   2.803  10.103  0.2062  0.0876  1.4060
  208Sol     MW 1582   2.610   2.831  10.071  0.5978 -0.0260  0.2074
  209Sol     OW 1583   3.223   0.790   6.766 -0.3396  0.1421 -0.6377
  209Sol     HW 1584   3.133   0.806   6.739 -0.2736 -0.6406 -1.3619
  209Sol     HW 1585   3.216   0.722   6.834 -0.2773 -0.0953 -0.8684
  209Sol     MW 1586   3.214   0.785   6.770 -0.0861  0.0931  0.6132
  210Sol     OW 1587   1.651   0.964  11.391 -0.2307  0.2019  0.4699
  210Sol     HW 1588   1.614   1.022  11.457  0.6213 -0.9637  1.9958
  210Sol     HW 1589   1.745   0.980  11.395 -0.1655  0.0267 -0.3611
  210Sol     MW 1590   1.656   0.970  11.397  0.2553  0.0659  0.5495
  211Sol     OW 1591   0.079   3.352   7.812 -0.2400  0.9343 -0.3369
  211Sol     HW 1592   0.073   3.325   7.720 -2.8837  1.3421 -0.3198
  211Sol     HW 1593   0.012   3.300   7.856  0.8300  0.9486  1.3356
  211Sol     MW 1594   0.072   3.345   7.807  0.1523  0.1624  0.5066
  212Sol     OW 1595   2.929   3.347   7.144 -0.1788  0.2241 -0.0141
  212Sol     HW 1596   2.988   3.354   7.069  0.0384  0.9175  0.2171
  212Sol     HW 1597   2.862   3.284   7.117  0.6194 -0.5007 -0.3147
  212Sol     MW 1598   2.928   3.342   7.135 -0.6514  0.3210 -0.4295
  213Sol     OW 1599   2.730   0.634  11.257  0.7639 -0.3626 -0.2328
  213Sol     HW 1600   2.650   0.655  11.208  1.1956  0.8437 -0.4581
  213Sol     HW 1601   2.721   0.542  11.280 -1.1424  0.0178  0.6088
  213Sol     MW 1602   2.722   0.628  11.254  0.0027  0.7489  0.2805
  214Sol     OW 1603   1.645   2.678   9.589 -0.0725 -0.1801 -0.0350
  214Sol     HW 1604   1.565   2.643   9.550 -0.9969  1.9004 -0.0679
  214Sol     HW 1605   1.687   2.726   9.518 -0.3066  1.2029  0.7332
  214Sol     MW 1606   1.642   2.679   9.579  0.3652  0.6860  0.1671
  215Sol     OW 1607   0.303   0.883   9.869 -1.2840 -0.4182  0.1624
  215Sol     HW 1608   0.366   0.902   9.938 -2.0992  0.9891  0.5350
  215Sol     HW 1609   0.356   0.846   9.798 -0.1164  0.3086  0.6419
  215Sol     MW 1610   0.313   0.881   9.869 -0.0324  0.3676 -0.1061
  216Sol     OW 1611   0.109   1.780  12.414 -0.2344 -0.2211 -0.3334
  216Sol     HW 1612   0.102   1.760  12.508 -2.4655  0.5475 -0.3079
  216Sol     HW 1613   0.132   1.697  12.374 -1.3315 -1.0427  0.6895
  216Sol     MW 1614   0.110   1.771  12.419 -0.1279 -0.4197  0.2240
  217Sol     OW 1615   0.113   2.142   9.735 -0.6294  0.2205 -0.4361
  217Sol     HW 1616   0.195   2.166   9.778 -0.0391 -0.7997 -0.9632
  217Sol     HW 1617   0.068   2.085   9.797 -0.6997  0.3707 -0.3515
  217Sol     MW 1618   0.116   2.139   9.744 -0.1956 -0.0870  0.2197
  218Sol     OW 1619   2.111   2.172  13.755  0.0840  0.2335 -0.2425
  218Sol     HW 1620   2.055   2.116  13.702  2.5854 -2.6582  0.0560
  218Sol     HW 1621   2.066   2.179  13.839 -0.0220 -1.7954 -0.1131
  218Sol     MW 1622   2.102   2.168  13.758 -0.1349  0.0881 -0.4174
  219Sol     OW 1623   1.861   1.012   7.961  0.1122  0.3834  0.2163
  219Sol     HW 1624   1.875   0.922   7.931  0.3952  0.9408 -1.3758
  219Sol     HW 1625   1.937   1.031   8.016  0.0906 -0.3257  0.4938
  219Sol     MW 1626   1.869   1.005   7.963  0.7228 -0.6953  0.0504
  220Sol     OW 1627   2.486   2.125  11.237  0.0669  0.0308 -0.0575
  220Sol     HW 1628   2.410   2.172  11.272 -0.8372 -0.0437 -1.8857
  220Sol     HW 1629   2.480   2.038  11.278 -1.0693 -0.1036 -0.4648
  220Sol     MW 1630   2.478   2.121  11.244 -0.3248 -0.8308  0.3971
  221Sol     OW 1631   2.224   1.362   8.888  0.0069  0.0441  0.6306
  221Sol     HW 1632   2.315   1.342   8.910  0.2595 -0.4639 -0.8167
  221Sol     HW 1633   2.217   1.342   8.795 -1.1484  1.6879  0.3364
  221Sol     MW 1634   2.232   1.359   8.882  0.6577 -0.3913 -0.3571
  222Sol     OW 1635   3.134   2.322  11.331 -0.6473  0.4715  0.2221
  222Sol     HW 1636   3.205   2.264  11.306  1.6939  2.8793  1.0228
  222Sol     HW 1637   3.065   2.306  11.266  1.2637 -0.6901 -1.5689
  222Sol     MW 1638   3.134   2.315  11.323 -0.1089  0.7126  0.1302
  223Sol     OW 1639   2.503   0.606  12.034 -0.2993  0.0751 -0.4692
  223Sol     HW 1640   2.544   0.654  11.962 -0.0127 -1.1323 -1.1231
  223Sol     HW 1641   2.535   0.517  12.024 -0.3316 -0.1176  1.1135
  223Sol     MW 1642   2.509   0.603  12.027  0.9220  0.2570 -0.3281
  224Sol     OW 1643   0.789   2.863  10.984 -0.0739 -0.1034 -0.1123
  224Sol     HW 1644   0.786   2.885  11.077 -0.9881 -0.9859  0.0716
  224Sol     HW 1645   0.761   2.943  10.939  1.1911  0.5966  0.3168
  224Sol     MW 1646   0.786   2.872  10.988  0.3103 -0.4033 -0.7674
  225Sol     OW 1647   3.322   3.402   8.748 -0.0028 -0.0146  0.0287
  225Sol     HW 1648   3.240   3.365   8.717  0.8271  0.1242 -2.4524
  225Sol     HW 1649   3.386   3.331   8.740  0.5441  0.4660  0.0431
  225Sol     MW 1650   3.321   3.393   8.745  0.4850  0.1212 -0.0734
  226Sol     OW 1651   2.230   3.090  10.785 -0.1349  0.6117  0.2828
  226Sol     HW 1652   2.225   3.147  10.709  1.3356  0.9660  0.4389
  226Sol     HW 1653   2.177   3.014  10.762 -0.8829  1.3667 -0.5086
  226Sol     MW 1654   2.225   3.088  10.776  0.1501  0.4084  0.6905
  227Sol     OW 1655   1.339   0.336  12.360  0.5061  0.0945 -0.1749
  227Sol     HW 1656   1.432   0.319  12.374  0.1129 -1.0307  1.2267
  227Sol     HW 1657   1.314   0.395  12.432 -0.1751 -0.7975  0.3413
  227Sol     MW 1658   1.345   0.340  12.368  0.3256 -0.3833  0.5625
  228Sol     OW 1659   0.884   2.030  13.786 -0.6322 -0.3329 -0.0111
  228Sol     HW 1660   0.938   2.009  13.710 -0.3284 -0.2812  0.1922
  228Sol     HW 1661   0.804   1.980  13.772 -0.5186 -0.4396 -0.2905
  228Sol     MW 1662   0.882   2.024  13.778 -0.9854 -0.0678 -0.2014
  229Sol     OW 1663   0.415   1.141   8.243  0.3474 -0.1480  0.1895
  229Sol     HW 1664   0.422   1.176   8.154  0.1242  0.5554  0.4429
  229Sol     HW 1665   0.491   1.083   8.252 -0.1136 -0.9144 -0.7547
  229Sol     MW 1666   0.423   1.139   8.236 -0.4794  0.6072 -0.2117
  230Sol     OW 1667   0.771   1.299   9.306  0.1217 -0.5545  0.0787
  230Sol     HW 1668   0.846   1.240   9.318 -0.1367 -0.9125 -0.0624
  230Sol     HW 1669   0.735   1.275   9.221  1.4865  1.4623 -1.1027
  230Sol     MW 1670   0.774   1.291   9.300  0.4592  0.6693  0.6591
  231Sol     OW 1671   2.198   0.525   7.430 -0.3365  0.3522 -0.4604
  231Sol     HW 1672   2.131   0.495   7.492 -0.2367  0.0730 -0.4868
  231Sol     HW 1673   2.277   0.535   7.484 -0.8580  2.4879 -0.0612
  231Sol     MW 1674   2.199   0.523   7.440  0.3430 -0.9181 -0.1801
  232Sol     OW 1675   2.775   1.026   7.775 -0.7413 -0.6936 -0.4121
  232Sol     HW 1676   2.866   1.050   7.754 -0.7108  0.2588  0.8137
  232Sol     HW 1677   2.745   0.979   7.697  1.1183 -1.8624 -0.4531
  232Sol     MW 1678   2.781   1.024   7.766  0.5189  0.4553  0.4272
  233Sol     OW 1679   2.581   2.217  12.899  0.4492 -0.4735  0.0743
  233Sol     HW 1680   2.618   2.243  12.984 -0.0247 -0.0341  0.1499
  233Sol     HW 1681   2.649   2.239  12.836  0.3054  0.3789  0.2102
  233Sol     MW 1682   2.591   2.222  12.901  0.6493 -0.5057 -0.5350
  234Sol     OW 1683   1.458   0.574   5.904 -0.9345 -0.6823  0.1740
  234Sol     HW 1684   1.425   0.663   5.914  1.0982 -0.1758  3.0224
  234Sol     HW 1685   1.526   0.580   5.837  0.6473  0.3668  1.8315
  234Sol     MW 1686   1.461   0.582   5.899  1.1842  0.2995  0.5846
  235Sol     OW 1687   2.984   3.449   9.443  0.1696 -0.8968 -0.0072
  235Sol     HW 1688   2.974   3.391   9.367 -1.2048 -1.3760  0.5180
  235Sol     HW 1689   3.033   3.524   9.410  1.2727 -1.9916 -0.8966
  235Sol     MW 1690   2.987   3.451   9.433 -0.1569 -0.2174 -0.2491
  236Sol     OW 1691   2.116   3.214   6.914 -0.0833 -0.0826  0.2207
  236Sol     HW 1692   2.142   3.122   6.917 -1.4848 -0.5319 -0.7605
  236Sol     HW 1693   2.171   3.252   6.845  0.8075 -0.0704  0.9268
  236Sol     MW 1694   2.123   3.209   6.908  0.4215  0.0288  0.0619
  237Sol     OW 1695   3.073   2.294  14.379  0.5436 -0.2551 -0.0905
  237Sol     HW 1696   3.131   2.258  14.312  2.9618  1.2692  1.0985
  237Sol     HW 1697   3.012   2.223  14.398  1.4611 -1.6186 -2.0039
  237Sol     MW 1698   3.073   2.284  14.375  0.2913 -0.4227  0.0231
  238Sol     OW 1699   0.044   2.936  13.209 -0.2502 -0.5142 -0.6495
  238Sol     HW 1700   0.039   2.840  13.203 -1.2503 -0.3929 -1.9935
  238Sol     HW 1701   0.127   2.953  13.252  0.2022 -1.9768 -0.9161
  238Sol     MW 1702   0.051   2.929  13.212 -0.5105  0.3556 -0.0096
  239Sol     OW 1703   1.131   0.713  13.889  0.2879 -0.0383  0.3594
  239Sol     HW 1704   1.177   0.642  13.933  0.0803 -0.5410 -0.2273
  239Sol     HW 1705   1.201   0.764  13.847  0.3220 -0.8375 -0.5866
  239Sol     MW 1706   1.142   0.711  13.889 -0.1519 -0.0143  0.1131
  240Sol     OW 1707   1.225   1.353   9.528 -0.2267  0.0104 -0.1970
  240Sol     HW 1708   1.246   1.392   9.614 -2.0931  2.4037 -0.7587
  240Sol     HW 1709   1.164   1.282   9.548 -0.0907  0.0885  0.5175
  240Sol     MW 1710   1.221   1.350   9.538 -0.2257 -0.2737 -1.2698
  241Sol     OW 1711   2.666   2.993  12.322 -0.1603  0.9586 -0.3455
  241Sol     HW 1712   2.687   2.912  12.275 -1.6325  1.3683 -1.7693
  241Sol     HW 1713   2.571   2.990  12.332  0.2881 -0.3024  4.8772
  241Sol     MW 1714   2.660   2.985  12.319 -0.5323 -0.4133  0.0154
  242Sol     OW 1715   1.675   1.515  14.027  0.1472  0.2019 -0.4201
  242Sol     HW 1716   1.595   1.461  14.023  0.5135 -0.3119 -0.9053
  242Sol     HW 1717   1.735   1.473  13.965  1.3345 -0.2798  1.0366
  242Sol     MW 1718   1.673   1.506  14.021  0.2441 -0.0147 -0.1286
  243Sol     OW 1719   0.960   3.238  10.457 -0.1287 -0.5685 -0.3382
  243Sol     HW 1720   0.900   3.218  10.385 -1.4108 -0.3044  0.6245
  243Sol     HW 1721   0.966   3.334  10.458  1.0609 -0.6363 -1.0267
  243Sol     MW 1722   0.955   3.245  10.451 -0.0331 -0.0981 -0.0747
  244Sol     OW 1723   1.674   1.875  12.117  0.1963  0.4835  0.3246
  244Sol     HW 1724   1.677   1.889  12.022  1.5991  0.4288  0.3606
  244Sol     HW 1725   1.599   1.927  12.146 -1.7502 -1.4163 -1.1265
  244Sol     MW 1726   1.667   1.881  12.111 -0.2961 -0.1015  0.1970
  245Sol     OW 1727   2.832   2.184  13.460  0.2951  0.1628 -0.1506
  245Sol     HW 1728   2.807   2.277  13.465 -1.7597 -0.3979  0.2839
  245Sol     HW 1729   2.829   2.153  13.550 -3.0182 -1.3067 -0.6945
  245Sol     MW 1730   2.829   2.190  13.468  0.2320 -0.1133  0.3984
  246Sol     OW 1731   0.533   1.093   7.935  0.2563 -0.2416  0.1172
  246Sol     HW 1732   0.616   1.088   7.889 -0.4787 -0.5241 -1.1928
  246Sol     HW 1733   0.503   1.002   7.940  0.3125 -0.2089  1.1292
  246Sol     MW 1734   0.538   1.084   7.932  0.6199 -0.0631 -0.4982
  247Sol     OW 1735   2.755   0.132   9.516 -0.1175 -0.1820  0.4191
  247Sol     HW 1736   2.836   0.090   9.486 -0.5779 -0.0834 -0.9950
  247Sol     HW 1737   2.779   0.174   9.599  1.1272 -0.6587  0.3139
  247Sol     MW 1738   2.764   0.132   9.521 -0.1492 -0.5070  1.3200
  248Sol     OW 1739   0.638   1.542  11.623 -0.2883  0.6357 -0.0757
  248Sol     HW 1740   0.547   1.530  11.596 -0.2919 -0.2419  0.3385
  248Sol     HW 1741   0.676   1.455  11.620  1.2247  1.3288 -2.6816
  248Sol     MW 1742   0.633   1.533  11.620 -0.0914  0.1727 -0.5751
  249Sol     OW 1743   2.923   2.113   9.137 -0.4100  0.0083 -0.6513
  249Sol     HW 1744   2.886   2.139   9.222 -0.5320  1.4605 -1.1386
  249Sol     HW 1745   2.868   2.041   9.108 -1.4189  0.6131 -0.2722
  249Sol     MW 1746   2.915   2.109   9.142  0.1185 -0.2942  0.3133
  250Sol     OW 1747   0.570   3.233  13.597 -0.2264  0.5635  0.6669
  250Sol     HW 1748   0.540   3.151  13.557  2.8681 -0.0441 -0.5389
  250Sol     HW 1749   0.617   3.204  13.675  1.8228  1.0870 -0.3545
  250Sol     MW 1750   0.571   3.223  13.600  0.2540 -0.5027 -0.0424
  251Sol     OW 1751   2.902   2.478  14.071  0.2337 -0.4436 -0.5052
  251Sol     HW 1752   2.868   2.453  14.157 -1.0142 -2.0661 -1.4533
  251Sol     HW 1753   2.839   2.443  14.009  2.7866 -2.1757 -2.2347
  251Sol     MW 1754   2.894   2.473  14.073  0.3689 -0.2871  0.4941
  252Sol     OW 1755   0.781   2.588  10.895 -0.4183  0.0324 -0.1236
  252Sol     HW 1756   0.778   2.684  10.899  1.2857  0.1118 -0.3294
  252Sol     HW 1757   0.689   2.561  10.899 -1.0466  1.7576 -1.8507
  252Sol     MW 1758   0.772   2.594  10.895 -0.2742 -0.3994 -0.8036
  253Sol     OW 1759   1.990   0.038  10.012  0.1142 -0.1340  0.1512
  253Sol     HW 1760   1.924   0.063   9.948 -0.0439  0.2925  0.4789
  253Sol     HW 1761   1.996   0.113  10.071 -0.0673 -0.7055  0.8962
  253Sol     MW 1762   1.985   0.047  10.012 -0.1188 -0.0088 -0.4596
  254Sol     OW 1763   1.831   0.783  11.059 -0.1232 -0.7480 -0.5217
  254Sol     HW 1764   1.887   0.766  11.135 -0.8577  1.0109  0.4365
  254Sol     HW 1765   1.742   0.771  11.092 -0.4977  1.2854 -0.7637
  254Sol     MW 1766   1.828   0.780  11.069  0.4034 -0.0508  0.5948
  255Sol     OW 1767   3.191   0.414   6.819  0.0110  0.5401 -0.0751
  255Sol     HW 1768   3.201   0.486   6.881 -1.2685  0.6222  0.0472
  255Sol     HW 1769   3.227   0.337   6.865  0.3665  0.8729  0.2084
  255Sol     MW 1770   3.196   0.413   6.829  0.0366  0.4635  0.5509
  256Sol     OW 1771   2.433   0.524  13.062 -0.4813 -0.3099  0.2681
  256Sol     HW 1772   2.348   0.528  13.106 -1.5141 -1.9756 -1.4774
  256Sol     HW 1773   2.417   0.470  12.984  2.1349 -0.4766 -0.2007
  256Sol     MW 1774   2.424   0.520  13.059 -0.6477 -0.1640 -0.2487
  257Sol     OW 1775   0.744   1.172   8.688 -0.2036  0.0302  0.2200
  257Sol     HW 1776   0.815   1.132   8.737  1.9495  2.8341 -0.4651
  257Sol     HW 1777   0.768   1.160   8.596 -0.3371  1.4006 -0.0125
  257Sol     MW 1778   0.752   1.168   8.684  0.0802  0.1079  0.0768
  258Sol     OW 1779   1.855   2.793   8.403  0.0337  0.2381  0.2132
  258Sol     HW 1780   1.826   2.704   8.379  1.0558  0.0294 -0.2751
  258Sol     HW 1781   1.878   2.786   8.495  2.1394 -0.5521 -0.3435
  258Sol     MW 1782   1.854   2.784   8.409 -0.7893  0.0605  0.0928
  259Sol     OW 1783   0.767   2.205  12.435 -0.4577 -0.3937  0.0638
  259Sol     HW 1784   0.742   2.135  12.373 -1.3891 -0.2343  0.2534
  259Sol     HW 1785   0.776   2.161  12.519 -0.4339 -0.3879  0.0649
  259Sol     MW 1786   0.766   2.195  12.437  0.7900 -0.8888  0.4126
  260Sol     OW 1787   0.940   0.972   9.902  0.1475  0.3254  0.5411
  260Sol     HW 1788   0.866   0.974   9.843  0.9984  0.7991 -0.5240
  260Sol     HW 1789   0.948   0.881   9.928 -0.1652  0.0980 -0.1561
  260Sol     MW 1790   0.934   0.964   9.899 -0.1309  0.2652  0.3687
  261Sol     OW 1791   2.265   1.271  10.559 -0.1480  0.0911  0.1321
  261Sol     HW 1792   2.314   1.343  10.599  2.0786 -1.0993 -0.4078
  261Sol     HW 1793   2.274   1.198  10.621 -1.3942 -0.1069  0.1033
  261Sol     MW 1794   2.270   1.271  10.568  0.5720 -0.6329 -0.6213
  262Sol     OW 1795   2.541   1.985   6.462 -0.3034  0.4175  0.0059
  262Sol     HW 1796   2.520   1.898   6.496 -0.3785  0.2209 -0.5355
  262Sol     HW 1797   2.457   2.024   6.440 -0.1382 -0.3053 -2.0044
  262Sol     MW 1798   2.532   1.981   6.463  0.1228  0.6412 -0.3074
  263Sol     OW 1799   0.939   1.154  10.121  0.2284  0.3714  0.5375
  263Sol     HW 1800   0.926   1.088  10.053 -0.4451  0.2225  0.8085
  263Sol     HW 1801   0.982   1.226  10.076 -0.0240  0.1888 -0.0016
  263Sol     MW 1802   0.941   1.154  10.111 -0.2569 -0.3393 -0.1054
  264Sol     OW 1803   3.133   0.299  12.241  0.4111 -0.0924 -0.2647
  264Sol     HW 1804   3.105   0.335  12.157  0.5616  0.7728  0.0507
  264Sol     HW 1805   3.214   0.347  12.262  1.3409 -1.5451 -0.4747
  264Sol     MW 1806   3.138   0.307  12.235 -0.0321  0.1045  0.1578
  265Sol     OW 1807   2.640   0.137  12.550  0.0861 -0.0488  0.0364
  265Sol     HW 1808   2.666   0.193  12.623  0.4370 -0.9532  0.6115
  265Sol     HW 1809   2.635   0.197  12.475 -2.8918  1.4000  1.3122
  265Sol     MW 1810   2.642   0.148  12.550 -0.3099 -0.7607 -0.5257
  266Sol     OW 1811   0.166   2.178   8.315 -0.3304 -0.2649 -0.2914
  266Sol     HW 1812   0.122   2.129   8.384 -0.3631  0.4822  0.2281
  266Sol     HW 1813   0.123   2.264   8.316  0.1462 -0.0200 -0.7712
  266Sol     MW 1814   0.158   2.182   8.321  0.1351  0.0639 -0.6956
  267Sol     OW 1815   1.194   2.351  13.828  0.3470 -0.1960 -0.5785
  267Sol     HW 1816   1.259   2.404  13.781  1.5945 -1.2959 -0.1134
  267Sol     HW 1817   1.115   2.404  13.826  1.2146  1.1104 -1.2844
  267Sol     MW 1818   1.193   2.361  13.824 -0.2195 -0.8678  0.4261
  268Sol     OW 1819   1.026   1.536  11.292  0.5215  0.0990  0.7148
  268Sol     HW 1820   1.101   1.535  11.233  0.4389 -1.0609  0.6117
  268Sol     HW 1821   1.041   1.612  11.348  2.2481 -0.6093  1.2800
  268Sol     MW 1822   1.034   1.543  11.292 -0.4561  0.6993 -0.3829
  269Sol     OW 1823   0.855   1.559  10.360 -0.0013 -0.0772  0.4123
  269Sol     HW 1824   0.898   1.626  10.414  0.3866  0.9218 -1.1213
  269Sol     HW 1825   0.912   1.483  10.367  0.5055  0.3246  0.7250
  269Sol     MW 1826   0.864   1.558  10.366  0.6410 -0.1076  0.5339
  270Sol     OW 1827   3.089   2.762   8.036 -0.1467  0.0868 -0.1976
  270Sol     HW 1828   3.023   2.817   8.078 -0.0429  0.8234 -0.9757
  270Sol     HW 1829   3.161   2.823   8.015  0.5045 -0.5862  0.0575
  270Sol     MW 1830   3.090   2.773   8.038  0.4662  0.2750  0.2683
  271Sol     OW 1831   2.129   2.833  11.088  0.0780  0.3178 -0.3546
  271Sol     HW 1832   2.191   2.872  11.149 -0.7049  0.5215  0.3164
  271Sol     HW 1833   2.078   2.773  11.141 -1.8553  1.8751 -0.4082
  271Sol     MW 1834   2.130   2.831  11.098  0.5856  0.8862 -0.3529
  272Sol     OW 1835   1.328   3.436  11.682 -0.2334 -0.0032  0.3008
  272Sol     HW 1836   1.332   3.341  11.678  0.5078  0.0133  0.5745
  272Sol     HW 1837   1.304   3.463  11.593 -1.8129 -0.5014  0.5578
  272Sol     MW 1838   1.326   3.430  11.674 -0.8036  0.8098 -0.3253
  273Sol     OW 1839   1.946   2.349   6.664 -0.1329 -0.4087  0.0033
  273Sol     HW 1840   1.926   2.356   6.570 -1.1311 -1.3398  0.1385
  273Sol     HW 1841   1.871   2.390   6.707  1.1624  1.6633  0.3703
  273Sol     MW 1842   1.937   2.353   6.659 -0.3366  0.0487  0.0459
  274Sol     OW 1843   0.635   1.061  10.672 -0.0302 -0.4147  0.5066
  274Sol     HW 1844   0.731   1.061  10.676  0.0187  0.6943 -0.3046
  274Sol     HW 1845   0.607   1.074  10.762  0.6138  0.5870  0.5794
  274Sol     MW 1846   0.641   1.063  10.680 -0.0344 -0.1855 -0.1575
  275Sol     OW 1847   0.405   0.448   9.484 -0.1689 -0.5472 -0.2688
  275Sol     HW 1848   0.499   0.432   9.490 -0.3625 -1.6948 -0.2028
  275Sol     HW 1849   0.382   0.422   9.395 -0.3219  0.3227 -0.4883
  275Sol     MW 1850   0.411   0.445   9.477  0.5557  0.6769 -0.0038
  276Sol     OW 1851   0.106   0.849  10.067  0.1040  0.1779 -0.2289
  276Sol     HW 1852   0.167   0.801  10.122 -1.3243 -2.8070 -1.1582
  276Sol     HW 1853   0.155   0.869   9.987  1.0852  1.4654  0.6563
  276Sol     MW 1854   0.116   0.847  10.065  0.0362  0.5203  0.2980
  277Sol     OW 1855   1.086   2.511   7.666  0.4790  0.0266  0.2530
  277Sol     HW 1856   0.993   2.497   7.649  0.4966  0.7761 -0.4676
  277Sol     HW 1857   1.100   2.473   7.753 -0.0398 -2.0282 -0.5418
  277Sol     MW 1858   1.079   2.506   7.672 -0.0569  0.0140  0.1273
  278Sol     OW 1859   1.588   3.003   8.052  0.4915  0.2237 -0.0015
  278Sol     HW 1860   1.615   2.988   8.143 -1.6457 -2.1321  0.2975
  278Sol     HW 1861   1.663   2.974   8.000  2.1029  2.4732  0.9923
  278Sol     MW 1862   1.597   2.999   8.056  0.1493 -0.3554  0.4238
  279Sol     OW 1863   0.680   2.819  13.570  0.5749  0.4826  0.0387
  279Sol     HW 1864   0.662   2.725  13.579 -0.8131  0.6647 -0.6139
  279Sol     HW 1865   0.771   2.829  13.596  0.1435 -0.7399  2.1947
  279Sol     MW 1866   0.686   2.812  13.573 -0.1920 -0.2941  0.5145
  280Sol     OW 1867   2.605   2.901   7.052 -0.3928 -0.6855  0.4708
  280Sol     HW 1868   2.696   2.875   7.060 -0.7364 -1.1903  3.1000
  280Sol     HW 1869   2.555   2.822   7.074 -1.4500  0.0170  0.6493
  280Sol     MW 1870   2.608   2.891   7.054  0.6390  0.2640 -0.0242
  281Sol     OW 1871   1.373   3.013  13.468 -0.2852 -0.3403  0.0346
  281Sol     HW 1872   1.371   2.917  13.466  0.5397 -0.3711  0.8110
  281Sol     HW 1873   1.280   3.038  13.466 -0.5124 -1.1585  0.0106
  281Sol     MW 1874   1.364   3.006  13.468 -0.3879 -0.5264 -0.1734
  282Sol     OW 1875   0.054   0.141   9.033 -0.1170  0.0701 -0.1882
  282Sol     HW 1876  -0.022   0.085   9.017  0.8985 -1.2804 -0.3396
  282Sol     HW 1877   0.046   0.211   8.968 -1.6273  0.3436  0.2931
  282Sol     MW 1878   0.047   0.143   9.026 -0.2908  0.3980 -0.3947
  283Sol     OW 1879   1.688   1.611  12.064 -0.5342  0.4246  0.4421
  283Sol     HW 1880   1.691   1.700  12.100 -1.1882 -0.0458  1.6772
  283Sol     HW 1881   1.598   1.583  12.077 -0.3576 -0.3748 -0.0580
  283Sol     MW 1882   1.680   1.617  12.069 -0.3132 -0.0141  0.6767
  284Sol     OW 1883   1.473   0.452  10.147  0.5359 -0.5218  0.1469
  284Sol     HW 1884   1.458   0.487  10.060 -0.7523 -0.1962  0.5029
  284Sol     HW 1885   1.563   0.479  10.168 -0.0006  1.5078 -0.0724
  284Sol     MW 1886   1.480   0.457  10.141 -0.9202 -0.3942 -0.1636
  285Sol     OW 1887   2.620   0.887  10.482  0.4999 -0.1861 -0.2281
  285Sol     HW 1888   2.613   0.895  10.577 -0.0797 -1.0118 -0.1941
  285Sol     HW 1889   2.554   0.948  10.448  1.7634  1.2679 -0.1474
  285Sol     MW 1890   2.613   0.894  10.487  0.7491  0.2581  0.1219
  286Sol     OW 1891   2.854   1.127  14.158  0.2947 -0.0850 -0.2425
  286Sol     HW 1892   2.777   1.125  14.214  0.7909  1.0011  0.5015
  286Sol     HW 1893   2.862   1.038  14.125 -1.1030 -0.2732 -0.0980
  286Sol     MW 1894   2.848   1.119  14.160 -0.1648  0.7047 -0.0959
  287Sol     OW 1895   0.592   2.851   7.467  0.3852  0.2141 -0.2373
  287Sol     HW 1896   0.542   2.804   7.534  0.6103  0.2554 -0.0419
  287Sol     HW 1897   0.530   2.861   7.394  0.5653 -1.0607 -0.5767
  287Sol     MW 1898   0.582   2.847   7.466  0.1321 -0.1789  0.4216
  288Sol     OW 1899   1.520   3.347   6.446 -0.5474 -0.3506 -0.1820
  288Sol     HW 1900   1.529   3.267   6.394 -0.1261 -0.4955  0.1199
  288Sol     HW 1901   1.585   3.339   6.515 -0.3884  0.3301 -0.2475
  288Sol     MW 1902   1.526   3.339   6.447 -0.7098  0.0881 -0.5492
  289Sol     OW 1903   2.873   2.900  10.410  0.3176 -0.4786  0.0106
  289Sol     HW 1904   2.853   2.831  10.347 -1.6869 -1.3077  1.4857
  289Sol     HW 1905   2.908   2.853  10.486 -0.1605  0.1924  0.6545
  289Sol     MW 1906   2.874   2.890  10.412  0.6656  0.6684  0.8105
  290Sol     OW 1907   0.867   3.426   7.235  0.4569 -0.1877  0.1628
  290Sol     HW 1908   0.932   3.368   7.197 -0.0740 -1.2423  0.8630
  290Sol     HW 1909   0.918   3.492   7.282  1.0257 -0.9791  0.6668
  290Sol     MW 1910   0.877   3.427   7.236  1.0979  0.2871  0.1150
  291Sol     OW 1911   1.706   1.260  13.119 -0.0333  0.4853  0.7203
  291Sol     HW 1912   1.688   1.349  13.149 -0.9948  0.8059 -0.7182
  291Sol     HW 1913   1.759   1.272  13.039  0.7528 -0.2680  1.1127
  291Sol     MW 1914   1.709   1.269  13.114  0.4911  0.0265  0.6226
  292Sol     OW 1915   2.937   0.603   8.146 -0.5084 -0.2837 -0.2185
  292Sol     HW 1916   2.899   0.618   8.232  2.4672  0.9295  0.9801
  292Sol     HW 1917   2.917   0.683   8.096  0.2333  0.2537  0.3292
  292Sol     MW 1918   2.932   0.612   8.149 -0.0935  0.4843  0.1667
  293Sol     OW 1919   1.555   3.162  13.601 -0.4451  0.7558  0.0164
  293Sol     HW 1920   1.478   3.113  13.572 -0.6087  1.3635 -0.5896
  293Sol     HW 1921   1.568   3.230  13.534 -0.5988  1.9427  1.1615
  293Sol     MW 1922   1.550   3.164  13.592  0.5686  0.4092 -0.4107
  294Sol     OW 1923   2.394   1.083  14.003 -0.1110 -0.2323 -0.0852
  294Sol     HW 1924   2.438   1.164  14.029 -0.8239  0.6295 -1.4720
  294Sol     HW 1925   2.322   1.072  14.065 -0.1426  0.3135 -0.0276
  294Sol     MW 1926   2.392   1.089  14.011 -0.1908 -0.5841 -1.2397
  295Sol     OW 1927   2.488   2.003   8.637 -0.0816 -0.0742  0.1420
  295Sol     HW 1928   2.431   1.926   8.632 -0.8166  0.4607  0.1493
  295Sol     HW 1929   2.512   2.021   8.546  1.3693 -1.2491  0.2880
  295Sol     MW 1930   2.485   1.998   8.628 -0.4689  0.4672 -0.5358
  296Sol     OW 1931   0.252   2.634   6.335  0.3782  0.1307  0.4475
  296Sol     HW 1932   0.334   2.588   6.355 -0.7751 -1.6360  1.2050
  296Sol     HW 1933   0.189   2.564   6.319 -1.4780  1.4679  1.8383
  296Sol     MW 1934   0.254   2.624   6.335  0.1416 -0.5927 -0.2964
  297Sol     OW 1935   1.440   1.777   7.004  0.0461  0.0469  0.9997
  297Sol     HW 1936   1.528   1.814   6.996  0.5350 -1.5528 -1.2734
  297Sol     HW 1937   1.392   1.814   6.930 -0.6015 -0.7534  1.0196
  297Sol     MW 1938   1.444   1.784   6.997 -0.4151  0.1728  0.2761
  298Sol     OW 1939   1.127   3.150   8.147 -0.3559  0.4371  0.3819
  298Sol     HW 1940   1.150   3.083   8.083 -0.0222 -0.0801  1.0474
  298Sol     HW 1941   1.122   3.231   8.095 -0.5004 -0.0454 -0.3715
  298Sol     MW 1942   1.129   3.151   8.136  0.0707  0.4055  0.3085
  299Sol     OW 1943   1.701   0.724   6.421 -0.0146  1.0389 -0.1301
  299Sol     HW 1944   1.790   0.687   6.424 -0.7848 -0.7417  1.2703
  299Sol     HW 1945   1.661   0.683   6.345 -0.4934 -0.1751  0.7651
  299Sol     MW 1946   1.706   0.717   6.414 -0.3599  0.5186  0.1229
  300Sol     OW 1947   0.993   3.010  13.840  0.8515  0.4904 -0.8963
  300Sol     HW 1948   1.062   3.073  13.818  0.0990  1.2288 -1.1265
  300Sol     HW 1949   1.010   2.987  13.931  2.7251 -0.9927 -1.5834
  300Sol     MW 1950   1.001   3.014  13.846  0.0600 -0.2063 -0.4024
  301Sol     OW 1951   3.084   1.282   9.952  0.0550  0.7085  0.1673
  301Sol     HW 1952   3.119   1.314  10.035  0.3514 -0.6088  0.5592
  301Sol     HW 1953   3.151   1.223   9.918  0.5200  2.2255 -1.6699
  301Sol     MW 1954   3.093   1.280   9.956  0.4606 -0.3586  0.4365
  302Sol     OW 1955   0.776   3.363   9.238 -0.7087 -0.0079 -0.4762
  302Sol     HW 1956   0.760   3.313   9.317 -1.2502  0.6450 -0.1676
  302Sol     HW 1957   0.766   3.454   9.265 -0.6470  0.2292 -1.2382
  302Sol     MW 1958   0.774   3.367   9.247  0.9581 -0.1277  0.2979
  303Sol     OW 1959   3.278   2.403   8.577  0.0377 -0.2849  0.3978
  303Sol     HW 1960   3.305   2.439   8.493  2.0763  0.9789  1.5621
  303Sol     HW 1961   3.299   2.310   8.572 -2.8908 -0.8965 -1.6748
  303Sol     MW 1962   3.282   2.398   8.569  0.6377 -0.7495  0.4529
  304Sol     OW 1963   0.451   1.358  14.096 -0.1845 -0.2163 -0.8639
  304Sol     HW 1964   0.377   1.303  14.123  1.6010 -1.0142  2.7694
  304Sol     HW 1965   0.416   1.447  14.099 -1.4403 -0.6965 -0.7974
  304Sol     MW 1966   0.441   1.361  14.099  0.1031  0.7366 -0.7661
  305Sol     OW 1967   3.095   3.013  10.859 -0.0977 -0.3391 -0.5166
  305Sol     HW 1968   3.072   2.954  10.930  0.7755 -0.5318 -0.3968
  305Sol     HW 1969   3.037   3.088  10.871 -1.2160 -1.1641 -0.6775
  305Sol     MW 1970   3.088   3.015  10.866 -0.3725  0.3857 -0.3137
  306Sol     OW 1971   1.656   1.960  12.579 -0.5899 -0.3197 -0.6643
  306Sol     HW 1972   1.586   2.023  12.598 -0.9686 -0.8326 -0.3237
  306Sol     HW 1973   1.708   2.002  12.510  1.2786  1.9278  2.0013
  306Sol     MW 1974   1.654   1.970  12.574  0.1896  0.0112 -0.1091
  307Sol     OW 1975   1.375   2.146  10.112 -0.1154  1.1975 -0.4070
  307Sol     HW 1976   1.284   2.155  10.084  0.0403  0.4571 -1.1793
  307Sol     HW 1977   1.378   2.188  10.198 -1.1868  1.2302 -0.3775
  307Sol     MW 1978   1.367   2.150  10.117  0.1230  0.2637  0.7219
  308Sol     OW 1979   0.591   0.128   6.173  0.1354  0.0232  0.2587
  308Sol     HW 1980   0.655   0.199   6.176 -1.3764  1.4618 -0.1386
  308Sol     HW 1981   0.542   0.145   6.092  1.7719 -3.3162 -1.5388
  308Sol     MW 1982   0.592   0.136   6.166 -0.7019  0.8854 -0.1905
  309Sol     OW 1983   3.314   3.436  12.272 -0.1927 -0.5324  0.5075
  309Sol     HW 1984   3.363   3.363  12.235 -1.5425  0.5139 -3.7586
  309Sol     HW 1985   3.373   3.511  12.265 -1.1231  0.0549 -1.4828
  309Sol     MW 1986   3.323   3.437  12.268 -0.2714  0.3904  0.0877
  310Sol     OW 1987   0.586   1.784   8.311  0.2700  0.1305  0.7815
  310Sol     HW 1988   0.644   1.803   8.237  1.3025 -0.2254  1.5025
  310Sol     HW 1989   0.562   1.692   8.299  0.7575 -0.0400  1.1114
  310Sol     MW 1990   0.589   1.777   8.303  0.1468 -0.2145  0.1548
  311Sol     OW 1991   1.333   2.385   7.611  0.1868  0.4626 -0.2093
  311Sol     HW 1992   1.377   2.456   7.657 -0.2338  0.1000  0.7661
  311Sol     HW 1993   1.240   2.407   7.618  0.0921  0.1206 -0.4096
  311Sol     MW 1994   1.328   2.394   7.616 -0.6435  0.9791 -0.3008
  312Sol     OW 1995   2.215   1.090  11.489  0.0607 -0.1747  0.8143
  312Sol     HW 1996   2.176   1.133  11.413  1.2836 -0.1028  0.2232
  312Sol     HW 1997   2.141   1.075  11.548 -1.0534 -1.0537 -0.7700
  312Sol     MW 1998   2.205   1.092  11.488  0.4726 -0.1608 -0.1195
  313Sol     OW 1999   2.051   0.883   7.656 -0.2123 -0.2399  0.0030
  313Sol     HW 2000   2.073   0.813   7.718 -1.3662  0.9954  1.8423
  313Sol     HW 2001   2.001   0.838   7.587  2.4050 -1.8984 -0.9063
  313Sol     MW 2002   2.049   0.872   7.655  0.2982  0.1012  0.5520
  314Sol     OW 2003   2.738   0.322  10.796  0.3075 -0.0204 -0.1460
  314Sol     HW 2004   2.756   0.415  10.789 -0.6663 -0.0969 -5.3888
  314Sol     HW 2005   2.645   0.313  10.775  0.2810 -2.1252  0.6870
  314Sol     MW 2006   2.732   0.329  10.794  0.4047  0.4216  0.2681
  315Sol     OW 2007   0.591   0.942   6.456 -0.5134 -0.0699  0.2373
  315Sol     HW 2008   0.505   0.956   6.497 -0.8485  0.3397 -0.5819
  315Sol     HW 2009   0.574   0.953   6.362  0.6015  0.8538  0.1396
  315Sol     MW 2010   0.581   0.944   6.451  0.1273  0.0858 -0.0398
  316Sol     OW 2011   0.049   2.551  10.480 -0.0081 -0.2443 -0.0450
  316Sol     HW 2012  -0.040   2.521  10.499 -0.3850 -0.2403 -1.7288
  316Sol     HW 2013   0.036   2.634  10.433  0.9422  0.7318  1.3818
  316Sol     MW 2014   0.040   2.556  10.478  0.6993  0.8659 -0.2399
  317Sol     OW 2015   0.120   2.036   7.227  1.0851  0.0491  0.0243
  317Sol     HW 2016   0.074   2.051   7.144  1.2837 -0.1090 -0.1166
  317Sol     HW 2017   0.057   1.989   7.281  0.6145  0.9936  0.3109
  317Sol     MW 2018   0.110   2.033   7.224  0.2052 -0.0517 -0.0123
  318Sol     OW 2019   1.903   0.798   6.135 -0.4599  0.8380  0.2373
  318Sol     HW 2020   1.888   0.872   6.195 -1.3186 -0.1247  1.2462
  318Sol     HW 2021   1.815   0.770   6.110 -0.1080  0.9083 -1.0921
  318Sol     MW 2022   1.893   0.803   6.139 -0.0872 -0.4001  0.2205
  319Sol     OW 2023   2.145   2.483   8.503 -0.0558  0.0668 -0.1416
  319Sol     HW 2024   2.144   2.496   8.408 -0.6611 -0.8458 -0.2682
  319Sol     HW 2025   2.234   2.456   8.523  0.5111  1.8004 -0.2218
  319Sol     MW 2026   2.153   2.482   8.496 -0.5586 -0.2434 -0.6766
  320Sol     OW 2027   2.134   0.667   7.814 -0.5253 -0.4680  0.4863
  320Sol     HW 2028   2.055   0.667   7.868  1.1913 -0.4104  3.0850
  320Sol     HW 2029   2.127   0.587   7.762 -1.0493 -1.8473  2.6228
  320Sol     MW 2030   2.126   0.660   7.814 -0.6076  0.0729 -0.5095
  321Sol     OW 2031   0.935   0.664   5.964  0.2628 -0.8373 -0.1745
  321Sol     HW 2032   0.978   0.672   5.879  0.9554 -1.7300  0.0862
  321Sol     HW 2033   0.918   0.570   5.974 -4.3619 -0.2749 -1.5690
  321Sol     MW 2034   0.937   0.656   5.957 -0.8529 -0.1494 -0.6632
  322Sol     OW 2035   1.006   0.855  13.432  0.1761  0.0688 -0.3510
  322Sol     HW 2036   1.034   0.947  13.427  1.5476 -0.2790  0.4484
  322Sol     HW 2037   0.911   0.859  13.442  0.2545  1.4203  0.0063
  322Sol     MW 2038   1.000   0.864  13.432 -0.0610  0.1548  0.0017
  323Sol     OW 2039   2.499   2.590   7.698  0.3850 -0.4394  0.1237
  323Sol     HW 2040   2.460   2.677   7.702 -0.2198 -0.7581  1.3174
  323Sol     HW 2041   2.430   2.533   7.664  0.2056 -0.7768  1.0471
  323Sol     MW 2042   2.489   2.593   7.695  0.2599 -0.4949  0.6273
  324Sol     OW 2043   1.091   0.026  12.443 -0.0513  0.2003  0.5086
  324Sol     HW 2044   1.054   0.113  12.461 -1.8909 -0.4715  0.0660
  324Sol     HW 2045   1.014  -0.030  12.429  1.0982 -1.7237  1.7916
  324Sol     MW 2046   1.080   0.029  12.443 -0.1380 -0.4059 -0.0740
  325Sol     OW 2047   2.537   0.158  12.141  0.3556  0.6253 -0.0875
  325Sol     HW 2048   2.452   0.114  12.143  1.2580 -1.1111  0.2721
  325Sol     HW 2049   2.529   0.221  12.069 -1.8193  1.7224  1.0500
  325Sol     MW 2050   2.529   0.160  12.135  0.2530  0.7396 -0.2269
  326Sol     OW 2051   0.514   0.643   9.957 -0.4902  0.1479 -0.6054
  326Sol     HW 2052   0.465   0.609   9.883 -0.6340  0.3411 -0.5973
  326Sol     HW 2053   0.568   0.713   9.920 -2.5537  2.0867 -0.0404
  326Sol     MW 2054   0.515   0.646   9.947 -0.0781  0.2040 -0.3859
  327Sol     OW 2055   1.980   2.681  13.869  0.0778  0.3857  0.2733
  327Sol     HW 2056   2.062   2.651  13.830  1.7383  2.4585  2.0647
  327Sol     HW 2057   1.979   2.640  13.956 -0.8800  0.2409  0.1963
  327Sol     MW 2058   1.987   2.674  13.874 -0.3411  0.5261  0.0040
  328Sol     OW 2059   1.859   2.941   9.220 -0.5708  0.1795 -0.3184
  328Sol     HW 2060   1.896   2.923   9.306 -2.3039  1.9443  0.8417
  328Sol     HW 2061   1.897   3.025   9.194  1.9789 -1.5694 -2.5013
  328Sol     MW 2062   1.865   2.947   9.225  0.3464 -0.1149 -0.2144
  329Sol     OW 2063   3.239   1.923  12.312  0.1382  0.1181 -0.9040
  329Sol     HW 2064   3.277   1.844  12.352 -1.2771 -1.3467 -2.4237
  329Sol     HW 2065   3.190   1.891  12.237 -1.2161  2.3739 -1.0058
  329Sol     MW 2066   3.238   1.913  12.309  0.6449 -0.0031  0.5062
  330Sol     OW 2067   1.974   1.831  14.311 -0.1399  0.2631  0.0135
  330Sol     HW 2068   1.904   1.768  14.294 -1.1381  0.9758  1.3804
  330Sol     HW 2069   2.051   1.777  14.330 -1.1431 -0.5758  1.8301
  330Sol     MW 2070   1.975   1.821  14.311  0.4539 -0.1929  0.7200
  331Sol     OW 2071   3.153   3.235  14.224  0.2282  0.1314  0.2098
  331Sol     HW 2072   3.249   3.232  14.217  0.3659  0.4626  1.6443
  331Sol     HW 2073   3.130   3.150  14.261 -0.1952 -0.5618 -1.6087
  331Sol     MW 2074   3.160   3.227  14.227 -0.0335  0.6455 -0.5002
  332Sol     OW 2075   1.510   1.703   7.570  0.1526 -0.4765  0.2454
  332Sol     HW 2076   1.519   1.610   7.587  1.6446 -0.4221 -0.2023
  332Sol     HW 2077   1.540   1.746   7.650  0.9956 -0.3575 -0.1276
  332Sol     MW 2078   1.513   1.699   7.579 -0.0044  0.5481  0.5255
  333Sol     OW 2079   2.063   0.015  13.847 -0.3413  0.1106  0.6220
  333Sol     HW 2080   2.004   0.001  13.921 -1.3221 -0.1118 -0.1776
  333Sol     HW 2081   2.005   0.048  13.777  0.5867  0.4430  0.0006
  333Sol     MW 2082   2.052   0.017  13.847  0.2631 -0.8530 -0.0791
  334Sol     OW 2083   0.419   1.563   9.509 -0.1255 -0.2738  0.1393
  334Sol     HW 2084   0.340   1.571   9.563  0.4153  3.0054  0.5803
  334Sol     HW 2085   0.405   1.625   9.438  1.3310 -0.9195 -0.7192
  334Sol     MW 2086   0.411   1.569   9.508  0.5692  0.3678 -0.2068
  335Sol     OW 2087   0.623   2.516   9.272  0.3947 -0.5242 -0.3696
  335Sol     HW 2088   0.585   2.595   9.234  0.8841 -0.8555 -1.5684
  335Sol     HW 2089   0.691   2.489   9.210  0.7135 -1.4828  0.3808
  335Sol     MW 2090   0.625   2.520   9.263  0.3913 -0.7412  0.2769
  336Sol     OW 2091   2.916   0.530   9.459  0.1995 -0.7242 -0.4946
  336Sol     HW 2092   2.878   0.571   9.537 -2.8788 -2.3228 -1.0635
  336Sol     HW 2093   2.986   0.474   9.492  0.7506  0.7229  0.8251
  336Sol     MW 2094   2.919   0.529   9.469 -0.0286  0.4560  0.5965
  337Sol     OW 2095   0.295   1.241  10.139 -0.6134  0.1752 -0.9453
  337Sol     HW 2096   0.282   1.293  10.060 -0.7816  1.2821 -0.2029
  337Sol     HW 2097   0.290   1.305  10.211  0.3786 -0.6804 -0.0984
  337Sol     MW 2098   0.294   1.252  10.139  0.2084 -0.3225  0.1520
  338Sol     OW 2099   2.533   0.284   6.130  0.3737  0.0491 -0.3317
  338Sol     HW 2100   2.493   0.369   6.111  1.1729  0.7464  1.0510
  338Sol     HW 2101   2.613   0.283   6.077  0.3300  0.1271 -0.3995
  338Sol     MW 2102   2.536   0.292   6.123  0.6609 -0.3592 -0.3185
  339Sol     OW 2103   2.153   2.194   7.330 -0.7149  0.4362 -0.3563
  339Sol     HW 2104   2.142   2.174   7.237 -0.2855  1.0899 -0.5598
  339Sol     HW 2105   2.231   2.145   7.356 -0.2293  1.0592 -0.6099
  339Sol     MW 2106   2.159   2.188   7.324 -0.5201 -0.3589 -0.6049
  340Sol     OW 2107   2.082   1.597  10.603  0.1391 -0.0217 -0.0428
  340Sol     HW 2108   1.992   1.610  10.573  0.0695  1.2457  0.6417
  340Sol     HW 2109   2.127   1.554  10.530 -1.0083 -0.6305 -0.4021
  340Sol     MW 2110   2.078   1.595  10.594 -0.1869  0.0641  0.3062
  341Sol     OW 2111   3.028   0.361  14.289 -0.0950 -0.1676 -0.0346
  341Sol     HW 2112   2.953   0.346  14.346 -1.3710  0.4781 -1.4975
  341Sol     HW 2113   3.055   0.273  14.262 -0.2827 -0.4103  0.5485
  341Sol     MW 2114   3.024   0.352  14.292 -0.0471 -0.1555 -0.4688
  342Sol     OW 2115   0.959   1.050   8.834  0.3406  0.3710 -0.1358
  342Sol     HW 2116   0.947   0.976   8.893 -0.9965 -0.6757 -1.6694
  342Sol     HW 2117   1.029   1.102   8.874  0.2719 -0.9188  1.7316
  342Sol     MW 2118   0.964   1.048   8.843 -0.6190  0.0672  0.2493
  343Sol     OW 2119   1.054   0.488  13.417 -0.3620 -0.4438 -0.0332
  343Sol     HW 2120   1.102   0.564  13.386 -1.4737  0.1365 -0.3627
  343Sol     HW 2121   1.050   0.500  13.512 -0.3131 -0.2168 -0.0586
  343Sol     MW 2122   1.058   0.496  13.423  0.2454  0.8924 -0.0449
  344Sol     OW 2123   1.360   0.894  13.834  0.6577 -0.6166  0.1611
  344Sol     HW 2124   1.453   0.874  13.826  1.2819  1.7221  1.1574
  344Sol     HW 2125   1.349   0.977  13.787 -0.9829 -1.0037 -0.1630
  344Sol     MW 2126   1.367   0.900  13.829  0.2654 -0.2960  1.4775
  345Sol     OW 2127   2.192   1.284   8.600 -0.2687 -0.5013  0.3729
  345Sol     HW 2128   2.120   1.313   8.544 -0.8654  0.2937  1.5293
  345Sol     HW 2129   2.257   1.247   8.540 -0.6750  0.7967 -0.8765
  345Sol     MW 2130   2.191   1.283   8.590 -0.0858  0.4332 -0.3979
  346Sol     OW 2131   2.535   0.664  10.088 -0.4410  0.6218 -0.2855
  346Sol     HW 2132   2.465   0.724  10.111 -1.1665 -0.2665 -0.1313
  346Sol     HW 2133   2.614   0.703  10.126 -1.1034  0.8281  0.8997
  346Sol     MW 2134   2.536   0.673  10.093 -0.3034  0.1284 -0.6720
  347Sol     OW 2135   1.289   1.555  12.575 -0.4439 -0.5309  0.2336
  347Sol     HW 2136   1.243   1.629  12.615  2.0598  1.8962 -1.1830
  347Sol     HW 2137   1.374   1.553  12.620 -0.8469 -3.2288  0.9592
  347Sol     MW 2138   1.293   1.562  12.583 -0.4151 -0.0181  0.6777
  348Sol     OW 2139   0.614   1.337  13.071  0.2657 -0.1080  0.0488
  348Sol     HW 2140   0.638   1.296  12.988  1.5359 -1.1074  0.8929
  348Sol     HW 2141   0.572   1.419  13.045 -0.1897 -0.8298 -1.6041
  348Sol     MW 2142   0.613   1.341  13.061  0.0461 -0.7349  0.2709
  349Sol     OW 2143   3.040   0.665  13.438  0.4976  0.2311 -0.0863
  349Sol     HW 2144   2.971   0.604  13.466  1.1141 -0.5438 -0.2391
  349Sol     HW 2145   3.117   0.638  13.488  0.9303  0.5013 -0.6079
  349Sol     MW 2146   3.041   0.657  13.445  0.5827  0.4916  0.4969
  350Sol     OW 2147   2.201   3.174  11.050  0.1434 -0.0367  0.5235
  350Sol     HW 2148   2.203   3.122  10.970  2.5385  2.2815 -0.9895
  350Sol     HW 2149   2.239   3.117  11.117 -0.2941 -1.3848 -0.3718
  350Sol     MW 2150   2.205   3.164  11.049 -0.6313  0.0275 -0.3344
  351Sol     OW 2151   1.804   1.558   6.933  0.5457 -0.5090  0.4595
  351Sol     HW 2152   1.740   1.496   6.897 -0.3108  0.5238  0.1755
  351Sol     HW 2153   1.870   1.566   6.865 -0.5859  0.7225 -0.5262
  351Sol     MW 2154   1.804   1.553   6.924 -0.1410 -0.2120  0.6959
  352Sol     OW 2155   0.257   2.489  11.453  0.2425 -0.3591 -0.0976
  352Sol     HW 2156   0.252   2.478  11.358  2.7911 -1.9006 -0.0928
  352Sol     HW 2157   0.192   2.427  11.488 -1.2220  0.7315 -0.8197
  352Sol     MW 2158   0.251   2.482  11.448  0.1510 -0.9940 -0.0681
  353Sol     OW 2159   1.028   2.042  13.270 -0.1799  0.3550  0.0222
  353Sol     HW 2160   1.118   2.011  13.259 -0.5870 -0.2121 -1.9877
  353Sol     HW 2161   1.013   2.097  13.193 -1.4840  0.6057  0.4574
  353Sol     MW 2162   1.035   2.044  13.262 -0.4772 -0.2936 -0.2671
  354Sol     OW 2163   0.301   2.195  13.172 -0.6885 -0.5348  0.4789
  354Sol     HW 2164   0.368   2.170  13.109 -0.1452 -0.7985  1.1493
  354Sol     HW 2165   0.285   2.115  13.223 -2.0796 -0.6849 -0.1935
  354Sol     MW 2166   0.305   2.186  13.171  0.8736 -0.7046  0.0610
  355Sol     OW 2167   1.908   1.098  12.303  0.2177  0.2558 -0.0001
  355Sol     HW 2168   1.984   1.114  12.359  0.1055 -1.8624  0.8235
  355Sol     HW 2169   1.942   1.045  12.231 -0.0764  1.0784 -0.7491
  355Sol     MW 2170   1.918   1.095  12.302  0.5290  0.2939 -0.0972
  356Sol     OW 2171   1.953   2.734   7.258  0.1982 -0.1868  0.5126
  356Sol     HW 2172   1.950   2.825   7.229  0.8534  0.3192  1.9419
  356Sol     HW 2173   1.875   2.724   7.313 -0.0845 -0.6028  0.0338
  356Sol     MW 2174   1.946   2.742   7.261 -0.0547  0.2860  0.2739
  357Sol     OW 2175   1.548   1.558  12.787  0.4999  0.4584  0.5680
  357Sol     HW 2176   1.523   1.613  12.861  0.7042  0.3326  0.7303
  357Sol     HW 2177   1.611   1.496  12.824  0.5768  0.3754  0.2952
  357Sol     MW 2178   1.551   1.557  12.797 -1.0149  0.0153  0.1002
  358Sol     OW 2179   2.346   1.369   6.233  0.2676  0.1424 -0.4664
  358Sol     HW 2180   2.265   1.319   6.236  0.2123  0.2268 -0.5401
  358Sol     HW 2181   2.401   1.323   6.170  0.3683 -0.0514 -0.2340
  358Sol     MW 2182   2.344   1.361   6.227  0.2114 -0.0965  0.0651
  359Sol     OW 2183   1.061   3.062  11.518 -0.0584 -0.7585  0.4611
  359Sol     HW 2184   1.028   3.144  11.555  0.5632 -0.2250 -0.1562
  359Sol     HW 2185   1.147   3.084  11.483 -0.4062 -1.3784 -0.8286
  359Sol     MW 2186   1.065   3.071  11.518  0.6827 -0.6268  0.1852
  360Sol     OW 2187   0.778   2.881  13.314  0.0320 -0.2345 -0.2019
  360Sol     HW 2188   0.763   2.829  13.393 -1.2525 -0.0754 -0.3284
  360Sol     HW 2189   0.772   2.972  13.343 -1.1766 -0.1729 -0.5920
  360Sol     MW 2190   0.776   2.884  13.324 -0.3967  0.3502  0.9404
  361Sol     OW 2191   2.095   0.685  12.292 -0.0174 -0.1667 -0.5783
  361Sol     HW 2192   2.121   0.595  12.312 -1.3046 -0.1515  1.2811
  361Sol     HW 2193   2.020   0.676  12.233  0.2945 -0.3166 -0.9479
  361Sol     MW 2194   2.090   0.676  12.289 -1.0147 -0.5189 -0.1059
  362Sol     OW 2195   1.365   0.678   8.192 -0.0744 -0.3001  0.5815
  362Sol     HW 2196   1.432   0.713   8.250  1.4993  0.1429 -1.4449
  362Sol     HW 2197   1.358   0.742   8.121 -0.0513 -2.0951 -1.0794
  362Sol     MW 2198   1.370   0.687   8.191 -0.0594 -0.3384 -0.4921
  363Sol     OW 2199   3.030   3.107  10.262  0.6984  0.3026  0.2000
  363Sol     HW 2200   2.987   3.192  10.251  1.6200  0.7079 -0.3863
  363Sol     HW 2201   2.970   3.056  10.316 -1.1527  0.3861 -1.7256
  363Sol     MW 2202   3.021   3.110  10.266 -0.3553  0.2613  0.1228
  364Sol     OW 2203   3.340   0.391   8.869  0.0104  0.0225  0.4626
  364Sol     HW 2204   3.424   0.435   8.857  0.2268 -0.9109 -1.6195
  364Sol     HW 2205   3.276   0.462   8.866  0.5627  0.5085  0.0830
  364Sol     MW 2206   3.342   0.401   8.868  1.2763  0.3234 -0.1026
  365Sol     OW 2207   1.719   2.291  12.408 -0.0578  0.0988 -0.4737
  365Sol     HW 2208   1.808   2.256  12.409 -0.4409 -0.9255 -0.9572
  365Sol     HW 2209   1.684   2.267  12.322 -0.8908  0.2368 -0.1841
  365Sol     MW 2210   1.724   2.285  12.400 -0.3462 -0.0544 -0.5761
  366Sol     OW 2211   2.000   2.129   8.685  0.1679  0.1726  0.3410
  366Sol     HW 2212   1.911   2.100   8.664 -0.4720  0.2589  2.8461
  366Sol     HW 2213   2.036   2.058   8.738  1.5169  0.2609 -0.4394
  366Sol     MW 2214   1.995   2.120   8.688 -1.1199  0.2254  0.0070
  367Sol     OW 2215   2.481   0.536  10.799  0.3256  0.1993  0.0870
  367Sol     HW 2216   2.418   0.606  10.782 -0.5505 -1.1742 -2.6123
  367Sol     HW 2217   2.520   0.558  10.884 -0.7055  3.3414 -0.2201
  367Sol     MW 2218   2.479   0.544  10.805 -0.0445  0.1267  0.0434
  368Sol     OW 2219   1.086   1.516  12.353 -0.0219  0.1143  0.1396
  368Sol     HW 2220   1.101   1.592  12.296 -2.7400  0.7789  0.2613
  368Sol     HW 2221   1.153   1.524  12.420  1.7667  0.6089 -1.6505
  368Sol     MW 2222   1.093   1.524  12.354  0.8157 -0.3399 -0.1652
  369Sol     OW 2223   0.880   0.906   6.434  0.7100  0.3925  0.6772
  369Sol     HW 2224   0.915   0.985   6.474  0.9197 -0.2098  1.7211
  369Sol     HW 2225   0.793   0.895   6.473  0.3192  0.5922 -0.1290
  369Sol     MW 2226   0.875   0.912   6.441  0.0031  0.0032  0.1176
  370Sol     OW 2227   1.567   0.733  11.203  1.0112 -0.7448  0.6739
  370Sol     HW 2228   1.601   0.799  11.263 -0.4483  0.6690 -0.0222
  370Sol     HW 2229   1.611   0.652  11.229 -0.6542 -0.5142  4.6517
  370Sol     MW 2230   1.574   0.732  11.211 -0.0520 -0.1679  0.5446
  371Sol     OW 2231   1.131   2.784  12.235 -0.0053  0.4610 -0.3393
  371Sol     HW 2232   1.150   2.691  12.232 -1.7748  0.1080 -1.2571
  371Sol     HW 2233   1.056   2.796  12.176  0.0012  2.4034 -0.0095
  371Sol     MW 2234   1.126   2.777  12.229 -0.8166 -0.4151  0.5045
  372Sol     OW 2235   1.965   1.687  10.205  0.1313  0.3322  0.1959
  372Sol     HW 2236   1.940   1.676  10.297 -1.5418  1.4622 -0.1146
  372Sol     HW 2237   1.937   1.776  10.183  0.6465  0.1135 -1.3819
  372Sol     MW 2238   1.961   1.694  10.211 -0.0884  0.8819 -0.3881
  373Sol     OW 2239   0.565   0.314  12.578 -0.2533 -0.1715 -0.0812
  373Sol     HW 2240   0.497   0.305  12.645  1.0265 -0.9470  1.1314
  373Sol     HW 2241   0.595   0.404  12.586 -0.2325 -0.2091  0.2599
  373Sol     MW 2242   0.561   0.321  12.585  1.1121 -0.0714  0.4502
  374Sol     OW 2243   1.804   1.998  11.034 -0.7110  0.2823  0.2429
  374Sol     HW 2244   1.778   2.017  11.124 -2.1283 -1.4687  0.2273
  374Sol     HW 2245   1.726   1.961  10.994  0.4855 -0.7902 -1.1424
  374Sol     MW 2246   1.795   1.997  11.039 -0.4274 -0.0350 -0.8366
  375Sol     OW 2247   2.475   0.143  10.150 -0.4424 -0.4804 -0.2362
  375Sol     HW 2248   2.483   0.238  10.152  1.4040 -0.6090 -0.6153
  375Sol     HW 2249   2.543   0.114  10.089 -1.9226 -1.9502 -1.2318
  375Sol     MW 2250   2.482   0.149  10.145 -0.5530  0.4865 -0.5894
  376Sol     OW 2251   2.006   3.077  11.436 -0.1601 -0.1951 -0.4748
  376Sol     HW 2252   1.968   3.155  11.476 -0.5665 -0.3388 -0.5808
  376Sol     HW 2253   1.954   3.063  11.357  0.8091  0.2472 -1.2066
  376Sol     MW 2254   1.998   3.083  11.433 -0.0709  0.1796 -0.8807
  377Sol     OW 2255   0.526   0.759   7.385  0.0401  0.2431 -0.5150
  377Sol     HW 2256   0.606   0.774   7.335 -0.2333  0.0497 -1.0046
  377Sol     HW 2257   0.481   0.688   7.340 -0.3096  0.2093 -0.1223
  377Sol     MW 2258   0.529   0.754   7.377  0.3581 -0.3339  0.6045
  378Sol     OW 2259   1.278   2.173   9.757  0.1057  0.0460 -0.0261
  378Sol     HW 2260   1.365   2.132   9.754  0.5098  0.9417 -0.8644
  378Sol     HW 2261   1.223   2.118   9.701  1.1848  1.8299 -2.9632
  378Sol     MW 2262   1.281   2.164   9.752  0.7652 -0.2630  0.1061
  379Sol     OW 2263   1.352   0.838   6.334  0.3575  0.0577  0.1609
  379Sol     HW 2264   1.331   0.898   6.263  0.6628 -0.2796 -0.2076
  379Sol     HW 2265   1.286   0.857   6.401 -1.7073 -1.5868 -1.3456
  379Sol     MW 2266   1.344   0.845   6.334  0.0743 -0.3217 -0.4347
  380Sol     OW 2267   0.425   1.389  12.386 -0.3359  0.5020  0.0350
  380Sol     HW 2268   0.464   1.302  12.384 -1.1042  0.1338  0.8375
  380Sol     HW 2269   0.499   1.449  12.373  0.5390 -0.1739  1.7778
  380Sol     MW 2270   0.435   1.387  12.384  0.3801  0.2055 -0.3194
  381Sol     OW 2271   2.020   2.680  13.530  0.2024  0.3695  0.0315
  381Sol     HW 2272   2.064   2.763  13.510 -1.1673  1.1741  0.2396
  381Sol     HW 2273   2.015   2.678  13.626  1.1538 -0.4509  0.0654
  381Sol     MW 2274   2.023   2.688  13.537  0.2592  0.2800  0.1459
  382Sol     OW 2275   2.951   3.154   9.248  0.5425  0.2808 -0.3554
  382Sol     HW 2276   2.872   3.146   9.302  0.5419  0.5134 -0.3208
  382Sol     HW 2277   2.931   3.226   9.188  1.0001  0.8103  0.1217
  382Sol     MW 2278   2.942   3.160   9.248  0.6430 -0.2340  0.1469
  383Sol     OW 2279   3.085   2.377  13.698  0.0830 -0.1668  0.1865
  383Sol     HW 2280   3.169   2.381  13.654 -0.1667 -0.1702 -0.2995
  383Sol     HW 2281   3.021   2.400  13.630 -0.3066 -0.1615  0.5471
  383Sol     MW 2282   3.086   2.379  13.688  0.4536  0.0654 -0.1763
  384Sol     OW 2283   0.988   1.895  13.545  0.5688  0.7033 -0.0946
  384Sol     HW 2284   0.924   1.838  13.502  2.2322 -1.4443  0.2322
  384Sol     HW 2285   1.015   1.957  13.477 -0.1391  0.1741 -0.8679
  384Sol     MW 2286   0.984   1.895  13.535 -0.4337 -0.3266  0.3846
  385Sol     OW 2287   2.975   1.319   6.300 -0.1695  0.3926  0.3971
  385Sol     HW 2288   2.900   1.305   6.358  0.1301  2.1198  1.2307
  385Sol     HW 2289   2.953   1.272   6.220 -1.7674  0.1794  0.9542
  385Sol     MW 2290   2.966   1.314   6.298 -0.5341 -0.6461 -0.4566
  386Sol     OW 2291   1.091   0.882  12.103 -0.2312  0.1026  0.1409
  386Sol     HW 2292   1.056   0.960  12.145  0.0874  0.6232 -0.5452
  386Sol     HW 2293   1.077   0.897  12.009  1.5791  0.2015 -0.1232
  386Sol     MW 2294   1.087   0.890  12.098  0.7373  0.3230  0.1478
  387Sol     OW 2295   0.394   0.174  10.744  0.0838  0.1198  1.1085
  387Sol     HW 2296   0.488   0.187  10.730  0.1350 -2.4296 -1.5892
  387Sol     HW 2297   0.352   0.242  10.691  0.4173  0.6173  1.4831
  387Sol     MW 2298   0.398   0.181  10.738 -0.3446 -0.5279 -0.2365
  388Sol     OW 2299   0.476   1.487  11.336 -0.0628  0.2359 -0.7353
  388Sol     HW 2300   0.478   1.393  11.355 -0.2033  0.3259 -0.2839
  388Sol     HW 2301   0.565   1.506  11.306 -0.0895 -0.0815 -1.0181
  388Sol     MW 2302   0.484   1.480  11.335  0.3034  0.4795  0.3238
  389Sol     OW 2303   2.878   1.272  11.976  0.2195 -0.5235  0.1604
  389Sol     HW 2304   2.972   1.267  11.997  0.3545 -1.6231 -0.6190
  389Sol     HW 2305   2.837   1.301  12.058  1.3641  1.2255  0.1426
  389Sol     MW 2306   2.883   1.274  11.986  0.2769 -0.5258 -0.0003
  390Sol     OW 2307   0.733   0.729   7.815 -0.0430 -0.0275 -0.0326
  390Sol     HW 2308   0.758   0.800   7.874  0.4335  0.8338 -1.2652
  390Sol     HW 2309   0.663   0.765   7.761  0.2957 -0.4444 -0.7613
  390Sol     MW 2310   0.729   0.739   7.815  0.1495 -0.3867 -0.5392
  391Sol     OW 2311   2.272   3.405   6.549  0.2600 -0.1469 -0.2746
  391Sol     HW 2312   2.354   3.421   6.501 -0.5778  2.2686 -1.0071
  391Sol     HW 2313   2.206   3.454   6.500 -1.1626 -0.0047  1.7194
  391Sol     MW 2314   2.274   3.411   6.540  0.1451 -0.1882 -0.2088
  392Sol     OW 2315   1.608   2.747  14.039 -0.5433 -0.3100 -0.6763
  392Sol     HW 2316   1.629   2.840  14.034 -1.8854  0.0044 -0.7767
  392Sol     HW 2317   1.515   2.742  14.017 -0.4694 -1.6863 -0.7492
  392Sol     MW 2318   1.601   2.755  14.037  0.5880  0.3476 -0.2007
  393Sol     OW 2319   1.254   1.158  12.272 -0.3687  0.3430  0.1717
  393Sol     HW 2320   1.325   1.095  12.283  1.8855  2.9397  1.1822
  393Sol     HW 2321   1.254   1.209  12.354 -2.1534  1.6103 -0.5825
  393Sol     MW 2322   1.261   1.157  12.281 -0.3872  0.3523  0.3791
  394Sol     OW 2323   0.930   2.569  11.670 -0.2819 -0.5546 -0.0322
  394Sol     HW 2324   0.897   2.522  11.747 -0.5625 -2.2737 -1.1627
  394Sol     HW 2325   0.912   2.510  11.597 -0.5704  1.3182 -1.5071
  394Sol     MW 2326   0.925   2.559  11.671  0.0285 -0.9998  0.2315
  395Sol     OW 2327   0.150   2.884   6.884 -0.5503  0.0309 -0.0746
  395Sol     HW 2328   0.141   2.843   6.798 -1.9813  1.2441 -0.5440
  395Sol     HW 2329   0.082   2.844   6.937 -1.9729  1.7373 -0.5433
  395Sol     MW 2330   0.143   2.877   6.881 -0.5247 -0.5576  0.0078
  396Sol     OW 2331   2.190   1.636  11.325  0.0201 -0.5970  0.3857
  396Sol     HW 2332   2.151   1.600  11.246 -0.1085 -0.1708  0.2531
  396Sol     HW 2333   2.169   1.729  11.322 -0.7086 -0.7195  1.3401
  396Sol     MW 2334   2.185   1.641  11.318 -0.2633  0.1925 -0.7149
  397Sol     OW 2335   3.223   2.454   7.834 -0.0777 -0.3929  0.2269
  397Sol     HW 2336   3.255   2.388   7.773  2.3924  1.7889 -0.9347
  397Sol     HW 2337   3.164   2.406   7.893  1.9228 -3.6858 -0.3217
  397Sol     MW 2338   3.221   2.444   7.834 -0.3796 -0.3645 -0.3357
  398Sol     OW 2339   0.953   3.390  13.721  0.5670 -0.4874  0.1063
  398Sol     HW 2340   0.880   3.333  13.745  0.6794 -0.8493 -0.3952
  398Sol     HW 2341   0.927   3.477  13.749  0.5832 -0.8577  1.2986
  398Sol     MW 2342   0.944   3.392  13.726 -0.2619  0.1087  0.4675
  399Sol     OW 2343   2.753   1.736   9.288 -0.0534  0.1850  0.0366
  399Sol     HW 2344   2.802   1.787   9.353  0.8299  1.2022 -1.3846
  399Sol     HW 2345   2.788   1.766   9.204 -2.2932  0.0506 -0.9697
  399Sol     MW 2346   2.761   1.743   9.286 -1.5100 -0.0872  0.1719
  400Sol     OW 2347   3.274   3.243  10.737  0.3331 -0.1275 -0.2718
  400Sol     HW 2348   3.274   3.147  10.743 -1.0333 -0.0587  1.3490
  400Sol     HW 2349   3.361   3.265  10.706  0.5461 -1.9220 -1.0146
  400Sol     MW 2350   3.282   3.236  10.735  0.4034 -0.7861 -0.8000
  401Sol     OW 2351   2.683   2.997  11.599  0.7422 -0.6753  0.3452
  401Sol     HW 2352   2.740   2.935  11.554  0.6746 -0.6053  0.1621
  401Sol     HW 2353   2.601   2.949  11.612 -0.3001  0.3166 -2.3605
  401Sol     MW 2354   2.681   2.987  11.596 -1.2067 -0.2959  0.2871
  402Sol     OW 2355   1.220   2.801   6.769 -0.4186 -0.0438 -0.0712
  402Sol     HW 2356   1.279   2.742   6.817 -1.0597 -1.0094 -0.4452
  402Sol     HW 2357   1.278   2.866   6.730  0.3319 -0.5501  0.1735
  402Sol     MW 2358   1.230   2.801   6.770  0.3005 -0.1307  0.9962
  403Sol     OW 2359   1.932   3.148  13.940  0.3408 -0.2197 -0.1471
  403Sol     HW 2360   1.900   3.195  13.863 -0.7820 -0.9191 -0.1168
  403Sol     HW 2361   1.983   3.075  13.905 -0.6459 -0.8714 -0.2501
  403Sol     MW 2362   1.934   3.146  13.930  0.2889  0.0405  0.1696
  404Sol     OW 2363   1.943   0.894  10.409 -0.2554  0.3895  0.1636
  404Sol     HW 2364   2.006   0.948  10.362 -0.8829  0.5570 -0.4890
  404Sol     HW 2365   1.900   0.841  10.342 -1.1898  0.6692  0.5265
  404Sol     MW 2366   1.944   0.894  10.399  0.8692 -0.2099  0.3451
  405Sol     OW 2367   0.651   3.040   6.896 -0.1060 -0.4064  0.2175
  405Sol     HW 2368   0.565   3.001   6.881  0.0078 -0.6100  0.0934
  405Sol     HW 2369   0.684   3.060   6.809  0.3441 -1.1305  0.2184
  405Sol     MW 2370   0.646   3.038   6.887 -1.0486 -0.1838 -0.0351
  406Sol     OW 2371   2.214   0.420   9.111 -0.4565 -0.0468  0.6882
  406Sol     HW 2372   2.121   0.441   9.106 -0.9283 -2.4054 -3.4994
  406Sol     HW 2373   2.254   0.469   9.038  1.1708 -0.8123  1.0344
  406Sol     MW 2374   2.210   0.426   9.104 -0.0508 -0.2949  0.4731
  407Sol     OW 2375   1.186   0.853  12.578 -0.0956 -0.1507 -0.2998
  407Sol     HW 2376   1.282   0.858  12.580 -0.1637  1.1764  0.1454
  407Sol     HW 2377   1.167   0.811  12.494  0.9420 -2.9181  0.7986
  407Sol     MW 2378   1.193   0.850  12.570 -0.1412  0.0837  0.4458
  408Sol     OW 2379   1.633   2.549  10.307 -0.2482  0.0298 -0.2148
  408Sol     HW 2380   1.715   2.528  10.262 -0.2441  1.0362 -0.6918
  408Sol     HW 2381   1.615   2.473  10.361  0.8737 -0.3114 -0.3097
  408Sol     MW 2382   1.639   2.541  10.308  0.5768 -0.1427  0.0043
  409Sol     OW 2383   1.278   2.110  13.936  0.0565 -0.4408  0.4315
  409Sol     HW 2384   1.368   2.106  13.905 -0.2322  0.2511 -0.4950
  409Sol     HW 2385   1.239   2.183  13.889 -1.5133 -1.8655 -0.5383
  409Sol     MW 2386   1.282   2.116  13.929  0.4970 -0.2304  0.3846
  410Sol     OW 2387   2.129   2.537  10.974 -0.0416 -0.0596 -0.1345
  410Sol     HW 2388   2.096   2.539  11.064 -0.2454  1.1571 -0.2208
  410Sol     HW 2389   2.167   2.624  10.961 -1.2512  0.2622 -1.6811
  410Sol     MW 2390   2.130   2.545  10.981  0.2859  0.5355 -0.4958
  411Sol     OW 2391   2.685   1.237  13.384  0.1138  0.1700 -0.5119
  411Sol     HW 2392   2.747   1.173  13.350  0.3920  0.6854 -0.9759
  411Sol     HW 2393   2.735   1.319  13.388 -0.3477  0.4409 -0.2719
  411Sol     MW 2394   2.695   1.239  13.382  0.5504 -0.0013  0.0812
  412Sol     OW 2395   2.814   3.068  11.104 -0.7686  0.0837  0.5447
  412Sol     HW 2396   2.728   3.096  11.072 -0.2186 -1.1003 -2.1271
  412Sol     HW 2397   2.855   3.148  11.136 -2.2029  0.9483  0.2705
  412Sol     MW 2398   2.810   3.077  11.104 -0.4664  0.0523  0.2556
  413Sol     OW 2399   0.281   1.342  11.627 -0.3816  0.1413 -0.2038
  413Sol     HW 2400   0.233   1.425  11.616 -0.7082  0.0227  0.2973
  413Sol     HW 2401   0.212   1.277  11.641 -0.1991 -0.4451 -1.9420
  413Sol     MW 2402   0.270   1.344  11.627  0.1887  0.3964  0.0481
  414Sol     OW 2403   0.025   2.801  11.919  0.1797  0.1393 -0.6119
  414Sol     HW 2404  -0.062   2.770  11.947  0.1658 -0.5416 -1.3606
  414Sol     HW 2405   0.082   2.725  11.930  1.3116  1.3814  2.5256
  414Sol     MW 2406   0.022   2.791  11.922  0.7939 -0.5129  0.1713
  415Sol     OW 2407   3.201   0.779  11.133  0.2882 -0.3007 -0.1117
  415Sol     HW 2408   3.137   0.792  11.203  0.2192 -1.8391  0.1287
  415Sol     HW 2409   3.280   0.823  11.165  0.0131 -0.2961  0.5771
  415Sol     MW 2410   3.203   0.784  11.142  0.1122 -0.4308  0.7468
  416Sol     OW 2411   0.291   2.484  10.008 -0.0988 -0.5017  0.0407
  416Sol     HW 2412   0.309   2.501  10.100 -0.1553  1.0303 -0.2174
  416Sol     HW 2413   0.341   2.551   9.961 -1.4635 -0.1575 -0.9600
  416Sol     MW 2414   0.297   2.491  10.012  0.4646  0.8727  0.1477
  417Sol     OW 2415   0.974   3.053   7.357 -0.0645  0.4986 -0.3219
  417Sol     HW 2416   1.015   3.102   7.429 -0.0204 -0.9366  0.6591
  417Sol     HW 2417   1.003   2.963   7.370 -2.0162 -0.2113 -0.7099
  417Sol     MW 2418   0.980   3.049   7.365 -0.6493  0.1990  0.4208
  418Sol     OW 2419   2.989   2.371   8.424 -0.0479  0.3770  0.2721
  418Sol     HW 2420   3.013   2.363   8.516  0.4790  0.2589  0.1266
  418Sol     HW 2421   3.073   2.373   8.378 -0.3190 -1.7387 -0.3840
  418Sol     MW 2422   2.999   2.370   8.428  0.5627  0.4785 -0.3057
  419Sol     OW 2423   1.376   1.339   7.500  0.1004 -0.0666  0.2640
  419Sol     HW 2424   1.301   1.395   7.521  0.7316  1.0039 -0.2974
  419Sol     HW 2425   1.449   1.379   7.549  0.4213 -0.7708  0.3578
  419Sol     MW 2426   1.376   1.348   7.507 -0.5550 -0.1837 -0.6516
  420Sol     OW 2427   1.430   1.213   8.069  0.1716  0.3215  0.5241
  420Sol     HW 2428   1.384   1.186   7.989 -1.9974 -0.6780  2.0586
  420Sol     HW 2429   1.439   1.132   8.120  1.3729  0.9802  1.3702
  420Sol     MW 2430   1.426   1.203   8.066  0.0719 -0.0685  0.7107
  421Sol     OW 2431   3.161   3.000  10.059 -0.3746 -0.8869 -0.0506
  421Sol     HW 2432   3.101   3.009   9.985 -0.3909 -1.4217 -0.1015
  421Sol     HW 2433   3.113   3.038  10.133  0.5323  1.7773 -0.7615
  421Sol     MW 2434   3.151   3.004  10.059  0.5623 -0.0091 -0.0530
  422Sol     OW 2435   1.424   1.866  10.055  0.9114 -0.6418 -0.3993
  422Sol     HW 2436   1.411   1.959  10.075 -0.7519 -0.6887 -1.1409
  422Sol     HW 2437   1.449   1.865   9.962  1.3246 -0.9030 -0.2860
  422Sol     MW 2438   1.425   1.874  10.048 -0.2999  0.4337 -0.0747
  423Sol     OW 2439   0.025   2.019  11.475 -0.2051  0.0770  0.1221
  423Sol     HW 2440   0.017   2.050  11.385  0.2955 -0.4912 -0.1146
  423Sol     HW 2441   0.109   2.054  11.505  0.0920 -0.5765  0.0446
  423Sol     MW 2442   0.032   2.025  11.470 -0.0971  0.0158  0.1941
  424Sol     OW 2443   2.720   1.017   8.973  0.1027 -0.3850 -0.2138
  424Sol     HW 2444   2.762   0.968   8.902 -1.0618  0.5906 -1.5933
  424Sol     HW 2445   2.753   0.976   9.053  2.6147 -0.5315 -1.2786
  424Sol     MW 2446   2.727   1.009   8.974 -0.5226 -0.6647 -0.4322
  425Sol     OW 2447   0.673   0.103  10.319  0.3536 -0.1911 -0.0744
  425Sol     HW 2448   0.696   0.194  10.336 -0.8979  0.0501  0.4204
  425Sol     HW 2449   0.640   0.104  10.229 -2.8150  0.5175  1.0093
  425Sol     MW 2450   0.672   0.111  10.313 -0.3444 -0.9972 -0.0892
  426Sol     OW 2451   1.243   0.091   6.079 -0.2429  0.4202  0.0867
  426Sol     HW 2452   1.249   0.152   6.005  1.7379 -0.1956 -0.3020
  426Sol     HW 2453   1.199   0.140   6.147  1.1337  2.2347 -0.2988
  426Sol     MW 2454   1.240   0.101   6.078 -0.0453  0.3573  0.1598
  427Sol     OW 2455   0.094   2.080   9.470  0.1337 -0.4964  0.5131
  427Sol     HW 2456   0.113   2.108   9.559 -0.1284  1.2132  0.0506
  427Sol     HW 2457   0.006   2.115   9.453  0.6229  0.1018 -0.7878
  427Sol     MW 2458   0.087   2.085   9.476  0.7883 -0.2489  0.6405
  428Sol     OW 2459   3.048   0.894  12.994  0.6142 -0.0699  0.2148
  428Sol     HW 2460   3.132   0.914  12.952 -0.4138 -0.8387 -2.2649
  428Sol     HW 2461   3.071   0.877  13.086  2.4521  5.5868  1.0493
  428Sol     MW 2462   3.058   0.895  12.999  0.7066 -0.7857 -0.2160
  429Sol     OW 2463   0.145   3.006  10.806 -0.3548 -0.2747  0.3537
  429Sol     HW 2464   0.136   2.996  10.901 -1.2183 -1.2065  0.1858
  429Sol     HW 2465   0.234   2.975  10.788 -0.2519 -0.2776  0.8349
  429Sol     MW 2466   0.152   3.002  10.813  0.5620  0.2742 -0.7715
  430Sol     OW 2467   0.085   0.857   6.575 -0.2286 -0.3608  0.2377
  430Sol     HW 2468   0.133   0.775   6.587 -0.7372 -0.8857 -1.1455
  430Sol     HW 2469   0.030   0.865   6.652  0.2475 -1.0347  0.6502
  430Sol     MW 2470   0.084   0.850   6.583 -0.8203 -0.0538  0.8496
  431Sol     OW 2471   2.128   3.306   8.292 -0.5178 -0.1540  0.4747
  431Sol     HW 2472   2.184   3.243   8.246 -0.0129  0.0546  0.8067
  431Sol     HW 2473   2.092   3.361   8.222 -1.1494 -0.9573  0.1602
  431Sol     MW 2474   2.130   3.305   8.282 -0.0001 -0.3323 -0.4012
  432Sol     OW 2475   0.893   1.333  10.845 -0.3549  0.4950 -0.2763
  432Sol     HW 2476   0.967   1.376  10.801  2.8684 -1.6351  2.8246
  432Sol     HW 2477   0.897   1.242  10.816 -1.2145  0.1529  0.6555
  432Sol     MW 2478   0.900   1.329  10.838 -0.2208 -1.1615  0.1594
  433Sol     OW 2479   1.258   1.572  13.485 -0.0340 -0.4476 -0.4554
  433Sol     HW 2480   1.338   1.584  13.536  0.0880  2.9745 -1.3663
  433Sol     HW 2481   1.197   1.636  13.521 -1.0366 -0.2817 -2.3914
  433Sol     MW 2482   1.260   1.579  13.493 -0.4365 -0.0456  0.1374
  434Sol     OW 2483   2.946   2.949   6.262 -0.0683  0.0509  0.3718
  434Sol     HW 2484   2.889   2.968   6.337  1.6238 -0.4855  1.8235
  434Sol     HW 2485   2.905   2.874   6.219 -1.9134  1.3456 -0.2027
  434Sol     MW 2486   2.937   2.944   6.265  0.0594  0.5730 -0.4910
  435Sol     OW 2487   2.509   2.986  10.972 -0.0867 -0.1414 -0.1203
  435Sol     HW 2488   2.457   2.973  11.051 -0.4452  1.2175 -0.1167
  435Sol     HW 2489   2.503   3.080  10.955 -0.2364 -0.4579 -1.9106
  435Sol     MW 2490   2.503   2.994  10.978  0.4962 -0.3865 -0.5845
  436Sol     OW 2491   0.206   1.082   8.640 -0.0112 -0.6861 -0.0204
  436Sol     HW 2492   0.203   1.015   8.708  0.2458 -0.0946  0.5758
  436Sol     HW 2493   0.142   1.053   8.575  0.4730 -1.7789 -0.0225
  436Sol     MW 2494   0.200   1.074   8.640  0.1987  0.9530  0.4802
  437Sol     OW 2495   3.143   1.999  13.100  0.4649  0.0128  0.2040
  437Sol     HW 2496   3.233   1.972  13.121  0.5925  0.9577  0.9257
  437Sol     HW 2497   3.097   1.997  13.184  0.0557  0.4425 -0.0097
  437Sol     MW 2498   3.147   1.997  13.109  0.3901 -0.0260  0.5886
  438Sol     OW 2499   2.069   1.063  13.126 -0.2390 -0.3636 -0.0895
  438Sol     HW 2500   2.154   1.021  13.113 -0.1030  0.3968 -1.8092
  438Sol     HW 2501   2.006   0.992  13.122  0.0308 -0.5196 -2.5120
  438Sol     MW 2502   2.071   1.053  13.124 -0.4358  0.3926 -0.2545
  439Sol     OW 2503   1.090   0.337   7.959 -1.0379 -0.2897  0.2246
  439Sol     HW 2504   1.061   0.249   7.934 -0.5400 -0.0428 -1.2754
  439Sol     HW 2505   1.090   0.387   7.877 -0.1603  0.7818  0.8553
  439Sol     MW 2506   1.087   0.334   7.949 -0.2366 -0.1292 -0.9019
  440Sol     OW 2507   0.099   1.122  11.576  0.5076 -0.3513  0.0460
  440Sol     HW 2508   0.047   1.194  11.541 -0.2340  0.2167  2.2440
  440Sol     HW 2509   0.052   1.094  11.655  1.2661 -2.6544 -0.2873
  440Sol     MW 2510   0.090   1.126  11.580 -0.1021  0.2828  0.8236
  441Sol     OW 2511   0.211   2.196   6.866 -0.1415 -0.0212 -0.1119
  441Sol     HW 2512   0.187   2.283   6.834  0.2709  0.6926  1.4946
  441Sol     HW 2513   0.305   2.189   6.848 -0.0633  0.0787  0.2630
  441Sol     MW 2514   0.218   2.203   6.861  0.4533  0.4087 -0.0167
  442Sol     OW 2515   1.572   3.172  11.487  0.3089  0.2886  0.2295
  442Sol     HW 2516   1.641   3.236  11.501  1.2597 -1.0191  1.5607
  442Sol     HW 2517   1.609   3.111  11.423  0.5631 -0.6605  1.2731
  442Sol     MW 2518   1.581   3.172  11.482  0.0064  0.6168 -0.1274
  443Sol     OW 2519   1.076   2.074  10.292 -0.0365  0.1257 -0.2838
  443Sol     HW 2520   1.075   2.014  10.218 -2.2162 -0.5620  0.2480
  443Sol     HW 2521   1.164   2.067  10.328  0.3553 -1.2047 -1.4491
  443Sol     MW 2522   1.084   2.068  10.288  0.1325  0.5538 -0.1576
  444Sol     OW 2523   2.393   2.336   8.489 -0.0715  0.0354 -0.3231
  444Sol     HW 2524   2.351   2.274   8.429  0.0427 -0.7172  0.3822
  444Sol     HW 2525   2.461   2.378   8.436 -0.6807  0.1473 -1.0284
  444Sol     MW 2526   2.395   2.334   8.478 -0.4005 -0.5866 -0.5927
  445Sol     OW 2527   3.215   2.904   6.349  0.1731  0.0305  0.2514
  445Sol     HW 2528   3.254   2.981   6.390 -0.5127  0.6128 -0.1847
  445Sol     HW 2529   3.130   2.933   6.318  1.0781 -0.1311 -2.5293
  445Sol     MW 2530   3.211   2.913   6.350  0.0849  0.2608  0.0537
  446Sol     OW 2531   3.276   1.073   6.409  0.2570  0.3167  0.1947
  446Sol     HW 2532   3.195   1.038   6.370  1.8473 -0.7852 -2.2047
  446Sol     HW 2533   3.321   0.996   6.443  2.7390  0.1564 -3.1805
  446Sol     MW 2534   3.272   1.063   6.408 -0.1785 -0.6746  0.5905
  447Sol     OW 2535   0.446   1.582  10.174 -0.2262 -0.7933 -0.4303
  447Sol     HW 2536   0.430   1.536  10.091  1.8421  0.3800 -1.5125
  447Sol     HW 2537   0.540   1.575  10.187 -0.5918 -1.4221  2.1281
  447Sol     MW 2538   0.453   1.577  10.168 -0.1488 -0.1247  0.8218
  448Sol     OW 2539   1.827   3.293  11.492  0.5248  0.0999  0.3814
  448Sol     HW 2540   1.876   3.362  11.538  2.7189 -0.0498 -1.6333
  448Sol     HW 2541   1.823   3.324  11.401  2.3293 -2.7936 -0.7506
  448Sol     MW 2542   1.831   3.302  11.488 -1.4209  0.8722 -0.0141
  449Sol     OW 2543   1.189   0.533  12.525  0.4461  0.3929  0.4095
  449Sol     HW 2544   1.240   0.566  12.599 -0.0581  1.1266  0.4323
  449Sol     HW 2545   1.098   0.539  12.554  0.3602 -1.6591  0.6910
  449Sol     MW 2546   1.185   0.536  12.534 -0.1679  0.4421  0.1310
  450Sol     OW 2547   0.135   3.050   8.775 -0.0217  0.1662 -0.2792
  450Sol     HW 2548   0.140   2.965   8.732 -0.0805  0.2445 -0.4427
  450Sol     HW 2549   0.152   3.032   8.867 -0.4025 -0.0747 -0.2549
  450Sol     MW 2550   0.137   3.041   8.779 -0.0576 -0.2530  0.2760
  451Sol     OW 2551   1.630   0.766  14.097  0.1707 -0.8163  0.0011
  451Sol     HW 2552   1.704   0.724  14.140 -0.1081 -1.0253  0.2763
  451Sol     HW 2553   1.618   0.848  14.145 -0.0463 -0.9800  0.2232
  451Sol     MW 2554   1.636   0.769  14.105 -0.2525 -0.2869 -0.1849
  452Sol     OW 2555   1.154   2.711  11.518 -0.6619  0.1548  0.3229
  452Sol     HW 2556   1.093   2.641  11.541 -1.2460  0.5005 -0.1538
  452Sol     HW 2557   1.108   2.763  11.452  0.8897 -0.6746 -1.4700
  452Sol     MW 2558   1.145   2.709  11.514  0.0727 -0.0468 -0.2008
  453Sol     OW 2559   2.337   1.553  13.978  0.0970  0.0126 -0.3807
  453Sol     HW 2560   2.283   1.486  13.936  1.4107 -0.7552 -0.8610
  453Sol     HW 2561   2.291   1.635  13.961 -1.6060 -0.7775  0.3422
  453Sol     MW 2562   2.328   1.554  13.973 -0.1317  0.6883  0.4930
  454Sol     OW 2563   1.597   1.515  10.396  0.0010  0.2152  0.0997
  454Sol     HW 2564   1.606   1.429  10.437  0.4660 -0.4175 -1.3231
  454Sol     HW 2565   1.508   1.544  10.420 -1.6412 -2.3441 -2.6102
  454Sol     MW 2566   1.590   1.510  10.402 -1.1353 -0.4829 -0.5013
  455Sol     OW 2567   1.555   1.764  13.909 -0.3417  0.1559  0.1521
  455Sol     HW 2568   1.592   1.675  13.907  0.9783  0.6914 -0.4030
  455Sol     HW 2569   1.572   1.795  13.998  1.4885  0.7498 -0.3674
  455Sol     MW 2570   1.560   1.759  13.916 -0.0432 -0.2438  0.6293
  456Sol     OW 2571   1.637   3.340   7.918  0.9815  0.6952  0.6266
  456Sol     HW 2572   1.593   3.303   7.994 -0.2489 -0.6662 -0.7175
  456Sol     HW 2573   1.617   3.434   7.921 -0.3154  0.4084  1.1577
  456Sol     MW 2574   1.631   3.345   7.925 -0.2071  0.0413  0.6111
  457Sol     OW 2575   2.041   1.649   7.150 -0.3498  0.0232 -0.7736
  457Sol     HW 2576   1.962   1.697   7.174 -0.3469 -0.2274 -0.2352
  457Sol     HW 2577   2.008   1.569   7.107 -0.4295 -0.5841  0.3925
  457Sol     MW 2578   2.031   1.646   7.148  0.2104 -0.3915  0.6362
  458Sol     OW 2579   0.247   2.244   6.468 -0.3238 -0.3197  0.4664
  458Sol     HW 2580   0.322   2.263   6.411 -0.5535 -0.3895  0.1402
  458Sol     HW 2581   0.285   2.193   6.540 -0.2185 -1.2316 -0.2113
  458Sol     MW 2582   0.258   2.241   6.469  0.5613  0.3375 -0.1410
  459Sol     OW 2583   0.740   1.452  10.128  0.1506  0.6818  0.7827
  459Sol     HW 2584   0.704   1.367  10.153 -0.6208  0.4139 -1.1398
  459Sol     HW 2585   0.775   1.489  10.210 -0.6962 -0.8947  1.8741
  459Sol     MW 2586   0.740   1.448  10.138  0.2600  0.1776 -0.1713
  460Sol     OW 2587   2.674   2.849  12.556 -0.0259 -0.0951  0.1947
  460Sol     HW 2588   2.674   2.895  12.472 -1.1356 -1.0630 -0.3506
  460Sol     HW 2589   2.598   2.792  12.552  1.7577 -2.5959  0.4899
  460Sol     MW 2590   2.667   2.848  12.548  0.0040  0.3416 -0.0884
  461Sol     OW 2591   0.852   2.159   7.419 -0.1492 -0.2486 -0.1458
  461Sol     HW 2592   0.901   2.158   7.337 -0.3798  0.1759 -0.2936
  461Sol     HW 2593   0.786   2.090   7.408  0.3366 -0.7368  0.0065
  461Sol     MW 2594   0.850   2.153   7.410  0.4715 -1.0439 -0.0402
  462Sol     OW 2595   2.636   1.164   6.711 -0.6972 -0.0764 -0.2853
  462Sol     HW 2596   2.600   1.252   6.720  0.2456  0.2900 -0.0521
  462Sol     HW 2597   2.583   1.110   6.769 -1.0246  0.4168 -0.1276
  462Sol     MW 2598   2.628   1.167   6.717 -0.4330 -0.2890  0.2735
  463Sol     OW 2599   2.263   2.641  14.058  0.2716  0.5941  0.1107
  463Sol     HW 2600   2.244   2.633  13.964  1.1317  1.2107 -0.1177
  463Sol     HW 2601   2.191   2.594  14.100  1.5769 -2.4934 -0.9440
  463Sol     MW 2602   2.255   2.636  14.053  0.2604  0.2773 -0.8387
  464Sol     OW 2603   0.410   2.897   6.933 -0.2499 -0.4397 -0.5821
  464Sol     HW 2604   0.316   2.887   6.917 -0.8008  1.4167  1.2196
  464Sol     HW 2605   0.451   2.824   6.886 -2.4786 -0.5488 -2.4442
  464Sol     MW 2606   0.405   2.890   6.927  0.0546 -0.4810 -0.4542
  465Sol     OW 2607   0.974   1.092  12.260  0.6412  0.4907  0.8440
  465Sol     HW 2608   0.980   1.083  12.355  3.1195 -2.1203  0.5002
  465Sol     HW 2609   1.058   1.130  12.234 -0.0835  1.3360 -0.2976
  465Sol     MW 2610   0.982   1.095  12.266  0.6908 -0.5243  0.1304
  466Sol     OW 2611   3.309   1.691   6.143  0.4385 -0.2467  0.5347
  466Sol     HW 2612   3.223   1.650   6.157  1.0770 -0.9983  2.3495
  466Sol     HW 2613   3.290   1.785   6.137 -0.6926 -0.5395 -0.7496
  466Sol     MW 2614   3.299   1.696   6.143 -0.1924  0.0604 -0.2105
  467Sol     OW 2615   1.407   3.056  11.129 -0.0541  0.8502  0.1698
  467Sol     HW 2616   1.480   3.020  11.180  1.2385  1.7335 -1.0126
  467Sol     HW 2617   1.413   3.012  11.045 -1.4694  0.2475  0.3792
  467Sol     MW 2618   1.414   3.049  11.126 -0.1268 -0.4979 -0.2872
  468Sol     OW 2619   1.507   2.134  11.991  0.2525 -0.1790  0.3248
  468Sol     HW 2620   1.553   2.217  12.004  0.6100 -0.1557 -1.0314
  468Sol     HW 2621   1.479   2.108  12.079  0.0902  1.3974  0.7489
  468Sol     MW 2622   1.509   2.139  12.000 -0.9432 -0.1187  0.8020
  469Sol     OW 2623   0.875   2.837  12.111 -0.2778  0.0242 -0.2560
  469Sol     HW 2624   0.871   2.823  12.017 -1.2098 -0.5543 -0.1405
  469Sol     HW 2625   0.864   2.749  12.149  2.5801 -0.0980  0.3583
  469Sol     MW 2626   0.873   2.828  12.106  0.1104  0.4458  0.0513
  470Sol     OW 2627   3.215   2.171  14.166  0.3560 -0.3401  0.1513
  470Sol     HW 2628   3.199   2.236  14.098  1.1396 -1.1772 -0.8490
  470Sol     HW 2629   3.307   2.148  14.155  0.6573 -0.0283  1.9018
  470Sol     MW 2630   3.222   2.175  14.159 -0.0259 -0.7055 -0.6825
  471Sol     OW 2631   2.067   0.740   9.927  0.2153 -0.5480  0.0083
  471Sol     HW 2632   2.121   0.701   9.858  1.4078  0.5613  0.2973
  471Sol     HW 2633   2.029   0.818   9.886  1.3881  0.4314  0.7619
  471Sol     MW 2634   2.068   0.744   9.917  0.7686  0.3136 -0.5491
  472Sol     OW 2635   1.819   1.099   6.826  0.0286  0.0869  0.2106
  472Sol     HW 2636   1.911   1.104   6.851  0.2469 -1.0719 -0.3193
  472Sol     HW 2637   1.774   1.158   6.886  1.2419  1.4377 -0.1655
  472Sol     MW 2638   1.823   1.105   6.833  0.7678 -0.7639 -0.4898
  473Sol     OW 2639   1.328   0.339   8.392 -0.1947  0.2144  0.3725
  473Sol     HW 2640   1.395   0.383   8.445  0.5128  0.1021 -0.4258
  473Sol     HW 2641   1.261   0.407   8.377  0.1715  0.5848  0.4099
  473Sol     MW 2642   1.328   0.349   8.396  0.3884  0.0261  0.4510
  474Sol     OW 2643   2.457   2.017  11.571  0.7302 -0.7546 -0.2642
  474Sol     HW 2644   2.452   2.112  11.583 -1.1919 -0.9278  0.4331
  474Sol     HW 2645   2.502   1.985  11.649 -1.4457 -0.7038  1.0620
  474Sol     MW 2646   2.461   2.023  11.579  0.5046  0.2941  0.4333
  475Sol     OW 2647   3.178   2.650  12.979 -0.5193 -0.2422  0.1980
  475Sol     HW 2648   3.176   2.733  12.931  0.9511 -0.4903 -0.3277
  475Sol     HW 2649   3.249   2.601  12.939 -0.6473 -1.3134  1.2503
  475Sol     MW 2650   3.184   2.653  12.971  0.2462  0.4101 -0.8358
  476Sol     OW 2651   3.064   3.382  12.381  0.7145  0.1244 -0.4485
  476Sol     HW 2652   2.988   3.438  12.366 -0.2447 -1.1975 -0.6473
  476Sol     HW 2653   3.132   3.417  12.324  0.0230  0.8665 -0.8205
  476Sol     MW 2654   3.063   3.390  12.375 -0.4912  0.4057  0.5367
  477Sol     OW 2655   3.113   0.518  13.915 -0.9512  0.2809 -0.2525
  477Sol     HW 2656   3.030   0.523  13.868 -0.8420  2.3112 -0.2673
  477Sol     HW 2657   3.090   0.534  14.007 -0.8611 -1.4247  0.0896
  477Sol     MW 2658   3.104   0.520  13.919 -0.9426 -0.3953 -0.1315
  478Sol     OW 2659   2.890   3.260   6.000  0.2354 -0.6908  0.5647
  478Sol     HW 2660   2.975   3.222   6.020  0.4680 -1.6283 -2.0139
  478Sol     HW 2661   2.910   3.346   5.964  0.1700 -1.3450 -1.0598
  478Sol     MW 2662   2.899   3.265   5.999  0.0239 -0.1631  0.1177
  479Sol     OW 2663   2.458   0.033   8.942  0.6239 -0.2697  0.0725
  479Sol     HW 2664   2.444  -0.057   8.912 -0.4696  0.1621 -0.7734
  479Sol     HW 2665   2.429   0.087   8.869  1.1284  0.7730  0.6364
  479Sol     MW 2666   2.454   0.030   8.933  0.0182 -0.2815 -0.0029
  480Sol     OW 2667   0.976   1.379   7.881 -0.3620  0.7471 -0.1332
  480Sol     HW 2668   0.998   1.472   7.871 -3.9207  1.4175 -3.2275
  480Sol     HW 2669   0.986   1.343   7.793 -1.6823 -1.1541  0.4645
  480Sol     MW 2670   0.978   1.384   7.872 -0.3003 -0.0243  0.1118
  481Sol     OW 2671   1.298   1.477  11.224  0.0837 -0.5132  0.3161
  481Sol     HW 2672   1.264   1.400  11.178  0.7025 -0.6997  0.1623
  481Sol     HW 2673   1.316   1.540  11.154 -1.7843  0.3184  0.5636
  481Sol     MW 2674   1.297   1.476  11.213  0.0014 -0.0956 -0.2918
  482Sol     OW 2675   1.724   0.524   8.075  0.4393  0.5864  0.2991
  482Sol     HW 2676   1.671   0.484   8.144  0.4982  0.0183  0.0123
  482Sol     HW 2677   1.667   0.590   8.035  0.1173  0.3085  0.3067
  482Sol     MW 2678   1.714   0.527   8.078  0.0691 -0.0902  0.2986
  483Sol     OW 2679   2.388   2.310  14.055 -0.2292 -0.1185 -0.6135
  483Sol     HW 2680   2.466   2.347  14.097 -0.7702 -0.7071  0.9617
  483Sol     HW 2681   2.379   2.359  13.973  2.2873 -0.6384 -1.2505
  483Sol     MW 2682   2.395   2.318  14.051 -0.5340  0.6208  0.1832
  484Sol     OW 2683   1.797   2.145   8.077  0.0429 -0.0529 -0.0857
  484Sol     HW 2684   1.816   2.238   8.067 -0.0377  0.0677  0.8936
  484Sol     HW 2685   1.728   2.141   8.143  0.0267 -0.8040 -0.1418
  484Sol     MW 2686   1.792   2.153   8.082 -0.5946  0.0940  0.0541
  485Sol     OW 2687   0.980   2.287  12.809 -0.3203  0.4508  0.6609
  485Sol     HW 2688   0.938   2.280  12.895  1.2428  0.7693  1.4649
  485Sol     HW 2689   1.004   2.197  12.787 -2.1976  0.1413 -0.2163
  485Sol     MW 2690   0.978   2.278  12.815  0.2113  0.2969 -0.5813
  486Sol     OW 2691   1.422   1.387  14.019 -0.0438  0.2667  0.3538
  486Sol     HW 2692   1.342   1.335  14.020  0.4309 -0.4734  0.6363
  486Sol     HW 2693   1.392   1.478  14.025 -0.9324  0.1016 -1.2797
  486Sol     MW 2694   1.412   1.391  14.020  0.5285 -0.3553 -0.1849
  487Sol     OW 2695   3.326   1.208   7.456 -0.0249  0.3659  0.0702
  487Sol     HW 2696   3.275   1.288   7.473 -0.4701 -0.0782  0.8784
  487Sol     HW 2697   3.275   1.138   7.498  0.3384 -0.3510 -0.6653
  487Sol     MW 2698   3.317   1.209   7.462  0.3085 -0.3184  0.4075
  488Sol     OW 2699   0.183   3.074   8.361 -0.4478 -0.3752 -0.4755
  488Sol     HW 2700   0.252   3.128   8.400 -1.0368  0.9362 -1.2428
  488Sol     HW 2701   0.219   2.985   8.362  0.7484  0.1085  0.2722
  488Sol     MW 2702   0.192   3.071   8.365  0.3897  0.1109 -0.4592
  489Sol     OW 2703   1.150   2.519  11.987  0.0108 -0.0780 -0.3663
  489Sol     HW 2704   1.108   2.458  11.926 -1.3209 -0.8114  1.2298
  489Sol     HW 2705   1.200   2.578  11.931 -1.2223 -0.6794 -2.1664
  489Sol     MW 2706   1.151   2.518  11.977 -0.2143 -0.7152  0.0428
  490Sol     OW 2707   1.652   0.077  10.424 -0.8355 -0.3568  0.0921
  490Sol     HW 2708   1.732   0.131  10.426  0.1795 -1.8246  0.1337
  490Sol     HW 2709   1.603   0.110  10.348 -0.0809  0.4190 -0.0720
  490Sol     MW 2710   1.655   0.085  10.417 -0.1322 -0.3317 -0.1271
  491Sol     OW 2711   0.351   0.097  12.501 -0.1701 -1.0769 -0.6486
  491Sol     HW 2712   0.442   0.125  12.490 -0.1221 -0.6686  0.6693
  491Sol     HW 2713   0.336   0.034  12.430  1.5846 -2.2316 -0.0294
  491Sol     MW 2714   0.358   0.094  12.493  0.6957  0.4916  0.2990
  492Sol     OW 2715   3.265   0.842  12.797  0.1405  0.3064  0.7652
  492Sol     HW 2716   3.321   0.896  12.742  1.0807  1.9251  3.1872
  492Sol     HW 2717   3.326   0.784  12.843 -0.4233  0.2687  1.4707
  492Sol     MW 2718   3.276   0.842  12.797 -0.2749  0.5250 -0.0743
  493Sol     OW 2719   1.954   0.334  12.822  0.2536  0.2230 -0.2324
  493Sol     HW 2720   1.891   0.386  12.873  1.4353  0.8334  0.6268
  493Sol     HW 2721   1.904   0.257  12.795 -0.5863  0.1965  1.3096
  493Sol     MW 2722   1.944   0.332  12.824  0.3434 -0.2211  1.0823
  494Sol     OW 2723   3.222   1.669   7.838  0.0339 -0.3972  0.2062
  494Sol     HW 2724   3.306   1.715   7.844 -0.2997  0.1659  0.5239
  494Sol     HW 2725   3.243   1.580   7.868 -0.2889  0.7781  4.2589
  494Sol     MW 2726   3.232   1.665   7.842  0.3169  0.0207 -0.1735
  495Sol     OW 2727   2.802   1.286   9.587  0.0981 -0.1031 -0.0867
  495Sol     HW 2728   2.850   1.361   9.553 -0.2763  0.0170 -0.3511
  495Sol     HW 2729   2.791   1.228   9.511 -0.3336 -0.0449 -0.0714
  495Sol     MW 2730   2.805   1.287   9.577  0.5599  0.1520  0.8523
  496Sol     OW 2731   0.601   0.303   7.939 -0.0358 -0.4282  0.3225
  496Sol     HW 2732   0.570   0.218   7.970  0.2096 -0.9942 -0.9507
  496Sol     HW 2733   0.626   0.288   7.847 -2.0578  1.5021 -0.5992
  496Sol     MW 2734   0.600   0.294   7.933  0.1811  0.1922  0.2383
  497Sol     OW 2735   2.296   0.746   6.264  0.5146  0.1190 -1.2498
  497Sol     HW 2736   2.354   0.821   6.251 -0.0897  0.9089  0.5167
  497Sol     HW 2737   2.233   0.775   6.331 -0.0828 -1.7541 -0.9699
  497Sol     MW 2738   2.295   0.755   6.269 -0.6599  0.4147  0.5915
  498Sol     OW 2739   0.631   2.099  14.188  0.3389 -0.3126 -0.1685
  498Sol     HW 2740   0.663   2.009  14.187  1.9796  0.2466  0.4210
  498Sol     HW 2741   0.556   2.098  14.247  1.1190 -1.0536  0.8244
  498Sol     MW 2742   0.627   2.091  14.193  1.0119  0.3402 -0.7023
  499Sol     OW 2743   0.605   3.429   7.191 -0.4260 -0.0378 -0.1936
  499Sol     HW 2744   0.700   3.420   7.198 -0.2245  1.2562 -0.9982
  499Sol     HW 2745   0.574   3.341   7.169  0.8731  0.0456 -2.5081
  499Sol     MW 2746   0.611   3.421   7.189 -0.0938  0.2343 -0.4303
  500Sol     OW 2747   2.822   0.461  11.898 -0.1803 -0.4723 -0.5267
  500Sol     HW 2748   2.868   0.497  11.974 -0.5108 -1.4816  0.1723
  500Sol     HW 2749   2.888   0.407  11.854 -0.3690 -1.0094 -0.1606
  500Sol     MW 2750   2.832   0.459  11.901  0.7142 -0.1351  0.3612
  501Sol     OW 2751   0.935   2.884  13.616 -0.1927 -0.0526  0.0929
  501Sol     HW 2752   0.972   2.956  13.565 -2.7506  0.7517 -0.7043
  501Sol     HW 2753   0.951   2.909  13.707  2.4235 -0.4196 -0.2297
  501Sol     MW 2754   0.940   2.893  13.620  0.1330  0.4247  0.2099
  502Sol     OW 2755   0.614   3.381  11.135 -0.3426 -0.4133 -0.2411
  502Sol     HW 2756   0.645   3.446  11.198 -0.5346 -0.1888 -0.3757
  502Sol     HW 2757   0.521   3.401  11.125 -0.4700 -0.9130 -0.0403
  502Sol     MW 2758   0.608   3.389  11.140 -0.0478  0.5432 -0.2543
  503Sol     OW 2759   2.788   2.249   8.623  0.0551 -0.3608  0.0695
  503Sol     HW 2760   2.848   2.229   8.694  1.1526 -3.7056 -1.7114
  503Sol     HW 2761   2.812   2.337   8.595  2.3259 -0.5985  1.1880
  503Sol     MW 2762   2.795   2.255   8.627  0.3171 -0.0009 -0.2401
  504Sol     OW 2763   3.082   1.452   8.336  0.1254  0.7475  0.3151
  504Sol     HW 2764   3.019   1.506   8.384  0.0063  0.2712  0.6977
  504Sol     HW 2765   3.142   1.515   8.296 -0.8996  1.2425 -0.4881
  504Sol     MW 2766   3.082   1.463   8.337  0.4196 -0.8606 -0.5874
  505Sol     OW 2767   1.660   2.190  13.084  0.8010  0.2061 -0.2543
  505Sol     HW 2768   1.617   2.126  13.028  0.7455 -0.0114  0.0375
  505Sol     HW 2769   1.715   2.241  13.024  0.8305 -0.0980 -0.4895
  505Sol     MW 2770   1.661   2.189  13.073 -0.0974  0.4524  0.0683
  506Sol     OW 2771   0.782   0.513   7.638  0.3720 -0.2150  0.7179
  506Sol     HW 2772   0.753   0.426   7.667  1.3102 -0.5356  0.7208
  506Sol     HW 2773   0.757   0.571   7.710  0.0819 -0.5419  0.8837
  506Sol     MW 2774   0.777   0.510   7.647  1.2582  0.2466 -0.0302
  507Sol     OW 2775   1.692   1.963  11.848  0.2208  0.7282 -0.2353
  507Sol     HW 2776   1.626   1.919  11.794 -1.0103  0.9598  1.0571
  507Sol     HW 2777   1.651   2.045  11.873 -0.0388 -0.2380  2.7044
  507Sol     MW 2778   1.682   1.966  11.845  0.0635 -0.4624  0.6289
  508Sol     OW 2779   1.510   0.427   8.199 -0.7775 -0.0923  0.7562
  508Sol     HW 2780   1.471   0.379   8.273  1.9617 -0.0865  2.2737
  508Sol     HW 2781   1.455   0.505   8.190 -0.6301  0.3980  3.4656
  508Sol     MW 2782   1.501   0.430   8.205 -0.1691  0.0473 -0.1464
  509Sol     OW 2783   3.117   1.626  13.768  0.4507 -0.4259  0.1440
  509Sol     HW 2784   3.054   1.570  13.720 -0.5881  1.0386 -0.2409
  509Sol     HW 2785   3.153   1.569  13.835 -0.4352 -1.6352 -0.3789
  509Sol     MW 2786   3.114   1.616  13.769 -0.6467 -0.3596  0.3635
  510Sol     OW 2787   0.506   3.466  13.735 -0.0572  0.1533  0.7867
  510Sol     HW 2788   0.499   3.392  13.675 -0.3091 -0.0422  1.0557
  510Sol     HW 2789   0.434   3.454  13.796  1.8571 -1.2421  2.8666
  510Sol     MW 2790   0.499   3.458  13.735  0.5654  0.2711 -0.2407
  511Sol     OW 2791   1.842   0.801  13.349  0.3686  0.5052  0.0950
  511Sol     HW 2792   1.841   0.842  13.436  1.4286  0.1997  0.2549
  511Sol     HW 2793   1.753   0.766  13.339 -0.0561  1.4121  0.6401
  511Sol     MW 2794   1.834   0.801  13.356 -0.3925  0.7201 -0.8215
  512Sol     OW 2795   0.326   1.871  11.642  0.2052 -0.4857 -0.0514
  512Sol     HW 2796   0.318   1.803  11.575 -1.0806  0.9988 -1.4727
  512Sol     HW 2797   0.335   1.824  11.724  0.8729 -2.3602 -1.1727
  512Sol     MW 2798   0.326   1.861  11.643 -0.4306  0.6024 -0.4927
  513Sol     OW 2799   0.955   0.707  10.005 -0.5992  0.2554  0.0966
  513Sol     HW 2800   0.907   0.628  10.029  0.5857 -1.4550 -2.9268
  513Sol     HW 2801   1.046   0.688  10.029 -0.2860  0.6293 -0.7910
  513Sol     MW 2802   0.958   0.698  10.009  0.3386 -0.4235  0.4100
  514Sol     OW 2803   1.834   2.614   9.779 -0.4352 -0.5623 -0.3914
  514Sol     HW 2804   1.798   2.646   9.862  0.5611 -1.7806  0.5326
  514Sol     HW 2805   1.770   2.641   9.713 -1.5239 -0.0703  0.8434
  514Sol     MW 2806   1.825   2.619   9.780  0.5742 -0.2841 -0.5069
  515Sol     OW 2807   1.322   3.271  10.399  0.4080  0.0993  0.1984
  515Sol     HW 2808   1.379   3.217  10.343 -0.8573 -0.3503 -0.6627
  515Sol     HW 2809   1.248   3.294  10.343 -0.1157  0.9397  1.2310
  515Sol     MW 2810   1.321   3.268  10.389  0.0398  0.1777  0.2286
  516Sol     OW 2811   3.217   3.024  13.439 -0.2493 -0.2375  0.0051
  516Sol     HW 2812   3.264   3.015  13.355 -1.1463 -1.3764 -0.3737
  516Sol     HW 2813   3.175   2.939  13.453  2.2882 -1.0927  3.0838
  516Sol     MW 2814   3.218   3.016  13.433 -0.4889  0.4442 -0.3783
  517Sol     OW 2815   1.561   2.775  11.362 -0.2795 -0.6826  0.4000
  517Sol     HW 2816   1.549   2.787  11.456 -1.0086 -1.4581  0.4143
  517Sol     HW 2817   1.472   2.763  11.327  0.1130 -2.5206 -0.0664
  517Sol     MW 2818   1.552   2.775  11.367  1.0195 -0.6078  0.1853
  518Sol     OW 2819   2.147   1.508  12.264 -0.5534 -0.5426  0.2607
  518Sol     HW 2820   2.088   1.556  12.322  0.0746  0.4564  0.0763
  518Sol     HW 2821   2.088   1.457  12.207 -1.2079 -0.2487  0.6633
  518Sol     MW 2822   2.136   1.507  12.264  0.9196  0.4240 -0.0539
  519Sol     OW 2823   0.349   2.240   9.887 -0.1662  0.0819  0.5122
  519Sol     HW 2824   0.441   2.268   9.890  0.0133  0.0212 -2.4903
  519Sol     HW 2825   0.301   2.309   9.932  1.0427  1.6219 -0.5248
  519Sol     MW 2826   0.353   2.248   9.891 -0.2968  0.8101 -0.9714
  520Sol     OW 2827   2.514   0.122  13.116 -0.1223  0.1854  0.1142
  520Sol     HW 2828   2.420   0.135  13.113 -0.2810 -0.8909  0.1300
  520Sol     HW 2829   2.538   0.094  13.028  0.0396 -0.4452  0.3548
  520Sol     MW 2830   2.508   0.121  13.108 -0.0191 -0.1232 -0.1892
  521Sol     OW 2831   1.365   0.091   7.630 -0.1799  0.0008  0.3104
  521Sol     HW 2832   1.280   0.072   7.670 -0.1676  1.4885  1.0993
  521Sol     HW 2833   1.348   0.165   7.571  0.2401 -0.7860 -0.8198
  521Sol     MW 2834   1.356   0.096   7.628  0.0341 -0.0593 -0.2372
  522Sol     OW 2835   3.135   1.706   9.482  0.1791 -0.0682 -0.5379
  522Sol     HW 2836   3.118   1.784   9.535 -0.0730 -0.6021  0.1787
  522Sol     HW 2837   3.226   1.716   9.453 -0.3825  1.3200 -1.8765
  522Sol     MW 2838   3.142   1.714   9.484  0.5075  0.7909 -0.0680
  523Sol     OW 2839   2.728   0.385  12.750 -0.3440  0.4650  0.5062
  523Sol     HW 2840   2.737   0.369  12.844  0.6079 -0.5904  0.2463
  523Sol     HW 2841   2.667   0.458  12.744 -0.2312  0.6972  1.9552
  523Sol     MW 2842   2.723   0.390  12.758 -0.6051 -0.1873  0.0551
  524Sol     OW 2843   2.093   0.645   9.344  0.7546  0.1634 -0.6112
  524Sol     HW 2844   2.043   0.705   9.398  0.3586 -2.2190  1.7917
  524Sol     HW 2845   2.183   0.679   9.346  0.2845  1.3975 -0.4011
  524Sol     MW 2846   2.097   0.653   9.349  0.1495 -0.2717 -1.2343
  525Sol     OW 2847   0.188   1.653   9.667  0.0776 -0.1198 -0.4638
  525Sol     HW 2848   0.244   1.692   9.734  0.8992 -1.5377 -0.2969
  525Sol     HW 2849   0.119   1.718   9.652 -0.2312  0.1392  1.8920
  525Sol     MW 2850   0.187   1.662   9.672  0.0418 -0.0186 -0.1821
  526Sol     OW 2851   2.386   2.865   7.377 -0.2771 -0.0811  0.0726
  526Sol     HW 2852   2.395   2.939   7.317 -0.6013  0.5579  0.8101
  526Sol     HW 2853   2.334   2.801   7.328 -1.5471  0.9063  0.0961
  526Sol     MW 2854   2.382   2.866   7.367 -0.6418 -0.2589  0.3987
  527Sol     OW 2855   3.203   1.657  11.022  0.9024  0.1903 -0.1931
  527Sol     HW 2856   3.298   1.649  11.018  0.7057 -3.0804 -0.2568
  527Sol     HW 2857   3.176   1.663  10.930  0.9989 -0.1603 -0.2474
  527Sol     MW 2858   3.209   1.657  11.013  0.8186  0.5524 -0.7815
  528Sol     OW 2859   0.527   0.743   9.356 -0.3645 -0.0709 -0.6863
  528Sol     HW 2860   0.454   0.772   9.302 -0.9848 -0.7846 -0.2387
  528Sol     HW 2861   0.504   0.772   9.444  0.0615  0.0061 -0.5978
  528Sol     MW 2862   0.519   0.748   9.359 -0.4556  0.1763 -0.7112
  529Sol     OW 2863   0.966   1.306  12.865  0.0617 -0.1154 -0.3503
  529Sol     HW 2864   0.925   1.321  12.780 -0.4360 -0.1081 -0.1159
  529Sol     HW 2865   0.956   1.212  12.881 -1.1647  0.1177  0.3523
  529Sol     MW 2866   0.961   1.299  12.859 -0.0250  0.5066  0.2483
  530Sol     OW 2867   3.251   1.078  11.781  0.8817  0.4730 -0.0829
  530Sol     HW 2868   3.236   0.984  11.772 -0.6829  0.5002  1.8649
  530Sol     HW 2869   3.290   1.088  11.868 -1.1345  1.8005  0.7344
  530Sol     MW 2870   3.253   1.071  11.788 -0.0638 -0.5562  0.0353
  531Sol     OW 2871   1.618   2.740   7.029  0.4235 -0.1473 -0.3196
  531Sol     HW 2872   1.684   2.761   6.964  0.5694 -0.5595 -0.3110
  531Sol     HW 2873   1.635   2.648   7.050  1.1427  0.3021  1.1671
  531Sol     MW 2874   1.626   2.733   7.025  0.0875  0.0702  0.2826
  532Sol     OW 2875   3.158   1.323  13.399 -0.1552 -0.1907 -0.4073
  532Sol     HW 2876   3.086   1.345  13.459 -0.7274 -2.3496 -0.2676
  532Sol     HW 2877   3.115   1.306  13.315  0.3959  0.3826 -0.8081
  532Sol     MW 2878   3.147   1.323  13.397 -0.3950 -0.8263  0.8386
  533Sol     OW 2879   2.754   0.044   8.962  0.1182  0.5013 -0.6350
  533Sol     HW 2880   2.761   0.078   8.873  0.8484 -1.4610 -1.3441
  533Sol     HW 2881   2.665   0.010   8.968  1.4719 -3.6490 -2.2364
  533Sol     MW 2882   2.747   0.044   8.955  0.2462  0.0829  0.3390
  534Sol     OW 2883   2.366   2.504   9.225 -0.3549 -0.0073  0.1258
  534Sol     HW 2884   2.299   2.572   9.226 -0.2827  0.0668 -0.0663
  534Sol     HW 2885   2.405   2.507   9.312  0.9676  1.5106 -0.4981
  534Sol     MW 2886   2.364   2.510   9.233  0.1785  0.6272 -0.2168
  535Sol     OW 2887   2.478   2.078  10.975 -0.5689 -0.3406 -0.4450
  535Sol     HW 2888   2.506   1.995  10.938  0.3526 -0.3153  0.1673
  535Sol     HW 2889   2.495   2.069  11.069  0.9579  1.0679 -0.5574
  535Sol     MW 2890   2.482   2.070  10.981 -0.4778  0.7583  0.3205
  536Sol     OW 2891   0.346   0.504   7.601 -0.4261 -0.0562  0.3077
  536Sol     HW 2892   0.422   0.481   7.548 -1.5621 -2.6344 -0.2810
  536Sol     HW 2893   0.280   0.533   7.538 -1.0435 -1.0396  0.4824
  536Sol     MW 2894   0.347   0.504   7.591 -0.0088 -0.1154 -0.1739
  537Sol     OW 2895   3.288   0.976  11.341  0.0021 -0.7880  0.0632
  537Sol     HW 2896   3.201   1.000  11.309 -0.4881 -1.4407  0.9019
  537Sol     HW 2897   3.283   0.987  11.436  1.4104  0.9944 -0.0260
  537Sol     MW 2898   3.280   0.979  11.347  0.5165  0.1554  0.1822
  538Sol     OW 2899   1.895   0.110   8.111 -0.1942 -0.4214 -0.0749
  538Sol     HW 2900   1.835   0.150   8.049  0.9469  1.5049  0.0200
  538Sol     HW 2901   1.956   0.059   8.057  0.3368  0.6338 -0.4763
  538Sol     MW 2902   1.895   0.109   8.101  0.1900 -0.3056  0.2854
  539Sol     OW 2903   3.162   2.685   7.724  0.6940 -0.2247  0.2010
  539Sol     HW 2904   3.213   2.680   7.643 -0.8525 -0.4933 -0.7873
  539Sol     HW 2905   3.171   2.599   7.764  2.1748  0.1819  0.7757
  539Sol     MW 2906   3.167   2.677   7.720  0.3479  0.4961  0.0498
  540Sol     OW 2907   1.968   2.940   6.346  0.4793 -1.0397  0.0828
  540Sol     HW 2908   1.892   2.895   6.381  0.8567 -1.2008  0.7150
  540Sol     HW 2909   2.042   2.882   6.366  1.0252  0.0277  1.2819
  540Sol     MW 2910   1.968   2.931   6.351  0.4977 -0.7588 -0.7404
  541Sol     OW 2911   1.924   0.511  11.391  0.2418  0.2893 -0.0061
  541Sol     HW 2912   1.883   0.537  11.309 -0.8002  1.8808  0.9831
  541Sol     HW 2913   1.995   0.453  11.365  0.1280  1.0161 -2.0542
  541Sol     MW 2914   1.927   0.508  11.381  0.7110 -0.4867 -0.5963
  542Sol     OW 2915   1.713   2.370  12.003  0.3742  0.0494  0.5426
  542Sol     HW 2916   1.804   2.376  12.032  0.2891  1.0624  0.5922
  542Sol     HW 2917   1.671   2.448  12.038 -0.5975 -0.5907  0.8070
  542Sol     MW 2918   1.717   2.377  12.009 -0.3961  0.5629  0.7590
  543Sol     OW 2919   0.350   1.213   9.099 -0.1839 -0.0334  0.0269
  543Sol     HW 2920   0.328   1.141   9.039  0.8678  0.9702 -1.5955
  543Sol     HW 2921   0.289   1.283   9.075 -0.8476 -0.1821  1.2505
  543Sol     MW 2922   0.342   1.213   9.091  0.3925 -0.3266  0.3716
  544Sol     OW 2923   3.182   2.440  12.096  0.4291 -0.0837 -0.0799
  544Sol     HW 2924   3.206   2.355  12.131 -0.4160 -0.5748 -0.6737
  544Sol     HW 2925   3.206   2.436  12.003  0.1837  0.2356 -0.1591
  544Sol     MW 2926   3.186   2.432  12.091 -0.6217 -0.4380  0.1492
  545Sol     OW 2927   2.866   2.659  13.691  0.0109  0.4979 -0.8235
  545Sol     HW 2928   2.802   2.719  13.653 -0.4236  0.6677  0.1542
  545Sol     HW 2929   2.860   2.580  13.638 -0.8752  0.5861 -0.8621
  545Sol     MW 2930   2.860   2.657  13.683  0.8871 -0.3339 -0.0905
  546Sol     OW 2931   1.588   0.639  12.762 -0.1266 -0.0807  0.2531
  546Sol     HW 2932   1.641   0.605  12.690 -1.6703  1.1245 -1.4865
  546Sol     HW 2933   1.627   0.723  12.784 -0.4046  0.1350 -0.0569
  546Sol     MW 2934   1.596   0.643  12.757  0.3717 -0.5543 -0.2672
  547Sol     OW 2935   2.294   0.859   8.877 -0.0659  0.0912 -0.2890
  547Sol     HW 2936   2.374   0.909   8.864  0.6700 -1.0716 -0.3474
  547Sol     HW 2937   2.231   0.898   8.818  0.5059  0.9194 -0.3619
  547Sol     MW 2938   2.296   0.867   8.871 -0.3881  0.3326 -0.6412
  548Sol     OW 2939   2.896   1.701  13.523  0.2135  0.1941 -0.0097
  548Sol     HW 2940   2.836   1.759  13.569 -0.9410 -0.0330 -1.1829
  548Sol     HW 2941   2.980   1.747  13.523 -0.2993  1.1356  0.4683
  548Sol     MW 2942   2.898   1.710  13.527  0.2590  0.7839  0.1468
  549Sol     OW 2943   0.414   0.695  12.360 -0.5667 -0.3727  0.7949
  549Sol     HW 2944   0.321   0.695  12.384 -0.4700  0.6317  1.1706
  549Sol     HW 2945   0.432   0.784  12.330  0.1532 -0.7049  0.2217
  549Sol     MW 2946   0.407   0.703  12.360  0.1262  0.4032  0.0121
  550Sol     OW 2947   0.241   0.629  13.710 -0.0574 -0.4171  0.4104
  550Sol     HW 2948   0.313   0.661  13.656  1.0804 -2.3499  0.7240
  550Sol     HW 2949   0.208   0.552  13.663 -1.5909  0.1440  0.5347
  550Sol     MW 2950   0.245   0.625  13.701  0.2267  0.1110 -0.2050
  551Sol     OW 2951   0.376   3.368   9.247 -0.1577  0.2817  0.3282
  551Sol     HW 2952   0.336   3.445   9.208  1.2890  0.0361 -1.7220
  551Sol     HW 2953   0.437   3.404   9.312 -1.8215  0.7326  1.6559
  551Sol     MW 2954   0.378   3.379   9.249 -0.3826  0.3476  0.3616
  552Sol     OW 2955   1.309   0.105  10.357 -0.4029  0.0916 -0.7649
  552Sol     HW 2956   1.217   0.125  10.344 -0.5944  0.0009  0.4120
  552Sol     HW 2957   1.311   0.012  10.380 -0.2826  0.6589  1.7179
  552Sol     MW 2958   1.301   0.098  10.358 -0.1374  0.0640  0.0506
  553Sol     OW 2959   3.053   0.196   7.553 -0.0158  0.0964  0.1355
  553Sol     HW 2960   3.146   0.206   7.536  0.2869 -0.3435  1.5071
  553Sol     HW 2961   3.032   0.108   7.521  0.4221 -0.4934  1.4485
  553Sol     MW 2962   3.059   0.189   7.549  0.2916  0.0673 -0.1995
  554Sol     OW 2963   2.238   3.005   9.987 -0.0196 -0.0105  0.1075
  554Sol     HW 2964   2.276   3.035   9.905 -0.5023  1.8358  0.5403
  554Sol     HW 2965   2.144   3.001   9.971  0.0252 -1.3651  0.0561
  554Sol     MW 2966   2.233   3.007   9.978  0.4139  0.3663 -0.4632
  555Sol     OW 2967   2.786   1.039   7.324 -0.2914  0.0271 -0.5510
  555Sol     HW 2968   2.849   1.095   7.368  0.9884 -0.9637 -1.0958
  555Sol     HW 2969   2.734   1.001   7.395  0.5784 -0.1685 -0.0131
  555Sol     MW 2970   2.787   1.041   7.334  0.0405 -0.1584 -0.2519
  556Sol     OW 2971   0.415   2.215   8.445 -0.1035  0.0116  0.1984
  556Sol     HW 2972   0.328   2.183   8.470  0.1391 -0.2762  0.6861
  556Sol     HW 2973   0.431   2.175   8.360 -0.0701 -0.6803  0.5189
  556Sol     MW 2974   0.409   2.208   8.440  0.2314  0.5086  0.2701
  557Sol     OW 2975   2.997   2.090  10.387 -0.0610  0.0562  0.3084
  557Sol     HW 2976   3.008   1.999  10.361 -0.0435 -0.0961  0.8440
  557Sol     HW 2977   2.992   2.138  10.304 -0.4806 -0.4772  0.0203
  557Sol     MW 2978   2.998   2.086  10.377 -0.2717  0.3079 -0.5975
  558Sol     OW 2979   0.281   1.537   7.464 -0.6727  0.6856 -0.1215
  558Sol     HW 2980   0.320   1.509   7.381  1.7219  1.7274  0.5998
  558Sol     HW 2981   0.257   1.455   7.508 -1.3916  0.1068 -1.5723
  558Sol     MW 2982   0.283   1.527   7.460 -0.7054 -0.0369  0.0476
  559Sol     OW 2983   1.737   0.501  10.228  0.0004 -0.0484  0.2837
  559Sol     HW 2984   1.792   0.513  10.306 -1.5321  1.6536  1.1523
  559Sol     HW 2985   1.764   0.571  10.169 -0.1302 -0.1899  0.0566
  559Sol     MW 2986   1.744   0.508  10.230 -0.5253  0.0790  0.0208
  560Sol     OW 2987   2.442   2.665   7.090  0.3003  0.0806  0.0449
  560Sol     HW 2988   2.437   2.580   7.046  2.0992 -1.3176  2.4597
  560Sol     HW 2989   2.370   2.664   7.153  0.2161  0.4239 -0.0441
  560Sol     MW 2990   2.435   2.657   7.091 -0.0784  0.0227 -0.8183
  561Sol     OW 2991   0.814   0.946   7.985 -0.0574  0.5592  0.0917
  561Sol     HW 2992   0.882   0.976   7.925  0.2867 -0.7496 -0.1897
  561Sol     HW 2993   0.857   0.881   8.040 -0.9995 -0.1121  0.0664
  561Sol     MW 2994   0.824   0.943   7.984 -0.6171 -0.6484  0.0100
  562Sol     OW 2995   0.006   1.301  13.069 -0.2121  0.0257 -0.1030
  562Sol     HW 2996  -0.031   1.274  12.985  1.0317  0.4718 -0.8056
  562Sol     HW 2997   0.071   1.234  13.089 -0.6053 -0.1582  0.5839
  562Sol     MW 2998   0.008   1.292  13.063  0.5052 -0.1454  0.3193
  563Sol     OW 2999   0.423   1.207  11.412 -0.1451  0.1454  0.2107
  563Sol     HW 3000   0.359   1.210  11.483  0.5383 -1.6682  0.9398
  563Sol     HW 3001   0.431   1.114  11.391  1.8979  0.3874 -0.1907
  563Sol     MW 3002   0.418   1.199  11.416 -0.3229 -0.2605  0.0017
  564Sol     OW 3003   3.056   0.262   9.776 -0.0895 -0.0121 -0.6032
  564Sol     HW 3004   3.079   0.195   9.839 -0.0243 -0.3031 -0.9338
  564Sol     HW 3005   2.960   0.266   9.779 -0.0676  0.2608 -0.1929
  564Sol     MW 3006   3.049   0.257   9.782 -0.0209  0.4778 -0.2978
  565Sol     OW 3007   1.034   0.267  12.526 -0.7027 -0.3425 -0.2432
  565Sol     HW 3008   1.119   0.309  12.519  0.2011 -2.0553  0.0720
  565Sol     HW 3009   1.012   0.272  12.620 -0.4043 -0.9046 -0.1387
  565Sol     MW 3010   1.040   0.271  12.534 -0.2955  0.0008  0.6105
  566Sol     OW 3011   2.155   2.264  14.185 -0.6589  0.3914  0.0185
  566Sol     HW 3012   2.097   2.223  14.121 -0.5034  0.7420 -0.3510
  566Sol     HW 3013   2.238   2.277  14.138  0.6220 -2.5539  1.3276
  566Sol     MW 3014   2.157   2.262  14.175  0.2534  0.3474  0.3496
  567Sol     OW 3015   2.491   3.323   9.989 -0.7376 -0.5666 -0.0402
  567Sol     HW 3016   2.418   3.326  10.051  0.9407  0.9874  1.9063
  567Sol     HW 3017   2.553   3.261  10.028 -0.6327 -1.2632 -1.2834
  567Sol     MW 3018   2.490   3.317   9.998  0.1072 -0.4264  0.0117
  568Sol     OW 3019   2.009   3.159   9.200 -0.7648 -0.5351 -0.1908
  568Sol     HW 3020   1.960   3.241   9.209  0.3671  0.0117  1.1468
  568Sol     HW 3021   2.096   3.179   9.235 -0.2589 -2.1140 -0.5092
  568Sol     MW 3022   2.013   3.168   9.204 -0.3298  0.1108  0.4939
  569Sol     OW 3023   0.614   2.315   9.857  0.2817 -0.3595 -0.1487
  569Sol     HW 3024   0.610   2.397   9.808 -2.8331 -0.9133 -0.9242
  569Sol     HW 3025   0.694   2.273   9.826  0.7854  1.3874 -1.3303
  569Sol     MW 3026   0.621   2.319   9.850  0.4160  0.1968 -0.3048
  570Sol     OW 3027   3.287   2.416   7.277 -0.1608  0.2350  0.0572
  570Sol     HW 3028   3.362   2.407   7.218 -0.1814 -0.7561  0.1846
  570Sol     HW 3029   3.234   2.338   7.262 -0.9678  0.7346  0.2596
  570Sol     MW 3030   3.289   2.409   7.271  0.6622  0.1576  0.2066
  571Sol     OW 3031   0.456   1.203  13.530 -0.5616 -0.1026  0.2492
  571Sol     HW 3032   0.464   1.109  13.541  2.3441  0.1363  0.5045
  571Sol     HW 3033   0.375   1.226  13.575 -1.6386 -2.5364 -0.3725
  571Sol     MW 3034   0.449   1.197  13.535 -0.5335 -0.3132  0.1578
  572Sol     OW 3035   3.179   2.535   7.039 -0.2821 -0.0237 -0.6271
  572Sol     HW 3036   3.089   2.559   7.059  0.4687  1.9219  0.5876
  572Sol     HW 3037   3.213   2.497   7.120  0.4315  0.6254 -0.6128
  572Sol     MW 3038   3.174   2.534   7.048 -0.4094 -0.3353  0.5723
  573Sol     OW 3039   2.108   0.216   9.756  0.4341 -0.0889  0.0096
  573Sol     HW 3040   2.014   0.207   9.771  0.8470 -1.6723  1.8899
  573Sol     HW 3041   2.134   0.133   9.716  1.1574  0.0360  0.2076
  573Sol     MW 3042   2.102   0.208   9.754  0.2486 -0.0414 -0.1389
  574Sol     OW 3043   0.186   0.963   8.138 -0.0512 -0.2981  0.4529
  574Sol     HW 3044   0.141   0.965   8.053 -0.0725  1.5973  0.4891
  574Sol     HW 3045   0.203   1.055   8.158  0.7472 -0.7899  2.0953
  574Sol     MW 3046   0.184   0.971   8.132 -0.0401 -0.3448  0.1759
  575Sol     OW 3047   1.834   2.912   9.489  0.4499  0.1344 -0.3290
  575Sol     HW 3048   1.894   2.929   9.561  0.0917 -1.0783  0.2667
  575Sol     HW 3049   1.753   2.958   9.513  0.8602  1.1018 -0.7546
  575Sol     MW 3050   1.832   2.918   9.497 -0.6358  0.2001 -0.4536
  576Sol     OW 3051   0.989   0.643   7.515 -0.2860 -0.0575  0.1482
  576Sol     HW 3052   0.960   0.641   7.424 -0.4441 -0.7468  0.2075
  576Sol     HW 3053   0.915   0.606   7.564  0.2492 -0.7777  0.4251
  576Sol     MW 3054   0.980   0.640   7.512 -0.3298  0.0312 -0.1205
  577Sol     OW 3055   1.196   0.545   9.214 -0.0403 -0.6769 -1.3222
  577Sol     HW 3056   1.231   0.457   9.227 -0.7068 -0.8394 -0.6125
  577Sol     HW 3057   1.272   0.598   9.188  0.9086 -0.8555  0.9431
  577Sol     MW 3058   1.206   0.542   9.213 -0.1956 -0.7279 -0.0346
  578Sol     OW 3059   3.216   2.741   6.577  0.1305 -0.2299  0.3101
  578Sol     HW 3060   3.188   2.780   6.495 -1.9070  0.4732  1.3238
  578Sol     HW 3061   3.310   2.761   6.582  0.7755 -2.1177 -2.8219
  578Sol     MW 3062   3.222   2.746   6.570 -0.3575  0.8507 -0.2407
  579Sol     OW 3063   2.556   3.370  12.473 -0.3736  0.0419  0.3292
  579Sol     HW 3064   2.609   3.349  12.396  0.7495 -1.1855  1.4063
  579Sol     HW 3065   2.588   3.455  12.502  0.7090 -0.4824  0.6991
  579Sol     MW 3066   2.563   3.376  12.469 -0.4475 -0.2918 -0.2923
  580Sol     OW 3067   2.080   0.537  11.861  0.7666 -0.4117  0.0585
  580Sol     HW 3068   1.993   0.537  11.901  0.0333 -1.3624 -1.4687
  580Sol     HW 3069   2.090   0.624  11.825 -0.6819 -1.1028 -2.0868
  580Sol     MW 3070   2.073   0.545  11.862  0.3242  0.0352  0.3910
  581Sol     OW 3071   1.565   0.449   7.742  0.4727 -0.4961  0.0570
  581Sol     HW 3072   1.485   0.421   7.787 -0.5032  1.8988 -0.1299
  581Sol     HW 3073   1.594   0.526   7.790  0.4985  0.9597 -2.2056
  581Sol     MW 3074   1.561   0.454   7.750 -0.3787 -1.3997  0.7547
  582Sol     OW 3075   2.350   0.895   9.697 -0.2177 -0.3392 -0.3013
  582Sol     HW 3076   2.416   0.919   9.761 -1.3159  0.6047  0.4901
  582Sol     HW 3077   2.320   0.979   9.660  0.8828 -0.8930 -2.5477
  582Sol     MW 3078   2.353   0.905   9.699  0.6380 -1.4162 -0.1742
  583Sol     OW 3079   3.292   0.519   7.216  0.4352  0.0582 -0.3643
  583Sol     HW 3080   3.350   0.445   7.199  1.4750  0.8580 -0.3762
  583Sol     HW 3081   3.351   0.591   7.239 -0.4907  1.1565 -1.3478
  583Sol     MW 3082   3.302   0.519   7.216 -0.1663  0.6941 -0.7270
  584Sol     OW 3083   1.191   3.278  13.634  0.2124  0.1883 -0.3306
  584Sol     HW 3084   1.245   3.319  13.567  1.0300  1.7661  1.2580
  584Sol     HW 3085   1.134   3.349  13.665  1.3422  0.0572  2.1373
  584Sol     MW 3086   1.190   3.288  13.630 -0.5714  1.0087  0.1892
  585Sol     OW 3087   1.726   2.471   7.379  0.3946  0.1217  0.0072
  585Sol     HW 3088   1.748   2.378   7.388  0.6307  0.2381  0.6785
  585Sol     HW 3089   1.755   2.511   7.461  0.5049  0.8345 -0.3733
  585Sol     MW 3090   1.730   2.466   7.387  0.2045  0.4089 -0.5557
  586Sol     OW 3091   3.210   3.269  10.369  0.0203  0.3808 -0.4506
  586Sol     HW 3092   3.146   3.223  10.315 -1.1682  0.9909  0.4060
  586Sol     HW 3093   3.179   3.255  10.459  1.5664 -0.0203  0.0355
  586Sol     MW 3094   3.202   3.263  10.373 -0.0315 -0.5773 -0.0957
  587Sol     OW 3095   0.093   3.169  12.232 -0.1503 -0.6696 -0.2829
  587Sol     HW 3096   0.112   3.126  12.315  1.2360 -0.0343 -0.2544
  587Sol     HW 3097   0.138   3.114  12.166 -0.8987 -0.9436 -0.5683
  587Sol     MW 3098   0.099   3.160  12.233 -0.5549  0.2636  0.5773
  588Sol     OW 3099   1.333   0.346   5.965 -0.1071 -0.2162  0.3753
  588Sol     HW 3100   1.360   0.435   5.941  0.8892 -0.1549  1.6776
  588Sol     HW 3101   1.407   0.291   5.938  1.6328  0.0110  4.4159
  588Sol     MW 3102   1.342   0.349   5.960 -0.0908  0.0768  0.4156
  589Sol     OW 3103   0.304   1.798  10.274 -0.6664  0.1914  0.4727
  589Sol     HW 3104   0.239   1.836  10.214  2.9723  3.4611 -1.6287
  589Sol     HW 3105   0.360   1.744  10.219  1.4818  1.5741  1.2017
  589Sol     MW 3106   0.303   1.797  10.264 -0.0183  0.2482  0.2492
  590Sol     OW 3107   1.168   2.484  12.258  0.5133  0.0220 -0.2633
  590Sol     HW 3108   1.166   2.489  12.163 -0.7934  0.4190 -0.2229
  590Sol     HW 3109   1.088   2.438  12.282  1.6141 -1.5037  0.5704
  590Sol     MW 3110   1.161   2.480  12.252  0.1180 -0.5121  0.0572
  591Sol     OW 3111   0.419   2.331  11.095  0.3638 -0.1457 -0.4349
  591Sol     HW 3112   0.424   2.359  11.003 -0.9047 -0.4358 -0.6054
  591Sol     HW 3113   0.351   2.386  11.133 -0.7526 -1.6013 -0.2734
  591Sol     MW 3114   0.413   2.338  11.090  0.4002 -0.2841  0.0273
  592Sol     OW 3115   0.124   0.208   6.432  0.9106  0.4678  0.0706
  592Sol     HW 3116   0.147   0.297   6.458  0.3321  0.3094  1.1374
  592Sol     HW 3117   0.029   0.203   6.444  1.0463 -0.5282  0.7743
  592Sol     MW 3118   0.118   0.216   6.436  0.4965 -0.2230 -0.2054
  593Sol     OW 3119   1.415   1.579  12.143 -0.1069  0.1073  0.3345
  593Sol     HW 3120   1.437   1.558  12.234 -0.8728 -0.8037  0.3186
  593Sol     HW 3121   1.358   1.655  12.148  1.2082  1.0944  0.5120
  593Sol     MW 3122   1.412   1.584  12.151  0.6515 -0.1089  0.3375
  594Sol     OW 3123   2.063   2.369  10.212  0.5761  0.2339  0.0424
  594Sol     HW 3124   1.990   2.312  10.237  0.6764 -0.3373 -0.9670
  594Sol     HW 3125   2.139   2.312  10.209  0.5863  0.3026 -1.4905
  594Sol     MW 3126   2.063   2.359  10.214  0.0761 -0.0777 -0.0244
  595Sol     OW 3127   1.888   0.223  10.426 -0.6568 -0.1798 -0.0085
  595Sol     HW 3128   1.974   0.181  10.431 -0.5303 -0.2822 -2.5706
  595Sol     HW 3129   1.885   0.262  10.339 -2.5823  1.2320  0.6534
  595Sol     MW 3130   1.896   0.222  10.419  0.1850  0.1193  1.4138
  596Sol     OW 3131   0.257   2.759   9.116  0.2832 -0.7388  0.1802
  596Sol     HW 3132   0.221   2.834   9.068  1.5497 -0.4059 -0.2812
  596Sol     HW 3133   0.284   2.795   9.200  0.3542 -0.7912  0.1794
  596Sol     MW 3134   0.256   2.769   9.119 -0.0573  0.3686 -0.2261
  597Sol     OW 3135   2.203   2.860   8.008  0.0700 -0.2132 -0.1351
  597Sol     HW 3136   2.177   2.841   7.918  1.0475  0.9388 -0.6708
  597Sol     HW 3137   2.121   2.862   8.057 -0.6178  0.7710 -1.2958
  597Sol     MW 3138   2.194   2.858   8.004  0.0819 -0.1878  0.3015
  598Sol     OW 3139   0.629   0.768  13.936  0.5397  0.0357  0.4405
  598Sol     HW 3140   0.553   0.715  13.962  0.7345 -0.3218  0.2776
  598Sol     HW 3141   0.680   0.779  14.017  0.3258  0.2640  0.5475
  598Sol     MW 3142   0.627   0.765  13.946  1.1457  0.3080  0.4394
  599Sol     OW 3143   2.478   1.558  13.231  0.7108  0.2095 -0.0555
  599Sol     HW 3144   2.573   1.549  13.229  0.9538  2.3048  0.7145
  599Sol     HW 3145   2.463   1.634  13.287 -1.3972  0.2384 -0.6410
  599Sol     MW 3146   2.485   1.564  13.236 -0.9071  0.8281 -0.4037
  600Sol     OW 3147   3.148   1.679   7.014  0.2432 -0.0861 -0.6853
  600Sol     HW 3148   3.084   1.609   7.004 -0.5980  0.4370  0.9650
  600Sol     HW 3149   3.231   1.634   7.032 -0.2753 -0.6650  0.2732
  600Sol     MW 3150   3.150   1.669   7.014 -0.3865 -0.1643 -0.5513
  601Sol     OW 3151   3.157   0.018   9.014  0.1844  0.1831  0.1973
  601Sol     HW 3152   3.170  -0.035   8.935  0.0925  0.2659  0.1264
  601Sol     HW 3153   3.102   0.091   8.985 -0.4076 -0.1525  0.4923
  601Sol     MW 3154   3.154   0.020   9.004 -0.0827 -0.5322  0.1276
  602Sol     OW 3155   1.251   2.071   9.291 -0.4374 -0.0551  0.0842
  602Sol     HW 3156   1.326   2.127   9.275 -0.8413  0.5896  0.4035
  602Sol     HW 3157   1.276   1.986   9.255  0.1245  0.3651 -0.5306
  602Sol     MW 3158   1.260   2.068   9.286 -0.5130 -0.6151 -0.2015
  603Sol     OW 3159   2.480   1.106   9.904  0.1913  0.5913  0.5853
  603Sol     HW 3160   2.558   1.057   9.930  0.0198 -0.2890 -0.5163
  603Sol     HW 3161   2.508   1.158   9.829 -0.5169 -0.4343 -0.3999
  603Sol     MW 3162   2.489   1.106   9.900 -0.7610 -0.4427  0.1689
  604Sol     OW 3163   1.538   1.888  11.644 -0.8232 -0.4035  0.3371
  604Sol     HW 3164   1.582   1.848  11.570 -0.3190 -0.5221  0.6993
  604Sol     HW 3165   1.446   1.867  11.631 -0.8402  0.2478 -0.6780
  604Sol     MW 3166   1.534   1.883  11.636 -0.0139  0.6510 -0.0768
  605Sol     OW 3167   1.483   3.129  10.220  0.0668 -0.1907 -0.1234
  605Sol     HW 3168   1.495   3.205  10.163  0.3823 -0.4068 -0.3471
  605Sol     HW 3169   1.464   3.057  10.160  1.1747 -0.5810 -0.0090
  605Sol     MW 3170   1.482   3.130  10.210  0.1226  0.0091 -0.4773
  606Sol     OW 3171   2.584   0.075  13.605  0.4127  0.5399 -0.2508
  606Sol     HW 3172   2.669   0.059  13.566  0.3573 -0.6523  0.0864
  606Sol     HW 3173   2.521   0.047  13.538  0.2830  1.0674 -0.3561
  606Sol     MW 3174   2.586   0.071  13.595 -0.5225 -0.3550  0.2606
  607Sol     OW 3175   2.539   1.276   8.506 -0.2867 -0.0106  0.3083
  607Sol     HW 3176   2.510   1.300   8.418  0.0644  1.1809  0.5075
  607Sol     HW 3177   2.515   1.184   8.514 -1.6129  0.2344 -0.5108
  607Sol     MW 3178   2.534   1.270   8.499 -0.0993 -0.9915 -0.3731
  608Sol     OW 3179   2.894   3.208  10.841  0.1153 -0.0303  0.5964
  608Sol     HW 3180   2.853   3.125  10.819 -0.7504  0.4124  0.5300
  608Sol     HW 3181   2.849   3.272  10.786 -0.0070  0.6470  1.4808
  608Sol     MW 3182   2.886   3.206  10.834  0.1236 -0.0533  0.0430
  609Sol     OW 3183   2.999   2.016  14.078 -0.5021  0.3160  0.3456
  609Sol     HW 3184   3.018   1.983  13.990 -1.6586 -1.5581  0.7653
  609Sol     HW 3185   3.081   2.057  14.107  0.2100 -0.0119 -1.1763
  609Sol     MW 3186   3.008   2.017  14.073 -0.1416 -0.6142  0.4407
  610Sol     OW 3187   0.744   1.541  10.932  0.1907  0.2381  0.2634
  610Sol     HW 3188   0.801   1.480  10.885 -1.3104 -0.5309 -0.5979
  610Sol     HW 3189   0.661   1.539  10.884  0.3858  3.6408 -0.2827
  610Sol     MW 3190   0.741   1.535  10.924  0.5669 -0.5853  0.4634
  611Sol     OW 3191   1.687   1.623   8.732  0.7610 -0.1170 -0.6205
  611Sol     HW 3192   1.650   1.601   8.646 -2.1295 -1.3917  0.8831
  611Sol     HW 3193   1.714   1.714   8.724 -1.0763  0.3140 -2.3742
  611Sol     MW 3194   1.686   1.629   8.723  0.4011 -0.7869 -0.3346
  612Sol     OW 3195   2.259   3.440  10.117 -0.3492  0.2783  0.4505
  612Sol     HW 3196   2.319   3.514  10.107 -2.0124  1.5991 -0.0153
  612Sol     HW 3197   2.189   3.457  10.053 -0.6550 -1.8021  0.1926
  612Sol     MW 3198   2.258   3.448  10.110 -0.0997 -0.3140  0.4443
  613Sol     OW 3199   2.088   0.816   8.480  0.2367  0.0499 -0.3263
  613Sol     HW 3200   2.174   0.776   8.471  0.3312  0.2322 -0.2219
  613Sol     HW 3201   2.099   0.883   8.547 -0.4506 -1.2509  1.1213
  613Sol     MW 3202   2.096   0.818   8.485 -0.7415 -0.1249  0.0556
  614Sol     OW 3203   2.293   2.979  13.970  0.1872  0.7505  0.0615
  614Sol     HW 3204   2.315   3.072  13.958 -0.4457  1.1807  2.0903
  614Sol     HW 3205   2.370   2.932  13.939  1.2299  2.0147  0.6933
  614Sol     MW 3206   2.302   2.983  13.966  0.2891 -0.3540 -0.1998
  615Sol     OW 3207   0.201   0.579  10.505  0.2195 -0.2319 -0.0484
  615Sol     HW 3208   0.150   0.605  10.429  1.4814  0.1464 -0.7963
  615Sol     HW 3209   0.196   0.654  10.564 -1.2171 -0.7429  0.4997
  615Sol     MW 3210   0.196   0.588  10.503 -0.0441 -0.0747 -0.1014
  616Sol     OW 3211   1.490   0.027  12.103 -0.0139  0.3564 -0.0063
  616Sol     HW 3212   1.401   0.049  12.128 -0.2610  0.3773 -0.8870
  616Sol     HW 3213   1.486   0.015  12.008  1.1984  1.6990 -0.2328
  616Sol     MW 3214   1.482   0.028  12.097  0.1763  0.2344 -0.4188
  617Sol     OW 3215   0.052   1.780   9.424 -0.0513  0.3503  0.1353
  617Sol     HW 3216   0.044   1.874   9.440 -1.9442  0.1459  0.4927
  617Sol     HW 3217   0.147   1.765   9.416  0.1832  2.6193 -2.1115
  617Sol     MW 3218   0.060   1.787   9.425  0.1896  0.1230 -0.4495
  618Sol     OW 3219   1.586   2.675  10.778 -0.3228 -0.7468 -0.1527
  618Sol     HW 3220   1.680   2.671  10.793 -0.2093 -0.1587 -0.6383
  618Sol     HW 3221   1.578   2.712  10.690 -0.9631 -2.8646 -1.0246
  618Sol     MW 3222   1.594   2.678  10.771 -0.2852 -0.3466  0.2715
  619Sol     OW 3223   0.065   2.371  13.230  0.3462 -0.2752 -0.3719
  619Sol     HW 3224   0.144   2.323  13.204 -0.5003 -0.9437 -1.7963
  619Sol     HW 3225   0.002   2.303  13.255  0.1005  0.2343  0.4214
  619Sol     MW 3226   0.066   2.361  13.230 -0.9713 -0.2374 -0.1721
  620Sol     OW 3227   1.709   2.655  10.033  0.1948 -0.2308 -0.1727
  620Sol     HW 3228   1.739   2.736  10.073  4.3104 -1.5595 -0.3157
  620Sol     HW 3229   1.628   2.634  10.080 -0.0368  3.0169  1.0252
  620Sol     MW 3230   1.704   2.660  10.041 -0.6688  0.3973  0.2979
  621Sol     OW 3231   1.115   2.667   8.192 -0.3177  0.2711  0.2460
  621Sol     HW 3232   1.172   2.722   8.246 -0.6176  0.0724  0.7638
  621Sol     HW 3233   1.084   2.725   8.123  2.3807 -0.1915 -1.4315
  621Sol     MW 3234   1.117   2.677   8.190  0.4274  0.0151  0.0355
  622Sol     OW 3235   1.367   1.639  13.742  0.4895 -0.0031  0.0887
  622Sol     HW 3236   1.422   1.670  13.814  0.4704 -1.9412  0.9517
  622Sol     HW 3237   1.282   1.680  13.757  0.9410  0.8882  0.2389
  622Sol     MW 3238   1.364   1.646  13.750 -0.3426 -0.0483 -0.4360
  623Sol     OW 3239   1.161   0.710  11.721  0.4511 -0.2218  0.1837
  623Sol     HW 3240   1.182   0.644  11.788  1.9391 -0.0358 -0.0784
  623Sol     HW 3241   1.244   0.756  11.707 -0.3694  1.1306 -0.2704
  623Sol     MW 3242   1.170   0.708  11.726 -0.3399 -0.7020  0.0551
  624Sol     OW 3243   3.184   2.444   6.538 -0.4948  0.1986 -0.3669
  624Sol     HW 3244   3.090   2.430   6.552 -0.8350  1.6567 -1.0034
  624Sol     HW 3245   3.200   2.532   6.572  0.6217  0.0008 -0.3687
  624Sol     MW 3246   3.177   2.451   6.542  0.4357 -0.1226  0.1409
  625Sol     OW 3247   1.007   2.290   9.485 -0.5269  0.2626 -0.3195
  625Sol     HW 3248   0.976   2.268   9.397 -0.6128  0.4563 -0.3373
  625Sol     HW 3249   1.041   2.379   9.477 -0.3188  0.1921 -0.2123
  625Sol     MW 3250   1.007   2.296   9.476 -0.2109 -0.9969  1.1741
  626Sol     OW 3251   2.978   0.639   8.906 -0.2190 -0.4034 -0.1900
  626Sol     HW 3252   2.950   0.724   8.874 -0.0974  0.3825  1.7152
  626Sol     HW 3253   2.911   0.614   8.970  1.0222 -0.5569  1.0946
  626Sol     MW 3254   2.970   0.644   8.909  0.0077  0.0053 -1.0772
  627Sol     OW 3255   2.388   1.517  10.490  0.0560 -0.2691  0.4754
  627Sol     HW 3256   2.480   1.491  10.495  0.2607  0.2176 -0.5156
  627Sol     HW 3257   2.391   1.609  10.463 -0.7359 -0.7061 -1.1719
  627Sol     MW 3258   2.397   1.523  10.488 -0.5105 -0.6108 -0.0695
  628Sol     OW 3259   1.155   2.929  11.760 -0.1342  0.0024 -0.0237
  628Sol     HW 3260   1.108   3.003  11.800 -1.6085 -0.8065 -0.2307
  628Sol     HW 3261   1.154   2.949  11.666  1.4328  0.8189  0.1131
  628Sol     MW 3262   1.151   2.938  11.755 -0.1326 -0.1281  0.4292
  629Sol     OW 3263   1.152   3.030  12.350  0.4554 -0.2842  0.2110
  629Sol     HW 3264   1.065   3.046  12.386  0.8036  0.8275  0.5886
  629Sol     HW 3265   1.145   2.945  12.306 -1.3017  0.6312 -1.3343
  629Sol     MW 3266   1.144   3.024  12.349 -0.1001 -0.5779 -0.1804
  630Sol     OW 3267   0.143   1.957  10.094 -0.0953 -0.6197 -0.1416
  630Sol     HW 3268   0.091   1.938  10.016 -0.2738 -0.2453 -0.1171
  630Sol     HW 3269   0.095   2.028  10.138 -0.7861 -1.8093  1.0742
  630Sol     MW 3270   0.134   1.962  10.091  0.6947  0.1901  0.2883
  631Sol     OW 3271   2.771   0.158  11.587  0.5725  0.1727  0.4544
  631Sol     HW 3272   2.850   0.120  11.548  1.4749  1.1005  1.3428
  631Sol     HW 3273   2.795   0.175  11.678 -0.2880  1.4713  0.4529
  631Sol     MW 3274   2.780   0.156  11.592  0.4425 -0.4867  0.2013
  632Sol     OW 3275   2.137   1.578   8.493 -0.5985  0.1533 -0.1444
  632Sol     HW 3276   2.104   1.665   8.515 -0.6627  0.2539 -0.6335
  632Sol     HW 3277   2.058   1.527   8.471 -0.3509  0.7431 -2.5432
  632Sol     MW 3278   2.127   1.581   8.493 -0.5993  0.4426  0.3470
  633Sol     OW 3279   3.098   1.959   9.549  0.0295  0.0804  0.5554
  633Sol     HW 3280   3.078   2.006   9.630  0.9447  1.2116  0.1455
  633Sol     HW 3281   3.129   2.027   9.489 -0.0774 -0.8319 -0.5516
  633Sol     MW 3282   3.099   1.969   9.551 -0.2244 -0.1175  0.4873
  634Sol     OW 3283   0.967   0.780  14.118  0.0580  0.0183  0.0153
  634Sol     HW 3284   0.992   0.754  14.030 -0.0869  2.0074 -0.6414
  634Sol     HW 3285   1.050   0.784  14.167  0.5263  1.9607 -0.8878
  634Sol     MW 3286   0.977   0.778  14.115  0.3300 -0.1610  0.2197
  635Sol     OW 3287   1.835   0.779   7.495 -0.4478  0.4333  0.2476
  635Sol     HW 3288   1.825   0.823   7.411 -0.3758 -1.5620 -0.8260
  635Sol     HW 3289   1.759   0.721   7.502  0.3917 -0.6251  0.7850
  635Sol     MW 3290   1.828   0.778   7.488 -0.0553 -0.5104 -0.2167
  636Sol     OW 3291   3.239   3.349   7.263  0.0869 -0.3061  0.0201
  636Sol     HW 3292   3.316   3.325   7.213  0.9382  0.8894  0.7216
  636Sol     HW 3293   3.218   3.438   7.234  0.3726  0.2616  1.4789
  636Sol     MW 3294   3.244   3.355   7.256  0.1829  0.7331 -0.2723
  637Sol     OW 3295   0.515   0.043   7.988 -0.4310 -0.1760 -0.1027
  637Sol     HW 3296   0.499  -0.023   8.056  0.1360  0.3655  0.5685
  637Sol     HW 3297   0.435   0.044   7.936 -0.0382 -2.1900 -0.8125
  637Sol     MW 3298   0.506   0.037   7.990  0.0767 -0.1933  0.3600
  638Sol     OW 3299   0.877   2.034  10.445  0.0113 -0.0088  0.1497
  638Sol     HW 3300   0.791   2.041  10.403  0.2236  0.6735 -0.1850
  638Sol     HW 3301   0.939   2.048  10.373  0.4262 -1.7431  0.1463
  638Sol     MW 3302   0.875   2.036  10.434  0.7369 -0.7276 -0.6583
  639Sol     OW 3303   3.274   1.758  10.289 -0.4012 -0.6048  0.4142
  639Sol     HW 3304   3.198   1.728  10.339 -0.3051 -0.7094  0.4982
  639Sol     HW 3305   3.313   1.678  10.254  1.6719 -0.9085  3.2464
  639Sol     MW 3306   3.271   1.748  10.291  0.2511 -0.4877 -0.6024
  640Sol     OW 3307   2.614   2.592  11.733  0.3309 -0.4349 -0.0231
  640Sol     HW 3308   2.612   2.665  11.794  0.4431  0.8076 -1.4602
  640Sol     HW 3309   2.687   2.612  11.674  1.2450 -2.4192  0.3931
  640Sol     MW 3310   2.620   2.601  11.733 -0.5126 -0.2233  0.3670
  641Sol     OW 3311   1.680   0.152  10.749 -0.0898 -0.6586  0.4182
  641Sol     HW 3312   1.650   0.070  10.710 -4.0077 -0.6216  3.0612
  641Sol     HW 3313   1.645   0.220  10.691 -0.3243 -0.7755  0.4205
  641Sol     MW 3314   1.674   0.151  10.740 -0.5714 -0.0347 -0.0679
  642Sol     OW 3315   2.961   1.733   7.939 -0.2070  0.6923 -0.4512
  642Sol     HW 3316   3.054   1.720   7.919 -0.2581  1.1602 -1.0115
  642Sol     HW 3317   2.957   1.822   7.975 -0.2976  0.3122  0.4965
  642Sol     MW 3318   2.969   1.740   7.940  0.9756  0.2810 -0.1668
  643Sol     OW 3319   0.882   2.488   9.944  0.4788 -0.2711  0.4047
  643Sol     HW 3320   0.827   2.468  10.020 -0.8636 -2.1744 -1.0329
  643Sol     HW 3321   0.970   2.465   9.973 -0.0659 -1.3406  1.2765
  643Sol     MW 3322   0.885   2.484   9.954 -0.4830  0.1783  0.5860
  644Sol     OW 3323   2.984   2.653  10.046 -0.2137  0.4588  0.5651
  644Sol     HW 3324   2.930   2.676  10.122  0.7832 -2.0725  2.1125
  644Sol     HW 3325   3.072   2.680  10.071  0.1449 -0.5380  0.4020
  644Sol     MW 3326   2.987   2.657  10.055  0.2339  0.4295 -0.5775
  645Sol     OW 3327   1.329   0.984  14.108  0.7242  0.4253 -0.5682
  645Sol     HW 3328   1.294   0.908  14.154  0.9518  0.6779  0.0196
  645Sol     HW 3329   1.334   0.956  14.016 -0.0613  0.0467 -0.5014
  645Sol     MW 3330   1.326   0.975  14.104 -0.7519 -0.3698  0.6370
  646Sol     OW 3331   0.790   0.047  11.644  0.5690 -0.3213  1.1661
  646Sol     HW 3332   0.754   0.049  11.556 -1.0840 -0.2250  1.8284
  646Sol     HW 3333   0.880   0.014  11.633  0.7601  0.7625 -0.6598
  646Sol     MW 3334   0.795   0.044  11.635 -0.2559  0.0777 -0.4371
  647Sol     OW 3335   1.328   3.462  12.574  0.9449 -0.4912  0.4119
  647Sol     HW 3336   1.251   3.456  12.518  1.6780  0.2451 -0.7022
  647Sol     HW 3337   1.294   3.455  12.663 -0.7659  2.5405  0.0585
  647Sol     MW 3338   1.318   3.461  12.577 -0.6985  0.4842 -0.5220
  648Sol     OW 3339   1.557   1.058  10.366 -0.3025 -0.1682  0.4842
  648Sol     HW 3340   1.626   1.057  10.432 -0.5389  0.8116  0.7507
  648Sol     HW 3341   1.480   1.023  10.411 -0.5119  0.6685  0.7984
  648Sol     MW 3342   1.556   1.055  10.376  1.0536  0.0709 -0.1038
  649Sol     OW 3343   1.877   1.054  10.983  0.0977 -0.4865 -0.1643
  649Sol     HW 3344   1.852   0.962  10.984 -0.7592 -0.2609  0.2046
  649Sol     HW 3345   1.794   1.101  10.994  0.5148  0.3282 -0.4575
  649Sol     MW 3346   1.867   1.050  10.984  0.5153  0.3369 -0.4925
  650Sol     OW 3347   2.291   2.863  12.612 -0.5738  0.2020 -0.5193
  650Sol     HW 3348   2.224   2.801  12.582  1.6822 -1.4931 -2.1879
  650Sol     HW 3349   2.305   2.841  12.704 -0.4014 -1.2244 -0.8785
  650Sol     MW 3350   2.286   2.855  12.618 -0.3121 -0.2305  0.1282
  651Sol     OW 3351   0.049   2.994  13.660 -0.2008 -0.0059  0.6065
  651Sol     HW 3352  -0.005   3.010  13.738 -1.7586 -1.7771 -0.0982
  651Sol     HW 3353  -0.012   2.999  13.587  0.5356 -2.2632 -0.1855
  651Sol     MW 3354   0.039   2.996  13.661  0.3461  0.3764  0.1780
  652Sol     OW 3355   1.894   0.391   6.680 -0.0335  0.1564 -0.1565
  652Sol     HW 3356   1.973   0.342   6.701 -0.2504 -0.2815 -0.3599
  652Sol     HW 3357   1.822   0.330   6.697 -0.3403  0.6286  0.2475
  652Sol     MW 3358   1.895   0.381   6.683  0.2190 -0.2141 -0.0084
  653Sol     OW 3359   0.196   0.418  13.544 -0.2259  0.1249  0.2496
  653Sol     HW 3360   0.167   0.485  13.482  0.3298 -0.0237 -0.1802
  653Sol     HW 3361   0.139   0.343  13.527 -0.9164  0.5123  0.8004
  653Sol     MW 3362   0.188   0.417  13.537 -0.5849 -0.0750  0.6421
  654Sol     OW 3363   0.322   2.132   9.300 -0.5855 -0.2563 -0.1845
  654Sol     HW 3364   0.272   2.096   9.373 -2.2885  1.2651 -0.5521
  654Sol     HW 3365   0.344   2.221   9.329 -1.6999  0.5346 -1.6841
  654Sol     MW 3366   0.319   2.137   9.309  0.2585  0.1646  0.3990
  655Sol     OW 3367   2.719   1.384  11.784  0.1550  0.3332  0.2200
  655Sol     HW 3368   2.786   1.355  11.846  0.9387  1.1726 -0.2350
  655Sol     HW 3369   2.637   1.378  11.833  0.6352 -0.1161  0.9704
  655Sol     MW 3370   2.717   1.381  11.794  0.0122  0.0660 -0.0254
  656Sol     OW 3371   2.330   2.978   8.817 -0.1728 -0.5085 -0.3279
  656Sol     HW 3372   2.243   2.992   8.854 -0.4240 -0.5058 -0.9221
  656Sol     HW 3373   2.370   2.913   8.874  0.0650  0.7446  0.9587
  656Sol     MW 3374   2.326   2.973   8.825 -0.3695 -0.2351  0.0534
  657Sol     OW 3375   0.855   2.672   6.319 -0.4240 -0.1398 -0.4714
  657Sol     HW 3376   0.881   2.762   6.337 -0.4434 -0.3765  0.7818
  657Sol     HW 3377   0.850   2.667   6.224 -1.2633  1.4310 -0.5348
  657Sol     MW 3378   0.857   2.679   6.312 -0.2445  0.4197 -0.5763
  658Sol     OW 3379   1.980   3.055  10.063  0.1540 -0.3183  0.3515
  658Sol     HW 3380   1.940   3.142  10.073 -0.7572 -0.6126 -0.5978
  658Sol     HW 3381   1.984   3.021  10.152 -2.0354 -0.3922  0.4528
  658Sol     MW 3382   1.976   3.060  10.072  0.7044  1.2078  0.3061
  659Sol     OW 3383   0.931   1.768  10.523  0.4536  0.7057  0.1388
  659Sol     HW 3384   0.864   1.761  10.591  0.2564  0.4329 -0.0847
  659Sol     HW 3385   0.920   1.857  10.489  0.7318  0.9399  0.6475
  659Sol     MW 3386   0.924   1.775  10.526 -0.5499 -0.5443 -0.8962
  660Sol     OW 3387   1.580   0.283  12.161  0.2969 -0.0915  0.1258
  660Sol     HW 3388   1.540   0.198  12.143  2.3610 -1.0750  0.0792
  660Sol     HW 3389   1.509   0.346  12.149 -0.9205 -1.6779 -1.1768
  660Sol     MW 3390   1.570   0.281  12.158  0.2284 -0.1034 -0.6245
  661Sol     OW 3391   2.708   2.930  13.276  0.3179  0.1629 -0.1925
  661Sol     HW 3392   2.798   2.914  13.249  0.2342 -1.5930  0.5125
  661Sol     HW 3393   2.657   2.922  13.195  0.5196 -1.3084 -0.1923
  661Sol     MW 3394   2.712   2.928  13.266  0.7544  0.3634 -0.0165
  662Sol     OW 3395   2.273   1.246  14.295 -0.0352 -0.8140 -1.1596
  662Sol     HW 3396   2.196   1.303  14.285  1.0361  0.4519 -2.2888
  662Sol     HW 3397   2.239   1.168  14.339 -1.2738  1.2538  1.7149
  662Sol     MW 3398   2.263   1.244  14.298  0.5056  0.4079 -0.1252
  663Sol     OW 3399   2.125   3.257  13.691  0.3158  0.4906 -0.0382
  663Sol     HW 3400   2.044   3.222  13.656  0.1724  0.9904 -0.2081
  663Sol     HW 3401   2.098   3.322  13.755  0.5679  1.6687 -1.1017
  663Sol     MW 3402   2.116   3.259  13.694 -0.2570  0.1928 -0.1751
  664Sol     OW 3403   0.538   2.190  13.923 -0.0594  0.2639 -0.5837
  664Sol     HW 3404   0.611   2.221  13.869  0.3011  0.0402 -0.2297
  664Sol     HW 3405   0.580   2.153  14.001 -0.5042 -0.7283 -0.8133
  664Sol     MW 3406   0.548   2.190  13.925 -1.1994 -0.5202  0.2178
  665Sol     OW 3407   2.697   0.786  10.912  0.2473 -0.0959  0.1591
  665Sol     HW 3408   2.660   0.835  10.839  1.3560  0.9705  0.3005
  665Sol     HW 3409   2.621   0.756  10.962 -0.4371  1.5649  0.1251
  665Sol     MW 3410   2.687   0.788  10.910  0.3475 -0.2783  0.3941
  666Sol     OW 3411   3.289   1.128  14.126  0.6333  0.7295 -0.4483
  666Sol     HW 3412   3.236   1.202  14.158  1.7640  1.3230  0.0708
  666Sol     HW 3413   3.274   1.058  14.190  0.5509  0.9298 -0.2473
  666Sol     MW 3414   3.283   1.128  14.135 -0.3635  0.4803  0.5548
  667Sol     OW 3415   0.467   0.461  13.798  0.0869 -0.6408  0.1070
  667Sol     HW 3416   0.395   0.524  13.797  1.2027  0.6723  0.5704
  667Sol     HW 3417   0.429   0.381  13.762 -1.3563  0.2940 -0.5239
  667Sol     MW 3418   0.457   0.460  13.794 -0.6430 -0.3184 -0.4194
  668Sol     OW 3419   2.024   2.414  13.175 -0.3003  0.3175  0.0881
  668Sol     HW 3420   1.986   2.432  13.261  0.4717  0.3641  0.4218
  668Sol     HW 3421   2.038   2.319  13.175  0.6609  0.4541  0.4178
  668Sol     MW 3422   2.021   2.407  13.183 -0.2274  0.5089 -0.4764
  669Sol     OW 3423   0.001   2.552  13.986  0.0186 -0.3891 -0.3372
  669Sol     HW 3424  -0.021   2.619  13.921  0.6615 -1.3569 -1.5677
  669Sol     HW 3425  -0.054   2.478  13.963 -0.7265 -0.2719  1.0565
  669Sol     MW 3426  -0.006   2.552  13.978  0.4023  0.1992 -0.1753
  670Sol     OW 3427   1.328   0.550   7.855  0.2118  0.0404 -0.7207
  670Sol     HW 3428   1.292   0.471   7.896  1.2819 -0.8962 -1.5345
  670Sol     HW 3429   1.252   0.604   7.836 -0.3915 -0.0057  1.4392
  670Sol     MW 3430   1.318   0.547   7.857  0.1362  0.4342  1.1486
  671Sol     OW 3431   0.163   2.239  11.687 -0.0423 -0.2643  0.3611
  671Sol     HW 3432   0.219   2.207  11.616 -0.8000 -0.5688 -0.1205
  671Sol     HW 3433   0.212   2.221  11.767  0.3716 -0.9017 -0.0238
  671Sol     MW 3434   0.172   2.234  11.687 -0.7404  0.1605  0.5713
  672Sol     OW 3435   2.956   1.554   7.346 -0.5675  0.3741 -0.1811
  672Sol     HW 3436   2.967   1.634   7.295 -0.3780  0.5586  0.1471
  672Sol     HW 3437   2.947   1.485   7.280  0.3334  0.5189 -0.4775
  672Sol     MW 3438   2.957   1.555   7.336 -0.4262  0.1369 -0.2334
  673Sol     OW 3439   2.398   0.049   6.782 -0.3026 -0.0253 -0.7460
  673Sol     HW 3440   2.327   0.022   6.724 -0.4914  0.5052 -0.7594
  673Sol     HW 3441   2.476   0.009   6.743 -0.6576 -1.0339 -0.4403
  673Sol     MW 3442   2.399   0.043   6.773 -0.3525  0.1127  0.3921
  674Sol     OW 3443   0.731   1.864   9.903  0.1492  0.0003  0.8680
  674Sol     HW 3444   0.702   1.913   9.980  2.2229  0.8701  1.1306
  674Sol     HW 3445   0.680   1.784   9.905 -1.8177  1.2313  1.5900
  674Sol     MW 3446   0.724   1.862   9.910  0.4544  0.1030 -0.6885
  675Sol     OW 3447   0.387   0.467  10.298  0.0920  0.3476 -0.1342
  675Sol     HW 3448   0.341   0.520  10.363  0.3689  0.6134 -0.1565
  675Sol     HW 3449   0.412   0.528  10.229 -0.2901  0.0483 -0.5440
  675Sol     MW 3450   0.385   0.477  10.298  0.3852 -0.0230 -0.3660
  676Sol     OW 3451   1.506   0.184  10.183 -0.1214 -0.0939 -0.0454
  676Sol     HW 3452   1.436   0.158  10.243 -0.3423  1.4654  0.4124
  676Sol     HW 3453   1.497   0.279  10.176  0.9314 -0.0670 -1.2747
  676Sol     MW 3454   1.499   0.190  10.188 -1.1770 -0.2002  0.0881
  677Sol     OW 3455   0.030   1.545  10.127 -0.3551  0.3230 -0.1918
  677Sol     HW 3456   0.118   1.522  10.097 -0.7550 -1.1251 -0.3108
  677Sol     HW 3457  -0.011   1.461  10.149 -1.4902  1.0270  0.4790
  677Sol     MW 3458   0.034   1.535  10.127 -0.0110 -0.9027 -0.0569
  678Sol     OW 3459   2.122   1.480  12.547  0.5722  0.3539 -0.2236
  678Sol     HW 3460   2.158   1.464  12.635  0.5015 -0.3352 -0.3219
  678Sol     HW 3461   2.197   1.472  12.489  0.8016  1.7126 -0.1454
  678Sol     MW 3462   2.132   1.478  12.550 -0.2375 -0.2506 -0.1493
  679Sol     OW 3463   1.218   3.226   7.491  0.1965  0.6922  0.7646
  679Sol     HW 3464   1.260   3.180   7.564 -0.2725 -1.4242 -0.2624
  679Sol     HW 3465   1.290   3.243   7.430  0.2262  0.5998  0.7738
  679Sol     MW 3466   1.229   3.224   7.493 -0.3728  0.1690 -0.8334
  680Sol     OW 3467   2.996   0.809  10.133 -0.1549 -1.3823 -0.4576
  680Sol     HW 3468   3.011   0.896  10.096 -0.2549 -0.3821  1.7745
  680Sol     HW 3469   3.065   0.799  10.200 -2.5979 -1.2750  2.1795
  680Sol     MW 3470   3.004   0.816  10.136 -0.8618 -0.1383 -0.0871
  681Sol     OW 3471   2.112   2.306   9.567  0.0784 -0.0471  0.2984
  681Sol     HW 3472   2.140   2.317   9.476  0.9921  0.7827  0.6666
  681Sol     HW 3473   2.125   2.213   9.585  1.0157  0.0134 -0.0585
  681Sol     MW 3474   2.116   2.299   9.560 -0.5727  0.0866  0.0600
  682Sol     OW 3475   0.750   2.551  13.497  0.3157 -0.2472 -0.1122
  682Sol     HW 3476   0.711   2.471  13.531 -0.9961  0.8924  1.1843
  682Sol     HW 3477   0.838   2.527  13.470  0.2209 -1.9286  1.0488
  682Sol     MW 3478   0.754   2.542  13.497  0.2207  0.8556 -0.1883
  683Sol     OW 3479   0.886   0.822   8.962 -0.4738  0.1708 -0.0108
  683Sol     HW 3480   0.798   0.839   8.994 -0.6046 -0.0831 -0.2379
  683Sol     HW 3481   0.883   0.733   8.928 -0.2203  0.2838 -0.3351
  683Sol     MW 3482   0.878   0.815   8.962  0.6478 -0.1266 -0.3710
  684Sol     OW 3483   1.354   3.391   9.615  0.2454  0.1040 -0.2530
  684Sol     HW 3484   1.274   3.418   9.570  1.1697  1.9447 -0.8544
  684Sol     HW 3485   1.424   3.433   9.565  1.6169 -1.7051  0.0956
  684Sol     MW 3486   1.353   3.397   9.606  0.1964 -0.0889 -0.6987
  685Sol     OW 3487   3.267   3.164   7.989  0.5655  0.1396 -1.0056
  685Sol     HW 3488   3.282   3.147   8.082 -1.0708  2.3724 -0.2964
  685Sol     HW 3489   3.265   3.077   7.949  1.3469 -0.8540  1.0261
  685Sol     MW 3490   3.268   3.155   7.994  0.0646  0.0122  0.6034
  686Sol     OW 3491   0.990   2.867   7.992 -0.0562 -0.0117  0.2142
  686Sol     HW 3492   1.068   2.863   7.936  0.2583  1.7674  0.4926
  686Sol     HW 3493   0.917   2.850   7.933  0.3991  0.1993 -0.4208
  686Sol     MW 3494   0.991   2.865   7.982 -0.1390 -0.0845  0.2308
  687Sol     OW 3495   0.407   1.576  13.347 -0.9479  0.0536  0.0020
  687Sol     HW 3496   0.350   1.585  13.423 -1.1983 -0.3918 -0.1323
  687Sol     HW 3497   0.366   1.507  13.294  0.7405 -1.6032  0.8231
  687Sol     MW 3498   0.398   1.571  13.349 -0.2504  0.0659 -0.2455
  688Sol     OW 3499   0.287   1.638  11.477  0.3831 -0.1329 -0.0122
  688Sol     HW 3500   0.229   1.688  11.419  0.8584 -0.2095 -0.5644
  688Sol     HW 3501   0.332   1.577  11.418  0.0291 -1.0061  0.6063
  688Sol     MW 3502   0.286   1.637  11.466  0.4336 -0.0967  0.4424
  689Sol     OW 3503   2.234   1.733  10.219  0.1629  0.1629 -0.5422
  689Sol     HW 3504   2.150   1.693  10.198  1.1066 -1.1905 -1.9014
  689Sol     HW 3505   2.297   1.689  10.161  1.6547  1.8298 -0.2575
  689Sol     MW 3506   2.232   1.726  10.212 -0.0710 -0.0826 -0.4889
  690Sol     OW 3507   0.718   0.795  12.042 -0.6616 -0.5761 -0.1562
  690Sol     HW 3508   0.701   0.728  11.976 -0.3479  0.7184 -1.5609
  690Sol     HW 3509   0.798   0.839  12.013 -1.0382  0.6225  0.5694
  690Sol     MW 3510   0.723   0.793  12.034  0.6490  0.0099 -0.9338
  691Sol     OW 3511   0.917   1.461   8.295 -0.5069 -0.6045  0.8787
  691Sol     HW 3512   0.885   1.434   8.381 -0.7285 -1.4201  0.5484
  691Sol     HW 3513   0.963   1.544   8.310  0.4335 -1.3166  1.9537
  691Sol     MW 3514   0.918   1.466   8.304  0.1225 -0.2653 -0.5475
  692Sol     OW 3515   1.619   1.407   6.795  0.5698  0.2263  0.6869
  692Sol     HW 3516   1.527   1.416   6.770  0.9919 -0.2106 -1.1360
  692Sol     HW 3517   1.621   1.335   6.857 -0.4621  0.9754  1.6015
  692Sol     MW 3518   1.611   1.401   6.798  0.3782  0.4441  0.5708
  693Sol     OW 3519   2.367   3.240  13.960 -0.5355  0.0262  0.4016
  693Sol     HW 3520   2.367   3.269  14.051  0.0878 -1.3324  0.8408
  693Sol     HW 3521   2.452   3.269  13.926 -0.3700 -0.3215  0.5233
  693Sol     MW 3522   2.375   3.246  13.965 -0.1661 -0.6127  0.2003
  694Sol     OW 3523   2.512   2.150   6.903 -0.1714  0.2470  0.2793
  694Sol     HW 3524   2.423   2.119   6.886  0.2540 -0.4062 -0.8164
  694Sol     HW 3525   2.552   2.082   6.956  0.3645 -0.5100 -1.0748
  694Sol     MW 3526   2.507   2.142   6.906  0.1342 -0.4864  0.5282
  695Sol     OW 3527   0.742   2.147   8.639  0.4005  0.4346  0.3032
  695Sol     HW 3528   0.720   2.081   8.574  0.9162 -1.5540  2.0688
  695Sol     HW 3529   0.825   2.183   8.610  1.2059 -1.2652  0.4462
  695Sol     MW 3530   0.747   2.144   8.631 -0.2466 -0.6117  0.2021
  696Sol     OW 3531   2.767   1.444   8.558 -0.2597  0.5309 -0.6295
  696Sol     HW 3532   2.703   1.374   8.546 -0.1729  0.6190 -1.6359
  696Sol     HW 3533   2.727   1.501   8.624  1.3070 -2.4068  3.0517
  696Sol     MW 3534   2.757   1.443   8.563 -0.1326  0.2511  0.0524
  697Sol     OW 3535   2.718   3.346   7.893 -0.1932  0.1829  0.7045
  697Sol     HW 3536   2.764   3.266   7.918 -1.7601 -0.9176  0.1580
  697Sol     HW 3537   2.783   3.396   7.843  0.0621 -1.8810 -1.0912
  697Sol     MW 3538   2.728   3.344   7.891  0.3327  0.0093 -0.1626
  698Sol     OW 3539   2.962   3.186   8.363  0.0797  0.5848  0.1161
  698Sol     HW 3540   3.003   3.157   8.444  0.2102  1.0238  0.2127
  698Sol     HW 3541   2.868   3.178   8.378  0.1368 -1.5916 -0.5369
  698Sol     MW 3542   2.958   3.183   8.371 -0.0394 -0.4818 -0.5050
  699Sol     OW 3543   1.159   1.866   7.697  0.2108  0.2983 -0.0253
  699Sol     HW 3544   1.227   1.918   7.741 -1.3852  1.0894  1.5699
  699Sol     HW 3545   1.170   1.885   7.604  2.8334 -0.3911  0.1125
  699Sol     MW 3546   1.166   1.873   7.693 -0.8489  0.2744  1.1255
  700Sol     OW 3547   2.840   2.365   9.585  0.6842 -0.8177  0.2891
  700Sol     HW 3548   2.931   2.388   9.602  0.6718  1.3575 -2.2206
  700Sol     HW 3549   2.798   2.449   9.563 -1.2359 -2.1477 -1.3041
  700Sol     MW 3550   2.844   2.375   9.584 -0.2137 -0.5258  0.2464
  701Sol     OW 3551   2.520   0.942  14.197 -0.0514 -0.2721 -0.5712
  701Sol     HW 3552   2.550   1.018  14.246 -1.3812  0.2621 -0.5467
  701Sol     HW 3553   2.479   0.978  14.119 -0.7956 -0.9433 -0.5080
  701Sol     MW 3554   2.519   0.952  14.195 -0.7024  0.9675  0.2714
  702Sol     OW 3555   0.382   1.949  13.864  0.4132 -0.0918  0.4587
  702Sol     HW 3556   0.450   1.885  13.843  0.9239  0.7136 -0.3958
  702Sol     HW 3557   0.429   2.032  13.874 -0.1495  0.0185  2.3062
  702Sol     MW 3558   0.392   1.951  13.863  0.8852 -0.2776  0.0501
  703Sol     OW 3559   1.407   2.180  12.828  0.5447  0.3600 -0.5886
  703Sol     HW 3560   1.420   2.165  12.734  4.3529  0.5175 -0.1729
  703Sol     HW 3561   1.431   2.097  12.869 -0.0510  0.6251  0.3072
  703Sol     MW 3562   1.411   2.171  12.823 -0.0305 -0.5172 -0.0707
  704Sol     OW 3563   1.892   0.135  13.655  0.1316  0.2815 -0.5215
  704Sol     HW 3564   1.920   0.219  13.690 -0.2042  0.7057 -1.2552
  704Sol     HW 3565   1.921   0.136  13.564 -1.3816  0.3263 -1.0174
  704Sol     MW 3566   1.897   0.143  13.650 -1.1991  0.4586  0.4384
  705Sol     OW 3567   2.575   2.693   9.831 -0.1349 -0.1571 -0.5436
  705Sol     HW 3568   2.526   2.767   9.797 -0.8816 -0.1410  0.5574
  705Sol     HW 3569   2.659   2.696   9.784 -1.3056 -0.4017 -2.7024
  705Sol     MW 3570   2.578   2.700   9.824  0.4906 -0.4477  0.9933
  706Sol     OW 3571   0.034   1.525  14.240 -0.2311 -0.3277 -0.2718
  706Sol     HW 3572   0.067   1.549  14.327  0.8430 -1.0161 -0.4775
  706Sol     HW 3573   0.023   1.609  14.195  0.9007 -0.0626 -0.0679
  706Sol     MW 3574   0.036   1.535  14.244 -0.5587  0.1712  0.1360
  707Sol     OW 3575   2.531   2.594  13.183 -0.8902 -0.2465 -0.0679
  707Sol     HW 3576   2.617   2.623  13.153 -0.7031 -0.4829  0.2395
  707Sol     HW 3577   2.482   2.580  13.102 -1.7152  3.0616 -0.2050
  707Sol     MW 3578   2.535   2.595  13.173 -0.8683  0.4553 -0.7483
  708Sol     OW 3579   2.920   1.545  14.272 -0.3876  0.2185  0.2206
  708Sol     HW 3580   2.934   1.604  14.198  0.6570  0.4713  0.6094
  708Sol     HW 3581   2.829   1.562  14.300 -0.3189  1.1493 -0.1020
  708Sol     MW 3582   2.913   1.552  14.268 -0.1397  0.7039  0.2936
  709Sol     OW 3583   2.911   1.126  11.489  0.5423  0.1957 -0.6537
  709Sol     HW 3584   2.827   1.169  11.502  1.0916  0.9794  0.3868
  709Sol     HW 3585   2.956   1.135  11.573  2.1029  0.7592 -1.5294
  709Sol     MW 3586   2.908   1.130  11.498  0.1382  0.2393  0.0396
  710Sol     OW 3587   0.904   0.842  11.414 -0.4618 -0.3028 -0.6198
  710Sol     HW 3588   0.996   0.863  11.402  0.1599 -1.0142  2.3188
  710Sol     HW 3589   0.863   0.858  11.329  2.2968  0.3487 -1.8580
  710Sol     MW 3590   0.908   0.845  11.406 -0.2863 -0.3933  0.2299
  711Sol     OW 3591   3.100   1.317  12.606  0.6146 -0.0927  0.0447
  711Sol     HW 3592   3.048   1.390  12.638  2.2687  0.5766  1.2821
  711Sol     HW 3593   3.171   1.358  12.556  0.4069 -0.9567 -1.0085
  711Sol     MW 3594   3.102   1.327  12.604 -0.4298  0.2511 -0.0876
  712Sol     OW 3595   2.900   1.586  12.336  0.4552  0.5439 -0.7005
  712Sol     HW 3596   2.838   1.629  12.277  1.1366  1.0930 -1.0275
  712Sol     HW 3597   2.847   1.554  12.408 -0.7186 -1.8776 -2.5547
  712Sol     MW 3598   2.890   1.587  12.337  0.6842  0.6591 -0.4462
  713Sol     OW 3599   1.570   3.346  10.801 -0.0048  0.4470 -0.5909
  713Sol     HW 3600   1.565   3.328  10.895 -2.6559  3.5162 -0.0371
  713Sol     HW 3601   1.495   3.300  10.764  0.9842 -0.6784 -1.2041
  713Sol     MW 3602   1.563   3.341  10.806  0.2413 -0.1806 -0.3000
  714Sol     OW 3603   2.807   1.053   6.372 -0.2412  0.1144  0.0144
  714Sol     HW 3604   2.853   1.064   6.455 -0.6890  0.1743  0.2506
  714Sol     HW 3605   2.784   1.142   6.345  0.1419  0.1198 -0.3121
  714Sol     MW 3606   2.809   1.062   6.377 -0.1273  0.5645 -0.8307
  715Sol     OW 3607   3.169   1.799  13.516 -0.4022 -0.1987 -0.5482
  715Sol     HW 3608   3.177   1.761  13.604 -1.4235 -0.7233 -0.6821
  715Sol     HW 3609   3.211   1.734  13.459 -2.4019 -1.3030 -0.8132
  715Sol     MW 3610   3.174   1.790  13.519  0.0736  0.3309 -0.0570
  716Sol     OW 3611   3.138   3.159   7.075 -0.7266  0.6376 -0.7660
  716Sol     HW 3612   3.214   3.187   7.126 -0.2849 -1.9020  0.0139
  716Sol     HW 3613   3.069   3.146   7.139 -0.6006 -1.1215 -0.9652
  716Sol     MW 3614   3.139   3.161   7.085  0.0383  0.5434  0.1991
  717Sol     OW 3615   0.704   0.356  10.976  0.4871 -0.2864  0.3005
  717Sol     HW 3616   0.721   0.317  11.062  0.4131 -1.9606 -0.4328
  717Sol     HW 3617   0.784   0.403  10.954 -0.7930  3.3655  2.9456
  717Sol     MW 3618   0.712   0.357  10.982  0.8092  0.1113 -0.5067
  718Sol     OW 3619   1.935   2.965   7.098  0.0290 -0.0467 -0.1829
  718Sol     HW 3620   1.926   3.034   7.163 -0.3814  1.6420 -1.9981
  718Sol     HW 3621   2.029   2.961   7.080  0.1310 -0.4502  0.4397
  718Sol     MW 3622   1.943   2.971   7.102 -0.0827  0.4844 -0.3493
  719Sol     OW 3623   0.432   1.808  13.211 -0.2660  0.6168 -0.2126
  719Sol     HW 3624   0.433   1.722  13.253 -2.0068 -0.0051 -1.3935
  719Sol     HW 3625   0.364   1.856  13.258  0.0988  1.0614 -0.1336
  719Sol     MW 3626   0.426   1.805  13.219 -0.0459 -0.1775  0.0471
  720Sol     OW 3627   1.673   0.969   7.672 -0.2618 -0.3195  0.0424
  720Sol     HW 3628   1.754   0.979   7.623  0.2469  0.1431  0.9718
  720Sol     HW 3629   1.698   0.980   7.763 -1.7489  2.1061  0.1985
  720Sol     MW 3630   1.682   0.971   7.676 -0.4167  0.1998 -0.0756
  721Sol     OW 3631   0.898   0.267  10.613 -0.3446 -0.0392  0.5229
  721Sol     HW 3632   0.942   0.298  10.692 -1.8133  1.5961  0.7263
  721Sol     HW 3633   0.810   0.244  10.641 -0.1875 -1.6241 -0.2220
  721Sol     MW 3634   0.894   0.268  10.622  0.5196 -0.2467 -0.2141
  722Sol     OW 3635   1.132   0.305   7.079  0.6843 -0.0886 -0.2627
  722Sol     HW 3636   1.218   0.340   7.102  1.2874  0.8252 -3.6638
  722Sol     HW 3637   1.104   0.358   7.005 -0.8684 -3.2160 -1.9940
  722Sol     MW 3638   1.137   0.313   7.074 -0.0068  0.0257 -0.5982
  723Sol     OW 3639   0.725   0.847   7.226 -0.0792 -0.2647 -0.3847
  723Sol     HW 3640   0.700   0.900   7.150 -1.3915  0.6776  0.6656
  723Sol     HW 3641   0.782   0.904   7.277  0.8646 -0.9262 -0.7049
  723Sol     MW 3642   0.728   0.857   7.224 -0.0712  0.8761 -0.8122
  724Sol     OW 3643   3.174   0.636   6.986  0.2122 -0.0357 -0.3795
  724Sol     HW 3644   3.082   0.611   6.995 -0.5212  2.7091  0.4264
  724Sol     HW 3645   3.215   0.605   7.066  0.0120 -1.2551 -0.7315
  724Sol     MW 3646   3.169   0.631   6.994  0.1093  0.3591 -0.0543
  725Sol     OW 3647   0.017   0.131  14.196 -0.2726  0.3394 -0.3333
  725Sol     HW 3648  -0.000   0.172  14.111  0.7705 -1.1568 -1.3165
  725Sol     HW 3649  -0.069   0.117  14.234 -0.7759  0.7427 -1.3052
  725Sol     MW 3650   0.008   0.133  14.191 -0.2246 -0.1941  0.2579
  726Sol     OW 3651   0.401   2.381   9.378 -0.5955  0.3805 -0.0101
  726Sol     HW 3652   0.477   2.423   9.339 -0.3850 -0.0379 -0.0474
  726Sol     HW 3653   0.327   2.409   9.324 -0.3583  0.1187 -0.4741
  726Sol     MW 3654   0.401   2.387   9.370  0.3237 -0.8453  0.4071
  727Sol     OW 3655   2.847   0.374   7.482  0.3945 -0.2677  0.2949
  727Sol     HW 3656   2.797   0.322   7.419 -0.8436  0.2302  0.8546
  727Sol     HW 3657   2.910   0.311   7.519 -1.2981 -1.4684  1.1937
  727Sol     MW 3658   2.849   0.364   7.480  0.2162 -0.5849 -0.0556
  728Sol     OW 3659   1.197   1.247  14.063  0.3912  0.1047  0.1506
  728Sol     HW 3660   1.103   1.237  14.076  0.6617  0.3706  2.6134
  728Sol     HW 3661   1.232   1.158  14.068  0.4320  0.1548  0.8933
  728Sol     MW 3662   1.192   1.238  14.065 -0.6249  0.1111 -0.1522
  729Sol     OW 3663   0.631   3.224  12.057 -0.1629  0.0895 -0.1481
  729Sol     HW 3664   0.634   3.306  12.107 -0.0410  0.5985 -0.9793
  729Sol     HW 3665   0.685   3.241  11.980 -0.7868 -0.5067 -0.7249
  729Sol     MW 3666   0.636   3.233  12.055 -0.7741  0.6688 -0.1155
  730Sol     OW 3667   2.384   1.065  10.403 -0.2251 -0.4601 -0.7916
  730Sol     HW 3668   2.357   1.136  10.462  0.4518 -1.5488  0.8660
  730Sol     HW 3669   2.448   1.106  10.345  0.5486  0.1864  0.4816
  730Sol     MW 3670   2.387   1.075  10.403  0.4570 -0.4634  0.2551
  731Sol     OW 3671   0.405   3.458   6.507 -0.7793 -0.8196  0.7640
  731Sol     HW 3672   0.379   3.391   6.445  1.1437 -0.7747 -0.1206
  731Sol     HW 3673   0.339   3.526   6.499 -0.5878 -0.8476 -1.1966
  731Sol     MW 3674   0.397   3.458   6.501 -0.1959  0.2487 -0.2719
  732Sol     OW 3675   1.557   0.183   5.949  0.2203  0.2916 -0.1640
  732Sol     HW 3676   1.531   0.134   6.028 -0.3174 -0.9101 -1.0669
  732Sol     HW 3677   1.652   0.184   5.953  0.2740 -1.3506 -0.4058
  732Sol     MW 3678   1.563   0.178   5.956  0.2383 -0.8032  0.0186
  733Sol     OW 3679   0.938   1.172   6.480  0.1593 -0.0867  0.6489
  733Sol     HW 3680   0.910   1.246   6.425 -1.5460 -0.5156  0.8989
  733Sol     HW 3681   1.013   1.206   6.529  0.3349  1.0007 -0.3453
  733Sol     MW 3682   0.942   1.182   6.480  0.1728  0.7673 -0.1695
  734Sol     OW 3683   0.484   2.122   6.610  0.0645  0.0640 -0.1983
  734Sol     HW 3684   0.561   2.172   6.636  1.0647 -1.7019  0.3136
  734Sol     HW 3685   0.483   2.126   6.514  1.5891 -1.0191 -0.2802
  734Sol     MW 3686   0.491   2.127   6.603  0.5112  0.2310  0.1967
  735Sol     OW 3687   1.719   0.569   7.323 -0.1801  0.3985 -0.3251
  735Sol     HW 3688   1.723   0.527   7.409 -0.1966  0.4757 -0.2857
  735Sol     HW 3689   1.808   0.599   7.306 -0.1485  0.2672 -0.3942
  735Sol     MW 3690   1.727   0.568   7.329 -0.0410 -0.1768 -0.2631
  736Sol     OW 3691   2.752   2.196   8.014  0.3299  0.6679 -0.2046
  736Sol     HW 3692   2.764   2.246   7.933 -1.0765  0.0780 -0.7959
  736Sol     HW 3693   2.714   2.113   7.986  1.2033 -0.1441  0.9265
  736Sol     MW 3694   2.750   2.193   8.004  0.3785 -0.1762  0.1216
  737Sol     OW 3695   1.486   2.459  11.403 -0.3628 -0.6669 -0.3595
  737Sol     HW 3696   1.400   2.419  11.411 -0.1360 -1.5846 -2.1998
  737Sol     HW 3697   1.469   2.546  11.367 -0.5106 -0.9990 -1.1093
  737Sol     MW 3698   1.477   2.463  11.400  0.4844  0.1750 -0.3167
  738Sol     OW 3699   3.060   1.140   7.778  0.2461  0.1536  0.3969
  738Sol     HW 3700   3.064   1.232   7.754  0.9314  0.3141  1.1215
  738Sol     HW 3701   3.059   1.140   7.874 -0.4397 -0.5632  0.3988
  738Sol     MW 3702   3.060   1.148   7.784 -0.8053 -0.1570 -0.0950
  739Sol     OW 3703   3.212   0.594   9.036 -0.0834  0.4023  0.0513
  739Sol     HW 3704   3.210   0.669   9.095  0.5359  0.1083  0.4537
  739Sol     HW 3705   3.127   0.596   8.991 -0.6322  0.5025  1.0900
  739Sol     MW 3706   3.204   0.601   9.037 -0.0041 -0.0885  0.4681
  740Sol     OW 3707   3.115   1.576  10.408 -0.0749 -0.1647  0.3384
  740Sol     HW 3708   3.062   1.545  10.335 -0.9421  0.9372  0.4965
  740Sol     HW 3709   3.136   1.496  10.457 -0.5752 -0.7534 -0.3857
  740Sol     MW 3710   3.112   1.566  10.406  0.4914  0.9406 -0.8293
  741Sol     OW 3711   0.024   3.131  11.744  0.1410  0.2393 -0.5963
  741Sol     HW 3712  -0.010   3.051  11.704 -1.5590 -0.7625  2.6495
  741Sol     HW 3713   0.118   3.115  11.754 -0.2462 -1.5873  0.4492
  741Sol     MW 3714   0.029   3.122  11.741 -0.3054 -0.2153 -0.0310
  742Sol     OW 3715   0.373   0.551   9.740  0.2224  0.8781 -0.2284
  742Sol     HW 3716   0.279   0.548   9.757  0.4979 -1.1468  1.1121
  742Sol     HW 3717   0.386   0.490   9.667  0.6383  0.2248  0.3837
  742Sol     MW 3718   0.366   0.545   9.735 -0.4788  0.1876  0.3456
  743Sol     OW 3719   0.403   2.022  12.342 -0.6862 -0.0168 -0.4157
  743Sol     HW 3720   0.428   1.937  12.377  1.0600  1.2777  1.6330
  743Sol     HW 3721   0.319   2.042  12.384  0.1313  0.3748  1.0506
  743Sol     MW 3722   0.398   2.016  12.349  1.1571 -0.1863  0.3331
  744Sol     OW 3723   2.249   3.152  10.237  0.2290  0.3977  0.1382
  744Sol     HW 3724   2.221   3.117  10.153  0.7093  0.8090 -0.1934
  744Sol     HW 3725   2.296   3.233  10.216 -0.1147  0.7866  0.8332
  744Sol     MW 3726   2.251   3.156  10.228 -0.0044  0.1277 -0.1221
  745Sol     OW 3727   2.428   2.091   9.689 -0.1985  0.9115 -0.4559
  745Sol     HW 3728   2.521   2.066   9.695 -0.1906  0.5130 -1.9361
  745Sol     HW 3729   2.405   2.075   9.597 -1.3473  2.3828 -0.4478
  745Sol     MW 3730   2.435   2.087   9.681 -0.1801 -0.1374 -0.2652
  746Sol     OW 3731   2.442   1.748   6.567  0.5087 -0.3878 -0.3211
  746Sol     HW 3732   2.454   1.716   6.656  1.2565 -2.3592 -1.1008
  746Sol     HW 3733   2.347   1.762   6.559  0.5374  0.6736  1.0537
  746Sol     MW 3734   2.434   1.746   6.574  0.2385 -0.1018 -0.3838
  747Sol     OW 3735   0.846   0.527  13.229 -0.2401  0.4304 -0.0243
  747Sol     HW 3736   0.912   0.521  13.299  0.4699 -2.0082 -0.8482
  747Sol     HW 3737   0.801   0.443  13.232 -1.3800  0.9852 -1.3863
  747Sol     MW 3738   0.848   0.519  13.236 -0.6916 -0.4403 -0.3421
  748Sol     OW 3739   0.124   2.584   7.855 -0.0133  0.2060  0.3970
  748Sol     HW 3740   0.036   2.553   7.834 -1.1026  1.8777  2.3299
  748Sol     HW 3741   0.155   2.623   7.773 -0.5087 -1.6118 -0.6793
  748Sol     MW 3742   0.119   2.585   7.845  0.7995  0.3199  0.3309
  749Sol     OW 3743   0.677   2.172   9.431  0.3988 -0.1291 -0.0513
  749Sol     HW 3744   0.583   2.190   9.422  0.3485  0.3262  1.2368
  749Sol     HW 3745   0.681   2.094   9.486  0.7718 -0.3793 -0.4337
  749Sol     MW 3746   0.669   2.167   9.435 -0.4408  0.6687  0.4804
  750Sol     OW 3747   0.961   0.430  10.877  0.0903  0.3650 -0.0045
  750Sol     HW 3748   0.938   0.516  10.910 -0.6456 -0.3210  1.3172
  750Sol     HW 3749   1.043   0.409  10.922  0.0577  0.2124 -0.0156
  750Sol     MW 3750   0.966   0.436  10.884  0.5825  0.1452  0.2231
  751Sol     OW 3751   2.740   3.293   7.547  0.7228 -0.4056 -0.2666
  751Sol     HW 3752   2.815   3.334   7.504  1.0093 -0.4783  0.1603
  751Sol     HW 3753   2.720   3.217   7.493  1.4107 -0.7907  0.0283
  751Sol     MW 3754   2.745   3.290   7.538  0.3490 -1.0282  0.1886
  752Sol     OW 3755   1.963   0.515   9.166  0.2754 -0.0890 -0.3910
  752Sol     HW 3756   1.915   0.453   9.222  0.5673  0.1110  0.0904
  752Sol     HW 3757   2.016   0.565   9.228  1.8312 -0.9465 -0.9991
  752Sol     MW 3758   1.964   0.514   9.177  0.1105  0.0236 -0.0035
  753Sol     OW 3759   0.042   3.382  13.663  0.2288 -0.3114 -0.4246
  753Sol     HW 3760   0.012   3.319  13.729 -0.3226  1.7229  1.3478
  753Sol     HW 3761  -0.037   3.407  13.616  0.2491 -0.0534 -0.3226
  753Sol     MW 3762   0.032   3.378  13.665  0.8312 -0.4975  0.0216
  754Sol     OW 3763   0.408   2.791  10.640  0.2560 -0.1055  0.5009
  754Sol     HW 3764   0.423   2.808  10.547 -2.2129  0.8302  0.2382
  754Sol     HW 3765   0.426   2.874  10.684 -2.5785  0.6515  0.3323
  754Sol     MW 3766   0.411   2.800  10.636  0.5088 -0.5462 -0.2932
  755Sol     OW 3767   3.130   3.296   8.612  0.4429 -0.3273 -0.1182
  755Sol     HW 3768   3.125   3.201   8.615  1.2590 -0.3457  1.1567
  755Sol     HW 3769   3.063   3.326   8.674 -1.1016 -0.0025 -1.8750
  755Sol     MW 3770   3.123   3.290   8.618 -0.1391  0.5831 -0.0440
  756Sol     OW 3771   1.225   0.955   6.093  0.4866  0.3893 -1.0332
  756Sol     HW 3772   1.149   0.919   6.138 -1.1731  1.6333 -2.7744
  756Sol     HW 3773   1.210   1.049   6.091  2.0606  0.6446 -1.4128
  756Sol     MW 3774   1.217   0.960   6.096  0.1544  0.3921  0.1241
  757Sol     OW 3775   0.942   1.225   7.653  0.1546 -0.0322  0.4149
  757Sol     HW 3776   0.859   1.185   7.628  1.0946 -2.5604  1.1230
  757Sol     HW 3777   0.983   1.161   7.711  2.5221  1.2251  0.2271
  757Sol     MW 3778   0.939   1.215   7.656  0.0443 -0.1200 -0.1120
  758Sol     OW 3779   2.422   2.855   7.711  0.5985  0.1782 -0.9490
  758Sol     HW 3780   2.495   2.901   7.753 -0.5654  1.0058  0.2541
  758Sol     HW 3781   2.408   2.903   7.629  0.8207  0.5911 -0.7519
  758Sol     MW 3782   2.427   2.864   7.708  0.1502 -0.0541 -0.1984
  759Sol     OW 3783   1.031   2.801  13.224  0.3127 -0.0245  0.3120
  759Sol     HW 3784   0.954   2.855  13.241  1.6038  1.9438  0.0597
  759Sol     HW 3785   1.047   2.756  13.306 -1.2563 -0.6694  0.2857
  759Sol     MW 3786   1.025   2.802  13.233  0.6499 -0.1467  0.0025
  760Sol     OW 3787   0.577   3.166   7.137  0.1745 -0.2899 -0.1498
  760Sol     HW 3788   0.622   3.154   7.053  1.5872  2.9411  0.0883
  760Sol     HW 3789   0.637   3.128   7.202  1.8991  2.5863 -0.0054
  760Sol     MW 3790   0.586   3.161   7.136  0.6232 -0.6082 -0.2580
  761Sol     OW 3791   2.958   1.718  14.064  0.2221  0.2268 -0.0854
  761Sol     HW 3792   2.925   1.805  14.086  1.8522  0.4642  1.4842
  761Sol     HW 3793   2.989   1.726  13.974 -0.7453  0.9273 -0.3660
  761Sol     MW 3794   2.958   1.727  14.058 -0.7427 -0.1670 -0.6866
  762Sol     OW 3795   2.472   1.115  11.874  0.0999  0.1878  0.1945
  762Sol     HW 3796   2.445   1.197  11.916  1.4506  0.7626 -0.0279
  762Sol     HW 3797   2.448   1.126  11.782 -1.9930 -0.6886  0.6086
  762Sol     MW 3798   2.467   1.123  11.869  0.2998  0.1933 -0.6153
  763Sol     OW 3799   1.040   1.910   8.493 -0.5745 -0.0993  0.1561
  763Sol     HW 3800   0.986   1.860   8.555  1.5058  0.0100  2.1225
  763Sol     HW 3801   1.022   2.002   8.514 -0.3740 -0.0604  0.1604
  763Sol     MW 3802   1.033   1.914   8.500  0.7593 -0.4535 -0.2102
  764Sol     OW 3803   0.791   1.484   8.556 -0.7323  0.0625  0.2223
  764Sol     HW 3804   0.702   1.475   8.590 -0.1533 -0.1434  1.7424
  764Sol     HW 3805   0.824   1.564   8.599 -0.5462  0.7336 -1.1545
  764Sol     MW 3806   0.786   1.491   8.563  0.0949  0.1975  0.5576
  765Sol     OW 3807   1.263   0.128  12.188 -0.5518 -0.0652  0.4213
  765Sol     HW 3808   1.307   0.196  12.239 -1.7062  0.4140  0.8061
  765Sol     HW 3809   1.217   0.075  12.253 -0.6468 -0.4735  0.0216
  765Sol     MW 3810   1.263   0.129  12.198  0.7041  0.5667 -0.1624
  766Sol     OW 3811   2.237   3.191   9.322  0.5451 -0.1523 -0.4199
  766Sol     HW 3812   2.205   3.273   9.358 -2.6918 -0.0252 -3.2711
  766Sol     HW 3813   2.204   3.124   9.381  4.3058  0.5470  2.6592
  766Sol     MW 3814   2.232   3.192   9.330 -0.0353  0.3503 -0.5752
  767Sol     OW 3815   1.720   1.374   7.227 -0.2069 -0.2327  0.7030
  767Sol     HW 3816   1.667   1.451   7.209 -1.0158 -0.5782  1.5573
  767Sol     HW 3817   1.673   1.329   7.298  0.8858 -0.8723  1.0277
  767Sol     MW 3818   1.711   1.377   7.232  0.4249 -0.1592 -0.4383
  768Sol     OW 3819   2.556   2.736   8.441 -0.1290 -0.3670  0.0598
  768Sol     HW 3820   2.625   2.713   8.503 -0.3279 -0.3446  0.2887
  768Sol     HW 3821   2.486   2.772   8.495  0.4207  1.3566 -0.3413
  768Sol     MW 3822   2.556   2.737   8.451  0.2095  0.4297 -0.3417
  769Sol     OW 3823   2.957   3.442   7.770 -0.2342  0.4104 -0.7943
  769Sol     HW 3824   2.983   3.364   7.820 -0.8403  0.0575 -1.0221
  769Sol     HW 3825   3.012   3.512   7.804 -0.8740  0.2428  0.5884
  769Sol     MW 3826   2.965   3.441   7.777 -0.5674  0.3563 -0.1638
  770Sol     OW 3827   1.943   1.041  12.793  0.2941  0.2467 -0.1643
  770Sol     HW 3828   2.001   1.104  12.836 -0.5628  0.2983  0.9406
  770Sol     HW 3829   2.002   0.987  12.741  0.9005  2.8943 -2.3629
  770Sol     MW 3830   1.954   1.042  12.792 -0.3013  0.1524 -0.1384
  771Sol     OW 3831   0.523   0.517  14.308  0.1187  0.2181  0.2753
  771Sol     HW 3832   0.607   0.535  14.265 -0.3287  1.7212  0.0038
  771Sol     HW 3833   0.469   0.593  14.287 -1.9467 -1.5722 -1.1359
  771Sol     MW 3834   0.526   0.526  14.302  0.0016  0.1726  0.1121
  772Sol     OW 3835   1.588   3.278  12.687 -0.3017 -0.5070 -0.3023
  772Sol     HW 3836   1.558   3.273  12.778  0.0219 -0.3491 -0.1856
  772Sol     HW 3837   1.638   3.198  12.674 -0.8957 -0.8455 -0.5452
  772Sol     MW 3838   1.590   3.271  12.694 -0.2865  0.1096  0.2164
  773Sol     OW 3839   2.314   0.047  13.939 -0.2181 -0.4869 -0.3050
  773Sol     HW 3840   2.338  -0.046  13.936  2.0202  0.1337 -3.4007
  773Sol     HW 3841   2.237   0.054  13.883 -1.1875 -0.6454  0.9714
  773Sol     MW 3842   2.309   0.039  13.934 -0.3853 -0.2631 -0.2374
  774Sol     OW 3843   1.782   2.982  10.851 -0.3620  0.5837  0.1257
  774Sol     HW 3844   1.789   2.945  10.763  0.8836 -0.4960  0.6833
  774Sol     HW 3845   1.713   2.931  10.893  0.4366 -0.2291  0.4498
  774Sol     MW 3846   1.776   2.974  10.846 -0.7717  0.5583 -0.1841
  775Sol     OW 3847   1.077   0.643   6.626 -0.2413 -0.1619 -0.1194
  775Sol     HW 3848   1.127   0.712   6.669  1.3754 -1.1980 -0.2966
  775Sol     HW 3849   1.097   0.654   6.533  0.7695 -1.4371 -0.0597
  775Sol     MW 3850   1.083   0.650   6.622  0.5587  0.5894  0.0096
  776Sol     OW 3851   0.357   1.716   9.894  0.8944 -0.4191 -0.0286
  776Sol     HW 3852   0.446   1.685   9.909  1.3452  1.5457  1.4742
  776Sol     HW 3853   0.363   1.812   9.901 -1.3971 -0.2825  0.4017
  776Sol     MW 3854   0.365   1.722   9.896 -0.3412  0.1032  0.2781
  777Sol     OW 3855   2.392   2.480  10.898 -0.5599  0.3751  0.2895
  777Sol     HW 3856   2.299   2.464  10.915 -0.6152  0.1889 -0.1663
  777Sol     HW 3857   2.400   2.575  10.896 -0.2983  0.4265  2.6665
  777Sol     MW 3858   2.384   2.487  10.899  0.2539  0.1204 -0.5362
  778Sol     OW 3859   1.348   0.800  12.027 -0.1456 -0.1294  0.0270
  778Sol     HW 3860   1.366   0.714  12.064  0.2930 -0.2845 -0.5397
  778Sol     HW 3861   1.257   0.818  12.051 -0.3432 -0.8887 -0.1198
  778Sol     MW 3862   1.341   0.794  12.032 -0.2113 -0.3766 -1.3378
  779Sol     OW 3863   0.221   2.295   7.156  0.7875  0.0149 -0.7108
  779Sol     HW 3864   0.213   2.206   7.190  0.8623  0.5514  0.7259
  779Sol     HW 3865   0.199   2.286   7.063 -1.7446 -1.1021 -0.0718
  779Sol     MW 3866   0.218   2.286   7.150  0.0874  0.8074 -0.3709
  780Sol     OW 3867   2.040   0.079   6.403  0.4773  0.5446 -0.2736
  780Sol     HW 3868   1.977   0.081   6.475 -0.0708 -1.3097 -0.6623
  780Sol     HW 3869   2.020  -0.003   6.357  2.1859  0.6899 -1.2990
  780Sol     MW 3870   2.032   0.072   6.405 -0.1376  1.0845 -0.5373
  781Sol     OW 3871   2.936   2.899  13.148 -0.6656 -0.1723  0.7674
  781Sol     HW 3872   2.900   2.871  13.064 -0.8121  0.0982  0.7416
  781Sol     HW 3873   2.962   2.990  13.134 -2.0044  0.3278  1.4202
  781Sol     MW 3874   2.935   2.904  13.139 -0.1637  0.0418 -0.4011
  782Sol     OW 3875   1.559   0.654  13.387 -0.1135 -0.2821 -0.0893
  782Sol     HW 3876   1.528   0.581  13.440  0.5227  0.1431  0.8840
  782Sol     HW 3877   1.510   0.730  13.419  0.3348 -0.0078 -0.0405
  782Sol     MW 3878   1.552   0.654  13.394  1.1825  0.2376 -0.4110
  783Sol     OW 3879   0.877   2.206   6.525  0.6540  0.1668 -0.0052
  783Sol     HW 3880   0.853   2.165   6.442  1.3286  0.0640 -0.1521
  783Sol     HW 3881   0.871   2.300   6.508  0.0857  0.1441  0.0431
  783Sol     MW 3882   0.874   2.211   6.516  0.3708  0.0095  0.5299
  784Sol     OW 3883   1.104   1.695  11.528  0.0197  0.5042 -0.1924
  784Sol     HW 3884   1.023   1.744  11.545  1.1087  1.4823  2.3256
  784Sol     HW 3885   1.078   1.603  11.531 -1.1792  0.8270 -0.4446
  784Sol     MW 3886   1.094   1.691  11.530 -0.0782 -0.2409 -0.4279
  785Sol     OW 3887   1.154   2.521   9.562  0.2215 -0.2473 -0.0680
  785Sol     HW 3888   1.093   2.582   9.602 -1.7996 -2.2493 -0.0079
  785Sol     HW 3889   1.205   2.486   9.636 -1.0996 -1.3184  0.3459
  785Sol     MW 3890   1.153   2.523   9.572 -0.1187 -0.7426  0.0451
  786Sol     OW 3891   2.336   0.588  14.046  0.4129  0.1660 -1.0575
  786Sol     HW 3892   2.272   0.637  14.097  2.1046  0.6035  0.6965
  786Sol     HW 3893   2.338   0.632  13.961 -0.3190  1.2259 -0.5311
  786Sol     MW 3894   2.330   0.596  14.043 -0.1570  0.1071 -0.0414
  787Sol     OW 3895   1.190   1.158   6.878  0.3939  0.1959 -0.3565
  787Sol     HW 3896   1.261   1.094   6.870  0.9298  0.4334  1.9808
  787Sol     HW 3897   1.114   1.106   6.904  0.3491  0.2529 -0.3737
  787Sol     MW 3898   1.190   1.147   6.880  0.1190 -0.6939  0.1174
  788Sol     OW 3899   2.669   3.132   8.917  0.1578  0.5207 -0.0209
  788Sol     HW 3900   2.649   3.062   8.979  1.2643  0.9007  0.7803
  788Sol     HW 3901   2.589   3.184   8.911 -0.5931 -0.6732 -0.4354
  788Sol     MW 3902   2.660   3.130   8.922 -0.4005 -0.0295 -0.3463
  789Sol     OW 3903   2.815   0.513   8.719  0.2865 -0.3036 -0.5718
  789Sol     HW 3904   2.866   0.433   8.705  1.1203  0.2731 -0.8440
  789Sol     HW 3905   2.863   0.561   8.786 -0.7797 -0.5160  0.3578
  789Sol     MW 3906   2.824   0.510   8.724  0.0280 -0.4959 -0.4656
  790Sol     OW 3907   2.813   2.476  13.499 -0.2908 -0.2563 -0.7912
  790Sol     HW 3908   2.721   2.495  13.514  0.0110  0.0855  0.7934
  790Sol     HW 3909   2.826   2.486  13.405 -2.6733 -3.9043 -1.5743
  790Sol     MW 3910   2.806   2.478  13.492 -0.4594 -0.1799 -0.5656
  791Sol     OW 3911   0.334   0.398  11.750  0.0247  0.2892  0.1660
  791Sol     HW 3912   0.307   0.445  11.829  0.6902 -0.1138  0.6262
  791Sol     HW 3913   0.322   0.306  11.771 -0.1263  0.1937 -0.3263
  791Sol     MW 3914   0.330   0.394  11.759  0.5464 -0.5880  1.1107
  792Sol     OW 3915   1.893   0.984   6.326  0.1033  0.0920 -0.4853
  792Sol     HW 3916   1.911   1.066   6.371  1.6700  0.3735 -1.5832
  792Sol     HW 3917   1.797   0.974   6.330  0.0881  0.8885  1.4925
  792Sol     MW 3918   1.886   0.990   6.330  0.0322  0.1777  0.2273
  793Sol     OW 3919   2.986   1.751   9.974  0.4188 -0.2119  0.0077
  793Sol     HW 3920   3.077   1.724   9.960  0.2395 -0.1037 -1.4759
  793Sol     HW 3921   2.991   1.844   9.994  0.6749 -0.3213  0.4553
  793Sol     MW 3922   2.995   1.757   9.974 -1.0388  0.1256  0.2463
  794Sol     OW 3923   2.144   1.920  12.405 -0.2475 -0.2834 -0.1326
  794Sol     HW 3924   2.142   1.977  12.327 -2.3455  4.1381  2.9241
  794Sol     HW 3925   2.062   1.871  12.400 -1.5789  1.7915  0.4413
  794Sol     MW 3926   2.137   1.921  12.397  0.6241 -0.5601 -0.2689
  795Sol     OW 3927   1.859   0.317  11.596  1.0353 -0.1922 -0.5214
  795Sol     HW 3928   1.946   0.292  11.628  1.3088 -0.8965 -1.7672
  795Sol     HW 3929   1.876   0.389  11.535  0.6505  0.2794 -0.0723
  795Sol     MW 3930   1.869   0.321  11.594  0.0677  0.3039  0.7403
  796Sol     OW 3931   3.021   3.156  11.870  0.1299  0.0238  0.2358
  796Sol     HW 3932   3.115   3.158  11.849 -0.0776  0.1419 -0.6701
  796Sol     HW 3933   2.991   3.070  11.841  0.2247 -0.5311  1.7200
  796Sol     MW 3934   3.027   3.149  11.866 -0.0881  0.5074  0.3837
  797Sol     OW 3935   0.604   1.588   9.934 -0.1912  0.3234  0.3437
  797Sol     HW 3936   0.660   1.538   9.993  0.1530 -0.0531 -0.3008
  797Sol     HW 3937   0.633   1.563   9.847 -0.9752  0.5694  0.0123
  797Sol     MW 3938   0.612   1.581   9.932  0.2682 -0.6175  0.0358
  798Sol     OW 3939   2.287   0.165  12.816  0.3420  0.1597 -0.0045
  798Sol     HW 3940   2.364   0.110  12.819 -0.7347 -1.3718  0.0867
  798Sol     HW 3941   2.245   0.153  12.902 -1.9996 -2.0215 -1.3755
  798Sol     MW 3942   2.290   0.159  12.824 -0.2967 -0.2883  0.5924
  799Sol     OW 3943   0.728   1.835  14.134 -0.2583 -0.5157 -0.1723
  799Sol     HW 3944   0.810   1.883  14.131 -1.7317  2.4566  3.3847
  799Sol     HW 3945   0.747   1.758  14.188 -0.4348  1.6756  3.1440
  799Sol     MW 3946   0.737   1.832  14.139 -0.6838  0.3125 -0.0015
  800Sol     OW 3947   0.111   1.951   8.106 -0.0882  0.1043 -0.2502
  800Sol     HW 3948   0.076   2.039   8.092 -1.3965 -0.9265 -4.0960
  800Sol     HW 3949   0.201   1.966   8.136 -0.0586  2.7675 -1.4546
  800Sol     MW 3950   0.116   1.960   8.107 -0.2388  0.0868  0.4330
  801Sol     OW 3951   0.470   2.578   7.364 -0.4368  0.3718 -0.1388
  801Sol     HW 3952   0.410   2.549   7.434 -1.4694 -0.2026 -1.2439
  801Sol     HW 3953   0.422   2.648   7.319 -0.6423 -0.6705 -1.5660
  801Sol     MW 3954   0.460   2.582   7.366  0.1028 -0.2083  0.1612
  802Sol     OW 3955   2.901   1.653   8.434  0.1780  0.0234  0.3848
  802Sol     HW 3956   2.965   1.654   8.505  0.5791 -1.7224  0.0933
  802Sol     HW 3957   2.838   1.585   8.459  0.4944 -0.8358 -1.0508
  802Sol     MW 3958   2.901   1.647   8.442 -0.1790 -0.2876  0.0461
  803Sol     OW 3959   0.283   2.892   7.832  0.4238  0.0747  0.1122
  803Sol     HW 3960   0.225   2.850   7.896 -0.0897  1.6576  0.6880
  803Sol     HW 3961   0.233   2.891   7.750  0.6990 -1.0710 -0.0584
  803Sol     MW 3962   0.273   2.888   7.830 -0.2380  0.0739 -0.1952
  804Sol     OW 3963   1.679   3.199   7.263  0.3677 -0.1037  0.1580
  804Sol     HW 3964   1.652   3.114   7.229  1.3603 -0.1854 -0.4543
  804Sol     HW 3965   1.673   3.259   7.189  0.0580  0.2780  0.4853
  804Sol     MW 3966   1.676   3.197   7.254 -0.2100 -0.8448 -0.1041
  805Sol     OW 3967   1.563   1.765   9.073  0.0189 -0.3796  0.1147
  805Sol     HW 3968   1.543   1.683   9.028 -0.1242 -0.9706  1.2303
  805Sol     HW 3969   1.655   1.758   9.098  0.6759  0.8213 -1.8640
  805Sol     MW 3970   1.569   1.757   9.071 -0.3249 -0.1484  0.0755
  806Sol     OW 3971   0.454   0.059  12.982  0.1206  0.1968 -0.2681
  806Sol     HW 3972   0.408   0.094  13.059  0.4290 -2.6296  1.2458
  806Sol     HW 3973   0.532   0.017  13.017  1.1084  0.2757 -2.3088
  806Sol     MW 3974   0.457   0.059  12.992  0.7920  0.4430 -0.0717
  807Sol     OW 3975   2.338   1.084  13.087 -0.3681  0.4992  0.3537
  807Sol     HW 3976   2.413   1.027  13.069 -1.6661 -1.3791  0.7676
  807Sol     HW 3977   2.373   1.150  13.147  0.7072 -1.0021  1.4235
  807Sol     MW 3978   2.348   1.085  13.091 -0.1329  0.2390 -1.3977
  808Sol     OW 3979   0.418   2.238  12.094  0.1015 -0.3486 -0.4845
  808Sol     HW 3980   0.410   2.180  12.018 -0.8117 -0.8335 -0.0199
  808Sol     HW 3981   0.496   2.207  12.140  0.5171 -0.2110 -1.0854
  808Sol     MW 3982   0.424   2.230  12.091  0.2410 -0.5251  0.0782
  809Sol     OW 3983   2.512   2.533   7.979 -0.0082  0.1765 -0.3513
  809Sol     HW 3984   2.477   2.549   7.891  1.6375 -0.3505 -1.1396
  809Sol     HW 3985   2.440   2.494   8.027 -1.1144  1.0142 -1.2959
  809Sol     MW 3986   2.502   2.531   7.975  0.3404  0.2280  0.2499
  810Sol     OW 3987   3.172   0.170   6.490  0.0575 -0.2801  0.4572
  810Sol     HW 3988   3.174   0.081   6.523  0.1935 -0.2401  0.5569
  810Sol     HW 3989   3.120   0.219   6.554 -0.5196 -0.4143  0.0920
  810Sol     MW 3990   3.168   0.167   6.498  0.2554  0.2829  0.2403
  811Sol     OW 3991   2.918   1.871   7.691 -0.3700  0.1019 -0.2930
  811Sol     HW 3992   2.905   1.808   7.762 -0.2761  2.4377  1.8857
  811Sol     HW 3993   2.839   1.864   7.638  0.2667 -2.8224 -0.9179
  811Sol     MW 3994   2.910   1.865   7.693 -0.4293  0.0764 -0.1073
  812Sol     OW 3995   2.869   2.515  13.190  0.0227 -0.0954  0.0581
  812Sol     HW 3996   2.939   2.580  13.184 -0.0476 -0.1388 -1.5568
  812Sol     HW 3997   2.912   2.432  13.170 -0.0308 -0.4545  1.4031
  812Sol     MW 3998   2.879   2.513  13.188  0.2906 -0.4219 -0.1859
  813Sol     OW 3999   0.819   2.812  10.223  0.3724 -0.6695  0.4183
  813Sol     HW 4000   0.766   2.782  10.298 -0.7625 -1.3413 -0.6334
  813Sol     HW 4001   0.883   2.742  10.210  2.7073  0.9423  2.7932
  813Sol     MW 4002   0.820   2.803  10.229 -0.2864 -0.5725 -0.2866
  814Sol     OW 4003   1.720   2.286  11.413  0.2877 -0.0551 -0.1385
  814Sol     HW 4004   1.635   2.326  11.428  0.8579  0.5156  1.6734
  814Sol     HW 4005   1.739   2.240  11.495  0.6815 -2.1127 -1.3581
  814Sol     MW 4006   1.714   2.285  11.422  0.4026  0.4874  0.1074
  815Sol     OW 4007   1.032   3.222   7.147 -0.2575  0.6535  0.1513
  815Sol     HW 4008   1.016   3.149   7.207  0.4271 -0.2849 -0.7998
  815Sol     HW 4009   1.115   3.201   7.105  0.5711  2.5842  0.7420
  815Sol     MW 4010   1.038   3.214   7.149  0.3971 -0.3284 -0.0458
  816Sol     OW 4011   3.227   1.346   6.403  0.2428 -0.4512 -0.1462
  816Sol     HW 4012   3.254   1.255   6.414  0.1891 -0.3213  1.1531
  816Sol     HW 4013   3.135   1.341   6.378  0.2447 -0.7598 -0.0987
  816Sol     MW 4014   3.221   1.337   6.402  0.0375  0.1465  0.6572
  817Sol     OW 4015   2.478   3.365  10.562  0.2187  0.3794 -0.4297
  817Sol     HW 4016   2.387   3.340  10.581  0.0761  0.2548 -1.2301
  817Sol     HW 4017   2.472   3.457  10.534  0.0552 -0.2049 -2.4267
  817Sol     MW 4018   2.469   3.371  10.561  0.8894 -0.6075  0.7651
  818Sol     OW 4019   1.765   2.112   9.680  0.6762 -0.2318 -0.2019
  818Sol     HW 4020   1.823   2.114   9.756  0.8018 -0.8145 -0.2830
  818Sol     HW 4021   1.785   2.194   9.633 -0.7175  1.0294  1.3530
  818Sol     MW 4022   1.772   2.120   9.683  0.4808  0.1287  0.4541
  819Sol     OW 4023   2.674   2.839   7.407 -0.0837  0.3256  0.5414
  819Sol     HW 4024   2.579   2.844   7.417 -0.0810  0.8308  0.2972
  819Sol     HW 4025   2.702   2.783   7.480 -0.6603 -0.5992  0.0670
  819Sol     MW 4026   2.668   2.834   7.415 -0.0575  0.1692  0.3649
  820Sol     OW 4027   0.982   0.672   9.352 -0.6679  0.5037 -0.2438
  820Sol     HW 4028   1.012   0.685   9.442 -0.9732  3.0949 -0.4737
  820Sol     HW 4029   1.055   0.629   9.308  0.0710  0.5898  0.8827
  820Sol     MW 4030   0.991   0.670   9.356 -0.4373  0.2575 -0.1151
  821Sol     OW 4031   1.246   2.336  11.453  0.0914 -0.1415  0.5067
  821Sol     HW 4032   1.193   2.359  11.377  1.6861 -1.0408 -0.9020
  821Sol     HW 4033   1.238   2.242  11.462  1.1906 -0.2539  0.4567
  821Sol     MW 4034   1.241   2.330  11.447 -0.2321  0.1123  0.5374
  822Sol     OW 4035   2.351   2.884   8.540  0.6349  0.4611  0.0842
  822Sol     HW 4036   2.322   2.955   8.484 -1.7555  0.4416  1.2305
  822Sol     HW 4037   2.371   2.925   8.624 -1.7604 -0.2968  1.0747
  822Sol     MW 4038   2.350   2.894   8.543  0.4935  0.2174  0.1787
  823Sol     OW 4039   2.986   2.259   6.893  0.0671  0.4234 -0.0791
  823Sol     HW 4040   2.911   2.253   6.952  0.5301  1.1951  0.5980
  823Sol     HW 4041   2.947   2.257   6.805 -0.7416  0.6727  0.2650
  823Sol     MW 4042   2.975   2.258   6.890 -0.2238 -0.2296  0.0427
  824Sol     OW 4043   1.570   1.817  14.176  0.4279  0.7745  0.7341
  824Sol     HW 4044   1.634   1.888  14.167 -1.1686  2.1012 -0.4266
  824Sol     HW 4045   1.496   1.857  14.221 -0.2059 -0.3573  0.7233
  824Sol     MW 4046   1.569   1.827  14.180  0.2353  0.7388 -0.1333
  825Sol     OW 4047   2.722   1.328   6.427 -0.4956  0.3112 -0.3710
  825Sol     HW 4048   2.754   1.406   6.471 -3.0008  0.5586  1.1228
  825Sol     HW 4049   2.627   1.342   6.418 -0.7510 -1.8482 -1.5052
  825Sol     MW 4050   2.716   1.336   6.430  0.2765  0.6905 -0.4315
  826Sol     OW 4051   2.126   1.585  11.677  0.5860 -0.0861 -0.2894
  826Sol     HW 4052   2.158   1.496  11.668  0.2492 -0.6882  3.5195
  826Sol     HW 4053   2.200   1.640  11.650  2.6592 -1.5254  2.2001
  826Sol     MW 4054   2.136   1.582  11.674  0.3921 -0.1407 -0.3180
  827Sol     OW 4055   1.543   1.833  10.748  0.7875  0.0553  0.1160
  827Sol     HW 4056   1.562   1.867  10.836 -0.1315  2.7084 -0.6550
  827Sol     HW 4057   1.449   1.845  10.737  0.2745 -3.6000  0.0884
  827Sol     MW 4058   1.536   1.837  10.755  0.4551 -0.1203  0.3551
  828Sol     OW 4059   1.027   0.079   7.888 -0.0033  0.4431 -0.2332
  828Sol     HW 4060   1.026   0.055   7.795  1.3520 -1.7860  0.2713
  828Sol     HW 4061   0.957   0.027   7.927 -1.5118  2.4348 -0.2039
  828Sol     MW 4062   1.021   0.072   7.883 -0.5818 -0.1473 -0.1279
  829Sol     OW 4063   2.348   2.018  13.777 -0.4525  0.2803 -0.3145
  829Sol     HW 4064   2.396   2.026  13.695 -0.2113  0.1594 -0.1865
  829Sol     HW 4065   2.270   2.072  13.766 -0.2559  0.5238 -0.5011
  829Sol     MW 4066   2.345   2.023  13.769 -0.5519 -0.1487  0.5404
  830Sol     OW 4067   2.761   1.233  10.457 -0.3816 -0.0041  0.6603
  830Sol     HW 4068   2.705   1.187  10.394  0.1492 -0.0321  0.2049
  830Sol     HW 4069   2.844   1.247  10.410  0.1103 -0.2582  1.4334
  830Sol     MW 4070   2.764   1.230  10.447 -0.2044 -0.4009  0.0259
  831Sol     OW 4071   2.264   3.424  11.164  0.3504  0.0198  0.0540
  831Sol     HW 4072   2.247   3.339  11.123  2.1838 -0.3675  0.0676
  831Sol     HW 4073   2.177   3.463  11.173 -0.3177 -0.9100 -1.9855
  831Sol     MW 4074   2.255   3.420  11.161  0.2720 -0.8975  0.2225
  832Sol     OW 4075   3.224   2.761  10.160  0.3744 -0.6541 -0.6089
  832Sol     HW 4076   3.270   2.786  10.240  1.4334 -1.5689 -0.9137
  832Sol     HW 4077   3.204   2.843  10.117  0.7694 -0.1972  0.0700
  832Sol     MW 4078   3.227   2.770  10.164  0.3061 -0.4862 -0.1697
  833Sol     OW 4079   2.688   0.039   8.689  0.9359 -0.2586  0.7663
  833Sol     HW 4080   2.647  -0.039   8.650 -1.1118  0.6635  0.9942
  833Sol     HW 4081   2.731   0.082   8.615 -1.2751  0.4478 -0.1553
  833Sol     MW 4082   2.688   0.036   8.679 -0.7322  0.0188 -0.8111
  834Sol     OW 4083   2.489   3.193   7.727  0.4306  0.4049 -0.5318
  834Sol     HW 4084   2.548   3.128   7.765  1.4822  1.1690 -0.8299
  834Sol     HW 4085   2.547   3.259   7.690 -0.5990  2.4995  1.4490
  834Sol     MW 4086   2.500   3.193   7.727  0.3828 -0.1197 -0.1029
  835Sol     OW 4087   0.975   2.889   6.540 -0.0409  0.2261  0.1628
  835Sol     HW 4088   0.884   2.913   6.522  0.4036  0.9611 -1.1973
  835Sol     HW 4089   0.969   2.818   6.603 -1.5865 -0.0835 -0.3055
  835Sol     MW 4090   0.966   2.885   6.544  0.2554 -0.3307  0.1933
  836Sol     OW 4091   1.256   0.881   8.645 -0.5319 -0.5293  0.6701
  836Sol     HW 4092   1.173   0.903   8.604 -0.0247 -0.3294 -0.2752
  836Sol     HW 4093   1.272   0.790   8.620  1.4477  0.6067 -2.5458
  836Sol     MW 4094   1.250   0.875   8.639  0.2835  0.1980  0.2810
  837Sol     OW 4095   1.517   0.417  13.529  0.0458  0.1833 -0.1808
  837Sol     HW 4096   1.497   0.341  13.475 -3.2038 -0.5206  1.8830
  837Sol     HW 4097   1.551   0.380  13.610 -2.5454  0.8329  1.2405
  837Sol     MW 4098   1.519   0.407  13.531 -0.5758  0.3020  0.2544
  838Sol     OW 4099   0.358   1.402   7.244  0.2650  0.0343  0.2686
  838Sol     HW 4100   0.288   1.337   7.235  0.2794  0.0521  0.0379
  838Sol     HW 4101   0.430   1.369   7.190 -0.1504  0.8317 -0.7982
  838Sol     MW 4102   0.358   1.394   7.238 -0.7020  0.6490 -0.0153
  839Sol     OW 4103   2.276   0.886  11.970 -0.4126 -0.4731 -0.7129
  839Sol     HW 4104   2.241   0.837  11.896 -0.9622  1.5730 -1.8414
  839Sol     HW 4105   2.349   0.936  11.934 -0.4246  0.2323  0.2084
  839Sol     MW 4106   2.279   0.886  11.960  0.4299  0.9820 -0.2033
  840Sol     OW 4107   1.551   1.931   8.451 -0.1897  0.0287  0.8280
  840Sol     HW 4108   1.564   1.842   8.419  0.6416  0.2861  0.4351
  840Sol     HW 4109   1.478   1.924   8.512  0.0054 -0.9597  0.9573
  840Sol     MW 4110   1.546   1.923   8.453  0.0799 -0.3236 -0.3768
  841Sol     OW 4111   0.501   2.594  13.342 -0.1300  0.1667 -0.8256
  841Sol     HW 4112   0.589   2.565  13.367 -0.4302  0.1786  0.2715
  841Sol     HW 4113   0.444   2.557  13.409 -1.0866 -0.6821 -2.0983
  841Sol     MW 4114   0.504   2.588  13.350  0.2783  0.0915 -0.3629
  842Sol     OW 4115   0.709   3.357   6.205 -0.1881  0.3870 -0.5448
  842Sol     HW 4116   0.654   3.434   6.216 -0.8417  0.2319 -2.5170
  842Sol     HW 4117   0.647   3.284   6.201  0.4018 -0.1994  0.9479
  842Sol     MW 4118   0.698   3.357   6.205  0.5441 -0.0459  0.1022
  843Sol     OW 4119   0.959   2.685   6.716  0.4475 -0.5953  0.6725
  843Sol     HW 4120   1.049   2.714   6.731 -0.0303  0.7866  0.9920
  843Sol     HW 4121   0.922   2.676   6.804 -0.0009 -0.2251  0.5253
  843Sol     MW 4122   0.964   2.687   6.725 -0.1325  0.1723  0.2076
  844Sol     OW 4123   1.420   1.170   9.433  0.4009 -0.1753 -0.3018
  844Sol     HW 4124   1.360   1.240   9.460  2.3988  0.4019  2.8900
  844Sol     HW 4125   1.369   1.090   9.447 -1.0621  0.4842 -1.6606
  844Sol     MW 4126   1.410   1.169   9.437 -0.0900  0.5994  0.3898
  845Sol     OW 4127   0.353   2.236   7.591  0.6634  0.4377 -0.3307
  845Sol     HW 4128   0.325   2.176   7.522  0.8576  0.1063 -0.1239
  845Sol     HW 4129   0.419   2.187   7.640 -1.4308 -0.3749  1.7835
  845Sol     MW 4130   0.356   2.226   7.589 -0.1030  0.1273  0.3159
  846Sol     OW 4131   0.526   2.848  12.387 -0.3728  0.2640 -0.2800
  846Sol     HW 4132   0.572   2.890  12.315 -0.2979  0.2919 -0.2162
  846Sol     HW 4133   0.577   2.871  12.465 -1.0733  1.1754 -0.0723
  846Sol     MW 4134   0.535   2.854  12.388 -0.1389  0.0724 -0.1974
  847Sol     OW 4135   0.479   1.916   6.779 -0.3269  0.0163  0.0024
  847Sol     HW 4136   0.476   1.989   6.717  1.6381  1.5771  1.6634
  847Sol     HW 4137   0.568   1.883   6.773 -0.8774 -1.5320  0.1097
  847Sol     MW 4138   0.486   1.920   6.773 -0.3100  0.6808 -0.0036
  848Sol     OW 4139   2.184   2.580  10.024  0.0234  0.1310  0.0368
  848Sol     HW 4140   2.157   2.511  10.084 -0.5394  1.2822  1.1288
  848Sol     HW 4141   2.146   2.555   9.940  0.9997 -1.6082  0.0926
  848Sol     MW 4142   2.178   2.571  10.022 -0.0965  0.5844 -0.2147
  849Sol     OW 4143   1.752   3.371  14.052 -0.3432 -0.0821  0.9035
  849Sol     HW 4144   1.805   3.294  14.035 -1.2784 -1.1449  2.7049
  849Sol     HW 4145   1.685   3.369  13.984  0.2265 -0.3070  0.3468
  849Sol     MW 4146   1.751   3.364  14.044  0.1651  0.1467 -0.1865
  850Sol     OW 4147   0.068   1.981   7.633  0.4652  0.3416  0.5661
  850Sol     HW 4148   0.145   1.939   7.594  1.2046  2.8396 -0.7470
  850Sol     HW 4149  -0.006   1.943   7.585  1.2371  1.8077 -1.8827
  850Sol     MW 4150   0.068   1.974   7.625 -0.8302  0.1207 -0.6583
  851Sol     OW 4151   3.148   0.410   9.573 -0.0932  0.4903  0.5262
  851Sol     HW 4152   3.142   0.347   9.646 -0.0651  0.0553  0.1541
  851Sol     HW 4153   3.183   0.489   9.613  0.6191  0.0183  0.8437
  851Sol     MW 4154   3.150   0.411   9.583 -0.2117  0.1796 -0.4164
  852Sol     OW 4155   2.772   1.294  13.767  0.1912 -0.4647 -0.3188
  852Sol     HW 4156   2.767   1.336  13.853  0.2457  1.9173 -1.4454
  852Sol     HW 4157   2.685   1.257  13.754 -0.1573  0.1152  0.2987
  852Sol     MW 4158   2.764   1.294  13.774  0.1077 -0.4228 -0.4553
  853Sol     OW 4159   2.654   0.624   8.190 -0.0052  0.1415  0.2905
  853Sol     HW 4160   2.711   0.666   8.255  0.2840  1.2639 -0.6787
  853Sol     HW 4161   2.671   0.671   8.109 -1.9430  0.1481 -0.1365
  853Sol     MW 4162   2.661   0.632   8.188  0.8800 -0.3654 -0.3791
  854Sol     OW 4163   0.852   1.619   6.459  0.0943 -0.2698 -0.3393
  854Sol     HW 4164   0.893   1.684   6.515 -0.4148  0.9277 -1.3371
  854Sol     HW 4165   0.766   1.603   6.499  0.8853 -1.6323  0.8748
  854Sol     MW 4166   0.848   1.623   6.468  0.0778 -0.1723  0.6460
  855Sol     OW 4167   0.576   2.490   8.879 -0.0136  0.2606 -0.5515
  855Sol     HW 4168   0.555   2.566   8.824 -0.3481 -0.6824 -1.7621
  855Sol     HW 4169   0.640   2.441   8.828 -2.2792 -2.0078 -1.3327
  855Sol     MW 4170   0.580   2.492   8.869 -0.0622 -0.1299  0.0665
  856Sol     OW 4171   1.758   0.434   7.559  0.3112 -0.4957 -0.3978
  856Sol     HW 4172   1.731   0.358   7.507 -1.7307 -0.0544 -0.0140
  856Sol     HW 4173   1.689   0.445   7.624  1.4444  0.6640  0.6521
  856Sol     MW 4174   1.750   0.428   7.560  0.0439 -0.3582  0.1048
  857Sol     OW 4175   3.058   2.267  10.758 -0.1783 -0.2019 -0.2351
  857Sol     HW 4176   3.063   2.190  10.701 -1.1910 -0.6806  0.3145
  857Sol     HW 4177   3.125   2.251  10.825 -1.3295 -1.2849  0.6820
  857Sol     MW 4178   3.065   2.259  10.759 -0.4168 -0.3134  0.2659
  858Sol     OW 4179   0.128   0.179  12.295 -0.8766 -0.0398 -0.0191
  858Sol     HW 4180   0.167   0.187  12.383 -0.4243 -0.5696 -0.1705
  858Sol     HW 4181   0.203   0.181  12.236 -1.1821  0.3057 -0.4002
  858Sol     MW 4182   0.138   0.180  12.298 -0.1093 -0.1373 -0.4374
  859Sol     OW 4183   1.466   1.922  11.290  0.4070 -0.4222 -0.1465
  859Sol     HW 4184   1.376   1.932  11.259  0.4075 -1.2321 -0.4424
  859Sol     HW 4185   1.463   1.847  11.349 -0.0210  2.4975  3.6854
  859Sol     MW 4186   1.458   1.916  11.292  0.4768 -0.3664  0.0179
  860Sol     OW 4187   1.071   0.145   9.288  0.4042 -0.0543  0.1938
  860Sol     HW 4188   1.091   0.096   9.367  2.3802 -0.8330 -0.7639
  860Sol     HW 4189   1.069   0.079   9.218 -0.2169  0.7689 -0.5859
  860Sol     MW 4190   1.073   0.135   9.289  0.1911  0.0359 -0.0239
  861Sol     OW 4191   0.748   1.498  11.223 -0.8122  0.4171  0.3270
  861Sol     HW 4192   0.737   1.543  11.140 -0.5135  0.0217  0.0716
  861Sol     HW 4193   0.824   1.539  11.263 -2.0928  1.9263  1.2827
  861Sol     MW 4194   0.754   1.506  11.219  0.0610  0.4832  0.1696
  862Sol     OW 4195   2.351   0.037   6.173  0.5456  0.1500 -0.7974
  862Sol     HW 4196   2.375  -0.041   6.123 -2.9416 -0.0962 -2.1710
  862Sol     HW 4197   2.399   0.108   6.129  1.9578 -0.8629 -0.9419
  862Sol     MW 4198   2.358   0.036   6.164  0.1961 -0.6536  0.5275
  863Sol     OW 4199   1.036   1.845  12.979 -0.3554  0.2638 -0.5108
  863Sol     HW 4200   0.975   1.840  13.053 -1.2449 -0.4065 -1.2833
  863Sol     HW 4201   1.090   1.767  12.988  0.0613  0.5904 -0.1240
  863Sol     MW 4202   1.035   1.838  12.987  0.3713  0.6777 -0.5816
  864Sol     OW 4203   1.471   2.457   6.446  0.4248  0.0995  0.1916
  864Sol     HW 4204   1.390   2.503   6.425 -0.5292 -1.5841  0.0730
  864Sol     HW 4205   1.509   2.505   6.519 -0.3603  1.2569 -0.1526
  864Sol     MW 4206   1.467   2.465   6.450 -0.6193 -0.2442 -0.0621
  865Sol     OW 4207   2.294   3.129   8.149  0.0746  0.0596 -0.7679
  865Sol     HW 4208   2.271   3.063   8.084  0.2522  0.0186 -0.7867
  865Sol     HW 4209   2.346   3.193   8.101  0.4584 -0.1247 -0.5962
  865Sol     MW 4210   2.296   3.129   8.139  0.2576  0.2339 -0.5197
  866Sol     OW 4211   3.096   2.396  11.584 -0.3468 -0.0650  1.0751
  866Sol     HW 4212   3.172   2.358  11.628  0.5632 -0.2902 -0.6647
  866Sol     HW 4213   3.103   2.366  11.494 -1.7042  1.1360  0.5578
  866Sol     MW 4214   3.103   2.390  11.580 -0.5330  0.0552  0.3806
  867Sol     OW 4215   2.873   2.749   9.808  0.1574 -0.4187 -0.1375
  867Sol     HW 4216   2.897   2.714   9.894 -0.9373  1.0688  0.8045
  867Sol     HW 4217   2.913   2.837   9.806 -2.1874  0.6860  0.0402
  867Sol     MW 4218   2.879   2.754   9.815 -0.1234 -0.6300 -0.1054
  868Sol     OW 4219   1.897   2.562  11.636  0.1473  0.1056 -0.0752
  868Sol     HW 4220   1.870   2.589  11.548  1.0222 -0.6393 -0.5805
  868Sol     HW 4221   1.820   2.522  11.674 -0.5559  1.4178 -0.1014
  868Sol     MW 4222   1.888   2.561  11.632 -0.6599  0.0170  0.0352
  869Sol     OW 4223   2.469   1.396  12.030 -0.0699 -0.0176 -0.3898
  869Sol     HW 4224   2.481   1.357  12.117 -0.1310  0.5685 -0.1141
  869Sol     HW 4225   2.428   1.481  12.047 -1.4771 -0.5525 -1.1075
  869Sol     MW 4226   2.467   1.400  12.039 -0.0948 -0.3778  0.1050
  870Sol     OW 4227   2.523   1.907  12.522 -0.0097  0.6828  0.3608
  870Sol     HW 4228   2.587   1.977  12.509 -0.1475  0.8129  0.3842
  870Sol     HW 4229   2.499   1.914  12.614  0.5332  0.1295  0.5425
  870Sol     MW 4230   2.527   1.914  12.529 -0.6673 -0.1646 -0.1666
  871Sol     OW 4231   1.831   2.860   6.862  0.4973  0.1451  0.0715
  871Sol     HW 4232   1.912   2.849   6.811  0.6054 -0.5286  0.3882
  871Sol     HW 4233   1.860   2.903   6.943  0.7996 -1.5809  0.9037
  871Sol     MW 4234   1.841   2.863   6.865  0.3993  0.4862  0.2293
  872Sol     OW 4235   2.531   1.118   7.484 -0.5840  0.5660 -0.0748
  872Sol     HW 4236   2.558   1.200   7.527 -0.1195  0.4186 -0.0817
  872Sol     HW 4237   2.549   1.050   7.548  1.4437  0.1851 -1.0213
  872Sol     MW 4238   2.535   1.119   7.494  0.6414 -0.0819 -1.0698
  873Sol     OW 4239   2.800   0.086  12.101 -0.6923  0.1207 -0.2428
  873Sol     HW 4240   2.845   0.005  12.126  0.4193  0.4608 -1.1012
  873Sol     HW 4241   2.708   0.069  12.121 -0.3619 -1.0629  0.3310
  873Sol     MW 4242   2.796   0.077  12.105 -0.3808  0.0660 -0.4426
  874Sol     OW 4243   1.874   1.085   8.845 -0.3929  0.0595  0.2865
  874Sol     HW 4244   1.796   1.034   8.822 -0.1774  0.5957 -1.6614
  874Sol     HW 4245   1.839   1.170   8.873 -0.5593 -0.0963  0.5627
  874Sol     MW 4246   1.864   1.088   8.846  0.0474  0.4203 -0.4271
  875Sol     OW 4247   0.130   2.913   7.601 -0.7063  1.0156  0.3666
  875Sol     HW 4248   0.182   2.965   7.540 -1.5009  0.7000 -0.5932
  875Sol     HW 4249   0.045   2.959   7.605 -1.6202 -0.5113 -0.9556
  875Sol     MW 4250   0.127   2.922   7.596  0.2606 -0.6494  0.0689
  876Sol     OW 4251   0.939   2.928   6.195  0.1052  0.0527  0.4073
  876Sol     HW 4252   0.974   3.000   6.144  1.6118 -0.5841  0.5054
  876Sol     HW 4253   0.859   2.962   6.234 -0.6074  0.8196 -1.6644
  876Sol     MW 4254   0.935   2.937   6.194 -0.8878  0.4097 -0.2376
  877Sol     OW 4255   0.719   0.798   9.886  0.5486  0.0728  0.1877
  877Sol     HW 4256   0.664   0.856   9.939 -0.0185 -1.3329  1.1717
  877Sol     HW 4257   0.792   0.776   9.943  1.6151  1.0692 -0.7464
  877Sol     MW 4258   0.721   0.802   9.896  0.6018  0.0661  0.1810
  878Sol     OW 4259   1.880   1.200   9.889 -0.3796  0.3444 -0.1308
  878Sol     HW 4260   1.929   1.136   9.838 -0.6301  0.7822 -0.9256
  878Sol     HW 4261   1.927   1.283   9.876  0.3615  0.1955  1.4711
  878Sol     MW 4262   1.888   1.202   9.884  0.3989 -0.0825 -0.2010
  879Sol     OW 4263   3.111   2.418   9.605 -0.1882 -0.0582  0.2510
  879Sol     HW 4264   3.149   2.381   9.526 -0.9035 -0.9422  0.3110
  879Sol     HW 4265   3.142   2.362   9.676 -0.6394 -0.0778  0.4385
  879Sol     MW 4266   3.117   2.410   9.605  0.4183 -0.2809 -0.4001
  880Sol     OW 4267   0.737   3.283  11.813 -0.3472  0.5621 -0.3792
  880Sol     HW 4268   0.729   3.214  11.747  1.7589  0.9892 -1.1216
  880Sol     HW 4269   0.748   3.364  11.763 -0.9034  1.1964  0.5025
  880Sol     MW 4270   0.737   3.284  11.803 -0.1499 -0.2380 -0.2762
  881Sol     OW 4271   0.741   2.371  13.231 -0.1550 -0.1144 -0.0770
  881Sol     HW 4272   0.814   2.423  13.263 -0.4153  0.0768  0.2053
  881Sol     HW 4273   0.708   2.420  13.156 -0.8710  0.5152  0.6407
  881Sol     MW 4274   0.745   2.380  13.227  0.3009 -0.4639 -0.4702
  882Sol     OW 4275   1.889   2.232   5.982 -0.0851  0.2001  0.0548
  882Sol     HW 4276   1.908   2.141   5.957 -0.7933  0.7342 -2.5679
  882Sol     HW 4277   1.802   2.227   6.023  0.1053 -0.3650  0.4067
  882Sol     MW 4278   1.883   2.223   5.983  0.0409  0.6752 -0.1065
  883Sol     OW 4279   1.336   0.457   7.244 -0.4165  0.3571 -0.6655
  883Sol     HW 4280   1.423   0.465   7.204  0.7189  3.2883  2.1774
  883Sol     HW 4281   1.287   0.531   7.209 -1.1250 -0.1135 -0.6801
  883Sol     MW 4282   1.339   0.464   7.237  0.8198  0.1077  0.0629
  884Sol     OW 4283   0.877   2.681   8.950  0.3913  0.0209 -0.0619
  884Sol     HW 4284   0.834   2.706   9.031 -0.3644  1.4122 -0.8680
  884Sol     HW 4285   0.955   2.737   8.945 -0.0201  0.5519 -0.6964
  884Sol     MW 4286   0.880   2.688   8.957 -0.2708 -0.3469  0.2396
  885Sol     OW 4287   1.516   2.605   7.676  0.0613 -0.2868 -0.0489
  885Sol     HW 4288   1.566   2.543   7.729 -0.0569  1.4065  2.1093
  885Sol     HW 4289   1.572   2.682   7.671 -1.7600  1.1513  1.2684
  885Sol     MW 4290   1.526   2.606   7.680 -0.0420  0.5561 -0.5703
  886Sol     OW 4291   1.947   2.051  11.971  1.1990  0.2742 -0.4557
  886Sol     HW 4292   1.859   2.024  11.944  1.5274 -1.0355 -0.2767
  886Sol     HW 4293   1.977   2.108  11.900  0.9592 -0.8662 -1.5006
  886Sol     MW 4294   1.942   2.054  11.962  0.5992 -0.1821  0.1946
  887Sol     OW 4295   1.521   3.353  12.982  0.3167  0.4234  0.2717
  887Sol     HW 4296   1.580   3.426  12.962  0.9939 -0.5611 -1.4784
  887Sol     HW 4297   1.434   3.383  12.956  0.4117  1.0464  0.6837
  887Sol     MW 4298   1.519   3.362  12.978 -0.1596  0.2484 -0.3701
  888Sol     OW 4299   1.963   2.382  10.860  0.3679 -0.3790  0.0145
  888Sol     HW 4300   2.034   2.441  10.887 -0.1365  0.3370 -0.1969
  888Sol     HW 4301   1.963   2.312  10.925 -2.0822  2.3077  3.1107
  888Sol     MW 4302   1.969   2.381  10.868  0.4029 -0.5972 -0.0073
  889Sol     OW 4303   1.264   3.076   6.834 -0.6278  0.2228  0.3589
  889Sol     HW 4304   1.196   3.135   6.803  0.2646  0.5518 -1.0243
  889Sol     HW 4305   1.326   3.071   6.761  0.4862 -0.5846  1.3483
  889Sol     MW 4306   1.264   3.081   6.824 -0.1501  0.4764  0.5469
  890Sol     OW 4307   1.667   1.287  12.446  0.3426  0.5226  0.0096
  890Sol     HW 4308   1.727   1.284  12.520  0.9054  0.1120 -0.4662
  890Sol     HW 4309   1.694   1.215  12.389 -1.7150 -0.8032  0.6572
  890Sol     MW 4310   1.675   1.281  12.447 -0.7508 -0.1735  0.1612
  891Sol     OW 4311   1.567   0.590  13.121  0.0548 -0.0529  0.3380
  891Sol     HW 4312   1.516   0.655  13.073 -0.9131  0.1070  1.5707
  891Sol     HW 4313   1.570   0.623  13.211 -0.2723 -1.6134  0.9329
  891Sol     MW 4314   1.563   0.599  13.124  0.3527 -0.2291 -0.9190
  892Sol     OW 4315   2.257   0.234   8.528 -0.1805 -0.5314 -0.2939
  892Sol     HW 4316   2.165   0.220   8.549 -0.1521 -2.1719 -1.1566
  892Sol     HW 4317   2.303   0.204   8.607 -0.3208 -1.5525 -0.5816
  892Sol     MW 4318   2.253   0.230   8.537 -0.3022  0.3479 -0.7869
  893Sol     OW 4319   0.533   2.741   8.741 -0.3964 -0.5287  0.2720
  893Sol     HW 4320   0.548   2.742   8.646 -0.9173  1.3161  0.1969
  893Sol     HW 4321   0.582   2.816   8.774 -0.6611 -0.8477  1.4102
  893Sol     MW 4322   0.539   2.748   8.735 -0.8351 -0.5502  0.4672
  894Sol     OW 4323   1.638   2.481  13.714 -0.1627  0.0119 -0.5409
  894Sol     HW 4324   1.544   2.496  13.727  0.2473  1.5436  0.8318
  894Sol     HW 4325   1.677   2.568  13.718  1.3922 -0.6693 -0.4654
  894Sol     MW 4326   1.633   2.490  13.716  0.4031  0.7164 -0.5868
  895Sol     OW 4327   0.008   1.111   7.889 -0.4088  0.6150 -0.5747
  895Sol     HW 4328   0.102   1.112   7.872 -0.1039  1.1348  1.0633
  895Sol     HW 4329  -0.023   1.030   7.850  0.6405  0.6533 -1.5071
  895Sol     MW 4330   0.014   1.104   7.884 -0.1564  0.2513 -0.4333
  896Sol     OW 4331   1.475   0.967  12.200  0.1148  0.2577 -0.4191
  896Sol     HW 4332   1.451   0.900  12.136  0.0717 -0.4067  0.2808
  896Sol     HW 4333   1.539   0.924  12.257  0.9023  1.1638 -0.6216
  896Sol     MW 4334   1.478   0.957  12.199  0.1033  0.3131 -0.3204
  897Sol     OW 4335   1.223   2.055  11.454 -0.7701  0.6632  0.4055
  897Sol     HW 4336   1.289   2.022  11.514 -0.6566  0.1549  0.0095
  897Sol     HW 4337   1.140   2.026  11.491 -0.6899  0.2014  0.2303
  897Sol     MW 4338   1.222   2.050  11.462 -0.0715  0.3898  0.3245
  898Sol     OW 4339   2.442   2.748  12.429  0.0343  0.4147  0.1313
  898Sol     HW 4340   2.392   2.796  12.494 -1.4642  1.4741 -1.7658
  898Sol     HW 4341   2.388   2.750  12.350  1.3715 -1.6695 -0.8850
  898Sol     MW 4342   2.433   2.752  12.427  0.1421  0.1498 -0.0345
  899Sol     OW 4343   2.580   1.751   8.240 -0.0264  0.3476  0.4467
  899Sol     HW 4344   2.539   1.675   8.282 -0.7907 -0.0315 -0.9131
  899Sol     HW 4345   2.594   1.814   8.310 -0.7871 -0.4668  1.3377
  899Sol     MW 4346   2.577   1.750   8.250 -0.4628  0.7738 -0.0328
  900Sol     OW 4347   0.390   3.355  11.867  0.0446 -0.5746 -1.0253
  900Sol     HW 4348   0.437   3.324  11.944  0.3303  0.5372 -0.7349
  900Sol     HW 4349   0.346   3.277  11.832  0.2415 -1.1679  0.0208
  900Sol     MW 4350   0.390   3.345  11.871 -0.7129  0.0604  0.4397
  901Sol     OW 4351   2.051   1.437  14.292 -0.4937  0.0456 -0.0280
  901Sol     HW 4352   2.107   1.498  14.340  0.3215 -0.5084 -0.2690
  901Sol     HW 4353   1.970   1.486  14.277  0.1817  1.0980 -0.2903
  901Sol     MW 4354   2.048   1.447  14.295  0.7397  0.3599  0.3602
  902Sol     OW 4355   3.196   0.151   7.146  0.1567  0.2443  0.4003
  902Sol     HW 4356   3.287   0.178   7.158  0.3988  0.0609 -0.8776
  902Sol     HW 4357   3.199   0.094   7.069 -1.0546  0.3539  0.2697
  902Sol     MW 4358   3.205   0.148   7.140  0.1992 -0.3488  0.8313
  903Sol     OW 4359   2.963   0.655   7.644 -0.8176  0.0365 -0.3331
  903Sol     HW 4360   3.017   0.732   7.628 -0.5043  0.2104  1.4443
  903Sol     HW 4361   2.977   0.599   7.568 -0.0607  1.1690 -1.0387
  903Sol     MW 4362   2.969   0.657   7.636 -0.1836 -0.1385  0.0049
  904Sol     OW 4363   2.143   0.744  14.177  0.3788  0.2498  0.2626
  904Sol     HW 4364   2.215   0.743  14.240 -1.2134 -0.5766  2.1271
  904Sol     HW 4365   2.132   0.836  14.154  1.0538  0.5455  1.0967
  904Sol     MW 4366   2.149   0.752  14.180  0.0797  0.3602 -0.1692
  905Sol     OW 4367   1.788   0.577  12.591  0.3346  0.0204  0.1285
  905Sol     HW 4368   1.854   0.647  12.584 -0.0210  0.4954  1.3668
  905Sol     HW 4369   1.839   0.498  12.605  0.7749 -0.0953 -1.8794
  905Sol     MW 4370   1.799   0.576  12.591  0.1727 -0.0071 -0.0581
  906Sol     OW 4371   0.600   1.191   9.752  0.7297  0.0638 -0.2194
  906Sol     HW 4372   0.535   1.188   9.682 -0.2756 -0.2508  0.7032
  906Sol     HW 4373   0.640   1.278   9.745  1.3401 -0.3330 -1.7885
  906Sol     MW 4374   0.598   1.198   9.745 -0.8736  0.2003 -0.2496
  907Sol     OW 4375   2.214   0.943   9.147  0.3383 -0.0086  0.0647
  907Sol     HW 4376   2.240   0.879   9.213 -2.6447 -2.9576 -1.4563
  907Sol     HW 4377   2.231   0.899   9.063 -1.9161  1.0823 -1.0060
  907Sol     MW 4378   2.218   0.933   9.145  0.8178  0.0131  0.1444
  908Sol     OW 4379   2.831   3.224   9.860  0.2444 -0.1688  0.0696
  908Sol     HW 4380   2.754   3.231   9.917  0.0534 -1.6718  0.0201
  908Sol     HW 4381   2.803   3.262   9.777 -1.0940 -2.4805 -0.5649
  908Sol     MW 4382   2.822   3.228   9.858  0.3561 -0.0880 -0.3289
  909Sol     OW 4383   3.252   1.026   7.215 -0.1603  0.1067  0.1366
  909Sol     HW 4384   3.177   0.982   7.254 -1.0489  1.5905  0.1493
  909Sol     HW 4385   3.281   1.087   7.282  1.3237 -0.7480  0.2827
  909Sol     MW 4386   3.248   1.028   7.224  0.0190 -0.3596  0.4172
  910Sol     OW 4387   0.835   0.978  12.731 -0.5809 -0.2202 -0.6065
  910Sol     HW 4388   0.903   0.911  12.742 -2.0473 -1.7171 -0.4863
  910Sol     HW 4389   0.764   0.950  12.789 -0.6882  2.1833  0.4733
  910Sol     MW 4390   0.835   0.969  12.737 -0.4070  0.0677 -0.2377
  911Sol     OW 4391   2.688   2.910   8.257 -0.1191  0.8421  0.2344
  911Sol     HW 4392   2.655   2.852   8.326 -0.1640  1.3009  0.6000
  911Sol     HW 4393   2.635   2.888   8.181  0.5678 -0.3245  0.0922
  911Sol     MW 4394   2.680   2.903   8.257 -0.4639  0.0583  0.1541
  912Sol     OW 4395   1.347   0.352   7.516  0.2869  0.2561 -0.5759
  912Sol     HW 4396   1.336   0.380   7.425  0.3352  1.2685 -0.2739
  912Sol     HW 4397   1.425   0.398   7.546 -2.2397  3.5129  1.3502
  912Sol     MW 4398   1.353   0.359   7.511  0.5607 -0.2508 -0.4937
  913Sol     OW 4399   1.927   2.873  11.573  0.0192 -0.3228  0.0962
  913Sol     HW 4400   2.006   2.819  11.566 -0.3053 -1.1232  2.1075
  913Sol     HW 4401   1.954   2.958  11.540  1.5814 -0.7440  0.2032
  913Sol     MW 4402   1.937   2.876  11.570 -0.2898  0.2509  0.2920
  914Sol     OW 4403   1.707   1.317  10.541  0.0216 -0.0983 -0.2611
  914Sol     HW 4404   1.749   1.231  10.538  0.4475  0.1153 -0.6362
  914Sol     HW 4405   1.731   1.353  10.627  0.6626  0.0437 -0.4940
  914Sol     MW 4406   1.713   1.313  10.548  0.2452  1.1567  0.5275
  915Sol     OW 4407   1.860   0.622  14.111  0.6019 -0.2218  0.6497
  915Sol     HW 4408   1.937   0.657  14.066  0.1961 -1.6157 -1.2127
  915Sol     HW 4409   1.894   0.550  14.164  0.4857 -1.4632 -0.9181
  915Sol     MW 4410   1.870   0.618  14.111  0.0299 -1.1422 -0.1465
  916Sol     OW 4411   2.115   1.012  10.237 -0.2886  0.3640 -0.0385
  916Sol     HW 4412   2.148   1.090  10.280  3.1453 -1.1797  0.2709
  916Sol     HW 4413   2.112   1.035  10.144 -0.4146  1.2157  0.1717
  916Sol     MW 4414   2.117   1.021  10.233 -0.1693 -0.1886  0.5481
  917Sol     OW 4415   2.028   2.648  13.008  0.0712 -0.1140  0.8327
  917Sol     HW 4416   2.033   2.556  13.034  1.8095 -0.1715  0.3855
  917Sol     HW 4417   2.048   2.648  12.914 -0.0418  0.7083  0.7992
  917Sol     MW 4418   2.030   2.640  13.002 -0.4622  0.0938 -0.6176
  918Sol     OW 4419   3.173   0.322   9.149  0.1813  0.3339  0.8261
  918Sol     HW 4420   3.254   0.272   9.153 -0.8057 -1.6301 -2.2372
  918Sol     HW 4421   3.199   0.406   9.109  0.7955 -0.0925  0.3153
  918Sol     MW 4422   3.183   0.325   9.145 -0.3017 -0.4489 -0.5430
  919Sol     OW 4423   2.275   2.687  12.229 -0.0105  1.0632  0.2563
  919Sol     HW 4424   2.197   2.699  12.283 -0.1358 -0.7390  0.5016
  919Sol     HW 4425   2.262   2.602  12.188  1.7643  0.8233  0.1837
  919Sol     MW 4426   2.267   2.681  12.230  0.6029  1.3504 -0.1571
  920Sol     OW 4427   1.287   2.239  12.350 -0.5470 -0.0395  0.4204
  920Sol     HW 4428   1.199   2.217  12.382 -0.1708  1.0816  2.2603
  920Sol     HW 4429   1.273   2.314  12.293 -0.6794  0.7049  1.4244
  920Sol     MW 4430   1.278   2.244  12.348 -0.9361 -0.1814  0.2308
  921Sol     OW 4431   2.096   0.698  11.520  0.1576  0.5674  0.2397
  921Sol     HW 4432   2.177   0.651  11.501 -0.2898 -0.2467  0.3222
  921Sol     HW 4433   2.026   0.639  11.491 -0.4376  0.8011  1.1439
  921Sol     MW 4434   2.097   0.689  11.516 -0.8857 -0.8319 -0.6611
  922Sol     OW 4435   1.744   2.994  14.071 -0.1996  1.2188 -0.3414
  922Sol     HW 4436   1.811   2.941  14.115 -0.8969  1.6998  1.3466
  922Sol     HW 4437   1.794   3.054  14.015  0.6502 -0.2115 -1.1546
  922Sol     MW 4438   1.754   2.995  14.070 -0.5738  0.6549  0.1883
  923Sol     OW 4439   2.559   2.777   6.588 -0.1147 -0.2174  0.7282
  923Sol     HW 4440   2.554   2.821   6.674 -1.4014  0.0605  0.5282
  923Sol     HW 4441   2.496   2.705   6.595 -0.7314  0.2220 -0.2127
  923Sol     MW 4442   2.553   2.775   6.597  0.1305 -0.1187 -0.6670
  924Sol     OW 4443   0.418   2.577  12.783 -0.2339  0.2829  0.2178
  924Sol     HW 4444   0.485   2.644  12.773 -0.5093  0.5693  0.3074
  924Sol     HW 4445   0.408   2.568  12.878  0.3443 -0.4235  0.2188
  924Sol     MW 4446   0.423   2.582  12.790 -0.0128 -0.3056 -0.0828
  925Sol     OW 4447   2.570   1.719   6.838  0.6815  0.3118 -0.4222
  925Sol     HW 4448   2.625   1.742   6.912  0.0421  1.0088 -0.1546
  925Sol     HW 4449   2.491   1.772   6.849  0.0429 -0.5131 -0.9117
  925Sol     MW 4450   2.567   1.726   6.846 -0.7468  1.0523  0.0965
  926Sol     OW 4451   1.125   0.172  13.741 -0.5151 -0.3011 -0.7950
  926Sol     HW 4452   1.072   0.238  13.785  1.3371  0.7029 -0.0162
  926Sol     HW 4453   1.128   0.201  13.649 -0.1229  0.4089 -0.5565
  926Sol     MW 4454   1.120   0.180  13.736 -0.5590 -0.3799 -0.1218
  927Sol     OW 4455   3.319   2.109  11.212  0.1256 -0.4431  0.0614
  927Sol     HW 4456   3.399   2.062  11.186 -0.0500 -1.3351  1.1138
  927Sol     HW 4457   3.248   2.059  11.172  0.0272 -0.2299 -0.0306
  927Sol     MW 4458   3.320   2.101  11.206 -0.0834  0.4036  0.5593
  928Sol     OW 4459   3.026   1.932   6.616  0.5256 -0.3638 -0.0909
  928Sol     HW 4460   3.071   1.857   6.578 -2.3107 -2.2615  0.1481
  928Sol     HW 4461   2.961   1.957   6.550 -0.2170  0.2961  0.8804
  928Sol     MW 4462   3.024   1.928   6.607 -0.4062  0.2161  0.0108
  929Sol     OW 4463   2.762   1.130   9.344 -0.1950 -0.0391 -0.1026
  929Sol     HW 4464   2.760   1.207   9.286 -0.8752 -1.3069 -1.8187
  929Sol     HW 4465   2.835   1.077   9.311  1.5002  0.7298  2.2676
  929Sol     MW 4466   2.769   1.132   9.336 -0.1692 -0.4351  0.8995
  930Sol     OW 4467   2.456   0.266   9.106  0.2126  0.3493 -0.1293
  930Sol     HW 4468   2.367   0.300   9.094  0.1991 -0.2410 -1.7883
  930Sol     HW 4469   2.454   0.179   9.068  1.6337  0.4994 -0.5759
  930Sol     MW 4470   2.448   0.262   9.102  0.3222 -0.3499  0.5151
  931Sol     OW 4471   2.698   1.219  12.911  0.1831  0.2644 -0.3106
  931Sol     HW 4472   2.642   1.142  12.922  0.6187 -0.0005  0.1425
  931Sol     HW 4473   2.764   1.210  12.981  0.0880  1.1828 -0.0966
  931Sol     MW 4474   2.699   1.211  12.918  0.3730 -0.0529  0.1274
  932Sol     OW 4475   0.299   2.440  12.580  0.2930 -0.0966  0.2416
  932Sol     HW 4476   0.320   2.470  12.668 -0.6035 -2.3977  1.2698
  932Sol     HW 4477   0.384   2.420  12.541  0.6469  0.2506  0.8230
  932Sol     MW 4478   0.308   2.441  12.584  0.2878  0.0153 -0.7491
  933Sol     OW 4479   2.974   2.511   8.033 -0.2409  0.0042  0.3310
  933Sol     HW 4480   3.008   2.595   8.000 -1.0194 -0.0260 -0.5532
  933Sol     HW 4481   3.049   2.471   8.077 -0.2213  1.7808  1.9704
  933Sol     MW 4482   2.984   2.515   8.034 -0.3318  0.9105 -0.1996
  934Sol     OW 4483   2.462   0.972   8.555 -0.4823  0.6131 -0.6209
  934Sol     HW 4484   2.466   1.007   8.644 -0.6796 -0.7838 -0.0444
  934Sol     HW 4485   2.551   0.941   8.537 -0.1224  2.0468 -1.4094
  934Sol     MW 4486   2.470   0.972   8.561 -0.2871  0.4452  0.6141
  935Sol     OW 4487   2.209   2.007  14.281  0.1963 -0.1296 -0.7239
  935Sol     HW 4488   2.143   1.962  14.333  1.5453 -0.8981  0.3364
  935Sol     HW 4489   2.188   2.100  14.290 -2.3120 -0.4732 -2.5460
  935Sol     MW 4490   2.201   2.012  14.286  0.0250 -0.1769  0.2506
  936Sol     OW 4491   2.334   2.473   9.621 -0.0181  0.2572  0.3880
  936Sol     HW 4492   2.248   2.431   9.619  0.2617 -0.4927  2.5053
  936Sol     HW 4493   2.360   2.469   9.714  1.3392  2.4108  0.1210
  936Sol     MW 4494   2.329   2.469   9.630  0.5166 -0.3601  0.4324
  937Sol     OW 4495   3.060   2.004  13.371 -0.1233 -0.0303  0.1934
  937Sol     HW 4496   3.099   1.944  13.435  1.4420  0.3359 -0.3936
  937Sol     HW 4497   2.976   2.030  13.410 -0.5041 -2.0678  0.7469
  937Sol     MW 4498   3.056   2.001  13.380 -0.4280  0.6683 -0.1383
  938Sol     OW 4499   0.644   1.604   7.901 -0.4995 -0.4716  0.1936
  938Sol     HW 4500   0.666   1.510   7.902  0.8539 -0.1674 -0.3535
  938Sol     HW 4501   0.640   1.626   7.808 -0.2131  0.1514  0.3260
  938Sol     MW 4502   0.646   1.597   7.893 -0.3846 -0.1397 -0.5175
  939Sol     OW 4503   2.034   1.296  11.057 -0.2572 -0.2919  0.4065
  939Sol     HW 4504   2.042   1.314  10.963 -0.1291 -0.4053  0.3944
  939Sol     HW 4505   2.020   1.202  11.062  0.6313 -0.4215  0.5514
  939Sol     MW 4506   2.033   1.290  11.049 -0.4964 -0.2904  0.2806
  940Sol     OW 4507   0.206   1.294   7.620 -0.0410  0.4046 -0.1759
  940Sol     HW 4508   0.158   1.237   7.560 -1.9654  0.5827  1.1494
  940Sol     HW 4509   0.227   1.239   7.694  0.0645  0.8544  0.1331
  940Sol     MW 4510   0.204   1.284   7.621 -0.1459 -0.2054 -0.0580
  941Sol     OW 4511   0.021   1.942   6.626  0.6795 -0.1399 -0.0581
  941Sol     HW 4512  -0.040   1.894   6.682  0.2714 -0.3923 -0.7117
  941Sol     HW 4513   0.031   2.027   6.669 -0.7340  0.1912 -0.3274
  941Sol     MW 4514   0.016   1.945   6.635 -0.5768  0.5878 -0.3299
  942Sol     OW 4515   3.259   2.239  10.947  0.1847 -0.0054 -0.1082
  942Sol     HW 4516   3.304   2.213  11.027 -0.5805  0.9882  0.6565
  942Sol     HW 4517   3.277   2.333  10.939  0.2055 -0.0873 -1.0719
  942Sol     MW 4518   3.265   2.245  10.954 -0.0105  0.3294  0.2900
  943Sol     OW 4519   3.168   0.044  12.031  0.6264  0.2556  0.0836
  943Sol     HW 4520   3.209   0.057  12.117  2.2291 -0.9576 -0.4699
  943Sol     HW 4521   3.089  -0.006  12.050  1.4304 -0.7946  0.7873
  943Sol     MW 4522   3.165   0.041  12.041 -0.4186  0.6197  0.2590
  944Sol     OW 4523   3.161   2.225   7.135  0.1639  0.4300  0.1722
  944Sol     HW 4524   3.104   2.257   7.066  0.7154  0.4287 -0.2897
  944Sol     HW 4525   3.216   2.160   7.093  0.0157 -0.0975  0.7807
  944Sol     MW 4526   3.161   2.222   7.125  0.5026  0.0383  0.4834
  945Sol     OW 4527   1.353   3.232  10.672  0.2544 -0.5555  0.1845
  945Sol     HW 4528   1.335   3.252  10.580 -1.6050  1.3280  0.9171
  945Sol     HW 4529   1.407   3.153  10.669 -0.0824 -0.7380 -2.5108
  945Sol     MW 4530   1.356   3.227  10.663 -0.0847 -0.4536  0.0864
  946Sol     OW 4531   1.373   1.355  13.340  0.4105  0.2118 -0.0670
  946Sol     HW 4532   1.330   1.422  13.392  2.0248  2.1474 -1.1542
  946Sol     HW 4533   1.305   1.320  13.283 -0.1708  1.8263 -0.3740
  946Sol     MW 4534   1.363   1.358  13.339  0.1034 -0.2943 -0.0285
  947Sol     OW 4535   1.078   2.835   9.675 -0.0284  0.0171  0.1991
  947Sol     HW 4536   1.006   2.798   9.624 -1.8975  1.0963  1.9832
  947Sol     HW 4537   1.062   2.805   9.764  0.5111  2.0556  1.0006
  947Sol     MW 4538   1.071   2.829   9.678  0.6308  0.5452 -0.0476
  948Sol     OW 4539   1.401   1.197  11.485 -0.3848 -0.5356  0.5129
  948Sol     HW 4540   1.362   1.256  11.550 -1.4825 -0.2889 -0.3540
  948Sol     HW 4541   1.493   1.189  11.512 -0.5045  0.6388  1.3157
  948Sol     MW 4542   1.406   1.202  11.493  0.1260 -0.6287  0.1798
  949Sol     OW 4543   3.114   2.475  10.497  0.0409  0.3600  0.2179
  949Sol     HW 4544   3.097   2.414  10.569  1.4258  1.2163  1.2695
  949Sol     HW 4545   3.049   2.450  10.430 -1.6621 -0.0581  1.9647
  949Sol     MW 4546   3.106   2.467  10.498 -0.4722  0.1581 -0.5568
  950Sol     OW 4547   0.053   0.835   7.513  0.0181  0.0037  0.0776
  950Sol     HW 4548   0.056   0.838   7.418 -1.1351 -0.2656  0.0143
  950Sol     HW 4549  -0.030   0.879   7.535  0.0514 -0.3546  0.9245
  950Sol     MW 4550   0.046   0.839   7.507  0.1745  0.0436 -0.6256
  951Sol     OW 4551   1.028   3.310  11.643  0.3430 -0.2234  0.5585
  951Sol     HW 4552   0.982   3.259  11.709  0.1373  0.7865  1.2058
  951Sol     HW 4553   1.121   3.299  11.664  0.3395 -0.9307  0.2365
  951Sol     MW 4554   1.033   3.304  11.651 -0.0343  0.1302  0.4007
  952Sol     OW 4555   0.417   1.599   9.132 -0.1058  0.0477  0.4287
  952Sol     HW 4556   0.353   1.557   9.074 -0.0770  1.5414 -0.7211
  952Sol     HW 4557   0.502   1.572   9.096 -0.0865 -0.3810  0.7930
  952Sol     MW 4558   0.419   1.593   9.123 -0.1698 -0.3362  0.2826
  953Sol     OW 4559   1.893   1.902   7.483 -0.4311 -0.3619  0.2783
  953Sol     HW 4560   1.852   1.980   7.521 -0.5605 -0.6787  0.8113
  953Sol     HW 4561   1.874   1.832   7.547 -0.1307 -0.7782 -0.0829
  953Sol     MW 4562   1.888   1.902   7.492  0.0863  0.3459  0.6637
  954Sol     OW 4563   1.192   2.355  10.276 -0.0590 -0.0195  0.2892
  954Sol     HW 4564   1.262   2.391  10.330  0.5799 -0.5117 -0.1871
  954Sol     HW 4565   1.166   2.274  10.320  0.8326 -0.7005 -0.3989
  954Sol     MW 4566   1.196   2.351  10.285  0.2301  0.1103  0.0918
  955Sol     OW 4567   0.453   3.133   6.664  0.3997 -0.2975  0.1305
  955Sol     HW 4568   0.548   3.135   6.648  0.3737  1.0341  0.0515
  955Sol     HW 4569   0.438   3.207   6.723 -0.5668 -0.6047  0.2607
  955Sol     MW 4570   0.460   3.140   6.668 -0.1726 -1.0411 -0.5285
  956Sol     OW 4571   0.176   0.856  13.875 -0.5810 -0.0666 -0.1466
  956Sol     HW 4572   0.117   0.832  13.946 -2.3838  0.1620 -1.5353
  956Sol     HW 4573   0.184   0.776  13.823 -0.8975  0.3381 -0.8204
  956Sol     MW 4574   0.172   0.847  13.877 -0.2889  0.1408  1.2542
  957Sol     OW 4575   2.438   3.057   7.192  0.2203  0.3186 -0.7763
  957Sol     HW 4576   2.514   3.006   7.164  1.0207  0.4435  1.0897
  957Sol     HW 4577   2.475   3.128   7.244 -1.2403 -0.6476  1.6775
  957Sol     MW 4578   2.448   3.059   7.194 -0.1920 -0.4927  0.0065
  958Sol     OW 4579   2.350   2.184  10.743 -0.2078  0.2178  0.1388
  958Sol     HW 4580   2.393   2.145  10.819  0.1077  0.3821  0.0439
  958Sol     HW 4581   2.421   2.220  10.691 -0.2828 -1.1135 -0.9251
  958Sol     MW 4582   2.360   2.184  10.745 -0.5100 -0.3564  0.4421
  959Sol     OW 4583   0.237   1.795  10.765 -0.1457  0.2858  0.2126
  959Sol     HW 4584   0.146   1.814  10.743 -0.7733 -1.7822  0.9474
  959Sol     HW 4585   0.271   1.745  10.691 -0.4840 -1.4740  1.2274
  959Sol     MW 4586   0.232   1.793  10.757  0.1808  0.3252  0.1889
  960Sol     OW 4587   1.130   0.757  12.343 -0.5469 -0.1470  0.2232
  960Sol     HW 4588   1.151   0.664  12.335  2.3474  0.4098  0.8357
  960Sol     HW 4589   1.126   0.788  12.252  0.4999 -0.4337  0.0808
  960Sol     MW 4590   1.131   0.751  12.334 -0.4369 -0.1813  0.4255
  961Sol     OW 4591   2.188   2.623  11.836  0.5261 -0.2333 -1.3156
  961Sol     HW 4592   2.253   2.604  11.768 -0.1818 -0.8695 -1.8353
  961Sol     HW 4593   2.112   2.655  11.787 -0.1160 -1.0433 -0.8583
  961Sol     MW 4594   2.187   2.624  11.825  0.0516 -0.0274  0.0291
  962Sol     OW 4595   0.968   1.404   8.949 -0.1311  0.2181  0.2090
  962Sol     HW 4596   0.967   1.416   9.044  0.1502  0.6298  0.1622
  962Sol     HW 4597   0.876   1.396   8.925 -0.2923  1.5862  0.3373
  962Sol     MW 4598   0.960   1.404   8.956 -0.2921  0.2231  0.0934
  963Sol     OW 4599   3.187   1.509  12.309 -0.0623  0.0341 -0.0112
  963Sol     HW 4600   3.201   1.463  12.226  0.0125 -0.8632  0.5021
  963Sol     HW 4601   3.096   1.539  12.304 -0.1830 -0.3639 -0.2522
  963Sol     MW 4602   3.180   1.508  12.301  0.0602 -0.3692 -0.0358
  964Sol     OW 4603   1.621   1.004  13.000 -0.1262  0.8199  0.1198
  964Sol     HW 4604   1.545   1.004  13.059  0.0419  1.0749  0.3347
  964Sol     HW 4605   1.672   1.081  13.026  0.3522  0.4855  0.1568
  964Sol     MW 4606   1.618   1.011  13.007 -0.3335 -0.1490  0.3955
  965Sol     OW 4607   1.981   2.998  12.594 -0.6805  0.5785 -0.3048
  965Sol     HW 4608   1.890   3.010  12.621 -0.3581 -1.0880  1.6822
  965Sol     HW 4609   2.033   3.036  12.665  0.1639 -1.0671 -0.0031
  965Sol     MW 4610   1.977   3.002  12.603 -0.2163  0.1430  0.5822
  966Sol     OW 4611   2.641   2.510  10.375  0.0589 -0.3086 -0.3032
  966Sol     HW 4612   2.627   2.496  10.469 -0.0500  1.0478 -0.1043
  966Sol     HW 4613   2.552   2.518  10.339  0.1264  2.7382  0.0702
  966Sol     MW 4614   2.632   2.509  10.380 -0.6435 -0.4154 -0.3729
  967Sol     OW 4615   0.628   1.497   8.224  0.2225 -0.2281 -0.5272
  967Sol     HW 4616   0.721   1.497   8.247  0.5224  0.4287 -1.7380
  967Sol     HW 4617   0.590   1.428   8.279  1.7216 -1.6199 -1.1978
  967Sol     MW 4618   0.633   1.491   8.231  0.7131 -0.2123  0.2023
  968Sol     OW 4619   1.976   0.650   7.237  0.0398  0.5163  0.4413
  968Sol     HW 4620   2.056   0.654   7.289  0.5472  2.5685 -0.4739
  968Sol     HW 4621   1.997   0.591   7.165  0.1859 -0.2391  1.0912
  968Sol     MW 4622   1.985   0.645   7.236 -0.6863  0.4193 -0.4145
  969Sol     OW 4623   0.213   2.134   9.036 -0.3626  0.0711  0.3374
  969Sol     HW 4624   0.247   2.220   9.011  1.0875 -0.2056  1.3101
  969Sol     HW 4625   0.259   2.112   9.116 -0.1004 -1.9917 -0.3506
  969Sol     MW 4626   0.220   2.140   9.041 -0.1251 -0.9437 -0.3302
  970Sol     OW 4627   0.915   1.229  11.448  0.2811 -0.3947 -0.3225
  970Sol     HW 4628   0.937   1.262  11.360  0.3153  0.3683 -0.0276
  970Sol     HW 4629   0.973   1.154  11.460  1.8532  0.8520 -0.0512
  970Sol     MW 4630   0.922   1.225  11.441  0.2610 -0.4018  0.1264
  971Sol     OW 4631   2.260   3.126  12.567  0.5613 -0.5460 -0.1774
  971Sol     HW 4632   2.339   3.170  12.600  0.9546 -0.0797 -1.6826
  971Sol     HW 4633   2.282   3.033  12.569  0.1415 -0.6299  1.9491
  971Sol     MW 4634   2.269   3.122  12.570  0.7010 -0.2450  0.3629
  972Sol     OW 4635   3.067   1.063   8.657 -0.1941 -0.1341 -0.1374
  972Sol     HW 4636   3.033   1.122   8.589  1.4198 -0.7671 -1.5365
  972Sol     HW 4637   3.094   0.985   8.609  0.3487 -0.8698  1.3316
  972Sol     MW 4638   3.066   1.061   8.646 -0.1404  0.7299  1.5184
  973Sol     OW 4639   0.017   3.247  11.119 -0.0631 -0.2477  0.3045
  973Sol     HW 4640   0.008   3.341  11.102  2.0055  0.4209  2.6642
  973Sol     HW 4641  -0.054   3.226  11.180  0.6634  0.2128  1.3130
  973Sol     MW 4642   0.010   3.253  11.123  0.6945 -0.1858 -0.3818
  974Sol     OW 4643   2.993   1.925  12.850  0.5143  0.1528 -0.4658
  974Sol     HW 4644   3.040   1.939  12.768  1.0921 -1.1521 -0.3748
  974Sol     HW 4645   3.055   1.949  12.919  1.4707 -2.5822 -0.3135
  974Sol     MW 4646   3.003   1.928  12.849 -0.0643 -0.2126  0.3856
  975Sol     OW 4647   0.718   1.476  14.155 -0.3151 -0.2057 -0.2009
  975Sol     HW 4648   0.779   1.404  14.138  1.4346  0.7436  1.8112
  975Sol     HW 4649   0.632   1.436  14.152  0.5711 -2.1340 -0.3556
  975Sol     MW 4650   0.716   1.466  14.153  0.9340 -0.2669  0.4494
  976Sol     OW 4651   2.536   2.089  13.978  0.1385 -0.1189  0.1475
  976Sol     HW 4652   2.495   2.164  14.021 -1.1648 -0.6240 -0.2008
  976Sol     HW 4653   2.487   2.078  13.896  2.1555  0.4204 -1.1823
  976Sol     MW 4654   2.528   2.095  13.974 -0.0104  0.4018  0.1288
  977Sol     OW 4655   1.132   2.307  11.199  0.2055  0.0292 -0.2693
  977Sol     HW 4656   1.214   2.306  11.150  0.0093 -1.1653 -0.5943
  977Sol     HW 4657   1.077   2.369  11.152  0.4455 -0.1919 -0.8480
  977Sol     MW 4658   1.135   2.313  11.191 -0.9526  0.3076 -0.7203
  978Sol     OW 4659   0.434   0.787   9.626 -0.4256  0.0831  0.1693
  978Sol     HW 4660   0.365   0.823   9.571  0.7470 -0.7688 -1.9202
  978Sol     HW 4661   0.406   0.698   9.646  1.0540 -1.0659 -2.5787
  978Sol     MW 4662   0.426   0.782   9.623 -0.2636  0.0708  1.1656
  979Sol     OW 4663   2.234   0.109  13.093  0.2709  0.2700 -0.5243
  979Sol     HW 4664   2.177   0.176  13.130  0.5127 -0.0413  0.4426
  979Sol     HW 4665   2.197   0.026  13.124  0.5806  0.0143 -0.8349
  979Sol     MW 4666   2.226   0.107  13.099  0.1241 -0.1092 -0.3093
  980Sol     OW 4667   1.396   1.663  11.416  0.1103  0.1955  0.1801
  980Sol     HW 4668   1.357   1.607  11.349  1.3728  0.0044 -0.4036
  980Sol     HW 4669   1.336   1.657  11.491 -1.3171  0.4122 -0.9181
  980Sol     MW 4670   1.387   1.658  11.417  0.0847 -0.3788 -0.2453
  981Sol     OW 4671   0.027   0.597  11.627 -0.3049 -0.3702 -0.2564
  981Sol     HW 4672   0.006   0.581  11.535  0.8368  0.1623 -0.6137
  981Sol     HW 4673   0.113   0.639  11.626 -0.9057  0.9833  0.9638
  981Sol     MW 4674   0.033   0.600  11.619  0.6432 -0.0515  1.1597
  982Sol     OW 4675   1.381   2.006   7.788 -0.7119  0.0551  0.5432
  982Sol     HW 4676   1.414   2.049   7.710 -0.4543 -0.3597  0.4202
  982Sol     HW 4677   1.403   2.066   7.860 -1.2533  0.5953  0.2657
  982Sol     MW 4678   1.386   2.015   7.788 -0.6947 -0.2691  0.4821
  983Sol     OW 4679   2.713   1.981  13.274  0.0957 -0.5429 -0.5647
  983Sol     HW 4680   2.637   2.026  13.239  0.1323 -0.9680 -1.2056
  983Sol     HW 4681   2.738   2.031  13.352 -0.6432 -0.2240 -0.5366
  983Sol     MW 4682   2.709   1.990  13.278  0.2726 -0.6016 -0.6342
  984Sol     OW 4683   2.580   2.176   8.808  0.5609 -0.2880  0.4913
  984Sol     HW 4684   2.640   2.223   8.750 -2.8249  2.4270 -0.9753
  984Sol     HW 4685   2.538   2.111   8.751 -2.3098  1.9594 -0.0505
  984Sol     MW 4686   2.582   2.174   8.797 -0.8091 -0.5069  0.0039
  985Sol     OW 4687   1.327   0.669  11.066 -0.7070 -0.3949  0.1075
  985Sol     HW 4688   1.266   0.715  11.123 -1.9569 -0.6103 -1.0311
  985Sol     HW 4689   1.412   0.681  11.108 -1.1978  1.8176  0.5444
  985Sol     MW 4690   1.329   0.674  11.075 -0.0725 -0.7859 -0.1460
  986Sol     OW 4691   3.125   1.896  13.881  0.0787 -1.1112  0.0298
  986Sol     HW 4692   3.158   1.976  13.839 -1.2659 -2.0189 -2.9106
  986Sol     HW 4693   3.142   1.827  13.817 -1.9543 -2.5849  1.0289
  986Sol     MW 4694   3.130   1.897  13.871  0.2979 -0.4652 -0.4556
  987Sol     OW 4695   1.484   2.168  12.546  0.0158  0.0211  0.0971
  987Sol     HW 4696   1.562   2.220  12.527  0.9393 -1.3439  0.0466
  987Sol     HW 4697   1.416   2.204  12.490  0.9752  0.3444 -0.8696
  987Sol     MW 4698   1.485   2.176  12.539 -0.0622 -0.4860  0.1795
  988Sol     OW 4699   0.740   2.608   7.429  0.2315  0.4884  0.3935
  988Sol     HW 4700   0.649   2.596   7.400  0.8701  1.3797 -2.1477
  988Sol     HW 4701   0.740   2.692   7.474 -0.1859  0.5652  0.2509
  988Sol     MW 4702   0.732   2.614   7.430 -0.7203  0.1074  0.1283
  989Sol     OW 4703   0.861   2.912   7.056 -0.4083 -0.1784  0.0061
  989Sol     HW 4704   0.815   2.970   6.996  0.0149 -0.4609 -0.5889
  989Sol     HW 4705   0.824   2.933   7.142  1.0360  2.2608  0.0701
  989Sol     MW 4706   0.853   2.919   7.059 -0.4909  0.3442 -0.1537
  990Sol     OW 4707   0.699   1.038   7.021  0.3037  0.6226  0.3626
  990Sol     HW 4708   0.654   1.117   7.051  0.7178  0.6564  0.9157
  990Sol     HW 4709   0.649   1.009   6.945 -0.3709  0.9211  0.6875
  990Sol     MW 4710   0.691   1.043   7.017  0.5029 -0.2944  0.3350
  991Sol     OW 4711   2.461   3.139  11.361 -0.4154  0.5585 -0.5318
  991Sol     HW 4712   2.545   3.118  11.402  0.0207  0.0644 -1.6315
  991Sol     HW 4713   2.480   3.213  11.303 -1.2567  1.9513  0.9332
  991Sol     MW 4714   2.470   3.144  11.359  0.3075 -0.0663 -0.4970
  992Sol     OW 4715   1.048   3.381  10.938  0.1422  0.4615  0.0705
  992Sol     HW 4716   0.993   3.336  11.002 -1.0866  0.8414 -0.6882
  992Sol     HW 4717   1.098   3.312  10.896 -0.3738  0.0149  0.1902
  992Sol     MW 4718   1.047   3.371  10.940  0.7969 -0.3435  0.2085
  993Sol     OW 4719   1.917   0.206  10.885 -0.4825  0.0457  0.2390
  993Sol     HW 4720   1.835   0.180  10.842  0.1177 -0.4504 -0.6072
  993Sol     HW 4721   1.900   0.295  10.916 -0.8674  0.4641 -1.1563
  993Sol     MW 4722   1.908   0.211  10.884 -0.1037 -0.5633  0.3927
  994Sol     OW 4723   2.537   0.471   8.746 -0.9149 -0.1913  0.6031
  994Sol     HW 4724   2.499   0.499   8.662  0.1335  0.8607  0.4691
  994Sol     HW 4725   2.631   0.486   8.736 -0.8381  0.4653  2.1621
  994Sol     MW 4726   2.542   0.475   8.737 -0.0403  0.7275 -0.9119
  995Sol     OW 4727   2.998   3.425   7.415 -0.1115  0.1514 -0.0479
  995Sol     HW 4728   2.985   3.417   7.321  2.4479  1.1696 -0.5115
  995Sol     HW 4729   3.047   3.347   7.440 -0.2849  0.1672  0.3560
  995Sol     MW 4730   3.001   3.417   7.409 -0.5341 -0.4045 -0.0580
  996Sol     OW 4731   2.871   0.631  13.820  0.0060  0.3907  0.4254
  996Sol     HW 4732   2.853   0.641  13.727  0.6523 -1.6781  0.0769
  996Sol     HW 4733   2.787   0.602  13.857  1.0448 -4.0090 -0.3818
  996Sol     MW 4734   2.862   0.630  13.815 -0.2780 -0.6848 -0.5191
  997Sol     OW 4735   2.634   1.603   8.780 -0.2474 -0.0674  0.6790
  997Sol     HW 4736   2.548   1.574   8.810 -0.4918 -1.1429 -0.9272
  997Sol     HW 4737   2.627   1.698   8.775 -1.6095 -0.1903 -0.1491
  997Sol     MW 4738   2.625   1.609   8.782 -0.4699 -0.8930 -0.7688
  998Sol     OW 4739   0.895   0.579   7.275 -0.3742 -0.0917 -0.2856
  998Sol     HW 4740   0.926   0.492   7.299 -0.1790  0.0150 -0.1500
  998Sol     HW 4741   0.800   0.569   7.265 -0.2163 -0.5652 -1.3520
  998Sol     MW 4742   0.889   0.571   7.276  0.0253 -0.4141  0.0928
  999Sol     OW 4743   3.099   3.459   6.927  0.1061  0.0593  0.4457
  999Sol     HW 4744   3.044   3.487   6.853  0.9179 -1.4096 -0.7683
  999Sol     HW 4745   3.155   3.391   6.889  0.6260 -0.6261  2.4113
  999Sol     MW 4746   3.099   3.455   6.917  0.7204 -0.7255 -0.2974
 1000Sol     OW 4747   0.115   3.346  10.204 -0.1727  0.6369 -0.0561
 1000Sol     HW 4748   0.062   3.315  10.277  0.3988 -0.8763 -0.2648
 1000Sol     HW 4749   0.098   3.284  10.133  1.9561  0.0196 -0.0832
 1000Sol     MW 4750   0.109   3.338  10.204 -0.7754  0.2331 -0.6091
 1001Sol     OW 4751   1.361   3.415  13.992  0.1497  0.4508  0.5283
 1001Sol     HW 4752   1.267   3.423  14.007 -0.6606 -2.0682 -2.7773
 1001Sol     HW 4753   1.396   3.391  14.078 -2.3139  0.7548  1.6692
 1001Sol     MW 4754   1.356   3.413  14.001 -0.5747  0.2639 -0.4762
 1002Sol     OW 4755   2.493   3.449   6.395  0.0817  0.3843 -0.3219
 1002Sol     HW 4756   2.549   3.527   6.403  0.6240  0.1504 -1.7799
 1002Sol     HW 4757   2.446   3.462   6.313 -0.4000 -0.4665 -0.1772
 1002Sol     MW 4758   2.494   3.458   6.389  0.1729 -0.4434 -0.2294
 1003Sol     OW 4759   3.293   1.226   8.345  0.3123 -0.1646  0.1372
 1003Sol     HW 4760   3.235   1.302   8.338  2.1078  1.1869 -0.3974
 1003Sol     HW 4761   3.370   1.249   8.293  1.7211 -1.5664  1.5388
 1003Sol     MW 4762   3.295   1.235   8.340  0.3259 -0.2904 -0.2619
 1004Sol     OW 4763   1.997   0.774   9.567  0.3257  0.2553 -0.5384
 1004Sol     HW 4764   1.920   0.739   9.611  1.3574 -0.5295  0.6995
 1004Sol     HW 4765   1.977   0.866   9.551  0.1416  0.7131  2.0963
 1004Sol     MW 4766   1.989   0.779   9.569 -0.0653  0.6129  0.5531
 1005Sol     OW 4767   0.833   0.128  14.240 -0.1526 -0.0635  0.0396
 1005Sol     HW 4768   0.897   0.189  14.204 -0.0985  0.2829  0.7111
 1005Sol     HW 4769   0.806   0.074  14.165  1.9399 -1.1296  0.0101
 1005Sol     MW 4770   0.836   0.128  14.230 -0.1737 -0.5755  0.4806
 1006Sol     OW 4771   1.940   1.048   9.531 -0.3156 -0.0238  0.4934
 1006Sol     HW 4772   1.850   1.082   9.523 -0.0006  0.8098  0.4054
 1006Sol     HW 4773   1.994   1.115   9.488  0.1428 -1.5461 -1.3801
 1006Sol     MW 4774   1.936   1.057   9.526 -0.4033 -0.3059 -0.8870
 1007Sol     OW 4775   1.900   1.766  13.842  0.0428 -0.3733  0.5491
 1007Sol     HW 4776   1.996   1.771  13.841  0.0272  0.6163  1.8956
 1007Sol     HW 4777   1.881   1.675  13.868  0.5818 -1.2315 -1.9783
 1007Sol     MW 4778   1.907   1.758  13.844 -0.0613 -0.1494  0.1653
 1008Sol     OW 4779   2.192   2.543   7.816 -0.4200  0.7540 -0.4982
 1008Sol     HW 4780   2.179   2.630   7.779 -0.9713  0.7586 -0.2940
 1008Sol     HW 4781   2.226   2.490   7.743 -2.1225  0.5936 -1.1861
 1008Sol     MW 4782   2.194   2.546   7.806  0.1751 -0.0017  1.2020
 1009Sol     OW 4783   1.056   0.175  12.010  0.1334  0.1047 -0.3355
 1009Sol     HW 4784   1.135   0.177  12.063  0.1360 -0.4052 -0.3176
 1009Sol     HW 4785   1.009   0.097  12.039  0.2014 -0.2570 -1.1666
 1009Sol     MW 4786   1.059   0.168  12.017 -0.4881 -0.9643 -0.0028
 1010Sol     OW 4787   0.979   0.782   8.132 -0.2202  0.2617  0.2956
 1010Sol     HW 4788   0.955   0.748   8.218 -1.9919  0.9855  0.1153
 1010Sol     HW 4789   1.038   0.855   8.150  0.1708 -0.1862  0.8440
 1010Sol     MW 4790   0.982   0.785   8.141  0.3346 -0.4769 -0.4202
 1011Sol     OW 4791   2.201   0.474  12.405  0.5366  0.1017  0.6051
 1011Sol     HW 4792   2.180   0.382  12.389 -1.5669  0.2370  2.3110
 1011Sol     HW 4793   2.166   0.491  12.493  1.5696  2.3340  0.6095
 1011Sol     MW 4794   2.196   0.467  12.412 -0.1651 -0.2100  0.6548
 1012Sol     OW 4795   2.812   2.349  11.571 -0.1506 -0.6537 -0.4343
 1012Sol     HW 4796   2.905   2.365  11.554 -0.0514  0.2796  0.8894
 1012Sol     HW 4797   2.769   2.367  11.488  0.6634  0.6924 -0.5816
 1012Sol     MW 4798   2.817   2.352  11.562  0.6579  0.1746 -0.8482
 1013Sol     OW 4799   1.085   0.010  13.990  0.2515 -0.3604 -0.1372
 1013Sol     HW 4800   1.092  -0.028  13.902 -0.0000 -2.0127  0.5289
 1013Sol     HW 4801   1.001  -0.023  14.022  0.1738  0.5454  0.5834
 1013Sol     MW 4802   1.078   0.003  13.985  0.4411  0.2593 -0.6593
 1014Sol     OW 4803   2.562   2.217   8.218 -0.2323  0.0907 -0.0236
 1014Sol     HW 4804   2.566   2.308   8.246 -1.0925  0.0735  0.1432
 1014Sol     HW 4805   2.616   2.215   8.138 -0.9866  0.9461 -0.5702
 1014Sol     MW 4806   2.567   2.225   8.213 -0.0343 -0.1550  0.6254
 1015Sol     OW 4807   3.022   2.120   9.744  0.2014 -0.3317 -0.0202
 1015Sol     HW 4808   2.949   2.093   9.800 -1.0305  1.6038 -0.6366
 1015Sol     HW 4809   3.067   2.187   9.794  1.0452 -0.8986 -0.0125
 1015Sol     MW 4810   3.019   2.123   9.754 -0.4384 -0.1579 -0.6241
 1016Sol     OW 4811   1.970   1.344   8.441  0.4338 -0.6240  0.6368
 1016Sol     HW 4812   1.925   1.332   8.524 -1.1068  0.8878  0.0428
 1016Sol     HW 4813   1.903   1.327   8.375  0.5267  2.2833 -0.2532
 1016Sol     MW 4814   1.960   1.341   8.443  0.3100  0.2709  0.1548
 1017Sol     OW 4815   0.420   1.254  13.255  0.1863  0.3114 -0.6255
 1017Sol     HW 4816   0.500   1.261  13.204  0.2633 -1.8033 -0.8391
 1017Sol     HW 4817   0.449   1.243  13.345  0.2511 -3.0742 -1.0010
 1017Sol     MW 4818   0.430   1.253  13.258 -0.1119 -0.1135 -1.2036
 1018Sol     OW 4819   0.184   1.871   8.433 -0.5391 -0.5808  0.4277
 1018Sol     HW 4820   0.160   1.894   8.523  1.3494  1.1148  0.5274
 1018Sol     HW 4821   0.222   1.783   8.440 -0.6754 -0.5734  1.2435
 1018Sol     MW 4822   0.185   1.865   8.442 -0.1747  0.0578  0.3155
 1019Sol     OW 4823   2.405   0.241  14.282  0.3419 -0.1952  0.0413
 1019Sol     HW 4824   2.312   0.231  14.259  0.8934 -0.0870 -2.3962
 1019Sol     HW 4825   2.442   0.153  14.269  0.5958 -0.2325  0.9912
 1019Sol     MW 4826   2.400   0.232  14.279 -0.3491  0.6563  0.4125
 1020Sol     OW 4827   0.566   3.277  13.247  0.0526  0.0114 -0.5414
 1020Sol     HW 4828   0.509   3.336  13.297  0.7468  0.1637  0.0739
 1020Sol     HW 4829   0.506   3.232  13.186 -1.0083 -1.1109  1.2810
 1020Sol     MW 4830   0.555   3.278  13.246  0.4822  0.6082 -0.1077
 1021Sol     OW 4831   2.836   2.399  10.843 -0.2401 -0.5799  0.0482
 1021Sol     HW 4832   2.751   2.356  10.858 -0.2639 -1.5284 -2.6261
 1021Sol     HW 4833   2.893   2.328  10.814  1.0281  0.3818  0.1699
 1021Sol     MW 4834   2.833   2.389  10.842  0.6193  0.5267  0.2670
 1022Sol     OW 4835   0.912   3.227  11.141  0.3442  0.1540  0.4120
 1022Sol     HW 4836   0.964   3.150  11.120 -1.4177 -0.1485 -3.1234
 1022Sol     HW 4837   0.822   3.196  11.141 -0.2579  1.8479  0.6470
 1022Sol     MW 4838   0.909   3.218  11.139  0.1801 -0.0919 -0.4130
 1023Sol     OW 4839   2.333   0.575  11.519 -0.4517  0.3623  0.0599
 1023Sol     HW 4840   2.303   0.532  11.599  0.3013  0.1342  0.2268
 1023Sol     HW 4841   2.391   0.645  11.550 -0.9220  0.8884 -0.2476
 1023Sol     MW 4842   2.336   0.577  11.529 -0.1392 -0.5166 -0.1051
 1024Sol     OW 4843   0.268   2.999   7.330 -0.1540 -0.1706  0.0554
 1024Sol     HW 4844   0.278   3.042   7.245 -0.3687  0.9647  0.5958
 1024Sol     HW 4845   0.202   2.931   7.315 -0.5053  0.3016 -0.5775
 1024Sol     MW 4846   0.263   2.997   7.321  0.2262  1.2516  0.0872
 1025Sol     OW 4847   0.153   0.175   6.157  0.2263  0.0095  0.1600
 1025Sol     HW 4848   0.235   0.193   6.111  0.2334 -1.5178 -0.4573
 1025Sol     HW 4849   0.175   0.182   6.250  1.4033 -1.6771  0.0430
 1025Sol     MW 4850   0.162   0.177   6.161 -0.1892  0.6128 -0.3156
 1026Sol     OW 4851   3.029   3.299  10.061 -0.1730  0.5878  0.0178
 1026Sol     HW 4852   3.007   3.239   9.990  0.1471 -0.6705  0.9682
 1026Sol     HW 4853   2.945   3.335  10.089 -0.3750  0.5140 -0.4880
 1026Sol     MW 4854   3.020   3.297  10.057  0.1844  0.0570 -0.5986
 1027Sol     OW 4855   2.719   3.017  11.875  0.6071 -0.4161  0.1744
 1027Sol     HW 4856   2.731   3.033  11.781 -3.5043 -2.5589 -0.8161
 1027Sol     HW 4857   2.688   3.101  11.909  2.0850  0.3681 -0.3427
 1027Sol     MW 4858   2.717   3.026  11.869 -0.2659  0.3799 -0.4266
 1028Sol     OW 4859   0.292   2.807  13.780 -0.2698 -0.1258 -0.2151
 1028Sol     HW 4860   0.265   2.899  13.777 -0.0425 -0.0891 -1.7478
 1028Sol     HW 4861   0.225   2.761  13.730 -0.9892 -0.9637  1.4970
 1028Sol     MW 4862   0.284   2.811  13.775  0.1524  0.6235  0.2231
 1029Sol     OW 4863   1.688   3.284   9.643 -0.3036 -0.0101  0.0869
 1029Sol     HW 4864   1.778   3.253   9.653 -0.3040  0.3338  1.2347
 1029Sol     HW 4865   1.640   3.207   9.613 -0.1185 -0.8973  1.9776
 1029Sol     MW 4866   1.692   3.274   9.641  0.0849 -0.9606  0.2449
 1030Sol     OW 4867   2.690   1.105   8.055  0.2733 -0.0805  0.0293
 1030Sol     HW 4868   2.601   1.097   8.089  0.7051 -1.4671  0.8690
 1030Sol     HW 4869   2.681   1.091   7.961 -0.5857  1.2534 -0.0997
 1030Sol     MW 4870   2.681   1.103   8.050  0.7125 -0.1956  0.0874
 1031Sol     OW 4871   1.696   1.193   7.449 -0.3387 -0.4411 -0.1972
 1031Sol     HW 4872   1.714   1.234   7.533 -2.0558 -1.0842  0.5072
 1031Sol     HW 4873   1.777   1.146   7.427  0.0254 -0.4846  1.2195
 1031Sol     MW 4874   1.705   1.193   7.455 -0.0850 -0.8910  0.0775
 1032Sol     OW 4875   0.809   2.477   7.667 -0.6211  0.1090 -0.0349
 1032Sol     HW 4876   0.775   2.492   7.579  1.1123  0.5659 -0.6536
 1032Sol     HW 4877   0.812   2.382   7.676  2.1546  0.0021 -1.6889
 1032Sol     MW 4878   0.806   2.470   7.660  0.9197 -0.4542  0.5788
 1033Sol     OW 4879   0.684   3.126  11.079  0.7447 -0.0071  0.0580
 1033Sol     HW 4880   0.612   3.064  11.091  0.6387 -0.0108 -0.5869
 1033Sol     HW 4881   0.643   3.212  11.084  0.9988  0.0330  1.6570
 1033Sol     MW 4882   0.674   3.128  11.080  0.5569 -0.4734 -0.7207
 1034Sol     OW 4883   3.052   2.904  11.320  0.0462 -0.2685 -0.3659
 1034Sol     HW 4884   3.012   2.884  11.236  1.4219 -0.8984 -0.8944
 1034Sol     HW 4885   3.076   2.996  11.314  0.8161 -0.4934 -0.9782
 1034Sol     MW 4886   3.051   2.910  11.312 -1.0082 -0.1901 -0.4739
 1035Sol     OW 4887   2.453   1.806   9.220 -0.1088  0.1272  0.2337
 1035Sol     HW 4888   2.453   1.720   9.177  0.3026  0.7924 -1.1037
 1035Sol     HW 4889   2.545   1.832   9.220 -0.2554  0.6477  0.5122
 1035Sol     MW 4890   2.462   1.800   9.216  0.4008  0.5459  0.2893
 1036Sol     OW 4891   1.339   2.939  14.006  0.3240  0.0444  0.1663
 1036Sol     HW 4892   1.281   3.009  13.976  0.4253  0.2877  0.5366
 1036Sol     HW 4893   1.407   2.984  14.056  0.7208 -0.2606 -0.0980
 1036Sol     MW 4894   1.340   2.949  14.008 -0.1148 -0.1384  0.4942
 1037Sol     OW 4895   2.635   3.119  10.129  0.4278 -0.6626  0.0437
 1037Sol     HW 4896   2.636   3.026  10.106  0.0178 -0.6301 -0.1173
 1037Sol     HW 4897   2.628   3.121  10.224 -1.9718 -0.8098 -0.0896
 1037Sol     MW 4898   2.634   3.111  10.135 -0.2248 -0.3816 -0.2020
 1038Sol     OW 4899   3.212   0.435  10.513  0.7701 -0.0253 -0.3255
 1038Sol     HW 4900   3.251   0.456  10.428  0.1727  0.1698 -0.5580
 1038Sol     HW 4901   3.122   0.409  10.491  1.2544 -2.1003  0.0159
 1038Sol     MW 4902   3.207   0.434  10.503  0.2610  0.1058  0.1295
 1039Sol     OW 4903   1.289   1.371  11.972  0.1273 -0.1240 -0.0506
 1039Sol     HW 4904   1.198   1.373  12.001  0.7030 -0.9042  1.8971
 1039Sol     HW 4905   1.333   1.435  12.028  0.7533  0.3965 -1.1176
 1039Sol     MW 4906   1.285   1.377  11.979 -0.7819 -0.3833 -0.5719
 1040Sol     OW 4907   2.726   0.770  13.609  0.1319 -0.2949  0.6465
 1040Sol     HW 4908   2.648   0.715  13.599  0.0499  0.2513 -2.3651
 1040Sol     HW 4909   2.703   0.832  13.677 -2.5980  0.6704 -1.0845
 1040Sol     MW 4910   2.717   0.770  13.614  0.2782 -0.5049  0.8305
 1041Sol     OW 4911   2.590   0.711   6.865  0.1305  0.3184  0.0600
 1041Sol     HW 4912   2.496   0.703   6.850  0.2978 -2.2506  0.1735
 1041Sol     HW 4913   2.600   0.703   6.960  0.3245  2.3324  0.2221
 1041Sol     MW 4914   2.582   0.710   6.872  0.0041 -0.1712  0.2208
 1042Sol     OW 4915   2.096   0.772  10.600 -0.7050 -0.5529 -0.0174
 1042Sol     HW 4916   2.062   0.836  10.537 -0.2158 -0.4614 -0.1930
 1042Sol     HW 4917   2.021   0.750  10.655 -1.7069 -2.3069 -2.0331
 1042Sol     MW 4918   2.086   0.776  10.599 -0.7045 -0.3923  0.2253
 1043Sol     OW 4919   3.136   1.685  12.789  0.1900  0.4827 -0.0315
 1043Sol     HW 4920   3.126   1.627  12.864 -0.7928  1.2749  0.4632
 1043Sol     HW 4921   3.064   1.748  12.797  0.6789  1.1994 -1.0738
 1043Sol     MW 4922   3.128   1.685  12.796  0.6801 -0.1113 -0.8595
 1044Sol     OW 4923   2.333   2.569   6.546  0.1078 -0.0914  0.2303
 1044Sol     HW 4924   2.336   2.541   6.455 -0.3035  0.4309  0.0500
 1044Sol     HW 4925   2.399   2.516   6.591  0.5809 -0.0760 -0.4477
 1044Sol     MW 4926   2.339   2.562   6.542 -0.4430  0.3276 -0.3060
 1045Sol     OW 4927   2.288   0.409   9.789  0.3901 -0.4921  0.5575
 1045Sol     HW 4928   2.251   0.496   9.774 -0.0104 -0.7793 -0.1193
 1045Sol     HW 4929   2.218   0.348   9.768  0.8487 -1.0001  0.4813
 1045Sol     MW 4930   2.279   0.411   9.786  0.1446 -0.4341  0.0431
 1046Sol     OW 4931   0.200   3.019   9.048 -0.0185 -0.1439 -0.0583
 1046Sol     HW 4932   0.141   3.046   9.119 -0.6959  2.6468 -1.6410
 1046Sol     HW 4933   0.285   3.057   9.072 -0.6962  2.4934 -1.6765
 1046Sol     MW 4934   0.202   3.025   9.057  0.1910 -0.2994 -0.0773
 1047Sol     OW 4935   1.477   1.746   9.781  0.4333  0.4918 -0.4694
 1047Sol     HW 4936   1.513   1.660   9.802  1.5064  1.0431 -0.0411
 1047Sol     HW 4937   1.382   1.733   9.788  0.5820 -0.6173 -0.2694
 1047Sol     MW 4938   1.471   1.737   9.784 -0.2829 -0.2636  0.7805
 1048Sol     OW 4939   2.627   2.991   9.154 -0.2222 -0.4939 -0.3389
 1048Sol     HW 4940   2.693   2.933   9.190  0.0968 -0.1984 -0.4510
 1048Sol     HW 4941   2.620   3.062   9.217 -0.5448 -0.6012 -0.2506
 1048Sol     MW 4942   2.632   2.992   9.163 -0.2850  0.3675  0.0929
 1049Sol     OW 4943   0.510   2.334   7.254  0.3512  0.3903  0.0222
 1049Sol     HW 4944   0.420   2.304   7.240  1.0073 -0.7089 -2.2062
 1049Sol     HW 4945   0.502   2.410   7.311 -2.0438  0.5912 -0.5298
 1049Sol     MW 4946   0.502   2.338   7.258 -0.4155 -0.5043  0.1649
 1050Sol     OW 4947   2.525   0.985  10.741  0.2169 -0.3360 -0.1734
 1050Sol     HW 4948   2.447   1.027  10.778  0.4835 -0.3045  0.3515
 1050Sol     HW 4949   2.589   1.055  10.734  0.7612 -0.7102  0.9825
 1050Sol     MW 4950   2.523   0.995  10.743 -0.5093  0.4290  0.2881
 1051Sol     OW 4951   2.925   1.985   8.076  0.2588 -0.9772 -0.3508
 1051Sol     HW 4952   2.955   1.935   8.152  0.9308  1.0898  0.7946
 1051Sol     HW 4953   2.891   2.066   8.114  0.4622  0.0167 -2.2550
 1051Sol     MW 4954   2.925   1.988   8.086 -1.1222 -0.6863  0.7252
 1052Sol     OW 4955   3.293   2.842   6.092 -0.2469 -0.0402  0.1848
 1052Sol     HW 4956   3.379   2.803   6.081  0.4989  2.1118 -2.0927
 1052Sol     HW 4957   3.291   2.871   6.183  2.0325  1.2185 -0.1457
 1052Sol     MW 4958   3.300   2.841   6.099 -0.3836 -0.7058  0.7001
 1053Sol     OW 4959   3.005   1.264  10.317  0.0926  0.2337  0.4207
 1053Sol     HW 4960   3.036   1.271  10.408 -0.9074 -1.3441  0.9063
 1053Sol     HW 4961   3.085   1.267  10.265  1.0969 -3.0666  1.6103
 1053Sol     MW 4962   3.015   1.265  10.321 -0.6279 -0.0194  0.3398
 1054Sol     OW 4963   1.808   1.310  11.746  0.1126 -0.3886  0.1242
 1054Sol     HW 4964   1.819   1.402  11.772  1.1659 -0.6206  0.5022
 1054Sol     HW 4965   1.744   1.275  11.808  2.0487 -0.7370  1.9592
 1054Sol     MW 4966   1.803   1.315  11.754 -0.8052  0.3332  0.2575
 1055Sol     OW 4967   1.936   0.120  13.381  0.0939  0.1890  0.0630
 1055Sol     HW 4968   1.892   0.183  13.324 -1.4137 -0.5037  0.4420
 1055Sol     HW 4969   1.919   0.035  13.341  0.9913 -0.1048  0.2892
 1055Sol     MW 4970   1.931   0.118  13.372 -0.7075 -0.6137 -0.2719
 1056Sol     OW 4971   1.089   3.132   6.482  0.1190 -0.1267  0.1022
 1056Sol     HW 4972   1.044   3.053   6.511  1.3198 -0.3782  1.3246
 1056Sol     HW 4973   1.045   3.156   6.400 -0.2314 -2.0859 -0.3030
 1056Sol     MW 4974   1.081   3.127   6.477 -0.5241 -0.5661  0.3969
 1057Sol     OW 4975   1.537   1.626  13.524 -0.1853  0.0276 -0.3910
 1057Sol     HW 4976   1.513   1.650  13.614 -0.4780 -0.3936 -0.3569
 1057Sol     HW 4977   1.510   1.701  13.471 -1.9390 -0.5933 -0.4112
 1057Sol     MW 4978   1.533   1.635  13.527  0.1134 -0.3626  0.2809
 1058Sol     OW 4979   0.794   1.898  12.269  0.5585 -0.4241  0.1035
 1058Sol     HW 4980   0.730   1.841  12.228 -0.4399  0.9992 -0.3545
 1058Sol     HW 4981   0.866   1.903  12.206  1.1332 -2.0343  0.6282
 1058Sol     MW 4982   0.795   1.894  12.260  1.1972 -0.1656 -0.4978
 1059Sol     OW 4983   1.266   2.229  11.912 -0.8675 -0.2785 -0.4675
 1059Sol     HW 4984   1.301   2.310  11.874 -0.3767 -0.2841 -0.0292
 1059Sol     HW 4985   1.337   2.166  11.905 -0.7824 -0.2835  0.4492
 1059Sol     MW 4986   1.275   2.231  11.908  0.6274  0.0254 -0.3479
 1060Sol     OW 4987   2.342   2.637  10.333 -0.4635 -0.1642 -0.2722
 1060Sol     HW 4988   2.297   2.688  10.401  0.0222  0.6445 -0.5481
 1060Sol     HW 4989   2.341   2.694  10.256 -0.2585 -0.7359 -0.7028
 1060Sol     MW 4990   2.338   2.647  10.332  0.2899  0.6972 -0.0670
 1061Sol     OW 4991   0.114   0.282   7.217 -0.2034  0.3122 -0.3173
 1061Sol     HW 4992   0.187   0.268   7.156  1.0836  3.3598  0.4372
 1061Sol     HW 4993   0.153   0.271   7.304 -1.2780 -0.6963  0.0492
 1061Sol     MW 4994   0.124   0.280   7.219  1.2438 -0.0232  0.1851
 1062Sol     OW 4995   0.836   1.726   7.164 -0.3813 -0.1444 -0.6974
 1062Sol     HW 4996   0.917   1.755   7.122  0.4910  1.1417  1.8307
 1062Sol     HW 4997   0.773   1.795   7.145  0.1435  0.6698  0.4825
 1062Sol     MW 4998   0.837   1.735   7.158 -0.4851  0.5983 -0.0993
 1063Sol     OW 4999   1.016   3.449   6.461 -0.2672  0.3519 -0.7215
 1063Sol     HW 5000   1.111   3.441   6.452 -0.1656  0.5585  0.0806
 1063Sol     HW 5001   0.995   3.534   6.424  0.1125  1.1098  0.7562
 1063Sol     MW 5002   1.023   3.456   6.457  0.1890  0.7558  0.2253
 1064Sol     OW 5003   2.540   3.319   8.519  0.2198  0.7335  0.3276
 1064Sol     HW 5004   2.454   3.279   8.534 -0.5410  0.6936 -3.5017
 1064Sol     HW 5005   2.597   3.244   8.502 -0.3338  0.9352 -2.8462
 1064Sol     MW 5006   2.537   3.308   8.518 -0.0143  0.5104  0.0160
 1065Sol     OW 5007   3.331   0.212   7.538 -0.5074  0.2375 -0.4427
 1065Sol     HW 5008   3.324   0.293   7.588 -1.4164 -0.4374  0.5504
 1065Sol     HW 5009   3.424   0.207   7.513 -0.7411  2.3311 -1.8323
 1065Sol     MW 5010   3.339   0.219   7.540 -0.3289  0.0756  0.0050
 1066Sol     OW 5011   1.621   2.416   7.828  0.2215  0.0001  0.5330
 1066Sol     HW 5012   1.581   2.332   7.850  0.6388 -0.0516  1.1096
 1066Sol     HW 5013   1.703   2.418   7.878 -0.1810  1.1032  1.1794
 1066Sol     MW 5014   1.625   2.409   7.834  0.3005  0.7111 -0.2999
 1067Sol     OW 5015   2.706   3.346   9.641 -0.8965  0.9907  0.3732
 1067Sol     HW 5016   2.736   3.435   9.622 -0.1640  0.7664  0.4429
 1067Sol     HW 5017   2.624   3.358   9.689 -0.9786  1.6202  0.0790
 1067Sol     MW 5018   2.701   3.355   9.644  0.0819  0.2160  0.9236
 1068Sol     OW 5019   2.207   0.198  13.452  1.0391 -0.2763 -0.5912
 1068Sol     HW 5020   2.116   0.179  13.426  0.9536 -1.2643  0.3868
 1068Sol     HW 5021   2.253   0.115  13.439  2.3790  0.8318 -3.3936
 1068Sol     MW 5022   2.203   0.188  13.448  0.1234 -0.2519 -0.1338
 1069Sol     OW 5023   2.890   2.105  13.705 -0.4250 -0.4155 -0.2953
 1069Sol     HW 5024   2.846   2.154  13.775  0.2348  0.5193 -0.5173
 1069Sol     HW 5025   2.984   2.116  13.723 -0.2441  0.1430 -1.5274
 1069Sol     MW 5026   2.895   2.110  13.713 -0.3598 -0.1668  0.3472
 1070Sol     OW 5027   1.466   2.987   9.992  0.2933  0.3942 -0.1771
 1070Sol     HW 5028   1.446   3.053   9.925  1.4071  1.8567  0.8775
 1070Sol     HW 5029   1.557   2.963   9.975  0.1504 -0.2439 -0.0350
 1070Sol     MW 5030   1.473   2.991   9.985 -0.0435  0.3545 -0.1856
 1071Sol     OW 5031   0.388   1.615  11.099  0.1578  0.1942 -0.4000
 1071Sol     HW 5032   0.427   1.573  11.176 -1.5692 -1.6175 -0.4588
 1071Sol     HW 5033   0.446   1.593  11.027  0.2138 -0.6136 -0.1141
 1071Sol     MW 5034   0.397   1.609  11.100  0.4198  0.0387 -0.1487
 1072Sol     OW 5035   0.212   2.806   8.121  0.1201  0.2813  0.6649
 1072Sol     HW 5036   0.306   2.813   8.141  0.3162 -0.6903  0.1083
 1072Sol     HW 5037   0.169   2.815   8.206  0.8340 -1.2944  1.2212
 1072Sol     MW 5038   0.217   2.807   8.131  0.1751  0.4234  0.4808
 1073Sol     OW 5039   1.846   3.286   6.857 -0.1993  0.6559  0.3182
 1073Sol     HW 5040   1.915   3.244   6.909 -1.4614 -0.2255  1.3036
 1073Sol     HW 5041   1.783   3.317   6.921 -1.0557  0.8679 -0.6156
 1073Sol     MW 5042   1.847   3.285   6.867 -0.1697 -0.2077 -0.0346
 1074Sol     OW 5043   0.325   1.761  12.964 -0.9179 -0.1809 -0.3832
 1074Sol     HW 5044   0.315   1.839  12.910  0.5735 -0.3131 -0.8750
 1074Sol     HW 5045   0.375   1.790  13.040 -0.6175 -0.5858 -0.4246
 1074Sol     MW 5046   0.328   1.770  12.966 -0.0088  0.2962  0.3613
 1075Sol     OW 5047   0.967   2.232   8.892  0.1786  0.8414  0.4530
 1075Sol     HW 5048   1.004   2.288   8.825 -0.5553  0.0835 -0.5950
 1075Sol     HW 5049   0.927   2.292   8.955 -0.5215  1.4937 -0.6142
 1075Sol     MW 5050   0.967   2.242   8.892  0.2770 -0.5890 -0.6532
 1076Sol     OW 5051   2.804   2.535  12.275 -0.0199 -0.1889 -0.2745
 1076Sol     HW 5052   2.892   2.536  12.313  0.3914 -0.2029 -1.2041
 1076Sol     HW 5053   2.754   2.478  12.332  0.5558 -0.1034  0.3189
 1076Sol     MW 5054   2.808   2.530  12.283  0.3902  0.5593  0.0584
 1077Sol     OW 5055   0.980   2.503  11.084 -0.0310  0.1058  0.0418
 1077Sol     HW 5056   1.016   2.591  11.091  0.6905 -0.0854 -1.1236
 1077Sol     HW 5057   0.925   2.507  11.005 -0.2414 -0.3985  0.1649
 1077Sol     MW 5058   0.978   2.511  11.077  0.0370 -0.3880 -0.0084
 1078Sol     OW 5059   1.784   2.603  11.351  0.1326  0.6797  0.1658
 1078Sol     HW 5060   1.725   2.528  11.340  0.6681  0.3975 -0.9198
 1078Sol     HW 5061   1.726   2.677  11.369 -0.8743  1.0638 -4.1211
 1078Sol     MW 5062   1.773   2.603  11.351  0.1524 -0.4741  0.8272
 1079Sol     OW 5063   1.386   0.865   7.783  0.4894  0.6858  0.2212
 1079Sol     HW 5064   1.335   0.791   7.753  1.1293 -0.2395  1.3598
 1079Sol     HW 5065   1.372   0.933   7.717  0.2081 -0.5724 -1.0407
 1079Sol     MW 5066   1.381   0.865   7.774 -0.2653 -0.5943  0.0996
 1080Sol     OW 5067   0.479   3.295   9.649 -0.1987 -0.8430  0.2693
 1080Sol     HW 5068   0.551   3.308   9.711  0.4341 -0.0448 -0.6210
 1080Sol     HW 5069   0.481   3.373   9.593 -1.8234 -0.7620  0.3052
 1080Sol     MW 5070   0.486   3.303   9.649 -0.5648 -0.2506  0.2214
 1081Sol     OW 5071   0.341   1.077  11.835  0.4344 -0.0866 -0.1702
 1081Sol     HW 5072   0.398   1.001  11.848 -0.0854 -0.2685  1.1917
 1081Sol     HW 5073   0.397   1.153  11.855  0.5767 -0.1925 -0.1659
 1081Sol     MW 5074   0.351   1.077  11.838 -0.3107 -0.3655 -0.3310
 1082Sol     OW 5075   1.861   1.244  12.631 -0.5600  0.2349 -0.5637
 1082Sol     HW 5076   1.944   1.283  12.607 -0.4686  1.0884  1.0733
 1082Sol     HW 5077   1.884   1.158  12.667 -0.1222  1.3872  2.0616
 1082Sol     MW 5078   1.870   1.240  12.632  0.2066  0.4101 -0.5169
 1083Sol     OW 5079   2.453   0.523  12.407  0.0383 -0.0917  0.2036
 1083Sol     HW 5080   2.360   0.498  12.408  0.3779 -1.3727  1.7584
 1083Sol     HW 5081   2.459   0.590  12.340 -1.5484 -1.8729 -1.7952
 1083Sol     MW 5082   2.445   0.527  12.401  0.3898  0.2916 -0.4159
 1084Sol     OW 5083   2.488   1.048   8.820  0.0804  0.0458  0.4288
 1084Sol     HW 5084   2.498   1.139   8.847  0.2599 -0.0161  0.5813
 1084Sol     HW 5085   2.558   1.002   8.867  0.1138 -0.1373  0.1986
 1084Sol     MW 5086   2.495   1.052   8.827  0.4276 -0.1604 -0.1007
 1085Sol     OW 5087   2.859   0.876   8.763 -0.6215 -0.1044 -0.5128
 1085Sol     HW 5088   2.787   0.883   8.699  0.1461  0.1502 -1.3519
 1085Sol     HW 5089   2.919   0.946   8.740  1.2863 -2.0207 -1.5862
 1085Sol     MW 5090   2.858   0.883   8.755  0.2978  0.2436 -0.4099
 1086Sol     OW 5091   1.655   3.379  13.369  0.2241  0.5632 -0.0215
 1086Sol     HW 5092   1.592   3.341  13.307 -1.0866  0.2565  1.4878
 1086Sol     HW 5093   1.739   3.340  13.343 -0.5032 -0.5298 -0.8280
 1086Sol     MW 5094   1.657   3.372  13.361 -0.0155 -0.6236  0.2767
 1087Sol     OW 5095   1.275   2.136  10.943  0.0913  0.2669  0.4810
 1087Sol     HW 5096   1.253   2.091  11.024  0.7525  1.6787  1.4815
 1087Sol     HW 5097   1.296   2.226  10.971  1.7379  0.3931 -1.0509
 1087Sol     MW 5098   1.275   2.140  10.953  0.1968 -0.5449 -0.1968
 1088Sol     OW 5099   0.642   0.323  13.304  0.4678  0.5497  0.2943
 1088Sol     HW 5100   0.669   0.296  13.216 -0.0663 -0.4069  0.4069
 1088Sol     HW 5101   0.546   0.325  13.300  0.4485  0.7238  0.7860
 1088Sol     MW 5102   0.636   0.321  13.296  0.6362  0.2033 -0.2316
 1089Sol     OW 5103   2.261   1.506   6.691 -0.0022 -0.1153  0.0382
 1089Sol     HW 5104   2.225   1.418   6.704  1.7090 -0.7941  0.2457
 1089Sol     HW 5105   2.329   1.495   6.625  0.1716  1.0775  0.0077
 1089Sol     MW 5106   2.264   1.497   6.686  0.0422 -0.1519 -0.3187
 1090Sol     OW 5107   0.358   3.199  13.072 -0.0827  0.3895  0.1973
 1090Sol     HW 5108   0.317   3.144  13.140  0.5537 -0.1949  0.1184
 1090Sol     HW 5109   0.285   3.246  13.032 -0.2868  2.3383  2.6825
 1090Sol     MW 5110   0.348   3.198  13.075 -0.3364 -0.2957 -0.1910
 1091Sol     OW 5111   2.084   0.185   9.332  0.1791 -0.0035  0.0922
 1091Sol     HW 5112   2.088   0.263   9.388 -0.5019  0.1246 -0.0398
 1091Sol     HW 5113   2.067   0.219   9.245  0.3613 -0.2687 -0.0455
 1091Sol     MW 5114   2.083   0.195   9.330 -0.4222 -0.5280  0.1161
 1092Sol     OW 5115   0.219   0.913   7.706  0.3148  0.4181  0.2262
 1092Sol     HW 5116   0.173   0.871   7.779  0.5489  2.1275  1.3931
 1092Sol     HW 5117   0.169   0.889   7.628 -1.5105  0.7812  1.2567
 1092Sol     MW 5118   0.211   0.907   7.706 -0.0182 -0.2920 -0.1609
 1093Sol     OW 5119   1.012   1.058  10.353  0.4729 -0.8631 -0.0529
 1093Sol     HW 5120   0.975   1.088  10.270  1.1116 -1.0928 -0.4246
 1093Sol     HW 5121   0.944   1.001  10.390 -0.5739  0.6996  0.4693
 1093Sol     MW 5122   1.002   1.055  10.349  0.2717 -0.6022  0.7226
 1094Sol     OW 5123   1.563   3.236  12.141  0.6548 -0.3960 -0.1106
 1094Sol     HW 5124   1.532   3.325  12.122  0.1727 -0.6722 -0.6249
 1094Sol     HW 5125   1.524   3.215  12.226 -1.6315 -1.2037 -1.2875
 1094Sol     MW 5126   1.556   3.242  12.147  0.1871 -0.6465 -0.3239
 1095Sol     OW 5127   3.195   3.356   9.652 -0.2688 -0.6135  0.1980
 1095Sol     HW 5128   3.185   3.406   9.733 -2.1673  0.4052 -0.6305
 1095Sol     HW 5129   3.106   3.346   9.618  0.4489 -1.4177 -1.5287
 1095Sol     MW 5130   3.186   3.360   9.656 -0.3810  0.2291 -0.1434
 1096Sol     OW 5131   2.830   0.824  13.321  0.5962  0.0251 -0.4937
 1096Sol     HW 5132   2.753   0.797  13.371 -0.2048  1.9574 -0.6617
 1096Sol     HW 5133   2.903   0.781  13.365 -0.1982  0.9917  1.8091
 1096Sol     MW 5134   2.830   0.818  13.329  0.3359  0.1926 -0.2331
 1097Sol     OW 5135   2.757   1.394   9.182  0.3831 -0.4401  0.0853
 1097Sol     HW 5136   2.724   1.468   9.233 -1.8888 -0.9462 -0.6146
 1097Sol     HW 5137   2.765   1.427   9.093  0.5211 -0.7107 -0.0056
 1097Sol     MW 5138   2.755   1.403   9.179  0.2817 -0.3652  0.8913
 1098Sol     OW 5139   3.177   2.534  13.438 -0.3905 -0.5102  0.3210
 1098Sol     HW 5140   3.178   2.567  13.348 -0.4708  1.8119  1.1281
 1098Sol     HW 5141   3.252   2.476  13.444 -1.2282 -1.8399 -1.6527
 1098Sol     MW 5142   3.184   2.532  13.430 -0.6467  0.0504 -0.1312
 1099Sol     OW 5143   2.920   0.523   7.002 -0.4555  0.5642 -0.0558
 1099Sol     HW 5144   2.861   0.574   7.057 -1.3253 -0.6016  0.0942
 1099Sol     HW 5145   2.931   0.440   7.048  0.8443  0.5502 -0.3722
 1099Sol     MW 5146   2.916   0.520   7.011  0.0804 -0.0417  0.2575
 1100Sol     OW 5147   2.501   3.375   7.044  0.4134  0.4074  0.3158
 1100Sol     HW 5148   2.433   3.395   7.108 -0.1367 -0.9419  0.1530
 1100Sol     HW 5149   2.458   3.387   6.959  0.3383 -0.5944  0.2130
 1100Sol     MW 5150   2.491   3.378   7.042 -0.5568 -0.2184  0.3171
 1101Sol     OW 5151   2.319   1.943   9.023 -0.1902  0.3262 -0.2955
 1101Sol     HW 5152   2.348   2.034   9.015  0.5947  0.0876 -0.1957
 1101Sol     HW 5153   2.382   1.903   9.082 -0.6793 -0.2259 -0.1457
 1101Sol     MW 5154   2.327   1.948   9.027 -0.4924 -0.2403 -0.2865
 1102Sol     OW 5155   2.456   2.892   9.368 -0.3436 -0.0918 -0.0032
 1102Sol     HW 5156   2.522   2.835   9.407  0.1474 -1.0521 -2.1806
 1102Sol     HW 5157   2.489   2.911   9.281 -1.6014  1.7174 -0.1154
 1102Sol     MW 5158   2.464   2.889   9.364 -0.6479  0.7742  0.3151
 1103Sol     OW 5159   2.963   1.511   6.904 -0.1417  0.1978  0.2293
 1103Sol     HW 5160   3.007   1.463   6.833 -2.1880 -0.6178 -0.5084
 1103Sol     HW 5161   2.890   1.454   6.930 -0.4017  1.2484  1.8742
 1103Sol     MW 5162   2.961   1.501   6.900 -0.4390 -0.4616 -0.1382
 1104Sol     OW 5163   1.904   0.998  11.846  0.1170 -0.1926  0.2042
 1104Sol     HW 5164   1.923   0.994  11.940  1.3654  1.0968  0.0301
 1104Sol     HW 5165   1.809   0.993  11.840  0.0365 -0.3328  1.5386
 1104Sol     MW 5166   1.897   0.997  11.854 -0.6149 -0.3768 -0.2425
 1105Sol     OW 5167   2.097   3.291  13.124  0.0209  0.4259 -0.2421
 1105Sol     HW 5168   2.173   3.233  13.116 -0.6152 -0.5833  0.8140
 1105Sol     HW 5169   2.064   3.274  13.212 -1.3884  0.9008 -0.6701
 1105Sol     MW 5170   2.101   3.284  13.131  0.0086  0.2725  0.1271
 1106Sol     OW 5171   0.675   1.544  12.407  0.0322 -0.6106 -0.2549
 1106Sol     HW 5172   0.725   1.504  12.335  1.9127 -1.8937  1.6840
 1106Sol     HW 5173   0.712   1.505  12.486 -2.3025  0.4278  1.4088
 1106Sol     MW 5174   0.683   1.537  12.407  0.8695 -0.1353 -0.3894
 1107Sol     OW 5175   3.188   2.551   6.178 -0.4985  0.5672 -0.0450
 1107Sol     HW 5176   3.200   2.635   6.133  0.4853  1.1114  1.2080
 1107Sol     HW 5177   3.271   2.537   6.224 -0.8799 -0.8038  0.2387
 1107Sol     MW 5178   3.197   2.557   6.178  0.3341 -0.6763 -0.5268
 1108Sol     OW 5179   2.451   2.829   9.025 -0.6695  1.1059  0.1532
 1108Sol     HW 5180   2.490   2.742   9.037 -1.2278  0.9906  1.1242
 1108Sol     HW 5181   2.521   2.890   9.050 -1.0840  0.8964  1.9242
 1108Sol     MW 5182   2.461   2.827   9.028 -0.3020  0.6848  0.3327
 1109Sol     OW 5183   1.382   2.635   6.908 -0.0161 -0.7421 -0.0162
 1109Sol     HW 5184   1.337   2.585   6.976 -0.1648  0.2478  0.6140
 1109Sol     HW 5185   1.457   2.674   6.952  1.4877 -2.3861 -1.0612
 1109Sol     MW 5186   1.384   2.634   6.918  0.4124  0.2423 -0.1403
 1110Sol     OW 5187   1.748   0.487  12.943  0.7818  0.1269  0.7191
 1110Sol     HW 5188   1.694   0.516  12.870  1.5998 -0.4354 -0.1225
 1110Sol     HW 5189   1.698   0.511  13.021 -1.3488 -1.6152 -0.0543
 1110Sol     MW 5190   1.738   0.491  12.944 -0.4076  0.2839  0.2235
 1111Sol     OW 5191   1.842   2.020   7.844  0.2077  0.2384 -0.5692
 1111Sol     HW 5192   1.820   2.060   7.928 -2.1842 -1.5774 -0.2594
 1111Sol     HW 5193   1.937   2.015   7.844  0.4411  3.3515  0.5325
 1111Sol     MW 5194   1.848   2.023   7.852  0.0346  0.0033  0.6470
 1112Sol     OW 5195   1.552   0.008  11.411  0.1616 -0.0561 -0.0065
 1112Sol     HW 5196   1.534  -0.086  11.416 -0.4280 -0.0357 -1.7194
 1112Sol     HW 5197   1.582   0.031  11.499  0.9346 -1.9781  0.2512
 1112Sol     MW 5198   1.553   0.002  11.420 -1.1374  0.7381  0.5892
 1113Sol     OW 5199   2.027   2.415   9.831  0.1292  0.3783 -0.7139
 1113Sol     HW 5200   1.960   2.484   9.827 -1.7586 -1.3540  0.1840
 1113Sol     HW 5201   2.041   2.390   9.740 -0.0608  1.1255 -0.9534
 1113Sol     MW 5202   2.022   2.419   9.823 -0.0519  0.1457 -0.5359
 1114Sol     OW 5203   2.005   2.151  12.631  0.0813 -0.8956 -0.0882
 1114Sol     HW 5204   2.079   2.091  12.644 -0.1239 -0.9655  0.7677
 1114Sol     HW 5205   2.005   2.169  12.537  1.9049  0.0212  0.0720
 1114Sol     MW 5206   2.012   2.147  12.624  0.2358 -0.6175  0.1055
 1115Sol     OW 5207   1.723   2.489   7.101 -0.2364 -0.2571 -0.1771
 1115Sol     HW 5208   1.738   2.477   7.194  1.8533 -0.0663 -0.4487
 1115Sol     HW 5209   1.708   2.401   7.067  2.4676 -0.7698 -0.1806
 1115Sol     MW 5210   1.723   2.480   7.106 -0.0109 -0.2647 -0.2087
 1116Sol     OW 5211   2.094   2.176  11.774 -0.6472 -0.2419 -0.1815
 1116Sol     HW 5212   2.120   2.139  11.689  1.7047 -1.4835  1.0365
 1116Sol     HW 5213   2.169   2.229  11.801 -1.5505  0.4843  0.9378
 1116Sol     MW 5214   2.103   2.178  11.769 -0.1821 -0.0206  0.3075
 1117Sol     OW 5215   2.325   1.077   7.112 -0.1832  0.1744 -0.3575
 1117Sol     HW 5216   2.324   0.982   7.117 -1.2519  0.1838 -0.3430
 1117Sol     HW 5217   2.247   1.100   7.062  0.4224  1.0158 -0.9473
 1117Sol     MW 5218   2.318   1.071   7.108 -0.4027 -0.1642 -0.3501
 1118Sol     OW 5219   2.534   0.728   7.733  0.2197  0.4276  0.0311
 1118Sol     HW 5220   2.614   0.690   7.770 -0.9950 -1.8000  0.4648
 1118Sol     HW 5221   2.473   0.733   7.806 -0.9996 -0.6326 -0.8871
 1118Sol     MW 5222   2.536   0.725   7.743  0.0533  0.0975  0.1534
 1119Sol     OW 5223   0.732   1.814   6.823 -0.1989  0.0888 -0.1100
 1119Sol     HW 5224   0.725   1.724   6.857  1.5512  0.6340  1.8055
 1119Sol     HW 5225   0.721   1.869   6.900  1.0339  1.4654 -0.9079
 1119Sol     MW 5226   0.730   1.811   6.833 -0.0178 -0.0903  0.5782
 1120Sol     OW 5227   3.040   0.586  14.161  0.1235  0.2513  0.3097
 1120Sol     HW 5228   2.950   0.619  14.174  0.5528  1.1936  0.9750
 1120Sol     HW 5229   3.042   0.503  14.208 -0.4851  0.0723  0.0371
 1120Sol     MW 5230   3.032   0.582  14.166 -0.3900 -0.4629 -0.2902
 1121Sol     OW 5231   0.621   1.203   9.095 -0.3693  0.0877 -0.2182
 1121Sol     HW 5232   0.530   1.232   9.102  0.0814  1.3875  0.3849
 1121Sol     HW 5233   0.615   1.110   9.071 -1.8408  0.3380 -0.8334
 1121Sol     MW 5234   0.612   1.197   9.094  0.4399 -0.1510 -0.5812
 1122Sol     OW 5235   2.203   3.280  12.260  0.2929  0.2243 -0.4422
 1122Sol     HW 5236   2.222   3.200  12.211 -0.8723  0.8592 -1.9543
 1122Sol     HW 5237   2.133   3.254  12.320  0.5708 -0.1254 -0.2645
 1122Sol     MW 5238   2.198   3.270  12.261 -0.2513  0.1695 -0.2225
 1123Sol     OW 5239   2.213   2.962  14.224  0.1050 -0.3147 -0.1601
 1123Sol     HW 5240   2.219   2.870  14.252  2.1470  0.0025  0.4720
 1123Sol     HW 5241   2.243   2.962  14.134  1.2786 -0.0907  0.2237
 1123Sol     MW 5242   2.216   2.953  14.219 -0.1215  0.1822  0.1325
 1124Sol     OW 5243   2.211   1.343  10.050  0.6526 -0.0978  0.0580
 1124Sol     HW 5244   2.290   1.392  10.028  0.7589  0.2074  1.0748
 1124Sol     HW 5245   2.209   1.343  10.146 -2.0865  2.3662  0.0874
 1124Sol     MW 5246   2.218   1.347  10.057  0.2628  0.1335 -0.1495
 1125Sol     OW 5247   1.237   0.924  10.449  0.2971 -0.0135 -0.5635
 1125Sol     HW 5248   1.160   0.966  10.410 -0.4046 -0.6903  0.0539
 1125Sol     HW 5249   1.270   0.866  10.381 -1.3487 -1.7278  0.0727
 1125Sol     MW 5250   1.233   0.923  10.440  1.0348  0.5268  0.1628
 1126Sol     OW 5251   0.260   0.537  11.415 -0.1781 -1.1948 -0.5327
 1126Sol     HW 5252   0.302   0.510  11.497 -1.4774  3.1113  1.6907
 1126Sol     HW 5253   0.184   0.479  11.408 -1.5951  0.0949  2.8274
 1126Sol     MW 5254   0.257   0.529  11.422  0.2218  1.0988  0.5067
 1127Sol     OW 5255   3.291   1.568  13.434 -0.1587  0.1054  0.5048
 1127Sol     HW 5256   3.337   1.569  13.350  1.3892 -1.2202  1.3215
 1127Sol     HW 5257   3.239   1.487  13.431 -1.2373  0.7883  0.2515
 1127Sol     MW 5258   3.290   1.560  13.426  0.3406  0.6399 -0.3108
 1128Sol     OW 5259   3.276   0.569  12.336 -0.2017  0.0044  0.2970
 1128Sol     HW 5260   3.220   0.647  12.328  0.2970  0.4511  1.0588
 1128Sol     HW 5261   3.313   0.557  12.248 -1.0967  0.0057 -0.0801
 1128Sol     MW 5262   3.275   0.575  12.327 -0.0451 -0.4477  0.3725
 1129Sol     OW 5263   2.105   2.272  10.652 -0.5462  0.1259  0.2599
 1129Sol     HW 5264   2.050   2.308  10.721 -0.4199  0.2289  0.3073
 1129Sol     HW 5265   2.180   2.235  10.699 -0.0444  0.9454  0.1181
 1129Sol     MW 5266   2.107   2.271  10.662  0.6509  0.1241 -0.1172
 1130Sol     OW 5267   2.150   1.238  13.657  0.2381 -0.6229 -0.2321
 1130Sol     HW 5268   2.160   1.288  13.576 -0.0197 -2.0090 -1.1468
 1130Sol     HW 5269   2.064   1.198  13.650  0.1904 -0.6989  0.7582
 1130Sol     MW 5270   2.143   1.239  13.649 -0.5751 -0.4713  0.5395
 1131Sol     OW 5271   2.666   0.761  11.873  0.0313  0.5243 -0.1490
 1131Sol     HW 5272   2.746   0.721  11.840  0.5363  0.7561  0.7627
 1131Sol     HW 5273   2.695   0.845  11.909 -0.1363 -0.5993  2.7374
 1131Sol     MW 5274   2.676   0.765  11.873  0.1212  0.4885  0.0372
 1132Sol     OW 5275   0.704   2.985   6.361  0.0585  0.1353 -0.1001
 1132Sol     HW 5276   0.646   2.916   6.392  2.2969 -1.3975  0.8466
 1132Sol     HW 5277   0.646   3.049   6.319 -2.7684  0.7742  4.4191
 1132Sol     MW 5278   0.694   2.985   6.360 -0.2781 -0.1210 -0.6872
 1133Sol     OW 5279   0.057   2.240   7.750  0.4160 -0.2969  0.6501
 1133Sol     HW 5280   0.029   2.148   7.741  0.8673 -0.1696 -2.7238
 1133Sol     HW 5281   0.148   2.240   7.719  0.7739  1.1270  1.6679
 1133Sol     MW 5282   0.063   2.231   7.746 -0.2648  0.1036 -0.4068
 1134Sol     OW 5283   2.236   2.455   8.917  0.1460 -0.5024 -0.2769
 1134Sol     HW 5284   2.198   2.377   8.878  2.0124 -0.7321 -1.7131
 1134Sol     HW 5285   2.291   2.422   8.989 -0.2976 -0.3819  0.1187
 1134Sol     MW 5286   2.238   2.445   8.920  0.1023 -0.0776 -0.4361
 1135Sol     OW 5287   2.822   0.839   8.061  0.3513 -0.0488  0.2201
 1135Sol     HW 5288   2.784   0.926   8.072  0.8131  0.1537  0.2375
 1135Sol     HW 5289   2.805   0.816   7.970 -1.3462 -0.6982  0.6874
 1135Sol     MW 5290   2.817   0.845   8.054 -0.0001  0.0582 -0.2227
 1136Sol     OW 5291   2.948   2.483   8.705  0.0520  0.0304  0.0585
 1136Sol     HW 5292   2.897   2.477   8.785  0.3103  1.8109  0.3776
 1136Sol     HW 5293   3.039   2.477   8.734  0.0809 -2.4249 -0.4349
 1136Sol     MW 5294   2.952   2.482   8.715  0.2471 -0.2898 -0.0913
 1137Sol     OW 5295   0.582   3.009   9.324  0.0376  0.3839 -0.2372
 1137Sol     HW 5296   0.613   2.939   9.267 -1.5579  0.0544 -0.7293
 1137Sol     HW 5297   0.537   2.963   9.395  1.0226  0.8347  0.6951
 1137Sol     MW 5298   0.581   2.998   9.326  0.5493  0.0139  0.1147
 1138Sol     OW 5299   0.231   1.592   8.433 -0.4501 -0.6904  0.2860
 1138Sol     HW 5300   0.238   1.498   8.448 -2.2372 -0.7843  0.6504
 1138Sol     HW 5301   0.209   1.599   8.340  2.9579 -0.4569 -0.5569
 1138Sol     MW 5302   0.230   1.584   8.426  0.3374  0.7948  0.1741
 1139Sol     OW 5303   0.294   1.816   7.535 -0.2816  0.6936  0.0940
 1139Sol     HW 5304   0.343   1.827   7.616 -1.0568 -0.2923  0.7127
 1139Sol     HW 5305   0.298   1.722   7.517  0.5109  1.0020 -1.4064
 1139Sol     MW 5306   0.298   1.808   7.540  0.2740 -0.7226 -0.4139
 1140Sol     OW 5307   2.670   1.004  12.338 -0.1977  0.7578  0.3534
 1140Sol     HW 5308   2.745   0.985  12.282  2.3523 -0.5538  4.0409
 1140Sol     HW 5309   2.628   0.919  12.353 -0.5921  1.0356  0.8423
 1140Sol     MW 5310   2.673   0.995  12.334  0.2112  0.1291  0.2689
 1141Sol     OW 5311   3.063   0.371   8.383 -0.7274  0.2767  0.1273
 1141Sol     HW 5312   3.122   0.306   8.345 -0.3086  0.5904  0.2342
 1141Sol     HW 5313   3.122   0.433   8.427 -1.1059  0.8906 -0.2343
 1141Sol     MW 5314   3.074   0.371   8.383  0.1791 -0.0011  0.3276
 1142Sol     OW 5315   0.221   1.751   6.026 -0.0182 -0.3352 -0.8457
 1142Sol     HW 5316   0.171   1.817   5.979  0.2514 -0.3214 -1.1167
 1142Sol     HW 5317   0.155   1.699   6.072 -0.2564 -0.1153 -0.9381
 1142Sol     MW 5318   0.210   1.752   6.026 -0.1951  0.1471 -0.3125
 1143Sol     OW 5319   2.540   2.462   6.685 -0.2725 -0.0230 -0.1960
 1143Sol     HW 5320   2.564   2.372   6.667 -1.2931 -0.2998 -0.2331
 1143Sol     HW 5321   2.623   2.509   6.691  0.3598 -1.3806  2.1303
 1143Sol     MW 5322   2.549   2.458   6.684 -0.4384  0.5075 -0.0498
 1144Sol     OW 5323   3.303   3.107   9.220 -0.2481 -0.3660 -0.2205
 1144Sol     HW 5324   3.319   3.201   9.214  0.7476 -0.5252 -0.1504
 1144Sol     HW 5325   3.290   3.090   9.313  1.0893 -0.5310 -0.0566
 1144Sol     MW 5326   3.303   3.114   9.228  0.1383  0.4202  0.7883
 1145Sol     OW 5327   2.544   1.211   6.077 -0.1595  0.3924 -0.1632
 1145Sol     HW 5328   2.551   1.202   5.982  0.0244  1.3696 -0.2461
 1145Sol     HW 5329   2.506   1.128   6.106  0.7425 -0.3154 -0.9769
 1145Sol     MW 5330   2.541   1.203   6.071  0.0079 -0.0083 -0.8201
 1146Sol     OW 5331   2.965   1.428  13.611  0.2110 -0.1262  0.2894
 1146Sol     HW 5332   2.889   1.378  13.641 -1.0213  0.9677 -0.9649
 1146Sol     HW 5333   2.929   1.507  13.572  2.0163  0.5948  0.0098
 1146Sol     MW 5334   2.955   1.430  13.610 -0.3541 -0.2851  0.0274
 1147Sol     OW 5335   2.491   0.815  11.646 -0.1451 -0.3095  0.3255
 1147Sol     HW 5336   2.529   0.810  11.734  1.2204  0.0281 -0.2306
 1147Sol     HW 5337   2.566   0.803  11.587 -0.7756  1.1741 -0.8059
 1147Sol     MW 5338   2.501   0.813  11.649 -0.1645  0.2531  0.2884
 1148Sol     OW 5339   0.060   0.592  13.127 -0.4679 -0.0630 -0.0105
 1148Sol     HW 5340   0.080   0.617  13.036 -1.8328 -0.8297 -0.5297
 1148Sol     HW 5341   0.065   0.496  13.127  0.9882  0.0001  1.0823
 1148Sol     MW 5342   0.062   0.585  13.119  0.0711 -0.0553 -0.1393
 1149Sol     OW 5343   2.239   1.905  13.157  0.0223  0.0584 -0.2610
 1149Sol     HW 5344   2.228   1.858  13.074  0.7523 -1.1771  0.3283
 1149Sol     HW 5345   2.202   1.992  13.140  1.6824  0.3824 -2.3909
 1149Sol     MW 5346   2.234   1.908  13.148  0.1402  0.7048  0.7795
 1150Sol     OW 5347   1.357   0.750  10.264 -0.3766  0.1042 -0.4863
 1150Sol     HW 5348   1.345   0.662  10.300 -0.1752  0.9163  1.6535
 1150Sol     HW 5349   1.445   0.749  10.228 -0.5950 -0.7439 -1.0180
 1150Sol     MW 5350   1.364   0.742  10.264 -0.4647  0.1416  0.0800
 1151Sol     OW 5351   1.720   1.953  13.274  0.4756 -0.0188 -0.6100
 1151Sol     HW 5352   1.725   2.034  13.224 -0.5694  0.8972  0.7187
 1151Sol     HW 5353   1.627   1.944  13.297  0.8167 -0.7770  0.5625
 1151Sol     MW 5354   1.712   1.959  13.272 -0.1882  0.2004 -0.1127
 1152Sol     OW 5355   0.256   1.472   9.959 -0.2862  0.3410 -0.2355
 1152Sol     HW 5356   0.295   1.555   9.935 -2.1453  1.4900  0.5871
 1152Sol     HW 5357   0.208   1.444   9.881 -2.2896  1.6491  0.4921
 1152Sol     MW 5358   0.255   1.477   9.950 -0.1049 -0.0153  0.3014
 1153Sol     OW 5359   1.990   3.312   6.300  0.2188 -0.0069  0.2577
 1153Sol     HW 5360   1.901   3.325   6.269  0.9109  0.6961 -1.4800
 1153Sol     HW 5361   1.983   3.241   6.364 -1.7308  0.7558  0.9091
 1153Sol     MW 5362   1.982   3.306   6.303  0.0715 -1.0696  0.6108
 1154Sol     OW 5363   2.859   0.460  12.389  0.3132  0.3971  0.5483
 1154Sol     HW 5364   2.885   0.454  12.481  1.5600 -0.1207  0.1797
 1154Sol     HW 5365   2.773   0.417  12.385  0.6831 -0.4231  1.3129
 1154Sol     MW 5366   2.854   0.455  12.397 -0.1480  1.0069  0.0578
 1155Sol     OW 5367   1.611   1.565  10.126 -0.4333  0.5097 -0.1579
 1155Sol     HW 5368   1.609   1.555  10.221 -1.4272  2.4332  0.0338
 1155Sol     HW 5369   1.638   1.655  10.111  0.5036 -0.0084 -1.7263
 1155Sol     MW 5370   1.613   1.572  10.133 -0.4595 -0.3163 -0.5528
 1156Sol     OW 5371   1.912   0.556  10.417  0.3170 -0.3789 -0.4256
 1156Sol     HW 5372   1.903   0.536  10.510 -1.6273  0.0168 -0.5146
 1156Sol     HW 5373   2.007   0.559  10.403  0.6387 -1.0420  1.3997
 1156Sol     MW 5374   1.920   0.555  10.424 -0.1025 -0.9684  0.2205
 1157Sol     OW 5375   3.268   2.104   9.067  0.0848 -0.0956 -0.9256
 1157Sol     HW 5376   3.346   2.160   9.057 -0.0440  0.1251 -0.6783
 1157Sol     HW 5377   3.304   2.015   9.073  0.3428  0.0434 -0.3927
 1157Sol     MW 5378   3.278   2.101   9.066  0.0566 -0.4070  1.1161
 1158Sol     OW 5379   1.349   2.256   6.599 -0.3687 -0.1060  0.0211
 1158Sol     HW 5380   1.411   2.226   6.665 -1.0265 -2.3426 -0.3429
 1158Sol     HW 5381   1.396   2.323   6.550  1.1448 -0.5696  0.8338
 1158Sol     MW 5382   1.358   2.259   6.601 -0.5254  0.5471  0.6468
 1159Sol     OW 5383   1.723   2.059  11.275 -0.5923  0.8366 -0.4462
 1159Sol     HW 5384   1.630   2.035  11.273 -0.2822 -0.3054 -1.0892
 1159Sol     HW 5385   1.722   2.150  11.305 -1.8353  0.3985  0.9763
 1159Sol     MW 5386   1.714   2.065  11.278  0.3468  0.1127 -0.2936
 1160Sol     OW 5387   1.054   0.109   6.889 -0.5155  0.0304 -0.2519
 1160Sol     HW 5388   1.099   0.148   6.964 -1.0956  0.2788 -0.0361
 1160Sol     HW 5389   1.125   0.074   6.834 -0.0657  0.3153  0.1480
 1160Sol     MW 5390   1.064   0.109   6.891 -1.0662  0.0320 -0.3042
 1161Sol     OW 5391   2.542   0.561  12.715 -0.2676 -1.0615 -0.4383
 1161Sol     HW 5392   2.538   0.573  12.620  1.3690 -1.8719 -0.6297
 1161Sol     HW 5393   2.463   0.510  12.736 -1.9218  1.1625 -0.9910
 1161Sol     MW 5394   2.534   0.558  12.709 -0.2992 -0.4597 -0.4802
 1162Sol     OW 5395   0.217   0.358  10.092  0.0631  0.8961 -0.7030
 1162Sol     HW 5396   0.274   0.308  10.035  0.8881 -0.5368  1.3194
 1162Sol     HW 5397   0.263   0.362  10.176 -1.6756  1.8423  0.2510
 1162Sol     MW 5398   0.226   0.354  10.095 -0.3688 -0.2344  0.1966
 1163Sol     OW 5399   3.036   0.935   8.194  0.3115 -0.3712 -0.0379
 1163Sol     HW 5400   2.965   0.919   8.132 -0.0984 -1.0562  0.5996
 1163Sol     HW 5401   3.082   1.011   8.159 -0.7801  0.1204 -0.4308
 1163Sol     MW 5402   3.034   0.941   8.186  0.3876  0.1819 -0.1075
 1164Sol     OW 5403   2.952   1.764   7.174  0.0222  0.0916 -0.4664
 1164Sol     HW 5404   2.972   1.849   7.213  0.6250 -0.0349 -0.4894
 1164Sol     HW 5405   3.025   1.748   7.114  1.0352 -1.4059  1.1007
 1164Sol     MW 5406   2.960   1.770   7.172  0.2404  0.3828  0.7184
 1165Sol     OW 5407   1.216   0.319  12.911 -0.3398  0.0237 -0.0976
 1165Sol     HW 5408   1.260   0.280  12.835 -0.6175  0.2917 -0.3977
 1165Sol     HW 5409   1.125   0.329  12.883 -0.6286 -0.6853  0.5814
 1165Sol     MW 5410   1.212   0.317  12.901 -0.2382  0.5994 -0.8490
 1166Sol     OW 5411   1.811   2.389   9.064  0.2059 -0.0331  0.4943
 1166Sol     HW 5412   1.841   2.406   9.153 -1.6356  0.5112  1.0352
 1166Sol     HW 5413   1.794   2.476   9.027  0.6628 -0.2688 -0.2928
 1166Sol     MW 5414   1.812   2.398   9.069  0.3953 -0.1594  0.8542
 1167Sol     OW 5415   2.427   0.452   8.039 -0.5737  0.2445  0.0186
 1167Sol     HW 5416   2.446   0.408   8.122 -1.3396 -1.3208 -0.6036
 1167Sol     HW 5417   2.350   0.406   8.005 -1.1641  1.8401 -0.8541
 1167Sol     MW 5418   2.422   0.444   8.044  0.4591 -0.1523 -0.4885
 1168Sol     OW 5419   0.919   0.040  10.461 -0.4830  0.1755 -0.1631
 1168Sol     HW 5420   0.909   0.119  10.513 -1.8733 -0.4709  0.5459
 1168Sol     HW 5421   0.846   0.041  10.400 -1.3446 -1.2999  0.8143
 1168Sol     MW 5422   0.912   0.047  10.460 -0.2892  0.4146 -0.1422
 1169Sol     OW 5423   0.704   1.944   7.050  0.3559  0.3838 -0.0179
 1169Sol     HW 5424   0.620   1.976   7.084 -0.2909 -0.7121 -0.5677
 1169Sol     HW 5425   0.767   2.011   7.076 -0.7095  1.2786  0.2989
 1169Sol     MW 5426   0.702   1.953   7.055 -0.9586  0.2133 -0.0996
 1170Sol     OW 5427   3.326   3.411   6.576  0.2417 -0.3505  0.4427
 1170Sol     HW 5428   3.260   3.342   6.581 -0.6357  0.4746  0.2219
 1170Sol     HW 5429   3.360   3.405   6.487 -2.4736  1.9172 -0.8100
 1170Sol     MW 5430   3.323   3.404   6.569  0.0175  0.3826  0.5417
 1171Sol     OW 5431   1.826   1.952  12.337  0.5151  0.7941  0.5509
 1171Sol     HW 5432   1.776   1.923  12.261  1.6803  0.4694 -0.1115
 1171Sol     HW 5433   1.864   1.872  12.373 -0.2583  0.9155  1.6488
 1171Sol     MW 5434   1.825   1.942  12.333 -0.3245 -0.0177 -0.6540
 1172Sol     OW 5435   1.215   0.122  11.020 -0.5747 -0.2591 -0.6988
 1172Sol     HW 5436   1.279   0.108  11.089 -1.2233  1.1922  0.2232
 1172Sol     HW 5437   1.163   0.042  11.018 -0.6723 -0.2285  0.6201
 1172Sol     MW 5438   1.216   0.114  11.026 -0.5613 -0.7129 -0.1157
 1173Sol     OW 5439   2.787   2.172  13.946  0.3620 -0.7053 -0.1895
 1173Sol     HW 5440   2.851   2.130  14.005 -0.3426 -0.1223  1.0204
 1173Sol     HW 5441   2.706   2.124  13.962  0.6122 -1.8192 -2.1481
 1173Sol     MW 5442   2.785   2.164  13.953  0.7400 -0.4023 -0.6801
 1174Sol     OW 5443   1.248   3.399   8.003 -0.1175  0.6320  0.4391
 1174Sol     HW 5444   1.226   3.449   7.925  0.8675 -0.6939 -0.7043
 1174Sol     HW 5445   1.235   3.461   8.075 -2.0928  1.5513 -0.6476
 1174Sol     MW 5446   1.245   3.409   8.003  0.0863 -0.3370  0.4520
 1175Sol     OW 5447   2.153   2.807   7.739  0.1415 -0.0524  0.0540
 1175Sol     HW 5448   2.244   2.836   7.730  0.1700  0.0294  0.5561
 1175Sol     HW 5449   2.101   2.887   7.735  0.0202 -0.1747 -1.0608
 1175Sol     MW 5450   2.157   2.817   7.738  0.2172 -0.1123  0.4146
 1176Sol     OW 5451   3.248   1.221   9.073 -0.5131  0.0627  0.2878
 1176Sol     HW 5452   3.264   1.128   9.056 -0.3368  0.3375 -1.1530
 1176Sol     HW 5453   3.157   1.225   9.101 -1.2359 -0.3055 -1.8865
 1176Sol     MW 5454   3.241   1.213   9.074 -0.6309 -0.2593  0.2828
 1177Sol     OW 5455   1.619   0.099  11.027  0.1960  0.1912  0.4883
 1177Sol     HW 5456   1.632   0.103  10.933  2.8492 -0.9387  0.7656
 1177Sol     HW 5457   1.589   0.009  11.043  0.9011  0.0214  0.8507
 1177Sol     MW 5458   1.617   0.091  11.020 -0.3453 -0.1504  0.0773
 1178Sol     OW 5459   1.105   0.015   9.523 -0.2486  0.5171  0.2066
 1178Sol     HW 5460   1.052   0.063   9.588  2.9332  0.3245  3.1054
 1178Sol     HW 5461   1.072  -0.075   9.528 -0.7534  0.7241  0.7444
 1178Sol     MW 5462   1.097   0.012   9.530  0.1591  0.3355 -0.0882
 1179Sol     OW 5463   2.501   0.045   7.500  0.1441  0.0743  0.0789
 1179Sol     HW 5464   2.581  -0.007   7.497  0.1009 -0.3212  3.6681
 1179Sol     HW 5465   2.526   0.126   7.543 -1.5805 -0.5487  2.3784
 1179Sol     MW 5466   2.510   0.047   7.504 -0.2982 -0.4783 -0.6508
 1180Sol     OW 5467   1.319   3.117   7.169  0.2044  0.2945 -0.0225
 1180Sol     HW 5468   1.285   3.041   7.124  0.3006  0.7323 -0.8453
 1180Sol     HW 5469   1.309   3.097   7.262  0.9126 -1.0274 -0.2196
 1180Sol     MW 5470   1.315   3.109   7.174 -0.4383  0.2136  0.1741
 1181Sol     OW 5471   2.774   2.527  12.913  0.0989  0.6106  0.1937
 1181Sol     HW 5472   2.840   2.493  12.972  0.5410  0.7089 -0.2417
 1181Sol     HW 5473   2.779   2.470  12.836 -1.5990 -0.5569  0.9052
 1181Sol     MW 5474   2.780   2.519  12.911  0.4117 -1.0727 -0.4821
 1182Sol     OW 5475   2.073   1.284   9.475  0.1242 -0.1273  0.2354
 1182Sol     HW 5476   2.063   1.321   9.387 -0.7949  0.9831  0.8040
 1182Sol     HW 5477   2.070   1.359   9.534  0.4475 -0.8949  1.2417
 1182Sol     MW 5478   2.072   1.294   9.472  0.0814 -0.7196 -0.6830
 1183Sol     OW 5479   1.713   3.046  12.646  0.1043 -0.6227  0.0258
 1183Sol     HW 5480   1.727   2.965  12.695 -0.8704 -1.2050 -0.6388
 1183Sol     HW 5481   1.669   3.018  12.565  1.1691  0.3856 -0.9283
 1183Sol     MW 5482   1.711   3.036  12.643  0.1236  0.2347  0.2023
 1184Sol     OW 5483   1.214   2.901   7.820  0.3625  0.3792  0.1560
 1184Sol     HW 5484   1.272   2.884   7.894 -0.7664 -0.6094  0.8323
 1184Sol     HW 5485   1.221   2.823   7.765 -0.0800  0.3814  0.0878
 1184Sol     MW 5486   1.219   2.893   7.822 -0.1998  0.1464  0.0376
 1185Sol     OW 5487   1.308   0.542  10.491 -0.1928  0.2954  0.0073
 1185Sol     HW 5488   1.252   0.560  10.566 -0.7205  1.7937 -0.7445
 1185Sol     HW 5489   1.328   0.448  10.498  1.6915  0.8759  3.3391
 1185Sol     MW 5490   1.305   0.535  10.498 -0.0469  0.0965 -0.1970
 1186Sol     OW 5491   1.446   2.869  13.761  0.1524 -0.1733 -0.6464
 1186Sol     HW 5492   1.423   2.911  13.843 -2.2106 -0.0171 -1.3469
 1186Sol     HW 5493   1.526   2.913  13.732  0.2080  0.7337  0.8559
 1186Sol     MW 5494   1.451   2.876  13.765  0.4223 -0.2595 -0.0649
 1187Sol     OW 5495   0.617   3.094   7.608 -0.1352 -0.3112 -0.5991
 1187Sol     HW 5496   0.546   3.101   7.672  0.3530 -0.6415 -0.0056
 1187Sol     HW 5497   0.598   3.015   7.558 -0.1824 -0.4020 -0.4378
 1187Sol     MW 5498   0.609   3.088   7.610  0.2590  0.7708  0.6517
 1188Sol     OW 5499   2.953   1.146  12.441  0.2296  0.3390  0.2054
 1188Sol     HW 5500   3.009   1.193  12.503  1.1446  0.7470 -0.9187
 1188Sol     HW 5501   2.867   1.142  12.485 -0.1388  3.8572 -0.0524
 1188Sol     MW 5502   2.950   1.150  12.451  0.6538  0.8693 -0.3156
 1189Sol     OW 5503   1.993   0.261   7.782 -0.3880  0.1683  0.1882
 1189Sol     HW 5504   1.964   0.181   7.739 -1.9600  0.4272  0.7320
 1189Sol     HW 5505   1.917   0.291   7.832 -0.4005  2.9361 -1.3739
 1189Sol     MW 5506   1.983   0.256   7.782 -0.8693  0.0456 -0.1201
 1190Sol     OW 5507   2.696   3.253  12.955 -0.1795 -0.1057  0.2047
 1190Sol     HW 5508   2.644   3.237  13.034 -0.8028  0.9344  0.0098
 1190Sol     HW 5509   2.685   3.174  12.902 -0.7431 -0.3076  0.6189
 1190Sol     MW 5510   2.691   3.244  12.958 -0.8551 -0.7637  0.1154
 1191Sol     OW 5511   1.481   2.252   8.764  0.6246 -0.2469  0.0705
 1191Sol     HW 5512   1.507   2.313   8.696 -0.6302  1.2175  0.8635
 1191Sol     HW 5513   1.454   2.307   8.837 -0.2852 -1.7483  0.9029
 1191Sol     MW 5514   1.481   2.262   8.765 -0.3371 -0.0365 -0.2057
 1192Sol     OW 5515   0.111   0.049   8.507 -0.5078  0.1824  0.3571
 1192Sol     HW 5516   0.141  -0.020   8.566  1.0629  1.9115  1.6771
 1192Sol     HW 5517   0.055   0.104   8.563 -0.1817  1.0236 -0.1288
 1192Sol     MW 5518   0.109   0.048   8.518  0.2139 -0.1216  0.2618
 1193Sol     OW 5519   2.104   3.123  12.824 -0.0623  0.1341 -0.5940
 1193Sol     HW 5520   2.143   3.187  12.765 -0.9269  2.3529  1.1724
 1193Sol     HW 5521   2.078   3.173  12.901 -3.0131 -1.9055 -0.1604
 1193Sol     MW 5522   2.105   3.133  12.826  0.1391 -0.5869 -0.0065
 1194Sol     OW 5523   1.095   3.077  13.474 -1.0115 -0.2310  0.1989
 1194Sol     HW 5524   1.044   3.131  13.414  1.2084  0.9460 -0.7090
 1194Sol     HW 5525   1.135   3.139  13.535  1.1561 -0.8583 -0.5434
 1194Sol     MW 5526   1.094   3.087  13.474  0.0862 -0.3972  0.2458
 1195Sol     OW 5527   2.695   3.120   8.434  0.1703 -0.3064  0.0570
 1195Sol     HW 5528   2.704   3.069   8.515  2.0382 -1.9302 -1.1178
 1195Sol     HW 5529   2.661   3.057   8.370 -1.9461  1.1363 -0.2921
 1195Sol     MW 5530   2.693   3.110   8.436  0.1272 -0.4514 -0.9258
 1196Sol     OW 5531   2.478   3.317   8.073 -0.0466  0.2451 -0.5377
 1196Sol     HW 5532   2.553   3.323   8.013  0.1442  0.9670 -0.2266
 1196Sol     HW 5533   2.506   3.364   8.151  0.2865 -1.9972  0.7242
 1196Sol     MW 5534   2.487   3.322   8.074 -0.0072  0.7551  0.9552
 1197Sol     OW 5535   1.906   0.146  11.391  0.1366 -0.6954 -0.1803
 1197Sol     HW 5536   1.942   0.089  11.459  0.0525 -0.4740  0.0513
 1197Sol     HW 5537   1.861   0.215  11.440 -0.8281 -1.1179 -0.4706
 1197Sol     MW 5538   1.906   0.147  11.402 -0.4123 -0.1976 -0.5992
 1198Sol     OW 5539   2.390   0.835  12.618  0.3405 -0.1147 -0.0185
 1198Sol     HW 5540   2.437   0.918  12.606 -1.8557  1.2694  0.6925
 1198Sol     HW 5541   2.389   0.795  12.531  0.8229  0.9252 -0.5134
 1198Sol     MW 5542   2.394   0.839  12.609 -0.4338  0.0343 -0.0974
 1199Sol     OW 5543   2.642   0.965  13.860 -0.0293 -0.2491 -0.0442
 1199Sol     HW 5544   2.549   0.978  13.881  0.6330  2.0724  1.6346
 1199Sol     HW 5545   2.663   1.036  13.800  1.2007  0.5336  1.3001
 1199Sol     MW 5546   2.635   0.972  13.857  0.5659  0.0266 -0.3310
 1200Sol     OW 5547   2.825   1.660   9.772 -0.6412 -0.6733  0.7478
 1200Sol     HW 5548   2.835   1.566   9.788  0.1946 -0.7570 -0.2411
 1200Sol     HW 5549   2.886   1.701   9.834 -1.2769 -0.7715  1.4338
 1200Sol     MW 5550   2.832   1.656   9.779 -0.0963  0.1067  0.7104
 1201Sol     OW 5551   0.640   0.495   7.208  0.5852 -0.0491  0.0181
 1201Sol     HW 5552   0.586   0.553   7.154  1.6334 -0.2042 -1.2388
 1201Sol     HW 5553   0.626   0.408   7.170 -0.4801 -0.5417  1.4903
 1201Sol     MW 5554   0.634   0.492   7.200  0.2297 -0.0741 -0.2085
 1202Sol     OW 5555   1.913   1.940   6.362 -0.2557  0.4828 -0.5148
 1202Sol     HW 5556   1.904   1.993   6.441 -3.0382  0.3382 -0.6656
 1202Sol     HW 5557   1.894   1.851   6.391  1.6685 -0.0447 -0.8004
 1202Sol     MW 5558   1.910   1.937   6.372 -0.0105 -0.2606 -0.2368
 1203Sol     OW 5559   1.169   1.697  10.851 -0.6749  0.3392  0.1557
 1203Sol     HW 5560   1.161   1.765  10.783 -3.0955  1.2441  1.2750
 1203Sol     HW 5561   1.155   1.615  10.804  2.5166  0.5408 -1.2622
 1203Sol     MW 5562   1.167   1.696  10.841 -0.0872 -0.0584 -0.2843
 1204Sol     OW 5563   2.989   2.721   8.456  0.8461  0.3540  0.7583
 1204Sol     HW 5564   3.072   2.725   8.410 -0.4602 -0.8759 -1.8091
 1204Sol     HW 5565   2.924   2.704   8.388 -1.4377  0.6167  2.7824
 1204Sol     MW 5566   2.990   2.720   8.446 -0.0037 -0.1341  1.3336
 1205Sol     OW 5567   2.219   2.660   7.263  0.2780  0.3889  0.8000
 1205Sol     HW 5568   2.190   2.588   7.320 -0.0247 -0.5562 -0.5214
 1205Sol     HW 5569   2.141   2.714   7.253 -0.5810 -1.1235 -1.1947
 1205Sol     MW 5570   2.209   2.658   7.268  0.5333 -0.1781 -0.9451
 1206Sol     OW 5571   0.686   0.250   7.675 -0.2408  0.3043 -0.0233
 1206Sol     HW 5572   0.720   0.161   7.664 -0.2266 -0.0289  2.5732
 1206Sol     HW 5573   0.656   0.275   7.587  0.7267 -1.8504 -0.9970
 1206Sol     MW 5574   0.686   0.244   7.666 -0.2548 -0.5021  0.5077
 1207Sol     OW 5575   0.214   3.108   9.381  0.6843 -0.2209  0.5053
 1207Sol     HW 5576   0.132   3.093   9.335  1.3628 -0.4091 -0.6870
 1207Sol     HW 5577   0.241   3.196   9.354  1.9549 -0.9933 -0.8906
 1207Sol     MW 5578   0.209   3.115   9.374  0.0637  0.3103  0.5448
 1208Sol     OW 5579   1.325   0.574  12.754 -0.1730 -0.2331 -0.0378
 1208Sol     HW 5580   1.311   0.482  12.777  1.5914 -0.2266  1.1900
 1208Sol     HW 5581   1.420   0.585  12.753 -0.3481  1.9086  1.2868
 1208Sol     MW 5582   1.332   0.567  12.756  0.0424  0.0144 -0.0956
 1209Sol     OW 5583   2.790   2.091  10.985 -0.1852 -0.0623 -0.2751
 1209Sol     HW 5584   2.781   1.998  11.004  0.0369 -0.3638 -1.5525
 1209Sol     HW 5585   2.771   2.097  10.891  2.5190  0.7846 -0.7965
 1209Sol     MW 5586   2.788   2.083  10.978  0.0931  0.5139  0.6161
 1210Sol     OW 5587   1.968   2.310   7.720  0.2863  0.3766  0.0703
 1210Sol     HW 5588   1.891   2.262   7.690 -0.2073 -0.0938  2.0021
 1210Sol     HW 5589   2.042   2.258   7.689 -0.1803  0.5262 -1.3146
 1210Sol     MW 5590   1.967   2.301   7.715 -0.0675 -0.3465  0.5936
 1211Sol     OW 5591   2.574   2.785  11.912  0.5573 -0.4647 -0.0023
 1211Sol     HW 5592   2.629   2.862  11.899 -0.6219  0.4741  0.4880
 1211Sol     HW 5593   2.592   2.757  12.002  1.5289 -1.2207 -0.4149
 1211Sol     MW 5594   2.581   2.789  11.919  0.5750  0.7994 -0.3985
 1212Sol     OW 5595   1.997   2.550  14.125  0.2767  0.2372 -0.4254
 1212Sol     HW 5596   2.013   2.484  14.192  2.9928 -1.1995 -2.3825
 1212Sol     HW 5597   1.902   2.554  14.117  0.0086 -1.7263  1.4111
 1212Sol     MW 5598   1.990   2.545  14.130 -0.0536  0.5363 -0.8869
 1213Sol     OW 5599   3.015   0.226   6.261 -0.1948 -0.1955  0.1394
 1213Sol     HW 5600   3.059   0.222   6.346 -0.3711 -0.5554  0.2111
 1213Sol     HW 5601   2.945   0.162   6.266  0.3493 -0.8588 -0.5975
 1213Sol     MW 5602   3.013   0.220   6.269  0.5533 -0.2383 -0.1050
 1214Sol     OW 5603   1.979   2.168  14.006 -0.0107 -0.4061 -0.1316
 1214Sol     HW 5604   1.944   2.081  14.023  0.1753 -0.9397 -2.3784
 1214Sol     HW 5605   1.910   2.214  13.958  0.8360 -0.1512 -1.1261
 1214Sol     MW 5606   1.970   2.165  14.004  0.4681  0.0713  0.1614
 1215Sol     OW 5607   1.929   1.243   6.468 -0.1780  0.3527  0.0461
 1215Sol     HW 5608   1.852   1.291   6.498 -0.9806 -0.9278  0.0872
 1215Sol     HW 5609   1.989   1.244   6.542 -0.1880  1.2688  0.0475
 1215Sol     MW 5610   1.928   1.247   6.477  0.8485  0.3300  0.1153
 1216Sol     OW 5611   0.333   2.362   8.920 -0.5470  0.2934 -0.2466
 1216Sol     HW 5612   0.285   2.409   8.851 -1.4709  1.7228  1.3323
 1216Sol     HW 5613   0.424   2.391   8.908 -0.9834  1.9499  0.2279
 1216Sol     MW 5614   0.337   2.369   8.913 -0.0707 -0.0418  0.1867
 1217Sol     OW 5615   1.912   2.584  12.742  0.5480 -0.1813  0.1827
 1217Sol     HW 5616   1.897   2.584  12.648  1.2623  3.8951 -0.0500
 1217Sol     HW 5617   1.838   2.634  12.778 -0.2293 -2.5160  1.9176
 1217Sol     MW 5618   1.904   2.589  12.737  0.4096 -0.6493 -0.0143
 1218Sol     OW 5619   1.766   2.674   9.187  0.0968 -0.6777 -0.0438
 1218Sol     HW 5620   1.816   2.596   9.211 -1.7681 -1.0922  2.7281
 1218Sol     HW 5621   1.819   2.747   9.219 -0.1156 -1.0335  1.1644
 1218Sol     MW 5622   1.775   2.673   9.192 -0.6238 -0.9053  0.1989
 1219Sol     OW 5623   2.855   1.396   9.831  0.0488 -0.4149  0.2902
 1219Sol     HW 5624   2.833   1.346   9.752 -0.1448 -0.2527  0.2402
 1219Sol     HW 5625   2.936   1.357   9.863  0.5039 -0.0188 -0.3823
 1219Sol     MW 5626   2.860   1.388   9.827 -0.4822  0.8599 -0.3631
 1220Sol     OW 5627   0.780   2.571   7.937  0.1555  0.0319  0.4014
 1220Sol     HW 5628   0.860   2.540   7.895  0.2075 -0.1399  0.6297
 1220Sol     HW 5629   0.709   2.535   7.882  0.2517  2.6974 -1.6143
 1220Sol     MW 5630   0.781   2.565   7.928  0.4724 -0.0844 -0.2705
 1221Sol     OW 5631   0.092   0.460   9.637  0.4132  0.0242  0.6021
 1221Sol     HW 5632   0.092   0.364   9.638 -0.1284  0.0203  0.2581
 1221Sol     HW 5633   0.057   0.484   9.723 -1.1135 -0.1005  0.0347
 1221Sol     MW 5634   0.089   0.453   9.645  0.1893 -0.7946  0.2307
 1222Sol     OW 5635   0.842   0.124  12.922 -0.0636  0.0487  0.0343
 1222Sol     HW 5636   0.796   0.050  12.962  0.3359  0.4084  1.1570
 1222Sol     HW 5637   0.933   0.114  12.950  0.1546  0.5055 -0.5009
 1222Sol     MW 5638   0.846   0.116  12.928  0.7680 -0.0276 -0.5270
 1223Sol     OW 5639   1.356   0.063   7.293 -0.1132 -0.1319 -0.2087
 1223Sol     HW 5640   1.388  -0.018   7.333 -1.9432 -0.5548  0.4347
 1223Sol     HW 5641   1.401   0.133   7.340  1.3982 -0.7560 -0.7035
 1223Sol     MW 5642   1.363   0.062   7.301  0.1037 -0.5936  0.6519
 1224Sol     OW 5643   0.858   1.032   7.370 -0.6132 -0.3763 -0.1399
 1224Sol     HW 5644   0.801   1.048   7.445 -2.4630  0.5581 -1.7041
 1224Sol     HW 5645   0.907   1.114   7.359  0.0406 -0.6981  0.3667
 1224Sol     MW 5646   0.858   1.041   7.375 -0.1385 -1.0116  0.2480
 1225Sol     OW 5647   0.411   1.731  11.883  0.1722 -0.1680  0.3759
 1225Sol     HW 5648   0.401   1.793  11.956  0.4594 -1.4105  1.4808
 1225Sol     HW 5649   0.443   1.651  11.924 -1.7674 -1.5883 -0.8014
 1225Sol     MW 5650   0.413   1.730  11.894  0.4952 -0.2231  0.6723
 1226Sol     OW 5651   3.201   0.585   8.669  0.8568 -0.1270  0.1301
 1226Sol     HW 5652   3.144   0.512   8.695  1.1461 -0.7354 -0.9137
 1226Sol     HW 5653   3.237   0.558   8.585  1.8855  0.7166  0.2901
 1226Sol     MW 5654   3.199   0.576   8.664 -0.2033 -0.1966 -0.2670
 1227Sol     OW 5655   2.100   1.755   9.079  0.4331  0.0206 -0.0759
 1227Sol     HW 5656   2.165   1.824   9.064 -1.5394  1.6032 -1.4362
 1227Sol     HW 5657   2.085   1.717   8.993 -0.8982  0.0789  0.1269
 1227Sol     MW 5658   2.105   1.758   9.070 -0.2450 -0.3744 -0.4550
 1228Sol     OW 5659   2.386   0.516   6.118  0.1793 -0.4987 -0.1227
 1228Sol     HW 5660   2.359   0.546   6.205  0.4418 -0.1963 -0.1448
 1228Sol     HW 5661   2.318   0.551   6.060  0.6357  0.3038 -0.1839
 1228Sol     MW 5662   2.377   0.522   6.121  0.1818  0.2838  0.0403
 1229Sol     OW 5663   0.324   1.277   9.578 -0.4392  0.0431 -0.1500
 1229Sol     HW 5664   0.385   1.348   9.559  0.0163 -0.7878 -1.8243
 1229Sol     HW 5665   0.310   1.233   9.495 -0.7406 -1.8206  0.8500
 1229Sol     MW 5666   0.328   1.280   9.569  0.3977 -0.0816  0.1069
 1230Sol     OW 5667   3.192   2.858  12.801  0.2818  0.0226  0.1563
 1230Sol     HW 5668   3.126   2.895  12.743 -0.2433  0.6010  1.1111
 1230Sol     HW 5669   3.262   2.827  12.742 -0.2660  0.5427 -0.7703
 1230Sol     MW 5670   3.193   2.858  12.791 -0.6461 -0.3624 -0.3046
 1231Sol     OW 5671   1.830   2.709  13.357  0.4422 -0.0707  0.5249
 1231Sol     HW 5672   1.818   2.632  13.301 -2.7119  0.1889  0.7566
 1231Sol     HW 5673   1.916   2.696  13.398  1.6702 -1.5465 -2.3552
 1231Sol     MW 5674   1.837   2.701  13.355  0.8935  0.1111 -0.2182
 1232Sol     OW 5675   1.231   1.252  11.073  0.7266  0.2208  0.2711
 1232Sol     HW 5676   1.259   1.181  11.130 -0.5355 -1.0434 -0.6574
 1232Sol     HW 5677   1.135   1.251  11.078  0.4858 -1.0675 -3.2049
 1232Sol     MW 5678   1.225   1.246  11.079 -0.3212  0.3129  0.2934
 1233Sol     OW 5679   3.061   2.463  12.379  0.0229 -0.1265 -0.5528
 1233Sol     HW 5680   3.107   2.451  12.296 -0.2451  0.6030 -0.8072
 1233Sol     HW 5681   3.130   2.487  12.441 -0.1676  2.2746 -1.2183
 1233Sol     MW 5682   3.072   2.464  12.377 -0.6768 -0.1652  0.8299
 1234Sol     OW 5683   0.834   3.368   7.537  0.0180  0.3615  0.0686
 1234Sol     HW 5684   0.843   3.354   7.442  0.4668 -0.9620  0.2952
 1234Sol     HW 5685   0.774   3.299   7.566 -1.7571  2.0289  0.4437
 1234Sol     MW 5686   0.830   3.361   7.531 -0.1590 -0.3769 -0.2011
 1235Sol     OW 5687   1.602   3.028   9.258  0.8680 -0.4709  0.3733
 1235Sol     HW 5688   1.537   2.960   9.238 -0.0606  0.8167 -1.0736
 1235Sol     HW 5689   1.685   2.991   9.227  0.4413 -1.1504  0.0185
 1235Sol     MW 5690   1.603   3.018   9.253  0.5366  0.0208 -0.2929
 1236Sol     OW 5691   1.536   1.310  11.276  0.2363  0.1542 -0.0016
 1236Sol     HW 5692   1.474   1.273  11.339 -0.5776  1.2094 -0.1692
 1236Sol     HW 5693   1.497   1.393  11.250  1.8521  0.9526  0.0630
 1236Sol     MW 5694   1.527   1.314  11.279 -0.3479  0.3035 -0.8147
 1237Sol     OW 5695   1.706   0.900  12.773  0.3144  0.3595  0.6355
 1237Sol     HW 5696   1.671   0.939  12.853  1.1945 -1.0030  1.7033
 1237Sol     HW 5697   1.786   0.951  12.755 -0.1089  0.9385  0.3810
 1237Sol     MW 5698   1.710   0.908  12.779  0.2628 -0.0898  0.2185
 1238Sol     OW 5699   1.604   3.112   6.326 -0.1486 -0.2289  0.1508
 1238Sol     HW 5700   1.657   3.043   6.365  0.6477  0.9366  1.1879
 1238Sol     HW 5701   1.514   3.085   6.342  0.1607 -0.9451  0.7223
 1238Sol     MW 5702   1.601   3.104   6.331  0.1535 -0.1475 -0.5596
 1239Sol     OW 5703   1.123   0.339  11.208  0.5279 -0.3469  0.3208
 1239Sol     HW 5704   1.205   0.353  11.254  1.2895  1.3822 -1.4533
 1239Sol     HW 5705   1.138   0.261  11.155  0.4525 -0.9745  1.2154
 1239Sol     MW 5706   1.131   0.333  11.207  0.3363 -0.3098  1.0370
 1240Sol     OW 5707   2.560   1.847  10.838  0.2449 -0.0986 -0.1569
 1240Sol     HW 5708   2.498   1.790  10.794 -0.2619  0.4333 -0.1361
 1240Sol     HW 5709   2.612   1.788  10.894  2.2030 -1.0660 -2.9053
 1240Sol     MW 5710   2.559   1.837  10.839 -0.9081 -0.1728 -0.2195
 1241Sol     OW 5711   0.666   1.210   6.569 -0.1809 -0.1244  0.1210
 1241Sol     HW 5712   0.752   1.212   6.527  0.1078 -1.1328  0.6517
 1241Sol     HW 5713   0.625   1.131   6.535 -0.1339 -0.6919  1.3710
 1241Sol     MW 5714   0.670   1.203   6.562  1.1360  0.2290 -0.1113
 1242Sol     OW 5715   1.193   1.682   9.824  0.1308  0.0350  0.2348
 1242Sol     HW 5716   1.149   1.708   9.743  0.5886  1.1747  0.3395
 1242Sol     HW 5717   1.156   1.739   9.891 -1.9241 -2.4783  1.2751
 1242Sol     MW 5718   1.186   1.689   9.823  0.2885  0.3759 -0.1453
 1243Sol     OW 5719   1.879   1.195  13.583 -0.5702  0.1659  0.0190
 1243Sol     HW 5720   1.821   1.264  13.552  0.3695  0.3831 -1.3535
 1243Sol     HW 5721   1.912   1.154  13.502 -0.1816 -1.0798  0.7964
 1243Sol     MW 5722   1.877   1.198  13.573  0.6456 -0.3673 -0.1630
 1244Sol     OW 5723   3.332   2.457  10.008 -0.4490  0.0179  0.2874
 1244Sol     HW 5724   3.306   2.548  10.018 -2.0429 -0.0079 -2.9375
 1244Sol     HW 5725   3.427   2.460  10.004 -0.4415  1.4160  1.0586
 1244Sol     MW 5726   3.338   2.465  10.009 -0.3079 -0.2266  0.2444
 1245Sol     OW 5727   3.170   2.585   7.459 -0.1505 -0.0471  0.4494
 1245Sol     HW 5728   3.099   2.537   7.502 -1.1587  0.0077 -1.1197
 1245Sol     HW 5729   3.213   2.519   7.404  0.0311  0.2714  0.2122
 1245Sol     MW 5730   3.167   2.575   7.458  0.6796 -0.4385 -0.6504
 1246Sol     OW 5731   0.714   2.768  12.982  0.0043 -0.0812  0.3209
 1246Sol     HW 5732   0.738   2.848  12.935  2.0114 -0.6371  0.3719
 1246Sol     HW 5733   0.657   2.799  13.053  0.9773  1.3544  0.5144
 1246Sol     MW 5734   0.711   2.778  12.984  0.5792 -0.3865 -1.0708
 1247Sol     OW 5735   1.712   3.382   8.922 -0.2193  0.5242 -0.1467
 1247Sol     HW 5736   1.680   3.440   8.992 -1.2526 -0.2355  0.0278
 1247Sol     HW 5737   1.654   3.401   8.848  0.2880  0.6606 -0.5142
 1247Sol     MW 5738   1.704   3.389   8.922  0.5626 -0.0109 -0.2420
 1248Sol     OW 5739   3.109   1.075  12.236  0.3178  0.3673 -0.5210
 1248Sol     HW 5740   3.056   1.092  12.314  0.6323  0.4518 -0.3246
 1248Sol     HW 5741   3.199   1.071  12.269  0.2801 -1.3432 -0.6194
 1248Sol     MW 5742   3.113   1.076  12.246  0.0444 -0.1434 -0.3348
 1249Sol     OW 5743   1.457   3.241  13.213  0.1525  0.1865 -0.2243
 1249Sol     HW 5744   1.476   3.283  13.129  1.7920  1.5849  0.8023
 1249Sol     HW 5745   1.459   3.147  13.193  0.6139  0.4966 -1.7387
 1249Sol     MW 5746   1.459   3.236  13.203 -0.9036 -0.7878  0.5858
 1250Sol     OW 5747   0.571   1.424   6.310 -0.1119  0.8089 -0.0117
 1250Sol     HW 5748   0.517   1.360   6.264  0.2536  0.4391  0.0702
 1250Sol     HW 5749   0.661   1.396   6.292  0.0518  1.4693 -0.2146
 1250Sol     MW 5750   0.575   1.416   6.305  0.8400 -0.3405 -0.4994
 1251Sol     OW 5751   0.695   2.932  10.715  0.2030  0.1693 -0.1478
 1251Sol     HW 5752   0.701   2.864  10.648  0.6395  0.2639 -0.2069
 1251Sol     HW 5753   0.775   2.983  10.705  2.1233 -2.0644  2.8788
 1251Sol     MW 5754   0.703   2.930  10.708 -0.4156 -0.1268  0.0683
 1252Sol     OW 5755   1.481   1.550   8.886  0.4197 -0.0255  0.1723
 1252Sol     HW 5756   1.501   1.476   8.943  0.8393 -1.3417 -1.6674
 1252Sol     HW 5757   1.566   1.575   8.848 -0.0806 -0.1017 -1.0076
 1252Sol     MW 5758   1.491   1.546   8.888  0.1807 -0.6348  1.0405
 1253Sol     OW 5759   0.659   1.920  13.000 -0.1442  0.1229 -0.6284
 1253Sol     HW 5760   0.675   1.828  12.981 -0.4449 -0.1191  0.2500
 1253Sol     HW 5761   0.694   1.932  13.089 -0.1592  0.8379 -0.7190
 1253Sol     MW 5762   0.664   1.913  13.006 -0.5399 -0.5201 -0.5659
 1254Sol     OW 5763   1.935   1.723  12.421  0.4641 -0.0863  0.1686
 1254Sol     HW 5764   1.923   1.717  12.516  0.3129 -0.9194  0.0975
 1254Sol     HW 5765   1.889   1.647  12.386 -0.5619  0.9080 -0.6769
 1254Sol     MW 5766   1.930   1.716  12.426 -0.1660  0.3188  0.1424
 1255Sol     OW 5767   2.539   2.302  10.551 -0.0056  0.5435 -0.5383
 1255Sol     HW 5768   2.582   2.340  10.628  0.9867  1.7723 -1.6646
 1255Sol     HW 5769   2.600   2.234  10.521 -1.6405 -1.7837  1.2987
 1255Sol     MW 5770   2.549   2.300  10.555 -0.0130 -0.7884  0.0492
 1256Sol     OW 5771   1.895   1.574  11.484  0.2469 -0.0464 -0.4788
 1256Sol     HW 5772   1.983   1.585  11.520  0.4457 -1.7056 -0.4447
 1256Sol     HW 5773   1.869   1.663  11.459  2.4926  0.3007 -1.8199
 1256Sol     MW 5774   1.901   1.583  11.485 -0.2580  1.1527 -0.1270
 1257Sol     OW 5775   1.248   0.692   7.572 -0.1633  0.4141  0.0483
 1257Sol     HW 5776   1.256   0.734   7.487 -0.5670  1.7423  0.6509
 1257Sol     HW 5777   1.163   0.649   7.571  0.0607 -0.0209 -0.4070
 1257Sol     MW 5778   1.241   0.692   7.564  0.7409  0.3060  0.4730
 1258Sol     OW 5779   2.407   1.651  14.242  0.0690 -0.1061 -0.0271
 1258Sol     HW 5780   2.396   1.742  14.213 -1.4029  0.4035  2.0096
 1258Sol     HW 5781   2.394   1.599  14.163  1.9706  1.4739 -1.4375
 1258Sol     MW 5782   2.405   1.655  14.232 -0.2839 -0.2819 -0.6855
 1259Sol     OW 5783   2.750   3.319  13.461  0.5673  0.3108 -0.7981
 1259Sol     HW 5784   2.737   3.387  13.396  1.1778  2.0417  0.8484
 1259Sol     HW 5785   2.839   3.287  13.446  0.2433 -0.2149 -1.6344
 1259Sol     MW 5786   2.757   3.322  13.454  0.3326 -0.1609 -0.4661
 1260Sol     OW 5787   2.601   0.582  13.808 -0.1142  0.0225 -0.2224
 1260Sol     HW 5788   2.582   0.488  13.798 -0.9494 -0.0259  1.6590
 1260Sol     HW 5789   2.515   0.623  13.815  0.2884  0.8109  0.1293
 1260Sol     MW 5790   2.591   0.577  13.807 -0.4989 -0.7574  0.4615
 1261Sol     OW 5791   0.717   0.054   8.729 -0.7750 -0.0915  0.5886
 1261Sol     HW 5792   0.629   0.015   8.732 -0.4375 -0.7879  1.4857
 1261Sol     HW 5793   0.717   0.117   8.802  0.1208 -1.4808  1.7997
 1261Sol     MW 5794   0.709   0.056   8.736  0.0045 -0.5168  1.0111
 1262Sol     OW 5795   1.655   1.142  11.602  0.3741 -0.5158  0.0703
 1262Sol     HW 5796   1.710   1.218  11.581 -0.0131  0.1873  1.5191
 1262Sol     HW 5797   1.614   1.165  11.686 -0.6086 -1.8607 -0.0299
 1262Sol     MW 5798   1.656   1.151  11.608  0.2530 -0.6322  0.0289
 1263Sol     OW 5799   2.943   0.975   9.212 -0.4205  0.0298  0.1224
 1263Sol     HW 5800   2.997   1.011   9.281 -1.3248 -1.3258  1.5816
 1263Sol     HW 5801   2.951   0.880   9.222  1.3716 -0.2393 -3.1826
 1263Sol     MW 5802   2.949   0.969   9.219 -0.1454 -0.1039 -0.1407
 1264Sol     OW 5803   0.140   1.231  12.691 -0.0183  0.1978  0.0151
 1264Sol     HW 5804   0.222   1.263  12.728  0.7330  0.3059 -1.7120
 1264Sol     HW 5805   0.115   1.297  12.625 -1.0489 -0.2578 -0.0672
 1264Sol     MW 5806   0.145   1.240  12.688 -0.0912  0.2639 -0.5167
 1265Sol     OW 5807   3.188   2.520   8.825  0.6714  0.6758 -0.4236
 1265Sol     HW 5808   3.243   2.506   8.902  0.7007  0.3334 -0.5032
 1265Sol     HW 5809   3.235   2.475   8.755 -0.0136 -0.1400 -0.3647
 1265Sol     MW 5810   3.197   2.514   8.826 -0.3936  0.3823  0.4092
 1266Sol     OW 5811   2.662   1.542  14.344  0.0859  0.5598  0.5850
 1266Sol     HW 5812   2.596   1.606  14.319 -1.3884 -0.9993  0.3287
 1266Sol     HW 5813   2.611   1.465  14.371  1.8129 -1.2420 -1.1231
 1266Sol     MW 5814   2.651   1.541  14.344  0.2761  0.3003  0.0423
 1267Sol     OW 5815   2.744   2.667   7.607  0.0293  0.2255  0.1510
 1267Sol     HW 5816   2.658   2.641   7.640 -0.0318  1.2795  0.8330
 1267Sol     HW 5817   2.790   2.699   7.684  0.9656 -0.1384 -0.2527
 1267Sol     MW 5818   2.740   2.667   7.617  0.0538  0.8074 -0.1999
 1268Sol     OW 5819   2.472   0.259  10.733  0.9505 -0.0041  0.5327
 1268Sol     HW 5820   2.425   0.341  10.747  0.5929  0.0339 -0.8648
 1268Sol     HW 5821   2.422   0.194  10.782  2.4265  0.9375  3.4655
 1268Sol     MW 5822   2.463   0.260  10.739 -0.0547 -0.0802  0.1624
 1269Sol     OW 5823   2.545   1.267  12.257  0.1995 -0.0285 -0.1293
 1269Sol     HW 5824   2.538   1.173  12.271  1.0481 -0.2575 -1.2015
 1269Sol     HW 5825   2.638   1.286  12.269 -0.0455  0.7728  0.6123
 1269Sol     MW 5826   2.553   1.260  12.260  0.3797  0.8926  0.2704
 1270Sol     OW 5827   0.731   0.182  13.770  0.8513  0.0465  0.1425
 1270Sol     HW 5828   0.713   0.257  13.713  1.2802  1.8250  2.2841
 1270Sol     HW 5829   0.654   0.126  13.760  0.7127  0.5507 -1.8000
 1270Sol     MW 5830   0.722   0.184  13.764 -0.2314  0.2441 -0.3802
 1271Sol     OW 5831   1.823   3.364  13.016 -0.1533 -0.0040 -0.0402
 1271Sol     HW 5832   1.756   3.295  13.022  0.3026 -0.4849 -0.3999
 1271Sol     HW 5833   1.899   3.327  13.060 -0.2016  0.6489  0.6053
 1271Sol     MW 5834   1.823   3.354  13.020  0.5730  0.4334 -0.5471
 1272Sol     OW 5835   0.505   3.313   8.651  0.3614 -0.0057 -0.3484
 1272Sol     HW 5836   0.486   3.250   8.720 -2.0537  1.0107  0.0035
 1272Sol     HW 5837   0.577   3.275   8.602  1.0369 -1.5227  1.7497
 1272Sol     MW 5838   0.510   3.304   8.653 -0.0968  0.3447  0.1569
 1273Sol     OW 5839   2.395   2.025   9.435 -0.2382  0.2203  0.1060
 1273Sol     HW 5840   2.417   1.960   9.368  0.0190  0.9815 -0.5633
 1273Sol     HW 5841   2.300   2.022   9.442 -0.1243 -1.2450  1.1250
 1273Sol     MW 5842   2.389   2.019   9.430  0.6549  0.3537 -0.2168
 1274Sol     OW 5843   1.417   2.355  13.229 -0.5853  0.0301 -0.1160
 1274Sol     HW 5844   1.508   2.343  13.202 -1.1000 -1.7076 -1.1930
 1274Sol     HW 5845   1.420   2.422  13.297  1.6675 -1.1275  0.9633
 1274Sol     MW 5846   1.425   2.360  13.232 -0.2321  0.3064 -0.0816
 1275Sol     OW 5847   0.053   1.299  10.451 -0.2810 -0.0650  0.0462
 1275Sol     HW 5848   0.008   1.324  10.532 -0.6859 -0.1319 -0.1550
 1275Sol     HW 5849   0.122   1.364  10.441 -0.7257  0.4078  0.0332
 1275Sol     MW 5850   0.055   1.307  10.457  0.0080 -0.4330 -0.4298
 1276Sol     OW 5851   3.223   2.304   9.818  0.0755 -0.4537  0.1883
 1276Sol     HW 5852   3.287   2.267   9.758 -1.2001  1.2768 -2.3132
 1276Sol     HW 5853   3.273   2.365   9.873  0.9278 -0.6650 -0.3591
 1276Sol     MW 5854   3.233   2.307   9.818 -0.0753 -0.3987  0.0861
 1277Sol     OW 5855   1.335   1.638  14.111 -0.1035  0.6486 -0.7459
 1277Sol     HW 5856   1.269   1.704  14.089 -1.5962  0.1030  1.8289
 1277Sol     HW 5857   1.415   1.688  14.126 -1.1463  1.9106  0.8916
 1277Sol     MW 5858   1.336   1.649  14.111 -0.4557 -0.0561  0.2385
 1278Sol     OW 5859   1.317   2.077  10.386  0.0391  0.1511 -0.2590
 1278Sol     HW 5860   1.307   2.065  10.480  1.1363  0.8755 -0.0389
 1278Sol     HW 5861   1.362   1.999  10.356  1.0782  0.6185  0.0715
 1278Sol     MW 5862   1.320   2.069  10.392  0.1968 -0.1318 -0.3599
 1279Sol     OW 5863   2.564   0.286  11.683  0.5909  0.5654  0.4044
 1279Sol     HW 5864   2.489   0.226  11.689 -0.6024  1.9160 -0.5842
 1279Sol     HW 5865   2.626   0.242  11.625 -0.8732  0.8515 -1.4297
 1279Sol     MW 5866   2.563   0.277  11.678 -0.3048 -0.2324 -0.0174
 1280Sol     OW 5867   3.302   0.372  12.567 -0.1583  0.1394 -0.2767
 1280Sol     HW 5868   3.262   0.299  12.521 -2.1001  0.5637  0.6935
 1280Sol     HW 5869   3.275   0.449  12.517 -0.8195  0.4523  0.5519
 1280Sol     MW 5870   3.296   0.373  12.559  0.4571  0.7850 -0.0594
 1281Sol     OW 5871   1.128   2.651   7.201 -0.0094  0.4967  0.0147
 1281Sol     HW 5872   1.149   2.737   7.166  0.3909 -0.3509 -1.8721
 1281Sol     HW 5873   1.209   2.601   7.192 -0.4985 -0.3566  0.2799
 1281Sol     MW 5874   1.137   2.654   7.197 -0.3910 -1.3258 -0.1823
 1282Sol     OW 5875   0.796   1.633  12.941  0.2079 -0.0424 -0.5593
 1282Sol     HW 5876   0.843   1.558  12.977 -1.0513 -0.2107  0.7974
 1282Sol     HW 5877   0.703   1.609  12.947 -0.3356  2.3286  1.6422
 1282Sol     MW 5878   0.792   1.624  12.945  0.2460  0.2455 -0.2057
 1283Sol     OW 5879   1.097   1.727  12.652 -0.0348 -0.0148  0.3595
 1283Sol     HW 5880   1.121   1.713  12.743 -0.9318  2.1332  0.9669
 1283Sol     HW 5881   1.007   1.696  12.646 -0.6906  1.7417  0.7489
 1283Sol     MW 5882   1.091   1.723  12.660  0.8805 -0.1893 -0.7640
 1284Sol     OW 5883   1.637   0.406  10.549 -0.2561 -0.1470  0.0139
 1284Sol     HW 5884   1.549   0.370  10.539 -0.3054  0.3659 -1.5651
 1284Sol     HW 5885   1.688   0.361  10.482  0.4557  0.2663  0.2796
 1284Sol     MW 5886   1.634   0.399  10.542  0.5503  0.5700 -0.4619
 1285Sol     OW 5887   1.783   3.067  12.199  0.4415 -0.2353 -0.5606
 1285Sol     HW 5888   1.852   3.107  12.251  0.9283  1.5756 -2.5005
 1285Sol     HW 5889   1.736   3.142  12.161 -0.9853 -1.4765 -1.2801
 1285Sol     MW 5890   1.785   3.078  12.200  0.2925  0.4230 -0.2836
 1286Sol     OW 5891   2.588   1.438   6.711  0.1701  0.5902  0.1951
 1286Sol     HW 5892   2.576   1.518   6.762 -1.3237  0.3649  0.1932
 1286Sol     HW 5893   2.526   1.445   6.639  3.0036  1.3998 -2.2636
 1286Sol     MW 5894   2.582   1.446   6.709  0.0415 -0.1020  0.6037
 1287Sol     OW 5895   1.638   0.643   6.120 -0.3823  0.7638 -0.4406
 1287Sol     HW 5896   1.586   0.626   6.041 -0.7180  0.6848 -0.2018
 1287Sol     HW 5897   1.681   0.559   6.138 -1.0737  0.5061  0.0244
 1287Sol     MW 5898   1.637   0.634   6.114 -0.0593 -0.3991 -0.1167
 1288Sol     OW 5899   2.113   0.257   6.761 -0.4464  0.5913 -0.5512
 1288Sol     HW 5900   2.157   0.222   6.839 -0.8053  1.2533 -0.0544
 1288Sol     HW 5901   2.171   0.327   6.731 -0.2341  0.2388 -0.9691
 1288Sol     MW 5902   2.122   0.260   6.766 -0.1303  0.4314 -0.0760
 1289Sol     OW 5903   2.114   0.823   6.698  0.2958 -0.0301  0.0873
 1289Sol     HW 5904   2.034   0.789   6.738  1.5397 -0.9715  1.8715
 1289Sol     HW 5905   2.090   0.840   6.607 -1.9614 -0.1403  0.6298
 1289Sol     MW 5906   2.105   0.821   6.694  0.6718  0.8016  0.7524
 1290Sol     OW 5907   1.420   0.664   9.096 -0.3210  0.1432  0.4210
 1290Sol     HW 5908   1.400   0.745   9.049 -2.4740 -0.7331 -0.2564
 1290Sol     HW 5909   1.472   0.613   9.034 -2.4620 -0.6703 -0.7750
 1290Sol     MW 5910   1.423   0.667   9.086  0.3509  1.0658 -0.1933
 1291Sol     OW 5911   0.354   0.848   9.140 -0.2332  0.0492 -0.0853
 1291Sol     HW 5912   0.313   0.762   9.127 -1.5728  0.9986 -2.3258
 1291Sol     HW 5913   0.312   0.882   9.219 -0.8270 -0.7208 -0.0616
 1291Sol     MW 5914   0.346   0.843   9.146  0.2630  0.4067 -0.0324
 1292Sol     OW 5915   2.786   1.387  14.100  0.0048  0.0071  0.0438
 1292Sol     HW 5916   2.815   1.447  14.169  1.4201 -0.8050  0.1555
 1292Sol     HW 5917   2.815   1.301  14.129  0.0549 -0.4217 -1.2640
 1292Sol     MW 5918   2.791   1.385  14.109 -0.3863  0.4210  0.0607
 1293Sol     OW 5919   2.397   0.495   9.341 -1.1962  0.1082  0.2536
 1293Sol     HW 5920   2.364   0.441   9.269 -0.3298 -0.2628  0.1253
 1293Sol     HW 5921   2.485   0.461   9.358 -0.7565  1.2833  0.3736
 1293Sol     MW 5922   2.402   0.488   9.336  0.6235  0.0261  0.9082
 1294Sol     OW 5923   3.233   1.192  12.812 -0.3425  0.0945  0.0254
 1294Sol     HW 5924   3.176   1.213  12.739 -0.4147 -2.2962 -0.6366
 1294Sol     HW 5925   3.321   1.192  12.775 -0.3439 -0.7416  0.0081
 1294Sol     MW 5926   3.236   1.194  12.803  0.3387  0.3756 -0.0461
 1295Sol     OW 5927   0.714   0.840  13.499  0.0346  0.2072 -0.3182
 1295Sol     HW 5928   0.699   0.804  13.411  0.1504  0.3696 -0.4045
 1295Sol     HW 5929   0.627   0.870  13.527 -0.1564 -0.5975 -0.0393
 1295Sol     MW 5930   0.704   0.840  13.493 -0.1866 -0.5692 -0.0127
 1296Sol     OW 5931   1.017   0.791  12.762  0.0168  0.1252 -0.0600
 1296Sol     HW 5932   1.091   0.815  12.706 -0.0657  1.7013  0.4664
 1296Sol     HW 5933   1.057   0.747  12.837  0.3704  0.3984 -0.0853
 1296Sol     MW 5934   1.027   0.790  12.764 -0.6208 -0.4807 -0.4292
 1297Sol     OW 5935   3.034   0.895   7.299 -0.0849 -0.2365  0.0213
 1297Sol     HW 5936   3.035   0.800   7.290 -1.0367 -0.1904 -0.6329
 1297Sol     HW 5937   2.942   0.919   7.294  0.0148  0.5941  1.6249
 1297Sol     MW 5938   3.026   0.889   7.298  0.1401  0.2990  0.0611
 1298Sol     OW 5939   1.203   1.280  11.710  0.0705 -0.6148 -0.1828
 1298Sol     HW 5940   1.243   1.325  11.784 -1.3348 -2.2731  1.6506
 1298Sol     HW 5941   1.216   1.187  11.729 -3.2002 -1.1574 -0.3142
 1298Sol     MW 5942   1.207   1.276  11.718 -0.1824  0.5170  0.3325
 1299Sol     OW 5943   1.771   0.565   8.355  0.0279  0.4476 -0.0900
 1299Sol     HW 5944   1.819   0.595   8.278  0.0712 -0.3086 -0.3673
 1299Sol     HW 5945   1.834   0.573   8.427  0.4933 -0.3046 -0.4085
 1299Sol     MW 5946   1.781   0.568   8.355 -0.2146  0.7790 -0.9027
 1300Sol     OW 5947   0.830   2.280  10.556 -0.0003  0.0203  0.1218
 1300Sol     HW 5948   0.849   2.297  10.464 -0.7955 -1.2281 -0.2806
 1300Sol     HW 5949   0.882   2.202  10.578 -1.2631 -0.8079  0.2035
 1300Sol     MW 5950   0.837   2.274  10.550  0.4501 -0.2121 -0.3433
 1301Sol     OW 5951   3.017   2.688  13.919  0.2180  0.1040 -0.5006
 1301Sol     HW 5952   2.980   2.633  13.988 -0.3728  1.9705  0.7205
 1301Sol     HW 5953   2.971   2.660  13.839  0.8544 -2.0251 -0.1596
 1301Sol     MW 5954   3.010   2.680  13.918 -0.1499  0.3249 -0.1146
 1302Sol     OW 5955   0.129   0.667   8.121  0.2203 -0.2893  0.3294
 1302Sol     HW 5956   0.103   0.581   8.089  0.4671 -0.2007 -0.1023
 1302Sol     HW 5957   0.209   0.651   8.170 -0.4153 -0.4987  1.3156
 1302Sol     MW 5958   0.134   0.658   8.123 -0.1865  1.0965 -0.5917
 1303Sol     OW 5959   0.180   1.552  11.906  0.0335  0.1131 -0.2014
 1303Sol     HW 5960   0.244   1.622  11.906 -0.2170  0.3458 -0.6365
 1303Sol     HW 5961   0.133   1.562  11.823  0.6064 -1.1269 -0.6833
 1303Sol     MW 5962   0.181   1.559  11.899 -0.5718 -0.3827 -0.2208
 1304Sol     OW 5963   1.752   2.793  12.857 -0.1666  0.6734  0.1977
 1304Sol     HW 5964   1.766   2.807  12.951  1.2676  0.6989 -0.0190
 1304Sol     HW 5965   1.658   2.807  12.845 -0.8061 -1.7816  2.0421
 1304Sol     MW 5966   1.745   2.796  12.864  0.6852 -0.3446  0.0017
 1305Sol     OW 5967   0.937   3.260   6.294 -0.0396  0.5565  0.3208
 1305Sol     HW 5968   0.958   3.338   6.347 -0.9151  0.9344  0.1241
 1305Sol     HW 5969   0.861   3.287   6.242 -0.5169 -0.5242  0.4555
 1305Sol     MW 5970   0.932   3.270   6.294 -0.1354 -0.4472 -0.3920
 1306Sol     OW 5971   1.638   2.770  10.498  0.5460  0.0691  0.7570
 1306Sol     HW 5972   1.721   2.814  10.518  1.7422 -2.2154  0.9448
 1306Sol     HW 5973   1.653   2.730  10.413 -1.2495  1.6867 -0.3676
 1306Sol     MW 5974   1.647   2.771  10.492  0.6175 -0.1668  1.4358
 1307Sol     OW 5975   1.050   1.279   8.133 -0.3579 -0.1874  0.6951
 1307Sol     HW 5976   1.025   1.345   8.198  0.3178  1.0109 -0.2398
 1307Sol     HW 5977   1.058   1.328   8.051  3.0485 -0.8793  0.5379
 1307Sol     MW 5978   1.048   1.289   8.132  0.2996 -0.1492  0.0136
 1308Sol     OW 5979   0.144   2.794   6.572 -0.1694 -0.3188 -0.3906
 1308Sol     HW 5980   0.154   2.713   6.622  0.9191  1.0244  1.6228
 1308Sol     HW 5981   0.176   2.772   6.484  0.5197 -1.9329  0.2546
 1308Sol     MW 5982   0.148   2.784   6.568 -0.0049  0.1499  0.5806
 1309Sol     OW 5983   3.249   2.908   7.858  0.2459  0.6947  0.6892
 1309Sol     HW 5984   3.237   2.975   7.790 -0.4278 -0.7029 -0.6030
 1309Sol     HW 5985   3.230   2.826   7.813  2.8856 -0.5436  1.7389
 1309Sol     MW 5986   3.247   2.907   7.848 -0.1945 -0.4752 -0.3548
 1310Sol     OW 5987   2.106   1.953   7.868 -0.0083 -0.3315  0.5037
 1310Sol     HW 5988   2.073   1.867   7.892 -1.7703  0.3994  0.7972
 1310Sol     HW 5989   2.190   1.960   7.913 -0.8942 -1.0170  2.3234
 1310Sol     MW 5990   2.110   1.946   7.874 -0.4435 -0.2932 -0.0077
 1311Sol     OW 5991   1.768   3.113   8.909  0.1115 -0.0562 -0.1352
 1311Sol     HW 5992   1.774   3.208   8.916  0.5774  0.0259 -1.4080
 1311Sol     HW 5993   1.787   3.095   8.816 -0.0495 -1.3755  0.0787
 1311Sol     MW 5994   1.770   3.120   8.901  0.3313  0.0751 -0.0261
 1312Sol     OW 5995   0.057   2.428   6.364  0.1401 -0.4540 -0.3550
 1312Sol     HW 5996   0.123   2.390   6.421  1.2514 -0.2397 -1.4728
 1312Sol     HW 5997  -0.026   2.406   6.406  0.8053 -2.8397 -0.1984
 1312Sol     MW 5998   0.055   2.422   6.373 -0.1271 -0.0567 -0.2894
 1313Sol     OW 5999   1.156   2.338  14.139 -0.2459  0.1912  0.5055
 1313Sol     HW 6000   1.078   2.288  14.162 -0.7367  1.5089  1.7996
 1313Sol     HW 6001   1.167   2.323  14.045 -1.0620 -1.3727  0.6421
 1313Sol     MW 6002   1.150   2.332  14.133 -0.4140 -0.0869 -0.3992
 1314Sol     OW 6003   2.607   1.355   7.630  0.0508 -0.0070  0.2801
 1314Sol     HW 6004   2.696   1.378   7.657  0.6001 -1.6623 -0.0701
 1314Sol     HW 6005   2.552   1.387   7.701  1.2608 -2.1549  2.2814
 1314Sol     MW 6006   2.610   1.360   7.638 -0.7554  0.6149  0.3554
 1315Sol     OW 6007   1.825   2.353   9.542 -0.4469  0.8450  0.5245
 1315Sol     HW 6008   1.918   2.331   9.553 -0.2680  1.6375  0.6000
 1315Sol     HW 6009   1.808   2.419   9.610 -0.6959  1.7796 -0.4400
 1315Sol     MW 6010   1.832   2.357   9.549 -0.2923 -0.0363 -0.7621
 1316Sol     OW 6011   1.956   1.672   7.655  0.3934  0.1526 -0.4865
 1316Sol     HW 6012   2.005   1.650   7.734 -0.8137  1.8956  0.7915
 1316Sol     HW 6013   1.946   1.589   7.609  1.7956 -0.7465  0.7907
 1316Sol     MW 6014   1.959   1.663   7.658  0.4409 -0.3665  0.1187
 1317Sol     OW 6015   0.702   2.984   8.815 -0.2271 -0.3230  0.0151
 1317Sol     HW 6016   0.740   3.063   8.854  0.9119 -0.3236 -1.0440
 1317Sol     HW 6017   0.747   2.975   8.731  0.0934 -2.4296  0.3795
 1317Sol     MW 6018   0.710   2.991   8.811 -0.0582 -0.2050  0.2926
 1318Sol     OW 6019   2.941   0.626   9.905 -0.0852  0.0804 -0.1364
 1318Sol     HW 6020   2.968   0.549   9.955  1.0070 -0.2827 -1.2631
 1318Sol     HW 6021   2.956   0.699   9.964  3.4975 -0.1063 -0.7167
 1318Sol     MW 6022   2.945   0.626   9.915  0.1047 -0.1402 -0.0995
 1319Sol     OW 6023   0.927   0.203   6.347  0.3574 -0.1257 -0.0466
 1319Sol     HW 6024   1.023   0.211   6.347  0.2472  1.4679 -0.3831
 1319Sol     HW 6025   0.900   0.253   6.424 -0.2826  0.6110 -0.7434
 1319Sol     MW 6026   0.933   0.208   6.354 -0.0611 -0.1555 -0.0388
 1320Sol     OW 6027   1.585   0.471   7.090 -0.0718 -0.0034  0.1523
 1320Sol     HW 6028   1.631   0.503   7.167  0.3169 -0.1399 -0.0214
 1320Sol     HW 6029   1.553   0.550   7.046  0.2641  0.1068  0.1076
 1320Sol     MW 6030   1.586   0.481   7.093  0.2872 -0.1540  0.1002
 1321Sol     OW 6031   1.339   1.862   8.653  0.1458 -0.4355 -0.3789
 1321Sol     HW 6032   1.411   1.869   8.716 -0.1101  2.4054 -0.3239
 1321Sol     HW 6033   1.309   1.771   8.660  1.8128 -0.8591  1.7230
 1321Sol     MW 6034   1.342   1.854   8.659 -0.6366 -0.2148  0.2553
 1322Sol     OW 6035   3.050   2.142   7.696 -0.2079 -0.1797  0.1034
 1322Sol     HW 6036   3.071   2.165   7.786 -1.4900 -0.2070  0.4075
 1322Sol     HW 6037   2.995   2.065   7.702 -0.5910  0.0221 -0.6851
 1322Sol     MW 6038   3.047   2.137   7.704  0.0225  0.4206 -0.2087
 1323Sol     OW 6039   1.626   1.584  10.864  0.5098 -0.5370 -0.1336
 1323Sol     HW 6040   1.616   1.662  10.810  1.1599 -0.0449  0.4420
 1323Sol     HW 6041   1.665   1.617  10.946  1.6368 -1.5998 -0.2357
 1323Sol     MW 6042   1.629   1.594  10.867 -0.4832 -0.0262 -0.5490
 1324Sol     OW 6043   1.917   2.464   9.310 -0.3360 -0.3264 -0.1423
 1324Sol     HW 6044   1.873   2.419   9.383 -0.6466  0.8765  0.4204
 1324Sol     HW 6045   2.008   2.436   9.317 -0.5296 -0.8966  0.1886
 1324Sol     MW 6046   1.921   2.457   9.317  0.0067  0.2898 -0.7275
 1325Sol     OW 6047   1.204   0.196   6.356  0.0475  0.2859  0.2701
 1325Sol     HW 6048   1.257   0.127   6.398  1.3702  0.3376 -1.2792
 1325Sol     HW 6049   1.265   0.269   6.345 -0.1173  0.0786 -2.2357
 1325Sol     MW 6050   1.214   0.196   6.359  0.0819  0.3625 -0.6317
 1326Sol     OW 6051   0.309   2.993  13.255  0.2400 -0.2390 -0.3502
 1326Sol     HW 6052   0.381   2.947  13.212  1.5221  2.2862 -0.9563
 1326Sol     HW 6053   0.331   2.991  13.348  0.1192 -1.1237 -0.3385
 1326Sol     MW 6054   0.317   2.989  13.260  0.3040  0.0306 -0.3694
 1327Sol     OW 6055   2.959   3.290  12.904 -0.4622  0.2352  0.1141
 1327Sol     HW 6056   2.988   3.361  12.847 -0.0118 -1.0811 -1.3366
 1327Sol     HW 6057   2.866   3.308  12.918 -0.5916  0.5646 -1.0803
 1327Sol     MW 6058   2.953   3.298  12.900 -0.3777  0.4364  0.4871
 1328Sol     OW 6059   1.641   0.925   8.796 -0.0312 -1.0952 -0.0034
 1328Sol     HW 6060   1.594   0.903   8.877 -0.8156  0.6130  0.0200
 1328Sol     HW 6061   1.655   0.841   8.753 -2.3494 -1.7199  0.4043
 1328Sol     MW 6062   1.638   0.916   8.800  0.0270  0.3506  0.1353
 1329Sol     OW 6063   2.008   1.598   6.725 -0.4848 -0.0096 -0.8411
 1329Sol     HW 6064   2.094   1.556   6.717  0.2308  1.4875 -1.1415
 1329Sol     HW 6065   2.022   1.689   6.698 -1.9629  0.4973 -0.0025
 1329Sol     MW 6066   2.017   1.602   6.722 -0.0318 -0.5415 -0.2917
 1330Sol     OW 6067   1.332   3.019   6.389 -0.3459  0.4430  0.0112
 1330Sol     HW 6068   1.297   2.935   6.357  1.1661  0.3340 -1.3981
 1330Sol     HW 6069   1.257   3.062   6.429 -1.3258 -1.2514  0.0609
 1330Sol     MW 6070   1.322   3.015   6.390  0.4884 -0.2067 -0.1312
 1331Sol     OW 6071   1.324   2.633  10.819 -0.3699  0.0041 -0.1315
 1331Sol     HW 6072   1.282   2.711  10.784 -0.2540 -0.4050 -1.2043
 1331Sol     HW 6073   1.417   2.646  10.799 -0.4252 -0.6787 -0.8413
 1331Sol     MW 6074   1.329   2.641  10.814 -0.6479  0.1467  0.3716
 1332Sol     OW 6075   2.217   2.743  13.147  0.5399 -0.1527 -0.4449
 1332Sol     HW 6076   2.297   2.695  13.125  0.0652 -0.8621 -0.6362
 1332Sol     HW 6077   2.149   2.700  13.096  0.6230  2.7717 -3.2630
 1332Sol     MW 6078   2.218   2.735  13.140  1.0641  0.2084 -0.0854
 1333Sol     OW 6079   0.745   0.338   6.200 -0.1960 -0.5221 -0.2852
 1333Sol     HW 6080   0.813   0.287   6.244  0.2791 -1.1538 -1.7099
 1333Sol     HW 6081   0.739   0.419   6.250 -0.6304 -1.7753  1.7409
 1333Sol     MW 6082   0.751   0.340   6.208  0.0308  0.3354 -0.5121
 1334Sol     OW 6083   2.397   1.351   8.082  0.2383  0.1401  0.0937
 1334Sol     HW 6084   2.400   1.258   8.062  1.1376 -0.0520  1.0713
 1334Sol     HW 6085   2.305   1.368   8.104  0.0594 -0.4996 -0.1605
 1334Sol     MW 6086   2.389   1.344   8.082 -0.1764  0.3303  0.3204
 1335Sol     OW 6087   3.069   1.530  13.033 -0.1732 -0.4440  0.1339
 1335Sol     HW 6088   3.057   1.438  13.012  0.2724 -0.5294  0.2474
 1335Sol     HW 6089   2.980   1.564  13.041 -0.3415 -0.6934 -0.6244
 1335Sol     MW 6090   3.060   1.525  13.032 -0.1656  0.2260 -0.0289
 1336Sol     OW 6091   1.723   2.454   6.761  0.6191  0.4117  0.0527
 1336Sol     HW 6092   1.679   2.372   6.741  1.4698 -0.5924  2.1185
 1336Sol     HW 6093   1.656   2.522   6.748 -0.7063 -0.8045  0.4493
 1336Sol     MW 6094   1.713   2.453   6.758 -0.5976 -0.7047  0.9525
 1337Sol     OW 6095   1.072   1.705   7.337  0.3874 -0.6607  0.0066
 1337Sol     HW 6096   1.104   1.616   7.355 -1.1772 -1.4484 -0.9952
 1337Sol     HW 6097   0.981   1.693   7.310 -0.2866  1.3811  1.2059
 1337Sol     MW 6098   1.067   1.696   7.336  0.3343 -0.3086  0.1655
 1338Sol     OW 6099   0.145   0.683  12.881 -0.1437 -0.3709 -0.7814
 1338Sol     HW 6100   0.214   0.747  12.900 -1.4201  1.1325 -1.1056
 1338Sol     HW 6101   0.178   0.635  12.805  0.2267  0.8404 -1.4104
 1338Sol     MW 6102   0.154   0.685  12.876 -0.1910 -0.3340 -0.0764
 1339Sol     OW 6103   1.167   1.230   6.605  1.1486  0.3284 -0.0290
 1339Sol     HW 6104   1.158   1.225   6.700  1.4503 -0.9642 -0.0581
 1339Sol     HW 6105   1.209   1.148   6.580 -0.2318  0.0091 -1.4287
 1339Sol     MW 6106   1.170   1.223   6.611  0.5852  0.2373  0.4938
 1340Sol     OW 6107   0.636   0.129   6.445 -0.6688  0.1331  0.2485
 1340Sol     HW 6108   0.556   0.096   6.485 -1.0267  0.3084 -0.3295
 1340Sol     HW 6109   0.624   0.116   6.351  0.1666 -0.2599  0.1921
 1340Sol     MW 6110   0.628   0.125   6.440  0.3178  0.0274 -0.6006
 1341Sol     OW 6111   1.766   1.699  11.077  0.0636  0.5473 -0.1216
 1341Sol     HW 6112   1.818   1.779  11.080  0.7344  0.0868  0.4735
 1341Sol     HW 6113   1.717   1.699  11.159 -0.9273  0.9994 -0.6944
 1341Sol     MW 6114   1.766   1.706  11.084 -0.9418 -0.0397  0.1887
 1342Sol     OW 6115   2.496   0.380   7.150  0.0671 -0.1581 -0.3217
 1342Sol     HW 6116   2.423   0.339   7.197  1.5202 -2.4199  0.0485
 1342Sol     HW 6117   2.492   0.343   7.062  0.8581 -0.4034 -0.2554
 1342Sol     MW 6118   2.489   0.373   7.147  0.1281  0.4060  0.3545
 1343Sol     OW 6119   1.383   2.616  12.622 -0.0654  0.2028 -0.3431
 1343Sol     HW 6120   1.294   2.627  12.656  0.1553  1.4277 -0.1543
 1343Sol     HW 6121   1.426   2.559  12.686 -0.8883 -0.9228 -0.7639
 1343Sol     MW 6122   1.379   2.612  12.631 -0.4307  0.6875  0.5280
 1344Sol     OW 6123   2.659   2.147  12.469  0.0556 -0.2284  0.5619
 1344Sol     HW 6124   2.745   2.182  12.490 -0.5290  1.6548 -0.1170
 1344Sol     HW 6125   2.655   2.149  12.373 -0.0032 -2.1579  0.4969
 1344Sol     MW 6126   2.666   2.150  12.462  0.4279  0.1272 -0.3244
 1345Sol     OW 6127   2.210   0.178   7.008  0.1032 -0.4658 -0.5687
 1345Sol     HW 6128   2.129   0.138   7.038 -0.1430  0.0687 -0.5098
 1345Sol     HW 6129   2.239   0.233   7.082  0.4669 -0.5846 -0.6219
 1345Sol     MW 6130   2.205   0.180   7.018 -0.4789 -0.5590 -0.6811
 1346Sol     OW 6131   1.957   0.915  12.098 -0.0385 -0.2516  0.4162
 1346Sol     HW 6132   1.921   0.830  12.124 -0.4227 -0.3201 -0.3072
 1346Sol     HW 6133   2.052   0.903  12.101 -0.0630 -1.2899 -1.4420
 1346Sol     MW 6134   1.962   0.906  12.100 -0.4011  0.2117 -0.7936
 1347Sol     OW 6135   1.205   0.664   7.115  0.7410  0.4699 -0.3587
 1347Sol     HW 6136   1.242   0.717   7.186  2.4671  0.8882 -1.5621
 1347Sol     HW 6137   1.117   0.641   7.146  1.3598  0.9012  1.7855
 1347Sol     MW 6138   1.200   0.666   7.124  0.6102 -0.6319  0.7052
 1348Sol     OW 6139   1.774   3.097  13.149 -0.3164  0.3456  0.1888
 1348Sol     HW 6140   1.705   3.058  13.203  0.2284  1.2827  1.5887
 1348Sol     HW 6141   1.828   3.023  13.123 -0.9004 -0.1928  0.4787
 1348Sol     MW 6142   1.772   3.087  13.152  0.1482 -0.7368  0.3155
 1349Sol     OW 6143   1.947   1.879  11.579 -0.0119  0.2531 -0.2746
 1349Sol     HW 6144   2.019   1.934  11.547 -0.3754  1.1347  0.4088
 1349Sol     HW 6145   1.970   1.861  11.670 -1.7307  2.3701  0.6255
 1349Sol     MW 6146   1.956   1.883  11.584  0.0873  0.0851 -0.1090
 1350Sol     OW 6147   0.771   2.201   6.266  0.3763 -0.2972 -0.3444
 1350Sol     HW 6148   0.746   2.123   6.217 -0.3098  0.3648 -1.0625
 1350Sol     HW 6149   0.708   2.268   6.239  0.7301  0.4097  0.5348
 1350Sol     MW 6150   0.763   2.200   6.260  0.4791  0.4879 -0.3412
 1351Sol     OW 6151   2.312   0.460  13.419  0.1115  0.0096 -0.3049
 1351Sol     HW 6152   2.265   0.474  13.336 -0.1400  0.6169 -0.0661
 1351Sol     HW 6153   2.304   0.367  13.436  0.2885 -0.1464 -1.0445
 1351Sol     MW 6154   2.307   0.453  13.413 -0.5094 -0.1868  0.0887
 1352Sol     OW 6155   0.272   0.512  12.006 -0.1236 -0.1576 -0.5500
 1352Sol     HW 6156   0.201   0.461  12.044  0.0674 -0.4318 -0.5593
 1352Sol     HW 6157   0.239   0.602  12.003  0.3754  0.1249  1.5731
 1352Sol     MW 6158   0.263   0.516  12.009 -0.2563  0.4935 -0.2853
 1353Sol     OW 6159   1.635   0.553   9.503  0.2400  0.1293 -0.7573
 1353Sol     HW 6160   1.689   0.611   9.558 -0.7782 -0.0705  0.4752
 1353Sol     HW 6161   1.593   0.612   9.440  2.0624  0.2591 -1.8869
 1353Sol     MW 6162   1.636   0.564   9.502  0.0952  0.0774 -0.3590
 1354Sol     OW 6163   2.400   1.157   9.130  0.5595 -0.2416 -0.7756
 1354Sol     HW 6164   2.468   1.107   9.176  1.1081  0.6204 -0.6466
 1354Sol     HW 6165   2.325   1.097   9.127  1.3586 -1.2491 -1.0380
 1354Sol     MW 6166   2.399   1.147   9.134 -0.6029 -0.3971  0.4660
 1355Sol     OW 6167   1.135   1.287  13.177  0.2594 -0.2886 -0.1130
 1355Sol     HW 6168   1.122   1.210  13.121 -1.2496 -1.4357  1.7813
 1355Sol     HW 6169   1.059   1.343  13.159  0.4572 -0.0319 -0.1656
 1355Sol     MW 6170   1.127   1.285  13.170 -0.2269 -0.5126  0.1689
 1356Sol     OW 6171   2.196   2.475  12.073  0.4008  0.0205  0.8442
 1356Sol     HW 6172   2.120   2.421  12.094  0.9502 -1.3512 -0.5919
 1356Sol     HW 6173   2.169   2.524  11.996  0.4359  0.6979  1.2586
 1356Sol     MW 6174   2.187   2.475  12.068 -0.5114  0.4245 -0.1578
 1357Sol     OW 6175   0.372   2.531   8.043  0.1077 -0.2092 -0.0907
 1357Sol     HW 6176   0.335   2.449   8.077  0.0680 -0.3866 -0.5690
 1357Sol     HW 6177   0.295   2.586   8.027  0.1644  0.1543  0.8154
 1357Sol     MW 6178   0.361   2.529   8.045 -0.7079 -0.2983 -0.0556
 1358Sol     OW 6179   0.752   0.602  14.180  0.6432 -0.0188  0.4381
 1358Sol     HW 6180   0.736   0.560  14.095  0.1476  0.3969  0.3299
 1358Sol     HW 6181   0.841   0.638  14.172 -0.2379  1.9801 -0.7111
 1358Sol     MW 6182   0.759   0.601  14.171 -0.1637 -0.0011  0.1574
 1359Sol     OW 6183   0.588   2.364  12.775 -0.5953  0.2476 -0.6286
 1359Sol     HW 6184   0.535   2.443  12.769  0.3610  1.1395  2.0571
 1359Sol     HW 6185   0.661   2.388  12.833  0.2957 -2.2833 -0.6315
 1359Sol     MW 6186   0.590   2.373  12.780 -0.3120 -0.4570 -0.8105
 1360Sol     OW 6187   2.503   2.887  13.061  0.6638  0.0159 -1.3055
 1360Sol     HW 6188   2.413   2.874  13.031 -0.0278  2.3904 -0.4036
 1360Sol     HW 6189   2.557   2.873  12.983 -0.7358  1.4718 -2.5838
 1360Sol     MW 6190   2.500   2.885  13.051 -0.2036 -0.4415 -0.2487
 1361Sol     OW 6191   0.507   1.726  10.648  0.0043 -0.1547 -0.0839
 1361Sol     HW 6192   0.585   1.769  10.682  0.0614  0.3656 -0.8550
 1361Sol     HW 6193   0.541   1.658  10.590 -0.1107  0.2319 -0.6107
 1361Sol     MW 6194   0.517   1.724  10.646  0.7732 -0.5985 -0.2318
 1362Sol     OW 6195   2.865   1.601  11.720 -0.1269 -0.0750 -0.1951
 1362Sol     HW 6196   2.783   1.552  11.723  0.8867 -1.8353 -0.5083
 1362Sol     HW 6197   2.879   1.619  11.627 -0.2886  0.4470 -0.1188
 1362Sol     MW 6198   2.859   1.598  11.712  0.8301  0.3679  0.4857
 1363Sol     OW 6199   1.150   2.049   9.543  0.1529 -0.7626  0.2141
 1363Sol     HW 6200   1.217   2.051   9.475  0.2874 -0.7321  0.3479
 1363Sol     HW 6201   1.089   2.118   9.519  1.1271  0.4257  1.0830
 1363Sol     MW 6202   1.151   2.055   9.535 -0.3806  0.4882 -0.5281
 1364Sol     OW 6203   1.168   1.024  10.717  0.1628  0.4756  0.8187
 1364Sol     HW 6204   1.216   1.101  10.747 -1.1824  1.7314 -0.1924
 1364Sol     HW 6205   1.200   1.008  10.628 -0.6481  0.8029  0.4581
 1364Sol     MW 6206   1.175   1.029  10.712 -0.3273 -0.0078  0.3957
 1365Sol     OW 6207   0.298   2.103  11.474 -0.0398 -0.1338  0.1282
 1365Sol     HW 6208   0.326   2.181  11.427 -2.6804  0.1144 -1.1235
 1365Sol     HW 6209   0.356   2.034  11.444  0.8107  0.8563 -0.5306
 1365Sol     MW 6210   0.305   2.104  11.467  0.4124 -0.1414 -0.1363
 1366Sol     OW 6211   0.761   2.551  12.079 -0.0795 -0.0838  0.1999
 1366Sol     HW 6212   0.677   2.543  12.125  0.6883 -1.5507  1.3960
 1366Sol     HW 6213   0.744   2.513  11.992 -0.8502  0.3072  0.1708
 1366Sol     MW 6214   0.752   2.547  12.075 -0.8078 -0.3507  0.7976
 1367Sol     OW 6215   2.370   0.027  10.893  0.5535  0.0447  0.4001
 1367Sol     HW 6216   2.349   0.001  10.983 -0.6337 -1.1374 -0.1874
 1367Sol     HW 6217   2.395  -0.055  10.850  1.2660  0.6258 -0.3104
 1367Sol     MW 6218   2.370   0.017  10.897 -0.0609  0.3285 -0.8825
 1368Sol     OW 6219   2.596   2.632   9.115 -0.4632 -0.0748 -0.4449
 1368Sol     HW 6220   2.674   2.599   9.159 -0.3265  0.7956 -0.0050
 1368Sol     HW 6221   2.527   2.572   9.141 -0.0689 -0.4644 -0.2860
 1368Sol     MW 6222   2.597   2.624   9.122  0.5236  0.4965 -0.7821
 1369Sol     OW 6223   3.226   0.113   7.820  0.0319 -0.1299  0.8550
 1369Sol     HW 6224   3.302   0.055   7.828  0.4954  0.0720 -1.6600
 1369Sol     HW 6225   3.251   0.176   7.752 -2.4454 -0.1764 -0.1593
 1369Sol     MW 6226   3.235   0.113   7.814  0.1517  0.4225  0.0948
 1370Sol     OW 6227   1.834   1.915  10.135 -0.6109  0.2955 -0.1194
 1370Sol     HW 6228   1.855   1.996  10.179  1.2716 -0.5775  0.6258
 1370Sol     HW 6229   1.847   1.934  10.042 -0.0364  0.8023  0.0627
 1370Sol     MW 6230   1.837   1.924  10.130  0.6457 -0.0478 -0.5760
 1371Sol     OW 6231   1.673   3.396   7.047 -0.1997 -0.7656 -0.0472
 1371Sol     HW 6232   1.668   3.491   7.035 -0.0151 -0.8278 -0.6357
 1371Sol     HW 6233   1.587   3.363   7.021  0.0348 -0.8481 -0.7453
 1371Sol     MW 6234   1.665   3.401   7.043  0.4394 -0.2110 -0.0057
 1372Sol     OW 6235   1.449   1.074   9.177 -0.0003  0.2274  0.1999
 1372Sol     HW 6236   1.541   1.054   9.163 -0.3000 -1.2717  0.3030
 1372Sol     HW 6237   1.447   1.118   9.262  0.6181  0.3548  0.1521
 1372Sol     MW 6238   1.457   1.076   9.183  0.3090 -0.5427  0.1953
 1373Sol     OW 6239   0.366   0.287  13.341  0.0598 -0.4346  0.0794
 1373Sol     HW 6240   0.302   0.299  13.271 -1.0511 -1.9280  0.8067
 1373Sol     HW 6241   0.329   0.332  13.416  0.7330  0.2478  0.0046
 1373Sol     MW 6242   0.357   0.292  13.341  0.4184  0.4016  0.3540
 1374Sol     OW 6243   1.499   1.053   7.127  0.1103  0.4521  0.4449
 1374Sol     HW 6244   1.446   1.085   7.201 -0.2079 -1.5409  1.1224
 1374Sol     HW 6245   1.546   0.978   7.163  2.3430  1.3581 -0.5580
 1374Sol     MW 6246   1.498   1.049   7.137 -0.6338  0.5035  0.0407
 1375Sol     OW 6247   2.907   1.296   7.166 -0.3966  0.1711 -0.5926
 1375Sol     HW 6248   2.983   1.270   7.113  0.2721  1.6419 -0.3683
 1375Sol     HW 6249   2.833   1.289   7.106  0.0425 -0.3494 -1.0829
 1375Sol     MW 6250   2.907   1.293   7.156 -0.4081 -0.1799  1.2554
 1376Sol     OW 6251   1.543   2.820   8.638  0.1309  0.2638  0.1262
 1376Sol     HW 6252   1.539   2.869   8.720  0.9351  1.0450 -0.2965
 1376Sol     HW 6253   1.598   2.745   8.658  3.2580  2.2661 -0.5953
 1376Sol     MW 6254   1.547   2.818   8.647 -0.2650 -0.0852 -0.2455
 1377Sol     OW 6255   1.993   1.907   9.789  0.0760 -0.3266  0.0207
 1377Sol     HW 6256   1.968   1.827   9.834 -0.4359  1.0694  2.3330
 1377Sol     HW 6257   2.045   1.955   9.854 -1.3646  2.1210 -0.5725
 1377Sol     MW 6258   1.996   1.904   9.799  0.2160  0.3537 -0.3912
 1378Sol     OW 6259   1.726   3.061  10.328 -0.2454 -0.1155 -0.1917
 1378Sol     HW 6260   1.637   3.081  10.298 -0.3160 -1.3221 -0.8455
 1378Sol     HW 6261   1.760   3.144  10.360 -1.3881  0.4955 -0.5266
 1378Sol     MW 6262   1.721   3.070  10.328  0.2353 -0.1988 -0.2341
 1379Sol     OW 6263   3.199   2.094   8.806  0.0818 -0.2511  0.1359
 1379Sol     HW 6264   3.116   2.141   8.811  0.6935  1.1642 -2.2332
 1379Sol     HW 6265   3.232   2.096   8.896 -1.2898  1.3253  0.6475
 1379Sol     MW 6266   3.195   2.099   8.815  0.4985  0.0704 -0.2769
 1380Sol     OW 6267   0.809   1.020   9.654 -0.1290 -0.0798 -0.8945
 1380Sol     HW 6268   0.775   0.974   9.577  0.4391  0.5045 -1.5050
 1380Sol     HW 6269   0.731   1.062   9.692 -0.1275  1.1816 -2.2355
 1380Sol     MW 6270   0.799   1.020   9.650 -0.1976 -0.6457  0.7567
 1381Sol     OW 6271   2.170   2.683   8.662 -0.1105 -0.0975 -0.3610
 1381Sol     HW 6272   2.216   2.750   8.611  2.1037 -0.6968  0.7542
 1381Sol     HW 6273   2.162   2.609   8.603  0.9744 -0.2081 -0.3898
 1381Sol     MW 6274   2.174   2.682   8.652  0.0028 -0.2454  0.6090
 1382Sol     OW 6275   3.147   1.839   8.847 -0.6027  0.1259  0.3388
 1382Sol     HW 6276   3.150   1.933   8.828  1.4001 -0.2976 -1.7049
 1382Sol     HW 6277   3.237   1.816   8.870 -0.7996 -1.5341 -0.4519
 1382Sol     MW 6278   3.155   1.845   8.847 -0.0129  1.0163 -0.3687
 1383Sol     OW 6279   1.739   1.588   9.760  0.2997  0.2098 -0.0974
 1383Sol     HW 6280   1.664   1.532   9.781  0.5273  0.0223  0.2222
 1383Sol     HW 6281   1.775   1.550   9.679 -0.0324  0.3872 -0.3298
 1383Sol     MW 6282   1.736   1.579   9.754  0.1129  0.3028  0.1965
 1384Sol     OW 6283   0.717   1.247  11.655  0.6983 -0.4528 -0.2305
 1384Sol     HW 6284   0.685   1.157  11.649  0.8929 -0.5682  0.4667
 1384Sol     HW 6285   0.771   1.259  11.576  2.3321 -1.6036  0.6961
 1384Sol     MW 6286   0.719   1.240  11.647  0.3381 -0.3178 -0.2198
 1385Sol     OW 6287   3.233   2.037   8.255  0.1474 -0.4041 -0.5287
 1385Sol     HW 6288   3.162   1.975   8.238  0.5994 -0.1482 -3.5190
 1385Sol     HW 6289   3.310   1.981   8.270  0.4322 -0.6222 -2.6555
 1385Sol     MW 6290   3.234   2.026   8.255  0.6117  0.1094 -0.4852
 1386Sol     OW 6291   0.073   0.207  13.453 -0.1339 -0.3909  0.8829
 1386Sol     HW 6292   0.133   0.133  13.443 -1.0367 -1.0328  0.1338
 1386Sol     HW 6293  -0.014   0.167  13.455 -0.5926  0.6091  1.0083
 1386Sol     MW 6294   0.070   0.197  13.453  0.8018  0.1245  0.4096
 1387Sol     OW 6295   2.863   2.275   6.639 -0.1726  0.2082 -0.2837
 1387Sol     HW 6296   2.898   2.242   6.556 -1.2050 -0.9271 -0.2957
 1387Sol     HW 6297   2.777   2.232   6.647  0.0395  0.0774  1.5013
 1387Sol     MW 6298   2.858   2.268   6.632 -0.2958  0.3785 -0.4469
 1388Sol     OW 6299   0.511   1.992   7.998  0.6672 -0.4459 -0.2473
 1388Sol     HW 6300   0.458   2.029   8.068  0.0275 -0.6885 -0.5937
 1388Sol     HW 6301   0.511   2.059   7.930 -0.0491 -0.8504 -0.6583
 1388Sol     MW 6302   0.506   2.001   7.998  0.5872 -0.2522  0.3544
 1389Sol     OW 6303   2.064   3.423  10.325  0.2774 -0.2036  0.0019
 1389Sol     HW 6304   2.136   3.401  10.265  0.8562 -1.6820  1.2087
 1389Sol     HW 6305   2.104   3.482  10.390 -0.1432  0.7128 -0.5571
 1389Sol     MW 6306   2.074   3.426  10.326  0.2910 -0.2372 -0.0157
 1390Sol     OW 6307   0.338   0.244  13.692 -0.0951  0.1702  0.0534
 1390Sol     HW 6308   0.265   0.207  13.741  1.0288  0.4086  1.9748
 1390Sol     HW 6309   0.299   0.311  13.636 -1.4868 -0.5482  0.1599
 1390Sol     MW 6310   0.328   0.247  13.692 -0.1672  0.2406  0.4042
 1391Sol     OW 6311   2.879   2.705  10.839 -0.5792  0.3533  0.1740
 1391Sol     HW 6312   2.930   2.710  10.758 -1.9785  1.5169 -0.6442
 1391Sol     HW 6313   2.874   2.611  10.858 -0.2159  0.0714 -1.0653
 1391Sol     MW 6314   2.883   2.697  10.834  0.1113 -0.8096  0.5934
 1392Sol     OW 6315   0.596   2.116  10.332 -0.2841  0.1935  0.1382
 1392Sol     HW 6316   0.555   2.047  10.384  2.8050 -0.9040  1.2739
 1392Sol     HW 6317   0.536   2.190  10.338 -2.2813 -1.4674  1.3072
 1392Sol     MW 6318   0.587   2.116  10.337  0.6199 -0.5237  0.4893
 1393Sol     OW 6319   2.989   0.458  12.650 -0.5050  0.1492 -0.1226
 1393Sol     HW 6320   3.030   0.541  12.671  0.0080  0.2005 -1.2933
 1393Sol     HW 6321   2.906   0.459  12.697 -0.4746  1.2957 -0.0977
 1393Sol     MW 6322   2.985   0.465  12.656  0.4699 -0.3391  0.5151
 1394Sol     OW 6323   2.850   2.828   7.186 -0.2829  0.0705  0.1229
 1394Sol     HW 6324   2.787   2.807   7.255  0.6908  0.4963  1.1368
 1394Sol     HW 6325   2.857   2.747   7.135  0.4364 -0.8592  1.6507
 1394Sol     MW 6326   2.845   2.818   7.187 -0.5103 -0.5429  0.0258
 1395Sol     OW 6327   1.519   1.492   9.870 -0.0347 -0.2064  0.6473
 1395Sol     HW 6328   1.550   1.516   9.958  0.9775  3.6815 -0.6597
 1395Sol     HW 6329   1.430   1.460   9.885 -0.2690  1.4136  3.0146
 1395Sol     MW 6330   1.513   1.492   9.880 -0.1937 -0.2403  0.1106
 1396Sol     OW 6331   3.083   0.413  10.017 -0.1994  0.3684  0.4232
 1396Sol     HW 6332   3.145   0.374  10.078 -0.7482  1.0534  1.4247
 1396Sol     HW 6333   3.098   0.366   9.935  2.1556  1.0202  0.4432
 1396Sol     MW 6334   3.090   0.406  10.015  0.1968 -0.1346  0.3952
 1397Sol     OW 6335   1.694   0.200   6.709 -0.0746  0.0312 -0.3119
 1397Sol     HW 6336   1.778   0.154   6.717 -0.4378 -0.5644  0.1000
 1397Sol     HW 6337   1.670   0.189   6.617 -0.2262 -0.7261 -0.1846
 1397Sol     MW 6338   1.699   0.195   6.702  0.3029  0.4773 -0.9309
 1398Sol     OW 6339   0.333   0.480   7.226  0.3383  0.0298  0.0122
 1398Sol     HW 6340   0.324   0.410   7.162 -3.3609 -0.2437  0.7330
 1398Sol     HW 6341   0.369   0.553   7.176 -0.4178 -0.8575 -1.8823
 1398Sol     MW 6342   0.336   0.480   7.216 -0.0863 -0.0752 -0.0152
 1399Sol     OW 6343   0.767   3.163  13.395 -0.4020 -0.0354  0.9398
 1399Sol     HW 6344   0.764   3.211  13.478  0.1267 -0.5143  1.2363
 1399Sol     HW 6345   0.692   3.196  13.346 -1.2972 -0.4686  2.0053
 1399Sol     MW 6346   0.760   3.170  13.398 -0.0639 -0.1363  0.1870
 1400Sol     OW 6347   2.063   1.130   6.996  0.4062 -0.4269 -0.3015
 1400Sol     HW 6348   2.029   1.203   7.049  1.0951  0.9476 -1.7071
 1400Sol     HW 6349   2.031   1.052   7.040  0.1614  0.7057  1.6007
 1400Sol     MW 6350   2.057   1.130   7.005 -0.3962  0.1627 -0.6834
 1401Sol     OW 6351   1.925   0.699   7.970 -0.4264  0.3566 -0.4145
 1401Sol     HW 6352   1.969   0.694   8.056 -1.4414  0.7431  0.1311
 1401Sol     HW 6353   1.848   0.643   7.980 -1.1322  1.2717 -0.7219
 1401Sol     MW 6354   1.922   0.693   7.979 -0.2746  0.3063 -0.9785
 1402Sol     OW 6355   1.807   1.444  13.793  0.2741 -0.1760  0.1103
 1402Sol     HW 6356   1.856   1.365  13.816 -0.0261  0.0505  1.6234
 1402Sol     HW 6357   1.802   1.443  13.698  1.7058 -1.1204  0.0263
 1402Sol     MW 6358   1.811   1.437  13.787  0.1529 -0.4785  0.5649
 1403Sol     OW 6359   1.752   1.874   8.695 -0.3083  0.0428 -0.0766
 1403Sol     HW 6360   1.664   1.907   8.679 -0.4881 -0.3060  0.1775
 1403Sol     HW 6361   1.774   1.906   8.783 -0.0533  0.4064 -0.2750
 1403Sol     MW 6362   1.746   1.880   8.702  0.4785 -1.1141  0.9925
 1404Sol     OW 6363   1.205   0.718  13.352  0.1327  0.3263  0.5342
 1404Sol     HW 6364   1.268   0.752  13.415 -0.3338  0.4209  0.9496
 1404Sol     HW 6365   1.126   0.770  13.366  0.5017  1.3835 -1.1774
 1404Sol     MW 6366   1.204   0.725  13.359  0.2735 -0.2320  0.2290
 1405Sol     OW 6367   0.537   2.822  13.197 -0.2857  0.0523 -0.1647
 1405Sol     HW 6368   0.518   2.738  13.237  0.4563  0.2116  0.5464
 1405Sol     HW 6369   0.623   2.847  13.233 -0.4588  1.0671 -0.4260
 1405Sol     MW 6370   0.543   2.817  13.204 -0.5106 -0.3665  0.0296
 1406Sol     OW 6371   2.566   2.473  12.431  0.2027 -0.2294 -0.2383
 1406Sol     HW 6372   2.509   2.549  12.418 -1.1910 -1.1779  0.1358
 1406Sol     HW 6373   2.531   2.430  12.509  1.6903 -0.6295  0.2250
 1406Sol     MW 6374   2.558   2.476  12.437  0.3071 -0.0846  0.0624
 1407Sol     OW 6375   1.138   1.479  10.208 -0.2479 -0.0821  0.0372
 1407Sol     HW 6376   1.206   1.433  10.159 -0.3601  0.5964 -0.7660
 1407Sol     HW 6377   1.173   1.568  10.219 -1.1640  0.3728 -0.7061
 1407Sol     MW 6378   1.147   1.483  10.205  0.2356  0.3238  1.0287
 1408Sol     OW 6379   2.908   2.258  12.503 -0.4861  0.0027  0.0416
 1408Sol     HW 6380   2.961   2.296  12.432 -1.6252 -0.3005 -0.9978
 1408Sol     HW 6381   2.964   2.191  12.541  0.0712  0.0118 -0.7343
 1408Sol     MW 6382   2.918   2.255  12.500 -0.0763 -0.2880 -0.4422
 1409Sol     OW 6383   2.683   2.712   9.438  0.2019 -0.0500 -0.5649
 1409Sol     HW 6384   2.698   2.787   9.495  2.4543  0.9850 -2.4323
 1409Sol     HW 6385   2.730   2.733   9.357 -0.4328 -2.7795 -1.7133
 1409Sol     MW 6386   2.689   2.720   9.436  0.1712  0.2220 -0.1812
 1410Sol     OW 6387   1.936   2.806   8.647  0.4713 -0.2053  0.0274
 1410Sol     HW 6388   1.913   2.811   8.739  1.5544  2.1121  0.1938
 1410Sol     HW 6389   2.017   2.756   8.645 -0.1927 -1.3091  0.1950
 1410Sol     MW 6390   1.941   2.802   8.655 -0.2436  0.1834  0.0519
 1411Sol     OW 6391   2.325   1.172  12.798  0.0167 -0.1077 -0.0125
 1411Sol     HW 6392   2.288   1.260  12.797 -2.6521 -1.1698 -1.3968
 1411Sol     HW 6393   2.340   1.153  12.890 -1.9929  0.8122  0.5463
 1411Sol     MW 6394   2.323   1.178  12.806  0.4066  0.5440 -0.1709
 1412Sol     OW 6395   1.930   3.402   9.293 -0.1560 -0.2843 -0.1005
 1412Sol     HW 6396   1.842   3.440   9.295 -0.2797 -0.5059 -0.9480
 1412Sol     HW 6397   1.987   3.474   9.320 -0.7193 -0.5606  1.9469
 1412Sol     MW 6398   1.927   3.412   9.296  0.7024  0.2256  0.9820
 1413Sol     OW 6399   2.997   2.294  13.077  0.5872  0.2685  0.2555
 1413Sol     HW 6400   3.034   2.227  13.135 -0.3430 -0.4863 -0.0132
 1413Sol     HW 6401   2.999   2.254  12.990  1.8218  1.3327 -0.2310
 1413Sol     MW 6402   3.001   2.285  13.075  0.6223 -0.6984  0.0740
 1414Sol     OW 6403   2.328   2.610  13.374 -0.4950 -0.1501 -0.1599
 1414Sol     HW 6404   2.286   2.691  13.344  0.3798  0.0091 -0.9895
 1414Sol     HW 6405   2.392   2.590  13.306 -0.5769 -1.4461  0.1378
 1414Sol     MW 6406   2.330   2.616  13.365 -0.1923 -1.0897 -0.4071
 1415Sol     OW 6407   0.522   2.878   9.589  0.4232  0.1941 -0.0951
 1415Sol     HW 6408   0.610   2.894   9.623 -0.4679 -1.1862  3.0400
 1415Sol     HW 6409   0.464   2.916   9.656 -1.3779 -0.5947 -1.1828
 1415Sol     MW 6410   0.524   2.883   9.598  0.5211 -0.0433  0.6663
 1416Sol     OW 6411   3.087   2.819   7.333  0.2153  0.0003  0.3727
 1416Sol     HW 6412   3.085   2.732   7.374  0.3065  0.0338  0.4485
 1416Sol     HW 6413   3.016   2.818   7.270  0.1103 -0.0710  0.4931
 1416Sol     MW 6414   3.081   2.811   7.331 -0.4412  0.3109  0.5933
 1417Sol     OW 6415   0.227   1.333   8.495  0.1004  0.5444  0.7773
 1417Sol     HW 6416   0.155   1.320   8.556  0.3881 -1.2181  0.7788
 1417Sol     HW 6417   0.300   1.285   8.535  0.2411 -0.7688 -1.0295
 1417Sol     MW 6418   0.227   1.328   8.504  0.0041 -0.4569 -0.2688
 1418Sol     OW 6419   1.684   0.202   9.957  0.4924  0.4996 -0.1478
 1418Sol     HW 6420   1.695   0.123   9.904 -1.5235  0.6001 -0.7484
 1418Sol     HW 6421   1.619   0.178  10.023  2.7576  0.4677  2.1492
 1418Sol     MW 6422   1.680   0.192   9.958 -0.3314 -0.7732 -1.0056
 1419Sol     OW 6423   0.683   1.976   6.141 -0.9073  0.0792 -0.3928
 1419Sol     HW 6424   0.741   1.902   6.157 -0.6710 -0.2661 -2.7244
 1419Sol     HW 6425   0.610   1.939   6.091 -0.5536  1.4841 -1.9897
 1419Sol     MW 6426   0.682   1.966   6.138  0.1579  0.5223 -0.3120
 1420Sol     OW 6427   0.315   3.336  12.315  0.9298  0.2280  0.1255
 1420Sol     HW 6428   0.379   3.272  12.348  0.9540 -0.2182 -0.7482
 1420Sol     HW 6429   0.256   3.284  12.261  1.3098  1.0459 -1.0931
 1420Sol     MW 6430   0.316   3.325  12.313  0.0329  0.4434  0.2168
 1421Sol     OW 6431   1.526   1.612   8.487  0.4515  0.3050 -0.0475
 1421Sol     HW 6432   1.436   1.594   8.512  0.5208 -0.5159 -0.3952
 1421Sol     HW 6433   1.552   1.538   8.432  0.6410  1.5928 -1.7111
 1421Sol     MW 6434   1.520   1.604   8.485 -0.1667  0.6881 -0.4129
 1422Sol     OW 6435   2.407   2.196   9.015  0.4880  0.2185  0.6125
 1422Sol     HW 6436   2.450   2.226   9.095 -0.4878  0.3451  1.0871
 1422Sol     HW 6437   2.477   2.196   8.949  1.3812 -0.2937  1.5612
 1422Sol     MW 6438   2.418   2.199   9.016  0.1832 -0.3559  0.0638
 1423Sol     OW 6439   0.796   0.324  11.249  0.2143  0.4822  0.1926
 1423Sol     HW 6440   0.770   0.392  11.311  0.5311 -2.0346  3.2306
 1423Sol     HW 6441   0.892   0.322  11.255  0.0873 -2.7205  3.1132
 1423Sol     MW 6442   0.802   0.329  11.255 -0.2545 -0.1949 -0.0905
 1424Sol     OW 6443   0.017   1.071  12.390 -0.0537  0.3012  0.2626
 1424Sol     HW 6444   0.086   1.036  12.334  0.4849  0.1978  0.9775
 1424Sol     HW 6445   0.032   1.029  12.475 -2.8794 -2.1554 -0.3686
 1424Sol     MW 6446   0.025   1.064  12.393 -0.4876  0.1293 -0.3482
 1425Sol     OW 6447   1.077   0.698  10.565  0.1164  0.7841 -0.2918
 1425Sol     HW 6448   1.148   0.737  10.514 -0.7660  3.7284  0.5820
 1425Sol     HW 6449   1.111   0.695  10.654  0.0476 -0.1507 -0.2974
 1425Sol     MW 6450   1.086   0.702  10.568  0.6254 -0.6900  0.0475
 1426Sol     OW 6451   1.868   1.562  11.839 -0.2648 -0.7361  0.5098
 1426Sol     HW 6452   1.808   1.606  11.899 -0.3418  1.0566 -0.8546
 1426Sol     HW 6453   1.935   1.628  11.820 -0.0009 -1.4372 -1.0311
 1426Sol     MW 6454   1.869   1.572  11.843  0.7636  0.6423  0.2056
 1427Sol     OW 6455   1.915   2.128  12.899 -0.1219 -0.0019  0.6078
 1427Sol     HW 6456   1.951   2.113  12.812 -0.8348  2.2941 -0.1210
 1427Sol     HW 6457   1.859   2.052  12.915 -1.5987  0.5279 -1.8161
 1427Sol     MW 6458   1.913   2.120  12.893  0.9509  0.1438 -0.3507
 1428Sol     OW 6459   0.457   1.491  13.778  0.1123 -0.2181 -0.9529
 1428Sol     HW 6460   0.489   1.560  13.836 -0.0350 -0.3761 -0.6815
 1428Sol     HW 6461   0.465   1.411  13.830 -0.0666 -0.3511 -1.1329
 1428Sol     MW 6462   0.460   1.490  13.788 -1.2482  1.1192  0.4692
 1429Sol     OW 6463   1.648   2.853   7.691 -0.0764 -0.1511  0.6106
 1429Sol     HW 6464   1.726   2.852   7.747  0.8524 -0.3153 -0.6605
 1429Sol     HW 6465   1.597   2.927   7.722  1.5077  1.1119  0.2360
 1429Sol     MW 6466   1.650   2.859   7.699  0.3320 -0.5245  0.2545
 1430Sol     OW 6467   2.254   3.141  11.545  0.3975  0.2888 -0.4811
 1430Sol     HW 6468   2.167   3.133  11.507  0.9868 -1.1963 -1.5658
 1430Sol     HW 6469   2.313   3.147  11.470  1.3339  0.1077  0.2298
 1430Sol     MW 6470   2.252   3.141  11.535 -0.4113  0.7899  0.6161
 1431Sol     OW 6471   1.312   0.896   8.947  0.0159  0.0382  0.1838
 1431Sol     HW 6472   1.290   0.988   8.958 -0.8330  0.0142 -1.1404
 1431Sol     HW 6473   1.296   0.878   8.854  0.2455 -1.4116  0.4052
 1431Sol     MW 6474   1.308   0.902   8.940  0.5716  1.0074  0.2895
 1432Sol     OW 6475   1.217   1.888  14.094  0.0921 -0.6712  0.3038
 1432Sol     HW 6476   1.238   1.956  14.030  2.8700 -1.6627  0.1025
 1432Sol     HW 6477   1.274   1.906  14.168 -0.2932 -1.8661  0.9043
 1432Sol     MW 6478   1.224   1.896  14.095 -0.3245 -0.1932 -0.6608
 1433Sol     OW 6479   2.882   1.120   6.617 -0.1896 -0.4712  0.3664
 1433Sol     HW 6480   2.798   1.142   6.657 -0.1665  0.2903  0.0128
 1433Sol     HW 6481   2.946   1.128   6.688 -0.4312 -1.1453  0.6570
 1433Sol     MW 6482   2.880   1.123   6.627  0.1800  0.5172  0.6354
 1434Sol     OW 6483   2.173   0.194   7.488  0.1347 -0.5499 -0.2868
 1434Sol     HW 6484   2.205   0.262   7.548 -2.0105 -0.3267  0.6407
 1434Sol     HW 6485   2.201   0.112   7.528  2.6370 -0.2584 -1.3524
 1434Sol     MW 6486   2.178   0.193   7.497  0.6232  0.1623  0.9004
 1435Sol     OW 6487   0.475   2.483   6.357  0.1221 -0.4629  0.3426
 1435Sol     HW 6488   0.530   2.482   6.436  0.6427  0.2144 -0.0076
 1435Sol     HW 6489   0.527   2.437   6.291 -0.3436 -1.0943  0.4084
 1435Sol     MW 6490   0.485   2.478   6.358 -0.5029  0.0983  0.0238
 1436Sol     OW 6491   2.465   0.957   6.244  0.0488 -0.2302 -0.1334
 1436Sol     HW 6492   2.559   0.951   6.263 -0.0604 -0.7488  0.2361
 1436Sol     HW 6493   2.428   1.002   6.319 -0.0370 -0.2432 -0.1687
 1436Sol     MW 6494   2.470   0.960   6.252  0.4146 -0.0465  0.0968
 1437Sol     OW 6495   1.980   3.165  10.532 -0.3222  0.2389  0.2135
 1437Sol     HW 6496   1.956   3.209  10.614 -1.2393  1.1537 -0.5284
 1437Sol     HW 6497   1.938   3.218  10.463  1.5302  0.2436 -0.9356
 1437Sol     MW 6498   1.974   3.174  10.533  0.6838 -0.9680 -0.2097
 1438Sol     OW 6499   0.051   0.580   9.938 -0.2036 -0.6399 -0.4273
 1438Sol     HW 6500   0.049   0.673   9.962 -1.1224 -0.7389 -0.1023
 1438Sol     HW 6501   0.108   0.540  10.004 -3.9945 -1.1940  2.7225
 1438Sol     MW 6502   0.056   0.585   9.946  0.5529 -0.1554  0.4184
 1439Sol     OW 6503   2.798   1.915  10.090 -0.3859  0.1682  0.3356
 1439Sol     HW 6504   2.756   1.928  10.005  0.1805 -1.8163 -0.2884
 1439Sol     HW 6505   2.865   1.984  10.094 -0.9767  0.7999 -0.4603
 1439Sol     MW 6506   2.801   1.922  10.082 -0.3044 -0.0747  0.3119
 1440Sol     OW 6507   3.245   0.086   6.106 -0.0767  0.7099  0.1588
 1440Sol     HW 6508   3.318   0.144   6.130 -0.7684  1.3566  0.7028
 1440Sol     HW 6509   3.168   0.126   6.147 -0.4925 -0.8166  0.8679
 1440Sol     MW 6510   3.245   0.095   6.112  0.0745  0.0253  0.3495
 1441Sol     OW 6511   1.913   0.081   8.379 -0.1703 -0.1063 -0.0496
 1441Sol     HW 6512   1.898   0.115   8.290 -1.5382 -0.7536 -0.0775
 1441Sol     HW 6513   1.993   0.030   8.371  1.2873  2.1724 -0.2636
 1441Sol     MW 6514   1.918   0.080   8.370  0.3202 -0.3250 -0.3660
 1442Sol     OW 6515   0.037   0.970   9.046 -0.5690  0.9072 -0.5497
 1442Sol     HW 6516   0.026   0.926   8.962 -0.6082  1.1552 -0.6754
 1442Sol     HW 6517   0.008   0.905   9.110 -0.4588  0.6859 -0.7197
 1442Sol     MW 6518   0.033   0.960   9.044  0.2262 -0.3266 -0.0122
 1443Sol     OW 6519   1.946   1.136   7.728 -0.3559 -0.0583  0.2964
 1443Sol     HW 6520   2.011   1.071   7.700  0.0878 -0.4498  2.2046
 1443Sol     HW 6521   1.908   1.100   7.808 -1.7066  0.9984  0.1599
 1443Sol     MW 6522   1.948   1.127   7.732  1.2274 -0.1975 -0.0869
 1444Sol     OW 6523   3.009   1.428   7.735 -0.5167 -0.3398  0.5264
 1444Sol     HW 6524   3.032   1.484   7.808 -0.8992 -1.7310  1.7286
 1444Sol     HW 6525   2.939   1.475   7.690 -1.4853 -0.2806  2.0732
 1444Sol     MW 6526   3.005   1.437   7.737  0.2539  0.3044 -0.3628
 1445Sol     OW 6527   0.189   1.233  13.638 -0.0644  0.2103  0.8405
 1445Sol     HW 6528   0.169   1.193  13.723 -0.4842  0.2359  0.7521
 1445Sol     HW 6529   0.122   1.199  13.579  0.8104 -0.5667  0.2927
 1445Sol     MW 6530   0.181   1.226  13.641 -0.0175 -0.4424 -0.0646
 1446Sol     OW 6531   3.248   1.283  10.213  0.0217  0.2092  0.2302
 1446Sol     HW 6532   3.292   1.308  10.295  1.8297 -0.2126 -0.5914
 1446Sol     HW 6533   3.294   1.205  10.184  0.4509  1.2723 -2.0426
 1446Sol     MW 6534   3.256   1.278  10.218 -0.1761  0.1849  0.5487
 1447Sol     OW 6535   0.240   2.770  11.591 -0.6466  0.0552 -0.1719
 1447Sol     HW 6536   0.296   2.751  11.667  0.0417  1.2476 -0.3571
 1447Sol     HW 6537   0.232   2.687  11.545  1.1125 -0.1010 -0.2243
 1447Sol     MW 6538   0.244   2.761  11.594  0.6794  0.4919  0.1876
 1448Sol     OW 6539   2.950   1.765  10.535 -0.2794  0.1548 -0.1211
 1448Sol     HW 6540   2.886   1.770  10.465  0.6102  0.4920 -0.9160
 1448Sol     HW 6541   2.999   1.684  10.518  0.5698  0.7277 -0.4513
 1448Sol     MW 6542   2.949   1.758  10.527 -0.5235 -0.6947 -0.2433
 1449Sol     OW 6543   0.387   1.813   7.783 -0.1723 -0.4262  0.0527
 1449Sol     HW 6544   0.439   1.825   7.863 -0.1110  0.4159 -0.1098
 1449Sol     HW 6545   0.297   1.803   7.815  0.2001 -3.0215  0.4068
 1449Sol     MW 6546   0.383   1.813   7.793 -0.1342 -0.0372  0.9108
 1450Sol     OW 6547   3.329   2.581  11.298  0.4719  0.3464 -0.5663
 1450Sol     HW 6548   3.368   2.584  11.385  0.3563 -1.3897 -0.4348
 1450Sol     HW 6549   3.239   2.553  11.313  0.0885  1.2284 -1.1539
 1450Sol     MW 6550   3.325   2.579  11.307 -0.5025 -0.0936  0.1715
 1451Sol     OW 6551   2.688   0.980  10.032  0.1134 -0.1324 -0.6695
 1451Sol     HW 6552   2.766   1.029  10.059 -0.6607 -0.3956  2.1545
 1451Sol     HW 6553   2.693   0.898  10.081 -1.7962 -0.2495 -0.6531
 1451Sol     MW 6554   2.696   0.977  10.039  0.4291 -0.5960 -0.3740
 1452Sol     OW 6555   3.069   1.325  10.606 -0.2690 -0.2439  0.4067
 1452Sol     HW 6556   2.985   1.360  10.634 -0.3085 -0.1728  0.1982
 1452Sol     HW 6557   3.097   1.270  10.680 -0.5622 -0.3807  0.4197
 1452Sol     MW 6558   3.064   1.323  10.616 -0.3696  0.2325  0.2838
 1453Sol     OW 6559   2.948   1.867  10.862 -0.4199 -0.0866 -0.0658
 1453Sol     HW 6560   2.891   1.918  10.805  1.0502  0.9227 -0.6575
 1453Sol     HW 6561   2.889   1.828  10.927 -1.5436  2.6205  0.5955
 1453Sol     MW 6562   2.938   1.868  10.863 -0.5802  0.0486 -0.5151
 1454Sol     OW 6563   1.685   0.414  10.929 -0.6738 -0.1078 -0.0493
 1454Sol     HW 6564   1.689   0.455  10.843  0.6016 -0.3269 -0.1036
 1454Sol     HW 6565   1.622   0.342  10.919  1.8560 -2.1713 -1.7028
 1454Sol     MW 6566   1.680   0.411  10.921 -0.5690  0.1102 -0.2604
 1455Sol     OW 6567   1.633   3.307   9.325 -0.5329 -0.0731  0.4993
 1455Sol     HW 6568   1.660   3.293   9.416  2.0592  1.8806  0.0576
 1455Sol     HW 6569   1.657   3.226   9.280 -0.8195 -0.6137  1.3078
 1455Sol     MW 6570   1.637   3.298   9.329  0.5610 -0.3218 -0.2626
 1456Sol     OW 6571   0.930   2.520  10.675  0.2007 -0.1655  0.2816
 1456Sol     HW 6572   0.863   2.539  10.741 -0.8134  0.4174 -0.9023
 1456Sol     HW 6573   0.901   2.439  10.634  1.1757 -0.8813  0.9776
 1456Sol     MW 6574   0.921   2.515  10.677  0.4443 -0.4204  0.1029
 1457Sol     OW 6575   0.891   1.643  14.293 -0.2155 -0.2420  0.0126
 1457Sol     HW 6576   0.981   1.614  14.278 -0.3388  1.1628 -4.0178
 1457Sol     HW 6577   0.837   1.580  14.246 -1.1054  0.7584 -0.3419
 1457Sol     MW 6578   0.894   1.635  14.287  0.0636 -0.7073 -0.2380
 1458Sol     OW 6579   1.789   1.873  12.825  0.4241 -0.2351 -0.3890
 1458Sol     HW 6580   1.754   1.895  12.739  1.0750  0.7162 -0.4136
 1458Sol     HW 6581   1.860   1.811  12.806 -0.3508 -1.1309 -0.4294
 1458Sol     MW 6582   1.792   1.869  12.815 -0.4766 -0.4460  0.1231
 1459Sol     OW 6583   2.752   1.798  10.360 -0.0115  1.3028  0.4908
 1459Sol     HW 6584   2.777   1.770  10.272  1.9491 -0.7587  1.6527
 1459Sol     HW 6585   2.657   1.788  10.363  0.0497  0.2054 -0.9823
 1459Sol     MW 6586   2.746   1.795  10.353  0.3130 -0.3541  0.2890
 1460Sol     OW 6587   2.767   1.538  13.307 -0.8905  0.0675 -0.2891
 1460Sol     HW 6588   2.801   1.580  13.229  0.6388 -0.5513  0.0418
 1460Sol     HW 6589   2.806   1.587  13.380 -0.9603 -0.4350  0.0911
 1460Sol     MW 6590   2.773   1.547  13.307 -0.1324 -0.3828  0.0712
 1461Sol     OW 6591   1.353   1.076  12.869  0.5042 -0.0860  0.1502
 1461Sol     HW 6592   1.414   1.102  12.800  0.6613 -0.7860  0.0220
 1461Sol     HW 6593   1.378   0.987  12.891  0.0993 -0.0600  0.7307
 1461Sol     MW 6594   1.360   1.071  12.865  0.6172 -0.1762  0.3910
 1462Sol     OW 6595   0.020   2.783  12.553  0.0943  0.2996  0.4554
 1462Sol     HW 6596   0.113   2.806  12.548 -0.3371  2.0063 -0.1462
 1462Sol     HW 6597  -0.024   2.851  12.501 -1.5497 -0.1098  1.2809
 1462Sol     MW 6598   0.025   2.791  12.548 -0.3825  0.4487 -0.2860
 1463Sol     OW 6599   2.608   2.734  12.186 -0.1509 -0.3377 -0.1759
 1463Sol     HW 6600   2.535   2.760  12.242  0.3580 -1.2104  0.9374
 1463Sol     HW 6601   2.658   2.672  12.240  2.4121  1.6025 -0.2221
 1463Sol     MW 6602   2.606   2.731  12.196  0.8077 -0.3317  0.0246
 1464Sol     OW 6603   0.164   2.581   6.729 -0.8867  0.5877  0.0071
 1464Sol     HW 6604   0.075   2.551   6.746 -0.7179  1.6041  2.9649
 1464Sol     HW 6605   0.214   2.555   6.806  0.7735  2.3851 -0.4167
 1464Sol     MW 6606   0.161   2.576   6.737  0.4708 -0.1079  0.0072
 1465Sol     OW 6607   2.789   2.791  12.922  0.2436 -0.9190 -0.5878
 1465Sol     HW 6608   2.802   2.839  12.841  0.2099  0.5134  0.2453
 1465Sol     HW 6609   2.807   2.699  12.899  1.1121 -0.4078 -1.9878
 1465Sol     MW 6610   2.792   2.787  12.913 -0.3785  0.1713 -0.4261
 1466Sol     OW 6611   2.345   0.701  13.798 -0.2263 -0.4354  0.5753
 1466Sol     HW 6612   2.324   0.789  13.766 -1.8044 -0.3992  1.6998
 1466Sol     HW 6613   2.286   0.643  13.749  0.1744 -0.7777  0.4953
 1466Sol     MW 6614   2.338   0.703  13.790 -1.0681  1.0184 -0.1818
 1467Sol     OW 6615   2.072   2.941  13.816 -0.4947 -0.4120 -0.1058
 1467Sol     HW 6616   2.048   2.855  13.850 -0.8067 -0.5869 -0.7657
 1467Sol     HW 6617   2.159   2.957  13.851 -1.0012 -0.3723  1.1952
 1467Sol     MW 6618   2.077   2.935  13.823 -0.7734 -0.2254 -0.3409
 1468Sol     OW 6619   0.749   3.393   6.579  0.0317 -0.2534 -0.6461
 1468Sol     HW 6620   0.716   3.465   6.525 -1.4827 -0.3654  0.1043
 1468Sol     HW 6621   0.845   3.400   6.572 -0.1235  0.6723 -2.0802
 1468Sol     MW 6622   0.755   3.400   6.574 -0.0457 -0.7770  0.0933
 1469Sol     OW 6623   0.943   0.451   8.172  0.7593  0.3826  0.1668
 1469Sol     HW 6624   0.870   0.502   8.137  0.6843  0.5527  0.5715
 1469Sol     HW 6625   0.982   0.408   8.095  1.3796  1.7586 -0.2961
 1469Sol     MW 6626   0.940   0.451   8.162 -0.0010 -0.5723 -0.7231
 1470Sol     OW 6627   1.276   3.451   6.493  0.0677 -0.4810  0.0007
 1470Sol     HW 6628   1.262   3.462   6.587 -1.7854  0.5491 -0.3682
 1470Sol     HW 6629   1.360   3.406   6.486 -0.1481 -1.2681  2.1771
 1470Sol     MW 6630   1.282   3.448   6.500 -0.9138 -0.6123  0.3591
 1471Sol     OW 6631   1.055   2.780  11.029 -0.1701 -0.2835 -0.1285
 1471Sol     HW 6632   1.096   2.784  10.943 -1.7294 -2.5852 -1.0469
 1471Sol     HW 6633   0.962   2.793  11.012 -0.5485 -1.1782  1.1649
 1471Sol     MW 6634   1.050   2.781  11.020  0.3204  0.4614  0.0680
 1472Sol     OW 6635   1.172   1.865  10.601 -0.4032  0.1489  0.3063
 1472Sol     HW 6636   1.171   1.951  10.643 -2.3002 -0.0743  0.7906
 1472Sol     HW 6637   1.079   1.844  10.587  0.0361 -1.6716 -0.0866
 1472Sol     MW 6638   1.163   1.870  10.604  0.2611 -0.1472  0.0446
 1473Sol     OW 6639   3.276   3.054  12.981  0.3786 -0.0245 -0.2590
 1473Sol     HW 6640   3.259   2.989  12.913  3.3288  0.9654 -2.0087
 1473Sol     HW 6641   3.340   3.012  13.039  0.7467  0.5485 -0.2449
 1473Sol     MW 6642   3.280   3.045  12.980  0.4920  0.2522 -0.5280
 1474Sol     OW 6643   0.425   0.671  13.186 -0.0108 -0.0434  0.3228
 1474Sol     HW 6644   0.381   0.747  13.149 -0.1443  0.2169  1.0080
 1474Sol     HW 6645   0.423   0.605  13.117  1.5690  1.1337 -0.8717
 1474Sol     MW 6646   0.421   0.672  13.177  0.2105  0.1542  0.5531
 1475Sol     OW 6647   2.287   0.336  13.853 -0.1972  0.2680 -0.3059
 1475Sol     HW 6648   2.320   0.269  13.912 -1.6931 -0.9423 -0.7799
 1475Sol     HW 6649   2.264   0.410  13.909 -1.0165 -0.6319  0.5573
 1475Sol     MW 6650   2.288   0.336  13.863 -0.3638 -0.2676  0.1413
 1476Sol     OW 6651   3.208   0.600   7.790  0.2991 -0.0627 -0.1091
 1476Sol     HW 6652   3.119   0.635   7.786  0.1915 -0.4191 -1.0817
 1476Sol     HW 6653   3.224   0.565   7.702 -0.0433 -3.5271  1.1505
 1476Sol     MW 6654   3.202   0.600   7.781  0.0347 -0.1456  0.1024
 1477Sol     OW 6655   0.061   2.827   7.256  0.2510 -0.3183  0.7827
 1477Sol     HW 6656  -0.028   2.821   7.291  0.0951  0.6088  0.5398
 1477Sol     HW 6657   0.051   2.814   7.162  0.3048  0.4469  0.6757
 1477Sol     MW 6658   0.052   2.825   7.251 -0.0777 -0.0716  0.5895
 1478Sol     OW 6659   0.472   2.503  11.980 -0.2127 -0.0298 -0.0483
 1478Sol     HW 6660   0.462   2.525  12.073  0.6840  0.4203 -0.0507
 1478Sol     HW 6661   0.460   2.408  11.977 -3.1855  0.3020  0.0912
 1478Sol     MW 6662   0.470   2.497  11.988  0.2909 -0.2307 -0.1647
 1479Sol     OW 6663   0.845   0.874  10.489 -0.1985 -0.6840 -0.4386
 1479Sol     HW 6664   0.781   0.816  10.449 -2.2577 -0.8830  2.9267
 1479Sol     HW 6665   0.915   0.816  10.519 -0.2443 -0.9339 -0.8147
 1479Sol     MW 6666   0.845   0.864  10.488 -0.0082 -0.1999 -0.4332
 1480Sol     OW 6667   2.875   3.380   8.179  0.1758 -0.1474  0.1627
 1480Sol     HW 6668   2.908   3.329   8.254 -0.2130  0.0828  0.4947
 1480Sol     HW 6669   2.877   3.318   8.106  1.9410  0.0293  0.0226
 1480Sol     MW 6670   2.878   3.369   8.179  0.0999 -0.6287  0.3738
 1481Sol     OW 6671   3.054   2.509  12.781 -0.0356 -0.3684 -0.0484
 1481Sol     HW 6672   3.078   2.562  12.857  0.2425  0.9823 -1.0543
 1481Sol     HW 6673   2.995   2.565  12.731 -0.5602 -1.4116 -0.6016
 1481Sol     MW 6674   3.051   2.519  12.784  0.0253  0.2634 -0.7939
 1482Sol     OW 6675   0.160   0.585   7.420  0.2962  0.4501 -0.1098
 1482Sol     HW 6676   0.141   0.679   7.425  0.4150  0.5285 -1.1034
 1482Sol     HW 6677   0.220   0.576   7.346 -0.0838 -0.4707 -0.3151
 1482Sol     MW 6678   0.164   0.593   7.414  0.4739 -0.6269  0.8851
 1483Sol     OW 6679   2.925   0.209  13.656 -0.5171  0.6070  0.2712
 1483Sol     HW 6680   2.908   0.247  13.742  0.0148 -1.1531  1.1643
 1483Sol     HW 6681   2.981   0.134  13.673 -0.4146  0.2365 -1.6136
 1483Sol     MW 6682   2.928   0.206  13.665  0.1912  0.5537  0.4527
 1484Sol     OW 6683   1.504   2.738  13.045  0.0110 -0.7142  0.3162
 1484Sol     HW 6684   1.497   2.785  12.962  0.2663 -0.2486  0.5562
 1484Sol     HW 6685   1.436   2.671  13.041 -0.0347 -0.6371 -0.2319
 1484Sol     MW 6686   1.498   2.736  13.037 -0.1802  0.6645  0.2494
 1485Sol     OW 6687   3.064   2.022  10.640 -0.3453 -0.0752  0.2669
 1485Sol     HW 6688   3.016   1.939  10.638 -0.1856 -0.1574 -0.3952
 1485Sol     HW 6689   3.044   2.063  10.556 -0.5243  0.6175  0.6483
 1485Sol     MW 6690   3.058   2.018  10.632 -0.3289  0.1703  0.0903
 1486Sol     OW 6691   0.463   2.179  12.959  0.1859  0.1450 -0.6588
 1486Sol     HW 6692   0.455   2.115  12.888  1.3034  0.1473 -0.7911
 1486Sol     HW 6693   0.488   2.260  12.915 -2.1006  0.9214 -0.5993
 1486Sol     MW 6694   0.464   2.181  12.949 -0.7095  0.2368 -0.2700
 1487Sol     OW 6695   3.141   1.216   7.033  0.0074 -0.2879  0.0433
 1487Sol     HW 6696   3.193   1.156   7.087  0.4955 -0.3702 -0.5214
 1487Sol     HW 6697   3.184   1.300   7.042  1.3483 -0.7415 -1.9166
 1487Sol     MW 6698   3.150   1.218   7.039  0.4762 -0.1790  0.2980
 1488Sol     OW 6699   1.012   3.259  13.286 -0.6430 -0.1066  0.4898
 1488Sol     HW 6700   1.048   3.348  13.285 -1.1826  0.1358  1.6472
 1488Sol     HW 6701   0.928   3.268  13.330  1.1440 -1.8224  4.5289
 1488Sol     MW 6702   1.008   3.268  13.290 -0.0421  0.3321  0.4476
 1489Sol     OW 6703   2.732   0.122  10.045  0.4224 -0.2470  0.3953
 1489Sol     HW 6704   2.772   0.199  10.087  0.6772  0.6422 -1.4079
 1489Sol     HW 6705   2.754   0.049  10.102  4.5921  0.2204 -0.4266
 1489Sol     MW 6706   2.737   0.123  10.054  0.1101  0.7534 -0.2915
 1490Sol     OW 6707   0.467   0.940  13.589 -0.0229  0.2884 -0.2358
 1490Sol     HW 6708   0.432   0.937  13.678 -1.6334 -2.7865 -0.9010
 1490Sol     HW 6709   0.391   0.926  13.533  1.1918  0.7500 -2.0456
 1490Sol     MW 6710   0.457   0.938  13.592 -0.8023 -0.1019  0.1113
 1491Sol     OW 6711   3.245   1.418  13.933 -0.2990 -0.1237  0.0435
 1491Sol     HW 6712   3.340   1.407  13.930 -0.3602 -0.8743  0.7435
 1491Sol     HW 6713   3.221   1.395  14.023 -0.9859  1.3564  0.2470
 1491Sol     MW 6714   3.251   1.415  13.941 -0.1299  0.1762  0.2110
 1492Sol     OW 6715   0.364   0.049  14.197  0.0033 -0.3485 -0.2432
 1492Sol     HW 6716   0.444   0.082  14.237 -0.8546  1.5723 -0.0552
 1492Sol     HW 6717   0.318   0.004  14.268 -0.2793  0.7518  0.2709
 1492Sol     MW 6718   0.367   0.048  14.207  0.3975 -0.4581  0.6385
 1493Sol     OW 6719   3.037   3.026   8.574 -0.4391  0.1110 -0.0997
 1493Sol     HW 6720   2.946   3.002   8.591 -0.5640 -0.5984 -1.6236
 1493Sol     HW 6721   3.086   2.989   8.647 -1.3918  0.5585  0.7626
 1493Sol     MW 6722   3.033   3.020   8.582 -0.2261 -0.9983  0.2549
 1494Sol     OW 6723   2.683   0.263   7.312  0.0955 -0.2556 -0.1711
 1494Sol     HW 6724   2.620   0.299   7.250  1.4247  0.3123 -1.2396
 1494Sol     HW 6725   2.675   0.168   7.302  0.9236 -0.1611 -1.8958
 1494Sol     MW 6726   2.677   0.258   7.305 -0.1688  0.5086  0.0707
 1495Sol     OW 6727   3.071   3.065  12.203  0.0914 -0.0064  0.0492
 1495Sol     HW 6728   3.050   3.106  12.287  1.3326  0.0170  0.3596
 1495Sol     HW 6729   3.165   3.047  12.208  0.9403  3.1657 -2.6360
 1495Sol     MW 6730   3.078   3.067  12.211  0.6040  0.6774 -0.2409
 1496Sol     OW 6731   0.170   2.582  12.378  0.5305  0.1000 -0.2439
 1496Sol     HW 6732   0.101   2.642  12.406 -0.5875 -0.9536 -0.7047
 1496Sol     HW 6733   0.203   2.544  12.459 -0.9526 -1.0357 -0.1529
 1496Sol     MW 6734   0.167   2.584  12.388  0.3772  0.3043 -0.5919
 1497Sol     OW 6735   0.320   3.114   7.077  0.1564  0.0668  0.6534
 1497Sol     HW 6736   0.347   3.056   7.006 -0.5962  0.9062 -0.3536
 1497Sol     HW 6737   0.402   3.147   7.114  0.5598 -0.3814  0.1610
 1497Sol     MW 6738   0.330   3.112   7.074  0.3691 -0.4223 -0.0354
 1498Sol     OW 6739   2.747   3.202   9.419  0.4929  0.3990 -0.0341
 1498Sol     HW 6740   2.660   3.212   9.379  0.7321 -0.0496 -0.6806
 1498Sol     HW 6741   2.743   3.256   9.498 -1.0771 -1.2402  1.0692
 1498Sol     MW 6742   2.739   3.207   9.423 -0.6789  0.2740  0.2124
 1499Sol     OW 6743   2.575   0.378   8.278  0.2109 -0.2659  0.2883
 1499Sol     HW 6744   2.644   0.313   8.292  1.0839  0.8946  1.5444
 1499Sol     HW 6745   2.619   0.450   8.233 -1.2452 -1.4197 -3.1020
 1499Sol     MW 6746   2.585   0.379   8.275  0.5068  0.2803  0.2210
 1500Sol     OW 6747   0.075   1.448   7.866  0.7779 -0.3606 -0.3610
 1500Sol     HW 6748   0.169   1.461   7.874  0.5215  1.3318  0.0151
 1500Sol     HW 6749   0.062   1.429   7.773  1.3220  0.9130 -0.7035
 1500Sol     MW 6750   0.082   1.447   7.858 -0.4224  0.3068 -0.4258
 1501Sol     OW 6751   0.232   2.561  10.692  0.2096  0.7969  0.1160
 1501Sol     HW 6752   0.179   2.536  10.616 -0.3570 -0.2352  0.8364
 1501Sol     HW 6753   0.278   2.640  10.664  1.0524 -0.3213 -1.7862
 1501Sol     MW 6754   0.232   2.566  10.683 -0.3687  1.0651 -0.1991
 1502Sol     OW 6755   3.162   0.037   9.886  0.4785  0.2151 -0.4065
 1502Sol     HW 6756   3.147  -0.030   9.953 -0.6040 -0.0556 -0.9240
 1502Sol     HW 6757   3.256   0.055   9.892  0.1349  1.4441  2.3810
 1502Sol     MW 6758   3.169   0.032   9.893 -0.5841 -0.4954 -0.7502
 1503Sol     OW 6759   3.211   3.369  11.817  0.2629 -0.0072  0.0432
 1503Sol     HW 6760   3.220   3.418  11.899  0.2705  2.6557 -1.5013
 1503Sol     HW 6761   3.291   3.315  11.813  0.2322 -0.2269  1.7832
 1503Sol     MW 6762   3.219   3.368  11.824 -0.4449 -0.2397  0.4961
 1504Sol     OW 6763   2.747   1.927  13.002  0.5821 -0.1342 -0.4284
 1504Sol     HW 6764   2.744   1.967  13.089 -1.5616 -2.4252  0.5948
 1504Sol     HW 6765   2.837   1.942  12.972  1.4474  0.4050  2.3140
 1504Sol     MW 6766   2.755   1.932  13.007  0.0160  0.0510 -0.0751
 1505Sol     OW 6767   0.338   1.857   6.429 -0.3151 -0.3165 -0.2269
 1505Sol     HW 6768   0.362   1.774   6.389 -0.7833 -0.5436 -0.0464
 1505Sol     HW 6769   0.310   1.834   6.518 -0.7056 -0.0053 -0.2665
 1505Sol     MW 6770   0.337   1.848   6.434 -0.0324  0.2951  0.0621
 1506Sol     OW 6771   1.388   1.587  11.000  0.2256 -0.0535 -0.1758
 1506Sol     HW 6772   1.467   1.577  10.947 -0.3776 -1.9644 -0.7783
 1506Sol     HW 6773   1.325   1.627  10.940 -0.2273 -1.5166 -0.6934
 1506Sol     MW 6774   1.389   1.590  10.990  0.0235  0.6811 -0.0402
 1507Sol     OW 6775   1.036   1.063   8.484  0.1988 -0.3370 -0.0478
 1507Sol     HW 6776   1.082   1.038   8.403 -0.5915  0.1776 -0.6660
 1507Sol     HW 6777   1.088   1.136   8.519  0.9376 -1.0220  0.2814
 1507Sol     MW 6778   1.045   1.067   8.480  0.2600  0.4476  0.2078
 1508Sol     OW 6779   3.257   3.347   8.363 -0.2383 -0.2974  0.2599
 1508Sol     HW 6780   3.323   3.406   8.401 -1.3920  0.9456  0.3649
 1508Sol     HW 6781   3.197   3.328   8.434 -0.2432 -1.0792  0.0486
 1508Sol     MW 6782   3.258   3.351   8.372  0.0520 -0.6024 -0.6756
 1509Sol     OW 6783   1.340   2.242   7.161  1.6506 -0.1905 -0.0130
 1509Sol     HW 6784   1.371   2.180   7.228 -1.1566  0.1330  1.6302
 1509Sol     HW 6785   1.255   2.208   7.135  0.5624  2.3598  0.0928
 1509Sol     MW 6786   1.335   2.233   7.165 -0.1063 -0.5243  1.0206
 1510Sol     OW 6787   2.132   1.009   8.683 -0.4070 -0.4580 -0.1841
 1510Sol     HW 6788   2.047   1.023   8.726 -0.0757 -1.5621  0.8772
 1510Sol     HW 6789   2.159   1.096   8.654 -1.2801  0.1142  0.6726
 1510Sol     MW 6790   2.127   1.018   8.684 -0.5142  0.1841 -0.4084
 1511Sol     OW 6791   1.687   0.102  11.617 -0.2356  0.4073  0.0669
 1511Sol     HW 6792   1.737   0.184  11.608  3.4873 -1.5701  1.5891
 1511Sol     HW 6793   1.642   0.111  11.702  2.9067 -0.4061  1.9152
 1511Sol     MW 6794   1.688   0.110  11.624 -0.3493 -0.1529 -0.0084
 1512Sol     OW 6795   1.494   2.490   8.908  0.1143  0.0749 -0.6942
 1512Sol     HW 6796   1.583   2.511   8.881 -0.4822  1.2959 -1.8024
 1512Sol     HW 6797   1.462   2.569   8.951 -0.0059 -0.8064  0.8927
 1512Sol     MW 6798   1.499   2.499   8.909  0.0428  0.4617  0.3256
 1513Sol     OW 6799   0.809   2.395  11.860 -0.3045  0.2330 -0.0028
 1513Sol     HW 6800   0.763   2.372  11.779 -0.6882  0.3913  0.1720
 1513Sol     HW 6801   0.845   2.312  11.891  1.1006  0.4109 -1.1191
 1513Sol     MW 6802   0.808   2.385  11.855 -0.4296  0.9726  0.0421
 1514Sol     OW 6803   0.490   1.309  11.817  0.0101 -0.1308  0.1157
 1514Sol     HW 6804   0.416   1.314  11.757 -0.2669  0.2923  0.4882
 1514Sol     HW 6805   0.567   1.305  11.761 -0.2942 -0.6176 -0.2749
 1514Sol     MW 6806   0.490   1.309  11.807  0.0111 -0.1241 -0.4982
 1515Sol     OW 6807   3.027   2.788   9.333 -0.0822 -0.1485 -0.0117
 1515Sol     HW 6808   3.042   2.772   9.426 -1.0423 -0.5172  0.0824
 1515Sol     HW 6809   3.064   2.712   9.289  2.4719  1.1056 -0.0964
 1515Sol     MW 6810   3.032   2.780   9.337 -0.5291 -0.2194 -0.3654
 1516Sol     OW 6811   0.058   1.854   9.127  0.4108 -0.7319 -0.2287
 1516Sol     HW 6812   0.062   1.805   9.210  1.2321  0.5993  0.5383
 1516Sol     HW 6813   0.150   1.870   9.105  0.1568  0.2047 -0.6181
 1516Sol     MW 6814   0.067   1.851   9.133 -0.5102  0.1358  0.3174
 1517Sol     OW 6815   1.585   2.812  11.634 -0.2455  0.0027 -0.1958
 1517Sol     HW 6816   1.678   2.830  11.619 -0.4688  0.1341 -1.5238
 1517Sol     HW 6817   1.573   2.822  11.729  1.2949 -1.0237  0.1188
 1517Sol     MW 6818   1.592   2.815  11.641  0.8116 -0.2980 -0.3348
 1518Sol     OW 6819   1.695   3.411   9.884  0.0712  0.6418 -0.6677
 1518Sol     HW 6820   1.689   3.369   9.799 -0.2576 -0.7614  0.0280
 1518Sol     HW 6821   1.747   3.351   9.937 -0.8112  0.8662  0.4865
 1518Sol     MW 6822   1.699   3.402   9.881 -0.1540 -0.0957 -0.9454
 1519Sol     OW 6823   1.310   2.122   8.967 -0.0688  0.0120 -0.2020
 1519Sol     HW 6824   1.304   2.042   9.019  0.0059  0.6654  0.8213
 1519Sol     HW 6825   1.291   2.192   9.029 -0.7798  0.7439 -1.2430
 1519Sol     MW 6826   1.308   2.121   8.977 -0.4553  0.4805 -0.0252
 1520Sol     OW 6827   1.449   1.900   6.240 -0.1979  0.0392  0.4380
 1520Sol     HW 6828   1.369   1.950   6.225  0.1702  0.5823  0.2837
 1520Sol     HW 6829   1.436   1.820   6.189 -0.1105  0.6872 -0.6203
 1520Sol     MW 6830   1.441   1.897   6.234  0.2205 -0.4766  0.2636
 1521Sol     OW 6831   0.859   1.350  12.574  0.1900  0.4935 -0.2215
 1521Sol     HW 6832   0.856   1.337  12.479  1.2939 -0.2592 -0.1648
 1521Sol     HW 6833   0.891   1.439  12.586 -0.0883  0.6387 -0.5584
 1521Sol     MW 6834   0.862   1.357  12.566  0.4002 -0.0799 -1.8051
 1522Sol     OW 6835   3.148   1.928   6.858  0.1398 -0.6320  0.1804
 1522Sol     HW 6836   3.109   1.915   6.772  1.5019 -0.2810 -0.5016
 1522Sol     HW 6837   3.136   1.844   6.903 -1.4138 -0.5163  0.0018
 1522Sol     MW 6838   3.144   1.919   6.854  0.0337 -0.3438  0.6949
 1523Sol     OW 6839   0.848   3.365  12.382 -0.2232  0.0852 -0.6562
 1523Sol     HW 6840   0.787   3.403  12.318 -1.6830 -1.6033 -0.3055
 1523Sol     HW 6841   0.796   3.357  12.462  1.5010  1.9099  0.7025
 1523Sol     MW 6842   0.838   3.368  12.383  0.0086 -0.2053  0.5078
 1524Sol     OW 6843   1.944   0.372  12.263  1.1628 -0.0577 -0.6778
 1524Sol     HW 6844   1.885   0.446  12.248  1.4804  0.1883 -0.6948
 1524Sol     HW 6845   1.925   0.344  12.352 -0.0082 -0.8824 -1.1749
 1524Sol     MW 6846   1.937   0.376  12.269  0.5715 -0.3871 -0.0455
 1525Sol     OW 6847   0.941   2.014  11.569 -0.5967  0.0552 -0.1678
 1525Sol     HW 6848   0.901   2.097  11.544 -2.4846 -0.2922  1.6192
 1525Sol     HW 6849   0.886   1.947  11.528 -0.3243 -0.3701  0.1508
 1525Sol     MW 6850   0.933   2.015  11.563 -0.5078 -0.0407  0.1305
 1526Sol     OW 6851   0.643   2.425   6.147  0.4629  0.5598  0.6897
 1526Sol     HW 6852   0.722   2.476   6.129  0.2835  0.6889  0.2588
 1526Sol     HW 6853   0.626   2.378   6.065  1.1602 -0.9124  1.3699
 1526Sol     MW 6854   0.649   2.425   6.138 -0.3646 -0.0087  0.4259
 1527Sol     OW 6855   0.337   0.243  11.002 -0.0762  0.1189  0.1584
 1527Sol     HW 6856   0.301   0.162  11.038  0.1237  0.4888  1.1890
 1527Sol     HW 6857   0.354   0.222  10.910  0.2191 -1.0869  0.4802
 1527Sol     MW 6858   0.335   0.234  10.997 -0.2624 -0.0028 -0.8667
 1528Sol     OW 6859   1.935   1.627  12.982  0.1845  0.3304  0.1269
 1528Sol     HW 6860   1.847   1.662  12.991  0.1762  0.1000  0.9663
 1528Sol     HW 6861   1.972   1.632  13.070  0.4960 -0.9347  0.0721
 1528Sol     MW 6862   1.931   1.631  12.991 -0.5112  0.0219  0.6636
 1529Sol     OW 6863   1.319   2.913   9.560 -0.2499  0.5437  0.3739
 1529Sol     HW 6864   1.257   2.896   9.631 -0.2762  0.6713  0.3814
 1529Sol     HW 6865   1.270   2.967   9.498 -0.0341  0.9272  0.5410
 1529Sol     MW 6866   1.309   2.916   9.561 -0.5365 -0.1240  0.3051
 1530Sol     OW 6867   0.707   3.018  12.232  0.2723  0.1952 -0.6672
 1530Sol     HW 6868   0.663   3.075  12.169 -1.1375 -0.7280 -0.5475
 1530Sol     HW 6869   0.768   2.967  12.179  1.9819  2.2105 -0.6802
 1530Sol     MW 6870   0.708   3.018  12.222  0.4902  0.3401 -0.9191
 1531Sol     OW 6871   0.823   3.165   9.030 -0.1818  0.0406 -0.0282
 1531Sol     HW 6872   0.820   3.231   9.098 -1.4495 -0.2110  0.1644
 1531Sol     HW 6873   0.907   3.180   8.986 -0.2513  1.4711  0.3052
 1531Sol     MW 6874   0.830   3.172   9.032  0.4907 -0.9705 -0.2567
 1532Sol     OW 6875   2.570   3.430  11.561  0.4166  0.5827 -0.5359
 1532Sol     HW 6876   2.623   3.508  11.580  0.0855  0.4524  1.0195
 1532Sol     HW 6877   2.633   3.363  11.536  0.8072  1.0352 -0.7602
 1532Sol     MW 6878   2.580   3.431  11.561  0.1971  0.6698  0.4962
 1533Sol     OW 6879   2.375   1.701   7.547 -0.4788  0.0615  0.4658
 1533Sol     HW 6880   2.445   1.646   7.512  1.0519  2.2628 -0.0341
 1533Sol     HW 6881   2.298   1.679   7.493  0.2332 -1.1732 -0.0710
 1533Sol     MW 6882   2.374   1.694   7.539  0.1636 -0.4197  0.1036
 1534Sol     OW 6883   2.940   0.284   7.129  0.0666  0.3644  0.3268
 1534Sol     HW 6884   2.885   0.255   7.202  0.3072  2.6980  1.4971
 1534Sol     HW 6885   3.028   0.252   7.150 -0.2964 -1.0106 -0.1710
 1534Sol     MW 6886   2.943   0.279   7.137 -0.3442  0.3567 -0.0302
 1535Sol     OW 6887   2.580   1.681  11.514 -0.3621 -0.5112  0.1304
 1535Sol     HW 6888   2.670   1.663  11.489 -0.5863 -2.0887  0.4273
 1535Sol     HW 6889   2.535   1.695  11.431  0.1958  0.5398 -0.0053
 1535Sol     MW 6890   2.584   1.681  11.504 -0.3642  0.6001 -0.8726
 1536Sol     OW 6891   0.131   2.153  10.720 -0.1576 -0.0326  0.6439
 1536Sol     HW 6892   0.108   2.060  10.715 -0.4179  0.0106  1.0396
 1536Sol     HW 6893   0.064   2.192  10.776 -0.0987  0.4124  0.4075
 1536Sol     MW 6894   0.123   2.148  10.725  0.2094 -0.2732 -0.1097
 1537Sol     OW 6895   1.851   2.077   6.596 -0.0412  0.2166  0.1629
 1537Sol     HW 6896   1.786   2.011   6.620 -0.4567  0.7619  0.5385
 1537Sol     HW 6897   1.864   2.127   6.677  2.4174 -1.2150  0.7198
 1537Sol     MW 6898   1.847   2.075   6.606 -0.2753  0.2709  0.4639
 1538Sol     OW 6899   1.400   3.144   8.959 -0.2406 -0.4251 -0.0709
 1538Sol     HW 6900   1.398   3.185   8.872  0.7583 -1.7751 -0.7439
 1538Sol     HW 6901   1.423   3.216   9.018 -1.1174  0.5430 -0.9015
 1538Sol     MW 6902   1.402   3.154   8.957 -0.5659 -0.6266  0.1070
 1539Sol     OW 6903   0.712   0.561  11.419 -0.0563  0.1075 -0.0663
 1539Sol     HW 6904   0.797   0.599  11.443  0.1980 -0.5304  0.0485
 1539Sol     HW 6905   0.668   0.545  11.502 -0.9882  1.9780 -0.1588
 1539Sol     MW 6906   0.716   0.563  11.429 -0.2439 -0.9361  0.1718
 1540Sol     OW 6907   1.903   0.225   7.116  0.3114 -0.5862 -0.3035
 1540Sol     HW 6908   1.939   0.314   7.113  1.5144 -1.0143  1.0259
 1540Sol     HW 6909   1.830   0.227   7.054 -0.1561  1.5450  0.2765
 1540Sol     MW 6910   1.899   0.233   7.110  0.0139 -0.0831  0.6499
 1541Sol     OW 6911   0.063   3.152  10.025 -0.3650  0.4080  0.2205
 1541Sol     HW 6912   0.059   3.129   9.932  1.3630  1.9487 -0.2540
 1541Sol     HW 6913  -0.023   3.128  10.059 -0.8507 -0.6296 -1.6625
 1541Sol     MW 6914   0.055   3.148  10.020  0.6653  1.1356  0.1106
 1542Sol     OW 6915   1.396   1.069   7.596 -0.1766 -0.0483  0.7389
 1542Sol     HW 6916   1.487   1.038   7.588 -0.1367 -0.3833  2.3338
 1542Sol     HW 6917   1.399   1.160   7.569  0.1920 -0.7013 -1.5229
 1542Sol     MW 6918   1.405   1.074   7.593 -0.2207  0.6881  0.4875
 1543Sol     OW 6919   0.553   0.993   9.993  0.4319 -0.1442 -0.6823
 1543Sol     HW 6920   0.539   0.979  10.086 -0.0021 -0.3100 -0.7727
 1543Sol     HW 6921   0.571   1.086   9.985  1.8826 -0.3676 -0.2591
 1543Sol     MW 6922   0.554   1.000  10.000  0.6290  0.1232 -0.6036
 1544Sol     OW 6923   1.335   0.639  11.371  0.1312  0.1188  0.0816
 1544Sol     HW 6924   1.266   0.702  11.355  0.6177  0.4778 -0.6088
 1544Sol     HW 6925   1.416   0.685  11.348  0.3723 -1.2645 -2.0038
 1544Sol     MW 6926   1.336   0.648  11.368 -0.0717  0.4922 -0.4795
 1545Sol     OW 6927   0.323   0.695  10.158  0.2983  0.1490 -0.4575
 1545Sol     HW 6928   0.360   0.771  10.202  0.0284 -0.4733  0.8793
 1545Sol     HW 6929   0.377   0.683  10.080  2.1789 -0.0145  0.8360
 1545Sol     MW 6930   0.331   0.700  10.155  0.2806  0.2243 -0.3154
 1546Sol     OW 6931   0.213   3.275   8.621 -0.8192 -0.9274 -0.2963
 1546Sol     HW 6932   0.201   3.197   8.675 -3.0815  1.1653  2.3796
 1546Sol     HW 6933   0.304   3.269   8.590  0.4253 -2.4460  3.3852
 1546Sol     MW 6934   0.220   3.268   8.623  0.1205 -0.9540  1.2418
 1547Sol     OW 6935   3.140   1.987  10.101  0.6947  0.6557 -0.7491
 1547Sol     HW 6936   3.188   2.062  10.137  1.2676  0.5929 -1.3607
 1547Sol     HW 6937   3.166   1.913  10.156  0.0640  0.9150 -0.0917
 1547Sol     MW 6938   3.147   1.987  10.109 -0.2882 -0.1638  0.0555
 1548Sol     OW 6939   1.141   2.522  12.755  0.6271 -0.7435  0.0080
 1548Sol     HW 6940   1.115   2.578  12.828  0.3151 -0.1732 -0.5337
 1548Sol     HW 6941   1.101   2.437  12.775  0.4070 -0.5439  0.4212
 1548Sol     MW 6942   1.135   2.519  12.763 -0.2156 -0.1322  0.0219
 1549Sol     OW 6943   0.194   1.111  13.203 -0.0773 -0.1866 -0.0886
 1549Sol     HW 6944   0.281   1.150  13.212 -0.1929 -0.1019  0.6667
 1549Sol     HW 6945   0.151   1.130  13.286 -0.0760 -2.0800  0.3698
 1549Sol     MW 6946   0.198   1.116  13.211 -0.4594  0.1257 -0.1185
 1550Sol     OW 6947   0.439   3.123   9.125  0.4891 -0.0538 -0.2583
 1550Sol     HW 6948   0.405   3.205   9.159 -0.8474 -1.1732  1.1871
 1550Sol     HW 6949   0.513   3.101   9.182  1.7879  0.8579 -1.5494
 1550Sol     MW 6950   0.443   3.128   9.133  0.3584  0.4646 -0.5514
 1551Sol     OW 6951   1.953   1.943  13.457 -0.1214 -0.7570  0.8335
 1551Sol     HW 6952   1.880   1.969  13.401 -0.0257 -1.1278  0.5354
 1551Sol     HW 6953   2.025   1.999  13.430  0.0200 -1.1736  0.3529
 1551Sol     MW 6954   1.953   1.950  13.450 -0.6065  0.1218  0.1723
 1552Sol     OW 6955   1.904   1.065  11.381 -0.2081  0.2011 -0.6432
 1552Sol     HW 6956   1.942   1.083  11.467 -0.9209  0.1526 -0.3099
 1552Sol     HW 6957   1.867   1.150  11.354  1.9278  0.7606 -1.8900
 1552Sol     MW 6958   1.904   1.075  11.387  0.1286 -1.0199  0.2959
 1553Sol     OW 6959   0.205   2.504   8.666  0.1216  0.2023  0.0912
 1553Sol     HW 6960   0.133   2.445   8.644  1.3845 -2.2011  2.1503
 1553Sol     HW 6961   0.271   2.488   8.598 -0.7643  1.5413 -1.1149
 1553Sol     MW 6962   0.205   2.497   8.658  0.4741  0.3151  0.1683
 1554Sol     OW 6963   2.470   2.314  11.549 -0.2049 -0.5798  0.0489
 1554Sol     HW 6964   2.534   2.309  11.620 -0.1879 -0.0310  0.0704
 1554Sol     HW 6965   2.522   2.328  11.470 -0.1835 -1.7526 -0.1497
 1554Sol     MW 6966   2.480   2.315  11.549 -0.6502  0.1902 -0.2547
 1555Sol     OW 6967   1.167   1.089   9.880  0.3158  0.3352  0.4806
 1555Sol     HW 6968   1.154   1.121   9.790 -0.9645 -1.2656  0.0679
 1555Sol     HW 6969   1.085   1.044   9.901  1.5098 -1.3674  1.5767
 1555Sol     MW 6970   1.158   1.088   9.874 -0.4684  0.5297 -0.2321
 1556Sol     OW 6971   1.462   1.684  13.010  0.3342  0.7338 -0.3447
 1556Sol     HW 6972   1.475   1.615  13.076  2.1297  1.1363 -0.2554
 1556Sol     HW 6973   1.372   1.672  12.981  0.9253 -2.4392 -1.1699
 1556Sol     MW 6974   1.455   1.676  13.013  0.0184 -0.1558  0.4700
 1557Sol     OW 6975   2.583   1.137  13.654  0.3508 -0.0239 -0.4481
 1557Sol     HW 6976   2.498   1.094  13.664 -1.1889  2.8339 -0.4397
 1557Sol     HW 6977   2.589   1.157  13.561  1.9833 -2.0504 -0.7892
 1557Sol     MW 6978   2.576   1.135  13.647  0.0041  0.3430 -0.2189
 1558Sol     OW 6979   1.184   1.823   6.489  0.5399 -0.1179 -0.1817
 1558Sol     HW 6980   1.174   1.907   6.444 -0.7008  0.1941  0.6456
 1558Sol     HW 6981   1.106   1.816   6.544 -0.3446 -2.6905 -1.6609
 1558Sol     MW 6982   1.176   1.830   6.490 -0.6360 -0.4605  0.5865
 1559Sol     OW 6983   1.442   1.304   8.543 -0.1824 -0.1790  0.1703
 1559Sol     HW 6984   1.466   1.230   8.600  1.3137 -1.3182 -1.8921
 1559Sol     HW 6985   1.348   1.314   8.557  0.2062 -0.0689  3.2450
 1559Sol     MW 6986   1.436   1.298   8.550 -0.2880 -0.0147 -0.0579
 1560Sol     OW 6987   0.510   2.820  12.711 -0.1307  0.3147  0.0171
 1560Sol     HW 6988   0.605   2.817  12.699  0.0563 -1.0298  1.6042
 1560Sol     HW 6989   0.497   2.885  12.780 -0.2756 -0.2229  0.4997
 1560Sol     MW 6990   0.518   2.825  12.716 -0.1462 -0.4372  0.2056
 1561Sol     OW 6991   3.120   0.217   9.390 -0.3100  0.2198  0.0795
 1561Sol     HW 6992   3.123   0.259   9.304 -1.7091 -0.4871 -0.3318
 1561Sol     HW 6993   3.140   0.287   9.452 -1.8645  1.3359 -0.6480
 1561Sol     MW 6994   3.122   0.227   9.388  0.1455  0.0997 -0.5743
 1562Sol     OW 6995   2.309   3.465  12.419  0.2588  0.7029 -0.3219
 1562Sol     HW 6996   2.392   3.430  12.451  0.3355  1.3672  0.2363
 1562Sol     HW 6997   2.296   3.424  12.334  0.5257 -0.3738  0.1541
 1562Sol     MW 6998   2.316   3.459  12.414 -0.2284  0.2322  0.1434
 1563Sol     OW 6999   2.108   0.238  12.088  0.3655  0.0393 -0.4887
 1563Sol     HW 7000   2.148   0.324  12.074  0.1130 -0.0350 -1.7243
 1563Sol     HW 7001   2.052   0.250  12.164  1.2426  0.6577  0.0780
 1563Sol     MW 7002   2.107   0.247  12.094  0.1142  0.0156 -0.2442
 1564Sol     OW 7003   0.381   0.022   7.345 -0.0647  0.4644 -0.2917
 1564Sol     HW 7004   0.332  -0.058   7.365 -1.4250  1.3373 -0.0637
 1564Sol     HW 7005   0.448  -0.006   7.284 -1.3273 -0.6193 -1.2162
 1564Sol     MW 7006   0.382   0.012   7.342 -0.0654  0.4706  0.2723
 1565Sol     OW 7007   3.321   1.598   8.573 -0.1887  0.6595 -0.1418
 1565Sol     HW 7008   3.361   1.684   8.588 -1.3988  1.5732 -1.9706
 1565Sol     HW 7009   3.394   1.542   8.546  0.3744  1.5342 -0.4691
 1565Sol     MW 7010   3.332   1.601   8.572 -0.0115 -0.3516  0.0088
 1566Sol     OW 7011   1.830   3.298  10.091 -0.1298 -0.5131  0.0402
 1566Sol     HW 7012   1.811   3.313  10.183  3.7483 -0.2191  0.8455
 1566Sol     HW 7013   1.885   3.371  10.065 -1.2433 -0.5481 -2.5667
 1566Sol     MW 7014   1.833   3.306  10.097 -0.2180 -0.0368  0.0336
 1567Sol     OW 7015   2.242   0.311   7.259 -0.2660  0.6573 -0.2868
 1567Sol     HW 7016   2.219   0.395   7.298 -2.6173  0.0893 -0.3390
 1567Sol     HW 7017   2.250   0.252   7.335 -2.5991  0.0639 -0.4527
 1567Sol     MW 7018   2.240   0.313   7.270 -0.1761 -0.6864 -0.6335
 1568Sol     OW 7019   1.603   2.090  14.001 -0.2067 -0.0584  0.3880
 1568Sol     HW 7020   1.665   2.160  14.023 -0.6124  0.3876  0.1298
 1568Sol     HW 7021   1.658   2.016  13.976  0.2371 -0.0633  1.3502
 1568Sol     MW 7022   1.613   2.090  14.001  0.4615 -0.5614 -0.7698
 1569Sol     OW 7023   0.786   1.170   8.421  0.5761 -0.1776 -0.3044
 1569Sol     HW 7024   0.878   1.145   8.432  0.6076 -0.9427 -2.1417
 1569Sol     HW 7025   0.774   1.177   8.327 -1.4933 -0.9898 -0.1331
 1569Sol     MW 7026   0.793   1.169   8.414 -0.2091 -0.1973  0.2028
 1570Sol     OW 7027   0.402   2.373  10.791 -0.1580  0.5035  0.4281
 1570Sol     HW 7028   0.405   2.295  10.736 -0.9715  0.4086  0.5167
 1570Sol     HW 7029   0.348   2.435  10.741 -0.9844  0.3800  1.1602
 1570Sol     MW 7030   0.397   2.372  10.781 -0.3029 -0.0940  0.0462
 1571Sol     OW 7031   1.699   2.055   6.175 -0.2597  0.4424 -0.2629
 1571Sol     HW 7032   1.660   2.139   6.197 -0.8325  0.3298 -0.8046
 1571Sol     HW 7033   1.635   1.990   6.204 -0.1310  0.2216 -0.4654
 1571Sol     MW 7034   1.690   2.056   6.179 -0.5788 -0.1988  0.5984
 1572Sol     OW 7035   0.847   2.204  10.034 -0.4271  0.4498 -0.5604
 1572Sol     HW 7036   0.842   2.234   9.943 -2.0684  2.1805  0.0785
 1572Sol     HW 7037   0.772   2.144  10.042 -1.3259  1.6391  0.1090
 1572Sol     MW 7038   0.840   2.201  10.026 -0.3141 -0.0292  0.1802
 1573Sol     OW 7039   1.641   2.861   6.680  0.2025 -0.8519 -0.8500
 1573Sol     HW 7040   1.597   2.946   6.688  1.0814 -0.4506 -0.1687
 1573Sol     HW 7041   1.715   2.867   6.741 -0.0043 -2.2844 -0.4460
 1573Sol     MW 7042   1.644   2.869   6.686  0.0699  0.3162 -0.4981
 1574Sol     OW 7043   3.262   2.186   6.689 -0.1560 -0.2138 -0.3458
 1574Sol     HW 7044   3.185   2.133   6.709  0.0431 -1.0857 -1.8502
 1574Sol     HW 7045   3.250   2.212   6.598 -0.0023  1.9275  0.2205
 1574Sol     MW 7046   3.254   2.184   6.682  0.4461  0.4555 -0.2561
 1575Sol     OW 7047   1.651   0.129   9.134  0.4639 -0.1549  0.1261
 1575Sol     HW 7048   1.725   0.184   9.159  0.7553  0.3649 -1.8209
 1575Sol     HW 7049   1.588   0.189   9.095 -0.3211 -0.8365  0.3226
 1575Sol     MW 7050   1.652   0.139   9.133 -0.3303 -0.4885 -0.2188
 1576Sol     OW 7051   1.530   1.571  12.402 -0.0917 -0.0226  0.2040
 1576Sol     HW 7052   1.481   1.501  12.445  0.6155 -0.8923 -0.3766
 1576Sol     HW 7053   1.616   1.532  12.383  0.2086  0.9091 -0.3862
 1576Sol     MW 7054   1.534   1.561  12.404  0.3317  0.0807 -0.5374
 1577Sol     OW 7055   1.152   0.886   9.192  0.0327  0.3943 -0.1864
 1577Sol     HW 7056   1.208   0.875   9.115 -0.4064  0.2160 -0.4771
 1577Sol     HW 7057   1.070   0.843   9.169 -0.1276  0.4086  0.3504
 1577Sol     MW 7058   1.150   0.881   9.183  0.1103  0.5087  0.0963
 1578Sol     OW 7059   0.974   1.784   6.645  0.1093 -0.0025 -0.3797
 1578Sol     HW 7060   0.895   1.815   6.689 -0.3811 -1.4795 -0.1758
 1578Sol     HW 7061   1.013   1.722   6.706  0.6512 -0.3513 -1.0694
 1578Sol     MW 7062   0.970   1.781   6.654  0.0347 -0.1883 -0.5196
 1579Sol     OW 7063   2.591   0.253   7.705  0.3242  0.0169  0.1826
 1579Sol     HW 7064   2.627   0.166   7.724  1.0410  0.0049 -1.1448
 1579Sol     HW 7065   2.630   0.310   7.772 -0.0174 -0.6556  0.9530
 1579Sol     MW 7066   2.598   0.251   7.712 -0.6116 -0.2502  0.1743
 1580Sol     OW 7067   1.902   0.692  10.764  0.4039  0.4474  0.3946
 1580Sol     HW 7068   1.928   0.706  10.855  0.4816  1.3900  0.2369
 1580Sol     HW 7069   1.922   0.600  10.747  1.6984  0.6299  0.9048
 1580Sol     MW 7070   1.906   0.685  10.771  0.0297  1.3149  0.0838
 1581Sol     OW 7071   1.025   2.458   7.951  0.4548  0.0418  0.0606
 1581Sol     HW 7072   0.968   2.395   7.995  0.7653 -0.7551 -0.6495
 1581Sol     HW 7073   1.036   2.529   8.014 -1.3933  0.2500  0.1778
 1581Sol     MW 7074   1.020   2.459   7.960 -0.1642 -0.3462  0.0365
 1582Sol     OW 7075   0.825   0.601  12.948  0.0047 -0.1540  0.1609
 1582Sol     HW 7076   0.865   0.596  13.035 -0.8296  0.5040  0.5853
 1582Sol     HW 7077   0.789   0.690  12.943 -0.9746 -0.5836 -0.4112
 1582Sol     MW 7078   0.826   0.609  12.955 -0.3129  0.2888 -0.5404
 1583Sol     OW 7079   3.312   1.430   7.099  0.3438  0.4949 -0.3919
 1583Sol     HW 7080   3.376   1.458   7.034  1.2401  0.1618  0.3300
 1583Sol     HW 7081   3.359   1.433   7.182 -0.4871 -0.0507  0.1116
 1583Sol     MW 7082   3.322   1.432   7.101  0.0024  0.3038 -0.3250
 1584Sol     OW 7083   0.045   2.321  13.680  0.3211 -0.5934  0.5189
 1584Sol     HW 7084   0.133   2.284  13.671  0.3492  0.2152 -3.6245
 1584Sol     HW 7085   0.059   2.403  13.728  1.7254 -0.9182  0.6816
 1584Sol     MW 7086   0.054   2.325  13.683  0.3201  0.0135  0.1841
 1585Sol     OW 7087   0.456   2.073   6.304 -0.6354 -0.4019  0.2383
 1585Sol     HW 7088   0.408   1.995   6.334 -0.6703  0.0807  1.4621
 1585Sol     HW 7089   0.538   2.039   6.270 -1.7858 -1.2371 -1.7939
 1585Sol     MW 7090   0.459   2.063   6.304 -0.1026  0.4566  0.0736
 1586Sol     OW 7091   2.368   3.135  13.126 -0.3429 -0.4281  0.9186
 1586Sol     HW 7092   2.410   3.052  13.102 -1.0980 -1.0187  1.6266
 1586Sol     HW 7093   2.441   3.192  13.151  0.2356 -0.6482 -0.2111
 1586Sol     MW 7094   2.379   3.133  13.126  0.6206 -0.2155  0.2609
 1587Sol     OW 7095   0.781   1.181   8.151  0.1479 -0.6253 -0.6479
 1587Sol     HW 7096   0.866   1.195   8.111  0.7431 -0.1096  0.7462
 1587Sol     HW 7097   0.750   1.099   8.114  0.3495  0.1707 -2.6614
 1587Sol     MW 7098   0.786   1.175   8.144 -0.6344  0.2811  0.0228
 1588Sol     OW 7099   1.094   3.254   6.731 -0.1966  0.1119 -0.7563
 1588Sol     HW 7100   1.011   3.275   6.773  0.6206 -0.4163  1.1983
 1588Sol     HW 7101   1.074   3.249   6.638 -2.4858 -0.6873 -0.2390
 1588Sol     MW 7102   1.085   3.256   6.726 -0.2003 -0.1436  0.3972
 1589Sol     OW 7103   1.657   0.532  12.283 -0.2102  0.3437  0.2300
 1589Sol     HW 7104   1.595   0.564  12.348 -2.3584 -0.0836 -1.5828
 1589Sol     HW 7105   1.653   0.436  12.291 -0.1233  0.3037 -0.2118
 1589Sol     MW 7106   1.651   0.526  12.290  0.2985 -0.0131 -0.1738
 1590Sol     OW 7107   2.084   1.966   8.384  0.4185 -0.9444  0.1305
 1590Sol     HW 7108   2.176   1.959   8.358  0.3532 -2.8444  0.3538
 1590Sol     HW 7109   2.074   1.904   8.456 -1.1074 -0.9758 -0.0886
 1590Sol     MW 7110   2.091   1.960   8.388 -0.3093  0.0341 -0.3613
 1591Sol     OW 7111   2.944   3.438   9.158 -0.1635  0.2892 -0.0870
 1591Sol     HW 7112   3.028   3.442   9.113  1.0142 -0.5779  1.9524
 1591Sol     HW 7113   2.881   3.470   9.094  1.5728  0.0178 -1.9879
 1591Sol     MW 7114   2.946   3.441   9.148 -0.5194 -0.1773  0.0016
 1592Sol     OW 7115   0.710   2.752  10.488 -0.0043  0.4002  0.0322
 1592Sol     HW 7116   0.805   2.756  10.496 -0.0463 -1.4901  1.9159
 1592Sol     HW 7117   0.688   2.661  10.504 -2.1622  0.8569 -0.1715
 1592Sol     MW 7118   0.717   2.744  10.490  0.3293 -0.0834  0.1312
 1593Sol     OW 7119   2.779   0.156   8.238 -0.5402  0.0167 -0.2213
 1593Sol     HW 7120   2.814   0.070   8.213 -0.5487 -0.4559  1.3704
 1593Sol     HW 7121   2.825   0.218   8.181  0.1731 -0.9488 -0.7083
 1593Sol     MW 7122   2.786   0.154   8.230 -0.2758 -0.5184 -0.3361
 1594Sol     OW 7123   3.259   0.802  11.812 -0.5073 -0.2330 -0.0179
 1594Sol     HW 7124   3.224   0.750  11.884  0.1342 -0.0464  0.4393
 1594Sol     HW 7125   3.276   0.738  11.743 -1.8506 -0.3038 -0.2907
 1594Sol     MW 7126   3.257   0.792  11.813 -0.2125 -0.1897 -0.0880
 1595Sol     OW 7127   2.713   2.429  13.873  0.2194 -0.1438  0.5375
 1595Sol     HW 7128   2.721   2.338  13.902  0.4109  0.2264  1.7018
 1595Sol     HW 7129   2.620   2.442  13.859  0.3287 -0.9027 -0.9351
 1595Sol     MW 7130   2.706   2.422  13.875  0.2003  0.0216  0.3945
 1596Sol     OW 7131   1.769   1.339  10.810  0.3026 -0.2335 -0.1199
 1596Sol     HW 7132   1.712   1.416  10.815  0.9577  0.3449 -1.3171
 1596Sol     HW 7133   1.759   1.296  10.895 -0.4030  0.9384  0.4019
 1596Sol     MW 7134   1.763   1.342  10.818  0.2414  0.4620 -0.0771
 1597Sol     OW 7135   2.514   3.365  11.239 -0.1891 -0.2399 -0.3137
 1597Sol     HW 7136   2.570   3.440  11.262 -0.6282 -0.3430  1.1629
 1597Sol     HW 7137   2.428   3.403  11.223 -0.4206 -0.4140  0.4688
 1597Sol     MW 7138   2.511   3.375  11.240  0.6379 -0.7758  0.1391
 1598Sol     OW 7139   0.813   2.666   6.943  0.1707  0.0802  0.7728
 1598Sol     HW 7140   0.827   2.757   6.971  0.1829  0.3424 -0.0470
 1598Sol     HW 7141   0.817   2.615   7.023 -1.5896  1.0032  1.4713
 1598Sol     MW 7142   0.815   2.670   6.952 -0.6541  0.2875  0.4337
 1599Sol     OW 7143   1.812   0.633   9.930 -0.1332  0.1559 -0.1511
 1599Sol     HW 7144   1.905   0.649   9.940 -0.2629  0.7852  0.0952
 1599Sol     HW 7145   1.806   0.561   9.867  0.4535  2.3474 -2.8383
 1599Sol     MW 7146   1.820   0.628   9.925  0.1689 -0.1622 -0.2795
 1600Sol     OW 7147   1.326   3.175   9.796 -0.0009 -0.4437  0.1780
 1600Sol     HW 7148   1.234   3.151   9.802 -0.4408  1.3157  0.8505
 1600Sol     HW 7149   1.330   3.242   9.728  0.4774  0.8140  1.4224
 1600Sol     MW 7150   1.318   3.178   9.791  0.3130  0.2269 -0.0567
 1601Sol     OW 7151   2.136   0.322  11.354  0.6157  0.0119 -0.4607
 1601Sol     HW 7152   2.167   0.301  11.442 -1.3663 -0.5182  0.1587
 1601Sol     HW 7153   2.056   0.270  11.344  1.1286 -0.3950 -2.8121
 1601Sol     MW 7154   2.131   0.316  11.361 -0.2642  0.3553 -0.3714
 1602Sol     OW 7155   1.234   3.464   8.965 -0.3427 -0.1804 -0.1920
 1602Sol     HW 7156   1.169   3.399   8.937 -0.4576 -0.0788 -0.1626
 1602Sol     HW 7157   1.257   3.439   9.054 -0.9056  0.2282  0.0669
 1602Sol     MW 7158   1.230   3.456   8.970 -0.2940  0.3889 -0.0208
 1603Sol     OW 7159   2.798   2.193   9.368 -0.3008  0.3575  0.5021
 1603Sol     HW 7160   2.705   2.186   9.345  0.0497 -1.8174 -0.4662
 1603Sol     HW 7161   2.802   2.263   9.433 -2.1199  2.9420 -2.0327
 1603Sol     MW 7162   2.790   2.198   9.372  0.0934  0.2012  0.3320
 1604Sol     OW 7163   3.166   1.655  11.453  0.0079 -0.5974  0.6415
 1604Sol     HW 7164   3.149   1.743  11.486  1.4121 -0.0260 -0.1426
 1604Sol     HW 7165   3.142   1.597  11.526 -2.6146  0.3031  0.5694
 1604Sol     MW 7166   3.162   1.658  11.463  0.5756 -0.0281 -0.2744
 1605Sol     OW 7167   0.384   3.324   7.644  0.1780  0.1197 -0.0613
 1605Sol     HW 7168   0.479   3.328   7.655  0.3463 -0.9766 -0.9990
 1605Sol     HW 7169   0.351   3.396   7.697  1.6195  1.3752 -0.8455
 1605Sol     MW 7170   0.390   3.331   7.650  0.5450  0.7325  0.7254
 1606Sol     OW 7171   2.531   0.980   6.897 -0.5103 -0.0171  0.3367
 1606Sol     HW 7172   2.564   1.018   6.979  1.0533  0.9252 -0.6921
 1606Sol     HW 7173   2.568   0.891   6.896 -0.2766  0.0754  0.5095
 1606Sol     MW 7174   2.537   0.975   6.904  0.2504  0.1029  0.2122
 1607Sol     OW 7175   3.103   2.866   6.779 -0.1775 -0.1897  0.5373
 1607Sol     HW 7176   3.155   2.817   6.715 -0.0096  0.7075 -0.0228
 1607Sol     HW 7177   3.012   2.852   6.752 -0.0313  1.5539 -0.9081
 1607Sol     MW 7178   3.100   2.861   6.771  0.5602 -0.1775 -0.6438
 1608Sol     OW 7179   2.624   0.323  12.347 -0.8045  0.2267 -0.4849
 1608Sol     HW 7180   2.545   0.375  12.362 -2.2409 -1.2355 -2.6906
 1608Sol     HW 7181   2.596   0.254  12.287  1.8576 -1.1066 -0.2596
 1608Sol     MW 7182   2.614   0.322  12.343  0.0635 -0.5156 -0.3579
 1609Sol     OW 7183   2.320   1.996   8.267 -0.0752  0.2270  0.2088
 1609Sol     HW 7184   2.411   2.005   8.297 -0.5003 -1.6983  2.1235
 1609Sol     HW 7185   2.328   1.975   8.174  1.3658  1.9974 -0.1066
 1609Sol     MW 7186   2.329   1.995   8.261 -1.1521  0.1235 -0.2360
 1610Sol     OW 7187   0.082   1.526   6.344  0.3994 -0.0728 -0.1829
 1610Sol     HW 7188   0.014   1.461   6.361  0.6884 -0.0095  1.2551
 1610Sol     HW 7189   0.042   1.585   6.280 -0.8722 -0.0747  0.5933
 1610Sol     MW 7190   0.072   1.525   6.339 -0.7395  0.6357 -0.5441
 1611Sol     OW 7191   3.083   3.134  12.496 -0.2908 -0.4361 -0.2703
 1611Sol     HW 7192   3.065   3.225  12.476 -1.2479 -0.2320  1.3649
 1611Sol     HW 7193   3.176   3.123  12.479  0.0855  1.1630  0.6714
 1611Sol     MW 7194   3.090   3.141  12.493 -0.8452 -0.7158  0.5752
 1612Sol     OW 7195   0.383   2.474  13.062 -0.0684 -0.2531  0.0461
 1612Sol     HW 7196   0.385   2.382  13.089  0.7119 -0.2378  0.0489
 1612Sol     HW 7197   0.422   2.522  13.135 -0.4172  0.0772  0.0202
 1612Sol     MW 7198   0.387   2.470  13.071  0.4490 -0.2177  0.1034
 1613Sol     OW 7199   1.927   3.217  11.004 -0.4082  0.0984  0.4480
 1613Sol     HW 7200   2.013   3.179  10.988 -0.6896 -0.4461  0.2231
 1613Sol     HW 7201   1.892   3.236  10.917 -0.6238  0.0760  0.5272
 1613Sol     MW 7202   1.931   3.216  10.995 -0.3503 -0.4062 -0.5696
 1614Sol     OW 7203   0.835   3.118  12.961 -0.0340  0.0608 -0.1980
 1614Sol     HW 7204   0.908   3.077  13.007  0.4084  0.9412 -0.0899
 1614Sol     HW 7205   0.865   3.124  12.870  0.4194  1.2559  0.0146
 1614Sol     MW 7206   0.845   3.115  12.957 -0.2260  0.1724  0.5052
 1615Sol     OW 7207   2.856   1.515  10.665 -0.0995  0.1616 -0.5052
 1615Sol     HW 7208   2.812   1.549  10.587 -2.0558 -0.5050  0.2603
 1615Sol     HW 7209   2.784   1.485  10.721  1.1598  1.7512  2.0979
 1615Sol     MW 7210   2.846   1.516  10.663 -0.1061  0.2679  0.4368
 1616Sol     OW 7211   1.143   2.114   6.504  0.1452 -0.4891  0.0308
 1616Sol     HW 7212   1.057   2.145   6.533  0.0939 -1.1862  0.6578
 1616Sol     HW 7213   1.205   2.173   6.546 -0.0890  1.5938 -2.4349
 1616Sol     MW 7214   1.141   2.122   6.511 -1.0838 -0.1224  0.2189
 1617Sol     OW 7215   1.344   1.461   6.269 -0.4816 -0.0613  0.1071
 1617Sol     HW 7216   1.266   1.480   6.322 -0.5059 -3.1320  1.2362
 1617Sol     HW 7217   1.414   1.450   6.333  0.2640 -0.2158 -0.7288
 1617Sol     MW 7218   1.343   1.462   6.279 -0.4442 -0.0780 -0.1396
 1618Sol     OW 7219   2.814   0.088  12.847 -0.1663 -0.3891 -0.1430
 1618Sol     HW 7220   2.863   0.120  12.771 -1.9298  1.5993 -0.4923
 1618Sol     HW 7221   2.847   0.140  12.921  1.0308 -1.8148  0.3496
 1618Sol     MW 7222   2.821   0.096  12.847 -0.2557  0.3689  0.1580
 1619Sol     OW 7223   2.524   1.296   9.679 -0.8743  0.2078 -0.0947
 1619Sol     HW 7224   2.478   1.331   9.604 -0.7231  2.1818  0.7139
 1619Sol     HW 7225   2.617   1.313   9.661 -0.7434 -0.3962 -0.0120
 1619Sol     MW 7226   2.528   1.300   9.671 -0.3598 -0.2571 -0.3785
 1620Sol     OW 7227   0.250   0.872  13.433  0.4400  0.2860  0.1369
 1620Sol     HW 7228   0.181   0.934  13.412  0.7558  0.4725 -0.3527
 1620Sol     HW 7229   0.206   0.787  13.440  0.0634  0.5059  0.4663
 1620Sol     MW 7230   0.240   0.870  13.432  0.3309  0.4694 -0.1063
 1621Sol     OW 7231   0.554   2.537  12.259 -0.5034  0.5675  0.4034
 1621Sol     HW 7232   0.626   2.565  12.315 -0.7413 -0.1531  1.0736
 1621Sol     HW 7233   0.521   2.457  12.299 -1.5744  0.7912  0.0120
 1621Sol     MW 7234   0.557   2.532  12.267 -0.1089 -0.2711  0.1005
 1622Sol     OW 7235   1.998   0.977   9.805  0.3937  0.0301 -0.4918
 1622Sol     HW 7236   1.997   1.011   9.715 -0.8568 -0.1036 -0.5373
 1622Sol     HW 7237   2.085   1.000   9.838  0.7641  0.3239 -1.6432
 1622Sol     MW 7238   2.006   0.982   9.800  0.7037 -0.6634  0.2625
 1623Sol     OW 7239   0.285   0.138  11.818 -0.0702  0.0026 -0.5310
 1623Sol     HW 7240   0.335   0.062  11.849  0.9126  0.9213  0.1630
 1623Sol     HW 7241   0.210   0.100  11.773  1.0924 -1.3904 -1.3300
 1623Sol     MW 7242   0.283   0.128  11.817  0.3263  0.7881  0.5904
 1624Sol     OW 7243   2.171   3.348  12.698  0.4795 -0.2890 -0.7545
 1624Sol     HW 7244   2.264   3.369  12.712 -0.1905  1.5849  1.0772
 1624Sol     HW 7245   2.166   3.323  12.606  2.3814  2.0228 -1.5348
 1624Sol     MW 7246   2.179   3.347  12.691  0.0152 -0.6038 -0.6283
 1625Sol     OW 7247   1.566   3.056   9.525  0.7550  0.1493  0.0331
 1625Sol     HW 7248   1.580   3.041   9.431  1.7905 -0.8831  0.3484
 1625Sol     HW 7249   1.495   2.996   9.549  0.2766  0.6329 -0.1367
 1625Sol     MW 7250   1.561   3.049   9.518  0.9201  0.1427 -0.2397
 1626Sol     OW 7251   2.599   1.177  10.206  0.4051  0.0971 -0.2323
 1626Sol     HW 7252   2.625   1.113  10.140 -1.6195 -1.5963  0.5540
 1626Sol     HW 7253   2.622   1.262  10.168  0.7806 -0.9440 -2.3738
 1626Sol     MW 7254   2.604   1.179  10.197 -0.2468  0.6990  0.0233
 1627Sol     OW 7255   3.221   2.876   8.422  0.3381 -0.2113  0.7467
 1627Sol     HW 7256   3.155   2.897   8.488 -1.0292 -0.7054 -0.4278
 1627Sol     HW 7257   3.226   2.955   8.367 -0.1122 -0.5986  0.1493
 1627Sol     MW 7258   3.216   2.885   8.423 -0.1793 -0.0586 -1.0244
 1628Sol     OW 7259   0.718   0.353  13.026  0.6895 -0.1472 -0.2919
 1628Sol     HW 7260   0.780   0.418  12.994  2.2158 -2.0635 -1.3357
 1628Sol     HW 7261   0.749   0.270  12.990 -0.1094 -1.7462  2.5087
 1628Sol     MW 7262   0.726   0.351  13.020  0.3481 -0.4022 -0.3900
 1629Sol     OW 7263   1.097   2.994   9.382 -0.1439 -0.3929 -0.4587
 1629Sol     HW 7264   1.075   2.901   9.390 -2.3613  0.1557  0.0968
 1629Sol     HW 7265   1.118   3.005   9.289  1.8571 -1.7767 -0.2041
 1629Sol     MW 7266   1.097   2.987   9.374 -0.2338 -0.3265 -0.2381
 1630Sol     OW 7267   0.060   2.141   8.593  0.2354  0.3074  0.3366
 1630Sol     HW 7268  -0.029   2.120   8.622  0.7650 -0.7477  1.2341
 1630Sol     HW 7269   0.117   2.110   8.664  1.4061 -0.1712 -0.7765
 1630Sol     MW 7270   0.057   2.136   8.602 -0.6554  0.0044 -0.3993
 1631Sol     OW 7271   1.515   1.520   7.133 -0.5144  0.5091  0.2426
 1631Sol     HW 7272   1.517   1.607   7.094 -1.5440  0.6088  0.3975
 1631Sol     HW 7273   1.445   1.474   7.086  0.2276 -0.3370 -0.0482
 1631Sol     MW 7274   1.509   1.524   7.125 -0.5060 -0.4752 -0.3651
 1632Sol     OW 7275   0.111   1.938  13.814 -0.4403 -0.2014 -0.0345
 1632Sol     HW 7276   0.206   1.952  13.808 -0.2576 -0.5447  1.9176
 1632Sol     HW 7277   0.100   1.843  13.808 -0.5233 -0.2870  1.3863
 1632Sol     MW 7278   0.119   1.931  13.813  0.2108 -0.5195  0.4276
 1633Sol     OW 7279   1.405   3.360   7.019 -0.2129 -0.5360 -0.2842
 1633Sol     HW 7280   1.364   3.281   7.054 -0.8283 -0.7629 -1.4937
 1633Sol     HW 7281   1.390   3.427   7.087  0.0946 -1.3776  0.6295
 1633Sol     MW 7282   1.400   3.359   7.029  0.4820  0.1492 -0.0228
 1634Sol     OW 7283   0.189   0.451   8.339  0.1060  0.2465  0.1776
 1634Sol     HW 7284   0.174   0.392   8.266 -0.8655  0.7090 -0.0062
 1634Sol     HW 7285   0.273   0.493   8.320 -0.2707  0.5581 -0.8132
 1634Sol     MW 7286   0.195   0.450   8.331  0.4056  0.3069 -0.1948
 1635Sol     OW 7287   0.038   2.539   8.107 -0.1847  0.1942  0.3174
 1635Sol     HW 7288   0.058   2.630   8.128  2.2694 -0.7223  2.2682
 1635Sol     HW 7289   0.044   2.534   8.012  0.5565  1.8807  0.2607
 1635Sol     MW 7290   0.040   2.546   8.101  0.1909  0.2999 -0.0133
 1636Sol     OW 7291   0.929   1.316  13.616  0.0284 -0.1195  0.7041
 1636Sol     HW 7292   0.841   1.353  13.606  0.1954  0.5190  1.5562
 1636Sol     HW 7293   0.925   1.267  13.698 -0.2271 -2.1099 -0.4817
 1636Sol     MW 7294   0.920   1.315  13.622 -0.3299 -0.0785  0.0783
 1637Sol     OW 7295   1.400   0.301  10.557 -0.2995  0.2195  0.0076
 1637Sol     HW 7296   1.380   0.249  10.635 -0.0368  0.4396  0.2255
 1637Sol     HW 7297   1.373   0.246  10.484 -0.2641 -0.1174  0.2458
 1637Sol     MW 7298   1.396   0.291  10.557 -0.0147 -0.4958 -0.5892
 1638Sol     OW 7299   0.975   0.463  10.429 -0.5775  0.6523  0.5047
 1638Sol     HW 7300   1.016   0.542  10.466 -1.6249  0.2996  2.4856
 1638Sol     HW 7301   0.955   0.409  10.505  0.7848 -1.8751 -0.8889
 1638Sol     MW 7302   0.977   0.465  10.439  0.0440 -0.5640 -0.0644
 1639Sol     OW 7303   2.416   2.953  11.645  0.1217 -0.0927  0.3383
 1639Sol     HW 7304   2.387   2.928  11.732  0.4502  1.4213  0.8957
 1639Sol     HW 7305   2.366   3.032  11.624  0.5237 -0.0628 -0.5584
 1639Sol     MW 7306   2.409   2.958  11.651  0.1282  0.2236 -0.0112
 1640Sol     OW 7307   2.926   2.776   8.912 -0.1316  0.2530  0.2018
 1640Sol     HW 7308   2.974   2.851   8.947 -0.2986 -0.1640  1.3416
 1640Sol     HW 7309   2.968   2.758   8.827 -0.4493  1.9658 -0.3297
 1640Sol     MW 7310   2.934   2.781   8.907 -0.0495 -0.4313 -0.0504
 1641Sol     OW 7311   1.552   1.485  13.196  0.3352 -0.3522  0.1637
 1641Sol     HW 7312   1.505   1.447  13.271 -0.1499 -0.6351 -0.2796
 1641Sol     HW 7313   1.622   1.537  13.235 -0.9073  0.8143  0.8564
 1641Sol     MW 7314   1.554   1.486  13.206 -0.3928  0.4022 -0.5269
 1642Sol     OW 7315   0.393   0.180  10.408 -0.5861  0.0245 -0.2237
 1642Sol     HW 7316   0.318   0.196  10.465 -1.0030  0.5314 -0.9047
 1642Sol     HW 7317   0.423   0.267  10.383  0.4527 -0.1750  0.3264
 1642Sol     MW 7318   0.389   0.189  10.411  0.0298 -0.5013 -0.2974
 1643Sol     OW 7319   1.652   0.876  10.764  0.0969  0.2714  0.3532
 1643Sol     HW 7320   1.694   0.828  10.835  0.7850  0.5573  0.1417
 1643Sol     HW 7321   1.635   0.809  10.697  0.7185  0.2463  0.2148
 1643Sol     MW 7322   1.654   0.865  10.764 -1.6014  1.3694  0.3321
 1644Sol     OW 7323   1.372   0.259  12.671 -0.1329  0.2646  0.4665
 1644Sol     HW 7324   1.338   0.178  12.633 -0.3504  1.7391 -2.6005
 1644Sol     HW 7325   1.442   0.287  12.612  1.5553  1.1122  2.7688
 1644Sol     MW 7326   1.375   0.254  12.663  0.7114 -0.2567  0.3861
 1645Sol     OW 7327   1.655   2.828  13.530 -0.0640 -0.3883 -0.9545
 1645Sol     HW 7328   1.726   2.795  13.476  2.1476  0.3933  1.3418
 1645Sol     HW 7329   1.667   2.784  13.615  0.6143  3.2443  0.9456
 1645Sol     MW 7330   1.663   2.821  13.533  0.2149 -0.0079 -0.2391
 1646Sol     OW 7331   0.937   1.686  13.261  0.2537  0.0343  0.2034
 1646Sol     HW 7332   0.883   1.615  13.296 -0.6248 -0.0175 -1.2452
 1646Sol     HW 7333   1.025   1.648  13.254  0.1526 -0.3650  1.0698
 1646Sol     MW 7334   0.940   1.676  13.264 -0.2729 -0.2718 -0.3271
 1647Sol     OW 7335   2.458   2.984   6.424 -0.3718 -0.2182 -0.3951
 1647Sol     HW 7336   2.495   2.912   6.475  1.1125 -0.0189 -1.1418
 1647Sol     HW 7337   2.534   3.039   6.402 -1.6810  2.3786  1.3876
 1647Sol     MW 7338   2.468   2.982   6.426  0.1204  0.4235  0.2504
 1648Sol     OW 7339   1.870   2.230   7.371  0.0829  0.0252  0.1794
 1648Sol     HW 7340   1.960   2.203   7.353  0.5968  0.5525  1.8007
 1648Sol     HW 7341   1.849   2.188   7.454 -0.1779  2.0595  1.1861
 1648Sol     MW 7342   1.876   2.224   7.377  0.4218  0.6960 -0.0700
 1649Sol     OW 7343   2.735   0.307   9.170  0.2606 -0.1114  0.0591
 1649Sol     HW 7344   2.641   0.302   9.149  0.2158 -1.6068  0.5784
 1649Sol     HW 7345   2.739   0.288   9.264  0.9836  1.1019  0.2831
 1649Sol     MW 7346   2.727   0.305   9.177 -0.4116 -0.0950  0.3433
 1650Sol     OW 7347   1.660   0.212   6.989 -0.5841  0.1001  0.2409
 1650Sol     HW 7348   1.639   0.301   7.019  0.3037  0.7860 -1.1153
 1650Sol     HW 7349   1.652   0.216   6.894 -0.2848 -1.2148  0.1465
 1650Sol     MW 7350   1.658   0.220   6.983 -0.1419  0.4049 -0.8676
 1651Sol     OW 7351   1.693   0.734   6.724  0.2870 -0.7822 -0.0968
 1651Sol     HW 7352   1.664   0.825   6.736  4.3197  0.6754 -0.5997
 1651Sol     HW 7353   1.695   0.722   6.629  2.7397 -0.3166 -0.1294
 1651Sol     MW 7354   1.690   0.741   6.716 -0.1748 -0.0355  0.7911
 1652Sol     OW 7355   1.611   3.344   8.390  0.3013 -0.5361  0.4286
 1652Sol     HW 7356   1.597   3.439   8.394 -0.1929 -0.6603  1.7083
 1652Sol     HW 7357   1.548   3.313   8.324  0.3204 -0.0069  0.1617
 1652Sol     MW 7358   1.604   3.350   8.384 -0.5461 -0.1767  0.5972
 1653Sol     OW 7359   1.143   1.027   8.237 -0.0073  0.0251 -0.0332
 1653Sol     HW 7360   1.200   0.983   8.174 -0.5618 -0.7212 -0.0205
 1653Sol     HW 7361   1.101   1.096   8.187 -1.7170 -1.6179 -0.9182
 1653Sol     MW 7362   1.144   1.029   8.227 -0.6214 -0.3584 -0.1230
 1654Sol     OW 7363   2.650   1.808   9.618 -0.2095 -0.5047  0.1455
 1654Sol     HW 7364   2.704   1.845   9.548 -0.8829 -1.8403 -1.1016
 1654Sol     HW 7365   2.708   1.747   9.663 -0.6482 -1.9345 -1.1902
 1654Sol     MW 7366   2.660   1.806   9.616 -0.8452 -0.1935  0.0426
 1655Sol     OW 7367   1.651   1.042   8.126 -0.2361 -0.5829  0.5304
 1655Sol     HW 7368   1.685   1.081   8.206  0.4774  0.5376 -0.3048
 1655Sol     HW 7369   1.726   1.039   8.066 -0.8703 -0.9765 -0.2627
 1655Sol     MW 7370   1.660   1.045   8.127  0.8410 -0.1469 -0.6833
 1656Sol     OW 7371   2.819   2.332   7.189  0.2902 -0.2712  0.0293
 1656Sol     HW 7372   2.780   2.249   7.163 -1.0640  0.0564  0.9161
 1656Sol     HW 7373   2.777   2.353   7.273  0.5481  1.3409 -0.2156
 1656Sol     MW 7374   2.812   2.327   7.194  0.0565 -0.5389  0.4119
 1657Sol     OW 7375   0.123   1.276   8.123  0.4273  0.3653 -0.3192
 1657Sol     HW 7376   0.157   1.361   8.152 -0.1022  0.6436 -0.5057
 1657Sol     HW 7377   0.084   1.295   8.038  1.7875 -0.4017 -1.1254
 1657Sol     MW 7378   0.123   1.286   8.118  0.5972  0.4223  0.1887
 1658Sol     OW 7379   1.466   0.556  12.087 -0.4411  0.1569  0.0992
 1658Sol     HW 7380   1.528   0.556  12.160 -0.1765  0.1747 -0.1239
 1658Sol     HW 7381   1.520   0.568  12.009 -0.4473 -2.5300 -0.3511
 1658Sol     MW 7382   1.476   0.557  12.086 -0.0139  0.1490 -0.3153
 1659Sol     OW 7383   0.087   0.418  11.027  0.5542 -0.0050  0.3223
 1659Sol     HW 7384   0.032   0.367  10.968  0.7730  1.6756 -1.3851
 1659Sol     HW 7385   0.176   0.386  11.012  0.5468  0.0726  0.1166
 1659Sol     MW 7386   0.090   0.410  11.021 -0.7086  0.3222  0.5165
 1660Sol     OW 7387   1.302   1.313  10.043 -0.3790  0.2431 -0.0232
 1660Sol     HW 7388   1.382   1.297  10.093 -0.5712 -1.0723 -0.1064
 1660Sol     HW 7389   1.267   1.225  10.025 -0.3249  0.7072 -2.4674
 1660Sol     MW 7390   1.306   1.303  10.046 -0.4036 -0.0930 -0.4713
 1661Sol     OW 7391   1.074   0.884  10.936  0.0650  0.0648 -0.2924
 1661Sol     HW 7392   1.051   0.959  10.990 -1.4709  0.1298 -1.0241
 1661Sol     HW 7393   1.125   0.920  10.864 -0.3819  0.3668 -0.4587
 1661Sol     MW 7394   1.076   0.894  10.935  0.1674 -0.4446 -0.2601
 1662Sol     OW 7395   3.245   2.916  10.646 -0.0073 -0.3647 -0.0555
 1662Sol     HW 7396   3.331   2.928  10.687 -0.0022 -0.2981 -0.0851
 1662Sol     HW 7397   3.183   2.950  10.711  0.0130 -0.1027 -0.1740
 1662Sol     MW 7398   3.247   2.920  10.656 -0.0311  0.5634  0.4368
 1663Sol     OW 7399   2.241   3.415   9.663 -0.3767  0.2784  0.0138
 1663Sol     HW 7400   2.315   3.468   9.692  0.5476 -0.8531 -0.2571
 1663Sol     HW 7401   2.229   3.438   9.571 -1.5219  1.7855  0.5161
 1663Sol     MW 7402   2.246   3.422   9.657 -0.2864  0.9555 -0.2220
 1664Sol     OW 7403   1.733   2.336   8.527  0.3898  0.7562 -0.1619
 1664Sol     HW 7404   1.779   2.291   8.456 -0.3224 -0.0196 -0.1399
 1664Sol     HW 7405   1.801   2.355   8.592  0.5148 -1.3440  0.3646
 1664Sol     MW 7406   1.743   2.334   8.526 -0.8067 -0.0428  0.2813
 1665Sol     OW 7407   0.739   3.290   8.231 -0.6290 -0.0696 -0.0070
 1665Sol     HW 7408   0.645   3.292   8.213 -0.6430  1.8130  0.0889
 1665Sol     HW 7409   0.775   3.224   8.171 -2.2191 -1.9692  1.0997
 1665Sol     MW 7410   0.734   3.285   8.224  0.0767 -0.0036 -0.0450
 1666Sol     OW 7411   1.484   0.165  13.370 -0.5062 -0.6661  0.1873
 1666Sol     HW 7412   1.562   0.127  13.410 -1.5929 -1.3722  1.6536
 1666Sol     HW 7413   1.515   0.199  13.286  1.2402 -1.5243  0.4619
 1666Sol     MW 7414   1.494   0.165  13.366  0.8291 -0.0894  0.5417
 1667Sol     OW 7415   0.020   2.824  12.273 -0.1052 -0.8947  0.4861
 1667Sol     HW 7416  -0.052   2.788  12.221 -1.0654 -1.4982  2.2123
 1667Sol     HW 7417   0.098   2.780  12.240 -0.5070 -0.2664 -1.3765
 1667Sol     MW 7418   0.021   2.817  12.265  0.0922 -0.3341  0.4782
 1668Sol     OW 7419   2.924   0.058  10.425  0.5908  0.6845 -0.0872
 1668Sol     HW 7420   2.968   0.015  10.498  0.4695 -0.2310 -0.5561
 1668Sol     HW 7421   2.878   0.132  10.466 -0.7371 -0.7082  1.0221
 1668Sol     MW 7422   2.924   0.061  10.435 -0.9092 -0.1669  1.2207
 1669Sol     OW 7423   1.865   0.300   9.558 -0.8566  0.0763  1.1428
 1669Sol     HW 7424   1.944   0.352   9.571 -0.9830  0.7176 -0.5312
 1669Sol     HW 7425   1.794   0.357   9.589 -1.1224  1.4613 -1.8522
 1669Sol     MW 7426   1.866   0.310   9.562  0.1695  0.3530 -0.0750
 1670Sol     OW 7427   0.460   3.103   8.843  0.0680  0.3681  0.0818
 1670Sol     HW 7428   0.536   3.047   8.831 -0.3181  0.1075 -1.2117
 1670Sol     HW 7429   0.449   3.109   8.938 -0.4382 -2.4928  0.2274
 1670Sol     MW 7430   0.466   3.099   8.850  0.6024  0.4999  0.7885
 1671Sol     OW 7431   2.631   0.582  10.521 -0.0516  0.1113  0.1702
 1671Sol     HW 7432   2.610   0.667  10.481  2.0674  1.9792  2.8103
 1671Sol     HW 7433   2.573   0.578  10.598  1.4861  0.3063  1.3693
 1671Sol     MW 7434   2.624   0.590  10.525 -0.1159 -0.1724  0.1712
 1672Sol     OW 7435   0.666   0.879  12.947 -0.2715 -0.5264  0.3028
 1672Sol     HW 7436   0.594   0.942  12.945 -0.7192 -1.0556 -0.4132
 1672Sol     HW 7437   0.661   0.839  13.034  0.6367  1.1333  1.1372
 1672Sol     MW 7438   0.659   0.881  12.955  1.3810 -0.2762  1.0772
 1673Sol     OW 7439   2.888   3.377  11.799 -0.3642 -0.0089  0.3702
 1673Sol     HW 7440   2.924   3.304  11.849  0.0732 -1.1248 -1.5270
 1673Sol     HW 7441   2.841   3.335  11.727 -1.9868  1.5399  0.4960
 1673Sol     MW 7442   2.887   3.367  11.797 -0.4022  0.0447 -0.7159
 1674Sol     OW 7443   0.239   1.385  10.758  0.2657  0.3657 -0.0893
 1674Sol     HW 7444   0.201   1.312  10.808 -0.0538 -1.1791 -2.5146
 1674Sol     HW 7445   0.163   1.431  10.723  0.5347  0.2693 -0.7897
 1674Sol     MW 7446   0.229   1.383  10.760 -0.2123  1.0146 -0.3675
 1675Sol     OW 7447   2.391   0.881   8.192 -0.4248  0.0688 -0.6293
 1675Sol     HW 7448   2.388   0.824   8.116 -2.4608  0.9120 -1.2073
 1675Sol     HW 7449   2.357   0.827   8.264 -0.2293 -0.1491 -0.7000
 1675Sol     MW 7450   2.388   0.871   8.192 -0.3050 -0.0267  0.4146
 1676Sol     OW 7451   1.133   1.586   6.372  0.4270  0.5490  0.4332
 1676Sol     HW 7452   1.057   1.579   6.430  1.3553 -0.7652  1.5023
 1676Sol     HW 7453   1.167   1.674   6.389 -0.0864  0.6630  0.8916
 1676Sol     MW 7454   1.129   1.594   6.379  0.0646  0.5442  0.5899
 1677Sol     OW 7455   2.708   1.500  10.405  0.3917  0.1003  0.1874
 1677Sol     HW 7456   2.725   1.518  10.313 -2.2338  0.2474 -0.3253
 1677Sol     HW 7457   2.713   1.405  10.413  0.0888  0.0422 -0.2566
 1677Sol     MW 7458   2.710   1.493  10.398 -0.2015  0.5835 -0.0454
 1678Sol     OW 7459   0.731   3.009   7.287  0.0982 -0.1414  0.4101
 1678Sol     HW 7460   0.815   3.041   7.320 -1.2322  1.1638  2.6440
 1678Sol     HW 7461   0.693   2.961   7.360 -1.1943 -0.5302 -0.5050
 1678Sol     MW 7462   0.735   3.008   7.296 -0.1343 -0.0463 -0.0249
 1679Sol     OW 7463   2.964   3.012  12.761 -0.4986 -0.0760  0.2515
 1679Sol     HW 7464   2.995   3.041  12.675  1.1604 -1.7839  0.2649
 1679Sol     HW 7465   2.990   3.083  12.821 -0.1046  0.3001 -0.3647
 1679Sol     MW 7466   2.969   3.021  12.759 -0.1331  0.2640 -0.2771
 1680Sol     OW 7467   0.483   2.190   8.722 -0.0162  0.5463 -0.0035
 1680Sol     HW 7468   0.445   2.222   8.640  0.3134  1.8541  0.3503
 1680Sol     HW 7469   0.570   2.159   8.697 -0.4284 -0.3321 -0.3907
 1680Sol     MW 7470   0.487   2.190   8.712  0.2799 -0.5600 -0.6240
 1681Sol     OW 7471   3.278   0.173  10.589  0.0707  0.4836 -0.5483
 1681Sol     HW 7472   3.264   0.268  10.581 -2.6053  0.0575 -1.5156
 1681Sol     HW 7473   3.254   0.138  10.504  1.3847 -1.0579 -0.3026
 1681Sol     MW 7474   3.275   0.178  10.581 -0.0073  0.6072  0.6040
 1682Sol     OW 7475   0.033   1.827  13.113  0.2418 -0.4067  0.0660
 1682Sol     HW 7476   0.047   1.732  13.118 -1.1218 -0.6873 -1.2244
 1682Sol     HW 7477   0.006   1.843  13.023  2.0191  1.4508 -0.1806
 1682Sol     MW 7478   0.032   1.820  13.105 -0.1062  1.4619 -0.1879
 1683Sol     OW 7479   1.690   2.409  11.742 -0.0736  0.5233  0.3658
 1683Sol     HW 7480   1.699   2.403  11.837 -0.7268  0.7869  0.4541
 1683Sol     HW 7481   1.726   2.327  11.708 -1.0653 -0.1520  0.9349
 1683Sol     MW 7482   1.694   2.401  11.747  0.5094  0.1906  0.4724
 1684Sol     OW 7483   0.553   0.702   6.643  0.3879 -0.1157  0.1268
 1684Sol     HW 7484   0.559   0.758   6.566 -0.6818 -0.2492 -0.0574
 1684Sol     HW 7485   0.637   0.656   6.646 -0.5612 -2.1779 -2.5665
 1684Sol     MW 7486   0.561   0.703   6.636  0.2874  0.3478 -0.1349
 1685Sol     OW 7487   3.282   0.298  10.139 -0.0776 -0.5217 -0.0416
 1685Sol     HW 7488   3.372   0.274  10.117 -0.4875 -0.6749 -1.6118
 1685Sol     HW 7489   3.260   0.242  10.213  2.0048  1.4073  2.0977
 1685Sol     MW 7490   3.288   0.291  10.144  0.3213  0.2713 -0.5194
 1686Sol     OW 7491   2.357   0.785  14.326 -0.4997 -0.3024  0.1378
 1686Sol     HW 7492   2.426   0.836  14.284 -1.8032  0.9654 -0.5130
 1686Sol     HW 7493   2.395   0.698  14.335  1.5800  0.6345  0.8057
 1686Sol     MW 7494   2.367   0.782  14.323  0.4944 -0.3613  0.3148
 1687Sol     OW 7495   2.716   3.188   7.095 -0.4642  0.4841  0.6038
 1687Sol     HW 7496   2.730   3.126   7.024  0.6413  0.9443  0.4023
 1687Sol     HW 7497   2.643   3.242   7.067 -0.1896  0.5024 -0.0816
 1687Sol     MW 7498   2.711   3.188   7.086  0.3305  0.0040 -0.5418
 1688Sol     OW 7499   3.119   3.043   9.029  1.1415  0.1857 -0.3452
 1688Sol     HW 7500   3.191   3.070   9.086  1.5912 -0.4482 -0.6045
 1688Sol     HW 7501   3.043   3.091   9.062  1.5455  0.3643  0.3393
 1688Sol     MW 7502   3.119   3.050   9.037  0.0154 -0.3574 -0.7561
 1689Sol     OW 7503   0.714   1.820   8.079 -0.3685  0.2107  0.3402
 1689Sol     HW 7504   0.687   1.740   8.033 -0.7490 -0.4421  1.6692
 1689Sol     HW 7505   0.654   1.887   8.048 -1.7105 -0.5972  1.1431
 1689Sol     MW 7506   0.706   1.819   8.072  0.8016  0.9205  0.4548
 1690Sol     OW 7507   3.292   0.239  10.871 -0.0717  0.3577 -0.3640
 1690Sol     HW 7508   3.213   0.223  10.924 -0.5077  1.4973 -0.6672
 1690Sol     HW 7509   3.268   0.207  10.784 -0.1568  0.6162 -0.4328
 1690Sol     MW 7510   3.283   0.234  10.868  0.0605 -0.5157 -0.4463
 1691Sol     OW 7511   1.296   2.141   8.580  0.0087 -1.0609 -0.2329
 1691Sol     HW 7512   1.288   2.048   8.602 -0.0165 -1.1344 -0.5438
 1691Sol     HW 7513   1.326   2.182   8.660  0.8545 -1.4647 -0.3398
 1691Sol     MW 7514   1.298   2.136   8.589  0.6222  0.3585 -0.0248
 1692Sol     OW 7515   3.087   2.781  13.547  0.0770  0.8851  0.4539
 1692Sol     HW 7516   3.009   2.752  13.596 -0.4295  2.2876  0.5233
 1692Sol     HW 7517   3.105   2.710  13.486 -2.2318  1.1918 -0.6597
 1692Sol     MW 7518   3.081   2.772  13.546 -0.2251 -0.3279 -0.2600
 1693Sol     OW 7519   0.286   1.441  10.356 -0.2283 -0.4270  0.0278
 1693Sol     HW 7520   0.343   1.495  10.302  0.4267  1.8838  2.8753
 1693Sol     HW 7521   0.342   1.412  10.428 -1.7750 -1.0360  1.0114
 1693Sol     MW 7522   0.296   1.443  10.358  0.2980  0.0041  0.3769
 1694Sol     OW 7523   2.445   1.101  11.606 -0.3384  0.2742 -0.4556
 1694Sol     HW 7524   2.375   1.119  11.544 -0.6247 -1.7950 -0.7844
 1694Sol     HW 7525   2.447   1.005  11.612  1.2557  0.3748  0.9230
 1694Sol     MW 7526   2.439   1.094  11.601 -0.2546 -0.1647  0.2942
 1695Sol     OW 7527   1.977   2.914  11.851 -0.8258 -0.2093 -0.1565
 1695Sol     HW 7528   1.942   3.002  11.866 -2.1097 -1.0219  1.8432
 1695Sol     HW 7529   1.968   2.900  11.757 -1.4149  1.4754 -0.3601
 1695Sol     MW 7530   1.973   2.920  11.844  0.2117  0.9545 -0.1975
 1696Sol     OW 7531   1.955   0.007   8.801  0.6074  0.2111  0.0679
 1696Sol     HW 7532   1.993  -0.078   8.779  0.1494  0.3404 -1.2761
 1696Sol     HW 7533   1.875  -0.014   8.849  0.5078 -0.1111 -0.2418
 1696Sol     MW 7534   1.951  -0.002   8.804 -0.6144  0.1101  0.0543
 1697Sol     OW 7535   1.867   1.367   7.626 -0.1917 -0.5584 -0.1023
 1697Sol     HW 7536   1.897   1.297   7.684 -1.5757  0.6362  2.1496
 1697Sol     HW 7537   1.942   1.386   7.570  1.1914 -1.8031  1.2891
 1697Sol     MW 7538   1.876   1.363   7.626  0.1006  0.1616 -0.4277
 1698Sol     OW 7539   3.127   1.295  12.067 -0.0357 -0.3872  0.2216
 1698Sol     HW 7540   3.219   1.283  12.041 -0.2936 -1.3111 -0.2795
 1698Sol     HW 7541   3.114   1.230  12.137  0.4360  1.5457  2.1790
 1698Sol     MW 7542   3.134   1.288  12.071  0.0258 -0.2493 -0.8573
 1699Sol     OW 7543   2.353   3.437  13.405  0.0986  0.5486  0.4921
 1699Sol     HW 7544   2.357   3.349  13.441 -1.4991  0.8717  1.5406
 1699Sol     HW 7545   2.397   3.432  13.321  0.4134 -1.1449  0.7552
 1699Sol     MW 7546   2.357   3.429  13.401 -0.3988  0.3824  0.8795
 1700Sol     OW 7547   2.234   2.286   6.591 -0.0023  0.8156  0.5069
 1700Sol     HW 7548   2.281   2.369   6.579 -0.0016  0.7801  0.2685
 1700Sol     HW 7549   2.145   2.305   6.562  0.1618  0.5457 -0.1754
 1700Sol     MW 7550   2.230   2.296   6.588  0.5805  0.3068  0.5052
 1701Sol     OW 7551   2.779   0.667   7.850 -0.3751 -0.4371  0.5645
 1701Sol     HW 7552   2.791   0.580   7.887  1.6456  0.1901  1.4218
 1701Sol     HW 7553   2.841   0.672   7.778  0.0395  0.5454  0.9787
 1701Sol     MW 7554   2.785   0.660   7.847  0.0504 -0.2296 -0.2546
 1702Sol     OW 7555   1.045   0.065  13.303  0.2234  0.5721 -0.6690
 1702Sol     HW 7556   1.086   0.101  13.381 -1.0260 -2.6892  1.6289
 1702Sol     HW 7557   0.951   0.077  13.317 -0.2152 -2.8776 -0.0441
 1702Sol     MW 7558   1.040   0.069  13.311  0.1288 -0.0227 -0.6250
 1703Sol     OW 7559   1.981   2.550   7.013  0.2604 -0.0249 -0.0751
 1703Sol     HW 7560   1.993   2.601   7.093  0.8409 -4.3688  2.7697
 1703Sol     HW 7561   1.891   2.517   7.019  0.2287 -0.1844 -1.3336
 1703Sol     MW 7562   1.974   2.552   7.021 -0.4353  0.3017 -0.3358
 1704Sol     OW 7563   0.689   2.295   6.726 -0.1827 -0.1537 -0.1938
 1704Sol     HW 7564   0.689   2.385   6.693  0.9378  0.5041  1.4939
 1704Sol     HW 7565   0.761   2.252   6.681  1.5376  0.8235  1.5422
 1704Sol     MW 7566   0.695   2.299   6.719 -0.8948  0.3040  0.1328
 1705Sol     OW 7567   2.911   2.586   7.081  0.0874  0.2700  0.2843
 1705Sol     HW 7568   2.869   2.515   7.129 -2.1918  2.2743  1.4046
 1705Sol     HW 7569   2.882   2.574   6.991 -0.8449  0.1474  0.5907
 1705Sol     MW 7570   2.905   2.579   7.077 -0.5021 -0.0227  0.6088
 1706Sol     OW 7571   1.921   1.498   8.083 -0.8459 -0.0582 -0.2801
 1706Sol     HW 7572   1.913   1.580   8.131  0.7264 -0.2198  0.2948
 1706Sol     HW 7573   1.832   1.463   8.080 -1.5208  1.6628 -0.5350
 1706Sol     MW 7574   1.913   1.502   8.087 -0.3261 -0.0952 -0.5246
 1707Sol     OW 7575   2.074   1.415   9.801  0.1547 -0.2522 -0.0310
 1707Sol     HW 7576   2.132   1.377   9.867  0.5885  0.2630 -0.1154
 1707Sol     HW 7577   2.054   1.503   9.835  0.7563  0.1884 -0.8141
 1707Sol     MW 7578   2.077   1.420   9.810 -0.0091 -0.0341  0.7253
 1708Sol     OW 7579   3.001   1.214  11.735  0.5362  0.6503  0.1838
 1708Sol     HW 7580   3.063   1.146  11.762 -1.9330 -1.6894  0.2177
 1708Sol     HW 7581   2.945   1.228  11.811 -1.6180 -0.4260 -1.1141
 1708Sol     MW 7582   3.001   1.209  11.744  0.4842  0.0893  0.3339
 1709Sol     OW 7583   3.093   3.104   6.070 -0.0978 -0.0098  0.5745
 1709Sol     HW 7584   3.139   3.026   6.039  0.6882  0.7587 -0.2256
 1709Sol     HW 7585   3.024   3.070   6.127 -2.6367 -1.6483 -3.2173
 1709Sol     MW 7586   3.091   3.094   6.072 -0.3539  0.4104  0.5722
 1710Sol     OW 7587   3.144   3.463  11.220  0.3665  0.2013 -0.5998
 1710Sol     HW 7588   3.112   3.516  11.147 -2.9394  0.0535  0.6598
 1710Sol     HW 7589   3.097   3.380  11.212  0.0768  0.1303  1.5833
 1710Sol     MW 7590   3.137   3.460  11.213  0.5760  0.1341  0.1364
 1711Sol     OW 7591   1.699   1.287   8.916  0.2467  0.5301 -0.6432
 1711Sol     HW 7592   1.747   1.343   8.978 -0.4796  0.8046 -0.3158
 1711Sol     HW 7593   1.607   1.301   8.938  0.0353 -0.4689 -0.8465
 1711Sol     MW 7594   1.695   1.293   8.924  0.2874  0.1083 -0.9973
 1712Sol     OW 7595   0.049   2.209   8.010  0.7335 -0.0212  0.0313
 1712Sol     HW 7596   0.137   2.221   8.044  1.3895 -1.2283 -1.1760
 1712Sol     HW 7597   0.054   2.238   7.919  0.0149 -0.5617 -0.1873
 1712Sol     MW 7598   0.057   2.213   8.005  0.2108 -0.2058 -0.5512
 1713Sol     OW 7599   0.655   1.358  13.598  0.4256  0.0916 -0.4203
 1713Sol     HW 7600   0.590   1.292  13.576  1.8537 -0.7410 -2.3148
 1713Sol     HW 7601   0.608   1.422  13.652 -1.3927 -1.5754  0.0106
 1713Sol     MW 7602   0.645   1.358  13.601 -0.3541  0.0314 -0.0055
 1714Sol     OW 7603   0.899   2.362  12.225  0.0864 -0.1330  0.3950
 1714Sol     HW 7604   0.844   2.354  12.302  0.4971 -0.2581  0.6790
 1714Sol     HW 7605   0.850   2.420  12.166 -0.1904  0.0295  0.7811
 1714Sol     MW 7606   0.890   2.367  12.226 -0.2832  0.1342  0.5933
 1715Sol     OW 7607   0.436   1.332  10.571 -0.0488  0.2323  0.2154
 1715Sol     HW 7608   0.421   1.248  10.528  0.3705  0.2739 -0.0181
 1715Sol     HW 7609   0.381   1.329  10.649 -0.2212 -0.1622  0.0802
 1715Sol     MW 7610   0.430   1.324  10.574 -0.2898  0.1324  0.6316
 1716Sol     OW 7611   2.181   1.738  10.988 -0.9646  0.0398  0.1765
 1716Sol     HW 7612   2.269   1.723  11.024 -1.0517  0.4741  0.5720
 1716Sol     HW 7613   2.127   1.671  11.029 -0.9738  0.2574  0.5203
 1716Sol     MW 7614   2.184   1.731  10.995  0.7581  0.3969  0.0397
 1717Sol     OW 7615   0.991   3.150   6.036 -0.0651  0.2319  0.5706
 1717Sol     HW 7616   0.978   3.205   6.113  1.9902 -1.0659  1.8838
 1717Sol     HW 7617   1.040   3.205   5.975 -0.2592  0.7225  0.8594
 1717Sol     MW 7618   0.994   3.160   6.038  0.9300  0.5970  0.4354
 1718Sol     OW 7619   1.451   0.629  12.436  0.4099  0.0198 -0.1041
 1718Sol     HW 7620   1.465   0.709  12.487  0.0997 -1.3674  2.2618
 1718Sol     HW 7621   1.357   0.611  12.445  0.9532 -2.1226  1.8007
 1718Sol     MW 7622   1.444   0.635  12.442  0.7410  0.3036  0.1814
 1719Sol     OW 7623   1.364   2.743   9.004  0.6418 -0.3332  0.0279
 1719Sol     HW 7624   1.432   2.780   8.948 -1.2369 -0.0288 -2.1234
 1719Sol     HW 7625   1.383   2.779   9.091  1.0854  2.6877 -1.2498
 1719Sol     MW 7626   1.372   2.749   9.007 -0.2300 -0.7497 -0.3536
 1720Sol     OW 7627   0.322   2.260   8.118  0.6643 -0.0143  0.5332
 1720Sol     HW 7628   0.414   2.235   8.131  0.7521 -0.1326 -0.2805
 1720Sol     HW 7629   0.275   2.221   8.192  0.9569 -1.6675 -0.1434
 1720Sol     MW 7630   0.326   2.255   8.126  0.3816 -0.2601 -0.4322
 1721Sol     OW 7631   2.500   0.038   9.735 -0.3002  0.1395 -0.4068
 1721Sol     HW 7632   2.497   0.130   9.708 -0.3421  0.0711 -0.6297
 1721Sol     HW 7633   2.504   0.042   9.831  1.2202  0.3961 -0.4705
 1721Sol     MW 7634   2.500   0.047   9.741 -0.3479  0.1138  0.6554
 1722Sol     OW 7635   2.008   3.457  11.619 -0.6256  0.6536  0.1348
 1722Sol     HW 7636   1.995   3.519  11.691  0.0964 -2.7395  3.3150
 1722Sol     HW 7637   2.095   3.420  11.635 -0.7578 -0.6662 -2.0812
 1722Sol     MW 7638   2.015   3.459  11.627  0.1870 -0.5427  0.3826
 1723Sol     OW 7639   1.042   3.035   9.878 -0.3471  0.5750  0.2019
 1723Sol     HW 7640   1.086   2.950   9.888 -0.4287  0.6334  1.0690
 1723Sol     HW 7641   0.996   3.048   9.960 -0.2200  1.5303  0.1267
 1723Sol     MW 7642   1.042   3.029   9.886 -0.0037 -0.0189  0.0977
 1724Sol     OW 7643   2.150   0.192  12.567  0.5112 -0.2747 -0.4555
 1724Sol     HW 7644   2.214   0.146  12.512 -0.3032  0.6812 -2.2317
 1724Sol     HW 7645   2.185   0.184  12.656  1.7326 -2.0491 -1.0681
 1724Sol     MW 7646   2.159   0.187  12.570 -0.5980  0.4264  0.6744
 1725Sol     OW 7647   0.227   1.953  12.757 -0.0828 -0.2001  0.5123
 1725Sol     HW 7648   0.193   1.976  12.671 -0.2646  1.4765  1.0061
 1725Sol     HW 7649   0.322   1.953  12.746 -0.1105 -0.0825  0.2834
 1725Sol     MW 7650   0.233   1.955  12.749 -0.6577 -0.4734 -0.0119
 1726Sol     OW 7651   2.567   0.506  13.476 -0.1788 -0.0258 -0.4424
 1726Sol     HW 7652   2.577   0.452  13.554  0.0207 -0.0210 -0.4654
 1726Sol     HW 7653   2.476   0.492  13.448  0.4539 -1.9060 -1.6030
 1726Sol     MW 7654   2.560   0.500  13.480 -0.0145 -0.0156  1.0082
 1727Sol     OW 7655   2.347   2.789  10.102 -0.3137  0.2780 -0.1320
 1727Sol     HW 7656   2.311   2.717  10.050  1.3364  0.8280 -2.1072
 1727Sol     HW 7657   2.294   2.865  10.078  1.1125  0.7501 -1.8162
 1727Sol     MW 7658   2.339   2.790  10.095  0.3760  0.7812  0.8441
 1728Sol     OW 7659   3.074   1.092  13.257 -0.6556 -0.4475 -0.3654
 1728Sol     HW 7660   3.145   1.033  13.282 -1.1705 -0.7770  0.3053
 1728Sol     HW 7661   2.994   1.048  13.286 -1.1447 -0.0783 -1.1171
 1728Sol     MW 7662   3.073   1.082  13.262 -0.7606  0.2195 -0.1030
 1729Sol     OW 7663   2.286   1.373   9.252  0.4321 -0.7801 -0.2462
 1729Sol     HW 7664   2.199   1.371   9.212 -0.0953  0.7567  0.7781
 1729Sol     HW 7665   2.328   1.292   9.223 -2.0120 -2.4642  0.7458
 1729Sol     MW 7666   2.282   1.366   9.246  0.3635  0.0282 -0.0680
 1730Sol     OW 7667   0.829   3.171   7.802  0.3152 -0.3282  0.5422
 1730Sol     HW 7668   0.888   3.111   7.756 -0.2239 -0.6262  0.2383
 1730Sol     HW 7669   0.747   3.167   7.752  1.0069  2.4425 -0.8606
 1730Sol     MW 7670   0.827   3.165   7.794  0.5082  0.7651 -0.0201
 1731Sol     OW 7671   2.134   2.945  13.535  0.1212 -0.4334  0.4305
 1731Sol     HW 7672   2.117   2.950  13.629 -0.2745  1.6188  0.2744
 1731Sol     HW 7673   2.213   2.997  13.521 -0.8115  0.7602 -0.5871
 1731Sol     MW 7674   2.139   2.950  13.542  0.0625 -0.4246  0.2244
 1732Sol     OW 7675   0.928   2.111   7.139 -0.0465 -0.0762  0.0085
 1732Sol     HW 7676   0.878   2.192   7.144 -0.3523 -0.2950  0.4816
 1732Sol     HW 7677   1.002   2.132   7.082 -0.0334  0.5826  0.2716
 1732Sol     MW 7678   0.930   2.120   7.134  0.1420 -0.0846  0.4056
 1733Sol     OW 7679   2.089   1.652   7.907 -0.2587 -0.4721  0.0966
 1733Sol     HW 7680   2.044   1.578   7.948 -1.8032 -0.9135 -2.3290
 1733Sol     HW 7681   2.181   1.626   7.905 -0.4342 -1.2441  1.5280
 1733Sol     MW 7682   2.094   1.643   7.911  0.1890 -0.7931  0.0071
 1734Sol     OW 7683   0.777   2.945   9.779  0.0553 -0.0588  0.3413
 1734Sol     HW 7684   0.760   2.857   9.813  0.8012 -0.8488 -1.2523
 1734Sol     HW 7685   0.869   2.961   9.797  0.0001  0.2577  0.3428
 1734Sol     MW 7686   0.783   2.939   9.783  0.9331  0.6906 -0.5857
 1735Sol     OW 7687   0.775   3.181  13.762 -0.2786  0.6327  0.1979
 1735Sol     HW 7688   0.736   3.216  13.843  0.6074 -0.3427  1.0652
 1735Sol     HW 7689   0.838   3.116  13.793  0.1339  0.3210 -1.2931
 1735Sol     MW 7690   0.777   3.178  13.772 -0.3968  0.0599 -0.8769
 1736Sol     OW 7691   1.987   2.593  10.332  0.4155  0.3788 -0.1811
 1736Sol     HW 7692   2.016   2.563  10.419 -1.9976 -0.6484  0.2957
 1736Sol     HW 7693   2.019   2.526  10.272  2.3344  1.2335 -0.1443
 1736Sol     MW 7694   1.993   2.584  10.335  0.1033  1.1076 -0.3707
 1737Sol     OW 7695   2.138   2.142  13.416  0.4266 -0.3213 -0.3034
 1737Sol     HW 7696   2.092   2.222  13.441 -1.0258 -0.4202 -2.4958
 1737Sol     HW 7697   2.230   2.160  13.437 -0.1069  1.2759  0.7902
 1737Sol     MW 7698   2.142   2.151  13.420 -0.2575  0.0786 -0.3223
 1738Sol     OW 7699   2.280   2.580   8.258  0.0064 -0.3126  0.3098
 1738Sol     HW 7700   2.280   2.509   8.194  0.1966 -0.9930  1.0532
 1738Sol     HW 7701   2.371   2.585   8.288 -0.4249 -1.2117  1.8384
 1738Sol     MW 7702   2.288   2.574   8.255 -0.2403 -0.0771  0.1418
 1739Sol     OW 7703   0.605   1.562  10.467  0.0737  0.0299 -0.7416
 1739Sol     HW 7704   0.692   1.548  10.429 -0.3914 -0.8038 -1.5163
 1739Sol     HW 7705   0.580   1.478  10.503 -1.0433 -0.1449 -1.8671
 1739Sol     MW 7706   0.611   1.554  10.467  0.4418  0.0542  0.3104
 1740Sol     OW 7707   0.674   1.521   9.404  0.0734 -0.0678  0.3704
 1740Sol     HW 7708   0.583   1.519   9.435  0.4307  1.3313  1.5782
 1740Sol     HW 7709   0.694   1.430   9.384 -1.6325 -0.3843 -0.0171
 1740Sol     MW 7710   0.667   1.513   9.405  0.0151 -0.6554 -0.1132
 1741Sol     OW 7711   1.682   0.697   8.689 -0.5201 -0.1800  0.1199
 1741Sol     HW 7712   1.627   0.629   8.727 -1.8494  0.2220 -1.0455
 1741Sol     HW 7713   1.772   0.665   8.702 -1.0383 -1.1489  1.4411
 1741Sol     MW 7714   1.685   0.688   8.694  0.2026 -0.2713  0.1857
 1742Sol     OW 7715   1.301   1.389   6.996 -0.4686  0.1772  0.2338
 1742Sol     HW 7716   1.327   1.433   6.915 -2.0237 -0.6028 -0.7059
 1742Sol     HW 7717   1.258   1.308   6.967  0.9499 -1.2055  1.8951
 1742Sol     MW 7718   1.299   1.385   6.986 -0.2975  0.1455  0.5316
 1743Sol     OW 7719   0.826   3.458   8.034  0.0015 -0.3446  0.1993
 1743Sol     HW 7720   0.788   3.542   8.060 -0.5230 -0.3191 -0.6626
 1743Sol     HW 7721   0.809   3.400   8.108  3.2262  1.1487  2.2341
 1743Sol     MW 7722   0.821   3.460   8.043  0.3708 -0.4937 -0.1733
 1744Sol     OW 7723   1.392   2.603  10.166  0.1793 -0.0387 -0.2224
 1744Sol     HW 7724   1.346   2.686  10.174 -0.5869 -0.3706 -1.0903
 1744Sol     HW 7725   1.433   2.590  10.252  0.9327  1.5847 -0.3276
 1744Sol     MW 7726   1.391   2.609  10.175 -0.7226 -0.0282 -0.5979
 1745Sol     OW 7727   1.523   1.956  11.005 -0.3625  0.7308 -0.6200
 1745Sol     HW 7728   1.447   2.007  10.979 -1.0248 -0.6717 -1.4853
 1745Sol     HW 7729   1.501   1.925  11.093 -2.0910 -2.0520 -1.9548
 1745Sol     MW 7730   1.514   1.958  11.011  0.4100 -0.2285 -0.2545
 1746Sol     OW 7731   0.912   3.105  12.409  0.1513  0.1022  1.0474
 1746Sol     HW 7732   0.897   3.196  12.381  0.7249  0.0087  0.4253
 1746Sol     HW 7733   0.848   3.054  12.359  1.2227 -0.0727 -0.1418
 1746Sol     MW 7734   0.905   3.109  12.402  0.4525 -0.3653 -1.0271
 1747Sol     OW 7735   2.222   3.307  10.571 -0.0605 -0.4717  0.6430
 1747Sol     HW 7736   2.166   3.362  10.625  1.4364  2.2329 -0.4823
 1747Sol     HW 7737   2.168   3.283  10.496 -1.2203 -1.9112  1.8940
 1747Sol     MW 7738   2.212   3.310  10.569  0.2788 -0.1791 -0.2704
 1748Sol     OW 7739   2.241   2.988   9.522  0.2444 -0.3493 -0.0087
 1748Sol     HW 7740   2.313   2.955   9.469 -1.3505 -0.5380 -2.0877
 1748Sol     HW 7741   2.204   2.911   9.565 -1.0661 -0.7836 -1.8778
 1748Sol     MW 7742   2.244   2.978   9.521  0.2761  0.1516 -0.0085
 1749Sol     OW 7743   2.593   1.972  11.807 -0.1428 -1.1353  0.4179
 1749Sol     HW 7744   2.649   2.034  11.852 -1.3636  0.4234 -0.1617
 1749Sol     HW 7745   2.619   1.886  11.841  2.1631 -0.4028  0.5809
 1749Sol     MW 7746   2.600   1.970  11.814  0.1752  0.5887 -0.7181
 1750Sol     OW 7747   2.684   2.541  10.660 -0.2694 -0.0082  0.2144
 1750Sol     HW 7748   2.748   2.503  10.721 -1.8657  0.3788  2.1725
 1750Sol     HW 7749   2.701   2.635  10.664 -1.0182  0.1011  0.7988
 1750Sol     MW 7750   2.692   2.546  10.666  0.3533  1.0718 -0.4412
 1751Sol     OW 7751   1.642   1.081  11.932  0.0866 -0.2044 -0.0816
 1751Sol     HW 7752   1.679   1.142  11.995  1.2358 -0.5307 -0.4279
 1751Sol     HW 7753   1.549   1.077  11.954  0.5015 -0.4643  1.7247
 1751Sol     MW 7754   1.637   1.086  11.939  0.1681  0.3869  0.4543
 1752Sol     OW 7755   1.170   0.651  13.091 -0.2206  0.3494  0.0310
 1752Sol     HW 7756   1.179   0.663  13.186 -1.2017  0.3573  0.1232
 1752Sol     HW 7757   1.182   0.557  13.078  3.1760  0.7493 -0.2146
 1752Sol     MW 7758   1.172   0.643  13.098  0.5311  0.7484 -0.5549
 1753Sol     OW 7759   1.504   2.184   7.595 -0.2243 -0.4695  0.3876
 1753Sol     HW 7760   1.476   2.276   7.597  1.1704  0.0801 -2.4581
 1753Sol     HW 7761   1.450   2.144   7.527 -0.3684 -1.6089  1.1631
 1753Sol     MW 7762   1.497   2.189   7.589  0.0838  0.2973  0.3010
 1754Sol     OW 7763   1.076   1.439  10.692  0.1669  0.4864  0.3958
 1754Sol     HW 7764   1.058   1.417  10.600 -0.4669 -1.3890  0.9498
 1754Sol     HW 7765   1.152   1.385  10.714  2.0230  2.9476  0.2061
 1754Sol     MW 7766   1.081   1.432  10.685 -0.1415 -0.0809 -0.1353
 1755Sol     OW 7767   0.729   3.399  13.051  0.3488 -0.1593 -0.4858
 1755Sol     HW 7768   0.710   3.404  13.144 -0.1259 -1.6060 -0.4954
 1755Sol     HW 7769   0.750   3.307  13.035 -0.2158 -0.0674 -1.9162
 1755Sol     MW 7770   0.729   3.391  13.058 -0.6776 -0.3831  0.8554
 1756Sol     OW 7771   2.828   1.574   7.605 -0.4549 -0.3075 -0.3848
 1756Sol     HW 7772   2.825   1.555   7.511  0.2917  0.8100 -0.6461
 1756Sol     HW 7773   2.773   1.652   7.615  1.0571  0.7586 -0.2122
 1756Sol     MW 7774   2.823   1.579   7.598 -1.1915  0.3209 -0.1258
 1757Sol     OW 7775   2.573   0.976  12.998 -0.2969 -0.0922 -0.1218
 1757Sol     HW 7776   2.553   0.884  12.982  1.0048 -0.0260 -2.2460
 1757Sol     HW 7777   2.654   0.974  13.050  0.2038 -0.1284 -0.9033
 1757Sol     MW 7778   2.578   0.967  13.002  0.3129 -0.5747 -0.3043
 1758Sol     OW 7779   0.636   0.134   9.720  0.0613 -1.1590 -0.1140
 1758Sol     HW 7780   0.676   0.221   9.722  0.4686 -1.2957 -1.5010
 1758Sol     HW 7781   0.562   0.144   9.660 -1.6860 -1.0481  2.0184
 1758Sol     MW 7782   0.633   0.143   9.714 -0.5647 -0.1066  0.7577
 1759Sol     OW 7783   0.532   0.015   9.450 -0.0755  0.1172  0.2822
 1759Sol     HW 7784   0.482   0.089   9.484  0.5726  0.1256  1.2461
 1759Sol     HW 7785   0.611   0.054   9.412 -1.6553  0.2940 -3.0207
 1759Sol     MW 7786   0.535   0.025   9.449  0.4890  0.3461  0.5682
 1760Sol     OW 7787   1.050   0.253  14.158 -0.0424 -0.7598 -0.8115
 1760Sol     HW 7788   1.085   0.169  14.127 -0.2681 -0.6574 -1.3461
 1760Sol     HW 7789   1.104   0.275  14.234 -0.5200 -1.8180 -0.1421
 1760Sol     MW 7790   1.058   0.247  14.162 -0.3281  0.1403  0.3188
 1761Sol     OW 7791   2.765   2.081   7.104 -0.2580 -0.5316  0.0964
 1761Sol     HW 7792   2.839   2.057   7.159  0.1058  1.3536  0.4586
 1761Sol     HW 7793   2.799   2.076   7.015 -0.6788 -3.0058  0.0508
 1761Sol     MW 7794   2.775   2.079   7.101 -0.2495 -0.3492 -0.5295
 1762Sol     OW 7795   1.403   3.167  12.401  0.5162 -0.5415 -0.4599
 1762Sol     HW 7796   1.394   3.233  12.471 -0.6553 -1.3571  0.1815
 1762Sol     HW 7797   1.316   3.128  12.394  0.5806 -0.3487 -2.5200
 1762Sol     MW 7798   1.394   3.170  12.407 -0.5357 -0.6358  0.0534
 1763Sol     OW 7799   0.805   0.696   6.962 -0.0152  0.2615 -0.3212
 1763Sol     HW 7800   0.809   0.703   7.057 -2.2987  0.9193 -0.2553
 1763Sol     HW 7801   0.713   0.710   6.940  0.4567  0.0052 -2.6239
 1763Sol     MW 7802   0.797   0.698   6.968 -0.3215  0.1583  0.1727
 1764Sol     OW 7803   1.869   0.581   8.916 -0.2296  0.0232 -0.1457
 1764Sol     HW 7804   1.941   0.545   8.865  0.1713 -0.2857  0.6386
 1764Sol     HW 7805   1.886   0.554   9.006 -0.7859  0.7937  0.2052
 1764Sol     MW 7806   1.877   0.576   8.919 -0.1505 -1.2709  0.2087
 1765Sol     OW 7807   1.882   2.960  11.135 -0.1478  0.1138 -0.1205
 1765Sol     HW 7808   1.954   2.908  11.099 -0.9605  0.2001 -1.9226
 1765Sol     HW 7809   1.884   3.041  11.085 -0.7083  0.6385  0.6938
 1765Sol     MW 7810   1.889   2.963  11.127 -0.1912 -0.1487  0.2943
 1766Sol     OW 7811   1.755   1.446  13.529 -0.6533 -0.3221 -0.4009
 1766Sol     HW 7812   1.823   1.463  13.465 -0.1066 -0.9446  0.0126
 1766Sol     HW 7813   1.688   1.513  13.511  0.9961  1.6405  0.5671
 1766Sol     MW 7814   1.755   1.454  13.522 -0.4033 -0.3786 -0.7281
 1767Sol     OW 7815   0.276   1.766   6.665 -0.5471 -0.2026 -0.2014
 1767Sol     HW 7816   0.334   1.806   6.731  0.7592  2.2774 -2.7301
 1767Sol     HW 7817   0.191   1.806   6.681 -0.4834 -0.4010  0.6513
 1767Sol     MW 7818   0.274   1.773   6.672  0.0612 -0.7722  0.1218
 1768Sol     OW 7819   2.598   1.860   8.862  0.2235  0.1569  0.4567
 1768Sol     HW 7820   2.587   1.922   8.791  2.2554  0.6054  0.5166
 1768Sol     HW 7821   2.509   1.833   8.884 -0.5339  1.4062 -1.0049
 1768Sol     MW 7822   2.589   1.863   8.858 -0.3533 -0.5504 -0.8861
 1769Sol     OW 7823   0.293   3.288   6.293  0.3082  0.8385 -0.3911
 1769Sol     HW 7824   0.262   3.199   6.277  0.7477  0.7894 -0.9904
 1769Sol     HW 7825   0.257   3.340   6.222  0.6317  1.0056 -0.4368
 1769Sol     MW 7826   0.287   3.285   6.286  0.2596  0.1710  0.2100
 1770Sol     OW 7827   2.327   1.016  13.751 -0.3025  0.3320 -0.0546
 1770Sol     HW 7828   2.343   1.055  13.837 -0.7699 -0.8235  0.5631
 1770Sol     HW 7829   2.274   1.081  13.704 -1.3432  0.3166  1.0751
 1770Sol     MW 7830   2.324   1.025  13.755 -0.6170 -0.0927 -0.0415
 1771Sol     OW 7831   2.510   1.313  14.431 -0.2724  0.0387 -0.0080
 1771Sol     HW 7832   2.428   1.293  14.386 -0.6566  0.4145  0.5150
 1771Sol     HW 7833   2.492   1.293  14.523 -0.2495  1.5093  0.3316
 1771Sol     MW 7834   2.501   1.310  14.435  1.2275 -0.2398 -0.2345
 1772Sol     OW 7835   0.383   1.967   7.096  0.2262  0.0197 -0.8326
 1772Sol     HW 7836   0.360   1.882   7.134 -0.7842  0.5583 -0.2195
 1772Sol     HW 7837   0.408   1.947   7.005 -0.4453 -0.8705 -0.8266
 1772Sol     MW 7838   0.383   1.957   7.091  0.9018  0.5391  0.2295
 1773Sol     OW 7839   0.021   3.297   7.541  0.1562 -0.1835  0.6465
 1773Sol     HW 7840   0.104   3.273   7.501  0.6998  1.3450  0.8078
 1773Sol     HW 7841  -0.024   3.350   7.474  0.4480  1.1672  1.4880
 1773Sol     MW 7842   0.024   3.300   7.532 -0.1662  0.3713 -0.5608
 1774Sol     OW 7843   2.383   3.286   7.351 -0.3039  0.3617 -0.1007
 1774Sol     HW 7844   2.405   3.373   7.385 -0.6517  0.1987  0.5379
 1774Sol     HW 7845   2.314   3.302   7.286  0.4236  0.6800 -0.8056
 1774Sol     MW 7846   2.379   3.295   7.348  0.7594 -0.3403  0.7909
 1775Sol     OW 7847   2.455   1.128  12.560  0.1038 -0.1517  0.2800
 1775Sol     HW 7848   2.419   1.197  12.504 -2.7668 -1.9158 -0.1797
 1775Sol     HW 7849   2.413   1.142  12.645 -0.9400 -1.6145  0.0278
 1775Sol     MW 7850   2.448   1.135  12.562 -0.5592 -0.2099 -0.1778
 1776Sol     OW 7851   0.881   1.994   8.827 -0.8134  0.4263 -0.6321
 1776Sol     HW 7852   0.939   2.064   8.856  1.6926 -1.0341 -1.8758
 1776Sol     HW 7853   0.835   2.030   8.752 -0.0292  0.9748 -0.8561
 1776Sol     MW 7854   0.882   2.003   8.823  0.0002  0.4000  0.4168
 1777Sol     OW 7855   3.026   2.241  12.798  0.1375  0.6504  0.7629
 1777Sol     HW 7856   3.043   2.335  12.790  2.0540  0.2431 -0.1057
 1777Sol     HW 7857   3.110   2.200  12.781 -0.9945 -1.2912 -0.3218
 1777Sol     MW 7858   3.035   2.246  12.796  0.0750  0.8106 -0.3803
 1778Sol     OW 7859   2.182   1.806  13.859 -0.2736 -0.2964 -0.0728
 1778Sol     HW 7860   2.221   1.816  13.946 -0.9474  0.8646  0.1134
 1778Sol     HW 7861   2.240   1.855  13.801 -0.5633  0.0759 -0.0519
 1778Sol     MW 7862   2.191   1.812  13.861  0.0901  0.5638  0.0292
 1779Sol     OW 7863   2.537   1.478   7.874  0.0875 -0.0090  0.3490
 1779Sol     HW 7864   2.477   1.430   7.932  0.2140 -0.7647 -0.1353
 1779Sol     HW 7865   2.616   1.490   7.927  0.0754 -0.3955  0.4611
 1779Sol     MW 7866   2.539   1.475   7.884 -0.9591 -0.3715 -0.0502
 1780Sol     OW 7867   0.190   2.396  12.148 -0.1262  0.5188 -0.4223
 1780Sol     HW 7868   0.204   2.435  12.234  1.9626  3.7611 -2.1205
 1780Sol     HW 7869   0.265   2.339  12.134 -1.0808 -0.9651  0.3516
 1780Sol     MW 7870   0.198   2.395  12.154  0.1920  0.5447 -0.6063
 1781Sol     OW 7871   0.154   0.007  14.381 -0.4222 -0.2962  0.4025
 1781Sol     HW 7872   0.099   0.034  14.307 -3.3380 -0.3366  2.4801
 1781Sol     HW 7873   0.197   0.088  14.409  1.9056 -0.5591 -2.2495
 1781Sol     MW 7874   0.153   0.017  14.377  0.2113 -0.5716  0.3347
 1782Sol     OW 7875   2.953   2.950   8.213  0.3989 -0.4497  0.1125
 1782Sol     HW 7876   2.861   2.951   8.237 -0.0729  1.9344 -1.6064
 1782Sol     HW 7877   2.995   3.007   8.277  0.1682  0.8901 -0.9173
 1782Sol     MW 7878   2.949   2.955   8.221  0.0583  0.2800 -0.4169
 1783Sol     OW 7879   0.784   0.061  13.410  0.6749  0.4533 -0.0326
 1783Sol     HW 7880   0.790   0.017  13.495  2.0503  0.2773 -0.2110
 1783Sol     HW 7881   0.700   0.107  13.413  1.4842  1.8853  2.1183
 1783Sol     MW 7882   0.777   0.061  13.418 -0.1597  1.1020 -0.1127
 1784Sol     OW 7883   3.275   3.064  13.894 -0.2224  0.0315  0.4440
 1784Sol     HW 7884   3.203   3.127  13.897  0.8757  1.3786 -0.6001
 1784Sol     HW 7885   3.348   3.109  13.938  0.9774  0.0758 -1.5177
 1784Sol     MW 7886   3.275   3.074  13.898  0.0250  0.3067 -0.6927
 1785Sol     OW 7887   0.234   1.516   6.563  0.4096  0.2070 -0.0107
 1785Sol     HW 7888   0.256   1.607   6.583  2.8726 -0.2040 -0.7360
 1785Sol     HW 7889   0.176   1.522   6.487 -0.8201  1.2235  0.9759
 1785Sol     MW 7890   0.230   1.525   6.558 -0.5032  0.2984 -0.9600
 1786Sol     OW 7891   3.005   1.244  13.002  0.0068  0.7367  0.0527
 1786Sol     HW 7892   3.066   1.207  12.938  0.1269  2.5819 -0.9493
 1786Sol     HW 7893   3.015   1.189  13.080  1.0538 -0.5515 -0.9735
 1786Sol     MW 7894   3.012   1.236  13.003  0.4028 -0.3150  1.3031
 1787Sol     OW 7895   2.984   1.192   7.415 -0.0126  0.5582  0.2968
 1787Sol     HW 7896   3.000   1.258   7.483  1.0586  0.1240  0.4727
 1787Sol     HW 7897   2.953   1.243   7.340 -0.1253  1.1612  0.7452
 1787Sol     MW 7898   2.983   1.203   7.414  0.4556  0.4561  0.4177
 1788Sol     OW 7899   1.752   1.015  10.545  0.0084 -0.0521  0.2590
 1788Sol     HW 7900   1.807   0.956  10.493 -0.7414 -1.5433  1.1006
 1788Sol     HW 7901   1.740   0.968  10.628  0.0470  1.6637  1.2528
 1788Sol     MW 7902   1.756   1.005  10.548 -0.1106  0.3356  0.8700
 1789Sol     OW 7903   2.076   1.936   8.837 -0.5750  0.7870 -0.5170
 1789Sol     HW 7904   2.010   1.936   8.907 -0.9788  2.8060 -0.8551
 1789Sol     HW 7905   2.159   1.944   8.882 -0.6557 -0.2792 -0.1607
 1789Sol     MW 7906   2.077   1.937   8.847 -1.1103  0.4009  0.1909
 1790Sol     OW 7907   0.169   1.643   8.153  0.2808 -0.0817  0.5887
 1790Sol     HW 7908   0.174   1.737   8.172 -0.7013  0.1487 -0.2889
 1790Sol     HW 7909   0.224   1.631   8.076 -1.5541  0.1949 -0.7932
 1790Sol     MW 7910   0.175   1.651   8.148 -0.8975  0.4525  0.2324
 1791Sol     OW 7911   2.503   3.247   9.317 -0.2878  0.0555  0.4560
 1791Sol     HW 7912   2.413   3.214   9.322 -0.2442  0.0708  1.4228
 1791Sol     HW 7913   2.494   3.342   9.324 -0.3071  0.1689 -0.9589
 1791Sol     MW 7914   2.494   3.252   9.318  0.0663  0.3419  0.0945
 1792Sol     OW 7915   0.487   0.611  13.554 -0.0961 -0.2409  0.0000
 1792Sol     HW 7916   0.506   0.531  13.602  0.2529  0.1430  0.5064
 1792Sol     HW 7917   0.573   0.644  13.527 -0.3853 -1.5509 -2.7146
 1792Sol     MW 7918   0.496   0.607  13.556  0.3243  0.0829 -0.8008
 1793Sol     OW 7919   2.235   1.753  13.569  0.6671 -0.9095  0.1169
 1793Sol     HW 7920   2.260   1.704  13.647  0.2602 -0.1189  0.7499
 1793Sol     HW 7921   2.140   1.765  13.578  0.4278 -1.7865 -1.0578
 1793Sol     MW 7922   2.229   1.750  13.576 -0.0493 -0.7434  0.1996
 1794Sol     OW 7923   1.548   0.766   7.522 -0.0049  0.2442 -0.5955
 1794Sol     HW 7924   1.492   0.717   7.582 -2.4450  0.6812 -2.4122
 1794Sol     HW 7925   1.573   0.844   7.571 -1.1295  0.1092  0.2176
 1794Sol     MW 7926   1.545   0.769   7.531  0.4437  0.0343 -0.3463
 1795Sol     OW 7927   2.730   0.735  11.510  0.2285  0.0128 -0.5002
 1795Sol     HW 7928   2.718   0.654  11.560  0.7113 -0.0508 -0.4828
 1795Sol     HW 7929   2.732   0.706  11.419 -1.8056  0.2609 -0.6388
 1795Sol     MW 7930   2.729   0.725  11.507  0.5257  0.2846  0.1144
 1796Sol     OW 7931   2.414   0.474  11.267 -0.1417  0.2385  0.0510
 1796Sol     HW 7932   2.384   0.495  11.356  0.5109  0.5839  0.1896
 1796Sol     HW 7933   2.372   0.390  11.248 -0.9747  0.5701  0.3527
 1796Sol     MW 7934   2.407   0.469  11.274  0.1537 -0.1319 -0.0479
 1797Sol     OW 7935   3.114   0.053   8.213 -0.1220 -0.8283  0.0363
 1797Sol     HW 7936   3.022   0.029   8.204 -0.7052 -0.0128  3.2245
 1797Sol     HW 7937   3.155  -0.022   8.255  0.3365 -0.5655  0.0638
 1797Sol     MW 7938   3.109   0.044   8.216 -0.2761 -0.5356 -0.2875
 1798Sol     OW 7939   2.325   1.426  10.905  0.1717  0.1692 -0.2196
 1798Sol     HW 7940   2.332   1.401  10.997 -0.9106  0.7993  0.0435
 1798Sol     HW 7941   2.232   1.442  10.891  0.5136  1.5405 -1.0385
 1798Sol     MW 7942   2.317   1.425  10.912  0.1013 -0.2784 -0.7769
 1799Sol     OW 7943   3.174   1.161   8.097 -0.5662 -0.3720 -0.0921
 1799Sol     HW 7944   3.214   1.159   8.184  0.8833  0.1578 -0.7371
 1799Sol     HW 7945   3.246   1.145   8.037 -1.3279  0.6115 -1.2749
 1799Sol     MW 7946   3.184   1.159   8.100 -1.1569 -0.0271 -0.4472
 1800Sol     OW 7947   2.052   2.654   9.036  0.3062  0.2560  0.2936
 1800Sol     HW 7948   2.098   2.695   9.109  2.1977  0.2490 -0.8463
 1800Sol     HW 7949   2.120   2.601   8.993 -1.3263 -1.5578 -0.1020
 1800Sol     MW 7950   2.063   2.653   9.039 -0.1874  0.1000 -0.1911
 1801Sol     OW 7951   1.837   2.656  10.866  0.0320  0.3168  0.5162
 1801Sol     HW 7952   1.866   2.566  10.851 -0.3157  0.3323 -0.2710
 1801Sol     HW 7953   1.899   2.710  10.816 -1.7342  0.3094 -1.7872
 1801Sol     MW 7954   1.845   2.653  10.860 -0.3155 -0.4508 -0.4387
 1802Sol     OW 7955   2.876   3.153   7.998  0.2151 -0.0253  0.0658
 1802Sol     HW 7956   2.908   3.089   8.062  0.0924 -0.5054 -0.3442
 1802Sol     HW 7957   2.929   3.137   7.920 -0.1660  0.0281 -0.2065
 1802Sol     MW 7958   2.884   3.146   7.997  0.1515 -0.5992 -0.1180
 1803Sol     OW 7959   1.554   0.438   8.515  0.0680  0.5675 -0.9377
 1803Sol     HW 7960   1.603   0.359   8.538  0.0877  0.6068 -0.8457
 1803Sol     HW 7961   1.605   0.478   8.445  0.7108  1.1542 -0.1381
 1803Sol     MW 7962   1.563   0.434   8.511  0.4332  0.1385  0.3992
 1804Sol     OW 7963   1.931   0.011   7.666 -0.1643 -0.2455 -0.0740
 1804Sol     HW 7964   2.019  -0.019   7.646  0.4993  0.7986  1.1335
 1804Sol     HW 7965   1.875  -0.065   7.651  1.2163 -1.5421  1.1453
 1804Sol     MW 7966   1.934   0.002   7.663 -0.4531 -0.0178 -0.1570
 1805Sol     OW 7967   1.452   0.568  14.201  0.8134  0.6435 -0.3912
 1805Sol     HW 7968   1.507   0.620  14.141  0.4718 -1.4096 -2.5419
 1805Sol     HW 7969   1.388   0.526  14.144 -0.2301 -0.5020  1.5903
 1805Sol     MW 7970   1.452   0.569  14.191 -0.2724  0.1573  0.0857
 1806Sol     OW 7971   2.206   3.405   7.612  0.5746  0.3817 -0.3015
 1806Sol     HW 7972   2.254   3.326   7.587  0.6015  0.5332 -0.7340
 1806Sol     HW 7973   2.253   3.438   7.688 -1.2365 -1.6951  1.7817
 1806Sol     MW 7974   2.214   3.401   7.616  0.3070 -0.2952 -0.6294
 1807Sol     OW 7975   1.281   0.113  11.446  0.2745  0.0334 -0.6458
 1807Sol     HW 7976   1.290   0.208  11.449  0.2803  0.0124  0.2845
 1807Sol     HW 7977   1.371   0.081  11.438  0.4095  0.0665  0.6104
 1807Sol     MW 7978   1.290   0.118  11.446 -0.1120  0.0693 -0.0085
 1808Sol     OW 7979   1.186   3.024   9.118  0.0411 -0.1131  0.7438
 1808Sol     HW 7980   1.166   2.956   9.054  0.4417  0.2305  0.2532
 1808Sol     HW 7981   1.253   3.078   9.076  0.7488 -0.2408  1.6833
 1808Sol     MW 7982   1.190   3.023   9.109  0.6888 -0.3045  0.6795
 1809Sol     OW 7983   1.970   1.656   9.895  0.0747  0.3919 -0.2403
 1809Sol     HW 7984   1.962   1.631   9.987 -0.4721  1.5907  0.0604
 1809Sol     HW 7985   1.891   1.622   9.853  0.3484 -0.1976 -0.2737
 1809Sol     MW 7986   1.962   1.651   9.899  0.0694 -0.7008  0.2314
 1810Sol     OW 7987   0.884   0.527  12.221  0.0481  0.0959  0.5136
 1810Sol     HW 7988   0.858   0.450  12.273 -0.3396  0.9875  1.6679
 1810Sol     HW 7989   0.979   0.532  12.232 -0.2038  1.2096  2.5046
 1810Sol     MW 7990   0.890   0.520  12.227  0.0557 -0.0537  0.1869
 1811Sol     OW 7991   2.823   1.009  13.126  0.3328 -0.9711 -0.1278
 1811Sol     HW 7992   2.822   0.932  13.183  1.3206 -1.7281 -1.0980
 1811Sol     HW 7993   2.896   0.993  13.066  0.2084  0.4781 -0.6856
 1811Sol     MW 7994   2.829   1.001  13.125  0.4159  0.0558 -0.3312
 1812Sol     OW 7995   1.288   3.436   6.789  0.4230 -0.1034 -0.2440
 1812Sol     HW 7996   1.335   3.420   6.870  0.5648  0.8537 -0.1336
 1812Sol     HW 7997   1.239   3.355   6.773 -1.5337  0.5773  2.0650
 1812Sol     MW 7998   1.288   3.427   6.795  0.9244 -0.9125 -0.3443
 1813Sol     OW 7999   3.041   2.747  10.595 -0.1507 -0.0218  0.2757
 1813Sol     HW 8000   3.121   2.800  10.605 -0.9140  1.1453  0.3120
 1813Sol     HW 8001   3.073   2.659  10.575  1.1907  0.0438  1.9880
 1813Sol     MW 8002   3.051   2.744  10.594  0.4385  0.1910  0.0277
 1814Sol     OW 8003   0.158   2.563  11.924  0.1550  0.4364  0.1511
 1814Sol     HW 8004   0.249   2.565  11.894  0.0431  1.3147 -0.1520
 1814Sol     HW 8005   0.163   2.530  12.014  0.8496  1.1023  0.3647
 1814Sol     MW 8006   0.167   2.560  11.929  0.4608  0.6449  0.2081
 1815Sol     OW 8007   3.120   2.177   7.947 -0.3418 -0.7554 -0.3909
 1815Sol     HW 8008   3.206   2.173   7.990 -0.6396  0.8194  0.4084
 1815Sol     HW 8009   3.071   2.104   7.985  0.5007 -1.4169 -0.5504
 1815Sol     MW 8010   3.123   2.170   7.954 -0.8069 -0.3248  0.8418
 1816Sol     OW 8011   2.853   0.627   8.425 -0.3047 -0.0202 -0.5538
 1816Sol     HW 8012   2.919   0.680   8.470 -2.1586  0.6334  1.4952
 1816Sol     HW 8013   2.875   0.537   8.449  0.0277  0.1664 -0.1471
 1816Sol     MW 8014   2.861   0.624   8.431 -0.0589 -0.7852  0.7633
 1817Sol     OW 8015   0.436   3.144   7.885 -0.0878 -0.1955  0.1275
 1817Sol     HW 8016   0.367   3.083   7.857 -0.7558  0.8184 -0.4565
 1817Sol     HW 8017   0.415   3.226   7.840 -0.1129  0.9318  2.1350
 1817Sol     MW 8018   0.428   3.146   7.878  0.1754 -0.9283 -1.0140
 1818Sol     OW 8019   2.765   1.493  11.098  0.7609  0.4893 -0.5810
 1818Sol     HW 8020   2.724   1.420  11.144  2.1283 -0.3947 -0.7390
 1818Sol     HW 8021   2.828   1.529  11.161  0.2805  1.3829 -0.5940
 1818Sol     MW 8022   2.767   1.490  11.108 -0.6268  0.1996  0.0717
 1819Sol     OW 8023   2.275   1.216   7.380 -0.0603 -0.4994 -0.2379
 1819Sol     HW 8024   2.338   1.183   7.444  0.8075  2.5995  0.5744
 1819Sol     HW 8025   2.299   1.173   7.298  1.2252 -1.6056  0.6872
 1819Sol     MW 8026   2.283   1.209   7.379  0.2286 -0.2465 -0.2277
 1820Sol     OW 8027   0.508   1.494   8.618  0.8496 -0.0687 -0.1286
 1820Sol     HW 8028   0.489   1.427   8.684 -0.7933  0.3546 -0.1371
 1820Sol     HW 8029   0.498   1.449   8.534  2.1225 -0.3998 -0.1129
 1820Sol     MW 8030   0.505   1.484   8.617 -0.1813  0.7831 -0.0502
 1821Sol     OW 8031   1.398   1.402   8.267 -0.4568 -0.4950  0.0247
 1821Sol     HW 8032   1.412   1.332   8.203 -1.7489  0.1483 -0.9873
 1821Sol     HW 8033   1.407   1.358   8.352  1.5739 -1.2916 -0.5728
 1821Sol     MW 8034   1.400   1.392   8.269  0.4653  0.3876 -0.1492
 1822Sol     OW 8035   1.143   1.899  12.453 -0.4498 -0.6382 -0.5081
 1822Sol     HW 8036   1.113   1.832  12.515  1.0035  0.0108  0.9305
 1822Sol     HW 8037   1.238   1.890  12.452 -0.2716  1.0270 -0.7172
 1822Sol     MW 8038   1.149   1.892  12.459  0.3602 -0.1649  0.0415
 1823Sol     OW 8039   1.037   2.931   8.497  0.0195  0.5331  0.3416
 1823Sol     HW 8040   0.946   2.919   8.527 -0.8008 -0.2154 -2.3375
 1823Sol     HW 8041   1.040   3.022   8.467  0.0432  0.4492  0.0876
 1823Sol     MW 8042   1.029   2.938   8.497 -0.6332 -0.0216  0.7035
 1824Sol     OW 8043   2.726   2.943   9.612  0.3257 -0.5208 -0.1714
 1824Sol     HW 8044   2.820   2.926   9.611  0.5803  0.7165  1.3451
 1824Sol     HW 8045   2.715   3.026   9.565  0.3657  0.9419  2.3116
 1824Sol     MW 8046   2.733   2.949   9.607  0.4635 -0.5963 -0.0963
 1825Sol     OW 8047   1.249   2.864  10.148 -0.5863  0.5191 -0.4460
 1825Sol     HW 8048   1.231   2.945  10.196 -1.8277  1.8048 -2.9549
 1825Sol     HW 8049   1.326   2.884  10.094 -1.5703  0.4578 -1.9191
 1825Sol     MW 8050   1.254   2.873  10.147 -0.0565  0.2164 -0.2839
 1826Sol     OW 8051   1.569   0.205  12.840 -0.2472 -0.2818  0.4042
 1826Sol     HW 8052   1.486   0.222  12.795  0.0538  1.8380  0.6314
 1826Sol     HW 8053   1.619   0.151  12.779 -0.3090  1.5800 -1.3398
 1826Sol     MW 8054   1.566   0.202  12.831 -0.2402 -0.8234 -0.0486
 1827Sol     OW 8055   0.124   0.962  12.620 -0.0867  0.2021  0.0453
 1827Sol     HW 8056   0.213   0.928  12.619 -0.9626 -2.3443  1.6057
 1827Sol     HW 8057   0.132   1.053  12.647  2.1000  0.2298 -0.6803
 1827Sol     MW 8058   0.132   0.967  12.623 -1.1981  0.6411  0.4180
 1828Sol     OW 8059   1.772   0.283   7.942  0.2578 -0.2391 -0.3540
 1828Sol     HW 8060   1.740   0.361   7.988  0.0092 -0.5146 -0.0558
 1828Sol     HW 8061   1.693   0.239   7.912  0.2853 -1.4978  1.3304
 1828Sol     MW 8062   1.762   0.286   7.944  1.1381  0.4384 -0.7661
 1829Sol     OW 8063   2.157   1.967  10.350  0.0284 -0.0712  0.2572
 1829Sol     HW 8064   2.218   1.983  10.421 -0.2621 -0.7650  0.6652
 1829Sol     HW 8065   2.187   1.886  10.309 -0.2934 -0.1210  0.1100
 1829Sol     MW 8066   2.165   1.961  10.352  0.1060 -0.0833  0.8382
 1830Sol     OW 8067   0.304   0.301   7.013 -0.1660  0.1985  0.5589
 1830Sol     HW 8068   0.393   0.281   6.984  1.3332  3.9785  2.3012
 1830Sol     HW 8069   0.251   0.291   6.933  1.5223 -3.3606 -0.2144
 1830Sol     MW 8070   0.307   0.298   7.003  0.7086 -0.2960  0.0843
 1831Sol     OW 8071   2.688   0.013   7.206  0.3149  0.3867  0.5993
 1831Sol     HW 8072   2.621  -0.040   7.163  0.9184 -0.7042  0.9587
 1831Sol     HW 8073   2.770  -0.035   7.190  1.3257  2.7608 -1.6096
 1831Sol     MW 8074   2.689   0.004   7.201  0.0412 -0.6239  0.8136
 1832Sol     OW 8075   2.446   1.481   6.486 -0.9528  0.3581 -0.5736
 1832Sol     HW 8076   2.412   1.482   6.397 -0.6771 -1.2395 -0.7196
 1832Sol     HW 8077   2.477   1.570   6.501  2.7007 -0.2632 -3.5348
 1832Sol     MW 8078   2.446   1.489   6.479  0.4270 -0.9611  0.2517
 1833Sol     OW 8079   0.630   1.250  12.809 -0.2274  0.1700  0.1741
 1833Sol     HW 8080   0.563   1.310  12.776 -0.9795 -0.8816 -0.2287
 1833Sol     HW 8081   0.695   1.247  12.740  0.0968  0.9524  0.4334
 1833Sol     MW 8082   0.630   1.255  12.800  0.0449  0.2312  0.4675
 1834Sol     OW 8083   2.340   0.560   8.928 -0.5178  0.1001  0.1073
 1834Sol     HW 8084   2.410   0.533   8.868  0.4212  1.2630  0.6610
 1834Sol     HW 8085   2.313   0.646   8.897 -1.3222 -0.0968  0.2461
 1834Sol     MW 8086   2.344   0.565   8.920 -0.6236 -0.2485 -0.0654
 1835Sol     OW 8087   2.933   1.098  10.088  0.8015 -0.0609  0.5140
 1835Sol     HW 8088   2.969   1.145  10.013  0.3567  0.4286  0.6010
 1835Sol     HW 8089   2.906   1.167  10.149 -0.9565 -0.3808  0.1308
 1835Sol     MW 8090   2.934   1.109  10.087  0.0772  0.3262  0.5291
 1836Sol     OW 8091   0.376   1.981   9.961  0.3554  0.3134  0.0683
 1836Sol     HW 8092   0.367   2.065   9.916  1.8415  1.1941  1.3544
 1836Sol     HW 8093   0.298   1.975  10.017  1.0739  1.6415  1.2359
 1836Sol     MW 8094   0.368   1.988   9.962 -0.2562 -0.0762  0.1597
 1837Sol     OW 8095   1.622   0.218   6.425 -0.4890 -0.3355 -0.2468
 1837Sol     HW 8096   1.597   0.149   6.364  0.2247 -0.0434 -0.8707
 1837Sol     HW 8097   1.541   0.266   6.442 -1.3519 -2.3217  1.4788
 1837Sol     MW 8098   1.613   0.216   6.421 -0.1426  0.3770  0.1091
 1838Sol     OW 8099   1.097   1.105   9.608  0.2453 -0.8393  0.2465
 1838Sol     HW 8100   1.003   1.088   9.618 -0.1965  1.1161 -0.4347
 1838Sol     HW 8101   1.116   1.080   9.518  0.4153 -1.3103  0.4085
 1838Sol     MW 8102   1.091   1.101   9.601 -0.1842 -0.9281 -0.5090
 1839Sol     OW 8103   2.123   2.471   7.423  0.4554  0.0469 -0.3908
 1839Sol     HW 8104   2.104   2.381   7.396 -0.5899  0.4873 -1.1543
 1839Sol     HW 8105   2.037   2.507   7.445  0.6964  1.3353 -1.5490
 1839Sol     MW 8106   2.114   2.466   7.423 -0.6415  0.5060  0.7434
 1840Sol     OW 8107   1.376   3.050  12.676  0.0542  0.2067 -0.2730
 1840Sol     HW 8108   1.430   3.129  12.667 -1.5942  1.2849 -0.8452
 1840Sol     HW 8109   1.301   3.077  12.729 -0.8299 -0.8148 -0.9756
 1840Sol     MW 8110   1.374   3.059  12.680 -0.1450  0.3687  0.3323
 1841Sol     OW 8111   0.030   1.585   7.340 -0.1329 -0.3426  0.7972
 1841Sol     HW 8112   0.106   1.589   7.398 -0.1185  2.1974  0.6741
 1841Sol     HW 8113  -0.041   1.554   7.396  0.1807  0.8455  1.8784
 1841Sol     MW 8114   0.030   1.583   7.350 -0.3847  0.6199  0.0015
 1842Sol     OW 8115   0.235   0.832   9.426 -0.2797  0.0265 -0.7889
 1842Sol     HW 8116   0.206   0.923   9.422 -1.3477 -0.3253 -1.4231
 1842Sol     HW 8117   0.154   0.781   9.421  0.1835 -0.9427  1.0931
 1842Sol     MW 8118   0.225   0.836   9.425  0.1073 -0.8504  0.3288
 1843Sol     OW 8119   3.126   1.432   8.013 -0.0947 -0.1052  0.3757
 1843Sol     HW 8120   3.170   1.350   8.033 -0.5794 -0.2880  0.6812
 1843Sol     HW 8121   3.037   1.421   8.046 -0.2583  0.4139  0.1133
 1843Sol     MW 8122   3.122   1.424   8.018  0.0044 -0.6562  0.2124
 1844Sol     OW 8123   2.406   1.785  13.374 -0.5232 -0.2730  0.1937
 1844Sol     HW 8124   2.343   1.768  13.444 -1.7891 -2.6996 -1.4867
 1844Sol     HW 8125   2.356   1.833  13.308 -0.0132 -0.2665 -0.1909
 1844Sol     MW 8126   2.396   1.788  13.374 -0.0526 -0.2973 -0.4502
 1845Sol     OW 8127   1.205   0.139   8.233 -0.3905 -0.4822  0.5091
 1845Sol     HW 8128   1.142   0.101   8.295 -1.2218 -0.4080 -0.2817
 1845Sol     HW 8129   1.244   0.212   8.281 -1.3294 -0.1655  0.8119
 1845Sol     MW 8130   1.203   0.142   8.243  0.0292  0.2436 -0.6483
 1846Sol     OW 8131   0.498   0.870  11.873  0.1634  0.1444  0.2466
 1846Sol     HW 8132   0.471   0.778  11.865 -0.4664  0.1677  1.8259
 1846Sol     HW 8133   0.572   0.868  11.933  2.2316  0.3455 -2.2515
 1846Sol     MW 8134   0.502   0.861  11.878 -0.5868  0.2239 -0.2764
 1847Sol     OW 8135   1.447   1.771   6.509 -0.2396  0.4803  0.1428
 1847Sol     HW 8136   1.471   1.798   6.421 -1.5875  0.5977 -0.1950
 1847Sol     HW 8137   1.353   1.788   6.515 -0.8303 -2.6420  0.4513
 1847Sol     MW 8138   1.441   1.775   6.502 -0.1413  0.3969  0.6634
 1848Sol     OW 8139   2.072   1.618  14.077  0.1371  0.1172  0.2360
 1848Sol     HW 8140   2.079   1.559  14.002 -1.4567 -1.3444  1.1869
 1848Sol     HW 8141   2.114   1.570  14.149  0.3284  0.8608  0.6159
 1848Sol     MW 8142   2.076   1.608  14.077 -0.0587 -0.5913 -0.0242
 1849Sol     OW 8143   2.714   3.254  12.249 -0.0804  0.5838  0.4317
 1849Sol     HW 8144   2.665   3.244  12.167  0.5585 -0.2273  0.1455
 1849Sol     HW 8145   2.706   3.168  12.292  1.3624  0.3484  0.2361
 1849Sol     MW 8146   2.709   3.245  12.246  0.3213 -0.5161  0.1559
 1850Sol     OW 8147   2.046   1.408  10.798  0.6672 -0.7324  0.2362
 1850Sol     HW 8148   2.061   1.468  10.726  0.9026 -0.4632  0.5096
 1850Sol     HW 8149   1.955   1.380  10.788  1.4108 -2.6280 -1.6315
 1850Sol     MW 8150   2.039   1.411  10.791  0.3471 -0.8252 -0.1013
 1851Sol     OW 8151   0.004   2.797  14.184 -0.3665 -0.6036  0.1960
 1851Sol     HW 8152  -0.037   2.780  14.099  0.5819 -1.2286 -0.1463
 1851Sol     HW 8153   0.034   2.711  14.214 -1.8239 -0.5904  1.7819
 1851Sol     MW 8154   0.003   2.788  14.179  0.2863  0.2332 -0.0415
 1852Sol     OW 8155   0.920   0.580  12.589  0.2424  0.0032 -0.1847
 1852Sol     HW 8156   0.934   0.648  12.655 -0.5061  0.4120 -0.4452
 1852Sol     HW 8157   0.825   0.574  12.581  0.3192 -0.5837 -0.6781
 1852Sol     MW 8158   0.913   0.585  12.594  0.6317 -0.1203 -0.0602
 1853Sol     OW 8159   1.061   0.962   7.543  0.0116 -0.2269 -0.5564
 1853Sol     HW 8160   1.103   0.878   7.524 -0.7500 -0.6048 -0.5984
 1853Sol     HW 8161   0.977   0.957   7.497 -0.9409 -0.3023  1.1782
 1853Sol     MW 8162   1.057   0.954   7.537 -0.5385 -0.2734 -0.1154
 1854Sol     OW 8163   0.229   1.432   8.992 -0.7185  0.3667 -0.1082
 1854Sol     HW 8164   0.139   1.422   8.962 -0.7295  1.2484 -0.3906
 1854Sol     HW 8165   0.279   1.447   8.912 -0.2363 -0.6719 -0.0043
 1854Sol     MW 8166   0.225   1.432   8.982  0.6947  0.4137 -0.1276
 1855Sol     OW 8167   2.837   1.895   9.013  0.0411 -0.2283 -0.2395
 1855Sol     HW 8168   2.756   1.851   8.988  0.4408 -0.5429 -0.9737
 1855Sol     HW 8169   2.902   1.865   8.950  0.6702  0.2364  0.1791
 1855Sol     MW 8170   2.836   1.889   9.006  0.3345 -0.1641 -0.5671
 1856Sol     OW 8171   0.215   1.973  13.294 -0.3335 -0.2588  0.4004
 1856Sol     HW 8172   0.176   1.971  13.381 -0.2096 -0.0032  0.4613
 1856Sol     HW 8173   0.147   1.937  13.237 -1.5113  2.2437  0.1891
 1856Sol     MW 8174   0.205   1.969  13.296  0.0202 -0.1600  0.3736
 1857Sol     OW 8175   2.508   0.004   8.294  0.2715 -0.2391 -0.2377
 1857Sol     HW 8176   2.490  -0.042   8.376  1.3223  0.4595  0.4103
 1857Sol     HW 8177   2.590   0.051   8.312 -0.6890  1.7184 -0.9468
 1857Sol     MW 8178   2.514   0.004   8.303  0.3799  0.2955  0.0901
 1858Sol     OW 8179   1.548   2.300   6.213  0.4546  0.4080  0.0259
 1858Sol     HW 8180   1.465   2.256   6.196  0.8609 -0.2085 -0.3976
 1858Sol     HW 8181   1.526   2.373   6.271 -0.9225  2.3603 -2.8158
 1858Sol     MW 8182   1.539   2.303   6.217 -0.7350  0.6071 -0.5808
 1859Sol     OW 8183   3.271   3.076   8.252  0.3075  0.1637  0.6555
 1859Sol     HW 8184   3.364   3.057   8.266  0.1444  1.0095  3.0235
 1859Sol     HW 8185   3.258   3.163   8.291 -1.7038 -0.4123  1.3059
 1859Sol     MW 8186   3.278   3.082   8.257  0.4452  0.2191  0.2933
 1860Sol     OW 8187   0.696   0.196  10.762  0.1884  0.0236  0.0549
 1860Sol     HW 8188   0.720   0.109  10.795 -0.8544 -0.2808  0.0547
 1860Sol     HW 8189   0.698   0.252  10.839  0.9907  0.0246  0.0319
 1860Sol     MW 8190   0.698   0.193  10.772 -0.4603  0.5699 -0.2142
 1861Sol     OW 8191   2.334   3.193  13.534  0.1796 -0.4645 -0.0543
 1861Sol     HW 8192   2.276   3.236  13.596 -0.3163 -1.0334 -0.1232
 1861Sol     HW 8193   2.409   3.165  13.586  0.1344 -0.2298  0.1367
 1861Sol     MW 8194   2.335   3.195  13.544 -1.0167 -0.1568  0.3711
 1862Sol     OW 8195   3.029   1.001  11.255 -0.0375  0.3266  0.4123
 1862Sol     HW 8196   2.986   1.051  11.325  1.2922  0.9543  0.7823
 1862Sol     HW 8197   2.959   0.984  11.192 -0.2083  4.0773 -0.5342
 1862Sol     MW 8198   3.019   1.004  11.256  0.4546  0.2962 -0.1725
 1863Sol     OW 8199   1.811   1.509  12.316  0.1876  0.0869  0.1593
 1863Sol     HW 8200   1.759   1.431  12.337 -0.5430  0.5527  0.0677
 1863Sol     HW 8201   1.786   1.531  12.226  0.6870  0.1966  0.0474
 1863Sol     MW 8202   1.804   1.504  12.310  0.0563  0.2396 -0.3261
 1864Sol     OW 8203   0.319   2.314  13.636  0.2665  0.5339  0.4051
 1864Sol     HW 8204   0.397   2.284  13.589 -1.1081 -0.8677 -1.0784
 1864Sol     HW 8205   0.331   2.281  13.725  0.7060 -0.9255 -0.1767
 1864Sol     MW 8206   0.327   2.308  13.640  0.6867  0.4102 -0.1165
 1865Sol     OW 8207   0.648   0.683   8.271  0.0144 -0.0489 -0.2333
 1865Sol     HW 8208   0.648   0.659   8.179  0.0089  0.3234 -0.3328
 1865Sol     HW 8209   0.735   0.659   8.303 -0.3575 -1.1905 -0.0616
 1865Sol     MW 8210   0.656   0.679   8.266 -0.2352  0.0232  0.0935
 1866Sol     OW 8211   1.816   2.943   7.915  0.4216 -0.1148 -0.5894
 1866Sol     HW 8212   1.866   2.920   7.993  0.6456  0.4622 -0.5652
 1866Sol     HW 8213   1.840   3.034   7.896 -1.0526  0.3589 -0.2392
 1866Sol     MW 8214   1.822   2.949   7.920  0.2023 -0.1274 -0.4844
 1867Sol     OW 8215   0.410   0.200   9.952  0.3360 -0.2135  0.0493
 1867Sol     HW 8216   0.487   0.213   9.897  0.1921  0.5321  0.0162
 1867Sol     HW 8217   0.430   0.123  10.005  1.8635  1.0345  1.3445
 1867Sol     MW 8218   0.418   0.194   9.952  0.4766 -0.1285  0.1272
 1868Sol     OW 8219   0.098   0.826   7.242  0.4266  0.2955  0.6142
 1868Sol     HW 8220   0.178   0.839   7.192  0.0057  3.1646  0.5942
 1868Sol     HW 8221   0.045   0.903   7.223 -1.5092 -0.5903  2.1941
 1868Sol     MW 8222   0.100   0.834   7.236  0.7077  0.2051  0.2396
 1869Sol     OW 8223   1.771   2.334  13.921 -0.2108 -0.1577  0.7229
 1869Sol     HW 8224   1.718   2.371  13.850 -2.2705  1.3016  2.9247
 1869Sol     HW 8225   1.778   2.406  13.984  1.8951 -1.3201  1.8525
 1869Sol     MW 8226   1.767   2.344  13.920 -1.4185  0.2952  0.0744
 1870Sol     OW 8227   1.897   3.214   8.395  0.6370 -0.5757  0.0204
 1870Sol     HW 8228   1.978   3.250   8.359  1.5626  0.5343  3.0610
 1870Sol     HW 8229   1.831   3.281   8.379  0.3128 -1.3695 -2.2219
 1870Sol     MW 8230   1.899   3.223   8.390 -0.2048  0.2773 -0.8409
 1871Sol     OW 8231   1.869   3.205   7.828  0.0946 -0.1472 -0.2188
 1871Sol     HW 8232   1.849   3.197   7.735  1.7246  0.4087 -0.6255
 1871Sol     HW 8233   1.806   3.270   7.860 -0.8787 -0.7941 -0.7809
 1871Sol     MW 8234   1.861   3.210   7.822 -0.2932  0.9083  0.3554
 1872Sol     OW 8235   2.113   3.049   8.971  0.1073  0.0703  0.2018
 1872Sol     HW 8236   2.044   2.984   8.959  1.0336 -0.7704 -0.5269
 1872Sol     HW 8237   2.087   3.095   9.051 -1.6640  0.2225 -0.4286
 1872Sol     MW 8238   2.104   3.047   8.977  0.4369 -0.5468 -0.1455
 1873Sol     OW 8239   0.914   0.379   6.000 -0.0226 -0.0511  0.5879
 1873Sol     HW 8240   0.991   0.364   6.055 -0.5680  1.0097  1.6706
 1873Sol     HW 8241   0.840   0.357   6.056 -0.6577  2.6362  0.8889
 1873Sol     MW 8242   0.915   0.376   6.010 -0.2270 -0.4010 -0.1791
 1874Sol     OW 8243   1.730   3.305   6.106 -0.3477  0.3571 -0.2408
 1874Sol     HW 8244   1.663   3.372   6.113  1.2540  1.9564  0.0729
 1874Sol     HW 8245   1.703   3.237   6.168  0.1734  2.6052  2.5568
 1874Sol     MW 8246   1.722   3.305   6.112 -0.0860  0.1220  0.3815
 1875Sol     OW 8247   3.103   3.358  10.936  0.4140 -0.1008  0.6827
 1875Sol     HW 8248   3.026   3.303  10.925  1.0357 -0.9281  0.4102
 1875Sol     HW 8249   3.172   3.314  10.887  1.3742  0.0009  1.9023
 1875Sol     MW 8250   3.102   3.350  10.930  0.3151  0.1307  0.2602
 1876Sol     OW 8251   1.833   3.255  13.690  0.0294  0.7942 -0.2441
 1876Sol     HW 8252   1.749   3.276  13.731  0.7502 -1.2285  2.4407
 1876Sol     HW 8253   1.811   3.194  13.620 -0.8300  1.0003 -0.1669
 1876Sol     MW 8254   1.823   3.252  13.688 -0.5031  0.3283 -0.0321
 1877Sol     OW 8255   2.201   2.148   7.671 -0.7010 -0.3000  0.2119
 1877Sol     HW 8256   2.165   2.101   7.746  0.4827 -1.7898 -0.1547
 1877Sol     HW 8257   2.172   2.097   7.595 -1.0067  0.6241 -0.3018
 1877Sol     MW 8258   2.195   2.139   7.671 -0.0736 -0.1350 -0.1906
 1878Sol     OW 8259   0.105   3.465  12.693 -0.4068  0.5644  0.2091
 1878Sol     HW 8260   0.166   3.435  12.625 -1.1279  0.6190 -0.4649
 1878Sol     HW 8261   0.019   3.462  12.651 -1.0871 -1.0853  1.6709
 1878Sol     MW 8262   0.103   3.462  12.683 -0.0467 -0.0152 -0.0265
 1879Sol     OW 8263   0.201   1.082  10.623 -0.6035 -0.2239  0.0144
 1879Sol     HW 8264   0.159   1.115  10.703 -0.3087  1.2965 -0.4275
 1879Sol     HW 8265   0.162   1.134  10.553 -1.9028 -2.5262 -1.0187
 1879Sol     MW 8266   0.194   1.090  10.624 -0.1874 -0.2242  0.0859
 1880Sol     OW 8267   1.222   2.011  11.177 -0.2451 -0.0577 -0.1362
 1880Sol     HW 8268   1.141   1.962  11.163 -0.2949 -0.7417  2.3746
 1880Sol     HW 8269   1.219   2.038  11.269  1.2440  2.0080 -0.6531
 1880Sol     MW 8270   1.215   2.009  11.184  0.4602 -0.2725  0.5024
 1881Sol     OW 8271   2.749   2.973   8.689 -0.2676 -0.2127  0.8593
 1881Sol     HW 8272   2.736   3.004   8.778 -3.1585 -1.4556  0.9135
 1881Sol     HW 8273   2.730   2.879   8.693  1.0587 -0.5822 -0.7796
 1881Sol     MW 8274   2.746   2.967   8.697  0.8536  0.5685 -0.1918
 1882Sol     OW 8275   0.194   2.921  10.158 -0.4614  0.1712 -0.5198
 1882Sol     HW 8276   0.277   2.943  10.116 -0.1272 -1.9261 -1.0319
 1882Sol     HW 8277   0.128   2.963  10.103  0.2235  1.3149 -0.4782
 1882Sol     MW 8278   0.195   2.926  10.149 -0.4539  0.2659  0.2783
 1883Sol     OW 8279   0.105   1.687  13.724  0.1563 -0.7439  0.3675
 1883Sol     HW 8280   0.158   1.662  13.648 -1.5168 -0.6583 -0.8497
 1883Sol     HW 8281   0.025   1.634  13.716 -0.8445  0.6372  1.0257
 1883Sol     MW 8282   0.102   1.680  13.716  0.7468  1.2474  0.3216
 1884Sol     OW 8283   0.288   2.988  11.413 -0.0207  0.0729 -0.3375
 1884Sol     HW 8284   0.252   2.924  11.474  0.0605  0.0051 -0.3600
 1884Sol     HW 8285   0.223   3.059  11.412  0.1965  0.2744  0.1613
 1884Sol     MW 8286   0.279   2.989  11.418 -0.4406  0.2065 -0.1834
 1885Sol     OW 8287   3.338   0.331  11.696  0.4676  0.0542  0.5379
 1885Sol     HW 8288   3.279   0.330  11.621 -0.2845 -1.2593  1.1476
 1885Sol     HW 8289   3.385   0.415  11.688  0.2173  0.0397 -1.2489
 1885Sol     MW 8290   3.337   0.339  11.688 -0.8884 -0.0507  0.3536
 1886Sol     OW 8291   1.113   3.035   8.764 -0.4613  0.5649 -1.2078
 1886Sol     HW 8292   1.061   2.977   8.709 -2.5245  0.8200  0.4118
 1886Sol     HW 8293   1.173   3.078   8.703 -0.3741 -1.6392 -2.7334
 1886Sol     MW 8294   1.114   3.034   8.753  0.4548  0.6199 -0.0469
 1887Sol     OW 8295   2.400   3.277   8.811  0.2274 -0.7843  0.0933
 1887Sol     HW 8296   2.396   3.182   8.803 -0.9927 -0.6525 -1.1122
 1887Sol     HW 8297   2.398   3.309   8.721  2.1512  0.3543  0.4206
 1887Sol     MW 8298   2.399   3.271   8.802  0.6450  0.5131  0.4421
 1888Sol     OW 8299   0.446   1.027  12.865 -0.2412  0.1572  0.1710
 1888Sol     HW 8300   0.500   1.101  12.839  1.0120 -0.9371 -0.3837
 1888Sol     HW 8301   0.404   0.998  12.783  0.9936 -1.1147 -0.0236
 1888Sol     MW 8302   0.447   1.031  12.855  0.0302 -0.0994 -1.3191
 1889Sol     OW 8303   2.810   1.037   8.374 -0.3717  0.3180  0.1712
 1889Sol     HW 8304   2.876   1.012   8.309  0.0279 -0.5788  0.9179
 1889Sol     HW 8305   2.843   1.118   8.412 -0.9870  1.2626 -1.2885
 1889Sol     MW 8306   2.819   1.042   8.371  0.0542  0.8227 -0.8159
 1890Sol     OW 8307   2.248   0.510   6.664  0.7366 -0.0472  0.4805
 1890Sol     HW 8308   2.196   0.552   6.596  0.8953  0.0142  0.3976
 1890Sol     HW 8309   2.325   0.477   6.619  0.7751 -0.1324  0.6051
 1890Sol     MW 8310   2.250   0.511   6.654 -0.0373  0.4268  0.1628
 1891Sol     OW 8311   2.048   1.716  13.254 -0.3325 -0.2716  0.0822
 1891Sol     HW 8312   2.119   1.776  13.231  0.5442 -1.4324 -0.3240
 1891Sol     HW 8313   1.994   1.764  13.317  1.2639  0.3305  1.0061
 1891Sol     MW 8314   2.049   1.725  13.257  0.2196 -0.5729  0.7992
 1892Sol     OW 8315   0.675   0.000   6.824  0.2918 -0.4655 -0.1285
 1892Sol     HW 8316   0.748  -0.028   6.879  0.8344  0.9572 -0.0938
 1892Sol     HW 8317   0.697  -0.031   6.737  1.0944  0.2142 -0.1750
 1892Sol     MW 8318   0.683  -0.005   6.821  0.6661 -0.1978  0.0862
 1893Sol     OW 8319   2.748   2.003  10.725 -0.2021  0.3113  0.0808
 1893Sol     HW 8320   2.738   2.036  10.636  1.3699  0.1542 -0.1539
 1893Sol     HW 8321   2.666   1.956  10.742 -0.4554  0.2277 -1.3271
 1893Sol     MW 8322   2.740   2.002  10.719 -0.2457  0.1654 -0.4969
 1894Sol     OW 8323   2.272   2.873  12.898  0.4029 -0.3583  0.1270
 1894Sol     HW 8324   2.222   2.845  12.974 -0.3575  0.0003 -0.2323
 1894Sol     HW 8325   2.233   2.957  12.873 -0.5371 -1.3114 -1.7150
 1894Sol     MW 8326   2.264   2.878  12.902  0.4253  0.3095  0.3263
 1895Sol     OW 8327   2.961   3.414   8.775 -0.6281 -0.2533  0.0239
 1895Sol     HW 8328   2.895   3.397   8.842 -1.2219  1.4323 -0.0912
 1895Sol     HW 8329   2.911   3.440   8.698  0.1680  2.0095  0.2285
 1895Sol     MW 8330   2.950   3.415   8.774  0.2937 -0.5881 -0.3388
 1896Sol     OW 8331   2.389   3.014  12.325  0.0917  0.2997 -0.1325
 1896Sol     HW 8332   2.337   3.061  12.390  0.2542  3.5374 -2.2820
 1896Sol     HW 8333   2.327   2.994  12.255  0.0209 -2.8225  0.7200
 1896Sol     MW 8334   2.379   3.016  12.325  0.4608 -0.2862  0.2321
 1897Sol     OW 8335   1.114   2.088   9.985  0.6302 -1.3125 -0.6116
 1897Sol     HW 8336   1.033   2.136  10.005  1.7899  0.0885  0.7846
 1897Sol     HW 8337   1.153   2.137   9.912  0.8583 -1.2453 -0.4450
 1897Sol     MW 8338   1.110   2.097   9.980 -0.0276  0.0714 -1.1075
 1898Sol     OW 8339   0.979   2.538  10.286 -0.3519  0.1354  0.2289
 1898Sol     HW 8340   1.054   2.493  10.246 -0.0013  1.7987 -1.0378
 1898Sol     HW 8341   0.922   2.468  10.317  0.6213 -1.1580 -0.8800
 1898Sol     MW 8342   0.981   2.528  10.286 -0.1137 -0.7221 -0.3906
 1899Sol     OW 8343   2.613   1.984   8.388  0.1673  0.0454 -0.7657
 1899Sol     HW 8344   2.688   1.985   8.447 -0.4090  3.2413  0.0538
 1899Sol     HW 8345   2.611   2.072   8.350 -4.6960  1.0798  1.3910
 1899Sol     MW 8346   2.619   1.992   8.390 -0.2956  0.1894  0.2225
 1900Sol     OW 8347   0.131   3.003  11.090  0.0695  0.1009 -0.6281
 1900Sol     HW 8348   0.082   2.951  11.154  0.3333 -0.5893 -0.9752
 1900Sol     HW 8349   0.107   3.094  11.108  0.2806 -0.0774  0.5557
 1900Sol     MW 8350   0.124   3.006  11.097  0.1798 -0.0841 -0.0285
 1901Sol     OW 8351   1.541   0.713   6.949  0.2911  0.5444 -0.7557
 1901Sol     HW 8352   1.446   0.714   6.935  0.1765 -0.9290 -0.1999
 1901Sol     HW 8353   1.577   0.686   6.864  0.0778 -0.9471 -0.3763
 1901Sol     MW 8354   1.536   0.711   6.940  0.6190  0.0932  0.3845
 1902Sol     OW 8355   1.936   0.616   6.830 -0.2325 -0.3072  0.0125
 1902Sol     HW 8356   1.929   0.530   6.788  0.2372 -0.2864 -0.1150
 1902Sol     HW 8357   1.847   0.652   6.827  0.0757  0.3463 -2.3852
 1902Sol     MW 8358   1.927   0.612   6.826 -0.2015 -0.2823 -0.4216
 1903Sol     OW 8359   2.326   0.766   9.354 -0.2689  0.3914  0.1859
 1903Sol     HW 8360   2.396   0.824   9.382  0.2688  0.7881 -1.9420
 1903Sol     HW 8361   2.366   0.679   9.351 -0.9906 -0.1139  3.0460
 1903Sol     MW 8362   2.335   0.763   9.357 -0.0597  0.0258 -0.1609
 1904Sol     OW 8363   0.747   2.609  12.416 -0.1342  0.1458  0.3416
 1904Sol     HW 8364   0.823   2.626  12.470  1.1096 -0.6967 -1.0856
 1904Sol     HW 8365   0.687   2.682  12.434  0.5740  0.2797  2.2190
 1904Sol     MW 8366   0.748   2.617  12.422 -0.3482 -0.2478  0.3623
 1905Sol     OW 8367   0.410   0.637  14.061 -0.5436  0.5142  0.0429
 1905Sol     HW 8368   0.391   0.546  14.085 -1.1659  0.9417  1.1909
 1905Sol     HW 8369   0.327   0.683  14.073  0.1705  1.5645  1.0776
 1905Sol     MW 8370   0.401   0.633  14.064  0.1898 -0.5137  0.2651
 1906Sol     OW 8371   0.048   0.802   7.902 -0.0576 -0.2947  0.1638
 1906Sol     HW 8372   0.092   0.750   7.968  0.2515  0.2366  0.3750
 1906Sol     HW 8373  -0.031   0.752   7.881  0.3685 -0.9783  0.1685
 1906Sol     MW 8374   0.045   0.793   7.906 -0.7132  0.2194 -0.2237
 1907Sol     OW 8375   0.485   2.913  11.674 -0.1917 -0.0079  0.1255
 1907Sol     HW 8376   0.501   2.831  11.720  1.8021  0.9706  1.2255
 1907Sol     HW 8377   0.424   2.890  11.604  0.5977 -2.4613  0.2182
 1907Sol     MW 8378   0.481   2.904  11.672 -0.0077 -0.0544  0.4567
 1908Sol     OW 8379   2.248   1.338  11.659 -0.2913 -0.1887  0.0810
 1908Sol     HW 8380   2.221   1.249  11.637 -1.6824  0.3861 -0.6542
 1908Sol     HW 8381   2.301   1.366  11.584  0.3218 -0.4726  0.4087
 1908Sol     MW 8382   2.251   1.333  11.650 -0.2849 -0.4859  0.1722
 1909Sol     OW 8383   1.606   2.941   7.212 -0.1070  0.1315  0.6498
 1909Sol     HW 8384   1.672   2.931   7.280  0.7643 -0.4369 -0.2715
 1909Sol     HW 8385   1.622   2.869   7.151 -0.3539  1.1001 -0.5875
 1909Sol     MW 8386   1.613   2.934   7.213 -0.7202  0.3074 -0.3068
 1910Sol     OW 8387   1.631   1.197  11.030  0.0409  0.2198  0.1869
 1910Sol     HW 8388   1.550   1.147  11.024  1.2120 -1.6201 -0.9602
 1910Sol     HW 8389   1.645   1.210  11.124 -0.9428 -0.5154  0.4429
 1910Sol     MW 8390   1.625   1.193  11.038  0.5037  0.8483  0.0526
 1911Sol     OW 8391   2.705   0.054  13.284  0.2553  0.1824 -0.0497
 1911Sol     HW 8392   2.635   0.090  13.229 -0.5177 -0.7654  0.2857
 1911Sol     HW 8393   2.786   0.083  13.242 -0.3381  1.7657 -0.1344
 1911Sol     MW 8394   2.706   0.060  13.275  0.1349  0.2053 -0.9028
 1912Sol     OW 8395   0.711   0.377  13.563  0.3745  0.3974 -0.3787
 1912Sol     HW 8396   0.678   0.364  13.474  1.4262  0.5337 -0.7954
 1912Sol     HW 8397   0.785   0.437  13.553 -0.2240  1.3329  0.7355
 1912Sol     MW 8398   0.715   0.381  13.554  0.0810 -0.2060  0.5490
 1913Sol     OW 8399   3.335   0.925  13.687 -0.4860 -0.0920 -0.2110
 1913Sol     HW 8400   3.392   0.928  13.764 -1.5464 -0.8252  0.6142
 1913Sol     HW 8401   3.263   0.984  13.708 -1.4732 -1.3260 -0.0630
 1913Sol     MW 8402   3.334   0.930  13.696  0.0718  1.0240 -0.1859
 1914Sol     OW 8403   2.977   2.247  11.079  0.8654 -0.2861  0.0332
 1914Sol     HW 8404   3.059   2.239  11.030  0.3260 -0.7099 -0.8187
 1914Sol     HW 8405   2.920   2.180  11.040  0.0429  0.1639  0.4621
 1914Sol     MW 8406   2.980   2.240  11.071  0.2549  0.3372  0.4172
 1915Sol     OW 8407   1.089   1.122  13.438  0.3569 -0.1316  0.2432
 1915Sol     HW 8408   1.105   1.166  13.355 -0.1897 -1.1195 -0.3986
 1915Sol     HW 8409   1.032   1.182  13.486  0.6520  0.4298 -0.1049
 1915Sol     MW 8410   1.085   1.132  13.435 -0.7595  0.0866 -0.1726
 1916Sol     OW 8411   1.243   2.863   8.328  0.3947 -0.1902 -0.2652
 1916Sol     HW 8412   1.165   2.868   8.383  0.8664  3.1055  0.2254
 1916Sol     HW 8413   1.310   2.909   8.378  2.4696 -2.2972 -1.0345
 1916Sol     MW 8414   1.242   2.868   8.337 -0.1204  0.6541  0.6436
 1917Sol     OW 8415   2.754   2.424   7.873  0.4483 -0.0237 -0.1391
 1917Sol     HW 8416   2.830   2.437   7.929 -0.6262 -0.6813  1.5109
 1917Sol     HW 8417   2.680   2.459   7.923 -0.6636 -1.3833 -0.7778
 1917Sol     MW 8418   2.754   2.429   7.882  0.2486  0.7652 -0.0023
 1918Sol     OW 8419   0.332   3.420  13.937 -0.0477 -0.5875  0.6094
 1918Sol     HW 8420   0.352   3.441  14.028 -1.3862 -2.2913  1.3199
 1918Sol     HW 8421   0.264   3.352  13.942  0.3439 -1.1864 -1.6530
 1918Sol     MW 8422   0.327   3.416  13.946 -0.0390  0.2228  0.1288
 1919Sol     OW 8423   0.269   0.388  14.215  0.3278  0.3550 -0.4937
 1919Sol     HW 8424   0.351   0.344  14.238  0.5403  0.9305 -0.1552
 1919Sol     HW 8425   0.204   0.353  14.277  0.4802  0.4768 -0.2690
 1919Sol     MW 8426   0.270   0.381  14.222  0.2152  0.6034 -0.1382
 1920Sol     OW 8427   0.771   2.291  13.832 -0.3892 -0.4996  0.1058
 1920Sol     HW 8428   0.840   2.353  13.856 -0.3644  0.1546 -1.5928
 1920Sol     HW 8429   0.817   2.217  13.794 -0.5320 -0.7327  0.3862
 1920Sol     MW 8430   0.781   2.290  13.831  0.5013  0.2344  0.1334
 1921Sol     OW 8431   0.804   0.611   6.698 -0.2000  0.1138 -0.0916
 1921Sol     HW 8432   0.813   0.661   6.780 -1.6638  1.1300 -0.5265
 1921Sol     HW 8433   0.886   0.627   6.651  0.9764 -1.1030  1.4971
 1921Sol     MW 8434   0.813   0.617   6.701  0.3690 -0.8843  0.8887
 1922Sol     OW 8435   0.374   0.570   6.808  0.0935  0.3874  0.3236
 1922Sol     HW 8436   0.401   0.628   6.737 -1.0560 -1.3516 -1.5928
 1922Sol     HW 8437   0.440   0.500   6.809 -0.1186  0.1899  0.6804
 1922Sol     MW 8438   0.382   0.569   6.802 -0.6538 -0.2017  0.3278
 1923Sol     OW 8439   0.123   3.144   6.699  0.2038  0.4948 -0.3531
 1923Sol     HW 8440   0.050   3.138   6.760 -0.1862  2.6627 -0.5693
 1923Sol     HW 8441   0.196   3.099   6.744 -0.8789 -0.5441  0.3982
 1923Sol     MW 8442   0.123   3.139   6.708  0.8255  0.0007  0.1533
 1924Sol     OW 8443   2.612   1.572   9.476  0.0559 -0.1031 -0.0814
 1924Sol     HW 8444   2.614   1.638   9.546  1.4591 -0.4869  0.2529
 1924Sol     HW 8445   2.662   1.612   9.405 -0.0917 -0.3363 -0.3180
 1924Sol     MW 8446   2.617   1.582   9.476  0.3665  0.0452  0.4606
 1925Sol     OW 8447   1.682   2.539  13.162  0.1898  0.3124 -0.2890
 1925Sol     HW 8448   1.738   2.519  13.087  1.6867  0.1480  0.8467
 1925Sol     HW 8449   1.626   2.611  13.131  1.9959  1.4570 -1.0057
 1925Sol     MW 8450   1.682   2.544  13.152  0.7435 -0.1667  0.7661
 1926Sol     OW 8451   1.768   1.879   9.480 -0.1914  0.3450  0.0554
 1926Sol     HW 8452   1.762   1.933   9.559  0.0876  2.0420 -1.0435
 1926Sol     HW 8453   1.678   1.848   9.466 -0.6389  1.6342 -0.0366
 1926Sol     MW 8454   1.759   1.881   9.486  1.0448  0.8256  0.3843
 1927Sol     OW 8455   2.403   0.404   6.474 -0.3252 -0.4268  0.0968
 1927Sol     HW 8456   2.475   0.359   6.518  1.4884  1.6606 -0.6603
 1927Sol     HW 8457   2.365   0.337   6.417  0.9773 -1.5797  0.5371
 1927Sol     MW 8458   2.406   0.394   6.473  0.4440 -0.2420 -0.3385
 1928Sol     OW 8459   0.284   2.574  13.989 -0.6294 -0.3111 -0.0363
 1928Sol     HW 8460   0.189   2.578  13.996 -0.6253  0.4698 -0.3841
 1928Sol     HW 8461   0.302   2.602  13.899 -0.1660 -1.8973 -0.4549
 1928Sol     MW 8462   0.277   2.577  13.981  0.1463  0.1144 -0.3759
 1929Sol     OW 8463   0.212   2.485  11.195 -0.4182  0.9883 -0.4610
 1929Sol     HW 8464   0.126   2.527  11.200  0.4716  2.8268 -0.1917
 1929Sol     HW 8465   0.272   2.556  11.174  0.9895 -0.3560 -1.1221
 1929Sol     MW 8466   0.209   2.495  11.193 -0.4815 -0.2831 -0.1606
 1930Sol     OW 8467   2.287   3.403  11.639  0.5851 -0.3067  0.7186
 1930Sol     HW 8468   2.380   3.420  11.620  0.3473 -0.6511 -0.8684
 1930Sol     HW 8469   2.271   3.317  11.601 -0.2914 -0.4228  1.3492
 1930Sol     MW 8470   2.294   3.397  11.634  0.6059  0.0901  0.2550
 1931Sol     OW 8471   3.102   3.283  13.953  0.3382  0.2887 -0.0676
 1931Sol     HW 8472   3.135   3.264  14.041 -0.9186  0.3514  0.4252
 1931Sol     HW 8473   3.059   3.368  13.962 -1.8950 -0.7997 -0.1695
 1931Sol     MW 8474   3.101   3.289  13.962  0.1108 -0.0577 -0.6539
 1932Sol     OW 8475   3.308   2.599  11.571  0.7408 -0.2790  0.1950
 1932Sol     HW 8476   3.225   2.551  11.576 -0.0576  1.0346 -0.1208
 1932Sol     HW 8477   3.346   2.591  11.658 -0.2490  0.0420  0.6593
 1932Sol     MW 8478   3.304   2.594  11.579 -0.1040 -0.0266 -0.0266
 1933Sol     OW 8479   1.178   0.497  11.929  0.3219  0.2719 -0.1565
 1933Sol     HW 8480   1.210   0.420  11.881  0.6485 -0.0992  0.6446
 1933Sol     HW 8481   1.090   0.473  11.957  1.1241 -0.5547  1.7157
 1933Sol     MW 8482   1.173   0.488  11.927 -0.4382  0.4435 -0.5042
 1934Sol     OW 8483   0.822   1.725   6.176 -0.2151 -0.0334  0.1894
 1934Sol     HW 8484   0.867   1.753   6.255 -0.8601  0.0630  0.5323
 1934Sol     HW 8485   0.891   1.696   6.116  0.3613  1.0486  0.3327
 1934Sol     MW 8486   0.832   1.725   6.177 -0.6598  0.0154 -0.9503
 1935Sol     OW 8487   0.835   1.634  12.661  0.5416  0.4317  0.1561
 1935Sol     HW 8488   0.822   1.664  12.751  0.7952  1.1203 -0.0332
 1935Sol     HW 8489   0.820   1.712  12.608 -1.9833 -0.5153 -0.5762
 1935Sol     MW 8490   0.833   1.644  12.665 -0.5360 -0.1705  0.2544
 1936Sol     OW 8491   0.168   2.046  12.458 -0.4772  0.0420 -0.1703
 1936Sol     HW 8492   0.131   1.963  12.427 -1.2081  0.3302 -0.0561
 1936Sol     HW 8493   0.094   2.106  12.460  0.2050  0.9348 -1.0667
 1936Sol     MW 8494   0.158   2.044  12.455  0.2270 -0.5249  0.1670
 1937Sol     OW 8495   0.101   3.179  11.483  0.4911  0.0941  0.0909
 1937Sol     HW 8496   0.131   3.266  11.459 -1.5682  0.8922  0.3760
 1937Sol     HW 8497   0.086   3.183  11.577  1.0803 -0.7971  0.2393
 1937Sol     MW 8498   0.102   3.187  11.489  0.5758 -0.1397  0.2655
 1938Sol     OW 8499   1.381   2.896   7.392 -0.0431 -0.1151  0.0156
 1938Sol     HW 8500   1.445   2.936   7.332  0.4765  0.7565  1.1390
 1938Sol     HW 8501   1.398   2.802   7.386  0.6590  0.0387 -0.4686
 1938Sol     MW 8502   1.388   2.892   7.386  0.3987 -0.1432  0.0528
 1939Sol     OW 8503   0.571   0.368   6.862  0.6840 -0.1634  0.0440
 1939Sol     HW 8504   0.637   0.356   6.793  0.3325  0.5075 -0.4224
 1939Sol     HW 8505   0.594   0.304   6.929  0.7889 -1.1068 -0.8758
 1939Sol     MW 8506   0.579   0.362   6.861 -0.2978  0.2202 -1.4258
 1940Sol     OW 8507   2.995   2.021   7.239  0.1408  0.2363 -0.4703
 1940Sol     HW 8508   2.966   2.064   7.319 -1.9629  1.2387 -1.7374
 1940Sol     HW 8509   3.068   2.075   7.207  0.8737 -0.0708  0.6368
 1940Sol     MW 8510   2.999   2.029   7.244  0.1760  0.3479  0.0099
 1941Sol     OW 8511   2.299   0.043  12.098  0.4239  0.3507  0.4609
 1941Sol     HW 8512   2.221   0.097  12.097 -0.6945 -1.1914  1.2987
 1941Sol     HW 8513   2.272  -0.037  12.143  2.3170 -0.4582  0.2181
 1941Sol     MW 8514   2.290   0.040  12.102  0.3631  0.1506 -0.3615
 1942Sol     OW 8515   2.118   1.600   8.810 -0.1248 -0.6047 -0.5172
 1942Sol     HW 8516   2.139   1.519   8.856 -0.7844  0.7917  2.3272
 1942Sol     HW 8517   2.068   1.573   8.733 -0.2439 -2.8831  0.3507
 1942Sol     MW 8518   2.116   1.591   8.807 -0.2865  0.4293  0.4455
 1943Sol     OW 8519   0.130   1.678  11.014 -0.1299 -0.3569  0.3243
 1943Sol     HW 8520   0.205   1.642  11.061  0.0709 -1.0629 -0.5201
 1943Sol     HW 8521   0.168   1.724  10.939 -0.4224  1.1635  1.0883
 1943Sol     MW 8522   0.140   1.679  11.011  0.2210 -0.5213  0.4925
 1944Sol     OW 8523   2.738   1.334   6.936  0.0336  0.0618 -0.0857
 1944Sol     HW 8524   2.682   1.353   6.860  0.0199  0.6744  0.0757
 1944Sol     HW 8525   2.704   1.252   6.971  0.7337 -0.8039 -1.3967
 1944Sol     MW 8526   2.730   1.328   6.932  0.2582  0.4823  0.3089
 1945Sol     OW 8527   1.353   2.517   7.148  0.2049 -0.4637  0.3910
 1945Sol     HW 8528   1.403   2.543   7.224 -1.6261  1.0302  1.1167
 1945Sol     HW 8529   1.347   2.421   7.155  1.9379 -0.5534  0.8882
 1945Sol     MW 8530   1.357   2.511   7.155 -0.1202  1.0594 -0.2732
 1946Sol     OW 8531   0.535   0.527  11.634 -0.0981 -0.0205 -0.6529
 1946Sol     HW 8532   0.597   0.530  11.708 -0.5254  1.5919 -0.3404
 1946Sol     HW 8533   0.459   0.481  11.669 -0.4032  0.9681  0.0102
 1946Sol     MW 8534   0.534   0.523  11.644  0.8921  0.1675  0.1453
 1947Sol     OW 8535   3.337   2.067   6.996 -0.3310 -0.4565 -0.1124
 1947Sol     HW 8536   3.400   2.102   6.932 -0.0225  0.8993  0.9124
 1947Sol     HW 8537   3.276   2.016   6.943  1.9861 -2.3568 -1.0676
 1947Sol     MW 8538   3.337   2.066   6.986  0.9248 -0.1445 -0.4614
 1948Sol     OW 8539   2.905   2.198  10.134  0.9296 -0.1999 -0.4828
 1948Sol     HW 8540   2.832   2.239  10.180  0.4099 -1.2836 -0.3168
 1948Sol     HW 8541   2.921   2.253  10.058 -0.2085 -0.0904 -0.6390
 1948Sol     MW 8542   2.900   2.206  10.132 -0.0112 -0.8808  0.3423
 1949Sol     OW 8543   0.794   0.853   9.398 -0.0786  0.7534 -0.0319
 1949Sol     HW 8544   0.866   0.790   9.391  0.3957  1.1446  1.2295
 1949Sol     HW 8545   0.721   0.809   9.354  0.7682  0.1313 -0.8628
 1949Sol     MW 8546   0.794   0.843   9.393 -0.3724 -1.2156 -0.4673
 1950Sol     OW 8547   1.114   0.709   7.840  0.0201 -0.1654 -0.0645
 1950Sol     HW 8548   1.055   0.699   7.765 -0.8276  2.6914  0.1507
 1950Sol     HW 8549   1.055   0.725   7.914  1.0144  1.7280  0.3390
 1950Sol     MW 8550   1.103   0.709   7.840 -0.0936  0.4671  0.8975
 1951Sol     OW 8551   1.256   0.223   8.848 -1.0817 -0.1531  0.0080
 1951Sol     HW 8552   1.248   0.144   8.901  2.3794 -0.6523 -0.1029
 1951Sol     HW 8553   1.256   0.192   8.757 -2.1164  0.2188 -0.1227
 1951Sol     MW 8554   1.255   0.213   8.845 -0.1098  0.3384  0.1617
 1952Sol     OW 8555   2.686   1.486  12.839  0.8371 -0.2850  0.1566
 1952Sol     HW 8556   2.603   1.522  12.871  1.0876  0.9074 -0.5077
 1952Sol     HW 8557   2.680   1.393  12.857 -0.7099 -0.2311  0.0073
 1952Sol     MW 8558   2.678   1.481  12.843  0.2426  0.0011 -0.2869
 1953Sol     OW 8559   1.500   1.155  12.653 -0.4076  0.0483  0.5891
 1953Sol     HW 8560   1.558   1.182  12.582 -0.4541  1.0716  0.9364
 1953Sol     HW 8561   1.420   1.207  12.641  0.5493  2.1763  2.8912
 1953Sol     MW 8562   1.498   1.162  12.646  0.7335 -0.0369 -0.3964
 1954Sol     OW 8563   1.783   1.254  12.095 -0.2592 -0.0650 -0.5876
 1954Sol     HW 8564   1.802   1.183  12.157 -1.3962 -1.9425 -2.3225
 1954Sol     HW 8565   1.865   1.302  12.087 -0.0477  0.1297  2.2448
 1954Sol     MW 8566   1.792   1.252  12.100 -0.2159  0.2492  0.1545
 1955Sol     OW 8567   2.292   3.457   7.857 -0.6835  0.1871 -0.3568
 1955Sol     HW 8568   2.353   3.432   7.925 -0.2568 -0.5970 -1.0148
 1955Sol     HW 8569   2.264   3.546   7.880  2.8142  1.6835 -1.5092
 1955Sol     MW 8570   2.295   3.463   7.865  0.4247  0.4348 -0.2332
 1956Sol     OW 8571   0.413   2.346  10.395 -0.1302 -0.1473  0.3348
 1956Sol     HW 8572   0.356   2.422  10.406 -0.1910 -0.3113  1.2224
 1956Sol     HW 8573   0.386   2.286  10.465 -1.3742 -1.7953 -1.5133
 1956Sol     MW 8574   0.405   2.347  10.402  0.7198 -0.0626  0.3435
 1957Sol     OW 8575   3.124   0.325  11.895  0.4312 -0.3437 -0.0063
 1957Sol     HW 8576   3.100   0.233  11.884 -0.0100 -0.0794 -1.3754
 1957Sol     HW 8577   3.181   0.344  11.821  0.8528  0.3780  0.4992
 1957Sol     MW 8578   3.127   0.319  11.888 -0.5614 -0.3300  0.1020
 1958Sol     OW 8579   0.994   1.842  11.195 -0.3540  0.0336 -0.0096
 1958Sol     HW 8580   0.933   1.837  11.268 -0.0149  2.2100  0.4558
 1958Sol     HW 8581   0.948   1.803  11.121 -0.1913 -3.4363  1.6662
 1958Sol     MW 8582   0.985   1.838  11.195 -0.0422 -0.3381 -0.1531
 1959Sol     OW 8583   1.251   3.389  12.848  0.4981  0.0932  0.2031
 1959Sol     HW 8584   1.193   3.435  12.909  0.1254  0.8199 -0.6896
 1959Sol     HW 8585   1.213   3.302  12.838  0.9162 -0.2547  1.4969
 1959Sol     MW 8586   1.243   3.385  12.853 -0.8347 -0.1226  0.0950
 1960Sol     OW 8587   0.983   0.511   9.653 -0.0333 -0.3217  0.1989
 1960Sol     HW 8588   1.054   0.572   9.676 -0.5574  1.0678 -1.7065
 1960Sol     HW 8589   0.903   0.564   9.659 -0.7605 -1.4564  0.7833
 1960Sol     MW 8590   0.982   0.522   9.655  0.2978 -0.3185 -0.5536
 1961Sol     OW 8591   1.754   0.196  11.930 -0.4570  0.1623  0.0606
 1961Sol     HW 8592   1.747   0.100  11.933  2.2665 -0.0640  1.6994
 1961Sol     HW 8593   1.705   0.225  12.006  0.3235 -0.0953  0.6763
 1961Sol     MW 8594   1.749   0.190  11.937  0.2362 -0.1504  0.0329
 1962Sol     OW 8595   3.190   0.309  11.459 -0.3051 -0.0665  0.1858
 1962Sol     HW 8596   3.267   0.297  11.403 -1.0103  0.7003 -0.9847
 1962Sol     HW 8597   3.169   0.402  11.450 -0.6001 -0.0015  1.5258
 1962Sol     MW 8598   3.195   0.317  11.453 -0.2051 -0.3463 -0.7095
 1963Sol     OW 8599   1.861   3.207   7.574  0.7325 -0.4146 -1.0041
 1963Sol     HW 8600   1.945   3.212   7.529  1.2173 -2.1715 -0.3588
 1963Sol     HW 8601   1.797   3.188   7.506  0.7063  1.8295 -1.6278
 1963Sol     MW 8602   1.863   3.205   7.564 -0.6759 -0.0418 -0.1274
 1964Sol     OW 8603   1.653   0.061  13.597 -0.0946 -0.3779  0.1328
 1964Sol     HW 8604   1.654  -0.023  13.552  0.5804 -0.1964 -0.1830
 1964Sol     HW 8605   1.745   0.079  13.617 -0.2886  0.0322  0.6653
 1964Sol     MW 8606   1.661   0.055  13.595 -0.7209 -0.1987 -0.1157
 1965Sol     OW 8607   2.558   1.692  12.360  0.5157 -0.2484  0.2228
 1965Sol     HW 8608   2.579   1.621  12.420 -0.8316  0.3844  1.4812
 1965Sol     HW 8609   2.549   1.770  12.416  2.0379  0.9377 -1.1387
 1965Sol     MW 8610   2.559   1.693  12.370 -0.0732 -0.1445  0.2004
 1966Sol     OW 8611   2.758   0.620  14.208  0.1655  0.3777  0.0822
 1966Sol     HW 8612   2.726   0.702  14.172 -0.2971 -0.3154 -1.1073
 1966Sol     HW 8613   2.679   0.569  14.228  0.4371  0.3607  1.1545
 1966Sol     MW 8614   2.748   0.622  14.207 -0.0431  0.1128 -0.8544
 1967Sol     OW 8615   0.178   3.085   6.176 -0.1971  0.4164  0.1539
 1967Sol     HW 8616   0.188   2.995   6.144 -0.8655  0.3451  0.1243
 1967Sol     HW 8617   0.123   3.127   6.110  1.2300  1.2442 -0.5389
 1967Sol     MW 8618   0.174   3.081   6.167 -0.2302  0.0944 -0.7165
 1968Sol     OW 8619   1.572   1.000  14.237 -0.2456  0.8642  0.5276
 1968Sol     HW 8620   1.482   0.989  14.206 -0.3269  0.6877  0.8138
 1968Sol     HW 8621   1.587   1.094  14.237  0.6491  0.7494 -2.5238
 1968Sol     MW 8622   1.565   1.007  14.235 -0.9120 -0.1383 -0.1858
 1969Sol     OW 8623   0.112   0.186   9.666 -0.9247  0.2570  0.3971
 1969Sol     HW 8624   0.079   0.126   9.599  0.0697  0.5231 -0.3290
 1969Sol     HW 8625   0.102   0.138   9.748 -0.9442 -0.5690 -0.0869
 1969Sol     MW 8626   0.108   0.176   9.667 -0.3463  0.2063 -0.1245
 1970Sol     OW 8627   2.969   1.551  10.191 -0.2152 -0.7122  0.4425
 1970Sol     HW 8628   2.901   1.487  10.169  1.4535 -1.9932 -1.2231
 1970Sol     HW 8629   2.977   1.606  10.113  1.7092 -1.5738 -0.0079
 1970Sol     MW 8630   2.964   1.550  10.182 -0.3665 -0.0044 -0.1456
 1971Sol     OW 8631   2.007   0.373  13.769 -0.2389 -0.4572  0.2700
 1971Sol     HW 8632   2.103   0.383  13.772 -0.4363  1.9582 -0.2933
 1971Sol     HW 8633   1.977   0.407  13.853 -0.6813 -0.0533 -0.0508
 1971Sol     MW 8634   2.013   0.377  13.777  0.0475  0.1991 -0.1048
 1972Sol     OW 8635   2.176   1.902  11.286  0.2201  0.0980  0.5690
 1972Sol     HW 8636   2.169   1.959  11.362  0.4882 -0.3632  0.9362
 1972Sol     HW 8637   2.162   1.961  11.211 -0.6671  0.4382  0.9965
 1972Sol     MW 8638   2.174   1.912  11.286 -0.1298  0.3524 -0.2947
 1973Sol     OW 8639   1.883   0.259  12.529  0.0210 -0.1418 -0.3279
 1973Sol     HW 8640   1.972   0.228  12.548 -0.0641  0.0130  0.3206
 1973Sol     HW 8641   1.826   0.190  12.561 -0.2126  1.0773  2.0048
 1973Sol     MW 8642   1.886   0.250  12.533  0.0836  0.3961 -0.1854
 1974Sol     OW 8643   0.760   2.505   8.479  0.4808  0.6965 -0.4721
 1974Sol     HW 8644   0.832   2.457   8.437  0.2470  0.0256 -0.1238
 1974Sol     HW 8645   0.774   2.491   8.573 -1.0648 -0.8843 -0.4463
 1974Sol     MW 8646   0.767   2.499   8.484  0.5310 -0.4378 -0.1513
 1975Sol     OW 8647   0.478   1.502  12.010 -0.1664  0.1999  0.3576
 1975Sol     HW 8648   0.406   1.470  12.064  0.5957 -0.2610  1.1248
 1975Sol     HW 8649   0.493   1.432  11.946 -0.8583  0.6059 -0.2555
 1975Sol     MW 8650   0.473   1.493  12.009 -0.3256  0.8364  0.1479
 1976Sol     OW 8651   0.180   1.612  12.627 -0.8440 -0.3267 -0.2553
 1976Sol     HW 8652   0.175   1.588  12.720  0.4908 -0.0065 -0.0990
 1976Sol     HW 8653   0.141   1.537  12.581 -1.0211 -0.7194  0.5220
 1976Sol     MW 8654   0.176   1.603  12.631 -0.5532  0.6232  0.2989
 1977Sol     OW 8655   0.179   1.418  13.902  0.2466 -0.1499  0.6223
 1977Sol     HW 8656   0.195   1.324  13.893  0.1477 -0.0309 -0.8457
 1977Sol     HW 8657   0.237   1.459  13.838 -0.5038  0.7229  0.4943
 1977Sol     MW 8658   0.186   1.413  13.896 -0.2117  0.1275 -0.0819
 1978Sol     OW 8659   2.588   2.050  10.244  0.4764  0.2140  0.0946
 1978Sol     HW 8660   2.514   2.073  10.187 -0.1723  1.5298  1.4422
 1978Sol     HW 8661   2.638   1.986  10.193 -2.1067 -1.4462 -0.4618
 1978Sol     MW 8662   2.585   2.046  10.234 -0.3523 -0.1177  0.2748
 1979Sol     OW 8663   1.775   2.136   7.606 -0.0848  0.3966 -0.5211
 1979Sol     HW 8664   1.772   2.090   7.689 -0.3163  0.3710 -0.5446
 1979Sol     HW 8665   1.685   2.163   7.589  0.3176  2.4414  0.3857
 1979Sol     MW 8666   1.767   2.134   7.612  0.8092 -0.1001  0.4231
 1980Sol     OW 8667   1.999   1.545  11.128 -0.3067  0.4381  0.2318
 1980Sol     HW 8668   2.003   1.457  11.090 -0.5075  0.5362 -0.0198
 1980Sol     HW 8669   1.918   1.582  11.094 -1.0969  0.0960  1.7257
 1980Sol     MW 8670   1.992   1.541  11.122  0.8386 -0.2511  0.2935
 1981Sol     OW 8671   2.488   3.253  12.723 -0.0252 -0.1757  0.1983
 1981Sol     HW 8672   2.512   3.311  12.651  1.6719 -0.3570  0.5981
 1981Sol     HW 8673   2.555   3.184  12.722  0.1261 -0.0954  2.0495
 1981Sol     MW 8674   2.496   3.252  12.717  0.0236  0.0678  0.0974
 1982Sol     OW 8675   1.089   0.006   8.627  0.4608  0.0958 -0.4792
 1982Sol     HW 8676   1.048   0.077   8.578  0.6433 -0.6163 -1.6847
 1982Sol     HW 8677   1.183   0.016   8.611  0.5637  0.1231  0.1018
 1982Sol     MW 8678   1.094   0.013   8.621  0.4262  0.3444 -0.0913
 1983Sol     OW 8679   2.125   0.605   6.081  0.0843  0.5950  0.1954
 1983Sol     HW 8680   2.185   0.658   6.133  0.0708  0.8539 -0.0556
 1983Sol     HW 8681   2.043   0.655   6.079  0.4895  1.2431 -1.2124
 1983Sol     MW 8682   2.123   0.614   6.085 -0.0937  0.2357 -0.4685
 1984Sol     OW 8683   0.748   0.522  10.057  0.5364  0.0840 -0.6188
 1984Sol     HW 8684   0.750   0.454   9.990 -1.1503 -0.3238 -0.2558
 1984Sol     HW 8685   0.676   0.580  10.031  0.8824  0.8032 -0.0114
 1984Sol     MW 8686   0.742   0.521  10.048 -0.3570  0.0210 -0.5749
 1985Sol     OW 8687   1.360   0.303   7.997 -0.1898 -0.5127  0.4627
 1985Sol     HW 8688   1.267   0.294   8.014 -0.4628  2.0200  0.4623
 1985Sol     HW 8689   1.397   0.335   8.080  0.3216  0.6230 -0.1928
 1985Sol     MW 8690   1.355   0.305   8.006 -0.0624 -0.2402  0.7836
 1986Sol     OW 8691   3.006   1.336   9.215 -0.3087  0.1480 -0.4729
 1986Sol     HW 8692   3.057   1.410   9.183 -1.6477  1.9876  1.4816
 1986Sol     HW 8693   2.915   1.356   9.192 -0.7847 -0.4843  0.7382
 1986Sol     MW 8694   3.002   1.344   9.210 -0.0442  0.2445 -0.7267
 1987Sol     OW 8695   1.568   0.264  11.246 -0.2392 -0.4545 -0.0792
 1987Sol     HW 8696   1.588   0.207  11.172 -1.2445 -2.4186  1.1079
 1987Sol     HW 8697   1.573   0.206  11.322  0.5897  1.4789  1.3749
 1987Sol     MW 8698   1.570   0.254  11.246  0.5214  0.5476 -0.9028
 1988Sol     OW 8699   0.621   2.723   8.447  0.0503  0.3584 -0.3922
 1988Sol     HW 8700   0.622   2.734   8.352  1.5007  1.0498 -0.3051
 1988Sol     HW 8701   0.679   2.649   8.463 -0.2308  0.2111 -0.0426
 1988Sol     MW 8702   0.626   2.717   8.440  0.6292  0.4042 -0.1665
 1989Sol     OW 8703   0.593   3.056   9.934 -0.4989  0.1700 -0.2934
 1989Sol     HW 8704   0.611   3.148   9.913  0.9415 -0.5119 -2.1709
 1989Sol     HW 8705   0.658   3.007   9.885 -1.6663 -1.9108  0.1738
 1989Sol     MW 8706   0.600   3.060   9.928  0.0582 -0.0346 -0.3568
 1990Sol     OW 8707   0.931   2.789  11.833 -0.2410  0.2136  0.0701
 1990Sol     HW 8708   0.896   2.731  11.766 -1.5431  0.5933  0.4063
 1990Sol     HW 8709   1.018   2.814  11.801  0.3880 -1.9995 -0.0210
 1990Sol     MW 8710   0.936   2.786  11.824  0.3741  0.7212  0.2948
 1991Sol     OW 8711   2.797   2.545   8.923  0.0868  0.1348 -0.6305
 1991Sol     HW 8712   2.848   2.625   8.931  0.3438 -0.0694 -0.2453
 1991Sol     HW 8713   2.707   2.572   8.941  0.0788  0.4598 -1.1435
 1991Sol     MW 8714   2.793   2.554   8.925  0.4346  0.4112  0.3765
 1992Sol     OW 8715   0.796   0.008  13.987  0.7952  0.0461  0.0222
 1992Sol     HW 8716   0.763   0.063  13.916  0.9456  0.4940  0.2983
 1992Sol     HW 8717   0.734  -0.065  13.992  0.8556 -0.0580 -0.6552
 1992Sol     MW 8718   0.788   0.006  13.981 -0.2467 -0.2815 -0.7745
 1993Sol     OW 8719   0.913   0.397  11.976  0.2333 -0.0305 -0.1601
 1993Sol     HW 8720   0.892   0.421  12.066 -0.6737  2.5026 -1.0045
 1993Sol     HW 8721   0.950   0.309  11.982  0.6991  0.3306  2.7392
 1993Sol     MW 8722   0.914   0.391  11.984 -0.8797 -0.5512  0.3766
 1994Sol     OW 8723   1.993   0.186  11.819 -0.0637 -0.0126 -0.1530
 1994Sol     HW 8724   2.050   0.197  11.895 -0.4036  0.1004  0.0876
 1994Sol     HW 8725   1.906   0.208  11.851 -0.0293  1.2088 -0.8963
 1994Sol     MW 8726   1.990   0.189  11.829 -0.2017  0.5225  0.4094
 1995Sol     OW 8727   1.301   0.300   9.240 -0.5345  0.5027  0.0450
 1995Sol     HW 8728   1.368   0.250   9.287 -1.1119 -0.2434  0.0747
 1995Sol     HW 8729   1.218   0.262   9.269 -0.9935  1.7576  0.3890
 1995Sol     MW 8730   1.300   0.292   9.247  0.2134 -0.3927  0.2184
 1996Sol     OW 8731   2.060   1.067   8.150 -0.2655  0.3882  0.4608
 1996Sol     HW 8732   2.102   1.153   8.158  0.3799  0.2673 -1.3912
 1996Sol     HW 8733   2.068   1.028   8.238  2.6168  0.7709  0.4060
 1996Sol     MW 8734   2.064   1.071   8.159  0.3770 -0.4463 -0.3162
 1997Sol     OW 8735   2.463   1.668  11.742 -0.0979  0.5365 -0.3407
 1997Sol     HW 8736   2.516   1.670  11.662 -0.1466  0.2724 -0.3774
 1997Sol     HW 8737   2.526   1.655  11.812  0.0552  1.7184 -0.2446
 1997Sol     MW 8738   2.474   1.667  11.741 -0.5846 -0.0125  0.0308
 1998Sol     OW 8739   1.185   1.947   7.443  0.5522  0.5604 -0.1507
 1998Sol     HW 8740   1.115   2.001   7.478  0.7839  1.5202 -1.1666
 1998Sol     HW 8741   1.141   1.884   7.386  0.3505  0.0592  0.5462
 1998Sol     MW 8742   1.175   1.946   7.441  0.0763  0.1066  0.1793
 1999Sol     OW 8743   0.924   0.719   8.404  0.6687 -0.2306 -0.3031
 1999Sol     HW 8744   1.012   0.700   8.437  1.1036 -0.7435 -1.7441
 1999Sol     HW 8745   0.888   0.781   8.467  1.4069 -1.3539  1.2456
 1999Sol     MW 8746   0.929   0.723   8.413 -0.1891  0.1941 -0.1465
 2000Sol     OW 8747   2.205   0.657   9.699 -0.1850  0.4131  0.4601
 2000Sol     HW 8748   2.131   0.694   9.650  0.4948  2.0172  0.6186
 2000Sol     HW 8749   2.275   0.720   9.688  1.5636 -1.6802 -0.6681
 2000Sol     MW 8750   2.204   0.666   9.694 -0.1683  0.4894  0.6481
 2001Sol     OW 8751   0.207   2.750  12.967 -0.2577 -0.3996  0.2643
 2001Sol     HW 8752   0.198   2.727  13.060  1.2446 -1.2691  0.2146
 2001Sol     HW 8753   0.181   2.671  12.920 -1.4120  0.1770 -0.0688
 2001Sol     MW 8754   0.204   2.741  12.971  0.2171  0.2243 -0.1957
 2002Sol     OW 8755   0.179   0.716   8.569  0.2475 -0.8372 -0.0602
 2002Sol     HW 8756   0.210   0.775   8.500  0.5621  0.3494  1.0633
 2002Sol     HW 8757   0.151   0.637   8.523  0.4367 -0.0598 -1.5393
 2002Sol     MW 8758   0.180   0.715   8.559  0.3735 -0.1924 -0.0166
 2003Sol     OW 8759   1.364   1.497   6.729  0.2105 -0.1868  0.2270
 2003Sol     HW 8760   1.332   1.450   6.652 -1.7298  1.3314  0.0548
 2003Sol     HW 8761   1.429   1.559   6.694 -0.2494  0.1031 -0.1258
 2003Sol     MW 8762   1.367   1.499   6.719 -0.2541  0.4845  0.4456
 2004Sol     OW 8763   1.813   2.190  11.650 -0.6285 -0.5608 -0.4913
 2004Sol     HW 8764   1.907   2.188  11.669 -1.1909 -1.6476  2.4020
 2004Sol     HW 8765   1.784   2.100  11.661 -2.3314  0.0836  0.5561
 2004Sol     MW 8766   1.819   2.182  11.653  1.1338 -0.0148  0.0594
 2005Sol     OW 8767   2.072   1.338  13.052  0.4735  0.9137 -0.3150
 2005Sol     HW 8768   2.088   1.246  13.074 -0.9399  0.6759 -0.2217
 2005Sol     HW 8769   2.028   1.374  13.129  2.7892  2.2169  0.4557
 2005Sol     MW 8770   2.070   1.333  13.061 -0.3341  0.3119 -0.8177
 2006Sol     OW 8771   1.806   1.331  11.377 -0.5783  0.3794 -0.5574
 2006Sol     HW 8772   1.841   1.405  11.425 -1.2740  0.4182 -0.1090
 2006Sol     HW 8773   1.718   1.358  11.350 -0.8115 -0.2459 -0.4564
 2006Sol     MW 8774   1.801   1.340  11.379  0.0380 -0.2138 -0.0554
 2007Sol     OW 8775   2.230   2.637  13.779 -0.1263 -0.1172  0.0479
 2007Sol     HW 8776   2.311   2.688  13.785 -0.2780  0.2166 -0.6361
 2007Sol     HW 8777   2.252   2.562  13.725 -0.3069  0.0642 -0.2874
 2007Sol     MW 8778   2.239   2.635  13.774 -0.2746 -0.2443 -0.4467
 2008Sol     OW 8779   2.260   0.168   8.211 -0.4645 -0.4436 -0.1080
 2008Sol     HW 8780   2.244   0.175   8.305 -0.0633 -0.7034 -0.0197
 2008Sol     HW 8781   2.342   0.119   8.204 -0.3432 -0.1739 -0.5852
 2008Sol     MW 8782   2.266   0.164   8.219  0.0283  0.0083  0.3149
 2009Sol     OW 8783   1.596   3.268  13.845  0.1516 -0.3172  0.0307
 2009Sol     HW 8784   1.527   3.317  13.888 -0.2581 -1.4523  0.6844
 2009Sol     HW 8785   1.555   3.232  13.766 -0.5304 -2.4619  1.3157
 2009Sol     MW 8786   1.586   3.269  13.841  0.5157  0.2768  0.6150
 2010Sol     OW 8787   1.307   1.423   7.826  0.1818  0.2145 -0.2155
 2010Sol     HW 8788   1.239   1.490   7.822  0.0239  0.0811  0.1413
 2010Sol     HW 8789   1.356   1.445   7.906 -0.4233 -0.6155  0.3914
 2010Sol     MW 8790   1.305   1.431   7.833  0.1240  0.5435 -0.5694
 2011Sol     OW 8791   2.974   0.292   8.956  0.4351 -0.2842 -0.7488
 2011Sol     HW 8792   2.899   0.238   8.981  0.1582  0.2779 -0.3351
 2011Sol     HW 8793   3.023   0.304   9.038 -0.0397  0.9033 -0.6277
 2011Sol     MW 8794   2.972   0.289   8.966  0.7512  0.3457 -0.2876
 2012Sol     OW 8795   1.840   2.547  12.495 -0.0354  0.4441  0.1054
 2012Sol     HW 8796   1.831   2.594  12.412 -1.3333 -0.2317 -0.1382
 2012Sol     HW 8797   1.804   2.460  12.478  0.6938 -0.0567  1.0741
 2012Sol     MW 8798   1.836   2.544  12.486 -0.0187  0.4409 -0.0183
 2013Sol     OW 8799   0.739   0.633   9.659 -0.1355 -0.2275 -0.1956
 2013Sol     HW 8800   0.756   0.695   9.730  0.1620  1.2849 -1.5670
 2013Sol     HW 8801   0.665   0.671   9.612 -0.7921 -1.5923 -0.2882
 2013Sol     MW 8802   0.734   0.642   9.661 -0.1086  0.5132 -0.2846
 2014Sol     OW 8803   1.156   2.901   7.045 -0.1067  0.5678 -0.6810
 2014Sol     HW 8804   1.212   2.905   6.967 -0.1751 -2.1969 -0.8889
 2014Sol     HW 8805   1.067   2.911   7.011 -0.2130 -1.5902 -1.1023
 2014Sol     MW 8806   1.153   2.903   7.035  0.1348  0.2329  0.0002
 2015Sol     OW 8807   3.198   0.644   9.737  0.1944 -0.0990  0.0970
 2015Sol     HW 8808   3.117   0.675   9.777  0.2913 -1.5267  1.4462
 2015Sol     HW 8809   3.255   0.624   9.812  2.0130  1.4418 -0.8222
 2015Sol     MW 8810   3.196   0.645   9.747  0.0139  0.1331 -0.8322
 2016Sol     OW 8811   1.801   0.343  13.969 -0.2436  0.0275  0.3016
 2016Sol     HW 8812   1.775   0.432  13.992 -1.3080 -0.6112  1.7013
 2016Sol     HW 8813   1.736   0.315  13.904  0.1410  0.2981 -0.2013
 2016Sol     MW 8814   1.793   0.348  13.965 -0.6241  0.6643  0.1888
 2017Sol     OW 8815   3.136   1.525   9.733  0.1575 -0.9720  0.6411
 2017Sol     HW 8816   3.043   1.548   9.732  0.4472  0.2062 -0.0664
 2017Sol     HW 8817   3.142   1.449   9.675 -0.1714 -0.2414 -0.3718
 2017Sol     MW 8818   3.128   1.520   9.728  0.6394 -0.2144 -0.3985
 2018Sol     OW 8819   1.813   0.029   5.919 -0.5634 -0.1937 -0.0627
 2018Sol     HW 8820   1.748  -0.011   5.861 -1.5404  0.2140  0.7205
 2018Sol     HW 8821   1.812  -0.026   5.997  0.2295 -0.3366 -0.1566
 2018Sol     MW 8822   1.807   0.021   5.921 -0.4471  0.3978 -0.4859
 2019Sol     OW 8823   2.306   1.029   6.725  0.0122 -0.1156 -0.2308
 2019Sol     HW 8824   2.255   0.948   6.719  1.2038 -0.9355  0.5567
 2019Sol     HW 8825   2.374   1.010   6.790  1.5541  0.8310 -1.5217
 2019Sol     MW 8826   2.308   1.020   6.730  0.0214 -0.1714  0.1032
 2020Sol     OW 8827   1.097   2.831   8.955 -0.3919  0.4435 -0.2297
 2020Sol     HW 8828   1.178   2.781   8.959 -1.6149 -1.5862 -0.1244
 2020Sol     HW 8829   1.106   2.885   8.877  0.6463 -0.4927 -0.7700
 2020Sol     MW 8830   1.105   2.832   8.949  0.8954  0.1397 -0.1690
 2021Sol     OW 8831   2.133   0.415   9.492  0.5442  0.0047 -0.2515
 2021Sol     HW 8832   2.212   0.438   9.542  1.5784 -1.4006 -1.2095
 2021Sol     HW 8833   2.130   0.480   9.422  0.9438 -0.0304 -0.3058
 2021Sol     MW 8834   2.140   0.423   9.490 -0.0390 -0.3351  0.4108
 2022Sol     OW 8835   0.883   3.135  12.685 -0.1656 -0.1060 -0.1570
 2022Sol     HW 8836   0.921   3.118  12.599  0.1085  0.7766 -0.2118
 2022Sol     HW 8837   0.798   3.174  12.666 -0.5177 -0.8218 -0.0328
 2022Sol     MW 8838   0.879   3.137  12.676 -0.8878 -0.2987 -0.1560
 2023Sol     OW 8839   1.665   3.000  11.289  0.1929  0.4846 -0.0245
 2023Sol     HW 8840   1.738   2.984  11.230  0.7995  0.1883  0.7953
 2023Sol     HW 8841   1.629   2.913  11.307 -0.7457  0.6833 -0.9052
 2023Sol     MW 8842   1.668   2.991  11.285  0.6041  0.0549 -0.4887
 2024Sol     OW 8843   2.329   1.385  11.197 -0.0447  0.0595  0.4139
 2024Sol     HW 8844   2.254   1.388  11.257 -0.7258 -1.9057 -0.2716
 2024Sol     HW 8845   2.398   1.344  11.248  0.0713  0.4351  0.5574
 2024Sol     MW 8846   2.328   1.381  11.207  0.6861  0.0063  0.4309
 2025Sol     OW 8847   2.763   2.321  12.730  0.5921  0.3778  0.4448
 2025Sol     HW 8848   2.844   2.272  12.741 -0.1758 -1.2341 -0.8042
 2025Sol     HW 8849   2.760   2.341  12.636 -0.5957  0.1297  0.4166
 2025Sol     MW 8850   2.770   2.318  12.722 -0.4709 -0.3143 -0.1515
 2026Sol     OW 8851   3.034   3.032   9.555 -0.2298 -0.2032  0.5872
 2026Sol     HW 8852   3.129   3.042   9.545 -0.3862  1.6418  0.7811
 2026Sol     HW 8853   3.002   3.023   9.465 -0.1166  1.7749  0.3181
 2026Sol     MW 8854   3.040   3.032   9.546  0.3059 -0.2235 -0.1840
 2027Sol     OW 8855   0.968   1.517   9.221 -0.2067 -0.1957 -0.5091
 2027Sol     HW 8856   0.945   1.470   9.301  0.4708 -3.5274 -2.1644
 2027Sol     HW 8857   0.889   1.567   9.199 -1.6399 -1.9619  0.4175
 2027Sol     MW 8858   0.959   1.517   9.226 -1.0704 -0.4179 -0.4293
 2028Sol     OW 8859   1.606   0.982   6.417 -0.3211 -0.0149  0.1724
 2028Sol     HW 8860   1.634   0.892   6.431 -1.0373 -0.6918 -2.5377
 2028Sol     HW 8861   1.512   0.975   6.399  0.0137  1.0214 -2.1324
 2028Sol     MW 8862   1.600   0.973   6.417 -0.1032  0.4371  0.6408
 2029Sol     OW 8863   1.001   0.954  11.853  0.1366 -0.7280 -0.6316
 2029Sol     HW 8864   0.954   0.886  11.803 -4.0689  0.7361  1.0704
 2029Sol     HW 8865   0.960   1.036  11.825  1.1001  0.5562  1.6304
 2029Sol     MW 8866   0.993   0.955  11.846 -0.2371  0.1925  0.1561
 2030Sol     OW 8867   1.117   3.032  11.107 -0.4022  0.0741  0.0254
 2030Sol     HW 8868   1.152   3.091  11.040  2.9341 -1.0132  0.7356
 2030Sol     HW 8869   1.120   2.945  11.066 -0.9083 -0.2334  0.6279
 2030Sol     MW 8870   1.120   3.029  11.097  0.6780  1.4593 -0.2266
 2031Sol     OW 8871   0.972   2.007   7.856 -0.7206 -0.3926  0.3758
 2031Sol     HW 8872   0.944   1.967   7.938  1.0766  1.7000  2.0454
 2031Sol     HW 8873   1.027   1.940   7.815  0.4091 -0.5269  2.0626
 2031Sol     MW 8874   0.975   1.997   7.860 -0.3705  0.0379  0.0874
 2032Sol     OW 8875   2.926   0.152  12.337 -0.4714 -0.1840  0.0489
 2032Sol     HW 8876   2.993   0.217  12.317 -2.2481  0.9152 -2.6012
 2032Sol     HW 8877   2.874   0.145  12.257 -1.6041 -3.3542  0.9663
 2032Sol     MW 8878   2.927   0.157  12.328 -0.2254 -0.4005 -0.4233
 2033Sol     OW 8879   0.313   1.097   9.353  0.3503  0.2536 -0.2294
 2033Sol     HW 8880   0.400   1.068   9.379 -0.4702 -0.7038  1.5744
 2033Sol     HW 8881   0.327   1.145   9.272  2.5567  0.1540  0.0549
 2033Sol     MW 8882   0.322   1.098   9.348 -0.0760  0.6131 -0.2047
 2034Sol     OW 8883   3.166   1.796   7.590 -0.1004 -0.1114 -0.1666
 2034Sol     HW 8884   3.081   1.839   7.600  0.4892  0.6525  1.6523
 2034Sol     HW 8885   3.168   1.729   7.658  0.6417 -0.2945 -0.3582
 2034Sol     MW 8886   3.159   1.794   7.597  0.1621 -0.2536  0.8198
 2035Sol     OW 8887   0.529   1.144  12.326 -0.5217  0.1476 -0.0717
 2035Sol     HW 8888   0.586   1.156  12.250 -2.7144 -1.1035 -2.0167
 2035Sol     HW 8889   0.582   1.094  12.388  0.6105 -0.6990 -1.6822
 2035Sol     MW 8890   0.539   1.140  12.324 -0.5230  0.3961  0.3149
 2036Sol     OW 8891   0.354   1.000   6.580  0.6788  0.8321  0.1890
 2036Sol     HW 8892   0.331   1.091   6.561  0.1812  0.7200  0.2312
 2036Sol     HW 8893   0.270   0.954   6.579  0.9452  0.3428 -0.0031
 2036Sol     MW 8894   0.344   1.004   6.578  0.4470  0.2434 -0.3501
 2037Sol     OW 8895   1.125   1.052  11.495  0.2075 -0.0165  0.3385
 2037Sol     HW 8896   1.179   1.077  11.570  0.8666  1.0453 -0.4637
 2037Sol     HW 8897   1.188   1.047  11.422 -0.3086 -1.6801 -0.0189
 2037Sol     MW 8898   1.136   1.053  11.495 -0.2907  0.2254 -0.2871
 2038Sol     OW 8899   2.416   2.070  12.017 -0.1749 -0.1005  0.4586
 2038Sol     HW 8900   2.415   1.983  11.977  1.0089 -0.1860  0.5817
 2038Sol     HW 8901   2.444   2.129  11.947  1.4440 -0.1856  1.0103
 2038Sol     MW 8902   2.419   2.067  12.007  0.0338 -0.5337  0.3652
 2039Sol     OW 8903   0.902   1.091  10.774  0.3538 -0.0235 -0.1903
 2039Sol     HW 8904   0.924   1.018  10.832  0.5960  1.1212  1.1915
 2039Sol     HW 8905   0.975   1.094  10.711  1.1359  0.0127  0.7091
 2039Sol     MW 8906   0.910   1.085  10.773  0.1572  0.2662 -0.0507
 2040Sol     OW 8907   0.404   1.254   6.164  0.2142  0.1689 -0.3164
 2040Sol     HW 8908   0.396   1.333   6.110 -1.5997  1.1253  1.3212
 2040Sol     HW 8909   0.314   1.229   6.183  0.8293 -0.8291  1.3108
 2040Sol     MW 8910   0.395   1.259   6.161  0.0156 -0.2121 -0.3049
 2041Sol     OW 8911   0.804   1.863  12.553  0.3935 -0.5095  0.4799
 2041Sol     HW 8912   0.801   1.881  12.459  0.3009 -0.3112  0.5200
 2041Sol     HW 8913   0.759   1.938  12.593  0.8683 -0.3430  0.7156
 2041Sol     MW 8914   0.800   1.871  12.549 -0.3580 -0.0453 -0.9030
 2042Sol     OW 8915   3.059   2.652  11.815 -0.2104 -0.1631 -0.7443
 2042Sol     HW 8916   3.063   2.575  11.758 -0.3960 -1.2284  0.6426
 2042Sol     HW 8917   3.015   2.620  11.894  1.1309  0.9778  0.4750
 2042Sol     MW 8918   3.055   2.642  11.817 -0.7580  0.5585  0.0404
 2043Sol     OW 8919   1.746   0.415   6.260 -0.0813  0.2205 -0.5750
 2043Sol     HW 8920   1.720   0.352   6.327 -1.9783 -0.1429 -1.6194
 2043Sol     HW 8921   1.782   0.361   6.189  1.2742  0.5550 -0.1591
 2043Sol     MW 8922   1.747   0.404   6.259  0.3601  0.1913 -0.0686
 2044Sol     OW 8923   0.650   0.697  10.364  0.1648  0.4985  0.4503
 2044Sol     HW 8924   0.613   0.610  10.350 -1.9202  1.2317  1.2574
 2044Sol     HW 8925   0.644   0.711  10.459  2.1959  0.7880  0.5585
 2044Sol     MW 8926   0.646   0.691  10.372  0.0488  0.0011  1.3670
 2045Sol     OW 8927   0.038   2.544  12.825 -0.2419  0.6949 -0.4556
 2045Sol     HW 8928  -0.006   2.514  12.745 -0.9945 -0.4843  0.3783
 2045Sol     HW 8929   0.106   2.478  12.841 -0.5341  0.5588  0.2422
 2045Sol     MW 8930   0.040   2.535  12.819 -0.0798  0.7903 -0.3083
 2046Sol     OW 8931   0.426   1.259   8.738 -0.3364 -0.2205 -0.3039
 2046Sol     HW 8932   0.493   1.197   8.767 -0.2376 -0.9172 -1.9832
 2046Sol     HW 8933   0.347   1.232   8.786 -0.2148 -1.4406 -0.7753
 2046Sol     MW 8934   0.425   1.251   8.745 -0.1993  0.1451  0.6315
 2047Sol     OW 8935   2.118   1.329  11.378  0.5535  0.2753 -0.3135
 2047Sol     HW 8936   2.035   1.324  11.331  1.1227  0.6456 -1.3844
 2047Sol     HW 8937   2.113   1.410  11.428 -0.1618 -0.2534  0.4857
 2047Sol     MW 8938   2.110   1.336  11.378  0.8283 -0.1897  0.9014
 2048Sol     OW 8939   0.154   1.711  10.495 -0.1051  0.2930  0.7804
 2048Sol     HW 8940   0.078   1.747  10.449 -0.8657 -0.8028  1.1623
 2048Sol     HW 8941   0.226   1.722  10.433 -0.9529 -0.3937 -0.3377
 2048Sol     MW 8942   0.153   1.716  10.485 -0.5035  0.2944 -0.4805
 2049Sol     OW 8943   1.670   1.366   8.075 -0.0545 -0.3989 -0.1908
 2049Sol     HW 8944   1.587   1.409   8.057  0.3966 -0.3951 -2.4543
 2049Sol     HW 8945   1.648   1.274   8.086 -0.5365 -0.1718  0.8247
 2049Sol     MW 8946   1.661   1.362   8.075 -0.0598 -0.5072 -0.4810
 2050Sol     OW 8947   2.614   2.427  14.172  0.4651 -0.0187  0.3795
 2050Sol     HW 8948   2.645   2.517  14.163 -1.9258  0.9769  1.7177
 2050Sol     HW 8949   2.666   2.391  14.243  1.5852  0.2034 -0.3007
 2050Sol     MW 8950   2.622   2.432  14.177 -0.5212 -0.3412  0.2416
 2051Sol     OW 8951   2.034   2.176   6.250  0.0892  0.0503 -0.1799
 2051Sol     HW 8952   1.978   2.198   6.176 -0.2783 -1.7946 -0.4867
 2051Sol     HW 8953   2.004   2.089   6.278  0.9678  0.2377  1.4159
 2051Sol     MW 8954   2.026   2.170   6.246  0.1242  0.6014  0.0060
 2052Sol     OW 8955   3.291   0.530   8.428  0.9046 -0.1698 -0.5921
 2052Sol     HW 8956   3.278   0.611   8.379  1.3341  0.7924  0.8636
 2052Sol     HW 8957   3.365   0.487   8.384  0.5811  0.1507 -1.4529
 2052Sol     MW 8958   3.297   0.533   8.419 -0.3330  0.1426  0.6326
 2053Sol     OW 8959   3.199   0.244   8.037 -0.7436  0.1472 -0.4860
 2053Sol     HW 8960   3.179   0.173   8.099  1.4083 -0.4670 -0.4763
 2053Sol     HW 8961   3.197   0.202   7.951 -2.2102  0.6815 -0.7298
 2053Sol     MW 8962   3.197   0.234   8.035  0.4674  0.6491 -0.0535
 2054Sol     OW 8963   1.456   2.880  11.874  0.4648  0.0380 -0.0042
 2054Sol     HW 8964   1.448   2.871  11.969  1.4611 -0.0217  0.0804
 2054Sol     HW 8965   1.384   2.828  11.839 -0.0977  0.3106  0.7217
 2054Sol     MW 8966   1.448   2.875  11.880 -0.1836  0.2389  0.5187
 2055Sol     OW 8967   0.605   1.309   7.073 -0.4480 -0.6224 -0.0526
 2055Sol     HW 8968   0.689   1.352   7.090 -1.4795  1.1573  0.7849
 2055Sol     HW 8969   0.569   1.355   6.997 -2.1432  0.9270  1.6339
 2055Sol     MW 8970   0.609   1.317   7.068 -0.4481  0.2418  0.4495
 2056Sol     OW 8971   3.338   3.244   6.061  0.6810 -0.1760  0.1706
 2056Sol     HW 8972   3.250   3.214   6.037  0.6081 -0.8155  1.2287
 2056Sol     HW 8973   3.323   3.318   6.120  0.8652  0.6848 -0.8363
 2056Sol     MW 8974   3.329   3.248   6.064  0.0104 -0.1287  0.5122
 2057Sol     OW 8975   1.842   3.247  10.759 -0.6323  0.3149  0.3001
 2057Sol     HW 8976   1.768   3.307  10.753 -0.5452  0.3219 -0.6446
 2057Sol     HW 8977   1.802   3.161  10.776 -1.0486 -0.2081 -3.1001
 2057Sol     MW 8978   1.832   3.245  10.760 -0.2014  0.4016 -0.5201
 2058Sol     OW 8979   0.294   2.886  12.522  0.2022 -0.6274  0.4133
 2058Sol     HW 8980   0.363   2.876  12.457 -0.1533 -2.3156  0.2660
 2058Sol     HW 8981   0.333   2.853  12.604 -0.2750 -1.1960  0.4190
 2058Sol     MW 8982   0.304   2.882  12.524  0.4582 -0.0590 -0.1631
 2059Sol     OW 8983   1.588   0.299  12.475 -0.2957 -0.0069 -0.2183
 2059Sol     HW 8984   1.670   0.345  12.493  0.0774 -0.6723 -0.2211
 2059Sol     HW 8985   1.612   0.231  12.413 -0.8548 -0.2105 -0.2139
 2059Sol     MW 8986   1.597   0.297  12.471  0.0568  0.8354  0.5256
 2060Sol     OW 8987   0.209   0.060  13.132  0.1523  0.2583 -0.2869
 2060Sol     HW 8988   0.185  -0.006  13.067 -1.4697 -1.0576  1.6223
 2060Sol     HW 8989   0.215   0.012  13.214  2.0641  1.9414  0.5861
 2060Sol     MW 8990   0.208   0.050  13.133  0.5252 -0.7548 -0.1566
 2061Sol     OW 8991   2.848   0.162   8.507 -0.1651 -0.0510 -0.0639
 2061Sol     HW 8992   2.915   0.226   8.529  0.3849 -0.7865  0.3820
 2061Sol     HW 8993   2.837   0.171   8.412 -0.5447  1.1395  0.0796
 2061Sol     MW 8994   2.853   0.168   8.500  0.0540 -0.2385  0.3126
 2062Sol     OW 8995   2.952   2.473   6.323  0.5507  0.0512  0.2489
 2062Sol     HW 8996   3.028   2.490   6.268  0.5131 -0.5379  0.0116
 2062Sol     HW 8997   2.947   2.378   6.329 -0.6076  0.0718 -0.3359
 2062Sol     MW 8998   2.959   2.466   6.319 -0.5451  0.0699 -0.7115
 2063Sol     OW 8999   0.614   0.357   9.164  0.2124 -0.2553 -0.3914
 2063Sol     HW 9000   0.685   0.421   9.157  1.1290 -1.3347 -1.0903
 2063Sol     HW 9001   0.632   0.294   9.094 -0.8015 -1.1732  0.1700
 2063Sol     MW 9002   0.622   0.357   9.157 -0.5802 -0.2148 -0.9188
 2064Sol     OW 9003   0.638   1.900  13.728 -0.5290 -0.4830  0.7015
 2064Sol     HW 9004   0.650   1.869  13.638 -0.1403  0.1372  0.5310
 2064Sol     HW 9005   0.629   1.821  13.781  0.4207 -0.8828  0.2782
 2064Sol     MW 9006   0.638   1.890  13.725  0.0912  1.0192  0.1602
 2065Sol     OW 9007   0.284   2.566  10.264  0.4046  0.0236 -0.6179
 2065Sol     HW 9008   0.317   2.653  10.285 -0.1003  0.2835 -0.8943
 2065Sol     HW 9009   0.196   2.565  10.301 -0.1738  0.1800 -1.9813
 2065Sol     MW 9010   0.279   2.574  10.269  1.0890  0.3941  0.0486
 2066Sol     OW 9011   2.711   1.806   7.063  0.5414 -0.6465  0.3343
 2066Sol     HW 9012   2.781   1.764   7.112  0.1007  0.2437  1.7868
 2066Sol     HW 9013   2.719   1.899   7.085 -0.8167 -0.4784  0.1768
 2066Sol     MW 9014   2.718   1.811   7.069 -0.2637  0.8127 -0.6628
 2067Sol     OW 9015   0.947   1.575  11.772 -0.0809  0.2369  0.3166
 2067Sol     HW 9016   0.966   1.667  11.755  0.8626  0.0634  0.4039
 2067Sol     HW 9017   0.970   1.530  11.690 -0.8028  0.1079  0.1795
 2067Sol     MW 9018   0.951   1.579  11.763 -0.1387  0.0722 -0.7684
 2068Sol     OW 9019   1.636   1.528  11.574  0.2043  0.2312 -0.5682
 2068Sol     HW 9020   1.727   1.556  11.568  0.7862 -1.4196  0.1102
 2068Sol     HW 9021   1.589   1.582  11.510  1.2449  2.6718  0.6872
 2068Sol     MW 9022   1.640   1.535  11.568  0.5732 -0.6442 -0.0565
 2069Sol     OW 9023   2.140   0.057  10.750 -0.0534 -0.1505 -0.0033
 2069Sol     HW 9024   2.220   0.075  10.800  0.1439  1.8629 -1.0186
 2069Sol     HW 9025   2.072   0.106  10.796 -0.7470 -1.8431  0.8448
 2069Sol     MW 9026   2.141   0.063  10.759  0.4452 -0.5412 -0.2559
 2070Sol     OW 9027   0.650   3.248  13.981  0.0981  0.3398 -0.7120
 2070Sol     HW 9028   0.598   3.172  13.955  2.1305 -1.0958 -0.6518
 2070Sol     HW 9029   0.637   3.254  14.076 -0.7206  0.5940 -0.8321
 2070Sol     MW 9030   0.644   3.242  13.987  0.2021 -0.7455  0.0646
 2071Sol     OW 9031   2.313   2.290  11.877 -0.9848  0.5007  0.2250
 2071Sol     HW 9032   2.287   2.333  11.958 -2.8781  3.1924 -1.7115
 2071Sol     HW 9033   2.394   2.334  11.851  0.1458 -1.0130  1.0948
 2071Sol     MW 9034   2.318   2.298  11.882  0.0976  0.4648  0.4205
 2072Sol     OW 9035   0.977   0.974   7.003 -0.4671  0.0032  0.4529
 2072Sol     HW 9036   0.886   1.000   6.989 -0.3062  0.8466  0.9312
 2072Sol     HW 9037   0.982   0.955   7.096 -0.2674 -0.5041  0.3374
 2072Sol     MW 9038   0.969   0.975   7.010  0.9718  0.2772  0.0412
 2073Sol     OW 9039   1.011   0.348  13.890  0.0449  0.4530 -0.6057
 2073Sol     HW 9040   1.009   0.288  13.965 -0.2093  0.6592 -0.4435
 2073Sol     HW 9041   0.937   0.407  13.905  1.6497  2.2720  0.4675
 2073Sol     MW 9042   1.004   0.348  13.898 -0.2008 -0.5871  0.1992
 2074Sol     OW 9043   1.468   2.952  10.894 -0.3581 -0.6546 -0.0472
 2074Sol     HW 9044   1.481   2.857  10.903  1.2051 -0.3274  1.2315
 2074Sol     HW 9045   1.493   2.970  10.803  0.2601 -1.3199 -0.0153
 2074Sol     MW 9046   1.471   2.945  10.886 -0.0128 -0.0986  0.3925
 2075Sol     OW 9047   0.795   1.789  11.421  0.4654  0.8438 -0.4264
 2075Sol     HW 9048   0.736   1.859  11.393  0.1421 -0.8701 -4.4234
 2075Sol     HW 9049   0.741   1.734  11.478  0.2925  2.9681  1.5310
 2075Sol     MW 9050   0.785   1.790  11.424 -0.2258 -0.1521  0.9812
 2076Sol     OW 9051   0.762   1.539   6.872  0.7009 -0.5756 -0.3524
 2076Sol     HW 9052   0.785   1.512   6.960  0.1757 -1.5156 -0.4925
 2076Sol     HW 9053   0.694   1.477   6.845 -0.0998  0.5233 -0.9162
 2076Sol     MW 9054   0.758   1.531   6.877 -0.2964  0.0047 -0.0979
 2077Sol     OW 9055   1.279   2.686  11.801 -0.3523 -0.2406  0.1170
 2077Sol     HW 9056   1.312   2.614  11.748 -2.3282 -1.9689  1.1673
 2077Sol     HW 9057   1.224   2.737  11.741 -1.1213 -1.1597  0.0273
 2077Sol     MW 9058   1.277   2.684  11.791  0.5553  0.6066 -0.0275
 2078Sol     OW 9059   3.047   2.687   9.601  0.8357  0.9445 -0.9538
 2078Sol     HW 9060   3.064   2.596   9.575  0.1977  0.3320  0.6576
 2078Sol     HW 9061   2.986   2.679   9.675  3.0826  2.5499  1.1408
 2078Sol     MW 9062   3.043   2.678   9.605  0.3524  0.1901 -0.3658
 2079Sol     OW 9063   2.454   2.784  13.825 -0.3669 -0.5131 -0.2970
 2079Sol     HW 9064   2.511   2.752  13.894 -0.5475 -0.3607 -0.0773
 2079Sol     HW 9065   2.512   2.799  13.751  0.1419  1.1836  0.4239
 2079Sol     MW 9066   2.464   2.782  13.824 -0.3985  0.2380  0.0543
 2080Sol     OW 9067   1.056   2.158  12.456 -0.4816  0.1140  0.3284
 2080Sol     HW 9068   0.971   2.183  12.419 -0.7302 -0.0987  0.7544
 2080Sol     HW 9069   1.061   2.063  12.442 -0.4290  0.0858  0.5385
 2080Sol     MW 9070   1.049   2.151  12.451  0.3355 -0.3305  0.3464
 2081Sol     OW 9071   0.908   0.342   9.118 -0.1738  0.4407  0.0309
 2081Sol     HW 9072   0.868   0.429   9.120  1.3832  1.1466  1.3730
 2081Sol     HW 9073   1.002   0.359   9.122  0.2586 -1.2127 -2.3306
 2081Sol     MW 9074   0.913   0.351   9.118 -0.1010  0.5244  0.2179
 2082Sol     OW 9075   0.577   2.795  13.822  0.6186 -0.0966 -0.4169
 2082Sol     HW 9076   0.488   2.774  13.793  0.6604 -1.4263  0.3780
 2082Sol     HW 9077   0.625   2.813  13.741 -0.3743  0.6628 -0.8479
 2082Sol     MW 9078   0.573   2.795  13.812  0.2700 -0.4086  0.0432
 2083Sol     OW 9079   0.446   0.794   7.954 -0.2608 -0.2664 -0.4380
 2083Sol     HW 9080   0.470   0.713   7.909  4.4788 -0.0021  1.3100
 2083Sol     HW 9081   0.387   0.766   8.024 -1.5896 -1.6643 -2.0751
 2083Sol     MW 9082   0.443   0.784   7.956 -0.3521  0.2885 -0.6999
 2084Sol     OW 9083   0.755   0.771  12.323  0.4357 -0.1731  0.3059
 2084Sol     HW 9084   0.814   0.698  12.338  0.9459  0.3481  0.8421
 2084Sol     HW 9085   0.746   0.776  12.228  0.2904 -1.0096  0.2689
 2084Sol     MW 9086   0.759   0.765  12.316 -0.2012 -0.3038  0.0919
 2085Sol     OW 9087   2.346   1.959  10.555 -0.6613  0.1058  0.4204
 2085Sol     HW 9088   2.344   2.043  10.601 -0.0522  0.0400  0.5837
 2085Sol     HW 9089   2.322   1.895  10.621 -1.2117  0.1571  0.2722
 2085Sol     MW 9090   2.344   1.961  10.565  0.1636  0.2230 -0.5940
 2086Sol     OW 9091   3.281   0.813   8.287 -0.3429 -0.6724  0.3908
 2086Sol     HW 9092   3.197   0.823   8.242 -0.0889 -2.8475 -0.6364
 2086Sol     HW 9093   3.346   0.821   8.217  0.1692 -1.5423  0.7650
 2086Sol     MW 9094   3.279   0.815   8.276 -0.0945  0.4488 -0.0689
 2087Sol     OW 9095   2.055   2.642  11.257  0.4565  0.2448 -0.4772
 2087Sol     HW 9096   1.964   2.625  11.282  0.1498  0.2518 -1.5578
 2087Sol     HW 9097   2.090   2.698  11.327 -0.6549  1.0181 -0.5299
 2087Sol     MW 9098   2.050   2.646  11.265 -0.5067  0.1864 -0.4099
 2088Sol     OW 9099   1.233   1.373  12.849 -0.0894 -0.2828  0.1381
 2088Sol     HW 9100   1.286   1.299  12.879  0.9370  0.4605  0.2058
 2088Sol     HW 9101   1.143   1.347  12.868  0.3452 -0.9855  1.3227
 2088Sol     MW 9102   1.230   1.364  12.853  0.3495 -0.3667  0.4625
 2089Sol     OW 9103   2.823   0.040   6.306  0.4524 -0.2185  0.3831
 2089Sol     HW 9104   2.757   0.077   6.365  0.6265  0.1003  0.3836
 2089Sol     HW 9105   2.785  -0.042   6.275  0.7708 -0.8622  1.6805
 2089Sol     MW 9106   2.814   0.036   6.309  0.0807 -0.3855  0.3493
 2090Sol     OW 9107   1.340   3.367  13.434 -0.9478  0.3997 -0.3165
 2090Sol     HW 9108   1.382   3.453  13.433 -0.1401  0.0290  0.8838
 2090Sol     HW 9109   1.384   3.317  13.365  0.6662 -0.0060  0.9671
 2090Sol     MW 9110   1.347   3.370  13.428  0.0717 -0.3192 -0.0293
 2091Sol     OW 9111   0.785   2.516  12.972  0.2412 -0.0490 -0.1441
 2091Sol     HW 9112   0.879   2.509  12.957  0.2183 -0.4132 -0.1319
 2091Sol     HW 9113   0.770   2.609  12.990  0.3370  0.3138 -1.8539
 2091Sol     MW 9114   0.792   2.524  12.972  0.4338  0.5007 -0.5131
 2092Sol     OW 9115   2.642   0.382   9.433 -0.0561  0.2775 -0.0298
 2092Sol     HW 9116   2.695   0.304   9.448  0.7615  0.9327  0.5407
 2092Sol     HW 9117   2.695   0.455   9.467 -0.1040  1.2772 -2.0504
 2092Sol     MW 9118   2.651   0.382   9.438  0.2097 -0.2240 -0.3905
 2093Sol     OW 9119   3.115   2.700  13.227  0.1534 -0.4379 -0.1425
 2093Sol     HW 9120   3.059   2.776  13.211  1.7747  0.8173 -0.0025
 2093Sol     HW 9121   3.143   2.672  13.139  0.4841 -0.1490 -0.1307
 2093Sol     MW 9122   3.112   2.705  13.217  0.6963 -0.2122 -0.6035
 2094Sol     OW 9123   2.252   2.223  11.375 -0.6927  0.4879 -0.3885
 2094Sol     HW 9124   2.173   2.270  11.351 -0.6158  0.9280  0.2069
 2094Sol     HW 9125   2.301   2.285  11.429  0.9238  0.9024 -2.2821
 2094Sol     MW 9126   2.250   2.233  11.378 -0.5261 -0.2608 -0.2935
 2095Sol     OW 9127   0.723   0.583  11.851 -0.3737 -0.5875  0.5096
 2095Sol     HW 9128   0.782   0.534  11.908  1.4184  0.8986 -0.0292
 2095Sol     HW 9129   0.780   0.627  11.789 -2.1993 -0.8160 -1.3825
 2095Sol     MW 9130   0.733   0.583  11.851  0.5458 -0.5131 -0.0438
 2096Sol     OW 9131   2.311   1.826  11.920 -0.7791  1.0002 -0.4410
 2096Sol     HW 9132   2.346   1.791  12.002  0.7971  2.7578 -0.3203
 2096Sol     HW 9133   2.350   1.771  11.852 -2.0975 -0.4702 -0.0329
 2096Sol     MW 9134   2.318   1.818  11.922  0.2955 -0.4948 -0.2794
 2097Sol     OW 9135   3.310   2.244  12.529  0.3017 -0.3244  0.8918
 2097Sol     HW 9136   3.281   2.216  12.615  0.5225 -0.0111  1.0704
 2097Sol     HW 9137   3.300   2.340  12.530 -0.7683 -0.4179  0.1676
 2097Sol     MW 9138   3.307   2.250  12.537 -1.0416  0.1309  0.6123
 2098Sol     OW 9139   0.272   1.147   7.823  0.8982  0.7493  0.0830
 2098Sol     HW 9140   0.271   1.056   7.795  2.0443  1.2442 -1.6275
 2098Sol     HW 9141   0.360   1.161   7.857  1.0951  1.5092 -0.6978
 2098Sol     MW 9142   0.280   1.140   7.824 -0.4648 -0.2746  0.1857
 2099Sol     OW 9143   0.252   0.509   8.881  0.1812 -0.3966  0.6373
 2099Sol     HW 9144   0.321   0.443   8.868 -1.0245 -1.4930 -0.3383
 2099Sol     HW 9145   0.287   0.589   8.843  0.3540 -1.3125 -1.1714
 2099Sol     MW 9146   0.261   0.510   8.877 -0.2295  0.1291  0.1428
 2100Sol     OW 9147   0.381   2.530   8.451  0.1191 -0.2090 -0.4033
 2100Sol     HW 9148   0.435   2.454   8.430  1.0115  0.2342  0.2451
 2100Sol     HW 9149   0.425   2.604   8.410 -1.2358 -0.1495 -1.8037
 2100Sol     MW 9150   0.389   2.530   8.445 -0.1063  0.3316 -0.1168
 2101Sol     OW 9151   0.263   3.189  12.642 -0.2812 -0.0502  0.0838
 2101Sol     HW 9152   0.280   3.111  12.695  1.2507 -1.6872 -2.6975
 2101Sol     HW 9153   0.324   3.255  12.676 -0.4103 -0.5632  1.3470
 2101Sol     MW 9154   0.270   3.188  12.650 -0.3865  0.6549 -0.4546
 2102Sol     OW 9155   2.714   3.141   6.645  0.3493 -0.0760  0.0476
 2102Sol     HW 9156   2.703   3.235   6.657 -1.2640 -0.0765 -1.3442
 2102Sol     HW 9157   2.648   3.102   6.701 -0.2994 -0.3245 -0.8833
 2102Sol     MW 9158   2.707   3.146   6.651  0.4085  0.2720 -0.3591
 2103Sol     OW 9159   3.290   0.549  14.407  0.3022  0.1707 -0.0127
 2103Sol     HW 9160   3.309   0.600  14.328 -0.3632  3.2918  1.7747
 2103Sol     HW 9161   3.195   0.549  14.413  0.2308 -2.1411 -0.4494
 2103Sol     MW 9162   3.284   0.553  14.400  0.0397  0.4723  0.3536
 2104Sol     OW 9163   2.609   3.151  13.641  0.2509 -0.3308 -0.3827
 2104Sol     HW 9164   2.661   3.203  13.580  0.0539 -1.0834 -1.1963
 2104Sol     HW 9165   2.618   3.196  13.725 -0.4596  1.4028 -1.2174
 2104Sol     MW 9166   2.614   3.160  13.643 -0.1053 -0.2561  0.1474
 2105Sol     OW 9167   0.912   0.074   9.737 -0.0485 -0.1007  0.2040
 2105Sol     HW 9168   0.826   0.043   9.708 -0.7086 -0.1073  2.0848
 2105Sol     HW 9169   0.953  -0.002   9.777  1.1175 -0.2638 -1.2684
 2105Sol     MW 9170   0.908   0.065   9.738  0.7247  0.3861 -0.4055
 2106Sol     OW 9171   0.365   2.564   9.584  0.4331  0.5531  0.0078
 2106Sol     HW 9172   0.278   2.574   9.547  0.6491  1.3551 -0.2895
 2106Sol     HW 9173   0.405   2.493   9.534  0.0450  0.3629 -0.0276
 2106Sol     MW 9174   0.361   2.558   9.576  0.1422  0.1324 -0.0094
 2107Sol     OW 9175   0.916   1.312  11.120 -0.4874 -0.3782  0.9327
 2107Sol     HW 9176   0.908   1.328  11.026 -0.3129  2.5489  1.3764
 2107Sol     HW 9177   0.865   1.381  11.161  0.2999 -0.9922  3.0321
 2107Sol     MW 9178   0.911   1.319  11.116  0.2391  0.2291  0.1930
 2108Sol     OW 9179   0.065   1.180  10.865  0.2451  0.1542 -0.2208
 2108Sol     HW 9180   0.092   1.175  10.956  1.9740  4.1668 -0.4096
 2108Sol     HW 9181  -0.031   1.176  10.868  0.3663 -1.7761  1.5629
 2108Sol     MW 9182   0.059   1.179  10.873 -0.3643  0.0179 -0.8415
 2109Sol     OW 9183   0.065   3.345   9.241 -0.2563 -0.0417  0.0217
 2109Sol     HW 9184   0.103   3.394   9.168  1.3536  0.7544  1.3557
 2109Sol     HW 9185   0.042   3.411   9.306 -1.1562 -0.7768  0.4723
 2109Sol     MW 9186   0.066   3.355   9.241  0.0316  0.4654 -0.5029
 2110Sol     OW 9187   2.331   1.872  14.094 -0.2489 -0.0375 -0.3052
 2110Sol     HW 9188   2.273   1.923  14.151 -1.1395 -1.1633 -0.1980
 2110Sol     HW 9189   2.391   1.937  14.057 -1.1697  1.0472  0.0798
 2110Sol     MW 9190   2.331   1.883  14.095  0.3436  0.1801  0.0761
 2111Sol     OW 9191   0.228   2.463   9.145  0.2034 -0.5571  0.2587
 2111Sol     HW 9192   0.231   2.559   9.137 -0.4737 -0.3456  2.3827
 2111Sol     HW 9193   0.274   2.432   9.067 -2.3062  1.4257 -2.1150
 2111Sol     MW 9194   0.233   2.469   9.137 -0.1107 -0.8333 -0.5979
 2112Sol     OW 9195   0.898   0.662  10.981 -0.6029  0.0655  0.2358
 2112Sol     HW 9196   0.906   0.644  11.075 -1.6222  4.2694  1.2368
 2112Sol     HW 9197   0.967   0.725  10.963  0.2760 -1.5319 -2.1455
 2112Sol     MW 9198   0.905   0.666  10.988 -0.3978  0.0535 -0.0817
 2113Sol     OW 9199   2.809   2.807   9.192  0.4964  0.4902 -0.3609
 2113Sol     HW 9200   2.895   2.802   9.232  1.1153 -1.0029 -1.8335
 2113Sol     HW 9201   2.825   2.796   9.098 -1.1241  1.9228 -0.8298
 2113Sol     MW 9202   2.818   2.806   9.187 -0.1265  0.2219 -0.1700
 2114Sol     OW 9203   0.642   0.950  12.495  0.4369  0.1441 -0.0673
 2114Sol     HW 9204   0.712   0.970  12.557  0.1088 -2.5068  1.2305
 2114Sol     HW 9205   0.676   0.878  12.441  0.0136  1.1672 -1.7377
 2114Sol     MW 9206   0.651   0.945  12.496 -0.5856  0.3072  0.1659
 2115Sol     OW 9207   0.019   1.372  12.499  0.6024 -0.3014  0.0244
 2115Sol     HW 9208   0.021   1.291  12.447  0.5987  0.6946 -1.5779
 2115Sol     HW 9209  -0.010   1.439  12.437  1.5697  1.1115  1.0689
 2115Sol     MW 9210   0.016   1.371  12.489 -0.7480 -0.6841  0.0118
 2116Sol     OW 9211   0.010   2.396   6.865 -0.4042  0.2984 -0.5061
 2116Sol     HW 9212  -0.056   2.434   6.923  0.0565 -0.0817  0.2667
 2116Sol     HW 9213  -0.040   2.350   6.797 -0.9490  1.3427 -0.8188
 2116Sol     MW 9214  -0.000   2.395   6.864  0.3720  0.4036 -0.2909
 2117Sol     OW 9215   2.355   0.387  10.428 -0.4395  0.2463  0.2466
 2117Sol     HW 9216   2.282   0.449  10.417 -0.1733  0.6646  0.7982
 2117Sol     HW 9217   2.422   0.417  10.368  0.1238  1.1664  1.3158
 2117Sol     MW 9218   2.354   0.395  10.422 -0.1934 -0.3512  0.2158
 2118Sol     OW 9219   1.569   0.690   7.913 -0.5006  0.2091  0.2249
 2118Sol     HW 9220   1.539   0.779   7.894  1.8400  0.3940 -3.0398
 2118Sol     HW 9221   1.490   0.636   7.911 -1.3170  1.4617 -2.7466
 2118Sol     MW 9222   1.560   0.693   7.911 -0.6925 -0.3440  0.1002
 2119Sol     OW 9223   1.359   1.096  11.981 -0.0656 -0.1244  0.3355
 2119Sol     HW 9224   1.338   1.075  12.072 -1.4426  2.1968  0.6128
 2119Sol     HW 9225   1.354   1.192  11.977  0.9764 -0.1222 -1.9583
 2119Sol     MW 9226   1.357   1.103  11.989  0.4204  0.7673 -0.6528
 2120Sol     OW 9227   2.769   0.251   9.773 -0.0418 -0.5165  0.1561
 2120Sol     HW 9228   2.688   0.297   9.747 -0.6997 -1.3186  0.7645
 2120Sol     HW 9229   2.740   0.187   9.838  0.7105 -2.4926 -1.4103
 2120Sol     MW 9230   2.759   0.250   9.776  0.4457 -0.4671 -0.5276
 2121Sol     OW 9231   3.289   0.746  14.057 -0.3391 -0.5235 -0.1218
 2121Sol     HW 9232   3.200   0.728  14.026 -0.3612 -0.9236  0.1694
 2121Sol     HW 9233   3.325   0.659  14.077  0.7525 -0.5220 -1.9838
 2121Sol     MW 9234   3.284   0.736  14.056 -0.3826  0.5666 -0.5058
 2122Sol     OW 9235   1.830   1.907  14.077 -0.4224  0.0048  0.1196
 2122Sol     HW 9236   1.870   1.892  14.162 -1.8739 -0.3794  0.7605
 2122Sol     HW 9237   1.876   1.848  14.018  1.6039  1.3453  0.3205
 2122Sol     MW 9238   1.837   1.900  14.079  0.4497  0.8621  0.3365
 2123Sol     OW 9239   0.685   1.782  13.491 -0.4549 -0.2211 -0.3111
 2123Sol     HW 9240   0.678   1.822  13.404 -1.7700 -1.8658 -1.0011
 2123Sol     HW 9241   0.706   1.690  13.472 -1.2373 -0.6973  1.0784
 2123Sol     MW 9242   0.686   1.777  13.481  0.2231  0.1191 -0.1010
 2124Sol     OW 9243   0.789   2.447  11.258  0.6131 -0.0348  0.7649
 2124Sol     HW 9244   0.724   2.517  11.270 -0.3830 -0.9946  1.1256
 2124Sol     HW 9245   0.846   2.479  11.189 -0.8956  0.3828 -0.3239
 2124Sol     MW 9246   0.788   2.456  11.253  0.1573  0.5702  0.3152
 2125Sol     OW 9247   0.372   1.979  10.933 -0.3029  0.4804  0.0358
 2125Sol     HW 9248   0.385   2.062  10.887 -1.5740  0.7016  0.0549
 2125Sol     HW 9249   0.332   1.922  10.867 -0.4477  0.2361  0.3372
 2125Sol     MW 9250   0.369   1.982  10.923  0.1112 -0.3647  0.4969
 2126Sol     OW 9251   0.961   1.304   7.360  0.1376  0.2438 -0.3399
 2126Sol     HW 9252   0.979   1.294   7.454 -1.1981 -0.5903 -0.1581
 2126Sol     HW 9253   1.045   1.333   7.323  0.6876  0.5769  1.0995
 2126Sol     MW 9254   0.970   1.306   7.365  0.0284  0.2976 -0.5739
 2127Sol     OW 9255   2.197   1.649  14.410 -0.4828 -0.2126  0.0730
 2127Sol     HW 9256   2.208   1.691  14.496 -1.5470 -0.4018  0.3110
 2127Sol     HW 9257   2.285   1.646  14.374  0.0533 -0.5403  1.3551
 2127Sol     MW 9258   2.206   1.653  14.415  0.1028  0.7422 -1.3202
 2128Sol     OW 9259   0.454   0.050  13.457 -0.9697  0.2438  0.1006
 2128Sol     HW 9260   0.441   0.064  13.551 -1.0532 -0.7274  0.2389
 2128Sol     HW 9261   0.428   0.132  13.416  0.3825  1.1570  1.0429
 2128Sol     MW 9262   0.451   0.058  13.462 -0.0201  0.1914 -0.2274
 2129Sol     OW 9263   2.498   1.567  10.750  0.1324  0.0911 -0.2643
 2129Sol     HW 9264   2.445   1.531  10.822  2.2307 -3.3566 -0.3505
 2129Sol     HW 9265   2.445   1.553  10.672  0.1284 -1.1398 -0.0487
 2129Sol     MW 9266   2.488   1.563  10.750 -0.3959  0.1723  0.4946
 2130Sol     OW 9267   0.570   1.259  10.234  0.2378 -0.8201 -0.2036
 2130Sol     HW 9268   0.498   1.240  10.174 -0.5979 -0.6763  0.7404
 2130Sol     HW 9269   0.553   1.204  10.310 -0.5176  1.3807  1.2741
 2130Sol     MW 9270   0.562   1.252  10.235  0.9221  0.0269 -0.0174
 2131Sol     OW 9271   0.115   0.075   9.920  0.0664  0.3034 -0.4705
 2131Sol     HW 9272   0.148   0.004   9.975 -0.7970 -0.0235 -0.3639
 2131Sol     HW 9273   0.185   0.140   9.919  0.1207  0.2755  0.9509
 2131Sol     MW 9274   0.124   0.074   9.925 -0.5889  0.0073  1.1208
 2132Sol     OW 9275   1.442   3.000   8.469  0.3719  0.1014  0.0641
 2132Sol     HW 9276   1.462   2.929   8.530  0.2649  0.8888  1.0272
 2132Sol     HW 9277   1.525   3.017   8.425  0.2451 -1.0629 -0.6551
 2132Sol     MW 9278   1.452   2.995   8.471 -0.1988  0.1520 -0.2381
 2133Sol     OW 9279   2.691   0.834   8.520  0.0189  0.3939  0.2268
 2133Sol     HW 9280   2.737   0.898   8.466  0.0915  0.3395  0.2233
 2133Sol     HW 9281   2.734   0.751   8.500  2.1971  0.8439  2.7830
 2133Sol     MW 9282   2.699   0.832   8.513 -0.7208 -0.4126  0.5343
 2134Sol     OW 9283   2.746   0.579   9.668  0.4830  0.5077 -0.1824
 2134Sol     HW 9284   2.811   0.594   9.736  0.5861 -0.4511 -0.0609
 2134Sol     HW 9285   2.666   0.620   9.702  0.5904  0.2160  0.4220
 2134Sol     MW 9286   2.744   0.584   9.677  0.0358  0.1442 -0.1730
 2135Sol     OW 9287   2.406   2.231  13.458  0.0829  0.3708 -0.1253
 2135Sol     HW 9288   2.469   2.160  13.472  0.3390  0.3938 -1.1352
 2135Sol     HW 9289   2.429   2.267  13.372 -1.9100 -0.2455 -0.9409
 2135Sol     MW 9290   2.414   2.228  13.452 -0.0910  0.0953  0.3053
 2136Sol     OW 9291   0.495   2.298  12.410  0.4862 -0.1410 -0.6069
 2136Sol     HW 9292   0.449   2.214  12.406  0.8935 -0.3863 -0.1650
 2136Sol     HW 9293   0.588   2.275  12.404  0.6200  0.2478 -0.0423
 2136Sol     MW 9294   0.499   2.288  12.409 -0.2088 -0.1457  0.5135
 2137Sol     OW 9295   2.686   2.702   8.697  0.3203  0.1732  0.1127
 2137Sol     HW 9296   2.770   2.657   8.686  0.8199  0.9282  0.7704
 2137Sol     HW 9297   2.633   2.642   8.751  1.1566  0.5795  1.4081
 2137Sol     MW 9298   2.689   2.692   8.701 -0.1798 -0.2929  0.3156
 2138Sol     OW 9299   2.245   3.461   9.404 -0.0883  0.2288 -0.0708
 2138Sol     HW 9300   2.208   3.545   9.377 -0.3867 -0.0392 -0.5069
 2138Sol     HW 9301   2.337   3.465   9.378 -0.5401 -0.3007 -1.7628
 2138Sol     MW 9302   2.250   3.469   9.399 -0.4346 -0.2982  0.0360
 2139Sol     OW 9303   1.604   2.599  12.119 -0.4779  0.4120  0.1309
 2139Sol     HW 9304   1.583   2.676  12.067 -3.5803 -0.6139 -0.2406
 2139Sol     HW 9305   1.542   2.602  12.192 -0.1597 -1.3373  0.4912
 2139Sol     MW 9306   1.596   2.606  12.121 -0.4351 -0.5433 -0.0760
 2140Sol     OW 9307   0.228   1.243   6.535  0.2927  0.2197 -0.4856
 2140Sol     HW 9308   0.245   1.229   6.442  1.1214  0.4823 -0.3816
 2140Sol     HW 9309   0.242   1.337   6.548  1.5851 -0.0515  0.1786
 2140Sol     MW 9310   0.231   1.250   6.528  0.1822  0.6356  0.0372
 2141Sol     OW 9311   2.870   0.480   6.534  0.3661 -0.1210 -0.0678
 2141Sol     HW 9312   2.861   0.489   6.439  0.4188 -0.3532 -0.0940
 2141Sol     HW 9313   2.862   0.570   6.567 -1.7061 -0.2446 -0.1208
 2141Sol     MW 9314   2.868   0.489   6.528 -0.7894 -0.5409 -0.0515
 2142Sol     OW 9315   2.739   0.151   6.978  0.2321 -0.2199 -0.2615
 2142Sol     HW 9316   2.814   0.202   7.008  0.5110  0.4227 -2.0075
 2142Sol     HW 9317   2.711   0.102   7.056  1.9153  0.1752  0.6228
 2142Sol     MW 9318   2.743   0.151   6.988  0.1415 -0.0544  0.3210
 2143Sol     OW 9319   1.473   3.284   8.132 -0.4303  0.1849  0.5067
 2143Sol     HW 9320   1.480   3.188   8.128  0.4251  0.3335 -4.5382
 2143Sol     HW 9321   1.388   3.303   8.092  0.1792  1.6031 -0.1339
 2143Sol     MW 9322   1.466   3.277   8.128  0.3223 -0.0523  0.5152
 2144Sol     OW 9323   1.545   3.308  11.077  1.0425 -0.5365  0.7911
 2144Sol     HW 9324   1.484   3.235  11.089  0.5293 -0.0266  1.3396
 2144Sol     HW 9325   1.605   3.301  11.152  3.3373 -2.6329 -1.1682
 2144Sol     MW 9326   1.545   3.300  11.085  0.4830  0.0680 -0.1080
 2145Sol     OW 9327   0.668   3.320  12.605  0.0114  0.4164  0.2152
 2145Sol     HW 9328   0.618   3.264  12.545  0.2275  0.2860  0.1561
 2145Sol     HW 9329   0.603   3.353  12.667  0.2455 -1.8660  1.7676
 2145Sol     MW 9330   0.658   3.318  12.605  0.6156  0.8678  0.4253
 2146Sol     OW 9331   3.311   2.861  11.283  0.9125 -0.3135 -0.1834
 2146Sol     HW 9332   3.218   2.865  11.302  0.6554  0.8284 -1.5924
 2146Sol     HW 9333   3.333   2.768  11.285 -0.3712 -0.6243 -0.3959
 2146Sol     MW 9334   3.305   2.853  11.285  0.2345 -0.4177  0.3263
 2147Sol     OW 9335   2.654   0.481  13.222  0.1055  0.5428 -0.3230
 2147Sol     HW 9336   2.625   0.475  13.313  1.3715  0.1608  0.0715
 2147Sol     HW 9337   2.575   0.502  13.173 -1.2622 -2.4739  0.4522
 2147Sol     MW 9338   2.644   0.482  13.226  0.0715 -0.2297 -0.3578
 2148Sol     OW 9339   0.901   0.338   9.448 -0.0526  0.5134 -0.3279
 2148Sol     HW 9340   0.962   0.380   9.508 -1.0040 -0.4661  1.3363
 2148Sol     HW 9341   0.954   0.275   9.399  0.1655 -0.7987  1.5630
 2148Sol     MW 9342   0.911   0.336   9.449  0.2263  0.4545  0.1901
 2149Sol     OW 9343   0.376   0.874  12.632  0.2932 -0.1889  0.5060
 2149Sol     HW 9344   0.459   0.876  12.584  0.7478 -0.5434  1.2753
 2149Sol     HW 9345   0.384   0.798  12.690 -1.2645 -1.2509 -0.6525
 2149Sol     MW 9346   0.385   0.867  12.633 -0.6263 -0.1073 -0.0668
 2150Sol     OW 9347   2.948   0.411  11.133 -0.5640  0.9073  0.2256
 2150Sol     HW 9348   2.914   0.464  11.060 -0.4692  1.7299  0.7750
 2150Sol     HW 9349   3.041   0.432  11.137 -0.7033  1.3956  1.0248
 2150Sol     MW 9350   2.953   0.418  11.127 -0.1707 -0.1241 -0.1497
 2151Sol     OW 9351   1.533   1.240  10.178 -0.4124 -0.2040 -0.7601
 2151Sol     HW 9352   1.534   1.162  10.234 -0.9840  0.1223 -0.2949
 2151Sol     HW 9353   1.600   1.297  10.216 -2.3922  1.0239  1.0549
 2151Sol     MW 9354   1.539   1.238  10.187 -0.2607  0.2597 -0.6478
 2152Sol     OW 9355   0.235   0.126   9.221 -0.1117 -0.0324 -0.7242
 2152Sol     HW 9356   0.281   0.210   9.223 -0.8282  0.3740 -1.0578
 2152Sol     HW 9357   0.178   0.132   9.145  0.3804 -1.1231 -1.1938
 2152Sol     MW 9358   0.234   0.134   9.214 -0.0526 -0.6158  0.5366
 2153Sol     OW 9359   1.904   2.192   8.361  0.2267 -0.2806 -0.0877
 2153Sol     HW 9360   1.892   2.185   8.266 -1.0962 -1.7346  0.1607
 2153Sol     HW 9361   1.942   2.108   8.386  0.1851 -0.0576  0.7222
 2153Sol     MW 9362   1.907   2.184   8.355 -0.2563 -0.4463  0.6115
 2154Sol     OW 9363   3.313   2.994   9.486  0.0780 -0.1764  0.2433
 2154Sol     HW 9364   3.352   3.051   9.552  0.3865  1.0686 -0.9994
 2154Sol     HW 9365   3.315   2.907   9.526  0.9274  0.4360  1.5792
 2154Sol     MW 9366   3.316   2.991   9.496 -0.0990  0.6661  0.6183
 2155Sol     OW 9367   2.341   2.312  13.209  0.1599  0.0850 -0.2602
 2155Sol     HW 9368   2.322   2.394  13.163 -0.7123 -0.2347 -0.4913
 2155Sol     HW 9369   2.255   2.271  13.221  0.4390 -0.0930  1.1794
 2155Sol     MW 9370   2.332   2.316  13.206  0.2775  0.5604 -0.2917
 2156Sol     OW 9371   1.586   0.272  13.762  0.5723  0.3428 -0.0472
 2156Sol     HW 9372   1.602   0.204  13.697 -1.1169  0.2733 -0.4107
 2156Sol     HW 9373   1.509   0.241  13.810 -0.7044  2.3603 -0.7332
 2156Sol     MW 9374   1.580   0.263  13.761 -0.2268 -0.4049  0.9022
 2157Sol     OW 9375   3.283   2.799   8.904 -0.5544 -0.3349  0.0181
 2157Sol     HW 9376   3.369   2.786   8.863 -0.0285 -0.7934  1.2402
 2157Sol     HW 9377   3.222   2.804   8.831  0.5659  0.3859 -0.8808
 2157Sol     MW 9378   3.285   2.798   8.894 -1.0932 -0.4416 -0.5170
 2158Sol     OW 9379   2.909   2.047  14.356 -0.3343 -0.4647  0.1301
 2158Sol     HW 9380   2.941   1.959  14.373  1.9664  0.2359 -0.4898
 2158Sol     HW 9381   2.902   2.052  14.260  2.0202  0.8432 -0.0071
 2158Sol     MW 9382   2.911   2.040  14.349 -0.4561 -0.2407 -0.2640
 2159Sol     OW 9383   2.312   2.113   6.383  0.5104 -0.9151  0.9585
 2159Sol     HW 9384   2.240   2.141   6.326  1.9550 -0.0762 -0.4944
 2159Sol     HW 9385   2.314   2.177   6.454  0.8959  0.0390  0.0921
 2159Sol     MW 9386   2.306   2.121   6.384  0.3436  0.1279 -0.1106
 2160Sol     OW 9387   2.153   2.760  11.510  0.0243  0.5601  0.4069
 2160Sol     HW 9388   2.235   2.810  11.514  0.9187 -0.9660  1.4948
 2160Sol     HW 9389   2.174   2.675  11.548 -1.7687 -0.2837 -0.4002
 2160Sol     MW 9390   2.162   2.757  11.514  0.3836  0.1051 -0.4306
 2161Sol     OW 9391   2.122   2.166  13.071  0.4617  0.2399 -0.0359
 2161Sol     HW 9392   2.044   2.143  13.022 -0.4940  2.5330  0.3598
 2161Sol     HW 9393   2.182   2.201  13.005  0.3434  0.4834 -0.0131
 2161Sol     MW 9394   2.121   2.167  13.061  0.0934 -0.5671  0.4950
 2162Sol     OW 9395   2.734   1.768  11.062  0.1734  0.9788 -0.2429
 2162Sol     HW 9396   2.732   1.672  11.071  1.1440  0.9277 -0.4791
 2162Sol     HW 9397   2.737   1.800  11.152 -0.1095  0.7870 -0.1632
 2162Sol     MW 9398   2.734   1.762  11.071 -0.4348  0.1287  0.0512
 2163Sol     OW 9399   2.353   1.962   7.982  0.0932  0.1949  0.2005
 2163Sol     HW 9400   2.445   1.985   7.973 -0.5087  2.6816  0.0868
 2163Sol     HW 9401   2.350   1.867   7.968  2.5834  0.1373 -0.0520
 2163Sol     MW 9402   2.361   1.956   7.980 -0.0598  0.0071 -0.4166
 2164Sol     OW 9403   2.532   2.219   9.287  0.1527 -0.0461 -0.1191
 2164Sol     HW 9404   2.516   2.309   9.317  0.1029 -0.0388 -0.1667
 2164Sol     HW 9405   2.471   2.166   9.337  0.6934 -0.1423  0.4411
 2164Sol     MW 9406   2.525   2.222   9.294  0.4610 -0.2757 -0.0738
 2165Sol     OW 9407   3.298   0.993   8.484  0.2830  0.0770  0.5175
 2165Sol     HW 9408   3.287   1.074   8.434 -4.3515 -1.3532 -1.0400
 2165Sol     HW 9409   3.315   0.926   8.419 -0.8873 -0.9966  1.2990
 2165Sol     MW 9410   3.298   0.995   8.474  0.1702  0.1981 -0.1758
 2166Sol     OW 9411   2.683   1.654  10.092 -0.2108  0.0688 -0.2254
 2166Sol     HW 9412   2.739   1.731  10.082  0.0771  0.3429  2.9377
 2166Sol     HW 9413   2.594   1.689  10.090 -0.0949  0.4351  0.6464
 2166Sol     MW 9414   2.680   1.664  10.091  0.0253  0.1055  0.3713
 2167Sol     OW 9415   2.063   1.395   7.434 -0.1482 -0.2596  0.1065
 2167Sol     HW 9416   2.117   1.474   7.428 -1.1421  0.4951  0.9508
 2167Sol     HW 9417   2.115   1.328   7.391  1.2428  0.5704  0.4462
 2167Sol     MW 9418   2.073   1.396   7.429 -0.4214  0.2500 -0.6378
 2168Sol     OW 9419   0.383   3.366   6.789 -0.4760 -0.2807  1.0145
 2168Sol     HW 9420   0.464   3.379   6.839 -0.3494  0.5954  0.6044
 2168Sol     HW 9421   0.397   3.417   6.709 -0.5293 -1.9754 -0.0795
 2168Sol     MW 9422   0.392   3.372   6.787 -0.1641 -0.5791  0.2437
 2169Sol     OW 9423   3.166   1.463   7.487  0.1789  0.3123 -1.0955
 2169Sol     HW 9424   3.132   1.471   7.576 -3.4410 -4.2215 -1.9203
 2169Sol     HW 9425   3.106   1.515   7.433  0.0250 -0.1620 -1.3834
 2169Sol     MW 9426   3.158   1.469   7.490  0.1604 -0.4650  0.0399
 2170Sol     OW 9427   2.118   2.456  11.492 -0.0459 -0.3751  0.1510
 2170Sol     HW 9428   2.062   2.424  11.422 -0.2263 -0.7925  0.4837
 2170Sol     HW 9429   2.058   2.504  11.550  0.0302 -0.3830  0.2355
 2170Sol     MW 9430   2.108   2.458  11.491 -0.0639 -0.2239  0.7662
 2171Sol     OW 9431   2.469   1.787  10.380 -0.0166 -0.1430  0.2216
 2171Sol     HW 9432   2.450   1.867  10.430 -0.4683 -0.0888 -0.0336
 2171Sol     HW 9433   2.390   1.772  10.328  0.7852  0.2792 -1.1255
 2171Sol     MW 9434   2.460   1.793  10.380 -0.3097 -0.3795  0.1034
 2172Sol     OW 9435   0.814   2.190   7.681  0.1647 -0.4387 -0.5113
 2172Sol     HW 9436   0.839   2.162   7.593 -0.2248 -0.1317 -0.7176
 2172Sol     HW 9437   0.858   2.127   7.739 -1.3719 -1.9900 -1.0104
 2172Sol     MW 9438   0.820   2.181   7.678  0.9641 -0.3517  0.1519
 2173Sol     OW 9439   2.514   2.824   8.038  0.1964  0.1862 -0.1096
 2173Sol     HW 9440   2.489   2.738   8.005  0.8004  0.4776 -1.3193
 2173Sol     HW 9441   2.435   2.856   8.083 -0.6279 -0.2054 -1.2506
 2173Sol     MW 9442   2.505   2.819   8.039  0.0066 -0.1841  0.7572
 2174Sol     OW 9443   2.316   1.806  12.891  0.1700  0.4099  0.1920
 2174Sol     HW 9444   2.396   1.849  12.858  0.9875 -0.7789  0.6019
 2174Sol     HW 9445   2.248   1.832  12.829  0.8066  1.6921  0.0103
 2174Sol     MW 9446   2.317   1.812  12.882 -0.1512  0.0691 -0.6732
 2175Sol     OW 9447   1.537   0.669  10.605  0.4620 -0.2341 -0.1945
 2175Sol     HW 9448   1.458   0.666  10.551  1.3091  2.2665 -1.6836
 2175Sol     HW 9449   1.590   0.596  10.575 -0.2722 -0.5039 -0.8328
 2175Sol     MW 9450   1.535   0.662  10.598  0.0207 -0.3687 -0.3683
 2176Sol     OW 9451   3.232   0.793   9.231  0.0158 -0.1180 -0.2229
 2176Sol     HW 9452   3.139   0.774   9.245 -0.3251  0.7564 -1.2361
 2176Sol     HW 9453   3.276   0.756   9.307 -1.1381 -0.7731  0.1373
 2176Sol     MW 9454   3.228   0.788   9.239 -0.6942 -0.0165 -0.2710
 2177Sol     OW 9455   1.141   0.536   8.325  0.0912 -0.3292  0.3343
 2177Sol     HW 9456   1.180   0.573   8.246  0.4053  0.6836  0.9542
 2177Sol     HW 9457   1.059   0.497   8.296  0.8337 -1.1403 -0.7212
 2177Sol     MW 9458   1.137   0.536   8.315  0.0772  0.3239  0.1798
 2178Sol     OW 9459   2.864   0.169  11.839 -0.1313 -0.2013 -0.5331
 2178Sol     HW 9460   2.891   0.083  11.806 -2.8827 -0.8171 -1.3473
 2178Sol     HW 9461   2.841   0.152  11.930 -2.0506 -0.6876 -1.0805
 2178Sol     MW 9462   2.864   0.160  11.844  0.2673  0.8906 -0.2646
 2179Sol     OW 9463   0.824   0.915   8.587  0.1682  0.1258  0.1620
 2179Sol     HW 9464   0.889   0.979   8.557 -0.6602  0.0467 -1.8445
 2179Sol     HW 9465   0.853   0.892   8.676  1.6584  1.6986  0.1107
 2179Sol     MW 9466   0.833   0.918   8.593  0.0596  0.4370  0.1251
 2180Sol     OW 9467   1.070   3.058  13.097 -0.5595 -0.0945 -0.2448
 2180Sol     HW 9468   1.102   2.997  13.163 -2.5962 -0.7984  0.1259
 2180Sol     HW 9469   1.104   3.143  13.125  0.5148 -0.7242  0.4137
 2180Sol     MW 9470   1.076   3.060  13.105 -0.8445  0.1360 -0.3501
 2181Sol     OW 9471   1.852   0.291   6.052  0.2114 -0.0715  0.2763
 2181Sol     HW 9472   1.927   0.346   6.076  0.0643  0.2073  0.0972
 2181Sol     HW 9473   1.891   0.216   6.008  0.3988 -0.0014  0.3229
 2181Sol     MW 9474   1.862   0.290   6.051  0.4975  0.1472  0.1408
 2182Sol     OW 9475   2.707   2.253   9.791 -0.4264  0.1277  0.3289
 2182Sol     HW 9476   2.635   2.316   9.791 -1.1803 -0.7115  0.6515
 2182Sol     HW 9477   2.771   2.288   9.729 -0.3960  1.6962  1.2283
 2182Sol     MW 9478   2.706   2.262   9.786  0.4285  0.3466  0.0105
 2183Sol     OW 9479   0.369   3.090  14.360 -0.0633  0.4803 -0.3700
 2183Sol     HW 9480   0.390   3.034  14.286 -0.3313  1.2514 -1.0410
 2183Sol     HW 9481   0.327   3.032  14.423  2.1546 -0.6506  0.1201
 2183Sol     MW 9482   0.367   3.080  14.359 -0.0117  0.2487  0.7471
 2184Sol     OW 9483   2.337   0.776  10.756 -0.3508  0.3682  0.4285
 2184Sol     HW 9484   2.376   0.861  10.732 -3.0887  2.0755  1.6928
 2184Sol     HW 9485   2.262   0.768  10.697 -1.2730 -0.1946  1.6670
 2184Sol     MW 9486   2.334   0.783  10.748  0.7041 -0.0223 -0.6474
 2185Sol     OW 9487   1.990   2.197  11.048  0.2816 -0.3153  0.1746
 2185Sol     HW 9488   1.933   2.121  11.039  0.9369 -0.6371 -1.4253
 2185Sol     HW 9489   2.079   2.161  11.047  0.5823  0.4336 -0.1601
 2185Sol     MW 9490   1.993   2.187  11.047 -0.2887  0.0173 -0.2773
 2186Sol     OW 9491   2.198   0.545  13.163  0.1954  0.2064  0.1927
 2186Sol     HW 9492   2.169   0.618  13.108  2.7484  1.0845 -0.0789
 2186Sol     HW 9493   2.153   0.468  13.127 -0.7148  1.2768 -1.0123
 2186Sol     MW 9494   2.191   0.545  13.155  0.3191  0.7721  0.3256
 2187Sol     OW 9495   2.860   1.988   6.383  0.2391 -0.1205 -0.1125
 2187Sol     HW 9496   2.847   1.898   6.352 -0.5164 -0.0371 -0.0614
 2187Sol     HW 9497   2.771   2.021   6.398  0.4490  1.0895 -1.4130
 2187Sol     MW 9498   2.851   1.983   6.382 -0.4411  0.8808 -0.3303
 2188Sol     OW 9499   1.548   1.938  13.671  0.0163 -0.3368  0.3915
 2188Sol     HW 9500   1.559   1.895  13.755  0.4340 -0.1078  0.4555
 2188Sol     HW 9501   1.630   1.985  13.657 -0.1970 -0.0645  0.0347
 2188Sol     MW 9502   1.556   1.939  13.677 -0.3249  0.9421  0.2845
 2189Sol     OW 9503   1.653   2.176   8.970  0.2205  0.0899  0.1730
 2189Sol     HW 9504   1.699   2.256   8.997  0.8568 -0.4713  0.7737
 2189Sol     HW 9505   1.608   2.201   8.890 -1.0318  1.5625  1.2934
 2189Sol     MW 9506   1.653   2.186   8.965  0.0534  0.2053  0.1057
 2190Sol     OW 9507   0.675   2.114  12.663 -0.2457 -0.2651 -0.8159
 2190Sol     HW 9508   0.637   2.202  12.671  1.5875  0.5253 -0.5085
 2190Sol     HW 9509   0.752   2.116  12.720 -0.3774 -2.1919 -0.5472
 2190Sol     MW 9510   0.679   2.122  12.669 -0.1597 -0.3091 -0.8018
 2191Sol     OW 9511   2.532   0.413  10.180 -0.5120 -0.1523  0.0643
 2191Sol     HW 9512   2.619   0.408  10.142 -0.7315  0.3127 -0.5046
 2191Sol     HW 9513   2.502   0.502  10.162 -1.3093 -0.4667 -0.2207
 2191Sol     MW 9514   2.537   0.420  10.175  0.0950 -0.4392  0.3201
 2192Sol     OW 9515   2.431   0.542   7.552 -0.3339  0.2695  0.0667
 2192Sol     HW 9516   2.404   0.485   7.623  1.7445 -1.2923 -0.3692
 2192Sol     HW 9517   2.458   0.623   7.595 -2.5612  0.7091  0.7387
 2192Sol     MW 9518   2.431   0.544   7.562  0.1656 -0.4309  0.0598
 2193Sol     OW 9519   2.375   1.705   7.854  0.5961  0.1673  0.3356
 2193Sol     HW 9520   2.387   1.743   7.767 -3.4166 -1.9492 -1.2583
 2193Sol     HW 9521   2.428   1.626   7.853 -1.0871 -0.9820 -1.0200
 2193Sol     MW 9522   2.380   1.701   7.846  0.3231 -0.3119  0.2001
 2194Sol     OW 9523   0.667   3.266  10.720 -0.1107  0.2159  0.3653
 2194Sol     HW 9524   0.643   3.319  10.644  0.0015 -0.9523 -0.5027
 2194Sol     HW 9525   0.712   3.327  10.779 -0.4754  1.2029 -0.3603
 2194Sol     MW 9526   0.669   3.276  10.718  0.0420  0.0526 -0.2260
 2195Sol     OW 9527   0.513   2.703   9.050 -0.2437  0.4648 -0.2483
 2195Sol     HW 9528   0.418   2.714   9.058 -0.2648 -0.3339  0.7748
 2195Sol     HW 9529   0.523   2.637   8.982 -0.5534 -1.4651  1.5125
 2195Sol     MW 9530   0.505   2.698   9.045  0.1361  0.2970  0.0467
 2196Sol     OW 9531   0.180   2.279  12.915 -0.7360 -0.1190  0.5376
 2196Sol     HW 9532   0.245   2.279  12.986  0.4054 -0.9901 -0.4785
 2196Sol     HW 9533   0.217   2.219  12.850 -2.1065  0.1405 -0.4840
 2196Sol     MW 9534   0.189   2.274  12.915  0.4772  0.4770 -0.1403
 2197Sol     OW 9535   1.805   1.477   6.602 -0.5675  0.5711  0.1692
 2197Sol     HW 9536   1.885   1.506   6.648  1.2578 -2.8264 -0.7074
 2197Sol     HW 9537   1.749   1.442   6.672  1.2192 -2.4298  0.1606
 2197Sol     MW 9538   1.807   1.477   6.613 -0.1629 -1.1407 -0.5801
 2198Sol     OW 9539   2.151   0.371  11.648  0.3513  0.1652 -0.0260
 2198Sol     HW 9540   2.130   0.441  11.710  1.6709  0.9102 -0.3936
 2198Sol     HW 9541   2.186   0.300  11.702 -1.9652 -0.6313  0.4610
 2198Sol     MW 9542   2.152   0.371  11.658  0.1270  0.4621 -0.3354
 2199Sol     OW 9543   2.651   2.335  11.344 -0.2246 -0.1125 -0.3816
 2199Sol     HW 9544   2.627   2.256  11.295  2.6387 -0.7238 -0.8947
 2199Sol     HW 9545   2.708   2.384  11.284  0.0031  1.1393  0.8306
 2199Sol     MW 9546   2.654   2.332  11.334 -0.2276 -0.0886  0.4066
 2200Sol     OW 9547   2.091   1.380  13.886  0.3054  0.3779  0.5193
 2200Sol     HW 9548   2.074   1.317  13.955 -0.7856  1.6847  1.4658
 2200Sol     HW 9549   2.107   1.327  13.808 -0.2919 -1.0643  1.3663
 2200Sol     MW 9550   2.091   1.370  13.885 -0.1727  0.6286 -0.2930
 2201Sol     OW 9551   0.073   1.646  11.663  0.3333 -0.4197  0.2370
 2201Sol     HW 9552   0.135   1.659  11.591  0.9484 -0.2918  0.7857
 2201Sol     HW 9553   0.031   1.731  11.674 -0.8233 -0.8232 -0.9419
 2201Sol     MW 9554   0.075   1.655  11.657 -0.0302  0.1264  0.8997
 2202Sol     OW 9555   2.128   1.344   8.207 -0.2020  0.3330  0.5154
 2202Sol     HW 9556   2.055   1.388   8.164  0.9677 -0.8157 -2.7294
 2202Sol     HW 9557   2.115   1.363   8.300 -4.0121  1.0618 -0.0784
 2202Sol     MW 9558   2.120   1.349   8.212 -0.7189 -0.2010  0.0335
 2203Sol     OW 9559   1.909   0.852  13.079 -0.6519 -0.3010 -0.2998
 2203Sol     HW 9560   1.821   0.880  13.054 -0.8995 -1.8412 -1.2059
 2203Sol     HW 9561   1.896   0.791  13.151 -0.2487  0.2660  0.2624
 2203Sol     MW 9562   1.900   0.849  13.083  0.4838  0.6764  0.0399
 2204Sol     OW 9563   1.470   1.536   8.025  0.3946  0.0199 -0.4143
 2204Sol     HW 9564   1.478   1.620   7.980  0.7792 -0.7846 -1.8783
 2204Sol     HW 9565   1.404   1.551   8.092 -0.3897  1.1671 -1.4302
 2204Sol     MW 9566   1.465   1.545   8.027  0.3348 -0.3891  0.4214
 2205Sol     OW 9567   1.487   0.044   6.203  0.5242  0.3278  0.0831
 2205Sol     HW 9568   1.480   0.002   6.289 -1.2206  1.8146  0.6817
 2205Sol     HW 9569   1.400   0.036   6.164  1.1724  0.0803 -1.3811
 2205Sol     MW 9570   1.479   0.039   6.207  0.5726 -0.0051 -0.5939
 2206Sol     OW 9571   1.919   2.162   9.961  0.8920  0.2703  0.0727
 2206Sol     HW 9572   1.910   2.179  10.055 -0.0892  1.8125 -0.2654
 2206Sol     HW 9573   1.954   2.244   9.925 -0.3338  0.2973 -1.1236
 2206Sol     MW 9574   1.921   2.171   9.966 -0.0909  0.0601  0.0673
 2207Sol     OW 9575   0.995   0.336   7.332 -0.5979 -0.5317  0.3595
 2207Sol     HW 9576   1.012   0.245   7.358  0.7818 -0.2280  0.6015
 2207Sol     HW 9577   1.020   0.339   7.239 -0.6325 -0.4043  0.3546
 2207Sol     MW 9578   0.999   0.328   7.326 -0.3373  0.1115  0.3036
 2208Sol     OW 9579   0.743   2.701   9.874  0.3316  0.1351  1.0837
 2208Sol     HW 9580   0.652   2.671   9.866  1.0370 -1.7098 -0.4344
 2208Sol     HW 9581   0.794   2.620   9.883  1.9295  1.0903  0.7661
 2208Sol     MW 9582   0.740   2.691   9.874 -0.2546 -0.2385 -0.0362
 2209Sol     OW 9583   0.925   1.857  11.788 -0.4554 -0.0363  0.4639
 2209Sol     HW 9584   0.832   1.847  11.769  0.4630 -2.3141 -3.3121
 2209Sol     HW 9585   0.949   1.941  11.748 -0.5591 -0.1705  0.1212
 2209Sol     MW 9586   0.919   1.864  11.783  0.0515  0.2267 -0.2989
 2210Sol     OW 9587   0.523   2.845  12.081  0.5123  0.1248  0.2656
 2210Sol     HW 9588   0.555   2.931  12.053 -0.6113  0.8079  1.0847
 2210Sol     HW 9589   0.601   2.789  12.079  1.6782  1.6612  1.7519
 2210Sol     MW 9590   0.533   2.848  12.078  0.1973  0.7009  0.0844
 2211Sol     OW 9591   1.978   0.089  11.124 -0.1575 -0.0684  0.2039
 2211Sol     HW 9592   1.932   0.133  11.196 -1.2961  1.3135 -1.3343
 2211Sol     HW 9593   1.944   0.131  11.045  0.1148 -2.4586 -1.2234
 2211Sol     MW 9594   1.971   0.097  11.123  0.5361 -0.5368 -0.5891
 2212Sol     OW 9595   3.190   2.235  13.327  0.1372  0.6477  0.5928
 2212Sol     HW 9596   3.139   2.155  13.335  0.7020  0.2532  0.2944
 2212Sol     HW 9597   3.167   2.286  13.405 -0.7774  0.5195  0.4122
 2212Sol     MW 9598   3.183   2.232  13.335 -0.5904 -0.2128  0.7174
 2213Sol     OW 9599   2.664   1.839   7.578  0.0793 -0.0464  0.6578
 2213Sol     HW 9600   2.587   1.787   7.558  1.4371 -1.3720 -1.3445
 2213Sol     HW 9601   2.644   1.926   7.546 -0.6005 -0.3812  0.1733
 2213Sol     MW 9602   2.656   1.842   7.574  0.4674  0.1140  0.1448
 2214Sol     OW 9603   0.668   2.195   8.975  0.9077 -0.6011  0.4039
 2214Sol     HW 9604   0.606   2.168   8.907  0.7332 -0.5100  0.5256
 2214Sol     HW 9605   0.754   2.169   8.941  0.7196 -1.5498  0.6341
 2214Sol     MW 9606   0.670   2.190   8.966  0.3594  0.9051  1.0050
 2215Sol     OW 9607   0.838   1.448   7.125  0.0891 -0.0255 -0.1910
 2215Sol     HW 9608   0.826   1.536   7.161 -1.1216 -0.0385 -0.5472
 2215Sol     HW 9609   0.868   1.395   7.199  0.0128  0.5033  0.2142
 2215Sol     MW 9610   0.839   1.451   7.135  0.0764  0.2561  0.0117
 2216Sol     OW 9611   3.078   0.177  11.027  0.0691  0.1041 -0.1386
 2216Sol     HW 9612   3.046   0.107  10.970 -0.1941 -0.3435  0.5423
 2216Sol     HW 9613   3.001   0.231  11.043  0.0331 -0.0256  0.1433
 2216Sol     MW 9614   3.068   0.175  11.023 -0.1509 -0.0036 -0.4335
 2217Sol     OW 9615   1.961   1.673  12.703 -0.2925  0.5871  0.0949
 2217Sol     HW 9616   2.034   1.623  12.666 -1.0506 -0.7863  0.3925
 2217Sol     HW 9617   1.941   1.629  12.786 -2.0784  0.3117 -0.4481
 2217Sol     MW 9618   1.966   1.664  12.707 -0.0249  0.5009 -0.0302
 2218Sol     OW 9619   0.004   1.552  13.155  0.1871 -0.4450 -0.0435
 2218Sol     HW 9620   0.023   1.459  13.143 -0.6442 -0.5282 -0.8225
 2218Sol     HW 9621  -0.084   1.563  13.118  0.7165  0.8637 -0.9648
 2218Sol     MW 9622  -0.002   1.545  13.150 -0.0349 -0.6919  0.1623
 2219Sol     OW 9623   1.796   1.373   9.397  0.3949 -0.5451 -0.1192
 2219Sol     HW 9624   1.814   1.458   9.437 -1.9998  0.5627 -1.3109
 2219Sol     HW 9625   1.755   1.322   9.467  1.5922 -0.6550  0.5184
 2219Sol     MW 9626   1.794   1.376   9.407 -0.4667 -0.0272 -0.5097
 2220Sol     OW 9627   1.812   0.502  11.944  0.2492 -0.2286  0.2945
 2220Sol     HW 9628   1.801   0.407  11.937 -0.5758 -0.1344  0.2786
 2220Sol     HW 9629   1.738   0.538  11.896  0.2894  0.4218  0.7207
 2220Sol     MW 9630   1.804   0.496  11.939  0.0823 -0.6550  0.3003
 2221Sol     OW 9631   1.924   0.915   7.160  0.2257 -0.3764  0.3017
 2221Sol     HW 9632   1.829   0.910   7.173 -0.0742 -1.8014 -2.1009
 2221Sol     HW 9633   1.957   0.829   7.188  0.7789  0.0689  1.0133
 2221Sol     MW 9634   1.918   0.906   7.163  0.4719 -0.1717  0.4163
 2222Sol     OW 9635   0.369   0.652   8.270  0.8093  0.1642  0.1530
 2222Sol     HW 9636   0.364   0.744   8.297  0.0340  0.1965 -0.0766
 2222Sol     HW 9637   0.463   0.633   8.265  0.9679  0.8006  0.6807
 2222Sol     MW 9638   0.377   0.659   8.272 -0.0433  0.1200  0.4070
 2223Sol     OW 9639   2.258   0.905  12.236 -0.5241  0.8525 -0.2524
 2223Sol     HW 9640   2.230   0.818  12.265 -3.8250  1.9246 -0.1435
 2223Sol     HW 9641   2.286   0.892  12.145  0.6420 -0.6040  0.2783
 2223Sol     MW 9642   2.258   0.896  12.230  0.0519  0.2515  0.1683
 2224Sol     OW 9643   1.956   3.157   6.510 -0.0930 -0.9200  0.1410
 2224Sol     HW 9644   1.962   3.067   6.477 -0.6218 -1.0912  0.5032
 2224Sol     HW 9645   2.047   3.183   6.525  0.1487 -0.9193 -1.2095
 2224Sol     MW 9646   1.965   3.151   6.508  0.1838  0.2565  0.2457
 2225Sol     OW 9647   2.360   2.361  10.331 -0.0284  0.1501  0.2258
 2225Sol     HW 9648   2.326   2.451  10.336  0.4464  0.3092  0.5812
 2225Sol     HW 9649   2.399   2.345  10.417  1.0241  0.0550 -0.2591
 2225Sol     MW 9650   2.360   2.368  10.339 -0.5604 -0.1155  0.9317
 2226Sol     OW 9651   1.512   1.936   8.842 -0.2414 -0.0690  0.3398
 2226Sol     HW 9652   1.542   1.894   8.923 -0.4355  0.0071  0.4495
 2226Sol     HW 9653   1.498   2.027   8.866  1.6781  0.4108 -0.2635
 2226Sol     MW 9654   1.514   1.940   8.852  0.7543  0.4618 -0.3654
 2227Sol     OW 9655   0.707   3.206   8.505 -0.6346  0.6020  0.2841
 2227Sol     HW 9656   0.788   3.233   8.549 -0.1161 -2.6591  1.5308
 2227Sol     HW 9657   0.720   3.229   8.413  2.8217 -2.0444  0.0022
 2227Sol     MW 9658   0.716   3.210   8.501  0.3955 -0.6274  0.1655
 2228Sol     OW 9659   1.038   2.876  11.324  0.5683  0.1318 -0.1466
 2228Sol     HW 9660   1.067   2.918  11.242  0.6026 -1.3534 -0.9084
 2228Sol     HW 9661   1.023   2.949  11.384 -0.1979  1.2888 -1.7099
 2228Sol     MW 9662   1.040   2.886  11.322 -0.0684 -0.0555 -0.1855
 2229Sol     OW 9663   2.479   0.131  10.439 -0.3896  0.3876  0.0600
 2229Sol     HW 9664   2.456   0.133  10.346  2.7160  1.4437 -0.7445
 2229Sol     HW 9665   2.453   0.217  10.472 -0.9530  0.2262  0.0427
 2229Sol     MW 9666   2.475   0.139  10.434  0.7333 -0.2929  0.1888
 2230Sol     OW 9667   2.514   0.754  12.272  0.0407 -0.1128 -0.0816
 2230Sol     HW 9668   2.463   0.827  12.238  2.3889  2.1066  1.0202
 2230Sol     HW 9669   2.527   0.697  12.196 -1.2416  0.9219 -1.1096
 2230Sol     MW 9670   2.510   0.755  12.262 -0.5789 -0.2151 -0.4087
 2231Sol     OW 9671   1.963   2.081  10.503  0.3314 -0.8241 -0.2515
 2231Sol     HW 9672   2.002   2.156  10.547  0.7125 -1.3220  0.2731
 2231Sol     HW 9673   2.037   2.033  10.466  0.0189 -0.4532 -1.3840
 2231Sol     MW 9674   1.973   2.083  10.504  0.0461  0.3844 -0.5120
 2232Sol     OW 9675   0.484   2.990   8.360 -0.6554 -0.1582 -0.2986
 2232Sol     HW 9676   0.522   2.992   8.272  0.6622  1.1870  0.2873
 2232Sol     HW 9677   0.539   3.048   8.412 -1.5763 -0.7341  1.3713
 2232Sol     MW 9678   0.492   2.995   8.356 -0.4261 -0.0362  0.0265
 2233Sol     OW 9679   1.741   1.805  11.418 -0.1448 -0.3613 -0.1146
 2233Sol     HW 9680   1.786   1.831  11.498 -0.7727  0.0238  0.1173
 2233Sol     HW 9681   1.744   1.882  11.362 -3.8689  1.0013  1.3999
 2233Sol     MW 9682   1.745   1.814  11.420 -0.5523 -0.1826 -0.8188
 2234Sol     OW 9683   3.307   1.879  12.862  0.5097  0.2315  0.1609
 2234Sol     HW 9684   3.391   1.873  12.817 -0.0319 -0.9296 -0.7361
 2234Sol     HW 9685   3.259   1.802  12.832 -1.1978  1.3381  0.0057
 2234Sol     MW 9686   3.310   1.871  12.855 -0.0093  0.0067  0.2318
 2235Sol     OW 9687   2.255   0.225   6.334 -0.3546 -0.0871 -0.2819
 2235Sol     HW 9688   2.175   0.193   6.376 -0.4405  0.4031 -0.0691
 2235Sol     HW 9689   2.288   0.150   6.285 -0.7582 -0.3924 -0.0890
 2235Sol     MW 9690   2.251   0.215   6.334  0.3124 -0.2549 -0.3268
 2236Sol     OW 9691   2.372   2.918  11.201  0.0700 -0.1983 -0.1113
 2236Sol     HW 9692   2.393   2.830  11.232 -1.2646 -0.4273  0.1761
 2236Sol     HW 9693   2.415   2.977  11.263 -1.8833 -0.6519  1.7282
 2236Sol     MW 9694   2.377   2.915  11.209 -0.1104 -0.1441 -0.6543
 2237Sol     OW 9695   2.678   0.621   7.432  0.0315  0.1994  0.2483
 2237Sol     HW 9696   2.592   0.591   7.464 -0.4821 -1.7893 -2.7701
 2237Sol     HW 9697   2.732   0.542   7.431  1.1149  0.9435 -0.2577
 2237Sol     MW 9698   2.675   0.611   7.435  0.2079 -0.4965 -0.0989
 2238Sol     OW 9699   2.935   2.201   7.458  0.7206 -0.2205  0.0716
 2238Sol     HW 9700   2.970   2.180   7.544 -2.2605 -1.8557  0.9423
 2238Sol     HW 9701   2.948   2.296   7.449 -1.3932  0.4787  3.5256
 2238Sol     MW 9702   2.939   2.208   7.465 -0.4511 -0.7134  0.1759
 2239Sol     OW 9703   0.778   0.330   6.533 -0.1274  0.1700 -0.4992
 2239Sol     HW 9704   0.789   0.300   6.624  0.9641 -0.2880 -0.7683
 2239Sol     HW 9705   0.708   0.275   6.498  2.7002 -3.0706 -1.3710
 2239Sol     MW 9706   0.773   0.322   6.538  0.0063 -0.3875 -0.1218
 2240Sol     OW 9707   3.011   0.289   6.671 -0.2184 -0.2702 -0.1260
 2240Sol     HW 9708   2.968   0.359   6.621 -1.3871 -2.1556 -1.8589
 2240Sol     HW 9709   3.062   0.335   6.738 -0.2410  2.2693 -1.7717
 2240Sol     MW 9710   3.012   0.300   6.672  0.6571 -0.2621  1.3127
 2241Sol     OW 9711   2.769   1.286   8.866 -0.3085  0.4736  0.5282
 2241Sol     HW 9712   2.794   1.204   8.908 -2.2987 -0.0947  0.6624
 2241Sol     HW 9713   2.846   1.312   8.816 -0.4130 -2.7748 -1.5044
 2241Sol     MW 9714   2.778   1.281   8.865  0.0465 -0.6730  0.2287
 2242Sol     OW 9715   1.362   0.948   6.886 -0.2325  0.6580 -0.6559
 2242Sol     HW 9716   1.376   0.984   6.974  0.7052  1.8050 -1.2518
 2242Sol     HW 9717   1.442   0.969   6.838 -1.1589  1.0153 -2.0969
 2242Sol     MW 9718   1.370   0.954   6.890 -0.4143 -0.6753 -0.0793
 2243Sol     OW 9719   0.715   3.106   6.632 -0.8889 -0.2337  0.4356
 2243Sol     HW 9720   0.716   3.201   6.632 -0.1207 -0.2217  1.8497
 2243Sol     HW 9721   0.721   3.081   6.540  1.8658  1.0663  0.2277
 2243Sol     MW 9722   0.715   3.112   6.624 -0.2670 -0.0351 -0.5351
 2244Sol     OW 9723   0.731   0.885  11.196  0.6210  0.1143  0.5063
 2244Sol     HW 9724   0.672   0.944  11.243  0.9317  1.2576 -0.5128
 2244Sol     HW 9725   0.683   0.803  11.189 -0.4190  0.7029  0.6239
 2244Sol     MW 9726   0.722   0.883  11.200  0.5400 -0.2528 -0.3021
 2245Sol     OW 9727   0.121   1.382   9.725 -0.2194  0.3947 -0.3461
 2245Sol     HW 9728   0.121   1.469   9.684  0.0395 -0.4007 -2.1128
 2245Sol     HW 9729   0.182   1.332   9.671 -0.4766 -0.9218  0.5830
 2245Sol     MW 9730   0.127   1.386   9.716  0.3869 -0.6002  0.5748
 2246Sol     OW 9731   1.926   0.041   6.661 -0.3415  0.1017  0.3552
 2246Sol     HW 9732   1.920  -0.038   6.714  2.0658  0.0419  0.6264
 2246Sol     HW 9733   2.008   0.082   6.689  1.3427 -0.2529 -3.6740
 2246Sol     MW 9734   1.933   0.038   6.668 -0.2331 -0.0611  0.0043
 2247Sol     OW 9735   1.409   2.593  12.332  0.1172  0.0318 -0.0314
 2247Sol     HW 9736   1.321   2.560  12.316 -0.0287  1.0392 -1.4008
 2247Sol     HW 9737   1.421   2.586  12.427 -0.8209 -1.6148 -0.0255
 2247Sol     MW 9738   1.402   2.589  12.339  0.2047  0.0749 -0.1608
 2248Sol     OW 9739   0.199   0.275   8.109  0.1374  0.5482  0.1874
 2248Sol     HW 9740   0.186   0.320   8.026 -1.4112 -0.2566 -0.0285
 2248Sol     HW 9741   0.156   0.190   8.097  2.1820 -0.6353  0.9020
 2248Sol     MW 9742   0.194   0.271   8.100  0.3024 -1.0079  0.1422
 2249Sol     OW 9743   3.249   2.190  12.229 -0.2018  0.2344 -0.0256
 2249Sol     HW 9744   3.265   2.095  12.233  0.5738  0.3323 -0.7236
 2249Sol     HW 9745   3.291   2.224  12.309  1.7459  0.2910 -1.0363
 2249Sol     MW 9746   3.254   2.184  12.237 -0.4800  0.7012  0.0284
 2250Sol     OW 9747   0.628   1.638   7.624  0.2541  0.3629  0.2424
 2250Sol     HW 9748   0.550   1.590   7.597 -0.5945  1.6725  0.2841
 2250Sol     HW 9749   0.611   1.728   7.596  2.2508  0.4423 -0.7638
 2250Sol     MW 9750   0.620   1.642   7.619 -0.6047  0.2456 -0.2737
 2251Sol     OW 9751   1.999   1.134  11.645 -0.0583 -0.3026  0.5963
 2251Sol     HW 9752   1.947   1.214  11.637 -1.0806 -0.9918  0.3384
 2251Sol     HW 9753   1.956   1.084  11.714  0.4207 -0.7543  0.5684
 2251Sol     MW 9754   1.991   1.137  11.651 -0.6943 -0.5855 -0.0552
 2252Sol     OW 9755   2.819   2.506   9.213 -0.0940 -0.0043  0.1382
 2252Sol     HW 9756   2.846   2.484   9.124 -0.3975  0.0591  0.0279
 2252Sol     HW 9757   2.809   2.422   9.256 -2.9899 -0.1998 -0.7923
 2252Sol     MW 9758   2.820   2.497   9.209  0.1735  1.1286 -0.1519
 2253Sol     OW 9759   0.735   2.314  11.602 -0.2261 -1.0052  0.0158
 2253Sol     HW 9760   0.648   2.342  11.572  0.0871 -0.7682 -0.6776
 2253Sol     HW 9761   0.771   2.264  11.529  0.2966 -0.9439  0.2277
 2253Sol     MW 9762   0.730   2.312  11.593  0.5928  0.5023  0.1226
 2254Sol     OW 9763   2.680   1.403  10.842 -0.6157 -0.4286  0.7766
 2254Sol     HW 9764   2.608   1.464  10.828 -0.1685  0.3202  1.7289
 2254Sol     HW 9765   2.711   1.422  10.930  0.9471 -0.5247  0.2591
 2254Sol     MW 9766   2.676   1.410  10.848  0.5417 -0.4848 -0.0541
 2255Sol     OW 9767   2.420   2.976  10.436  0.5704 -0.5188 -0.2863
 2255Sol     HW 9768   2.506   2.979  10.478  0.1114 -1.3796  0.7490
 2255Sol     HW 9769   2.408   3.063  10.398  0.1408  0.9944  3.1009
 2255Sol     MW 9770   2.426   2.984  10.437  0.0728 -0.4652 -0.3215
 2256Sol     OW 9771   1.462   0.102   9.348 -0.4586 -0.3815  1.0111
 2256Sol     HW 9772   1.522   0.082   9.419 -1.3951 -0.6130  1.7538
 2256Sol     HW 9773   1.512   0.085   9.268  0.4379 -0.6091  1.6202
 2256Sol     MW 9774   1.472   0.098   9.347 -0.1897 -0.0348  0.0435
 2257Sol     OW 9775   2.230   1.792  10.728  0.1194  0.5137  0.5228
 2257Sol     HW 9776   2.173   1.722  10.696 -1.4566  2.1488 -0.3612
 2257Sol     HW 9777   2.207   1.801  10.821 -1.8622  1.8515 -0.0607
 2257Sol     MW 9778   2.223   1.786  10.734 -0.1633 -0.4811  0.2483
 2258Sol     OW 9779   3.112   0.788  12.322 -0.1616  0.0545  0.0437
 2258Sol     HW 9780   3.115   0.877  12.287 -0.5600  0.3088  0.6473
 2258Sol     HW 9781   3.084   0.799  12.412  3.4795 -0.3518  1.3251
 2258Sol     MW 9782   3.110   0.797  12.327 -0.3771 -0.1954 -1.0774
 2259Sol     OW 9783   1.341   2.911   8.047  0.0981  0.0326  0.5397
 2259Sol     HW 9784   1.310   2.921   8.137 -0.3574 -1.0617  0.5171
 2259Sol     HW 9785   1.434   2.932   8.052  0.5086 -1.8733  1.6656
 2259Sol     MW 9786   1.347   2.914   8.056 -1.0067  0.0849 -0.0204
 2260Sol     OW 9787   1.961   2.861  14.173 -0.2197  0.1640 -0.3952
 2260Sol     HW 9788   2.041   2.910  14.192 -1.6660  3.1373 -1.6451
 2260Sol     HW 9789   1.992   2.775  14.145  2.5044  1.1343 -0.5644
 2260Sol     MW 9790   1.971   2.857  14.172  0.2044 -0.2061 -0.0308
 2261Sol     OW 9791   0.597   2.313  13.582 -0.3359  0.2446 -0.0770
 2261Sol     HW 9792   0.619   2.242  13.521  0.1091 -0.5084  0.9386
 2261Sol     HW 9793   0.641   2.289  13.664  0.1612  1.9174  0.1648
 2261Sol     MW 9794   0.603   2.304  13.584  0.2896  0.4783 -0.4031
 2262Sol     OW 9795   0.968   2.733   9.347  0.1964 -0.3777 -0.1586
 2262Sol     HW 9796   0.910   2.714   9.421  0.6821  0.5219  0.4644
 2262Sol     HW 9797   0.908   2.754   9.275 -0.3222 -3.2434 -0.6059
 2262Sol     MW 9798   0.957   2.733   9.347  0.0200 -0.0221 -0.2816
 2263Sol     OW 9799   3.135   1.948  11.066  0.1996  0.0696 -0.3403
 2263Sol     HW 9800   3.172   1.860  11.055 -1.4951 -0.6231 -0.7191
 2263Sol     HW 9801   3.078   1.959  10.990  0.0217  1.3064 -0.0288
 2263Sol     MW 9802   3.133   1.941  11.058 -0.2102 -0.3335  0.2200
 2264Sol     OW 9803   3.105   3.463  13.525 -1.0279 -0.6723  0.1657
 2264Sol     HW 9804   3.124   3.519  13.450 -0.2792 -1.0835  0.0448
 2264Sol     HW 9805   3.047   3.395  13.490  1.8442 -2.7311 -0.8341
 2264Sol     MW 9806   3.102   3.462  13.515  0.5095  0.1897 -1.1005
 2265Sol     OW 9807   0.098   0.061  11.226 -0.1011  0.1251  0.0515
 2265Sol     HW 9808   0.002   0.066  11.224 -0.0514  1.4242  0.1302
 2265Sol     HW 9809   0.117   0.018  11.310 -0.5839  1.7476  1.0323
 2265Sol     MW 9810   0.091   0.058  11.234  0.0871 -0.1909  0.2397
 2266Sol     OW 9811   0.895   3.353   6.942  0.4123 -0.0051  0.1525
 2266Sol     HW 9812   0.946   3.433   6.936  0.0461  0.2662  0.6307
 2266Sol     HW 9813   0.926   3.310   7.022 -0.4035  0.3751  0.6866
 2266Sol     MW 9814   0.902   3.356   6.949  0.2695  1.0642 -0.3537
 2267Sol     OW 9815   2.978   0.879   6.704 -0.1536 -0.1412  0.2071
 2267Sol     HW 9816   2.906   0.817   6.690 -1.0816  0.4421  2.2169
 2267Sol     HW 9817   2.952   0.957   6.656  0.7803 -1.1040 -1.9153
 2267Sol     MW 9818   2.969   0.881   6.698 -0.1858 -0.4592 -0.7132
 2268Sol     OW 9819   1.267   0.917   9.442  0.8322  0.1727  0.1156
 2268Sol     HW 9820   1.240   0.838   9.488 -0.1083  0.6122  0.3231
 2268Sol     HW 9821   1.226   0.910   9.355  1.8166 -0.1904 -0.3329
 2268Sol     MW 9822   1.261   0.910   9.438  0.7940 -0.5333  0.2233
 2269Sol     OW 9823   0.477   0.979   8.705 -0.0430  0.0557  0.2739
 2269Sol     HW 9824   0.406   1.031   8.667  0.1200  0.0363 -0.0583
 2269Sol     HW 9825   0.555   1.006   8.656 -0.2625 -1.9155 -1.2426
 2269Sol     MW 9826   0.477   0.986   8.697  0.3619  0.1100 -0.5439
 2270Sol     OW 9827   3.122   2.359  13.961 -0.6768  0.0212 -0.3882
 2270Sol     HW 9828   3.092   2.371  13.871 -1.9638 -1.1546 -0.1385
 2270Sol     HW 9829   3.064   2.414  14.013  1.3477  2.2772 -0.4416
 2270Sol     MW 9830   3.114   2.365  13.957 -0.9098 -0.2040  0.3019
 2271Sol     OW 9831   2.550   2.606  13.577 -0.2586 -0.1238 -0.0017
 2271Sol     HW 9832   2.486   2.582  13.510 -0.8117  0.1398  0.4213
 2271Sol     HW 9833   2.567   2.699  13.562  0.5576 -0.3527 -0.5457
 2271Sol     MW 9834   2.546   2.612  13.570  0.4331  0.4593 -0.6615
 2272Sol     OW 9835   2.517   1.309   8.937  0.3081  0.4767  0.2378
 2272Sol     HW 9836   2.603   1.303   8.895  0.6771 -1.5717  1.1887
 2272Sol     HW 9837   2.527   1.258   9.018 -1.7943  0.1875  0.3362
 2272Sol     MW 9838   2.526   1.304   8.940  0.5118 -0.2330 -0.1327
 2273Sol     OW 9839   1.446   2.016   7.352 -0.0435 -0.3813 -0.3402
 2273Sol     HW 9840   1.473   1.943   7.296 -2.4225 -0.8077 -0.9671
 2273Sol     HW 9841   1.366   1.985   7.394 -2.0116  2.5069 -1.8769
 2273Sol     MW 9842   1.442   2.007   7.351  0.1805  0.9165  0.1439
 2274Sol     OW 9843   0.573   0.192  14.306 -0.2513  0.3710  0.5029
 2274Sol     HW 9844   0.559   0.286  14.295  0.2356  0.2582 -1.1145
 2274Sol     HW 9845   0.667   0.180  14.295 -0.4341 -0.4311 -0.1885
 2274Sol     MW 9846   0.580   0.200  14.304  0.6918 -0.0544  0.4079
 2275Sol     OW 9847   0.062   1.384  12.077  0.5678 -0.1971  0.5936
 2275Sol     HW 9848   0.081   1.293  12.058  0.7155 -0.1725  0.6246
 2275Sol     HW 9849   0.114   1.433  12.014  0.0659 -0.1466  0.2117
 2275Sol     MW 9850   0.068   1.381  12.070 -0.1733 -0.6276  0.7461
 2276Sol     OW 9851   2.985   2.387   9.959 -0.0118 -0.0301 -0.4258
 2276Sol     HW 9852   3.078   2.381   9.935 -0.1412 -1.7986 -0.5068
 2276Sol     HW 9853   2.980   2.467  10.012  1.8329 -0.7175  0.8328
 2276Sol     MW 9854   2.993   2.394   9.961  0.3168  0.2625  0.0428
 2277Sol     OW 9855   1.745   2.863   7.433 -0.1282  0.3522  0.3476
 2277Sol     HW 9856   1.794   2.945   7.430  1.7154 -0.6694  1.5763
 2277Sol     HW 9857   1.706   2.861   7.520 -0.6471  0.1730  0.1166
 2277Sol     MW 9858   1.746   2.870   7.440  0.0464  0.5468 -0.1863
 2278Sol     OW 9859   0.875   1.758  10.976  0.1056 -0.4006  0.1305
 2278Sol     HW 9860   0.822   1.678  10.977 -0.4697 -0.0254  1.2160
 2278Sol     HW 9861   0.956   1.733  10.932 -0.2959 -1.4403 -0.0259
 2278Sol     MW 9862   0.877   1.749  10.972  0.6825 -0.0331  0.0949
 2279Sol     OW 9863   2.934   0.316   8.070 -0.2498 -0.1749  0.2459
 2279Sol     HW 9864   2.940   0.411   8.077  1.1435 -0.1902 -0.6175
 2279Sol     HW 9865   3.022   0.288   8.046 -0.3436 -1.7977  1.7024
 2279Sol     MW 9866   2.942   0.322   8.069 -0.1703  0.3377 -0.2994
 2280Sol     OW 9867   0.155   0.770  11.931 -0.9405 -0.3017  0.3708
 2280Sol     HW 9868   0.227   0.789  11.871 -0.4585 -1.9391  0.4171
 2280Sol     HW 9869   0.077   0.771  11.875 -0.7839  0.6412  0.1665
 2280Sol     MW 9870   0.154   0.772  11.920 -0.7715 -0.3465 -0.2931
 2281Sol     OW 9871   0.820   2.433   9.077  0.5075 -0.0897  0.4418
 2281Sol     HW 9872   0.741   2.382   9.060  2.0649 -2.0881 -1.1397
 2281Sol     HW 9873   0.817   2.504   9.013 -0.4261  0.3541  0.9728
 2281Sol     MW 9874   0.813   2.435   9.069  0.6166  0.3071 -0.3604
 2282Sol     OW 9875   0.228   2.994  12.021 -0.0276  0.3148  0.1604
 2282Sol     HW 9876   0.283   2.924  12.055 -0.0272 -0.8319 -2.1100
 2282Sol     HW 9877   0.151   2.949  11.986  0.2077  1.3612 -1.7853
 2282Sol     MW 9878   0.226   2.984  12.021 -0.6136  0.6217 -0.0101
 2283Sol     OW 9879   0.562   2.203   7.840 -0.3821 -0.5950  0.6583
 2283Sol     HW 9880   0.545   2.297   7.844 -1.2256 -0.6457 -1.1983
 2283Sol     HW 9881   0.644   2.196   7.791 -0.0931 -0.8022  1.1734
 2283Sol     MW 9882   0.568   2.211   7.836  0.0752  0.7938  0.7756
 2284Sol     OW 9883   1.465   0.885  12.603 -0.0096 -1.1392 -0.2795
 2284Sol     HW 9884   1.547   0.857  12.645 -0.5674 -1.8761  0.3209
 2284Sol     HW 9885   1.462   0.980  12.619  1.0153 -0.9988 -0.8160
 2284Sol     MW 9886   1.472   0.891  12.608  0.3151  0.4181 -0.4528
 2285Sol     OW 9887   1.824   1.821   7.226 -0.3288  0.0252 -0.1961
 2285Sol     HW 9888   1.849   1.859   7.310  0.4339 -0.4771 -0.1919
 2285Sol     HW 9889   1.733   1.793   7.238 -0.3114  0.2105  0.3661
 2285Sol     MW 9890   1.818   1.822   7.234 -0.8578 -0.0535  0.0226
 2286Sol     OW 9891   0.776   0.683  13.719 -0.3248 -0.3534 -0.3186
 2286Sol     HW 9892   0.769   0.730  13.636 -0.0821  0.2965  0.0259
 2286Sol     HW 9893   0.710   0.723  13.775  2.2731  2.0287  1.1342
 2286Sol     MW 9894   0.769   0.691  13.716  0.1662 -0.2805 -0.2837
 2287Sol     OW 9895   0.259   3.146   9.669  0.0142  0.4141  0.0032
 2287Sol     HW 9896   0.331   3.209   9.663  0.5776 -0.4449 -2.9894
 2287Sol     HW 9897   0.242   3.120   9.578 -0.6089 -3.2968  1.1067
 2287Sol     MW 9898   0.264   3.149   9.660  0.1501  0.2109  0.0003
 2288Sol     OW 9899   0.275   1.528  13.582 -0.0519 -0.0975 -0.0051
 2288Sol     HW 9900   0.232   1.443  13.587  1.4685 -1.0383 -2.2167
 2288Sol     HW 9901   0.351   1.521  13.640 -0.3803  0.0490  0.4478
 2288Sol     MW 9902   0.278   1.520  13.587 -0.5652  0.0016 -0.2671
 2289Sol     OW 9903   1.004   0.821   6.196  0.4233  0.3112  0.4973
 2289Sol     HW 9904   0.958   0.768   6.131  1.5880  3.3993 -3.0014
 2289Sol     HW 9905   0.934   0.859   6.249 -0.7907  0.9056 -1.4984
 2289Sol     MW 9906   0.993   0.820   6.195 -0.1825  0.0265  0.3664
 2290Sol     OW 9907   2.570   0.362  11.949 -0.3836  0.2371 -0.3847
 2290Sol     HW 9908   2.550   0.337  11.859  0.9688 -0.8395 -0.4119
 2290Sol     HW 9909   2.661   0.392  11.945 -0.5520  0.8727  0.4903
 2290Sol     MW 9910   2.577   0.363  11.941 -0.3574 -1.0317 -0.1740
 2291Sol     OW 9911   0.558   2.960   8.070 -0.3995  0.1670 -0.4798
 2291Sol     HW 9912   0.492   3.009   8.020 -0.7971 -0.4709 -0.5748
 2291Sol     HW 9913   0.640   3.006   8.051 -0.2815 -1.0099 -2.9765
 2291Sol     MW 9914   0.559   2.969   8.064 -0.1399 -0.3629  0.1969
 2292Sol     OW 9915   0.814   1.965   9.297 -0.5940 -0.5717  0.1678
 2292Sol     HW 9916   0.879   2.032   9.279 -0.9267 -0.0622  0.8252
 2292Sol     HW 9917   0.731   2.013   9.306 -1.0297 -1.1871 -0.4615
 2292Sol     MW 9918   0.812   1.975   9.296 -0.4205  0.5913 -0.5432
 2293Sol     OW 9919   2.727   3.264   6.221 -0.2936 -0.0477  0.3030
 2293Sol     HW 9920   2.637   3.270   6.188 -0.3268  2.8000  0.7872
 2293Sol     HW 9921   2.780   3.251   6.142 -0.7564  2.5540 -0.4686
 2293Sol     MW 9922   2.724   3.263   6.211  0.0716  0.1272 -0.2537
 2294Sol     OW 9923   2.973   0.577  12.143  0.4317  0.1545  0.0245
 2294Sol     HW 9924   2.963   0.665  12.180 -2.6038 -0.6171  1.1759
 2294Sol     HW 9925   2.945   0.518  12.213  1.9068 -1.7358 -0.9217
 2294Sol     MW 9926   2.969   0.579  12.153 -0.5765 -0.4464 -0.0422
 2295Sol     OW 9927   0.324   1.554   7.930 -0.2520  0.0235  0.5722
 2295Sol     HW 9928   0.388   1.489   7.960 -0.3160  0.0781  0.8303
 2295Sol     HW 9929   0.368   1.599   7.858  0.5307  0.9635  1.6101
 2295Sol     MW 9930   0.334   1.552   7.927 -0.2662  0.2830 -0.2139
 2296Sol     OW 9931   1.951   1.093   7.378 -0.3577 -0.2803  0.3201
 2296Sol     HW 9932   2.034   1.139   7.390  0.3885 -2.1143  2.5924
 2296Sol     HW 9933   1.953   1.064   7.286  2.3898 -1.9086  0.8399
 2296Sol     MW 9934   1.958   1.095   7.371 -0.5687  0.0288  0.1523
 2297Sol     OW 9935   3.023   2.914  11.721  0.1231  0.1550  0.1520
 2297Sol     HW 9936   3.027   2.828  11.763  0.2143  0.3738  0.5900
 2297Sol     HW 9937   3.111   2.927  11.685 -0.2362 -0.4728 -0.9932
 2297Sol     MW 9938   3.031   2.907  11.721  0.2221  0.2410  0.3450
 2298Sol     OW 9939   0.032   3.129   6.438  0.0328 -0.1048  0.1482
 2298Sol     HW 9940   0.106   3.109   6.380 -0.6022 -2.5723  0.1162
 2298Sol     HW 9941   0.069   3.126   6.526  0.3912  0.7481  0.0320
 2298Sol     MW 9942   0.042   3.127   6.440 -0.5687  0.5557 -0.1904
 2299Sol     OW 9943   2.661   1.475  12.522 -0.4960  0.7426 -0.6066
 2299Sol     HW 9944   2.647   1.493  12.615  0.5428  1.7283 -0.6189
 2299Sol     HW 9945   2.683   1.382  12.518  3.5837  1.5547  0.6741
 2299Sol     MW 9946   2.662   1.468  12.530 -0.5614  0.3659  0.4090
 2300Sol     OW 9947   2.301   3.151   9.738 -0.4433 -0.2603  0.3472
 2300Sol     HW 9948   2.280   3.119   9.650 -0.3960  0.7453 -0.0368
 2300Sol     HW 9949   2.306   3.246   9.728 -0.3552 -0.1506  1.4230
 2300Sol     MW 9950   2.300   3.156   9.729  0.0079  0.3920  0.5246
 2301Sol     OW 9951   1.648   1.239   6.997 -0.3382  0.1254 -0.5906
 2301Sol     HW 9952   1.577   1.187   7.035  1.2676 -0.8208  1.2486
 2301Sol     HW 9953   1.699   1.269   7.072  2.4696 -1.1048 -1.9066
 2301Sol     MW 9954   1.647   1.237   7.007  0.4443  0.3689  0.3491
 2302Sol     OW 9955   2.134   2.536   6.786  0.0625 -0.2084 -0.4630
 2302Sol     HW 9956   2.086   2.547   6.868 -0.3327 -0.4266 -0.6653
 2302Sol     HW 9957   2.086   2.469   6.739  0.5252 -0.3730 -0.7018
 2302Sol     MW 9958   2.125   2.531   6.789  0.5493 -0.4150  0.4112
 2303Sol     OW 9959   2.140   1.567   9.555  0.4070 -0.2880 -0.0926
 2303Sol     HW 9960   2.212   1.504   9.556 -1.0850 -2.0636  1.8228
 2303Sol     HW 9961   2.168   1.637   9.614  0.5950 -0.9677  0.6361
 2303Sol     MW 9962   2.149   1.568   9.561 -0.2781  0.4347  0.2912
 2304Sol     OW 9963   2.556   0.333  13.719  0.2551 -0.8390 -0.1867
 2304Sol     HW 9964   2.565   0.254  13.666 -2.9145 -0.8312 -0.8300
 2304Sol     HW 9965   2.461   0.350  13.721  0.8111  2.4276  0.6968
 2304Sol     MW 9966   2.548   0.327  13.715  0.4401  0.1735 -0.8281
 2305Sol     OW 9967   2.042   1.806   8.588  0.0276 -0.5338  0.5946
 2305Sol     HW 9968   2.093   1.826   8.667  0.2214  2.8821 -0.3239
 2305Sol     HW 9969   1.957   1.846   8.603  1.3567  3.8498 -2.4981
 2305Sol     MW 9970   2.039   1.811   8.597 -0.1335 -0.4755  1.0977
 2306Sol     OW 9971   0.085   3.223  14.274  0.3862  0.1839 -0.3322
 2306Sol     HW 9972   0.135   3.157  14.322 -2.3427 -1.4742  0.3316
 2306Sol     HW 9973   0.108   3.306  14.316  1.7452 -0.6875  0.6589
 2306Sol     MW 9974   0.091   3.225  14.282 -0.1455  0.0655  0.4382
 2307Sol     OW 9975   2.326   0.429  12.814  0.2784 -0.2500 -0.2402
 2307Sol     HW 9976   2.314   0.334  12.812 -0.3394 -0.1864  0.2163
 2307Sol     HW 9977   2.252   0.464  12.765 -0.7866  0.0872  1.5321
 2307Sol     MW 9978   2.318   0.424  12.810 -0.8277 -0.2979 -0.0191
 2308Sol     OW 9979   0.962   2.675  12.593  0.2640  0.9491  0.6938
 2308Sol     HW 9980   1.030   2.741  12.589  1.8731 -0.6158  1.3411
 2308Sol     HW 9981   1.000   2.604  12.645 -0.8945 -1.0415 -1.0382
 2308Sol     MW 9982   0.972   2.674  12.597 -0.9088 -0.4990  0.0189
 2309Sol     OW 9983   2.054   2.571   8.059  0.4060  0.5479  0.6484
 2309Sol     HW 9984   2.092   2.536   7.978  0.0969  0.5100  0.5199
 2309Sol     HW 9985   2.124   2.563   8.124  0.8442  1.1019  0.2451
 2309Sol     MW 9986   2.064   2.567   8.058  0.0304 -0.1249 -0.1893
 2310Sol     OW 9987   0.995   2.724  10.480 -0.2262 -0.5245 -0.4490
 2310Sol     HW 9988   0.982   2.667  10.555  0.1468  0.1127  0.1028
 2310Sol     HW 9989   1.005   2.664  10.406  0.8439 -1.1993  0.2267
 2310Sol     MW 9990   0.995   2.713  10.480 -0.0699 -0.4215  0.3308
 2311Sol     OW 9991   3.202   0.020  12.587 -0.1800  0.0125  0.1192
 2311Sol     HW 9992   3.185  -0.011  12.498  1.5801  1.2059 -0.6507
 2311Sol     HW 9993   3.124   0.071  12.610 -0.5336 -0.1003 -0.8165
 2311Sol     MW 9994   3.194   0.022  12.581 -0.1244 -0.3966  0.3342
 2312Sol     OW 9995   0.465   0.498  11.046  0.2138  0.1550  0.2956
 2312Sol     HW 9996   0.546   0.473  11.003 -0.5013 -0.6843 -0.5938
 2312Sol     HW 9997   0.421   0.416  11.066 -0.5101  0.6001  0.5817
 2312Sol     MW 9998   0.468   0.489  11.044 -0.2612 -0.0932  0.4524
 2313Sol     OW 9999   0.952   1.989  12.786 -0.4900 -0.1342 -0.1177
 2313Sol     HW10000   0.985   1.950  12.705  0.4923  2.1420 -0.8454
 2313Sol     HW10001   0.970   1.923  12.853 -0.9800 -1.8991 -1.6708
 2313Sol     MW10002   0.956   1.980  12.784  0.8899  0.0268  0.1479
 2314Sol     OW10003   2.127   3.115   6.157  0.2893 -0.3870 -0.2361
 2314Sol     HW10004   2.109   3.202   6.194 -0.3609 -0.4215 -0.4706
 2314Sol     HW10005   2.067   3.057   6.203  1.4147 -0.8853  0.6361
 2314Sol     MW10006   2.120   3.118   6.164  0.2227  0.0762 -0.8684
 2315Sol     OW10007   0.678   3.322   9.840  0.4367  0.4427 -0.8477
 2315Sol     HW10008   0.694   3.408   9.878  0.0681 -0.5327  1.6311
 2315Sol     HW10009   0.764   3.281   9.836  0.0807 -0.8223  2.5190
 2315Sol     MW10010   0.687   3.326   9.843 -0.2820 -0.1198 -0.6758
 2316Sol     OW10011   1.147   0.917   6.499 -0.8351  0.3677 -0.6583
 2316Sol     HW10012   1.059   0.919   6.461 -1.9913  1.7792  2.0012
 2316Sol     HW10013   1.133   0.904   6.593  1.8883 -1.5020 -0.4347
 2316Sol     MW10014   1.138   0.916   6.504  0.1455  0.0094 -0.4029
 2317Sol     OW10015   2.428   1.534   9.794 -0.0485  0.5312  0.4060
 2317Sol     HW10016   2.485   1.468   9.753  1.1304  0.4407  2.1095
 2317Sol     HW10017   2.385   1.577   9.721  0.7862 -0.6989 -0.8466
 2317Sol     MW10018   2.430   1.532   9.784  0.2695  0.3028 -0.1419
 2318Sol     OW10019   2.301   2.229  12.861  0.8242 -0.7398 -0.7511
 2318Sol     HW10020   2.342   2.247  12.776  1.0356  0.1706 -0.4654
 2318Sol     HW10021   2.373   2.236  12.924  0.4224 -0.0494 -0.3504
 2318Sol     MW10022   2.311   2.232  12.859 -0.2293  0.3906  0.1503
 2319Sol     OW10023   1.253   2.832  10.489 -0.2087 -0.2475 -0.1762
 2319Sol     HW10024   1.162   2.806  10.473 -0.4579 -0.0546  0.8668
 2319Sol     HW10025   1.300   2.750  10.500 -0.4417 -0.3283  0.2289
 2319Sol     MW10026   1.249   2.822  10.488  0.1647  0.4756 -0.1291
 2320Sol     OW10027   1.909   3.278  13.318 -0.0198 -0.2501  0.0013
 2320Sol     HW10028   1.863   3.215  13.262 -2.0403  0.5644  0.7146
 2320Sol     HW10029   1.913   3.234  13.403 -0.4785  0.1449  0.2269
 2320Sol     MW10030   1.905   3.268  13.321  0.1504 -0.7560 -0.3795
 2321Sol     OW10031   1.536   3.126  11.885  0.1180 -0.0310  0.5183
 2321Sol     HW10032   1.510   3.035  11.874 -0.9749  0.4445 -1.1119
 2321Sol     HW10033   1.548   3.137  11.979 -0.3795 -1.6837  0.7888
 2321Sol     MW10034   1.535   3.119  11.892 -0.0188 -0.0077 -0.5166
 2322Sol     OW10035   0.757   1.890  10.738 -0.3782  0.5213  0.1291
 2322Sol     HW10036   0.760   1.853  10.827  1.6936  3.0312  1.1542
 2322Sol     HW10037   0.802   1.974  10.745  1.1041  0.1348 -3.6533
 2322Sol     MW10038   0.761   1.894  10.747  0.2387  0.6469  0.3082
 2323Sol     OW10039   2.744   3.107   7.348  0.8997  0.0799 -0.1164
 2323Sol     HW10040   2.732   3.130   7.255 -0.4327  0.3875  0.1165
 2323Sol     HW10041   2.717   3.015   7.353  0.4512  0.2196  0.0596
 2323Sol     MW10042   2.740   3.101   7.340 -0.4170  0.2388 -0.1745
 2324Sol     OW10043   0.754   2.323   7.127  0.0541 -0.3527  0.3339
 2324Sol     HW10044   0.798   2.408   7.136 -0.0106 -0.0902 -1.5530
 2324Sol     HW10045   0.674   2.331   7.178  0.0799  0.6940  0.2106
 2324Sol     MW10046   0.751   2.331   7.132 -0.0892 -0.2351  0.8234
 2325Sol     OW10047   2.116   2.808  10.721  0.1674  0.1151 -0.0529
 2325Sol     HW10048   2.160   2.830  10.639 -0.7420  0.6396 -0.4076
 2325Sol     HW10049   2.186   2.808  10.786  1.1613 -1.8844 -1.0954
 2325Sol     MW10050   2.126   2.810  10.719  0.0160 -0.3044  0.0590
 2326Sol     OW10051   0.705   1.957   9.629  0.3005 -0.1019 -0.4073
 2326Sol     HW10052   0.729   1.874   9.588 -1.5476 -1.2667  0.7889
 2326Sol     HW10053   0.716   1.941   9.723 -2.7392  0.0832  0.0192
 2326Sol     MW10054   0.708   1.948   9.634  0.0089 -0.1402 -0.2825
 2327Sol     OW10055   2.969   2.857  11.042 -0.2087  0.4695  0.3227
 2327Sol     HW10056   2.905   2.925  11.064 -0.5082  0.4099 -0.3801
 2327Sol     HW10057   2.920   2.791  10.994  0.2180  0.0518  0.4476
 2327Sol     MW10058   2.959   2.857  11.040 -0.8259 -0.4840  0.3877
 2328Sol     OW10059   0.185   3.449  11.461 -0.1641 -0.4389 -0.0151
 2328Sol     HW10060   0.145   3.498  11.532  0.7477 -0.5156  0.5504
 2328Sol     HW10061   0.278   3.469  11.467 -0.1402 -0.0649 -1.4843
 2328Sol     MW10062   0.190   3.455  11.468  0.0006 -0.2256 -0.1108
 2329Sol     OW10063   2.831   2.849   6.667 -0.4843 -0.1352 -0.4376
 2329Sol     HW10064   2.790   2.776   6.622 -2.1101 -0.0093  0.7897
 2329Sol     HW10065   2.789   2.927   6.630 -2.9834 -0.0929  2.3419
 2329Sol     MW10066   2.824   2.850   6.660  0.3196  0.3754 -0.2924
 2330Sol     OW10067   3.091   2.743   8.707 -0.5445  0.4384 -0.1586
 2330Sol     HW10068   3.051   2.724   8.622 -1.8913  0.5109  0.4364
 2330Sol     HW10069   3.143   2.666   8.728 -0.0286  0.5136 -1.1446
 2330Sol     MW10070   3.092   2.735   8.702  0.2347  0.4440  0.7960
 2331Sol     OW10071   2.088   0.822   6.426 -0.0008 -0.0458 -0.0471
 2331Sol     HW10072   2.029   0.879   6.376  1.1872 -0.8951 -2.5319
 2331Sol     HW10073   2.041   0.739   6.432 -0.1218  0.0407  0.1995
 2331Sol     MW10074   2.079   0.819   6.422  0.0437 -0.5118  0.3933
 2332Sol     OW10075   1.489   0.745   9.380  0.4305 -0.0085 -0.2415
 2332Sol     HW10076   1.465   0.837   9.371  0.6365  0.2109  1.3951
 2332Sol     HW10077   1.468   0.707   9.295 -0.6968  1.3171 -0.5790
 2332Sol     MW10078   1.485   0.749   9.372 -0.1149  0.5429 -0.7552
 2333Sol     OW10079   2.863   2.835  11.519 -0.0170 -0.4733 -0.3536
 2333Sol     HW10080   2.921   2.834  11.442  0.5972  2.0665  0.0246
 2333Sol     HW10081   2.920   2.857  11.592 -0.5181 -3.3307  0.9691
 2333Sol     MW10082   2.873   2.837  11.518  0.3067  0.7703 -0.2705
 2334Sol     OW10083   1.573   0.923   9.694  0.0439  0.7941 -0.3803
 2334Sol     HW10084   1.560   0.998   9.636  0.9125  1.0229 -0.2890
 2334Sol     HW10085   1.597   0.962   9.779  0.1945  0.4266 -0.2502
 2334Sol     MW10086   1.574   0.933   9.697 -0.7995 -0.1460  0.1223
 2335Sol     OW10087   0.884   2.220  11.382  0.4630 -0.5741 -0.1509
 2335Sol     HW10088   0.961   2.209  11.328 -0.3768  0.0906 -1.5166
 2335Sol     HW10089   0.838   2.294  11.343  1.0251  1.4545  2.8947
 2335Sol     MW10090   0.886   2.225  11.374  0.6353  0.7405 -0.4861
 2336Sol     OW10091   1.094   0.074  13.017 -0.0564  0.0007 -0.2778
 2336Sol     HW10092   1.083   0.058  13.110  0.8995 -0.8630 -0.3041
 2336Sol     HW10093   1.130   0.162  13.012  1.8243 -0.7170  0.2863
 2336Sol     MW10094   1.096   0.080  13.025  0.6695  1.0521  0.8197
 2337Sol     OW10095   1.655   0.089   9.563 -0.6925 -0.5767  0.0793
 2337Sol     HW10096   1.691   0.004   9.587  0.4510  0.0876  0.7532
 2337Sol     HW10097   1.731   0.142   9.542 -1.4981 -0.2290 -2.0635
 2337Sol     MW10098   1.665   0.086   9.563  0.1078  0.1986 -0.1507
 2338Sol     OW10099   3.085   2.112   8.474 -0.1188  0.4368 -0.5658
 2338Sol     HW10100   3.048   2.190   8.432  0.4022 -0.1135 -2.0745
 2338Sol     HW10101   3.148   2.078   8.410  0.8633 -0.2912  0.7633
 2338Sol     MW10102   3.087   2.116   8.465 -0.1138 -0.7817  0.9903
 2339Sol     OW10103   0.542   2.282  11.337 -0.2885 -0.7593 -0.2790
 2339Sol     HW10104   0.498   2.276  11.252 -1.2829  0.7568  0.1088
 2339Sol     HW10105   0.631   2.312  11.315 -0.8352  0.5897 -0.7288
 2339Sol     MW10106   0.546   2.284  11.327  0.4249 -0.1430  0.1202
 2340Sol     OW10107   1.017   0.575  11.258 -0.0136 -0.0321  0.9302
 2340Sol     HW10108   1.039   0.486  11.230  0.2928 -0.1822  1.6357
 2340Sol     HW10109   0.999   0.567  11.351 -1.9784  0.2968  0.5955
 2340Sol     MW10110   1.017   0.566  11.263  0.0439 -0.3861  0.3414
 2341Sol     OW10111   0.479   2.631  10.901  0.0160 -0.6685 -0.3991
 2341Sol     HW10112   0.476   2.700  10.834  0.6294 -0.7058 -0.4657
 2341Sol     HW10113   0.446   2.553  10.856  1.0936 -0.8620 -0.8681
 2341Sol     MW10114   0.476   2.630  10.891  0.2968  0.5132  0.2273
 2342Sol     OW10115   2.067   3.199   8.719  0.8650 -0.3585 -0.1186
 2342Sol     HW10116   2.097   3.152   8.797 -0.5634  1.7388  1.7354
 2342Sol     HW10117   1.985   3.156   8.695  2.0397 -1.9605 -1.3972
 2342Sol     MW10118   2.063   3.191   8.724 -0.1331  0.1898  0.4557
 2343Sol     OW10119   2.315   0.328   7.711  0.1437  0.1352 -0.2882
 2343Sol     HW10120   2.283   0.323   7.801 -1.3964 -1.8591 -0.9051
 2343Sol     HW10121   2.392   0.272   7.709  1.4054  1.8346  0.2714
 2343Sol     MW10122   2.319   0.322   7.719  0.1521 -0.9282 -0.6864
 2344Sol     OW10123   0.597   0.953   8.310  0.8208 -0.1656  0.3818
 2344Sol     HW10124   0.668   0.980   8.369  0.5988  0.1182  0.5225
 2344Sol     HW10125   0.614   0.860   8.293  1.4471 -0.0086  0.1040
 2344Sol     MW10126   0.605   0.947   8.314  0.0503 -0.6098  0.4415
 2345Sol     OW10127   0.710   2.446   9.523 -0.7539 -0.2455 -0.0377
 2345Sol     HW10128   0.677   2.471   9.436 -1.6217 -0.2508  0.2932
 2345Sol     HW10129   0.696   2.352   9.527  1.1479 -0.5911 -0.6860
 2345Sol     MW10130   0.706   2.440   9.515  0.0874 -0.2729  0.5544
 2346Sol     OW10131   0.182   1.977  11.136 -0.0513 -0.4144 -0.3969
 2346Sol     HW10132   0.262   1.996  11.088 -0.0350 -1.8194 -0.9419
 2346Sol     HW10133   0.174   1.882  11.133 -2.0105 -0.2554 -0.7923
 2346Sol     MW10134   0.189   1.970  11.131 -0.1438  0.5870 -0.7245
 2347Sol     OW10135   0.174   1.032   9.677 -0.0769  0.0352 -0.0665
 2347Sol     HW10136   0.234   0.982   9.733 -0.0282  0.0748 -0.0841
 2347Sol     HW10137   0.220   1.113   9.658 -0.9428  0.9311  1.5715
 2347Sol     MW10138   0.183   1.035   9.681  0.4570 -0.1282 -0.1677
 2348Sol     OW10139   0.739   0.389  10.306  0.0472 -0.4705  0.1642
 2348Sol     HW10140   0.761   0.439  10.228  0.2272 -1.1590 -0.2326
 2348Sol     HW10141   0.797   0.423  10.374 -0.2164  0.2348  0.0388
 2348Sol     MW10142   0.746   0.396  10.305 -0.1164  0.3297 -0.1543
 2349Sol     OW10143   0.937   1.038  11.103  0.3353 -0.1244 -0.0430
 2349Sol     HW10144   0.922   1.131  11.122  1.9741  0.2646 -0.5403
 2349Sol     HW10145   0.853   0.996  11.121  0.1898  1.0996  2.3538
 2349Sol     MW10146   0.928   1.043  11.106  0.3563 -0.3013  0.1976
 2350Sol     OW10147   3.080   3.316  11.562 -0.0321 -0.6865  0.6166
 2350Sol     HW10148   3.092   3.317  11.657  3.0039 -0.2917  0.2599
 2350Sol     HW10149   3.091   3.407  11.536  1.6748 -1.1602 -0.3766
 2350Sol     MW10150   3.082   3.324  11.568 -0.4453 -0.0952 -0.4015
 2351Sol     OW10151   2.933   2.193   8.857 -0.2755 -0.1131  0.5170
 2351Sol     HW10152   2.947   2.259   8.925 -0.6443 -0.5252  0.9963
 2351Sol     HW10153   2.931   2.110   8.904 -1.2165 -0.3373  0.0922
 2351Sol     MW10154   2.934   2.192   8.868 -0.6019 -0.3911 -0.1988
 2352Sol     OW10155   2.198   0.228   7.946 -0.0120 -0.1238  0.1699
 2352Sol     HW10156   2.109   0.221   7.911 -0.1886  1.6081  0.2164
 2352Sol     HW10157   2.188   0.212   8.040 -0.1785 -0.5532  0.0804
 2352Sol     MW10158   2.189   0.226   7.951  0.0198  0.2530 -0.9730
 2353Sol     OW10159   0.970   1.978  14.057  0.4217 -0.1710  0.6173
 2353Sol     HW10160   1.059   1.944  14.067  0.5243 -0.1278 -0.1537
 2353Sol     HW10161   0.957   1.985  13.963 -0.3207  0.0378  0.7319
 2353Sol     MW10162   0.977   1.976  14.050 -0.2852  0.8296 -0.7519
 2354Sol     OW10163   1.326   0.148   8.584  0.3858 -0.7798 -0.4866
 2354Sol     HW10164   1.322   0.211   8.512  1.4146 -0.1792 -0.0404
 2354Sol     HW10165   1.414   0.112   8.579  0.7348 -0.1473  0.9474
 2354Sol     MW10166   1.333   0.151   8.577 -0.4009 -0.0641  0.3715
 2355Sol     OW10167   1.331   2.487  10.488 -0.5745  0.3305 -0.1778
 2355Sol     HW10168   1.289   2.457  10.569 -0.5518 -0.9095 -0.6132
 2355Sol     HW10169   1.423   2.466  10.499 -0.8859 -1.8851 -1.4001
 2355Sol     MW10170   1.335   2.482  10.496 -0.6571 -0.2012  0.0406
 2356Sol     OW10171   0.436   3.005  13.984  0.0839 -0.3715  0.3415
 2356Sol     HW10172   0.399   2.941  14.045  1.3679 -0.6867  0.8074
 2356Sol     HW10173   0.487   2.953  13.922 -0.4668  0.0354 -0.4616
 2356Sol     MW10174   0.437   2.995  13.984 -0.1068 -0.1740 -0.4676
 2357Sol     OW10175   0.587   1.564   6.545 -0.4711  0.0133 -0.1281
 2357Sol     HW10176   0.578   1.478   6.504  1.4442 -0.5675  0.6042
 2357Sol     HW10177   0.525   1.619   6.499 -0.8966 -1.4898 -1.3937
 2357Sol     MW10178   0.581   1.561   6.537 -0.6749  0.5274  0.1784
 2358Sol     OW10179   2.735   1.394  10.105 -0.1943 -0.2363  0.2799
 2358Sol     HW10180   2.695   1.480  10.100  0.9948  0.3172 -0.0079
 2358Sol     HW10181   2.752   1.370  10.014  3.2164  1.0556  0.4889
 2358Sol     MW10182   2.733   1.400  10.096 -0.0270  0.8499  0.1816
 2359Sol     OW10183   1.184   2.414  10.714 -0.5350  0.2192  0.7931
 2359Sol     HW10184   1.237   2.462  10.777  0.9503  2.4195 -2.0091
 2359Sol     HW10185   1.102   2.462  10.709  0.4165  1.7271 -0.9629
 2359Sol     MW10186   1.182   2.422  10.719  0.5733  0.3117  0.5975
 2360Sol     OW10187   2.194   2.795   6.456  0.6588  0.2934  0.1667
 2360Sol     HW10188   2.264   2.805   6.392  1.2090  0.6405  0.8109
 2360Sol     HW10189   2.212   2.711   6.499 -0.6364 -0.7273 -1.2372
 2360Sol     MW10190   2.202   2.789   6.454  0.0215  0.1885  0.3186
 2361Sol     OW10191   1.259   2.706   7.615  0.5723  0.1730  0.1366
 2361Sol     HW10192   1.346   2.671   7.635  0.3311  0.7082  2.2806
 2361Sol     HW10193   1.199   2.638   7.645  0.2350  0.2521 -0.3669
 2361Sol     MW10194   1.261   2.697   7.620 -0.4035  0.0177 -0.1432
 2362Sol     OW10195   3.065   2.799  12.424  1.1287  0.4174  0.5178
 2362Sol     HW10196   3.017   2.880  12.407  0.6024 -0.0104 -0.0915
 2362Sol     HW10197   3.073   2.758  12.337  1.6388 -0.0467  0.7808
 2362Sol     MW10198   3.062   2.802  12.414 -0.0652  0.5358 -0.5131
 2363Sol     OW10199   1.789   2.381  12.905  1.0356 -0.0768 -0.1786
 2363Sol     HW10200   1.815   2.439  12.833 -0.7781 -1.2953 -1.8842
 2363Sol     HW10201   1.834   2.298  12.887  1.5774 -0.0132  0.8189
 2363Sol     MW10202   1.796   2.378  12.897 -0.0014  0.5258 -0.0939
 2364Sol     OW10203   0.684   1.538  13.365 -0.1680  0.2386 -0.2565
 2364Sol     HW10204   0.697   1.465  13.425  0.1336  0.9520  0.5481
 2364Sol     HW10205   0.589   1.543  13.354 -0.3727  1.3359  1.7161
 2364Sol     MW10206   0.677   1.532  13.369 -0.7144 -0.2805 -0.2821
 2365Sol     OW10207   2.406   1.550   8.328 -0.9705 -0.1541 -0.5613
 2365Sol     HW10208   2.404   1.510   8.241 -1.1134 -1.6229  0.0977
 2365Sol     HW10209   2.345   1.498   8.379  0.6768 -0.6247  0.9639
 2365Sol     MW10210   2.400   1.542   8.324  0.2598 -0.6895 -0.3454
 2366Sol     OW10211   1.728   1.694  13.307  0.4953 -0.2999  0.2880
 2366Sol     HW10212   1.724   1.789  13.294 -0.3116 -0.2941  0.5265
 2366Sol     HW10213   1.705   1.681  13.399 -1.0316 -0.8240 -0.1529
 2366Sol     MW10214   1.725   1.701  13.314 -0.5780  0.0518 -0.0606
 2367Sol     OW10215   1.172   1.272   8.601 -0.0682 -0.2350 -0.2504
 2367Sol     HW10216   1.124   1.351   8.626 -1.2657 -1.0386  0.0054
 2367Sol     HW10217   1.202   1.235   8.684  1.3371  0.4575 -0.4281
 2367Sol     MW10218   1.170   1.276   8.611 -0.2700 -0.2026 -0.7742
 2368Sol     OW10219   0.317   0.893   8.392  0.0822 -0.3878  0.3905
 2368Sol     HW10220   0.405   0.927   8.381 -0.3184  0.5149 -0.0218
 2368Sol     HW10221   0.267   0.929   8.319 -1.2362  1.1690  2.0119
 2368Sol     MW10222   0.320   0.899   8.385  0.6565  0.3567 -0.5577
 2369Sol     OW10223   1.687   3.004   8.327 -0.2758 -0.0979  0.2908
 2369Sol     HW10224   1.742   2.933   8.359  0.9742 -0.4881 -2.6324
 2369Sol     HW10225   1.741   3.082   8.335 -0.6675  0.1075  0.9513
 2369Sol     MW10226   1.697   3.004   8.330  0.0003  0.1040 -0.1313
 2370Sol     OW10227   0.247   3.259   7.412  0.5788  0.3515 -0.1801
 2370Sol     HW10228   0.280   3.262   7.501 -1.2470  0.1646  0.5250
 2370Sol     HW10229   0.265   3.169   7.383  1.1647  0.4108 -0.0031
 2370Sol     MW10230   0.251   3.251   7.417 -0.4486 -0.1249  0.4311
 2371Sol     OW10231   2.744   1.586   8.068  0.0897  0.0675 -0.5863
 2371Sol     HW10232   2.825   1.633   8.047  0.4710 -0.2730  0.1194
 2371Sol     HW10233   2.704   1.637   8.139  0.9005 -1.0935  0.7298
 2371Sol     MW10234   2.748   1.595   8.072  0.7252  0.0235  0.2763
 2372Sol     OW10235   0.002   1.559   6.678 -0.4924  0.3862 -0.0861
 2372Sol     HW10236   0.074   1.546   6.615 -0.5341 -1.4043  0.1877
 2372Sol     HW10237   0.046   1.566   6.763 -0.5693  0.5505 -0.0607
 2372Sol     MW10238   0.013   1.558   6.680 -0.0912  0.2521 -0.4532
 2373Sol     OW10239   2.953   2.446   7.589 -0.4648  0.2266  0.1863
 2373Sol     HW10240   2.952   2.401   7.673 -1.8928  0.8856  0.5439
 2373Sol     HW10241   2.879   2.506   7.593  0.4122  1.4173 -0.9224
 2373Sol     MW10242   2.946   2.447   7.597 -0.3778  0.3263 -0.6994
 2374Sol     OW10243   2.304   0.690   6.866  0.0452 -0.6315 -0.1402
 2374Sol     HW10244   2.245   0.760   6.837  0.6809  0.0851  0.2672
 2374Sol     HW10245   2.292   0.620   6.803 -0.2189  0.0498 -0.8503
 2374Sol     MW10246   2.298   0.690   6.858  0.6242 -0.1719 -0.7819
 2375Sol     OW10247   1.448   3.068   6.642  0.0926 -0.3141  0.0361
 2375Sol     HW10248   1.505   3.143   6.625 -1.0882  0.8628  1.1405
 2375Sol     HW10249   1.420   3.040   6.555  1.3050 -0.0795 -0.4444
 2375Sol     MW10250   1.450   3.073   6.633  0.4716  0.0317  0.1543
 2376Sol     OW10251   1.727   0.959   9.122 -0.1161 -0.2231  0.0910
 2376Sol     HW10252   1.735   0.871   9.086 -2.2236 -0.4896  0.2036
 2376Sol     HW10253   1.813   0.998   9.110  0.4594 -1.8400 -1.1730
 2376Sol     MW10254   1.735   0.954   9.118  0.2687  0.2167  0.1513
 2377Sol     OW10255   2.163   1.311  13.418 -1.0266 -0.2581 -0.0677
 2377Sol     HW10256   2.124   1.227  13.395 -0.1340 -0.7358  0.1176
 2377Sol     HW10257   2.245   1.314  13.367 -0.7986  0.2660  0.3233
 2377Sol     MW10258   2.167   1.304  13.411  0.6897 -0.1009  0.5890
 2378Sol     OW10259   1.425   1.329   9.056  0.7654  0.1524 -0.2277
 2378Sol     HW10260   1.357   1.371   9.110  1.0941  0.0821  0.2470
 2378Sol     HW10261   1.446   1.248   9.103  1.8863  0.6553  0.1572
 2378Sol     MW10262   1.421   1.326   9.065  0.4003  0.3354  0.4248
 2379Sol     OW10263   2.500   0.994   9.348 -0.4013 -0.6102  0.2546
 2379Sol     HW10264   2.434   1.030   9.407 -1.1836  1.3188 -1.7371
 2379Sol     HW10265   2.582   1.036   9.374 -0.6216 -0.2985  0.4451
 2379Sol     MW10266   2.501   1.001   9.355  0.3168 -1.2103  0.0690
 2380Sol     OW10267   2.521   0.052   9.327  0.5695 -0.0320 -0.4311
 2380Sol     HW10268   2.592   0.081   9.385  0.0049  1.0995 -0.2838
 2380Sol     HW10269   2.529   0.108   9.250  0.5559 -0.7040 -0.9231
 2380Sol     MW10270   2.528   0.060   9.325 -0.4291  0.2633  0.3917
 2381Sol     OW10271   1.843   0.681  12.177 -0.5436 -0.1337  0.0715
 2381Sol     HW10272   1.855   0.635  12.094 -1.0142 -0.2930  0.0944
 2381Sol     HW10273   1.760   0.649  12.211 -0.3325 -0.0942  0.6261
 2381Sol     MW10274   1.837   0.674  12.172 -0.1856 -0.2252  0.1282
 2382Sol     OW10275   1.839   2.813   8.906  0.1327 -0.1655  0.0726
 2382Sol     HW10276   1.896   2.752   8.954 -1.5933 -1.0687  1.0526
 2382Sol     HW10277   1.812   2.876   8.973  0.1920  0.4136 -0.4525
 2382Sol     MW10278   1.842   2.813   8.917 -0.3638 -0.0649  0.1251
 2383Sol     OW10279   0.718   0.189   8.972  0.2092 -0.5548 -0.6712
 2383Sol     HW10280   0.725   0.112   9.028 -0.9671 -1.9281 -2.3528
 2383Sol     HW10281   0.802   0.234   8.983  1.5809 -2.9783 -0.9415
 2383Sol     MW10282   0.726   0.186   8.978 -0.2257 -0.0311  0.4671
 2384Sol     OW10283   2.383   3.030   6.148 -0.1035 -0.4708 -0.3171
 2384Sol     HW10284   2.404   3.029   6.241  0.7891  2.2613 -0.4462
 2384Sol     HW10285   2.292   3.058   6.143  0.1029  0.2177 -0.2859
 2384Sol     MW10286   2.377   3.032   6.156 -0.2390 -0.1677  0.1588
 2385Sol     OW10287   1.475   2.300   8.443 -0.1121 -0.5221  0.0885
 2385Sol     HW10288   1.439   2.223   8.487 -0.0265 -0.6608 -0.0850
 2385Sol     HW10289   1.569   2.297   8.464 -0.1223 -0.4191  0.1508
 2385Sol     MW10290   1.480   2.292   8.449 -0.2521 -0.2712  0.2679
 2386Sol     OW10291   2.637   2.058  12.192 -0.0588  1.1019  0.0625
 2386Sol     HW10292   2.550   2.043  12.157  0.3272  0.1542 -0.4994
 2386Sol     HW10293   2.688   2.092  12.118  0.4338  0.2445 -0.0045
 2386Sol     MW10294   2.634   2.060  12.182  0.0110 -0.2391 -1.1369
 2387Sol     OW10295   0.614   2.480  10.520 -0.0460  0.6142 -0.0222
 2387Sol     HW10296   0.668   2.405  10.546  1.3088  0.8691 -1.9321
 2387Sol     HW10297   0.565   2.448  10.444  1.0533  1.8523 -1.2728
 2387Sol     MW10298   0.615   2.470  10.515  0.3273  0.3939  0.1605
 2388Sol     OW10299   1.753   0.244   8.564  0.0627 -0.2186 -0.1980
 2388Sol     HW10300   1.795   0.190   8.497  1.4030 -0.5187  0.8604
 2388Sol     HW10301   1.702   0.183   8.617  1.3866 -0.4404  0.8530
 2388Sol     MW10302   1.752   0.234   8.563 -0.4724 -0.8272  0.2933
 2389Sol     OW10303   0.500   2.779   7.706 -0.3576 -0.4772 -0.1876
 2389Sol     HW10304   0.440   2.839   7.751 -2.8582 -2.0528 -1.3145
 2389Sol     HW10305   0.485   2.695   7.749 -0.3225 -1.2804 -1.7408
 2389Sol     MW10306   0.493   2.777   7.714 -0.4579 -0.4083 -0.7582
 2390Sol     OW10307   0.660   2.147  13.383 -0.0535  0.3119 -0.7211
 2390Sol     HW10308   0.629   2.071  13.334  0.1823  1.4333 -2.6467
 2390Sol     HW10309   0.670   2.215  13.317  2.7220  1.1332  0.4877
 2390Sol     MW10310   0.658   2.146  13.373 -0.3282  0.0999  0.7023
 2391Sol     OW10311   2.717   3.050   6.393 -0.1495 -0.0622  0.2040
 2391Sol     HW10312   2.732   3.120   6.330  0.4697 -0.6042 -0.2624
 2391Sol     HW10313   2.719   3.094   6.478 -0.8700  0.6500 -0.1409
 2391Sol     MW10314   2.719   3.060   6.395  0.5538 -0.5599  0.2854
 2392Sol     OW10315   0.543   2.670   6.844  0.4501  0.0963  0.7053
 2392Sol     HW10316   0.625   2.667   6.892  0.9031  0.5051 -0.0230
 2392Sol     HW10317   0.481   2.622   6.898  1.8638 -2.7541 -0.1136
 2392Sol     MW10318   0.545   2.666   6.853  0.2981 -0.2178  0.7635
 2393Sol     OW10319   2.841   1.632  11.440  0.2481 -0.1826  0.0485
 2393Sol     HW10320   2.869   1.711  11.393 -0.9010 -0.4150 -1.0742
 2393Sol     HW10321   2.883   1.560  11.392  0.9608 -0.2948  0.8205
 2393Sol     MW10322   2.847   1.633  11.431 -0.3389  0.0505  0.5301
 2394Sol     OW10323   3.007   1.571  11.219  0.0109 -0.3926  0.7283
 2394Sol     HW10324   3.066   1.604  11.152  0.6107 -1.4253  0.7319
 2394Sol     HW10325   3.053   1.587  11.301 -0.6462  0.7126  0.8793
 2394Sol     MW10326   3.017   1.575  11.220 -0.1282  0.7247  0.2423
 2395Sol     OW10327   0.292   2.843   9.385 -0.4090  0.5599  0.0440
 2395Sol     HW10328   0.259   2.931   9.400 -0.7155  0.3367  0.6632
 2395Sol     HW10329   0.350   2.826   9.458 -1.3311 -0.2329  0.6065
 2395Sol     MW10330   0.294   2.849   9.393 -0.9408 -0.2413 -0.4021
 2396Sol     OW10331   2.369   2.751  10.874  0.4619 -0.4185 -0.1934
 2396Sol     HW10332   2.406   2.834  10.902 -0.5634 -0.2696  0.7708
 2396Sol     HW10333   2.408   2.734  10.788  1.3978  0.5823  0.0328
 2396Sol     MW10334   2.375   2.757  10.869 -0.4847  0.5873  0.6821
 2397Sol     OW10335   2.122   0.991  14.070 -0.4899  0.2962  0.3458
 2397Sol     HW10336   2.056   1.058  14.086  0.8197  1.6685  0.0916
 2397Sol     HW10337   2.121   0.978  13.975  0.5747  1.3687  0.1668
 2397Sol     MW10338   2.116   0.996  14.063 -0.1511  0.0386 -0.3338
 2398Sol     OW10339   2.524   1.319  14.027  0.4185 -0.2211 -0.5819
 2398Sol     HW10340   2.616   1.322  14.050  0.4008 -1.7956 -0.2576
 2398Sol     HW10341   2.499   1.411  14.016  1.7284  0.2743  0.4399
 2398Sol     MW10342   2.530   1.328  14.028 -1.1913 -0.2549  0.0390
 2399Sol     OW10343   2.213   1.080   9.937 -0.1098 -0.1545  0.0467
 2399Sol     HW10344   2.200   1.162   9.985 -0.5394 -0.4198  0.3919
 2399Sol     HW10345   2.304   1.082   9.909 -0.6072  1.2752 -1.5142
 2399Sol     MW10346   2.220   1.087   9.939  0.2781 -0.2047 -0.5369
 2400Sol     OW10347   3.001   0.105  11.459 -0.4299 -0.1547  0.1738
 2400Sol     HW10348   3.039   0.191  11.441 -3.2483  0.8938 -1.0901
 2400Sol     HW10349   3.014   0.056  11.379  2.1038 -1.3088  1.2498
 2400Sol     MW10350   3.005   0.109  11.450  0.0869  0.5235 -0.0923
 2401Sol     OW10351   0.703   1.319   7.897  0.6949  0.3186  0.5321
 2401Sol     HW10352   0.794   1.343   7.884  0.7923  1.1743  2.7166
 2401Sol     HW10353   0.702   1.265   7.976 -0.5151 -0.8168 -0.2324
 2401Sol     MW10354   0.711   1.316   7.903 -0.5002  0.1265  0.0221
 2402Sol     OW10355   3.298   1.211   8.700 -0.0366  0.0708 -0.0118
 2402Sol     HW10356   3.357   1.138   8.721  0.0804  0.8401  2.4352
 2402Sol     HW10357   3.212   1.171   8.692  0.5649 -0.8462 -2.1724
 2402Sol     MW10358   3.296   1.201   8.701  0.1021 -0.1145  0.4077
 2403Sol     OW10359   3.074   1.592   9.136 -0.4377 -0.2228 -0.4993
 2403Sol     HW10360   2.994   1.596   9.082  0.3634  1.7205 -1.5966
 2403Sol     HW10361   3.094   1.683   9.155  0.3387 -0.8035  1.6038
 2403Sol     MW10362   3.068   1.600   9.133 -0.6871  0.0002 -0.0557
 2404Sol     OW10363   0.994   3.226   9.515  0.1408 -0.2592  0.3164
 2404Sol     HW10364   0.903   3.222   9.487  0.3291  0.7222 -0.4636
 2404Sol     HW10365   1.031   3.141   9.491 -0.9011 -1.1722  1.8592
 2404Sol     MW10366   0.989   3.218   9.510 -1.0210  0.2952 -0.4244
 2405Sol     OW10367   0.016   1.503  10.652  0.0394  0.0609 -0.1938
 2405Sol     HW10368   0.054   1.578  10.606 -1.5166  0.5646 -0.6599
 2405Sol     HW10369  -0.071   1.532  10.678 -0.7713 -1.7640 -0.8350
 2405Sol     MW10370   0.012   1.512  10.650 -0.3923  0.6780 -0.1407
 2406Sol     OW10371   2.724   0.775  10.236  0.1229 -0.6717  0.0322
 2406Sol     HW10372   2.706   0.810  10.323  0.6550  0.1553 -0.1805
 2406Sol     HW10373   2.819   0.766  10.234  0.2897  0.9946 -1.0777
 2406Sol     MW10374   2.731   0.778  10.244 -0.3575  0.2274 -0.5750
 2407Sol     OW10375   1.975   0.803  11.284 -0.0953 -0.3585 -0.0101
 2407Sol     HW10376   2.030   0.797  11.362 -0.4084  1.9090  0.4054
 2407Sol     HW10377   1.921   0.881  11.298 -2.0030 -1.3909 -1.3294
 2407Sol     MW10378   1.975   0.809  11.292 -0.0336 -0.1605  0.2720
 2408Sol     OW10379   3.212   0.088  10.350  0.3721 -0.1907  0.4373
 2408Sol     HW10380   3.116   0.090  10.357  0.3387 -0.6617  0.1370
 2408Sol     HW10381   3.231   0.004  10.309  0.8843  0.1245  0.0216
 2408Sol     MW10382   3.205   0.081  10.347 -0.0659  0.2900  0.2773
 2409Sol     OW10383   1.154   3.143  12.809  0.1650 -0.5523  0.2019
 2409Sol     HW10384   1.068   3.138  12.769 -0.4626  0.5917  1.3529
 2409Sol     HW10385   1.147   3.092  12.889 -0.0574  1.1422  1.3003
 2409Sol     MW10386   1.146   3.138  12.813  0.2962  0.2754  0.1447
 2410Sol     OW10387   0.871   1.363  12.285  0.4854 -0.3805  0.1316
 2410Sol     HW10388   0.953   1.405  12.312  0.7349 -0.7814  0.0045
 2410Sol     HW10389   0.897   1.273  12.262 -0.0144 -0.5525  0.2389
 2410Sol     MW10390   0.881   1.358  12.285 -0.6633 -0.5929  0.2418
 2411Sol     OW10391   0.317   2.044   7.404 -0.1964 -0.1737  0.1029
 2411Sol     HW10392   0.307   1.956   7.441 -1.1592 -0.4530 -0.8077
 2411Sol     HW10393   0.263   2.043   7.325  1.4623  0.5630 -1.0713
 2411Sol     MW10394   0.312   2.036   7.400  0.0739  0.5901  0.9803
 2412Sol     OW10395   0.273   1.303   6.903  0.1776  0.1597  0.0404
 2412Sol     HW10396   0.203   1.281   6.842 -0.6938  1.6843  0.4776
 2412Sol     HW10397   0.349   1.319   6.847  0.3306 -1.9733 -0.4077
 2412Sol     MW10398   0.274   1.302   6.892  0.1272 -0.0918  0.0998
 2413Sol     OW10399   2.844   1.945   9.483  0.6959  0.4102 -0.0193
 2413Sol     HW10400   2.839   2.038   9.461 -0.8083  0.8440  2.0235
 2413Sol     HW10401   2.921   1.937   9.538 -1.0010  1.0762  2.5346
 2413Sol     MW10402   2.850   1.952   9.486 -0.2081 -0.5862  0.1446
 2414Sol     OW10403   1.050   1.530   8.720  0.2916 -0.4065 -0.1666
 2414Sol     HW10404   1.025   1.488   8.802 -0.2949  2.1284  1.0288
 2414Sol     HW10405   0.979   1.593   8.704  0.0118 -1.4073 -3.0237
 2414Sol     MW10406   1.041   1.532   8.726  1.1769 -0.0550  0.1297
 2415Sol     OW10407   0.407   0.297  12.802  0.0193  0.2886 -0.6422
 2415Sol     HW10408   0.312   0.301  12.788 -0.2791  2.2202  1.5903
 2415Sol     HW10409   0.421   0.214  12.848 -0.6368  0.2321 -0.5412
 2415Sol     MW10410   0.400   0.290  12.805 -0.5885  0.6224  0.6906
 2416Sol     OW10411   0.766   2.883  11.265 -0.3869 -0.3755 -0.3517
 2416Sol     HW10412   0.845   2.844  11.304 -1.2647 -1.6239  0.2013
 2416Sol     HW10413   0.738   2.948  11.330  0.4796  0.4538 -0.7945
 2416Sol     MW10414   0.771   2.885  11.275 -1.1575  0.4405  0.0324
 2417Sol     OW10415   2.190   1.843   6.525  0.2549  0.3360 -0.4164
 2417Sol     HW10416   2.130   1.917   6.529  0.2176  0.2266  1.8991
 2417Sol     HW10417   2.167   1.797   6.444 -1.6195  1.2479 -0.4180
 2417Sol     MW10418   2.183   1.845   6.518  0.0151 -0.0658 -0.1132
 2418Sol     OW10419   0.827   1.739   9.486  0.0593 -0.4181  0.8100
 2418Sol     HW10420   0.814   1.799   9.412  1.2800 -1.3159 -0.1556
 2418Sol     HW10421   0.771   1.664   9.465  0.2330 -0.5728  0.9012
 2418Sol     MW10422   0.821   1.738   9.477  0.2504  0.2291  0.4831
 2419Sol     OW10423   1.308   0.592   6.866  0.0933 -0.0774  0.1411
 2419Sol     HW10424   1.271   0.624   6.949  1.0982  4.4921 -1.0099
 2419Sol     HW10425   1.234   0.584   6.807 -0.3001 -0.8296  0.7346
 2419Sol     MW10426   1.298   0.594   6.869  0.5601 -0.7553  0.3737
 2420Sol     OW10427   0.857   1.782   8.659 -0.3164 -0.3269 -0.1125
 2420Sol     HW10428   0.870   1.833   8.739  0.5564  0.2393 -0.5997
 2420Sol     HW10429   0.770   1.807   8.628  0.4834  1.6186 -0.8615
 2420Sol     MW10430   0.850   1.789   8.664 -0.0733  0.3456  0.5806
 2421Sol     OW10431   0.513   1.749  12.398 -0.2529 -0.3397  0.1681
 2421Sol     HW10432   0.431   1.707  12.373 -0.2082 -1.1864  1.4109
 2421Sol     HW10433   0.579   1.680  12.393  0.0971 -0.0539  0.7542
 2421Sol     MW10434   0.512   1.739  12.396  0.3561  0.0631 -0.3578
 2422Sol     OW10435   1.357   2.728  13.537  0.6812  0.4183 -0.5518
 2422Sol     HW10436   1.406   2.784  13.597  1.0699 -0.6019  0.0841
 2422Sol     HW10437   1.422   2.672  13.496  0.3084  0.5158 -1.2931
 2422Sol     MW10438   1.367   2.728  13.538 -0.2823 -0.9777 -0.2285
 2423Sol     OW10439   1.055   2.649  12.998 -0.2965  0.0572  0.1589
 2423Sol     HW10440   1.024   2.700  13.073  0.6466 -1.6885  1.7751
 2423Sol     HW10441   1.139   2.614  13.026 -0.8703 -2.2863 -0.9396
 2423Sol     MW10442   1.059   2.650  13.007  0.1534 -0.2185 -0.1540
 2424Sol     OW10443   0.212   0.603  13.361 -0.2301  0.5723  0.8803
 2424Sol     HW10444   0.162   0.607  13.280 -1.4314  1.8044  1.6553
 2424Sol     HW10445   0.303   0.615  13.334 -0.2515 -2.2876 -0.6163
 2424Sol     MW10446   0.216   0.605  13.352  0.2454  0.0999  0.1766
 2425Sol     OW10447   1.470   1.754   7.876  0.4096 -0.3737 -0.3180
 2425Sol     HW10448   1.424   1.835   7.856 -0.6429 -0.7750  0.4106
 2425Sol     HW10449   1.558   1.766   7.840  0.4156  1.2745  0.2332
 2425Sol     MW10450   1.474   1.762   7.871 -0.6738 -0.2905 -0.2056
 2426Sol     OW10451   1.914   0.144   7.388  0.3429 -0.4018  0.2164
 2426Sol     HW10452   1.917   0.185   7.302  0.0113  1.0050  0.8601
 2426Sol     HW10453   1.988   0.182   7.435 -0.8406  0.5909  1.3101
 2426Sol     MW10454   1.921   0.151   7.385 -0.1678 -0.5072 -0.2388
 2427Sol     OW10455   0.357   2.503   7.593 -0.4841 -0.0886  0.0574
 2427Sol     HW10456   0.268   2.538   7.584 -1.0079 -0.4475  3.1861
 2427Sol     HW10457   0.347   2.409   7.578 -0.7321 -0.2061  0.9504
 2427Sol     MW10458   0.348   2.498   7.591  0.2812  0.1334  0.0918
 2428Sol     OW10459   1.650   0.825   7.192 -0.1214 -0.1583 -0.1400
 2428Sol     HW10460   1.677   0.741   7.228  1.1759  0.0350 -0.6159
 2428Sol     HW10461   1.617   0.805   7.105  2.2679  0.0404 -1.1558
 2428Sol     MW10462   1.650   0.816   7.188 -0.1825 -0.1385  0.7525
 2429Sol     OW10463   0.567   1.711  13.938  0.0994  0.1864  0.3738
 2429Sol     HW10464   0.480   1.696  13.974 -0.0314 -0.2977 -0.1290
 2429Sol     HW10465   0.623   1.726  14.014 -0.2714 -0.2978  0.7459
 2429Sol     MW10466   0.564   1.711  13.948 -0.1847  0.3743 -0.3591
 2430Sol     OW10467   1.558   2.175   6.774  0.0374  0.1174  0.8950
 2430Sol     HW10468   1.571   2.180   6.868  0.0074 -0.2266  0.9177
 2430Sol     HW10469   1.586   2.087   6.750 -1.0426 -0.1995  0.7555
 2430Sol     MW10470   1.562   2.168   6.780 -0.5815 -0.0171 -0.1956
 2431Sol     OW10471   0.099   3.405   6.831 -0.0200 -0.1389 -0.1882
 2431Sol     HW10472   0.182   3.360   6.817 -0.4633 -0.2931 -2.5675
 2431Sol     HW10473   0.058   3.408   6.744 -2.5779 -0.2124  0.9458
 2431Sol     MW10474   0.102   3.401   6.822 -0.5507  0.2056 -0.0581
 2432Sol     OW10475   0.133   2.633  13.238  0.2024  0.2529 -0.4679
 2432Sol     HW10476   0.210   2.623  13.293 -1.4894  0.2073  1.9521
 2432Sol     HW10477   0.107   2.544  13.216 -0.1391  0.2007  0.1336
 2432Sol     MW10478   0.137   2.624  13.241 -0.3734  0.0247 -0.1665
 2433Sol     OW10479   2.301   2.408   7.620 -0.0665 -0.3537  0.1575
 2433Sol     HW10480   2.251   2.408   7.538  1.3721 -2.3409 -0.7775
 2433Sol     HW10481   2.284   2.322   7.658  1.0392 -0.2962  0.8082
 2433Sol     MW10482   2.295   2.400   7.616  0.3115  0.5588 -0.6685
 2434Sol     OW10483   0.121   0.266  12.792 -0.4055 -0.7540  0.3407
 2434Sol     HW10484   0.121   0.172  12.776 -2.2928 -1.2486  2.9658
 2434Sol     HW10485   0.052   0.300  12.734  1.2205 -0.7423 -1.6474
 2434Sol     MW10486   0.114   0.261  12.785  0.8091  0.8561 -0.5125
 2435Sol     OW10487   3.051   3.152  13.123 -0.1548 -0.8805  0.3699
 2435Sol     HW10488   3.027   3.198  13.043  1.0432 -0.4008  0.2690
 2435Sol     HW10489   3.136   3.111  13.103  1.9780  2.2353  2.5111
 2435Sol     MW10490   3.057   3.152  13.114  0.0437  0.5880  0.3843
 2436Sol     OW10491   0.779   2.921   8.552 -0.2083 -0.0427 -0.1219
 2436Sol     HW10492   0.776   3.010   8.516 -0.9137 -0.4414 -1.0748
 2436Sol     HW10493   0.707   2.875   8.508 -0.0672 -0.9881  0.6218
 2436Sol     MW10494   0.772   2.925   8.545  0.3604  0.1380  0.6860
 2437Sol     OW10495   1.197   1.568  13.221  0.2885  0.3997  0.1223
 2437Sol     HW10496   1.192   1.473  13.212  0.4127  0.4481 -0.4736
 2437Sol     HW10497   1.235   1.582  13.308 -0.9820 -0.0753  0.7537
 2437Sol     MW10498   1.200   1.561  13.228 -0.2910 -0.5389  0.4379
 2438Sol     OW10499   0.474   0.935  11.371  0.2139 -0.0460 -0.2943
 2438Sol     HW10500   0.484   0.859  11.313 -0.2831 -1.4745  1.4370
 2438Sol     HW10501   0.386   0.924  11.408  0.4622  0.9404  0.5943
 2438Sol     MW10502   0.467   0.927  11.369 -0.1226  0.0494  0.2133
 2439Sol     OW10503   1.159   1.521   7.555  0.0939  0.1674 -0.0898
 2439Sol     HW10504   1.206   1.601   7.578 -1.3293  1.0571 -0.2178
 2439Sol     HW10505   1.070   1.536   7.584 -0.0217 -1.7033  0.6179
 2439Sol     MW10506   1.156   1.529   7.560  0.5434 -0.3587 -0.2498
 2440Sol     OW10507   2.027   1.093  13.388 -0.0482  0.2636 -0.3803
 2440Sol     HW10508   2.077   1.015  13.412 -2.1689 -1.0951 -0.3225
 2440Sol     HW10509   2.029   1.094  13.292  0.7998  0.7065 -0.3686
 2440Sol     MW10510   2.032   1.086  13.381 -0.3581 -0.1190  0.5312
 2441Sol     OW10511   2.363   2.586  11.630  0.1247  0.4323  0.7230
 2441Sol     HW10512   2.437   2.580  11.690 -0.2335 -0.8115  1.0404
 2441Sol     HW10513   2.367   2.507  11.577  0.8285  1.8197 -1.3893
 2441Sol     MW10514   2.370   2.579  11.630 -0.6422  0.2354 -0.3240
 2442Sol     OW10515   2.174   0.137  14.165 -0.4278  0.7365 -0.2214
 2442Sol     HW10516   2.204   0.101  14.081  0.5223  1.8431 -0.3734
 2442Sol     HW10517   2.082   0.158  14.150 -0.4368  0.2962 -0.7857
 2442Sol     MW10518   2.168   0.136  14.156  0.0203  0.3271  0.0648
 2443Sol     OW10519   0.249   0.222   7.461  0.3631  0.2107 -0.0003
 2443Sol     HW10520   0.298   0.272   7.526 -0.4068  0.4343  0.4158
 2443Sol     HW10521   0.311   0.157   7.428  0.4920 -0.4791  1.5962
 2443Sol     MW10522   0.259   0.221   7.464  0.1264 -0.0859  0.1372
 2444Sol     OW10523   2.546   2.501   8.296 -0.3213 -0.2797 -0.2061
 2444Sol     HW10524   2.632   2.506   8.255 -1.0350  0.5775 -1.6729
 2444Sol     HW10525   2.542   2.577   8.354 -0.2714 -0.0176 -0.5405
 2444Sol     MW10526   2.553   2.508   8.297  0.2425 -0.5146  0.1244
 2445Sol     OW10527   1.871   3.052  13.495  0.0879 -0.2473 -0.9863
 2445Sol     HW10528   1.818   2.975  13.515 -0.6675  1.1447  2.7708
 2445Sol     HW10529   1.961   3.020  13.496 -0.3089 -1.3692 -0.8445
 2445Sol     MW10530   1.875   3.042  13.497  0.0193  0.7381  1.0730
 2446Sol     OW10531   2.629   3.407   6.673 -0.1384 -0.4909 -0.0980
 2446Sol     HW10532   2.613   3.452   6.590 -0.5904  1.2988  0.9457
 2446Sol     HW10533   2.701   3.455   6.714  1.0592 -2.2376 -0.0728
 2446Sol     MW10534   2.634   3.415   6.669 -0.8353 -0.3625 -0.1184
 2447Sol     OW10535   2.718   1.050  11.952  0.0038 -0.0135 -0.0352
 2447Sol     HW10536   2.770   1.127  11.929 -0.1498 -0.4912 -2.0808
 2447Sol     HW10537   2.630   1.069  11.920 -0.5076 -0.2591  1.1680
 2447Sol     MW10538   2.715   1.058  11.947  0.3541  0.2464  0.7544
 2448Sol     OW10539   2.147   1.092  12.415 -0.0368  0.3018  0.2244
 2448Sol     HW10540   2.156   1.033  12.340  2.7350  0.3294  0.4576
 2448Sol     HW10541   2.207   1.164  12.395 -0.2393  0.9442  1.8609
 2448Sol     MW10542   2.153   1.093  12.407 -0.4645 -0.2541 -0.0014
 2449Sol     OW10543   2.290   2.865  11.892  0.9980  0.5892 -0.0945
 2449Sol     HW10544   2.234   2.787  11.894  0.5257  0.9437  0.3387
 2449Sol     HW10545   2.370   2.839  11.938  1.0014  0.2358 -0.2998
 2449Sol     MW10546   2.293   2.856  11.896 -0.3744 -0.2545  0.0367
 2450Sol     OW10547   1.539   0.128   7.870 -0.1026 -0.3170 -0.0991
 2450Sol     HW10548   1.473   0.188   7.904  1.6935  1.6322  0.0487
 2450Sol     HW10549   1.498   0.087   7.794 -1.6794  0.4371  0.3370
 2450Sol     MW10550   1.530   0.130   7.866  0.5231 -0.7708  1.0969
 2451Sol     OW10551   2.826   0.860  14.022 -0.5583 -0.8943  0.3713
 2451Sol     HW10552   2.757   0.894  13.964  0.5295  1.6827  0.5063
 2451Sol     HW10553   2.891   0.823  13.963  1.2028  2.9526 -0.2540
 2451Sol     MW10554   2.825   0.860  14.011 -0.0107 -0.3095 -0.0342
 2452Sol     OW10555   3.009   1.464   8.839 -0.0476  0.1139  0.2197
 2452Sol     HW10556   3.013   1.522   8.763  1.3939 -0.9720 -0.5414
 2452Sol     HW10557   3.099   1.457   8.869 -0.2653 -1.4646  0.5310
 2452Sol     MW10558   3.017   1.469   8.835  0.2329  0.1605  0.7565
 2453Sol     OW10559   2.254   0.478  12.072  0.4017  0.4670  0.1165
 2453Sol     HW10560   2.196   0.516  12.005  0.9827 -0.5079 -0.9531
 2453Sol     HW10561   2.337   0.526  12.062  0.7081 -0.1596 -0.3234
 2453Sol     MW10562   2.256   0.486  12.065  0.1867  0.1660 -0.4034
 2454Sol     OW10563   3.250   0.284  13.959  0.0180  0.2979  0.4752
 2454Sol     HW10564   3.233   0.362  13.907 -1.6232 -0.0228  0.4958
 2454Sol     HW10565   3.329   0.246  13.922  0.5385  1.6992  0.1487
 2454Sol     MW10566   3.255   0.287  13.951  0.7709 -0.1148  0.3315
 2455Sol     OW10567   1.027   2.921  14.104 -0.0362 -0.3140  0.5672
 2455Sol     HW10568   0.966   2.860  14.145  2.0161 -1.9317  1.3306
 2455Sol     HW10569   1.113   2.894  14.136  1.0665  2.1492 -0.1562
 2455Sol     MW10570   1.029   2.914  14.110  0.1775 -0.6660 -0.3035
 2456Sol     OW10571   0.704   0.548   8.036 -0.3328  0.6410  0.6750
 2456Sol     HW10572   0.697   0.454   8.016  1.1984  0.1724  2.2306
 2456Sol     HW10573   0.712   0.590   7.951  1.9927 -0.9266  0.0597
 2456Sol     MW10574   0.704   0.543   8.027 -0.0050  0.4395  0.5637
 2457Sol     OW10575   1.054   1.807   9.620 -0.2217  0.4482  0.2680
 2457Sol     HW10576   0.977   1.803   9.563  0.8652  1.5028 -1.3424
 2457Sol     HW10577   1.089   1.895   9.606 -0.2544  0.9479  3.0749
 2457Sol     MW10578   1.050   1.815   9.613 -0.2756  0.3848  0.8563
 2458Sol     OW10579   2.738   1.812  12.145 -0.0040  0.5131  0.2375
 2458Sol     HW10580   2.741   1.904  12.169  1.2752  0.2895  0.9475
 2458Sol     HW10581   2.676   1.773  12.206  0.2590  0.6938  0.6159
 2458Sol     MW10582   2.732   1.816  12.152  0.0188  0.1003  0.8487
 2459Sol     OW10583   2.952   0.165  12.614  0.2575  0.0461  0.0204
 2459Sol     HW10584   2.958   0.259  12.631  0.0292 -0.2009  1.5750
 2459Sol     HW10585   2.923   0.159  12.523 -1.6632  1.5350  0.4917
 2459Sol     MW10586   2.950   0.173  12.608  0.3759 -0.6136 -0.2228
 2460Sol     OW10587   3.196   1.740   6.498 -0.1261 -0.3590  0.2450
 2460Sol     HW10588   3.269   1.783   6.454 -1.0633 -0.1351 -1.1342
 2460Sol     HW10589   3.238   1.675   6.555  1.2350  1.5731  1.4802
 2460Sol     MW10590   3.206   1.738   6.499  0.0382  0.1407 -0.7640
 2461Sol     OW10591   3.061   0.534   7.382 -0.0772 -0.2273 -0.7642
 2461Sol     HW10592   2.991   0.476   7.413  2.6071 -2.6147  1.0630
 2461Sol     HW10593   3.092   0.493   7.301 -0.0350  0.2202 -0.9797
 2461Sol     MW10594   3.058   0.525   7.377 -0.3858 -0.2694  0.7385
 2462Sol     OW10595   1.564   0.772   8.401 -0.4405  0.0620  0.4520
 2462Sol     HW10596   1.517   0.773   8.484 -0.7478  0.9899  0.2731
 2462Sol     HW10597   1.646   0.728   8.421 -0.2964  0.7296  1.3729
 2462Sol     MW10598   1.567   0.768   8.410  0.1696  0.7026 -0.6472
 2463Sol     OW10599   1.725   2.568   8.800  0.4474  0.7990 -0.8638
 2463Sol     HW10600   1.796   2.519   8.758  0.0254  0.7915 -1.5788
 2463Sol     HW10601   1.768   2.647   8.834  0.9963  0.2755 -0.3265
 2463Sol     MW10602   1.736   2.571   8.799  0.0085 -0.5126  0.0376
 2464Sol     OW10603   2.301   3.116   7.547  0.7341 -0.2396  0.5765
 2464Sol     HW10604   2.350   3.149   7.623  1.8727  2.4679 -1.2374
 2464Sol     HW10605   2.343   3.158   7.472 -1.4760 -1.4876 -1.4247
 2464Sol     MW10606   2.309   3.123   7.547 -0.2867  0.0876 -0.5581
 2465Sol     OW10607   0.075   1.877   6.376  0.0896  0.6407 -0.4044
 2465Sol     HW10608   0.164   1.845   6.365 -0.2263 -0.6714  0.7568
 2465Sol     HW10609   0.073   1.912   6.465 -0.7675 -0.0931 -0.1225
 2465Sol     MW10610   0.082   1.877   6.383 -0.1660  0.4968  0.2823
 2466Sol     OW10611   2.239   2.765   9.223  0.4399  0.3078 -0.0391
 2466Sol     HW10612   2.288   2.792   9.301  0.2768  0.4070  0.0279
 2466Sol     HW10613   2.284   2.810   9.151  0.8861 -0.1618 -0.0574
 2466Sol     MW10614   2.248   2.771   9.224  0.1904  0.1678 -0.1873
 2467Sol     OW10615   0.465   3.302   8.168 -0.1431  0.2260  0.5566
 2467Sol     HW10616   0.432   3.227   8.117  0.0718 -0.7779  1.8813
 2467Sol     HW10617   0.398   3.316   8.235  0.2898  0.6081  0.9041
 2467Sol     MW10618   0.456   3.296   8.169  0.1948  0.0542  0.5002
 2468Sol     OW10619   1.825   2.327   6.398  0.1421 -0.1180 -0.0503
 2468Sol     HW10620   1.744   2.278   6.415 -0.1545  0.2785 -0.3004
 2468Sol     HW10621   1.879   2.267   6.347 -0.5347  0.0886 -1.0357
 2468Sol     MW10622   1.822   2.317   6.395 -1.1970  0.5957  0.0179
 2469Sol     OW10623   1.943   0.548   6.463  0.2061  0.5994 -0.4204
 2469Sol     HW10624   1.916   0.488   6.533  0.5219  0.2461 -0.6030
 2469Sol     HW10625   1.963   0.491   6.389  2.4614  0.7679  0.0239
 2469Sol     MW10626   1.942   0.537   6.463  0.1771  0.1238 -0.0168
 2470Sol     OW10627   0.967   2.495   6.514 -0.1901  0.2034  0.3750
 2470Sol     HW10628   0.983   2.557   6.585 -3.0471 -0.1428  1.3925
 2470Sol     HW10629   0.939   2.549   6.441 -0.6671  0.2642  0.6057
 2470Sol     MW10630   0.966   2.505   6.514  0.3377 -0.2081 -0.4560
 2471Sol     OW10631   1.308   2.545  13.039  0.2140  0.4186 -0.4432
 2471Sol     HW10632   1.361   2.512  12.967 -0.0725  0.1238 -0.5187
 2471Sol     HW10633   1.326   2.484  13.111  0.4195  0.6519 -0.2963
 2471Sol     MW10634   1.314   2.536  13.039 -0.2572 -0.0223  0.1629
 2472Sol     OW10635   3.016   3.219  13.390 -0.2177 -0.2649 -0.5722
 2472Sol     HW10636   3.079   3.153  13.417 -0.2483  0.0034  0.1580
 2472Sol     HW10637   3.010   3.209  13.295  0.7131 -0.4782 -0.6161
 2472Sol     MW10638   3.021   3.212  13.384  0.1830 -0.8829 -0.2474
 2473Sol     OW10639   2.343   2.526  12.987  0.6439  0.1263  0.4040
 2473Sol     HW10640   2.395   2.553  12.911  0.8956 -2.4346 -0.3711
 2473Sol     HW10641   2.299   2.446  12.958 -1.6380  0.7942  1.9586
 2473Sol     MW10642   2.344   2.521  12.977  0.2299 -0.0834 -0.1552
 2474Sol     OW10643   0.317   1.755   9.344 -0.4107  0.1593  0.0743
 2474Sol     HW10644   0.344   1.705   9.267  0.1260  0.6016 -0.0243
 2474Sol     HW10645   0.352   1.843   9.330  1.0883 -0.1836  1.5858
 2474Sol     MW10646   0.322   1.758   9.336  0.4379 -0.0647 -0.0579
 2475Sol     OW10647   2.919   2.692  12.626  0.2448  0.0103  0.0776
 2475Sol     HW10648   2.836   2.739  12.621  0.8259  1.2710  1.8918
 2475Sol     HW10649   2.971   2.728  12.554 -0.6358 -0.5527 -0.8640
 2475Sol     MW10650   2.916   2.699  12.619 -0.1864  0.3280  0.1976
 2476Sol     OW10651   2.918   2.819   7.808  0.5040  0.4281 -0.3303
 2476Sol     HW10652   2.999   2.785   7.770 -0.2143 -0.2187 -1.3118
 2476Sol     HW10653   2.923   2.797   7.900  1.2381 -0.0186 -0.4748
 2476Sol     MW10654   2.926   2.814   7.812 -0.1252 -0.4002 -0.1295
 2477Sol     OW10655   1.493   0.591   9.817 -0.0473  0.1761 -0.2791
 2477Sol     HW10656   1.447   0.552   9.743 -0.4969  0.4387 -0.1384
 2477Sol     HW10657   1.475   0.685   9.811  1.7979  0.4930 -1.1439
 2477Sol     MW10658   1.488   0.596   9.810 -0.4315  0.5598  0.0238
 2478Sol     OW10659   2.831   1.313  12.260  0.5434  0.1411  0.2389
 2478Sol     HW10660   2.869   1.241  12.310 -0.2725 -0.8785 -0.5691
 2478Sol     HW10661   2.879   1.390  12.288  1.2424 -0.6788  1.3325
 2478Sol     MW10662   2.838   1.313  12.267 -0.2803 -0.6541  1.0277
 2479Sol     OW10663   1.029   3.195   8.401  0.1781  0.6772 -0.0018
 2479Sol     HW10664   1.069   3.168   8.319 -1.0138 -1.8246  0.1990
 2479Sol     HW10665   0.989   3.280   8.381 -0.8293 -0.2798 -2.2804
 2479Sol     MW10666   1.029   3.200   8.392 -0.3090 -1.4642 -0.1988
 2480Sol     OW10667   1.072   3.437   7.620 -0.0216  0.4041 -0.2788
 2480Sol     HW10668   1.121   3.360   7.592  1.1064  0.9921  0.0398
 2480Sol     HW10669   0.982   3.418   7.596  0.4325 -0.4989 -1.2997
 2480Sol     MW10670   1.068   3.428   7.616  0.1529 -0.1206  0.5525
 2481Sol     OW10671   0.889   2.242   9.750  0.1244 -0.3754 -0.8619
 2481Sol     HW10672   0.926   2.289   9.675  1.7255 -1.4759 -0.7928
 2481Sol     HW10673   0.908   2.150   9.732  0.3471 -0.6662  0.7839
 2481Sol     MW10674   0.894   2.238   9.742  0.6221  0.4195 -0.0461
 2482Sol     OW10675   0.084   0.340  11.298  0.6549  0.1132 -0.3391
 2482Sol     HW10676   0.111   0.377  11.214  1.1173  1.2604  0.3062
 2482Sol     HW10677   0.105   0.247  11.290  0.4020  0.1522 -1.6099
 2482Sol     MW10678   0.089   0.335  11.290  0.0690  0.3212  0.8503
 2483Sol     OW10679   2.769   2.947  10.804 -0.4211  0.0621 -0.1673
 2483Sol     HW10680   2.682   2.947  10.846  0.2048 -0.3023  1.1725
 2483Sol     HW10681   2.803   2.859  10.822  0.7416  0.6321  0.4395
 2483Sol     MW10682   2.764   2.939  10.810  0.3646  0.9472  0.7654
 2484Sol     OW10683   3.331   0.671   9.453 -0.0858  0.0339  0.2596
 2484Sol     HW10684   3.284   0.674   9.537 -0.1602  1.8624  0.1754
 2484Sol     HW10685   3.383   0.591   9.458  0.7196  0.6384  2.5001
 2484Sol     MW10686   3.331   0.664   9.461 -0.0523 -0.4443  0.8833
 2485Sol     OW10687   2.026   2.994   7.461  0.1908  0.1322  0.5120
 2485Sol     HW10688   2.016   2.901   7.483 -0.8466 -0.4495 -2.2354
 2485Sol     HW10689   2.112   3.018   7.496  1.4105 -2.4416 -0.6175
 2485Sol     MW10690   2.033   2.988   7.466  0.3502  0.2447  0.3646
 2486Sol     OW10691   1.384   2.445  11.728  0.3061 -0.1298  0.3322
 2486Sol     HW10692   1.352   2.404  11.648 -0.9636 -0.5723  1.0568
 2486Sol     HW10693   1.477   2.464  11.710 -0.1287  0.3968 -1.4849
 2486Sol     MW10694   1.390   2.443  11.719  0.1573 -0.1481 -0.5977
 2487Sol     OW10695   0.420   3.266  10.841 -0.5662 -0.3654 -0.0307
 2487Sol     HW10696   0.503   3.278  10.795 -0.2009 -1.7614  0.2275
 2487Sol     HW10697   0.354   3.297  10.779  0.0378 -0.6777 -0.8551
 2487Sol     MW10698   0.422   3.270  10.831  0.6800  0.0197 -0.2280
 2488Sol     OW10699   2.310   1.324  12.386  0.4671 -0.2009  0.1137
 2488Sol     HW10700   2.253   1.381  12.334 -2.0673 -2.4139  0.3890
 2488Sol     HW10701   2.392   1.320  12.336 -0.0193  2.0083 -0.9389
 2488Sol     MW10702   2.312   1.329  12.377 -0.5820  0.3227  0.4196
 2489Sol     OW10703   1.572   3.439  11.839  0.1080 -0.1723  0.0859
 2489Sol     HW10704   1.579   3.348  11.810 -0.3864 -1.4467  3.6559
 2489Sol     HW10705   1.487   3.469  11.807 -0.4932 -1.5579  0.3559
 2489Sol     MW10706   1.565   3.434  11.834  0.1746  0.3033  0.3837
 2490Sol     OW10707   1.233   2.372   9.065  0.2247 -0.3140  0.2872
 2490Sol     HW10708   1.183   2.423   9.129  0.4354  0.1426  0.0903
 2490Sol     HW10709   1.323   2.403   9.075 -0.0644  1.2456 -1.6676
 2490Sol     MW10710   1.236   2.379   9.072  1.1742 -0.1600 -0.0343
 2491Sol     OW10711   1.309   3.105  11.382 -0.2103 -0.9876  0.1223
 2491Sol     HW10712   1.398   3.112  11.415 -0.4407 -0.2258  0.5996
 2491Sol     HW10713   1.319   3.082  11.289  0.5034  0.2194 -0.1111
 2491Sol     MW10714   1.317   3.104  11.376 -0.1066  0.2868 -0.8184
 2492Sol     OW10715   1.114   1.638   7.852 -0.2739  0.1433  0.2878
 2492Sol     HW10716   1.158   1.698   7.792 -1.3418  0.2833 -0.3741
 2492Sol     HW10717   1.076   1.694   7.919 -1.7579  0.2787 -0.6426
 2492Sol     MW10718   1.114   1.648   7.853  0.8474 -0.2255 -0.0601
 2493Sol     OW10719   0.878   0.743  11.701  0.0318  0.0814  0.0242
 2493Sol     HW10720   0.838   0.789  11.627  0.5285 -0.4375 -0.5703
 2493Sol     HW10721   0.972   0.741  11.680 -0.0207 -1.4332 -0.0709
 2493Sol     MW10722   0.883   0.747  11.692  0.4694 -0.4339  0.1174
 2494Sol     OW10723   1.659   1.002   9.955  0.5218  0.5677  0.1325
 2494Sol     HW10724   1.741   1.052   9.964  2.2599 -2.5274  2.1666
 2494Sol     HW10725   1.598   1.045  10.014  0.9934  2.1803 -0.5116
 2494Sol     MW10726   1.661   1.011   9.961  0.0096  0.3122 -0.1519
 2495Sol     OW10727   1.410   0.939   8.054 -0.7562 -0.6069 -0.4494
 2495Sol     HW10728   1.407   0.923   7.960 -1.3919  0.3532 -0.6032
 2495Sol     HW10729   1.494   0.983   8.069  0.0261 -2.1189 -0.3375
 2495Sol     MW10730   1.417   0.942   8.047  0.0063  0.3082  0.5295
 2496Sol     OW10731   3.015   0.116  13.953  0.1821  0.0515  0.1017
 2496Sol     HW10732   2.936   0.170  13.947  0.8514  1.0279 -0.0275
 2496Sol     HW10733   3.087   0.178  13.941  0.9937 -0.7100  1.0303
 2496Sol     MW10734   3.015   0.126  13.951 -0.2092  0.7164  0.0651
 2497Sol     OW10735   3.340   1.388  11.531 -0.0057  0.1209  0.5422
 2497Sol     HW10736   3.327   1.474  11.490 -0.8599 -0.3830 -0.2419
 2497Sol     HW10737   3.300   1.397  11.618 -3.0213 -0.4691 -0.7191
 2497Sol     MW10738   3.335   1.397  11.535 -0.3662 -0.0645  0.3511
 2498Sol     OW10739   2.591   2.196   6.639  0.3687 -0.4276 -0.2496
 2498Sol     HW10740   2.564   2.160   6.724 -0.7707  2.0770  0.4796
 2498Sol     HW10741   2.585   2.121   6.579  0.0331 -1.9514  1.6191
 2498Sol     MW10742   2.588   2.186   6.642  1.1375  0.5793 -0.0672
 2499Sol     OW10743   0.937   3.272   9.775  0.6226  0.3644 -0.2052
 2499Sol     HW10744   0.975   3.203   9.830 -1.7542 -0.9021 -0.0905
 2499Sol     HW10745   0.949   3.241   9.686 -3.4544 -1.9283 -0.0661
 2499Sol     MW10746   0.942   3.263   9.772 -0.7707 -0.3745 -0.5655
 2500Sol     OW10747   0.474   2.799   7.198 -0.2639  0.0794 -0.1338
 2500Sol     HW10748   0.559   2.838   7.176 -0.7035  1.2597  0.2379
 2500Sol     HW10749   0.416   2.827   7.127 -0.6370  0.2803  0.2485
 2500Sol     MW10750   0.476   2.805   7.189 -0.5563  0.5271  0.9876
 2501Sol     OW10751   2.931   1.710   6.389  0.0455  0.2054  0.2670
 2501Sol     HW10752   2.899   1.634   6.438  1.8338 -0.8494 -0.1829
 2501Sol     HW10753   3.026   1.708   6.401  0.2775  1.2795 -1.3387
 2501Sol     MW10754   2.937   1.703   6.395  0.2464  0.0912 -0.3077
 2502Sol     OW10755   0.669   0.017  12.197 -0.3989 -0.5501 -0.0149
 2502Sol     HW10756   0.659   0.097  12.249 -0.0487 -0.8240  0.4750
 2502Sol     HW10757   0.686   0.048  12.108 -3.0801 -0.0705 -0.4031
 2502Sol     MW10758   0.669   0.027  12.193  0.0355  0.5638  0.1049
 2503Sol     OW10759   2.798   0.889  11.145 -0.3155 -0.0158  0.5063
 2503Sol     HW10760   2.770   0.863  11.057 -0.5806 -1.3107  0.9556
 2503Sol     HW10761   2.775   0.814  11.200  1.3556  0.1153  1.3998
 2503Sol     MW10762   2.793   0.880  11.142 -0.6654 -0.5772 -0.8004
 2504Sol     OW10763   2.303   2.784   6.198  0.1236 -0.6228 -0.1251
 2504Sol     HW10764   2.222   2.757   6.155 -0.5432 -0.9534  1.2821
 2504Sol     HW10765   2.323   2.869   6.160 -1.4169 -0.1017  0.1519
 2504Sol     MW10766   2.297   2.789   6.191 -0.1215  0.0422  0.0736
 2505Sol     OW10767   0.217   0.883  11.463 -0.0543  0.3033  0.0471
 2505Sol     HW10768   0.171   0.961  11.493 -1.4852 -0.1276 -0.9725
 2505Sol     HW10769   0.181   0.865  11.376  0.4991 -1.2962  0.1267
 2505Sol     MW10770   0.210   0.888  11.458  0.1572  0.5716  0.2831
 2506Sol     OW10771   0.265   2.550  13.512  0.1252 -0.4469 -0.0622
 2506Sol     HW10772   0.186   2.603  13.522 -0.7196 -0.9175 -3.6449
 2506Sol     HW10773   0.246   2.471  13.562 -0.9339  0.2156  0.6180
 2506Sol     MW10774   0.256   2.548  13.517  0.2010  0.0926  0.4487
 2507Sol     OW10775   3.232   3.053   7.625  0.3250  0.2352  0.4014
 2507Sol     HW10776   3.171   3.040   7.553  1.0722  2.0481 -0.6075
 2507Sol     HW10777   3.267   3.141   7.610  1.1714  0.2612  2.4667
 2507Sol     MW10778   3.230   3.060   7.617 -0.6997  0.2308 -0.0159
 2508Sol     OW10779   2.055   3.392   7.999 -0.5543 -0.2420 -1.0754
 2508Sol     HW10780   1.999   3.338   7.943  1.5064 -1.0758 -2.4056
 2508Sol     HW10781   2.140   3.393   7.954  0.6040  0.6941  1.0564
 2508Sol     MW10782   2.058   3.387   7.990  0.0598 -0.4099 -0.2753
 2509Sol     OW10783   0.139   2.769   8.391 -0.0642 -0.0307  0.0678
 2509Sol     HW10784   0.047   2.795   8.400  0.1387  0.9365 -0.5773
 2509Sol     HW10785   0.168   2.755   8.481 -1.2085 -1.6708  0.2001
 2509Sol     MW10786   0.133   2.770   8.400  0.5603 -0.1874 -0.6256
 2510Sol     OW10787   0.897   3.124  10.692  0.5220 -0.7541 -0.2137
 2510Sol     HW10788   0.926   3.173  10.615  0.4510  0.6803  0.6614
 2510Sol     HW10789   0.819   3.170  10.722  0.7486 -1.0949  0.9182
 2510Sol     MW10790   0.892   3.133  10.688 -0.0188  0.5689  0.3362
 2511Sol     OW10791   1.227   0.486  14.039 -0.1398 -0.2215  0.0999
 2511Sol     HW10792   1.265   0.432  13.969 -1.2217 -0.0891 -0.5963
 2511Sol     HW10793   1.142   0.446  14.058 -0.3135  0.3731  0.6031
 2511Sol     MW10794   1.223   0.478  14.034  0.3054 -0.5046  0.7676
 2512Sol     OW10795   0.791   1.911  13.221  0.3257 -0.3565 -0.1968
 2512Sol     HW10796   0.825   1.822  13.210  1.5439  0.0898 -0.1294
 2512Sol     HW10797   0.866   1.961  13.253 -1.2207 -0.0352  3.1781
 2512Sol     MW10798   0.801   1.907  13.223 -0.9285 -0.1082  0.2735
 2513Sol     OW10799   1.379   2.214  14.208 -0.8860  0.2855  0.3872
 2513Sol     HW10800   1.302   2.270  14.198 -0.8038  0.4496  0.6733
 2513Sol     HW10801   1.404   2.192  14.118 -1.6870 -0.3482  0.3058
 2513Sol     MW10802   1.374   2.217  14.199 -0.4557  0.2036  0.0955
 2514Sol     OW10803   1.431   0.872  13.460  0.2820 -0.0376  0.3358
 2514Sol     HW10804   1.410   0.918  13.542  0.1307  2.3779 -1.0137
 2514Sol     HW10805   1.467   0.940  13.403 -0.6008 -1.4494 -1.9730
 2514Sol     MW10806   1.432   0.882  13.463  0.3609  0.9448  0.3273
 2515Sol     OW10807   3.230   1.614   8.200 -0.3913 -0.1038  0.1801
 2515Sol     HW10808   3.325   1.628   8.202 -0.4894  0.4173  1.3691
 2515Sol     HW10809   3.216   1.557   8.125  0.8120  0.2407 -0.3221
 2515Sol     MW10810   3.237   1.610   8.193 -0.1634  0.1971 -0.0401
 2516Sol     OW10811   1.492   2.460  12.869 -0.0248 -0.7928  0.4102
 2516Sol     HW10812   1.447   2.380  12.841  0.6460  0.2854 -4.2331
 2516Sol     HW10813   1.577   2.430  12.900 -0.9437 -2.1170  1.7416
 2516Sol     MW10814   1.495   2.450  12.869 -0.0360 -0.0355 -0.5346
 2517Sol     OW10815   1.125   2.462  10.019 -0.4481  0.0451 -0.0912
 2517Sol     HW10816   1.171   2.418  10.090 -1.3826  2.3939  2.0630
 2517Sol     HW10817   1.191   2.475   9.951  0.9480 -0.5637  1.1203
 2517Sol     MW10818   1.135   2.460  10.019  0.2512  0.4364 -0.1377
 2518Sol     OW10819   0.033   1.710   8.899  0.1724  0.0659 -0.3975
 2518Sol     HW10820   0.021   1.615   8.893  0.7539 -0.0724  0.4703
 2518Sol     HW10821   0.057   1.725   8.990  1.1732  0.9136 -0.7876
 2518Sol     MW10822   0.034   1.702   8.906  0.3821 -0.1356  0.5246
 2519Sol     OW10823   0.315   2.835  14.164 -0.4877 -0.3004 -0.0844
 2519Sol     HW10824   0.332   2.742  14.148  0.5686 -0.7886  3.5479
 2519Sol     HW10825   0.229   2.850  14.124 -0.3691 -2.6718 -1.3205
 2519Sol     MW10826   0.309   2.828  14.159  0.2933  0.8182 -0.3580
 2520Sol     OW10827   1.091   2.679  13.469  0.0191 -0.1896  0.4107
 2520Sol     HW10828   1.184   2.690  13.485 -0.1988 -0.5006  1.9514
 2520Sol     HW10829   1.049   2.747  13.521 -0.6025  0.0987 -0.4620
 2520Sol     MW10830   1.095   2.686  13.475 -0.0471 -0.3036  0.1956
 2521Sol     OW10831   1.574   1.447   7.672 -0.0160  0.5570 -0.2035
 2521Sol     HW10832   1.669   1.448   7.684 -0.0831 -1.0791  0.5659
 2521Sol     HW10833   1.539   1.455   7.761 -0.5809 -0.7688 -0.2914
 2521Sol     MW10834   1.579   1.448   7.681  0.3760 -0.6965  0.1474
 2522Sol     OW10835   0.271   1.024   8.929  0.2890  0.1974 -0.0907
 2522Sol     HW10836   0.292   0.931   8.934 -1.5338 -0.2993 -1.1134
 2522Sol     HW10837   0.193   1.033   8.984 -1.5115  0.4772 -2.6122
 2522Sol     MW10838   0.266   1.016   8.935 -0.2682 -0.0961  0.1562
 2523Sol     OW10839   2.138   0.934  12.631  0.5893  0.1605  0.0937
 2523Sol     HW10840   2.223   0.890  12.636  0.5958 -0.2414 -2.6613
 2523Sol     HW10841   2.144   0.988  12.552 -1.2943  1.0572  0.5361
 2523Sol     MW10842   2.146   0.935  12.624  0.3147  0.0780  0.2392
 2524Sol     OW10843   3.112   1.133   6.778 -0.3160  0.4027  0.5225
 2524Sol     HW10844   3.165   1.053   6.771  0.3998  1.0529 -2.0353
 2524Sol     HW10845   3.108   1.151   6.872  3.3688 -0.1341  0.8520
 2524Sol     MW10846   3.117   1.128   6.786  0.5036  0.1892  0.6748
 2525Sol     OW10847   2.290   3.212   8.509 -0.1157 -0.4911  0.2924
 2525Sol     HW10848   2.217   3.202   8.570 -0.3470 -1.8531 -0.1909
 2525Sol     HW10849   2.249   3.243   8.428 -0.3472 -2.3643 -0.3422
 2525Sol     MW10850   2.280   3.214   8.507  0.2460 -0.1000 -0.3356
 2526Sol     OW10851   1.011   2.208  12.026  0.2644 -0.0962 -0.9135
 2526Sol     HW10852   1.098   2.232  11.992  1.2600 -2.7024 -0.3518
 2526Sol     HW10853   1.003   2.259  12.107  1.0430  0.5911 -1.2538
 2526Sol     MW10854   1.018   2.215  12.030  0.7291  0.1182 -0.5611
 2527Sol     OW10855   0.443   3.382  12.726  0.1571 -0.3333 -0.3277
 2527Sol     HW10856   0.423   3.461  12.676 -0.3550 -0.6700 -0.6576
 2527Sol     HW10857   0.421   3.405  12.817  2.9183  0.9301  0.0767
 2527Sol     MW10858   0.439   3.391  12.730 -0.0793  1.4171  0.7750
 2528Sol     OW10859   1.598   0.026   8.660 -0.9277 -0.2775  0.3717
 2528Sol     HW10860   1.521  -0.010   8.703  0.0947 -1.7766  0.9879
 2528Sol     HW10861   1.644  -0.050   8.625  1.0053  0.4534  1.2587
 2528Sol     MW10862   1.595   0.016   8.661  0.6250 -0.0413 -0.1935
 2529Sol     OW10863   1.712   1.780   7.782  0.5159  0.0964  0.4376
 2529Sol     HW10864   1.794   1.732   7.779  1.6055  1.8709  0.8906
 2529Sol     HW10865   1.738   1.871   7.795 -1.4613  0.8848 -0.8177
 2529Sol     MW10866   1.722   1.784   7.783  0.0564 -0.4127 -0.0656
 2530Sol     OW10867   3.279   2.908  11.623 -0.0972  0.1021 -0.5653
 2530Sol     HW10868   3.327   2.911  11.540 -0.2863  0.4490 -0.6635
 2530Sol     HW10869   3.297   2.821  11.658 -3.4455 -1.6964 -3.0396
 2530Sol     MW10870   3.285   2.901  11.618 -0.2265  0.2445  0.0033
 2531Sol     OW10871   2.245   2.113   6.827 -0.0589  0.2638  0.2397
 2531Sol     HW10872   2.220   2.181   6.889 -1.1644 -0.3872  0.5206
 2531Sol     HW10873   2.230   2.151   6.741 -0.4104  0.4675  0.3930
 2531Sol     MW10874   2.241   2.122   6.825 -0.1428  0.3209  0.3003
 2532Sol     OW10875   1.233   1.417   9.251 -0.5244 -0.4486 -0.5317
 2532Sol     HW10876   1.256   1.422   9.343 -0.5354  0.7763 -0.5979
 2532Sol     HW10877   1.149   1.462   9.244  0.5779  1.4970 -1.5271
 2532Sol     MW10878   1.227   1.421   9.258 -0.0998 -0.1944  0.4309
 2533Sol     OW10879   2.700   0.377   7.910  0.1118  0.0591  0.0193
 2533Sol     HW10880   2.762   0.364   7.982  0.6118 -0.8008 -0.5508
 2533Sol     HW10881   2.626   0.423   7.949  0.2013 -0.7599  1.1723
 2533Sol     MW10882   2.699   0.380   7.920 -0.1015  1.5064  0.3173
 2534Sol     OW10883   2.300   1.954   9.894  0.2736  0.1100  0.1855
 2534Sol     HW10884   2.304   2.012   9.971 -0.0192  2.2292 -1.3406
 2534Sol     HW10885   2.348   2.002   9.826 -0.6864 -1.0894 -1.3512
 2534Sol     MW10886   2.305   1.964   9.895  0.8468  0.1442 -0.8632
 2535Sol     OW10887   1.744   1.906  10.511  0.3927 -0.0480  0.3067
 2535Sol     HW10888   1.708   1.882  10.597 -0.0874 -0.0483  0.1089
 2535Sol     HW10889   1.805   1.977  10.530 -0.9664  1.1021  0.4589
 2535Sol     MW10890   1.746   1.910  10.520  0.1402  0.3936  0.0745
 2536Sol     OW10891   2.781   2.689  10.226 -0.3698  0.2998 -0.4525
 2536Sol     HW10892   2.729   2.623  10.271 -0.9392  0.2706 -1.1513
 2536Sol     HW10893   2.717   2.749  10.187  0.1356  1.5023  0.5090
 2536Sol     MW10894   2.771   2.689  10.226  0.2597 -0.3369  0.0390
 2537Sol     OW10895   1.868   1.609   9.511 -0.1081 -0.4237 -0.1216
 2537Sol     HW10896   1.876   1.704   9.503  0.3820 -0.5523 -1.3285
 2537Sol     HW10897   1.958   1.577   9.499  0.1108 -0.9000  2.6036
 2537Sol     MW10898   1.877   1.614   9.509  0.2276  0.9234  0.2243
 2538Sol     OW10899   2.414   0.477   8.481  0.3146  0.1365  0.0381
 2538Sol     HW10900   2.493   0.459   8.431 -0.2055 -0.1920 -0.6623
 2538Sol     HW10901   2.360   0.399   8.471 -0.4865  0.7141 -0.2336
 2538Sol     MW10902   2.416   0.469   8.476  0.0597  0.1303 -0.1584
 2539Sol     OW10903   0.713   0.146   9.293  0.4090  0.0691 -0.0809
 2539Sol     HW10904   0.775   0.181   9.357  0.4196  2.5060 -1.3771
 2539Sol     HW10905   0.658   0.220   9.268 -2.1008 -1.7108 -0.0766
 2539Sol     MW10906   0.714   0.156   9.296 -0.7643  0.1746 -0.5888
 2540Sol     OW10907   2.631   3.238  10.397 -0.2175 -0.2365  0.0172
 2540Sol     HW10908   2.677   3.192  10.467  0.6804  0.2733 -0.2272
 2540Sol     HW10909   2.557   3.281  10.441  2.1202  2.7046  1.2829
 2540Sol     MW10910   2.628   3.238  10.407  0.8062 -0.1993  0.1342
 2541Sol     OW10911   0.129   3.324  12.931  0.5201 -0.2928 -0.2113
 2541Sol     HW10912   0.055   3.266  12.948  1.8360 -2.1315 -0.7125
 2541Sol     HW10913   0.116   3.354  12.841 -0.7879  1.1745  0.4266
 2541Sol     MW10914   0.121   3.322  12.924  0.1475  0.1789  0.0526
 2542Sol     OW10915   3.100   1.491  11.674 -0.0232 -0.1897  0.3753
 2542Sol     HW10916   3.078   1.401  11.698 -1.7856  0.3893  1.0192
 2542Sol     HW10917   3.024   1.542  11.703  0.4347  1.3349 -1.0861
 2542Sol     MW10918   3.091   1.488  11.679  1.1677  0.1196  0.1201
 2543Sol     OW10919   0.726   3.208   9.467  0.6368  0.3283  0.0211
 2543Sol     HW10920   0.704   3.129   9.417 -0.1171 -0.8174  2.0804
 2543Sol     HW10921   0.648   3.224   9.520  0.7381  2.5548 -0.4679
 2543Sol     MW10922   0.717   3.202   9.467  0.6554 -0.5086  0.3508
 2544Sol     OW10923   2.596   2.305  10.878  0.0370 -0.1017  0.7067
 2544Sol     HW10924   2.522   2.365  10.877 -0.9161 -1.2442 -0.9804
 2544Sol     HW10925   2.570   2.236  10.939 -0.3217 -0.5189  0.0905
 2544Sol     MW10926   2.587   2.304  10.883  0.5253  0.1616 -0.0571
 2545Sol     OW10927   0.469   0.468  13.001  0.6596  0.0602  0.1499
 2545Sol     HW10928   0.557   0.433  13.002  0.9326  0.4406 -4.1663
 2545Sol     HW10929   0.418   0.408  12.947 -1.2165  1.0264  0.7606
 2545Sol     MW10930   0.472   0.460  12.997  0.3204 -0.7592 -0.6980
 2546Sol     OW10931   0.331   0.391   9.235 -0.2686  0.0378 -0.0797
 2546Sol     HW10932   0.416   0.405   9.194  0.0803 -0.2353  0.5559
 2546Sol     HW10933   0.272   0.450   9.188  0.0695 -0.4712 -1.1709
 2546Sol     MW10934   0.333   0.397   9.227 -0.1778  0.3358 -0.4997
 2547Sol     OW10935   2.948   1.248   8.501  0.1063  0.5075 -0.1054
 2547Sol     HW10936   2.876   1.308   8.519 -0.0591  0.0798  0.6588
 2547Sol     HW10937   3.016   1.304   8.462 -0.8130  0.8168 -1.3118
 2547Sol     MW10938   2.948   1.258   8.499  0.3569  0.9484 -0.2845
 2548Sol     OW10939   1.372   0.810  12.969  0.7319 -0.2918  0.0151
 2548Sol     HW10940   1.378   0.757  12.889 -0.3178  0.7912 -0.8046
 2548Sol     HW10941   1.299   0.773  13.017  0.3585  0.0548 -0.2858
 2548Sol     MW10942   1.366   0.802  12.966  0.2636  0.1814  0.0563
 2549Sol     OW10943   1.041   3.261   8.905 -0.1735 -0.3372  0.0036
 2549Sol     HW10944   0.983   3.298   8.838  2.1453  0.8908 -1.4006
 2549Sol     HW10945   1.063   3.174   8.871 -1.3076 -0.8768  0.6257
 2549Sol     MW10946   1.038   3.256   8.896 -0.6095 -0.1649  0.2921
 2550Sol     OW10947   3.053   0.074  14.217  0.3320 -0.3019 -0.1043
 2550Sol     HW10948   3.037   0.073  14.122 -0.5913 -0.9255  0.0478
 2550Sol     HW10949   3.039  -0.017  14.244  2.4529 -0.5104  0.3308
 2550Sol     MW10950   3.050   0.065  14.211 -0.4382  0.2792  0.4729
 2551Sol     OW10951   1.517   1.890  10.301  0.2481  0.0533 -0.1176
 2551Sol     HW10952   1.610   1.870  10.292 -0.3620 -2.4811 -1.5015
 2551Sol     HW10953   1.478   1.862  10.217 -1.8521  0.3418  0.7208
 2551Sol     MW10954   1.522   1.885  10.292 -0.5595 -0.6157 -0.4061
 2552Sol     OW10955   2.178   2.288   7.026  0.1804 -0.1251 -0.1226
 2552Sol     HW10956   2.262   2.332   7.011 -0.0604 -0.2811 -2.0307
 2552Sol     HW10957   2.114   2.359   7.024  0.1929 -0.0813  0.7544
 2552Sol     MW10958   2.180   2.299   7.025 -0.2525  0.1514  0.3484
 2553Sol     OW10959   2.515   1.994  13.556  0.8607  0.0969  0.0376
 2553Sol     HW10960   2.498   1.925  13.492  2.0370 -0.5749  0.4304
 2553Sol     HW10961   2.589   1.961  13.608  0.8745  1.2730  0.7869
 2553Sol     MW10962   2.520   1.985  13.555 -0.4254 -0.2128 -0.1681
 2554Sol     OW10963   2.842   2.011   8.515 -0.3475  0.1726  0.0598
 2554Sol     HW10964   2.929   2.024   8.477  0.3535 -0.4206  1.4168
 2554Sol     HW10965   2.821   2.095   8.556  0.5007 -0.2920  1.5016
 2554Sol     MW10966   2.848   2.020   8.516  0.7481 -0.3253 -0.4488
 2555Sol     OW10967   0.117   2.094  14.047  0.1024 -0.1697  0.2131
 2555Sol     HW10968   0.128   2.020  13.988 -1.7726 -0.8301  0.6890
 2555Sol     HW10969   0.165   2.165  14.004 -0.6511 -0.8258 -1.7506
 2555Sol     MW10970   0.122   2.094  14.038  0.2140 -0.0756  0.5923
 2556Sol     OW10971   0.104   1.814   7.871  0.8963 -0.2953  0.7313
 2556Sol     HW10972   0.102   1.849   7.960  2.1930  0.5772  0.4184
 2556Sol     HW10973   0.078   1.888   7.816  4.0955  0.3714  0.0260
 2556Sol     MW10974   0.101   1.824   7.874  0.5513  0.4168  0.1010
 2557Sol     OW10975   0.174   0.589   9.122  0.0350  0.1187  0.3313
 2557Sol     HW10976   0.082   0.565   9.131  0.3364 -0.6185  1.5605
 2557Sol     HW10977   0.198   0.561   9.034 -0.5572 -0.9305  0.5033
 2557Sol     MW10978   0.168   0.585   9.115  0.1965  0.1198  1.0607
 2558Sol     OW10979   0.557   2.002   9.163 -0.1429  0.3528 -0.0739
 2558Sol     HW10980   0.482   2.058   9.181 -1.1046 -1.2127  0.8890
 2558Sol     HW10981   0.604   2.047   9.093 -2.3800  1.0000 -1.2066
 2558Sol     MW10982   0.555   2.011   9.158  0.3515  0.2001 -1.0345
 2559Sol     OW10983   2.056   0.317  13.064  0.0656 -0.1963  0.5547
 2559Sol     HW10984   2.035   0.314  12.971 -0.5663  0.3074  0.6767
 2559Sol     HW10985   1.972   0.328  13.108  0.0864 -3.0776  1.3668
 2559Sol     MW10986   2.047   0.318  13.060 -0.2388  0.5018 -0.5294
 2560Sol     OW10987   0.513   2.505   7.818  0.1291  0.1442 -0.6011
 2560Sol     HW10988   0.461   2.495   7.738  0.6160  1.8158 -1.1443
 2560Sol     HW10989   0.449   2.514   7.888 -0.3234  0.8835 -1.1041
 2560Sol     MW10990   0.503   2.505   7.817 -0.2952  0.1880  0.5866
 2561Sol     OW10991   1.915   0.134  14.100 -0.5645 -0.5037 -0.2146
 2561Sol     HW10992   1.876   0.207  14.051 -0.2068  0.3751  0.8008
 2561Sol     HW10993   1.854   0.061  14.087 -1.3907  0.2265 -0.4894
 2561Sol     MW10994   1.906   0.134  14.094  0.2151 -0.5958 -0.2202
 2562Sol     OW10995   2.790   0.275  13.046  0.0885 -0.0724  0.3137
 2562Sol     HW10996   2.700   0.289  13.075  0.5684 -0.2016  1.8988
 2562Sol     HW10997   2.842   0.335  13.100  1.2548 -1.9699  1.3365
 2562Sol     MW10998   2.787   0.282  13.054 -0.2973  0.4054  0.4070
 2563Sol     OW10999   1.152   0.809  11.231 -0.2501 -0.1250 -0.0041
 2563Sol     HW11000   1.111   0.722  11.228 -1.4056  0.4440 -1.2698
 2563Sol     HW11001   1.097   0.864  11.175  0.7105  1.3315  0.4364
 2563Sol     MW11002   1.143   0.806  11.226  0.4492  0.1363  0.8813
 2564Sol     OW11003   0.149   3.465   5.920 -0.3249  0.2758 -0.0931
 2564Sol     HW11004   0.088   3.391   5.910  0.0410 -0.1928  1.0364
 2564Sol     HW11005   0.111   3.517   5.991  0.5302  0.0459  0.5316
 2564Sol     MW11006   0.140   3.463   5.925  0.0300 -0.5642  0.0559
 2565Sol     OW11007   1.337   3.173  11.692  0.1732  0.0770 -0.4972
 2565Sol     HW11008   1.396   3.139  11.624  0.4009 -0.1750 -0.1709
 2565Sol     HW11009   1.379   3.150  11.774 -0.6164 -0.5090 -0.2557
 2565Sol     MW11010   1.346   3.168  11.693  0.1449  0.1173  0.4570
 2566Sol     OW11011   2.427   2.410   6.951  0.3926  0.2166  0.1380
 2566Sol     HW11012   2.402   2.446   6.866 -0.3516  0.9896  0.6871
 2566Sol     HW11013   2.483   2.335   6.929 -0.7208 -0.2852 -1.0472
 2566Sol     MW11014   2.430   2.407   6.941  1.1562  0.3420 -0.2622
 2567Sol     OW11015   2.548   2.987   6.790  0.2388  0.1939 -0.2468
 2567Sol     HW11016   2.455   3.007   6.783  0.0841  0.1423  1.4987
 2567Sol     HW11017   2.560   2.958   6.880  1.7431 -0.9222 -0.7796
 2567Sol     MW11018   2.541   2.986   6.797 -0.0234 -0.4449  0.5728
 2568Sol     OW11019   1.981   2.845   8.147  0.8104 -0.7548  0.1955
 2568Sol     HW11020   1.950   2.852   8.238 -0.8472  2.2836 -0.5281
 2568Sol     HW11021   1.985   2.750   8.131 -2.0344 -1.3455  2.4044
 2568Sol     MW11022   1.978   2.837   8.154 -0.1599 -0.1393  0.1684
 2569Sol     OW11023   0.482   0.903  10.242  0.4277 -0.5829 -0.1284
 2569Sol     HW11024   0.538   0.833  10.275  0.7316  0.0331  0.6843
 2569Sol     HW11025   0.491   0.973  10.306  0.0094  0.1470 -0.8592
 2569Sol     MW11026   0.488   0.903  10.251 -0.5877 -1.1656  0.1340
 2570Sol     OW11027   0.801   2.671  13.979  0.1296  0.1507  0.2234
 2570Sol     HW11028   0.800   2.632  14.066  0.1315  1.5023  0.8290
 2570Sol     HW11029   0.709   2.689  13.960  0.2569  1.0800  0.4939
 2570Sol     MW11030   0.793   2.669  13.985  0.3219  0.6704 -0.1703
 2571Sol     OW11031   3.069   3.418  10.635  0.1909 -0.1518  0.2475
 2571Sol     HW11032   3.134   3.487  10.620 -0.1085  0.1142  0.1737
 2571Sol     HW11033   3.107   3.365  10.705 -0.3825  1.1221  1.5551
 2571Sol     MW11034   3.079   3.420  10.640 -0.0097 -0.1371 -0.2516
 2572Sol     OW11035   2.415   2.769  11.432 -0.1884  0.2540 -1.1308
 2572Sol     HW11036   2.438   2.849  11.479  0.3168  0.8032 -2.2823
 2572Sol     HW11037   2.397   2.704  11.500  0.2950  1.0995 -0.2016
 2572Sol     MW11038   2.415   2.770  11.442 -0.2351 -0.4383  0.6519
 2573Sol     OW11039   1.635   1.910   6.714 -0.1146 -1.1095 -0.0187
 2573Sol     HW11040   1.676   1.861   6.785 -0.6619 -1.2504  0.2069
 2573Sol     HW11041   1.571   1.850   6.677 -0.7320 -0.6096  0.2080
 2573Sol     MW11042   1.633   1.901   6.717 -0.5037  0.1093  0.1546
 2574Sol     OW11043   0.148   0.912  12.173 -0.1891 -0.4798  0.0057
 2574Sol     HW11044   0.133   0.842  12.110 -0.0215 -1.0087  0.5535
 2574Sol     HW11045   0.242   0.910  12.190 -0.5410 -1.8534  2.0102
 2574Sol     MW11046   0.155   0.906  12.169 -0.3446 -0.0782  0.2555
 2575Sol     OW11047   1.111   0.405   7.691 -0.6822 -0.1455 -0.9969
 2575Sol     HW11048   1.049   0.412   7.619  0.7164 -2.1049 -2.4518
 2575Sol     HW11049   1.196   0.395   7.648  0.1674 -1.3427  0.9155
 2575Sol     MW11050   1.113   0.405   7.681 -0.1217  0.6464 -0.7102
 2576Sol     OW11051   3.242   1.687   9.930 -0.6236 -0.1678  0.8438
 2576Sol     HW11052   3.294   1.640   9.996  2.0688  0.6057 -0.6594
 2576Sol     HW11053   3.223   1.621   9.863 -2.4285 -0.6800  1.8244
 2576Sol     MW11054   3.245   1.677   9.930 -0.0805 -0.1883 -0.4629
 2577Sol     OW11055   0.658   0.427   9.521  0.3639  0.8473  0.1400
 2577Sol     HW11056   0.739   0.378   9.504  0.0352 -0.3454  1.8790
 2577Sol     HW11057   0.683   0.494   9.584  1.1491  4.0118 -3.3712
 2577Sol     MW11058   0.667   0.428   9.525  0.0769  0.4706  1.0169
 2578Sol     OW11059   1.058   2.811   7.453  0.5542  0.4089 -0.3083
 2578Sol     HW11060   1.126   2.789   7.516 -1.0146 -2.1569  0.5474
 2578Sol     HW11061   1.088   2.770   7.371  0.1708 -0.5268  0.0121
 2578Sol     MW11062   1.067   2.805   7.451 -0.2560  0.5153  0.3167
 2579Sol     OW11063   0.676   0.744  13.242 -0.6402 -0.2675  0.6559
 2579Sol     HW11064   0.736   0.670  13.245 -0.4884 -0.1271  1.0314
 2579Sol     HW11065   0.591   0.705  13.224 -0.4946 -0.4961  0.4539
 2579Sol     MW11066   0.674   0.734  13.240  0.0382 -0.3537  0.6518
 2580Sol     OW11067   0.031   0.448   7.962 -0.1911 -0.1853 -0.0384
 2580Sol     HW11068  -0.009   0.379   8.016  0.8242 -0.3903  0.4479
 2580Sol     HW11069  -0.043   0.485   7.913 -0.7639 -1.5318 -0.2085
 2580Sol     MW11070   0.020   0.445   7.963 -0.4628 -0.2758  0.2935
 2581Sol     OW11071   0.323   2.523   6.961 -0.1811  0.7850  0.2669
 2581Sol     HW11072   0.375   2.446   6.937  0.3270  1.3805 -0.5549
 2581Sol     HW11073   0.279   2.497   7.042 -0.8559 -0.7684 -0.5690
 2581Sol     MW11074   0.324   2.514   6.966  0.0974  0.5035  0.1964
 2582Sol     OW11075   0.189   1.530  12.902  0.1015 -0.4257 -0.0759
 2582Sol     HW11076   0.228   1.615  12.923 -1.7364  1.1151 -2.6451
 2582Sol     HW11077   0.118   1.519  12.965  0.7214 -0.3757  0.6425
 2582Sol     MW11078   0.186   1.536  12.909  0.1958 -0.3327 -0.2072
 2583Sol     OW11079   0.329   2.975  12.854  0.2570 -0.4568 -0.1743
 2583Sol     HW11080   0.375   3.018  12.926  0.5811 -1.0745 -0.0137
 2583Sol     HW11081   0.295   2.894  12.891  0.0203 -0.5501 -0.5912
 2583Sol     MW11082   0.330   2.972  12.864  0.0703  0.1432 -0.1048
 2584Sol     OW11083   1.305   1.599   8.656 -0.3334 -0.2861 -0.5340
 2584Sol     HW11084   1.350   1.563   8.733  0.2536  1.6539  0.0736
 2584Sol     HW11085   1.213   1.575   8.669 -0.2787  0.2005  0.9124
 2584Sol     MW11086   1.301   1.594   8.664 -0.3378 -0.0831  1.0620
 2585Sol     OW11087   0.517   0.484  12.184  0.1995  0.6837  0.3345
 2585Sol     HW11088   0.441   0.448  12.138  0.9652 -0.9294  0.3151
 2585Sol     HW11089   0.483   0.562  12.228 -1.7065 -0.5945  1.1771
 2585Sol     MW11090   0.507   0.488  12.184 -0.2786  0.3546 -0.2789
 2586Sol     OW11091   2.457   1.624  11.100  0.1709 -0.2811  0.3820
 2586Sol     HW11092   2.507   1.681  11.158 -1.7317  0.5335  1.2685
 2586Sol     HW11093   2.423   1.555  11.158  2.1304 -2.1453 -0.6067
 2586Sol     MW11094   2.458   1.623  11.110  0.2629  0.0050 -0.3106
 2587Sol     OW11095   2.211   1.448  12.825 -0.2294  0.4129 -0.1895
 2587Sol     HW11096   2.171   1.399  12.898  0.0597  1.5017  0.7232
 2587Sol     HW11097   2.287   1.491  12.864  1.4804 -1.1192 -1.7685
 2587Sol     MW11098   2.214   1.448  12.835  0.1594 -0.1382 -0.3497
 2588Sol     OW11099   0.309   0.877  13.078  0.2526  0.4998  0.5597
 2588Sol     HW11100   0.241   0.933  13.115 -0.0524  0.3090  0.2943
 2588Sol     HW11101   0.355   0.933  13.016  1.5326  1.1719  2.0814
 2588Sol     MW11102   0.307   0.887  13.076  0.1720 -0.0369  0.4517
 2589Sol     OW11103   1.052   2.767   9.945  0.1539  0.1196 -0.3480
 2589Sol     HW11104   1.122   2.799  10.002 -0.4155 -1.5126  1.3398
 2589Sol     HW11105   1.048   2.673   9.964 -1.5328 -0.0513 -1.4748
 2589Sol     MW11106   1.058   2.761   9.952  0.0881 -0.6799  0.0118
 2590Sol     OW11107   0.523   2.806   6.469 -0.1727  0.8959 -0.0383
 2590Sol     HW11108   0.495   2.745   6.400  0.7054 -0.0344  0.4064
 2590Sol     HW11109   0.448   2.863   6.483 -0.1440  1.5439 -2.2419
 2590Sol     MW11110   0.514   2.805   6.464 -0.6576  0.3998 -0.9197
 2591Sol     OW11111   3.213   3.079   8.785  0.4754 -0.3126 -0.2857
 2591Sol     HW11112   3.307   3.063   8.781  0.4452 -0.7926  0.9181
 2591Sol     HW11113   3.189   3.061   8.876 -0.5238  1.2898 -0.2253
 2591Sol     MW11114   3.219   3.076   8.792 -1.1637  0.0130  0.1944
 2592Sol     OW11115   0.372   2.170  10.618 -0.6542  0.2453 -0.5492
 2592Sol     HW11116   0.389   2.086  10.575 -0.3441 -0.4060  0.8107
 2592Sol     HW11117   0.282   2.163  10.649  0.1944 -0.6046  1.7955
 2592Sol     MW11118   0.365   2.161  10.617 -0.0342 -0.2534 -0.1794
 2593Sol     OW11119   1.840   2.648  12.253  0.1752  0.3340  0.3502
 2593Sol     HW11120   1.757   2.640  12.205  0.9489 -1.6316 -0.6885
 2593Sol     HW11121   1.896   2.700  12.195  1.3972 -2.7608 -1.3272
 2593Sol     MW11122   1.837   2.652  12.244  1.4415 -0.6359  0.9634
 2594Sol     OW11123   2.774   0.347  11.327  0.2815  0.0451  0.4550
 2594Sol     HW11124   2.838   0.357  11.256  0.5278 -0.4402  0.6071
 2594Sol     HW11125   2.825   0.314  11.401  0.3125  1.9479  1.3272
 2594Sol     MW11126   2.784   0.345  11.327  0.0441  0.0136 -0.3549
 2595Sol     OW11127   0.989   2.186   9.236  0.1538 -0.3425  0.1342
 2595Sol     HW11128   1.052   2.128   9.280  0.2056 -1.3385 -1.2261
 2595Sol     HW11129   1.042   2.233   9.171 -0.4053 -0.8113 -0.6651
 2595Sol     MW11130   1.000   2.185   9.234 -1.1235  0.2034  0.1406
 2596Sol     OW11131   1.805   1.401  12.876  0.2331 -0.1273  0.0013
 2596Sol     HW11132   1.896   1.422  12.898  0.4171  0.9551 -1.7110
 2596Sol     HW11133   1.811   1.355  12.792 -0.6957 -1.2496  0.5395
 2596Sol     MW11134   1.814   1.399  12.870 -0.0187 -0.1635  0.4216
 2597Sol     OW11135   0.012   3.131   9.738 -0.0104 -0.2207  0.2072
 2597Sol     HW11136  -0.021   3.206   9.689  0.0090  0.9282  1.9058
 2597Sol     HW11137   0.104   3.125   9.714 -0.6486 -1.4746 -2.1009
 2597Sol     MW11138   0.017   3.137   9.732 -0.3788 -0.4949 -0.5186
 2598Sol     OW11139   2.849   0.931  12.163 -0.7289 -0.3951 -0.0268
 2598Sol     HW11140   2.795   0.979  12.100  1.3300  0.3759 -1.2313
 2598Sol     HW11141   2.936   0.969  12.154  0.0354 -1.6524  1.8713
 2598Sol     MW11142   2.852   0.938  12.156 -0.0923 -0.9636  0.3060
 2599Sol     OW11143   1.182   2.853  10.767 -0.3872 -0.0653 -0.6478
 2599Sol     HW11144   1.193   2.943  10.799  3.1428 -0.4328 -0.5904
 2599Sol     HW11145   1.202   2.858  10.674 -2.2881 -0.4665 -1.0957
 2599Sol     MW11146   1.185   2.862  10.762  0.5043  0.1631  0.0491
 2600Sol     OW11147   0.414   2.721  11.159 -0.3729  0.2694 -0.3703
 2600Sol     HW11148   0.429   2.704  11.067  0.4215  0.2586 -0.2467
 2600Sol     HW11149   0.405   2.816  11.165  3.1236  0.6684 -0.0118
 2600Sol     MW11150   0.415   2.728  11.152  0.4603 -0.1501 -0.1659
 2601Sol     OW11151   0.368   1.509   6.014  0.5959 -0.6186 -0.6696
 2601Sol     HW11152   0.459   1.527   5.988  1.1185 -0.4994  1.1874
 2601Sol     HW11153   0.320   1.587   5.988  0.9485 -0.8226 -1.9845
 2601Sol     MW11154   0.372   1.517   6.009  0.0475  0.3115 -0.7945
 2602Sol     OW11155   0.197   3.177  14.012  0.1556  0.1221  0.7521
 2602Sol     HW11156   0.288   3.148  14.007  0.0091 -0.1363 -0.6944
 2602Sol     HW11157   0.176   3.174  14.105  1.0921 -1.4506  0.9292
 2602Sol     MW11158   0.204   3.174  14.020  0.3443  0.6119  1.0124
 2603Sol     OW11159   0.324   1.587  14.083  0.2474 -0.3582  0.5795
 2603Sol     HW11160   0.251   1.545  14.037 -0.3849  1.6171 -0.2883
 2603Sol     HW11161   0.286   1.618  14.165 -0.2652  1.8850 -0.4742
 2603Sol     MW11162   0.314   1.586  14.086  0.0151 -0.2894 -0.0800
 2604Sol     OW11163   1.936   3.346   7.309  0.2068  0.2608  0.2806
 2604Sol     HW11164   1.853   3.337   7.261  0.9124 -0.8867 -0.7525
 2604Sol     HW11165   1.933   3.435   7.344 -1.3042  0.3657 -0.0572
 2604Sol     MW11166   1.928   3.353   7.308  1.0727 -0.3234  0.6842
 2605Sol     OW11167   1.562   2.123   8.245 -0.3338  0.3715  0.3535
 2605Sol     HW11168   1.567   2.054   8.311  1.1228  1.9820  2.0038
 2605Sol     HW11169   1.521   2.197   8.291  3.4929  2.5452  0.4918
 2605Sol     MW11170   1.559   2.123   8.255  0.5230  0.2562  0.4049
 2606Sol     OW11171   2.289   1.126   8.381 -0.2066  0.7078 -0.0410
 2606Sol     HW11172   2.330   1.061   8.438 -1.9200  0.0309  0.4577
 2606Sol     HW11173   2.283   1.083   8.295  1.0937  1.2105 -0.3938
 2606Sol     MW11174   2.292   1.116   8.378 -0.4124  0.3984  0.9777
 2607Sol     OW11175   0.911   3.435   8.372 -0.5036  0.2633  0.1780
 2607Sol     HW11176   0.842   3.389   8.326  0.2518 -0.5183 -0.1871
 2607Sol     HW11177   0.903   3.526   8.343  0.9406 -0.4838 -2.7529
 2607Sol     MW11178   0.904   3.439   8.365 -0.3509 -0.3329  0.2740
 2608Sol     OW11179   0.171   1.807   8.702  0.3823  0.7348  0.2959
 2608Sol     HW11180   0.196   1.893   8.734  0.0786  0.1014  2.3330
 2608Sol     HW11181   0.117   1.770   8.772 -1.4893 -0.1698 -1.5687
 2608Sol     MW11182   0.168   1.811   8.711 -0.4713 -0.5172  0.1023
 2609Sol     OW11183   1.485   3.010  10.569 -0.0345 -0.0726 -0.3130
 2609Sol     HW11184   1.550   3.051  10.512 -0.3153 -1.6826 -1.8417
 2609Sol     HW11185   1.433   2.955  10.510 -1.2068 -0.7103  1.2855
 2609Sol     MW11186   1.486   3.008  10.559  0.3388  0.1368 -0.2380
 2610Sol     OW11187   1.015   3.011   7.656  0.7610 -0.0393 -0.5584
 2610Sol     HW11188   1.047   2.971   7.737 -1.7352  1.0583  1.0733
 2610Sol     HW11189   1.021   2.942   7.590  1.8586 -1.2876  0.8140
 2610Sol     MW11190   1.018   3.001   7.658  0.0144 -0.5454  0.5096
 2611Sol     OW11191   2.865   3.045   6.900 -0.5106  0.8964  0.5643
 2611Sol     HW11192   2.948   3.083   6.929 -0.7881  0.5938  1.7766
 2611Sol     HW11193   2.882   3.015   6.810  0.4305  1.6145  0.4968
 2611Sol     MW11194   2.874   3.046   6.894  0.3625 -0.2854  0.0524
 2612Sol     OW11195   2.158   0.171  10.480  0.0282  0.3221 -0.0452
 2612Sol     HW11196   2.166   0.125  10.564  0.9762 -1.8230 -1.2631
 2612Sol     HW11197   2.208   0.251  10.491 -1.0611  0.7754  1.9016
 2612Sol     MW11198   2.163   0.174  10.488 -0.2103  0.2998  0.0315
 2613Sol     OW11199   2.691   3.053  12.752  0.7298  0.6602  0.4154
 2613Sol     HW11200   2.656   2.992  12.688 -0.7227  0.3480  1.4786
 2613Sol     HW11201   2.785   3.038  12.751  0.6443  0.1569 -1.1049
 2613Sol     MW11202   2.696   3.046  12.747 -0.1841  0.4278 -0.4307
 2614Sol     OW11203   1.610   0.279  13.139  0.0178  0.5656  0.4570
 2614Sol     HW11204   1.530   0.332  13.129  1.2040  2.1049 -1.1728
 2614Sol     HW11205   1.624   0.242  13.052  1.4478  0.8469  0.5672
 2614Sol     MW11206   1.604   0.280  13.130  0.3172 -0.5263 -1.2115
 2615Sol     OW11207   0.388   3.450  10.190 -0.7718  0.3059 -0.1047
 2615Sol     HW11208   0.302   3.409  10.204 -0.2057 -0.5274  0.9312
 2615Sol     HW11209   0.392   3.520  10.255  0.1969 -0.9992  1.2508
 2615Sol     MW11210   0.380   3.453  10.197  0.3844  0.4040 -0.3368
 2616Sol     OW11211   2.883   0.463  13.535  0.2779 -0.4592 -0.0675
 2616Sol     HW11212   2.900   0.389  13.593 -0.9934 -0.2540  0.6032
 2616Sol     HW11213   2.795   0.447  13.501 -0.0887  0.8362  0.2419
 2616Sol     MW11214   2.876   0.455  13.537  0.2342 -0.4640 -0.3470
 2617Sol     OW11215   1.960   2.862  12.107  0.1964  0.0641 -0.2304
 2617Sol     HW11216   1.899   2.936  12.113 -0.6852 -0.6813  0.0935
 2617Sol     HW11217   1.983   2.858  12.015 -1.6450 -0.7488 -0.6793
 2617Sol     MW11218   1.957   2.868  12.100  0.4920  0.0261  0.8306
 2618Sol     OW11219   3.292   1.971   9.886 -0.0898 -0.3856  0.5701
 2618Sol     HW11220   3.245   1.989   9.968  1.3137  1.1616  1.0644
 2618Sol     HW11221   3.274   1.878   9.868 -3.4599  0.1857  0.6308
 2618Sol     MW11222   3.286   1.964   9.892 -0.2227  0.8851 -0.6409
 2619Sol     OW11223   2.323   1.137   9.558 -0.3306  0.1770 -0.0995
 2619Sol     HW11224   2.244   1.169   9.516  0.9014  1.9492 -1.1315
 2619Sol     HW11225   2.358   1.213   9.605  1.2197 -0.3324 -0.3906
 2619Sol     MW11226   2.319   1.147   9.558  1.0612  1.0116 -0.2845
 2620Sol     OW11227   1.379   3.322   9.165 -0.0545 -0.6322  0.1599
 2620Sol     HW11228   1.459   3.295   9.208 -0.0107 -1.4023 -0.3983
 2620Sol     HW11229   1.327   3.364   9.233  1.0909  0.4389  0.3839
 2620Sol     MW11230   1.381   3.324   9.175  0.5007  0.2040  0.7790
 2621Sol     OW11231   0.863   1.209  11.874  0.2388 -0.1397 -0.0400
 2621Sol     HW11232   0.822   1.234  11.791 -2.0455 -0.9215  0.8082
 2621Sol     HW11233   0.909   1.287  11.903 -1.2588  1.0101 -0.6921
 2621Sol     MW11234   0.863   1.218  11.869  0.0044  0.7778 -0.5879
 2622Sol     OW11235   0.326   1.869   9.094 -0.5571  0.0211 -0.4769
 2622Sol     HW11236   0.403   1.923   9.112 -0.8461 -0.2551  1.7766
 2622Sol     HW11237   0.361   1.782   9.078 -0.3977 -0.1574  0.7932
 2622Sol     MW11238   0.336   1.866   9.094  0.2741 -0.2865 -0.0301
 2623Sol     OW11239   2.479   2.544  12.766 -0.3570  0.1682  0.4734
 2623Sol     HW11240   2.455   2.466  12.717  0.4105 -0.4382  1.0564
 2623Sol     HW11241   2.555   2.518  12.817  1.1320  1.8518 -0.8019
 2623Sol     MW11242   2.484   2.535  12.766  0.3682  0.2135  0.5480
 2624Sol     OW11243   0.074   1.151  13.870  0.2201  0.2538  0.5071
 2624Sol     HW11244  -0.000   1.190  13.824  0.0831  0.7770  1.1715
 2624Sol     HW11245   0.038   1.125  13.955  0.8258  0.6147  0.8741
 2624Sol     MW11246   0.064   1.152  13.874 -0.1764  0.9826  0.1382
 2625Sol     OW11247   1.773   0.356   9.306  0.0122  0.1257 -0.3697
 2625Sol     HW11248   1.814   0.319   9.384  0.7300  2.3543  0.3668
 2625Sol     HW11249   1.709   0.419   9.340 -3.6329 -2.7763 -1.5266
 2625Sol     MW11250   1.771   0.359   9.316 -0.2890 -0.7990  0.4821
 2626Sol     OW11251   2.821   3.360  10.236 -0.0821 -0.2270 -0.0073
 2626Sol     HW11252   2.843   3.417  10.310 -1.7482  0.9151 -0.3651
 2626Sol     HW11253   2.739   3.318  10.261 -1.7492  1.6851 -1.9796
 2626Sol     MW11254   2.815   3.361  10.245  0.0676 -0.1548  0.0208
 2627Sol     OW11255   0.134   0.322  13.076 -0.4411  0.1434  0.1367
 2627Sol     HW11256   0.145   0.242  13.127 -0.5066  0.2988  0.3934
 2627Sol     HW11257   0.144   0.294  12.985  4.0774  0.5484  0.3668
 2627Sol     MW11258   0.136   0.313  13.072  0.5402  0.2637  1.3752
 2628Sol     OW11259   3.272   2.764   7.001 -0.2431  0.1526  0.0793
 2628Sol     HW11260   3.241   2.676   7.019 -0.8403  0.3957  0.2347
 2628Sol     HW11261   3.205   2.802   6.944  0.4038  0.2340 -0.6356
 2628Sol     MW11262   3.263   2.760   6.997 -0.3622 -0.0222 -0.1386
 2629Sol     OW11263   2.030   1.332   9.191  0.1843 -0.0836  0.8675
 2629Sol     HW11264   2.023   1.246   9.152 -0.0209 -0.5653  1.9409
 2629Sol     HW11265   1.941   1.367   9.191  0.2191  0.0067  0.7091
 2629Sol     MW11266   2.022   1.328   9.188  0.3222  0.6926  0.4163
 2630Sol     OW11267   1.585   2.971  12.418  0.1578  0.2475  0.1308
 2630Sol     HW11268   1.517   3.038  12.408  0.1511  0.3826  0.9848
 2630Sol     HW11269   1.648   2.988  12.349 -0.1950  0.7158 -0.0713
 2630Sol     MW11270   1.584   2.978  12.411 -0.8037  0.3100 -0.5125
 2631Sol     OW11271   2.098   2.799   6.736  0.0828 -0.2509  0.1034
 2631Sol     HW11272   2.109   2.706   6.750 -0.5469 -0.4869 -0.8429
 2631Sol     HW11273   2.092   2.808   6.640 -1.5652  0.5317  0.2505
 2631Sol     MW11274   2.098   2.792   6.728  0.0859 -0.3069  0.5908
 2632Sol     OW11275   3.233   2.537  12.572  0.0386 -0.2749 -0.2103
 2632Sol     HW11276   3.178   2.547  12.650 -0.1708  0.2629 -0.4220
 2632Sol     HW11277   3.262   2.626  12.552  0.9864 -0.5516 -0.1091
 2632Sol     MW11278   3.231   2.546  12.577  0.3441 -0.5670 -0.5323
 2633Sol     OW11279   0.548   1.235  13.869  0.5518  0.5147  0.4565
 2633Sol     HW11280   0.524   1.142  13.870 -1.6132  1.0078 -2.1252
 2633Sol     HW11281   0.530   1.265  13.959  1.5480 -1.5865  1.4003
 2633Sol     MW11282   0.544   1.229  13.877 -0.9227 -0.4905  0.3874
 2634Sol     OW11283   1.495   1.379  11.748 -0.8000 -0.0420 -0.2940
 2634Sol     HW11284   1.502   1.418  11.835  0.1760 -0.1810 -0.3061
 2634Sol     HW11285   1.545   1.437  11.691  0.3927 -1.1125 -0.3647
 2634Sol     MW11286   1.500   1.387  11.751 -0.6575 -0.0309 -0.5675
 2635Sol     OW11287   2.343   3.215  14.254  0.4876  0.2305  0.1308
 2635Sol     HW11288   2.281   3.275  14.296  0.2288  1.6367 -2.1775
 2635Sol     HW11289   2.293   3.134  14.242  0.0436  0.3747  0.9932
 2635Sol     MW11290   2.333   3.213  14.257  0.1145 -0.6455  0.1067
 2636Sol     OW11291   1.602   0.548   8.904  0.0067  0.7845  0.3277
 2636Sol     HW11292   1.577   0.457   8.917  1.2145  0.4811  0.6587
 2636Sol     HW11293   1.697   0.549   8.920  0.1939  1.8919 -0.7145
 2636Sol     MW11294   1.609   0.540   8.906 -1.0795 -0.0501  0.0681
 2637Sol     OW11295   0.078   1.771  11.365  0.2078 -0.3487  0.2364
 2637Sol     HW11296   0.001   1.715  11.375  0.0810  0.0771  1.7679
 2637Sol     HW11297   0.051   1.855  11.403  0.2270  0.9279 -2.4390
 2637Sol     MW11298   0.069   1.774  11.369  0.2492 -0.6541  0.3552
 2638Sol     OW11299   1.027   1.357  10.430  0.3554 -0.7249 -0.1032
 2638Sol     HW11300   1.007   1.269  10.397  0.5194 -1.4827  1.7223
 2638Sol     HW11301   1.077   1.399  10.360 -2.1415 -1.0558 -2.1867
 2638Sol     MW11302   1.029   1.353  10.421  0.0991 -0.2657  0.0132
 2639Sol     OW11303   1.204   0.702   9.610 -0.3621 -0.0409  0.1264
 2639Sol     HW11304   1.248   0.745   9.683  1.2763  3.6988 -2.8459
 2639Sol     HW11305   1.267   0.638   9.578  0.0367  0.2258  0.3695
 2639Sol     MW11306   1.213   0.700   9.613  0.1602 -1.1049  0.4396
 2640Sol     OW11307   0.919   0.053  10.156 -0.1237 -0.2019  0.4431
 2640Sol     HW11308   0.995  -0.004  10.159 -0.0792 -0.0545  2.7101
 2640Sol     HW11309   0.951   0.138  10.186 -1.2563 -0.2319  1.7792
 2640Sol     MW11310   0.929   0.056  10.159  0.0562 -0.2503  0.2150
 2641Sol     OW11311   1.199   1.623  12.930 -0.6477 -0.1335  0.0101
 2641Sol     HW11312   1.185   1.604  13.022  1.5735  2.1889  0.8640
 2641Sol     HW11313   1.221   1.538  12.891 -0.4499 -0.9215  1.8273
 2641Sol     MW11314   1.199   1.613  12.934  0.4991  0.4879  0.4173
 2642Sol     OW11315   1.852   3.070   8.617  0.4447  0.1888  0.4526
 2642Sol     HW11316   1.870   2.982   8.584 -0.2665  0.4383 -0.6426
 2642Sol     HW11317   1.861   3.126   8.540  1.1133  1.1049  1.1944
 2642Sol     MW11318   1.854   3.067   8.607 -0.1352 -0.1429  0.6973
 2643Sol     OW11319   2.549   1.948  12.821 -0.3638 -0.4032 -0.3357
 2643Sol     HW11320   2.619   1.923  12.880 -2.5526 -0.7410  2.2032
 2643Sol     HW11321   2.538   2.042  12.835 -0.7914 -0.4576 -0.2928
 2643Sol     MW11322   2.554   1.954  12.827 -0.0569  0.3116  0.2128
 2644Sol     OW11323   2.172   1.909  12.681 -0.5362  0.4800 -0.1635
 2644Sol     HW11324   2.096   1.855  12.705  2.1779 -3.7196 -0.5728
 2644Sol     HW11325   2.190   1.887  12.590 -0.0343  3.0316 -0.7319
 2644Sol     MW11326   2.167   1.902  12.675 -0.5341  0.4730 -0.0983
 2645Sol     OW11327   1.821   3.326  10.359  0.2779  0.4007  0.3220
 2645Sol     HW11328   1.905   3.369  10.339 -0.1115  0.9795 -0.0958
 2645Sol     HW11329   1.769   3.394  10.402 -0.6393  0.6164 -1.0685
 2645Sol     MW11330   1.824   3.336  10.361 -0.0959  0.3482  0.5534
 2646Sol     OW11331   1.259   3.188   8.589 -0.3791 -0.0965  0.1996
 2646Sol     HW11332   1.213   3.193   8.505 -0.1546 -0.2583  0.0677
 2646Sol     HW11333   1.347   3.157   8.567  0.0156  0.8914  0.3764
 2646Sol     MW11334   1.263   3.185   8.580 -0.7808  0.4268 -1.0246
 2647Sol     OW11335   0.537   1.568  12.921 -0.0016  0.3883 -0.1700
 2647Sol     HW11336   0.462   1.618  12.954  0.5328  0.0460  1.5813
 2647Sol     HW11337   0.532   1.580  12.826 -0.9184  2.3121  0.0782
 2647Sol     MW11338   0.529   1.574  12.915  0.9707 -0.6024  0.2567
 2648Sol     OW11339   3.055   0.344   8.671  0.3278 -0.1022 -0.0616
 2648Sol     HW11340   3.034   0.298   8.752 -0.5837  0.9850  0.3227
 2648Sol     HW11341   3.131   0.298   8.636 -0.2802 -1.6079  0.5686
 2648Sol     MW11342   3.060   0.336   8.675 -0.5022 -0.0927 -0.9057
 2649Sol     OW11343   0.427   0.626  12.740 -0.8735  0.5444 -0.1325
 2649Sol     HW11344   0.448   0.581  12.821 -1.6834 -0.8277 -0.6569
 2649Sol     HW11345   0.361   0.570  12.698 -1.5075  1.9447 -1.0633
 2649Sol     MW11346   0.423   0.617  12.743 -0.7207 -0.3969  0.3519
 2650Sol     OW11347   2.196   2.922   7.055  0.0098  0.1154  0.3598
 2650Sol     HW11348   2.231   2.867   6.985 -0.7268 -1.3120  1.0867
 2650Sol     HW11349   2.273   2.952   7.103  0.5231  1.2050 -1.1337
 2650Sol     MW11350   2.206   2.920   7.053 -0.2978  0.6899 -0.3315
 2651Sol     OW11351   2.186   1.796   9.366  0.7216  0.0708 -0.1160
 2651Sol     HW11352   2.150   1.771   9.281 -0.1660 -0.1816  0.3152
 2651Sol     HW11353   2.272   1.755   9.369  0.5773 -0.2821 -0.7268
 2651Sol     MW11354   2.190   1.790   9.359  0.0075 -0.0882 -0.6006
 2652Sol     OW11355   1.316   0.622   8.583 -0.2298 -0.1542 -0.3796
 2652Sol     HW11356   1.400   0.587   8.555 -0.2287 -0.3072 -0.1793
 2652Sol     HW11357   1.252   0.578   8.526 -0.3162 -1.1864  0.5076
 2652Sol     MW11358   1.317   0.615   8.575  0.3347 -0.2764 -0.4667
 2653Sol     OW11359   3.223   3.102   6.810  0.0114 -0.4259 -1.0580
 2653Sol     HW11360   3.184   3.015   6.803  0.9131 -0.9713  0.3445
 2653Sol     HW11361   3.220   3.121   6.904  2.1116 -0.0293 -1.0467
 2653Sol     MW11362   3.220   3.096   6.818  0.0556  0.1885  0.0987
 2654Sol     OW11363   1.034   1.431  11.565 -0.2886 -0.6246 -0.4586
 2654Sol     HW11364   1.096   1.388  11.624 -3.1461 -1.2613  2.2085
 2654Sol     HW11365   1.000   1.360  11.510 -0.5860 -0.7308 -0.1383
 2654Sol     MW11366   1.036   1.421  11.565  0.0990 -0.1751 -0.7624
 2655Sol     OW11367   0.208   0.330   7.790 -0.6529 -0.6438  0.0056
 2655Sol     HW11368   0.236   0.407   7.740 -0.8508 -0.1069  0.7135
 2655Sol     HW11369   0.134   0.362   7.842  0.0018 -1.0282  1.1699
 2655Sol     MW11370   0.204   0.340   7.790  0.3073 -0.1681 -0.0385
 2656Sol     OW11371   0.201   1.166   7.152 -0.5270 -0.1182 -0.4941
 2656Sol     HW11372   0.210   1.217   7.072 -0.2173 -1.2654 -1.1887
 2656Sol     HW11373   0.108   1.142   7.155 -0.8377  1.1149  0.2310
 2656Sol     MW11374   0.193   1.169   7.145 -0.3710  1.0090  0.2169
 2657Sol     OW11375   2.995   3.084   7.439 -0.0465 -0.0016  0.3088
 2657Sol     HW11376   2.910   3.095   7.397 -0.2000  0.1105  0.6481
 2657Sol     HW11377   3.028   3.000   7.406 -0.8043 -0.6003  1.0750
 2657Sol     MW11378   2.991   3.078   7.432  0.5095  0.0276  0.1980
 2658Sol     OW11379   1.351   1.647  10.481  0.4565  0.1830  0.4779
 2658Sol     HW11380   1.311   1.639  10.394  1.2443 -1.6015  0.2730
 2658Sol     HW11381   1.310   1.726  10.518 -0.1825  0.7369 -1.3406
 2658Sol     MW11382   1.343   1.654  10.476  0.3504  0.0511  0.2493
 2659Sol     OW11383   0.801   0.227   6.775  0.5499  0.3017 -0.1390
 2659Sol     HW11384   0.887   0.214   6.815  0.7594  1.7640 -0.0848
 2659Sol     HW11385   0.756   0.143   6.786  2.3293 -0.8029 -1.0583
 2659Sol     MW11386   0.805   0.218   6.779  0.2620 -0.4566  0.1946
 2660Sol     OW11387   0.463   1.357   8.024  0.3263 -0.4066  0.2382
 2660Sol     HW11388   0.511   1.396   8.097  0.3323 -2.4743  1.3765
 2660Sol     HW11389   0.531   1.331   7.962  0.3489  0.9839 -0.3297
 2660Sol     MW11390   0.473   1.358   8.025 -0.2913  0.2567 -0.1100
 2661Sol     OW11391   0.896   2.209  14.175  0.5020 -0.0501 -0.6230
 2661Sol     HW11392   0.931   2.124  14.148 -0.3907 -1.9621  3.6561
 2661Sol     HW11393   0.801   2.201  14.163  0.3187 -0.0898  0.7512
 2661Sol     MW11394   0.890   2.200  14.172  0.1756  0.4285  0.8330
 2662Sol     OW11395   0.973   2.503  13.798  0.5413 -0.0757 -0.7463
 2662Sol     HW11396   0.930   2.555  13.866 -0.4553  0.5010 -1.7821
 2662Sol     HW11397   0.977   2.562  13.723  1.8072 -0.6390 -1.1272
 2662Sol     MW11398   0.969   2.513  13.797 -0.2591 -0.1743 -0.4633
 2663Sol     OW11399   2.573   3.290  13.202  0.2275  0.0200 -0.4507
 2663Sol     HW11400   2.617   3.247  13.275 -0.4185  1.5923  0.9019
 2663Sol     HW11401   2.615   3.376  13.196 -1.9312  1.1696  0.2542
 2663Sol     MW11402   2.580   3.294  13.208 -0.4608 -0.3619 -0.6221
 2664Sol     OW11403   1.141   3.370   5.900  0.2975 -0.3409  0.0651
 2664Sol     HW11404   1.079   3.442   5.888  0.8743  0.4493  1.7353
 2664Sol     HW11405   1.204   3.402   5.964  0.9953 -2.0702  0.2864
 2664Sol     MW11406   1.141   3.379   5.904 -0.2720 -0.2414  0.0082
 2665Sol     OW11407   0.385   0.190   9.596  0.3316  0.3911  0.4778
 2665Sol     HW11408   0.390   0.275   9.552 -0.4448 -0.1328 -0.6758
 2665Sol     HW11409   0.294   0.184   9.625  0.5375  0.2054  1.0969
 2665Sol     MW11410   0.377   0.197   9.595  0.1988 -0.0434  0.3964
 2666Sol     OW11411   0.710   0.152  11.912  0.2539 -0.0431  0.3365
 2666Sol     HW11412   0.728   0.118  11.824  0.2524  0.0993  0.2815
 2666Sol     HW11413   0.723   0.246  11.904  0.2138 -0.0258  0.4797
 2666Sol     MW11414   0.712   0.157  11.903  0.2175  0.4925  0.1783
 2667Sol     OW11415   2.808   1.637  13.040 -0.0784 -0.2458  0.0199
 2667Sol     HW11416   2.795   1.728  13.013  1.0057 -0.5879 -1.7191
 2667Sol     HW11417   2.757   1.586  12.976  0.3846 -0.9293  0.1918
 2667Sol     MW11418   2.802   1.640  13.032  0.7856 -0.0797 -0.6751
 2668Sol     OW11419   1.611   2.152  10.345  0.0743  0.1918 -0.2030
 2668Sol     HW11420   1.582   2.078  10.397  1.5714 -0.7814 -0.7109
 2668Sol     HW11421   1.566   2.141  10.261 -1.3869  1.0821  0.4434
 2668Sol     MW11422   1.604   2.144  10.342 -0.4469  0.4476 -0.3363
 2669Sol     OW11423   0.975   1.928  12.067  0.6353  0.4554 -0.2465
 2669Sol     HW11424   0.968   1.909  11.973 -2.0312  0.8536 -0.1664
 2669Sol     HW11425   1.005   2.018  12.072 -3.4634  1.9451 -0.8210
 2669Sol     MW11426   0.977   1.934  12.059  0.2935  0.1290 -0.4071
 2670Sol     OW11427   1.567   1.755   7.299 -0.0651  0.2283  0.2209
 2670Sol     HW11428   1.528   1.763   7.386 -1.5680  0.2388 -0.4395
 2670Sol     HW11429   1.541   1.667   7.270  0.2462  0.3125 -0.3012
 2670Sol     MW11430   1.561   1.747   7.304  0.3933 -0.0213 -0.4383
 2671Sol     OW11431   0.808   2.316  10.291  0.1234  0.1249  0.4144
 2671Sol     HW11432   0.741   2.255  10.320 -1.5124  1.5245 -0.3557
 2671Sol     HW11433   0.834   2.285  10.204  1.8585 -1.5011  1.4740
 2671Sol     MW11434   0.804   2.308  10.286 -0.5105  0.1407 -0.1866
 2672Sol     OW11435   2.248   2.753   9.649 -0.2392  0.2225  0.1983
 2672Sol     HW11436   2.328   2.788   9.686 -0.1727 -0.7397  0.9845
 2672Sol     HW11437   2.268   2.661   9.630 -1.1971 -0.0769  0.5776
 2672Sol     MW11438   2.257   2.748   9.651 -0.4994  0.0781  0.5786
 2673Sol     OW11439   1.986   1.081   9.099  0.0230  0.3586  0.9561
 2673Sol     HW11440   2.070   1.036   9.108  0.2088  0.6245  0.5838
 2673Sol     HW11441   1.969   1.081   9.005 -0.5306  0.0592  1.0546
 2673Sol     MW11442   1.992   1.077   9.091 -0.3504 -0.0747  0.0283
 2674Sol     OW11443   0.702   0.071  10.009  0.7888  0.0324 -0.2143
 2674Sol     HW11444   0.725   0.140   9.947  1.6902  0.0262  0.1077
 2674Sol     HW11445   0.783   0.053  10.056 -0.2318  1.1046  2.0363
 2674Sol     MW11446   0.711   0.075  10.007  0.2593 -0.1958 -0.5070
 2675Sol     OW11447   1.921   2.570   7.589 -0.1415 -0.6698 -0.1193
 2675Sol     HW11448   1.969   2.650   7.609 -1.0637 -0.4006  1.0488
 2675Sol     HW11449   1.956   2.505   7.650 -1.6475 -0.3245  1.1422
 2675Sol     MW11450   1.929   2.571   7.596  0.6251  0.9574 -0.2338
 2676Sol     OW11451   0.038   0.391  12.122 -0.6304 -0.5458  0.2819
 2676Sol     HW11452  -0.017   0.332  12.070  0.2628 -0.1484 -1.1634
 2676Sol     HW11453   0.076   0.336  12.189 -2.2302 -0.9715  0.8689
 2676Sol     MW11454   0.036   0.381  12.123 -0.8391 -0.0366 -0.2553
 2677Sol     OW11455   2.106   1.243   6.267 -0.4624  0.1210 -0.3840
 2677Sol     HW11456   2.034   1.273   6.322 -1.2073  0.1542 -1.3482
 2677Sol     HW11457   2.138   1.164   6.310 -0.0336  0.9784  0.9036
 2677Sol     MW11458   2.103   1.239   6.276  0.3078 -0.1592  0.2878
 2678Sol     OW11459   3.188   2.103  13.716 -0.2231  0.0099 -0.3689
 2678Sol     HW11460   3.252   2.063  13.658 -0.0531  0.7031 -0.6612
 2678Sol     HW11461   3.209   2.197  13.715 -2.3075  0.5054 -1.8147
 2678Sol     MW11462   3.195   2.108  13.711  0.0730 -0.1863 -0.2495
 2679Sol     OW11463   2.267   2.992   6.771  0.1487 -0.5287  0.1548
 2679Sol     HW11464   2.250   3.047   6.695  0.9462 -1.9539 -1.0658
 2679Sol     HW11465   2.209   2.917   6.761 -0.4780 -0.2425  1.4844
 2679Sol     MW11466   2.260   2.990   6.764 -0.1296 -0.4798  0.3254
 2680Sol     OW11467   1.938   0.029  12.790 -0.2158 -0.1656  0.1235
 2680Sol     HW11468   2.010  -0.021  12.751  1.3758  3.1311 -1.3867
 2680Sol     HW11469   1.929  -0.007  12.878  1.9616 -2.0062 -0.3582
 2680Sol     MW11470   1.944   0.021  12.794 -0.0461 -0.5869  0.4521
 2681Sol     OW11471   1.322   0.807   7.330 -0.2814 -0.7747 -1.1350
 2681Sol     HW11472   1.408   0.794   7.370 -0.5797 -1.1215 -0.6070
 2681Sol     HW11473   1.320   0.900   7.308  0.2031 -0.7509 -1.0886
 2681Sol     MW11474   1.330   0.815   7.332  0.3778  0.2154 -0.3358
 2682Sol     OW11475   2.712   1.168  10.717  0.0629  0.0630 -0.5767
 2682Sol     HW11476   2.717   1.251  10.764  1.4189  0.1610 -0.8631
 2682Sol     HW11477   2.737   1.190  10.627 -0.9897 -0.4026 -0.9955
 2682Sol     MW11478   2.715   1.177  10.713 -0.3558  0.3446  0.4209
 2683Sol     OW11479   0.492   0.567   7.809 -0.8041  0.0462  0.0907
 2683Sol     HW11480   0.440   0.558   7.729  1.2456 -0.7838 -1.2175
 2683Sol     HW11481   0.475   0.486   7.857 -1.0281 -0.0506 -0.1465
 2683Sol     MW11482   0.486   0.559   7.806 -0.5936  0.1952 -0.0905
 2684Sol     OW11483   1.019   1.836   9.987  0.4493  0.1857  0.0900
 2684Sol     HW11484   1.051   1.926   9.986 -0.0547  0.3650  0.1029
 2684Sol     HW11485   0.967   1.827   9.907 -0.8145  0.3874  0.8812
 2684Sol     MW11486   1.017   1.843   9.980 -0.1698 -0.1032  0.1920
 2685Sol     OW11487   0.097   1.059  10.241  0.2202  0.2517  0.4111
 2685Sol     HW11488   0.095   0.986  10.179  1.1429 -0.2676  0.9784
 2685Sol     HW11489   0.136   1.132  10.192 -0.5165  0.3106 -0.0937
 2685Sol     MW11490   0.100   1.059  10.231 -0.4900 -0.3045 -0.5487
 2686Sol     OW11491   0.507   2.668  11.768  0.1796  0.4471 -0.7066
 2686Sol     HW11492   0.517   2.620  11.850  0.8519  1.2598 -0.2974
 2686Sol     HW11493   0.498   2.601  11.701 -0.0925 -0.2273  0.0063
 2686Sol     MW11494   0.507   2.658  11.769  0.3415 -0.1730  0.3239
 2687Sol     OW11495   0.092   0.520  14.041 -0.4129 -0.3521 -0.0778
 2687Sol     HW11496   0.096   0.463  13.964  0.0992 -0.5426  0.0868
 2687Sol     HW11497   0.140   0.472  14.108  1.3182  0.9605 -0.3609
 2687Sol     MW11498   0.097   0.510  14.040  0.1916  0.3385  0.2012
 2688Sol     OW11499   0.446   2.982  13.519 -0.3689  0.3314 -0.7358
 2688Sol     HW11500   0.383   2.934  13.573 -0.5865  0.6088 -0.7406
 2688Sol     HW11501   0.525   2.927  13.519 -0.6823 -0.1264 -0.9056
 2688Sol     MW11502   0.447   2.973  13.524 -0.2465 -0.1027 -0.2480
 2689Sol     OW11503   1.463   1.874  13.417 -0.1412  0.3296 -0.4570
 2689Sol     HW11504   1.486   1.913  13.501  1.6906 -0.8997 -0.3484
 2689Sol     HW11505   1.399   1.934  13.379 -0.5925  1.1564  1.5811
 2689Sol     MW11506   1.460   1.883  13.421 -0.0165  0.3496  0.5586
 2690Sol     OW11507   0.432   1.928  10.488 -0.2821  0.2129 -0.1968
 2690Sol     HW11508   0.464   1.862  10.549 -0.9193  2.2393  2.4345
 2690Sol     HW11509   0.384   1.879  10.422  0.2356 -2.0347  1.0544
 2690Sol     MW11510   0.431   1.918  10.488 -0.2354  0.3169  0.6445
 2691Sol     OW11511   1.965   2.312  11.288 -0.2899 -0.5338 -0.0302
 2691Sol     HW11512   1.947   2.278  11.200  0.0818 -3.8263  1.0691
 2691Sol     HW11513   1.879   2.315  11.330 -0.2569 -0.7785  0.0605
 2691Sol     MW11514   1.956   2.309  11.284  0.1650  0.2835  0.9281
 2692Sol     OW11515   0.872   0.273  12.292  0.3879  0.6790  0.2839
 2692Sol     HW11516   0.781   0.261  12.319  1.0131 -1.6281  1.4546
 2692Sol     HW11517   0.921   0.279  12.375  1.5134  0.2541 -0.3478
 2692Sol     MW11518   0.868   0.273  12.302 -0.5775 -0.3320  0.1570
 2693Sol     OW11519   1.262   1.154   7.830  0.4457 -0.5513 -0.2622
 2693Sol     HW11520   1.307   1.138   7.747  1.5068  2.0167 -0.2314
 2693Sol     HW11521   1.254   1.249   7.835 -2.7146 -0.7962  0.9584
 2693Sol     MW11522   1.265   1.161   7.823  0.6399  0.3432  0.8574
 2694Sol     OW11523   1.183   2.122  10.689  0.5869  0.2413  0.0863
 2694Sol     HW11524   1.177   2.217  10.679  1.8559  0.3059 -0.2141
 2694Sol     HW11525   1.230   2.110  10.771  0.4337 -0.1256  0.1195
 2694Sol     MW11526   1.187   2.130  10.695 -0.3236 -0.4053 -0.3073
 2695Sol     OW11527   2.288   0.783  10.152 -0.3437  0.3154  0.0559
 2695Sol     HW11528   2.279   0.874  10.181 -1.1430  0.6068 -1.0923
 2695Sol     HW11529   2.239   0.778  10.070  2.4278 -0.3131 -1.6634
 2695Sol     MW11530   2.283   0.791  10.147 -0.1728 -0.0112 -0.0612
 2696Sol     OW11531   2.643   1.929   8.017  0.5663 -0.2683  0.1519
 2696Sol     HW11532   2.738   1.928   8.031  0.4782 -0.5749  0.7160
 2696Sol     HW11533   2.608   1.871   8.085 -0.0680  0.2507  0.2685
 2696Sol     MW11534   2.649   1.924   8.024  0.5719 -0.1719  0.3148
 2697Sol     OW11535   0.308   0.047   7.830 -0.7945 -0.4130  0.5470
 2697Sol     HW11536   0.297   0.123   7.773 -0.2355 -1.0384 -0.4028
 2697Sol     HW11537   0.221   0.005   7.830  0.0916 -2.4866 -2.8684
 2697Sol     MW11538   0.299   0.050   7.825  0.0439  0.4153  0.2622
 2698Sol     OW11539   1.011   1.049  12.527 -0.5436  0.0625 -0.0638
 2698Sol     HW11540   0.945   1.025  12.592 -0.2115 -0.1973  0.1800
 2698Sol     HW11541   1.079   0.982  12.535 -0.8414 -0.3886 -1.1914
 2698Sol     MW11542   1.011   1.041  12.534  0.1714  0.3142 -0.3721
 2699Sol     OW11543   1.304   1.050  11.264  0.0100  0.1075 -0.1746
 2699Sol     HW11544   1.359   1.057  11.342 -0.0357  2.3671 -0.2959
 2699Sol     HW11545   1.285   0.957  11.255 -0.0604 -0.1671  2.5681
 2699Sol     MW11546   1.307   1.042  11.270  0.0812 -0.1376  0.0944
 2700Sol     OW11547   0.432   0.687   7.066 -0.0312  0.0845 -0.2449
 2700Sol     HW11548   0.401   0.671   6.977  0.7202 -0.8480 -0.3450
 2700Sol     HW11549   0.434   0.782   7.074 -0.4435  0.1721 -1.1038
 2700Sol     MW11550   0.429   0.694   7.059 -0.1504  0.3993  0.1647
 2701Sol     OW11551   1.004   2.195   8.512 -0.0597 -0.1921  0.6584
 2701Sol     HW11552   1.084   2.177   8.561 -0.0849  2.0721  1.6163
 2701Sol     HW11553   1.027   2.269   8.456 -0.9295 -0.7954 -0.5154
 2701Sol     MW11554   1.013   2.200   8.511 -1.1945  0.0674 -0.3951
 2702Sol     OW11555   3.322   0.040   9.465  0.3522 -0.7170  0.0812
 2702Sol     HW11556   3.268   0.115   9.439 -0.1302 -1.4036 -0.9229
 2702Sol     HW11557   3.274  -0.000   9.537  1.2586  0.6809  1.5089
 2702Sol     MW11558   3.313   0.043   9.469 -0.2108  0.2248  0.4619
 2703Sol     OW11559   0.221   3.427  13.372  0.2065 -0.0005  0.4262
 2703Sol     HW11560   0.314   3.438  13.393  0.3415 -0.9173  0.2998
 2703Sol     HW11561   0.187   3.372  13.442 -0.3433  0.7090  0.7181
 2703Sol     MW11562   0.226   3.423  13.380 -0.6989 -0.5995  0.5772
 2704Sol     OW11563   1.323   2.669  13.979 -0.6894  0.3238 -0.2351
 2704Sol     HW11564   1.316   2.765  13.976  2.4132  0.7424  2.9630
 2704Sol     HW11565   1.251   2.642  14.035 -1.6399  0.7270 -1.2259
 2704Sol     MW11566   1.316   2.675  13.983 -0.5584 -0.1125 -0.1094
 2705Sol     OW11567   0.879   1.515   7.650  0.0629  0.0806 -0.2072
 2705Sol     HW11568   0.819   1.588   7.639  0.3027  0.1231 -1.2914
 2705Sol     HW11569   0.823   1.439   7.667 -0.1335  0.7679  2.5451
 2705Sol     MW11570   0.869   1.515   7.651  0.5492 -0.5679 -0.6967
 2706Sol     OW11571   2.289   1.123  10.819 -0.0217  0.0578  0.8602
 2706Sol     HW11572   2.285   1.216  10.840 -0.2321  0.3339 -0.3713
 2706Sol     HW11573   2.201   1.102  10.786  0.1980 -0.4409  0.5829
 2706Sol     MW11574   2.281   1.129  10.818 -0.2400  0.5692 -0.1937
 2707Sol     OW11575   0.375   1.940   8.238 -0.0269 -0.0591  0.1922
 2707Sol     HW11576   0.453   1.886   8.252  0.5622  0.6404 -0.4049
 2707Sol     HW11577   0.317   1.915   8.310  1.1893  0.2413  1.2991
 2707Sol     MW11578   0.377   1.933   8.245  0.0934  0.5837 -0.2524
 2708Sol     OW11579   1.247   2.612   6.400  0.7779  0.6789  0.5631
 2708Sol     HW11580   1.167   2.572   6.433  0.6938 -0.2713 -0.7737
 2708Sol     HW11581   1.221   2.701   6.376 -0.5525 -0.4565 -2.3963
 2708Sol     MW11582   1.238   2.617   6.401 -0.0203 -0.2738 -0.0676
 2709Sol     OW11583   2.367   1.439   9.492 -0.2142  0.3585  0.0707
 2709Sol     HW11584   2.327   1.426   9.406 -0.5343  2.4388 -0.1037
 2709Sol     HW11585   2.447   1.489   9.474  1.0348 -1.3202  0.7355
 2709Sol     MW11586   2.371   1.442   9.483  0.3098  0.1653  0.2488
 2710Sol     OW11587   2.821   2.553   8.282  0.1018 -0.0015 -0.6064
 2710Sol     HW11588   2.866   2.498   8.347  2.0754  2.4176  0.1476
 2710Sol     HW11589   2.867   2.534   8.200  1.9550  1.7326 -0.0201
 2710Sol     MW11590   2.829   2.546   8.281  0.1006  0.0076  0.0601
 2711Sol     OW11591   1.550   1.514   6.499 -0.2361  0.5903 -0.0503
 2711Sol     HW11592   1.645   1.514   6.503 -0.1578  1.3127 -1.7385
 2711Sol     HW11593   1.524   1.605   6.513 -0.7903  0.1062  2.3018
 2711Sol     MW11594   1.556   1.522   6.501 -0.0341 -0.3205  0.8791
 2712Sol     OW11595   0.887   3.298   8.683 -0.5443 -0.2301 -0.1032
 2712Sol     HW11596   0.967   3.331   8.642 -1.1412  0.2869 -0.8763
 2712Sol     HW11597   0.837   3.377   8.704 -0.6084 -0.5297  0.8617
 2712Sol     MW11598   0.889   3.308   8.681  0.1207 -0.0130 -0.8048
 2713Sol     OW11599   0.297   3.105  11.777  0.0239  0.3099 -0.4288
 2713Sol     HW11600   0.360   3.048  11.732 -1.9857 -1.5332 -0.9888
 2713Sol     HW11601   0.290   3.069  11.865 -0.5846  0.2470 -0.5046
 2713Sol     MW11602   0.302   3.097  11.780  0.0227 -0.3139  0.2973
 2714Sol     OW11603   0.032   1.124  13.429  0.0794  0.3426  0.4942
 2714Sol     HW11604  -0.041   1.185  13.419 -0.2935 -0.3845 -1.4476
 2714Sol     HW11605  -0.009   1.046  13.467 -0.6189 -0.8294 -2.4998
 2714Sol     MW11606   0.021   1.122  13.432 -0.4382  0.4569  0.3260
 2715Sol     OW11607   3.061   1.568   6.188 -0.4370 -0.0762 -0.1664
 2715Sol     HW11608   2.994   1.634   6.207 -0.8816 -0.4140 -0.5476
 2715Sol     HW11609   3.030   1.489   6.232 -0.9556 -0.5845 -1.4089
 2715Sol     MW11610   3.052   1.567   6.193 -0.3308  0.1620  0.2209
 2716Sol     OW11611   1.440   1.858  12.448 -0.2933 -0.0474  0.2547
 2716Sol     HW11612   1.520   1.888  12.491 -0.8851 -0.3427  1.5785
 2716Sol     HW11613   1.456   1.766  12.428  0.2252  0.2512 -0.7618
 2716Sol     MW11614   1.448   1.852  12.450  0.0150  0.1985 -0.6539
 2717Sol     OW11615   1.164   2.856  12.622  0.5031  0.1286  0.0438
 2717Sol     HW11616   1.252   2.869  12.658 -0.3257  1.7095  1.5253
 2717Sol     HW11617   1.164   2.905  12.540  0.5245  1.3889  0.7916
 2717Sol     MW11618   1.172   2.861  12.618  0.4129 -0.1987  0.0421
 2718Sol     OW11619   2.418   1.307  13.289  0.5367  0.0081 -0.3344
 2718Sol     HW11620   2.502   1.287  13.330  0.5455  1.8825  0.5746
 2718Sol     HW11621   2.418   1.402  13.277 -0.2516 -0.2678 -2.9939
 2718Sol     MW11622   2.426   1.313  13.291 -0.8255 -0.2436 -0.3494
 2719Sol     OW11623   2.573   3.261  10.986  0.1528  0.3605 -0.2231
 2719Sol     HW11624   2.596   3.338  10.933 -2.3523  0.9995 -0.4423
 2719Sol     HW11625   2.548   3.297  11.071 -1.8320 -0.1424 -0.5875
 2719Sol     MW11626   2.573   3.271  10.989 -0.4225  0.0718  0.0394
 2720Sol     OW11627   2.977   2.997   9.808  0.3569 -0.0579 -0.1159
 2720Sol     HW11628   2.939   3.084   9.813 -1.9979 -1.0299 -0.4725
 2720Sol     HW11629   3.013   2.992   9.720 -2.9311 -0.7508 -1.5051
 2720Sol     MW11630   2.977   3.004   9.801  0.3518 -0.4008  0.1664
 2721Sol     OW11631   2.906   3.146   7.717 -0.0304  0.7737 -0.1915
 2721Sol     HW11632   2.834   3.200   7.684 -1.4962 -0.9736  0.0791
 2721Sol     HW11633   2.948   3.112   7.639 -1.7906 -1.1408 -0.3421
 2721Sol     MW11634   2.903   3.148   7.707 -0.1193 -0.6100 -0.4786
 2722Sol     OW11635   0.619   2.037  10.081 -0.2564 -0.1903 -0.7602
 2722Sol     HW11636   0.537   2.031  10.032 -0.4563 -0.4403 -0.3934
 2722Sol     HW11637   0.591   2.056  10.171  0.1195  0.5404 -0.7920
 2722Sol     MW11638   0.609   2.038  10.085 -0.1701 -0.5417 -0.3805
 2723Sol     OW11639   2.306   0.171  11.821  0.0178 -0.6283  0.1030
 2723Sol     HW11640   2.296   0.161  11.915  1.3311 -1.8232  0.1259
 2723Sol     HW11641   2.299   0.082  11.786  1.7852 -0.4626 -0.7093
 2723Sol     MW11642   2.304   0.162  11.826 -0.2977  0.0489  0.1777
 2724Sol     OW11643   0.679   1.575   9.036 -0.1646 -0.2526 -0.0054
 2724Sol     HW11644   0.716   1.659   9.008  1.1201 -0.2459  1.5814
 2724Sol     HW11645   0.674   1.522   8.957 -1.6281  1.5469 -1.1442
 2724Sol     MW11646   0.682   1.578   9.027  0.0923  0.4526 -0.1056
 2725Sol     OW11647   0.514   1.317   8.401  1.2175  0.7068 -0.5729
 2725Sol     HW11648   0.595   1.271   8.423  0.8223  0.3014  0.0314
 2725Sol     HW11649   0.464   1.253   8.349  1.2303  0.9082 -0.8303
 2725Sol     MW11650   0.517   1.307   8.398 -0.0729  0.0848  0.1850
 2726Sol     OW11651   2.806   3.261  11.542 -0.1015 -0.0078  0.9062
 2726Sol     HW11652   2.768   3.174  11.553 -0.0527 -0.2264 -0.4841
 2726Sol     HW11653   2.897   3.251  11.570 -0.0882 -0.4170  0.7262
 2726Sol     MW11654   2.811   3.252  11.545  0.1850 -0.0028  0.0212
 2727Sol     OW11655   0.377   2.953   9.811  0.2568 -0.2731 -0.2098
 2727Sol     HW11656   0.335   3.033   9.782  0.7111 -0.4719 -1.4830
 2727Sol     HW11657   0.451   2.982   9.865  0.3106  0.1609 -0.5191
 2727Sol     MW11658   0.380   2.963   9.813  0.2183 -0.5218 -0.4793
 2728Sol     OW11659   1.732   2.525  14.136 -0.2020  0.2681  0.6454
 2728Sol     HW11660   1.671   2.598  14.121  1.2055  1.3476  0.0602
 2728Sol     HW11661   1.682   2.463  14.189 -1.7976  1.1516  0.2199
 2728Sol     MW11662   1.722   2.526  14.140  0.3986  0.0357  0.2032
 2729Sol     OW11663   0.490   1.956  12.769  0.1774  0.5172  0.0478
 2729Sol     HW11664   0.534   1.911  12.841  0.4015  2.7765  1.3682
 2729Sol     HW11665   0.559   2.010  12.729  0.2827 -1.3955 -2.4700
 2729Sol     MW11666   0.500   1.957  12.772 -0.4122 -0.7942  0.1815
 2730Sol     OW11667   0.268   2.739  12.167 -0.5495 -0.0399 -0.4801
 2730Sol     HW11668   0.259   2.663  12.225 -0.9517  1.3072  1.3043
 2730Sol     HW11669   0.362   2.754  12.161 -0.5202  0.1908  0.3907
 2730Sol     MW11670   0.275   2.734  12.172 -0.2136 -0.7588  0.5824
 2731Sol     OW11671   0.198   0.302  10.549 -0.5386  0.1823  0.0688
 2731Sol     HW11672   0.106   0.283  10.568 -0.4183 -0.1220  0.3424
 2731Sol     HW11673   0.203   0.398  10.549 -0.7169  0.1960  0.7197
 2731Sol     MW11674   0.190   0.309  10.551 -0.2700 -0.1538 -0.0964
 2732Sol     OW11675   0.626   0.578  12.559 -0.3343  0.7072  0.4448
 2732Sol     HW11676   0.587   0.610  12.478 -0.7408 -0.2321  0.2599
 2732Sol     HW11677   0.563   0.603  12.627 -1.2357 -0.7126  0.1577
 2732Sol     MW11678   0.616   0.583  12.558 -0.1525 -0.4060 -0.0409
 2733Sol     OW11679   2.832   2.404  14.358 -0.1133 -0.5895 -0.0527
 2733Sol     HW11680   2.925   2.386  14.368 -0.4092 -1.5653  1.0610
 2733Sol     HW11681   2.789   2.343  14.418 -1.6197 -1.9389 -2.4143
 2733Sol     MW11682   2.836   2.397  14.364 -0.4495  0.3585 -0.5427
 2734Sol     OW11683   2.732   0.223  10.534  0.1269 -0.4811  0.2521
 2734Sol     HW11684   2.720   0.272  10.615  2.1666 -2.2122  1.6495
 2734Sol     HW11685   2.645   0.193  10.510 -0.2639 -1.5078  2.8184
 2734Sol     MW11686   2.723   0.225  10.539  0.2018  0.5259  0.0350
 2735Sol     OW11687   1.944   2.410   8.673 -0.5240 -0.2565 -0.4099
 2735Sol     HW11688   2.001   2.443   8.603 -1.6117  0.3937 -1.0077
 2735Sol     HW11689   1.977   2.322   8.692 -0.2754 -0.4776 -1.8137
 2735Sol     MW11690   1.952   2.405   8.669  0.3583 -0.9748  0.1821
 2736Sol     OW11691   0.749   1.115  12.110 -0.4247  0.1819  0.3126
 2736Sol     HW11692   0.772   1.157  12.027 -0.9065 -1.5684 -0.7242
 2736Sol     HW11693   0.833   1.105  12.156  0.3352 -1.9265 -1.4443
 2736Sol     MW11694   0.759   1.118  12.107 -0.3766 -0.3680 -0.3779
 2737Sol     OW11695   2.178   0.612  10.372 -0.5888  0.3429 -0.4920
 2737Sol     HW11696   2.233   0.672  10.321  1.2113 -0.5057  0.3901
 2737Sol     HW11697   2.146   0.666  10.444 -1.0253  0.8821 -1.0820
 2737Sol     MW11698   2.180   0.623  10.374  0.3686  0.0830 -0.3525
 2738Sol     OW11699   2.835   0.450   6.251 -0.0929 -0.2378  0.2056
 2738Sol     HW11700   2.745   0.451   6.218 -0.0293  0.3407  0.0365
 2738Sol     HW11701   2.873   0.370   6.215 -0.5483 -0.5056  0.3052
 2738Sol     MW11702   2.830   0.443   6.245  0.2128  0.6731  0.0473
 2739Sol     OW11703   0.176   1.521  12.287  0.0883  0.5405  0.1002
 2739Sol     HW11704   0.134   1.467  12.219 -0.3430 -0.6877  1.3283
 2739Sol     HW11705   0.245   1.466  12.323 -0.3522  0.7957  1.3638
 2739Sol     MW11706   0.178   1.511  12.284 -0.3278 -0.4900 -0.4454
 2740Sol     OW11707   3.273   2.436   9.325 -0.4281 -0.5900 -0.0067
 2740Sol     HW11708   3.342   2.481   9.373 -1.8347  0.8741  0.7003
 2740Sol     HW11709   3.280   2.469   9.236 -1.3848  0.9997  0.4829
 2740Sol     MW11710   3.280   2.443   9.321  0.2951 -0.3741  0.5678
 2741Sol     OW11711   0.969   1.085   9.294 -0.0384  0.0641 -0.0603
 2741Sol     HW11712   1.058   1.055   9.276  0.1735 -0.0587  1.1289
 2741Sol     HW11713   0.926   1.009   9.335 -0.5702  0.2411 -0.2924
 2741Sol     MW11714   0.973   1.075   9.296 -0.1283 -0.3132  0.1277
 2742Sol     OW11715   1.185   0.241  13.489 -0.2691 -0.4020 -0.2974
 2742Sol     HW11716   1.273   0.267  13.516 -1.2197  0.7337  1.8851
 2742Sol     HW11717   1.142   0.324  13.465 -1.9547 -0.3729  2.5154
 2742Sol     MW11718   1.189   0.251  13.489  0.1606 -0.4034  0.1251
 2743Sol     OW11719   0.919   3.034  10.127  0.3628  0.0375  0.4761
 2743Sol     HW11720   0.878   2.959  10.171 -1.8777  1.1511  0.3575
 2743Sol     HW11721   0.873   3.110  10.162  1.4467  1.2377 -0.6703
 2743Sol     MW11722   0.911   3.034  10.134 -0.2024  0.2141 -0.1697
 2744Sol     OW11723   1.834   1.728   9.187 -0.5688 -0.3710 -0.2659
 2744Sol     HW11724   1.926   1.716   9.166 -0.9559 -0.4771 -2.0131
 2744Sol     HW11725   1.833   1.760   9.277  1.2171  0.6766 -0.6149
 2744Sol     MW11726   1.842   1.729   9.193  0.5386 -0.2391 -0.3633
 2745Sol     OW11727   1.505   2.011   9.738 -0.2650 -0.2112 -0.3174
 2745Sol     HW11728   1.518   1.917   9.727 -0.1396 -0.0673 -1.4173
 2745Sol     HW11729   1.593   2.048   9.730 -0.2248 -0.0535  0.7571
 2745Sol     MW11730   1.514   2.006   9.736 -0.1455 -0.1926 -0.0297
 2746Sol     OW11731   2.814   1.563   8.980  0.0666  0.0390 -0.1070
 2746Sol     HW11732   2.747   1.579   8.914  0.5621 -2.1317 -1.1755
 2746Sol     HW11733   2.885   1.522   8.932  2.0224  1.9054  1.1001
 2746Sol     MW11734   2.814   1.561   8.970 -0.1550 -0.0042  0.4508
 2747Sol     OW11735   1.969   0.436  10.705  0.0000 -0.1838 -0.3836
 2747Sol     HW11736   1.934   0.357  10.664 -0.7406  0.0463 -0.1935
 2747Sol     HW11737   1.981   0.413  10.797  1.2886 -0.5728 -0.6330
 2747Sol     MW11738   1.967   0.427  10.709  0.1659  0.6074 -0.0696
 2748Sol     OW11739   2.535   2.470   9.451 -0.5278 -0.3252  0.7957
 2748Sol     HW11740   2.593   2.546   9.457  0.9530 -1.3385 -0.3216
 2748Sol     HW11741   2.494   2.465   9.537  1.5997 -0.0153  1.8742
 2748Sol     MW11742   2.537   2.477   9.459 -0.1721  0.1126  0.4768
 2749Sol     OW11743   0.186   0.778  11.218 -0.4986 -0.5320  0.0653
 2749Sol     HW11744   0.242   0.742  11.149  1.2198  0.8585  0.6954
 2749Sol     HW11745   0.179   0.708  11.282  0.1302 -0.8808 -0.2432
 2749Sol     MW11746   0.190   0.769  11.217  0.2134  1.7876 -0.0826
 2750Sol     OW11747   2.153   2.515  10.550 -0.0617  0.0595 -0.1661
 2750Sol     HW11748   2.154   2.442  10.612  2.8582  0.5744  0.4732
 2750Sol     HW11749   2.174   2.592  10.604 -1.7370  1.1771 -1.0672
 2750Sol     MW11750   2.155   2.516  10.561 -0.0334 -0.4340  0.1980
 2751Sol     OW11751   0.771   2.860  12.680 -0.5281 -0.3198 -0.1894
 2751Sol     HW11752   0.821   2.941  12.686  0.0166 -0.7971  1.8197
 2751Sol     HW11753   0.836   2.790  12.686 -1.2999 -0.9305  1.4463
 2751Sol     MW11754   0.781   2.861  12.681  0.3749 -0.2242  0.1388
 2752Sol     OW11755   1.879   1.430   8.695 -0.2807 -0.3240  0.2717
 2752Sol     HW11756   1.806   1.490   8.710 -0.4420 -0.1856 -1.0034
 2752Sol     HW11757   1.895   1.390   8.780  0.5368  2.3164  1.4043
 2752Sol     MW11758   1.874   1.431   8.704 -0.3534  0.3597  0.7574
 2753Sol     OW11759   1.160   0.510  12.201 -0.0801  0.3017  0.3144
 2753Sol     HW11760   1.186   0.527  12.110 -0.7057  0.0842  0.0940
 2753Sol     HW11761   1.238   0.474  12.242 -0.0835 -0.5098 -0.3888
 2753Sol     MW11762   1.169   0.509  12.196 -0.0081 -0.0704  0.4783
 2754Sol     OW11763   2.604   1.148   7.138  0.3171  0.3787 -0.2071
 2754Sol     HW11764   2.642   1.108   7.216  1.0991  1.7118  0.1095
 2754Sol     HW11765   2.510   1.142   7.151  0.4172 -1.2898 -0.1414
 2754Sol     MW11766   2.599   1.144   7.146  0.3657  0.8183 -0.3216
 2755Sol     OW11767   3.300   1.751  14.063 -0.7660  0.4790  0.1642
 2755Sol     HW11768   3.349   1.737  13.983  1.0191  0.6786  1.2029
 2755Sol     HW11769   3.218   1.792  14.035  1.1067  3.3966 -1.2913
 2755Sol     MW11770   3.297   1.754  14.054 -0.2718  0.3511 -0.5040
 2756Sol     OW11771   2.487   1.538   9.150  0.2502  0.4206 -1.0496
 2756Sol     HW11772   2.420   1.497   9.204  3.3864 -1.3738  1.6922
 2756Sol     HW11773   2.509   1.472   9.085  1.5779 -0.2743  0.0750
 2756Sol     MW11774   2.483   1.529   9.149 -0.1643 -0.1909 -0.6004
 2757Sol     OW11775   0.043   2.676  13.638  0.9152 -0.0860 -0.1421
 2757Sol     HW11776  -0.035   2.677  13.582  1.3656  0.7631 -0.7569
 2757Sol     HW11777   0.012   2.711  13.722  0.5111 -0.2599 -0.2151
 2757Sol     MW11778   0.033   2.679  13.640  0.5297  0.3611  0.4574
 2758Sol     OW11779   0.617   2.100  12.209 -0.2928 -0.4956 -0.0498
 2758Sol     HW11780   0.692   2.042  12.220  0.0412  0.0238  0.4575
 2758Sol     HW11781   0.548   2.059  12.261 -0.0651 -0.4632  0.2865
 2758Sol     MW11782   0.618   2.091  12.215 -1.1998  0.0900  0.0296
 2759Sol     OW11783   2.811   1.989   6.853  0.0465 -0.5526 -0.0628
 2759Sol     HW11784   2.775   1.900   6.845 -0.5374 -0.2069 -1.3741
 2759Sol     HW11785   2.898   1.983   6.813  0.1166 -0.6003  0.0967
 2759Sol     MW11786   2.816   1.980   6.849  0.0528  0.3028 -0.5557
 2760Sol     OW11787   1.701   0.066  12.647  0.5889 -0.3634 -0.1964
 2760Sol     HW11788   1.653  -0.017  12.657  0.4636  0.0108  2.8974
 2760Sol     HW11789   1.783   0.052  12.694  0.1897  1.5057  1.1325
 2760Sol     MW11790   1.704   0.057  12.652 -0.1624  0.1851  0.1516
 2761Sol     OW11791   2.886   2.612  12.012 -0.4449 -0.4202  0.0111
 2761Sol     HW11792   2.896   2.707  12.002  1.0200 -0.2362  2.7047
 2761Sol     HW11793   2.827   2.602  12.087  1.0971 -1.5899  1.1147
 2761Sol     MW11794   2.881   2.620  12.018 -0.0314  0.2274  1.0767
 2762Sol     OW11795   3.149   2.735  12.133  0.8117  0.0538 -0.3328
 2762Sol     HW11796   3.077   2.788  12.099  1.4227  1.3517  0.3903
 2762Sol     HW11797   3.126   2.645  12.107 -1.3365  0.3802  0.3329
 2762Sol     MW11798   3.140   2.732  12.128 -0.3852  0.0892 -0.9211
 2763Sol     OW11799   1.967   2.896  10.312  0.5498 -0.2554  0.1805
 2763Sol     HW11800   1.965   2.807  10.276  1.5699  0.7164 -2.4243
 2763Sol     HW11801   1.875   2.916  10.330  0.1548 -1.3060 -0.5918
 2763Sol     MW11802   1.958   2.890  10.310 -0.0247  0.4838 -0.3728
 2764Sol     OW11803   1.153   3.123  10.839  0.5662  0.3027 -0.6881
 2764Sol     HW11804   1.074   3.123  10.784 -0.0230  0.2751  0.1569
 2764Sol     HW11805   1.218   3.170  10.787  0.5395 -1.2427 -2.1725
 2764Sol     MW11806   1.152   3.127  10.829  0.2136  0.7985 -0.1864
 2765Sol     OW11807   0.883   1.408  13.112  0.1703 -0.1120  0.4881
 2765Sol     HW11808   0.905   1.368  13.027  0.8360  1.6366 -0.1857
 2765Sol     HW11809   0.800   1.367  13.137 -0.6566  0.2106 -1.6055
 2765Sol     MW11810   0.878   1.401  13.106  0.3105 -0.0352  0.8369
 2766Sol     OW11811   3.076   0.759   8.502  0.2075  0.4444  0.2118
 2766Sol     HW11812   3.108   0.720   8.584  0.8075  1.2368  0.3489
 2766Sol     HW11813   3.154   0.795   8.460 -0.1525  0.3242 -0.5592
 2766Sol     MW11814   3.086   0.759   8.506  1.0147 -0.3824  0.6434
 2767Sol     OW11815   0.848   2.194  13.054 -0.1205 -0.5203 -0.2302
 2767Sol     HW11816   0.768   2.147  13.031  0.5857 -1.2678 -1.2004
 2767Sol     HW11817   0.820   2.258  13.119 -1.4387 -1.0253 -0.2802
 2767Sol     MW11818   0.839   2.195  13.058  0.1343 -0.1153 -0.2106
 2768Sol     OW11819   0.913   1.256  14.092 -0.3055 -0.3480  0.2633
 2768Sol     HW11820   0.886   1.183  14.148 -1.8749  0.8387  1.0959
 2768Sol     HW11821   0.893   1.227  14.003 -1.3875 -0.7644  0.6280
 2768Sol     MW11822   0.908   1.247  14.089 -0.1849 -0.0825 -0.4025
 2769Sol     OW11823   3.066   1.661   8.652 -0.1829 -0.4528  0.5215
 2769Sol     HW11824   3.091   1.733   8.710  0.9919 -0.4862  0.0815
 2769Sol     HW11825   3.150   1.625   8.623 -0.7684 -1.6322  0.2903
 2769Sol     MW11826   3.076   1.664   8.655 -1.1765 -0.0420  0.1210
 2770Sol     OW11827   2.315   2.355   8.115  0.0661 -1.0781 -0.0068
 2770Sol     HW11828   2.275   2.292   8.175  0.1712  0.3828  1.6504
 2770Sol     HW11829   2.386   2.306   8.072  1.5774 -1.4976  2.8685
 2770Sol     MW11830   2.318   2.345   8.116 -0.2597  0.1343 -0.9943
 2771Sol     OW11831   2.633   2.317  11.774  0.0086  0.2700  0.2674
 2771Sol     HW11832   2.621   2.407  11.804 -0.2723  0.6435 -0.9055
 2771Sol     HW11833   2.696   2.324  11.702 -0.3694 -0.3941 -0.1399
 2771Sol     MW11834   2.637   2.326  11.770 -0.2690  0.4001 -0.5047
 2772Sol     OW11835   2.089   2.737  12.489 -0.3279  0.3550  0.1516
 2772Sol     HW11836   2.049   2.818  12.520 -1.6977 -0.3867  0.3595
 2772Sol     HW11837   2.030   2.668  12.518  1.0019 -0.7597  0.2800
 2772Sol     MW11838   2.080   2.738  12.494  0.4322  0.3249 -0.3857
 2773Sol     OW11839   2.645   2.979   7.786 -0.4106 -0.5024  0.6415
 2773Sol     HW11840   2.738   2.995   7.770 -0.6758  1.5051  1.0066
 2773Sol     HW11841   2.639   2.962   7.880 -0.6223  1.0109  0.9078
 2773Sol     MW11842   2.653   2.979   7.793 -0.3821  0.0825 -0.8774
 2774Sol     OW11843   1.506   2.863  12.811  0.3119 -0.2298 -0.7465
 2774Sol     HW11844   1.495   2.786  12.755 -0.5897 -0.4496 -0.2682
 2774Sol     HW11845   1.463   2.933  12.762  1.5169  0.0756 -1.3905
 2774Sol     MW11846   1.501   2.862  12.801 -0.5995 -0.2084  0.3011
 2775Sol     OW11847   2.622   2.873  13.537 -0.0938 -0.2664 -0.0145
 2775Sol     HW11848   2.674   2.894  13.459  0.5721 -0.5018  0.3539
 2775Sol     HW11849   2.606   2.957  13.579  0.8100 -0.2852  0.3751
 2775Sol     MW11850   2.625   2.882  13.533 -0.0804 -0.3044  0.5655
 2776Sol     OW11851   0.454   0.911  12.201 -0.6154 -0.1224 -0.1884
 2776Sol     HW11852   0.467   1.002  12.229  0.1271  0.7223 -3.1230
 2776Sol     HW11853   0.541   0.882  12.174 -0.9963 -1.4839  0.0035
 2776Sol     MW11854   0.463   0.917  12.201 -0.4448 -0.0534  0.7083
 2777Sol     OW11855   1.539   2.522  13.444 -0.1964  0.0096  0.4508
 2777Sol     HW11856   1.568   2.480  13.525  1.0388  0.3601  0.1994
 2777Sol     HW11857   1.620   2.544  13.397 -0.8824  0.2742 -0.6444
 2777Sol     MW11858   1.549   2.521  13.447 -0.2598  0.3304 -0.2275
 2778Sol     OW11859   1.189   1.209   8.904  0.3727 -0.0822  0.6986
 2778Sol     HW11860   1.131   1.281   8.932  0.6172 -0.5838  2.5828
 2778Sol     HW11861   1.274   1.231   8.942  0.3264 -1.6131  1.7327
 2778Sol     MW11862   1.191   1.217   8.910  0.4510  0.5197  0.3138
 2779Sol     OW11863   3.298   0.216   8.653  0.6162 -0.0492 -0.3523
 2779Sol     HW11864   3.331   0.276   8.719  1.6960  0.2324 -1.1218
 2779Sol     HW11865   3.292   0.131   8.697 -0.7203  0.5709  0.6840
 2779Sol     MW11866   3.300   0.213   8.663 -1.0739 -0.7363  0.0946
 2780Sol     OW11867   0.358   0.732   8.773 -0.5261 -0.0569 -0.2129
 2780Sol     HW11868   0.309   0.714   8.693 -0.9731 -0.6961  0.2018
 2780Sol     HW11869   0.401   0.816   8.757 -1.8028  0.5332 -0.5726
 2780Sol     MW11870   0.357   0.738   8.765  0.2320 -0.0874 -0.3436
 2781Sol     OW11871   2.451   2.733  10.607  0.9509 -0.1994  0.5517
 2781Sol     HW11872   2.443   2.772  10.520  1.8135  0.6711  0.8471
 2781Sol     HW11873   2.463   2.639  10.591 -0.1067 -0.2058 -0.2144
 2781Sol     MW11874   2.451   2.728  10.598  0.9245  1.2779 -0.5979
 2782Sol     OW11875   3.022   2.358   9.050  0.2385 -0.4348  0.1334
 2782Sol     HW11876   3.113   2.383   9.060 -0.5095  2.6347 -0.1413
 2782Sol     HW11877   3.010   2.284   9.109  2.9026 -0.9007  0.1230
 2782Sol     MW11878   3.029   2.354   9.056  0.0227  0.0586 -0.0404
 2783Sol     OW11879   2.907   2.899  12.058  0.0728 -0.2802  0.0412
 2783Sol     HW11880   2.963   2.963  12.103  0.4778  0.4187 -1.3841
 2783Sol     HW11881   2.855   2.952  11.997 -1.0692 -1.0966  0.3002
 2783Sol     MW11882   2.907   2.910  12.056  0.1289  0.1050 -0.0779
 2784Sol     OW11883   2.446   1.063   6.489 -0.8223  0.3020  0.0365
 2784Sol     HW11884   2.404   1.054   6.575 -0.7399 -0.4263  0.0091
 2784Sol     HW11885   2.535   1.093   6.509 -1.2782  1.6209  0.1107
 2784Sol     MW11886   2.450   1.065   6.499  0.3519  0.2167  0.5840
 2785Sol     OW11887   0.960   0.349  12.786 -0.1431  0.4943 -0.1442
 2785Sol     HW11888   0.899   0.290  12.830  1.1850 -0.2273  0.7725
 2785Sol     HW11889   0.905   0.418  12.749 -1.3330  1.0479  2.5504
 2785Sol     MW11890   0.950   0.350  12.787  0.2114 -0.8209 -0.0827
 2786Sol     OW11891   0.209   1.726   7.130 -0.3239 -0.0547 -0.1365
 2786Sol     HW11892   0.152   1.793   7.093 -0.0369  0.2345 -0.0627
 2786Sol     HW11893   0.176   1.712   7.219  0.4249  0.9539  0.3159
 2786Sol     MW11894   0.201   1.731   7.135 -0.1022  0.7876 -0.3903
 2787Sol     OW11895   3.093   1.434   6.673  0.3974 -0.1226  0.8210
 2787Sol     HW11896   3.183   1.467   6.665  0.1115  0.4172 -0.4027
 2787Sol     HW11897   3.089   1.361   6.611 -0.3089  0.5374  0.0860
 2787Sol     MW11898   3.101   1.431   6.667 -0.0763  0.2550  0.0564
 2788Sol     OW11899   1.441   1.085   8.712  0.1067 -0.2633 -0.7907
 2788Sol     HW11900   1.522   1.036   8.726  0.0803  0.1601  1.0009
 2788Sol     HW11901   1.379   1.020   8.681 -0.2894 -1.7117  2.7495
 2788Sol     MW11902   1.443   1.075   8.711  0.5796  0.2677 -0.0055
 2789Sol     OW11903   1.854   2.841  13.108 -0.1145 -0.2759 -0.0763
 2789Sol     HW11904   1.931   2.790  13.085  1.8486  1.6570  1.9766
 2789Sol     HW11905   1.816   2.796  13.183 -0.6884 -0.8972 -0.7259
 2789Sol     MW11906   1.857   2.833  13.113 -0.2886  0.0474  0.1663
 2790Sol     OW11907   1.983   1.343   7.146  0.8000  0.1017  0.5326
 2790Sol     HW11908   1.887   1.352   7.149  0.7263 -0.2078 -0.7208
 2790Sol     HW11909   2.013   1.381   7.228 -0.3283  1.2098  0.4491
 2790Sol     MW11910   1.977   1.347   7.153 -0.1255 -0.1598 -0.3263
 2791Sol     OW11911   0.835   1.382   6.319 -0.0175  0.5508 -0.0122
 2791Sol     HW11912   0.867   1.414   6.234 -1.1213  2.1205  0.1467
 2791Sol     HW11913   0.826   1.461   6.372 -3.1796  0.0501  0.2789
 2791Sol     MW11914   0.837   1.392   6.316 -0.4208  0.4840 -0.0228
 2792Sol     OW11915   0.396   3.034  11.170  0.1772 -0.4598 -0.2196
 2792Sol     HW11916   0.370   3.036  11.262  0.6465  1.6781 -0.1093
 2792Sol     HW11917   0.315   3.020  11.122 -0.4706  1.1100  0.3875
 2792Sol     MW11918   0.387   3.033  11.174 -0.8008  0.4906  0.5335
 2793Sol     OW11919   0.831   0.356   9.823 -0.4747 -0.5990 -0.1195
 2793Sol     HW11920   0.867   0.268   9.811  0.8026 -0.2033  0.7149
 2793Sol     HW11921   0.896   0.414   9.784 -1.3536 -0.0185 -0.7458
 2793Sol     MW11922   0.840   0.353   9.818 -0.4907 -0.2506  0.3720
 2794Sol     OW11923   2.332   1.978   7.461 -0.5531 -0.2791 -0.8828
 2794Sol     HW11924   2.351   1.885   7.457 -1.5526 -0.5257 -0.0275
 2794Sol     HW11925   2.398   2.014   7.521  0.1295 -0.3460 -1.5828
 2794Sol     MW11926   2.340   1.973   7.466 -0.2129  0.1794 -0.4996
 2795Sol     OW11927   1.184   1.759  12.199  0.0552 -0.3383 -0.0180
 2795Sol     HW11928   1.199   1.821  12.271 -0.5904 -0.7710  0.5087
 2795Sol     HW11929   1.112   1.798  12.149  0.9575  0.2971 -0.8312
 2795Sol     MW11930   1.179   1.768  12.201  0.1362 -0.5996 -0.5759
 2796Sol     OW11931   1.788   3.342  11.224 -0.0950  0.2863  0.5913
 2796Sol     HW11932   1.855   3.313  11.163 -0.6083  1.5268 -0.5906
 2796Sol     HW11933   1.784   3.437  11.212 -3.3778  0.0624 -0.8059
 2796Sol     MW11934   1.793   3.348  11.217 -0.1549 -0.2003  0.5692
 2797Sol     OW11935   2.528   0.315   6.891  0.6459 -0.2383  0.6961
 2797Sol     HW11936   2.489   0.239   6.848 -2.1772 -0.5340  3.5889
 2797Sol     HW11937   2.612   0.283   6.924  1.0226 -1.1203 -1.0671
 2797Sol     MW11938   2.532   0.305   6.890 -0.0964 -0.1756 -0.0863
 2798Sol     OW11939   1.194   1.743  10.183 -0.2257  0.1071 -0.3986
 2798Sol     HW11940   1.267   1.763  10.125  0.4735 -2.2684 -0.4115
 2798Sol     HW11941   1.117   1.779  10.139  0.8218  1.8665 -0.8059
 2798Sol     MW11942   1.194   1.748  10.174 -0.0512 -0.2696  1.1801
 2799Sol     OW11943   0.314   0.143  12.098  0.0268  0.3092  0.1026
 2799Sol     HW11944   0.406   0.118  12.110 -0.2325 -0.2085  1.0369
 2799Sol     HW11945   0.306   0.157  12.004  0.8795 -0.3764 -0.0854
 2799Sol     MW11946   0.322   0.142  12.091  0.3859  0.0766  0.2086
 2800Sol     OW11947   0.200   3.362  10.709 -0.0813  0.2893 -0.2905
 2800Sol     HW11948   0.217   3.354  10.615 -0.6415 -1.6051 -0.2455
 2800Sol     HW11949   0.191   3.456  10.723  2.4041  0.7786 -1.6881
 2800Sol     MW11950   0.200   3.370  10.702 -0.2399  0.1555  0.3213
 2801Sol     OW11951   1.938   0.604   8.589  0.3643  0.4834  0.0384
 2801Sol     HW11952   1.997   0.677   8.570 -0.5408  0.8863 -1.2765
 2801Sol     HW11953   1.995   0.536   8.625  1.7025  0.7302 -1.5574
 2801Sol     MW11954   1.949   0.605   8.590 -0.0551 -0.5215 -1.0794
 2802Sol     OW11955   1.400   2.827  12.143  0.5416  0.0669 -0.2107
 2802Sol     HW11956   1.404   2.784  12.229  1.3537  0.8306  0.1430
 2802Sol     HW11957   1.307   2.847  12.131  0.0643 -2.3606 -0.6822
 2802Sol     MW11958   1.392   2.825  12.150  0.1190  0.2160  0.3345
 2803Sol     OW11959   2.160   1.671   7.398 -0.6552  0.6650  0.3818
 2803Sol     HW11960   2.121   1.667   7.310  1.6968 -0.7884 -0.6434
 2803Sol     HW11961   2.115   1.743   7.441 -3.3242  0.0743 -1.3020
 2803Sol     MW11962   2.152   1.677   7.394 -0.0211 -0.2493  0.1444
 2804Sol     OW11963   0.781   0.583   9.175  0.2554  0.2134 -0.4448
 2804Sol     HW11964   0.704   0.626   9.212  0.3587 -0.2615  0.3437
 2804Sol     HW11965   0.847   0.590   9.244  1.0645  1.0131 -1.2842
 2804Sol     MW11966   0.780   0.588   9.184  0.4736  0.1829 -0.7367
 2805Sol     OW11967   1.165   2.084  13.015  0.0724  0.1469 -0.0929
 2805Sol     HW11968   1.120   2.003  12.991 -0.7763  0.9391 -1.2228
 2805Sol     HW11969   1.167   2.136  12.935  0.4095  1.3451  0.6650
 2805Sol     MW11970   1.161   2.082  13.006 -0.1448 -0.4004  0.3765
 2806Sol     OW11971   2.507   0.297   9.698  0.1511 -0.0593 -0.6311
 2806Sol     HW11972   2.430   0.346   9.727 -1.0003 -0.8848 -2.2416
 2806Sol     HW11973   2.530   0.336   9.613  0.3960 -1.0493 -1.0177
 2806Sol     MW11974   2.503   0.305   9.693  0.5987  0.2880  0.0203
 2807Sol     OW11975   2.710   0.851   7.560 -0.3552  0.0553 -0.5384
 2807Sol     HW11976   2.722   0.775   7.503 -1.7010  0.3120 -1.1706
 2807Sol     HW11977   2.648   0.822   7.626  1.0970 -0.1993  0.7600
 2807Sol     MW11978   2.706   0.842   7.561 -0.3129  0.7932  0.4107
 2808Sol     OW11979   0.748   2.868   9.120 -0.0157  0.4125  0.0684
 2808Sol     HW11980   0.678   2.840   9.061  0.6028 -0.4505 -0.2654
 2808Sol     HW11981   0.792   2.939   9.073  1.3297 -1.1860 -1.1093
 2808Sol     MW11982   0.746   2.872   9.111  0.1429 -0.2742 -0.1522
 2809Sol     OW11983   3.165   1.363  14.194 -0.1923 -0.0733 -0.2200
 2809Sol     HW11984   3.236   1.422  14.220 -1.2342  1.1588 -0.1949
 2809Sol     HW11985   3.085   1.408  14.218 -1.0301 -1.1468 -0.9363
 2809Sol     MW11986   3.165   1.372  14.199 -0.2714  1.0188  0.1698
 2810Sol     OW11987   2.971   0.711   9.247 -0.3343 -0.7510  0.5836
 2810Sol     HW11988   2.888   0.687   9.206 -2.3185  2.1780  2.6632
 2810Sol     HW11989   2.985   0.643   9.313 -0.3940 -1.9379 -0.5935
 2810Sol     MW11990   2.965   0.703   9.249 -0.4495 -0.3857 -0.5117
 2811Sol     OW11991   3.180   0.590  11.985  0.8917 -0.0890 -0.2241
 2811Sol     HW11992   3.109   0.586  12.049  0.9069  2.0499 -0.0322
 2811Sol     HW11993   3.185   0.502  11.949 -1.7976 -0.2977 -0.1707
 2811Sol     MW11994   3.174   0.582  11.987 -0.1181 -0.2764  0.1042
 2812Sol     OW11995   1.300   0.500   6.224 -0.2542  0.2989  0.0825
 2812Sol     HW11996   1.343   0.580   6.194 -0.4544  0.3782  0.0069
 2812Sol     HW11997   1.301   0.442   6.147  0.8946 -0.1898  0.4618
 2812Sol     MW11998   1.304   0.502   6.214  0.3050  0.5854 -0.2028
 2813Sol     OW11999   0.455   1.903   6.009 -0.2847  0.3084 -0.6817
 2813Sol     HW12000   0.411   1.980   5.972 -1.5447 -0.8705 -1.7241
 2813Sol     HW12001   0.385   1.839   6.020  0.5881 -0.3485  1.1106
 2813Sol     MW12002   0.445   1.904   6.006  0.6179  1.3817  1.3042
 2814Sol     OW12003   0.701   1.360   8.865  0.3756  0.1305 -0.0089
 2814Sol     HW12004   0.714   1.293   8.798 -1.5327  0.3773 -0.6564
 2814Sol     HW12005   0.689   1.311   8.946  2.3869 -0.1806  0.1270
 2814Sol     MW12006   0.701   1.350   8.866 -0.5314  0.0562  0.5284
 2815Sol     OW12007   1.868   2.184  10.256 -0.0082  0.2349  0.1153
 2815Sol     HW12008   1.918   2.141  10.326  0.4211 -0.3521 -0.5462
 2815Sol     HW12009   1.777   2.177  10.284 -0.0161 -1.8834 -0.3922
 2815Sol     MW12010   1.865   2.180  10.265  0.3327 -0.0956  0.8019
 2816Sol     OW12011   1.030   1.013   7.821 -0.0548 -0.1753 -0.3484
 2816Sol     HW12012   1.115   1.043   7.853  0.2101 -0.7522 -0.4946
 2816Sol     HW12013   1.051   0.969   7.738 -0.4354 -0.7454 -0.1387
 2816Sol     MW12014   1.040   1.012   7.816 -0.1190 -0.7250  0.6472
 2817Sol     OW12015   1.122   0.436   8.702  0.4999  0.2556 -0.3993
 2817Sol     HW12016   1.179   0.513   8.702  1.4762 -0.4122 -2.5231
 2817Sol     HW12017   1.170   0.371   8.753  0.8860  0.2347 -0.7813
 2817Sol     MW12018   1.132   0.437   8.706  0.6800  0.6195 -0.7747
 2818Sol     OW12019   2.492   0.508  14.259  0.0844  0.2610 -0.0965
 2818Sol     HW12020   2.451   0.514  14.173 -0.7745 -0.0271  0.2843
 2818Sol     HW12021   2.494   0.414  14.278 -0.8389  0.3932  0.7108
 2818Sol     MW12022   2.488   0.500  14.253 -0.5177  0.1519  0.5825
 2819Sol     OW12023   1.370   3.056   7.663  0.6427 -0.0463 -0.0345
 2819Sol     HW12024   1.358   3.000   7.586  0.7205  1.5839 -1.2425
 2819Sol     HW12025   1.317   3.014   7.731 -0.2270 -0.9597 -1.2491
 2819Sol     MW12026   1.364   3.047   7.663  0.3138 -0.3731  0.9488
 2820Sol     OW12027   0.768   1.824   9.009  0.1111  0.0231  0.0244
 2820Sol     HW12028   0.816   1.892   8.962  2.5140 -0.4578  1.6234
 2820Sol     HW12029   0.767   1.855   9.100 -0.6954 -1.0242  0.3775
 2820Sol     MW12030   0.772   1.833   9.013  0.3337 -0.1659 -0.0882
 2821Sol     OW12031   2.957   3.315  12.092 -0.3139  0.0237  0.5665
 2821Sol     HW12032   2.993   3.240  12.045  0.0709  0.2356  0.5207
 2821Sol     HW12033   2.921   3.278  12.172  2.4717  0.1490  1.9431
 2821Sol     MW12034   2.957   3.305  12.095 -1.0127 -0.3779 -0.2084
 2822Sol     OW12035   2.829   1.526   6.571 -0.6071 -0.0444  0.5558
 2822Sol     HW12036   2.910   1.521   6.621 -1.1766  0.7381  1.5720
 2822Sol     HW12037   2.762   1.492   6.630 -1.0490 -0.5951 -0.2428
 2822Sol     MW12038   2.830   1.522   6.581 -0.4388 -0.0673  0.1978
 2823Sol     OW12039   1.826   0.906  13.622  0.3058 -0.0976 -0.0206
 2823Sol     HW12040   1.749   0.895  13.677 -0.3353 -1.2108 -1.1401
 2823Sol     HW12041   1.832   1.001  13.608  0.1687  0.1586  1.4846
 2823Sol     MW12042   1.820   0.914  13.626 -0.3435 -0.6398 -0.0520
 2824Sol     OW12043   2.379   1.653  12.133  0.0371  0.4628  0.0630
 2824Sol     HW12044   2.436   1.649  12.209 -0.7480  0.7697  0.6811
 2824Sol     HW12045   2.294   1.622  12.165  0.6653 -3.3250 -1.6803
 2824Sol     MW12046   2.376   1.650  12.142  0.0142 -0.4504 -0.4457
 2825Sol     OW12047   1.755   0.714   9.681 -0.1696 -0.0138 -0.1826
 2825Sol     HW12048   1.750   0.708   9.777 -0.8609 -0.3873 -0.2404
 2825Sol     HW12049   1.697   0.787   9.659  0.7264  0.6887 -0.2438
 2825Sol     MW12050   1.749   0.720   9.688  0.8070  0.1056  0.5129
 2826Sol     OW12051   0.039   0.075  11.675 -0.1395  0.1082  0.0585
 2826Sol     HW12052   0.016   0.166  11.696 -1.0589 -0.4060  1.3404
 2826Sol     HW12053  -0.040   0.025  11.694  0.6216 -1.0753  0.1848
 2826Sol     MW12054   0.030   0.079  11.679 -0.1977  0.3726  1.1640
 2827Sol     OW12055   2.855   3.321  11.270 -0.5134 -0.1612  0.6751
 2827Sol     HW12056   2.819   3.399  11.227 -2.1155 -0.0721  2.1258
 2827Sol     HW12057   2.822   3.325  11.360  1.3848 -1.2472  1.4534
 2827Sol     MW12058   2.849   3.328  11.274  0.7546 -0.1118 -0.4270
 2828Sol     OW12059   1.048   2.506   9.255 -0.7215  0.2235 -0.2651
 2828Sol     HW12060   0.970   2.481   9.205 -1.0526  2.5964 -1.0119
 2828Sol     HW12061   1.023   2.588   9.298  1.2602  0.8458 -0.2781
 2828Sol     MW12062   1.039   2.511   9.254  0.1330 -0.5784 -0.7771
 2829Sol     OW12063   0.488   3.155  12.464  0.4608  0.3167 -0.3461
 2829Sol     HW12064   0.430   3.101  12.516  0.8160  1.3830  1.1859
 2829Sol     HW12065   0.513   3.099  12.390  0.7901 -1.5888  1.1590
 2829Sol     MW12066   0.485   3.145  12.462  0.5582 -0.2298 -0.0390
 2830Sol     OW12067   0.972   1.756   8.056 -0.1544 -0.2183 -0.6022
 2830Sol     HW12068   0.880   1.776   8.073 -0.2676 -0.4377 -0.9466
 2830Sol     HW12069   1.010   1.739   8.143 -0.2906  0.4845 -0.4059
 2830Sol     MW12070   0.967   1.756   8.066 -0.3114  0.1517 -1.2302
 2831Sol     OW12071   0.604   3.228  14.262 -0.0977 -0.0128 -0.2508
 2831Sol     HW12072   0.527   3.201  14.311 -0.7328 -0.7798 -1.6237
 2831Sol     HW12073   0.651   3.287  14.321  0.0265 -2.1829  1.8823
 2831Sol     MW12074   0.601   3.231  14.271  0.2662 -0.1953 -0.5536
 2832Sol     OW12075   1.150   3.366  10.188 -0.5933  0.3269 -0.1069
 2832Sol     HW12076   1.227   3.366  10.131 -2.3398  0.0193 -2.5187
 2832Sol     HW12077   1.122   3.275  10.191 -0.7253  0.3998  0.9522
 2832Sol     MW12078   1.154   3.358  10.183  0.4935  0.4877  0.1557
 2833Sol     OW12079   2.156   2.075  12.165 -0.2702 -0.5320 -0.4322
 2833Sol     HW12080   2.092   2.054  12.097  0.7517 -0.1575 -1.5254
 2833Sol     HW12081   2.239   2.086  12.118  0.3908  0.0607  0.8345
 2833Sol     MW12082   2.158   2.074  12.155 -0.0094 -0.3730 -0.6257
 2834Sol     OW12083   1.270   1.903   6.807 -0.3778 -0.3102  0.0156
 2834Sol     HW12084   1.223   1.820   6.811 -1.2052  0.1675  0.4001
 2834Sol     HW12085   1.252   1.936   6.719  0.1104 -0.6229 -0.2059
 2834Sol     MW12086   1.264   1.899   6.799 -0.0978  0.4816  0.3574
 2835Sol     OW12087   0.797   2.843   7.828 -0.0665  0.4810 -0.1061
 2835Sol     HW12088   0.714   2.888   7.815 -0.5697 -0.6300 -0.8489
 2835Sol     HW12089   0.773   2.754   7.856  0.8552  0.1515 -0.3282
 2835Sol     MW12090   0.788   2.839   7.829  0.0111 -0.3213 -0.5996
 2836Sol     OW12091   1.024   0.514  13.688 -0.1554 -0.6223 -0.0694
 2836Sol     HW12092   0.969   0.589  13.710 -0.6465 -0.8551 -0.4678
 2836Sol     HW12093   1.035   0.466  13.770 -0.1004 -0.2799  0.1205
 2836Sol     MW12094   1.020   0.516  13.697 -0.5033  0.2993 -0.0950
 2837Sol     OW12095   1.124   0.854   6.772 -0.1972  0.1749 -0.8783
 2837Sol     HW12096   1.207   0.881   6.812  0.0379 -0.9255 -0.6125
 2837Sol     HW12097   1.060   0.859   6.842 -0.3358  0.8920 -1.0503
 2837Sol     MW12098   1.126   0.857   6.782 -0.2502 -0.3490  0.1197
 2838Sol     OW12099   1.387   3.331  10.026 -0.2428  0.2378  0.2825
 2838Sol     HW12100   1.459   3.391  10.008  1.3224 -1.5290  0.5347
 2838Sol     HW12101   1.371   3.285   9.944 -0.4854 -0.0152  0.4685
 2838Sol     MW12102   1.392   3.332  10.017  0.3910  0.3432  0.0560
 2839Sol     OW12103   2.981   0.786  11.452 -0.2733  0.0535 -0.3860
 2839Sol     HW12104   2.967   0.866  11.401 -1.5902 -0.7921 -1.3713
 2839Sol     HW12105   2.898   0.772  11.497  0.7365  0.5479  1.6967
 2839Sol     MW12106   2.972   0.792  11.451  0.6172  0.6155 -0.2648
 2840Sol     OW12107   2.198   2.018  11.040 -0.0946 -0.0364 -0.5597
 2840Sol     HW12108   2.292   2.026  11.022  0.2066 -1.3725  0.4242
 2840Sol     HW12109   2.176   1.929  11.012 -0.9353  0.0538 -0.1789
 2840Sol     MW12110   2.205   2.011  11.035  0.2750  1.0799  0.2937
 2841Sol     OW12111   1.847   2.403   7.958 -0.4522  0.1037  0.3500
 2841Sol     HW12112   1.906   2.366   7.892 -1.0761  0.6636 -0.5359
 2841Sol     HW12113   1.901   2.463   8.009 -0.1786  0.3647 -0.2460
 2841Sol     MW12114   1.857   2.405   7.957  0.7563 -0.8582  0.5663
 2842Sol     OW12115   3.043   1.815   8.268  0.0289 -0.0022  0.4772
 2842Sol     HW12116   3.096   1.744   8.231 -1.1506  0.2000 -1.6853
 2842Sol     HW12117   2.991   1.773   8.336  1.5883 -0.5701  1.3570
 2842Sol     MW12118   3.043   1.805   8.270 -0.0377 -0.1600 -0.2009
 2843Sol     OW12119   0.803   3.092   8.048 -0.0498 -0.2967  0.0306
 2843Sol     HW12120   0.817   3.128   7.960 -0.5270 -0.3354 -0.0624
 2843Sol     HW12121   0.883   3.043   8.067  0.0378 -0.3255 -0.4005
 2843Sol     MW12122   0.811   3.091   8.041 -0.1466 -0.4862  0.1024
 2844Sol     OW12123   1.683   1.147   9.538 -0.0422 -0.7354 -0.5626
 2844Sol     HW12124   1.590   1.152   9.515  0.1504 -1.4063 -1.5042
 2844Sol     HW12125   1.685   1.155   9.634 -1.1506 -1.7869 -0.4396
 2844Sol     MW12126   1.675   1.148   9.545  0.7402 -0.4590  0.0293
 2845Sol     OW12127   2.951   1.499   9.450  0.1387  0.2577  0.1799
 2845Sol     HW12128   2.958   1.454   9.366 -0.1038  0.2963  0.1382
 2845Sol     HW12129   3.008   1.575   9.442  1.8405 -0.9118  0.8407
 2845Sol     MW12130   2.957   1.502   9.442  0.2773  0.1054  0.2944
 2846Sol     OW12131   2.709   0.523  11.665  0.3650 -0.0591 -0.2200
 2846Sol     HW12132   2.754   0.508  11.748 -0.4831 -0.3238  0.1960
 2846Sol     HW12133   2.644   0.452  11.660  1.0399 -0.6063 -1.5482
 2846Sol     MW12134   2.707   0.515  11.672 -0.2649 -0.2241  0.2438
 2847Sol     OW12135   0.210   2.766   8.761 -0.1541 -0.3312  0.1937
 2847Sol     HW12136   0.305   2.779   8.763  0.0017 -1.1663 -0.9890
 2847Sol     HW12137   0.199   2.674   8.735 -1.2899 -0.1625  0.0353
 2847Sol     MW12138   0.217   2.759   8.759 -0.0420 -0.3168 -0.2776
 2848Sol     OW12139   2.464   2.911   9.722 -0.4105  0.1455  0.0931
 2848Sol     HW12140   2.545   2.939   9.678 -0.0713 -1.0662 -0.0822
 2848Sol     HW12141   2.416   2.992   9.738 -0.5734  0.6033 -2.5766
 2848Sol     MW12142   2.467   2.920   9.720  0.0584 -0.1324 -0.3920
 2849Sol     OW12143   1.724   1.463   9.122  0.4434  0.2998 -0.4312
 2849Sol     HW12144   1.742   1.555   9.143  0.8393  0.4042 -1.2400
 2849Sol     HW12145   1.712   1.421   9.208 -0.2316  1.2024 -0.0737
 2849Sol     MW12146   1.724   1.467   9.132  0.6051  0.0114  0.2932
 2850Sol     OW12147   0.979   0.246   8.518  0.3300  0.0115  0.3828
 2850Sol     HW12148   1.024   0.313   8.569 -1.0946  0.3249  1.2626
 2850Sol     HW12149   0.890   0.280   8.507  0.7997  0.3294 -2.9993
 2850Sol     MW12150   0.975   0.255   8.522 -0.3060 -0.4446 -0.2035
 2851Sol     OW12151   0.182   0.557  12.654  0.1269  0.0951  0.1176
 2851Sol     HW12152   0.101   0.506  12.648  1.3913 -1.7255 -1.8449
 2851Sol     HW12153   0.170   0.627  12.589 -0.8482  1.2884  1.5393
 2851Sol     MW12154   0.173   0.559  12.647 -0.3794 -0.2317 -0.7043
 2852Sol     OW12155   0.197   0.197   6.751  0.0933 -0.0155 -0.0005
 2852Sol     HW12156   0.169   0.120   6.801 -0.8342  0.1852 -0.1925
 2852Sol     HW12157   0.153   0.187   6.667 -0.7921  1.2004  0.3049
 2852Sol     MW12158   0.190   0.189   6.748  0.0099  0.4576  0.1427
 2853Sol     OW12159   0.379   1.633   6.294  0.3575 -0.0918  0.2374
 2853Sol     HW12160   0.461   1.582   6.296  1.1273  1.0512 -0.7975
 2853Sol     HW12161   0.326   1.589   6.227  1.3120  0.8624 -1.1772
 2853Sol     MW12162   0.382   1.624   6.288 -0.3538  1.2931 -0.3507
 2854Sol     OW12163   2.635   0.207   6.413 -0.1299 -0.0774 -0.2492
 2854Sol     HW12164   2.613   0.265   6.340 -0.4274  1.8257  1.3185
 2854Sol     HW12165   2.644   0.265   6.489 -1.3186 -2.1504  1.5625
 2854Sol     MW12166   2.634   0.217   6.413  0.5495  0.2348 -0.1456
 2855Sol     OW12167   0.508   2.291   6.934  0.3816 -0.4701 -0.3015
 2855Sol     HW12168   0.577   2.309   6.997  1.5595  1.3558 -2.0686
 2855Sol     HW12169   0.552   2.290   6.849 -1.2092 -2.7043 -1.1608
 2855Sol     MW12170   0.518   2.292   6.932  0.1379  0.5405 -0.0463
 2856Sol     OW12171   0.131   0.118  13.836  0.4242 -0.2044 -0.0794
 2856Sol     HW12172   0.100   0.053  13.773  1.7527 -0.6746 -0.2670
 2856Sol     HW12173   0.182   0.068  13.899  0.7652  0.5367  0.2390
 2856Sol     MW12174   0.133   0.108  13.836  0.0918  0.4346 -0.7076
 2857Sol     OW12175   0.566   3.427  10.517 -0.5553 -0.3487  0.0819
 2857Sol     HW12176   0.479   3.465  10.530 -1.1036 -1.7538  0.6579
 2857Sol     HW12177   0.604   3.477  10.445 -2.4294 -0.6877 -1.1779
 2857Sol     MW12178   0.562   3.435  10.512  0.2565 -0.8257  0.6043
 2858Sol     OW12179   0.323   3.416  11.073  0.1413 -0.2922  0.2787
 2858Sol     HW12180   0.232   3.393  11.094  0.5368 -1.7562  0.4506
 2858Sol     HW12181   0.347   3.356  11.002  1.2735 -0.5887  0.8964
 2858Sol     MW12182   0.317   3.408  11.068 -0.1601 -0.0547 -0.2688
 2859Sol     OW12183   1.711   1.799   6.977 -0.2285  0.1089  0.1067
 2859Sol     HW12184   1.763   1.843   7.044 -0.2557  0.2137  0.0590
 2859Sol     HW12185   1.755   1.714   6.964  0.4205  0.5345 -0.5328
 2859Sol     MW12186   1.720   1.795   6.982  0.4706  0.0099  0.6076
 2860Sol     OW12187   0.619   2.658  11.339 -0.3350 -0.3900 -0.5880
 2860Sol     HW12188   0.545   2.674  11.281 -0.3910  1.0269 -0.1434
 2860Sol     HW12189   0.676   2.734  11.326  0.4158 -0.8479  0.0213
 2860Sol     MW12190   0.617   2.666  11.332 -0.4393 -0.2962 -0.2108
 2861Sol     OW12191   0.604   1.921   7.493  0.6601  0.5605 -0.0982
 2861Sol     HW12192   0.554   1.973   7.556 -0.9392 -1.5328  0.4463
 2861Sol     HW12193   0.580   1.955   7.408  0.2911  1.2584  0.2852
 2861Sol     MW12194   0.597   1.928   7.491 -0.7286  0.0322  0.1103
 2862Sol     OW12195   2.741   0.085  11.219  0.0054 -0.1247 -0.4089
 2862Sol     HW12196   2.741   0.094  11.124 -1.5080  1.1414 -0.3082
 2862Sol     HW12197   2.745   0.174  11.252  1.8090 -0.6062  0.7428
 2862Sol     MW12198   2.741   0.094  11.214  0.1988  0.9421  0.1205
 2863Sol     OW12199   2.206   2.983  12.138  0.2494  0.6638 -0.0060
 2863Sol     HW12200   2.125   2.940  12.163  1.3914 -0.3719  2.0209
 2863Sol     HW12201   2.235   2.937  12.059 -1.3914  1.4209 -1.0702
 2863Sol     MW12202   2.202   2.975  12.133 -0.6863  0.0582 -0.3105
 2864Sol     OW12203   1.080   0.604   6.346  0.3995  0.0284  0.1944
 2864Sol     HW12204   1.159   0.574   6.302  0.2895 -0.1805  0.1367
 2864Sol     HW12205   1.053   0.681   6.297 -0.4061 -0.9162 -0.8682
 2864Sol     MW12206   1.085   0.608   6.338  0.3697  0.0348  0.0217
 2865Sol     OW12207   0.356   0.939   7.169 -0.0874  0.2154 -0.0807
 2865Sol     HW12208   0.393   0.948   7.257  0.7778  0.7399 -0.4904
 2865Sol     HW12209   0.311   1.022   7.153 -1.4341 -0.4040  0.3978
 2865Sol     MW12210   0.355   0.947   7.175  0.1857  0.7998  0.4050
 2866Sol     OW12211   3.169   2.159   9.331 -0.0857 -0.5051 -0.1261
 2866Sol     HW12212   3.175   2.254   9.315  0.7224 -0.3187  1.2470
 2866Sol     HW12213   3.133   2.124   9.249 -2.9516  1.2897  0.2726
 2866Sol     MW12214   3.166   2.165   9.322 -0.7330 -0.1759  0.5434
 2867Sol     OW12215   1.252   1.403   9.792  0.6658  0.2120  0.1999
 2867Sol     HW12216   1.253   1.368   9.881 -0.8252  0.9763  0.5340
 2867Sol     HW12217   1.235   1.497   9.803 -0.0932  0.2224 -0.8966
 2867Sol     MW12218   1.250   1.409   9.801  0.5208 -0.0135  0.3320
 2868Sol     OW12219   2.354   0.752   8.429 -0.2432  0.0381  0.6741
 2868Sol     HW12220   2.407   0.827   8.456 -0.4869  0.6740 -0.5419
 2868Sol     HW12221   2.398   0.676   8.465  1.7033  0.5270 -0.6299
 2868Sol     MW12222   2.362   0.752   8.434 -0.0188  0.3752  0.3435
 2869Sol     OW12223   0.068   3.086  12.492 -0.3899 -0.2160 -0.4064
 2869Sol     HW12224   0.113   3.002  12.485  0.1758  0.0995 -0.5345
 2869Sol     HW12225   0.128   3.142  12.542 -0.1854  0.5200 -1.4795
 2869Sol     MW12226   0.077   3.084  12.496 -0.2587  0.2103  0.1846
 2870Sol     OW12227   1.563   3.305   7.672 -0.0748 -0.0635  0.3216
 2870Sol     HW12228   1.494   3.239   7.675  1.3416 -1.5943  0.1364
 2870Sol     HW12229   1.580   3.326   7.764 -0.7970  0.3601  0.3679
 2870Sol     MW12230   1.558   3.301   7.680  0.0572  0.1766  0.1009
 2871Sol     OW12231   2.123   0.800  11.769 -0.4410 -0.0357 -0.7277
 2871Sol     HW12232   2.113   0.791  11.674 -0.7732  0.2756 -0.7221
 2871Sol     HW12233   2.057   0.864  11.794 -1.3815 -1.2341 -0.0736
 2871Sol     MW12234   2.116   0.805  11.763 -0.1272  1.4017  0.2504
 2872Sol     OW12235   2.112   0.549  12.681  0.4354 -0.2530  0.4560
 2872Sol     HW12236   2.039   0.495  12.712  0.6081 -0.2617  0.8492
 2872Sol     HW12237   2.118   0.620  12.745  1.3719 -0.7658  0.9320
 2872Sol     MW12238   2.106   0.551  12.689  0.3365  0.4134  0.4447
 2873Sol     OW12239   2.275   2.164  10.154  0.2395 -0.5615  0.0466
 2873Sol     HW12240   2.218   2.114  10.213 -0.3404  0.9556  0.8037
 2873Sol     HW12241   2.314   2.231  10.211  0.7335  0.0612 -1.0243
 2873Sol     MW12242   2.274   2.166  10.165 -0.2704 -0.9119  0.3482
 2874Sol     OW12243   3.185   2.372   8.207  0.7737 -0.0435  0.2569
 2874Sol     HW12244   3.215   2.285   8.180  0.4770 -0.3089  0.7728
 2874Sol     HW12245   3.252   2.431   8.174 -0.5007 -0.1563 -2.7217
 2874Sol     MW12246   3.194   2.369   8.202 -0.6822  0.0114  0.0693
 2875Sol     OW12247   1.350   0.360  11.375 -0.6925 -0.2007  0.3044
 2875Sol     HW12248   1.434   0.352  11.330 -1.6139 -1.2402 -1.2648
 2875Sol     HW12249   1.332   0.454  11.376  0.4699  0.0268  0.6303
 2875Sol     MW12250   1.356   0.368  11.371 -1.2257  0.0614  0.3791
 2876Sol     OW12251   1.603   1.222   9.790 -0.3526 -0.1569 -0.0554
 2876Sol     HW12252   1.560   1.305   9.810 -2.2588 -0.7842 -1.4189
 2876Sol     HW12253   1.678   1.219   9.849 -0.5352  2.3040  0.3501
 2876Sol     MW12254   1.606   1.229   9.797  0.7834  0.4611 -0.8154
 2877Sol     OW12255   1.147   2.405   8.776  0.9910 -0.2863 -0.4168
 2877Sol     HW12256   1.197   2.401   8.857  0.9774 -0.5606 -0.4190
 2877Sol     HW12257   1.213   2.413   8.707  1.2237 -3.3406 -0.6321
 2877Sol     MW12258   1.157   2.405   8.777  0.1124  0.4917  0.3212
 2878Sol     OW12259   2.009   1.812  11.864 -0.2672  0.3991  0.2167
 2878Sol     HW12260   2.101   1.819  11.890 -0.3588  0.5442  0.5105
 2878Sol     HW12261   1.967   1.887  11.906 -0.6836 -0.1658  0.8309
 2878Sol     MW12262   2.014   1.819  11.870  0.0954  0.8476 -0.1426
 2879Sol     OW12263   1.348   0.127  10.775 -0.0657  0.2932 -0.6816
 2879Sol     HW12264   1.308   0.124  10.862 -0.5611 -0.7362 -0.9370
 2879Sol     HW12265   1.377   0.037  10.759 -0.5038  0.3486 -1.8195
 2879Sol     MW12266   1.347   0.119  10.782  0.3174  0.8536  0.2941
 2880Sol     OW12267   1.446   1.011  10.870  0.5028 -0.6661  0.1765
 2880Sol     HW12268   1.396   0.933  10.892  0.6768 -0.5524  1.0077
 2880Sol     HW12269   1.526   0.979  10.829  0.0298 -0.8708 -0.5989
 2880Sol     MW12270   1.448   1.001  10.868  0.3258 -0.1058  0.7656
 2881Sol     OW12271   0.592   1.070   9.372  0.2288 -0.1449  0.0637
 2881Sol     HW12272   0.670   1.021   9.344  1.3263  0.4634  1.9021
 2881Sol     HW12273   0.615   1.162   9.356 -0.5917 -0.0420 -0.5122
 2881Sol     MW12274   0.601   1.074   9.368 -0.2435 -0.6643  0.2962
 2882Sol     OW12275   0.506   1.393   6.762 -0.4355  0.7259 -0.1213
 2882Sol     HW12276   0.551   1.327   6.710 -2.4479 -0.1443 -0.8063
 2882Sol     HW12277   0.491   1.465   6.701  0.0070  1.0212  0.1112
 2882Sol     MW12278   0.509   1.394   6.752  0.8956  0.9008  0.0649
 2883Sol     OW12279   2.100   0.461   8.779  0.6726 -0.0876  0.2667
 2883Sol     HW12280   2.061   0.382   8.743  2.1908  0.5919 -3.0028
 2883Sol     HW12281   2.179   0.430   8.824  0.4275 -0.5767  0.3694
 2883Sol     MW12282   2.104   0.451   8.780 -0.5510  0.1776  1.0196
 2884Sol     OW12283   1.729   2.734  13.783  0.3085  0.8590  0.3891
 2884Sol     HW12284   1.820   2.709  13.801  0.6946  0.9118 -1.3312
 2884Sol     HW12285   1.684   2.725  13.867  1.7652  0.2054  1.1210
 2884Sol     MW12286   1.733   2.731  13.792  0.5636  0.2089  0.1130
 2885Sol     OW12287   0.536   0.682  11.225  1.2888  0.4136 -0.2630
 2885Sol     HW12288   0.509   0.618  11.160  0.4279 -0.2840  0.7565
 2885Sol     HW12289   0.575   0.630  11.295 -1.6088  0.7419  1.6861
 2885Sol     MW12290   0.537   0.672  11.226  0.1933 -0.1760 -0.0215
 2886Sol     OW12291   0.631   0.976  11.638 -0.1522  0.1053  0.4924
 2886Sol     HW12292   0.602   0.950  11.550  1.4961 -1.2886  0.3362
 2886Sol     HW12293   0.570   0.933  11.697  0.6673 -1.6274  0.1173
 2886Sol     MW12294   0.623   0.970  11.635  0.1899  0.1015  0.6723
 2887Sol     OW12295   2.326   1.746   8.711  0.4855 -0.3444 -0.4017
 2887Sol     HW12296   2.345   1.677   8.647  0.6529 -0.5036 -0.1797
 2887Sol     HW12297   2.258   1.709   8.767  0.5422 -0.3147 -0.3122
 2887Sol     MW12298   2.322   1.737   8.710 -0.2128  1.0745 -0.7927
 2888Sol     OW12299   3.273   2.152  12.779  0.3132 -0.3586  0.3131
 2888Sol     HW12300   3.324   2.178  12.855  0.5525  0.2095 -0.0340
 2888Sol     HW12301   3.274   2.056  12.780 -1.3087 -0.3704  2.0919
 2888Sol     MW12302   3.278   2.146  12.786 -0.0857 -0.1106 -0.0710
 2889Sol     OW12303   0.456   0.972  13.883 -0.2857  0.3592  0.3756
 2889Sol     HW12304   0.368   0.952  13.914 -0.2559 -0.0217  0.2114
 2889Sol     HW12305   0.512   0.903  13.919 -0.6067 -1.3949 -2.3522
 2889Sol     MW12306   0.454   0.964  13.889  0.4558 -0.2398 -0.2707
 2890Sol     OW12307   3.266   0.652  13.618 -0.4148 -0.1869 -0.2362
 2890Sol     HW12308   3.247   0.621  13.707 -2.5093 -0.4180 -0.7523
 2890Sol     HW12309   3.283   0.745  13.629  0.2241 -0.3814  0.5238
 2890Sol     MW12310   3.266   0.657  13.627 -0.2413 -0.2435  0.5384
 2891Sol     OW12311   0.467   1.598  12.636 -0.1666 -0.3450 -0.3593
 2891Sol     HW12312   0.382   1.600  12.593  0.4373  0.2691 -1.5654
 2891Sol     HW12313   0.526   1.642  12.574  0.4237  1.9912  1.7658
 2891Sol     MW12314   0.465   1.602  12.626  1.0201  0.1126  0.3399
 2892Sol     OW12315   2.005   2.850   9.752 -0.2170 -0.1158  0.1458
 2892Sol     HW12316   1.943   2.779   9.770  0.2835 -0.7298 -0.5461
 2892Sol     HW12317   2.084   2.806   9.722 -0.0485  0.7531 -0.7221
 2892Sol     MW12318   2.006   2.840   9.751  0.1519 -0.4270  0.1735
 2893Sol     OW12319   0.074   3.252   7.079 -0.1117 -0.1576  0.1442
 2893Sol     HW12320   0.161   3.214   7.080  0.3771  0.9429  0.5314
 2893Sol     HW12321   0.062   3.282   6.989  0.7138  1.4590  0.5493
 2893Sol     MW12322   0.081   3.252   7.071  0.0900 -0.1644 -0.3210
 2894Sol     OW12323   1.582   0.993   6.719 -0.8182  0.4694  0.4438
 2894Sol     HW12324   1.573   1.012   6.626 -2.2302 -0.0811  0.4489
 2894Sol     HW12325   1.667   1.030   6.743 -0.7670  1.2674 -0.8937
 2894Sol     MW12326   1.588   0.998   6.713 -0.5540 -0.9174 -0.3242
 2895Sol     OW12327   1.830   1.964   8.981  0.5836  0.1325 -0.1713
 2895Sol     HW12328   1.776   2.043   8.991  0.0688 -0.4461  1.8486
 2895Sol     HW12329   1.854   1.940   9.071  2.2574 -0.9752 -0.8880
 2895Sol     MW12330   1.827   1.969   8.990  0.2531 -0.6654  0.7015
 2896Sol     OW12331   0.565   2.702   8.155  0.1591 -0.3152  0.2102
 2896Sol     HW12332   0.533   2.640   8.089  1.2200  0.3424 -0.9609
 2896Sol     HW12333   0.574   2.784   8.107  0.9882  0.1587  1.1705
 2896Sol     MW12334   0.563   2.704   8.145  0.1103 -0.4535  0.1003
 2897Sol     OW12335   1.184   1.685   7.081  0.2205  0.7490 -0.2246
 2897Sol     HW12336   1.173   1.681   7.176 -0.6117 -1.9362 -0.4049
 2897Sol     HW12337   1.277   1.704   7.068  0.3717  0.9541  1.1216
 2897Sol     MW12338   1.191   1.686   7.088  0.3843  0.4087 -0.3577
 2898Sol     OW12339   2.452   2.443  13.785  0.1475 -0.0017 -0.1924
 2898Sol     HW12340   2.503   2.496  13.723  0.0030 -0.3910 -0.6447
 2898Sol     HW12341   2.382   2.405  13.733 -0.0110 -0.2892  0.2237
 2898Sol     MW12342   2.450   2.445  13.775  0.3841 -0.1544 -0.5960
 2899Sol     OW12343   3.290   2.143   6.394 -0.4417 -0.5270  0.2388
 2899Sol     HW12344   3.367   2.199   6.406 -0.8158  0.1595 -0.5346
 2899Sol     HW12345   3.326   2.062   6.357 -0.3690  0.7930 -2.7367
 2899Sol     MW12346   3.301   2.141   6.391  0.4309 -0.3568  0.0623
 2900Sol     OW12347   3.167   0.980   7.569 -0.1151  0.1510 -0.6443
 2900Sol     HW12348   3.138   1.033   7.644  1.2697 -2.0102  1.5070
 2900Sol     HW12349   3.092   0.981   7.509 -1.0766  2.3592  0.4968
 2900Sol     MW12350   3.157   0.985   7.571 -0.3677  0.2647  0.3103
 2901Sol     OW12351   2.412   1.700   9.996  0.3551 -0.0568  0.0239
 2901Sol     HW12352   2.378   1.785   9.968  1.6800  0.0778 -1.2384
 2901Sol     HW12353   2.421   1.650   9.915  4.0637  0.2609  0.1818
 2901Sol     MW12354   2.409   1.703   9.986 -0.3501 -0.3072  0.4195
 2902Sol     OW12355   2.428   1.564  12.961  0.8407 -0.0461  0.4306
 2902Sol     HW12356   2.436   1.567  13.057  3.0443 -0.2098  0.2676
 2902Sol     HW12357   2.391   1.650  12.938  1.8397  0.6351  1.2935
 2902Sol     MW12358   2.425   1.572  12.968  0.0084 -0.2552 -0.3599
 2903Sol     OW12359   1.747   2.905  10.085 -0.6746 -0.0141  0.0120
 2903Sol     HW12360   1.820   2.955  10.050 -0.0110 -0.8859  0.1467
 2903Sol     HW12361   1.729   2.944  10.171 -0.2657  0.0901  0.0486
 2903Sol     MW12362   1.752   2.913  10.090  0.9148 -0.3623 -0.3520
 2904Sol     OW12363   0.578   2.067   7.264 -0.0196 -0.2856 -0.1349
 2904Sol     HW12364   0.491   2.047   7.229 -0.5340  0.4225  0.7082
 2904Sol     HW12365   0.586   2.162   7.257  0.9532 -0.4047 -0.7951
 2904Sol     MW12366   0.571   2.073   7.260 -0.0076 -0.6331  0.4307
 2905Sol     OW12367   2.441   1.868  11.334 -0.3232 -0.3781 -0.3472
 2905Sol     HW12368   2.347   1.869  11.316  0.0722  1.9674 -2.5818
 2905Sol     HW12369   2.448   1.897  11.426 -1.8245 -1.8625  0.2628
 2905Sol     MW12370   2.433   1.871  11.341 -0.1402  0.5058  0.4002
 2906Sol     OW12371   0.059   1.227   6.762 -0.4358  0.3550  0.0174
 2906Sol     HW12372  -0.036   1.217   6.776 -0.3962  1.2204  0.9463
 2906Sol     HW12373   0.070   1.214   6.668 -1.3514 -0.7404  0.0393
 2906Sol     MW12374   0.051   1.225   6.755  0.0946 -0.1333 -0.4987
 2907Sol     OW12375   1.844   1.644  10.445 -0.1013 -0.2944  0.0296
 2907Sol     HW12376   1.763   1.595  10.457  0.1458 -0.9229 -0.7952
 2907Sol     HW12377   1.818   1.736  10.453 -1.2052 -0.4110 -1.8448
 2907Sol     MW12378   1.834   1.648  10.447 -0.1603  0.0945 -1.1711
 2908Sol     OW12379   1.227   3.172  13.888  0.0891  0.3265  0.3028
 2908Sol     HW12380   1.236   3.199  13.796 -1.0764  0.5525  0.2419
 2908Sol     HW12381   1.289   3.227  13.935  1.7865 -0.8420 -0.5332
 2908Sol     MW12382   1.233   3.179  13.884 -0.6077 -0.0024 -0.2950
 2909Sol     OW12383   2.163   2.032  11.529  0.0203  0.1216  0.1851
 2909Sol     HW12384   2.241   1.979  11.543 -0.2903 -0.1938  0.7187
 2909Sol     HW12385   2.196   2.113  11.489  0.4561 -0.6108 -0.9660
 2909Sol     MW12386   2.173   2.035  11.526  0.1308 -0.1881  0.6076
 2910Sol     OW12387   3.328   2.807  10.407  0.0350  0.5893 -0.1134
 2910Sol     HW12388   3.295   2.872  10.468  0.0455  0.0151  0.5056
 2910Sol     HW12389   3.402   2.850  10.363  1.8894  0.0224  2.3389
 2910Sol     MW12390   3.332   2.816  10.408 -0.7052  1.1056 -0.3268
 2911Sol     OW12391   0.050   0.829   8.800 -0.1806 -0.0503 -0.5072
 2911Sol     HW12392   0.085   0.787   8.722  1.2345 -0.6296  0.4065
 2911Sol     HW12393  -0.042   0.802   8.803 -0.0155 -0.7488 -1.4807
 2911Sol     MW12394   0.045   0.823   8.793  0.3552  0.9008 -0.3253
 2912Sol     OW12395   3.023   2.207   6.359  0.1620 -0.1289  0.2383
 2912Sol     HW12396   2.996   2.116   6.354  0.2401 -0.1599  0.3864
 2912Sol     HW12397   3.118   2.204   6.361  0.1921  0.0029 -0.7618
 2912Sol     MW12398   3.029   2.199   6.358 -0.1999 -0.2013  0.2574
 2913Sol     OW12399   2.421   0.204   8.758 -0.0905  0.7961  0.1482
 2913Sol     HW12400   2.503   0.167   8.725 -0.2521  0.6515 -0.0893
 2913Sol     HW12401   2.437   0.299   8.759 -0.0357  0.7921 -0.2154
 2913Sol     MW12402   2.430   0.209   8.755  0.2550  0.5636 -0.1291
 2914Sol     OW12403   2.358   0.706   7.943 -0.1528  0.4612  0.6979
 2914Sol     HW12404   2.282   0.686   7.890  0.0949 -1.0448  0.9029
 2914Sol     HW12405   2.382   0.623   7.985  1.7612  0.8466  0.4264
 2914Sol     MW12406   2.353   0.697   7.942  0.2623  0.3496  0.5006
 2915Sol     OW12407   1.939   2.397  12.165  0.7647 -0.1699  0.4093
 2915Sol     HW12408   1.955   2.330  12.231 -0.6194 -0.7627  0.1518
 2915Sol     HW12409   1.902   2.471  12.214  1.2314 -0.0108  0.5250
 2915Sol     MW12410   1.937   2.398  12.175 -0.2171  0.0348 -0.1573
 2916Sol     OW12411   0.113   2.444   8.363  0.0868  0.2359 -0.4728
 2916Sol     HW12412   0.196   2.485   8.389  0.3100 -1.0550  0.9273
 2916Sol     HW12413   0.106   2.462   8.270  0.4006  3.0537  0.0034
 2916Sol     MW12414   0.120   2.450   8.357 -0.1728  0.2599  0.1821
 2917Sol     OW12415   2.039   0.922  13.805 -0.5887  0.1123  0.5577
 2917Sol     HW12416   1.965   0.898  13.748 -0.2409 -1.5606  0.7793
 2917Sol     HW12417   2.111   0.938  13.745 -1.2818  2.3571  0.3042
 2917Sol     MW12418   2.038   0.921  13.795 -0.4789 -0.1282 -0.6723
 2918Sol     OW12419   2.652   2.954  10.560 -0.8724  0.2463 -0.2113
 2918Sol     HW12420   2.683   2.947  10.650 -1.0677 -0.6004 -0.2042
 2918Sol     HW12421   2.731   2.937  10.507 -1.1946 -1.4196 -0.1922
 2918Sol     MW12422   2.662   2.952  10.563 -0.0218 -0.2203 -0.6445
 2919Sol     OW12423   0.443   3.008  10.796  0.1804 -0.3595  0.7778
 2919Sol     HW12424   0.538   3.000  10.801  0.2517  0.9905  1.8617
 2919Sol     HW12425   0.426   3.100  10.814 -1.4997 -1.1508  3.5543
 2919Sol     MW12426   0.450   3.015  10.798  0.4437  0.3143  0.6686
 2920Sol     OW12427   2.118   1.987   9.566 -0.2495 -0.3438 -0.6846
 2920Sol     HW12428   2.081   1.956   9.649  1.3650 -1.4509 -0.3469
 2920Sol     HW12429   2.098   1.917   9.503  0.5564 -0.5795 -0.6837
 2920Sol     MW12430   2.113   1.978   9.568 -0.6593 -0.2777  0.1891
 2921Sol     OW12431   1.286   1.081   7.302  0.2060  0.2086  0.2943
 2921Sol     HW12432   1.309   1.072   7.395  0.0712  0.7465  0.3844
 2921Sol     HW12433   1.245   1.168   7.296 -2.7246 -1.1044  0.3203
 2921Sol     MW12434   1.284   1.088   7.310 -0.5339 -0.0148  0.0200
 2922Sol     OW12435   3.330   0.555  10.297  0.1969 -0.3178  0.0650
 2922Sol     HW12436   3.314   0.484  10.235 -1.1175 -0.8946  1.0418
 2922Sol     HW12437   3.292   0.632  10.255 -1.7207 -0.9222  0.6113
 2922Sol     MW12438   3.325   0.555  10.287  0.1183  0.2242 -0.6707
 2923Sol     OW12439   0.084   1.110  12.004  0.1597 -0.5221 -0.0070
 2923Sol     HW12440   0.155   1.110  11.940 -0.5491  1.6591 -0.8306
 2923Sol     HW12441   0.107   1.040  12.065  2.3179 -0.7402 -1.0254
 2923Sol     MW12442   0.093   1.104  12.004  0.5314  0.1111  0.3024
 2924Sol     OW12443   0.994   0.462   6.876 -0.7287  0.0916  0.2218
 2924Sol     HW12444   0.942   0.522   6.928  0.2225  1.3090 -0.1968
 2924Sol     HW12445   0.989   0.496   6.787  1.2740  0.6151  0.2788
 2924Sol     MW12446   0.989   0.471   6.872 -0.4079  0.6995  0.3453
 2925Sol     OW12447   0.660   1.784  11.743 -0.5109 -0.0654  0.5556
 2925Sol     HW12448   0.654   1.693  11.716 -2.3751  0.6442 -1.6518
 2925Sol     HW12449   0.597   1.792  11.815  0.0173 -0.6066  1.0873
 2925Sol     MW12450   0.654   1.777  11.747  0.0670 -0.3857  0.4269
 2926Sol     OW12451   1.515   2.759   9.250  0.2693  0.9476  0.5884
 2926Sol     HW12452   1.488   2.701   9.321 -1.5162  0.9666 -0.0500
 2926Sol     HW12453   1.603   2.729   9.227 -0.6942 -1.6201  0.1449
 2926Sol     MW12454   1.521   2.752   9.255  0.0054  0.0480  0.1265
 2927Sol     OW12455   0.596   0.934   8.971  0.0613 -0.0937 -0.0315
 2927Sol     HW12456   0.521   0.892   9.012 -0.7800  1.0033 -0.4465
 2927Sol     HW12457   0.571   0.947   8.880  1.3066 -1.0224 -0.5331
 2927Sol     MW12458   0.587   0.932   8.967 -1.0057  0.2779  0.3331
 2928Sol     OW12459   2.735   2.123  10.471 -0.4832 -0.2213  0.3071
 2928Sol     HW12460   2.693   2.094  10.390  0.4288  1.2490 -0.7164
 2928Sol     HW12461   2.824   2.089  10.465 -0.4290 -0.1517  0.7265
 2928Sol     MW12462   2.739   2.117  10.463 -0.3832  0.1677 -0.4305
 2929Sol     OW12463   1.216   1.376   7.255 -0.2744  0.0846 -0.3463
 2929Sol     HW12464   1.252   1.390   7.168  0.6165 -0.5760 -0.0908
 2929Sol     HW12465   1.292   1.378   7.313 -0.9439  1.2788  0.5107
 2929Sol     MW12466   1.226   1.377   7.252  0.0860  0.0553 -0.1545
 2930Sol     OW12467   0.140   0.708  12.426 -0.4423 -0.1663  0.5991
 2930Sol     HW12468   0.116   0.800  12.426  1.2252  0.3866 -3.3477
 2930Sol     HW12469   0.061   0.662  12.399 -1.0275  0.1663  1.7142
 2930Sol     MW12470   0.131   0.712  12.423  0.9074  0.1131 -0.0291
 2931Sol     OW12471   0.535   0.856   7.659  0.5041 -0.1086 -0.0977
 2931Sol     HW12472   0.450   0.846   7.703  0.8086  0.3967  0.6105
 2931Sol     HW12473   0.525   0.808   7.576 -0.8448  0.9011 -0.5270
 2931Sol     MW12474   0.526   0.850   7.655  0.3766 -0.1503  0.3781
 2932Sol     OW12475   2.538   0.047  12.852  0.3803  0.0389  0.9936
 2932Sol     HW12476   2.632   0.053  12.837  0.2796 -0.1604  0.2202
 2932Sol     HW12477   2.515  -0.043  12.826 -0.2527  0.5393 -0.2293
 2932Sol     MW12478   2.544   0.039  12.848 -0.2518 -0.2892 -0.3831
 2933Sol     OW12479   2.207   2.820  10.479 -0.6897  0.4403 -0.4168
 2933Sol     HW12480   2.128   2.846  10.432 -0.7192 -0.3786 -0.8205
 2933Sol     HW12481   2.272   2.888  10.458 -1.1202  0.8166 -0.5210
 2933Sol     MW12482   2.206   2.829  10.473  0.0111 -0.4877  0.2727
 2934Sol     OW12483   3.190   0.505  11.128  0.2791  0.2123 -0.5255
 2934Sol     HW12484   3.279   0.478  11.105  0.6841  1.7742 -0.8176
 2934Sol     HW12485   3.182   0.594  11.095 -1.3890  0.1070 -0.4615
 2934Sol     MW12486   3.197   0.510  11.123  0.5069  0.3414 -0.5664
 2935Sol     OW12487   0.850   2.668   9.586 -0.0669  0.1033  0.4913
 2935Sol     HW12488   0.832   2.687   9.679 -0.1891  0.9618  0.3011
 2935Sol     HW12489   0.791   2.595   9.565 -0.1254 -0.0185  1.0570
 2935Sol     MW12490   0.843   2.663   9.593 -0.0194 -0.2045 -0.2312
 2936Sol     OW12491   2.038   1.094  10.738  0.6444 -0.2815 -0.1990
 2936Sol     HW12492   1.999   1.159  10.679  1.7559 -0.0304 -0.6651
 2936Sol     HW12493   1.975   1.086  10.809 -0.7482 -0.6374 -1.4411
 2936Sol     MW12494   2.029   1.099  10.739  0.2804  0.1458  0.0768
 2937Sol     OW12495   2.681   1.984   9.835 -0.3298 -0.0079  0.2388
 2937Sol     HW12496   2.682   2.076   9.808 -1.4188 -0.3528 -1.0473
 2937Sol     HW12497   2.682   1.935   9.752 -0.1915 -1.1415  0.9056
 2937Sol     MW12498   2.681   1.988   9.825 -0.2895 -0.2111  0.1189
 2938Sol     OW12499   0.581   0.452   7.471 -0.0918 -0.0741  0.2453
 2938Sol     HW12500   0.654   0.492   7.520  1.1834 -1.9513 -0.0833
 2938Sol     HW12501   0.602   0.470   7.379 -1.5061  1.7854  0.2450
 2938Sol     MW12502   0.590   0.458   7.467 -0.4056 -0.4436 -0.2994
 2939Sol     OW12503   2.772   0.092  10.951  0.1766 -0.2109 -0.3421
 2939Sol     HW12504   2.741   0.182  10.936  1.2585 -0.0655 -1.7758
 2939Sol     HW12505   2.794   0.059  10.864  2.2420 -0.9672  0.4325
 2939Sol     MW12506   2.771   0.097  10.942 -0.1907  0.5042 -0.3443
 2940Sol     OW12507   1.263   1.011  11.740  0.3367  0.1608 -0.0132
 2940Sol     HW12508   1.177   0.969  11.748 -0.2819  1.2026 -0.9210
 2940Sol     HW12509   1.293   1.021  11.830  0.0756 -1.3467  0.2574
 2940Sol     MW12510   1.258   1.008  11.749  0.2551  0.4234  0.6259
 2941Sol     OW12511   2.880   1.339   8.057  0.1159  0.2646 -0.1104
 2941Sol     HW12512   2.816   1.409   8.068  0.3083  0.1358  2.0837
 2941Sol     HW12513   2.833   1.259   8.079 -0.3358 -0.4754 -3.4183
 2941Sol     MW12514   2.870   1.338   8.060 -0.5074  0.3341 -0.1525
 2942Sol     OW12515   2.193   3.352   7.180  0.1711  0.0668 -0.3728
 2942Sol     HW12516   2.175   3.315   7.094 -1.0230  0.2794 -0.2183
 2942Sol     HW12517   2.107   3.361   7.221  0.7033  0.2401  0.7293
 2942Sol     MW12518   2.184   3.349   7.176 -0.6561 -0.3565 -0.7256
 2943Sol     OW12519   0.743   0.535   6.367  0.2084 -0.4510  0.0439
 2943Sol     HW12520   0.746   0.481   6.446 -0.2069 -0.7519 -0.1452
 2943Sol     HW12521   0.815   0.597   6.378 -1.6886  1.4736  2.0792
 2943Sol     MW12522   0.750   0.536   6.375 -0.9862  0.2963 -0.3620
 2944Sol     OW12523   0.588   0.259  12.320 -0.1700 -0.2062 -0.0616
 2944Sol     HW12524   0.583   0.348  12.285 -3.1436 -0.4327 -0.3429
 2944Sol     HW12525   0.573   0.269  12.414 -0.4759 -0.3943 -0.0885
 2944Sol     MW12526   0.586   0.268  12.325  0.1774 -0.5730 -0.7182
 2945Sol     OW12527   0.492   1.542  10.844 -0.3573 -0.1416  0.8351
 2945Sol     HW12528   0.487   1.623  10.792 -1.3416  0.5609  1.9977
 2945Sol     HW12529   0.419   1.489  10.813  0.3701 -0.6608 -0.0246
 2945Sol     MW12530   0.485   1.545  10.837  0.7449 -0.3137 -0.1577
 2946Sol     OW12531   0.467   2.641   9.839 -0.5448  0.2750  0.0371
 2946Sol     HW12532   0.451   2.735   9.838  0.0737  0.3780 -0.2077
 2946Sol     HW12533   0.448   2.612   9.750  0.2951  0.3462 -0.1722
 2946Sol     MW12534   0.464   2.647   9.831 -0.2454 -0.1515 -0.3570
 2947Sol     OW12535   2.504   2.516   8.823 -0.2627  0.1309  0.2329
 2947Sol     HW12536   2.516   2.425   8.797 -0.3074  0.4261 -0.8475
 2947Sol     HW12537   2.409   2.530   8.818 -0.4068 -0.1992  1.9021
 2947Sol     MW12538   2.497   2.509   8.820 -0.0803  0.2098 -0.3370
 2948Sol     OW12539   1.275   0.651  10.781 -0.5114 -0.0251  0.4352
 2948Sol     HW12540   1.360   0.688  10.758 -0.2155  0.8766  2.8149
 2948Sol     HW12541   1.271   0.658  10.876 -3.0738 -0.4526  0.3902
 2948Sol     MW12542   1.282   0.655  10.787 -0.6773  0.4124  0.8496
 2949Sol     OW12543   1.490   2.973  13.191 -0.4517  0.5235  0.2171
 2949Sol     HW12544   1.512   2.888  13.153 -0.3259  0.8806 -0.5209
 2949Sol     HW12545   1.467   2.953  13.282  1.5434 -0.0425  0.6217
 2949Sol     MW12546   1.490   2.963  13.195  0.2124  0.5168 -0.7914
 2950Sol     OW12547   3.266   2.783  13.875  0.3908  0.4206 -0.3916
 2950Sol     HW12548   3.174   2.762  13.894  0.5948  1.6973  2.2470
 2950Sol     HW12549   3.270   2.878  13.879  2.1179  0.3164  1.1693
 2950Sol     MW12550   3.258   2.789  13.877 -0.0766 -0.0777 -0.4872
 2951Sol     OW12551   3.262   1.846   7.321 -0.6887  0.4341 -0.0431
 2951Sol     HW12552   3.285   1.756   7.298 -1.1648  0.5142 -0.8732
 2951Sol     HW12553   3.240   1.842   7.414  0.9492  0.0297  0.3402
 2951Sol     MW12554   3.262   1.837   7.327  0.5703 -0.3400 -0.7636
 2952Sol     OW12555   2.237   3.142   6.537  0.1107  0.6914  0.0889
 2952Sol     HW12556   2.259   3.235   6.529  0.0368  0.7358  0.3738
 2952Sol     HW12557   2.306   3.096   6.489 -0.3337  0.9401 -0.7744
 2952Sol     MW12558   2.245   3.146   6.532  0.9757  0.3817  1.0079
 2953Sol     OW12559   1.305   2.691  11.286  0.3452  0.3165 -0.2372
 2953Sol     HW12560   1.266   2.751  11.223  0.9317 -0.0741 -0.9850
 2953Sol     HW12561   1.254   2.703  11.366  0.8467  2.2806 -0.1674
 2953Sol     MW12562   1.297   2.698  11.288 -1.2371  0.4018 -0.4236
 2954Sol     OW12563   0.413   2.796  10.349  0.0985 -0.5479 -0.1764
 2954Sol     HW12564   0.504   2.798  10.379 -0.0845  0.7055  0.3028
 2954Sol     HW12565   0.410   2.857  10.275 -0.0981 -1.4917 -0.9779
 2954Sol     MW12566   0.421   2.801  10.345 -0.6835  0.4248  0.0186
 2955Sol     OW12567   1.154   1.661   6.814  0.0313 -0.0587  0.3085
 2955Sol     HW12568   1.149   1.657   6.910 -2.2584  1.4621  0.2882
 2955Sol     HW12569   1.204   1.583   6.789  0.1851 -0.7561  2.7074
 2955Sol     MW12570   1.158   1.654   6.820 -0.4757  0.1340  0.0854
 2956Sol     OW12571   1.660   0.185   7.469  0.4017  0.4590  0.6513
 2956Sol     HW12572   1.745   0.152   7.440  0.7922  0.5700  1.6607
 2956Sol     HW12573   1.634   0.128   7.540 -0.4432  0.3432  0.2631
 2956Sol     MW12574   1.665   0.177   7.473  0.0193 -0.4091 -0.3746
 2957Sol     OW12575   3.184   0.602  11.407  0.0661  0.2539 -0.3806
 2957Sol     HW12576   3.144   0.581  11.322 -1.3097 -1.4752  0.6518
 2957Sol     HW12577   3.127   0.671  11.443  0.1269  0.3576 -0.4838
 2957Sol     MW12578   3.175   0.606  11.403 -0.0857  0.5894  0.8084
 2958Sol     OW12579   0.779   3.437  10.897 -0.1844 -0.4605 -0.3044
 2958Sol     HW12580   0.872   3.435  10.917  0.0927  0.7544 -1.4180
 2958Sol     HW12581   0.736   3.426  10.982  0.9412 -3.2815 -0.0557
 2958Sol     MW12582   0.783   3.436  10.907  0.4111  0.2591  0.8255
 2959Sol     OW12583   2.924   1.480  12.709  0.0105  0.0251 -0.6553
 2959Sol     HW12584   2.962   1.563  12.738  0.0871  0.0803 -0.9148
 2959Sol     HW12585   2.841   1.474  12.755  0.9177 -0.7112  0.9324
 2959Sol     MW12586   2.920   1.487  12.716 -0.7105  0.6948 -0.2561
 2960Sol     OW12587   3.110   1.648  10.751  0.7684 -0.1699 -0.2220
 2960Sol     HW12588   3.061   1.730  10.763  1.2372 -0.1432  1.7493
 2960Sol     HW12589   3.045   1.586  10.716 -0.1173  0.4772  0.2579
 2960Sol     MW12590   3.100   1.650  10.749 -1.0490  0.8499 -0.2884
 2961Sol     OW12591   0.853   2.511   8.743 -0.2124  0.6531 -0.5014
 2961Sol     HW12592   0.855   2.588   8.800 -0.5925  2.2161 -2.5419
 2961Sol     HW12593   0.945   2.485   8.735 -0.1308  0.5871  0.5839
 2961Sol     MW12594   0.862   2.516   8.748  0.0903  0.1501  0.1119
 2962Sol     OW12595   1.126   1.476  14.231 -0.3649  0.1409  0.0131
 2962Sol     HW12596   1.193   1.534  14.195  0.2360  0.0731  1.0052
 2962Sol     HW12597   1.141   1.393  14.187 -0.3426  0.3649 -0.4012
 2962Sol     MW12598   1.134   1.474  14.224  0.2389 -0.6356  0.0845
 2963Sol     OW12599   1.577   1.076  13.335 -0.0959 -0.1638  0.4539
 2963Sol     HW12600   1.519   1.147  13.308 -0.2394 -0.1825  0.7108
 2963Sol     HW12601   1.664   1.103  13.305 -0.5848 -1.1900 -1.9472
 2963Sol     MW12602   1.580   1.085  13.330  0.4641  0.0549  0.3539
 2964Sol     OW12603   1.463   0.300   9.005 -0.4543 -0.3062  0.3120
 2964Sol     HW12604   1.396   0.268   8.945 -1.2704  0.1928  0.9484
 2964Sol     HW12605   1.416   0.322   9.085  0.4299  0.3035  0.6811
 2964Sol     MW12606   1.453   0.299   9.007  0.1997  0.6103 -0.1080
 2965Sol     OW12607   2.873   0.044   6.761 -0.0518 -0.6555  0.3805
 2965Sol     HW12608   2.832   0.078   6.841  1.2434  0.7372  0.4665
 2965Sol     HW12609   2.894   0.122   6.710  0.0429 -1.4926 -0.8750
 2965Sol     MW12610   2.871   0.054   6.764 -0.0507  0.3080  0.0509
 2966Sol     OW12611   2.382   1.756   9.654 -0.0733  0.3580  0.1095
 2966Sol     HW12612   2.474   1.783   9.653  0.0608 -0.0676  0.7348
 2966Sol     HW12613   2.336   1.831   9.692 -0.0502  0.7484 -0.6150
 2966Sol     MW12614   2.386   1.765   9.657  0.0949  0.2647  0.3635
 2967Sol     OW12615   2.661   1.266  11.533  0.1262 -0.6456 -0.2034
 2967Sol     HW12616   2.597   1.198  11.554 -0.8591  0.3917  0.1583
 2967Sol     HW12617   2.673   1.314  11.615  2.1822 -1.4775  0.0315
 2967Sol     MW12618   2.656   1.264  11.542  0.3726  0.3354  0.5582
 2968Sol     OW12619   2.395   0.752  12.927 -0.4826 -0.2224 -0.6012
 2968Sol     HW12620   2.406   0.745  12.833 -1.5152 -2.3148 -0.5804
 2968Sol     HW12621   2.418   0.666  12.961  0.4160  0.6716  1.1244
 2968Sol     MW12622   2.398   0.744  12.922  0.0643 -1.1178  0.6572
 2969Sol     OW12623   1.395   2.657   9.483 -0.2525  0.1996  0.0740
 2969Sol     HW12624   1.368   2.741   9.519 -0.2578 -0.6753  2.1786
 2969Sol     HW12625   1.317   2.602   9.488  0.3419 -0.6040  0.8466
 2969Sol     MW12626   1.386   2.659   9.487 -0.6894  0.0030  0.0709
 2970Sol     OW12627   1.543   0.140   8.286  0.9123 -0.1913 -0.2409
 2970Sol     HW12628   1.472   0.121   8.224  0.9630  0.5874 -0.5546
 2970Sol     HW12629   1.623   0.124   8.236  0.9530  0.3383 -0.3511
 2970Sol     MW12630   1.544   0.137   8.276 -0.5523  0.5484 -0.0668
 2971Sol     OW12631   0.191   2.016  13.563 -0.2993  0.3202 -0.2186
 2971Sol     HW12632   0.164   1.997  13.653 -1.0855  1.0631 -0.2868
 2971Sol     HW12633   0.279   2.050  13.571 -0.1951 -0.0442  0.2260
 2971Sol     MW12634   0.196   2.017  13.572  0.3533  0.1399  1.0323
 2972Sol     OW12635   2.051   0.395   6.241 -0.4964  0.0601  0.1636
 2972Sol     HW12636   2.093   0.452   6.177 -2.1328 -0.5531 -1.5233
 2972Sol     HW12637   2.119   0.333   6.266 -0.0987 -0.3953 -1.8872
 2972Sol     MW12638   2.061   0.394   6.237 -0.7866  0.1740 -0.8660
 2973Sol     OW12639   2.880   2.609   6.818 -0.0094  0.5835 -0.4098
 2973Sol     HW12640   2.861   2.563   6.736 -0.0621 -0.8978  0.4118
 2973Sol     HW12641   2.891   2.700   6.792  0.8543  0.0026 -2.2066
 2973Sol     MW12642   2.880   2.613   6.808 -0.0024  0.0036 -0.2965
 2974Sol     OW12643   0.990   1.417  12.010  0.0045 -0.6777 -0.2119
 2974Sol     HW12644   0.918   1.407  12.073  0.4835 -1.7279  0.1837
 2974Sol     HW12645   0.955   1.474  11.942 -1.0984 -0.9266  0.1395
 2974Sol     MW12646   0.981   1.421  12.010  0.2793 -0.9180 -0.2643
 2975Sol     OW12647   1.079   0.094   7.368 -0.2825  0.1894 -0.4613
 2975Sol     HW12648   1.101   0.059   7.455 -0.0062  0.8012 -0.2846
 2975Sol     HW12649   1.161   0.095   7.320 -0.3585  0.2370 -0.5920
 2975Sol     MW12650   1.088   0.091   7.372  0.3030 -0.5285 -0.1496
 2976Sol     OW12651   1.707   3.232   6.620 -0.6435 -0.2991  0.0373
 2976Sol     HW12652   1.745   3.236   6.708 -0.6565 -2.3785  0.1747
 2976Sol     HW12653   1.778   3.200   6.565 -0.5476  1.3050 -0.7663
 2976Sol     MW12654   1.717   3.229   6.623 -0.4881 -1.0695  0.5260
 2977Sol     OW12655   2.732   1.190  12.599 -0.0694 -0.2321 -0.3475
 2977Sol     HW12656   2.719   1.194  12.694  0.7978  0.2596 -0.2409
 2977Sol     HW12657   2.648   1.162  12.564 -0.1963 -1.0592  0.6183
 2977Sol     MW12658   2.723   1.188  12.604 -0.2753 -0.1742  0.2157
 2978Sol     OW12659   1.937   0.810  12.492  0.0362 -0.6399 -0.0900
 2978Sol     HW12660   1.995   0.787  12.420 -0.3850 -1.9292 -0.0190
 2978Sol     HW12661   1.995   0.841  12.562  0.4923 -0.1125 -0.6980
 2978Sol     MW12662   1.947   0.811  12.492  0.6366  0.0148  0.1567
 2979Sol     OW12663   0.128   2.916  14.476  0.0246  0.1985  0.3686
 2979Sol     HW12664   0.050   2.892  14.527  0.2609 -0.8227  0.2700
 2979Sol     HW12665   0.107   2.889  14.387  0.1674  0.6791  0.1895
 2979Sol     MW12666   0.119   2.911  14.473  0.5141 -0.2978  1.0661
 2980Sol     OW12667   0.630   3.373   7.754  0.2380 -0.5722 -0.3138
 2980Sol     HW12668   0.707   3.325   7.785  2.2136  2.1544 -0.7326
 2980Sol     HW12669   0.602   3.426   7.829 -1.5014 -1.8244 -0.0514
 2980Sol     MW12670   0.635   3.374   7.763 -0.7154  0.8000 -0.0955
 2981Sol     OW12671   2.142   1.248   6.749 -0.2778  0.2548 -0.0512
 2981Sol     HW12672   2.108   1.235   6.838 -0.4601  0.0958 -0.1428
 2981Sol     HW12673   2.202   1.174   6.736  0.4919  0.8037  0.2932
 2981Sol     MW12674   2.145   1.240   6.756 -0.3427 -0.6134 -0.4220
 2982Sol     OW12675   1.246   1.254  12.573 -0.1443 -0.6407  0.3520
 2982Sol     HW12676   1.167   1.205  12.595  0.7008 -0.9907  2.7769
 2982Sol     HW12677   1.238   1.336  12.623  1.6227 -1.2510  1.6692
 2982Sol     MW12678   1.238   1.257  12.580 -0.6559  0.4977 -0.0110
 2983Sol     OW12679   0.246   3.352   8.323  0.2172 -0.3729 -0.0753
 2983Sol     HW12680   0.211   3.433   8.360  0.4175 -0.6504  0.7510
 2983Sol     HW12681   0.174   3.290   8.328  0.3000 -0.4623  0.0361
 2983Sol     MW12682   0.237   3.354   8.327 -0.2248 -0.0925  0.6314
 2984Sol     OW12683   1.133   3.100  10.256 -0.3120  0.0855 -0.4697
 2984Sol     HW12684   1.105   3.110  10.347 -0.3389  0.1989 -0.4900
 2984Sol     HW12685   1.058   3.058  10.212 -0.2768 -0.0226 -0.4274
 2984Sol     MW12686   1.124   3.097  10.260  0.7612  0.5893 -0.0542
 2985Sol     OW12687   2.265   2.447  13.576 -0.0642  0.5473 -0.7681
 2985Sol     HW12688   2.304   2.364  13.548 -0.4532  0.4324 -0.9727
 2985Sol     HW12689   2.274   2.504  13.500 -1.9333 -0.0439 -1.4477
 2985Sol     MW12690   2.270   2.445  13.567  0.5210  0.4631  0.1700
 2986Sol     OW12691   1.732   0.493  11.200 -0.4774 -0.0105 -0.0739
 2986Sol     HW12692   1.692   0.412  11.229 -1.1692 -0.1111 -1.2473
 2986Sol     HW12693   1.724   0.491  11.104  1.9664  0.1667 -0.3118
 2986Sol     MW12694   1.727   0.486  11.194 -0.0497  0.0387 -0.2367
 2987Sol     OW12695   1.926   3.163   9.734 -0.6205 -0.3255  0.1399
 2987Sol     HW12696   2.022   3.162   9.740 -0.4801  1.5068 -1.1994
 2987Sol     HW12697   1.899   3.078   9.768  1.5736 -1.4518 -0.7882
 2987Sol     MW12698   1.932   3.155   9.737 -0.1494  0.6268 -0.1131
 2988Sol     OW12699   1.369   2.545  13.750 -0.1906  0.6884 -0.3521
 2988Sol     HW12700   1.362   2.583  13.837  0.8065  1.2929 -0.5265
 2988Sol     HW12701   1.348   2.617  13.690  0.6420  0.6884 -0.6526
 2988Sol     MW12702   1.366   2.555  13.752 -0.3029 -0.3299 -0.0655
 2989Sol     OW12703   0.735   0.488  13.919 -0.1348 -0.3069  0.1424
 2989Sol     HW12704   0.667   0.427  13.890  2.4815 -2.9951 -0.6066
 2989Sol     HW12705   0.747   0.547  13.845 -1.9566  0.4991  0.4673
 2989Sol     MW12706   0.730   0.488  13.910  0.5310 -0.1572  0.6440
 2990Sol     OW12707   3.253   2.718   9.159 -0.0713  0.0513  0.2130
 2990Sol     HW12708   3.283   2.791   9.214 -3.3608  0.5223  1.5277
 2990Sol     HW12709   3.232   2.759   9.075  0.0552  0.2698  0.2870
 2990Sol     MW12710   3.254   2.728   9.156 -0.2195  0.4241  0.4267
 2991Sol     OW12711   2.006   0.238   8.661  0.3181  0.2481 -0.0161
 2991Sol     HW12712   1.922   0.240   8.615  0.2954 -0.4387 -0.0202
 2991Sol     HW12713   1.998   0.162   8.719  1.4431 -0.6450 -1.0064
 2991Sol     MW12714   1.997   0.231   8.662  0.6929  0.1060 -0.0924
 2992Sol     OW12715   1.733   0.418   9.789 -0.0904 -0.6732 -0.0458
 2992Sol     HW12716   1.656   0.474   9.786  1.4856  1.6064  0.9679
 2992Sol     HW12717   1.711   0.350   9.853 -0.9450  0.4594  0.8736
 2992Sol     MW12718   1.724   0.417   9.794 -0.2519 -0.5168  0.4041
 2993Sol     OW12719   1.892   2.910  10.603 -0.2756  0.3098 -0.4584
 2993Sol     HW12720   1.971   2.878  10.647 -0.6480 -0.2687 -0.2230
 2993Sol     HW12721   1.920   2.992  10.562 -0.3537  1.7805  2.3129
 2993Sol     MW12722   1.902   2.915  10.603  0.0255 -0.0828 -0.3279
 2994Sol     OW12723   1.640   0.756  10.111 -0.1986  0.4061 -0.3039
 2994Sol     HW12724   1.659   0.685  10.050 -1.0980  0.7428 -0.9650
 2994Sol     HW12725   1.659   0.836  10.062 -1.0866  0.6808 -0.1958
 2994Sol     MW12726   1.644   0.756  10.102 -0.5193  0.1839 -0.7139
 2995Sol     OW12727   1.136   2.845   6.330  0.2637  0.7420  0.4967
 2995Sol     HW12728   1.092   2.821   6.411  1.0320  1.6837  1.2018
 2995Sol     HW12729   1.067   2.880   6.274 -0.2271  0.3067  0.8259
 2995Sol     MW12730   1.126   2.846   6.332 -0.2916  0.8013 -0.4922
 2996Sol     OW12731   1.324   0.224  13.910 -0.1450 -0.0604  0.0107
 2996Sol     HW12732   1.329   0.150  13.971 -1.4991  0.0221  0.2310
 2996Sol     HW12733   1.260   0.197  13.844  0.5834  0.2513 -0.8351
 2996Sol     MW12734   1.319   0.215  13.909 -0.0251 -0.0949  0.5209
 2997Sol     OW12735   2.637   0.364   6.653  0.1636 -0.2834 -0.4708
 2997Sol     HW12736   2.588   0.390   6.732  1.3088  0.2167  0.0721
 2997Sol     HW12737   2.715   0.419   6.653  1.3472 -1.9140 -0.6705
 2997Sol     MW12738   2.639   0.371   6.660 -0.2030  0.1943 -0.0561
 2998Sol     OW12739   2.702   1.734  11.896 -0.0422 -0.7826  0.1505
 2998Sol     HW12740   2.781   1.702  11.851  1.0694  2.5838 -0.5042
 2998Sol     HW12741   2.732   1.756  11.984  0.0001  1.1767 -0.3134
 2998Sol     MW12742   2.712   1.733  11.900  0.0758  0.4357  0.6325
 2999Sol     OW12743   2.491   0.641  11.080 -0.3585 -0.4189 -0.5015
 2999Sol     HW12744   2.451   0.582  11.143  1.4508 -0.6251  0.4926
 2999Sol     HW12745   2.438   0.721  11.083 -1.7400 -1.3333 -0.5348
 2999Sol     MW12746   2.483   0.643  11.086  0.1445  0.3877  0.1955
 3000Sol     OW12747   0.289   1.537   8.749  0.0952  0.2903  0.3070
 3000Sol     HW12748   0.363   1.521   8.691 -0.5701  1.1224 -0.7877
 3000Sol     HW12749   0.245   1.613   8.711 -2.2261 -1.1411  0.0497
 3000Sol     MW12750   0.292   1.542   8.740 -0.0264 -0.0608  0.1177
   3.34060   3.46690  21.00000
