Water-ethanol mixture in organosilica
14956
    1Sil     Ob    1   1.476   1.383  11.157  0.1440  0.4303 -0.6601
    1Sil     Ob    2   2.057   1.382  10.357 -0.5442 -0.0971 -0.0879
    1Sil     Ob    3   1.307   1.880  10.715 -0.0251 -0.0320 -0.1536
    1Sil     Ob    4   1.830   1.883  11.106 -0.2914  0.3024 -0.3921
    1Sil     Ob    5   1.665   1.773  10.321 -0.1341  0.0066  0.0541
    1Sil     Ob    6   1.654   1.701  11.167 -0.0813 -0.2923 -0.1018
    1Sil     Ob    7   1.420   1.697  10.383 -0.1681  0.5658  0.2548
    1Sil     Ob    8   1.960   1.693  10.778  0.2715 -0.1026  0.3270
    1Sil     Ob    9   1.450   1.460  10.904  0.0670  0.1049 -0.9618
    1Sil     Ob   10   1.741   1.458  10.510 -0.6389 -0.0801  0.5083
    1Sil     Ob   11   1.423   1.633  11.089 -0.5390  0.3051 -0.3313
    1Sil     Ob   12   1.174   1.627  10.317 -0.2937  0.0654  0.8277
    1Sil     Ob   13   1.776   1.521  10.752  0.0104 -0.1332  0.4522
    1Sil     Ob   14   1.378   1.635  10.731  0.4261 -0.2213 -0.0876
    1Sil     Ob   15   1.899   1.632  11.128 -0.2351  0.3412  0.9587
    1Sil     Ob   16   1.597   1.527  10.300  0.1202 -0.8054  0.0262
    1Sil     Ob   17   1.832   1.457  10.258  0.9462  0.5109 -0.3793
    1Sil     Ob   18   1.253   1.455  11.064  0.2168  0.6358 -0.0405
    1Sil     Ob   19   1.536   1.446  10.664 -0.1330  0.7210 -0.1490
    1Sil     Ob   20   1.224   1.711  10.546  0.1188 -0.3640 -0.2299
    1Sil     Ob   21   1.751   1.708  10.930 -0.5379  0.2649 -0.2046
    1Sil     Ob   22   1.420   1.390  12.346 -0.3019 -0.6064  0.3063
    1Sil     Ob   23   2.008   1.379  11.545 -0.3907 -0.1831 -0.0596
    1Sil     Ob   24   1.260   1.878  11.921 -0.4681  0.1396  0.0174
    1Sil     Ob   25   1.778   1.874  12.300 -0.2992 -0.3063  0.2735
    1Sil     Ob   26   1.614   1.769  11.544 -0.1068 -1.2957 -0.1235
    1Sil     Ob   27   1.611   1.694  12.373  0.7877  0.2645 -0.1469
    1Sil     Ob   28   1.377   1.697  11.582  0.0351  0.0264  0.2873
    1Sil     Ob   29   1.904   1.709  11.988  0.2013 -0.0564 -0.6022
    1Sil     Ob   30   1.402   1.456  12.097 -0.0944  0.0806 -0.2676
    1Sil     Ob   31   1.987   1.467  11.298  0.3491 -0.2832 -0.1572
    1Sil     Ob   32   1.688   1.451  11.691  0.1139 -0.6046 -0.3093
    1Sil     Ob   33   1.388   1.629  12.283  0.4236 -0.1725 -0.0185
    1Sil     Ob   34   1.149   1.624  11.494  0.4605  0.6197  0.1932
    1Sil     Ob   35   1.722   1.523  11.944  0.5720  0.0781 -0.2687
    1Sil     Ob   36   1.326   1.631  11.934  0.4694 -0.0645 -0.3615
    1Sil     Ob   37   1.846   1.630  12.333 -0.3242 -0.1667 -0.1773
    1Sil     Ob   38   1.539   1.514  11.497  0.6466 -0.3782 -0.1735
    1Sil     Ob   39   1.783   1.452  11.452  0.1902 -0.3994 -0.0598
    1Sil     Ob   40   1.194   1.464  12.241  0.0883  0.0262 -0.5081
    1Sil     Ob   41   1.487   1.451  11.850  0.1261 -0.2217  0.1243
    1Sil     Ob   42   1.175   1.712  11.743  0.5626  0.0261  0.5995
    1Sil     Ob   43   1.690   1.690  12.136  0.3539  0.2282  0.8452
    1Sil     Ob   44   1.459   1.707  11.333  0.3067  0.1398  0.2028
    1Sil     Ob   45   1.493   1.885  11.146  0.5570  0.9192 -0.4233
    1Sil     Ob   46   2.068   1.882  10.345 -0.3436 -0.0806  0.0856
    1Sil     Ob   47   1.735   1.775  10.685  0.1014  0.3707 -0.1988
    1Sil     Ob   48   1.295   2.374  10.734 -0.1711 -0.1399 -0.1935
    1Sil     Ob   49   1.829   2.377  11.109 -0.1315 -0.0529 -0.4565
    1Sil     Ob   50   1.663   2.271  10.323  0.3238  0.1082 -0.2442
    1Sil     Ob   51   1.656   2.196  11.171  0.2375 -0.0843  0.0148
    1Sil     Ob   52   1.419   2.184  10.384  0.5257  0.1123 -0.3998
    1Sil     Ob   53   1.969   2.196  10.785  0.3261 -0.2511  0.0491
    1Sil     Ob   54   1.460   1.961  10.902  0.0511 -0.0505  0.2204
    1Sil     Ob   55   1.741   1.953  10.498  0.2278 -0.5896  0.2539
    1Sil     Ob   56   1.429   2.124  11.095 -0.1997  0.3292  0.3235
    1Sil     Ob   57   1.181   2.125  10.307  0.9287 -0.4548 -0.4688
    1Sil     Ob   58   1.773   2.020  10.746  0.2652 -0.1542  0.1159
    1Sil     Ob   59   1.379   2.123  10.729 -0.2243  0.1836  0.0824
    1Sil     Ob   60   1.905   2.127  11.131  0.2328 -0.8446  0.2060
    1Sil     Ob   61   1.600   2.027  10.287 -0.4115 -0.3426  0.4698
    1Sil     Ob   62   1.836   1.948  10.253 -0.8233 -0.3562  0.0875
    1Sil     Ob   63   1.255   1.940  11.061 -0.6371 -0.3940 -0.1253
    1Sil     Ob   64   1.543   1.948  10.653  0.7175 -0.0218 -0.2839
    1Sil     Ob   65   1.213   2.216  10.547  0.0441 -0.4391 -0.6774
    1Sil     Ob   66   1.750   2.203  10.935  0.2425  0.2975  0.0340
    1Sil     Ob   67   1.422   1.879  12.359 -0.3129  0.3956 -0.6080
    1Sil     Ob   68   2.019   1.865  11.539  0.5465 -0.0772  0.0597
    1Sil     Ob   69   1.682   1.766  11.888 -0.1299 -0.0520  0.1760
    1Sil     Ob   70   1.246   2.366  11.916  0.1375  0.1082 -0.0889
    1Sil     Ob   71   1.782   2.372  12.304 -0.2704 -0.0436  0.3926
    1Sil     Ob   72   1.607   2.260  11.525  0.0147 -0.3648  0.4622
    1Sil     Ob   73   1.609   2.197  12.373  0.2790  0.3757 -0.0128
    1Sil     Ob   74   1.360   2.177  11.576  0.2243 -0.8080  1.1224
    1Sil     Ob   75   1.903   2.196  11.986 -0.3560  0.6004  0.3335
    1Sil     Ob   76   1.410   1.953  12.109 -0.0497  0.2527 -0.1578
    1Sil     Ob   77   1.985   1.952  11.296  0.0874  0.3465  0.7571
    1Sil     Ob   78   1.693   1.954  11.700 -0.6466 -0.5691 -0.0172
    1Sil     Ob   79   1.382   2.128  12.290  0.9529 -0.4779 -0.5513
    1Sil     Ob   80   1.126   2.114  11.494  0.0895 -0.2936  0.2678
    1Sil     Ob   81   1.722   2.015  11.958 -0.0519  0.3979  0.4565
    1Sil     Ob   82   1.329   2.126  11.935 -0.6499 -0.2530 -0.5759
    1Sil     Ob   83   1.850   2.121  12.318  1.0524  0.2334  0.2391
    1Sil     Ob   84   1.535   2.008  11.497  0.4007  0.1766 -0.8766
    1Sil     Ob   85   1.789   1.935  11.456 -0.1602 -0.1717  0.1234
    1Sil     Ob   86   1.202   1.952  12.263  0.4558  0.7156  0.1341
    1Sil     Ob   87   1.500   1.943  11.862  0.5267 -0.0725  0.0123
    1Sil     Ob   88   1.170   2.187  11.740 -0.1619  1.1128 -0.7972
    1Sil     Ob   89   1.686   2.200  12.128  0.0296  0.5336 -0.4303
    1Sil     Ob   90   1.451   2.194  11.336  0.1516  1.2664 -0.5212
    1Sil     Ob   91   1.466   2.371  11.159 -0.3112 -0.4666  0.0285
    1Sil     Ob   92   2.077   2.372  10.342  0.0098  0.7792  0.4213
    1Sil     Ob   93   1.726   2.265  10.687  0.7333 -0.0417 -0.4187
    1Sil     Ob   94   1.305   2.874  10.695 -1.0393  0.3988  0.3424
    1Sil     Ob   95   1.838   2.870  11.112  0.1036  0.0588  0.0070
    1Sil     Ob   96   1.674   2.762  10.329 -0.4907  0.2595  0.4000
    1Sil     Ob   97   1.654   2.697  11.186  0.1597 -0.5817  0.0494
    1Sil     Ob   98   1.422   2.682  10.386 -0.4780  0.3077 -0.4565
    1Sil     Ob   99   1.957   2.690  10.786  0.5029 -0.0384 -0.1928
    1Sil     Ob  100   1.459   2.451  10.916  0.9035 -0.1857  0.1390
    1Sil     Ob  101   1.745   2.445  10.508  0.3345 -0.7480  0.1441
    1Sil     Ob  102   1.430   2.626  11.092  0.3211 -0.0145  0.6490
    1Sil     Ob  103   1.185   2.614  10.297 -0.0459  0.0660  0.1064
    1Sil     Ob  104   1.759   2.510  10.758 -0.5941 -0.3826  0.3106
    1Sil     Ob  105   1.378   2.621  10.737  0.0003 -0.6432 -0.1993
    1Sil     Ob  106   1.909   2.620  11.129  0.2026 -0.2552  0.3908
    1Sil     Ob  107   1.608   2.518  10.295 -0.3457  0.1896 -0.5594
    1Sil     Ob  108   1.841   2.426  10.259 -0.2489  0.0254  0.3164
    1Sil     Ob  109   1.254   2.446  11.075 -0.3857  0.2736 -0.0895
    1Sil     Ob  110   1.535   2.433  10.655  0.1752  0.1790  0.3913
    1Sil     Ob  111   1.222   2.696  10.541 -0.2439  0.4200  0.3818
    1Sil     Ob  112   1.748   2.685  10.936 -0.0864 -0.0216 -0.2040
    1Sil     Ob  113   1.429   2.373  12.347  0.1766 -0.1257  0.0156
    1Sil     Ob  114   2.005   2.371  11.555 -0.4696  0.2787 -0.2527
    1Sil     Ob  115   1.672   2.255  11.878 -0.1799 -0.4145 -0.7823
    1Sil     Ob  116   1.247   2.865  11.915 -0.6630 -0.1690  0.0870
    1Sil     Ob  117   1.774   2.858  12.308 -0.0817 -0.3189  0.6340
    1Sil     Ob  118   1.606   2.750  11.542  0.2657 -0.4924  0.5772
    1Sil     Ob  119   1.619   2.668  12.375  0.0255  0.5901 -0.0520
    1Sil     Ob  120   1.361   2.660  11.584 -0.0554  0.0813 -0.4169
    1Sil     Ob  121   1.900   2.685  11.989 -0.4057  0.5048 -0.3825
    1Sil     Ob  122   1.416   2.450  12.101  0.4121 -0.1641 -0.3594
    1Sil     Ob  123   1.981   2.462  11.307  0.3450 -0.3089 -0.4070
    1Sil     Ob  124   1.682   2.427  11.700  0.3074  0.5750  0.9227
    1Sil     Ob  125   1.383   2.615  12.298 -0.0290 -0.3511  0.6766
    1Sil     Ob  126   1.115   2.607  11.513 -0.5590  0.3735  0.6395
    1Sil     Ob  127   1.720   2.510  11.938 -0.7073  0.4588  0.4797
    1Sil     Ob  128   1.322   2.622  11.933  0.2085  0.4767 -0.1332
    1Sil     Ob  129   1.853   2.611  12.319 -0.6708 -0.5866  0.6994
    1Sil     Ob  130   1.531   2.508  11.499 -0.1897 -0.7583  0.0343
    1Sil     Ob  131   1.768   2.427  11.453  0.4501 -0.2113  0.0203
    1Sil     Ob  132   1.202   2.437  12.260 -0.0830 -0.2977 -0.0395
    1Sil     Ob  133   1.479   2.437  11.851  0.0341  0.0634 -0.8060
    1Sil     Ob  134   1.159   2.697  11.751  0.8387  0.3739 -0.4605
    1Sil     Ob  135   1.689   2.675  12.134  0.2228 -0.4229  0.3180
    1Sil     Ob  136   1.447   2.700  11.339  0.2081  0.3059 -0.3092
    1Sil     Ob  137   1.486   2.874  11.138  0.1361  0.1098 -0.4834
    1Sil     Ob  138   2.066   2.868  10.358 -0.5303  0.0196  0.0144
    1Sil     Ob  139   1.711   2.754  10.706  0.0515 -0.2336  0.6132
    1Sil     Ob  140   1.301   3.366  10.705 -0.1101 -0.5775 -0.2575
    1Sil     Ob  141   1.833   3.351  11.109  0.1348 -0.1099  0.3364
    1Sil     Ob  142   1.658   3.245  10.327  0.3210 -0.2995 -0.6321
    1Sil     Ob  143   1.670   3.166  11.167 -0.2484 -0.2452 -0.2900
    1Sil     Ob  144   1.421   3.172  10.388  0.1376  0.0502 -0.1551
    1Sil     Ob  145   1.961   3.165  10.779  0.4608 -0.3191 -0.3031
    1Sil     Ob  146   1.454   2.929  10.891  0.0628 -0.0745  0.8137
    1Sil     Ob  147   1.757   2.920  10.510  0.6655  0.4656 -0.0124
    1Sil     Ob  148   1.442   3.109  11.072  0.0827 -0.3865  0.0179
    1Sil     Ob  149   1.195   3.110  10.279 -0.0445  0.6431 -0.5598
    1Sil     Ob  150   1.769   2.994  10.754  0.1171 -0.0896 -0.1740
    1Sil     Ob  151   1.374   3.120  10.733  0.0004  0.4797  0.1501
    1Sil     Ob  152   1.915   3.109  11.137  0.3774 -0.6681  0.0210
    1Sil     Ob  153   1.594   3.006  10.338 -0.2499  0.3649  0.5837
    1Sil     Ob  154   1.836   2.953  10.273  0.4634 -0.9214  0.6608
    1Sil     Ob  155   1.251   2.944  11.058 -0.7145  0.1288 -0.3254
    1Sil     Ob  156   1.548   2.939  10.654  0.0403  0.0033  0.1013
    1Sil     Ob  157   1.218   3.173  10.541  0.5115  0.0047  0.0230
    1Sil     Ob  158   1.763   3.177  10.932 -0.7416 -0.2825  0.0629
    1Sil     Ob  159   1.442   2.862  12.358  0.0646  0.3189 -0.1028
    1Sil     Ob  160   2.008   2.854  11.565  0.2995 -0.0257 -0.4037
    1Sil     Ob  161   1.669   2.759  11.891 -0.2037  0.6568 -0.1093
    1Sil     Ob  162   1.248   3.360  11.910  0.6958 -0.5435  0.0116
    1Sil     Ob  163   1.776   3.351  12.307 -0.6092 -0.0798 -0.5921
    1Sil     Ob  164   1.608   3.242  11.535 -0.4739  0.0692 -0.3247
    1Sil     Ob  165   1.607   3.185  12.378  0.0207  0.4254  0.1890
    1Sil     Ob  166   1.369   3.167  11.582 -1.2277  0.3597 -0.4578
    1Sil     Ob  167   1.905   3.183  11.985  0.7203  0.9688 -0.0123
    1Sil     Ob  168   1.405   2.929  12.109  0.3648 -0.1750  0.1702
    1Sil     Ob  169   1.974   2.926  11.320 -0.3955  0.4914 -0.5285
    1Sil     Ob  170   1.692   2.933  11.704  0.0278  0.1888  0.5277
    1Sil     Ob  171   1.375   3.106  12.295 -0.9398 -0.1200  0.4842
    1Sil     Ob  172   1.126   3.089  11.511 -0.6174 -0.0922  0.5152
    1Sil     Ob  173   1.716   3.007  11.947  0.1858 -0.1909  0.0474
    1Sil     Ob  174   1.325   3.102  11.945 -0.1263  0.0759 -0.4017
    1Sil     Ob  175   1.848   3.105  12.320  0.5656 -0.3977 -0.6989
    1Sil     Ob  176   1.534   2.992  11.504 -0.3069 -0.1864 -0.6133
    1Sil     Ob  177   1.775   2.921  11.464 -0.5110  0.7361  0.4459
    1Sil     Ob  178   1.203   2.924  12.281  0.7493 -0.1593 -0.2264
    1Sil     Ob  179   1.487   2.934  11.856  0.1533  0.1950 -0.1784
    1Sil     Ob  180   1.167   3.177  11.755 -0.1704  0.4527  0.9887
    1Sil     Ob  181   1.690   3.179  12.131  0.0801 -0.1472 -0.1874
    1Sil     Ob  182   1.455   3.174  11.330  0.3481  0.1443  0.1871
    1Sil     Ob  183   1.481   3.355  11.148 -0.0324 -0.2205  0.0339
    1Sil     Ob  184   2.066   3.356  10.353 -0.2079 -0.2343 -0.2867
    1Sil     Ob  185   1.730   3.245  10.678 -0.0634  0.6814 -0.1796
    1Sil     Ob  186   1.312   3.861  10.715 -0.1173 -0.3761  0.0046
    1Sil     Ob  187   1.830   3.851  11.110  0.4219  0.1041  0.0406
    1Sil     Ob  188   1.667   3.742  10.331 -0.5455  0.9590 -0.1254
    1Sil     Ob  189   1.656   3.670  11.179  0.2548  0.0426  0.4445
    1Sil     Ob  190   1.419   3.670  10.385 -0.0403  0.3304 -0.0359
    1Sil     Ob  191   1.958   3.664  10.788  0.0978  0.6894 -0.1053
    1Sil     Ob  192   1.450   3.431  10.902 -0.0494 -0.5100 -0.3307
    1Sil     Ob  193   1.745   3.425  10.488 -0.2737 -0.0012  0.1143
    1Sil     Ob  194   1.431   3.606  11.092 -0.5684  0.7292  0.3655
    1Sil     Ob  195   1.179   3.612  10.302  0.0265  0.9138  0.2730
    1Sil     Ob  196   1.771   3.490  10.740  0.5425  0.0280  0.3491
    1Sil     Ob  197   1.381   3.614  10.738  0.0684 -0.7688 -0.1286
    1Sil     Ob  198   1.905   3.603  11.137  0.0561  0.0748  0.3024
    1Sil     Ob  199   1.581   3.493  10.312  0.2162 -0.5055  0.5316
    1Sil     Ob  200   1.831   3.420  10.253  0.5572 -0.4042  0.5642
    1Sil     Ob  201   1.253   3.427  11.063 -0.0752 -0.1408 -0.5642
    1Sil     Ob  202   1.543   3.413  10.656  0.3549 -0.1071 -0.0490
    1Sil     Ob  203   1.224   3.682  10.551 -0.2918  0.0066 -0.0525
    1Sil     Ob  204   1.750   3.666  10.935  0.2078 -0.3675 -0.2002
    1Sil     Ob  205   1.426   3.358  12.339  0.4029 -0.2134 -0.3683
    1Sil     Ob  206   2.011   3.345  11.544 -0.3918  0.4739  0.1686
    1Sil     Ob  207   1.661   3.246  11.886 -0.7979 -0.5616 -0.3123
    1Sil     Ob  208   1.240   3.856  11.922  0.4600 -0.3637 -0.1471
    1Sil     Ob  209   1.782   3.847  12.289  0.4257  0.1666 -0.4611
    1Sil     Ob  210   1.608   3.739  11.518  0.0705 -0.2421 -0.1329
    1Sil     Ob  211   1.620   3.663  12.370  0.5512 -0.0586  0.0958
    1Sil     Ob  212   1.374   3.651  11.580  0.2529 -0.2483 -0.0777
    1Sil     Ob  213   1.907   3.666  11.974  0.1310 -0.4007  0.6904
    1Sil     Ob  214   1.403   3.440  12.095 -0.3435  0.2809 -0.5186
    1Sil     Ob  215   1.993   3.429  11.297  0.2249  0.6035 -0.4078
    1Sil     Ob  216   1.689   3.425  11.689 -0.4815  0.4130  0.4292
    1Sil     Ob  217   1.374   3.603  12.302  0.0559 -0.2616 -0.2275
    1Sil     Ob  218   1.143   3.588  11.492  0.0322  0.2682 -0.2528
    1Sil     Ob  219   1.720   3.495  11.939 -0.1558 -0.0526  0.3875
    1Sil     Ob  220   1.316   3.610  11.930 -0.5915  0.4697 -0.0035
    1Sil     Ob  221   1.862   3.597  12.308 -0.6719 -0.5979 -0.3921
    1Sil     Ob  222   1.547   3.489  11.487 -0.2610 -0.2102  0.2396
    1Sil     Ob  223   1.786   3.411  11.445  0.7258  0.1776  0.0557
    1Sil     Ob  224   1.198   3.429  12.255 -0.1367  0.7795 -0.5778
    1Sil     Ob  225   1.487   3.435  11.848  0.0408 -0.5455  0.0074
    1Sil     Ob  226   1.160   3.676  11.742 -0.1139  0.3086  0.1502
    1Sil     Ob  227   1.699   3.678  12.120 -0.3330  0.1540 -0.3622
    1Sil     Ob  228   1.453   3.673  11.332  0.3242  0.0101 -0.3018
    1Sil     Ob  229   1.473   3.853  11.153 -0.2080 -0.1807  0.2761
    1Sil     Ob  230   2.075   3.847  10.352  0.8441 -0.5647 -0.0625
    1Sil     Ob  231   1.728   3.736  10.684  0.0796 -0.4492 -0.0032
    1Sil     Ob  232   1.310   4.349  10.702 -0.6006 -0.5733  0.1090
    1Sil     Ob  233   1.838   4.345  11.090 -0.0970  0.5165  0.0524
    1Sil     Ob  234   1.671   4.238  10.330  0.1031  0.0310  0.6144
    1Sil     Ob  235   1.669   4.175  11.179  0.7219  0.5708  0.3238
    1Sil     Ob  236   1.432   4.160  10.388 -0.3374  0.2394  0.2263
    1Sil     Ob  237   1.954   4.168  10.786 -0.2378  0.1501 -0.2277
    1Sil     Ob  238   1.467   3.920  10.905  0.3290  0.2589  0.0972
    1Sil     Ob  239   1.766   3.912  10.504 -0.2494  0.2878 -0.0250
    1Sil     Ob  240   1.442   4.099  11.080  0.0240 -0.2049  0.2734
    1Sil     Ob  241   1.196   4.101  10.318 -0.4422  0.5039  0.2670
    1Sil     Ob  242   1.783   3.979  10.746  0.1374 -0.5290 -0.4969
    1Sil     Ob  243   1.386   4.101  10.740 -0.7728 -0.2984  0.1869
    1Sil     Ob  244   1.905   4.098  11.133 -0.0544  0.3904 -0.2189
    1Sil     Ob  245   1.604   3.989  10.312  0.1883  0.3814  0.7412
    1Sil     Ob  246   1.848   3.902  10.260  0.1057 -0.5463 -0.0988
    1Sil     Ob  247   1.253   3.926  11.055 -0.0359  0.1945  0.3934
    1Sil     Ob  248   1.555   3.925  10.651 -0.3447 -0.5337  0.1049
    1Sil     Ob  249   1.227   4.177  10.550 -0.8746 -0.2143  0.2748
    1Sil     Ob  250   1.752   4.154  10.940  0.4496  0.3273  0.5812
    1Sil     Ob  251   1.446   3.846  12.339 -0.0362  0.0696  0.5963
    1Sil     Ob  252   2.011   3.839  11.557  0.3704 -0.0832  0.3709
    1Sil     Ob  253   1.674   3.738  11.873 -0.0097  0.1803 -0.2458
    1Sil     Ob  254   1.241   4.339  11.921 -0.4163 -0.5314  0.1473
    1Sil     Ob  255   1.781   4.339  12.283 -0.2153 -0.6065 -0.4375
    1Sil     Ob  256   1.608   4.228  11.527 -0.0442 -0.0345  0.2127
    1Sil     Ob  257   1.604   4.167  12.371 -0.0033  0.1457 -0.2275
    1Sil     Ob  258   1.371   4.161  11.578 -0.3695  0.5762 -0.4154
    1Sil     Ob  259   1.901   4.158  11.984  0.4089 -0.1662  0.3665
    1Sil     Ob  260   1.401   3.927  12.103 -0.0731  0.4307  0.5698
    1Sil     Ob  261   1.990   3.913  11.307 -0.8190  0.5666 -0.4489
    1Sil     Ob  262   1.691   3.917  11.692 -0.0310  0.0797  0.3131
    1Sil     Ob  263   1.381   4.098  12.292 -0.3346 -0.1142 -0.4587
    1Sil     Ob  264   1.140   4.097  11.492 -0.0817 -0.3711  0.1279
    1Sil     Ob  265   1.719   3.983  11.946 -0.0174 -0.0699 -0.3667
    1Sil     Ob  266   1.319   4.101  11.937  0.0420 -0.1102 -0.1107
    1Sil     Ob  267   1.847   4.093  12.329  0.2751 -0.1204  0.1610
    1Sil     Ob  268   1.531   3.980  11.500  0.2498 -0.0378 -0.5393
    1Sil     Ob  269   1.780   3.910  11.453  0.0655  0.3958  0.1026
    1Sil     Ob  270   1.207   3.912  12.271 -0.0092  0.1031 -0.2863
    1Sil     Ob  271   1.487   3.923  11.853  0.2721  0.1107 -0.1914
    1Sil     Ob  272   1.167   4.165  11.739  0.3723  0.8889 -0.0303
    1Sil     Ob  273   1.690   4.154  12.132  0.1062 -0.6248  0.2186
    1Sil     Ob  274   1.448   4.167  11.331  0.3265  0.1045 -0.2122
    1Sil     Ob  275   1.472   4.346  11.155 -0.8337  0.0082  0.5304
    1Sil     Ob  276   2.056   4.343  10.369  0.7474 -0.1521 -0.5991
    1Sil     Ob  277   1.734   4.230  10.692 -0.0108 -0.7791 -0.7896
    1Sil     Ob  278   1.663   1.213  11.177  0.8189 -0.0197  0.1655
    1Sil     Ob  279   1.423   1.193  10.392 -0.6690 -0.2214 -0.1702
    1Sil     Ob  280   1.957   1.208  10.786 -0.7214 -0.2246 -0.4669
    1Sil     Ob  281   1.458   4.415  10.902 -0.3793 -0.9136 -0.2106
    1Sil     Ob  282   1.753   4.405  10.505 -0.1601  0.6405 -0.6842
    1Sil     Ob  283   1.437   4.592  11.083  0.4242  0.5472 -0.1034
    1Sil     Ob  284   1.190   1.139  10.298  0.0477  0.1354 -0.1053
    1Sil     Ob  285   1.774   4.474  10.756  0.4550  0.2566  0.2101
    1Sil     Ob  286   1.377   1.144  10.715 -0.3485  0.4676  0.8576
    1Sil     Ob  287   1.903   1.146  11.112 -0.1233  0.0053  0.2036
    1Sil     Ob  288   1.593   1.033  10.317  0.4496  0.5120  0.3245
    1Sil     Ob  289   1.833   4.414  10.259 -0.1713  0.4960  0.2176
    1Sil     Ob  290   1.254   4.420  11.057 -0.0574  0.1853  0.2831
    1Sil     Ob  291   1.545   4.404  10.660 -0.3638 -0.4453 -0.3059
    1Sil     Ob  292   1.210   1.210  10.535 -0.8458  0.0026 -0.3731
    1Sil     Ob  293   1.750   1.216  10.930 -0.2055  0.2151 -0.2108
    1Sil     Ob  294   1.433   4.338  12.346 -0.4147 -0.6030 -0.8073
    1Sil     Ob  295   2.028   4.346  11.532 -0.1350 -0.2860  0.0658
    1Sil     Ob  296   1.674   4.230  11.884 -0.5830 -0.5655 -0.1061
    1Sil     Ob  297   1.595   1.214  12.356  0.3374 -0.0991  0.2999
    1Sil     Ob  298   1.373   1.195  11.571  0.9706  0.3277 -0.1268
    1Sil     Ob  299   1.911   1.195  11.973 -0.0961 -0.7898  0.5747
    1Sil     Ob  300   1.400   4.416  12.109  0.1524 -0.0044  0.1518
    1Sil     Ob  301   1.988   4.427  11.289 -0.5028 -0.6651 -0.0327
    1Sil     Ob  302   1.677   4.405  11.698  0.4463 -0.3636 -0.0127
    1Sil     Ob  303   1.365   4.589  12.290  0.2441 -0.7507  0.3251
    1Sil     Ob  304   1.135   1.137  11.485  0.3715  0.0482 -0.0027
    1Sil     Ob  305   1.713   4.483  11.945  0.0279 -0.2814 -0.3354
    1Sil     Ob  306   1.311   1.137  11.943 -1.0516  0.2927 -0.1515
    1Sil     Ob  307   1.839   1.143  12.319 -0.0627  0.0123 -0.0754
    1Sil     Ob  308   1.543   1.016  11.486  0.3016  0.3619  0.5457
    1Sil     Ob  309   1.787   4.400  11.456  0.1365 -0.0483 -0.0788
    1Sil     Ob  310   1.198   4.398  12.267 -0.1541  0.0547 -0.2566
    1Sil     Ob  311   1.479   4.403  11.853  0.2720  0.1724  0.4592
    1Sil     Ob  312   1.173   1.190  11.739 -0.4520 -0.3348 -0.2065
    1Sil     Ob  313   1.688   1.215  12.115 -0.3121  0.2682  0.4375
    1Sil     Ob  314   1.449   1.208  11.327 -0.4983 -0.2561  0.4057
    1Sil     Ob  315   2.305   1.390  11.148  0.5728  0.2002  0.2547
    1Sil     Ob  316   2.906   1.403  10.352 -0.1498  0.1852  0.4920
    1Sil     Ob  317   2.127   1.877  10.718  0.2635  0.0082  0.2153
    1Sil     Ob  318   2.681   1.880  11.081 -0.3225 -0.4515  0.1875
    1Sil     Ob  319   2.509   1.772  10.343  0.5437  0.1849  0.2342
    1Sil     Ob  320   2.493   1.719  11.177 -0.0191  0.4657  0.4806
    1Sil     Ob  321   2.254   1.713  10.385 -0.6045 -0.0531 -0.3925
    1Sil     Ob  322   2.791   1.702  10.786  0.1103 -0.6055 -0.0711
    1Sil     Ob  323   2.269   1.457  10.895 -0.6063 -0.2528  0.1146
    1Sil     Ob  324   2.589   1.441  10.515 -0.4478  0.0619 -0.3513
    1Sil     Ob  325   2.269   1.639  11.073  0.3326 -0.3503 -0.6202
    1Sil     Ob  326   2.024   1.637  10.283 -0.4329  0.0012 -0.1037
    1Sil     Ob  327   2.608   1.529  10.760  0.3034 -0.1763  0.0997
    1Sil     Ob  328   2.198   1.629  10.721  0.1866 -0.1237 -0.0915
    1Sil     Ob  329   2.733   1.634  11.132 -0.2582 -0.0313 -0.5464
    1Sil     Ob  330   2.426   1.519  10.344 -0.4908 -0.5919 -0.3739
    1Sil     Ob  331   2.671   1.450  10.275  0.1970 -0.3486  0.1020
    1Sil     Ob  332   2.074   1.463  11.056  0.0372 -0.4357 -0.8800
    1Sil     Ob  333   2.373   1.462  10.656 -0.4935  0.0057  0.1305
    1Sil     Ob  334   2.044   1.712  10.531 -0.0252  0.1746 -0.0645
    1Sil     Ob  335   2.580   1.702  10.937 -0.2448 -0.2313  0.0678
    1Sil     Ob  336   2.266   1.392  12.348  0.1435 -0.2631 -0.5828
    1Sil     Ob  337   2.842   1.384  11.544  0.0947 -0.1280 -0.3175
    1Sil     Ob  338   2.085   1.874  11.893 -0.0250 -0.4129 -0.7670
    1Sil     Ob  339   2.613   1.875  12.299  0.0853  0.1316 -0.3189
    1Sil     Ob  340   2.431   1.768  11.534  0.1249 -0.1396 -0.1643
    1Sil     Ob  341   2.441   1.703  12.392  0.1202 -0.1484  0.1971
    1Sil     Ob  342   2.193   1.683  11.574 -0.2846  0.0338 -0.0146
    1Sil     Ob  343   2.736   1.710  11.986  0.0815 -0.4408  0.2505
    1Sil     Ob  344   2.231   1.466  12.109 -0.4269  0.4641 -0.0913
    1Sil     Ob  345   2.825   1.457  11.292 -0.2709 -0.0575  0.5884
    1Sil     Ob  346   2.519   1.467  11.699  0.1494  0.6182  0.0248
    1Sil     Ob  347   2.213   1.644  12.304 -0.0657 -0.1406  0.1951
    1Sil     Ob  348   1.952   1.628  11.493  0.0844  0.4957  0.2544
    1Sil     Ob  349   2.558   1.532  11.950  0.1547  0.0253 -0.4599
    1Sil     Ob  350   2.150   1.628  11.931  0.3492 -0.0623 -0.1488
    1Sil     Ob  351   2.683   1.622  12.343 -0.2187 -0.5431  0.0520
    1Sil     Ob  352   2.365   1.528  11.495 -0.2605 -0.1095 -0.3269
    1Sil     Ob  353   2.611   1.472  11.454  0.5471 -0.2933 -0.4517
    1Sil     Ob  354   2.032   1.458  12.270  0.2362 -0.0748 -0.2004
    1Sil     Ob  355   2.316   1.459  11.861  0.1769  0.1408  0.0234
    1Sil     Ob  356   2.000   1.697  11.740  0.1878  0.2993 -0.5242
    1Sil     Ob  357   2.530   1.699  12.149 -0.0021  0.2867 -0.2883
    1Sil     Ob  358   2.280   1.701  11.321 -0.1182 -0.2237 -0.2646
    1Sil     Ob  359   2.302   1.879  11.147  0.3220  0.2964 -0.2652
    1Sil     Ob  360   2.903   1.878  10.372  0.3349 -0.3453 -0.1365
    1Sil     Ob  361   2.568   1.781  10.689 -0.3567 -0.4267  0.2456
    1Sil     Ob  362   2.134   2.371  10.709 -0.1389 -0.1797 -0.0263
    1Sil     Ob  363   2.678   2.357  11.107 -0.3739  0.0210  0.4068
    1Sil     Ob  364   2.494   2.273  10.360 -0.3497  0.3468  0.2568
    1Sil     Ob  365   2.505   2.187  11.186  0.3320 -0.0457  0.6989
    1Sil     Ob  366   2.248   2.180  10.390  0.3598  0.0372  0.2082
    1Sil     Ob  367   2.795   2.204  10.797  0.0424  0.1627  0.1200
    1Sil     Ob  368   2.283   1.947  10.902 -0.2607 -0.1829  0.4031
    1Sil     Ob  369   2.574   1.953  10.508  0.1611 -0.1102  0.4041
    1Sil     Ob  370   2.266   2.130  11.082 -0.1164  0.5000 -0.5437
    1Sil     Ob  371   2.025   2.124  10.292 -0.1531 -0.0388 -0.3238
    1Sil     Ob  372   2.607   2.022  10.753 -0.1246 -0.8578  0.0448
    1Sil     Ob  373   2.201   2.120  10.726 -0.4163 -0.4389 -0.4125
    1Sil     Ob  374   2.753   2.124  11.139 -0.1999  0.4721 -0.1047
    1Sil     Ob  375   2.438   2.027  10.300  0.3232 -0.0408  0.0890
    1Sil     Ob  376   2.672   1.946  10.275 -0.0950 -0.1578  0.0476
    1Sil     Ob  377   2.080   1.950  11.061  0.5915 -0.2604  0.3081
    1Sil     Ob  378   2.372   1.935  10.665  0.3291  0.1716 -0.3560
    1Sil     Ob  379   2.042   2.200  10.539  0.0423  0.3072  0.8256
    1Sil     Ob  380   2.591   2.182  10.946 -0.3096 -0.5298 -0.2113
    1Sil     Ob  381   2.267   1.878  12.339 -0.0305  0.1612 -0.3223
    1Sil     Ob  382   2.831   1.869  11.559 -0.4014 -0.5005  0.3113
    1Sil     Ob  383   2.502   1.778  11.903 -0.5948  0.1471 -0.1966
    1Sil     Ob  384   2.080   2.371  11.910 -0.2736 -0.3653 -0.3091
    1Sil     Ob  385   2.610   2.364  12.310  0.0247 -0.7108  0.3996
    1Sil     Ob  386   2.443   2.261  11.530  0.1416 -0.3004  0.1391
    1Sil     Ob  387   2.447   2.184  12.378  0.0966  0.3938  0.2891
    1Sil     Ob  388   2.201   2.196  11.581 -0.2701 -0.4845 -0.1447
    1Sil     Ob  389   2.734   2.196  11.982 -0.4459 -0.0155 -0.0560
    1Sil     Ob  390   2.237   1.941  12.095  0.1296  0.1396 -0.2052
    1Sil     Ob  391   2.812   1.930  11.301 -0.2867  0.4272  0.1308
    1Sil     Ob  392   2.527   1.940  11.693  0.5252 -0.1232  1.0251
    1Sil     Ob  393   2.206   2.126  12.297 -0.1555  0.3228  0.2178
    1Sil     Ob  394   1.969   2.111  11.490  0.1342 -0.4264 -0.0707
    1Sil     Ob  395   2.565   2.029  11.930 -0.5810  0.7639 -0.1020
    1Sil     Ob  396   2.149   2.124  11.937 -0.5648  0.1076 -0.0509
    1Sil     Ob  397   2.684   2.126  12.316 -0.2519 -0.1844 -0.0841
    1Sil     Ob  398   2.357   2.014  11.508  0.3975  0.0553  0.1442
    1Sil     Ob  399   2.606   1.942  11.451 -0.3833 -0.0922  0.3997
    1Sil     Ob  400   2.030   1.930  12.274 -0.7532 -0.0176  0.1476
    1Sil     Ob  401   2.330   1.962  11.852  0.3854 -0.6199  0.4058
    1Sil     Ob  402   1.992   2.194  11.734 -0.0515 -0.0811  0.4323
    1Sil     Ob  403   2.525   2.191  12.127 -0.4632  0.6118 -0.2372
    1Sil     Ob  404   2.283   2.197  11.337 -0.1324 -0.2315  0.1712
    1Sil     Ob  405   2.324   2.366  11.141 -0.1001  0.2860 -0.2784
    1Sil     Ob  406   2.910   2.356  10.367  0.0611  0.1439  0.2947
    1Sil     Ob  407   2.559   2.267  10.704  0.1546  0.3206 -0.0113
    1Sil     Ob  408   2.124   2.859  10.706  0.5189 -0.3556  0.0367
    1Sil     Ob  409   2.672   2.861  11.102 -0.7402  0.6933  0.2387
    1Sil     Ob  410   2.496   2.750  10.346 -0.3906 -0.2103  0.1161
    1Sil     Ob  411   2.504   2.692  11.198  0.0539  0.3871 -0.2382
    1Sil     Ob  412   2.251   2.686  10.389  0.4847 -0.7533  0.1271
    1Sil     Ob  413   2.800   2.681  10.792 -0.3291 -0.2463 -0.6593
    1Sil     Ob  414   2.272   2.442  10.906 -0.0263  0.4579  0.0948
    1Sil     Ob  415   2.572   2.453  10.517 -0.6872  0.1087 -0.3520
    1Sil     Ob  416   2.272   2.616  11.095 -0.3875 -0.3524  0.1288
    1Sil     Ob  417   2.013   2.619  10.296 -0.6329 -0.6134 -0.7228
    1Sil     Ob  418   2.606   2.512  10.761 -1.1175  0.6995 -0.5648
    1Sil     Ob  419   2.199   2.616  10.743  0.1234  0.6725  0.0115
    1Sil     Ob  420   2.744   2.608  11.149  0.1840  0.2488  0.8585
    1Sil     Ob  421   2.421   2.513  10.324  0.2405  0.4958  0.1582
    1Sil     Ob  422   2.670   2.442  10.276  0.2480 -0.1889  0.3137
    1Sil     Ob  423   2.080   2.442  11.079 -0.5536  0.2551  0.4336
    1Sil     Ob  424   2.370   2.450  10.662  0.0682 -0.2103  0.1941
    1Sil     Ob  425   2.039   2.690  10.540  0.0175 -0.4063  0.2974
    1Sil     Ob  426   2.587   2.680  10.949 -0.4791 -0.3156  0.1828
    1Sil     Ob  427   2.254   2.358  12.362  0.2099  0.2614  0.4795
    1Sil     Ob  428   2.828   2.360  11.563  0.1349 -0.4915  0.1540
    1Sil     Ob  429   2.505   2.264  11.885  0.2125 -0.6048 -0.1464
    1Sil     Ob  430   2.071   2.866  11.910 -0.0403 -0.2395  0.2175
    1Sil     Ob  431   2.619   2.862  12.318 -0.2228 -0.1992 -0.3148
    1Sil     Ob  432   2.431   2.752  11.550 -0.2559 -0.0651 -0.1991
    1Sil     Ob  433   2.453   2.678  12.372 -0.0970 -0.2186 -0.2825
    1Sil     Ob  434   2.182   2.671  11.590  0.2099 -0.1507 -0.1683
    1Sil     Ob  435   2.739   2.668  11.978 -0.3054 -0.0716  0.5116
    1Sil     Ob  436   2.231   2.425  12.104  0.3554  0.4594  0.2274
    1Sil     Ob  437   2.818   2.422  11.311  0.1317  0.5677 -0.1931
    1Sil     Ob  438   2.513   2.446  11.696 -0.5767  0.2789 -0.3998
    1Sil     Ob  439   2.215   2.607  12.283  0.2741  0.7303 -0.2612
    1Sil     Ob  440   1.938   2.614  11.499  0.2097 -0.6286 -0.2672
    1Sil     Ob  441   2.541   2.507  11.951 -0.3548  0.4361  0.1716
    1Sil     Ob  442   2.149   2.615  11.938  0.5910  1.0501 -0.4923
    1Sil     Ob  443   2.694   2.615  12.322  0.1767  0.1933 -0.2787
    1Sil     Ob  444   2.362   2.510  11.506  0.1913 -0.6410  0.0195
    1Sil     Ob  445   2.605   2.446  11.452  0.2645  0.3584 -0.2117
    1Sil     Ob  446   2.022   2.440  12.251 -0.9362  0.2883 -0.0522
    1Sil     Ob  447   2.314   2.436  11.855  0.1907  0.7193  0.1051
    1Sil     Ob  448   1.980   2.678  11.746  0.0373  0.0530  0.5492
    1Sil     Ob  449   2.538   2.688  12.132  0.1093 -1.0995  0.0550
    1Sil     Ob  450   2.281   2.695  11.348 -0.2889 -0.0421  0.5035
    1Sil     Ob  451   2.321   2.864  11.152 -0.0270 -0.8091 -0.4281
    1Sil     Ob  452   2.894   2.857  10.350 -0.0639  0.4963  0.1319
    1Sil     Ob  453   2.569   2.759  10.698  0.0758 -1.1023  0.4663
    1Sil     Ob  454   2.133   3.349  10.707 -0.4310 -0.1048 -0.3340
    1Sil     Ob  455   2.671   3.356  11.088  0.2936  0.4387  0.4029
    1Sil     Ob  456   2.505   3.242  10.337 -0.2236  0.0906 -0.3172
    1Sil     Ob  457   2.493   3.187  11.178  0.2147 -0.3480  0.1844
    1Sil     Ob  458   2.251   3.179  10.382 -0.2282  0.1911  0.3076
    1Sil     Ob  459   2.778   3.167  10.791  0.1090  0.7058  0.0382
    1Sil     Ob  460   2.276   2.935  10.900 -0.0664 -0.5042 -0.1198
    1Sil     Ob  461   2.584   2.924  10.517 -0.1560 -0.1052 -0.4048
    1Sil     Ob  462   2.270   3.113  11.083 -0.0100 -0.1622  0.6122
    1Sil     Ob  463   2.027   3.107  10.283  0.2321 -0.0562  0.0286
    1Sil     Ob  464   2.602   2.998  10.756 -0.1951 -0.3954 -0.1699
    1Sil     Ob  465   2.203   3.106  10.713  0.1345  0.0738 -0.2723
    1Sil     Ob  466   2.728   3.107  11.134  0.3455 -0.1935  0.3644
    1Sil     Ob  467   2.432   2.997  10.335 -0.2427  0.2741  0.2801
    1Sil     Ob  468   2.668   2.935  10.265  0.1541 -0.3100 -0.0915
    1Sil     Ob  469   2.083   2.925  11.085 -0.3592  0.0922  0.0304
    1Sil     Ob  470   2.373   2.935  10.660 -0.6875  1.2038  0.1466
    1Sil     Ob  471   2.042   3.170  10.528 -0.8587 -0.2394  0.4222
    1Sil     Ob  472   2.570   3.182  10.931 -0.4068  0.5069  0.1594
    1Sil     Ob  473   2.256   2.849  12.358 -0.5335 -0.3590  0.1183
    1Sil     Ob  474   2.858   2.856  11.547 -0.4040 -0.2258  0.4393
    1Sil     Ob  475   2.521   2.752  11.883 -0.2868  0.3119 -0.8626
    1Sil     Ob  476   2.083   3.360  11.906  0.1638  0.3106 -0.6202
    1Sil     Ob  477   2.621   3.355  12.311  0.2333 -0.4625 -0.2960
    1Sil     Ob  478   2.430   3.233  11.540  0.4026  0.2691 -0.1872
    1Sil     Ob  479   2.456   3.167  12.370 -0.4499  0.5307  0.0534
    1Sil     Ob  480   2.187   3.160  11.582 -0.7200  0.0396  0.5143
    1Sil     Ob  481   2.741   3.165  11.983 -0.0904  0.0663  0.3229
    1Sil     Ob  482   2.228   2.938  12.104 -0.1138  0.2671 -0.1930
    1Sil     Ob  483   2.813   2.935  11.303  0.6663  0.2450  0.4835
    1Sil     Ob  484   2.524   2.934  11.703  0.0516 -0.5286 -0.1440
    1Sil     Ob  485   2.214   3.098  12.309 -0.6786  0.2502 -0.5534
    1Sil     Ob  486   1.936   3.104  11.506 -0.4470 -1.3689 -0.2435
    1Sil     Ob  487   2.546   3.002  11.957  0.0926 -0.3704  0.3976
    1Sil     Ob  488   2.149   3.110  11.931  0.4736 -0.0479  0.6956
    1Sil     Ob  489   2.699   3.105  12.315  0.3572 -0.0295 -0.6509
    1Sil     Ob  490   2.372   2.991  11.499 -0.3912 -0.4197 -0.6145
    1Sil     Ob  491   2.615   2.910  11.458  0.6723  0.1541  0.1957
    1Sil     Ob  492   2.031   2.929  12.258 -0.1800 -0.5478  1.0322
    1Sil     Ob  493   2.320   2.917  11.863  0.1054 -0.5124 -0.0645
    1Sil     Ob  494   1.989   3.182  11.740  0.2037 -0.4229  0.4892
    1Sil     Ob  495   2.535   3.191  12.130 -0.2564  1.1106  0.1591
    1Sil     Ob  496   2.277   3.175  11.333 -0.5745 -0.8555 -0.0266
    1Sil     Ob  497   2.302   3.360  11.151  0.0904  0.1383  0.2296
    1Sil     Ob  498   2.899   3.358  10.361 -0.3012  0.0905 -0.1148
    1Sil     Ob  499   2.559   3.244  10.682 -0.4083 -0.4173 -0.3202
    1Sil     Ob  500   2.134   3.841  10.711 -0.0107 -0.1527  0.1495
    1Sil     Ob  501   2.674   3.858  11.094 -0.2653 -0.2923  0.5526
    1Sil     Ob  502   2.503   3.743  10.331 -0.3395  0.4903 -0.4887
    1Sil     Ob  503   2.492   3.670  11.175 -0.6188 -0.5678  0.1616
    1Sil     Ob  504   2.259   3.671  10.386 -0.3822 -0.3807 -0.0669
    1Sil     Ob  505   2.788   3.663  10.793  0.3420  0.2539 -0.7721
    1Sil     Ob  506   2.278   3.417  10.898 -0.2200  0.8593 -0.8850
    1Sil     Ob  507   2.582   3.427  10.508  0.1414  1.0131  0.6469
    1Sil     Ob  508   2.258   3.594  11.084  0.4015 -0.0753  0.0085
    1Sil     Ob  509   2.013   3.600  10.288  0.4350  0.2199 -0.4562
    1Sil     Ob  510   2.594   3.479  10.762  0.1232  0.1558 -0.1658
    1Sil     Ob  511   2.201   3.590  10.726  0.0283  0.1634 -0.3031
    1Sil     Ob  512   2.735   3.600  11.129  0.6747  0.2954 -0.8003
    1Sil     Ob  513   2.433   3.487  10.316 -0.2446  0.0153 -0.5346
    1Sil     Ob  514   2.676   3.423  10.255 -0.1474  0.3105 -1.1406
    1Sil     Ob  515   2.077   3.419  11.066 -0.0645  0.0594  0.2785
    1Sil     Ob  516   2.371   3.417  10.653 -0.0066  0.4678  0.3102
    1Sil     Ob  517   2.043   3.668  10.543  0.2798  0.4153 -1.0692
    1Sil     Ob  518   2.579   3.662  10.947 -0.1851  0.8790 -0.4730
    1Sil     Ob  519   2.274   3.348  12.347 -0.7797 -0.8105  0.2571
    1Sil     Ob  520   2.844   3.348  11.541  0.2585  0.1264 -0.2295
    1Sil     Ob  521   2.504   3.247  11.892 -0.3519 -0.4673 -0.5408
    1Sil     Ob  522   2.068   3.845  11.896 -0.2753 -0.4569 -0.0403
    1Sil     Ob  523   2.614   3.848  12.309 -0.4731 -0.5072 -0.2311
    1Sil     Ob  524   2.444   3.734  11.535 -0.9116  0.1166 -0.5338
    1Sil     Ob  525   2.441   3.668  12.369 -0.0395  0.8677 -0.0277
    1Sil     Ob  526   2.197   3.668  11.581 -0.2311 -0.0404 -0.3937
    1Sil     Ob  527   2.749   3.659  11.980 -0.6345  0.2792  0.0434
    1Sil     Ob  528   2.235   3.425  12.101  0.4428  0.4597 -0.0223
    1Sil     Ob  529   2.811   3.424  11.294 -0.3957 -0.0336  0.0105
    1Sil     Ob  530   2.520   3.412  11.702  0.4312  0.0025  0.6337
    1Sil     Ob  531   2.210   3.590  12.283 -0.0432  0.0698  0.0254
    1Sil     Ob  532   1.965   3.600  11.490  0.1595  0.5870 -0.5925
    1Sil     Ob  533   2.558   3.495  11.945  0.0073  0.3763 -0.3939
    1Sil     Ob  534   2.146   3.603  11.937  0.4692  0.0744  0.3057
    1Sil     Ob  535   2.697   3.601  12.332  0.6559 -0.1781 -0.6094
    1Sil     Ob  536   2.365   3.485  11.506  0.2669 -0.2299 -0.2699
    1Sil     Ob  537   2.607   3.428  11.459  0.0303  0.2495  0.3019
    1Sil     Ob  538   2.031   3.402  12.274 -0.8582 -0.1447 -0.8157
    1Sil     Ob  539   2.319   3.431  11.856 -0.0960 -0.0323 -0.6474
    1Sil     Ob  540   1.997   3.656  11.731 -0.4597  0.5264  0.0670
    1Sil     Ob  541   2.544   3.670  12.133  0.6198 -0.0312 -0.2360
    1Sil     Ob  542   2.284   3.653  11.335 -0.7632  0.2273  0.4514
    1Sil     Ob  543   2.299   3.840  11.165 -0.1138 -0.5496  0.5644
    1Sil     Ob  544   2.899   3.853  10.364 -0.3109 -0.0579  0.1930
    1Sil     Ob  545   2.569   3.723  10.702  0.1067  0.6215 -0.1736
    1Sil     Ob  546   2.127   4.335  10.724 -0.6357  0.0748  0.2896
    1Sil     Ob  547   2.664   4.343  11.102 -0.3557 -0.0243 -0.0892
    1Sil     Ob  548   2.509   4.230  10.325  0.4734 -0.9772 -0.2304
    1Sil     Ob  549   2.493   4.165  11.191  0.9653 -0.1234  0.4358
    1Sil     Ob  550   2.249   4.180  10.384 -0.1587 -0.1781  0.3655
    1Sil     Ob  551   2.792   4.150  10.794 -0.4459 -0.6404 -0.6968
    1Sil     Ob  552   2.293   3.907  10.910  0.3492 -0.3802  0.9037
    1Sil     Ob  553   2.575   3.905  10.514 -0.8651 -0.3017 -0.2170
    1Sil     Ob  554   2.265   4.090  11.090 -0.1339 -0.3147 -0.1164
    1Sil     Ob  555   2.020   4.091  10.295 -0.1341 -0.6208 -0.4808
    1Sil     Ob  556   2.599   3.980  10.770  0.0322  0.3173 -0.0209
    1Sil     Ob  557   2.196   4.074  10.743 -0.2696  0.5368  0.5966
    1Sil     Ob  558   2.737   4.098  11.141 -0.1670 -0.2452 -0.3026
    1Sil     Ob  559   2.419   3.989  10.337 -0.0847 -0.0481  0.5214
    1Sil     Ob  560   2.664   3.943  10.271 -0.3924  0.0353  0.1655
    1Sil     Ob  561   2.080   3.918  11.069  0.2999  0.1681 -0.7274
    1Sil     Ob  562   2.381   3.906  10.656 -0.5981 -0.8208  0.2552
    1Sil     Ob  563   2.047   4.156  10.548  0.2090 -0.3750  0.0967
    1Sil     Ob  564   2.577   4.168  10.946  0.6238  0.4950 -0.7704
    1Sil     Ob  565   2.255   3.838  12.335  0.5976 -0.3385 -0.2149
    1Sil     Ob  566   2.837   3.845  11.558 -0.4020  0.0385 -0.5965
    1Sil     Ob  567   2.522   3.739  11.880 -0.1283  0.2265 -0.4466
    1Sil     Ob  568   2.072   4.336  11.920 -0.0193  0.2256 -0.1266
    1Sil     Ob  569   2.623   4.349  12.296 -1.2270 -0.2457  0.5329
    1Sil     Ob  570   2.440   4.227  11.539  0.0245 -0.2224  0.4666
    1Sil     Ob  571   2.443   4.185  12.370 -0.0963 -0.1983 -0.2406
    1Sil     Ob  572   2.200   4.172  11.590  0.4400  0.3719 -0.3846
    1Sil     Ob  573   2.734   4.155  11.983  0.2209  0.0330  0.4665
    1Sil     Ob  574   2.221   3.924  12.093  0.3123 -0.6869  0.2984
    1Sil     Ob  575   2.818   3.914  11.305 -0.1945 -0.0655  0.1040
    1Sil     Ob  576   2.511   3.924  11.703  0.2581  0.4271  1.3932
    1Sil     Ob  577   2.207   4.093  12.292  0.4488  0.2412 -0.0427
    1Sil     Ob  578   1.967   4.091  11.500  0.1778 -0.4503 -0.0672
    1Sil     Ob  579   2.535   3.984  11.954 -0.0262 -0.2530  0.0397
    1Sil     Ob  580   2.149   4.093  11.915  0.1490  0.5407 -0.3911
    1Sil     Ob  581   2.683   4.096  12.316 -0.3269 -0.0609  0.2981
    1Sil     Ob  582   2.364   3.985  11.504 -0.0710 -0.0221 -0.5668
    1Sil     Ob  583   2.611   3.917  11.452  0.3622  0.1504  0.4453
    1Sil     Ob  584   2.023   3.910  12.250  0.2777 -0.1500  0.6038
    1Sil     Ob  585   2.311   3.895  11.858 -0.6883  0.3202 -0.0967
    1Sil     Ob  586   1.995   4.182  11.737 -0.0201 -0.4508  0.1744
    1Sil     Ob  587   2.523   4.178  12.127  0.0418 -0.3736 -0.8353
    1Sil     Ob  588   2.281   4.168  11.342 -0.2134 -0.7063  0.5528
    1Sil     Ob  589   2.307   4.337  11.148  0.2979  0.0761  0.5296
    1Sil     Ob  590   2.891   4.361  10.362  0.4112 -0.3018  0.4307
    1Sil     Ob  591   2.574   4.230  10.686  0.5090  0.2865 -0.6424
    1Sil     Ob  592   2.496   1.223  11.189  0.0278 -0.5464 -0.4649
    1Sil     Ob  593   2.255   1.209  10.384 -0.1797  0.4350 -0.3378
    1Sil     Ob  594   2.778   1.222  10.791  0.6206 -0.2206 -0.0229
    1Sil     Ob  595   2.281   4.396  10.903  0.1097  0.5922  0.2252
    1Sil     Ob  596   2.586   4.403  10.501 -0.6892  0.8719 -0.0410
    1Sil     Ob  597   2.267   4.585  11.087  0.4024 -0.1271  0.2534
    1Sil     Ob  598   2.013   4.592  10.288 -0.3108  0.3150  0.1659
    1Sil     Ob  599   2.608   4.483  10.750 -0.3336  0.0807  0.7528
    1Sil     Ob  600   2.194   1.135  10.750  0.4565  0.3313 -0.1349
    1Sil     Ob  601   2.737   1.141  11.146  0.2079  0.0237  0.1225
    1Sil     Ob  602   2.425   1.028  10.309  0.4202  0.2715  0.3792
    1Sil     Ob  603   2.666   4.431  10.256  0.8479  0.7119 -0.2502
    1Sil     Ob  604   2.086   4.410  11.058 -0.4772  0.5326  0.0030
    1Sil     Ob  605   2.373   4.400  10.658  0.1775 -0.0337  0.9025
    1Sil     Ob  606   2.049   1.194  10.542 -0.0028 -0.7598 -0.0005
    1Sil     Ob  607   2.575   1.199  10.950 -0.6250  0.0268  0.0364
    1Sil     Ob  608   2.250   4.344  12.347  0.9160  0.3507  0.4378
    1Sil     Ob  609   2.846   4.326  11.547 -0.2755 -0.2549  0.3762
    1Sil     Ob  610   2.519   4.231  11.875  0.2909 -0.1949  0.1747
    1Sil     Ob  611   2.453   1.213  12.366  0.8657 -0.0682 -0.1154
    1Sil     Ob  612   2.191   1.195  11.578 -0.6381 -0.6317  0.1578
    1Sil     Ob  613   2.740   1.200  11.979 -0.3394  0.0668 -0.0307
    1Sil     Ob  614   2.228   4.418  12.097 -0.0685  0.0444 -0.4392
    1Sil     Ob  615   2.808   4.404  11.301  0.6877 -0.2587 -0.2997
    1Sil     Ob  616   2.520   4.419  11.690 -0.4228 -0.0379 -0.9647
    1Sil     Ob  617   2.202   4.592  12.288  0.5814  1.0388 -0.3899
    1Sil     Ob  618   1.961   4.584  11.491 -0.1544  0.7870 -0.3528
    1Sil     Ob  619   2.550   4.478  11.939 -0.2983  0.2095 -0.0594
    1Sil     Ob  620   2.155   1.137  11.912  0.1969  0.0268  0.3316
    1Sil     Ob  621   2.696   1.140  12.298  0.0750 -0.2896  0.8076
    1Sil     Ob  622   2.377   1.035  11.492 -0.8345 -0.6006  0.5651
    1Sil     Ob  623   2.607   4.397  11.449 -0.4077 -0.3739  0.7370
    1Sil     Ob  624   2.022   4.419  12.254  0.6747  0.0490  0.6433
    1Sil     Ob  625   2.321   4.397  11.852 -0.1120  0.2731  0.0270
    1Sil     Ob  626   1.986   1.215  11.731 -0.7384  0.3588 -0.4865
    1Sil     Ob  627   2.525   1.196  12.119  0.0724 -0.1811 -0.0452
    1Sil     Ob  628   2.283   1.205  11.338  0.0727 -0.9831  0.4929
    1Sil     Ob  629   3.147   1.390  11.161  0.0733 -0.7418 -0.3742
    1Sil     Ob  630   3.732   1.392  10.364 -0.4071  0.4779  0.1262
    1Sil     Ob  631   2.968   1.880  10.722 -0.5560 -0.1117 -0.5286
    1Sil     Ob  632   3.501   1.883  11.108  0.3560 -0.1093  0.5764
    1Sil     Ob  633   3.323   1.763  10.336 -0.2950  0.1969 -0.2949
    1Sil     Ob  634   3.336   1.710  11.179  0.1403  0.2700 -0.0676
    1Sil     Ob  635   3.089   1.685  10.392 -0.3287  0.0935  0.1837
    1Sil     Ob  636   3.622   1.695  10.787 -0.7654  0.0355 -0.1242
    1Sil     Ob  637   3.124   1.462  10.912 -0.0726  0.3167  0.2076
    1Sil     Ob  638   3.418   1.440  10.513  0.6340 -0.4041 -0.4170
    1Sil     Ob  639   3.109   1.639  11.094 -0.1210  0.3098  0.3387
    1Sil     Ob  640   2.844   1.645  10.307 -0.0807  0.9296 -0.4586
    1Sil     Ob  641   3.435   1.525  10.760 -0.1961  0.1632  0.6241
    1Sil     Ob  642   3.039   1.630  10.742 -0.4189  0.6124 -0.3458
    1Sil     Ob  643   3.576   1.637  11.130 -0.0110 -0.5061  0.2577
    1Sil     Ob  644   3.261   1.511  10.316  0.3001 -0.0507  0.6987
    1Sil     Ob  645   3.501   1.455  10.262  0.0474  0.1308 -0.7481
    1Sil     Ob  646   2.923   1.470  11.063 -0.2846  0.8353  0.1012
    1Sil     Ob  647   3.208   1.449  10.669  0.0899  0.5072  0.6169
    1Sil     Ob  648   2.886   1.705  10.557  0.0936  0.3477  0.0383
    1Sil     Ob  649   3.405   1.718  10.933 -0.4761 -0.1814 -0.3507
    1Sil     Ob  650   3.094   1.372  12.356  0.9608 -0.0500 -0.2130
    1Sil     Ob  651   3.671   1.383  11.557 -0.1062  0.1620  0.4412
    1Sil     Ob  652   2.914   1.873  11.906 -0.1436 -0.8716 -0.1158
    1Sil     Ob  653   3.446   1.870  12.309 -0.0158 -1.1174  0.0425
    1Sil     Ob  654   3.285   1.771  11.538 -0.3379 -0.0763  0.2809
    1Sil     Ob  655   3.266   1.705  12.389  0.3101  0.4742  1.0033
    1Sil     Ob  656   3.034   1.719  11.588 -0.3984 -0.1976  0.2146
    1Sil     Ob  657   3.564   1.722  11.992 -0.1508  0.5500  0.1559
    1Sil     Ob  658   3.067   1.443  12.110 -0.1962  0.4103 -0.6955
    1Sil     Ob  659   3.652   1.458  11.307  0.3510  0.2871  0.1847
    1Sil     Ob  660   3.361   1.458  11.708  0.7877 -0.6120 -0.4368
    1Sil     Ob  661   3.056   1.613  12.295 -1.0358  0.1687 -0.2598
    1Sil     Ob  662   2.811   1.636  11.481 -0.2101  0.5065 -0.3306
    1Sil     Ob  663   3.387   1.538  11.950 -0.2520  0.1666  0.1434
    1Sil     Ob  664   2.974   1.622  11.951  0.7005  0.7879  0.2674
    1Sil     Ob  665   3.508   1.630  12.335 -0.1306 -0.8635  0.2424
    1Sil     Ob  666   3.203   1.526  11.517  0.1822  0.0090  0.5807
    1Sil     Ob  667   3.445   1.448  11.465 -0.1399 -0.2824  0.1536
    1Sil     Ob  668   2.861   1.451  12.266 -0.3397 -0.6943  0.2624
    1Sil     Ob  669   3.159   1.453  11.859  0.2756  0.2647  0.3758
    1Sil     Ob  670   2.836   1.688  11.743 -0.2564 -0.0646  0.0036
    1Sil     Ob  671   3.358   1.702  12.133  0.0506 -0.1322  0.3375
    1Sil     Ob  672   3.128   1.690  11.343  0.3020  0.2917  0.1040
    1Sil     Ob  673   3.146   1.876  11.169 -0.0766 -0.4879 -0.0417
    1Sil     Ob  674   3.740   1.875  10.347  0.0464 -0.0930 -0.0043
    1Sil     Ob  675   3.401   1.764  10.680  0.0297  0.5646 -1.2992
    1Sil     Ob  676   2.979   2.372  10.724  0.3644 -0.0881  0.3790
    1Sil     Ob  677   3.503   2.376  11.115 -0.1721 -0.0109  0.2652
    1Sil     Ob  678   3.330   2.258  10.361 -0.1500 -0.1247  1.3324
    1Sil     Ob  679   3.339   2.198  11.186  0.1479  0.1994  0.7525
    1Sil     Ob  680   3.092   2.160  10.403  0.3724 -0.0185  0.3469
    1Sil     Ob  681   3.620   2.208  10.792  0.0687 -0.1046 -0.0362
    1Sil     Ob  682   3.119   1.939  10.915  0.2171  0.0086  0.6059
    1Sil     Ob  683   3.405   1.943  10.501 -0.2317  0.1272  0.0633
    1Sil     Ob  684   3.105   2.116  11.103 -0.3365  0.1140 -0.3770
    1Sil     Ob  685   2.844   2.117  10.326  0.1039 -0.0640 -0.0062
    1Sil     Ob  686   3.445   2.009  10.753  0.5538  0.4227 -0.5145
    1Sil     Ob  687   3.039   2.123  10.759  0.2640  0.0485  0.0771
    1Sil     Ob  688   3.574   2.133  11.132 -0.6437  0.1192  0.0233
    1Sil     Ob  689   3.262   2.012  10.298  0.3335  0.2154  0.1938
    1Sil     Ob  690   3.500   1.924  10.260  0.6385  0.4469 -0.4126
    1Sil     Ob  691   2.921   1.948  11.067 -0.0295  0.1440  0.0591
    1Sil     Ob  692   3.206   1.948  10.670 -0.0587 -0.4147 -0.6894
    1Sil     Ob  693   2.890   2.196  10.562  0.2695  0.0541 -0.4542
    1Sil     Ob  694   3.412   2.189  10.942 -0.6005 -0.2355 -0.2410
    1Sil     Ob  695   3.080   1.864  12.350 -0.5292 -0.7414 -0.1216
    1Sil     Ob  696   3.680   1.869  11.547  0.4035 -0.6088  0.5351
    1Sil     Ob  697   3.339   1.784  11.889 -0.0699  0.1099 -0.2580
    1Sil     Ob  698   2.904   2.362  11.910 -0.1007 -0.0173  0.0690
    1Sil     Ob  699   3.438   2.362  12.307 -0.2269 -0.0001  0.4784
    1Sil     Ob  700   3.261   2.267  11.544  0.4904 -0.3581 -0.4676
    1Sil     Ob  701   3.275   2.183  12.381  0.0139  0.7161 -0.4878
    1Sil     Ob  702   3.027   2.203  11.580 -0.1006 -0.6401 -0.0140
    1Sil     Ob  703   3.577   2.183  11.988 -0.2081 -0.4486 -0.3598
    1Sil     Ob  704   3.067   1.931  12.099  0.0813 -0.0851 -0.3839
    1Sil     Ob  705   3.644   1.950  11.300  0.4619 -0.6849  0.8405
    1Sil     Ob  706   3.359   1.947  11.696 -0.1372  0.0153 -0.4513
    1Sil     Ob  707   3.039   2.116  12.286  0.4219 -0.1941 -0.0611
    1Sil     Ob  708   2.798   2.112  11.494  0.3594 -0.1537  0.7299
    1Sil     Ob  709   3.384   2.022  11.947  0.6563 -0.1937 -0.1585
    1Sil     Ob  710   2.979   2.119  11.946  0.0581 -0.0610 -0.2172
    1Sil     Ob  711   3.519   2.111  12.331  0.3530  0.2666  0.1344
    1Sil     Ob  712   3.206   2.021  11.514 -0.2396  0.5315  0.1126
    1Sil     Ob  713   3.448   1.951  11.457 -0.5720 -0.2969  0.1921
    1Sil     Ob  714   2.858   1.943  12.252  0.3503  0.2008 -0.2089
    1Sil     Ob  715   3.151   1.948  11.853  0.0348 -0.3272 -0.2658
    1Sil     Ob  716   2.831   2.178  11.744  0.0642 -0.0844 -0.4840
    1Sil     Ob  717   3.362   2.204  12.133  0.3900  0.1413 -0.1581
    1Sil     Ob  718   3.129   2.198  11.342  0.0107  0.1961  0.3737
    1Sil     Ob  719   3.156   2.370  11.148 -0.4355  0.1524 -0.0066
    1Sil     Ob  720   3.747   2.357  10.337 -0.2137 -0.5308 -0.1850
    1Sil     Ob  721   3.392   2.263  10.704 -0.2717  0.0559  0.2855
    1Sil     Ob  722   2.962   2.860  10.719 -0.3781 -0.1541  0.4625
    1Sil     Ob  723   3.504   2.869  11.118  0.6440 -0.1952  0.2458
    1Sil     Ob  724   3.323   2.754  10.343 -0.5582  0.1238 -0.1576
    1Sil     Ob  725   3.329   2.688  11.188  0.2137  0.0271  0.2142
    1Sil     Ob  726   3.092   2.680  10.384  0.3590  0.1616  0.5636
    1Sil     Ob  727   3.623   2.705  10.799  0.1640  0.0074 -0.0070
    1Sil     Ob  728   3.121   2.448  10.918  0.4750  0.1560 -0.6301
    1Sil     Ob  729   3.416   2.439  10.513  0.1471  0.6486 -0.1193
    1Sil     Ob  730   3.098   2.616  11.096  0.3212 -0.2135 -0.1586
    1Sil     Ob  731   2.868   2.604  10.292 -0.5848  0.2123  0.6493
    1Sil     Ob  732   3.460   2.511  10.760 -0.2162  0.5910 -0.3858
    1Sil     Ob  733   3.042   2.621  10.747  0.4107  0.4476  0.3410
    1Sil     Ob  734   3.571   2.618  11.158 -0.4055 -0.6878  0.4104
    1Sil     Ob  735   3.263   2.504  10.307 -0.4785 -0.4002  0.6706
    1Sil     Ob  736   3.506   2.424  10.267 -0.2419  0.4816 -0.2853
    1Sil     Ob  737   2.917   2.437  11.075  0.5897 -0.5612  0.3573
    1Sil     Ob  738   3.215   2.438  10.674 -0.1439 -0.0263  0.1587
    1Sil     Ob  739   2.894   2.681  10.543  0.2049  0.3707  0.8106
    1Sil     Ob  740   3.416   2.685  10.955 -0.4917 -0.6165 -0.5958
    1Sil     Ob  741   3.087   2.368  12.345  0.6849  0.6806 -0.5687
    1Sil     Ob  742   3.687   2.362  11.554 -0.1783  0.0844 -0.0556
    1Sil     Ob  743   3.345   2.262  11.880  0.2351  0.5244  0.4234
    1Sil     Ob  744   2.908   2.854  11.896  0.2883  0.4043 -0.0955
    1Sil     Ob  745   3.445   2.862  12.302 -0.0890 -0.7211 -0.1103
    1Sil     Ob  746   3.275   2.752  11.537 -0.0805 -0.0531  0.3218
    1Sil     Ob  747   3.271   2.678  12.373  0.0395  0.4976  0.3393
    1Sil     Ob  748   3.037   2.679  11.584  0.2944  0.4352  0.3414
    1Sil     Ob  749   3.569   2.684  11.976 -0.4431  0.0363 -0.6000
    1Sil     Ob  750   3.058   2.434  12.106 -0.0377  0.1436  0.0124
    1Sil     Ob  751   3.657   2.438  11.310 -0.2134  0.3813 -0.8130
    1Sil     Ob  752   3.357   2.450  11.708 -0.2825  0.1937 -0.3421
    1Sil     Ob  753   3.040   2.617  12.287 -0.1861  0.0565  0.3368
    1Sil     Ob  754   2.806   2.608  11.489 -0.0863 -0.0074  0.3118
    1Sil     Ob  755   3.378   2.506  11.957 -0.3772  0.2364 -0.0500
    1Sil     Ob  756   2.990   2.609  11.928  0.0776  0.4885  0.3147
    1Sil     Ob  757   3.516   2.613  12.334 -0.3933 -0.9722 -0.5637
    1Sil     Ob  758   3.198   2.507  11.508 -0.3731 -0.1912 -0.2930
    1Sil     Ob  759   3.448   2.425  11.464 -0.6434  0.8324 -0.0607
    1Sil     Ob  760   2.855   2.424  12.272 -0.1372  0.5655  0.5893
    1Sil     Ob  761   3.156   2.417  11.861 -0.0877  0.1116 -0.2691
    1Sil     Ob  762   2.839   2.677  11.728  0.6971 -0.1323  0.1106
    1Sil     Ob  763   3.362   2.687  12.132 -0.3660  0.2215 -0.3269
    1Sil     Ob  764   3.124   2.693  11.339  0.4327  0.0525 -0.6362
    1Sil     Ob  765   3.144   2.866  11.158  0.5227 -0.1960  0.0130
    1Sil     Ob  766   3.748   2.859  10.354  0.0161  0.4541 -0.9095
    1Sil     Ob  767   3.397   2.752  10.700 -0.2578  1.2042 -0.3531
    1Sil     Ob  768   2.955   3.346  10.719  0.0584  0.3859 -0.2311
    1Sil     Ob  769   3.491   3.360  11.104  0.0314 -0.2908  0.1054
    1Sil     Ob  770   3.329   3.252  10.336  0.4430  0.1323 -0.0708
    1Sil     Ob  771   3.326   3.190  11.179  0.4966  0.1435 -0.2391
    1Sil     Ob  772   3.086   3.185  10.393 -0.0095 -0.4165 -0.1701
    1Sil     Ob  773   3.618   3.167  10.787 -0.3514 -0.2723  0.0804
    1Sil     Ob  774   3.112   2.918  10.906 -0.3650 -0.8115 -0.0223
    1Sil     Ob  775   3.400   2.929  10.507  0.4874  0.4325 -0.2393
    1Sil     Ob  776   3.101   3.106  11.092  0.0672 -0.0031  0.1749
    1Sil     Ob  777   2.857   3.108  10.306  0.1487 -0.2868 -0.4077
    1Sil     Ob  778   3.424   3.009  10.751 -0.2446  0.2597 -0.1423
    1Sil     Ob  779   3.024   3.108  10.758 -0.5732 -0.4821 -0.4032
    1Sil     Ob  780   3.569   3.120  11.129 -0.9917 -0.0382  0.2218
    1Sil     Ob  781   3.256   3.009  10.320  0.2187  0.7327 -0.5182
    1Sil     Ob  782   3.499   2.940  10.278  0.0215  0.1457  0.3434
    1Sil     Ob  783   2.908   2.933  11.065  0.0541 -0.2114 -0.1832
    1Sil     Ob  784   3.201   2.931  10.666  0.2880  0.0169  0.5806
    1Sil     Ob  785   2.891   3.160  10.547 -0.2436  0.1522  0.4432
    1Sil     Ob  786   3.410   3.194  10.933 -0.2790 -0.5415  0.1709
    1Sil     Ob  787   3.102   2.861  12.340 -0.5141  0.0174 -0.0293
    1Sil     Ob  788   3.703   2.859  11.531 -0.4055  0.2926  0.3973
    1Sil     Ob  789   3.334   2.749  11.887 -0.3955  0.1611 -0.3206
    1Sil     Ob  790   2.913   3.348  11.919  0.7356 -0.4760 -0.5892
    1Sil     Ob  791   3.446   3.353  12.314  0.1590  0.2580  0.6663
    1Sil     Ob  792   3.276   3.247  11.542  0.2053 -0.3825 -0.0526
    1Sil     Ob  793   3.282   3.162  12.370 -0.0101  0.0210 -0.2390
    1Sil     Ob  794   3.033   3.157  11.571 -0.3153 -0.3338  0.1164
    1Sil     Ob  795   3.577   3.174  11.993 -0.2592  0.0582  0.3119
    1Sil     Ob  796   3.065   2.925  12.091  0.4190 -0.3826 -0.3115
    1Sil     Ob  797   3.662   2.961  11.303  0.4255  0.1101 -0.4584
    1Sil     Ob  798   3.355   2.936  11.701 -0.5326 -0.2570 -0.6863
    1Sil     Ob  799   3.044   3.104  12.283 -0.0913  0.5582 -0.4830
    1Sil     Ob  800   2.780   3.097  11.501  0.1742  0.1236 -0.6935
    1Sil     Ob  801   3.387   2.994  11.947 -0.2028  0.0862  0.2513
    1Sil     Ob  802   2.978   3.107  11.936 -0.2180 -0.5325 -0.3837
    1Sil     Ob  803   3.516   3.106  12.332 -0.0159  0.3033  0.4040
    1Sil     Ob  804   3.215   2.994  11.500  0.7028 -0.2372  0.4224
    1Sil     Ob  805   3.460   2.915  11.458  0.2043 -0.1876 -0.1005
    1Sil     Ob  806   2.873   2.925  12.262  0.3391 -0.1060  0.0507
    1Sil     Ob  807   3.152   2.942  11.854  0.1180 -0.1473 -0.2226
    1Sil     Ob  808   2.827   3.183  11.738 -0.1199  0.4793 -0.1139
    1Sil     Ob  809   3.370   3.182  12.137 -0.6280 -0.2502 -0.4482
    1Sil     Ob  810   3.131   3.171  11.337  0.0541 -0.1728 -0.1918
    1Sil     Ob  811   3.132   3.354  11.166 -0.3168  0.1013  0.1908
    1Sil     Ob  812   3.727   3.365  10.352  0.1241  0.0695  0.0055
    1Sil     Ob  813   3.394   3.250  10.691 -0.0025 -0.3468 -0.7094
    1Sil     Ob  814   2.967   3.846  10.712  0.0609  0.4057 -0.1233
    1Sil     Ob  815   3.509   3.850  11.108  0.6941 -0.9070  0.0901
    1Sil     Ob  816   3.327   3.746  10.328  0.3790  0.9478 -0.6428
    1Sil     Ob  817   3.340   3.687  11.196 -0.0693  0.4154  0.1581
    1Sil     Ob  818   3.079   3.679  10.390 -0.3199  0.1840  0.4582
    1Sil     Ob  819   3.616   3.686  10.789  0.0950 -0.0830  0.0400
    1Sil     Ob  820   3.109   3.422  10.915 -1.1085  0.4059  0.5454
    1Sil     Ob  821   3.405   3.430  10.510 -0.6624  1.0578  0.0072
    1Sil     Ob  822   3.112   3.605  11.100  0.0740  0.6631  0.2139
    1Sil     Ob  823   2.850   3.606  10.294 -0.0882 -0.1220 -0.6217
    1Sil     Ob  824   3.440   3.498  10.758 -0.0603 -0.5356 -0.1751
    1Sil     Ob  825   3.030   3.587  10.730 -0.3799  0.1306  0.7002
    1Sil     Ob  826   3.571   3.600  11.147  0.2756  0.2252  0.1557
    1Sil     Ob  827   3.248   3.500  10.319  0.6154 -0.2462  0.6909
    1Sil     Ob  828   3.492   3.435  10.260  0.5380 -0.8062  0.2182
    1Sil     Ob  829   2.911   3.426  11.062 -0.0068 -0.3158 -0.1931
    1Sil     Ob  830   3.204   3.402  10.674 -0.4718  0.2959  0.4109
    1Sil     Ob  831   2.878   3.660  10.546  0.2419  0.4675 -0.4574
    1Sil     Ob  832   3.412   3.672  10.941  0.4821  0.3589  0.3590
    1Sil     Ob  833   3.109   3.345  12.354  0.1965 -0.4577  0.4196
    1Sil     Ob  834   3.681   3.356  11.558  0.2371 -0.4749  0.2223
    1Sil     Ob  835   3.362   3.247  11.890  0.2908  0.2404  0.3537
    1Sil     Ob  836   2.907   3.845  11.907  0.7780  0.0896 -0.0974
    1Sil     Ob  837   3.454   3.838  12.277 -0.4285 -0.5294  0.1537
    1Sil     Ob  838   3.279   3.742  11.547  0.5375  0.2628  0.9899
    1Sil     Ob  839   3.289   3.670  12.375 -0.4550  0.6817  0.1725
    1Sil     Ob  840   3.027   3.671  11.583  0.3561 -0.3314  0.4946
    1Sil     Ob  841   3.553   3.685  11.979 -0.0525 -0.9281  0.6491
    1Sil     Ob  842   3.064   3.424  12.113  0.0494  0.3463  0.5380
    1Sil     Ob  843   3.641   3.406  11.313  0.0575  0.2028  0.4686
    1Sil     Ob  844   3.354   3.421  11.706 -0.1321  0.6347 -0.5668
    1Sil     Ob  845   3.054   3.594  12.300 -0.1618 -0.1876  0.2891
    1Sil     Ob  846   2.795   3.597  11.495 -0.3400 -0.0560  0.5562
    1Sil     Ob  847   3.383   3.490  11.949  0.1795  0.4482  0.1157
    1Sil     Ob  848   2.986   3.594  11.921 -0.7050  0.5043  0.1437
    1Sil     Ob  849   3.529   3.591  12.334  0.2976  0.0399 -0.3262
    1Sil     Ob  850   3.200   3.492  11.509  0.2980  0.0378 -0.1134
    1Sil     Ob  851   3.443   3.421  11.468 -0.4267  0.3673  0.8073
    1Sil     Ob  852   2.871   3.420  12.278 -0.2732  0.4764  0.1572
    1Sil     Ob  853   3.150   3.400  11.868 -0.6805  0.4797  0.2115
    1Sil     Ob  854   2.828   3.666  11.742  0.1818 -0.2588  0.1210
    1Sil     Ob  855   3.374   3.646  12.141 -0.2347 -0.2303 -0.0569
    1Sil     Ob  856   3.126   3.683  11.343 -0.1406  0.4966 -0.2225
    1Sil     Ob  857   3.139   3.850  11.167 -0.0692 -0.9704  0.5061
    1Sil     Ob  858   3.714   3.848  10.367  0.0524  0.0113 -0.3635
    1Sil     Ob  859   3.389   3.743  10.700  0.0188 -0.0912 -0.1505
    1Sil     Ob  860   2.957   4.343  10.724  0.0688  0.2873  0.6120
    1Sil     Ob  861   3.507   4.353  11.096  0.0478  0.1732  0.0475
    1Sil     Ob  862   3.325   4.243  10.345  0.1092 -0.3840 -0.6013
    1Sil     Ob  863   3.327   4.181  11.184 -0.1124 -0.3011  0.0891
    1Sil     Ob  864   3.084   4.184  10.387  0.5821  0.1729  0.2444
    1Sil     Ob  865   3.612   4.159  10.795 -0.1870  0.3639  0.0193
    1Sil     Ob  866   3.113   3.904  10.904  0.0556  0.3116  0.2224
    1Sil     Ob  867   3.407   3.914  10.506  0.3701 -0.6084 -0.0438
    1Sil     Ob  868   3.094   4.088  11.092  0.2712 -0.4704 -0.0162
    1Sil     Ob  869   2.856   4.109  10.306 -0.2154  0.0045  0.0652
    1Sil     Ob  870   3.429   3.984  10.751  0.2705 -0.3402 -0.2407
    1Sil     Ob  871   3.036   4.095  10.739  0.0957 -0.0025  0.4253
    1Sil     Ob  872   3.572   4.100  11.141 -0.4708 -0.2162  0.2725
    1Sil     Ob  873   3.256   3.994  10.320  0.7122 -0.4254  0.6244
    1Sil     Ob  874   3.495   3.932  10.262 -0.5382  0.0709 -0.1532
    1Sil     Ob  875   2.917   3.932  11.068 -0.2775 -0.1652  0.1056
    1Sil     Ob  876   3.204   3.922  10.659  0.3820  0.7038  0.4984
    1Sil     Ob  877   2.883   4.180  10.542  0.0287  0.1681 -0.3556
    1Sil     Ob  878   3.414   4.158  10.949  0.3634 -0.1468  0.5203
    1Sil     Ob  879   3.106   3.844  12.342 -0.2567 -0.0548 -0.8923
    1Sil     Ob  880   3.677   3.849  11.558  0.6284 -0.2828  0.2599
    1Sil     Ob  881   3.314   3.742  11.906  0.0299  0.5341  0.1462
    1Sil     Ob  882   2.905   4.336  11.918 -0.2385  0.3139  0.6477
    1Sil     Ob  883   3.446   4.339  12.323  0.2520  0.0236 -0.2105
    1Sil     Ob  884   3.277   4.236  11.516 -0.0789  0.4008 -0.9512
    1Sil     Ob  885   3.286   4.144  12.365  0.4371  0.3331 -0.0975
    1Sil     Ob  886   3.032   4.168  11.581 -0.4302  0.4426  0.2262
    1Sil     Ob  887   3.571   4.165  11.982 -0.6311 -0.1819 -0.5981
    1Sil     Ob  888   3.058   3.921  12.101  0.6787 -0.1466 -1.0383
    1Sil     Ob  889   3.639   3.916  11.312 -0.1010 -0.2692  0.0709
    1Sil     Ob  890   3.353   3.911  11.716 -0.3309 -0.2025 -0.2619
    1Sil     Ob  891   3.054   4.090  12.292 -0.3121 -0.1909 -0.2110
    1Sil     Ob  892   2.797   4.094  11.491 -0.5761  0.0509  0.3055
    1Sil     Ob  893   3.378   3.998  11.959  0.0670  1.1949 -0.3994
    1Sil     Ob  894   2.979   4.093  11.928 -0.1588  0.0406  0.6891
    1Sil     Ob  895   3.525   4.081  12.299 -0.7194  0.0953  0.0761
    1Sil     Ob  896   3.204   3.987  11.520  0.2071  0.2314 -0.2439
    1Sil     Ob  897   3.439   3.930  11.476  0.2870 -0.6535  0.1021
    1Sil     Ob  898   2.864   3.913  12.274 -0.3707 -0.5409  0.0986
    1Sil     Ob  899   3.149   3.927  11.863 -0.0639  0.3512 -0.2648
    1Sil     Ob  900   2.825   4.171  11.737  0.5325 -0.7712  0.8215
    1Sil     Ob  901   3.365   4.188  12.132  0.4710  0.4457  0.2558
    1Sil     Ob  902   3.119   4.158  11.339  0.5644  0.2654  0.0416
    1Sil     Ob  903   3.137   4.348  11.154 -0.4780 -0.0144  0.1064
    1Sil     Ob  904   3.729   4.339  10.360  0.1438  0.5700  0.4011
    1Sil     Ob  905   3.392   4.236  10.701 -0.2419 -0.1158 -0.3942
    1Sil     Ob  906   3.327   1.208  11.179  0.3507 -0.0895 -0.7782
    1Sil     Ob  907   3.089   1.231  10.392  0.2968  0.2944  0.5937
    1Sil     Ob  908   3.621   1.199  10.789 -0.5253  0.1457  0.3294
    1Sil     Ob  909   3.107   4.414  10.920  0.1303 -0.2422  0.4378
    1Sil     Ob  910   3.407   4.426  10.528 -0.5653 -0.2484 -0.1094
    1Sil     Ob  911   3.087   4.597  11.089 -0.8387  0.5765 -0.1182
    1Sil     Ob  912   2.847   4.607  10.294 -0.1285 -0.1485 -0.3143
    1Sil     Ob  913   3.431   4.484  10.777 -0.0763  0.1599  0.0239
    1Sil     Ob  914   3.021   1.145  10.746 -0.0025 -0.2602  0.4220
    1Sil     Ob  915   3.571   1.142  11.136  0.2173 -0.0016  0.4967
    1Sil     Ob  916   3.247   1.033  10.338 -0.4416 -0.8522  0.3259
    1Sil     Ob  917   3.487   4.428  10.284 -0.2716 -0.2177  0.3535
    1Sil     Ob  918   2.910   4.414  11.070  0.4863 -0.7215  0.4457
    1Sil     Ob  919   3.206   4.407  10.675  0.1602 -0.0711 -0.1587
    1Sil     Ob  920   2.875   1.225  10.546 -0.0902  0.1802 -0.0952
    1Sil     Ob  921   3.420   1.234  10.940  0.3683  0.2496 -0.2612
    1Sil     Ob  922   3.108   4.333  12.342  0.2696 -0.0963  0.7717
    1Sil     Ob  923   3.681   4.348  11.552 -0.7762 -0.2128  0.3489
    1Sil     Ob  924   3.338   4.240  11.879  0.1880  0.2605 -0.0892
    1Sil     Ob  925   3.283   1.199  12.372  0.2488  0.6191 -0.0984
    1Sil     Ob  926   3.024   1.203  11.596  0.1239  0.0221 -0.3607
    1Sil     Ob  927   3.565   1.193  11.987 -0.3721 -0.2026 -0.3188
    1Sil     Ob  928   3.069   4.411  12.094 -0.0438 -0.0028 -0.1409
    1Sil     Ob  929   3.658   4.423  11.301  0.1918  0.0473 -0.5685
    1Sil     Ob  930   3.357   4.403  11.699  0.5020  0.0110  0.3874
    1Sil     Ob  931   3.054   4.584  12.284  0.2351 -0.8781 -0.5640
    1Sil     Ob  932   2.792   4.577  11.485  0.6357 -0.3669 -0.1326
    1Sil     Ob  933   3.375   4.483  11.953 -0.2222 -0.4722  0.4470
    1Sil     Ob  934   2.985   1.139  11.918  0.2591  0.0425  0.0429
    1Sil     Ob  935   3.530   1.136  12.312  0.5028 -0.6624 -0.5769
    1Sil     Ob  936   3.204   1.031  11.510 -0.0696 -0.4498 -0.0759
    1Sil     Ob  937   3.444   4.423  11.456 -0.3619  0.6363  0.4968
    1Sil     Ob  938   2.873   4.399  12.265 -0.3223 -0.1537 -0.1191
    1Sil     Ob  939   3.142   4.401  11.848  0.0834 -0.0925 -0.0413
    1Sil     Ob  940   2.820   1.209  11.739  0.6534  0.1046  0.5867
    1Sil     Ob  941   3.355   1.210  12.135 -0.3064  0.3062  0.7384
    1Sil     Ob  942   3.123   1.212  11.346 -0.2704 -0.1283  0.0649
    1Sil     Ob  943   3.979   1.392  11.153  0.2907 -0.1661 -0.1419
    1Sil     Ob  944   3.794   1.882  10.727  0.6425 -0.0407  1.2297
    1Sil     Ob  945   4.322   1.874  11.085 -0.6032 -0.2930 -0.3058
    1Sil     Ob  946   4.155   1.768  10.328  0.1274 -0.3282 -0.4439
    1Sil     Ob  947   4.155   1.708  11.183 -0.1969  0.8493  0.1906
    1Sil     Ob  948   3.917   1.685  10.379 -0.3161 -0.2875 -0.1352
    1Sil     Ob  949   1.133   1.697  10.779 -0.1182  0.0782  0.1554
    1Sil     Ob  950   3.954   1.474  10.909 -0.2701 -0.0570  0.0815
    1Sil     Ob  951   0.923   1.434  10.499 -0.0585 -0.3476 -0.7060
    1Sil     Ob  952   3.915   1.646  11.114 -0.2029  0.6376  0.0253
    1Sil     Ob  953   3.670   1.636  10.320  0.0099 -0.3374 -0.4895
    1Sil     Ob  954   0.951   1.522  10.748  0.1607  0.0010  0.0130
    1Sil     Ob  955   3.869   1.638  10.739  0.4937  0.4653  0.1703
    1Sil     Ob  956   4.407   1.631  11.136  0.3183 -0.5822 -0.3160
    1Sil     Ob  957   4.098   1.523  10.287  0.0793 -0.7782  0.0544
    1Sil     Ob  958   1.020   1.439  10.256 -0.0087 -0.1302 -0.6105
    1Sil     Ob  959   3.753   1.461  11.076 -0.6722  0.7178  0.0128
    1Sil     Ob  960   0.711   1.442  10.658  0.7365  0.1388  0.4410
    1Sil     Ob  961   3.722   1.709  10.543 -0.2726 -0.1103  0.1726
    1Sil     Ob  962   4.245   1.683  10.939  0.1328 -0.0424  0.2354
    1Sil     Ob  963   3.912   1.382  12.335  0.2486 -0.1424 -0.4617
    1Sil     Ob  964   3.738   1.883  11.902  0.0613 -0.0942 -0.1685
    1Sil     Ob  965   4.275   1.867  12.311  0.0147 -0.4558 -0.0337
    1Sil     Ob  966   4.093   1.771  11.556  0.5071  0.3131 -0.2557
    1Sil     Ob  967   4.103   1.690  12.364  0.1963  0.8374 -0.4057
    1Sil     Ob  968   3.853   1.686  11.585  0.2128 -0.1991 -0.0575
    1Sil     Ob  969   1.090   1.698  11.984 -0.4294  0.0446 -0.0943
    1Sil     Ob  970   3.889   1.453  12.096 -0.0495  0.3443  0.1338
    1Sil     Ob  971   1.165   1.443  11.309  0.1475 -0.3148  0.1407
    1Sil     Ob  972   0.867   1.462  11.707 -0.2824  0.1203  0.6410
    1Sil     Ob  973   3.870   1.631  12.274  0.8142  0.1330 -0.0807
    1Sil     Ob  974   3.625   1.619  11.501 -0.3393 -0.0313 -0.5380
    1Sil     Ob  975   0.892   1.538  11.953 -0.1420  0.3705 -0.1262
    1Sil     Ob  976   3.807   1.633  11.937 -0.3211  0.0200  0.1112
    1Sil     Ob  977   4.344   1.630  12.316  0.2838  0.5738 -0.0850
    1Sil     Ob  978   4.040   1.517  11.496 -0.0367 -0.3198  0.0623
    1Sil     Ob  979   0.964   1.453  11.468  0.0751  0.4195  0.5802
    1Sil     Ob  980   3.678   1.459  12.250  0.2217 -0.3397 -0.1090
    1Sil     Ob  981   0.661   1.455  11.856  0.0506  0.2471 -0.7646
    1Sil     Ob  982   3.652   1.711  11.746 -0.2542  0.0225 -0.5785
    1Sil     Ob  983   4.188   1.717  12.118 -0.2502  0.5484  0.3060
    1Sil     Ob  984   3.949   1.709  11.349  0.0901 -0.3133  0.1029
    1Sil     Ob  985   3.970   1.893  11.155 -0.3749 -0.0751 -0.3572
    1Sil     Ob  986   0.888   1.765  10.693 -0.3577 -0.0480  0.1725
    1Sil     Ob  987   3.810   2.377  10.707 -0.9085 -0.5689  0.2022
    1Sil     Ob  988   4.331   2.366  11.120  0.3608  0.0344  0.1027
    1Sil     Ob  989   4.148   2.264  10.333  0.4762  0.0189 -1.1182
    1Sil     Ob  990   4.167   2.192  11.184  0.6970 -0.5855  0.0679
    1Sil     Ob  991   3.915   2.178  10.383  0.2770 -0.0294 -0.0484
    1Sil     Ob  992   1.130   2.192  10.784 -0.6411 -0.1426  0.3053
    1Sil     Ob  993   3.940   1.966  10.905 -0.3340  0.8308  0.1731
    1Sil     Ob  994   0.921   1.937  10.500 -0.1082 -0.0444 -0.6397
    1Sil     Ob  995   3.927   2.132  11.094  0.5723  0.0990  0.8893
    1Sil     Ob  996   3.666   2.119  10.305 -0.0182  0.3110  0.7187
    1Sil     Ob  997   0.934   2.018  10.749  0.3933  0.3468 -0.3358
    1Sil     Ob  998   3.862   2.135  10.731 -0.0196 -0.3024  0.5748
    1Sil     Ob  999   4.403   2.119  11.116  0.6732  0.0941 -0.0715
    1Sil     Ob 1000   4.082   2.011  10.310  0.2144 -0.7444  0.0863
    1Sil     Ob 1001   1.012   1.936  10.259  0.8516  0.1013 -0.1533
    1Sil     Ob 1002   3.742   1.953  11.065 -0.5173 -0.0153  0.2282
    1Sil     Ob 1003   0.707   1.940  10.665  0.5498  0.2844  0.2126
    1Sil     Ob 1004   3.706   2.216  10.547 -0.4290  0.1273 -0.4216
    1Sil     Ob 1005   4.243   2.195  10.931  0.1773  0.1022 -0.2290
    1Sil     Ob 1006   3.927   1.876  12.346  0.9362  0.0381 -0.7720
    1Sil     Ob 1007   0.872   1.776  11.867  0.0185 -0.2169  0.1713
    1Sil     Ob 1008   3.741   2.370  11.902 -0.3593  0.7030 -0.5236
    1Sil     Ob 1009   4.277   2.372  12.315  0.1858  0.5779  0.4275
    1Sil     Ob 1010   4.111   2.251  11.545 -0.4363  0.0449 -0.7292
    1Sil     Ob 1011   4.103   2.195  12.389  0.5225 -0.0864  0.0591
    1Sil     Ob 1012   3.872   2.163  11.585  0.3701  0.2311  0.3896
    1Sil     Ob 1013   1.078   2.180  11.986  0.0147 -0.3639 -0.5350
    1Sil     Ob 1014   3.902   1.940  12.098  0.0747 -0.3934 -0.0959
    1Sil     Ob 1015   1.160   1.941  11.298  0.7858 -0.0267  0.6243
    1Sil     Ob 1016   0.869   1.964  11.698  0.0297 -0.0025  1.2810
    1Sil     Ob 1017   3.867   2.124  12.287 -0.2400  0.7718 -0.4981
    1Sil     Ob 1018   3.631   2.109  11.494 -0.2271  0.3290  0.0480
    1Sil     Ob 1019   0.886   2.018  11.954 -0.2726 -0.2884 -0.0206
    1Sil     Ob 1020   3.819   2.116  11.922 -0.4590  0.5236  0.6998
    1Sil     Ob 1021   4.343   2.111  12.351 -0.5449 -0.9867  0.2712
    1Sil     Ob 1022   4.045   2.014  11.492  0.3292 -0.6938  0.0759
    1Sil     Ob 1023   0.961   1.920  11.460  0.0530  0.6113 -0.0170
    1Sil     Ob 1024   3.689   1.931  12.259 -0.7494 -0.2559  0.6011
    1Sil     Ob 1025   0.664   1.933  11.853  0.3288  0.1360  0.0328
    1Sil     Ob 1026   3.658   2.194  11.738 -0.1608  0.2004  0.0891
    1Sil     Ob 1027   4.192   2.185  12.149 -0.0212  0.2618 -0.1619
    1Sil     Ob 1028   3.958   2.196  11.346  0.1641  0.2386 -0.4398
    1Sil     Ob 1029   3.987   2.372  11.165  0.1330  0.0507  0.0026
    1Sil     Ob 1030   0.896   2.268  10.687  0.5684 -0.1366 -0.4861
    1Sil     Ob 1031   3.811   2.865  10.709 -0.5359 -0.1714 -0.0881
    1Sil     Ob 1032   4.329   2.869  11.119 -0.9794  0.0304  0.2397
    1Sil     Ob 1033   4.163   2.768  10.323  0.1057 -0.4483 -0.3357
    1Sil     Ob 1034   4.153   2.687  11.176  0.6352  0.4531 -0.1284
    1Sil     Ob 1035   3.927   2.669  10.379 -0.3129  0.2160 -0.2856
    1Sil     Ob 1036   1.135   2.701  10.786 -0.4369  0.8716  0.4793
    1Sil     Ob 1037   3.955   2.446  10.914  0.5329 -0.6965 -0.3549
    1Sil     Ob 1038   0.920   2.453  10.506 -0.0300  0.0430  0.1025
    1Sil     Ob 1039   3.929   2.620  11.091  0.2304  0.0536 -0.1439
    1Sil     Ob 1040   3.684   2.606  10.298  0.0360 -0.1579 -0.2171
    1Sil     Ob 1041   0.965   2.507  10.760  0.2978 -0.0564  0.2506
    1Sil     Ob 1042   3.866   2.620  10.758 -0.3160 -0.2227 -0.7621
    1Sil     Ob 1043   4.398   2.619  11.152  0.1896 -0.5854  0.1181
    1Sil     Ob 1044   4.100   2.518  10.284 -0.8644 -0.3277 -0.0294
    1Sil     Ob 1045   1.013   2.427  10.267  0.2564 -0.1126 -0.1100
    1Sil     Ob 1046   3.744   2.449  11.065  0.3816 -0.3891  0.1178
    1Sil     Ob 1047   0.734   2.458  10.675  0.6833 -0.0637  0.3617
    1Sil     Ob 1048   3.723   2.681  10.547 -0.2488 -0.0164  0.3526
    1Sil     Ob 1049   4.252   2.689  10.943 -0.1359  0.4023  0.2972
    1Sil     Ob 1050   3.919   2.371  12.349  0.0575  0.2307 -0.1566
    1Sil     Ob 1051   0.851   2.268  11.896  0.7150  0.7260  1.0249
    1Sil     Ob 1052   3.744   2.868  11.919 -0.2035 -0.3015 -0.1372
    1Sil     Ob 1053   4.276   2.868  12.309 -0.3298  0.1770 -0.6755
    1Sil     Ob 1054   4.095   2.757  11.538 -0.0070 -0.3107  0.3481
    1Sil     Ob 1055   4.104   2.687  12.359 -0.8669 -0.0747 -0.2429
    1Sil     Ob 1056   3.859   2.658  11.583  0.7045  0.3519  0.1625
    1Sil     Ob 1057   1.074   2.683  11.992  0.0637 -0.6645  0.0475
    1Sil     Ob 1058   3.893   2.436  12.100  0.3181  0.4730  0.1809
    1Sil     Ob 1059   1.165   2.441  11.312  0.7644 -0.1143 -0.1116
    1Sil     Ob 1060   0.880   2.435  11.706 -0.0360 -0.0398 -0.3919
    1Sil     Ob 1061   3.869   2.617  12.284 -0.2831 -0.2353  0.0353
    1Sil     Ob 1062   3.617   2.612  11.506  0.2082  0.1958  0.3199
    1Sil     Ob 1063   0.890   2.520  11.950  0.6323  0.0513  0.4246
    1Sil     Ob 1064   3.809   2.621  11.933 -0.6482 -0.4158 -0.0598
    1Sil     Ob 1065   4.349   2.627  12.308 -0.1378 -0.0556  0.1982
    1Sil     Ob 1066   4.042   2.509  11.503  0.1159  0.1267 -0.1308
    1Sil     Ob 1067   0.954   2.421  11.457 -0.5920  0.5493  0.2355
    1Sil     Ob 1068   3.687   2.434  12.260 -0.0184 -0.1045 -0.0840
    1Sil     Ob 1069   0.665   2.451  11.854  0.3217 -1.1488  0.1697
    1Sil     Ob 1070   3.655   2.704  11.738 -0.1254 -0.3151 -0.1132
    1Sil     Ob 1071   4.190   2.707  12.125  0.3452 -0.1126 -0.6051
    1Sil     Ob 1072   3.953   2.686  11.332 -0.3956 -0.5334 -0.5374
    1Sil     Ob 1073   3.971   2.865  11.153 -0.0009  0.6037  0.0685
    1Sil     Ob 1074   0.901   2.762  10.708 -0.0899  0.2776 -0.1478
    1Sil     Ob 1075   3.790   3.352  10.727  0.5937 -0.3977 -0.0750
    1Sil     Ob 1076   4.339   3.359  11.109  0.0075  0.2181 -0.4519
    1Sil     Ob 1077   4.157   3.257  10.336  0.1667  0.0822  0.1898
    1Sil     Ob 1078   4.163   3.200  11.195 -0.2894  0.2818 -0.2280
    1Sil     Ob 1079   3.908   3.174  10.391 -0.0383 -0.1525 -0.3764
    1Sil     Ob 1080   1.132   3.195  10.788 -0.0012 -0.2483  0.1288
    1Sil     Ob 1081   3.954   2.936  10.905 -0.2894  0.0007  0.3552
    1Sil     Ob 1082   0.928   2.926  10.507 -0.3883  0.3957  0.3640
    1Sil     Ob 1083   3.933   3.120  11.096 -0.1295 -0.0664 -0.2677
    1Sil     Ob 1084   3.681   3.109  10.312 -0.6651 -0.7919  0.4960
    1Sil     Ob 1085   0.959   3.006  10.757 -0.2386 -0.0591 -0.0587
    1Sil     Ob 1086   3.862   3.107  10.727 -0.2649  0.8992  0.2785
    1Sil     Ob 1087   4.404   3.118  11.150 -0.9022  0.3652  0.1012
    1Sil     Ob 1088   4.077   3.012  10.308 -0.2995 -0.1708  0.0620
    1Sil     Ob 1089   1.007   2.959  10.268 -0.1258  0.1828 -0.2053
    1Sil     Ob 1090   3.744   2.946  11.062 -0.0243  0.5050 -0.1835
    1Sil     Ob 1091   0.730   2.944  10.658  0.1229  0.1107 -0.0576
    1Sil     Ob 1092   3.702   3.199  10.551 -0.2054  0.0779  0.2672
    1Sil     Ob 1093   4.248   3.180  10.947  0.3800 -0.2034 -0.1923
    1Sil     Ob 1094   3.915   2.865  12.348  0.3429  0.2659 -0.6657
    1Sil     Ob 1095   0.853   2.760  11.880 -0.3844 -0.0380  0.3221
    1Sil     Ob 1096   3.740   3.355  11.919  0.3874 -0.2525 -0.7198
    1Sil     Ob 1097   4.282   3.346  12.291 -0.4564  0.8171 -0.1935
    1Sil     Ob 1098   4.103   3.242  11.546  0.0235  0.0281 -0.6176
    1Sil     Ob 1099   4.100   3.169  12.359 -0.4082  0.2789  0.5293
    1Sil     Ob 1100   3.860   3.165  11.588  0.1798  0.8677 -0.0160
    1Sil     Ob 1101   1.074   3.185  11.992 -0.0904 -0.0755  0.0891
    1Sil     Ob 1102   3.898   2.939  12.101 -0.0777 -0.0827 -0.0724
    1Sil     Ob 1103   1.171   2.944  11.309  0.0695 -0.8260  0.7178
    1Sil     Ob 1104   0.862   2.932  11.699  0.4879 -0.1847 -0.0840
    1Sil     Ob 1105   3.862   3.112  12.284  0.3630 -0.4878 -0.1656
    1Sil     Ob 1106   3.621   3.104  11.506  0.1978 -0.3409 -0.4191
    1Sil     Ob 1107   0.895   2.997  11.941 -0.2856 -0.5372 -0.7774
    1Sil     Ob 1108   3.820   3.106  11.928 -0.0455  0.4074 -0.0462
    1Sil     Ob 1109   4.351   3.103  12.322  0.0337 -0.0055 -0.3969
    1Sil     Ob 1110   4.027   2.997  11.498 -0.0961 -0.5614 -0.0006
    1Sil     Ob 1111   0.954   2.912  11.456  0.1673 -0.4062 -0.1116
    1Sil     Ob 1112   3.688   2.939  12.247 -0.0806  0.2432 -0.7483
    1Sil     Ob 1113   0.666   2.931  11.854 -0.0602  0.9196 -0.4290
    1Sil     Ob 1114   3.658   3.173  11.745  0.1556 -0.4086  0.4828
    1Sil     Ob 1115   4.180   3.172  12.132 -0.6013  0.5135  0.5677
    1Sil     Ob 1116   3.939   3.187  11.342  0.0665 -0.1160 -0.2409
    1Sil     Ob 1117   3.963   3.367  11.168 -0.4189  0.1192  0.5411
    1Sil     Ob 1118   0.890   3.254  10.702 -0.3793  0.0275 -0.4054
    1Sil     Ob 1119   3.796   3.839  10.714  0.1247  0.3928  0.3309
    1Sil     Ob 1120   4.329   3.854  11.117  0.3388  0.0881  0.4985
    1Sil     Ob 1121   4.158   3.743  10.326 -0.0349  0.5088  0.0465
    1Sil     Ob 1122   4.164   3.668  11.169 -0.3911  0.1394 -0.1392
    1Sil     Ob 1123   3.910   3.685  10.386  0.0924  0.4287  0.0840
    1Sil     Ob 1124   1.142   3.669  10.788 -0.4416 -0.1510 -0.3555
    1Sil     Ob 1125   3.954   3.426  10.911  0.4210  0.5760  0.2600
    1Sil     Ob 1126   0.923   3.418  10.505 -0.7344  0.4278  0.1740
    1Sil     Ob 1127   3.925   3.612  11.090 -0.0597 -0.5469 -0.3907
    1Sil     Ob 1128   3.684   3.604  10.293 -0.2257  0.0416 -0.1955
    1Sil     Ob 1129   0.945   3.496  10.754  0.0999 -0.0301 -0.2326
    1Sil     Ob 1130   3.863   3.598  10.747  0.2400 -0.2388 -0.8477
    1Sil     Ob 1131   4.405   3.605  11.141  0.5737 -0.3445  0.1708
    1Sil     Ob 1132   4.077   3.506  10.326 -0.3577 -0.5881 -0.6537
    1Sil     Ob 1133   0.998   3.434  10.255  0.3566 -0.2809 -0.2290
    1Sil     Ob 1134   3.743   3.425  11.063  0.6878  0.3465  0.2817
    1Sil     Ob 1135   0.711   3.423  10.667 -0.0750  0.2765 -0.3621
    1Sil     Ob 1136   3.705   3.666  10.553 -0.6565  0.6229 -0.3478
    1Sil     Ob 1137   4.256   3.686  10.937  0.5129  0.4962 -0.2269
    1Sil     Ob 1138   3.925   3.356  12.343  0.1307 -0.3085 -0.5157
    1Sil     Ob 1139   0.840   3.249  11.894  1.0064  0.2731 -0.1784
    1Sil     Ob 1140   3.733   3.846  11.892  0.0230 -0.2424  0.6781
    1Sil     Ob 1141   4.278   3.838  12.290  0.7141  0.1135  0.1048
    1Sil     Ob 1142   4.117   3.740  11.519 -0.2266 -0.4038 -0.1469
    1Sil     Ob 1143   4.101   3.667  12.385 -0.1981  0.5773 -0.6607
    1Sil     Ob 1144   3.865   3.674  11.574 -0.4717 -0.6754 -0.3282
    1Sil     Ob 1145   1.085   3.661  11.982  0.1156  0.0392 -0.4907
    1Sil     Ob 1146   3.902   3.463  12.094 -0.4007  0.2017 -0.0935
    1Sil     Ob 1147   1.174   3.422  11.304 -0.0279 -0.1446 -0.3945
    1Sil     Ob 1148   0.868   3.421  11.696  0.6759 -0.3658  0.1207
    1Sil     Ob 1149   3.860   3.594  12.303  0.2564 -0.5812 -0.1336
    1Sil     Ob 1150   3.632   3.601  11.482 -0.0188 -0.3148  0.4394
    1Sil     Ob 1151   0.907   3.495  11.935  0.1197  0.3094 -0.8178
    1Sil     Ob 1152   3.797   3.608  11.934 -0.3311 -0.2854  0.2081
    1Sil     Ob 1153   4.343   3.599  12.335  0.0987 -0.5150 -0.5618
    1Sil     Ob 1154   4.041   3.488  11.504  0.0404  0.2562  0.9702
    1Sil     Ob 1155   0.961   3.403  11.458 -0.1383 -0.3140 -0.4181
    1Sil     Ob 1156   3.698   3.419  12.249  0.3402 -0.1420 -0.0484
    1Sil     Ob 1157   0.660   3.438  11.851  0.4474  0.0585 -0.3971
    1Sil     Ob 1158   3.658   3.656  11.731  0.6715  0.1927 -0.4421
    1Sil     Ob 1159   4.196   3.645  12.140 -0.2921  0.7723 -0.2725
    1Sil     Ob 1160   3.956   3.660  11.338  0.0990 -0.5078  0.2472
    1Sil     Ob 1161   3.983   3.856  11.161  0.3539  0.1570 -0.0614
    1Sil     Ob 1162   0.911   3.738  10.693  0.0005 -0.0603  0.4038
    1Sil     Ob 1163   3.788   4.336  10.732  0.3290 -0.1820 -0.5961
    1Sil     Ob 1164   4.333   4.350  11.108 -0.1056 -0.1578 -0.0534
    1Sil     Ob 1165   4.151   4.240  10.360  0.0375  0.1462  0.1691
    1Sil     Ob 1166   4.160   4.180  11.184  0.2060 -0.0760  0.2532
    1Sil     Ob 1167   3.909   4.149  10.402 -0.0546 -0.3509 -0.1459
    1Sil     Ob 1168   1.139   4.171  10.794 -0.3487  0.5621 -0.4772
    1Sil     Ob 1169   3.950   3.918  10.907 -0.2692 -0.2635 -0.0859
    1Sil     Ob 1170   0.916   3.914  10.508 -0.1850  0.3338 -0.2827
    1Sil     Ob 1171   3.935   4.098  11.091  0.2980  0.5042  0.3054
    1Sil     Ob 1172   3.694   4.098  10.297 -0.0222  0.5352  0.2049
    1Sil     Ob 1173   0.960   3.987  10.753  0.0361  0.0800 -0.4020
    1Sil     Ob 1174   3.857   4.085  10.752  0.6233  0.0503  0.3847
    1Sil     Ob 1175   4.401   4.103  11.137  0.5180  0.3923  0.5584
    1Sil     Ob 1176   4.099   3.984  10.303 -0.3594  0.2659  0.0117
    1Sil     Ob 1177   1.021   3.908  10.267  0.2730 -0.8105  0.4632
    1Sil     Ob 1178   3.754   3.918  11.073 -0.2881  0.3140 -0.1388
    1Sil     Ob 1179   0.726   3.920  10.673  0.5025  0.2821  0.5186
    1Sil     Ob 1180   3.707   4.170  10.561  0.1174  0.3211 -0.1911
    1Sil     Ob 1181   4.247   4.175  10.937  0.7583  0.1563  0.0807
    1Sil     Ob 1182   3.920   3.837  12.347 -0.2957  0.5778 -0.6023
    1Sil     Ob 1183   0.852   3.738  11.893 -0.0852  0.0171  0.5494
    1Sil     Ob 1184   3.732   4.338  11.905 -0.5296  0.3500 -0.1050
    1Sil     Ob 1185   4.266   4.337  12.301  0.4537 -0.1850  0.1256
    1Sil     Ob 1186   4.105   4.233  11.523 -0.7832 -0.1976 -0.8857
    1Sil     Ob 1187   4.105   4.156  12.379 -0.6563  0.4371  0.3157
    1Sil     Ob 1188   3.871   4.170  11.578 -0.1498 -0.5470  0.2245
    1Sil     Ob 1189   1.073   4.157  11.984 -0.6234 -0.2604 -0.3516
    1Sil     Ob 1190   3.891   3.907  12.098 -0.3509 -0.2218 -0.4822
    1Sil     Ob 1191   1.168   3.923  11.300 -0.1977 -0.1824 -0.2851
    1Sil     Ob 1192   0.873   3.900  11.706  0.2835 -0.0630  0.5568
    1Sil     Ob 1193   3.879   4.079  12.285 -0.5110  0.2827 -0.0645
    1Sil     Ob 1194   3.638   4.100  11.481  0.4093 -0.5522 -0.0576
    1Sil     Ob 1195   0.888   3.979  11.951 -0.1725  0.5001  0.0362
    1Sil     Ob 1196   3.807   4.097  11.931  0.1321  0.4380  0.1447
    1Sil     Ob 1197   4.341   4.085  12.322 -0.4106 -0.5175 -0.3773
    1Sil     Ob 1198   4.032   3.982  11.514 -0.7296  0.5166  0.0895
    1Sil     Ob 1199   0.966   3.911  11.455  0.2656 -0.3623  0.2798
    1Sil     Ob 1200   3.687   3.903  12.258 -0.7916  0.3726 -0.0945
    1Sil     Ob 1201   0.667   3.915  11.853  0.1988 -0.6754  0.1780
    1Sil     Ob 1202   3.665   4.157  11.734  0.4606  0.6461  0.6183
    1Sil     Ob 1203   4.184   4.159  12.139 -0.6481  0.1799  0.4831
    1Sil     Ob 1204   3.952   4.138  11.333  0.2576 -0.1489 -0.0964
    1Sil     Ob 1205   3.961   4.347  11.169 -0.1336  0.6177  0.3186
    1Sil     Ob 1206   0.908   4.246  10.693  0.7109  0.5505  0.1156
    1Sil     Ob 1207   0.841   1.214  11.190  0.6082 -0.6994 -0.0080
    1Sil     Ob 1208   0.602   1.210  10.394 -0.2736 -0.2459  0.7711
    1Sil     Ob 1209   1.128   1.194  10.780  0.3728 -0.1182  0.2431
    1Sil     Ob 1210   3.951   4.410  10.915 -0.6604 -0.4623  0.0081
    1Sil     Ob 1211   0.911   4.429  10.504  0.3393 -0.0897  0.7036
    1Sil     Ob 1212   3.928   4.593  11.091  0.0203 -0.3335  0.8494
    1Sil     Ob 1213   3.671   4.587  10.308 -0.3026 -0.0030 -0.1635
    1Sil     Ob 1214   0.942   4.483  10.755  0.1841 -0.1055  0.4063
    1Sil     Ob 1215   3.869   1.147  10.743  0.3551 -0.3139  0.3397
    1Sil     Ob 1216   1.085   1.143  11.137  0.7205  0.0081 -0.3263
    1Sil     Ob 1217   0.759   1.034  10.299 -0.3383  0.1720  0.2121
    1Sil     Ob 1218   1.006   4.393  10.259 -0.4938  0.2142 -0.3485
    1Sil     Ob 1219   3.742   4.426  11.056 -0.6790 -0.4205  0.2349
    1Sil     Ob 1220   0.716   4.409  10.673  0.3596 -0.0434 -0.3979
    1Sil     Ob 1221   3.714   1.209  10.550 -0.6737  0.5820  0.1430
    1Sil     Ob 1222   0.928   1.208  10.942  0.8844 -0.1429  0.6249
    1Sil     Ob 1223   3.912   4.325  12.349 -0.4639 -0.2924  0.0543
    1Sil     Ob 1224   0.842   4.227  11.889  0.1793 -0.0728 -0.2437
    1Sil     Ob 1225   0.782   1.213  12.367  0.0960 -0.0551 -0.4157
    1Sil     Ob 1226   0.547   1.218  11.590  0.0447  0.2445  0.1686
    1Sil     Ob 1227   1.073   1.215  11.980 -0.2029  0.1273 -0.1065
    1Sil     Ob 1228   3.880   4.394  12.097  0.3202  0.1941 -0.5597
    1Sil     Ob 1229   1.158   4.413  11.303  0.0623 -0.2838  0.3553
    1Sil     Ob 1230   0.862   4.400  11.700 -0.5177  0.0577  0.3241
    1Sil     Ob 1231   3.870   4.579  12.282 -0.0267  0.1056  0.2209
    1Sil     Ob 1232   3.631   4.593  11.492  0.0461  0.2140 -0.0108
    1Sil     Ob 1233   0.894   4.478  11.943  0.2859 -0.2447 -0.7736
    1Sil     Ob 1234   3.807   1.132  11.941  0.4099 -0.1583 -0.3802
    1Sil     Ob 1235   1.026   1.131  12.314  0.0536  0.0015  0.1452
    1Sil     Ob 1236   0.719   1.041  11.511  0.0058 -0.7522  0.5919
    1Sil     Ob 1237   0.952   4.406  11.455 -1.3118 -0.5191  0.5118
    1Sil     Ob 1238   3.695   4.383  12.274  0.0248  0.6263 -0.6505
    1Sil     Ob 1239   0.661   4.402  11.850  0.3996  0.0573 -0.1661
    1Sil     Ob 1240   3.660   1.204  11.739  0.3340 -0.0118  0.4355
    1Sil     Ob 1241   0.863   1.204  12.125 -0.0835  0.8580 -0.1817
    1Sil     Ob 1242   3.951   1.216  11.348 -0.2546 -0.6798 -0.1042
    1Sil     Ob 1243   1.250   1.386  10.354 -0.5833 -0.3791  0.0188
    1Sil     Ob 1244   1.190   1.378  11.561 -0.0515 -0.0428 -0.1299
    1Sil     Ob 1245   1.237   1.872  10.355  0.0414  0.0813 -0.0180
    1Sil     Ob 1246   1.198   1.873  11.544  0.6864 -0.0360  0.0977
    1Sil     Ob 1247   1.259   2.370  10.341  0.3504  0.1430 -0.2681
    1Sil     Ob 1248   1.189   2.362  11.557 -0.2010  0.4589  0.3511
    1Sil     Ob 1249   1.238   2.864  10.350  0.0184 -0.4932  0.2507
    1Sil     Ob 1250   1.192   2.844  11.544  0.1424  0.0392 -0.2861
    1Sil     Ob 1251   1.233   3.360  10.359  0.0293 -0.3851 -0.0771
    1Sil     Ob 1252   1.197   3.342  11.548  0.1219 -0.0343 -0.0802
    1Sil     Ob 1253   1.245   3.847  10.363 -0.6213  0.0308 -0.2693
    1Sil     Ob 1254   1.194   3.843  11.542  0.4328 -0.1655  0.0363
    1Sil     Ob 1255   1.255   4.339  10.346  0.6742  0.4654  0.0152
    1Sil     Ob 1256   1.184   4.338  11.549 -0.2593  0.2474 -0.1057
    1Sil     Ob 1257   1.731   1.278  10.690 -0.1407 -0.7145  0.1562
    1Sil     Ob 1258   1.672   1.280  11.881  0.7059 -0.4807 -0.3640
    1Sil     Ob 1259   2.538   1.286  10.705 -0.1137  0.0307 -0.0114
    1Sil     Ob 1260   2.505   1.283  11.880 -0.2352 -0.1260  0.1544
    1Sil     Ob 1261   3.384   1.280  10.706 -0.7747 -0.2317  0.4460
    1Sil     Ob 1262   3.341   1.289  11.896 -0.2125 -0.4717  0.1046
    1Sil     Ob 1263   0.900   1.274  10.697  0.4917 -0.0057  0.1533
    1Sil     Ob 1264   0.849   1.288  11.891 -0.4470  0.1387 -0.4554
    1Sil     Ob 1265   1.292   1.388  10.720  0.5051  0.5767  0.2832
    1Sil     Ob 1266   1.824   1.389  11.103  0.4856  0.0877 -0.3383
    1Sil     Ob 1267   1.671   1.281  10.341 -0.0046 -0.0731  0.5423
    1Sil     Ob 1268   1.245   1.385  11.903 -0.6382 -0.5693 -0.3028
    1Sil     Ob 1269   1.774   1.391  12.283  0.7538 -0.2780 -0.1534
    1Sil     Ob 1270   1.617   1.269  11.515 -0.3878 -0.1979 -0.2337
    1Sil     Ob 1271   2.129   1.384  10.692  0.1461  0.3555 -0.3519
    1Sil     Ob 1272   2.670   1.388  11.111  0.6499  0.1901  0.5046
    1Sil     Ob 1273   2.494   1.268  10.351  0.1748 -0.5386 -0.0603
    1Sil     Ob 1274   2.073   1.380  11.904  0.1755 -0.0843 -0.0405
    1Sil     Ob 1275   2.614   1.384  12.287 -0.2758 -0.3836 -0.4440
    1Sil     Ob 1276   2.448   1.285  11.525  0.0926  0.1197 -0.0708
    1Sil     Ob 1277   2.959   1.393  10.727  0.2744 -0.3963 -0.1266
    1Sil     Ob 1278   3.508   1.393  11.116 -0.1625  0.0672 -0.0485
    1Sil     Ob 1279   3.337   1.273  10.331  0.3869 -0.0342  0.4716
    1Sil     Ob 1280   2.906   1.382  11.915  0.7126 -0.2076  0.4662
    1Sil     Ob 1281   3.443   1.386  12.296 -0.5406 -0.3209  0.4834
    1Sil     Ob 1282   3.277   1.273  11.546  0.0604  0.3400 -0.2234
    1Sil     Ob 1283   3.786   1.388  10.735  0.1626 -0.4746 -0.5042
    1Sil     Ob 1284   1.012   1.380  11.120 -0.2275 -0.4612  0.4395
    1Sil     Ob 1285   0.835   1.281  10.312  0.2965 -0.0512 -0.1401
    1Sil     Ob 1286   3.730   1.387  11.906  0.0583 -0.7005  0.5010
    1Sil     Ob 1287   0.957   1.378  12.282  0.5474 -0.4944  0.2837
    1Sil     Ob 1288   0.791   1.278  11.541  0.5243  0.2857  0.0990
    1Sil     Oy 1289   2.036   1.456  10.103 -0.8341  0.0552 -0.8402
    1Sil     Oy 1290   1.517   1.691  10.134  0.0526 -0.2952  0.2429
    1Sil     Oy 1291   1.419   1.695  12.545  0.2089  0.1530 -0.2147
    1Sil     Oy 1292   1.907   1.458  12.495  0.3196 -0.0176 -0.3792
    1Sil     Oy 1293   2.047   1.947  10.109  0.0007  0.3661 -0.2051
    1Sil     Oy 1294   1.500   2.205  10.139 -0.0238 -0.6568  0.0377
    1Sil     Oy 1295   1.395   2.208  12.537  0.2453  0.1353  0.7025
    1Sil     Oy 1296   1.920   1.945  12.498 -0.4390  0.2293  0.3856
    1Sil     Oy 1297   2.044   2.458  10.110 -0.3340  0.2645 -0.4822
    1Sil     Oy 1298   1.518   2.701  10.139  0.5547 -0.0137 -0.2655
    1Sil     Oy 1299   1.432   2.692  12.547  0.3266  0.5370  0.0023
    1Sil     Oy 1300   1.942   2.451  12.497 -0.1189  0.6073 -0.0618
    1Sil     Oy 1301   2.035   2.920  10.112 -0.3687  0.1923 -0.2078
    1Sil     Oy 1302   1.509   3.143  10.156 -0.0379 -0.5514 -0.2583
    1Sil     Oy 1303   1.391   3.192  12.532  0.2750  0.1261  0.0295
    1Sil     Oy 1304   1.926   2.937  12.499  0.7620 -0.0581 -0.0056
    1Sil     Oy 1305   2.061   3.427  10.109 -0.3463  0.3596  0.1650
    1Sil     Oy 1306   1.497   3.681  10.138 -0.6531 -0.3555 -0.0073
    1Sil     Oy 1307   1.437   3.690  12.549 -0.5241  0.2858 -0.0015
    1Sil     Cm 1308   1.906   3.432  12.525  0.1832  0.8971  0.0905
    1Sil     Oy 1309   2.052   3.912  10.109 -0.2797 -0.4306  0.1947
    1Sil     Oy 1310   1.504   4.168  10.140  0.5411  0.0721 -0.7652
    1Sil     Oy 1311   1.403   4.177  12.531 -0.0937  0.1146  0.7710
    1Sil     Oy 1312   1.918   3.925  12.482 -0.6583  0.2137 -0.1048
    1Sil     Oy 1313   2.049   4.404  10.108  0.1132 -0.0467 -0.5122
    1Sil     Cm 1314   1.513   1.213  10.141  0.0383  0.0020  0.4140
    1Sil     Oy 1315   1.411   1.205  12.533 -0.1506 -0.1982  0.1451
    1Sil     Oy 1316   1.924   4.413  12.484 -0.1453  0.4527  0.0306
    1Sil     Oy 1317   2.854   1.487  10.109  0.0947  0.3294 -0.5151
    1Sil     Oy 1318   2.361   1.686  10.151  0.2363  0.4754 -0.3277
    1Sil     Cm 1319   2.237   1.728  12.544  0.2030 -0.3577 -0.2135
    1Sil     Oy 1320   2.745   1.450  12.497  0.0101 -0.1335  0.1829
    1Sil     Oy 1321   2.861   1.966  10.125 -0.1368  0.3180  0.2986
    1Sil     Oy 1322   2.351   2.228  10.155  0.0323 -0.1082  0.0031
    1Sil     Oy 1323   2.238   2.186  12.547 -0.0521  0.2401 -0.1046
    1Sil     Oy 1324   2.768   1.970  12.497 -0.1726 -0.0978 -0.1149
    1Sil     Oy 1325   2.869   2.422  10.111 -0.1205 -0.0161 -0.4269
    1Sil     Oy 1326   2.354   2.678  10.146  0.0741 -0.2189  0.1642
    1Sil     Oy 1327   2.244   2.652  12.535 -0.4186 -0.6058  0.0299
    1Sil     Oy 1328   2.757   2.435  12.504 -0.1960 -0.1260 -1.0989
    1Sil     Cm 1329   2.875   2.948  10.099  0.7304  0.6046 -0.7449
    1Sil     Oy 1330   2.350   3.148  10.149 -0.3073 -0.0078  0.4365
    1Sil     Cm 1331   2.263   3.191  12.557 -0.6109  0.2442  0.1861
    1Sil     Oy 1332   2.780   2.950  12.510 -0.2197  0.4987  0.1929
    1Sil     Cm 1333   2.900   3.423  10.102  0.5899  0.8077 -1.5994
    1Sil     Oy 1334   2.345   3.655  10.136 -0.3809 -0.4860  0.1649
    1Sil     Oy 1335   2.224   3.674  12.518  0.1330  0.2463  0.4993
    1Sil     Cm 1336   2.763   3.425  12.518 -0.0667  0.3072 -0.6671
    1Sil     Oy 1337   2.879   3.930  10.119 -0.2844  0.2490 -0.2056
    1Sil     Oy 1338   2.352   4.140  10.146 -0.3227  0.2838  0.6186
    1Sil     Cm 1339   2.236   4.173  12.549 -0.7695  0.0935  0.5517
    1Sil     Oy 1340   2.754   3.929  12.512  0.4277 -0.1208 -0.2620
    1Sil     Oy 1341   2.883   4.422  10.108  0.1910 -0.3455 -0.0104
    1Sil     Oy 1342   2.352   1.207  10.142 -0.5652  0.0375 -0.3118
    1Sil     Oy 1343   2.257   1.198  12.529 -0.0773 -0.0269  0.0470
    1Sil     Oy 1344   2.760   4.438  12.489 -0.4340 -0.1813 -0.4104
    1Sil     Oy 1345   3.708   1.474  10.115 -0.4028 -0.2987  0.3592
    1Sil     Oy 1346   3.172   1.681  10.139 -0.2645 -0.3488  0.0842
    1Sil     Oy 1347   3.054   1.689  12.544  0.1781  0.2270 -0.5702
    1Sil     Oy 1348   3.585   1.466  12.489 -0.0271  0.3561  0.4387
    1Sil     Oy 1349   3.706   1.958  10.100  0.6475  0.2430 -0.3265
    1Sil     Oy 1350   3.171   2.203  10.159  0.3944  0.1184 -0.1792
    1Sil     Oy 1351   3.055   2.189  12.531 -0.6661  0.0101 -0.1806
    1Sil     Oy 1352   3.604   1.941  12.502 -0.1499 -0.5469  0.1873
    1Sil     Oy 1353   3.704   2.463  10.104  0.1641  1.1616  0.1167
    1Sil     Oy 1354   3.160   2.689  10.149 -0.3766 -0.0454  0.6087
    1Sil     Cm 1355   3.057   2.699  12.548 -0.0274  0.2854 -0.2792
    1Sil     Oy 1356   3.584   2.448  12.502  0.2197 -0.0058 -0.1634
    1Sil     Oy 1357   3.700   2.956  10.115 -0.3542  0.3554 -0.1054
    1Sil     Oy 1358   3.166   3.179  10.151 -0.2111 -0.5699  0.2277
    1Sil     Oy 1359   3.073   3.159  12.528 -0.2213  0.4110 -0.3400
    1Sil     Oy 1360   3.613   2.925  12.492  0.1577  0.7446  0.1579
    1Sil     Oy 1361   3.705   3.424  10.104  0.2346  0.3241 -0.0154
    1Sil     Oy 1362   3.161   3.666  10.145 -0.0858 -0.2336  0.0092
    1Sil     Oy 1363   3.089   3.675  12.535 -0.7005 -0.3900  0.8413
    1Sil     Oy 1364   3.601   3.409  12.496 -0.1631 -0.1692  0.2325
    1Sil     Oy 1365   3.709   3.911  10.123  0.3589 -0.3756 -0.2289
    1Sil     Oy 1366   3.179   4.169  10.145 -0.4213 -0.0446  0.1467
    1Sil     Oy 1367   3.100   4.163  12.538  0.0457 -0.4947 -0.5238
    1Sil     Oy 1368   3.576   3.917  12.482  0.0781  0.5996 -0.2201
    1Sil     Oy 1369   3.691   4.412  10.115 -0.1523  0.4058  0.1508
    1Sil     Oy 1370   3.180   1.193  10.145  0.0302  0.6575  0.1411
    1Sil     Oy 1371   3.086   1.187  12.535 -0.2052  0.1687  0.5666
    1Sil     Oy 1372   3.615   4.438  12.497 -0.2194 -0.3552 -0.4725
    1Sil     Oy 1373   1.221   1.472  10.108 -0.4039 -0.3858 -0.1923
    1Sil     Oy 1374   4.006   1.697  10.128 -0.0137  0.8970  0.0722
    1Sil     Oy 1375   3.897   1.688  12.517  0.1458 -0.5824 -0.2662
    1Sil     Oy 1376   1.095   1.441  12.478 -0.0107  0.9586  0.0775
    1Sil     Oy 1377   1.228   1.976  10.105  0.6277 -0.0507  0.1436
    1Sil     Cm 1378   4.000   2.200  10.117  0.3592 -0.3517  0.0586
    1Sil     Oy 1379   3.887   2.194  12.532 -0.5198 -0.1675 -0.3584
    1Sil     Oy 1380   1.121   1.921  12.507  0.1087  0.1509 -0.3964
    1Sil     Oy 1381   1.209   2.450  10.101  0.0892  0.2148 -0.4516
    1Sil     Oy 1382   3.997   2.715  10.134  0.8287  0.2583  0.3007
    1Sil     Oy 1383   3.907   2.694  12.532 -0.2063 -0.8341 -0.1956
    1Sil     Oy 1384   1.094   2.476  12.499 -0.5823 -0.0629 -0.4099
    1Sil     Oy 1385   1.199   2.925  10.103 -0.0932 -0.5132  0.0240
    1Sil     Oy 1386   3.992   3.200  10.142  0.3576  0.1794  0.3077
    1Sil     Oy 1387   3.908   3.179  12.526 -0.6177  0.0400  1.1411
    1Sil     Oy 1388   1.091   2.951  12.514 -0.3531 -0.3468  0.0328
    1Sil     Oy 1389   1.208   3.446  10.118 -0.1634 -0.0609  0.6977
    1Sil     Oy 1390   3.990   3.644  10.147  0.5079 -0.4238 -0.1092
    1Sil     Cm 1391   3.876   3.687  12.552 -0.2304 -0.0218 -0.0176
    1Sil     Oy 1392   1.098   3.407  12.496  0.0535  0.3489  0.0978
    1Sil     Oy 1393   1.243   3.933  10.124  0.2179  0.3302  0.1365
    1Sil     Oy 1394   3.991   4.168  10.159  0.0595 -0.0175  0.2312
    1Sil     Oy 1395   3.905   4.135  12.530 -0.7657  0.4367  0.4341
    1Sil     Oy 1396   1.079   3.927  12.492 -0.5729 -0.4991  0.3171
    1Sil     Oy 1397   1.211   4.423  10.099 -0.1272 -0.0446 -0.7612
    1Sil     Oy 1398   0.648   1.216  10.143 -0.2319 -0.0827  0.0761
    1Sil     Oy 1399   3.898   1.210  12.523  0.4898 -0.2244  0.0556
    1Sil     Oy 1400   1.099   4.421  12.497  0.0719  0.0536  0.0375
    1Sil    Sib 1401   1.988   1.485  10.251 -0.3139 -0.2930  0.3642
    1Sil    Sib 1402   1.397   1.483  11.054  0.2363  0.3701  0.5534
    1Sil    Sib 1403   1.695   1.425  10.656  0.4284  0.4514  0.5073
    1Sil    Sib 1404   1.258   1.732  10.695 -0.3288  0.2354  0.4458
    1Sil    Sib 1405   1.785   1.732  11.084  0.4503  0.1449  0.2396
    1Sil    Sib 1406   1.549   1.672  10.289 -0.2521  0.0325 -0.4933
    1Sil    Sib 1407   1.503   1.733  11.183  0.4784  0.2916 -0.0415
    1Sil    Sib 1408   1.266   1.725  10.396 -0.2171  0.1045  0.2204
    1Sil    Sib 1409   1.809   1.673  10.783 -0.1866  0.7109  0.0761
    1Sil    Sib 1410   1.413   1.484  10.759  0.0076  0.0188 -0.1408
    1Sil    Sib 1411   1.943   1.487  11.146 -0.0539 -0.0916  0.0019
    1Sil    Sib 1412   1.711   1.436  10.351 -0.3161  0.1256  0.1263
    1Sil    Sib 1413   1.931   1.481  11.443  0.0071 -0.2055 -0.0078
    1Sil    Sib 1414   1.352   1.484  12.240  0.3197 -0.2170 -0.3113
    1Sil    Sib 1415   1.641   1.427  11.841  0.0516 -0.2068 -0.5050
    1Sil    Sib 1416   1.215   1.729  11.894 -0.1600  0.0900  0.1398
    1Sil    Sib 1417   1.736   1.727  12.285  0.0598 -0.3961 -0.1110
    1Sil    Sib 1418   1.501   1.670  11.487 -0.2353  0.1914 -0.0059
    1Sil    Sib 1419   1.458   1.723  12.391 -0.1803 -0.1956 -0.4998
    1Sil    Sib 1420   1.222   1.724  11.592 -0.1735 -0.0342  0.2002
    1Sil    Sib 1421   1.751   1.675  11.989  0.3142  0.2948 -0.1436
    1Sil    Sib 1422   1.364   1.481  11.944  0.3534  0.2575  0.3727
    1Sil    Sib 1423   1.890   1.483  12.344  0.0194  0.2600 -0.3857
    1Sil    Sib 1424   1.652   1.422  11.542 -0.1182 -0.2074  0.0158
    1Sil    Sib 1425   1.991   1.980  10.251 -0.5314 -0.5663 -0.2836
    1Sil    Sib 1426   1.411   1.976  11.053  0.4960  0.6415  0.3311
    1Sil    Sib 1427   1.695   1.929  10.647  0.1611 -0.1168  0.3312
    1Sil    Sib 1428   1.257   2.225  10.699 -0.1204  0.4352  0.2309
    1Sil    Sib 1429   1.783   2.227  11.087  0.2342  0.3651 -0.3338
    1Sil    Sib 1430   1.544   2.175  10.287  0.5808 -0.5637  0.1950
    1Sil    Sib 1431   1.505   2.225  11.188 -0.1620 -0.0121  0.3021
    1Sil    Sib 1432   1.262   2.221  10.397  0.0772  0.0107 -0.1091
    1Sil    Sib 1433   1.809   2.171  10.787 -0.5453 -0.1862 -0.0686
    1Sil    Sib 1434   1.430   1.978  10.749 -0.3475  0.3433  0.2998
    1Sil    Sib 1435   1.949   1.974  11.148  0.1354 -0.0374  0.4056
    1Sil    Sib 1436   1.708   1.928  10.342 -0.4204 -0.2174 -0.1624
    1Sil    Sib 1437   1.942   1.967  11.441  0.2678 -0.4406  0.1808
    1Sil    Sib 1438   1.355   1.977  12.253  0.1815 -0.1410  0.4326
    1Sil    Sib 1439   1.655   1.917  11.853 -0.1324 -0.1081 -0.1495
    1Sil    Sib 1440   1.203   2.213  11.896  0.4190 -0.4121 -0.4938
    1Sil    Sib 1441   1.733   2.224  12.277 -0.2333 -0.0415 -0.1098
    1Sil    Sib 1442   1.486   2.162  11.484 -0.0036 -0.1359 -0.0311
    1Sil    Sib 1443   1.452   2.225  12.390  0.1212 -0.0513 -0.2083
    1Sil    Sib 1444   1.206   2.212  11.591 -0.5158 -0.1805  0.4097
    1Sil    Sib 1445   1.746   2.167  11.989  0.4045  0.6763  0.6638
    1Sil    Sib 1446   1.379   1.980  11.955 -0.1267 -0.2455 -0.0089
    1Sil    Sib 1447   1.892   1.965  12.341  0.6764 -0.2209  0.2206
    1Sil    Sib 1448   1.659   1.919  11.550 -0.3081 -0.4437  0.3382
    1Sil    Sib 1449   1.989   2.471  10.249  0.3262  0.2311 -0.0817
    1Sil    Sib 1450   1.406   2.475  11.062 -0.3172  0.0951 -0.0291
    1Sil    Sib 1451   1.686   2.414  10.652 -0.0088 -0.0365 -0.7346
    1Sil    Sib 1452   1.260   2.724  10.690  0.3807  0.1108  0.2722
    1Sil    Sib 1453   1.785   2.721  11.094  0.0865 -0.2650  0.4629
    1Sil    Sib 1454   1.554   2.670  10.289 -0.5494 -0.1876 -0.2215
    1Sil    Sib 1455   1.505   2.726  11.189 -0.1632  0.0025  0.2204
    1Sil    Sib 1456   1.263   2.718  10.391  0.0390  0.5258 -0.1595
    1Sil    Sib 1457   1.799   2.658  10.796 -0.0095 -0.2499 -0.0086
    1Sil    Sib 1458   1.420   2.469  10.759 -0.2455 -0.1231 -0.1258
    1Sil    Sib 1459   1.950   2.473  11.155  0.0413  0.4531 -0.0046
    1Sil    Sib 1460   1.714   2.419  10.350 -0.1763 -0.1282 -0.5668
    1Sil    Sib 1461   1.925   2.461  11.452  0.2000  0.4286 -0.3369
    1Sil    Sib 1462   1.361   2.468  12.247  0.3328 -0.3003  0.7817
    1Sil    Sib 1463   1.636   2.406  11.843  0.5117  0.2926  0.6200
    1Sil    Sib 1464   1.200   2.718  11.899  0.1491 -0.6736  0.0938
    1Sil    Sib 1465   1.740   2.708  12.286 -0.0859 -0.0854  0.0904
    1Sil    Sib 1466   1.484   2.657  11.490 -0.6521 -0.0214 -0.3880
    1Sil    Sib 1467   1.468   2.707  12.391 -0.6227  0.0985 -0.0512
    1Sil    Sib 1468   1.206   2.703  11.601 -0.0131 -0.4075  0.0995
    1Sil    Sib 1469   1.744   2.658  11.985  0.4765 -0.2023  0.3751
    1Sil    Sib 1470   1.364   2.469  11.950  0.2338 -0.1413  0.1130
    1Sil    Sib 1471   1.896   2.470  12.340  0.2619  0.0739 -0.3019
    1Sil    Sib 1472   1.642   2.406  11.547  0.3151 -0.2200  0.3057
    1Sil    Sib 1473   1.992   2.962  10.255 -0.1630  0.0198  0.0811
    1Sil    Sib 1474   1.409   2.960  11.036 -0.2498 -0.6020 -0.0779
    1Sil    Sib 1475   1.700   2.897  10.658  0.2877  0.0637  0.1177
    1Sil    Sib 1476   1.259   3.212  10.690  0.4011  0.2088  0.0869
    1Sil    Sib 1477   1.797   3.200  11.082  0.1466 -0.3873 -0.3976
    1Sil    Sib 1478   1.541   3.143  10.303  0.3084  0.0488  0.5131
    1Sil    Sib 1479   1.510   3.200  11.182  0.6407 -0.2943  0.8213
    1Sil    Sib 1480   1.268   3.202  10.391  0.2597 -0.1333 -0.2639
    1Sil    Sib 1481   1.806   3.147  10.781  0.0028  0.5015  0.1319
    1Sil    Sib 1482   1.422   2.968  10.744  0.2571 -0.2658 -0.0702
    1Sil    Sib 1483   1.961   2.959  11.164  0.0205  0.1456 -0.1972
    1Sil    Sib 1484   1.717   2.915  10.363  0.4379 -0.0406  0.5980
    1Sil    Sib 1485   1.927   2.951  11.467 -0.1959  0.0981 -0.0289
    1Sil    Sib 1486   1.356   2.953  12.264  0.2789  0.2363 -0.2820
    1Sil    Sib 1487   1.642   2.912  11.849  0.4957 -0.4184 -0.2010
    1Sil    Sib 1488   1.202   3.208  11.905 -0.0615  0.0196 -0.2081
    1Sil    Sib 1489   1.736   3.202  12.282  0.4044  0.1800  0.1646
    1Sil    Sib 1490   1.493   3.143  11.486  0.3888  0.0994  0.2387
    1Sil    Sib 1491   1.452   3.205  12.387  0.2870 -0.0941 -0.1203
    1Sil    Sib 1492   1.211   3.194  11.603 -0.7895 -0.0810  0.1532
    1Sil    Sib 1493   1.745   3.156  11.989  0.5859  0.4622 -0.4190
    1Sil    Sib 1494   1.367   2.961  11.955 -0.3760 -0.3827  0.1320
    1Sil    Sib 1495   1.896   2.959  12.345  0.2473 -0.2403  0.2089
    1Sil    Sib 1496   1.654   2.898  11.557 -0.0064  0.2861  0.4883
    1Sil    Sib 1497   1.987   3.451  10.252 -0.0104 -0.0029  0.1580
    1Sil    Sib 1498   1.408   3.453  11.051  0.2691 -0.3795 -0.6174
    1Sil    Sib 1499   1.699   3.395  10.641  0.3711  0.2591 -0.0884
    1Sil    Sib 1500   1.267   3.710  10.700 -0.2562  0.0375  0.1769
    1Sil    Sib 1501   1.782   3.698  11.088  0.4053  0.5768 -0.2259
    1Sil    Sib 1502   1.542   3.652  10.294 -0.3816 -0.1367 -0.1527
    1Sil    Sib 1503   1.503   3.699  11.187  0.2025  0.3670 -0.2706
    1Sil    Sib 1504   1.266   3.702  10.398 -0.2167 -0.2643 -0.0165
    1Sil    Sib 1505   1.801   3.638  10.786 -0.1378  0.5199 -0.6959
    1Sil    Sib 1506   1.422   3.463  10.751  0.0949  0.0868  0.2538
    1Sil    Sib 1507   1.952   3.451  11.149  0.0902  0.1029  0.4282
    1Sil    Sib 1508   1.699   3.400  10.342  0.1379  0.0927  0.0578
    1Sil    Sib 1509   1.939   3.447  11.444 -0.2472  0.2311  0.0558
    1Sil    Sib 1510   1.351   3.456  12.248 -0.2032  0.3299  0.2865
    1Sil    Sib 1511   1.640   3.397  11.838  0.1168  0.2054 -0.1369
    1Sil    Sib 1512   1.200   3.706  11.889 -0.0283  0.1138  0.3276
    1Sil    Sib 1513   1.741   3.694  12.273 -0.1170 -0.1443 -0.1515
    1Sil    Sib 1514   1.493   3.636  11.479  0.3503 -0.3685  0.5996
    1Sil    Sib 1515   1.466   3.696  12.389 -0.2162  0.1048 -0.2366
    1Sil    Sib 1516   1.220   3.689  11.592  0.6660 -0.1224 -0.0096
    1Sil    Sib 1517   1.753   3.647  11.973 -0.2729 -0.0603  0.0637
    1Sil    Sib 1518   1.365   3.459  11.946 -0.2860  0.0223  0.0604
    1Sil    Sim 1519   1.896   3.446  12.346 -0.2309  0.3883 -0.2853
    1Sil    Sib 1520   1.662   3.391  11.539  0.0980 -0.5797 -0.1154
    1Sil    Sib 1521   1.999   3.941  10.255  0.3628 -0.6648  0.6923
    1Sil    Sib 1522   1.411   3.947  11.047 -0.4930  0.3485 -0.1545
    1Sil    Sib 1523   1.709   3.888  10.643 -0.2877  0.3597  0.0085
    1Sil    Sib 1524   1.264   4.200  10.698  0.1940 -0.8136  0.0159
    1Sil    Sib 1525   1.794   4.194  11.086 -0.0040 -0.0703 -0.0782
    1Sil    Sib 1526   1.556   4.135  10.292 -0.0106 -0.0648 -0.3737
    1Sil    Sib 1527   1.507   4.193  11.187  0.4440 -0.1274 -0.4084
    1Sil    Sib 1528   1.277   4.194  10.402  0.0712  0.4034 -0.2566
    1Sil    Sib 1529   1.802   4.132  10.791  0.4797 -0.9566 -0.1154
    1Sil    Sib 1530   1.433   3.953  10.753 -0.1950  0.1928  0.0180
    1Sil    Sib 1531   1.956   3.941  11.155 -0.1526 -0.5265 -0.2993
    1Sil    Sib 1532   1.722   3.888  10.351  0.1738 -0.0330 -0.0792
    1Sil    Sib 1533   1.937   3.938  11.452 -0.3662 -0.1027 -0.3282
    1Sil    Sib 1534   1.359   3.948  12.254 -0.4118  0.2423  0.0054
    1Sil    Sib 1535   1.639   3.889  11.844  0.1313 -0.3278 -0.0325
    1Sil    Sib 1536   1.200   4.191  11.893 -0.4220 -0.1446  0.3485
    1Sil    Sib 1537   1.729   4.188  12.280 -0.0501  0.1985  0.5085
    1Sil    Sib 1538   1.493   4.132  11.481  0.5359 -0.3090 -0.0632
    1Sil    Sib 1539   1.455   4.197  12.382 -0.4049  0.2620 -0.3427
    1Sil    Sib 1540   1.216   4.192  11.588 -0.5862 -0.2595  0.1242
    1Sil    Sib 1541   1.748   4.134  11.989 -0.1494  0.0193  0.1566
    1Sil    Sib 1542   1.361   3.952  11.949  0.3267  0.0394  0.2792
    1Sil    Sib 1543   1.896   3.951  12.331  0.0736 -0.0879  0.0819
    1Sil    Sib 1544   1.651   3.888  11.541 -0.2078 -0.0664  0.1143
    1Sil    Sib 1545   1.989   4.439  10.258 -0.3813 -0.2504  0.7299
    1Sil    Sib 1546   1.405   4.441  11.046  0.0220 -0.0171 -0.1173
    1Sil    Sib 1547   1.703   4.378  10.653  0.5505  0.0231 -0.4872
    1Sil    Sib 1548   1.247   1.239  10.689  0.1709  0.2482  0.4073
    1Sil    Sib 1549   1.785   1.238  11.083 -0.2495 -0.3435  0.2360
    1Sil    Sim 1550   1.550   1.184  10.302  0.0899  0.3248  0.0140
    1Sil    Sib 1551   1.510   1.233  11.191 -0.2469 -0.6511  0.1996
    1Sil    Sib 1552   1.267   1.231  10.397 -0.0281 -0.0716 -0.2540
    1Sil    Sib 1553   1.803   1.183  10.787  0.2450 -0.4214 -0.2823
    1Sil    Sib 1554   1.421   4.440  10.747 -0.0983  0.1933  0.2208
    1Sil    Sib 1555   1.950   4.444  11.133  0.6279 -0.0116 -0.2335
    1Sil    Sib 1556   1.710   4.384  10.352 -0.1943 -0.5351 -0.1997
    1Sil    Sib 1557   1.944   4.439  11.443  0.1073  0.0462  0.0805
    1Sil    Sib 1558   1.346   4.433  12.253 -0.0399 -0.0225 -0.1797
    1Sil    Sib 1559   1.637   4.383  11.847  0.1875 -0.1862  0.3803
    1Sil    Sib 1560   1.203   1.233  11.893 -0.3826  0.2391  0.4177
    1Sil    Sib 1561   1.727   1.239  12.267 -0.0834  0.7497 -0.3462
    1Sil    Sib 1562   1.498   1.173  11.479 -0.6036 -0.2543 -0.5279
    1Sil    Sib 1563   1.448   1.241  12.376  0.0246  0.1777 -0.2650
    1Sil    Sib 1564   1.216   1.224  11.591  0.3152 -0.4687  0.2939
    1Sil    Sib 1565   1.752   1.183  11.973  0.0682  0.0295 -0.3819
    1Sil    Sib 1566   1.358   4.434  11.958 -0.0762 -0.5015  0.0656
    1Sil    Sib 1567   1.887   4.446  12.335 -0.0071  0.4123  0.3779
    1Sil    Sib 1568   1.656   4.373  11.542  0.3130 -0.3696 -0.5080
    1Sil    Sib 1569   2.819   1.497  10.262 -0.3203 -0.2698  0.5345
    1Sil    Sib 1570   2.227   1.486  11.046 -0.6672  0.3346  0.1236
    1Sil    Sib 1571   2.532   1.433  10.662 -0.1475  0.3989  0.2745
    1Sil    Sib 1572   2.080   1.727  10.688 -0.5296 -0.0203  0.1540
    1Sil    Sib 1573   2.619   1.729  11.083  0.2564 -0.0300 -0.1175
    1Sil    Sib 1574   2.387   1.673  10.304 -0.2323 -0.0380  0.4527
    1Sil    Sib 1575   2.333   1.734  11.179 -0.2054 -0.4013 -0.0209
    1Sil    Sib 1576   2.100   1.732  10.383  0.5769  0.2171 -0.1696
    1Sil    Sib 1577   2.635   1.682  10.789 -0.2195 -0.1498 -0.0823
    1Sil    Sib 1578   2.243   1.481  10.740 -0.7195 -0.0301 -0.0101
    1Sil    Sib 1579   2.789   1.488  11.146  0.0673 -0.2754  0.2664
    1Sil    Sib 1580   2.548   1.417  10.366  0.2321 -0.3295 -0.0156
    1Sil    Sib 1581   2.770   1.486  11.441  0.0139  0.2673  0.0676
    1Sil    Sib 1582   2.187   1.495  12.254 -0.4160 -0.3507 -0.6942
    1Sil    Sib 1583   2.475   1.436  11.851  0.0007  0.1146 -0.0207
    1Sil    Sib 1584   2.034   1.726  11.891  0.0595  0.1278  0.0806
    1Sil    Sib 1585   2.567   1.725  12.300 -0.4685  0.0475 -0.0944
    1Sil    Sib 1586   2.316   1.673  11.474 -0.0554  0.2327 -0.2796
    1Sil    Sim 1587   2.282   1.741  12.394 -0.0886  0.0036  0.1613
    1Sil    Sib 1588   2.043   1.715  11.585 -0.2289 -0.1101  0.2986
    1Sil    Sib 1589   2.584   1.677  12.001  0.1558 -0.3008  0.1308
    1Sil    Sib 1590   2.193   1.477  11.950  0.4418 -0.1811 -0.1337
    1Sil    Sib 1591   2.728   1.475  12.344  0.3629  0.2989  0.2854
    1Sil    Sib 1592   2.486   1.437  11.550 -0.0418 -0.1060 -0.0541
    1Sil    Sib 1593   2.826   1.977  10.277  0.1648  0.0603  0.3010
    1Sil    Sib 1594   2.231   1.975  11.047 -0.0140  0.0224 -0.1806
    1Sil    Sib 1595   2.529   1.922  10.662 -0.2418 -0.6039  0.3276
    1Sil    Sib 1596   2.089   2.221  10.691 -0.1694  0.2751  0.0086
    1Sil    Sib 1597   2.631   2.208  11.094 -0.0100 -0.3464 -0.6734
    1Sil    Sib 1598   2.385   2.176  10.308 -0.3797 -0.2265  0.2939
    1Sil    Sib 1599   2.345   2.217  11.191  0.4128 -0.2618  0.1871
    1Sil    Sib 1600   2.099   2.224  10.392 -0.4028 -0.0953  0.1746
    1Sil    Sib 1601   2.642   2.172  10.794 -0.3303 -0.4179 -0.2431
    1Sil    Sib 1602   2.246   1.969  10.751 -0.0644  0.4402 -0.0364
    1Sil    Sib 1603   2.792   1.972  11.149 -0.0095 -0.3464 -0.1664
    1Sil    Sib 1604   2.546   1.927  10.358 -0.2711  0.1372  0.0412
    1Sil    Sib 1605   2.762   1.963  11.450 -0.1199  0.0941 -0.0804
    1Sil    Sib 1606   2.183   1.970  12.248 -0.4541 -0.0938 -0.2054
    1Sil    Sib 1607   2.477   1.926  11.845  0.4121 -0.0418 -0.2598
    1Sil    Sib 1608   2.032   2.220  11.890  0.4729 -0.3725 -0.4614
    1Sil    Sib 1609   2.566   2.214  12.276 -0.2316 -0.2911 -0.1594
    1Sil    Sib 1610   2.325   2.164  11.486  0.3396  0.2977 -0.5451
    1Sil    Sib 1611   2.288   2.212  12.399 -0.3127 -0.0902  0.3182
    1Sil    Sib 1612   2.039   2.218  11.589  0.2670 -0.3122  0.1687
    1Sil    Sib 1613   2.580   2.173  11.982 -0.4191 -0.2324  0.0701
    1Sil    Sib 1614   2.203   1.978  11.940 -0.2653  0.6270 -0.1645
    1Sil    Sib 1615   2.731   1.979  12.336 -0.0412  0.2406 -0.3073
    1Sil    Sib 1616   2.483   1.918  11.543  0.1342  0.4066 -0.3528
    1Sil    Sib 1617   2.828   2.451  10.263 -0.0176  0.2998  0.1985
    1Sil    Sib 1618   2.238   2.466  11.060  0.5301 -0.6527 -0.0058
    1Sil    Sib 1619   2.523   2.420  10.661 -0.2213 -0.1153  0.1402
    1Sil    Sib 1620   2.079   2.711  10.695  0.5509  0.7189 -0.1306
    1Sil    Sib 1621   2.629   2.710  11.099  0.0294 -0.0098 -0.1125
    1Sil    Sib 1622   2.376   2.656  10.305  0.2931  0.4009  0.7855
    1Sil    Sib 1623   2.350   2.718  11.202  0.0390 -0.4681  0.1824
    1Sil    Sib 1624   2.089   2.713  10.398 -0.5673 -0.2693  0.0766
    1Sil    Sib 1625   2.646   2.658  10.799  0.7528  0.3788 -0.0936
    1Sil    Sib 1626   2.246   2.469  10.755 -0.0199 -0.5355 -0.0332
    1Sil    Sib 1627   2.790   2.459  11.157 -0.5812 -0.3529  0.0179
    1Sil    Sib 1628   2.542   2.418  10.369  0.2216 -0.2501  0.2956
    1Sil    Sib 1629   2.765   2.455  11.454  0.4435 -0.2874 -0.1242
    1Sil    Sib 1630   2.183   2.455  12.249 -0.0914  0.1072  0.2308
    1Sil    Sib 1631   2.468   2.414  11.849 -0.0080 -0.5956  1.1247
    1Sil    Sib 1632   2.024   2.711  11.899 -0.4207 -0.0642  0.2943
    1Sil    Sib 1633   2.578   2.710  12.285 -0.5418 -0.1180 -0.0066
    1Sil    Sib 1634   2.314   2.660  11.495  0.3350  0.1188  0.0645
    1Sil    Sib 1635   2.292   2.699  12.388 -0.3647 -0.0988 -0.1309
    1Sil    Sib 1636   2.028   2.699  11.602  0.0075 -0.3532 -0.0275
    1Sil    Sib 1637   2.582   2.654  11.992 -0.2836  0.1085  0.3502
    1Sil    Sib 1638   2.200   2.463  11.951 -0.3142  0.0548 -0.0524
    1Sil    Sib 1639   2.725   2.460  12.350 -0.7559 -0.0754 -0.0433
    1Sil    Sib 1640   2.484   2.415  11.543 -0.1640  0.2415  0.5233
    1Sil    Sim 1641   2.823   2.961  10.257 -0.1094 -0.1896 -0.0271
    1Sil    Sib 1642   2.240   2.956  11.055 -0.2191  0.1157  0.0874
    1Sil    Sib 1643   2.532   2.904  10.660 -0.3360 -0.3361 -0.3916
    1Sil    Sib 1644   2.079   3.195  10.680  0.1781 -0.1091  0.2495
    1Sil    Sib 1645   2.616   3.206  11.081  0.2100 -0.0941  0.1571
    1Sil    Sib 1646   2.386   3.144  10.303  0.0467 -0.1598  0.1127
    1Sil    Sib 1647   2.333   3.209  11.186 -0.0810 -0.1890 -0.3653
    1Sil    Sib 1648   2.096   3.203  10.383 -0.2276  0.4280 -0.0237
    1Sil    Sib 1649   2.623   3.149  10.790  0.0206 -0.2960  0.5096
    1Sil    Sib 1650   2.243   2.956  10.748 -0.2308  0.6894  0.2310
    1Sil    Sib 1651   2.779   2.963  11.151  0.2052  0.4152  0.4859
    1Sil    Sib 1652   2.543   2.900  10.364  0.6079 -0.0223  0.0766
    1Sil    Sib 1653   2.767   2.949  11.449  0.0142  0.2835  0.3484
    1Sil    Sib 1654   2.187   2.948  12.258  0.1244  0.2653 -0.0372
    1Sil    Sib 1655   2.474   2.904  11.856 -0.2935  0.1144  0.0231
    1Sil    Sib 1656   2.032   3.209  11.889  0.3400  0.6374  0.1984
    1Sil    Sib 1657   2.578   3.207  12.278  0.0528  0.4128  0.1588
    1Sil    Sib 1658   2.315   3.137  11.488  0.0446  0.1445 -0.1120
    1Sil    Sim 1659   2.301   3.197  12.398  0.2537  0.2151  0.5728
    1Sil    Sib 1660   2.029   3.201  11.589 -0.1785 -0.3344 -0.1852
    1Sil    Sib 1661   2.586   3.150  11.987  0.1936  0.4939 -0.5686
    1Sil    Sib 1662   2.190   2.958  11.948 -0.1367  0.0298 -0.4700
    1Sil    Sib 1663   2.743   2.958  12.350  0.2983 -0.1410 -0.0617
    1Sil    Sib 1664   2.487   2.899  11.549 -0.9170  0.0420  0.1785
    1Sil    Sim 1665   2.834   3.453  10.250 -0.2515  0.2044 -0.2378
    1Sil    Sib 1666   2.231   3.451  11.047 -0.1036  0.2291 -0.4259
    1Sil    Sib 1667   2.529   3.392  10.648  0.2523 -0.3007 -0.3419
    1Sil    Sib 1668   2.084   3.687  10.691 -0.1040  0.1402  0.2880
    1Sil    Sib 1669   2.619   3.706  11.089  0.1439 -0.1751 -0.2879
    1Sil    Sib 1670   2.387   3.639  10.291 -0.1631 -0.1760 -0.1999
    1Sil    Sib 1671   2.336   3.690  11.190  0.3176 -0.0368  0.1898
    1Sil    Sib 1672   2.099   3.694  10.393  0.2355  0.1322  0.3756
    1Sil    Sib 1673   2.636   3.629  10.806  0.0199 -0.2384 -0.1653
    1Sil    Sib 1674   2.246   3.444  10.747 -0.2742  0.0023 -0.0415
    1Sil    Sib 1675   2.779   3.451  11.141  0.2443 -0.3925 -0.6933
    1Sil    Sib 1676   2.552   3.391  10.355  0.5370 -0.0111 -0.5791
    1Sil    Sib 1677   2.764   3.446  11.448  0.1308  0.0504 -0.2432
    1Sil    Sib 1678   2.189   3.438  12.250 -0.0601  0.0211 -0.3802
    1Sil    Sib 1679   2.476   3.396  11.849  0.1825  0.1171 -0.1114
    1Sil    Sib 1680   2.027   3.697  11.883 -0.2597  0.1680 -0.1568
    1Sil    Sib 1681   2.574   3.693  12.287  0.1926  0.1669  0.2139
    1Sil    Sib 1682   2.320   3.636  11.485  0.3927 -0.2234 -0.1209
    1Sil    Sib 1683   2.285   3.693  12.376 -0.1530  0.2949  0.0346
    1Sil    Sib 1684   2.042   3.689  11.590  0.3200  0.0351  0.4713
    1Sil    Sib 1685   2.596   3.643  11.986  0.2847 -0.1944  0.5495
    1Sil    Sib 1686   2.199   3.456  11.950 -0.1151  0.4206 -0.1160
    1Sil    Sim 1687   2.739   3.451  12.359  0.2956 -0.2165  0.2350
    1Sil    Sib 1688   2.481   3.385  11.549  0.1409 -0.2769 -0.2709
    1Sil    Sib 1689   2.821   3.955  10.264  0.3010 -0.1202 -0.5243
    1Sil    Sib 1690   2.233   3.938  11.058 -0.1065  0.1017  0.1518
    1Sil    Sib 1691   2.528   3.879  10.665  0.2092  0.0580  0.0403
    1Sil    Sib 1692   2.079   4.180  10.703 -0.3202 -0.3043 -0.3136
    1Sil    Sib 1693   2.615   4.196  11.100  0.2531  0.0893  0.0294
    1Sil    Sib 1694   2.385   4.136  10.307 -0.1358  0.0284  0.7965
    1Sil    Sib 1695   2.336   4.190  11.193 -0.0950 -0.0521  0.0285
    1Sil    Sib 1696   2.092   4.191  10.399  0.3681 -0.0532 -0.3407
    1Sil    Sib 1697   2.636   4.131  10.799 -0.1244  0.0089  0.3914
    1Sil    Sib 1698   2.256   3.927  10.755 -0.3131  0.1087  0.4351
    1Sil    Sib 1699   2.789   3.952  11.156  0.0712  0.1247  0.2317
    1Sil    Sib 1700   2.545   3.893  10.358  0.2385 -0.1135  0.3881
    1Sil    Sib 1701   2.765   3.941  11.451  0.1900  0.4925  0.0196
    1Sil    Sib 1702   2.179   3.941  12.243 -0.0635 -0.8033 -0.2553
    1Sil    Sib 1703   2.466   3.886  11.852  0.2138 -0.0013 -0.4038
    1Sil    Sib 1704   2.025   4.191  11.897  0.0873  0.3066  0.5489
    1Sil    Sib 1705   2.571   4.200  12.274  0.2684 -0.1530  0.0837
    1Sil    Sib 1706   2.319   4.136  11.494 -0.1333 -0.0897  0.2406
    1Sil    Sim 1707   2.285   4.200  12.384  0.3827  0.2965  0.1635
    1Sil    Sib 1708   2.048   4.198  11.591 -0.1102  0.5876  0.0946
    1Sil    Sib 1709   2.580   4.136  11.985  0.2169  0.3526 -0.4718
    1Sil    Sib 1710   2.186   3.940  11.938 -0.2345 -0.0315  0.4054
    1Sil    Sib 1711   2.727   3.947  12.352 -0.2005 -0.3373  0.1604
    1Sil    Sib 1712   2.484   3.888  11.547 -0.3399 -0.1936  0.4792
    1Sil    Sib 1713   2.822   4.456  10.256  0.0132 -0.1419  0.4921
    1Sil    Sib 1714   2.238   4.435  11.050  0.2600 -0.1337 -0.3108
    1Sil    Sib 1715   2.536   4.380  10.647  0.2363  0.3429  0.2920
    1Sil    Sib 1716   2.083   1.233  10.693 -0.2423  0.0403 -0.0006
    1Sil    Sib 1717   2.622   1.241  11.099 -0.4997 -0.0815  0.2571
    1Sil    Sib 1718   2.380   1.176  10.294  0.1473 -0.1763 -0.2193
    1Sil    Sib 1719   2.337   1.239  11.189 -0.4572 -0.0221  0.0149
    1Sil    Sib 1720   2.094   1.231  10.395 -0.0461 -0.1567 -0.1593
    1Sil    Sib 1721   2.623   1.186  10.803 -0.1992 -0.6647 -0.1820
    1Sil    Sib 1722   2.249   4.428  10.757 -0.3141 -0.2961 -0.4625
    1Sil    Sib 1723   2.780   4.439  11.150  0.4055  0.3283 -0.4168
    1Sil    Sib 1724   2.550   4.380  10.348  0.0256 -0.0587  0.1460
    1Sil    Sib 1725   2.766   4.426  11.449 -0.0984 -0.1891  0.1659
    1Sil    Sib 1726   2.175   4.440  12.243 -0.3343 -0.3601 -0.0070
    1Sil    Sib 1727   2.477   4.382  11.841 -0.3353 -0.0123 -0.0342
    1Sil    Sib 1728   2.030   1.230  11.882  0.2140  0.0470  1.0039
    1Sil    Sib 1729   2.571   1.233  12.267  0.3638 -0.6868  0.2072
    1Sil    Sib 1730   2.322   1.182  11.483 -0.1739 -0.0857  0.3669
    1Sil    Sib 1731   2.297   1.235  12.375 -0.2009 -0.1371 -0.5446
    1Sil    Sib 1732   2.034   1.231  11.586 -0.1424  0.0528 -0.1077
    1Sil    Sib 1733   2.579   1.182  11.976 -0.0626  0.3617 -0.1913
    1Sil    Sib 1734   2.198   4.437  11.940  0.2926  0.1384 -0.1213
    1Sil    Sib 1735   2.740   4.445  12.338 -0.0358  0.3400 -0.2391
    1Sil    Sib 1736   2.487   4.381  11.539  0.2908 -0.1907  0.4366
    1Sil    Sib 1737   3.653   1.491  10.264  0.1605 -0.5204  0.0492
    1Sil    Sib 1738   3.076   1.492  11.063 -0.1576  0.3685 -0.0101
    1Sil    Sib 1739   3.365   1.426  10.660  0.1904  0.1826 -0.0664
    1Sil    Sib 1740   2.924   1.726  10.705 -0.4078  0.1282 -0.0147
    1Sil    Sib 1741   3.457   1.739  11.085  0.2556  0.0316 -0.0879
    1Sil    Sib 1742   3.213   1.660  10.291  0.0944 -0.2824  0.4419
    1Sil    Sib 1743   3.180   1.731  11.197  0.2694  0.3007  0.0296
    1Sil    Sib 1744   2.933   1.727  10.403  0.2819  0.2057 -0.4359
    1Sil    Sib 1745   3.467   1.675  10.794  0.0885 -0.0647 -0.1860
    1Sil    Sib 1746   3.083   1.481  10.764 -0.1743  0.0561  0.3722
    1Sil    Sib 1747   3.621   1.488  11.160 -0.0296 -0.1338  0.2814
    1Sil    Sib 1748   3.378   1.418  10.358 -0.0421 -0.1151  0.3555
    1Sil    Sib 1749   3.599   1.474  11.455  0.0381 -0.5635  0.2560
    1Sil    Sib 1750   3.018   1.468  12.258 -0.0262 -0.0625 -0.0120
    1Sil    Sib 1751   3.309   1.437  11.859 -0.1815 -0.0495 -0.3796
    1Sil    Sib 1752   2.864   1.722  11.895  0.3955 -0.1423  0.2647
    1Sil    Sib 1753   3.395   1.724  12.294  0.1523 -0.3748  0.3432
    1Sil    Sib 1754   3.164   1.676  11.497  0.5283 -0.3364 -0.3382
    1Sil    Sib 1755   3.112   1.719  12.395 -0.2929 -0.2428 -0.3362
    1Sil    Sib 1756   2.880   1.725  11.594 -0.4367 -0.1448 -0.1586
    1Sil    Sib 1757   3.412   1.689  11.990  0.3485  0.1312  0.3914
    1Sil    Sib 1758   3.030   1.475  11.958 -0.0300  0.3808 -0.1066
    1Sil    Sib 1759   3.553   1.486  12.338 -0.1076 -0.6743  0.1017
    1Sil    Sib 1760   3.328   1.428  11.561  0.0931  0.1688 -0.1699
    1Sil    Sib 1761   3.648   1.971  10.250 -0.1561  0.1276 -0.2445
    1Sil    Sib 1762   3.073   1.971  11.064  0.4437 -0.1774 -0.1512
    1Sil    Sib 1763   3.361   1.916  10.650 -0.1623 -0.1395 -0.2345
    1Sil    Sib 1764   2.925   2.225  10.709 -0.6207  0.0192 -0.1672
    1Sil    Sib 1765   3.456   2.225  11.090 -0.1067 -0.1329 -0.0365
    1Sil    Sib 1766   3.216   2.165  10.306 -0.1323 -0.0387 -0.0333
    1Sil    Sib 1767   3.180   2.221  11.196  0.3027  0.2629  0.1075
    1Sil    Sib 1768   2.940   2.208  10.411 -0.0835  0.0425 -0.3253
    1Sil    Sib 1769   3.471   2.163  10.799  0.2557 -0.1065 -0.0420
    1Sil    Sib 1770   3.085   1.970  10.769  0.2155 -0.4165 -0.4265
    1Sil    Sib 1771   3.616   1.980  11.155  0.1697 -0.2828 -0.1526
    1Sil    Sib 1772   3.368   1.912  10.350  0.1733  0.2388  0.1226
    1Sil    Sib 1773   3.603   1.965  11.448 -0.5700 -0.1744  0.1948
    1Sil    Sib 1774   3.014   1.962  12.249 -0.0468  0.2474  0.0661
    1Sil    Sib 1775   3.307   1.929  11.843  0.0414 -0.0574  0.0148
    1Sil    Sib 1776   2.866   2.209  11.897  0.1912  0.2150  0.2524
    1Sil    Sib 1777   3.399   2.210  12.287 -0.0886 -0.2719 -0.1663
    1Sil    Sib 1778   3.152   2.168  11.492  0.0043  0.2144  0.4059
    1Sil    Sib 1779   3.116   2.212  12.385 -0.4079  0.0855 -0.2726
    1Sil    Sib 1780   2.870   2.215  11.592 -0.3060 -0.0964  0.2122
    1Sil    Sib 1781   3.414   2.171  11.988 -0.0731 -0.0428 -0.1493
    1Sil    Sib 1782   3.028   1.966  11.953 -0.5039 -0.6389  0.0259
    1Sil    Sib 1783   3.564   1.961  12.347 -0.3789 -0.0744 -0.3485
    1Sil    Sib 1784   3.327   1.919  11.547  0.2316 -0.1614 -0.3059
    1Sil    Sib 1785   3.662   2.461  10.256 -0.0127  0.1780  0.2147
    1Sil    Sib 1786   3.072   2.469  11.061  0.2952  0.0282  0.1104
    1Sil    Sib 1787   3.372   2.413  10.665 -0.2959  0.2091 -0.6985
    1Sil    Sib 1788   2.922   2.709  10.699  0.1429  0.2850  0.5105
    1Sil    Sib 1789   3.458   2.715  11.105  0.3804  0.3268  0.3797
    1Sil    Sib 1790   3.215   2.654  10.295 -0.1096 -0.4250  0.0375
    1Sil    Sib 1791   3.179   2.717  11.188  0.2643  0.0907  0.0471
    1Sil    Sib 1792   2.939   2.706  10.383  0.1274 -0.1443 -0.0126
    1Sil    Sib 1793   3.477   2.669  10.805  0.0054  0.4917 -0.2349
    1Sil    Sib 1794   3.091   2.472  10.765 -0.4147 -0.2233 -0.2304
    1Sil    Sib 1795   3.617   2.469  11.164  0.1180 -0.0333 -0.0659
    1Sil    Sib 1796   3.380   2.410  10.364  0.3442 -0.2503  0.3521
    1Sil    Sib 1797   3.605   2.460  11.460  0.1801  0.0578 -0.2568
    1Sil    Sib 1798   3.010   2.465  12.250 -0.4265  0.0800  0.0969
    1Sil    Sib 1799   3.313   2.408  11.850 -0.2642 -0.2820 -0.1213
    1Sil    Sib 1800   2.867   2.699  11.886 -0.3917  0.2999  0.0434
    1Sil    Sib 1801   3.398   2.709  12.286  0.1757  0.5819  0.0730
    1Sil    Sib 1802   3.159   2.660  11.488 -0.2130  0.3891  0.2981
    1Sil    Sim 1803   3.118   2.713  12.388 -0.0613 -0.3159  0.1089
    1Sil    Sib 1804   2.886   2.703  11.585 -0.5770  0.1968  0.0552
    1Sil    Sib 1805   3.415   2.656  11.986 -0.2620 -0.4656 -0.1548
    1Sil    Sib 1806   3.027   2.458  11.952  0.5783 -0.3394  0.1236
    1Sil    Sib 1807   3.556   2.459  12.349  0.0428 -0.2042 -0.3559
    1Sil    Sib 1808   3.317   2.416  11.555 -0.1153 -0.2107  0.1956
    1Sil    Sib 1809   3.656   2.962  10.272  0.1074 -0.1979 -0.1396
    1Sil    Sib 1810   3.068   2.960  11.052 -0.1401 -0.0658 -0.0125
    1Sil    Sib 1811   3.354   2.904  10.655 -0.3066 -0.0901 -0.0294
    1Sil    Sib 1812   2.907   3.197  10.702 -0.1620 -0.2468 -0.0281
    1Sil    Sib 1813   3.447   3.213  11.084  0.2933  0.3370 -0.4822
    1Sil    Sib 1814   3.209   3.156  10.305 -0.3109 -0.7681 -0.4127
    1Sil    Sib 1815   3.174   3.204  11.190  0.4245  0.1632 -0.2880
    1Sil    Sib 1816   2.929   3.201  10.404 -0.5833 -0.2109 -0.2815
    1Sil    Sib 1817   3.463   3.159  10.791  0.1796  0.2618 -0.1824
    1Sil    Sib 1818   3.072   2.958  10.762  0.1478  0.1497 -0.3175
    1Sil    Sib 1819   3.620   2.972  11.153 -0.2406  0.0312  0.0531
    1Sil    Sib 1820   3.373   2.909  10.361  0.5540  0.0137  0.4350
    1Sil    Sib 1821   3.608   2.955  11.452 -0.4508  0.1535  0.0939
    1Sil    Sib 1822   3.023   2.951  12.245  0.8704  0.8729  0.0205
    1Sil    Sib 1823   3.307   2.901  11.848 -0.1003  0.2821  0.1130
    1Sil    Sib 1824   2.863   3.206  11.893  0.3244  0.1252  0.3649
    1Sil    Sib 1825   3.405   3.205  12.291 -0.5214 -0.2394  0.1666
    1Sil    Sib 1826   3.166   3.144  11.487 -0.0285  0.2054  0.0405
    1Sil    Sib 1827   3.125   3.192  12.382 -0.2064  0.0780 -0.5320
    1Sil    Sib 1828   2.874   3.194  11.587  0.5070 -0.2386 -0.2899
    1Sil    Sib 1829   3.423   3.144  11.997  0.3328 -0.0056 -0.0967
    1Sil    Sib 1830   3.022   2.956  11.941 -0.0989  0.4118 -0.2012
    1Sil    Sib 1831   3.564   2.955  12.339 -0.0659 -0.2852 -0.6706
    1Sil    Sib 1832   3.329   2.899  11.553 -0.1553  0.0475 -0.2883
    1Sil    Sib 1833   3.653   3.455  10.250 -0.4472  0.2388  0.3454
    1Sil    Sib 1834   3.067   3.455  11.060 -0.3168  0.6775 -0.3031
    1Sil    Sib 1835   3.359   3.396  10.658 -0.0765  0.3294  0.5656
    1Sil    Sib 1836   2.913   3.692  10.699 -0.0320  0.0428 -0.1679
    1Sil    Sib 1837   3.458   3.699  11.095  0.0519 -0.2636  0.1681
    1Sil    Sib 1838   3.203   3.647  10.295 -0.2796  0.3864  0.1357
    1Sil    Sib 1839   3.180   3.706  11.204 -0.1076  0.1644  0.2089
    1Sil    Sib 1840   2.919   3.697  10.401  0.2525  0.0400  0.3629
    1Sil    Sib 1841   3.463   3.648  10.800  0.1635  0.0011 -0.1143
    1Sil    Sib 1842   3.076   3.440  10.757 -0.0839 -0.0844 -0.0424
    1Sil    Sib 1843   3.614   3.444  11.157 -0.3523  0.9274  0.0150
    1Sil    Sib 1844   3.369   3.401  10.357  0.2534 -0.3945 -0.5368
    1Sil    Sib 1845   3.597   3.446  11.457 -0.4587  0.1555 -0.4211
    1Sil    Sib 1846   3.025   3.449  12.261 -0.5130 -0.2357  0.0117
    1Sil    Sib 1847   3.309   3.389  11.857  0.0698 -0.4175  0.0538
    1Sil    Sib 1848   2.869   3.693  11.891  0.5029  0.2310 -0.8201
    1Sil    Sib 1849   3.413   3.688  12.283 -0.3288  0.2676  0.0296
    1Sil    Sib 1850   3.162   3.650  11.498  0.3796  0.5408  0.0232
    1Sil    Sib 1851   3.133   3.702  12.390 -0.4507  0.3260  0.0722
    1Sil    Sib 1852   2.873   3.697  11.594  0.0043  0.2729 -0.4362
    1Sil    Sib 1853   3.401   3.640  11.988 -0.2382  0.0857  0.3072
    1Sil    Sib 1854   3.032   3.446  11.959  0.2024  0.0342  0.4926
    1Sil    Sib 1855   3.567   3.443  12.343 -0.2800 -0.2971  0.1672
    1Sil    Sib 1856   3.322   3.399  11.559  0.2579 -0.1080 -0.2483
    1Sil    Sib 1857   3.651   3.947  10.267  0.2417  0.1946  0.1607
    1Sil    Sib 1858   3.070   3.942  11.056  0.0269 -0.2692 -0.7263
    1Sil    Sib 1859   3.359   3.894  10.655  0.1464  0.4444  0.1111
    1Sil    Sib 1860   2.917   4.191  10.701 -0.4154  0.1006 -0.1238
    1Sil    Sib 1861   3.454   4.203  11.097  0.1181  0.1329 -0.1920
    1Sil    Sib 1862   3.211   4.144  10.302 -0.1738  0.0158 -0.1971
    1Sil    Sib 1863   3.166   4.192  11.188 -0.1276  0.2489  0.5354
    1Sil    Sib 1864   2.927   4.209  10.396 -0.3566  0.0939  0.1133
    1Sil    Sib 1865   3.462   4.132  10.808  0.3286  0.2688  0.1285
    1Sil    Sib 1866   3.085   3.942  10.750  0.1179  0.2443 -0.3802
    1Sil    Sib 1867   3.617   3.947  11.159  0.1580  0.3272 -0.1857
    1Sil    Sib 1868   3.371   3.894  10.354  0.1543 -0.1841 -0.0854
    1Sil    Sib 1869   3.594   3.951  11.459 -0.1962  0.1258 -0.4978
    1Sil    Sib 1870   3.016   3.947  12.255 -0.0010 -0.5122  0.0074
    1Sil    Sib 1871   3.305   3.899  11.864 -0.0820  0.1042  0.2154
    1Sil    Sib 1872   2.859   4.189  11.895 -0.0118 -0.5875 -0.1482
    1Sil    Sib 1873   3.412   4.187  12.282  0.3707  0.2480 -0.1412
    1Sil    Sib 1874   3.161   4.138  11.490  0.4234 -0.4098  0.0054
    1Sil    Sib 1875   3.138   4.186  12.383 -0.1433 -0.2161  0.0111
    1Sil    Sib 1876   2.877   4.187  11.590  0.4896 -0.6067  0.1932
    1Sil    Sib 1877   3.412   4.147  11.984 -0.0878  0.1472  0.4276
    1Sil    Sib 1878   3.022   3.946  11.949  0.1811 -0.0101 -0.4014
    1Sil    Sib 1879   3.559   3.935  12.330  0.4414 -0.0547 -0.4681
    1Sil    Sib 1880   3.318   3.891  11.564  0.5500  0.8645 -0.1905
    1Sil    Sib 1881   3.642   4.437  10.269 -0.6726 -0.4665 -0.1277
    1Sil    Sib 1882   3.059   4.442  11.060 -0.3374  0.5368 -0.1749
    1Sil    Sib 1883   3.358   4.392  10.670  0.0854 -0.4784  0.5688
    1Sil    Sib 1884   2.908   1.245  10.695 -0.3437  0.1522 -0.2601
    1Sil    Sib 1885   3.460   1.247  11.097 -0.2410 -0.3883  0.1841
    1Sil    Sib 1886   3.207   1.183  10.299  0.2406  0.1078  0.2261
    1Sil    Sib 1887   3.169   1.241  11.199  0.0167  0.5679 -0.3655
    1Sil    Sib 1888   2.927   1.256  10.400  0.1307  0.2940  0.3164
    1Sil    Sib 1889   3.466   1.184  10.799  0.2575 -0.1704  0.5256
    1Sil    Sib 1890   3.077   4.443  10.764  0.0095  0.0327 -0.1154
    1Sil    Sib 1891   3.619   4.446  11.152  0.1525 -0.1708  0.2452
    1Sil    Sib 1892   3.369   4.396  10.377 -0.5752  0.2707  0.0131
    1Sil    Sib 1893   3.607   4.444  11.450  0.0787 -0.4252  0.2138
    1Sil    Sib 1894   3.026   4.433  12.245  0.1786 -0.0394 -0.1915
    1Sil    Sib 1895   3.301   4.389  11.844 -0.3367  0.0017  0.2299
    1Sil    Sib 1896   2.866   1.231  11.888 -0.0720 -0.2312 -0.5440
    1Sil    Sib 1897   3.408   1.233  12.279  0.4111 -0.1434 -0.1443
    1Sil    Sib 1898   3.158   1.179  11.500 -0.4607 -0.0354 -0.1146
    1Sil    Sib 1899   3.129   1.227  12.388 -0.5884  0.2767  0.3870
    1Sil    Sib 1900   2.863   1.229  11.588 -0.4363 -0.4878 -0.0406
    1Sil    Sib 1901   3.408   1.186  11.993 -0.0845  0.5203  0.1175
    1Sil    Sib 1902   3.023   4.434  11.943  0.0794  0.0782  0.1219
    1Sil    Sib 1903   3.568   4.436  12.345 -0.4956  0.2371 -0.1793
    1Sil    Sib 1904   3.321   4.382  11.545  0.0766  0.0062  0.4345
    1Sil    Sib 1905   1.173   1.483  10.260  0.3735  0.0259 -0.1939
    1Sil    Sib 1906   3.902   1.493  11.060 -0.0978  0.2529  0.1684
    1Sil    Sib 1907   0.870   1.423  10.650 -0.1930  0.2987 -0.4379
    1Sil    Sib 1908   3.756   1.732  10.698  0.3432 -0.9239  0.1071
    1Sil    Sib 1909   4.282   1.721  11.085 -0.2078  0.6961 -0.0377
    1Sil    Sib 1910   4.040   1.671  10.283 -0.1899  0.1621  0.4291
    1Sil    Sib 1911   3.999   1.742  11.200 -0.3521 -0.1700 -0.0905
    1Sil    Sib 1912   3.771   1.733  10.397  0.4971  0.3702  0.2145
    1Sil    Sib 1913   0.975   1.674  10.789 -0.3220 -0.0050  0.1311
    1Sil    Sib 1914   3.907   1.488  10.755  0.2605 -0.0023  0.0450
    1Sil    Sib 1915   1.132   1.474  11.153 -0.0582 -0.1507 -0.2151
    1Sil    Sib 1916   0.891   1.426  10.340  0.0538  0.0301 -0.3934
    1Sil    Sib 1917   1.116   1.474  11.459  0.1865 -0.1696  0.3370
    1Sil    Sib 1918   3.838   1.477  12.239 -0.0381 -0.0732 -0.0921
    1Sil    Sib 1919   0.819   1.437  11.858 -0.1218 -0.2526  0.0462
    1Sil    Sib 1920   3.690   1.739  11.894  0.5701  0.6316 -0.1166
    1Sil    Sib 1921   4.233   1.724  12.274 -0.1106 -0.1951 -0.3699
    1Sil    Sib 1922   3.982   1.669  11.498  0.0196 -0.0668 -0.2809
    1Sil    Sib 1923   3.950   1.723  12.373  0.1246  0.2854 -0.1879
    1Sil    Sib 1924   3.704   1.718  11.593  0.0652  0.0041 -0.2834
    1Sil    Sib 1925   0.929   1.681  11.980 -0.0392 -0.3942  0.6297
    1Sil    Sib 1926   3.851   1.481  11.947 -0.0608  0.0789 -0.0305
    1Sil    Sib 1927   1.071   1.476  12.327  0.2894 -0.2412 -0.5168
    1Sil    Sib 1928   0.835   1.429  11.553 -0.2877  0.1282  0.3670
    1Sil    Sib 1929   1.165   1.978  10.255  0.3425 -0.0282  0.0590
    1Sil    Sib 1930   3.892   1.984  11.058  0.1458  0.1923 -0.3389
    1Sil    Sib 1931   0.862   1.914  10.650  0.2741 -0.1585  0.4878
    1Sil    Sib 1932   3.748   2.236  10.700  0.3822  0.3894  0.0053
    1Sil    Sib 1933   4.284   2.219  11.084 -0.2112  0.0608 -0.0317
    1Sil    Sim 1934   4.034   2.162  10.288  0.3234  0.4112 -0.3406
    1Sil    Sib 1935   4.011   2.219  11.200 -0.3923 -0.4685 -0.5344
    1Sil    Sib 1936   3.756   2.218  10.393 -0.4495  0.1155  0.3996
    1Sil    Sib 1937   0.972   2.169  10.784  0.1044  0.2455 -0.3260
    1Sil    Sib 1938   3.905   1.983  10.753  0.5166 -0.1150 -0.3148
    1Sil    Sib 1939   1.122   1.967  11.140  0.2536 -0.1646 -0.0774
    1Sil    Sib 1940   4.200   1.913  10.354  0.1445 -0.1402 -0.1651
    1Sil    Sib 1941   1.113   1.961  11.449  0.3845 -0.1466 -0.1133
    1Sil    Sib 1942   3.846   1.972  12.247  0.1317  0.0433 -0.1761
    1Sil    Sib 1943   0.827   1.925  11.844 -0.4466 -0.3617 -0.4386
    1Sil    Sib 1944   3.698   2.209  11.886 -0.1165 -1.0237  0.0722
    1Sil    Sib 1945   4.231   2.212  12.299  0.3460 -0.5714  0.1779
    1Sil    Sib 1946   3.995   2.160  11.491 -0.1562 -0.0436 -0.2090
    1Sil    Sib 1947   3.946   2.221  12.393  0.5562  0.4783 -0.0268
    1Sil    Sib 1948   3.711   2.206  11.592 -0.1122  0.1139  0.4392
    1Sil    Sib 1949   0.921   2.162  11.994 -0.1676  0.0158 -0.2736
    1Sil    Sib 1950   3.863   1.966  11.939  0.3104 -0.5301  0.2428
    1Sil    Sib 1951   1.074   1.963  12.359  0.1149  0.1445 -0.0209
    1Sil    Sib 1952   4.153   1.916  11.553  0.0805 -0.6356 -0.2593
    1Sil    Sib 1953   1.168   2.464  10.256  0.4136  0.5003  0.5796
    1Sil    Sib 1954   3.905   2.463  11.064  0.0308  0.0110  0.1866
    1Sil    Sib 1955   0.884   2.422  10.659  0.0601 -0.1968 -0.2866
    1Sil    Sib 1956   3.753   2.717  10.702  0.0323  0.3373 -0.1149
    1Sil    Sib 1957   4.283   2.719  11.099  0.1930 -0.1271 -0.0821
    1Sil    Sib 1958   4.046   2.667  10.278  0.1056 -0.0516 -0.2296
    1Sil    Sib 1959   4.003   2.713  11.187 -0.2791 -0.1535  0.1804
    1Sil    Sib 1960   3.771   2.707  10.397  0.3869  0.8288  0.0008
    1Sil    Sib 1961   0.987   2.663  10.799  0.0492  0.0741 -0.0823
    1Sil    Sib 1962   3.921   2.474  10.765 -0.4343  0.1166 -0.0185
    1Sil    Sib 1963   1.127   2.467  11.165 -0.1705 -0.1629 -0.5668
    1Sil    Sib 1964   4.203   2.416  10.354  0.0541  0.3539  0.1055
    1Sil    Sib 1965   1.105   2.458  11.460 -0.0632  0.5146  0.3344
    1Sil    Sib 1966   3.838   2.464  12.251 -0.2371 -0.0720  0.5912
    1Sil    Sib 1967   0.820   2.414  11.855  0.2810 -0.2942 -0.1082
    1Sil    Sib 1968   3.696   2.721  11.889  0.0119  0.3091 -0.3998
    1Sil    Sib 1969   4.232   2.722  12.279 -0.1918  0.0549 -0.0366
    1Sil    Sib 1970   3.986   2.655  11.487  0.0298  0.5588 -0.1553
    1Sil    Sib 1971   3.951   2.712  12.377  0.4779  0.2944 -0.0668
    1Sil    Sib 1972   3.710   2.712  11.587  0.3888  0.2232 -0.4080
    1Sil    Sib 1973   0.919   2.670  11.984  0.0384 -0.2816  0.4134
    1Sil    Sib 1974   3.855   2.470  11.944  0.0253 -0.2943 -0.0225
    1Sil    Sib 1975   1.072   2.476  12.342 -0.4026 -0.2375 -0.1204
    1Sil    Sib 1976   4.155   2.405  11.560  0.2862  0.0466 -0.5430
    1Sil    Sib 1977   1.162   2.965  10.252 -0.3797 -0.0101 -0.2927
    1Sil    Sib 1978   3.905   2.968  11.050  0.0134 -0.7124 -0.2516
    1Sil    Sib 1979   0.883   2.909  10.657  0.0700 -0.3641  0.1833
    1Sil    Sib 1980   3.740   3.204  10.698 -0.1659  0.3925 -0.2962
    1Sil    Sib 1981   4.288   3.210  11.104 -0.3403 -0.3361 -0.3626
    1Sil    Sib 1982   4.036   3.164  10.296  0.5658  0.4017  0.0912
    1Sil    Sib 1983   3.999   3.218  11.198 -0.3211  0.0491 -0.2292
    1Sil    Sib 1984   3.752   3.209  10.402  0.2280  0.0926  0.4832
    1Sil    Sib 1985   0.976   3.159  10.796 -0.1935  0.2481 -0.0745
    1Sil    Sib 1986   3.920   2.963  10.751  0.3610  0.0466 -0.3534
    1Sil    Sib 1987   1.130   2.965  11.154 -0.2262 -0.4611 -0.6890
    1Sil    Sib 1988   4.204   2.913  10.353 -0.0253 -0.0211  0.0100
    1Sil    Sib 1989   1.111   2.942  11.455  0.1053  0.2152 -0.2244
    1Sil    Sib 1990   3.841   2.964  12.249  0.3801  0.6188  0.0252
    1Sil    Sib 1991   0.816   2.907  11.843 -0.2783  0.1578 -0.2015
    1Sil    Sib 1992   3.697   3.201  11.895  0.1705  0.5138 -0.1927
    1Sil    Sib 1993   4.228   3.197  12.275  0.4623 -0.3816  0.1981
    1Sil    Sib 1994   3.983   3.147  11.489  0.6245  0.5334 -0.3155
    1Sil    Sib 1995   3.944   3.205  12.375 -0.0237  0.0766  0.0136
    1Sil    Sib 1996   3.703   3.197  11.598 -0.3995 -0.2486 -0.2021
    1Sil    Sib 1997   0.921   3.147  11.988  0.3442  0.0527  0.0380
    1Sil    Sib 1998   3.863   2.957  11.954  0.1122  0.5458  0.2477
    1Sil    Sib 1999   1.069   2.958  12.356  0.1462  0.4263 -0.3565
    1Sil    Sib 2000   4.148   2.901  11.548  0.0708  0.2144 -0.0433
    1Sil    Sib 2001   1.156   3.463  10.260 -0.2164  0.3776  0.4048
    1Sil    Sib 2002   3.895   3.462  11.054  0.2400 -0.1062 -0.0576
    1Sil    Sib 2003   0.867   3.404  10.656  0.5938  0.5764  0.7438
    1Sil    Sib 2004   3.748   3.692  10.702 -0.3403  0.2236  0.3505
    1Sil    Sib 2005   4.292   3.703  11.087 -0.2179  0.1229  0.3687
    1Sil    Sib 2006   4.034   3.652  10.296  0.4763  0.4541  0.1533
    1Sil    Sib 2007   4.012   3.703  11.191 -0.5188 -0.0073 -0.0510
    1Sil    Sib 2008   3.751   3.699  10.397 -0.4998  0.1376 -0.7003
    1Sil    Sib 2009   0.987   3.645  10.795  0.3940 -0.2359 -0.1063
    1Sil    Sib 2010   3.905   3.450  10.761  0.0258 -0.1922 -0.6667
    1Sil    Sib 2011   1.132   3.452  11.154  0.1681 -0.3677 -0.3083
    1Sil    Sib 2012   4.198   3.404  10.351 -0.1156 -0.2310 -0.0588
    1Sil    Sib 2013   1.116   3.437  11.451  0.0786 -0.1939  0.2271
    1Sil    Sib 2014   3.850   3.454  12.247 -0.1031  0.0080  0.3838
    1Sil    Sib 2015   0.815   3.402  11.843  0.4760 -0.1085 -0.4954
    1Sil    Sib 2016   3.680   3.698  11.886  0.6383 -0.1292  0.1448
    1Sil    Sib 2017   4.228   3.687  12.287 -0.3886 -0.1343 -0.7559
    1Sil    Sib 2018   4.000   3.639  11.489 -0.5254 -0.3007  0.0319
    1Sil    Sim 2019   3.943   3.690  12.397 -0.1369 -0.5758  0.4242
    1Sil    Sib 2020   3.710   3.694  11.583 -0.6990  0.2738 -0.2257
    1Sil    Sib 2021   0.931   3.639  11.995  0.1512 -0.0569  0.3122
    1Sil    Sib 2022   3.857   3.463  11.944  0.2631 -0.4946  0.3130
    1Sil    Sib 2023   1.072   3.445  12.346 -0.2375 -0.5743 -0.0892
    1Sil    Sib 2024   4.155   3.386  11.544 -0.0089 -0.0077 -0.2482
    1Sil    Sib 2025   1.175   3.948  10.268  0.4041 -0.0081  0.1021
    1Sil    Sib 2026   3.904   3.945  11.054 -0.0087  0.4115  0.4119
    1Sil    Sib 2027   0.875   3.891  10.660  0.1275  0.0198  0.0671
    1Sil    Sib 2028   3.741   4.190  10.709 -0.0439 -0.4849 -0.3537
    1Sil    Sib 2029   4.285   4.203  11.091 -0.2565  0.1129 -0.3874
    1Sil    Sib 2030   4.042   4.134  10.310  0.0464  0.6593  0.1195
    1Sil    Sib 2031   4.003   4.189  11.198 -0.0587  0.2873 -0.1694
    1Sil    Sib 2032   3.757   4.195  10.406  0.0709  0.3025  0.0147
    1Sil    Sib 2033   0.985   4.144  10.793  0.1724  0.1517  0.2350
    1Sil    Sib 2034   3.915   3.936  10.761  0.4980 -0.1373  0.0479
    1Sil    Sib 2035   1.126   3.952  11.149 -0.0392  0.1537 -0.2392
    1Sil    Sib 2036   4.208   3.887  10.354  0.0331 -0.1806 -0.0397
    1Sil    Sib 2037   1.119   3.945  11.446  0.5504  0.4417  0.3598
    1Sil    Sib 2038   3.847   3.933  12.245  0.0797  0.2371  0.0219
    1Sil    Sib 2039   0.824   3.883  11.850  0.4111 -0.4766  0.3074
    1Sil    Sib 2040   3.689   4.190  11.889 -0.1229  0.2548  0.1275
    1Sil    Sib 2041   4.222   4.184  12.288 -0.0318  0.0695  0.0720
    1Sil    Sib 2042   3.990   4.128  11.487  0.4343  0.1112 -0.1283
    1Sil    Sib 2043   3.951   4.176  12.382  0.0337  0.1616 -0.3496
    1Sil    Sib 2044   3.714   4.195  11.585 -0.6144  0.3730  0.8227
    1Sil    Sib 2045   0.915   4.125  11.991 -0.3238  0.2227  0.1788
    1Sil    Sib 2046   3.857   3.942  11.945  0.3278 -0.0502 -0.0984
    1Sil    Sib 2047   1.069   3.940  12.339 -0.2176 -0.4396  0.2969
    1Sil    Sib 2048   4.158   3.884  11.548 -0.2168 -0.3680 -0.0822
    1Sil    Sib 2049   1.164   4.435  10.255  0.0947  0.0959  0.0774
    1Sil    Sib 2050   3.897   4.442  11.060  0.0889  0.1640 -0.5345
    1Sil    Sib 2051   0.875   4.392  10.653 -0.0792 -0.3789 -0.1850
    1Sil    Sib 2052   3.749   1.240  10.707  0.7403  0.2459  0.2099
    1Sil    Sib 2053   0.964   1.234  11.092  0.0420 -0.0970  0.4978
    1Sil    Sib 2054   0.714   1.180  10.285  0.0170  0.3008  0.4323
    1Sil    Sib 2055   3.997   1.242  11.196 -0.4720  0.1437 -0.0900
    1Sil    Sib 2056   3.757   1.236  10.401  0.2606 -0.0873  0.4079
    1Sil    Sib 2057   0.971   1.181  10.796 -0.4344  0.2969  0.1101
    1Sil    Sib 2058   3.905   4.434  10.764 -0.4994  0.0579  0.7104
    1Sil    Sib 2059   1.131   4.440  11.153  0.5625 -0.5309  0.3642
    1Sil    Sib 2060   4.197   4.388  10.355 -0.0743  0.5455 -0.1015
    1Sil    Sib 2061   1.109   4.435  11.446  0.0189 -0.2018 -0.3564
    1Sil    Sib 2062   3.843   4.422  12.251  0.2231 -0.1298  0.0927
    1Sil    Sib 2063   0.816   4.380  11.846 -0.0534  0.3517 -0.0016
    1Sil    Sib 2064   3.690   1.231  11.892  0.0827  0.1361  0.1080
    1Sil    Sib 2065   0.908   1.230  12.276  0.3078  0.3429 -0.1060
    1Sil    Sib 2066   0.672   1.188  11.498  0.0219  0.1826 -0.1687
    1Sil    Sib 2067   3.947   1.234  12.374  0.1638  0.1357  0.0810
    1Sil    Sib 2068   3.710   1.237  11.594  0.1147  0.2902  0.0670
    1Sil    Sib 2069   0.923   1.183  11.984 -0.2967 -0.0359 -0.3530
    1Sil    Sib 2070   3.850   4.426  11.946 -0.3704  0.1849  0.8405
    1Sil    Sib 2071   1.064   4.434  12.340 -0.0745 -0.3006  0.1967
    1Sil    Sib 2072   4.142   4.383  11.547 -0.1098  0.2448  0.0417
    1Sil     Hy 2073   1.979   1.499  10.041 -1.8469 -1.5786 -1.0584
    1Sil     Hy 2074   1.580   1.645  10.082 -1.6940  1.0076 -3.1899
    1Sil     Hy 2075   1.342   1.740  12.574 -1.1188 -1.5712 -0.9867
    1Sil     Hy 2076   1.914   1.544  12.533 -2.7488  1.8298 -3.6524
    1Sil     Hy 2077   2.031   1.858  10.083  2.8401 -0.9399  2.3344
    1Sil     Hy 2078   1.570   2.255  10.100 -1.3566  0.3055 -1.1941
    1Sil     Hy 2079   1.383   2.297  12.567  0.5678  1.6230 -3.2989
    1Sil     Hy 2080   1.921   2.035  12.526  2.6531  0.3247  0.1301
    1Sil     Hy 2081   2.108   2.390  10.102 -0.4361  0.2703 -1.3474
    1Sil     Hy 2082   1.595   2.685  10.088  0.0561  0.4472 -1.1765
    1Sil     Hy 2083   1.514   2.688  12.593  0.6709 -0.3824 -0.6888
    1Sil     Hy 2084   1.931   2.534  12.540  1.2950  0.6423  0.2481
    1Sil     Hy 2085   2.045   2.993  10.053  0.1588 -0.5278 -1.0239
    1Sil     Hy 2086   1.513   3.231  10.123  1.1547 -0.3990  0.2648
    1Sil     Hy 2087   1.345   3.272  12.552  1.9165  1.7329 -2.3593
    1Sil     Hy 2088   1.883   3.008  12.541  1.0425  0.6462 -0.9043
    1Sil     Hy 2089   2.124   3.496  10.095 -1.1762  1.2750  0.9138
    1Sil     Hy 2090   1.577   3.662  10.094 -0.9903 -0.6280 -0.5079
    1Sil     Hy 2091   1.486   3.616  12.580  0.2868  0.9463  0.3161
    1Sil     Hm 2092   2.006   3.401  12.555  0.9806  0.8322 -2.5518
    1Sil     Hm 2093   1.890   3.529  12.570 -3.0562  0.5799 -0.2658
    1Sil     Hm 2094   1.825   3.367  12.558 -1.1536  1.9474 -1.0809
    1Sil     Hy 2095   2.050   3.990  10.055 -2.1979 -1.9624 -2.0422
    1Sil     Hy 2096   1.544   4.100  10.090 -2.9271 -0.4341 -3.0320
    1Sil     Hy 2097   1.423   4.260  12.570 -1.5525  0.6133  0.4844
    1Sil     Hy 2098   1.885   3.998  12.531 -1.3195 -0.2812  0.2061
    1Sil     Hy 2099   2.042   4.478  10.050 -3.0762 -0.6348 -0.9826
    1Sil     Hm 2100   1.519   1.317  10.110 -1.1037  0.2138  0.8870
    1Sil     Hm 2101   1.419   1.169  10.108 -0.9923  0.7176  2.3313
    1Sil     Hm 2102   1.593   1.167  10.083  0.7539 -0.7566  1.9656
    1Sil     Hy 2103   1.429   1.281  12.585  0.3015  0.5353 -1.0704
    1Sil     Hy 2104   1.879   4.478  12.534  0.9104  2.0605 -1.0552
    1Sil     Hy 2105   2.847   1.575  10.077  0.5189  0.2003 -0.9720
    1Sil     Hy 2106   2.442   1.697  10.105  0.0907 -0.7182 -0.8881
    1Sil     Hm 2107   2.282   1.642  12.593 -0.9217 -0.7669  0.1334
    1Sil     Hm 2108   2.262   1.817  12.600 -0.4858  0.6084 -1.4191
    1Sil     Hm 2109   2.128   1.720  12.553  0.3625  0.4604  2.8511
    1Sil     Hy 2110   2.806   1.517  12.521 -0.5609 -0.4379  2.6291
    1Sil     Hy 2111   2.782   1.923  10.098  1.2057 -1.3616 -1.0333
    1Sil     Hy 2112   2.316   2.149  10.118  0.1329 -0.0260 -0.2645
    1Sil     Hy 2113   2.149   2.214  12.547 -0.0321  0.3046 -0.2713
    1Sil     Hy 2114   2.702   2.023  12.538  0.9046  0.1545  1.3212
    1Sil     Hy 2115   2.798   2.366  10.085  0.1390 -0.3894 -0.3392
    1Sil     Hy 2116   2.432   2.716  10.110  0.1459 -0.3681  0.1594
    1Sil     Hy 2117   2.154   2.680  12.537  0.1792  1.3522 -0.0475
    1Sil     Hy 2118   2.711   2.356  12.529  0.4553  0.2093  1.3183
    1Sil     Hm 2119   2.971   2.897  10.092  1.1244  1.5406 -2.3360
    1Sil     Hm 2120   2.800   2.888  10.047 -0.2708  0.2453  1.0761
    1Sil     Hm 2121   2.879   3.047  10.053  0.7410  0.4395 -1.1044
    1Sil     Hy 2122   2.390   3.073  10.109 -0.7984 -0.6547  1.1312
    1Sil     Hm 2123   2.327   3.114  12.601 -0.8002  0.1259  0.2544
    1Sil     Hm 2124   2.292   3.280  12.612 -1.7081  0.0052  1.1615
    1Sil     Hm 2125   2.156   3.180  12.576 -0.0939 -1.5446  2.2368
    1Sil     Hy 2126   2.741   3.018  12.563 -1.6606  0.6935 -1.0704
    1Sil     Hm 2127   2.914   3.315  10.094 -1.8691  0.1965  1.5269
    1Sil     Hm 2128   2.991   3.481  10.086  0.1583  1.4468 -1.7444
    1Sil     Hm 2129   2.836   3.461  10.023 -1.3843 -1.4710 -1.1466
    1Sil     Hy 2130   2.359   3.746  10.117 -1.5148 -0.4583 -0.5419
    1Sil     Hy 2131   2.200   3.755  12.559 -0.7907  0.6907 -0.8976
    1Sil     Hm 2132   2.845   3.486  12.556 -0.0108 -0.2846  0.1658
    1Sil     Hm 2133   2.677   3.470  12.566  1.2454  1.5485  0.5830
    1Sil     Hm 2134   2.767   3.325  12.561 -0.0727  1.3043  1.7598
    1Sil     Hy 2135   2.879   4.014  10.076  1.0506 -1.2432 -3.3213
    1Sil     Hy 2136   2.369   4.057  10.104 -0.9398  0.2652  0.3845
    1Sil     Hm 2137   2.131   4.145  12.542 -0.4217 -0.6376 -2.5414
    1Sil     Hm 2138   2.294   4.101  12.606 -1.7236 -0.6282  0.6340
    1Sil     Hm 2139   2.236   4.268  12.603 -2.2410  0.9768 -0.9153
    1Sil     Hy 2140   2.696   3.867  12.553  0.1582 -0.0619 -0.5543
    1Sil     Hy 2141   2.861   4.493  10.051 -1.7465  0.9522  2.2783
    1Sil     Hy 2142   2.393   1.136  10.097 -1.8520  0.1593 -1.7283
    1Sil     Hy 2143   2.308   1.126  12.561  0.8554 -1.2515 -3.8341
    1Sil     Hy 2144   2.672   4.437  12.524  1.3290 -3.8461  4.4810
    1Sil     Hy 2145   3.639   1.456  10.054  0.4695 -1.3397 -0.3353
    1Sil     Hy 2146   3.226   1.753  10.114 -0.6121  0.6188  2.0006
    1Sil     Hy 2147   3.070   1.769  12.591  0.4244 -0.2566  0.1857
    1Sil     Hy 2148   3.513   1.500  12.540 -1.1137 -0.8701 -0.2371
    1Sil     Hy 2149   3.670   1.878  10.067  0.7602  0.1530 -0.2317
    1Sil     Hy 2150   3.229   2.268  10.124  0.4808 -0.3583 -0.9232
    1Sil     Hy 2151   3.043   2.097  12.543  1.3354 -0.4828 -1.6443
    1Sil     Hy 2152   3.596   2.026  12.541  2.6413 -1.3206  2.5742
    1Sil     Hy 2153   3.752   2.543  10.093 -1.8358  2.5841  1.3273
    1Sil     Hy 2154   3.233   2.683  10.089 -1.3744  0.1437 -0.6436
    1Sil     Hm 2155   3.107   2.618  12.600 -1.4744 -0.6913 -0.3835
    1Sil     Hm 2156   3.067   2.784  12.615  3.1610  0.1535 -0.4794
    1Sil     Hm 2157   2.952   2.676  12.536  0.4293 -1.7598 -0.4937
    1Sil     Hy 2158   3.589   2.537  12.531  0.3956 -0.4733  1.2737
    1Sil     Hy 2159   3.624   2.938  10.064 -1.1102 -0.3733  1.2381
    1Sil     Hy 2160   3.226   3.130  10.099 -0.4842  0.6780 -1.3016
    1Sil     Hy 2161   3.084   3.066  12.534  0.7418  0.4386 -1.4647
    1Sil     Hy 2162   3.574   2.994  12.542  0.5523  0.7430  0.4739
    1Sil     Hy 2163   3.760   3.497  10.082  0.0662  0.7099  0.8362
    1Sil     Hy 2164   3.087   3.724  10.149 -0.9102 -1.4016  3.6328
    1Sil     Hy 2165   3.158   3.651  12.594 -0.5101  0.8716  1.1390
    1Sil     Hy 2166   3.581   3.481  12.553 -1.5711  0.0444 -0.5034
    1Sil     Hy 2167   3.654   3.961  10.065  2.4534 -0.3517 -2.2364
    1Sil     Hy 2168   3.262   4.196  10.110 -0.7053  0.8092  0.0957
    1Sil     Hy 2169   3.073   4.244  12.577 -1.0123 -1.2122  0.2498
    1Sil     Hy 2170   3.580   4.003  12.519 -0.3220  0.3053  0.5060
    1Sil     Hy 2171   3.624   4.451  10.061  0.8086  1.7194 -0.1169
    1Sil     Hy 2172   3.226   1.272  10.121 -0.0611  0.7392  0.2334
    1Sil     Hy 2173   3.086   1.265  12.588  0.9319  2.3229 -2.4564
    1Sil     Hy 2174   3.640   4.524  12.526 -0.8798 -0.6064  0.8719
    1Sil     Hy 2175   1.152   1.489  10.046 -0.4653  1.4682  0.3494
    1Sil     Hy 2176   4.051   1.636  10.073 -2.7490 -0.0715 -1.1780
    1Sil     Hy 2177   3.839   1.757  12.545 -0.4503 -1.3191  0.3261
    1Sil     Hy 2178   1.019   1.468  12.526 -0.7757  3.0099 -2.1502
    1Sil     Hy 2179   1.313   2.014  10.117  1.4103 -1.6832 -0.0214
    1Sil     Hm 2180   3.912   2.140  10.094  0.4276 -0.2787 -0.4068
    1Sil     Hm 2181   4.086   2.168  10.058  1.1342 -1.5845  1.7869
    1Sil     Hm 2182   3.983   2.306  10.099 -1.1480 -0.8809 -1.7946
    1Sil     Hy 2183   3.877   2.276  12.577  1.4054  0.8785 -1.7650
    1Sil     Hy 2184   1.051   1.873  12.547 -0.1387  0.6491 -0.2199
    1Sil     Hy 2185   1.160   2.515  10.054  0.0663 -0.9336 -2.0493
    1Sil     Hy 2186   4.073   2.740  10.084  1.3322 -2.9674 -0.6216
    1Sil     Hy 2187   3.982   2.706  12.587 -0.6947 -1.8405  0.7060
    1Sil     Hy 2188   1.093   2.567  12.523 -0.4284 -0.0229 -0.5522
    1Sil     Hy 2189   1.289   2.952  10.092  0.1776 -1.7134 -0.7906
    1Sil     Hy 2190   3.922   3.143  10.118  1.0598 -0.3737 -0.4872
    1Sil     Hy 2191   3.914   3.254  12.582  0.0190  0.6478  0.2584
    1Sil     Hy 2192   1.054   3.030  12.550  0.0090 -0.1990  0.0832
    1Sil     Hy 2193   1.146   3.392  10.072  0.6582 -0.5921  0.2054
    1Sil     Hy 2194   4.028   3.564  10.118 -1.3495 -2.1862  2.1163
    1Sil     Hm 2195   3.781   3.740  12.553 -1.1141 -1.3967 -3.8455
    1Sil     Hm 2196   3.841   3.589  12.584 -1.3978  0.3701 -0.0688
    1Sil     Hm 2197   3.947   3.725  12.626  2.1776  0.4199 -2.4518
    1Sil     Hy 2198   1.077   3.486  12.542 -1.1719  0.0615  0.0494
    1Sil     Hy 2199   1.203   3.995  10.065  0.0849 -0.9811 -1.1906
    1Sil     Hy 2200   4.003   4.092  10.105  2.3515  2.1363 -2.3805
    1Sil     Hy 2201   3.899   4.211  12.584  2.6716  0.7407  0.4502
    1Sil     Hy 2202   1.073   4.009  12.536 -0.7925 -1.8406  2.8708
    1Sil     Hy 2203   1.147   4.479  10.057 -0.3618  0.7133  0.5616
    1Sil     Hy 2204   0.564   1.257  10.159 -0.6628 -0.9710  0.0903
    1Sil     Hy 2205   3.900   1.299  12.554 -0.2320 -0.0279 -0.4367
    1Sil     Hy 2206   1.146   4.498  12.522 -0.7329  0.8094 -0.7679
    2Eth     Ho 2207   1.010   0.843   5.590  0.5970 -0.1626  0.1142
    2Eth     Oh 2208   0.986   0.761   5.629  0.1590  0.1874  0.5936
    2Eth     Co 2209   1.094   0.717   5.706  0.8416  0.0080  0.2810
    2Eth    Hco 2210   1.147   0.802   5.748 -1.6253  2.3013 -1.1149
    2Eth    Hco 2211   1.152   0.651   5.641 -2.7495 -0.8284 -2.2322
    2Eth     Ch 2212   1.065   0.623   5.819  0.2995  0.0657 -0.5047
    2Eth    Hcc 2213   1.005   0.659   5.903  1.6776  0.8497  0.1663
    2Eth    Hcc 2214   1.157   0.581   5.859 -0.3758  0.6928  1.7857
    2Eth    Hcc 2215   1.011   0.531   5.793 -1.1725  0.5612  0.7073
    3Eth     Ho 2216   0.127   3.149   8.639 -0.8994  0.1076  1.8134
    3Eth     Oh 2217   0.125   3.055   8.638 -0.0775  0.0809 -0.3699
    3Eth     Co 2218   0.212   3.020   8.531 -0.0542  0.3834 -0.1295
    3Eth    Hco 2219   0.315   3.052   8.550  1.1171 -2.3257 -1.6135
    3Eth    Hco 2220   0.173   3.064   8.440  2.2363 -1.2400 -1.9588
    3Eth     Ch 2221   0.226   2.868   8.517 -0.7709  0.5183 -0.0716
    3Eth    Hcc 2222   0.267   2.852   8.417 -0.1789  0.0205  0.2499
    3Eth    Hcc 2223   0.131   2.818   8.532 -0.7505  0.6866  0.6116
    3Eth    Hcc 2224   0.292   2.839   8.599 -1.6773 -2.0011 -0.2175
    4Eth     Ho 2225   2.869   0.057   6.290 -0.1166 -1.9810 -0.6219
    4Eth     Oh 2226   2.918   0.018   6.360  0.6424 -0.2572 -0.1876
    4Eth     Co 2227   3.044  -0.010   6.308 -0.3536  0.8224 -0.1151
    4Eth    Hco 2228   3.076   0.058   6.229 -0.6380  0.2692 -0.7169
    4Eth    Hco 2229   3.031  -0.102   6.250  0.9536  1.3342 -1.2391
    4Eth     Ch 2230   3.164  -0.001   6.405 -0.1585 -0.1113 -0.7183
    4Eth    Hcc 2231   3.180   0.099   6.447 -0.7863 -0.1627 -0.3454
    4Eth    Hcc 2232   3.259  -0.024   6.358  0.4828 -0.5472  0.7736
    4Eth    Hcc 2233   3.162  -0.073   6.487 -0.6045 -0.6327 -1.1829
    5Eth     Ho 2234   1.090   1.243   8.842 -1.3976  0.1154  0.1266
    5Eth     Oh 2235   1.065   1.218   8.755 -0.1142 -0.3462 -0.1145
    5Eth     Co 2236   0.984   1.101   8.762 -0.3682  0.9728  0.2544
    5Eth    Hco 2237   0.949   1.089   8.865 -3.6607 -0.7141 -0.9815
    5Eth    Hco 2238   1.056   1.023   8.738 -2.0037 -0.1092 -1.2293
    5Eth     Ch 2239   0.854   1.093   8.667 -0.2957  0.8099  0.2606
    5Eth    Hcc 2240   0.881   1.094   8.561  0.4152 -0.5659  0.4078
    5Eth    Hcc 2241   0.795   1.184   8.675  0.2680  1.1575  0.5418
    5Eth    Hcc 2242   0.803   0.998   8.683 -0.6101  0.6814 -1.3717
    6Eth     Ho 2243   1.715   2.203   5.316 -1.7020  1.3731 -0.1418
    6Eth     Oh 2244   1.682   2.156   5.391  0.3461  0.0554 -0.0284
    6Eth     Co 2245   1.624   2.032   5.357  0.0417 -0.7044 -0.1845
    6Eth    Hco 2246   1.685   1.943   5.372  0.6385 -0.1375  0.8007
    6Eth    Hco 2247   1.595   2.031   5.252 -1.5500 -1.0854  0.2409
    6Eth     Ch 2248   1.499   1.995   5.440  0.1535  0.2842 -0.5365
    6Eth    Hcc 2249   1.463   1.900   5.401 -0.0867 -0.0487  0.4896
    6Eth    Hcc 2250   1.421   2.069   5.419  0.0026  0.5387  0.8623
    6Eth    Hcc 2251   1.538   1.986   5.541  0.3365 -0.5314 -0.6763
    7Eth     Ho 2252   0.564   1.903   1.739 -2.0955  1.3604  0.6027
    7Eth     Oh 2253   0.515   1.846   1.682 -0.2006  0.3548 -0.0593
    7Eth     Co 2254   0.491   1.911   1.557 -1.0458 -0.2108  0.4205
    7Eth    Hco 2255   0.456   2.013   1.575 -1.3892 -0.0110 -1.3554
    7Eth    Hco 2256   0.419   1.865   1.489 -0.7361 -1.3810  0.8769
    7Eth     Ch 2257   0.626   1.908   1.483 -0.0054 -0.0837 -0.0983
    7Eth    Hcc 2258   0.663   1.805   1.479  1.7598  0.5880 -1.5603
    7Eth    Hcc 2259   0.706   1.964   1.532  1.8229 -1.5989 -1.2473
    7Eth    Hcc 2260   0.622   1.955   1.385 -2.1272  1.6665  0.7946
    8Eth     Ho 2261   0.407   1.663   6.362  0.7474  0.4444 -1.2248
    8Eth     Oh 2262   0.417   1.575   6.330 -0.2540 -0.1854  0.1456
    8Eth     Co 2263   0.295   1.513   6.348 -0.1886 -0.6992  0.5313
    8Eth    Hco 2264   0.223   1.591   6.374  0.5277 -0.9709  3.4451
    8Eth    Hco 2265   0.302   1.463   6.444 -0.1513  1.4142  1.6481
    8Eth     Ch 2266   0.239   1.441   6.224  0.3817 -0.4798 -0.2943
    8Eth    Hcc 2267   0.292   1.348   6.202  1.9370  0.7682 -1.9844
    8Eth    Hcc 2268   0.250   1.505   6.136  1.8717 -0.4327 -0.0847
    8Eth    Hcc 2269   0.136   1.413   6.243  0.8931 -3.4470 -1.6277
    9Eth     Ho 2270   1.993   3.414   4.124  0.7131 -0.9183 -0.3560
    9Eth     Oh 2271   2.044   3.443   4.197 -0.3924  0.0279  0.0497
    9Eth     Co 2272   2.171   3.478   4.146 -1.0141  0.0642  0.1651
    9Eth    Hco 2273   2.166   3.582   4.113 -2.7911  0.8741  2.8427
    9Eth    Hco 2274   2.192   3.417   4.058 -3.8714 -0.3057 -0.3225
    9Eth     Ch 2275   2.274   3.482   4.263 -0.3915 -0.2451 -0.0632
    9Eth    Hcc 2276   2.236   3.543   4.345  1.3680 -0.6693  1.0803
    9Eth    Hcc 2277   2.364   3.534   4.230  0.9095 -2.5823 -0.3104
    9Eth    Hcc 2278   2.291   3.382   4.303  0.8638  0.2989  0.7961
   10Eth     Ho 2279   0.964   1.081   5.488 -1.0336 -0.5055  3.4548
   10Eth     Oh 2280   1.012   1.002   5.473 -0.8980  0.1004  0.1173
   10Eth     Co 2281   0.968   0.954   5.353  0.2088 -0.1501 -0.2873
   10Eth    Hco 2282   0.944   1.042   5.294  1.9193  0.5533  0.0156
   10Eth    Hco 2283   0.877   0.895   5.366 -0.1535  0.2795 -0.9218
   10Eth     Ch 2284   1.078   0.866   5.287 -0.0145  0.6397  0.5550
   10Eth    Hcc 2285   1.115   0.786   5.352 -0.4587  0.6343  0.8037
   10Eth    Hcc 2286   1.168   0.921   5.258 -0.0554 -0.9122 -2.6530
   10Eth    Hcc 2287   1.046   0.818   5.195 -0.9618 -0.9871  1.7113
   11Eth     Ho 2288   1.930   1.041   2.679 -1.3666 -1.3913 -0.2224
   11Eth     Oh 2289   1.940   1.010   2.767  0.1439 -0.6874 -0.1294
   11Eth     Co 2290   1.874   1.081   2.865  0.4941  0.0598 -0.7153
   11Eth    Hco 2291   1.834   1.001   2.928  0.1171 -0.3907 -1.5214
   11Eth    Hco 2292   1.787   1.134   2.825  0.5767  0.0576 -0.8976
   11Eth     Ch 2293   1.977   1.178   2.929 -0.2091 -0.0071 -0.8025
   11Eth    Hcc 2294   2.015   1.253   2.860 -1.7647  0.7941 -0.8214
   11Eth    Hcc 2295   2.063   1.121   2.964 -1.0808 -1.3145 -0.7604
   11Eth    Hcc 2296   1.941   1.224   3.021  1.4621  1.4201 -0.8438
   12Eth     Ho 2297   3.171   0.265   3.914  0.1551  1.9433  1.5147
   12Eth     Oh 2298   3.262   0.241   3.920 -0.2325  0.0203  0.1228
   12Eth     Co 2299   3.307   0.121   3.857 -0.5676 -0.1046  0.6933
   12Eth    Hco 2300   3.413   0.124   3.831 -0.9745 -0.2461 -1.0913
   12Eth    Hco 2301   3.261   0.101   3.760 -0.5293  1.9815  0.2125
   12Eth     Ch 2302   3.289  -0.004   3.951 -0.5595 -0.2935  0.3416
   12Eth    Hcc 2303   3.189  -0.048   3.958 -0.2203 -1.2364 -0.5495
   12Eth    Hcc 2304   3.337   0.017   4.046  0.7574  1.1392 -0.6075
   12Eth    Hcc 2305   3.335  -0.096   3.916  1.1429  0.2850  1.0053
   13Eth     Ho 2306   1.730   2.913  10.019 -0.3410  1.3503 -0.7742
   13Eth     Oh 2307   1.741   2.845   9.956  0.4202  0.3479  0.4072
   13Eth     Co 2308   1.703   2.920   9.837 -0.4248  0.5653 -0.1865
   13Eth    Hco 2309   1.726   3.026   9.853  0.6504  0.3009  0.0633
   13Eth    Hco 2310   1.597   2.914   9.812 -0.3032 -0.4916 -0.4537
   13Eth     Ch 2311   1.787   2.859   9.716 -0.0607 -0.2643 -0.6553
   13Eth    Hcc 2312   1.765   2.930   9.636 -0.3811 -1.3540 -1.5352
   13Eth    Hcc 2313   1.753   2.761   9.682  0.6902 -1.0098  0.6884
   13Eth    Hcc 2314   1.893   2.847   9.736 -0.3986 -1.0825  0.7413
   14Eth     Ho 2315   2.470   0.394   9.678  1.1091  1.4948  1.5441
   14Eth     Oh 2316   2.389   0.403   9.726  0.1859  0.0782  0.3007
   14Eth     Co 2317   2.307   0.302   9.676  0.5406 -0.1195 -0.2371
   14Eth    Hco 2318   2.377   0.219   9.666  1.9158  0.8938  0.7830
   14Eth    Hco 2319   2.271   0.319   9.574 -0.2564 -3.5995 -0.5786
   14Eth     Ch 2320   2.192   0.266   9.769 -0.2044 -1.1780  0.1963
   14Eth    Hcc 2321   2.104   0.330   9.761  1.0815  0.4070 -1.8133
   14Eth    Hcc 2322   2.220   0.263   9.874  0.6530 -0.2033 -0.0056
   14Eth    Hcc 2323   2.159   0.164   9.748  3.0305 -2.0130 -1.1248
   15Eth     Ho 2324   3.282   2.866   6.719  0.5633  0.2089 -0.4195
   15Eth     Oh 2325   3.324   2.807   6.779  0.0716 -0.1272 -0.4027
   15Eth     Co 2326   3.415   2.892   6.849  0.3429 -0.3955 -0.6720
   15Eth    Hco 2327   3.367   2.954   6.925  0.6188 -0.8241 -0.1458
   15Eth    Hco 2328   3.444   2.969   6.777  2.4670  1.0308  1.6292
   15Eth     Ch 2329   3.540   2.831   6.900 -0.1552 -0.2617 -0.4392
   15Eth    Hcc 2330   3.604   2.910   6.939 -0.6418 -0.2183  0.2902
   15Eth    Hcc 2331   3.601   2.776   6.829  1.8359  0.3013  0.7759
   15Eth    Hcc 2332   3.522   2.765   6.985  2.4791 -1.2585 -0.6052
   16Eth     Ho 2333   0.168   3.052   6.486  1.5392 -1.1402  1.7029
   16Eth     Oh 2334   0.240   3.041   6.428  0.1345  0.5941 -0.4224
   16Eth     Co 2335   0.337   2.988   6.513  0.5838 -0.6614  0.3114
   16Eth    Hco 2336   0.338   2.879   6.505 -0.1359 -0.5734 -1.2399
   16Eth    Hco 2337   0.315   3.016   6.616 -1.0157 -0.6979 -0.0121
   16Eth     Ch 2338   0.463   3.057   6.468  0.0434 -0.2546 -0.4495
   16Eth    Hcc 2339   0.542   3.024   6.535 -0.3882 -1.3550 -0.4685
   16Eth    Hcc 2340   0.461   3.165   6.481  1.6688 -0.3364  0.5588
   16Eth    Hcc 2341   0.489   3.038   6.363  2.3871  1.0339 -0.1144
   17Eth     Ho 2342   0.989   1.068   2.143  3.0447  1.9618  1.0010
   17Eth     Oh 2343   1.045   0.995   2.163  0.3141 -0.3613  0.4778
   17Eth     Co 2344   0.972   0.889   2.211 -0.3767  0.8951  0.3919
   17Eth    Hco 2345   0.887   0.884   2.143 -0.6893  0.2636  0.8269
   17Eth    Hco 2346   0.935   0.906   2.312  0.2685 -1.1186  0.9924
   17Eth     Ch 2347   1.057   0.765   2.224  0.4939  0.2443  0.5038
   17Eth    Hcc 2348   1.123   0.750   2.138 -1.6562  1.3319 -1.3736
   17Eth    Hcc 2349   1.003   0.674   2.251 -0.7943  0.9553  0.3217
   17Eth    Hcc 2350   1.124   0.787   2.306 -1.0740 -2.5865  2.6427
   18Eth     Ho 2351   0.673   0.211   1.720  2.4131 -0.3654 -1.8430
   18Eth     Oh 2352   0.613   0.160   1.669  0.2742 -0.2696  0.4869
   18Eth     Co 2353   0.679   0.048   1.610 -0.6885  0.1014  0.1905
   18Eth    Hco 2354   0.753  -0.002   1.672 -2.0640  0.1280  1.8882
   18Eth    Hco 2355   0.743   0.081   1.528 -0.8916  1.7079  0.6575
   18Eth     Ch 2356   0.575  -0.059   1.569 -0.1269  0.0592  0.1863
   18Eth    Hcc 2357   0.529  -0.101   1.659  0.7881 -2.2715 -0.3986
   18Eth    Hcc 2358   0.623  -0.137   1.510 -0.2017  0.5651 -0.5438
   18Eth    Hcc 2359   0.505  -0.012   1.500 -0.4361  0.0137  0.4643
   19Eth     Ho 2360   2.515   0.610   8.626 -0.5483  1.6915  0.5257
   19Eth     Oh 2361   2.608   0.614   8.631 -0.4422  0.0736  0.0914
   19Eth     Co 2362   2.664   0.563   8.516  0.0686 -0.9960  0.8931
   19Eth    Hco 2363   2.623   0.624   8.436  0.5866 -0.4469  1.0426
   19Eth    Hco 2364   2.633   0.460   8.498 -0.9973 -0.5531  0.2090
   19Eth     Ch 2365   2.814   0.583   8.527 -0.3797 -0.9800  0.1279
   19Eth    Hcc 2366   2.847   0.670   8.583 -1.4728 -0.0985 -0.5821
   19Eth    Hcc 2367   2.857   0.578   8.427 -0.7477 -1.1002 -0.0260
   19Eth    Hcc 2368   2.863   0.498   8.575  1.0655 -0.2510 -0.0521
   20Eth     Ho 2369   3.208   2.037   6.717  1.0651  1.8941  0.6352
   20Eth     Oh 2370   3.190   2.028   6.808 -0.3691  0.2414  0.2181
   20Eth     Co 2371   3.232   2.148   6.873  0.3211 -0.8193 -0.5674
   20Eth    Hco 2372   3.164   2.162   6.957 -0.1208  0.4197 -1.1219
   20Eth    Hco 2373   3.234   2.235   6.808  1.0385 -1.1397 -0.9779
   20Eth     Ch 2374   3.374   2.140   6.948 -0.5689 -0.3328  0.3331
   20Eth    Hcc 2375   3.460   2.120   6.884 -1.7130  0.7491 -1.6257
   20Eth    Hcc 2376   3.362   2.070   7.030 -2.6108 -0.4626 -0.0557
   20Eth    Hcc 2377   3.395   2.234   6.999 -1.5807  0.3031 -0.4044
   21Eth     Ho 2378   0.967   1.088   9.923  1.0981 -0.3466 -1.7240
   21Eth     Oh 2379   1.028   1.160   9.926  0.2366  0.3306  0.0821
   21Eth     Co 2380   1.113   1.147   9.814 -0.2940  0.2333  0.3245
   21Eth    Hco 2381   1.042   1.174   9.736  1.2173 -1.5443 -1.7316
   21Eth    Hco 2382   1.134   1.041   9.796 -2.1501  0.1219 -1.4906
   21Eth     Ch 2383   1.241   1.233   9.816  0.5103  0.4958 -0.2220
   21Eth    Hcc 2384   1.302   1.229   9.906 -0.4734  2.1928  0.5547
   21Eth    Hcc 2385   1.233   1.338   9.788 -0.8211 -0.0214 -1.8517
   21Eth    Hcc 2386   1.294   1.189   9.731 -2.2766 -0.2481 -1.6520
   22Eth     Ho 2387   1.915   3.053   6.187 -0.9357  1.4127 -2.9834
   22Eth     Oh 2388   1.986   3.113   6.199 -0.0629 -0.0953 -0.0365
   22Eth     Co 2389   2.041   3.111   6.331  0.7627  0.4385  0.8528
   22Eth    Hco 2390   2.117   3.034   6.344  1.7333  0.9046 -1.8514
   22Eth    Hco 2391   1.966   3.108   6.411  0.6689  1.3148  0.8041
   22Eth     Ch 2392   2.111   3.244   6.326  0.3870  0.2025 -0.1061
   22Eth    Hcc 2393   2.057   3.314   6.263  0.4718 -0.4760 -0.9519
   22Eth    Hcc 2394   2.211   3.230   6.284  0.6605  1.6620  0.0289
   22Eth    Hcc 2395   2.132   3.285   6.425  0.9300 -0.8555  0.2256
   23Eth     Ho 2396   1.916   2.866   2.975 -0.9349  0.0693  0.7017
   23Eth     Oh 2397   1.833   2.851   2.933 -0.4358  0.1438 -0.3353
   23Eth     Co 2398   1.761   2.971   2.926  0.2405  0.2012  0.3878
   23Eth    Hco 2399   1.834   3.046   2.957  0.8393  0.0167 -0.5550
   23Eth    Hco 2400   1.677   2.977   2.995 -2.0334 -1.4595 -2.1264
   23Eth     Ch 2401   1.706   2.993   2.789  0.4633 -0.0505  0.2713
   23Eth    Hcc 2402   1.599   2.971   2.784  0.3754  0.7848 -1.5890
   23Eth    Hcc 2403   1.765   2.922   2.731 -0.9505  0.4427 -1.7809
   23Eth    Hcc 2404   1.720   3.096   2.756 -1.9085  0.4771  0.7840
   24Eth     Ho 2405   2.328   0.346   8.594  0.9753  1.9577  1.6929
   24Eth     Oh 2406   2.383   0.274   8.620 -0.8083  0.1988  0.7241
   24Eth     Co 2407   2.358   0.232   8.755 -0.5418 -0.2496  0.1587
   24Eth    Hco 2408   2.373   0.124   8.754 -0.4689 -0.2404 -1.3614
   24Eth    Hco 2409   2.256   0.238   8.792  0.1300  1.1446  1.8570
   24Eth     Ch 2410   2.454   0.303   8.853  0.6675  0.4239 -0.5535
   24Eth    Hcc 2411   2.459   0.247   8.947 -0.2096  2.3235  0.6623
   24Eth    Hcc 2412   2.422   0.405   8.877  1.0090  0.3561  0.2146
   24Eth    Hcc 2413   2.556   0.304   8.815  0.5336 -0.0790 -0.9259
   25Eth     Ho 2414   1.737   2.152   9.733  0.2711 -1.5620 -0.1797
   25Eth     Oh 2415   1.680   2.137   9.807 -0.2211 -0.3682 -0.3085
   25Eth     Co 2416   1.753   2.055   9.893 -0.5511 -0.1934  0.5582
   25Eth    Hco 2417   1.740   2.110   9.987 -1.5313 -0.0331  0.3346
   25Eth    Hco 2418   1.854   2.049   9.854 -2.0787  0.8315 -3.9009
   25Eth     Ch 2419   1.683   1.918   9.895  0.0754  0.0540  0.1911
   25Eth    Hcc 2420   1.574   1.931   9.894 -0.3933 -3.3297 -1.3500
   25Eth    Hcc 2421   1.717   1.845   9.969  1.5173 -0.8393 -1.3319
   25Eth    Hcc 2422   1.691   1.855   9.806 -2.9739  0.6220 -0.5549
   26Eth     Ho 2423   2.886   0.772  10.013 -0.4287 -0.8262  1.0905
   26Eth     Oh 2424   2.852   0.713   9.947  0.1296 -0.2671  0.2959
   26Eth     Co 2425   2.714   0.737   9.945  0.6276 -0.5008  0.0806
   26Eth    Hco 2426   2.701   0.840   9.912 -0.5193 -0.2519  1.2842
   26Eth    Hco 2427   2.664   0.733  10.041 -0.5439  0.4280 -0.4681
   26Eth     Ch 2428   2.648   0.643   9.841 -0.4050  0.4817  0.8981
   26Eth    Hcc 2429   2.543   0.671   9.834 -0.7592 -0.5364  1.8663
   26Eth    Hcc 2430   2.656   0.539   9.875  1.5650  0.8340  1.5851
   26Eth    Hcc 2431   2.695   0.648   9.743 -1.0027 -0.4194  0.5584
   27Eth     Ho 2432   2.545   1.671   8.824 -1.8458 -1.3371  0.6126
   27Eth     Oh 2433   2.466   1.722   8.823 -0.3125  1.1177 -0.0597
   27Eth     Co 2434   2.413   1.719   8.688 -0.2580 -0.1841  0.0403
   27Eth    Hco 2435   2.397   1.621   8.644 -0.2257 -0.8436  1.4905
   27Eth    Hco 2436   2.488   1.768   8.626 -0.6067 -0.6400 -0.7417
   27Eth     Ch 2437   2.289   1.818   8.686 -0.2460  0.1740 -0.4200
   27Eth    Hcc 2438   2.227   1.839   8.599  0.5186  3.3461 -0.2509
   27Eth    Hcc 2439   2.328   1.910   8.729  3.2228 -1.0151 -0.8499
   27Eth    Hcc 2440   2.216   1.761   8.744 -1.4613 -2.1428 -4.0035
   28Eth     Ho 2441   1.988   2.278   8.345 -0.8442  0.3344 -0.4125
   28Eth     Oh 2442   1.998   2.323   8.263  0.0998 -0.0993 -0.5504
   28Eth     Co 2443   1.975   2.227   8.158 -0.0092  0.3723  0.1087
   28Eth    Hco 2444   1.915   2.150   8.207 -1.3699  2.4251  1.7872
   28Eth    Hco 2445   2.074   2.196   8.125  0.1243 -0.3667  1.1740
   28Eth     Ch 2446   1.905   2.303   8.036 -1.1203  0.9541 -0.0202
   28Eth    Hcc 2447   1.871   2.235   7.957 -0.7386 -0.8193  1.3197
   28Eth    Hcc 2448   1.958   2.389   7.996  2.4521 -0.6442  1.0851
   28Eth    Hcc 2449   1.806   2.340   8.063 -0.4607  0.9846  2.4251
   29Eth     Ho 2450   2.197   1.908   7.313 -1.0173  0.6103 -2.1716
   29Eth     Oh 2451   2.183   1.963   7.389  0.0590 -0.5351 -1.1119
   29Eth     Co 2452   2.045   1.997   7.401  0.3688  0.1371  0.2525
   29Eth    Hco 2453   1.998   1.946   7.486 -0.1305 -0.1701 -0.2042
   29Eth    Hco 2454   1.990   1.962   7.314  1.2660 -2.4385  0.6572
   29Eth     Ch 2455   2.038   2.147   7.424 -0.0202 -0.5997 -0.1310
   29Eth    Hcc 2456   2.056   2.199   7.329 -2.0870 -1.4187 -0.9873
   29Eth    Hcc 2457   2.095   2.179   7.511  0.6767 -2.3441  0.0650
   29Eth    Hcc 2458   1.933   2.170   7.439 -0.1951 -0.3056 -1.6695
   30Eth     Ho 2459   1.069   2.407   1.442 -0.0465 -1.0241 -0.0072
   30Eth     Oh 2460   1.037   2.441   1.523  0.0114 -0.1873 -0.3292
   30Eth     Co 2461   0.905   2.402   1.551 -0.1576 -0.8444  0.3785
   30Eth    Hco 2462   0.890   2.309   1.496 -3.2731 -0.3503  0.2983
   30Eth    Hco 2463   0.834   2.469   1.502 -1.8037 -3.8234 -1.4951
   30Eth     Ch 2464   0.895   2.393   1.706 -0.3694 -0.1193 -0.3482
   30Eth    Hcc 2465   0.923   2.484   1.759 -0.6245 -0.9788  1.2685
   30Eth    Hcc 2466   0.958   2.312   1.741  1.0141  0.5258 -1.3112
   30Eth    Hcc 2467   0.793   2.371   1.738 -0.1758  2.1977  1.9789
   31Eth     Ho 2468   2.090   1.054   6.808  0.7099 -0.4831  0.2477
   31Eth     Oh 2469   2.058   1.044   6.720 -0.4177 -1.0994  0.7264
   31Eth     Co 2470   2.121   0.933   6.663 -0.0198  0.1890  0.1245
   31Eth    Hco 2471   2.093   0.843   6.719  0.2378  0.1912  0.2563
   31Eth    Hco 2472   2.229   0.941   6.666 -0.0008 -0.5213  2.5899
   31Eth     Ch 2473   2.065   0.904   6.521 -0.5072  0.4103 -0.2780
   31Eth    Hcc 2474   1.961   0.883   6.544 -0.0103  1.1209  2.9287
   31Eth    Hcc 2475   2.099   0.811   6.477  0.2157  0.2643  0.5750
   31Eth    Hcc 2476   2.081   0.983   6.447  0.4030 -0.9372 -1.5231
   32Eth     Ho 2477   1.964   0.269   4.231 -0.9962  2.0209  2.0056
   32Eth     Oh 2478   1.941   0.343   4.178 -0.7467  0.7829  0.1134
   32Eth     Co 2479   2.018   0.442   4.234  0.5292 -0.4970  0.4285
   32Eth    Hco 2480   2.027   0.517   4.155  1.0867  0.4386  1.3771
   32Eth    Hco 2481   2.121   0.422   4.264  0.4559  1.1027  1.7672
   32Eth     Ch 2482   1.934   0.476   4.356  0.6839  0.0850 -0.2035
   32Eth    Hcc 2483   1.928   0.400   4.434 -1.1323  1.6357  1.1833
   32Eth    Hcc 2484   1.832   0.504   4.333  0.6548 -1.2189 -1.8116
   32Eth    Hcc 2485   1.975   0.567   4.400 -3.3102  0.7657  2.3267
   33Eth     Ho 2486   0.746   0.915   7.920  1.6359  0.1184  1.5773
   33Eth     Oh 2487   0.791   0.833   7.913  0.3915 -0.4456 -0.1217
   33Eth     Co 2488   0.750   0.772   7.796  0.8191 -0.4007  0.2294
   33Eth    Hco 2489   0.746   0.850   7.721  0.7137 -0.4726  0.1621
   33Eth    Hco 2490   0.653   0.726   7.811  0.9774 -0.7680  0.1202
   33Eth     Ch 2491   0.859   0.676   7.739  0.0549 -0.1011 -0.6530
   33Eth    Hcc 2492   0.949   0.736   7.728  0.7165 -0.7803  0.9093
   33Eth    Hcc 2493   0.822   0.644   7.641  0.6534 -0.9812 -0.5943
   33Eth    Hcc 2494   0.874   0.589   7.803 -0.6990 -0.4960 -0.9968
   34Eth     Ho 2495   2.016   0.806   8.046 -1.6325 -1.0224  1.3609
   34Eth     Oh 2496   2.023   0.884   8.098  0.4001 -0.2374 -0.0316
   34Eth     Co 2497   2.073   0.851   8.222 -0.7646  0.0648  0.0828
   34Eth    Hco 2498   2.181   0.865   8.215 -0.7486  0.8326  1.5780
   34Eth    Hco 2499   2.063   0.747   8.254  0.4724  0.0125  0.3517
   34Eth     Ch 2500   2.014   0.948   8.330  0.4060 -0.0547  0.5402
   34Eth    Hcc 2501   2.046   0.918   8.430 -0.2447 -0.3578  0.6585
   34Eth    Hcc 2502   1.906   0.937   8.319  0.3824  0.2142  0.4951
   34Eth    Hcc 2503   2.038   1.053   8.313 -2.9234  0.4542 -1.5364
   35Eth     Ho 2504   2.412   1.061   4.064 -0.1562  0.7708  0.8817
   35Eth     Oh 2505   2.344   1.031   4.121  0.2538 -0.6862  0.6066
   35Eth     Co 2506   2.350   1.108   4.247  0.6130  1.0470  0.3897
   35Eth    Hco 2507   2.399   1.200   4.215 -0.5274  1.4648 -0.1794
   35Eth    Hco 2508   2.411   1.050   4.317  2.1668  0.5913 -1.2910
   35Eth     Ch 2509   2.208   1.134   4.303  0.2805  0.9354  0.9419
   35Eth    Hcc 2510   2.159   1.044   4.341  1.5396  0.2092  0.8930
   35Eth    Hcc 2511   2.140   1.177   4.230  0.9555  0.3535 -0.0478
   35Eth    Hcc 2512   2.206   1.202   4.387 -0.4302  1.5321  0.4485
   36Eth     Ho 2513   2.284   0.109   1.772  1.3119  0.6764  0.2948
   36Eth     Oh 2514   2.330   0.133   1.694  0.0854  0.6036 -0.4662
   36Eth     Co 2515   2.419   0.026   1.665 -0.7741 -0.1058  0.3447
   36Eth    Hco 2516   2.370  -0.072   1.665 -1.5917  0.3012  0.1881
   36Eth    Hco 2517   2.503   0.013   1.733 -0.5299 -2.5390 -0.3660
   36Eth     Ch 2518   2.487   0.047   1.525  0.4158 -0.1133  0.5905
   36Eth    Hcc 2519   2.417   0.039   1.442 -0.2853 -0.0671  1.1720
   36Eth    Hcc 2520   2.557  -0.031   1.498  0.4936 -0.0140  0.5052
   36Eth    Hcc 2521   2.531   0.147   1.519 -0.1327  0.2019  1.7195
   37Eth     Ho 2522   1.995   1.158   2.190  0.5316  0.4426  0.1648
   37Eth     Oh 2523   2.017   1.099   2.260 -0.3884  0.2051  0.2492
   37Eth     Co 2524   2.159   1.096   2.275  0.1013  0.4099 -0.3165
   37Eth    Hco 2525   2.194   1.193   2.311  0.7837 -0.3806  1.1682
   37Eth    Hco 2526   2.209   1.078   2.180 -0.4955  1.6541 -0.8828
   37Eth     Ch 2527   2.201   0.987   2.391  0.2756 -0.1043 -0.1640
   37Eth    Hcc 2528   2.308   0.981   2.411  0.0248  1.3625  1.8206
   37Eth    Hcc 2529   2.168   0.889   2.357 -2.8798  0.6052  0.6029
   37Eth    Hcc 2530   2.163   1.003   2.492 -0.8274 -1.6184 -0.3197
   38Eth     Ho 2531   0.991   1.628   9.309  0.0441 -0.8593  1.3637
   38Eth     Oh 2532   1.013   1.703   9.360 -0.1313  0.0225  0.1720
   38Eth     Co 2533   0.985   1.823   9.290  0.5174 -0.4454 -0.4597
   38Eth    Hco 2534   0.902   1.802   9.222  2.0710  0.2743 -2.6160
   38Eth    Hco 2535   1.063   1.825   9.214  0.3685  1.8961 -0.5612
   38Eth     Ch 2536   0.958   1.953   9.368 -0.0453  0.7225 -0.3977
   38Eth    Hcc 2537   1.030   1.972   9.448 -0.2413 -1.3396  0.3155
   38Eth    Hcc 2538   0.871   1.938   9.433  0.9636 -0.5123  0.7180
   38Eth    Hcc 2539   0.954   2.039   9.303  2.3419 -0.5624 -2.2916
   39Eth     Ho 2540   2.442   1.052   8.125 -0.8008 -1.2424  1.8659
   39Eth     Oh 2541   2.525   1.009   8.141  0.3158  0.2406  0.2752
   39Eth     Co 2542   2.552   1.056   8.263 -0.0374  0.3743  0.0458
   39Eth    Hco 2543   2.449   1.079   8.292  0.6457  1.1182  2.0182
   39Eth    Hco 2544   2.612   1.146   8.255  1.3210 -0.6286 -1.2193
   39Eth     Ch 2545   2.616   0.950   8.355  0.2822  0.2764  0.5269
   39Eth    Hcc 2546   2.698   0.899   8.305 -0.1153  1.4464 -1.4014
   39Eth    Hcc 2547   2.543   0.875   8.386 -0.6411 -0.2108 -2.5767
   39Eth    Hcc 2548   2.667   0.997   8.439  0.0656  0.3547  0.6133
   40Eth     Ho 2549   0.587   1.440   4.786  0.2147  0.0159  0.0083
   40Eth     Oh 2550   0.551   1.527   4.793  0.6403  0.1732  0.2285
   40Eth     Co 2551   0.410   1.518   4.788 -0.4478  0.0791 -0.2269
   40Eth    Hco 2552   0.379   1.459   4.875 -0.6878 -1.2656 -1.2044
   40Eth    Hco 2553   0.353   1.494   4.698 -2.0273 -0.9737  1.0099
   40Eth     Ch 2554   0.366   1.658   4.798  0.1455 -0.1586  0.1669
   40Eth    Hcc 2555   0.258   1.654   4.809  0.0213 -1.8336 -1.3111
   40Eth    Hcc 2556   0.396   1.712   4.708 -1.1996  1.4191  0.6412
   40Eth    Hcc 2557   0.403   1.713   4.884 -0.2688  0.7128 -0.2052
   41Eth     Ho 2558   0.393   1.066   9.616  0.1195  0.7412 -0.6297
   41Eth     Oh 2559   0.303   1.079   9.639  0.1214  0.2395 -0.3227
   41Eth     Co 2560   0.232   1.002   9.554  0.6571  0.1919 -0.3091
   41Eth    Hco 2561   0.200   0.904   9.591 -0.5747  0.3908 -0.8585
   41Eth    Hco 2562   0.305   0.971   9.479  1.8862 -0.9849  1.3009
   41Eth     Ch 2563   0.111   1.080   9.491 -0.3284  0.3638 -0.5225
   41Eth    Hcc 2564   0.035   1.018   9.443 -1.4421  1.8356 -0.6840
   41Eth    Hcc 2565   0.142   1.160   9.424  2.2595 -0.6410 -0.6007
   41Eth    Hcc 2566   0.070   1.130   9.578 -0.1067 -0.4218  0.0380
   42Eth     Ho 2567   2.432   2.595   1.838 -1.7521 -0.2869  0.2227
   42Eth     Oh 2568   2.426   2.687   1.822  0.0817 -0.1921  0.0616
   42Eth     Co 2569   2.497   2.711   1.703 -0.2553  0.0306 -0.8870
   42Eth    Hco 2570   2.459   2.650   1.621 -2.7486  2.7313 -1.8411
   42Eth    Hco 2571   2.600   2.687   1.729  0.5091  3.4255 -0.5549
   42Eth     Ch 2572   2.487   2.860   1.675 -0.7423 -0.0907  0.7846
   42Eth    Hcc 2573   2.511   2.918   1.765  3.0761 -0.1063 -0.1325
   42Eth    Hcc 2574   2.386   2.890   1.647 -0.3166  2.8892  2.2009
   42Eth    Hcc 2575   2.555   2.890   1.595  0.3902 -0.4107  1.6039
   43Eth     Ho 2576   0.144   1.860   4.691 -1.0100  0.7819 -0.1253
   43Eth     Oh 2577   0.147   1.818   4.607  0.3346 -0.6316  0.6014
   43Eth     Co 2578   0.017   1.768   4.581  0.8343 -0.3572 -0.0390
   43Eth    Hco 2579  -0.060   1.844   4.563  2.4251  1.3889  0.3638
   43Eth    Hco 2580   0.002   1.722   4.679  0.8459 -2.0426 -0.8219
   43Eth     Ch 2581   0.013   1.667   4.467  0.5704 -0.3281 -0.7075
   43Eth    Hcc 2582  -0.071   1.598   4.473  3.2744 -3.9000 -1.6339
   43Eth    Hcc 2583   0.097   1.598   4.463 -0.7938 -2.1149  0.5925
   43Eth    Hcc 2584   0.011   1.726   4.375 -3.0673  0.9837  0.1456
   44Eth     Ho 2585   0.999   2.553   6.770 -2.7362  1.4792  0.6665
   44Eth     Oh 2586   1.016   2.636   6.731  0.3807  0.1109 -1.0241
   44Eth     Co 2587   0.983   2.620   6.594  0.1233  0.2138  0.9081
   44Eth    Hco 2588   0.877   2.610   6.569 -0.2134 -1.1521  2.7574
   44Eth    Hco 2589   1.037   2.533   6.555  2.4012  1.9142  0.2051
   44Eth     Ch 2590   1.041   2.734   6.514  0.6631  0.2182 -0.7494
   44Eth    Hcc 2591   1.146   2.717   6.489  0.4515 -0.3674 -1.2342
   44Eth    Hcc 2592   1.034   2.829   6.567  0.2415 -0.5528  0.6022
   44Eth    Hcc 2593   1.003   2.743   6.413 -0.6061 -0.9187 -0.3849
   45Eth     Ho 2594   0.851   2.524   5.738 -0.0435 -1.6239  0.3024
   45Eth     Oh 2595   0.841   2.593   5.801  0.7374 -0.5971 -0.6804
   45Eth     Co 2596   0.861   2.529   5.920 -0.0326  0.5891 -0.0057
   45Eth    Hco 2597   0.965   2.503   5.939  0.5130  1.6439 -1.4678
   45Eth    Hco 2598   0.802   2.438   5.906 -1.3267  1.4692 -0.4050
   45Eth     Ch 2599   0.804   2.603   6.039  0.5651  0.0799 -0.3163
   45Eth    Hcc 2600   0.872   2.684   6.064 -0.1764  0.2099  1.3173
   45Eth    Hcc 2601   0.793   2.542   6.129  0.1351 -0.1794 -0.5392
   45Eth    Hcc 2602   0.708   2.652   6.020  0.2605  0.0546  1.1013
   46Eth     Ho 2603   0.229   0.306   9.824  0.2036 -0.3619  2.0224
   46Eth     Oh 2604   0.190   0.387   9.852 -0.0154  0.1402  0.3369
   46Eth     Co 2605   0.078   0.358   9.925 -0.1270 -0.2247 -0.2542
   46Eth    Hco 2606   0.077   0.418  10.016 -0.2465 -2.7226  1.4153
   46Eth    Hco 2607   0.078   0.261   9.975  0.2697  0.1572  0.4935
   46Eth     Ch 2608  -0.055   0.388   9.844  0.5679  0.0181  0.0069
   46Eth    Hcc 2609  -0.048   0.489   9.805  2.7707 -0.3767 -0.6994
   46Eth    Hcc 2610  -0.136   0.381   9.917  0.4697 -1.9050 -0.2590
   46Eth    Hcc 2611  -0.062   0.320   9.759  0.2712  1.1230 -0.8618
   47Eth     Ho 2612   2.061   0.793   9.970  0.6307  0.0206 -0.5904
   47Eth     Oh 2613   2.033   0.710   9.936 -0.5210 -0.1657  0.7971
   47Eth     Co 2614   1.899   0.726   9.902  0.7198  0.2456  0.0291
   47Eth    Hco 2615   1.906   0.796   9.818 -1.1318 -1.5410 -1.6527
   47Eth    Hco 2616   1.852   0.779   9.985  1.2046 -0.1049  0.5343
   47Eth     Ch 2617   1.841   0.592   9.862 -0.2578 -0.1031  0.4722
   47Eth    Hcc 2618   1.751   0.612   9.804  1.2900  0.1402 -1.8687
   47Eth    Hcc 2619   1.816   0.538   9.954 -1.8943  0.3754  0.3332
   47Eth    Hcc 2620   1.902   0.532   9.795 -1.9434  1.5942 -2.6519
   48Eth     Ho 2621   0.505   2.609   4.082 -1.3479  3.8140  0.5429
   48Eth     Oh 2622   0.419   2.572   4.084  0.0364  0.3856 -0.4247
   48Eth     Co 2623   0.375   2.571   3.949 -0.7330 -0.2712  0.0042
   48Eth    Hco 2624   0.409   2.477   3.903  2.5479 -0.6194  2.9511
   48Eth    Hco 2625   0.423   2.655   3.898 -0.2390 -1.6235 -1.8304
   48Eth     Ch 2626   0.228   2.603   3.937 -0.0564 -0.0337  0.4753
   48Eth    Hcc 2627   0.194   2.630   3.837 -1.2658 -1.3805  0.5039
   48Eth    Hcc 2628   0.218   2.688   4.004  0.2404  0.6731 -0.3732
   48Eth    Hcc 2629   0.170   2.519   3.976  1.1920 -1.0701  0.1587
   49Eth     Ho 2630   2.419   1.546   1.595 -1.1003 -1.8064 -1.9417
   49Eth     Oh 2631   2.500   1.501   1.580  0.0673 -0.3892 -0.0817
   49Eth     Co 2632   2.469   1.431   1.460  0.1580  0.1461 -0.1001
   49Eth    Hco 2633   2.482   1.471   1.360 -0.2950 -1.4529 -0.8168
   49Eth    Hco 2634   2.362   1.407   1.460 -0.5399  2.9990 -1.7748
   49Eth     Ch 2635   2.566   1.313   1.459 -0.1323 -0.2182  0.2095
   49Eth    Hcc 2636   2.563   1.249   1.371 -2.9878  0.9758 -0.6230
   49Eth    Hcc 2637   2.536   1.247   1.541 -1.2127 -0.8284 -0.6560
   49Eth    Hcc 2638   2.667   1.352   1.468 -0.4177  0.7364 -0.6219
   50Eth     Ho 2639   0.845   0.451   9.908 -0.6172  0.6465 -0.2504
   50Eth     Oh 2640   0.929   0.436   9.867 -0.0697 -0.5349  1.2633
   50Eth     Co 2641   0.968   0.301   9.908 -0.2003  0.0119 -0.6726
   50Eth    Hco 2642   0.891   0.242   9.858  1.3219 -1.7220 -1.0101
   50Eth    Hco 2643   0.968   0.281  10.015 -0.1976  3.7774  0.0735
   50Eth     Ch 2644   1.107   0.266   9.865  0.5591 -0.2950 -1.0969
   50Eth    Hcc 2645   1.180   0.293   9.941 -1.6271 -0.2939  1.0698
   50Eth    Hcc 2646   1.117   0.319   9.770 -0.7848 -4.8978 -3.9553
   50Eth    Hcc 2647   1.110   0.158   9.851  1.9994 -0.4263  0.0312
   51Eth     Ho 2648   1.481   2.466   8.668  0.6793 -0.4034 -1.0687
   51Eth     Oh 2649   1.500   2.414   8.744  0.2046  0.6266 -0.2169
   51Eth     Co 2650   1.590   2.310   8.719  0.4421 -0.1973 -0.2776
   51Eth    Hco 2651   1.637   2.319   8.621  0.2482  2.2307 -0.1859
   51Eth    Hco 2652   1.543   2.212   8.730 -0.3983  0.3524  1.1215
   51Eth     Ch 2653   1.710   2.324   8.819  0.9094  1.0201  0.1375
   51Eth    Hcc 2654   1.669   2.338   8.919  0.7003  1.1030  0.0369
   51Eth    Hcc 2655   1.776   2.405   8.787  0.2553  1.7057  0.5178
   51Eth    Hcc 2656   1.759   2.226   8.819 -0.4615  0.3196  0.3267
   52Eth     Ho 2657   0.692   1.798   9.867 -0.4233  0.1888 -1.0524
   52Eth     Oh 2658   0.777   1.786   9.829  0.0681 -0.4835  0.2346
   52Eth     Co 2659   0.843   1.903   9.869 -0.6603 -0.2969 -0.2716
   52Eth    Hco 2660   0.790   1.950   9.952 -0.0115 -0.0104 -0.0213
   52Eth    Hco 2661   0.846   1.985   9.798 -0.9523  1.6102  1.8705
   52Eth     Ch 2662   0.991   1.867   9.899  0.0259  1.7780 -0.7510
   52Eth    Hcc 2663   1.029   1.966   9.925  0.7029  1.2867  0.1508
   52Eth    Hcc 2664   1.051   1.821   9.821  0.1776 -1.7883  1.3527
   52Eth    Hcc 2665   0.986   1.797   9.982 -0.4916  1.1423 -1.3137
   53Eth     Ho 2666   2.065   2.256   8.583 -2.3629  0.9679  0.9747
   53Eth     Oh 2667   2.028   2.209   8.511  0.3970  0.4501 -0.1958
   53Eth     Co 2668   2.119   2.104   8.484  0.4045  0.2835 -0.3889
   53Eth    Hco 2669   2.068   2.039   8.414  0.0559  1.4546 -1.2468
   53Eth    Hco 2670   2.138   2.053   8.579  0.7447 -0.1705 -0.7010
   53Eth     Ch 2671   2.258   2.154   8.449  0.2057  0.0333 -0.5102
   53Eth    Hcc 2672   2.259   2.224   8.366 -1.0982  1.4316  0.6248
   53Eth    Hcc 2673   2.327   2.072   8.428  0.1473  0.3746 -2.0921
   53Eth    Hcc 2674   2.305   2.214   8.527 -0.6181  0.7139 -0.5328
   54Eth     Ho 2675   1.501   2.324   5.760 -0.7932  0.4460 -0.6940
   54Eth     Oh 2676   1.490   2.346   5.851  0.2384 -0.1039 -0.4319
   54Eth     Co 2677   1.555   2.469   5.876  0.2142 -0.1340  0.5558
   54Eth    Hco 2678   1.539   2.510   5.975 -1.7707 -0.1507  0.2726
   54Eth    Hco 2679   1.510   2.541   5.807 -0.3186 -0.4918  0.5297
   54Eth     Ch 2680   1.710   2.453   5.851 -0.6686  0.0311 -0.4906
   54Eth    Hcc 2681   1.766   2.383   5.913  1.2937  0.6536 -1.5246
   54Eth    Hcc 2682   1.757   2.550   5.864 -0.0682 -0.2389 -0.6637
   54Eth    Hcc 2683   1.726   2.416   5.750 -1.1044 -4.8167  1.0751
   55Eth     Ho 2684   1.661   1.460   4.489 -0.1976 -0.2548  0.1456
   55Eth     Oh 2685   1.654   1.550   4.463  0.3728 -0.1034  0.4959
   55Eth     Co 2686   1.591   1.560   4.333 -0.2177 -0.2890 -0.1433
   55Eth    Hco 2687   1.508   1.490   4.317 -1.5541  1.0367  0.8346
   55Eth    Hco 2688   1.667   1.538   4.258 -0.1902  2.2219 -0.9094
   55Eth     Ch 2689   1.555   1.700   4.291 -0.5456 -0.2017  0.2015
   55Eth    Hcc 2690   1.531   1.684   4.186  0.7714 -3.2220  0.3254
   55Eth    Hcc 2691   1.640   1.768   4.299  0.2420 -0.7533 -2.8313
   55Eth    Hcc 2692   1.457   1.725   4.332 -0.2334  1.6297 -0.1246
   56Eth     Ho 2693   2.537   2.837   3.041  0.4222  0.4323  1.6001
   56Eth     Oh 2694   2.529   2.746   3.063 -0.2730  0.1467  0.2137
   56Eth     Co 2695   2.524   2.674   2.943  0.3312  0.2673 -0.1121
   56Eth    Hco 2696   2.624   2.636   2.921 -0.2064 -1.2153 -0.0324
   56Eth    Hco 2697   2.487   2.739   2.864  0.1554  1.4999  0.9552
   56Eth     Ch 2698   2.434   2.554   2.965 -0.4208  0.3954 -0.5836
   56Eth    Hcc 2699   2.441   2.484   2.882 -1.3555 -1.3359  0.7438
   56Eth    Hcc 2700   2.332   2.593   2.976 -1.3510 -1.4747 -2.3086
   56Eth    Hcc 2701   2.454   2.491   3.052 -1.9728  0.6774 -0.0014
   57Eth     Ho 2702   2.487   1.906   1.693  0.7278  0.9155 -0.1619
   57Eth     Oh 2703   2.567   1.936   1.732  0.4369 -0.1720  1.3672
   57Eth     Co 2704   2.648   1.826   1.763 -0.8728 -0.1937 -0.4930
   57Eth    Hco 2705   2.744   1.856   1.805 -0.5225 -0.6067 -1.0013
   57Eth    Hco 2706   2.666   1.780   1.665  0.3389 -1.1057  0.1507
   57Eth     Ch 2707   2.573   1.718   1.842 -0.0387  0.4003  0.5609
   57Eth    Hcc 2708   2.476   1.706   1.794 -0.6872  0.2324  1.9124
   57Eth    Hcc 2709   2.556   1.750   1.944 -2.0042 -2.1808  1.0708
   57Eth    Hcc 2710   2.610   1.616   1.828 -1.1717 -0.0684  0.9660
   58Eth     Ho 2711   2.786   0.701   1.719 -0.3190  1.3268 -1.1625
   58Eth     Oh 2712   2.776   0.635   1.653 -0.6166 -0.0684  0.2436
   58Eth     Co 2713   2.797   0.690   1.519  0.0398  0.0561  0.1647
   58Eth    Hco 2714   2.871   0.626   1.470 -0.7053 -1.1363  0.5943
   58Eth    Hco 2715   2.846   0.785   1.539 -0.4077  0.1008  1.0648
   58Eth     Ch 2716   2.661   0.711   1.444  0.6361 -0.3680 -0.6037
   58Eth    Hcc 2717   2.682   0.774   1.358  0.2323 -0.3889 -0.7147
   58Eth    Hcc 2718   2.594   0.765   1.511  1.6951  0.4908 -0.2019
   58Eth    Hcc 2719   2.617   0.618   1.408 -1.1748  0.4463 -0.5433
   59Eth     Ho 2720   0.906   1.279   3.293 -1.1608 -0.0588  3.4143
   59Eth     Oh 2721   0.915   1.373   3.293  0.0407 -0.1084 -0.2830
   59Eth     Co 2722   0.811   1.433   3.365  0.0889  0.4967  0.2059
   59Eth    Hco 2723   0.826   1.411   3.471 -1.2327 -1.2922  0.0456
   59Eth    Hco 2724   0.715   1.396   3.328 -0.6580 -0.0215  2.5764
   59Eth     Ch 2725   0.825   1.582   3.352 -0.3763  0.8029 -0.7512
   59Eth    Hcc 2726   0.922   1.620   3.385 -0.4426 -0.2792  0.7197
   59Eth    Hcc 2727   0.744   1.630   3.406 -2.5311 -1.0330 -2.2596
   59Eth    Hcc 2728   0.809   1.611   3.248 -0.0439  2.2897 -0.3917
   60Eth     Ho 2729   0.265   3.009   8.810 -0.8534 -0.1697  1.3263
   60Eth     Oh 2730   0.327   3.005   8.881 -0.0820  0.2606  0.6924
   60Eth     Co 2731   0.369   2.873   8.882 -0.3113 -0.1082  0.2713
   60Eth    Hco 2732   0.423   2.859   8.788 -0.7145 -1.8545  0.2734
   60Eth    Hco 2733   0.280   2.811   8.870  0.3159 -0.6488 -1.9418
   60Eth     Ch 2734   0.444   2.827   9.012 -0.5655 -0.2775 -0.7182
   60Eth    Hcc 2735   0.450   2.718   9.005 -1.5042 -0.3799  0.0434
   60Eth    Hcc 2736   0.389   2.846   9.104  2.5665 -0.7905  1.3116
   60Eth    Hcc 2737   0.537   2.882   9.021 -0.9124 -0.2951  4.0616
   61Eth     Ho 2738   0.834   1.439   9.372 -1.4531  0.3870  0.8485
   61Eth     Oh 2739   0.769   1.503   9.348 -1.0906  0.5595  0.3118
   61Eth     Co 2740   0.754   1.567   9.473 -0.0451 -0.4270  0.4426
   61Eth    Hco 2741   0.850   1.594   9.517  0.2164 -0.7269  0.0619
   61Eth    Hco 2742   0.701   1.497   9.537 -3.1883 -1.5242 -3.1691
   61Eth     Ch 2743   0.663   1.689   9.462  0.1429  0.3315 -0.0221
   61Eth    Hcc 2744   0.560   1.657   9.480 -0.1502  2.0081  1.4389
   61Eth    Hcc 2745   0.667   1.735   9.364 -0.2613  0.4421  0.0142
   61Eth    Hcc 2746   0.682   1.758   9.545  0.6522  0.0966  0.0636
   62Eth     Ho 2747   1.147   0.647   6.645 -0.5088 -0.8139  1.2556
   62Eth     Oh 2748   1.225   0.600   6.623 -0.1374  0.3034  0.1228
   62Eth     Co 2749   1.298   0.696   6.542 -0.4965  0.3385 -0.2776
   62Eth    Hco 2750   1.325   0.787   6.594  2.9261  1.1695 -3.3477
   62Eth    Hco 2751   1.236   0.713   6.454  0.6621 -1.3780 -1.4708
   62Eth     Ch 2752   1.437   0.626   6.498 -0.1426  0.0066 -0.1260
   62Eth    Hcc 2753   1.419   0.529   6.453 -0.2066  0.4495 -1.0862
   62Eth    Hcc 2754   1.498   0.611   6.587 -0.6907 -1.2446  0.0399
   62Eth    Hcc 2755   1.496   0.681   6.424 -0.0984  1.3982  0.9150
   63Eth     Ho 2756   0.843   0.620   9.231 -0.0720 -0.8458 -1.1490
   63Eth     Oh 2757   0.914   0.586   9.282 -0.1777  0.1302 -0.3486
   63Eth     Co 2758   0.879   0.445   9.272 -0.1676 -0.3073  0.2656
   63Eth    Hco 2759   0.858   0.423   9.167  1.2983  0.2628 -0.1624
   63Eth    Hco 2760   0.786   0.421   9.323 -0.3507 -1.1314 -0.4320
   63Eth     Ch 2761   0.989   0.355   9.331  0.4302  0.4244 -0.1907
   63Eth    Hcc 2762   1.076   0.355   9.266 -0.5177 -1.8097 -1.5520
   63Eth    Hcc 2763   0.964   0.249   9.341 -0.5094  0.5952 -0.6306
   63Eth    Hcc 2764   1.019   0.390   9.430 -1.4193  0.9131  0.2119
   64Eth     Ho 2765   2.118   3.360   8.660 -0.2186 -0.7184  0.7500
   64Eth     Oh 2766   2.024   3.362   8.660 -0.2132 -0.2478 -0.0964
   64Eth     Co 2767   1.996   3.301   8.783 -0.3050  0.1962 -0.4256
   64Eth    Hco 2768   2.066   3.329   8.862 -1.4534 -0.8146  0.9770
   64Eth    Hco 2769   2.009   3.194   8.772 -0.3132 -0.1229  2.2747
   64Eth     Ch 2770   1.855   3.339   8.839 -0.3563  1.1555 -0.0044
   64Eth    Hcc 2771   1.832   3.290   8.933 -1.3553  1.8910  0.1348
   64Eth    Hcc 2772   1.779   3.325   8.761 -0.6984  0.5911  0.4275
   64Eth    Hcc 2773   1.855   3.447   8.853  0.2125  1.1952 -0.2784
   65Eth     Ho 2774   1.434   2.174   5.925 -1.9749  0.3480  1.5751
   65Eth     Oh 2775   1.425   2.083   5.944  0.3112 -0.2264  0.0581
   65Eth     Co 2776   1.377   2.014   5.821  0.1761 -0.5747 -1.2993
   65Eth    Hco 2777   1.410   2.076   5.737  0.5267  1.3482  0.2092
   65Eth    Hco 2778   1.268   2.012   5.824  0.1491  1.5148  1.0414
   65Eth     Ch 2779   1.428   1.873   5.804 -0.4061  0.3953 -0.2302
   65Eth    Hcc 2780   1.374   1.827   5.721 -1.6658  0.4528  0.5435
   65Eth    Hcc 2781   1.394   1.812   5.888 -0.2197 -0.9704 -1.1208
   65Eth    Hcc 2782   1.536   1.869   5.786 -0.3444  1.0041 -0.0030
   66Eth     Ho 2783   2.124   1.154   5.370  3.0880  0.8113  0.7017
   66Eth     Oh 2784   2.175   1.075   5.381  0.6360 -0.8486  0.5985
   66Eth     Co 2785   2.294   1.105   5.315 -0.0544 -0.1974 -0.1595
   66Eth    Hco 2786   2.328   1.203   5.347 -1.2649 -0.9938  3.7216
   66Eth    Hco 2787   2.276   1.122   5.209 -2.1730 -0.5713  0.1367
   66Eth     Ch 2788   2.397   0.995   5.334  0.1035  0.2881 -0.4358
   66Eth    Hcc 2789   2.483   1.022   5.273 -1.1657 -0.3642 -2.6027
   66Eth    Hcc 2790   2.361   0.894   5.314 -0.3037  0.6822 -1.7777
   66Eth    Hcc 2791   2.432   0.988   5.437  1.4643  0.6703 -0.8583
   67Eth     Ho 2792   2.625   0.259   4.366  0.1151 -1.1678 -1.7913
   67Eth     Oh 2793   2.689   0.227   4.427 -0.3492  0.1954 -0.5534
   67Eth     Co 2794   2.674   0.303   4.548 -0.6739 -0.1221  0.1985
   67Eth    Hco 2795   2.693   0.407   4.523 -2.8355  1.0167  2.9821
   67Eth    Hco 2796   2.757   0.265   4.607 -0.9154 -0.0317  0.6002
   67Eth     Ch 2797   2.556   0.249   4.628  0.5791 -0.0108 -0.3177
   67Eth    Hcc 2798   2.548   0.276   4.734  1.4284 -0.2453 -0.1948
   67Eth    Hcc 2799   2.560   0.141   4.638 -0.4445 -0.0812 -0.6069
   67Eth    Hcc 2800   2.469   0.268   4.566 -0.1961 -1.1341  0.4025
   68Eth     Ho 2801   2.176   3.400   2.952 -1.1548 -0.2836 -2.7120
   68Eth     Oh 2802   2.253   3.443   2.919  0.0090 -0.3177 -0.1529
   68Eth     Co 2803   2.361   3.353   2.890  0.1767  0.1390 -0.6039
   68Eth    Hco 2804   2.336   3.309   2.793 -2.3240  0.5977 -0.2166
   68Eth    Hco 2805   2.359   3.272   2.962 -0.7775  1.0094  0.3646
   68Eth     Ch 2806   2.494   3.424   2.897 -0.5467  0.3568  0.3201
   68Eth    Hcc 2807   2.571   3.346   2.892  1.5629  2.3800  0.2297
   68Eth    Hcc 2808   2.498   3.478   2.992  0.9700  1.3045 -0.2687
   68Eth    Hcc 2809   2.511   3.501   2.822 -0.8862  0.0975 -0.0214
   69Eth     Ho 2810   1.238   2.217   3.424  0.2991  1.3452 -0.0747
   69Eth     Oh 2811   1.295   2.181   3.358 -0.7277 -0.4560 -0.0127
   69Eth     Co 2812   1.262   2.047   3.326  0.5877  0.3331  0.6404
   69Eth    Hco 2813   1.158   2.033   3.297  0.0918  2.1447  1.4725
   69Eth    Hco 2814   1.285   1.987   3.414 -1.3006 -0.9600  0.2841
   69Eth     Ch 2815   1.364   2.002   3.225  0.5262  1.0563 -0.1206
   69Eth    Hcc 2816   1.461   2.034   3.264  0.6680 -0.3239  0.6889
   69Eth    Hcc 2817   1.341   2.050   3.130  0.1681  2.5678  0.7156
   69Eth    Hcc 2818   1.358   1.894   3.218  0.3886  1.1970 -2.3535
   70Eth     Ho 2819   1.780   1.597   9.910 -0.1299  0.6910  0.1705
   70Eth     Oh 2820   1.716   1.529   9.920  0.1517  0.2855 -0.7656
   70Eth     Co 2821   1.637   1.526   9.806 -0.9726 -1.0830 -0.3548
   70Eth    Hco 2822   1.708   1.499   9.728  0.5531 -1.8718  1.2575
   70Eth    Hco 2823   1.604   1.623   9.771  0.8552 -0.1349  0.4737
   70Eth     Ch 2824   1.522   1.438   9.823  0.0127  0.6411 -0.4853
   70Eth    Hcc 2825   1.544   1.346   9.877  0.5294 -0.4832 -2.5642
   70Eth    Hcc 2826   1.486   1.425   9.721 -1.7106  3.4163 -0.2965
   70Eth    Hcc 2827   1.447   1.486   9.886  0.2373  1.6442 -0.9725
   71Eth     Ho 2828   2.753   1.835   8.284 -0.5416  2.3824  0.2542
   71Eth     Oh 2829   2.819   1.846   8.218  0.0696 -0.4563  0.2917
   71Eth     Co 2830   2.822   1.983   8.192  0.8468 -0.1199 -0.0435
   71Eth    Hco 2831   2.880   2.032   8.270 -0.1197 -0.1856  0.7318
   71Eth    Hco 2832   2.722   2.027   8.196  0.7656 -0.0484 -2.2056
   71Eth     Ch 2833   2.900   2.015   8.056 -0.1783  0.3578  0.8387
   71Eth    Hcc 2834   2.837   2.002   7.968  0.9426 -0.5016  0.1386
   71Eth    Hcc 2835   2.990   1.955   8.043  0.1151  1.2499 -1.4922
   71Eth    Hcc 2836   2.931   2.120   8.048 -2.3386  0.8398 -2.6300
   72Eth     Ho 2837   0.126   1.983   5.810 -1.2886  0.7912 -0.1660
   72Eth     Oh 2838   0.081   1.910   5.848  0.1410 -0.0377 -0.0251
   72Eth     Co 2839   0.176   1.839   5.918 -0.1850  0.5643 -0.0908
   72Eth    Hco 2840   0.275   1.884   5.910  0.7977 -1.5855 -0.3904
   72Eth    Hco 2841   0.188   1.737   5.882 -0.8114  0.5689 -0.3242
   72Eth     Ch 2842   0.127   1.825   6.061 -0.6215 -0.2086  0.4931
   72Eth    Hcc 2843   0.018   1.817   6.061 -0.6627  0.3331 -0.0476
   72Eth    Hcc 2844   0.162   1.912   6.117 -0.4561 -1.0054  1.6715
   72Eth    Hcc 2845   0.164   1.737   6.113  1.9980  0.6669  0.1723
   73Eth     Ho 2846   1.415   1.804   2.334  2.9773  0.6726  1.4283
   73Eth     Oh 2847   1.431   1.876   2.276 -0.0549  0.1296 -0.1654
   73Eth     Co 2848   1.340   1.981   2.298  0.1587 -0.3278  0.4623
   73Eth    Hco 2849   1.367   2.022   2.396  0.3266 -1.7104  1.0054
   73Eth    Hco 2850   1.243   1.937   2.318 -0.3894  0.3190 -0.7418
   73Eth     Ch 2851   1.338   2.085   2.189 -0.1654  0.3114  0.3207
   73Eth    Hcc 2852   1.435   2.129   2.168 -0.1802 -0.6502 -1.9319
   73Eth    Hcc 2853   1.268   2.166   2.209 -1.1447 -0.2647 -0.7231
   73Eth    Hcc 2854   1.299   2.056   2.091  2.6130 -0.3142 -0.6427
   74Eth     Ho 2855   2.102   1.873   8.014 -0.8992 -1.8428 -0.2334
   74Eth     Oh 2856   2.017   1.907   7.995 -0.1829  0.2453  0.1477
   74Eth     Co 2857   1.915   1.814   8.034 -0.7001  0.5216  0.2641
   74Eth    Hco 2858   1.957   1.727   8.083  1.2975  1.5115  0.3541
   74Eth    Hco 2859   1.865   1.777   7.945  2.2690  0.2139 -1.3547
   74Eth     Ch 2860   1.802   1.870   8.121 -0.3112 -0.1420 -0.0197
   74Eth    Hcc 2861   1.745   1.785   8.158  1.6711 -0.7450  1.7088
   74Eth    Hcc 2862   1.739   1.949   8.080 -1.1654 -1.0575 -0.4874
   74Eth    Hcc 2863   1.848   1.899   8.215 -1.6066 -1.5922  1.0794
   75Eth     Ho 2864   2.966   2.366   5.944 -1.8271 -0.2855  0.0605
   75Eth     Oh 2865   2.965   2.396   5.855  0.3247 -0.8051 -0.1469
   75Eth     Co 2866   2.978   2.541   5.834 -0.1494  0.0396  0.3314
   75Eth    Hco 2867   2.991   2.561   5.728  0.2326  1.9775  0.7300
   75Eth    Hco 2868   3.066   2.571   5.891  0.7051  1.8953 -1.8872
   75Eth     Ch 2869   2.853   2.609   5.871  0.0028  0.5446  0.1593
   75Eth    Hcc 2870   2.848   2.718   5.872  2.4748  0.6723  0.3302
   75Eth    Hcc 2871   2.821   2.578   5.971  2.0057  0.5299  0.8080
   75Eth    Hcc 2872   2.771   2.570   5.810  1.5569 -1.2264 -0.8548
   76Eth     Ho 2873   1.970   0.589   3.934 -0.4848 -1.6690  0.5955
   76Eth     Oh 2874   1.880   0.618   3.935 -0.2051 -0.7794  0.6750
   76Eth     Co 2875   1.883   0.757   3.909 -0.1652 -0.2206  0.1574
   76Eth    Hco 2876   1.970   0.779   3.847  0.8361  0.8332  1.8828
   76Eth    Hco 2877   1.891   0.802   4.008  1.2150 -0.4962  0.1749
   76Eth     Ch 2878   1.748   0.800   3.845  0.6270  0.3663 -0.5252
   76Eth    Hcc 2879   1.762   0.905   3.822 -1.3725  0.4209 -1.5921
   76Eth    Hcc 2880   1.664   0.803   3.915 -0.0859  1.0863 -1.4108
   76Eth    Hcc 2881   1.723   0.740   3.757 -1.4872 -1.3690  1.1847
   77Eth     Ho 2882   0.388   3.315   9.753 -2.3379  0.6128  0.2205
   77Eth     Oh 2883   0.399   3.362   9.672  0.2195  0.3653  0.3825
   77Eth     Co 2884   0.542   3.369   9.640 -0.3090  0.6986 -0.0051
   77Eth    Hco 2885   0.586   3.350   9.738 -1.9423  2.6836  1.1611
   77Eth    Hco 2886   0.573   3.470   9.611 -1.6671  1.1502  0.0792
   77Eth     Ch 2887   0.572   3.271   9.528  0.0295 -0.3507 -0.7336
   77Eth    Hcc 2888   0.534   3.174   9.557  0.1121  0.0882  0.8509
   77Eth    Hcc 2889   0.680   3.262   9.512 -0.2033 -0.6936 -2.2503
   77Eth    Hcc 2890   0.521   3.309   9.439 -1.8979  1.3097  1.0411
   78Eth     Ho 2891   0.289   2.358   8.935 -2.2367  0.1352  0.7822
   78Eth     Oh 2892   0.291   2.264   8.933 -0.0397  0.1670  0.5712
   78Eth     Co 2893   0.326   2.209   9.052 -0.4997  0.2101 -0.4077
   78Eth    Hco 2894   0.257   2.236   9.131 -0.8105  1.2178 -1.0173
   78Eth    Hco 2895   0.424   2.250   9.077  0.8099 -0.6183 -3.7983
   78Eth     Ch 2896   0.340   2.056   9.048 -0.2320  0.2718  0.6446
   78Eth    Hcc 2897   0.400   2.019   9.131  1.5615  3.1486  0.6880
   78Eth    Hcc 2898   0.388   2.032   8.953  1.8848  1.2531  1.4476
   78Eth    Hcc 2899   0.240   2.014   9.054  0.1361 -1.2500 -2.5084
   79Eth     Ho 2900   3.007   1.129   8.990 -1.3291 -0.4891  0.4841
   79Eth     Oh 2901   3.008   1.182   9.068  0.0275 -0.9287  0.7710
   79Eth     Co 2902   2.974   1.310   9.020 -0.4246 -0.0762 -0.6333
   79Eth    Hco 2903   2.936   1.309   8.917  1.5025  0.3860 -1.3738
   79Eth    Hco 2904   3.072   1.357   9.012 -0.0426 -0.8649 -0.6153
   79Eth     Ch 2905   2.882   1.384   9.120 -0.5550  0.0941  0.0279
   79Eth    Hcc 2906   2.875   1.489   9.092  0.9485  0.8310  2.1736
   79Eth    Hcc 2907   2.914   1.377   9.224  0.0637  0.7603 -0.1067
   79Eth    Hcc 2908   2.778   1.353   9.117 -0.7039 -0.0098  3.8888
   80Eth     Ho 2909   2.781   0.965   4.831 -4.0820  1.6363 -0.6449
   80Eth     Oh 2910   2.782   0.901   4.762 -0.0545  0.4962  0.3023
   80Eth     Co 2911   2.908   0.910   4.698  0.2545  0.2593  0.4261
   80Eth    Hco 2912   2.989   0.906   4.771  0.7034  1.5456  0.0183
   80Eth    Hco 2913   2.919   1.009   4.653 -0.4890 -0.7326 -2.0304
   80Eth     Ch 2914   2.911   0.801   4.585 -0.2607 -0.8866  0.4241
   80Eth    Hcc 2915   2.869   0.705   4.613 -1.0618 -0.7853 -0.3929
   80Eth    Hcc 2916   3.007   0.786   4.535  0.6320  0.5904  1.6589
   80Eth    Hcc 2917   2.842   0.815   4.501  0.7141 -0.0842 -0.2536
   81Eth     Ho 2918   0.527   0.092   1.808 -2.0236  0.6341 -1.4509
   81Eth     Oh 2919   0.478   0.056   1.879  0.0162  0.2148 -0.1877
   81Eth     Co 2920   0.557   0.068   1.994 -0.3537 -0.1579 -0.5678
   81Eth    Hco 2921   0.499   0.045   2.084 -1.3270  0.4616 -1.0293
   81Eth    Hco 2922   0.605   0.161   2.025  1.2019 -0.9991 -0.4123
   81Eth     Ch 2923   0.661  -0.037   1.997 -0.2469 -0.0714  0.5404
   81Eth    Hcc 2924   0.705  -0.027   1.898  0.9529  3.3738  1.3282
   81Eth    Hcc 2925   0.625  -0.136   2.021 -0.7694  0.3901  1.7106
   81Eth    Hcc 2926   0.747  -0.030   2.065  2.7160  0.0387 -3.0843
   82Eth     Ho 2927   0.679   2.166   8.454  0.9037  0.2321  0.2588
   82Eth     Oh 2928   0.663   2.235   8.393  0.1257  0.1143  0.3238
   82Eth     Co 2929   0.628   2.347   8.463 -0.8561 -0.5579  0.3390
   82Eth    Hco 2930   0.716   2.403   8.495 -0.3026  0.0989 -2.2297
   82Eth    Hco 2931   0.564   2.317   8.546 -0.6665 -1.0021  0.3211
   82Eth     Ch 2932   0.570   2.444   8.355  0.2487  0.1013 -0.1504
   82Eth    Hcc 2933   0.535   2.540   8.392  0.4570 -0.1025  0.5861
   82Eth    Hcc 2934   0.488   2.401   8.298 -0.0861  0.9997 -0.3590
   82Eth    Hcc 2935   0.652   2.478   8.292 -0.6048  1.5875 -0.4761
   83Eth     Ho 2936   3.300   1.018   1.657  1.7257 -1.2905  0.9137
   83Eth     Oh 2937   3.361   1.087   1.636 -0.4954  0.3893 -0.1641
   83Eth     Co 2938   3.344   1.111   1.498 -0.3173 -0.1453  0.5916
   83Eth    Hco 2939   3.237   1.121   1.479  0.3723  2.2711 -2.4614
   83Eth    Hco 2940   3.370   1.023   1.441  3.5632  1.4786 -0.3050
   83Eth     Ch 2941   3.437   1.233   1.463  0.3320 -0.0233  0.3158
   83Eth    Hcc 2942   3.400   1.326   1.507 -0.3562  0.3702 -1.0795
   83Eth    Hcc 2943   3.426   1.243   1.355 -1.4888 -1.0410  0.3772
   83Eth    Hcc 2944   3.543   1.226   1.487  0.2774 -2.5726 -0.0643
   84Eth     Ho 2945   1.534   2.704   4.856 -1.0539 -0.5241 -1.9261
   84Eth     Oh 2946   1.448   2.729   4.884 -0.2512 -0.0234  0.1867
   84Eth     Co 2947   1.430   2.678   5.010  0.3168 -0.1911  0.1552
   84Eth    Hco 2948   1.497   2.740   5.069  0.0693 -1.2848  1.5979
   84Eth    Hco 2949   1.462   2.574   5.017 -0.8579 -0.5773 -0.0987
   84Eth     Ch 2950   1.282   2.697   5.057 -0.2288 -0.3962 -0.7057
   84Eth    Hcc 2951   1.271   2.657   5.157  1.8542 -0.6197 -0.5291
   84Eth    Hcc 2952   1.203   2.652   4.997 -1.4091  0.7686 -0.0496
   84Eth    Hcc 2953   1.261   2.804   5.062 -0.8474 -0.3713 -3.2772
   85Eth     Ho 2954   0.169   1.135   8.448 -1.7729 -0.3531  0.0803
   85Eth     Oh 2955   0.195   1.048   8.471  0.2099 -0.0222 -0.7593
   85Eth     Co 2956   0.121   1.013   8.591 -0.1598 -0.1834  0.1467
   85Eth    Hco 2957   0.022   1.058   8.595  0.5089  1.2503  0.8316
   85Eth    Hco 2958   0.181   1.053   8.673 -0.0518  0.5265 -0.2734
   85Eth     Ch 2959   0.100   0.866   8.607  0.0297  0.2661  0.6673
   85Eth    Hcc 2960   0.181   0.796   8.585  1.8262  1.9637  1.6279
   85Eth    Hcc 2961   0.009   0.842   8.553  1.1643  0.5411 -1.4290
   85Eth    Hcc 2962   0.062   0.847   8.707  0.9898  0.5185  1.0854
   86Eth     Ho 2963   3.263   1.506   1.474  2.1633 -1.7331  1.6551
   86Eth     Oh 2964   3.330   1.565   1.444 -0.2542  0.3939  0.2700
   86Eth     Co 2965   3.382   1.625   1.559  0.0454 -0.1219  0.1168
   86Eth    Hco 2966   3.399   1.560   1.645 -0.3860  1.4553  1.4089
   86Eth    Hco 2967   3.311   1.701   1.592  0.1557  0.1479 -0.2673
   86Eth     Ch 2968   3.512   1.702   1.513 -0.1210 -0.0103  0.1869
   86Eth    Hcc 2969   3.582   1.633   1.467 -1.0597 -0.8662  0.0376
   86Eth    Hcc 2970   3.565   1.739   1.601  0.6653 -0.3551 -0.1322
   86Eth    Hcc 2971   3.502   1.792   1.451  0.0382  0.9480  1.5261
   87Eth     Ho 2972   0.251   2.186   8.712 -0.1940  1.7106  0.5274
   87Eth     Oh 2973   0.236   2.195   8.619  0.3163  0.1041  0.2648
   87Eth     Co 2974   0.315   2.101   8.550 -0.1928 -0.5781  0.3852
   87Eth    Hco 2975   0.278   2.000   8.573  2.4694 -2.1094 -1.7603
   87Eth    Hco 2976   0.413   2.120   8.593 -0.7002 -0.3027  1.4324
   87Eth     Ch 2977   0.307   2.122   8.402  0.4523 -0.0158 -0.5694
   87Eth    Hcc 2978   0.204   2.131   8.369 -0.1583 -1.3255  0.8746
   87Eth    Hcc 2979   0.353   2.046   8.339 -1.2157 -0.7851 -0.8703
   87Eth    Hcc 2980   0.361   2.208   8.362  1.3809 -1.4401 -2.4200
   88Eth     Ho 2981   0.129   2.407   8.007 -0.8247  1.2776  2.1563
   88Eth     Oh 2982   0.065   2.429   7.942  0.5701  0.5924  0.5242
   88Eth     Co 2983  -0.026   2.335   7.970  1.2936 -0.1842  0.0660
   88Eth    Hco 2984  -0.028   2.333   8.078 -1.5553 -0.1292  0.0490
   88Eth    Hco 2985  -0.003   2.236   7.929 -0.3823 -0.8319  0.6275
   88Eth     Ch 2986  -0.173   2.379   7.932  0.8151  0.5081 -0.6906
   88Eth    Hcc 2987  -0.183   2.385   7.823 -0.7941  0.3374 -0.5545
   88Eth    Hcc 2988  -0.205   2.471   7.981  0.3315  0.1986 -0.4265
   88Eth    Hcc 2989  -0.236   2.296   7.964 -0.3338  1.8894  0.6567
   89Eth     Ho 2990   2.434   0.631   6.742 -0.6215 -0.4029  1.6431
   89Eth     Oh 2991   2.406   0.554   6.695  0.1753  0.0483  0.3939
   89Eth     Co 2992   2.276   0.581   6.637 -0.0724 -0.3272 -1.0240
   89Eth    Hco 2993   2.294   0.654   6.558  1.3046 -0.3387 -0.7290
   89Eth    Hco 2994   2.208   0.612   6.716 -1.0112 -1.3739 -1.3973
   89Eth     Ch 2995   2.232   0.456   6.554  0.0404 -0.5134 -0.1174
   89Eth    Hcc 2996   2.130   0.476   6.522 -0.7208 -1.7810  1.4193
   89Eth    Hcc 2997   2.228   0.371   6.622 -1.1732 -1.0568 -0.8712
   89Eth    Hcc 2998   2.304   0.446   6.472 -1.9915  1.2511 -2.1636
   90Eth     Ho 2999   3.067   3.060   8.057 -2.8218 -1.4157  1.1404
   90Eth     Oh 3000   3.066   3.113   8.135 -0.0427 -0.0782  0.3578
   90Eth     Co 3001   2.936   3.139   8.155  0.5422 -0.0294  0.4446
   90Eth    Hco 3002   2.892   3.043   8.182 -0.1966  0.1399 -0.1542
   90Eth    Hco 3003   2.886   3.177   8.066  1.9622  1.9027  0.4544
   90Eth     Ch 3004   2.916   3.247   8.253  0.0160  0.0852 -0.2590
   90Eth    Hcc 3005   2.810   3.273   8.256  0.1755  0.5985  0.8068
   90Eth    Hcc 3006   2.982   3.333   8.242  0.6638 -0.1109  1.9557
   90Eth    Hcc 3007   2.931   3.203   8.351 -3.2310 -0.6031 -0.0077
   91Eth     Ho 3008   2.455   2.077   6.102 -0.3087  0.3489  0.7766
   91Eth     Oh 3009   2.532   2.088   6.155  0.4236  0.7716 -0.3736
   91Eth     Co 3010   2.572   1.953   6.180  0.2521 -0.3555 -0.4063
   91Eth    Hco 3011   2.578   1.918   6.077 -1.0019  0.7969 -0.8840
   91Eth    Hco 3012   2.493   1.900   6.232 -0.5538  0.8351 -0.4092
   91Eth     Ch 3013   2.699   1.957   6.257  0.0486 -0.4696 -0.5337
   91Eth    Hcc 3014   2.700   2.039   6.328  1.0014  0.1529 -1.2386
   91Eth    Hcc 3015   2.783   1.987   6.193  2.3456 -0.9228  2.1864
   91Eth    Hcc 3016   2.723   1.863   6.305  1.1209 -0.2757 -0.6805
   92Eth     Ho 3017   0.850   0.148   4.062 -2.2190 -0.1309  1.3742
   92Eth     Oh 3018   0.833   0.092   3.988  0.2220  0.7422  0.0839
   92Eth     Co 3019   0.712   0.141   3.938  0.2289 -0.2789  0.4424
   92Eth    Hco 3020   0.720   0.249   3.937 -0.1905 -0.1852  3.3644
   92Eth    Hco 3021   0.634   0.120   4.010  0.1985 -1.4040  0.1002
   92Eth     Ch 3022   0.684   0.083   3.797 -1.0188  0.1589 -0.1832
   92Eth    Hcc 3023   0.769   0.098   3.730 -0.1284 -1.0025  0.6705
   92Eth    Hcc 3024   0.589   0.126   3.765 -2.6045 -0.9936  2.8305
   92Eth    Hcc 3025   0.661  -0.023   3.808 -1.9607  0.5143  1.2565
   93Eth     Ho 3026   0.841   0.157   5.916  3.1424 -0.5146  0.3602
   93Eth     Oh 3027   0.863   0.142   5.826  0.9037  0.0994 -0.3017
   93Eth     Co 3028   0.824   0.002   5.797  0.8157  0.2888  0.2268
   93Eth    Hco 3029   0.715   0.001   5.784  0.7040  1.9323  0.8462
   93Eth    Hco 3030   0.860  -0.063   5.877 -0.2906 -0.0837  0.4393
   93Eth     Ch 3031   0.887  -0.041   5.661 -0.1177  0.3077 -0.1517
   93Eth    Hcc 3032   0.993  -0.019   5.663 -0.3477  1.4264 -0.1295
   93Eth    Hcc 3033   0.838   0.007   5.576 -1.0321 -1.0574 -0.4280
   93Eth    Hcc 3034   0.883  -0.150   5.651 -1.6847  0.2589  0.8388
   94Eth     Ho 3035   1.438   1.265   3.633 -0.6579 -0.1104  0.1341
   94Eth     Oh 3036   1.521   1.226   3.611 -0.7470 -0.0651 -0.2745
   94Eth     Co 3037   1.599   1.192   3.725  0.4940 -0.7117 -0.1297
   94Eth    Hco 3038   1.544   1.116   3.779  0.7192 -1.9121 -1.5475
   94Eth    Hco 3039   1.608   1.285   3.780  0.3990 -2.2476  2.5599
   94Eth     Ch 3040   1.743   1.162   3.679  0.4107 -0.1810 -0.1807
   94Eth    Hcc 3041   1.781   1.243   3.618  1.4551 -0.2940  0.3167
   94Eth    Hcc 3042   1.736   1.078   3.610 -0.4791 -0.5111  0.3011
   94Eth    Hcc 3043   1.804   1.138   3.766  0.4577  2.4259  0.5234
   95Eth     Ho 3044   0.203   0.545   9.500  1.0348  0.1609 -2.3651
   95Eth     Oh 3045   0.142   0.603   9.460 -0.8408  0.1864  0.3609
   95Eth     Co 3046   0.019   0.588   9.527  0.0169  0.3089  0.6842
   95Eth    Hco 3047   0.025   0.626   9.629 -0.7925  0.8117  0.5471
   95Eth    Hco 3048  -0.004   0.482   9.529  0.9101  0.1142  1.0170
   95Eth     Ch 3049  -0.069   0.675   9.441  0.1199  0.3697 -0.5781
   95Eth    Hcc 3050  -0.161   0.700   9.492  0.1491  1.2465 -0.9392
   95Eth    Hcc 3051  -0.103   0.645   9.342 -3.3457 -2.0194  1.2446
   95Eth    Hcc 3052  -0.031   0.776   9.426 -1.0674  0.8336 -0.4594
   96Eth     Ho 3053   0.833   1.854   8.549 -0.9332  1.4188  0.6493
   96Eth     Oh 3054   0.860   1.828   8.635 -0.1285  0.1726  0.0423
   96Eth     Co 3055   0.908   1.950   8.686 -0.4092  0.5682 -0.1015
   96Eth    Hco 3056   0.831   2.027   8.695 -0.2953  0.8713 -1.4914
   96Eth    Hco 3057   0.986   1.996   8.625  1.1771 -3.8514 -1.6073
   96Eth     Ch 3058   0.949   1.924   8.828 -0.2530 -0.1842 -0.0545
   96Eth    Hcc 3059   1.037   1.863   8.850 -1.5458 -0.4156  5.3577
   96Eth    Hcc 3060   0.874   1.870   8.888  0.1782 -0.7949 -0.0586
   96Eth    Hcc 3061   0.974   2.016   8.881  1.0369  1.0967 -2.7775
   97Eth     Ho 3062   0.558   2.706   9.974  1.0294 -0.1244 -0.6725
   97Eth     Oh 3063   0.492   2.683   9.911  0.2946 -0.2975  0.1576
   97Eth     Co 3064   0.542   2.720   9.785 -0.4245 -0.4058  0.4875
   97Eth    Hco 3065   0.641   2.677   9.793 -0.3925 -0.3045  0.6429
   97Eth    Hco 3066   0.559   2.827   9.776 -1.9250 -0.1458  0.5217
   97Eth     Ch 3067   0.455   2.664   9.667  0.8685 -0.2482  0.5573
   97Eth    Hcc 3068   0.481   2.695   9.565 -0.3243  2.0113  0.9151
   97Eth    Hcc 3069   0.349   2.674   9.690  0.8391  0.4056  0.1695
   97Eth    Hcc 3070   0.484   2.561   9.649 -0.4054 -0.5572  0.2502
   98Eth     Ho 3071   3.055   0.091   1.673 -0.7166 -0.4885  0.9032
   98Eth     Oh 3072   3.054  -0.003   1.676  0.4456 -0.5592 -0.3157
   98Eth     Co 3073   2.952  -0.056   1.597  0.5676  0.0047 -0.4893
   98Eth    Hco 3074   2.957  -0.020   1.494 -0.8892 -1.2781 -1.0229
   98Eth    Hco 3075   2.859  -0.024   1.645  1.0508 -0.7146  0.9469
   98Eth     Ch 3076   2.949  -0.208   1.603  0.2591 -0.2712 -0.3599
   98Eth    Hcc 3077   2.954  -0.245   1.706  0.3475  0.3862 -0.1256
   98Eth    Hcc 3078   3.032  -0.252   1.549 -0.1737  0.0686 -1.3070
   98Eth    Hcc 3079   2.852  -0.248   1.575  0.9329 -3.9759  2.1534
   99Eth     Ho 3080   2.412   0.593   5.232 -0.6801  2.0085  0.6101
   99Eth     Oh 3081   2.399   0.520   5.290  0.3619  0.3554 -1.2160
   99Eth     Co 3082   2.263   0.527   5.337 -0.7318  0.3983 -0.0247
   99Eth    Hco 3083   2.187   0.538   5.260 -0.8724  0.1710  0.0830
   99Eth    Hco 3084   2.247   0.616   5.399 -1.7650  1.0633 -1.2247
   99Eth     Ch 3085   2.240   0.418   5.432 -0.2842  0.3496  0.3502
   99Eth    Hcc 3086   2.264   0.429   5.538 -1.2992  1.2103  0.4953
   99Eth    Hcc 3087   2.306   0.332   5.421  1.3153  1.7638 -1.5575
   99Eth    Hcc 3088   2.138   0.382   5.426 -0.8970  1.6775  2.1736
  100Eth     Ho 3089   1.661   2.353   3.925 -0.6060  1.3970  0.7852
  100Eth     Oh 3090   1.649   2.276   3.977 -0.1892  0.3817 -0.6279
  100Eth     Co 3091   1.598   2.178   3.888 -0.2839  1.1527  0.0976
  100Eth    Hco 3092   1.683   2.152   3.825  0.9239  2.6318  1.0899
  100Eth    Hco 3093   1.519   2.228   3.833 -1.3794 -0.6095  0.0108
  100Eth     Ch 3094   1.549   2.055   3.967 -0.8329 -0.6428  0.1171
  100Eth    Hcc 3095   1.548   1.981   3.888 -0.4229 -0.4782 -0.0455
  100Eth    Hcc 3096   1.447   2.040   4.002 -1.1204 -1.8373 -1.2261
  100Eth    Hcc 3097   1.627   2.020   4.035  0.2269  0.1280 -0.6867
  101Eth     Ho 3098   2.087   0.666   8.508  0.1914  1.2069  0.2664
  101Eth     Oh 3099   1.997   0.641   8.502  0.4019  0.3395  0.6577
  101Eth     Co 3100   1.943   0.694   8.621  0.1459  0.0928  0.4148
  101Eth    Hco 3101   2.002   0.774   8.665  1.9607 -2.0587  1.9982
  101Eth    Hco 3102   1.937   0.623   8.704  1.0178 -2.1259 -1.3636
  101Eth     Ch 3103   1.798   0.735   8.579 -0.3003  0.3658  0.3943
  101Eth    Hcc 3104   1.742   0.647   8.549 -0.1191  0.7877 -1.2247
  101Eth    Hcc 3105   1.811   0.810   8.500  1.0187  0.0692  0.3203
  101Eth    Hcc 3106   1.743   0.775   8.664 -0.5456 -0.8861  0.8354
  102Eth     Ho 3107   1.625   3.211   5.565 -0.9084 -1.0528  3.1025
  102Eth     Oh 3108   1.677   3.277   5.608  0.0783  0.3432 -0.0130
  102Eth     Co 3109   1.793   3.226   5.672 -0.2869 -0.0538  0.3669
  102Eth    Hco 3110   1.832   3.167   5.589  0.6779  2.3527 -0.9428
  102Eth    Hco 3111   1.781   3.156   5.755 -1.0352 -1.0925 -0.5950
  102Eth     Ch 3112   1.885   3.343   5.718 -0.6374 -0.6289 -0.0440
  102Eth    Hcc 3113   1.982   3.299   5.741 -1.2929 -1.1229  1.8277
  102Eth    Hcc 3114   1.857   3.393   5.811 -0.9861  0.0929 -0.5294
  102Eth    Hcc 3115   1.898   3.415   5.637  2.0862 -0.5593  0.4207
  103Eth     Ho 3116   1.942   2.105   5.799  2.2325 -3.8218 -0.2245
  103Eth     Oh 3117   1.934   2.094   5.892  0.4102  0.4603  0.2499
  103Eth     Co 3118   1.798   2.057   5.923  0.2625  0.1310  0.4894
  103Eth    Hco 3119   1.739   2.095   5.839 -1.8295  1.4968  2.5459
  103Eth    Hco 3120   1.763   2.102   6.015 -0.2631 -1.2938  1.0064
  103Eth     Ch 3121   1.793   1.903   5.940  0.0710  1.0043  0.0554
  103Eth    Hcc 3122   1.816   1.842   5.853  0.2584  0.1591  0.6892
  103Eth    Hcc 3123   1.702   1.868   5.990  0.8122  1.0308  1.4624
  103Eth    Hcc 3124   1.876   1.872   6.004 -1.0753  1.4481  1.7974
  104Eth     Ho 3125   0.391   3.268   7.182 -0.0876  0.6714  0.0614
  104Eth     Oh 3126   0.337   3.196   7.154  0.4666  0.1938  0.2019
  104Eth     Co 3127   0.202   3.242   7.152  0.4660  0.3344 -0.9039
  104Eth    Hco 3128   0.175   3.232   7.257  0.2038  2.2095 -0.7726
  104Eth    Hco 3129   0.142   3.174   7.091 -0.1945  1.4880 -1.5558
  104Eth     Ch 3130   0.196   3.390   7.105  0.5581 -0.1332  0.6543
  104Eth    Hcc 3131   0.093   3.422   7.093  1.0512  1.1613 -0.2644
  104Eth    Hcc 3132   0.224   3.415   7.003 -0.7194 -0.1593  0.2939
  104Eth    Hcc 3133   0.237   3.457   7.181  0.7226 -1.6702  1.9644
  105Eth     Ho 3134   2.055   2.752   5.995 -1.6855  2.3878 -0.5952
  105Eth     Oh 3135   2.020   2.766   6.082  0.8648  0.0212  0.8862
  105Eth     Co 3136   1.987   2.643   6.132  0.0243 -0.6076  0.0809
  105Eth    Hco 3137   2.075   2.582   6.153 -0.5098 -1.6653 -0.7104
  105Eth    Hco 3138   1.934   2.595   6.050 -0.2078  1.0143 -0.7433
  105Eth     Ch 3139   1.898   2.636   6.258 -0.3322 -0.3044  0.2188
  105Eth    Hcc 3140   1.890   2.531   6.286  1.7587 -1.5206 -3.3364
  105Eth    Hcc 3141   1.795   2.661   6.231 -0.2206  1.4129  1.2757
  105Eth    Hcc 3142   1.930   2.716   6.326  0.2480 -1.6255  1.5216
  106Eth     Ho 3143   0.146   0.357   2.989  2.4109  0.2454 -1.8799
  106Eth     Oh 3144   0.174   0.280   3.034  0.5543  0.5325 -0.1701
  106Eth     Co 3145   0.118   0.161   2.973 -0.9024 -0.6951  0.1310
  106Eth    Hco 3146   0.196   0.116   2.911  0.3036  2.8525 -1.0549
  106Eth    Hco 3147   0.041   0.195   2.903 -2.9864 -1.8040  1.8269
  106Eth     Ch 3148   0.064   0.068   3.075  0.6297 -0.1145 -0.1629
  106Eth    Hcc 3149   0.038  -0.022   3.019  0.3033 -0.3443  0.3536
  106Eth    Hcc 3150  -0.028   0.096   3.127  2.4887 -0.8181  3.7335
  106Eth    Hcc 3151   0.134   0.026   3.147  1.3493 -1.4153 -1.5812
  107Eth     Ho 3152   0.530   0.761   5.565  1.3767  0.1432 -1.4068
  107Eth     Oh 3153   0.515   0.684   5.514  0.1034 -0.2609 -0.4404
  107Eth     Co 3154   0.602   0.689   5.415 -0.1703  0.2320  0.6109
  107Eth    Hco 3155   0.609   0.592   5.366  0.3776  0.0625  1.0293
  107Eth    Hco 3156   0.704   0.713   5.444  0.6287 -0.8214 -1.2659
  107Eth     Ch 3157   0.559   0.789   5.303 -0.4651 -0.1525 -0.1498
  107Eth    Hcc 3158   0.576   0.892   5.337  0.0510 -1.0315  2.3522
  107Eth    Hcc 3159   0.454   0.787   5.275 -0.2212  1.7369 -1.3235
  107Eth    Hcc 3160   0.619   0.788   5.212 -0.6699  2.5217 -0.3694
  108Eth     Ho 3161   2.062   2.649   2.813 -0.6873  4.3904  1.8748
  108Eth     Oh 3162   2.109   2.686   2.741  0.9052 -0.0830  0.4104
  108Eth     Co 3163   2.016   2.696   2.632 -0.0304 -0.5668 -0.7234
  108Eth    Hco 3164   1.929   2.753   2.662 -1.0224 -1.1185 -2.4776
  108Eth    Hco 3165   1.992   2.594   2.602  3.3518 -0.8670 -2.7847
  108Eth     Ch 3166   2.079   2.771   2.517  0.4473 -0.7270  0.0600
  108Eth    Hcc 3167   2.175   2.726   2.492  0.5759 -0.2432 -0.3285
  108Eth    Hcc 3168   2.102   2.873   2.548  1.0735  0.1134 -3.0037
  108Eth    Hcc 3169   2.019   2.780   2.427  1.0259 -2.1481 -0.4708
  109Eth     Ho 3170   2.474   1.138   7.123 -1.5704 -0.2474  2.3628
  109Eth     Oh 3171   2.483   1.230   7.141 -0.6645  0.2963 -0.6800
  109Eth     Co 3172   2.617   1.256   7.169  0.2535  0.0178  0.6696
  109Eth    Hco 3173   2.684   1.206   7.099 -0.3265  0.4008 -0.1665
  109Eth    Hco 3174   2.649   1.210   7.262  0.9926  0.7657  0.7951
  109Eth     Ch 3175   2.651   1.403   7.173  0.2101  0.3886  0.5595
  109Eth    Hcc 3176   2.579   1.453   7.238 -1.9429 -1.6753 -0.1399
  109Eth    Hcc 3177   2.664   1.453   7.077 -1.4154  2.9302  1.5992
  109Eth    Hcc 3178   2.753   1.415   7.210  1.1625  1.3799 -2.2183
  110Eth     Ho 3179   0.162   1.637   9.665  1.8060 -2.8101 -0.6804
  110Eth     Oh 3180   0.161   1.614   9.756  0.2506 -0.1315  0.0158
  110Eth     Co 3181   0.028   1.573   9.795  0.6598 -0.4320  0.7486
  110Eth    Hco 3182  -0.012   1.534   9.702  1.0647  0.3249  0.2518
  110Eth    Hco 3183  -0.030   1.661   9.825  1.2026 -0.7739  2.9084
  110Eth     Ch 3184   0.022   1.468   9.909 -0.0031  0.2980 -0.2320
  110Eth    Hcc 3185  -0.084   1.446   9.921  0.7432 -2.5985  1.6081
  110Eth    Hcc 3186   0.062   1.521   9.996 -0.3402  1.4141 -0.7422
  110Eth    Hcc 3187   0.086   1.381   9.891 -0.8138 -0.7086  1.6972
  111Eth     Ho 3188   0.073   1.834   2.641  0.8100  0.8245  0.8065
  111Eth     Oh 3189   0.033   1.912   2.675 -0.2915  0.7083 -0.1815
  111Eth     Co 3190  -0.018   1.996   2.569  0.3858  0.1081 -0.8564
  111Eth    Hco 3191  -0.067   1.937   2.491 -2.0906  0.4287  0.4127
  111Eth    Hco 3192   0.060   2.055   2.521  1.1349 -0.7136 -0.6716
  111Eth     Ch 3193  -0.123   2.092   2.629 -0.1473 -1.1430 -0.2936
  111Eth    Hcc 3194  -0.083   2.164   2.699 -1.1126  0.7755 -1.6387
  111Eth    Hcc 3195  -0.190   2.028   2.686  2.8247 -2.7486  1.4522
  111Eth    Hcc 3196  -0.167   2.156   2.552  0.1709 -0.1706  0.3214
  112Eth     Ho 3197   1.657   3.322   8.233 -0.9445  1.3427  0.5988
  112Eth     Oh 3198   1.734   3.337   8.285 -0.2352  0.4657 -0.2023
  112Eth     Co 3199   1.840   3.327   8.196 -0.2995 -0.3517  0.0446
  112Eth    Hco 3200   1.817   3.385   8.107  3.9969 -0.8865 -1.5446
  112Eth    Hco 3201   1.841   3.224   8.160 -0.8963 -0.1370 -0.5912
  112Eth     Ch 3202   1.989   3.357   8.249  0.1964  0.5401  0.3511
  112Eth    Hcc 3203   2.061   3.354   8.167  0.4795  1.1610  0.5766
  112Eth    Hcc 3204   2.010   3.284   8.327 -0.0603 -0.3922 -0.4351
  112Eth    Hcc 3205   1.980   3.455   8.295  2.2757  0.5269  0.8289
  113Eth     Ho 3206   0.989   0.286   8.500 -1.8943 -1.8642 -0.0425
  113Eth     Oh 3207   1.015   0.236   8.425 -0.0041  0.0024 -0.6577
  113Eth     Co 3208   0.908   0.239   8.335 -0.0079 -0.2073  0.0556
  113Eth    Hco 3209   0.903   0.347   8.321  0.9995  0.3721  3.7143
  113Eth    Hco 3210   0.816   0.208   8.384 -0.6922  0.9813 -0.4527
  113Eth     Ch 3211   0.935   0.163   8.203  0.6534 -0.8823 -0.3436
  113Eth    Hcc 3212   0.992   0.074   8.231  2.0826  0.4576  1.1391
  113Eth    Hcc 3213   1.003   0.232   8.154 -0.1003  1.6522  1.9939
  113Eth    Hcc 3214   0.853   0.145   8.134  1.4010  1.6662 -1.9393
  114Eth     Ho 3215   1.958   1.902   4.083  0.7032 -2.3371  1.3275
  114Eth     Oh 3216   1.936   1.946   4.163 -0.2780 -0.2675 -0.0243
  114Eth     Co 3217   2.045   2.026   4.208 -0.0790 -0.3503  0.7346
  114Eth    Hco 3218   2.057   2.115   4.147  1.7231 -0.3030  1.1328
  114Eth    Hco 3219   2.140   1.973   4.212 -0.1780 -0.7285 -1.7281
  114Eth     Ch 3220   2.031   2.093   4.347  0.7542 -0.1144  0.1995
  114Eth    Hcc 3221   2.010   2.026   4.430 -2.6627  0.9872  0.3348
  114Eth    Hcc 3222   1.955   2.171   4.340  2.2917  1.3872 -0.0507
  114Eth    Hcc 3223   2.121   2.147   4.375  1.2720  0.3578 -2.2262
  115Eth     Ho 3224   3.272   3.104   7.400  1.3520 -0.0856 -1.4322
  115Eth     Oh 3225   3.217   3.044   7.352  0.0132  0.1675 -0.2503
  115Eth     Co 3226   3.290   2.960   7.267 -0.2271 -0.0805  0.2611
  115Eth    Hco 3227   3.396   2.954   7.295 -0.2172 -0.4967  0.1242
  115Eth    Hco 3228   3.272   3.001   7.168 -1.2604  1.2239  0.9693
  115Eth     Ch 3229   3.231   2.815   7.278 -0.2153 -0.4430 -0.3395
  115Eth    Hcc 3230   3.271   2.765   7.366  0.1870  0.6565  0.1131
  115Eth    Hcc 3231   3.258   2.748   7.196  0.0444 -1.9402  0.9461
  115Eth    Hcc 3232   3.122   2.818   7.283 -0.2353  0.0862 -1.0732
  116Eth     Ho 3233   1.712   2.086   7.545 -0.5767 -0.4889  1.9692
  116Eth     Oh 3234   1.714   1.995   7.522  0.0369  0.1176 -0.5195
  116Eth     Co 3235   1.639   1.983   7.404 -0.2869 -0.0734 -0.3630
  116Eth    Hco 3236   1.668   2.065   7.339 -0.1888 -0.0964 -0.3482
  116Eth    Hco 3237   1.538   2.003   7.439 -0.4128  1.1557 -1.3991
  116Eth     Ch 3238   1.667   1.848   7.328 -0.7895  0.4079 -0.8304
  116Eth    Hcc 3239   1.775   1.834   7.324 -0.6659  1.3391 -1.0035
  116Eth    Hcc 3240   1.639   1.853   7.223  0.5669 -0.3214 -1.2361
  116Eth    Hcc 3241   1.627   1.756   7.370 -2.0292  0.4556 -1.8754
  117Eth     Ho 3242   3.172   1.001  10.005 -1.9294  0.8221 -1.6250
  117Eth     Oh 3243   3.219   0.977   9.926  0.2752  0.7731 -0.3494
  117Eth     Co 3244   3.133   1.012   9.816  0.9610  0.6682  0.1999
  117Eth    Hco 3245   3.042   0.952   9.821  0.2026  1.8373  0.6116
  117Eth    Hco 3246   3.185   0.981   9.726  2.4553  2.6329  0.3748
  117Eth     Ch 3247   3.089   1.158   9.834 -0.1148 -0.0023 -0.2126
  117Eth    Hcc 3248   3.174   1.214   9.793  1.5674 -1.8226  0.7334
  117Eth    Hcc 3249   3.051   1.192   9.930 -1.7954 -0.3941 -0.7279
  117Eth    Hcc 3250   3.007   1.191   9.769 -0.7953  1.2778  1.2608
  118Eth     Ho 3251   1.107   0.318   1.337 -1.2496 -0.2964  0.0959
  118Eth     Oh 3252   1.105   0.238   1.388 -0.2992 -0.4071 -0.0229
  118Eth     Co 3253   1.050   0.262   1.520  0.0105 -0.2816  0.9211
  118Eth    Hco 3254   1.118   0.327   1.575 -0.5642  0.0652  1.2198
  118Eth    Hco 3255   1.047   0.165   1.571  1.3452  0.2504  2.0596
  118Eth     Ch 3256   0.908   0.318   1.512 -0.0920 -0.2306  0.4948
  118Eth    Hcc 3257   0.840   0.248   1.461  0.9533 -0.1255 -1.0996
  118Eth    Hcc 3258   0.907   0.416   1.465  0.1429 -1.2077 -1.6444
  118Eth    Hcc 3259   0.864   0.337   1.610 -1.2590  0.1497 -0.0917
  119Eth     Ho 3260   0.210   0.259   8.231  0.5767 -0.6133  0.4654
  119Eth     Oh 3261   0.227   0.326   8.167  0.1360 -0.5982  0.3574
  119Eth     Co 3262   0.121   0.417   8.192 -0.5548 -0.1727 -0.3726
  119Eth    Hco 3263   0.119   0.456   8.294 -1.5386 -0.9700 -0.0792
  119Eth    Hco 3264   0.028   0.364   8.176 -1.5564  1.0365  1.2787
  119Eth     Ch 3265   0.140   0.534   8.097  0.0250  0.2633 -0.4839
  119Eth    Hcc 3266   0.052   0.593   8.071 -0.3205  0.6701  1.5155
  119Eth    Hcc 3267   0.174   0.502   7.999 -0.2083  0.4718 -0.6340
  119Eth    Hcc 3268   0.222   0.597   8.131 -0.2734 -0.0265  0.8233
  120Eth     Ho 3269   1.037   0.185   2.038  1.3138  0.2217 -0.3416
  120Eth     Oh 3270   1.039   0.215   2.127 -0.3865 -0.5047 -0.0497
  120Eth     Co 3271   1.146   0.295   2.160  0.2634  0.2248  0.4514
  120Eth    Hco 3272   1.157   0.387   2.102 -1.3929 -0.7352 -1.4573
  120Eth    Hco 3273   1.240   0.248   2.134  0.2205  0.4479 -0.1357
  120Eth     Ch 3274   1.145   0.321   2.311 -0.2635 -0.7795 -0.2903
  120Eth    Hcc 3275   1.093   0.415   2.325 -0.5343 -0.7134 -1.7028
  120Eth    Hcc 3276   1.249   0.338   2.340 -0.6992  0.5775  0.4860
  120Eth    Hcc 3277   1.096   0.252   2.380  0.1252  0.2289  1.0206
  121Eth     Ho 3278   0.201   2.254   2.267 -0.7233 -0.1076  1.2381
  121Eth     Oh 3279   0.248   2.335   2.259 -0.4375 -0.4613 -1.1088
  121Eth     Co 3280   0.162   2.436   2.215 -0.5880  0.2223 -0.3864
  121Eth    Hco 3281   0.097   2.458   2.299  0.4130 -0.4630  0.5821
  121Eth    Hco 3282   0.111   2.387   2.132  0.8698 -0.2990 -1.0010
  121Eth     Ch 3283   0.252   2.554   2.176  0.7230  0.3963 -0.4598
  121Eth    Hcc 3284   0.327   2.573   2.253 -1.3934 -0.1210  1.7928
  121Eth    Hcc 3285   0.201   2.648   2.154  1.3904  0.8318 -0.1746
  121Eth    Hcc 3286   0.302   2.522   2.085  0.7687 -0.9288  0.0281
  122Eth     Ho 3287   2.382   3.445   6.376 -0.6406 -0.4878  0.1533
  122Eth     Oh 3288   2.427   3.363   6.368  0.1126 -0.0333 -0.3270
  122Eth     Co 3289   2.493   3.393   6.258 -0.3943  0.0563 -0.1650
  122Eth    Hco 3290   2.512   3.500   6.245  0.7157 -0.3527 -2.0399
  122Eth    Hco 3291   2.434   3.383   6.167  0.2809  3.5577 -1.0784
  122Eth     Ch 3292   2.621   3.314   6.262  0.6612 -0.3446 -0.3161
  122Eth    Hcc 3293   2.701   3.339   6.192  0.9497 -0.2045  0.0603
  122Eth    Hcc 3294   2.604   3.208   6.245  1.5002 -0.1560 -2.4597
  122Eth    Hcc 3295   2.669   3.327   6.359  1.5550  0.8576 -0.8975
  123Eth     Ho 3296   2.519   0.545   4.151  1.5076 -0.3934 -0.0426
  123Eth     Oh 3297   2.545   0.633   4.130 -0.0948  0.1557  0.1720
  123Eth     Co 3298   2.616   0.689   4.240 -0.1906  0.7440  0.7151
  123Eth    Hco 3299   2.696   0.619   4.265 -1.4041 -0.4954  1.1558
  123Eth    Hco 3300   2.556   0.708   4.328 -1.8703 -0.6354 -0.1061
  123Eth     Ch 3301   2.680   0.823   4.200  0.0469 -0.8473 -0.0820
  123Eth    Hcc 3302   2.736   0.818   4.107 -1.0026  0.6322 -0.8144
  123Eth    Hcc 3303   2.737   0.876   4.276  0.8776  2.1867 -2.6924
  123Eth    Hcc 3304   2.605   0.898   4.174 -0.4557 -1.3333 -0.0425
  124Eth     Ho 3305   2.623   1.430   8.270 -0.6501  2.5064  1.7093
  124Eth     Oh 3306   2.557   1.465   8.212  0.0091  1.1834  0.1055
  124Eth     Co 3307   2.607   1.440   8.081  0.1468  0.0469 -0.8432
  124Eth    Hco 3308   2.545   1.463   7.994 -1.1547  1.9866  0.5415
  124Eth    Hco 3309   2.618   1.332   8.081 -0.4455 -0.0546  1.6306
  124Eth     Ch 3310   2.744   1.493   8.062 -0.1543  0.0990 -0.2573
  124Eth    Hcc 3311   2.813   1.470   8.143  0.0691  0.5439 -0.3185
  124Eth    Hcc 3312   2.743   1.601   8.045 -1.2263 -0.0275 -1.0545
  124Eth    Hcc 3313   2.805   1.453   7.980  2.0014  0.1556  1.2822
  125Eth     Ho 3314   3.070   0.053   4.947 -0.1173 -0.1299 -2.0608
  125Eth     Oh 3315   3.015  -0.021   4.964  0.1459  0.0762 -0.3104
  125Eth     Co 3316   2.901   0.024   4.898  1.1801 -1.0427  0.9958
  125Eth    Hco 3317   2.918   0.050   4.793  2.1598 -1.6014  1.0063
  125Eth    Hco 3318   2.865   0.113   4.949  0.1880 -0.5393 -0.5317
  125Eth     Ch 3319   2.793  -0.080   4.924  0.1963  0.0032  0.2493
  125Eth    Hcc 3320   2.775  -0.096   5.030  0.8099  0.5839  0.4465
  125Eth    Hcc 3321   2.823  -0.176   4.882 -1.9300 -0.7141  0.3437
  125Eth    Hcc 3322   2.698  -0.049   4.881 -0.0179 -0.0570  0.6813
  126Eth     Ho 3323   3.188   2.566   8.223 -0.1867  0.3002 -0.2309
  126Eth     Oh 3324   3.109   2.613   8.243 -0.2805 -0.1518  0.5009
  126Eth     Co 3325   3.083   2.598   8.383  0.3222 -0.3477  0.4496
  126Eth    Hco 3326   3.181   2.615   8.428 -0.3369 -1.7772  2.4948
  126Eth    Hco 3327   3.046   2.498   8.401 -1.1549 -0.0220 -0.6607
  126Eth     Ch 3328   2.966   2.688   8.435 -1.1646  0.3731 -0.4874
  126Eth    Hcc 3329   2.953   2.687   8.543  0.7178  1.8718 -0.2087
  126Eth    Hcc 3330   2.875   2.670   8.377 -0.2725 -2.2523 -1.1222
  126Eth    Hcc 3331   2.977   2.790   8.397 -1.1784  1.1829  1.6466
  127Eth     Ho 3332   3.005   0.482   9.665  0.0540 -0.4000  1.7004
  127Eth     Oh 3333   2.970   0.399   9.637 -0.5917  0.2101  0.6794
  127Eth     Co 3334   2.920   0.333   9.751  0.6201 -0.5277  0.5484
  127Eth    Hco 3335   2.834   0.383   9.794  0.3314 -0.2664 -0.3261
  127Eth    Hco 3336   2.991   0.345   9.832 -1.7005  1.8836  2.3073
  127Eth     Ch 3337   2.893   0.189   9.717 -0.1466  0.0174  0.4896
  127Eth    Hcc 3338   2.973   0.146   9.657 -0.5419  0.1226 -0.1238
  127Eth    Hcc 3339   2.798   0.181   9.664  1.1158 -3.1895 -1.3965
  127Eth    Hcc 3340   2.874   0.124   9.802 -4.0570 -1.9327 -1.7218
  128Eth     Ho 3341   2.489   1.758   4.789  1.0456  1.4199  0.9454
  128Eth     Oh 3342   2.546   1.791   4.722  0.4173  0.0286 -0.2947
  128Eth     Co 3343   2.628   1.899   4.769  0.0359 -0.1360  0.9269
  128Eth    Hco 3344   2.668   1.882   4.869  0.2655  2.3338  1.2919
  128Eth    Hco 3345   2.558   1.983   4.769 -1.2032 -1.1343 -0.6943
  128Eth     Ch 3346   2.724   1.930   4.658  0.0789 -0.4689 -0.2091
  128Eth    Hcc 3347   2.790   1.846   4.637 -0.5707 -0.9858 -0.1959
  128Eth    Hcc 3348   2.795   2.009   4.685  2.7037 -3.3127  1.5105
  128Eth    Hcc 3349   2.666   1.954   4.568 -1.1980  1.9027  1.1937
  129Eth     Ho 3350   1.414   2.634   3.735  1.2746 -1.5826 -0.4737
  129Eth     Oh 3351   1.434   2.688   3.662  0.0209  0.0341  0.3485
  129Eth     Co 3352   1.441   2.599   3.553  0.0669  0.0327 -0.0275
  129Eth    Hco 3353   1.483   2.503   3.583 -0.4156 -0.8769 -2.1747
  129Eth    Hco 3354   1.508   2.635   3.475  0.1432 -2.5271 -1.2169
  129Eth     Ch 3355   1.303   2.587   3.492 -0.1678  0.0367 -0.2957
  129Eth    Hcc 3356   1.229   2.595   3.572 -0.1795 -1.3412 -0.1630
  129Eth    Hcc 3357   1.279   2.490   3.449  3.1132 -0.9286 -0.0941
  129Eth    Hcc 3358   1.283   2.665   3.418 -1.6642 -0.3790 -0.3455
  130Eth     Ho 3359   2.891   2.693   1.760  0.4826  0.3028  0.5198
  130Eth     Oh 3360   2.901   2.779   1.796  1.1527  0.5595 -0.2571
  130Eth     Co 3361   2.859   2.876   1.698 -0.2167 -0.2314  0.2884
  130Eth    Hco 3362   2.932   2.957   1.691 -0.8984  0.3363 -0.2658
  130Eth    Hco 3363   2.761   2.914   1.726 -0.5752 -1.4442  0.7107
  130Eth     Ch 3364   2.840   2.803   1.565 -0.4864  0.3114  0.4585
  130Eth    Hcc 3365   2.935   2.755   1.542  0.1094  1.7344 -0.1052
  130Eth    Hcc 3366   2.827   2.880   1.489  2.1131  0.0427 -0.2989
  130Eth    Hcc 3367   2.757   2.733   1.573  0.3942 -1.1774 -2.5720
  131Eth     Ho 3368   1.575   2.924   4.454  0.7773 -0.2184 -0.2508
  131Eth     Oh 3369   1.551   3.001   4.405  0.5343 -0.1592 -0.0433
  131Eth     Co 3370   1.673   3.068   4.369 -0.5764 -0.7499  0.0737
  131Eth    Hco 3371   1.746   2.990   4.349 -0.4761 -0.6016 -0.1418
  131Eth    Hco 3372   1.708   3.132   4.450  1.2694 -1.2350 -0.3098
  131Eth     Ch 3373   1.666   3.153   4.235 -0.2029  0.1289 -0.2936
  131Eth    Hcc 3374   1.761   3.182   4.191 -0.2207  3.0631  1.4665
  131Eth    Hcc 3375   1.613   3.248   4.247  0.1549  0.3729 -0.6577
  131Eth    Hcc 3376   1.627   3.089   4.157  0.8834 -1.5766  0.5294
  132Eth     Ho 3377   2.970   1.320   2.936 -0.3170 -0.4153 -2.1142
  132Eth     Oh 3378   2.967   1.239   2.983  0.1101  0.6415 -0.1983
  132Eth     Co 3379   2.988   1.257   3.128  0.2263 -0.5998 -0.3004
  132Eth    Hco 3380   2.920   1.338   3.152 -0.6224 -1.4889  0.3219
  132Eth    Hco 3381   3.086   1.299   3.153 -0.4987 -0.4693  2.4555
  132Eth     Ch 3382   2.936   1.130   3.194 -0.7032 -0.1774 -0.0258
  132Eth    Hcc 3383   2.829   1.113   3.187 -1.0173  0.7924  2.1868
  132Eth    Hcc 3384   2.968   1.131   3.298 -1.0032  1.5056  0.0570
  132Eth    Hcc 3385   2.998   1.047   3.159 -0.0012 -1.1214  3.2641
  133Eth     Ho 3386   1.211   2.484   7.744  1.6947 -0.6635  1.0514
  133Eth     Oh 3387   1.156   2.416   7.777  0.1794 -0.3165 -0.6402
  133Eth     Co 3388   1.164   2.416   7.917 -0.5846  1.0666  0.2547
  133Eth    Hco 3389   1.258   2.453   7.959 -0.0920  1.3549 -1.0774
  133Eth    Hco 3390   1.153   2.312   7.950  0.4361  0.8525 -0.0338
  133Eth     Ch 3391   1.063   2.506   7.985 -0.4734  0.2654  0.0782
  133Eth    Hcc 3392   0.963   2.465   7.998 -0.5610  0.9777  1.7209
  133Eth    Hcc 3393   1.055   2.594   7.922 -0.6162  0.6669  0.6526
  133Eth    Hcc 3394   1.085   2.542   8.085 -3.5186  0.2956  0.7655
  134Eth     Ho 3395   1.106   2.330   8.552  2.6694  1.8874  0.6249
  134Eth     Oh 3396   1.118   2.275   8.628  0.1904  0.2303 -0.1248
  134Eth     Co 3397   1.233   2.202   8.606  0.0714 -0.1687  0.2001
  134Eth    Hco 3398   1.320   2.259   8.573  0.5254 -1.4549 -0.8855
  134Eth    Hco 3399   1.215   2.137   8.520  3.1989  1.0607 -1.4589
  134Eth     Ch 3400   1.253   2.130   8.741  0.5161 -0.1180  0.4222
  134Eth    Hcc 3401   1.166   2.075   8.774  1.1702 -2.3102 -1.3472
  134Eth    Hcc 3402   1.273   2.200   8.822  0.1182  0.4518  0.0367
  134Eth    Hcc 3403   1.331   2.055   8.740 -0.6055 -1.3760  3.3492
  135Eth     Ho 3404   0.055   3.447  10.020  3.7949 -0.0621 -0.2081
  135Eth     Oh 3405   0.048   3.394   9.943 -0.0530 -0.0701  0.0785
  135Eth     Co 3406   0.013   3.488   9.832  0.5043  0.2248 -0.9852
  135Eth    Hco 3407   0.096   3.558   9.821  0.0583  1.0969  0.9712
  135Eth    Hco 3408  -0.078   3.547   9.838  0.6634  0.4061 -0.3121
  135Eth     Ch 3409   0.006   3.398   9.704 -0.2508  0.0811 -0.1590
  135Eth    Hcc 3410  -0.018   3.454   9.614 -2.6894 -0.5057  0.0986
  135Eth    Hcc 3411  -0.073   3.323   9.705 -0.7497  0.6141  0.2142
  135Eth    Hcc 3412   0.101   3.346   9.695  0.4802  1.3878 -0.1280
  136Eth     Ho 3413   2.966   1.358   9.606 -1.2450 -0.1023  0.9937
  136Eth     Oh 3414   2.982   1.450   9.622  0.0575 -0.1345 -0.0012
  136Eth     Co 3415   2.965   1.478   9.760 -0.0672 -0.3824  0.0420
  136Eth    Hco 3416   3.037   1.431   9.826  1.2750 -2.1319 -2.6002
  136Eth    Hco 3417   2.863   1.467   9.798 -0.3707 -0.5061 -0.7973
  136Eth     Ch 3418   2.994   1.634   9.773 -0.0764  0.4118 -0.2422
  136Eth    Hcc 3419   3.082   1.662   9.716 -0.6921  1.5969 -0.6408
  136Eth    Hcc 3420   3.011   1.671   9.874 -2.1743 -0.9706  0.6623
  136Eth    Hcc 3421   2.916   1.692   9.723  1.2775  2.0263 -0.5036
  137Eth     Ho 3422   1.057   1.173   7.518  0.8694 -0.5291  1.2834
  137Eth     Oh 3423   1.112   1.249   7.510 -0.3091  0.2396  0.2772
  137Eth     Co 3424   1.242   1.210   7.472  0.4126 -0.0908  0.0054
  137Eth    Hco 3425   1.255   1.211   7.364 -1.0359 -3.6820 -0.2941
  137Eth    Hco 3426   1.264   1.111   7.512 -0.2557 -0.5506 -0.7617
  137Eth     Ch 3427   1.346   1.302   7.533  0.5578  0.5342  0.8482
  137Eth    Hcc 3428   1.444   1.280   7.492  0.8886 -3.3199  3.5104
  137Eth    Hcc 3429   1.337   1.301   7.642 -0.9529 -0.4065  0.7282
  137Eth    Hcc 3430   1.323   1.403   7.499  1.6785  0.4172 -0.2966
  138Eth     Ho 3431   1.589   2.987   6.681 -0.2882  2.1779 -3.5415
  138Eth     Oh 3432   1.680   2.981   6.661  0.5642  0.6335  0.3724
  138Eth     Co 3433   1.737   3.107   6.692 -0.0907 -0.2457 -0.2979
  138Eth    Hco 3434   1.649   3.167   6.715  0.5698  1.4841 -2.1925
  138Eth    Hco 3435   1.775   3.151   6.600 -0.4031 -0.9065 -0.7508
  138Eth     Ch 3436   1.822   3.091   6.818 -0.6412  0.0172  0.7031
  138Eth    Hcc 3437   1.756   3.079   6.904  0.8388 -2.2756  1.5435
  138Eth    Hcc 3438   1.876   3.185   6.830 -0.0640 -0.0283 -1.3985
  138Eth    Hcc 3439   1.905   3.020   6.818  0.2266  1.0187  1.1956
  139Eth     Ho 3440   0.673   0.537   8.820 -0.6550  0.5932  2.7177
  139Eth     Oh 3441   0.609   0.603   8.799  0.0591  0.3629 -0.4081
  139Eth     Co 3442   0.479   0.539   8.814 -0.8345 -0.3547  0.0158
  139Eth    Hco 3443   0.476   0.514   8.920 -0.8489  0.2237  0.1491
  139Eth    Hco 3444   0.475   0.446   8.757 -0.6503  0.6975 -1.7485
  139Eth     Ch 3445   0.363   0.625   8.762  0.6761 -0.0381  0.5237
  139Eth    Hcc 3446   0.270   0.581   8.798  1.0079 -1.5938 -0.4651
  139Eth    Hcc 3447   0.351   0.634   8.654 -0.4587 -2.7039  0.3813
  139Eth    Hcc 3448   0.374   0.729   8.792 -0.2480  0.3399 -0.4354
  140Eth     Ho 3449   2.957   2.165   7.505 -0.7683  0.6483 -0.6031
  140Eth     Oh 3450   2.941   2.183   7.596 -0.4331 -0.3148 -0.3442
  140Eth     Co 3451   2.810   2.227   7.613 -0.0157  0.2341 -0.1271
  140Eth    Hco 3452   2.749   2.137   7.606  0.6614 -0.4061  1.9358
  140Eth    Hco 3453   2.787   2.294   7.530 -2.6420 -0.9244 -0.3833
  140Eth     Ch 3454   2.786   2.292   7.756 -0.2215  0.1183  0.4761
  140Eth    Hcc 3455   2.686   2.334   7.769  0.0849  0.8990  0.3808
  140Eth    Hcc 3456   2.859   2.369   7.782  1.7377 -1.4586 -0.2226
  140Eth    Hcc 3457   2.815   2.220   7.832  0.4477 -1.0688 -0.8774
  141Eth     Ho 3458   2.589   1.055   9.941  0.4369 -1.9056 -2.3255
  141Eth     Oh 3459   2.662   1.109   9.917 -0.2567  0.1143 -0.0542
  141Eth     Co 3460   2.651   1.237   9.980  0.0617  0.2294 -0.2755
  141Eth    Hco 3461   2.744   1.293   9.973 -0.0808  1.0272  3.1285
  141Eth    Hco 3462   2.637   1.246  10.088 -0.0176 -0.3486 -0.2391
  141Eth     Ch 3463   2.558   1.331   9.916  0.2098  0.2690 -0.2941
  141Eth    Hcc 3464   2.452   1.305   9.925  0.1647 -0.4057 -2.4172
  141Eth    Hcc 3465   2.575   1.347   9.809 -1.6137 -0.2597 -0.6894
  141Eth    Hcc 3466   2.561   1.431   9.960  4.9060  1.0082 -2.0647
  142Eth     Ho 3467   1.914   1.588   6.243  1.8298  1.0178 -0.9159
  142Eth     Oh 3468   1.843   1.649   6.254  0.7268 -0.3740 -0.2294
  142Eth     Co 3469   1.900   1.772   6.299 -0.1117 -0.2011  0.5550
  142Eth    Hco 3470   1.966   1.810   6.221 -1.6702 -0.8324 -1.1046
  142Eth    Hco 3471   1.955   1.757   6.391 -0.2084  0.5506  0.7438
  142Eth     Ch 3472   1.782   1.866   6.330  0.3296  0.2526 -0.0218
  142Eth    Hcc 3473   1.746   1.842   6.430  1.6438  0.0124  0.4033
  142Eth    Hcc 3474   1.700   1.866   6.258  0.5424 -0.5982 -0.2710
  142Eth    Hcc 3475   1.829   1.963   6.343  0.6243  0.0233  0.6308
  143Eth     Ho 3476   1.936   0.901   1.819 -0.3661  3.9020  1.0915
  143Eth     Oh 3477   1.926   0.934   1.731  0.1457  0.0184 -0.5547
  143Eth     Co 3478   1.932   0.817   1.650 -0.0099  0.1827  0.8863
  143Eth    Hco 3479   1.838   0.764   1.666 -0.8803  1.1201 -0.9182
  143Eth    Hco 3480   2.014   0.749   1.671 -0.2961 -0.4321  0.0481
  143Eth     Ch 3481   1.954   0.855   1.501  0.2114  0.3432  0.3965
  143Eth    Hcc 3482   1.870   0.910   1.459  1.4402 -0.7035 -3.6217
  143Eth    Hcc 3483   1.961   0.767   1.437  3.8851  1.8211 -1.3314
  143Eth    Hcc 3484   2.042   0.917   1.484  0.5769 -0.6700 -1.5377
  144Eth     Ho 3485   2.317   1.207   7.184  0.1165 -2.8990 -0.1927
  144Eth     Oh 3486   2.226   1.199   7.207 -0.1430 -0.4103 -0.1960
  144Eth     Co 3487   2.202   1.307   7.299  0.2064  0.3825  0.3291
  144Eth    Hco 3488   2.252   1.398   7.265 -1.1084  0.9992 -0.0067
  144Eth    Hco 3489   2.236   1.292   7.401 -2.3166  0.0725  1.1592
  144Eth     Ch 3490   2.048   1.344   7.289 -0.9432  0.2477 -0.2630
  144Eth    Hcc 3491   2.045   1.450   7.314 -0.9391  0.0380  0.6782
  144Eth    Hcc 3492   1.988   1.284   7.358  1.7872 -1.8270  0.3996
  144Eth    Hcc 3493   2.006   1.330   7.190 -0.8752 -1.3840 -0.0701
  145Eth     Ho 3494   0.720   3.381   4.430  2.7691  0.9981 -2.3328
  145Eth     Oh 3495   0.655   3.345   4.372  0.6897  0.8090  0.0633
  145Eth     Co 3496   0.705   3.264   4.270  0.6604  0.3445  0.8118
  145Eth    Hco 3497   0.768   3.183   4.308  1.6805  1.1096  0.7761
  145Eth    Hco 3498   0.767   3.334   4.215 -2.0305  2.3760  0.2639
  145Eth     Ch 3499   0.588   3.225   4.180 -0.3487  0.3657 -0.1233
  145Eth    Hcc 3500   0.620   3.167   4.093  1.5785  2.2397 -0.7116
  145Eth    Hcc 3501   0.546   3.316   4.140  2.0226  1.3486 -0.4877
  145Eth    Hcc 3502   0.513   3.163   4.229  0.5674 -0.8962 -0.2892
  146Eth     Ho 3503   1.186   2.464   2.714 -0.3473 -1.1320  0.1242
  146Eth     Oh 3504   1.136   2.512   2.778  0.4058 -0.0283 -0.1034
  146Eth     Co 3505   1.001   2.502   2.739  0.0330  0.6705 -0.2768
  146Eth    Hco 3506   0.963   2.400   2.743  0.7595  0.4150  0.0861
  146Eth    Hco 3507   1.000   2.537   2.635  1.5532  2.0577  0.1566
  146Eth     Ch 3508   0.922   2.590   2.837  0.1029 -0.4130  0.1408
  146Eth    Hcc 3509   0.822   2.608   2.798 -1.1324  0.4162  3.5064
  146Eth    Hcc 3510   0.962   2.691   2.847 -3.0769  1.0890 -1.7417
  146Eth    Hcc 3511   0.909   2.546   2.936  0.9636  1.8483  1.2813
  147Eth     Ho 3512   3.172   0.959   3.567 -0.1945  1.8228 -0.7473
  147Eth     Oh 3513   3.192   0.916   3.486  0.0361 -0.2504  0.3697
  147Eth     Co 3514   3.298   0.830   3.532  0.0428 -0.4886 -0.2867
  147Eth    Hco 3515   3.248   0.762   3.603  0.0824  1.1415  1.3368
  147Eth    Hco 3516   3.370   0.888   3.590 -1.7646  1.2757  0.2711
  147Eth     Ch 3517   3.376   0.762   3.418  0.1240 -0.3957  0.4422
  147Eth    Hcc 3518   3.438   0.682   3.459  0.6083 -0.7748 -0.9882
  147Eth    Hcc 3519   3.443   0.829   3.364 -2.7896  1.1070 -1.4257
  147Eth    Hcc 3520   3.319   0.714   3.339  0.0161  2.9069 -1.5831
  148Eth     Ho 3521   2.348   1.771   4.334 -0.9373  1.1855  0.1381
  148Eth     Oh 3522   2.306   1.727   4.406  0.0459  0.4622  0.2761
  148Eth     Co 3523   2.236   1.830   4.475  0.3678  0.6401 -0.2730
  148Eth    Hco 3524   2.243   1.923   4.418  0.3265 -1.0878 -3.2015
  148Eth    Hco 3525   2.288   1.850   4.569  0.8469 -0.1066 -0.3704
  148Eth     Ch 3526   2.095   1.779   4.495  0.5901  0.1770  0.2405
  148Eth    Hcc 3527   2.037   1.755   4.406  2.1156  0.3945 -0.8536
  148Eth    Hcc 3528   2.030   1.845   4.553 -1.7642 -2.1327  0.2903
  148Eth    Hcc 3529   2.086   1.692   4.558 -1.1843  0.6357  0.6292
  149Eth     Ho 3530   0.124   0.652   4.187  2.3650 -2.3428  1.1006
  149Eth     Oh 3531   0.171   0.662   4.106 -0.1156  0.0615 -0.1231
  149Eth     Co 3532   0.112   0.755   4.021 -0.7561 -0.0717  0.1250
  149Eth    Hco 3533   0.150   0.855   4.044  1.9632 -1.0723  0.2584
  149Eth    Hco 3534   0.006   0.758   4.043 -0.9526 -0.2852 -0.7623
  149Eth     Ch 3535   0.137   0.704   3.881  0.1889 -0.3409  0.1700
  149Eth    Hcc 3536   0.231   0.649   3.873  1.1653  1.0532  1.7049
  149Eth    Hcc 3537   0.148   0.787   3.811 -0.4813  0.8799  1.4884
  149Eth    Hcc 3538   0.054   0.651   3.834  0.0573  1.4804 -1.7397
  150Eth     Ho 3539   0.768   0.799   3.541  0.5808 -1.6261 -1.6087
  150Eth     Oh 3540   0.851   0.843   3.545 -0.3004 -0.0677  0.4484
  150Eth     Co 3541   0.852   0.951   3.634 -0.6450 -0.2507  0.4440
  150Eth    Hco 3542   0.948   1.002   3.635  0.2020 -1.8284  0.0790
  150Eth    Hco 3543   0.824   0.906   3.729 -0.7882 -0.1458  0.4522
  150Eth     Ch 3544   0.745   1.049   3.584  0.5918 -0.0835 -0.6482
  150Eth    Hcc 3545   0.746   1.129   3.658  0.4251 -2.1053  1.5696
  150Eth    Hcc 3546   0.645   1.008   3.569  1.2554 -1.9934  0.0106
  150Eth    Hcc 3547   0.760   1.081   3.481  0.5605 -1.5089 -1.1021
  151Eth     Ho 3548   2.452   3.211   9.886 -1.6071  0.5158  1.3035
  151Eth     Oh 3549   2.454   3.298   9.849  0.1162  0.0142  0.1575
  151Eth     Co 3550   2.524   3.372   9.949 -0.5663  0.5446 -0.2179
  151Eth    Hco 3551   2.616   3.319   9.976 -1.4507 -1.1464 -0.4041
  151Eth    Hco 3552   2.459   3.366  10.036  1.0262 -1.1071  0.8883
  151Eth     Ch 3553   2.554   3.510   9.895 -0.8167 -0.4875 -0.1181
  151Eth    Hcc 3554   2.609   3.564   9.971 -1.0992  0.6349 -0.6943
  151Eth    Hcc 3555   2.463   3.571   9.889 -0.1556  0.6686  1.5486
  151Eth    Hcc 3556   2.611   3.520   9.803  0.3806  2.8345  0.9052
  152Sol     OW 3557   1.723   0.030   4.402 -0.3445  0.0122  0.8510
  152Sol     HW 3558   1.686   0.084   4.472  0.2810  0.9191  0.4846
  152Sol     HW 3559   1.813   0.013   4.430  0.6218  2.2576 -0.7897
  152Sol     MW 3560   1.728   0.033   4.411  0.2407 -0.1969 -0.3701
  153Sol     OW 3561   1.183   1.225   5.079  0.0233  0.0875 -0.0736
  153Sol     HW 3562   1.206   1.138   5.112 -0.4018  1.1024  3.0625
  153Sol     HW 3563   1.262   1.255   5.034  0.8043 -1.1899  0.4078
  153Sol     MW 3564   1.192   1.220   5.078  0.2721  0.0757  1.0650
  154Sol     OW 3565   2.575   0.138   4.085 -0.4018 -0.1808  0.2294
  154Sol     HW 3566   2.530   0.100   4.009  0.0113 -0.6781  0.2348
  154Sol     HW 3567   2.620   0.064   4.126  0.4466  0.3245  0.2133
  154Sol     MW 3568   2.575   0.127   4.082 -0.2381  0.1176  0.2810
  155Sol     OW 3569   3.186   2.183   1.604  0.0502  0.1892 -0.3087
  155Sol     HW 3570   3.265   2.147   1.562 -0.5534  0.2851 -1.5589
  155Sol     HW 3571   3.219   2.249   1.665  1.0248 -0.8202  0.2718
  155Sol     MW 3572   3.196   2.186   1.606  0.2864 -0.2635 -0.4227
  156Sol     OW 3573   0.272   2.008   2.891  0.0996 -0.2154 -0.1712
  156Sol     HW 3574   0.277   2.032   2.798 -0.0040  2.3147  0.4485
  156Sol     HW 3575   0.197   2.057   2.925 -0.5110 -1.9399  1.0347
  156Sol     MW 3576   0.266   2.015   2.886 -0.8496 -0.1851  0.1588
  157Sol     OW 3577   1.571   1.007   8.875  0.3196  0.1786  0.2388
  157Sol     HW 3578   1.639   1.048   8.928  0.6608 -1.1764  0.8856
  157Sol     HW 3579   1.619   0.953   8.812 -0.1443 -0.7432  0.6647
  157Sol     MW 3580   1.582   1.006   8.874 -0.7255  1.2330 -0.3584
  158Sol     OW 3581   0.208   3.318   8.782  0.3317 -0.3450 -0.5625
  158Sol     HW 3582   0.160   3.305   8.864  1.0186  3.6632  0.5815
  158Sol     HW 3583   0.140   3.335   8.717 -0.0486  1.6495  0.3030
  158Sol     MW 3584   0.198   3.318   8.784 -0.2180  0.2528  0.1465
  159Sol     OW 3585   0.952   0.626   3.349 -0.2032  0.1567 -0.0620
  159Sol     HW 3586   0.936   0.584   3.264 -1.0595  0.0327  0.1624
  159Sol     HW 3587   1.032   0.584   3.381  0.7809  1.0000 -1.3138
  159Sol     MW 3588   0.958   0.619   3.344  0.2395 -0.1025  0.2632
  160Sol     OW 3589   1.570   0.734   4.190  0.1565 -0.1183 -0.3631
  160Sol     HW 3590   1.515   0.775   4.124  1.2963 -0.2545 -1.4068
  160Sol     HW 3591   1.625   0.672   4.142  0.0840 -1.1755  0.8859
  160Sol     MW 3592   1.570   0.732   4.180  0.4847 -0.8092 -0.2398
  161Sol     OW 3593   1.209   1.403   2.933 -0.6722 -0.0346  0.1794
  161Sol     HW 3594   1.189   1.390   3.026 -0.7626 -0.6270  0.0763
  161Sol     HW 3595   1.300   1.431   2.932 -0.5922 -0.2799  0.4309
  161Sol     MW 3596   1.215   1.404   2.941 -0.1996 -0.2984  0.3500
  162Sol     OW 3597   0.455   0.681   4.067 -0.1647 -0.1756 -0.1870
  162Sol     HW 3598   0.470   0.758   4.012  1.2029  0.3615  0.9052
  162Sol     HW 3599   0.360   0.676   4.076 -0.3605  0.3106 -1.7586
  162Sol     MW 3600   0.448   0.688   4.063 -0.3792 -0.5594  0.0150
  163Sol     OW 3601   2.501   3.304   5.790 -0.1212 -0.1405 -0.0816
  163Sol     HW 3602   2.511   3.350   5.706  1.5255 -0.6844 -0.1996
  163Sol     HW 3603   2.587   3.309   5.831 -0.5921 -0.9446  1.0329
  163Sol     MW 3604   2.510   3.308   5.786  0.4274 -0.8316 -0.0433
  164Sol     OW 3605   2.884   2.640   7.819 -0.3773 -0.2536  0.2261
  164Sol     HW 3606   2.902   2.678   7.905 -3.2745  2.0910 -0.1194
  164Sol     HW 3607   2.795   2.604   7.828 -0.9820  0.6376 -1.9763
  164Sol     MW 3608   2.877   2.640   7.828 -0.1392  0.5000  0.3000
  165Sol     OW 3609   2.983   2.450   9.148  0.0205  0.4261 -0.1013
  165Sol     HW 3610   2.893   2.462   9.181 -0.4740 -0.8371 -0.9465
  165Sol     HW 3611   3.036   2.442   9.227 -0.6381  1.0674  0.4087
  165Sol     MW 3612   2.979   2.450   9.158 -0.5319  0.7555 -0.1140
  166Sol     OW 3613   2.755   1.188   1.786  0.1128 -0.2389 -0.4387
  166Sol     HW 3614   2.817   1.201   1.714  0.2438  0.5901 -0.1789
  166Sol     HW 3615   2.808   1.199   1.865  0.4793 -3.4013 -0.1700
  166Sol     MW 3616   2.766   1.190   1.786  0.0287  0.0186 -0.6115
  167Sol     OW 3617   3.052   1.046   5.615 -0.5707  0.6215  0.2511
  167Sol     HW 3618   2.996   0.971   5.634 -2.1127  1.3365 -1.3566
  167Sol     HW 3619   3.029   1.072   5.526  0.9884  2.0943  0.2482
  167Sol     MW 3620   3.045   1.042   5.609  0.2497 -0.3720 -0.3516
  168Sol     OW 3621   2.658   2.630   8.295 -0.4473 -0.3229  0.1299
  168Sol     HW 3622   2.566   2.603   8.285 -0.6787  0.0640  1.0576
  168Sol     HW 3623   2.682   2.599   8.383 -0.4736  1.7399  0.8975
  168Sol     MW 3624   2.652   2.625   8.302  0.8965 -0.5005  0.2252
  169Sol     OW 3625   2.638   1.505   9.580 -0.4164  0.0290 -0.0772
  169Sol     HW 3626   2.545   1.482   9.590 -0.4347  0.5383  1.0578
  169Sol     HW 3627   2.675   1.435   9.527 -1.5640  0.0951 -0.9772
  169Sol     MW 3628   2.633   1.497   9.576  0.3060 -0.4275 -0.2751
  170Sol     OW 3629   0.166   0.444   7.713 -0.3734 -0.2660  0.3500
  170Sol     HW 3630   0.121   0.526   7.734  1.6048  1.1734 -0.8922
  170Sol     HW 3631   0.148   0.430   7.620 -0.0447 -0.8163  0.3698
  170Sol     MW 3632   0.160   0.450   7.707  0.0155  0.0862  0.1741
  171Sol     OW 3633   2.800   1.181   7.962 -0.6023  0.0756 -0.4912
  171Sol     HW 3634   2.833   1.238   7.893 -2.3290  1.3370 -0.3241
  171Sol     HW 3635   2.738   1.123   7.918 -0.3002 -0.3675 -0.3316
  171Sol     MW 3636   2.797   1.181   7.952 -0.1734 -0.4395  0.1489
  172Sol     OW 3637   0.592   0.074   2.960 -0.2093  0.1281  0.7928
  172Sol     HW 3638   0.650   0.105   2.891  0.2471 -0.0049  1.1155
  172Sol     HW 3639   0.564  -0.013   2.931 -0.2538  0.1936  0.6376
  172Sol     MW 3640   0.594   0.069   2.951 -0.6004  0.3004 -0.6147
  173Sol     OW 3641   1.788   1.984   5.072 -0.4763 -0.0616 -0.2091
  173Sol     HW 3642   1.765   2.069   5.108 -2.7945 -0.6260 -0.3110
  173Sol     HW 3643   1.855   2.003   5.006 -0.4885  1.5858  0.2253
  173Sol     MW 3644   1.792   1.993   5.070  0.3720  0.4529  0.6237
  174Sol     OW 3645   1.542   0.986   6.616  0.0339  0.5082  0.3792
  174Sol     HW 3646   1.484   1.053   6.652 -1.3257 -0.2239 -0.3980
  174Sol     HW 3647   1.621   1.034   6.590 -0.1550  1.4918  1.5935
  174Sol     MW 3648   1.544   0.997   6.617  0.5450 -0.0443 -0.8361
  175Sol     OW 3649   0.491   0.696   8.337  0.0861 -0.3158 -0.3169
  175Sol     HW 3650   0.547   0.674   8.262  2.1858  1.8658  0.5394
  175Sol     HW 3651   0.552   0.731   8.402 -1.9773 -0.3587  1.6750
  175Sol     MW 3652   0.502   0.697   8.336 -0.3646  0.9466  0.3974
  176Sol     OW 3653   2.673   1.786   6.829 -0.6717 -0.2294  0.0022
  176Sol     HW 3654   2.683   1.778   6.734  1.3170  0.3023  0.1401
  176Sol     HW 3655   2.581   1.764   6.845 -0.9435 -0.7065 -1.9947
  176Sol     MW 3656   2.666   1.783   6.822  0.1960  0.0782  0.5736
  177Sol     OW 3657   1.930   0.588   4.687 -0.2782  0.2534 -0.1304
  177Sol     HW 3658   1.921   0.672   4.641  0.6026  1.2933  1.5491
  177Sol     HW 3659   1.930   0.611   4.780  0.0150 -1.6057  0.3519
  177Sol     MW 3660   1.929   0.598   4.691 -0.1402  0.3175  0.0302
  178Sol     OW 3661   3.315   3.260   1.401 -0.4622 -0.5067 -0.3865
  178Sol     HW 3662   3.225   3.265   1.369 -0.6174  1.6815  0.2903
  178Sol     HW 3663   3.310   3.292   1.491  1.0336 -0.0830 -0.4470
  178Sol     MW 3664   3.306   3.263   1.406  0.4503  1.0482 -0.7935
  179Sol     OW 3665   2.291   0.462   2.783 -0.6118  0.8467 -0.0792
  179Sol     HW 3666   2.299   0.469   2.878  0.2729  0.4535 -0.1193
  179Sol     HW 3667   2.239   0.383   2.769 -1.3774  1.3201  0.0967
  179Sol     MW 3668   2.287   0.455   2.790  0.1079  0.2899 -0.6228
  180Sol     OW 3669   0.656   2.183   4.439  0.2181  0.6100  0.0170
  180Sol     HW 3670   0.618   2.219   4.520  0.2660  0.2806  0.1905
  180Sol     HW 3671   0.746   2.215   4.438  0.5101 -0.1809  0.5971
  180Sol     MW 3672   0.660   2.189   4.446 -0.6291  0.2587  0.3918
  181Sol     OW 3673   3.317   1.314   4.965  0.0835 -0.0135  0.0040
  181Sol     HW 3674   3.242   1.271   4.924 -0.9707  1.9979 -0.2381
  181Sol     HW 3675   3.293   1.319   5.058  0.8656 -1.2954  0.2775
  181Sol     MW 3676   3.308   1.311   4.970  0.2766  1.1570  0.4679
  182Sol     OW 3677   0.598   2.162   9.637 -0.3129  0.0765  0.3473
  182Sol     HW 3678   0.693   2.172   9.625 -0.3442 -1.3442 -1.2637
  182Sol     HW 3679   0.575   2.228   9.703  1.3173  2.4986 -1.3995
  182Sol     MW 3680   0.604   2.169   9.642  0.2442  0.1542 -0.7104
  183Sol     OW 3681   0.169   1.269   5.512  0.3688  0.2767  0.3510
  183Sol     HW 3682   0.118   1.189   5.501  2.3868 -0.7045 -2.2753
  183Sol     HW 3683   0.206   1.262   5.600 -2.7022  0.3001  1.7240
  183Sol     MW 3684   0.168   1.261   5.519 -0.5299  0.1871  0.0585
  184Sol     OW 3685   0.536   0.652   9.869 -0.5901  0.3130  0.0813
  184Sol     HW 3686   0.544   0.683   9.779 -1.4017  2.5902  0.7533
  184Sol     HW 3687   0.443   0.635   9.881 -0.7427  1.6599  0.9729
  184Sol     MW 3688   0.528   0.654   9.862 -0.8612  0.6188 -0.1369
  185Sol     OW 3689   0.654   0.661   8.107 -0.3156  0.3444 -0.0064
  185Sol     HW 3690   0.696   0.580   8.079  2.8761  2.0945 -0.5868
  185Sol     HW 3691   0.676   0.724   8.038 -1.0155  2.1802  1.4060
  185Sol     MW 3692   0.660   0.660   8.099 -0.0311  0.1748  0.4591
  186Sol     OW 3693   2.301   1.666   2.566  0.1473  0.5932  0.3127
  186Sol     HW 3694   2.232   1.600   2.572  0.3594  0.2482 -0.8498
  186Sol     HW 3695   2.293   1.701   2.477  0.7117  1.3877  0.5726
  186Sol     MW 3696   2.294   1.663   2.559 -0.5087  0.2001  0.2916
  187Sol     OW 3697   3.170   1.139   8.053 -0.0972  0.7570 -0.4390
  187Sol     HW 3698   3.117   1.075   8.101 -1.6091  2.0432 -0.3448
  187Sol     HW 3699   3.245   1.156   8.111 -0.1498 -0.2508 -0.0696
  187Sol     MW 3700   3.172   1.135   8.063 -0.2085  0.7020  0.6655
  188Sol     OW 3701   0.611   2.067   5.330  0.5006  0.2738  0.5343
  188Sol     HW 3702   0.674   2.029   5.391  0.4604  1.0355  1.0452
  188Sol     HW 3703   0.593   2.154   5.364  0.5210  0.7280 -0.5939
  188Sol     MW 3704   0.615   2.071   5.339 -0.6719  0.6198 -0.4122
  189Sol     OW 3705   1.760   0.334   9.579 -0.9987  0.5089  0.5840
  189Sol     HW 3706   1.828   0.362   9.518 -1.9536  0.4973 -0.4938
  189Sol     HW 3707   1.777   0.240   9.592 -1.3602  0.2983 -0.4167
  189Sol     MW 3708   1.768   0.328   9.575  0.5508 -0.3663  0.0175
  190Sol     OW 3709   2.177   2.335   9.859  0.2709  0.1367 -0.2406
  190Sol     HW 3710   2.100   2.391   9.873  0.4367  0.1104  0.8530
  190Sol     HW 3711   2.141   2.246   9.854  0.2936  0.0259  1.1794
  190Sol     MW 3712   2.167   2.332   9.860 -0.3697  0.6000  0.3822
  191Sol     OW 3713   0.541   1.406   3.597  0.2584  0.5435  0.3966
  191Sol     HW 3714   0.513   1.375   3.510 -1.7273 -0.3782  1.3409
  191Sol     HW 3715   0.465   1.454   3.631  1.2579  1.4542  1.3668
  191Sol     MW 3716   0.532   1.407   3.592  0.4680  0.7324 -0.9774
  192Sol     OW 3717   0.964   2.069   7.130 -1.1985  0.3142 -0.2994
  192Sol     HW 3718   0.963   1.973   7.138  1.3371  0.3979  1.9751
  192Sol     HW 3719   1.041   2.087   7.076 -1.1589  1.1118  0.0220
  192Sol     MW 3720   0.971   2.062   7.126  0.4355 -0.1458 -0.0123
  193Sol     OW 3721   0.899   2.379   3.325 -0.5389  0.3510  0.1080
  193Sol     HW 3722   0.835   2.362   3.394 -0.5186  1.3124  0.3667
  193Sol     HW 3723   0.879   2.467   3.294 -0.1599  0.1597 -0.7007
  193Sol     MW 3724   0.892   2.385   3.329 -0.0606 -0.0503 -0.2114
  194Sol     OW 3725   1.771   2.700   2.338 -0.6252  0.1582  0.8732
  194Sol     HW 3726   1.725   2.670   2.416 -0.4025 -3.4526 -0.2883
  194Sol     HW 3727   1.845   2.640   2.329  0.0637  1.2788 -1.4033
  194Sol     MW 3728   1.773   2.692   2.344  0.2477  0.5381 -0.2083
  195Sol     OW 3729   1.719   2.565   2.077  0.4678  0.0023  0.3333
  195Sol     HW 3730   1.630   2.531   2.070  1.0343 -1.3030 -0.8194
  195Sol     HW 3731   1.715   2.630   2.147 -0.6541 -2.4372  2.6147
  195Sol     MW 3732   1.711   2.567   2.083 -0.9188  0.4896 -0.8625
  196Sol     OW 3733   0.648   2.930   7.333 -0.2590 -0.7045 -0.0538
  196Sol     HW 3734   0.684   2.966   7.252 -0.6608 -1.9110 -0.7915
  196Sol     HW 3735   0.553   2.942   7.325 -0.2558 -0.3289  0.4796
  196Sol     MW 3736   0.643   2.934   7.325 -0.5557  0.2858  0.1861
  197Sol     OW 3737   0.264   2.690   1.359 -0.7439  0.2741 -0.4017
  197Sol     HW 3738   0.269   2.686   1.454  0.9423 -2.1150 -0.5498
  197Sol     HW 3739   0.284   2.781   1.338 -0.9110  0.7707  1.4908
  197Sol     MW 3740   0.266   2.698   1.366 -0.6353 -0.6356 -0.2980
  198Sol     OW 3741   2.029   1.269   1.418 -0.1726  0.4849  0.3123
  198Sol     HW 3742   1.942   1.287   1.383 -0.9732 -4.2845 -0.3839
  198Sol     HW 3743   2.083   1.250   1.342  0.4617 -0.5054  0.9960
  198Sol     MW 3744   2.026   1.269   1.408 -0.7462 -0.1880  0.1142
  199Sol     OW 3745   0.911   0.092   5.105  0.1888 -0.0529  0.4013
  199Sol     HW 3746   0.923  -0.002   5.090  0.9025  0.2359 -0.9342
  199Sol     HW 3747   0.824   0.111   5.071  1.2906  0.3462 -2.4072
  199Sol     MW 3748   0.905   0.085   5.100 -0.2601 -0.1664  0.6401
  200Sol     OW 3749   1.090   2.458   2.367  0.6773 -0.4284  0.2767
  200Sol     HW 3750   1.182   2.481   2.359  0.5963  0.0961  0.8161
  200Sol     HW 3751   1.046   2.541   2.386  0.1704 -0.7575  0.5591
  200Sol     MW 3752   1.094   2.467   2.368  0.2163 -0.3560  0.0302
  201Sol     OW 3753   1.777   2.419   9.564  0.2883  0.0264  0.3738
  201Sol     HW 3754   1.707   2.370   9.520  0.8117  0.2336 -0.6837
  201Sol     HW 3755   1.857   2.395   9.518  0.8251  0.3730  1.1070
  201Sol     MW 3756   1.778   2.412   9.556  0.5461  0.1142  0.2193
  202Sol     OW 3757   2.117   3.280   7.923 -0.1080  0.1051  0.1846
  202Sol     HW 3758   2.088   3.205   7.870 -0.1771 -1.1184  1.9213
  202Sol     HW 3759   2.199   3.308   7.882 -0.4298 -0.4815 -0.8813
  202Sol     MW 3760   2.122   3.276   7.915  0.3188 -0.6541  0.0617
  203Sol     OW 3761   3.193   2.919   4.159 -0.2147  0.3261  0.6012
  203Sol     HW 3762   3.273   2.971   4.145 -0.5695  0.8581  0.5496
  203Sol     HW 3763   3.193   2.903   4.253  0.2171 -0.1025  0.5315
  203Sol     MW 3764   3.201   2.922   4.166  0.6847 -0.7138  0.5562
  204Sol     OW 3765   1.462   1.253   8.839  0.1713 -0.3204  0.1439
  204Sol     HW 3766   1.420   1.273   8.756  2.2785 -0.0139 -0.8712
  204Sol     HW 3767   1.500   1.166   8.828  1.5489  0.2438  0.3250
  204Sol     MW 3768   1.462   1.247   8.831  0.9937 -0.0384 -0.3614
  205Sol     OW 3769   3.282   0.123   2.310  0.6055  0.1111 -0.1738
  205Sol     HW 3770   3.203   0.083   2.275  0.7535 -1.4401  1.2453
  205Sol     HW 3771   3.353   0.064   2.286  1.0112  0.2269  0.6940
  205Sol     MW 3772   3.281   0.114   2.305  0.4651 -0.2563 -0.4273
  206Sol     OW 3773   1.064   0.200   7.304  0.0581 -0.2894 -0.3902
  206Sol     HW 3774   1.146   0.154   7.323 -0.7801 -1.4382  0.4832
  206Sol     HW 3775   1.036   0.165   7.219 -1.3111 -2.4953  0.9224
  206Sol     MW 3776   1.069   0.193   7.298 -0.0022 -0.1585 -0.3454
  207Sol     OW 3777   2.211   0.923   6.118 -0.7175 -0.4159  0.2234
  207Sol     HW 3778   2.138   0.912   6.057  0.4822 -1.6038 -1.0294
  207Sol     HW 3779   2.198   1.010   6.156 -2.4210 -0.3569 -0.4605
  207Sol     MW 3780   2.203   0.930   6.116  0.2679  0.2608 -0.4137
  208Sol     OW 3781   0.401   0.214   3.133 -0.1169  0.3249 -0.3734
  208Sol     HW 3782   0.319   0.234   3.087  0.1671  1.7196 -0.3174
  208Sol     HW 3783   0.455   0.171   3.068 -1.7286 -2.7541  0.2378
  208Sol     MW 3784   0.398   0.212   3.123  0.6794  0.0862  0.4851
  209Sol     OW 3785   0.808   0.738   2.685 -0.3575 -0.1372  0.7071
  209Sol     HW 3786   0.735   0.680   2.665  0.1880 -0.9877  1.1326
  209Sol     HW 3787   0.786   0.821   2.643 -1.6397 -0.3371  0.9819
  209Sol     MW 3788   0.800   0.740   2.679 -1.2064  0.5660  0.1460
  210Sol     OW 3789   2.413   0.722   9.418 -0.3897  0.6470 -0.1618
  210Sol     HW 3790   2.480   0.657   9.399 -0.0450  1.1603 -0.6971
  210Sol     HW 3791   2.332   0.683   9.385  0.1762  1.4684 -2.6052
  210Sol     MW 3792   2.412   0.713   9.414 -0.1736 -0.1548  0.4459
  211Sol     OW 3793   0.797   0.125   9.080  0.2121 -0.6508  0.1079
  211Sol     HW 3794   0.773   0.137   8.989  1.7753 -0.9712 -0.3682
  211Sol     HW 3795   0.741   0.054   9.112 -0.4637 -0.4086 -0.5403
  211Sol     MW 3796   0.790   0.120   9.075 -0.6149 -0.1519 -0.1050
  212Sol     OW 3797   3.167   0.508   6.702 -0.3633  0.0180 -0.1312
  212Sol     HW 3798   3.171   0.551   6.788  0.2249 -1.2332  0.4697
  212Sol     HW 3799   3.093   0.551   6.658 -0.7163  0.6284  1.0158
  212Sol     MW 3800   3.161   0.516   6.706  0.2850  0.0835 -0.2445
  213Sol     OW 3801   0.815   0.976   5.020 -0.0360  0.1560 -0.1615
  213Sol     HW 3802   0.848   1.040   4.958  0.4684 -0.3597 -0.4351
  213Sol     HW 3803   0.720   0.980   5.011 -0.1197  2.3599  1.3435
  213Sol     MW 3804   0.810   0.982   5.014  0.6993  0.1968  0.8551
  214Sol     OW 3805   1.365   1.507   6.114 -0.0846  0.0307 -0.0995
  214Sol     HW 3806   1.443   1.562   6.106 -0.2665  0.1339 -1.3266
  214Sol     HW 3807   1.382   1.452   6.190  0.7854  0.7007  0.1996
  214Sol     MW 3808   1.374   1.507   6.120  0.0514 -0.1121  0.8291
  215Sol     OW 3809   0.255   2.923   1.769  0.1971 -0.3321 -0.2413
  215Sol     HW 3810   0.306   2.905   1.848  0.0549  1.0778  0.1815
  215Sol     HW 3811   0.307   2.986   1.720 -1.2310  1.3262  0.3256
  215Sol     MW 3812   0.264   2.927   1.772  0.4382  0.1944 -0.2453
  216Sol     OW 3813   0.580   1.268   8.440  0.6957 -0.2787 -0.4261
  216Sol     HW 3814   0.562   1.327   8.513  1.6541  2.3454 -2.2114
  216Sol     HW 3815   0.512   1.288   8.375 -0.6220 -3.1298  0.0011
  216Sol     MW 3816   0.573   1.275   8.441 -0.0556 -0.0410 -0.1297
  217Sol     OW 3817   0.737   1.828   7.720 -0.1190 -0.1000 -0.1278
  217Sol     HW 3818   0.697   1.914   7.735  0.6683 -0.2165  2.8952
  217Sol     HW 3819   0.829   1.848   7.702  0.1030 -0.2861  0.7548
  217Sol     MW 3820   0.742   1.838   7.720 -0.4318 -0.3954 -0.8555
  218Sol     OW 3821   2.263   2.623   5.288 -0.1609  0.4473 -0.1906
  218Sol     HW 3822   2.287   2.650   5.199  0.5367  0.1955 -0.0868
  218Sol     HW 3823   2.295   2.694   5.344 -2.1834  1.4709 -0.2743
  218Sol     MW 3824   2.268   2.632   5.285 -0.4187  0.3614 -0.4917
  219Sol     OW 3825   1.739   1.473   7.358 -0.0861  0.1939 -0.3521
  219Sol     HW 3826   1.663   1.473   7.415  1.0068 -0.1641  1.1279
  219Sol     HW 3827   1.796   1.541   7.393  0.2389  0.5300 -1.5027
  219Sol     MW 3828   1.737   1.479   7.366  0.4821  0.5502 -0.0852
  220Sol     OW 3829   2.487   2.914   6.762  0.0279 -0.0285  0.1421
  220Sol     HW 3830   2.549   2.916   6.689  1.2831  0.7908  1.2049
  220Sol     HW 3831   2.522   2.847   6.821  0.1190  0.6995  0.9266
  220Sol     MW 3832   2.496   2.908   6.761 -0.0994  0.3288 -0.8603
  221Sol     OW 3833   3.235   2.868   8.020  0.0641 -0.0796 -0.2973
  221Sol     HW 3834   3.282   2.951   8.009 -0.6583  0.3627 -0.0264
  221Sol     HW 3835   3.273   2.811   7.953 -0.0043  0.7178 -1.0214
  221Sol     MW 3836   3.243   2.870   8.013  0.3521  0.5838 -0.2326
  222Sol     OW 3837   3.226   2.600   1.583 -0.0733  0.0907 -0.1188
  222Sol     HW 3838   3.199   2.643   1.664  0.5887 -0.9422  0.6651
  222Sol     HW 3839   3.145   2.564   1.546 -0.2722 -0.0520  0.4588
  222Sol     MW 3840   3.217   2.601   1.587  0.1699 -0.5549 -0.6051
  223Sol     OW 3841   3.245   1.570   3.259 -0.3707 -0.3638  0.6327
  223Sol     HW 3842   3.269   1.578   3.352  0.4371 -1.7820  0.5645
  223Sol     HW 3843   3.160   1.613   3.252 -1.7002 -2.5823  2.5790
  223Sol     MW 3844   3.240   1.574   3.267 -0.2617  0.1120  0.6675
  224Sol     OW 3845   2.544   0.819   8.965 -0.4384 -0.3532 -0.2864
  224Sol     HW 3846   2.568   0.854   8.879 -2.2390  0.6606 -0.3971
  224Sol     HW 3847   2.449   0.818   8.965 -0.4862  0.1677  1.8993
  224Sol     MW 3848   2.538   0.822   8.957 -0.2857  0.6979 -0.1213
  225Sol     OW 3849   1.958   1.928   8.904  0.1521  0.1129  0.1367
  225Sol     HW 3850   1.993   1.845   8.936  1.7465  1.4920  2.1154
  225Sol     HW 3851   1.877   1.940   8.953 -0.0522 -0.2458 -0.1093
  225Sol     MW 3852   1.954   1.921   8.912 -0.0721 -0.2745  0.1217
  226Sol     OW 3853   0.414   2.700   7.567 -0.1639 -0.2055  0.8793
  226Sol     HW 3854   0.507   2.710   7.587  0.1500  0.9382 -1.1178
  226Sol     HW 3855   0.379   2.789   7.570 -1.1648 -0.6156  1.4657
  226Sol     MW 3856   0.419   2.709   7.569  0.0363  0.1104 -0.0756
  227Sol     OW 3857   3.305   1.351   2.274 -0.4044 -0.4730 -0.7026
  227Sol     HW 3858   3.213   1.372   2.258 -0.2308  1.5692  0.7900
  227Sol     HW 3859   3.307   1.319   2.364  0.4271  0.1381 -0.4986
  227Sol     MW 3860   3.297   1.350   2.281  0.3702  0.4789 -0.7342
  228Sol     OW 3861   0.623   0.513   4.517  0.1501 -0.2670 -0.0724
  228Sol     HW 3862   0.644   0.419   4.523  1.0663  0.0536  2.3059
  228Sol     HW 3863   0.696   0.551   4.468  0.5819 -0.5504  0.3491
  228Sol     MW 3864   0.631   0.508   4.513  0.9626  0.4603  0.7773
  229Sol     OW 3865   0.355   2.372   5.033  0.1742  0.1449  0.4591
  229Sol     HW 3866   0.308   2.290   5.018 -0.2713  0.4926 -0.0445
  229Sol     HW 3867   0.437   2.362   4.984 -0.1850  0.2839 -0.1631
  229Sol     MW 3868   0.358   2.364   5.028  0.5912 -0.1658  0.1832
  230Sol     OW 3869   2.830   2.885   2.046  0.3039  0.5408 -0.3224
  230Sol     HW 3870   2.843   2.866   1.953 -0.7342 -1.3347 -0.0993
  230Sol     HW 3871   2.767   2.820   2.076 -0.5007  2.0487  1.3721
  230Sol     MW 3872   2.826   2.878   2.040 -0.0803 -0.2957 -0.0235
  231Sol     OW 3873   0.899   2.613   5.000 -1.4246 -0.0283 -0.4215
  231Sol     HW 3874   0.951   2.559   4.940 -1.5306 -1.1403  0.4727
  231Sol     HW 3875   0.809   2.603   4.969 -1.5443 -1.0226  0.2302
  231Sol     MW 3876   0.895   2.607   4.992  0.0607 -0.1810 -0.3634
  232Sol     OW 3877   2.796   1.552   5.819  0.0035  0.4174 -0.8632
  232Sol     HW 3878   2.815   1.463   5.849  1.2296  1.2686  0.9754
  232Sol     HW 3879   2.700   1.555   5.813 -0.2175 -0.1761  1.8264
  232Sol     MW 3880   2.789   1.544   5.821 -0.0164 -0.1075 -0.2468
  233Sol     OW 3881   0.974   2.258   9.944 -0.0764 -0.2768 -0.2196
  233Sol     HW 3882   1.030   2.205   9.887  0.4642  0.1742 -0.1087
  233Sol     HW 3883   1.031   2.287  10.014 -0.6018 -0.3297  0.2337
  233Sol     MW 3884   0.984   2.256   9.945  0.1289 -0.0614  0.2967
  234Sol     OW 3885   1.261   3.371   7.793  0.3550 -0.2372  0.6891
  234Sol     HW 3886   1.190   3.373   7.729  1.3666  0.4505 -0.4527
  234Sol     HW 3887   1.233   3.431   7.862 -0.7567 -0.9893  0.8912
  234Sol     MW 3888   1.252   3.377   7.793 -0.5231  0.3272  0.3912
  235Sol     OW 3889   1.330   3.032   9.810  0.0106  0.3280 -0.0545
  235Sol     HW 3890   1.346   3.096   9.740  1.8281 -0.4837 -0.4112
  235Sol     HW 3891   1.345   2.947   9.770 -0.6915 -0.2455  0.8663
  235Sol     MW 3892   1.333   3.030   9.800  0.3052 -0.4837  0.4813
  236Sol     OW 3893   0.728   0.402   7.959 -0.1365  0.0738  0.8651
  236Sol     HW 3894   0.708   0.310   7.980 -0.7832  0.6080  2.6523
  236Sol     HW 3895   0.658   0.428   7.900 -0.9609 -0.0741  1.7581
  236Sol     MW 3896   0.720   0.396   7.956  0.3375 -0.0435 -1.1339
  237Sol     OW 3897   2.754   1.391   8.400 -0.0704 -0.2689  0.2101
  237Sol     HW 3898   2.829   1.345   8.362  0.2023 -2.6053  3.3536
  237Sol     HW 3899   2.792   1.463   8.449 -0.0352 -0.2338  0.1306
  237Sol     MW 3900   2.764   1.393   8.401 -0.7392 -0.1609 -0.0897
  238Sol     OW 3901   1.895   1.605   2.370  0.5636 -0.3737  0.3695
  238Sol     HW 3902   1.863   1.675   2.313  1.3716 -0.2386  0.0809
  238Sol     HW 3903   1.934   1.650   2.444 -0.0442 -0.5438  0.8014
  238Sol     MW 3904   1.895   1.615   2.371 -0.1315 -0.2530  0.1461
  239Sol     OW 3905   3.067   1.453   7.887  1.1795  0.1110 -0.4910
  239Sol     HW 3906   3.022   1.383   7.840 -0.3351  1.3200 -0.8743
  239Sol     HW 3907   3.143   1.474   7.833  0.6785 -0.0526 -1.2645
  239Sol     MW 3908   3.070   1.449   7.878  0.4743 -0.2506  0.5813
  240Sol     OW 3909   1.736   1.570   8.988 -0.0933 -0.0275 -0.2597
  240Sol     HW 3910   1.725   1.610   8.901 -0.0638  0.2072 -0.1554
  240Sol     HW 3911   1.649   1.538   9.011 -0.0799 -0.1836 -0.4212
  240Sol     MW 3912   1.728   1.571   8.982  0.1005 -0.1236 -0.1702
  241Sol     OW 3913   2.259   2.670   6.363  0.2242 -0.6446 -0.3021
  241Sol     HW 3914   2.215   2.705   6.440  0.7936  0.4158 -0.4552
  241Sol     HW 3915   2.245   2.575   6.369 -0.9899 -0.4385  0.3134
  241Sol     MW 3916   2.254   2.665   6.370  0.6620 -0.2852  0.4070
  242Sol     OW 3917   2.090   2.584   8.272 -0.6181  0.0987  0.7467
  242Sol     HW 3918   2.160   2.589   8.207 -1.1530 -0.2360  0.1430
  242Sol     HW 3919   2.065   2.492   8.273 -1.3927  0.3004  0.5912
  242Sol     MW 3920   2.094   2.576   8.266 -0.5558 -0.3447  0.3233
  243Sol     OW 3921   1.385   1.013   4.561 -0.3398 -0.1986 -0.0518
  243Sol     HW 3922   1.321   0.985   4.627  1.1770  0.2089  1.6365
  243Sol     HW 3923   1.469   1.011   4.607  0.3320  3.2222 -1.0398
  243Sol     MW 3924   1.386   1.010   4.571  0.4546  0.5007  0.0837
  244Sol     OW 3925   3.163   3.248   2.876 -0.9611  0.0329  0.1581
  244Sol     HW 3926   3.257   3.230   2.885 -1.0190  0.0430  0.8706
  244Sol     HW 3927   3.144   3.230   2.784 -0.2792 -0.0561  0.0258
  244Sol     MW 3928   3.170   3.245   2.869  0.1357  0.3695  0.5711
  245Sol     OW 3929   1.931   0.224   5.845 -0.1788 -0.0281 -0.3293
  245Sol     HW 3930   1.920   0.193   5.755 -1.6509 -1.7243  0.4075
  245Sol     HW 3931   1.978   0.154   5.889  1.9991  1.4992 -0.1405
  245Sol     MW 3932   1.934   0.215   5.841  0.0622 -0.0495 -0.2732
  246Sol     OW 3933   1.807   0.647   7.093  0.4851 -0.2447  0.2535
  246Sol     HW 3934   1.743   0.688   7.151  0.1086 -2.1757  1.2306
  246Sol     HW 3935   1.880   0.708   7.092 -0.3050  0.7401  1.2081
  246Sol     MW 3936   1.808   0.656   7.098 -0.1377  0.5096  0.1958
  247Sol     OW 3937   1.031   1.482   8.013 -0.9017  0.6080 -0.2879
  247Sol     HW 3938   1.120   1.466   8.045 -0.7179  0.0230 -1.0772
  247Sol     HW 3939   0.982   1.509   8.091 -1.0144 -3.0163  0.9600
  247Sol     MW 3940   1.035   1.483   8.023  0.2174 -0.5563 -0.7826
  248Sol     OW 3941   1.077   0.475   8.076 -0.0938 -0.2643 -0.2234
  248Sol     HW 3942   1.134   0.405   8.109  1.5710  1.1419 -0.0491
  248Sol     HW 3943   1.023   0.500   8.151  0.7055  0.0143  0.2600
  248Sol     MW 3944   1.077   0.471   8.086  0.6213 -0.7972  0.1066
  249Sol     OW 3945   1.961   2.521   9.763 -0.6107  0.5481 -0.4061
  249Sol     HW 3946   2.035   2.509   9.703 -0.2257 -0.1218  0.1902
  249Sol     HW 3947   1.885   2.489   9.715 -0.1812 -0.7417 -0.2396
  249Sol     MW 3948   1.961   2.517   9.753 -0.0778  0.5200 -0.1625
  250Sol     OW 3949   0.941   0.516   5.537 -0.1734  0.5200  0.0656
  250Sol     HW 3950   0.955   0.604   5.572  1.9466 -0.5912  2.1309
  250Sol     HW 3951   0.855   0.490   5.569  0.6352  0.5499  2.3706
  250Sol     MW 3952   0.935   0.521   5.543 -0.2512 -0.6099 -0.0353
  251Sol     OW 3953   1.051   0.130   5.329 -0.4574  0.7830 -0.1525
  251Sol     HW 3954   1.017   0.121   5.240  2.1517 -0.4440 -1.0694
  251Sol     HW 3955   1.139   0.091   5.326  0.3979  2.3231  2.5110
  251Sol     MW 3956   1.056   0.126   5.321 -0.6177  0.0151 -0.8009
  252Sol     OW 3957   1.375   0.491   8.609 -0.4337 -0.1663  0.1473
  252Sol     HW 3958   1.371   0.586   8.618 -0.0582 -0.1171 -0.1698
  252Sol     HW 3959   1.436   0.477   8.537  0.5661 -0.6834  1.0821
  252Sol     MW 3960   1.380   0.498   8.603  0.2032 -0.3661 -0.1212
  253Sol     OW 3961   2.925   3.082   6.341  0.2191  0.1485 -0.4596
  253Sol     HW 3962   2.860   3.012   6.350 -0.2760  0.4688 -1.4181
  253Sol     HW 3963   2.905   3.144   6.411 -0.4531  0.1946 -0.6895
  253Sol     MW 3964   2.918   3.081   6.348  1.2226 -0.7909 -0.0323
  254Sol     OW 3965   0.260   1.222   3.640 -0.3778  0.1218  0.0717
  254Sol     HW 3966   0.219   1.297   3.597  0.3696  0.3541 -0.2469
  254Sol     HW 3967   0.242   1.148   3.583 -2.5756 -0.2720  1.2352
  254Sol     MW 3968   0.255   1.222   3.631  0.7663  0.3257  0.2273
  255Sol     OW 3969   2.252   1.567   1.951 -1.1989 -0.0094  0.8060
  255Sol     HW 3970   2.167   1.551   1.992 -1.0451 -0.7810  0.8264
  255Sol     HW 3971   2.255   1.507   1.876 -0.3636 -0.5218  1.2423
  255Sol     MW 3972   2.245   1.560   1.948  0.0322 -0.4007  0.3853
  256Sol     OW 3973   2.607   2.182   8.511 -0.3286  0.0010  0.0925
  256Sol     HW 3974   2.573   2.201   8.424 -2.8671  1.1321  1.2547
  256Sol     HW 3975   2.681   2.241   8.522  1.2677 -1.5198 -1.9820
  256Sol     MW 3976   2.610   2.189   8.504  0.5570  0.1896  0.3285
  257Sol     OW 3977   1.837   1.798   7.682  0.4910 -0.3114 -0.0631
  257Sol     HW 3978   1.898   1.852   7.732  0.1279 -0.9261  1.0492
  257Sol     HW 3979   1.801   1.858   7.616 -0.3699  0.9839  1.5330
  257Sol     MW 3980   1.839   1.808   7.680  0.4968  0.2222 -0.2950
  258Sol     OW 3981   2.534   3.043   3.812 -0.1344 -0.0938  0.3269
  258Sol     HW 3982   2.555   2.954   3.840  1.7041  0.2991  0.2625
  258Sol     HW 3983   2.544   3.096   3.891 -2.5119 -0.1187  0.6748
  258Sol     MW 3984   2.537   3.040   3.822 -0.3412 -0.4243  0.8308
  259Sol     OW 3985   2.367   1.779   3.543  0.6319  0.3992 -0.3570
  259Sol     HW 3986   2.300   1.717   3.512  0.0575  0.8563 -0.0422
  259Sol     HW 3987   2.422   1.727   3.602  1.3161 -0.2975 -1.5951
  259Sol     MW 3988   2.365   1.769   3.545  0.6227 -0.3102 -0.5000
  260Sol     OW 3989   2.659   2.668   9.723 -0.2046  0.0146 -0.3887
  260Sol     HW 3990   2.737   2.611   9.720 -0.0869  0.2043 -1.2217
  260Sol     HW 3991   2.677   2.735   9.657 -0.9486  0.2339 -0.3649
  260Sol     MW 3992   2.668   2.669   9.717  0.1161  0.0715 -0.0720
  261Sol     OW 3993   3.098   1.185   5.845  0.2082  0.7961 -0.0850
  261Sol     HW 3994   3.103   1.157   5.754  0.1100  0.2594  0.0755
  261Sol     HW 3995   3.099   1.104   5.896 -1.3700  1.0198  0.3240
  261Sol     MW 3996   3.098   1.176   5.842  0.6978 -0.5810 -0.6088
  262Sol     OW 3997   1.767   2.569   4.358 -0.6142 -0.1258  0.0225
  262Sol     HW 3998   1.786   2.477   4.379 -1.6126 -0.4793 -0.6247
  262Sol     HW 3999   1.733   2.567   4.269  0.4638  1.0133 -0.4208
  262Sol     MW 4000   1.766   2.560   4.352  0.3984  0.3172 -0.4765
  263Sol     OW 4001   0.967   1.052   3.049  0.3879 -0.1683 -0.4798
  263Sol     HW 4002   0.925   1.069   3.133  1.4153 -1.2879  0.2797
  263Sol     HW 4003   0.921   0.977   3.013  1.1906 -0.9069 -0.0043
  263Sol     MW 4004   0.959   1.047   3.053  1.0992 -0.1960  0.2075
  264Sol     OW 4005   2.390   0.867   7.710 -0.1512  0.3209  0.9150
  264Sol     HW 4006   2.404   0.774   7.691 -0.7532  0.5771 -0.9397
  264Sol     HW 4007   2.355   0.869   7.799  2.3426 -1.0139  1.9833
  264Sol     MW 4008   2.388   0.859   7.716 -0.4806 -0.5394 -0.3263
  265Sol     OW 4009   0.837   0.842   2.949 -0.0691 -0.0704 -0.0478
  265Sol     HW 4010   0.836   0.788   2.869 -0.0705  0.3806 -0.3516
  265Sol     HW 4011   0.753   0.823   2.991 -0.1623 -0.1379 -0.2643
  265Sol     MW 4012   0.829   0.835   2.946  1.3930 -0.2222  0.5209
  266Sol     OW 4013   0.792   2.223   6.064  0.1958 -0.3470 -0.4222
  266Sol     HW 4014   0.768   2.132   6.078  1.4136 -0.4039  1.3979
  266Sol     HW 4015   0.710   2.271   6.073 -0.3532 -1.1970 -0.8445
  266Sol     MW 4016   0.783   2.219   6.066  0.0582  0.5724  0.2921
  267Sol     OW 4017   2.192   1.402   8.889 -0.5934 -0.0966 -0.2170
  267Sol     HW 4018   2.200   1.307   8.883 -0.0121  0.0326 -1.5977
  267Sol     HW 4019   2.124   1.425   8.826 -1.5287  0.3039  0.9153
  267Sol     MW 4020   2.186   1.396   8.883 -0.3518  0.2894  0.0665
  268Sol     OW 4021   0.537   2.384   7.119 -0.0188 -0.2113  0.5852
  268Sol     HW 4022   0.593   2.310   7.095  1.2829  0.9769 -0.1212
  268Sol     HW 4023   0.588   2.462   7.094 -2.4579  0.8834 -1.1260
  268Sol     MW 4024   0.547   2.385   7.114  0.2772  0.0795 -0.4346
  269Sol     OW 4025   2.306   1.988   3.930 -0.1611  0.5661 -0.3620
  269Sol     HW 4026   2.293   1.896   3.905  0.2994  0.8949 -1.8482
  269Sol     HW 4027   2.279   2.038   3.853 -0.0903  1.6695  0.3190
  269Sol     MW 4028   2.302   1.984   3.921  0.3745 -0.1852  0.1905
  270Sol     OW 4029   1.062   0.666   4.969 -0.1818  0.3770  0.4418
  270Sol     HW 4030   0.995   0.612   4.926 -0.0847  0.1246  0.6030
  270Sol     HW 4031   1.111   0.604   5.023  1.3036  0.2632 -1.0215
  270Sol     MW 4032   1.060   0.655   4.970  0.2352 -0.3586 -0.1178
  271Sol     OW 4033   0.987   0.938   9.561 -0.1254 -0.2672  0.7214
  271Sol     HW 4034   1.017   0.847   9.560 -0.0854 -0.2450 -0.6011
  271Sol     HW 4035   0.921   0.942   9.492 -1.4161  0.2780  1.9794
  271Sol     MW 4036   0.984   0.930   9.555  0.0871  0.1090 -0.2969
  272Sol     OW 4037   1.356   0.996   5.096  0.1763  0.6819 -0.1151
  272Sol     HW 4038   1.314   0.936   5.034 -2.3753  0.1548  2.0507
  272Sol     HW 4039   1.444   0.960   5.108 -1.2478 -2.5982  1.0188
  272Sol     MW 4040   1.360   0.988   5.092  0.4978  0.4390  0.6669
  273Sol     OW 4041   1.125   2.995   9.006  0.0332 -0.1261  0.0653
  273Sol     HW 4042   1.174   2.946   9.072  0.6950 -0.0233 -0.3444
  273Sol     HW 4043   1.034   2.977   9.026  0.2826 -2.6582 -0.9584
  273Sol     MW 4044   1.122   2.989   9.014  0.7818 -0.5793  0.2523
  274Sol     OW 4045   0.960   1.311   5.242 -0.3164  0.9267 -0.5066
  274Sol     HW 4046   1.031   1.349   5.295  0.0621 -0.9880  0.3991
  274Sol     HW 4047   1.006   1.270   5.169 -0.5645  0.3571 -0.3364
  274Sol     MW 4048   0.971   1.311   5.240 -0.9395 -0.1904  0.0218
  275Sol     OW 4049   0.122   3.217   1.994 -0.4791 -0.0883  0.2686
  275Sol     HW 4050   0.034   3.228   1.958 -0.1519  1.3643 -0.1222
  275Sol     HW 4051   0.180   3.234   1.920  0.1416 -0.5257  0.6548
  275Sol     MW 4052   0.119   3.219   1.984  0.2836 -0.2466  0.5074
  276Sol     OW 4053   2.080   3.147   4.185 -0.5610 -0.3223  0.1028
  276Sol     HW 4054   2.020   3.110   4.120 -0.1449 -0.9929  0.0898
  276Sol     HW 4055   2.100   3.234   4.153  0.7624 -1.1728 -1.4186
  276Sol     MW 4056   2.076   3.151   4.176  0.5636 -0.1546  0.0424
  277Sol     OW 4057   1.595   1.796   3.667  0.0559 -0.0649  0.4741
  277Sol     HW 4058   1.669   1.809   3.725  0.1687  0.6571  0.1820
  277Sol     HW 4059   1.578   1.702   3.669  1.1803 -0.2809  0.2917
  277Sol     MW 4060   1.600   1.789   3.672 -0.0942  0.5500  0.5263
  278Sol     OW 4061   2.678   0.705   2.856 -0.2023 -0.2272 -0.0984
  278Sol     HW 4062   2.649   0.626   2.809 -0.3869  1.0478 -2.1859
  278Sol     HW 4063   2.626   0.704   2.936 -1.7162 -1.1728 -1.0382
  278Sol     MW 4064   2.671   0.698   2.859  0.3792 -0.0008 -0.2414
  279Sol     OW 4065   2.732   3.089   3.619  0.8205 -0.1888  0.6005
  279Sol     HW 4066   2.805   3.037   3.654  0.5962 -0.5425  0.5495
  279Sol     HW 4067   2.664   3.082   3.686  0.9093  0.3084  0.7397
  279Sol     MW 4068   2.733   3.083   3.628 -0.2019 -0.3527  0.4254
  280Sol     OW 4069   1.588   1.895   4.902 -0.5463  0.0123  0.2123
  280Sol     HW 4070   1.621   1.851   4.824 -0.3226 -0.2686  0.4600
  280Sol     HW 4071   1.667   1.914   4.953 -0.7285 -0.2348  0.5899
  280Sol     MW 4072   1.598   1.893   4.900 -0.7098  0.1835  0.2551
  281Sol     OW 4073   0.745   0.667   9.085  0.3010 -0.0996 -0.8478
  281Sol     HW 4074   0.769   0.584   9.044 -2.0257  0.9052 -4.4709
  281Sol     HW 4075   0.781   0.734   9.027  0.6750  1.4477  1.1180
  281Sol     MW 4076   0.750   0.665   9.076  0.0212  0.2421 -0.2177
  282Sol     OW 4077   3.235   0.438   5.091 -0.2352  0.4338 -0.1260
  282Sol     HW 4078   3.330   0.450   5.092 -0.0195 -0.9604 -1.8931
  282Sol     HW 4079   3.219   0.365   5.151 -0.1438  0.3823 -0.1643
  282Sol     MW 4080   3.242   0.433   5.097  0.1550 -0.7922  0.0361
  283Sol     OW 4081   2.181   0.049   9.503  0.4360 -0.0448  0.4361
  283Sol     HW 4082   2.262   0.035   9.454  1.0318  0.9938  1.1188
  283Sol     HW 4083   2.201   0.021   9.592  0.6173  1.9044  1.0386
  283Sol     MW 4084   2.190   0.045   9.507  0.5512 -0.4024 -0.2973
  284Sol     OW 4085   0.825   2.697   7.269 -0.3580 -0.1230  0.0059
  284Sol     HW 4086   0.756   2.751   7.232  0.1401 -0.3051 -1.1889
  284Sol     HW 4087   0.903   2.717   7.218 -0.5600 -3.2786 -1.6901
  284Sol     MW 4088   0.826   2.703   7.261 -0.3766 -0.6518  0.1305
  285Sol     OW 4089   1.176   3.241   8.634 -0.4206 -0.0228 -0.2076
  285Sol     HW 4090   1.098   3.278   8.676 -0.2316 -1.8011  1.8202
  285Sol     HW 4091   1.242   3.241   8.703  1.1596  0.7163 -1.6857
  285Sol     MW 4092   1.175   3.244   8.644 -0.9212  0.0620  0.4946
  286Sol     OW 4093   0.781   3.240   5.272  0.0044  0.2540 -0.3599
  286Sol     HW 4094   0.857   3.224   5.329  0.2477 -0.0037 -0.7584
  286Sol     HW 4095   0.819   3.261   5.187 -0.4017 -2.6059 -1.2924
  286Sol     MW 4096   0.791   3.241   5.270  0.0341  0.4540 -0.2976
  287Sol     OW 4097   2.350   3.372   7.805  0.8302 -0.4805 -0.2126
  287Sol     HW 4098   2.411   3.400   7.874  0.9236 -0.4750 -0.2983
  287Sol     HW 4099   2.386   3.290   7.772  0.1354 -1.1148  0.5760
  287Sol     MW 4100   2.359   3.367   7.808 -0.6792 -0.1731  0.6545
  288Sol     OW 4101   1.079   0.260   5.590  0.7672 -0.6181  0.1270
  288Sol     HW 4102   1.064   0.350   5.562 -1.8918 -1.0787 -0.1212
  288Sol     HW 4103   1.066   0.208   5.510  1.0949 -1.3025  0.5207
  288Sol     MW 4104   1.076   0.263   5.580  1.3839  0.0625 -0.3541
  289Sol     OW 4105   1.719   2.541   9.110  0.5915  0.4103  0.5010
  289Sol     HW 4106   1.675   2.607   9.056  1.1253  1.0868  0.8876
  289Sol     HW 4107   1.662   2.464   9.104  0.7802  0.3809 -1.2592
  289Sol     MW 4108   1.710   2.540   9.104  0.1168 -0.1409 -0.4624
  290Sol     OW 4109   2.651   0.575   8.023  0.4382  0.1522 -0.0521
  290Sol     HW 4110   2.672   0.517   7.949 -1.6119 -0.1232 -0.4653
  290Sol     HW 4111   2.627   0.515   8.094  1.2359  0.4442  0.4718
  290Sol     MW 4112   2.651   0.564   8.023 -0.3713 -0.3437 -0.6523
  291Sol     OW 4113   0.821   2.158   7.977 -0.4478 -0.1478  0.0542
  291Sol     HW 4114   0.860   2.071   7.968 -1.6159 -0.7260  0.5475
  291Sol     HW 4115   0.753   2.148   8.044 -0.7067  1.1022 -0.0034
  291Sol     MW 4116   0.818   2.149   7.982  0.0269 -0.0873  0.0493
  292Sol     OW 4117   1.132   2.404   3.963  0.2108 -0.6598 -0.3510
  292Sol     HW 4118   1.107   2.366   4.047  2.5911 -1.2271  0.1385
  292Sol     HW 4119   1.135   2.498   3.979  1.9296 -0.8519  0.5932
  292Sol     MW 4120   1.130   2.409   3.972 -0.3155 -0.0257 -0.7138
  293Sol     OW 4121   1.691   3.252   4.884  0.2241 -0.2653  0.3612
  293Sol     HW 4122   1.738   3.209   4.812 -0.8200 -0.2002 -0.3745
  293Sol     HW 4123   1.601   3.259   4.852 -0.0957  0.3989  1.4060
  293Sol     MW 4124   1.687   3.248   4.875 -0.0685  0.2171  0.2371
  294Sol     OW 4125   2.088   1.482   2.198 -0.1832  0.3487 -0.9858
  294Sol     HW 4126   2.030   1.525   2.261  1.2768 -0.3226  0.8594
  294Sol     HW 4127   2.035   1.412   2.159 -0.9449  0.4644 -0.1661
  294Sol     MW 4128   2.078   1.480   2.200  0.1242 -0.3498 -0.2011
  295Sol     OW 4129   2.974   0.299   6.713 -0.0285 -0.4168 -0.0358
  295Sol     HW 4130   3.010   0.381   6.747  0.1448 -0.4988 -0.0188
  295Sol     HW 4131   2.980   0.307   6.618 -0.3451 -0.2617 -0.0412
  295Sol     MW 4132   2.978   0.307   6.707  0.4344 -0.2077 -0.7159
  296Sol     OW 4133   1.563   1.497   7.587  0.5150 -0.1661 -0.0424
  296Sol     HW 4134   1.598   1.569   7.638  1.8827 -0.9282  0.1004
  296Sol     HW 4135   1.576   1.420   7.642  0.6940 -0.7872 -0.9531
  296Sol     MW 4136   1.567   1.497   7.596 -0.4358  0.3345 -0.3953
  297Sol     OW 4137   0.349   0.080   8.511  0.3084  0.0551  0.2458
  297Sol     HW 4138   0.412   0.063   8.440  0.6799 -0.7220  0.7557
  297Sol     HW 4139   0.397   0.060   8.591 -1.0252 -1.9140  0.5715
  297Sol     MW 4140   0.359   0.077   8.512  0.1242 -0.1405 -0.4343
  298Sol     OW 4141   2.690   2.512   8.548  0.2573  0.7640 -0.0508
  298Sol     HW 4142   2.759   2.452   8.522 -0.7508 -0.1951 -0.5672
  298Sol     HW 4143   2.659   2.478   8.632 -2.5161 -1.4170 -1.8560
  298Sol     MW 4144   2.693   2.504   8.553  0.9402  0.2243 -0.3136
  299Sol     OW 4145   0.927   2.022   8.231  0.1898  0.3883 -0.5476
  299Sol     HW 4146   0.981   2.085   8.184  0.0091  0.1838 -1.0385
  299Sol     HW 4147   0.989   1.969   8.281  0.3765  0.6572 -0.4943
  299Sol     MW 4148   0.938   2.023   8.231  0.1006 -0.0357 -0.0714
  300Sol     OW 4149   2.834   2.741   6.810 -0.1544 -0.3077  0.5094
  300Sol     HW 4150   2.905   2.682   6.835  0.5108 -1.1613 -3.1437
  300Sol     HW 4151   2.792   2.698   6.735 -0.5442  3.1646 -1.3537
  300Sol     MW 4152   2.836   2.732   6.806 -0.0221  0.0036  0.3266
  301Sol     OW 4153   1.661   1.259   5.305  0.5525 -0.3342  0.0428
  301Sol     HW 4154   1.708   1.228   5.227  1.8201  0.1472  0.6017
  301Sol     HW 4155   1.729   1.297   5.360 -0.4595  0.0680  1.0278
  301Sol     MW 4156   1.671   1.259   5.303  1.1197  0.6603 -0.2912
  302Sol     OW 4157   0.885   3.249   5.015  0.2299  0.0121  0.0639
  302Sol     HW 4158   0.821   3.220   4.949 -0.4766  0.7003  0.4337
  302Sol     HW 4159   0.958   3.189   5.006 -0.3578 -0.6150 -0.5642
  302Sol     MW 4160   0.886   3.241   5.008  0.4681  0.1051  0.6865
  303Sol     OW 4161   2.775   0.187   9.416  0.4524  0.1565 -0.0582
  303Sol     HW 4162   2.795   0.198   9.323  1.5780  1.2054  0.2958
  303Sol     HW 4163   2.808   0.099   9.436  1.2550  0.3679 -0.3977
  303Sol     MW 4164   2.780   0.180   9.410  0.1903 -0.0814  0.9872
  304Sol     OW 4165   2.263   1.385   3.006 -0.0384 -0.1568  0.3769
  304Sol     HW 4166   2.292   1.451   2.943 -2.2281 -0.8132 -1.3950
  304Sol     HW 4167   2.251   1.306   2.953 -2.1682 -0.6617  1.5869
  304Sol     MW 4168   2.265   1.384   2.996  0.1056  0.2241 -0.6516
  305Sol     OW 4169   0.897   1.123   5.823  0.0711  0.4009  0.2810
  305Sol     HW 4170   0.992   1.128   5.828  0.2361  0.3544 -2.1610
  305Sol     HW 4171   0.872   1.199   5.769 -1.1494 -0.2930 -0.1599
  305Sol     MW 4172   0.903   1.131   5.818 -0.4022  0.6086  0.2451
  306Sol     OW 4173   2.075   1.531   1.527  0.3410  0.2153 -0.0173
  306Sol     HW 4174   2.059   1.440   1.504  0.1802 -0.4065  2.4121
  306Sol     HW 4175   2.020   1.582   1.468 -1.2908 -1.3604  0.1385
  306Sol     MW 4176   2.069   1.528   1.520 -1.0139  0.1661  0.7591
  307Sol     OW 4177   2.936   1.263   1.982  0.5357  0.3728  0.3762
  307Sol     HW 4178   2.872   1.331   2.004  0.1550 -0.7197  2.7257
  307Sol     HW 4179   2.924   1.196   2.049  1.1720 -1.8657 -1.6765
  307Sol     MW 4180   2.929   1.263   1.990  0.2091 -0.4781 -0.1849
  308Sol     OW 4181   0.898   0.027   2.314 -0.4143 -1.0296 -0.6925
  308Sol     HW 4182   0.924   0.087   2.244  0.0981  0.0565  0.3961
  308Sol     HW 4183   0.960  -0.045   2.309  1.1286  0.2044  0.1409
  308Sol     MW 4184   0.906   0.026   2.307 -0.3185 -0.6365 -0.2456
  309Sol     OW 4185   2.097   2.756   9.867  0.2760  0.0349 -0.2072
  309Sol     HW 4186   2.036   2.691   9.831  1.2097 -0.5600 -0.7284
  309Sol     HW 4187   2.073   2.762   9.960 -1.9128  1.3254 -0.8210
  309Sol     MW 4188   2.089   2.751   9.872 -1.1427 -0.0325  0.6021
  310Sol     OW 4189   2.641   1.598   3.590 -0.0710 -0.1819 -0.0327
  310Sol     HW 4190   2.678   1.684   3.573 -0.2955 -0.4004 -1.7457
  310Sol     HW 4191   2.708   1.536   3.560 -1.0485 -0.5836 -1.4518
  310Sol     MW 4192   2.651   1.600   3.585  0.1052  0.4863 -0.4250
  311Sol     OW 4193   1.466   1.672   3.215  0.6933 -0.5172 -0.2811
  311Sol     HW 4194   1.379   1.685   3.254  0.1673 -0.4165 -1.4372
  311Sol     HW 4195   1.511   1.612   3.274 -0.5635 -1.4355 -0.2440
  311Sol     MW 4196   1.462   1.668   3.223  0.1456 -0.6134 -0.5631
  312Sol     OW 4197   1.483   2.451   2.023  1.4113 -0.8853  0.0039
  312Sol     HW 4198   1.401   2.401   2.014  0.9692  0.0682 -1.2753
  312Sol     HW 4199   1.537   2.422   1.950  1.1283  0.5415 -0.7891
  312Sol     MW 4200   1.480   2.444   2.016 -0.5689 -0.0415  0.2527
  313Sol     OW 4201   0.340   1.436   6.947 -0.6837 -0.8348 -0.0911
  313Sol     HW 4202   0.416   1.413   6.999  0.3294 -0.2214 -1.2741
  313Sol     HW 4203   0.302   1.353   6.920 -0.6432 -1.1426  0.7927
  313Sol     MW 4204   0.343   1.427   6.949  0.6374 -0.4393 -0.1850
  314Sol     OW 4205   2.725   0.166   6.809  0.9281 -0.3492  0.8621
  314Sol     HW 4206   2.647   0.205   6.770  0.8293  2.3652  3.6453
  314Sol     HW 4207   2.797   0.197   6.754  0.5287  1.1651  1.1885
  314Sol     MW 4208   2.725   0.172   6.800  0.2064  0.0360 -0.1069
  315Sol     OW 4209   1.132   1.756   5.503 -0.4542 -0.8234 -0.0172
  315Sol     HW 4210   1.174   1.713   5.429  0.5285 -1.7062  1.0406
  315Sol     HW 4211   1.147   1.850   5.488 -4.0060 -0.6245 -3.1956
  315Sol     MW 4212   1.137   1.761   5.495 -0.0143 -0.9741 -0.0725
  316Sol     OW 4213   1.452   1.555   2.970 -0.0754 -0.3585  0.2126
  316Sol     HW 4214   1.437   1.627   2.909 -0.2921 -2.2157 -1.9712
  316Sol     HW 4215   1.461   1.598   3.055  0.7674  2.3314 -1.1650
  316Sol     MW 4216   1.452   1.565   2.972  0.3269 -0.1181 -0.3629
  317Sol     OW 4217   0.230   3.210   6.795 -0.1922 -0.5869  0.3389
  317Sol     HW 4218   0.179   3.239   6.719  0.2482  1.0533  0.6486
  317Sol     HW 4219   0.168   3.211   6.867 -0.3503 -1.1397  0.2184
  317Sol     MW 4220   0.220   3.212   6.794 -0.6625  0.0062 -0.1935
  318Sol     OW 4221   2.870   1.062   5.035 -0.2320 -0.5439  1.0587
  318Sol     HW 4222   2.875   1.008   5.114 -0.6956  0.4004  1.7415
  318Sol     HW 4223   2.787   1.108   5.042  0.3915  0.6613  0.7418
  318Sol     MW 4224   2.863   1.062   5.043 -1.1684 -0.2915  0.3563
  319Sol     OW 4225   0.748   0.199   9.565 -0.5397  0.1086  0.3138
  319Sol     HW 4226   0.715   0.189   9.655  2.4506  0.0754  1.4746
  319Sol     HW 4227   0.816   0.132   9.558  0.1911  1.0314 -1.5162
  319Sol     MW 4228   0.751   0.192   9.573 -0.1503 -0.5680  0.3160
  320Sol     OW 4229   1.934   3.048   7.188  0.1454 -0.5561  0.1893
  320Sol     HW 4230   1.987   3.089   7.257  1.2510  0.7876 -1.4423
  320Sol     HW 4231   1.995   2.992   7.140  0.0289  0.7302 -1.4840
  320Sol     MW 4232   1.944   3.046   7.190  0.4898  0.2931 -0.4943
  321Sol     OW 4233   0.458   1.932   9.665 -0.3990 -0.1607  0.4891
  321Sol     HW 4234   0.484   1.870   9.734 -0.8086 -0.1663  0.6342
  321Sol     HW 4235   0.507   2.012   9.685  0.6506 -0.6395 -0.0762
  321Sol     MW 4236   0.465   1.933   9.673 -0.5365  0.4949  0.3125
  322Sol     OW 4237   1.602   2.998   7.853  0.2956  0.7078 -0.8959
  322Sol     HW 4238   1.531   3.039   7.804 -3.2832 -1.5834  2.0699
  322Sol     HW 4239   1.605   3.046   7.936  1.3236 -0.1263 -0.4352
  322Sol     MW 4240   1.596   3.006   7.856 -0.6496 -0.2678 -0.7811
  323Sol     OW 4241   1.799   0.549   7.371 -0.3703 -0.2848  0.6208
  323Sol     HW 4242   1.836   0.489   7.306 -1.2819  0.9404 -1.0792
  323Sol     HW 4243   1.816   0.636   7.336 -2.5162  0.3637  1.0958
  323Sol     MW 4244   1.804   0.552   7.362 -0.0584 -0.3231  1.0071
  324Sol     OW 4245   1.016   3.323   9.904 -0.0934  0.1129 -0.3924
  324Sol     HW 4246   1.046   3.383   9.836  0.7942 -0.2246 -0.3150
  324Sol     HW 4247   1.041   3.236   9.871  1.5096  0.0430  0.9313
  324Sol     MW 4248   1.021   3.320   9.895  0.5044  0.7537 -0.4841
  325Sol     OW 4249   2.959   0.121   7.256  0.2807 -0.5110  0.1265
  325Sol     HW 4250   2.929   0.042   7.301 -2.6042  0.8832  0.8249
  325Sol     HW 4251   3.009   0.089   7.181 -1.1055 -3.0110  0.2068
  325Sol     MW 4252   2.961   0.111   7.254  0.0913 -0.2671  0.4068
  326Sol     OW 4253   0.937   1.533   9.794  0.0315 -0.3363 -0.5552
  326Sol     HW 4254   1.007   1.547   9.729  0.5264  0.0326  0.0527
  326Sol     HW 4255   0.907   1.621   9.816  1.4269 -0.3253  1.4016
  326Sol     MW 4256   0.941   1.542   9.790  0.4024  0.5145  0.1040
  327Sol     OW 4257   2.164   1.693   9.448 -0.1738  0.2258 -0.9846
  327Sol     HW 4258   2.096   1.626   9.459  0.0010  0.1175 -0.5365
  327Sol     HW 4259   2.128   1.753   9.383 -1.2975  0.9126  0.2362
  327Sol     MW 4260   2.155   1.692   9.443 -0.0692 -0.2272 -0.1692
  328Sol     OW 4261   0.117   0.138   8.349 -0.3972  0.0055 -0.3242
  328Sol     HW 4262   0.108   0.054   8.305  1.1867  0.7380 -2.0906
  328Sol     HW 4263   0.196   0.129   8.402 -0.6720  0.1148  0.1074
  328Sol     MW 4264   0.123   0.130   8.350 -0.6249 -0.4203 -0.2484
  329Sol     OW 4265   2.195   0.832   4.743  0.6685  0.0417  0.2689
  329Sol     HW 4266   2.270   0.774   4.728  2.6971  2.1610  1.8333
  329Sol     HW 4267   2.134   0.810   4.673  2.8632 -1.5579 -1.2287
  329Sol     MW 4268   2.196   0.824   4.735  0.3261 -0.2112 -0.4682
  330Sol     OW 4269   1.644   0.994   4.674  0.1584  0.3285 -0.7984
  330Sol     HW 4270   1.718   1.055   4.673  0.7785 -0.3798  0.3742
  330Sol     HW 4271   1.658   0.938   4.598  0.7363  0.3133 -0.6856
  330Sol     MW 4272   1.652   0.994   4.667  0.4949 -0.5455 -0.7217
  331Sol     OW 4273   2.007   2.371   5.595 -0.1661 -0.6164 -0.0604
  331Sol     HW 4274   1.957   2.290   5.602 -0.4470 -0.4985 -0.7231
  331Sol     HW 4275   1.941   2.440   5.590  0.0387 -0.5066 -1.5289
  331Sol     MW 4276   1.997   2.370   5.595  0.1508 -0.3488 -0.3288
  332Sol     OW 4277   0.853   2.123   2.549 -0.5903  0.7196 -0.3805
  332Sol     HW 4278   0.806   2.193   2.594 -0.7965 -0.3502  1.1037
  332Sol     HW 4279   0.808   2.114   2.465 -0.7497  2.1503 -0.4671
  332Sol     MW 4280   0.845   2.129   2.545  0.2495 -0.2695 -0.3737
  333Sol     OW 4281   2.640   1.076   2.675 -0.0760 -0.5340  0.3409
  333Sol     HW 4282   2.727   1.089   2.637 -0.8733  0.6454 -1.1302
  333Sol     HW 4283   2.611   1.164   2.699 -1.4170 -0.7368 -0.4737
  333Sol     MW 4284   2.645   1.085   2.673 -0.5699 -0.2399 -0.4848
  334Sol     OW 4285   1.302   2.497   9.775 -0.1372  0.0838 -0.1609
  334Sol     HW 4286   1.279   2.545   9.855  0.3140  0.0274  0.0038
  334Sol     HW 4287   1.396   2.484   9.781 -0.1344 -0.1124 -0.6013
  334Sol     MW 4288   1.308   2.500   9.783  0.0719 -0.3255  0.3440
  335Sol     OW 4289   3.047   0.556   6.055  0.3306  0.1816 -0.3979
  335Sol     HW 4290   3.011   0.501   5.986  2.6088 -1.5957 -0.2583
  335Sol     HW 4291   2.972   0.583   6.107 -1.1114 -0.7573 -1.9587
  335Sol     MW 4292   3.037   0.553   6.054  0.3671 -0.8258  0.0133
  336Sol     OW 4293   2.870   3.042   5.077  0.6171  0.6343  0.0492
  336Sol     HW 4294   2.910   2.995   5.004 -0.2427  1.6389 -1.1070
  336Sol     HW 4295   2.940   3.097   5.111  1.0521  0.0854  0.0376
  336Sol     MW 4296   2.880   3.043   5.073 -0.5698 -0.6902  0.3131
  337Sol     OW 4297   0.214   2.451   7.721  0.2721 -0.2736 -0.2048
  337Sol     HW 4298   0.154   2.434   7.794  0.1170  1.8282  0.1909
  337Sol     HW 4299   0.290   2.491   7.761  0.9424 -0.7472 -0.9955
  337Sol     MW 4300   0.215   2.453   7.731 -0.5515 -0.0747 -0.4786
  338Sol     OW 4301   0.958   1.556   2.067  0.1369  0.1845 -0.2650
  338Sol     HW 4302   0.880   1.566   2.120 -0.7342  0.1672 -1.5252
  338Sol     HW 4303   0.925   1.542   1.978  1.5860  1.1286 -0.9629
  338Sol     MW 4304   0.948   1.555   2.064  0.4684  0.2021  0.3324
  339Sol     OW 4305   0.802   2.925   8.245  0.2778  0.0461  0.0632
  339Sol     HW 4306   0.843   2.895   8.164  0.6282  0.9514 -0.1027
  339Sol     HW 4307   0.717   2.960   8.217  0.2564  0.0495  0.1333
  339Sol     MW 4308   0.798   2.926   8.235 -0.1726 -0.2745 -0.3882
  340Sol     OW 4309   2.791   2.047   1.557  0.8112  0.0777 -0.3464
  340Sol     HW 4310   2.753   2.107   1.493 -0.0647 -0.2500 -0.1361
  340Sol     HW 4311   2.716   2.007   1.601  1.3972 -0.0270  0.5830
  340Sol     MW 4312   2.781   2.049   1.555  0.2144  0.0967  0.1589
  341Sol     OW 4313   0.523   1.876   5.642 -1.0007 -0.1278  0.4355
  341Sol     HW 4314   0.526   1.874   5.738 -3.1399  2.0735  0.5985
  341Sol     HW 4315   0.454   1.940   5.622  0.1281  0.2077 -2.5761
  341Sol     MW 4316   0.517   1.882   5.649 -0.5267  0.3087  0.0621
  342Sol     OW 4317   0.158   2.370   3.689 -0.0215  0.0613 -0.1983
  342Sol     HW 4318   0.125   2.302   3.630 -1.0307  0.2316  0.1591
  342Sol     HW 4319   0.126   2.344   3.776 -1.1610  1.4525 -0.1857
  342Sol     MW 4320   0.152   2.361   3.692 -0.3849 -0.4509  0.3088
  343Sol     OW 4321   1.275   0.990   6.927  0.7378  0.1588  0.0084
  343Sol     HW 4322   1.330   0.918   6.957  0.8228  0.5137  0.7191
  343Sol     HW 4323   1.273   1.051   7.001 -0.3984  0.2777 -0.1082
  343Sol     MW 4324   1.280   0.989   6.937  0.0799  0.9579 -0.2802
  344Sol     OW 4325   2.530   1.046   3.919 -0.1027  0.2938  0.7185
  344Sol     HW 4326   2.625   1.039   3.920 -0.0496  0.9843  1.8686
  344Sol     HW 4327   2.499   0.958   3.897  0.7804 -0.1834  1.3537
  344Sol     MW 4328   2.536   1.038   3.917 -0.0865  0.3433  0.2383
  345Sol     OW 4329   0.273   2.533   7.383 -0.7180  0.2964 -0.2560
  345Sol     HW 4330   0.284   2.588   7.460  0.5502 -0.1801 -0.0934
  345Sol     HW 4331   0.194   2.483   7.401  1.7911 -2.8147  2.5911
  345Sol     MW 4332   0.266   2.534   7.391  0.2735  0.5134 -0.5751
  346Sol     OW 4333   1.472   2.319   7.307 -0.3690 -0.6721 -0.5705
  346Sol     HW 4334   1.419   2.247   7.340 -2.4278  1.2911  0.5635
  346Sol     HW 4335   1.420   2.357   7.236 -2.1955  3.3035  2.6545
  346Sol     MW 4336   1.462   2.316   7.303  0.0402  0.2280 -0.2066
  347Sol     OW 4337   3.083   3.277   5.743 -0.3238 -0.0353  0.7081
  347Sol     HW 4338   3.105   3.259   5.835 -0.7990  0.1395  0.8563
  347Sol     HW 4339   3.005   3.224   5.726 -1.4177  1.4401  0.9903
  347Sol     MW 4340   3.078   3.270   5.750  0.1173 -0.1759  0.0652
  348Sol     OW 4341   0.570   1.145   4.056 -0.3817  0.3844 -0.1938
  348Sol     HW 4342   0.589   1.056   4.025 -0.9996  0.2320 -0.1419
  348Sol     HW 4343   0.534   1.133   4.144  0.4610  0.7572  0.2071
  348Sol     MW 4344   0.569   1.136   4.061  0.4243  0.2891 -0.0022
  349Sol     OW 4345   0.674   1.410   6.816 -0.1648 -0.0227 -0.2115
  349Sol     HW 4346   0.620   1.369   6.749  1.2613 -1.6158 -0.4154
  349Sol     HW 4347   0.719   1.337   6.859 -1.5866  0.8877  2.9674
  349Sol     MW 4348   0.674   1.400   6.814  0.0255  0.0753  0.4110
  350Sol     OW 4349   2.256   0.781   2.026 -0.4143  0.2580  1.0254
  350Sol     HW 4350   2.304   0.864   2.030 -0.5243  0.2986  1.4901
  350Sol     HW 4351   2.308   0.727   1.966 -1.0781  1.1382 -0.3859
  350Sol     MW 4352   2.265   0.784   2.021  0.1195 -0.0890  0.4706
  351Sol     OW 4353   2.624   1.115   3.012 -0.9618 -0.0901  0.3098
  351Sol     HW 4354   2.586   1.168   2.941 -0.1931  0.7506  0.5229
  351Sol     HW 4355   2.550   1.067   3.048 -1.4887  0.0472 -0.5767
  351Sol     MW 4356   2.614   1.116   3.008 -0.1446  0.0966  0.5004
  352Sol     OW 4357   0.971   0.804   6.146  0.2197 -0.6777  0.0829
  352Sol     HW 4358   0.942   0.713   6.152 -2.0977 -0.1764 -2.5673
  352Sol     HW 4359   0.925   0.839   6.070  1.3203  2.6316  0.8574
  352Sol     MW 4360   0.964   0.799   6.140  0.3054  0.4794  0.0839
  353Sol     OW 4361   0.231   3.070   2.940 -0.3918  0.2787 -0.2795
  353Sol     HW 4362   0.219   3.103   3.029  1.6138 -1.0676  0.5418
  353Sol     HW 4363   0.186   2.986   2.939  0.5731 -0.2560 -0.1387
  353Sol     MW 4364   0.226   3.065   2.948  0.3004 -0.8067 -0.0817
  354Sol     OW 4365   0.415   2.077   2.031  0.1927 -0.3321 -0.0259
  354Sol     HW 4366   0.437   2.110   2.118  1.3778 -1.3918  0.0910
  354Sol     HW 4367   0.320   2.086   2.024  0.3202  1.7334  0.5542
  354Sol     MW 4368   0.408   2.081   2.038 -0.4268  0.4450 -0.5763
  355Sol     OW 4369   2.593   3.123   8.143  0.2679  0.6799 -0.4553
  355Sol     HW 4370   2.633   3.080   8.067  0.6170  0.7372 -0.3053
  355Sol     HW 4371   2.500   3.126   8.122  0.2003 -0.3874 -0.3510
  355Sol     MW 4372   2.588   3.119   8.134 -0.2050 -0.3550 -0.5222
  356Sol     OW 4373   0.132   3.168   4.205 -0.4039  0.7646  0.5824
  356Sol     HW 4374   0.091   3.169   4.292  0.8682 -0.2567  1.2075
  356Sol     HW 4375   0.158   3.259   4.191  0.0058  0.8104  1.5778
  356Sol     MW 4376   0.130   3.177   4.212  0.0370 -0.6805  0.6903
  357Sol     OW 4377   0.172   3.335   8.234 -0.2845  0.4603 -0.1839
  357Sol     HW 4378   0.239   3.286   8.283 -0.1441  0.8051 -0.0252
  357Sol     HW 4379   0.197   3.324   8.142  0.5054  1.3167 -0.0862
  357Sol     MW 4380   0.181   3.329   8.230 -0.1068 -0.4775  1.1503
  358Sol     OW 4381   0.182   0.020   2.595 -0.5761 -0.1039 -0.4789
  358Sol     HW 4382   0.263   0.059   2.627 -0.3527  0.5450 -1.8110
  358Sol     HW 4383   0.120   0.092   2.592 -0.8927 -0.3773 -0.5014
  358Sol     MW 4384   0.184   0.030   2.598  0.4711 -0.1912  0.4352
  359Sol     OW 4385   0.666   2.448   3.948 -0.0767  0.3640 -0.6379
  359Sol     HW 4386   0.610   2.385   3.994  0.9268 -0.5227 -0.6242
  359Sol     HW 4387   0.686   2.514   4.015  1.2662 -0.8508  0.1774
  359Sol     MW 4388   0.662   2.448   3.958  0.0625 -0.6329 -0.3326
  360Sol     OW 4389   2.763   2.258   6.856 -0.8047  0.0702 -0.6679
  360Sol     HW 4390   2.808   2.176   6.876  1.2984  0.4303 -3.6330
  360Sol     HW 4391   2.691   2.232   6.799 -0.8453  0.1590 -0.6576
  360Sol     MW 4392   2.761   2.249   6.853  0.3874  0.2116 -0.2907
  361Sol     OW 4393   1.250   2.001   8.072 -0.6096 -0.5478 -0.4132
  361Sol     HW 4394   1.345   2.005   8.080 -0.5982  1.8226 -1.4302
  361Sol     HW 4395   1.221   2.091   8.083 -2.7584 -1.2638 -0.0175
  361Sol     MW 4396   1.256   2.009   8.074 -0.1265 -0.6936  0.4820
  362Sol     OW 4397   2.884   1.322   6.221 -0.1077 -0.4830  0.1840
  362Sol     HW 4398   2.979   1.310   6.224 -0.0760 -0.7797 -1.6440
  362Sol     HW 4399   2.861   1.308   6.129 -1.6662  1.4923  0.2498
  362Sol     MW 4400   2.891   1.319   6.213 -0.6735 -0.3511 -0.4441
  363Sol     OW 4401   1.269   1.216   7.075  0.6536  0.0152 -0.0817
  363Sol     HW 4402   1.180   1.221   7.109  1.2030 -0.8133  1.5281
  363Sol     HW 4403   1.284   1.302   7.035 -0.9041  0.1138 -0.4805
  363Sol     MW 4404   1.262   1.224   7.075  0.3961 -0.8525  0.1330
  364Sol     OW 4405   0.235   1.281   5.791 -0.1342 -0.1761 -0.0071
  364Sol     HW 4406   0.223   1.203   5.846 -0.8582  0.3759  0.6221
  364Sol     HW 4407   0.151   1.327   5.795  0.3003  0.6637 -0.3407
  364Sol     MW 4408   0.227   1.278   5.796  0.4493 -0.3231 -0.2367
  365Sol     OW 4409   1.242   2.955   3.686  0.1315 -0.2013 -0.0125
  365Sol     HW 4410   1.183   2.922   3.755  1.2300  1.4530  1.7566
  365Sol     HW 4411   1.247   2.883   3.624 -1.3538 -1.5360  1.3399
  365Sol     MW 4412   1.237   2.945   3.687  0.1491 -0.4564 -0.5574
  366Sol     OW 4413   1.204   2.923   2.005  0.7477 -0.4740  0.5286
  366Sol     HW 4414   1.257   2.844   2.020  0.7730 -0.6686 -0.5510
  366Sol     HW 4415   1.236   2.958   1.922  1.1959  1.0628  1.3393
  366Sol     MW 4416   1.211   2.919   1.999  0.2436 -0.4910  0.2205
  367Sol     OW 4417   2.877   1.350   7.715  0.1637 -0.7931 -0.3847
  367Sol     HW 4418   2.819   1.424   7.696  0.5439 -0.5071 -0.4473
  367Sol     HW 4419   2.860   1.287   7.645 -1.0690 -1.3130  0.3599
  367Sol     MW 4420   2.870   1.351   7.707  0.0836 -0.2495 -0.1923
  368Sol     OW 4421   1.445   0.269   5.688 -0.2208 -0.0165 -0.0937
  368Sol     HW 4422   1.518   0.258   5.749  0.4114  0.7796 -0.6992
  368Sol     HW 4423   1.450   0.360   5.661 -1.5181  0.0797 -0.0536
  368Sol     MW 4424   1.452   0.276   5.691 -0.0717  0.6158  0.3017
  369Sol     OW 4425   2.902   2.850   3.737 -0.2028  0.4251  0.7118
  369Sol     HW 4426   2.916   2.877   3.828 -1.6464  0.9300  0.7934
  369Sol     HW 4427   2.986   2.869   3.694  1.2117 -1.8157  2.3810
  369Sol     MW 4428   2.911   2.854   3.742 -0.0783  0.2788 -1.2523
  370Sol     OW 4429   0.390   2.131   7.753 -0.2950 -0.2719  0.5680
  370Sol     HW 4430   0.341   2.063   7.707  0.5112  0.2622 -1.1156
  370Sol     HW 4431   0.480   2.101   7.752 -0.4046 -0.6884  2.6370
  370Sol     MW 4432   0.393   2.122   7.748  0.1650  0.1444  0.1578
  371Sol     OW 4433   0.659   1.650   8.754  0.2607 -0.8273 -0.7372
  371Sol     HW 4434   0.696   1.607   8.832  0.1472 -0.7905 -0.6621
  371Sol     HW 4435   0.733   1.659   8.695  0.6297  0.3433 -0.1006
  371Sol     MW 4436   0.669   1.647   8.756 -0.7500 -0.1908 -0.0981
  372Sol     OW 4437   1.732   2.072   4.317 -0.1124  0.0879  0.0337
  372Sol     HW 4438   1.788   2.009   4.272 -0.6148 -0.1868 -0.2164
  372Sol     HW 4439   1.696   2.127   4.247 -1.0483 -0.4650  0.0700
  372Sol     MW 4440   1.734   2.071   4.306  0.3178  0.1236 -0.3237
  373Sol     OW 4441   0.907   1.169   6.610  0.0687  0.2603  0.1354
  373Sol     HW 4442   0.909   1.256   6.571  1.4314 -0.1442 -0.7156
  373Sol     HW 4443   0.906   1.185   6.705  0.2360  1.1857 -0.0186
  373Sol     MW 4444   0.907   1.178   6.615 -0.8381  0.7767  0.0881
  374Sol     OW 4445   1.262   0.828   9.505 -0.2624 -0.6383 -0.0078
  374Sol     HW 4446   1.356   0.824   9.524 -0.2166 -1.3541 -0.3649
  374Sol     HW 4447   1.230   0.741   9.528 -1.1169  0.0762  1.5548
  374Sol     MW 4448   1.268   0.820   9.509 -0.1599 -0.2045  0.1452
  375Sol     OW 4449   1.982   0.466   1.652 -0.2072  0.0080 -0.5303
  375Sol     HW 4450   1.905   0.457   1.595 -0.2020 -2.6442 -0.2105
  375Sol     HW 4451   2.056   0.457   1.592 -0.1836 -0.6206 -0.4093
  375Sol     MW 4452   1.982   0.464   1.641 -0.1977  0.0218 -0.0422
  376Sol     OW 4453   1.526   0.745   9.560  0.5566  0.4363  0.1368
  376Sol     HW 4454   1.585   0.692   9.506 -1.1267  0.1651 -1.4793
  376Sol     HW 4455   1.499   0.687   9.631 -0.6561 -0.6355 -1.1788
  376Sol     MW 4456   1.529   0.735   9.561 -0.3561 -0.0750  0.0955
  377Sol     OW 4457   1.053   2.413   2.095  0.3097  0.3591 -0.1218
  377Sol     HW 4458   0.986   2.346   2.102  1.2911 -0.7982 -1.4744
  377Sol     HW 4459   1.077   2.433   2.185 -2.4340  1.4239  0.4324
  377Sol     MW 4460   1.049   2.409   2.103  0.1406 -0.4159  0.0740
  378Sol     OW 4461   0.404   3.056   3.507 -0.0429  0.0735 -0.3476
  378Sol     HW 4462   0.408   3.150   3.522 -0.1735 -0.0917  0.7804
  378Sol     HW 4463   0.491   3.033   3.476 -0.0598  0.5900 -0.7892
  378Sol     MW 4464   0.412   3.062   3.506 -0.3393  0.2702  0.3807
  379Sol     OW 4465   1.394   2.507   3.884 -0.0733  0.2238  0.2936
  379Sol     HW 4466   1.480   2.492   3.845 -0.2954  1.3561 -0.6517
  379Sol     HW 4467   1.335   2.450   3.836  0.7026 -3.3668  3.3791
  379Sol     MW 4468   1.397   2.501   3.876 -0.1118  0.1999  0.8300
  380Sol     OW 4469   2.908   1.629   5.589  0.2095 -0.0244  0.0639
  380Sol     HW 4470   2.903   1.723   5.607  2.7218  0.4941 -1.6883
  380Sol     HW 4471   2.859   1.588   5.660  0.5726  2.4959  1.8286
  380Sol     MW 4472   2.903   1.634   5.597  0.8160 -0.0851  0.0179
  381Sol     OW 4473   1.342   3.350   2.401 -0.3313 -0.2354  0.4832
  381Sol     HW 4474   1.355   3.271   2.453  1.3597 -0.2084  0.1394
  381Sol     HW 4475   1.308   3.414   2.463 -1.3723 -1.1202  0.8412
  381Sol     MW 4476   1.341   3.349   2.412  0.8520  0.9857  0.0946
  382Sol     OW 4477   0.169   0.120   3.475  0.5722  0.2174  0.4556
  382Sol     HW 4478   0.085   0.155   3.446  0.4085  0.0580  0.7428
  382Sol     HW 4479   0.180   0.154   3.564  0.8753  0.3512  0.3684
  382Sol     MW 4480   0.163   0.127   3.480  1.0683 -0.1300  0.4566
  383Sol     OW 4481   1.384   1.667   9.665 -0.3722 -0.1543  0.2703
  383Sol     HW 4482   1.385   1.624   9.750  1.7434  0.8539  0.7918
  383Sol     HW 4483   1.383   1.761   9.686 -2.4528  0.0792 -0.8272
  383Sol     MW 4484   1.384   1.672   9.675 -0.5380 -0.3703 -0.1720
  384Sol     OW 4485   2.349   1.732   4.907 -0.6244  0.0983  0.3686
  384Sol     HW 4486   2.395   1.775   4.980  0.5978 -0.3176 -0.1526
  384Sol     HW 4487   2.291   1.800   4.873  0.8211  1.1642 -0.0241
  384Sol     MW 4488   2.348   1.742   4.911  0.5132 -0.0648  1.0332
  385Sol     OW 4489   0.207   2.154   9.408 -0.5375  0.5841  0.0296
  385Sol     HW 4490   0.144   2.117   9.345 -0.3403 -0.2486  0.3180
  385Sol     HW 4491   0.173   2.242   9.427 -2.6746 -0.5506  1.6481
  385Sol     MW 4492   0.198   2.159   9.404  0.2454  0.1261 -0.6579
  386Sol     OW 4493   0.681   2.197   8.797 -0.2327 -0.3526  0.5927
  386Sol     HW 4494   0.616   2.265   8.817 -0.3690 -0.5748  0.9098
  386Sol     HW 4495   0.632   2.115   8.801  0.1210 -0.5437  1.1041
  386Sol     MW 4496   0.671   2.196   8.799  0.1389 -0.1990  0.4439
  387Sol     OW 4497   2.288   1.201   2.722  0.7722 -0.4263  0.8569
  387Sol     HW 4498   2.258   1.110   2.722  0.3227 -0.2855 -0.1142
  387Sol     HW 4499   2.330   1.212   2.637 -1.7089  1.0848 -0.2221
  387Sol     MW 4500   2.289   1.194   2.714  0.1692 -0.1072  0.0836
  388Sol     OW 4501   1.046   2.956   2.799 -0.3756 -0.0618  0.0314
  388Sol     HW 4502   1.070   3.025   2.738  1.1832  0.8839  1.6636
  388Sol     HW 4503   1.084   2.876   2.763 -2.2233 -0.1178 -1.8868
  388Sol     MW 4504   1.051   2.955   2.791 -0.9033  0.3673 -0.4698
  389Sol     OW 4505   1.937   3.373   9.416 -0.0608 -0.0136  0.3105
  389Sol     HW 4506   1.946   3.290   9.368  1.1374  1.0440 -1.3892
  389Sol     HW 4507   2.027   3.394   9.444 -0.1676  1.2583 -0.2598
  389Sol     MW 4508   1.946   3.367   9.414 -0.4974 -0.3642 -0.3168
  390Sol     OW 4509   1.078   0.991   4.452 -0.3410 -0.1289 -0.0815
  390Sol     HW 4510   1.152   0.946   4.411 -1.7688 -1.9220 -0.7533
  390Sol     HW 4511   1.100   0.991   4.545  1.5473  1.3805 -0.4869
  390Sol     MW 4512   1.087   0.987   4.457 -0.3643  0.5111 -0.1454
  391Sol     OW 4513   0.223   1.968   3.463 -0.0884 -0.0714 -0.0513
  391Sol     HW 4514   0.144   2.009   3.496 -0.1637 -0.4118  0.1946
  391Sol     HW 4515   0.194   1.884   3.426  0.3640 -0.9002  1.4423
  391Sol     MW 4516   0.214   1.964   3.462  0.3047  0.4286 -0.2751
  392Sol     OW 4517   0.521   2.953   8.207 -0.2530 -0.4453 -0.5580
  392Sol     HW 4518   0.537   2.915   8.121 -0.2323  0.7587 -1.0934
  392Sol     HW 4519   0.427   2.973   8.207 -0.2544 -0.4542 -0.3000
  392Sol     MW 4520   0.514   2.951   8.199 -0.4530  0.8391  0.3822
  393Sol     OW 4521   2.653   1.643   4.520 -0.0165 -0.1196 -0.8215
  393Sol     HW 4522   2.680   1.704   4.451  0.7908 -0.5089 -0.8546
  393Sol     HW 4523   2.606   1.697   4.583  1.4889  0.7320 -0.3920
  393Sol     MW 4524   2.651   1.653   4.519 -0.5957 -0.6292  0.4974
  394Sol     OW 4525   0.750   0.933   9.372 -0.5094 -0.2719  0.0853
  394Sol     HW 4526   0.777   1.009   9.321  0.6024  0.2028  1.3354
  394Sol     HW 4527   0.657   0.947   9.389 -0.5715  0.2298 -0.6561
  394Sol     MW 4528   0.744   0.941   9.369  0.3136 -0.6992 -0.2734
  395Sol     OW 4529   0.281   1.575   3.244  0.2039 -0.2668 -0.2513
  395Sol     HW 4530   0.235   1.530   3.173  0.3191  0.9737 -1.1448
  395Sol     HW 4531   0.223   1.647   3.269  1.6730  1.4180 -1.5025
  395Sol     MW 4532   0.272   1.578   3.240 -0.1309 -0.3694  0.7275
  396Sol     OW 4533   0.062   0.836   2.490  0.1138  0.2906 -0.4058
  396Sol     HW 4534  -0.006   0.842   2.558 -0.4877  0.0702 -0.9819
  396Sol     HW 4535   0.144   0.836   2.539 -0.1879  2.8308  0.2032
  396Sol     MW 4536   0.063   0.837   2.501 -0.4555 -0.2250 -0.8844
  397Sol     OW 4537   2.077   0.498   3.187 -0.1798  0.1753  0.2927
  397Sol     HW 4538   2.041   0.410   3.199 -0.1191 -0.2331 -2.2571
  397Sol     HW 4539   2.166   0.484   3.155 -0.9594  1.1057 -2.4427
  397Sol     MW 4540   2.081   0.489   3.186 -0.1084 -0.5993 -0.9174
  398Sol     OW 4541   1.141   1.485   4.861  0.1980 -0.3045  0.0184
  398Sol     HW 4542   1.087   1.542   4.807 -1.5741 -1.5184  0.4493
  398Sol     HW 4543   1.139   1.525   4.948 -0.3464 -0.5589  0.1245
  398Sol     MW 4544   1.136   1.494   4.864 -0.3659  0.4806 -1.3451
  399Sol     OW 4545   1.957   1.442   4.446 -0.1859 -0.2598 -0.2508
  399Sol     HW 4546   1.944   1.527   4.488 -0.0832 -0.3664 -0.0025
  399Sol     HW 4547   2.052   1.431   4.442 -0.1356  0.6261 -2.2781
  399Sol     MW 4548   1.965   1.449   4.449 -0.2032 -0.3402 -0.0878
  400Sol     OW 4549   0.896   2.233   3.085  0.3477  0.0162  0.0490
  400Sol     HW 4550   0.812   2.277   3.073  0.5633  0.4213  0.0105
  400Sol     HW 4551   0.927   2.264   3.170  0.3476 -0.3131  0.1675
  400Sol     MW 4552   0.892   2.240   3.091  0.6764  0.0199 -0.3268
  401Sol     OW 4553   2.131   1.956   6.368  0.1795  0.3669  0.4676
  401Sol     HW 4554   2.090   2.037   6.400 -0.3639  0.2198  0.1474
  401Sol     HW 4555   2.127   1.963   6.273 -0.6429 -0.4274  0.4393
  401Sol     MW 4556   2.127   1.964   6.362  0.6946 -0.5766 -0.5640
  402Sol     OW 4557   1.432   1.910   1.841 -0.4022 -0.1289  0.7969
  402Sol     HW 4558   1.505   1.884   1.784 -1.1653 -0.3348 -0.0931
  402Sol     HW 4559   1.422   1.837   1.901  0.3602  0.0564  1.1604
  402Sol     MW 4560   1.438   1.901   1.841  0.3011 -0.2878 -0.7088
  403Sol     OW 4561   1.460   1.926   6.161  0.0274  0.4066 -0.4864
  403Sol     HW 4562   1.499   1.844   6.131 -2.3715 -0.9339 -0.0795
  403Sol     HW 4563   1.431   1.969   6.080  0.8669  0.6354 -0.6678
  403Sol     MW 4564   1.461   1.922   6.151  0.2918 -0.0372 -0.9187
  404Sol     OW 4565   1.389   3.075   4.923  0.0773  0.3138 -0.0986
  404Sol     HW 4566   1.303   3.034   4.930  0.1261  0.3288  0.6127
  404Sol     HW 4567   1.382   3.131   4.846 -0.4910  0.1641 -0.1599
  404Sol     MW 4568   1.381   3.076   4.917 -0.4090 -0.5210  0.9456
  405Sol     OW 4569   1.363   2.018   7.142  0.0002  0.1351 -0.6136
  405Sol     HW 4570   1.324   2.024   7.055 -0.2073 -0.3042 -0.5555
  405Sol     HW 4571   1.363   1.924   7.162 -1.9187  0.4091  0.7513
  405Sol     MW 4572   1.360   2.010   7.136  1.0161 -0.6414  0.5617
  406Sol     OW 4573   0.271   1.891   6.802  0.1580  0.3043  0.0023
  406Sol     HW 4574   0.347   1.948   6.809  0.8301 -0.6027  0.2246
  406Sol     HW 4575   0.227   1.918   6.722 -0.7883  2.6316  1.2581
  406Sol     MW 4576   0.274   1.898   6.795 -0.3459 -0.1380 -0.2745
  407Sol     OW 4577   1.092   1.339   5.680 -0.7143 -0.0679  0.0590
  407Sol     HW 4578   1.007   1.362   5.717 -0.5686  0.3070  0.1636
  407Sol     HW 4579   1.117   1.259   5.726 -0.9448 -0.0997  0.1292
  407Sol     MW 4580   1.086   1.334   5.688 -0.2079 -0.6541 -0.9280
  408Sol     OW 4581   2.099   2.888   7.061  0.0324 -0.5917 -0.1731
  408Sol     HW 4582   2.177   2.866   7.112  0.2758 -0.7040 -0.5905
  408Sol     HW 4583   2.132   2.914   6.975 -0.4482 -1.7843 -0.7367
  408Sol     MW 4584   2.109   2.888   7.058 -0.6317 -0.3751  0.2222
  409Sol     OW 4585   0.186   1.200   4.744  0.4779 -0.0335 -0.0596
  409Sol     HW 4586   0.133   1.248   4.808  0.5197 -2.2205  1.6826
  409Sol     HW 4587   0.128   1.130   4.712  1.0242 -0.0139 -1.1259
  409Sol     MW 4588   0.176   1.198   4.747  1.0531  0.1437  0.4506
  410Sol     OW 4589   0.887   1.549   8.215  0.5922 -0.5447  0.2774
  410Sol     HW 4590   0.810   1.603   8.197  1.4812  0.4246 -0.7537
  410Sol     HW 4591   0.864   1.498   8.292 -1.4227 -0.9515 -0.5736
  410Sol     MW 4592   0.878   1.549   8.220  0.0844 -0.5799  0.4985
  411Sol     OW 4593   0.383   3.414   5.784  0.4941  0.3004 -0.2148
  411Sol     HW 4594   0.343   3.500   5.765  0.6435  0.0840 -1.5368
  411Sol     HW 4595   0.449   3.403   5.716  0.4366 -0.8929 -0.0805
  411Sol     MW 4596   0.385   3.421   5.776 -0.5883 -0.0854 -0.5216
  412Sol     OW 4597   0.272   3.402   4.199 -0.1519 -0.1632 -0.4691
  412Sol     HW 4598   0.213   3.474   4.223  0.8089  0.0799  1.2404
  412Sol     HW 4599   0.298   3.364   4.283 -0.0371 -2.0109 -1.3329
  412Sol     MW 4600   0.269   3.405   4.209 -0.3943  0.6182 -0.1784
  413Sol     OW 4601   1.055   0.983   2.784 -0.4715  0.6309 -0.1188
  413Sol     HW 4602   1.042   1.004   2.876  1.6498  1.2698  0.0412
  413Sol     HW 4603   1.106   1.056   2.749  2.1936 -1.5173 -0.8558
  413Sol     MW 4604   1.058   0.992   2.789  0.6603  0.1523  0.2513
  414Sol     OW 4605   1.532   3.425   9.442 -0.0063 -0.1995  0.0576
  414Sol     HW 4606   1.453   3.478   9.454 -0.6242 -1.1052  0.0186
  414Sol     HW 4607   1.545   3.422   9.348  0.0494 -0.0829  0.0614
  414Sol     MW 4608   1.526   3.429   9.435  0.4650 -0.5601  0.3798
  415Sol     OW 4609   0.602   2.648   5.010 -0.2677 -0.7009 -0.3774
  415Sol     HW 4610   0.590   2.560   4.974  1.2236 -1.3091  0.5912
  415Sol     HW 4611   0.533   2.700   4.968  0.1080 -1.8690 -2.5012
  415Sol     MW 4612   0.594   2.645   5.003  0.5321 -0.1114  0.0697
  416Sol     OW 4613   1.897   2.726   6.964  0.4960 -0.0026 -0.5400
  416Sol     HW 4614   1.884   2.664   7.035 -0.5893  0.8901  0.0537
  416Sol     HW 4615   1.963   2.787   6.996 -0.0454  0.4423 -0.2638
  416Sol     MW 4616   1.902   2.726   6.973 -0.2679  0.0242  0.0252
  417Sol     OW 4617   1.537   2.863   1.944  0.1385 -0.1083  0.2141
  417Sol     HW 4618   1.604   2.797   1.924 -0.5699 -0.5394 -0.7471
  417Sol     HW 4619   1.478   2.820   2.005  0.4531  0.1117  0.6809
  417Sol     MW 4620   1.538   2.853   1.947  0.5109 -0.2617  0.4315
  418Sol     OW 4621   3.298   0.092   9.376  0.1441 -0.6940 -0.4768
  418Sol     HW 4622   3.223   0.151   9.380  0.2470 -0.6095  0.2234
  418Sol     HW 4623   3.373   0.150   9.363  0.2769 -0.6394  0.4770
  418Sol     MW 4624   3.298   0.103   9.375 -0.3081  0.4455 -0.2069
  419Sol     OW 4625   0.017   1.188   7.820  0.4876  0.4834  0.1864
  419Sol     HW 4626  -0.001   1.274   7.782  0.1217 -0.0393 -0.8201
  419Sol     HW 4627  -0.057   1.173   7.880  0.5533  0.8686  0.3654
  419Sol     MW 4628   0.008   1.194   7.822  0.3965  1.2496  0.0512
  420Sol     OW 4629   1.694   2.599   4.818 -0.4265  0.4221  0.3350
  420Sol     HW 4630   1.789   2.601   4.827 -0.4289  0.0098  0.4735
  420Sol     HW 4631   1.667   2.523   4.871 -0.8434  0.6360  0.4246
  420Sol     MW 4632   1.700   2.592   4.824  0.3574 -0.0107  0.5914
  421Sol     OW 4633   2.775   2.913   6.043  0.5856 -0.3830 -0.7192
  421Sol     HW 4634   2.718   2.845   6.079  0.5471 -1.6672 -3.1745
  421Sol     HW 4635   2.858   2.869   6.028  1.3155  0.7354 -0.0230
  421Sol     MW 4636   2.777   2.903   6.045 -0.2500 -0.3578 -0.3542
  422Sol     OW 4637   1.344   0.461   9.545  0.1722  0.0972  0.6127
  422Sol     HW 4638   1.342   0.525   9.616 -1.6255  2.9846 -1.9442
  422Sol     HW 4639   1.428   0.476   9.501  0.7457 -0.8712  1.3484
  422Sol     MW 4640   1.351   0.468   9.547  0.0029 -0.5337  0.1591
  423Sol     OW 4641   2.483   0.702   7.016 -0.2237  0.3940 -0.0267
  423Sol     HW 4642   2.389   0.689   7.006 -0.3761  0.5147  1.2072
  423Sol     HW 4643   2.505   0.658   7.098  1.3771 -2.3878 -1.8547
  423Sol     MW 4644   2.477   0.697   7.023 -0.3545 -0.5322  0.1264
  424Sol     OW 4645   3.073   3.444   2.200 -0.5002  0.1070  0.1464
  424Sol     HW 4646   2.985   3.421   2.232 -0.3356 -2.5555 -1.1362
  424Sol     HW 4647   3.061   3.460   2.107  0.2994  0.2215  0.0595
  424Sol     MW 4648   3.064   3.443   2.195  0.4089  0.1025  0.0931
  425Sol     OW 4649   1.965   2.043   6.835  0.0030  0.2195 -0.5197
  425Sol     HW 4650   1.964   2.135   6.863 -0.9681  0.9628 -2.8274
  425Sol     HW 4651   2.038   2.038   6.773 -0.5884 -0.3158 -1.1716
  425Sol     MW 4652   1.971   2.051   6.832 -0.0921  0.0314  0.4658
  426Sol     OW 4653   2.427   1.819   8.050  0.4563  0.4275  0.4361
  426Sol     HW 4654   2.469   1.774   8.124 -0.6516 -1.3134  0.0383
  426Sol     HW 4655   2.485   1.800   7.976 -0.4824 -1.1775  0.0815
  426Sol     MW 4656   2.436   1.813   8.050 -0.1926  0.4597 -0.0113
  427Sol     OW 4657   1.443   2.381   2.865 -0.3793 -0.0377 -0.3895
  427Sol     HW 4658   1.509   2.450   2.861  0.7405 -1.0773 -0.2128
  427Sol     HW 4659   1.400   2.394   2.949  0.0988  0.2093 -0.1818
  427Sol     MW 4660   1.445   2.388   2.872  0.0488  0.7593  0.3670
  428Sol     OW 4661   2.333   0.678   8.585 -0.7701 -0.1356 -0.0656
  428Sol     HW 4662   2.367   0.670   8.495 -0.0149  1.4665  0.0609
  428Sol     HW 4663   2.318   0.771   8.596 -0.8053 -0.3245  1.5136
  428Sol     MW 4664   2.334   0.685   8.578 -0.2281 -0.0388 -0.5150
  429Sol     OW 4665   1.324   3.394   1.933 -0.0324  0.3246  0.0489
  429Sol     HW 4666   1.320   3.313   1.984 -3.0929  1.0262  1.0635
  429Sol     HW 4667   1.381   3.451   1.984 -0.0210 -0.2956  0.7486
  429Sol     MW 4668   1.328   3.392   1.942  0.5856 -0.3071 -0.4965
  430Sol     OW 4669   0.148   0.375   7.234  0.3233 -0.1281 -0.1795
  430Sol     HW 4670   0.150   0.451   7.175 -1.8844 -0.2325 -0.4110
  430Sol     HW 4671   0.122   0.411   7.318 -0.6731 -0.6268 -0.2759
  430Sol     MW 4672   0.146   0.385   7.236  0.1222  0.5820  0.3496
  431Sol     OW 4673   1.873   0.948   5.195 -0.4657  0.5530 -0.2468
  431Sol     HW 4674   1.946   1.002   5.165 -0.8491  0.7508 -0.8526
  431Sol     HW 4675   1.898   0.859   5.172 -1.0592  0.7725 -1.8306
  431Sol     MW 4676   1.882   0.945   5.190 -0.1761 -0.3222 -0.6116
  432Sol     OW 4677   3.097   2.994   8.466  0.3892  0.1737 -0.1019
  432Sol     HW 4678   3.089   3.022   8.375  0.4593  1.6547  0.3480
  432Sol     HW 4679   3.179   3.031   8.496 -0.5730  1.3511  1.1417
  432Sol     MW 4680   3.103   2.999   8.460  0.2544  0.2742 -0.5269
  433Sol     OW 4681   1.759   1.187   7.313 -0.3384 -0.5452  0.4218
  433Sol     HW 4682   1.792   1.273   7.340  0.9755 -0.7228 -0.5179
  433Sol     HW 4683   1.670   1.203   7.284  0.4660  0.8573 -1.4097
  433Sol     MW 4684   1.754   1.196   7.313 -0.3391 -0.1087  0.7763
  434Sol     OW 4685   1.954   3.040   1.749  0.3158  0.0605  0.4878
  434Sol     HW 4686   1.979   3.029   1.840  0.4429 -3.2493  0.1291
  434Sol     HW 4687   2.026   3.089   1.709  2.0012 -1.6435  1.3868
  434Sol     MW 4688   1.962   3.043   1.753  0.2600  0.4158 -0.7335
  435Sol     OW 4689   2.273   0.066   8.469  0.6505 -0.6164  0.4268
  435Sol     HW 4690   2.295   0.142   8.522  1.1055  0.5128 -1.3393
  435Sol     HW 4691   2.211   0.100   8.404  0.2073 -1.9384  0.1467
  435Sol     MW 4692   2.269   0.076   8.468 -0.3957 -0.3979 -0.9158
  436Sol     OW 4693   3.315   2.949  10.007 -0.6163 -0.0558  0.7566
  436Sol     HW 4694   3.377   2.891   9.963 -0.7756  0.2531  0.1133
  436Sol     HW 4695   3.233   2.936   9.959 -0.3133  1.7234 -0.2821
  436Sol     MW 4696   3.313   2.942   9.998  0.8585 -0.7196 -0.8200
  437Sol     OW 4697   1.456   2.747   7.871  0.0352  0.2588 -0.4052
  437Sol     HW 4698   1.445   2.719   7.962 -1.4579  1.3399 -0.2334
  437Sol     HW 4699   1.491   2.835   7.878  0.1451  0.2505 -0.8803
  437Sol     MW 4700   1.458   2.752   7.880  0.1314  0.8702 -0.0190
  438Sol     OW 4701   1.879   2.127   5.592  0.2458  0.0409  0.4633
  438Sol     HW 4702   1.807   2.135   5.529 -1.0813  2.4446  2.2166
  438Sol     HW 4703   1.899   2.033   5.594 -2.7017 -0.6484 -0.2017
  438Sol     MW 4704   1.874   2.119   5.586 -0.6125  0.8269 -0.7497
  439Sol     OW 4705   0.807   1.319   9.838  0.1234 -0.1152  0.5287
  439Sol     HW 4706   0.864   1.262   9.889  0.1887 -0.2982  0.2532
  439Sol     HW 4707   0.857   1.400   9.827 -0.3659  0.3665  1.7685
  439Sol     MW 4708   0.817   1.321   9.841  0.2860 -0.3628 -0.8050
  440Sol     OW 4709   0.828   1.976   4.760 -0.0364 -0.3247  1.0348
  440Sol     HW 4710   0.879   1.971   4.679  1.1213  0.5004  1.6947
  440Sol     HW 4711   0.883   1.931   4.825 -0.9238 -0.9215  1.3851
  440Sol     MW 4712   0.838   1.971   4.759  0.1392  0.3716 -0.2091
  441Sol     OW 4713   2.316   3.348   7.137 -0.4866 -0.5168  0.6989
  441Sol     HW 4714   2.361   3.377   7.057 -1.3411 -0.1751  0.3278
  441Sol     HW 4715   2.226   3.333   7.109 -1.2689  1.5113  2.0106
  441Sol     MW 4716   2.312   3.350   7.127 -0.6090 -0.6653  0.1594
  442Sol     OW 4717   1.963   0.680   5.230  0.0739 -0.2362 -0.0346
  442Sol     HW 4718   1.981   0.692   5.323  1.3798  0.5971 -0.3742
  442Sol     HW 4719   1.878   0.637   5.227 -0.4619  0.6862  1.5157
  442Sol     MW 4720   1.957   0.677   5.238 -0.2485 -0.5290  0.1430
  443Sol     OW 4721   2.425   1.646   4.041 -0.2450 -0.4282  0.4017
  443Sol     HW 4722   2.419   1.709   4.113 -1.6168 -0.9530  0.7635
  443Sol     HW 4723   2.493   1.682   3.983 -1.4140  1.6795  0.3017
  443Sol     MW 4724   2.431   1.655   4.042 -0.1197 -0.8991 -0.5091
  444Sol     OW 4725   3.291   1.446   5.429  0.3277  0.2156 -0.1974
  444Sol     HW 4726   3.343   1.527   5.420  1.7153 -0.4719  1.3583
  444Sol     HW 4727   3.353   1.382   5.464 -1.4902 -0.7341  1.3426
  444Sol     MW 4728   3.302   1.448   5.431  0.2346 -0.3654 -1.0363
  445Sol     OW 4729   2.820   0.239   5.271  0.8277  0.0463  0.6195
  445Sol     HW 4730   2.820   0.305   5.202 -0.3128 -0.5436  0.0301
  445Sol     HW 4731   2.756   0.270   5.335 -0.3835 -0.9186 -0.1012
  445Sol     MW 4732   2.814   0.247   5.271  0.0049  0.0432  0.4011
  446Sol     OW 4733   0.047   0.248   1.615  0.7636 -0.3337  1.0136
  446Sol     HW 4734   0.119   0.268   1.675  0.7429  0.1257  0.8860
  446Sol     HW 4735   0.086   0.251   1.528  1.1988 -2.7502  1.0806
  446Sol     MW 4736   0.057   0.250   1.613 -0.2411  0.4085 -1.0757
  447Sol     OW 4737   2.369   1.612   6.044  0.0991  0.1967 -0.6905
  447Sol     HW 4738   2.383   1.614   6.139 -0.2647  0.4177 -0.6400
  447Sol     HW 4739   2.347   1.702   6.021 -0.2634  0.0536 -0.9143
  447Sol     MW 4740   2.368   1.620   6.051 -0.3659 -0.5759 -0.2532
  448Sol     OW 4741   3.047   0.655   4.144 -0.1086  0.0966  0.1575
  448Sol     HW 4742   3.014   0.565   4.135 -1.2862  0.4826  0.5583
  448Sol     HW 4743   3.014   0.700   4.066 -2.0809  0.9474  1.4623
  448Sol     MW 4744   3.041   0.651   4.136 -0.1633  0.2596 -0.3487
  449Sol     OW 4745   3.082   2.429   7.561 -0.1911  0.1388  0.1318
  449Sol     HW 4746   3.034   2.347   7.577  2.3410 -1.2647  0.8458
  449Sol     HW 4747   3.136   2.411   7.485  1.4716  0.6295  1.1576
  449Sol     MW 4748   3.082   2.420   7.556 -0.3981  0.0583  0.0373
  450Sol     OW 4749   2.968   2.724   5.505  0.0954  0.2184 -0.1434
  450Sol     HW 4750   3.054   2.691   5.481 -0.4228 -0.6278 -0.8721
  450Sol     HW 4751   2.985   2.791   5.571  1.4030  1.1329 -1.4032
  450Sol     MW 4752   2.977   2.727   5.509 -0.3083  0.5134  0.2980
  451Sol     OW 4753   1.791   1.397   3.248  0.4094  0.7330  0.5024
  451Sol     HW 4754   1.834   1.448   3.179 -0.5108 -2.8070 -2.8782
  451Sol     HW 4755   1.857   1.332   3.275 -0.7454 -0.8529 -0.4020
  451Sol     MW 4756   1.801   1.396   3.244 -0.1380  0.3186 -0.2254
  452Sol     OW 4757   0.670   3.269   3.157  0.3879  0.0395  0.0176
  452Sol     HW 4758   0.684   3.216   3.078  0.3944  2.0328 -1.3699
  452Sol     HW 4759   0.746   3.327   3.160  0.6585 -0.3858  1.8247
  452Sol     MW 4760   0.678   3.269   3.150  0.0927  0.1108 -0.1521
  453Sol     OW 4761   3.094   2.669   9.471  0.0607 -0.3082  0.0915
  453Sol     HW 4762   3.110   2.587   9.424 -1.8524 -1.7341  1.8420
  453Sol     HW 4763   3.179   2.692   9.508  0.6641 -1.4043 -0.5755
  453Sol     MW 4764   3.103   2.664   9.470  0.5203 -0.5469  0.6345
  454Sol     OW 4765   0.429   1.541   2.850  0.4223 -0.2392  0.2070
  454Sol     HW 4766   0.363   1.607   2.830  1.8816  0.5990 -1.9884
  454Sol     HW 4767   0.491   1.586   2.907 -0.1246 -0.6000  1.0955
  454Sol     MW 4768   0.428   1.551   2.853  0.0590 -0.7295  0.1433
  455Sol     OW 4769   2.545   0.609   7.275 -0.0895  0.4096 -0.0376
  455Sol     HW 4770   2.560   0.516   7.255 -0.3498  0.5825 -1.0470
  455Sol     HW 4771   2.452   0.613   7.297  0.2107  0.2080  1.3046
  455Sol     MW 4772   2.538   0.601   7.275 -0.1037  0.1515 -0.2150
  456Sol     OW 4773   1.751   0.391   5.045  0.2283 -0.5610 -0.2772
  456Sol     HW 4774   1.727   0.441   5.123  0.0398 -0.0489 -0.6622
  456Sol     HW 4775   1.722   0.445   4.972  0.6660 -0.9048 -0.7090
  456Sol     MW 4776   1.747   0.401   5.046  0.4044  0.4735  0.1692
  457Sol     OW 4777   0.110   0.519   7.448  0.2007 -0.1767 -0.3417
  457Sol     HW 4778   0.021   0.522   7.482 -0.1608  2.2639 -1.4435
  457Sol     HW 4779   0.135   0.610   7.434  3.3064 -0.7274  0.9829
  457Sol     MW 4780   0.105   0.527   7.450  0.5426 -0.1077  0.3348
  458Sol     OW 4781   2.265   1.474   4.493 -0.6563 -0.2630 -0.0835
  458Sol     HW 4782   2.271   1.564   4.461  0.3258  0.8808  3.0778
  458Sol     HW 4783   2.355   1.442   4.493 -0.7203 -0.4710  0.7992
  458Sol     MW 4784   2.273   1.479   4.491  0.3679  0.0283 -0.3312
  459Sol     OW 4785   2.314   1.746   5.606 -0.1596 -0.1555  0.4013
  459Sol     HW 4786   2.317   1.702   5.521  0.5707  1.3487 -0.3745
  459Sol     HW 4787   2.390   1.711   5.653  0.0310 -0.2354  0.0417
  459Sol     MW 4788   2.321   1.739   5.602 -0.2378  0.4108  0.1344
  460Sol     OW 4789   2.892   3.188   3.958 -0.2881 -0.2330 -0.0923
  460Sol     HW 4790   2.890   3.093   3.965  1.5978 -0.3667 -1.1094
  460Sol     HW 4791   2.969   3.207   3.905  0.3661  1.9514  1.5411
  460Sol     MW 4792   2.899   3.181   3.954 -0.3419  0.2230  1.1003
  461Sol     OW 4793   1.091   1.648   7.195 -0.8147  0.5606  0.0055
  461Sol     HW 4794   1.016   1.707   7.205 -0.9958  0.1836  0.9299
  461Sol     HW 4795   1.077   1.581   7.261 -0.4757 -0.3850 -0.8775
  461Sol     MW 4796   1.083   1.648   7.202 -0.4811 -0.4729 -0.6423
  462Sol     OW 4797   0.321   0.125   3.725 -0.2124 -0.3378 -0.5752
  462Sol     HW 4798   0.337   0.070   3.801 -0.0861  0.4987  0.0104
  462Sol     HW 4799   0.373   0.204   3.741 -0.4434 -0.0172 -1.3718
  462Sol     MW 4800   0.327   0.127   3.733  0.0798  0.4926 -0.0047
  463Sol     OW 4801   0.984   1.413   7.753  0.2390 -0.2019 -0.3398
  463Sol     HW 4802   1.028   1.482   7.704 -0.0461  1.0153  1.1018
  463Sol     HW 4803   1.004   1.432   7.845  0.0175 -1.9372  0.0854
  463Sol     MW 4804   0.990   1.421   7.757  0.0225 -0.3120 -0.2242
  464Sol     OW 4805   0.351   3.241   4.837 -0.2640  0.1102 -0.2400
  464Sol     HW 4806   0.437   3.247   4.795 -0.4773  0.5111 -0.6168
  464Sol     HW 4807   0.308   3.168   4.792 -1.0613  1.4796 -1.7629
  464Sol     MW 4808   0.355   3.235   4.829 -0.1457 -0.1717 -0.1953
  465Sol     OW 4809   0.807   2.923   6.475  0.2127 -0.6359  0.2948
  465Sol     HW 4810   0.766   2.904   6.391 -2.6228  0.8418  1.2741
  465Sol     HW 4811   0.874   2.988   6.456 -0.0139 -0.7631 -0.9213
  465Sol     MW 4812   0.809   2.927   6.466 -0.1076 -0.0739 -0.0583
  466Sol     OW 4813   2.644   0.167   2.559  0.4612  0.1187  0.0237
  466Sol     HW 4814   2.614   0.091   2.509  1.3994  0.2397 -0.7425
  466Sol     HW 4815   2.599   0.241   2.519  0.3208  0.0873  0.1208
  466Sol     MW 4816   2.637   0.167   2.551  0.0097 -0.8069 -0.0615
  467Sol     OW 4817   3.273   1.541   8.586 -0.0518  0.4281  0.2047
  467Sol     HW 4818   3.196   1.581   8.546  0.1892 -0.6171 -1.3576
  467Sol     HW 4819   3.321   1.614   8.625 -0.7357  1.3672 -0.6965
  467Sol     MW 4820   3.271   1.551   8.586  0.9939 -0.0197 -0.0718
  468Sol     OW 4821   2.372   0.602   8.319  0.7731 -0.0055  0.0112
  468Sol     HW 4822   2.277   0.591   8.313  0.5366  0.8755  1.9227
  468Sol     HW 4823   2.395   0.650   8.240  0.0690 -2.7353 -1.9496
  468Sol     MW 4824   2.365   0.605   8.311 -0.0156  0.7141  0.7701
  469Sol     OW 4825   0.283   1.357   8.683  0.5102 -0.1250 -0.3435
  469Sol     HW 4826   0.260   1.307   8.761  1.8318 -0.1325  0.0608
  469Sol     HW 4827   0.231   1.438   8.691  1.4036  0.3414  1.1049
  469Sol     MW 4828   0.276   1.360   8.691 -0.5043 -0.3766 -0.0836
  470Sol     OW 4829   1.018   0.296   9.011 -0.0388 -0.2168 -0.2403
  470Sol     HW 4830   0.965   0.227   9.052  0.1206 -0.9304 -1.2145
  470Sol     HW 4831   0.955   0.356   8.972 -0.1550 -1.1257 -1.4981
  470Sol     MW 4832   1.008   0.295   9.011  0.9547 -0.2915 -0.3632
  471Sol     OW 4833   2.698   2.394   9.075  0.2280  0.0138 -0.3949
  471Sol     HW 4834   2.686   2.299   9.071  1.9549 -0.2749  0.7330
  471Sol     HW 4835   2.623   2.426   9.125  0.3889 -0.9259  0.4540
  471Sol     MW 4836   2.690   2.389   9.079  0.3767 -0.0187  0.0173
  472Sol     OW 4837   1.301   0.232   6.885  0.3112  0.2027  0.0211
  472Sol     HW 4838   1.329   0.286   6.959  0.1134 -1.3410  1.2310
  472Sol     HW 4839   1.378   0.178   6.865 -0.8161 -1.9874  1.4771
  472Sol     MW 4840   1.311   0.232   6.889  0.5047  0.2414  0.3479
  473Sol     OW 4841   3.133   3.348   5.481 -0.0248  0.2430  0.2573
  473Sol     HW 4842   3.084   3.427   5.459  1.1256  1.6225  2.5081
  473Sol     HW 4843   3.105   3.325   5.569 -0.4578 -1.9789 -0.4194
  473Sol     MW 4844   3.126   3.353   5.487 -0.1850  0.1268  0.0455
  474Sol     OW 4845   2.866   0.501   7.469 -0.1460 -0.1467 -0.2336
  474Sol     HW 4846   2.959   0.487   7.488 -0.6783 -2.0770  1.0523
  474Sol     HW 4847   2.834   0.551   7.544 -0.7546 -1.9511  0.7370
  474Sol     MW 4848   2.871   0.504   7.478 -0.1537 -0.4682  0.1225
  475Sol     OW 4849   0.727   2.466   6.853  0.3271 -0.0935 -0.3687
  475Sol     HW 4850   0.664   2.399   6.883  1.2094 -0.8271 -0.1326
  475Sol     HW 4851   0.672   2.541   6.829 -0.4099  0.9007  3.9935
  475Sol     MW 4852   0.716   2.467   6.854 -0.0507 -0.0770 -0.6313
  476Sol     OW 4853   2.966   3.143   9.308 -0.1272 -0.2242 -0.0947
  476Sol     HW 4854   2.951   3.058   9.348 -0.7757 -0.7019 -1.3308
  476Sol     HW 4855   3.053   3.169   9.339 -0.1105 -1.1195  0.6392
  476Sol     MW 4856   2.973   3.138   9.315  0.4527  0.0418  0.2754
  477Sol     OW 4857   0.472   1.899   3.566  0.2249  0.1120 -0.3191
  477Sol     HW 4858   0.492   1.819   3.517  0.5616  1.4844 -2.5239
  477Sol     HW 4859   0.391   1.932   3.526 -0.8561 -0.0152  1.7170
  477Sol     MW 4860   0.466   1.895   3.558  0.4401  0.0074 -0.5055
  478Sol     OW 4861   0.754   1.799   6.341  0.2195  0.4067  0.4039
  478Sol     HW 4862   0.728   1.709   6.362 -0.0366  0.5248  0.5848
  478Sol     HW 4863   0.850   1.795   6.336  0.2930  0.3935  1.6612
  478Sol     MW 4864   0.760   1.791   6.343 -0.3248  0.5422 -0.0686
  479Sol     OW 4865   1.174   3.412   9.676 -0.2130 -0.0240 -0.9234
  479Sol     HW 4866   1.242   3.347   9.695 -0.1995 -0.0069 -0.9130
  479Sol     HW 4867   1.218   3.475   9.619 -0.7046 -0.9552 -2.3768
  479Sol     MW 4868   1.184   3.411   9.672 -0.3651 -0.0270 -0.5333
  480Sol     OW 4869   2.461   3.117   7.750  0.3028 -0.3688  0.6588
  480Sol     HW 4870   2.461   3.103   7.655 -0.9998  1.6378  0.3205
  480Sol     HW 4871   2.407   3.046   7.784 -1.3781  0.3489 -0.3976
  480Sol     MW 4872   2.456   3.109   7.744 -0.5483  0.2112 -0.1916
  481Sol     OW 4873   1.298   1.588   6.699 -0.4426 -0.3147  0.2824
  481Sol     HW 4874   1.359   1.616   6.631 -0.1678 -1.0002  0.2374
  481Sol     HW 4875   1.237   1.661   6.709  1.4062  1.1018  1.5317
  481Sol     MW 4876   1.298   1.597   6.694 -0.3394 -0.4626 -0.2610
  482Sol     OW 4877   1.929   2.238   3.274  0.0095  0.1236 -0.4292
  482Sol     HW 4878   2.006   2.182   3.282  0.8837  1.3496 -0.0877
  482Sol     HW 4879   1.904   2.257   3.365 -0.4493  0.0731 -0.5431
  482Sol     MW 4880   1.933   2.235   3.283 -0.4791  0.3440  0.0441
  483Sol     OW 4881   2.098   0.012   3.527  0.2552 -0.2151 -0.3887
  483Sol     HW 4882   2.051   0.084   3.485 -1.5335 -0.1782  1.5724
  483Sol     HW 4883   2.047  -0.066   3.504 -0.2400 -0.3009  0.9777
  483Sol     MW 4884   2.089   0.011   3.521  0.8544  0.5403 -0.1355
  484Sol     OW 4885   1.578   1.685   6.109 -0.0489 -0.6271  0.4449
  484Sol     HW 4886   1.619   1.650   6.030  1.2770  0.5398  0.5738
  484Sol     HW 4887   1.649   1.687   6.173 -0.3848  1.0935  0.7936
  484Sol     MW 4888   1.588   1.682   6.108  0.0896 -0.5912 -0.0858
  485Sol     OW 4889   3.144   0.331   3.099 -0.0324  0.2985 -0.0802
  485Sol     HW 4890   3.082   0.264   3.072  1.9024 -1.6375  0.1948
  485Sol     HW 4891   3.091   0.395   3.147 -1.5981 -1.9273  1.2052
  485Sol     MW 4892   3.134   0.331   3.101 -0.3360 -0.0049 -0.1149
  486Sol     OW 4893   1.886   1.253   1.844  0.3985 -0.0483 -0.1890
  486Sol     HW 4894   1.830   1.176   1.837  0.1852  0.0419  0.4995
  486Sol     HW 4895   1.858   1.309   1.772 -0.2045 -0.1290 -0.0195
  486Sol     MW 4896   1.878   1.251   1.837  0.2545  0.1648 -0.2663
  487Sol     OW 4897   1.874   0.028   9.173 -0.4801 -0.1260  0.4722
  487Sol     HW 4898   1.912   0.009   9.258 -0.6062  0.4013  0.6503
  487Sol     HW 4899   1.799  -0.032   9.166 -0.7259  0.1337  0.9163
  487Sol     MW 4900   1.870   0.021   9.180  0.2168  0.1157 -0.4465
  488Sol     OW 4901   1.726   2.021   9.014 -0.2005  0.2591 -0.0015
  488Sol     HW 4902   1.719   2.109   9.051  0.0628 -0.0054  0.6982
  488Sol     HW 4903   1.637   1.998   8.988 -0.3161  0.6270  0.0700
  488Sol     MW 4904   1.718   2.027   9.015  0.0179 -0.8027  0.4533
  489Sol     OW 4905   0.098   1.173   7.403 -0.0597  0.4548  0.2107
  489Sol     HW 4906   0.101   1.265   7.429  2.4058  0.5692 -0.3449
  489Sol     HW 4907   0.085   1.175   7.308 -1.1061  0.1951  0.3413
  489Sol     MW 4908   0.097   1.181   7.397  0.3154  0.4288  0.3613
  490Sol     OW 4909   1.832   1.438   6.644 -0.3099 -0.4268  0.5159
  490Sol     HW 4910   1.784   1.469   6.567 -0.6111  1.9072  1.5894
  490Sol     HW 4911   1.765   1.422   6.710  0.0816 -0.8975  0.8023
  490Sol     MW 4912   1.822   1.440   6.643  0.5666  0.2012 -0.3724
  491Sol     OW 4913   2.963   0.793   3.928 -0.0750  0.3148  0.0213
  491Sol     HW 4914   2.882   0.768   3.882 -0.3563  1.5811 -0.1878
  491Sol     HW 4915   3.032   0.776   3.864 -0.3039  0.4868 -0.2739
  491Sol     MW 4916   2.962   0.789   3.918  0.8171 -0.3377 -0.0812
  492Sol     OW 4917   0.528   0.170   6.210  0.1526 -0.1107  0.2049
  492Sol     HW 4918   0.553   0.209   6.294 -0.0513  0.1665  0.1375
  492Sol     HW 4919   0.517   0.076   6.229  0.5934 -0.1265  0.3774
  492Sol     MW 4920   0.529   0.165   6.219 -0.5711 -0.8741 -0.5492
  493Sol     OW 4921   2.923   3.275   9.687 -0.4379  0.2398 -0.2204
  493Sol     HW 4922   2.959   3.191   9.660  0.3436  0.7885 -0.8866
  493Sol     HW 4923   2.977   3.301   9.761 -0.7075  0.1466  0.0137
  493Sol     MW 4924   2.931   3.270   9.691 -0.6521  0.1391  0.0985
  494Sol     OW 4925   0.363   0.179   9.760  0.9711  0.0186 -0.0469
  494Sol     HW 4926   0.439   0.237   9.771  1.6192 -0.3661 -2.2882
  494Sol     HW 4927   0.399   0.098   9.726 -0.3354 -0.5260 -0.1609
  494Sol     MW 4928   0.373   0.177   9.758 -0.4983 -0.2568 -0.1486
  495Sol     OW 4929   1.558   0.359   1.683 -0.5176  0.0720 -0.7606
  495Sol     HW 4930   1.635   0.394   1.638 -1.0162  1.0404 -0.8910
  495Sol     HW 4931   1.585   0.273   1.714  0.8202  0.6497 -0.2759
  495Sol     MW 4932   1.567   0.355   1.682  0.2470 -0.7505 -0.4442
  496Sol     OW 4933   0.230   2.792   9.930  0.2427  0.7423 -0.0197
  496Sol     HW 4934   0.317   2.758   9.953 -0.8916 -2.4552 -0.2029
  496Sol     HW 4935   0.243   2.838   9.847  1.8755  0.8348  0.2720
  496Sol     MW 4936   0.239   2.793   9.925  0.5962 -0.2116  0.3971
  497Sol     OW 4937   0.742   2.603   4.685  0.2265  0.2186  0.4270
  497Sol     HW 4938   0.664   2.655   4.703  0.7659  1.6383 -1.1370
  497Sol     HW 4939   0.709   2.517   4.662 -0.9574  1.0240 -1.0042
  497Sol     MW 4940   0.732   2.600   4.684 -0.3893  0.1125 -0.2148
  498Sol     OW 4941   0.033   2.185   3.513 -0.2154 -0.7618  0.0835
  498Sol     HW 4942  -0.058   2.187   3.541  0.9183  0.8410  3.9877
  498Sol     HW 4943   0.032   2.221   3.425 -3.1383  0.9373  0.7567
  498Sol     MW 4944   0.025   2.188   3.508 -0.4723  0.3946 -0.1536
  499Sol     OW 4945   2.247   0.677   4.217  0.2232 -0.8955 -0.3264
  499Sol     HW 4946   2.239   0.614   4.146  1.0499 -0.5529 -0.7350
  499Sol     HW 4947   2.329   0.722   4.200 -1.0977  1.3754 -0.9365
  499Sol     MW 4948   2.254   0.676   4.209  0.3044  0.5240  0.5198
  500Sol     OW 4949   2.393   2.538   9.671 -0.0592 -0.7121  0.3997
  500Sol     HW 4950   2.373   2.499   9.756 -0.4150 -0.6765  0.3326
  500Sol     HW 4951   2.479   2.579   9.684 -0.4363 -0.0813  0.9572
  500Sol     MW 4952   2.399   2.538   9.680 -0.1818  0.3961 -0.0356
  501Sol     OW 4953   2.380   2.245   8.785  0.0504 -0.1231 -0.3865
  501Sol     HW 4954   2.298   2.225   8.831  0.1368  1.6755  0.5924
  501Sol     HW 4955   2.435   2.168   8.801 -0.4221 -0.1251  1.4019
  501Sol     MW 4956   2.377   2.236   8.791 -0.0416  0.0899 -0.4609
  502Sol     OW 4957   1.771   2.913   5.511  0.5976 -0.5350  0.1280
  502Sol     HW 4958   1.831   2.866   5.569  0.5621  1.2643  1.6535
  502Sol     HW 4959   1.687   2.912   5.557  0.1005 -0.7388 -0.7757
  502Sol     MW 4960   1.769   2.909   5.520  0.5410  0.1265  0.8867
  503Sol     OW 4961   0.209   0.413   4.020 -0.3624 -0.1567  0.5531
  503Sol     HW 4962   0.128   0.363   4.009  0.0683 -0.9929  1.1971
  503Sol     HW 4963   0.179   0.499   4.049 -1.0856 -0.1107 -0.2867
  503Sol     MW 4964   0.199   0.416   4.021  0.4565 -0.2189 -0.0858
  504Sol     OW 4965   2.450   1.691   8.312  0.2653  0.7253 -0.3876
  504Sol     HW 4966   2.504   1.738   8.375  1.0633 -0.9728  0.2272
  504Sol     HW 4967   2.495   1.608   8.299 -2.2434 -0.7772  0.2250
  504Sol     MW 4968   2.459   1.688   8.316 -0.2705 -0.5136  0.1130
  505Sol     OW 4969   2.779   1.536   1.582 -0.5163  0.2595  0.0560
  505Sol     HW 4970   2.786   1.611   1.523  1.4463 -1.2753 -1.7346
  505Sol     HW 4971   2.685   1.518   1.586 -0.8253  1.4751 -1.2011
  505Sol     MW 4972   2.771   1.541   1.577  0.2539 -0.2348 -0.1878
  506Sol     OW 4973   2.551   0.289   2.125 -0.3856 -0.5744  0.2316
  506Sol     HW 4974   2.577   0.309   2.215  2.5893  0.5091 -0.7976
  506Sol     HW 4975   2.611   0.220   2.097 -0.8763 -0.4803 -1.1045
  506Sol     MW 4976   2.559   0.285   2.130  0.3350  0.6418  0.6355
  507Sol     OW 4977   2.489   0.423   5.032  0.0857  0.7933 -0.1842
  507Sol     HW 4978   2.573   0.429   5.078  0.6060  1.0186 -1.1506
  507Sol     HW 4979   2.423   0.445   5.098  0.5130 -2.5594  1.4397
  507Sol     MW 4980   2.490   0.426   5.042 -0.2229 -0.2587 -0.5898
  508Sol     OW 4981   1.951   3.018   9.047  0.4622 -0.4821 -0.1450
  508Sol     HW 4982   1.977   2.996   8.958  1.6407 -1.4044  0.4179
  508Sol     HW 4983   2.020   3.077   9.078  0.2960 -0.5293  0.3139
  508Sol     MW 4984   1.960   3.022   9.042 -0.0378  0.0923 -0.8777
  509Sol     OW 4985   1.501   0.643   9.045  0.4671 -0.3041  0.0509
  509Sol     HW 4986   1.438   0.712   9.022 -1.5684 -1.6943  1.3156
  509Sol     HW 4987   1.495   0.580   8.974  0.4133 -0.4580  0.1922
  509Sol     MW 4988   1.495   0.644   9.037 -0.0919  0.5870  1.0437
  510Sol     OW 4989   3.167   2.882   3.686 -0.1915  0.4301  0.5159
  510Sol     HW 4990   3.186   2.878   3.592 -1.0639  1.2897  0.2959
  510Sol     HW 4991   3.234   2.941   3.721  1.3173 -1.3558  0.7717
  510Sol     MW 4992   3.175   2.887   3.681  0.4543  0.3672 -1.0611
  511Sol     OW 4993   2.330   2.536   2.646 -0.2511 -0.0995  0.0441
  511Sol     HW 4994   2.395   2.602   2.623  0.7064 -0.3920  1.8354
  511Sol     HW 4995   2.254   2.586   2.676  0.3778  0.2065  1.1513
  511Sol     MW 4996   2.329   2.546   2.646 -0.6668 -0.0525 -0.4781
  512Sol     OW 4997   1.639   0.234   4.620  0.5826 -0.0125 -0.0998
  512Sol     HW 4998   1.582   0.289   4.566  0.7405 -0.2381 -0.5014
  512Sol     HW 4999   1.584   0.207   4.693  0.5878  0.9159  0.2576
  512Sol     MW 5000   1.629   0.237   4.622  0.0062  0.5521 -0.0760
  513Sol     OW 5001   0.157   2.553   8.930  0.0892  0.3309 -0.5477
  513Sol     HW 5002   0.083   2.594   8.974  0.8002  1.0870 -0.0466
  513Sol     HW 5003   0.148   2.577   8.838 -1.3823 -1.2176 -0.8275
  513Sol     MW 5004   0.150   2.558   8.926  0.1701 -0.6871 -0.2104
  514Sol     OW 5005   3.307   2.345   4.910 -0.3040  0.0168  0.3560
  514Sol     HW 5006   3.370   2.352   4.838 -0.2000  0.0501  0.4509
  514Sol     HW 5007   3.222   2.348   4.867 -0.2317 -1.0077  0.1456
  514Sol     MW 5008   3.305   2.346   4.900  0.1582  0.6215  0.2672
  515Sol     OW 5009   0.909   0.458   5.262 -0.0285  0.3148  0.2038
  515Sol     HW 5010   0.850   0.383   5.260  0.8379 -0.3716 -0.1414
  515Sol     HW 5011   0.908   0.487   5.353 -1.9661  1.1937 -0.0715
  515Sol     MW 5012   0.904   0.454   5.270 -0.2347 -0.8658  0.2197
  516Sol     OW 5013   2.170   0.277   3.873 -0.2192 -0.3715 -0.1522
  516Sol     HW 5014   2.109   0.236   3.812  0.5374 -0.6512 -0.7345
  516Sol     HW 5015   2.256   0.253   3.840  0.1968 -0.7688  1.2012
  516Sol     MW 5016   2.172   0.271   3.865  0.6490 -0.6041  0.4108
  517Sol     OW 5017   2.589   2.211   3.154 -0.4699  0.3930 -0.6808
  517Sol     HW 5018   2.546   2.267   3.219 -0.4925 -1.0998  0.6457
  517Sol     HW 5019   2.677   2.198   3.188 -0.2768  0.1145 -1.2800
  517Sol     MW 5020   2.593   2.215   3.163  0.7859  0.0628 -0.2763
  518Sol     OW 5021   0.715   1.593   7.535 -0.0018  0.3125 -0.8479
  518Sol     HW 5022   0.767   1.538   7.476  0.3992  0.3482 -0.5332
  518Sol     HW 5023   0.766   1.595   7.616 -0.7331 -0.0578 -0.3689
  518Sol     MW 5024   0.724   1.588   7.537 -0.2582 -0.8041 -0.2944
  519Sol     OW 5025   2.948   2.886   9.410  0.4605  0.2627 -0.3904
  519Sol     HW 5026   2.908   2.867   9.326  1.2708 -1.3913 -0.4263
  519Sol     HW 5027   3.015   2.818   9.421 -1.8345 -1.5777  3.0665
  519Sol     MW 5028   2.951   2.878   9.404 -0.5802 -0.6755  0.6811
  520Sol     OW 5029   1.088   3.158   5.787  0.2949 -0.0819  0.1841
  520Sol     HW 5030   1.095   3.130   5.696  0.6446 -0.5263  0.3443
  520Sol     HW 5031   1.115   3.250   5.786 -0.5458  0.1657 -0.2946
  520Sol     MW 5032   1.091   3.163   5.779 -0.9332 -0.3794 -0.5883
  521Sol     OW 5033   3.013   0.389   7.216 -0.2660  1.0315  0.3385
  521Sol     HW 5034   2.994   0.308   7.262  4.2652  0.3164  1.1693
  521Sol     HW 5035   2.951   0.453   7.253 -0.0088 -0.6614  3.8918
  521Sol     MW 5036   3.005   0.388   7.223 -0.2339 -0.4929 -0.1857
  522Sol     OW 5037   1.399   2.303   8.330 -0.0672  0.4202  0.7903
  522Sol     HW 5038   1.484   2.339   8.305  0.8603 -1.0387  1.7903
  522Sol     HW 5039   1.407   2.209   8.316 -2.1567  0.4534 -0.8851
  522Sol     MW 5040   1.407   2.298   8.327  0.2472 -0.0622 -0.1535
  523Sol     OW 5041   1.245   1.928   1.641  0.3517  0.2799 -0.0224
  523Sol     HW 5042   1.256   2.018   1.610  4.0885 -0.8967 -2.5324
  523Sol     HW 5043   1.316   1.916   1.704  2.5309 -2.0874 -2.8002
  523Sol     MW 5044   1.253   1.935   1.644 -0.2749 -0.6302  0.2500
  524Sol     OW 5045   2.034   2.471   3.187  0.5825  0.1685  0.2105
  524Sol     HW 5046   1.992   2.386   3.202  0.9349  0.1606  1.2214
  524Sol     HW 5047   2.128   2.452   3.194  0.6710  0.6000  0.1980
  524Sol     MW 5048   2.039   2.461   3.189 -0.2260 -0.0029  0.7590
  525Sol     OW 5049   0.539   3.441   8.324  0.0276  0.6398 -0.0820
  525Sol     HW 5050   0.621   3.415   8.367  1.2391  0.9970 -2.1118
  525Sol     HW 5051   0.553   3.532   8.300 -0.7217  0.5232 -0.9830
  525Sol     MW 5052   0.548   3.447   8.326  0.6664  0.7153  0.0294
  526Sol     OW 5053   0.551   2.230   1.852 -0.0155 -0.6132 -0.4043
  526Sol     HW 5054   0.610   2.156   1.839  1.2488  0.2790  0.1127
  526Sol     HW 5055   0.479   2.195   1.905  0.7404 -1.3842  0.1229
  526Sol     MW 5056   0.550   2.221   1.855 -0.0157 -0.1054  0.5979
  527Sol     OW 5057   2.803   2.230   6.079 -0.0671 -0.2907  0.6935
  527Sol     HW 5058   2.748   2.188   6.146 -0.7662 -1.4740 -0.6020
  527Sol     HW 5059   2.877   2.264   6.128 -0.5404 -1.1948  2.0821
  527Sol     MW 5060   2.804   2.229   6.090  0.7681  0.5695 -0.0244
  528Sol     OW 5061   0.501   1.143   5.981 -0.1331 -0.5221 -0.2037
  528Sol     HW 5062   0.490   1.067   5.925  0.6474  0.7131 -2.0878
  528Sol     HW 5063   0.584   1.128   6.027 -1.2778 -2.0140  1.4489
  528Sol     MW 5064   0.508   1.135   5.980 -0.0122  0.4760  0.2380
  529Sol     OW 5065   0.889   2.053   5.464  0.4522  0.4066  0.3144
  529Sol     HW 5066   0.851   1.966   5.448 -2.1480  1.7345 -1.2317
  529Sol     HW 5067   0.846   2.084   5.543 -0.7253  1.3666 -0.6765
  529Sol     MW 5068   0.882   2.048   5.469  0.0519 -0.1370  0.8568
  530Sol     OW 5069   2.890   0.432   5.879  0.4038 -0.3808  0.3691
  530Sol     HW 5070   2.903   0.427   5.784 -0.2694  3.1392  0.0165
  530Sol     HW 5071   2.801   0.400   5.893  0.2120 -0.1492 -0.3051
  530Sol     MW 5072   2.883   0.429   5.872 -0.5975 -0.3233 -0.1144
  531Sol     OW 5073   1.937   0.559   2.581 -0.2521  0.2179 -0.4956
  531Sol     HW 5074   2.018   0.578   2.628  0.4084 -1.3379 -0.9681
  531Sol     HW 5075   1.957   0.578   2.489  0.2087 -2.0229 -0.8790
  531Sol     MW 5076   1.946   0.562   2.577  0.0095 -0.2106 -0.4148
  532Sol     OW 5077   1.303   0.452   2.612 -0.4537 -0.3110  0.3579
  532Sol     HW 5078   1.333   0.413   2.694 -0.3072 -0.7918  0.0740
  532Sol     HW 5079   1.210   0.466   2.625 -0.7652 -1.9244 -0.0014
  532Sol     MW 5080   1.298   0.450   2.621 -0.8897 -0.8843 -0.4493
  533Sol     OW 5081   1.329   0.912   8.076  0.3343  0.7459  0.2262
  533Sol     HW 5082   1.253   0.864   8.042 -0.8199  0.2922  3.3362
  533Sol     HW 5083   1.296   1.001   8.093  1.2652  1.3640 -1.0445
  533Sol     MW 5084   1.319   0.916   8.074 -0.9038  0.0157  0.5831
  534Sol     OW 5085   0.506   2.010   9.375 -0.1576 -0.5495 -0.4752
  534Sol     HW 5086   0.417   2.046   9.379  0.7466  1.5851  1.2999
  534Sol     HW 5087   0.520   1.972   9.461  0.9090 -0.2543 -0.5151
  534Sol     MW 5088   0.499   2.010   9.383  0.3578 -0.6703  0.3601
  535Sol     OW 5089   2.694   2.864   9.505  0.3647 -0.8116 -0.1692
  535Sol     HW 5090   2.773   2.844   9.454  0.3582 -2.4173  0.4426
  535Sol     HW 5091   2.709   2.954   9.537  1.8973 -1.0558 -0.1622
  535Sol     MW 5092   2.703   2.871   9.503 -0.3593  0.2110 -0.0389
  536Sol     OW 5093   2.852   3.280   6.553 -0.4340 -0.3362  0.1398
  536Sol     HW 5094   2.930   3.278   6.609 -0.4078 -2.1085  0.0734
  536Sol     HW 5095   2.859   3.362   6.505  0.9304 -0.0472  0.8058
  536Sol     MW 5096   2.860   3.287   6.554  0.1855  0.4015 -0.0753
  537Sol     OW 5097   1.166   1.365   6.615  0.4974  0.0156  0.1815
  537Sol     HW 5098   1.104   1.362   6.687  0.2353 -0.8781 -0.0736
  537Sol     HW 5099   1.210   1.450   6.624 -0.2062  0.3120  0.8174
  537Sol     MW 5100   1.165   1.373   6.622  0.1202 -0.8966  0.2304
  538Sol     OW 5101   1.188   1.395   4.259  0.5253  0.4449  0.1766
  538Sol     HW 5102   1.220   1.446   4.333  1.4494 -1.0946  0.8625
  538Sol     HW 5103   1.260   1.337   4.237  1.0103  2.2118 -3.2149
  538Sol     MW 5104   1.197   1.395   4.263 -1.4380 -1.0179  0.1793
  539Sol     OW 5105   1.630   1.224   6.136  0.5614 -0.2769  0.1437
  539Sol     HW 5106   1.722   1.201   6.123  0.3505 -1.0976  0.0670
  539Sol     HW 5107   1.624   1.246   6.229  1.3626  2.3156 -0.3604
  539Sol     MW 5108   1.638   1.224   6.143  0.1706  0.3437 -0.0200
  540Sol     OW 5109   1.197   1.885   4.415 -0.0142 -0.3883  0.3194
  540Sol     HW 5110   1.183   1.846   4.329 -1.6974 -1.5260  1.0785
  540Sol     HW 5111   1.219   1.976   4.397 -0.3180 -0.6212 -1.3013
  540Sol     MW 5112   1.198   1.890   4.406  0.1973 -0.0295 -0.0473
  541Sol     OW 5113   2.657   2.772   7.518  0.4936 -0.9701  0.0620
  541Sol     HW 5114   2.710   2.694   7.501 -0.0253 -1.4369  0.5557
  541Sol     HW 5115   2.696   2.811   7.596  1.0713 -0.4471 -0.4833
  541Sol     MW 5116   2.665   2.768   7.524  0.4915 -0.1279  0.7627
  542Sol     OW 5117   2.241   0.453   1.485  0.5898  0.4280  0.0500
  542Sol     HW 5118   2.251   0.546   1.505  1.5710  0.6691 -1.4641
  542Sol     HW 5119   2.288   0.408   1.555 -0.4696  1.0362  1.1667
  542Sol     MW 5120   2.246   0.457   1.493 -0.4093 -0.2576  0.5057
  543Sol     OW 5121   2.129   2.246   4.662 -0.6306 -0.3330 -0.2662
  543Sol     HW 5122   2.043   2.207   4.648  0.4898 -3.2007  0.3575
  543Sol     HW 5123   2.142   2.242   4.757 -0.3595  1.3570 -0.2184
  543Sol     MW 5124   2.123   2.242   4.670 -0.2054 -0.2207 -0.1313
  544Sol     OW 5125   2.993   0.947   1.380 -0.2575  0.3365  0.1110
  544Sol     HW 5126   2.908   0.929   1.341  0.5988 -0.5016 -1.4169
  544Sol     HW 5127   3.017   1.034   1.348  0.4162 -0.3242 -1.2040
  544Sol     MW 5128   2.988   0.953   1.374 -0.6106  0.3540 -0.5142
  545Sol     OW 5129   2.007   0.841   7.011 -0.2628 -0.1927  0.7159
  545Sol     HW 5130   1.938   0.882   6.959  0.8242  0.2162 -0.4382
  545Sol     HW 5131   2.021   0.900   7.085  0.2585  0.7516 -0.1390
  545Sol     MW 5132   2.003   0.850   7.013  0.6175  0.6290  0.2524
  546Sol     OW 5133   2.114   2.372   2.075 -0.5707  0.1356  0.1761
  546Sol     HW 5134   2.179   2.302   2.069 -0.2411  0.4786 -0.3182
  546Sol     HW 5135   2.030   2.327   2.081 -0.4623 -0.2983 -1.3546
  546Sol     MW 5136   2.112   2.362   2.075 -0.3546  0.1166  0.6543
  547Sol     OW 5137   1.815   2.311   2.124  0.2654 -0.1870  0.4839
  547Sol     HW 5138   1.745   2.264   2.170 -2.4786  1.3303 -1.8989
  547Sol     HW 5139   1.781   2.401   2.117  2.1267  0.3967 -1.4282
  547Sol     MW 5140   1.805   2.315   2.128 -0.8656 -0.3477  0.4331
  548Sol     OW 5141   2.630   2.397   8.814 -0.3371  0.0436 -0.4650
  548Sol     HW 5142   2.550   2.350   8.840 -0.5040 -0.1325 -1.2516
  548Sol     HW 5143   2.662   2.437   8.894 -1.3700  0.3358 -0.1827
  548Sol     MW 5144   2.626   2.396   8.823  0.0186 -0.3505 -0.1923
  549Sol     OW 5145   2.796   2.297   4.701  0.8652 -0.5089  0.2954
  549Sol     HW 5146   2.705   2.272   4.715  0.0829  1.8041 -0.3986
  549Sol     HW 5147   2.795   2.393   4.705  3.4635 -0.4914  1.4833
  549Sol     MW 5148   2.788   2.303   4.703 -0.6429  0.0065  0.0911
  550Sol     OW 5149   1.278   2.336   3.132  0.0051  0.6967  0.4840
  550Sol     HW 5150   1.240   2.264   3.082  0.0883  2.4081 -2.1164
  550Sol     HW 5151   1.279   2.304   3.222 -2.5884 -1.4703 -0.1727
  550Sol     MW 5152   1.274   2.327   3.136  0.1632  0.4940  0.3178
  551Sol     OW 5153   1.177   0.918   1.678  0.0419 -0.2798  0.4759
  551Sol     HW 5154   1.168   0.825   1.661  1.1443 -0.6450  1.8113
  551Sol     HW 5155   1.187   0.925   1.773  2.0001  0.9965  0.2230
  551Sol     MW 5156   1.177   0.910   1.685  0.4771  0.3860 -0.0781
  552Sol     OW 5157   1.147   2.178   2.953 -0.0642  0.5159 -0.3545
  552Sol     HW 5158   1.149   2.100   2.899 -1.3118  0.2704 -0.0443
  552Sol     HW 5159   1.054   2.196   2.968  0.2302 -0.1038  2.6764
  552Sol     MW 5160   1.139   2.173   2.950  0.4690  0.3214 -0.8421
  553Sol     OW 5161   3.080   0.278   8.942 -0.1404  0.0342 -0.8366
  553Sol     HW 5162   3.149   0.212   8.947 -2.2277 -2.3412 -2.2873
  553Sol     HW 5163   3.073   0.297   8.848  0.1349  2.0604 -0.4816
  553Sol     MW 5164   3.086   0.274   8.934 -0.8023 -0.0426 -0.1940
  554Sol     OW 5165   1.987   2.682   4.823 -0.0005 -0.3547 -0.1103
  554Sol     HW 5166   1.923   2.748   4.851  0.7368 -0.3392  1.6067
  554Sol     HW 5167   2.049   2.731   4.768 -0.6948 -0.0857 -0.6538
  554Sol     MW 5168   1.987   2.693   4.820 -0.1879 -0.4130  0.3474
  555Sol     OW 5169   0.764   0.734   7.364  0.4167  0.2947 -0.7677
  555Sol     HW 5170   0.743   0.643   7.380  0.5691  0.3760 -0.0896
  555Sol     HW 5171   0.784   0.738   7.271 -0.7450 -0.1331 -1.0445
  555Sol     MW 5172   0.764   0.727   7.357 -0.7541  0.1811 -0.2509
  556Sol     OW 5173   1.931   2.439   5.131 -0.0341 -0.1046 -0.3757
  556Sol     HW 5174   1.948   2.493   5.208 -2.2167  0.5960 -0.3509
  556Sol     HW 5175   2.008   2.452   5.075  0.5673  1.1185  0.6993
  556Sol     MW 5176   1.940   2.445   5.133  0.6145 -0.1224  0.0853
  557Sol     OW 5177   3.105   3.224   2.612  1.0595  0.2930  0.4522
  557Sol     HW 5178   3.070   3.181   2.534  1.2706  0.3212  0.3421
  557Sol     HW 5179   3.187   3.263   2.583  1.4181 -0.1855  0.8371
  557Sol     MW 5180   3.109   3.224   2.602 -0.5127 -0.0204  0.3817
  558Sol     OW 5181   0.598   3.321   4.757  0.1171 -0.0684  0.1593
  558Sol     HW 5182   0.620   3.393   4.816  3.3403  0.0821 -1.1368
  558Sol     HW 5183   0.681   3.277   4.741 -1.2493 -2.0326 -1.7718
  558Sol     MW 5184   0.607   3.323   4.761  0.2340  0.3096  0.5600
  559Sol     OW 5185   3.011   0.340   3.902 -0.1297  0.5994 -0.0371
  559Sol     HW 5186   2.952   0.374   3.969 -0.3326  0.4711 -0.1485
  559Sol     HW 5187   2.962   0.268   3.862  0.3854  0.0228  0.3568
  559Sol     MW 5188   3.001   0.336   3.904 -0.0418  0.5828  0.1828
  560Sol     OW 5189   3.269   2.396   1.749  0.5287  0.4854 -0.3282
  560Sol     HW 5190   3.358   2.394   1.784  0.2981 -0.0824  0.2496
  560Sol     HW 5191   3.275   2.448   1.669  1.7615 -1.1223 -1.3056
  560Sol     MW 5192   3.277   2.400   1.745  0.4668 -0.0680 -0.0370
  561Sol     OW 5193   0.082   1.433   9.379  0.7061 -0.2727  0.4502
  561Sol     HW 5194   0.150   1.437   9.445 -0.2048  0.2220  1.3843
  561Sol     HW 5195   0.003   1.465   9.423  0.1061  0.1951 -0.9056
  561Sol     MW 5196   0.081   1.436   9.389 -0.1408 -0.3249  0.1279
  562Sol     OW 5197   1.430   0.142   9.882  0.0982  0.1962 -0.0344
  562Sol     HW 5198   1.457   0.225   9.842 -1.6791  0.1408 -1.4000
  562Sol     HW 5199   1.392   0.167   9.966  0.8585  0.6245  0.1890
  562Sol     MW 5200   1.429   0.152   9.886 -0.6598 -0.8343  0.9891
  563Sol     OW 5201   0.583   1.354   3.874 -0.5575 -0.5313  0.2209
  563Sol     HW 5202   0.561   1.330   3.784 -2.7390 -0.6292  0.7498
  563Sol     HW 5203   0.566   1.274   3.925 -0.7360 -0.0597  0.9114
  563Sol     MW 5204   0.579   1.344   3.871  0.3686  0.4745  0.3386
  564Sol     OW 5205   2.398   2.557   6.119 -0.1658  0.0764  0.4318
  564Sol     HW 5206   2.442   2.476   6.144 -1.2411 -0.2636  1.2397
  564Sol     HW 5207   2.372   2.597   6.202 -1.5485  0.1753 -0.0465
  564Sol     MW 5208   2.400   2.553   6.128 -0.3151 -0.1558  0.2762
  565Sol     OW 5209   2.869   0.987   6.424  0.1006 -0.0206 -0.5478
  565Sol     HW 5210   2.940   0.970   6.362  0.2169  2.1714 -1.0768
  565Sol     HW 5211   2.913   1.019   6.503 -0.1448 -1.3521  0.1460
  565Sol     MW 5212   2.879   0.989   6.425 -0.2069 -0.5176 -0.6619
  566Sol     OW 5213   1.475   2.115   4.793  0.3105  0.0522 -0.0997
  566Sol     HW 5214   1.516   2.045   4.844  0.8721 -0.1412 -0.8078
  566Sol     HW 5215   1.505   2.100   4.703  0.0814  0.9439 -0.3306
  566Sol     MW 5216   1.481   2.107   4.789 -0.4682  0.9982  0.9758
  567Sol     OW 5217   1.655   2.375   8.291  0.4496 -0.4787  0.2303
  567Sol     HW 5218   1.703   2.306   8.338  0.7593 -0.8060 -0.5505
  567Sol     HW 5219   1.706   2.454   8.308  1.0600 -0.7560 -0.2778
  567Sol     MW 5220   1.664   2.376   8.297 -0.8076  0.6951  0.4292
  568Sol     OW 5221   0.496   0.249   8.241 -0.0819 -0.2258 -0.0180
  568Sol     HW 5222   0.408   0.281   8.222  0.3220 -0.2789 -2.1375
  568Sol     HW 5223   0.542   0.256   8.157  2.0781  0.2698  1.1860
  568Sol     MW 5224   0.492   0.252   8.231  0.1265 -0.3926  0.3819
  569Sol     OW 5225   3.012   2.439   3.502  0.2753 -0.9944 -0.1304
  569Sol     HW 5226   2.944   2.444   3.435  1.2929 -1.3003 -1.1888
  569Sol     HW 5227   3.083   2.494   3.469  1.4129 -2.3912 -0.0350
  569Sol     MW 5228   3.012   2.444   3.493  0.6849  0.1686 -0.2079
  570Sol     OW 5229   2.294   1.365   8.253 -0.0490 -0.6818  0.6251
  570Sol     HW 5230   2.295   1.275   8.221  0.6856 -0.6296  0.4953
  570Sol     HW 5231   2.364   1.409   8.204 -0.3921 -0.0439  0.6978
  570Sol     MW 5232   2.300   1.361   8.245 -0.1089  0.1934  0.3383
  571Sol     OW 5233   1.053   0.297   1.843  0.8229  0.0115  0.1115
  571Sol     HW 5234   0.958   0.296   1.835  0.9154 -0.2830 -0.9971
  571Sol     HW 5235   1.076   0.389   1.849  0.4764  0.0898  0.2446
  571Sol     MW 5236   1.047   0.305   1.843 -0.1923 -1.5278  0.1496
  572Sol     OW 5237   0.519   2.550   5.431 -0.5936  0.0416  0.3582
  572Sol     HW 5238   0.544   2.640   5.452 -0.6254  0.0982  0.1523
  572Sol     HW 5239   0.433   2.558   5.390  0.3104  0.1192 -1.5730
  572Sol     MW 5240   0.514   2.559   5.430 -0.2647 -0.5226  0.0329
  573Sol     OW 5241   1.370   0.636   9.757  0.4689 -0.0457 -0.8811
  573Sol     HW 5242   1.408   0.581   9.825  1.3373  1.6661  0.0475
  573Sol     HW 5243   1.294   0.677   9.799  1.8794  2.1775 -0.4422
  573Sol     MW 5244   1.366   0.635   9.767  0.6365  0.5060  0.4804
  574Sol     OW 5245   0.612   1.080   1.744  0.2123  0.6590 -0.0348
  574Sol     HW 5246   0.581   1.025   1.671 -0.7486  1.9620 -0.6342
  574Sol     HW 5247   0.687   1.127   1.708 -0.4558  1.5394 -0.3051
  574Sol     MW 5248   0.616   1.079   1.734  0.4033  0.1457  0.0078
  575Sol     OW 5249   1.663   1.531   5.842 -0.1640  0.1830  0.5393
  575Sol     HW 5250   1.616   1.449   5.853  0.3533 -0.3635 -1.1874
  575Sol     HW 5251   1.755   1.509   5.858  0.0470  0.3012 -0.4704
  575Sol     MW 5252   1.667   1.522   5.844  0.5740 -0.5188 -0.1800
  576Sol     OW 5253   0.813   1.200   5.564  0.5679 -0.2738 -0.4436
  576Sol     HW 5254   0.742   1.142   5.593  0.4036  0.2591  0.2462
  576Sol     HW 5255   0.770   1.263   5.506  0.3030  0.5894  0.6751
  576Sol     MW 5256   0.802   1.200   5.562 -0.0576  0.5192 -0.2604
  577Sol     OW 5257   3.208   0.445   9.158 -0.1217 -0.2823 -0.1011
  577Sol     HW 5258   3.176   0.407   9.240 -2.5472  0.8231 -0.4916
  577Sol     HW 5259   3.168   0.391   9.090  0.6879 -0.2828 -0.5720
  577Sol     MW 5260   3.201   0.437   9.159  0.2630  0.3570  0.0574
  578Sol     OW 5261   2.187   2.736   1.932  0.3908 -0.4887 -0.2637
  578Sol     HW 5262   2.273   2.702   1.905  1.1804  1.1202  0.1810
  578Sol     HW 5263   2.124   2.680   1.886  1.6857 -1.3087 -1.0746
  578Sol     MW 5264   2.189   2.728   1.925  0.2786  0.7875  0.2921
  579Sol     OW 5265   0.735   2.343   2.644  0.1692  0.8000  0.2968
  579Sol     HW 5266   0.673   2.311   2.710  1.8279 -2.1101  0.4937
  579Sol     HW 5267   0.681   2.393   2.583 -2.6016 -2.6215 -0.1877
  579Sol     MW 5268   0.724   2.345   2.645  0.6506  0.3224  0.0366
  580Sol     OW 5269   2.414   1.489   7.505 -0.0378 -0.3002  0.0955
  580Sol     HW 5270   2.467   1.412   7.482 -0.5232 -0.8699  0.8405
  580Sol     HW 5271   2.429   1.551   7.434  1.0637 -0.7378 -0.0656
  580Sol     MW 5272   2.420   1.487   7.496 -0.7360 -0.2727  0.1035
  581Sol     OW 5273   2.911   1.741   2.498 -0.2357 -0.2645  0.3650
  581Sol     HW 5274   2.865   1.685   2.561 -2.6038  0.5617 -0.5932
  581Sol     HW 5275   2.915   1.826   2.541  1.1044 -0.4890  0.7393
  581Sol     MW 5276   2.908   1.743   2.508 -0.3849  0.6985 -0.5298
  582Sol     OW 5277   0.257   1.033   7.884 -0.1879 -0.0085  0.3246
  582Sol     HW 5278   0.176   1.083   7.875 -0.7723 -0.8528  0.7877
  582Sol     HW 5279   0.327   1.097   7.869 -0.9569  0.3574 -1.8524
  582Sol     MW 5280   0.256   1.043   7.882  0.4142  0.5072  0.3993
  583Sol     OW 5281   1.969   2.691   1.371 -0.2614 -0.2196  0.0907
  583Sol     HW 5282   1.942   2.772   1.328  1.9849  1.0745  1.0100
  583Sol     HW 5283   1.914   2.685   1.449 -1.0818 -0.0695 -0.4795
  583Sol     MW 5284   1.962   2.698   1.374 -0.2020  0.3372 -0.3413
  584Sol     OW 5285   2.603   2.579   7.891  0.0613  0.6895  0.1211
  584Sol     HW 5286   2.582   2.655   7.946  1.0219  0.8544  0.2538
  584Sol     HW 5287   2.523   2.526   7.893 -1.2751  2.5486 -1.3789
  584Sol     MW 5288   2.594   2.581   7.896 -0.2422 -0.1601 -0.1277
  585Sol     OW 5289   3.149   1.327   6.218 -0.2701  0.0238  0.2014
  585Sol     HW 5290   3.215   1.260   6.236 -2.5116 -2.5377 -0.9180
  585Sol     HW 5291   3.159   1.346   6.124  0.0922  1.0306  0.4277
  585Sol     MW 5292   3.156   1.323   6.211 -0.0532 -0.1441  1.1892
  586Sol     OW 5293   0.599   3.001   5.856  0.1102 -0.0576  0.6631
  586Sol     HW 5294   0.675   2.973   5.805 -0.2282  1.1401 -0.5166
  586Sol     HW 5295   0.527   2.947   5.824  0.2293 -0.4603  1.0549
  586Sol     MW 5296   0.600   2.994   5.849 -0.3012 -0.5020 -0.8962
  587Sol     OW 5297   0.499   1.733   9.856  0.1932  0.0151  0.3969
  587Sol     HW 5298   0.436   1.710   9.924 -0.2520  1.0801  0.3489
  587Sol     HW 5299   0.548   1.652   9.841  0.3349 -0.2122  2.0117
  587Sol     MW 5300   0.497   1.723   9.860 -0.7669  0.2947  0.5742
  588Sol     OW 5301   0.144   2.799   3.004 -0.1812  0.0231 -0.2789
  588Sol     HW 5302   0.216   2.798   2.941 -1.3007 -0.1503 -1.5650
  588Sol     HW 5303   0.149   2.714   3.047  1.2766  0.5683  0.6852
  588Sol     MW 5304   0.151   2.792   3.003 -0.7960  0.4794  0.0863
  589Sol     OW 5305   0.712   2.808   5.215  0.2722 -0.5504  0.0395
  589Sol     HW 5306   0.676   2.746   5.151  0.6690  0.1664 -0.8896
  589Sol     HW 5307   0.805   2.812   5.194  0.2372  0.4045  0.0590
  589Sol     MW 5308   0.717   2.803   5.208 -0.1643  0.1549 -0.0181
  590Sol     OW 5309   1.552   1.554   2.100  0.0054 -0.7758  0.3179
  590Sol     HW 5310   1.457   1.564   2.107  0.1200  0.0003  0.8848
  590Sol     HW 5311   1.572   1.472   2.144 -0.4319 -1.0801 -0.0512
  590Sol     MW 5312   1.546   1.548   2.104 -0.6234  0.0459  0.2579
  591Sol     OW 5313   2.685   0.358   6.276 -0.5985 -0.2806  0.7438
  591Sol     HW 5314   2.594   0.380   6.254 -1.1314 -1.4416  1.7460
  591Sol     HW 5315   2.680   0.318   6.362  0.8962 -0.2594  0.8542
  591Sol     MW 5316   2.676   0.357   6.281 -0.2470 -0.2942 -0.2518
  592Sol     OW 5317   0.418   2.188   6.673  0.3691 -0.6811 -0.0424
  592Sol     HW 5318   0.411   2.257   6.740  0.9240 -1.2920  0.6489
  592Sol     HW 5319   0.482   2.221   6.610 -0.6076  0.1669 -0.6127
  592Sol     MW 5320   0.423   2.197   6.673  1.1279 -0.2254 -1.1419
  593Sol     OW 5321   2.479   1.257   7.739 -0.1701  0.2879  0.4704
  593Sol     HW 5322   2.486   1.261   7.643  2.0257  1.0744  0.6406
  593Sol     HW 5323   2.522   1.175   7.762  1.2558  1.1486  0.9308
  593Sol     MW 5324   2.483   1.250   7.732  0.3094 -0.1713 -0.4324
  594Sol     OW 5325   0.155   2.624   3.537 -0.3526 -0.1908 -0.1768
  594Sol     HW 5326   0.225   2.628   3.472 -1.2803 -0.2141 -1.1945
  594Sol     HW 5327   0.181   2.553   3.596  0.6777  0.0759 -0.2878
  594Sol     MW 5328   0.164   2.618   3.537 -0.2900 -0.0262 -0.1468
  595Sol     OW 5329   0.338   2.401   2.815  0.2336  0.6134 -0.1106
  595Sol     HW 5330   0.260   2.428   2.863 -1.0489 -1.4746 -0.9418
  595Sol     HW 5331   0.314   2.410   2.722  0.4569 -1.3030 -0.3954
  595Sol     MW 5332   0.329   2.404   2.811 -0.2541 -0.3085  0.3564
  596Sol     OW 5333   2.235   0.465   7.895  0.3756  0.0252 -0.3368
  596Sol     HW 5334   2.314   0.411   7.903 -0.0508 -0.5939 -0.2571
  596Sol     HW 5335   2.195   0.436   7.813 -0.2497 -0.3093  0.0849
  596Sol     MW 5336   2.239   0.458   7.888 -0.2593 -0.2084  0.4480
  597Sol     OW 5337   0.545   2.807   8.441  0.0771 -0.6133  0.4814
  597Sol     HW 5338   0.525   2.836   8.352 -0.0116 -2.2485 -0.0469
  597Sol     HW 5339   0.576   2.886   8.486 -0.2797  0.3083 -0.8758
  597Sol     MW 5340   0.546   2.817   8.437  0.6175  0.0636  0.3133
  598Sol     OW 5341   2.320   3.210   8.824  0.5669 -0.0375 -0.4663
  598Sol     HW 5342   2.415   3.207   8.836  0.5735  0.9645 -0.2679
  598Sol     HW 5343   2.306   3.182   8.734  1.0058 -0.7939 -0.3001
  598Sol     MW 5344   2.327   3.207   8.817 -0.3827  0.0740  0.2542
  599Sol     OW 5345   1.640   0.695   6.192 -0.2569 -0.4820 -0.6161
  599Sol     HW 5346   1.610   0.784   6.212  2.1427  0.0816  0.6411
  599Sol     HW 5347   1.566   0.654   6.147 -1.5489  2.0059 -0.8187
  599Sol     MW 5348   1.630   0.699   6.190 -0.1975  0.4107  0.1171
  600Sol     OW 5349   3.107   0.274   1.882 -0.0324 -0.4552  0.5759
  600Sol     HW 5350   3.051   0.340   1.923  0.4056 -0.4053  1.1025
  600Sol     HW 5351   3.064   0.190   1.902 -0.9093 -0.2949 -0.6040
  600Sol     MW 5352   3.098   0.272   1.887  0.2272  0.2744 -0.1853
  601Sol     OW 5353   1.725   2.909   9.354 -0.5847 -0.4703  0.2117
  601Sol     HW 5354   1.726   2.815   9.375 -0.3803 -0.0870  2.0163
  601Sol     HW 5355   1.808   2.941   9.390 -1.1112  0.5870  0.4727
  601Sol     MW 5356   1.733   2.903   9.359 -0.1078 -0.1531  0.0501
  602Sol     OW 5357   2.340   2.470   6.878 -0.2864  0.3575  0.0483
  602Sol     HW 5358   2.387   2.513   6.950  0.3380  1.4434 -0.9960
  602Sol     HW 5359   2.251   2.505   6.883 -0.1898  0.5909  0.1645
  602Sol     MW 5360   2.336   2.477   6.885 -0.3535  0.0424  0.3795
  603Sol     OW 5361   1.538   1.534   3.659  0.2436 -0.1189  0.5668
  603Sol     HW 5362   1.570   1.520   3.570 -0.2563 -0.7422  0.4829
  603Sol     HW 5363   1.465   1.473   3.669 -0.9178  1.2604  0.7624
  603Sol     MW 5364   1.534   1.528   3.652 -0.6771  0.2246 -0.5801
  604Sol     OW 5365   0.747   2.153   9.077 -0.1347  0.1930 -0.0489
  604Sol     HW 5366   0.749   2.161   8.982  1.8898  1.4739  0.0835
  604Sol     HW 5367   0.716   2.063   9.092 -2.1901  0.5489 -1.8562
  604Sol     MW 5368   0.745   2.146   9.070 -0.1034 -0.0517  0.1604
  605Sol     OW 5369   0.400   2.931   9.413 -0.2438  0.4764 -0.2357
  605Sol     HW 5370   0.490   2.912   9.385  0.0139  0.4615  0.6026
  605Sol     HW 5371   0.365   2.846   9.439 -1.0231  0.2251 -2.0338
  605Sol     MW 5372   0.405   2.922   9.413  0.2351  0.3374 -0.2483
  606Sol     OW 5373   1.736   1.700   1.961  0.0210 -0.3448  0.2956
  606Sol     HW 5374   1.670   1.652   2.012 -1.9302  1.4012 -0.5408
  606Sol     HW 5375   1.789   1.631   1.921 -2.1151 -1.8354 -0.0784
  606Sol     MW 5376   1.735   1.689   1.962 -0.4794  0.7501  0.1159
  607Sol     OW 5377   0.871   2.216   2.098 -0.5821  0.2978  0.3982
  607Sol     HW 5378   0.825   2.173   2.027 -1.7721 -0.9499  1.8929
  607Sol     HW 5379   0.935   2.151   2.128  0.0586  0.8923  0.3204
  607Sol     MW 5380   0.873   2.206   2.095 -0.0937 -0.1560 -0.6290
  608Sol     OW 5381   2.958   2.307   4.963  0.5219 -0.1234  0.1929
  608Sol     HW 5382   2.910   2.346   5.036  1.3199  0.9772  0.1524
  608Sol     HW 5383   2.902   2.322   4.887 -0.2457 -1.1455  0.5467
  608Sol     MW 5384   2.949   2.312   4.963  0.0183 -0.2137  0.1713
  609Sol     OW 5385   0.969   1.294   2.784  0.3404  0.0127  0.1084
  609Sol     HW 5386   1.055   1.306   2.825  0.5048 -0.1485 -0.1916
  609Sol     HW 5387   0.911   1.350   2.835  0.2974 -1.1723  1.3767
  609Sol     MW 5388   0.972   1.300   2.792  0.1005 -0.2314  0.7953
  610Sol     OW 5389   2.943   0.234   7.735 -0.2434  0.1064  0.6195
  610Sol     HW 5390   2.938   0.146   7.772 -0.2748  0.2814  1.0338
  610Sol     HW 5391   3.002   0.281   7.793  0.0564  0.2596  0.1924
  610Sol     MW 5392   2.948   0.230   7.743 -0.3233 -0.4805  0.3572
  611Sol     OW 5393   0.110   0.936   7.528 -0.0243 -0.4194  0.1240
  611Sol     HW 5394   0.117   1.022   7.486  1.0576  0.1188  1.3746
  611Sol     HW 5395   0.130   0.873   7.459 -1.1180  0.3179 -0.8781
  611Sol     MW 5396   0.112   0.938   7.518  0.0164 -0.5309  0.1660
  612Sol     OW 5397   2.604   2.736   6.170  0.2230  0.1040 -0.0899
  612Sol     HW 5398   2.559   2.653   6.152 -0.1728  0.4091 -0.5293
  612Sol     HW 5399   2.534   2.796   6.198  0.1380  0.9717 -2.1020
  612Sol     MW 5400   2.593   2.734   6.171  1.0032 -0.4429 -0.2374
  613Sol     OW 5401   1.712   0.787   4.852  0.5926 -0.5202  0.5079
  613Sol     HW 5402   1.801   0.814   4.872  0.5043  0.6504 -0.6220
  613Sol     HW 5403   1.674   0.862   4.807 -0.6696 -1.3591  0.1562
  613Sol     MW 5404   1.716   0.796   4.849  0.2176  0.2763  0.4600
  614Sol     OW 5405   2.575   1.434   4.108 -0.0017 -0.6000 -0.7692
  614Sol     HW 5406   2.562   1.429   4.203  0.3960 -1.3906 -0.7510
  614Sol     HW 5407   2.517   1.505   4.080 -0.1614 -0.3904  0.0549
  614Sol     MW 5408   2.569   1.440   4.114  0.2130  0.4169 -0.2283
  615Sol     OW 5409   0.670   1.543   6.460 -0.2282  0.3353  0.4547
  615Sol     HW 5410   0.636   1.554   6.549  0.3509  2.1605  0.4786
  615Sol     HW 5411   0.592   1.533   6.406 -0.5908 -0.6961  1.1564
  615Sol     MW 5412   0.660   1.543   6.463 -0.1674 -0.3871  0.1908
  616Sol     OW 5413   1.057   1.424   2.513  0.0364 -0.4469 -0.0392
  616Sol     HW 5414   0.978   1.465   2.478  0.9366  1.5040  0.1035
  616Sol     HW 5415   1.035   1.400   2.603 -0.7517 -0.9433 -0.3688
  616Sol     MW 5416   1.048   1.426   2.518 -0.6166 -0.0259 -0.2709
  617Sol     OW 5417   1.280   3.431   1.485 -0.5889 -0.0882 -0.0399
  617Sol     HW 5418   1.252   3.517   1.453 -0.3901 -0.1459 -0.3739
  617Sol     HW 5419   1.198   3.385   1.503 -0.6810  0.7357  1.6703
  617Sol     MW 5420   1.270   3.435   1.483 -0.4533  0.2112  0.9896
  618Sol     OW 5421   1.796   2.913   6.145 -0.0286  0.0011  0.0350
  618Sol     HW 5422   1.867   2.849   6.139  1.8471  1.9453  1.0467
  618Sol     HW 5423   1.771   2.929   6.054  1.8520  0.4347 -0.4102
  618Sol     MW 5424   1.800   2.908   6.136 -0.2537  0.5212  0.3557
  619Sol     OW 5425   0.009   1.250   1.996  0.2329 -0.2782  0.1809
  619Sol     HW 5426   0.020   1.290   2.082  1.9495  0.0347 -0.1508
  619Sol     HW 5427   0.025   1.157   2.010 -2.0079 -0.6129  0.6380
  619Sol     MW 5428   0.011   1.245   2.005 -0.1625  0.5797  0.4238
  620Sol     OW 5429   3.183   2.038   5.997 -0.0110 -0.2207  0.6820
  620Sol     HW 5430   3.266   2.000   5.969  0.9477  1.6347  0.9747
  620Sol     HW 5431   3.138   1.967   6.042  0.6049 -1.7764 -1.1005
  620Sol     MW 5432   3.186   2.028   5.998  0.6240  0.1383  0.4197
  621Sol     OW 5433   2.791   0.328   8.322 -0.7629  0.4450  0.2454
  621Sol     HW 5434   2.778   0.248   8.374  0.7720  0.2656  0.3704
  621Sol     HW 5435   2.703   0.351   8.292 -1.4946 -0.2153  1.7935
  621Sol     MW 5436   2.782   0.323   8.324  0.2456 -0.5969  0.2097
  622Sol     OW 5437   1.548   3.365   7.876 -0.2071 -0.1666  0.7028
  622Sol     HW 5438   1.461   3.359   7.837 -1.0466  0.2163  2.4610
  622Sol     HW 5439   1.605   3.317   7.815 -1.2432  1.3873 -1.5500
  622Sol     MW 5440   1.545   3.360   7.867  0.2112 -0.4935 -0.0260
  623Sol     OW 5441   1.523   2.319   9.478 -0.2333 -0.5380  0.5025
  623Sol     HW 5442   1.506   2.297   9.386 -0.5310  1.4332  0.0602
  623Sol     HW 5443   1.441   2.298   9.523 -0.8932  0.6681 -0.1029
  623Sol     MW 5444   1.514   2.315   9.474 -0.1232  0.4733 -0.7253
  624Sol     OW 5445   2.283   2.264   5.229 -0.5633  0.4388  0.3365
  624Sol     HW 5446   2.294   2.301   5.317 -1.7785  2.6863 -0.4091
  624Sol     HW 5447   2.355   2.301   5.178  0.5790 -1.4477  0.5328
  624Sol     MW 5448   2.290   2.271   5.232  0.1504 -0.5312 -0.1253
  625Sol     OW 5449   1.470   0.760   6.947  0.1704  0.0731 -0.5949
  625Sol     HW 5450   1.529   0.761   6.872 -0.1305 -0.5472 -0.8433
  625Sol     HW 5451   1.527   0.771   7.023  0.5535 -0.0102 -0.8685
  625Sol     MW 5452   1.481   0.761   6.948 -0.6808  0.0609  0.0639
  626Sol     OW 5453   2.865   3.123   7.247  0.2116 -0.5360 -0.4686
  626Sol     HW 5454   2.797   3.173   7.202 -1.3692 -2.6627 -0.5327
  626Sol     HW 5455   2.912   3.077   7.177 -0.2421 -1.4074 -0.2130
  626Sol     MW 5456   2.863   3.123   7.237 -0.2204  0.2479 -0.2584
  627Sol     OW 5457   2.350   2.014   5.707 -0.2110 -0.2802  0.1104
  627Sol     HW 5458   2.355   1.959   5.785  0.2856 -0.1573  0.1678
  627Sol     HW 5459   2.342   1.952   5.635 -1.7904 -0.3552  0.3512
  627Sol     MW 5460   2.350   2.004   5.708  0.0373  0.0916 -0.1666
  628Sol     OW 5461   2.149   1.342   6.630  0.1338  0.1375 -0.2272
  628Sol     HW 5462   2.154   1.247   6.619 -1.5525  0.0098 -0.0811
  628Sol     HW 5463   2.145   1.354   6.725  1.4819  0.4227 -0.2079
  628Sol     MW 5464   2.149   1.334   6.638 -0.4511  0.4260  0.2777
  629Sol     OW 5465   2.535   1.215   7.490 -0.5738  0.7250 -0.4962
  629Sol     HW 5466   2.630   1.205   7.497 -0.8613 -1.1612  1.1885
  629Sol     HW 5467   2.507   1.142   7.434 -1.3155 -0.4750  1.3856
  629Sol     MW 5468   2.541   1.208   7.485  0.4114  0.3243  0.0600
  630Sol     OW 5469   2.331   1.811   9.630 -0.1867  0.3283  0.1279
  630Sol     HW 5470   2.308   1.761   9.708  4.3397 -1.7510  0.3062
  630Sol     HW 5471   2.284   1.767   9.559 -1.9038  0.3170  1.2582
  630Sol     MW 5472   2.325   1.802   9.630 -0.2456  0.0236  0.5254
  631Sol     OW 5473   3.163   1.182   7.526  0.5052 -0.4780  0.4201
  631Sol     HW 5474   3.141   1.089   7.529  1.5134 -0.7228  0.3059
  631Sol     HW 5475   3.242   1.186   7.472 -0.1620  0.5639 -0.5041
  631Sol     MW 5476   3.168   1.174   7.521 -0.2367  0.0297 -0.4352
  632Sol     OW 5477   1.870   0.264   8.861 -0.2697  0.2525  0.7382
  632Sol     HW 5478   1.942   0.232   8.917  0.0156 -1.4408 -0.5709
  632Sol     HW 5479   1.899   0.246   8.772 -2.2254 -0.2132  0.1807
  632Sol     MW 5480   1.879   0.260   8.858  0.6354  0.1689 -0.0111
  633Sol     OW 5481   1.015   0.096   2.978  0.4420 -0.0645 -0.1589
  633Sol     HW 5482   0.961   0.148   3.038 -0.2080  0.2390 -1.0012
  633Sol     HW 5483   0.984   0.006   2.990  1.2004 -0.2025  0.9017
  633Sol     MW 5484   1.007   0.093   2.985 -0.0727  0.5128  0.8376
  634Sol     OW 5485   2.335   3.173   8.117  0.1001  0.6130 -0.3780
  634Sol     HW 5486   2.308   3.189   8.207  1.4108  0.3366  0.0679
  634Sol     HW 5487   2.255   3.186   8.066 -0.7796  0.1939  0.8724
  634Sol     MW 5488   2.325   3.176   8.120 -0.6946 -0.1798  0.3642
  635Sol     OW 5489   1.719   2.312   4.464 -0.4314 -0.2035  0.3939
  635Sol     HW 5490   1.779   2.237   4.462  0.3494  0.4086  0.6490
  635Sol     HW 5491   1.651   2.290   4.401  0.6260 -0.4481 -0.6961
  635Sol     MW 5492   1.719   2.303   4.458 -0.6177  0.0331 -0.1784
  636Sol     OW 5493   2.128   3.408   3.156  0.0269  0.7509 -0.1237
  636Sol     HW 5494   2.221   3.384   3.152  0.2759  1.3716  1.5547
  636Sol     HW 5495   2.082   3.324   3.156  0.7264  0.3385  1.9313
  636Sol     MW 5496   2.132   3.398   3.156  0.6404  0.1330  0.4516
  637Sol     OW 5497   1.588   3.085   7.476 -0.2574  0.1651  0.0394
  637Sol     HW 5498   1.500   3.048   7.481 -0.0300 -0.2314  1.1761
  637Sol     HW 5499   1.575   3.172   7.440 -1.0343 -0.1754 -0.5237
  637Sol     MW 5500   1.579   3.089   7.473 -0.1486  0.1073 -0.2110
  638Sol     OW 5501   2.964   0.832   3.338 -0.1994 -0.2302 -0.0442
  638Sol     HW 5502   2.892   0.832   3.401  0.4381 -0.7493  0.7026
  638Sol     HW 5503   3.041   0.853   3.391  0.2545 -0.0572 -0.7695
  638Sol     MW 5504   2.964   0.834   3.348 -0.1004 -0.3023 -0.2448
  639Sol     OW 5505   1.342   2.174   9.081  0.1262 -0.4616 -0.2184
  639Sol     HW 5506   1.312   2.251   9.033  0.9902  0.7184  1.1010
  639Sol     HW 5507   1.285   2.170   9.158  1.8152  0.4543  1.1184
  639Sol     MW 5508   1.334   2.180   9.084  0.4529  0.6482 -0.8075
  640Sol     OW 5509   0.599   2.199   6.444 -0.0093 -0.3388 -0.2479
  640Sol     HW 5510   0.656   2.272   6.421  0.6251 -0.8462 -0.3161
  640Sol     HW 5511   0.543   2.187   6.367  0.8969 -0.8786 -0.8346
  640Sol     MW 5512   0.599   2.204   6.435 -0.3643 -0.1317  0.2504
  641Sol     OW 5513   2.380   3.200   9.556  0.3785  0.0876 -0.3144
  641Sol     HW 5514   2.458   3.148   9.574 -0.5592 -0.7740  1.4397
  641Sol     HW 5515   2.346   3.223   9.642 -0.9864  0.9416 -1.0520
  641Sol     MW 5516   2.384   3.197   9.565  0.2795 -0.2748 -0.0096
  642Sol     OW 5517   0.010   1.455   7.752  0.5794 -0.0588 -0.6437
  642Sol     HW 5518   0.040   1.433   7.664  0.6798  1.5033 -1.0188
  642Sol     HW 5519   0.090   1.466   7.803  0.5099 -1.6513 -0.1680
  642Sol     MW 5520   0.020   1.454   7.749  1.2801  0.0588  0.0558
  643Sol     OW 5521   1.378   0.691   2.927  0.4536 -0.2323  0.0848
  643Sol     HW 5522   1.304   0.686   2.866  0.3974 -2.3840  0.2818
  643Sol     HW 5523   1.440   0.751   2.885 -0.8201  0.5460 -0.7094
  643Sol     MW 5524   1.377   0.696   2.918 -0.8329  0.0614  0.0673
  644Sol     OW 5525   1.994   2.570   9.082  0.1067 -0.0777 -0.5708
  644Sol     HW 5526   2.020   2.519   9.006  0.2984 -2.0856  0.8229
  644Sol     HW 5527   1.898   2.564   9.083 -0.1057  2.0898 -2.0709
  644Sol     MW 5528   1.988   2.565   9.075 -1.0348 -0.2820 -0.7247
  645Sol     OW 5529   2.926   2.302   4.463  0.3013  0.0763  0.0683
  645Sol     HW 5530   3.021   2.306   4.468  0.3975 -2.5128  0.8727
  645Sol     HW 5531   2.897   2.295   4.554 -0.5457 -1.0830 -0.2781
  645Sol     MW 5532   2.932   2.302   4.471  0.2122 -0.3226  0.1539
  646Sol     OW 5533   2.056   0.169   9.049  0.2552  0.5314 -0.0422
  646Sol     HW 5534   2.096   0.209   9.126 -2.7068  1.9289  0.8431
  646Sol     HW 5535   1.993   0.106   9.084 -1.1945  1.2459 -1.2957
  646Sol     MW 5536   2.054   0.167   9.059 -0.6895 -0.9617 -1.0426
  647Sol     OW 5537   1.542   2.929   3.689 -0.4024  0.9005 -0.5039
  647Sol     HW 5538   1.469   2.988   3.710 -0.4105  0.4608  0.7167
  647Sol     HW 5539   1.501   2.842   3.684  0.2915  0.4114  1.8096
  647Sol     MW 5540   1.532   2.926   3.690 -0.1375 -0.1899  0.2700
  648Sol     OW 5541   0.822   2.507   9.602 -0.3387 -0.0481  0.2770
  648Sol     HW 5542   0.842   2.498   9.695 -1.6442  1.3481  0.7120
  648Sol     HW 5543   0.907   2.525   9.561  0.2434 -0.6828  1.1979
  648Sol     MW 5544   0.831   2.508   9.606 -0.0224  0.8544  0.6779
  649Sol     OW 5545   2.913   2.043   8.861 -0.2578  0.0446  0.3350
  649Sol     HW 5546   2.963   2.118   8.891  1.1718 -0.0369 -1.7109
  649Sol     HW 5547   2.936   1.972   8.921 -0.3433  0.8116  1.2750
  649Sol     MW 5548   2.920   2.043   8.869  0.1319 -0.1754 -0.1142
  650Sol     OW 5549   3.065   0.581   8.196 -0.4655 -0.2240  0.1729
  650Sol     HW 5550   3.140   0.622   8.240  0.6731 -1.3047 -0.7182
  650Sol     HW 5551   3.071   0.489   8.220  2.3232 -1.5958 -4.9962
  650Sol     MW 5552   3.072   0.576   8.202  0.4996 -0.5292  0.1404
  651Sol     OW 5553   1.927   1.679   9.862  0.9078  0.2033 -0.0487
  651Sol     HW 5554   1.963   1.607   9.810  1.9122  1.2182 -0.7984
  651Sol     HW 5555   1.921   1.752   9.800 -0.9516  0.5096  0.4823
  651Sol     MW 5556   1.930   1.679   9.852  0.4183 -0.0959  0.8364
  652Sol     OW 5557   3.193   0.503   4.322  0.0760 -0.5717  0.0592
  652Sol     HW 5558   3.218   0.429   4.266  0.4874 -0.4075  0.0219
  652Sol     HW 5559   3.112   0.536   4.284  0.0333 -0.8375 -0.0806
  652Sol     MW 5560   3.188   0.499   4.314  0.4956 -0.0369 -0.2648
  653Sol     OW 5561   0.100   2.755   8.209  0.0545 -0.1501 -0.2048
  653Sol     HW 5562   0.148   2.831   8.243 -1.0328  0.2409  0.5095
  653Sol     HW 5563   0.027   2.793   8.160 -1.2054 -0.7241  1.1921
  653Sol     MW 5564   0.098   2.766   8.208  0.0855  0.1230 -0.5131
  654Sol     OW 5565   2.144   2.042   9.758 -0.5121 -0.1560 -0.2423
  654Sol     HW 5566   2.196   2.068   9.682 -1.0652 -1.3769 -1.0565
  654Sol     HW 5567   2.067   2.000   9.721  0.2294 -2.7427  1.0167
  654Sol     MW 5568   2.142   2.041   9.748 -0.3088 -0.3683  0.0577
  655Sol     OW 5569   1.277   0.087   2.597 -0.0928  0.4282 -0.4419
  655Sol     HW 5570   1.223   0.155   2.636 -0.5793 -0.6977  0.8561
  655Sol     HW 5571   1.367   0.112   2.621 -0.1417  1.3393 -1.1360
  655Sol     MW 5572   1.281   0.096   2.602  0.2070 -0.2877  1.1606
  656Sol     OW 5573   0.664   0.528   2.528 -0.1030 -0.1944  0.3480
  656Sol     HW 5574   0.714   0.447   2.518  1.0415  0.5647 -0.1122
  656Sol     HW 5575   0.625   0.542   2.442 -1.0680 -0.7423  0.6837
  656Sol     MW 5576   0.665   0.522   2.520 -0.0442 -0.1990  0.4489
  657Sol     OW 5577   1.634   1.114   9.215  0.0900 -0.2427  0.3958
  657Sol     HW 5578   1.682   1.032   9.203 -0.4655 -0.4067 -0.8163
  657Sol     HW 5579   1.682   1.161   9.283  0.6965 -1.3602  0.7404
  657Sol     MW 5580   1.642   1.111   9.220 -0.0679  0.1297  0.6014
  658Sol     OW 5581   0.821   0.790   4.133 -0.0149  0.1029 -0.3070
  658Sol     HW 5582   0.864   0.869   4.098 -0.0716  0.8999  1.3976
  658Sol     HW 5583   0.738   0.822   4.169 -1.1139 -1.1098 -1.6992
  658Sol     MW 5584   0.817   0.800   4.133 -0.8695  0.2760 -0.4675
  659Sol     OW 5585   0.632   1.645   3.027  0.4225  0.3179  0.2596
  659Sol     HW 5586   0.594   1.672   3.111  1.8443 -0.1895  1.0888
  659Sol     HW 5587   0.703   1.585   3.051  0.8166  0.1366 -1.3118
  659Sol     MW 5588   0.635   1.642   3.037 -1.0957  0.5907 -0.2568
  660Sol     OW 5589   2.230   3.421   5.469 -0.4457  0.2971  0.1100
  660Sol     HW 5590   2.304   3.454   5.418 -0.1898  0.4094  0.5536
  660Sol     HW 5591   2.153   3.452   5.422 -0.2497 -1.7036 -1.6248
  660Sol     MW 5592   2.230   3.427   5.460  1.0627 -0.1889  0.0718
  661Sol     OW 5593   3.150   2.550   4.603  0.1985  0.7216  0.3806
  661Sol     HW 5594   3.144   2.471   4.550  1.4461  0.3431  0.7841
  661Sol     HW 5595   3.061   2.565   4.634 -0.4265  0.6206 -1.3396
  661Sol     MW 5596   3.142   2.544   4.601 -0.2985 -0.3599  0.1092
  662Sol     OW 5597   1.813   0.973   6.870  0.0266 -0.1184 -0.1313
  662Sol     HW 5598   1.852   1.026   6.800 -1.5335  0.1299 -0.8453
  662Sol     HW 5599   1.761   1.036   6.921 -0.1791 -0.5952  0.2521
  662Sol     MW 5600   1.812   0.984   6.868  0.2239 -0.3327  0.6952
  663Sol     OW 5601   2.185   2.808   5.823  0.8180  0.4259  0.3857
  663Sol     HW 5602   2.217   2.718   5.821  0.7245  0.3771  0.8790
  663Sol     HW 5603   2.234   2.853   5.754  0.3220 -0.1780 -0.3696
  663Sol     MW 5604   2.192   2.804   5.817 -0.5913  0.4398 -0.4031
  664Sol     OW 5605   1.255   0.976   5.572 -0.8180 -0.0429  0.2443
  664Sol     HW 5606   1.163   0.983   5.546 -0.5942 -1.9738 -1.1457
  664Sol     HW 5607   1.304   1.014   5.499 -0.4302 -0.4980  0.2687
  664Sol     MW 5608   1.251   0.980   5.563  0.2758 -0.4155  0.3715
  665Sol     OW 5609   1.410   1.338   2.585 -0.0895 -0.3049  0.2754
  665Sol     HW 5610   1.346   1.279   2.625 -1.2560  0.4669 -0.4131
  665Sol     HW 5611   1.488   1.330   2.639 -0.5606 -1.7393  0.7630
  665Sol     MW 5612   1.411   1.332   2.593 -0.1737  0.4498 -0.4683
  666Sol     OW 5613   3.074   0.140   4.524  0.1127  0.2787  0.0402
  666Sol     HW 5614   3.044   0.221   4.566  1.5977  0.8336  0.0686
  666Sol     HW 5615   3.156   0.119   4.568 -1.3928 -2.5379  1.6101
  666Sol     MW 5616   3.078   0.145   4.531  0.2313  0.3990 -0.2647
  667Sol     OW 5617   1.501   3.395   5.810 -0.0115 -0.2446 -0.3770
  667Sol     HW 5618   1.559   3.360   5.742  0.2921 -0.5547  0.0396
  667Sol     HW 5619   1.533   3.483   5.826  0.7772 -0.6562  0.3410
  667Sol     MW 5620   1.509   3.399   5.805  0.0288 -0.1525 -0.0952
  668Sol     OW 5621   0.034   1.730   3.780  0.1883  0.2402  0.2400
  668Sol     HW 5622   0.118   1.743   3.736 -0.3606  1.9303 -0.3554
  668Sol     HW 5623   0.056   1.681   3.860  1.5863 -0.2353 -0.4183
  668Sol     MW 5624   0.044   1.727   3.784 -0.2741  0.0722 -0.1671
  669Sol     OW 5625   2.698   2.333   9.682  0.3120  0.4183  0.2155
  669Sol     HW 5626   2.759   2.263   9.659  0.2225  0.2666  0.4423
  669Sol     HW 5627   2.744   2.413   9.656  0.8915  0.3511  0.9891
  669Sol     MW 5628   2.708   2.334   9.678  0.9330 -0.9046  0.4022
  670Sol     OW 5629   0.176   1.335   1.781  0.1225 -0.4812  0.0965
  670Sol     HW 5630   0.109   1.328   1.849  1.2772 -0.6643  1.2485
  670Sol     HW 5631   0.158   1.262   1.722 -1.3674  0.1357 -0.2370
  670Sol     MW 5632   0.168   1.328   1.782 -0.1861 -0.8559 -0.7526
  671Sol     OW 5633   3.111   0.590   3.781 -0.2558  0.1764  0.2840
  671Sol     HW 5634   3.051   0.517   3.799 -1.3393  1.2846  1.2298
  671Sol     HW 5635   3.187   0.548   3.741 -1.0261 -1.4340  0.4381
  671Sol     MW 5636   3.112   0.579   3.779 -0.0773 -0.9785 -0.0021
  672Sol     OW 5637   2.362   1.342   9.538 -0.6147 -0.1616  0.1428
  672Sol     HW 5638   2.335   1.285   9.610  0.5145 -0.5411  0.2799
  672Sol     HW 5639   2.383   1.281   9.466 -1.4474  0.1963 -0.4071
  672Sol     MW 5640   2.362   1.331   9.538  0.3901  0.0735  0.0048
  673Sol     OW 5641   0.605   3.205   8.123 -0.0332 -0.0118 -0.1183
  673Sol     HW 5642   0.575   3.271   8.185  0.4192 -0.7086  0.8730
  673Sol     HW 5643   0.563   3.124   8.153  0.0585 -0.3213 -0.8227
  673Sol     MW 5644   0.598   3.203   8.131  0.5424 -0.0578 -0.3868
  674Sol     OW 5645   2.723   0.391   7.809 -0.1777  0.2737 -0.7612
  674Sol     HW 5646   2.747   0.465   7.753 -0.5527 -0.5727 -2.0606
  674Sol     HW 5647   2.792   0.327   7.794  0.5711  0.6482  0.9608
  674Sol     MW 5648   2.731   0.392   7.803  0.1822 -0.2095 -0.5746
  675Sol     OW 5649   0.043   0.702   4.333  0.5963 -0.1447  0.2141
  675Sol     HW 5650  -0.008   0.780   4.312  2.6614  1.2590  0.2786
  675Sol     HW 5651  -0.020   0.630   4.329 -1.3296  1.5165  0.1233
  675Sol     MW 5652   0.033   0.703   4.331 -0.7126  0.1977 -0.4400
  676Sol     OW 5653   3.283   3.241   6.901  0.7560  0.8122  0.7527
  676Sol     HW 5654   3.222   3.260   6.972 -0.7771 -0.5758 -0.1592
  676Sol     HW 5655   3.300   3.326   6.861 -0.4392  1.2409  1.1309
  676Sol     MW 5656   3.280   3.250   6.904 -0.0553  0.4860  0.7315
  677Sol     OW 5657   2.301   3.080   4.530  0.5482  0.6703  0.2375
  677Sol     HW 5658   2.303   3.089   4.434 -1.0939 -2.4860 -0.1590
  677Sol     HW 5659   2.216   3.116   4.555  0.3491  0.1356  0.3310
  677Sol     MW 5660   2.293   3.084   4.523 -0.4861 -0.2522 -0.3709
  678Sol     OW 5661   3.094   1.834   4.239  0.4105  0.1283  0.1623
  678Sol     HW 5662   3.075   1.859   4.148 -0.3662 -0.9486  0.0202
  678Sol     HW 5663   3.034   1.885   4.292 -0.9654 -1.1724 -0.1084
  678Sol     MW 5664   3.087   1.840   4.235  0.2499 -0.4863  1.0567
  679Sol     OW 5665   2.308   2.183   6.016 -0.1066  0.3230  0.3260
  679Sol     HW 5666   2.379   2.247   6.008  0.6919 -0.6746 -0.6983
  679Sol     HW 5667   2.250   2.201   5.942 -0.9149  1.1281  1.1552
  679Sol     MW 5668   2.309   2.190   6.009 -0.0404  0.3586 -0.5204
  680Sol     OW 5669   0.637   0.945   6.977 -0.0465  0.2384 -0.1441
  680Sol     HW 5670   0.639   0.849   6.971 -0.7509  0.2977 -1.8071
  680Sol     HW 5671   0.549   0.965   7.010 -0.0236  0.3146 -0.1298
  680Sol     MW 5672   0.629   0.938   6.979  0.3564 -0.1838  0.1630
  681Sol     OW 5673   2.672   2.410   7.303 -0.5954 -0.1198  0.1057
  681Sol     HW 5674   2.581   2.404   7.332 -0.7869 -1.3240 -0.7189
  681Sol     HW 5675   2.691   2.323   7.267 -0.3819  1.3367 -3.4245
  681Sol     MW 5676   2.665   2.402   7.302 -0.0882 -0.3323 -0.1151
  682Sol     OW 5677   2.569   2.377   5.138  0.2842 -0.4440  0.5675
  682Sol     HW 5678   2.547   2.464   5.103  0.1002 -0.1802  1.3315
  682Sol     HW 5679   2.640   2.393   5.200  1.0335 -0.9949 -0.1299
  682Sol     MW 5680   2.573   2.387   5.140  0.4484 -0.2590 -0.8563
  683Sol     OW 5681   2.413   1.459   6.990 -0.2454 -0.8770  0.6120
  683Sol     HW 5682   2.429   1.553   6.992 -1.4630 -0.6655  1.0692
  683Sol     HW 5683   2.445   1.427   7.075  0.7704 -0.9838  0.1926
  683Sol     MW 5684   2.417   1.464   6.998 -0.3090 -0.2698 -0.0545
  684Sol     OW 5685   1.967   1.596   7.000  0.3224  0.6150  0.3558
  684Sol     HW 5686   1.949   1.628   6.911  1.3612 -0.7856 -0.3764
  684Sol     HW 5687   1.898   1.532   7.017  1.9131 -1.4595 -0.7139
  684Sol     MW 5688   1.959   1.593   6.993 -0.0387 -0.2326  0.1002
  685Sol     OW 5689   1.928   1.109   9.158 -0.3324 -0.1542  0.5208
  685Sol     HW 5690   1.867   1.173   9.196  0.3079  0.9387 -0.2657
  685Sol     HW 5691   1.916   1.119   9.064 -0.1785 -1.1601  0.3927
  685Sol     MW 5692   1.921   1.116   9.153 -0.7098  0.0159  0.1130
  686Sol     OW 5693   1.908   2.693   7.543 -0.1191  0.5801 -0.4320
  686Sol     HW 5694   1.879   2.772   7.498 -0.0035  0.0455 -1.4674
  686Sol     HW 5695   2.003   2.690   7.527 -0.0706  0.4276 -0.1094
  686Sol     MW 5696   1.914   2.700   7.537  0.0313  0.5399 -0.1102
  687Sol     OW 5697   1.328   2.996   8.835  0.4953  0.3302  0.4876
  687Sol     HW 5698   1.260   3.012   8.900  2.2875 -0.7947  2.7260
  687Sol     HW 5699   1.295   2.922   8.784 -0.3858  0.4196  0.9232
  687Sol     MW 5700   1.319   2.990   8.837 -0.0324  0.2293 -0.5683
  688Sol     OW 5701   3.137   0.648   5.374 -0.2790  0.1713 -0.5424
  688Sol     HW 5702   3.209   0.601   5.416 -0.6940 -0.8606 -0.9674
  688Sol     HW 5703   3.070   0.654   5.441  0.4873  1.8133  0.0970
  688Sol     MW 5704   3.138   0.645   5.384  0.0098 -0.2601  0.0158
  689Sol     OW 5705   0.705   1.920   8.438  0.4154 -0.0341  0.0858
  689Sol     HW 5706   0.657   1.838   8.422 -0.3508  0.4770 -0.2387
  689Sol     HW 5707   0.750   1.938   8.356  0.2325  0.1002  0.0149
  689Sol     MW 5708   0.704   1.914   8.429 -0.8267 -0.3299  0.0039
  690Sol     OW 5709   0.873   2.401   5.573 -0.5691  0.8401 -0.6172
  690Sol     HW 5710   0.817   2.422   5.499 -0.4658 -0.9873 -1.2325
  690Sol     HW 5711   0.844   2.315   5.602 -0.6453  1.5366  1.5108
  690Sol     MW 5712   0.866   2.395   5.569  0.8566 -0.5642 -0.8929
  691Sol     OW 5713   2.124   1.123   1.653 -0.0924  0.2233  0.1693
  691Sol     HW 5714   2.093   1.182   1.584  0.1203  3.7585  2.9848
  691Sol     HW 5715   2.045   1.080   1.684 -0.8857  2.1029  0.8449
  691Sol     MW 5716   2.114   1.125   1.649  0.1906  0.1116 -0.1411
  692Sol     OW 5717   3.072   1.941   3.446  0.5006 -0.6421  0.3006
  692Sol     HW 5718   3.051   2.033   3.460 -0.5001 -0.6992 -0.7448
  692Sol     HW 5719   3.070   1.930   3.351 -0.3009 -1.9558  0.4640
  692Sol     MW 5720   3.070   1.948   3.439  0.5501  0.4798 -0.2637
  693Sol     OW 5721   1.456   1.700   6.508  0.3223  0.1001 -0.1775
  693Sol     HW 5722   1.412   1.760   6.448 -0.2679  0.1288  0.2893
  693Sol     HW 5723   1.510   1.756   6.563  1.2679  0.0302 -1.0156
  693Sol     MW 5724   1.457   1.710   6.507 -0.0339  0.1818  0.4105
  694Sol     OW 5725   1.228   1.083   3.177 -0.2613 -0.1754  0.1866
  694Sol     HW 5726   1.232   1.075   3.272 -0.6354 -0.1142  0.2061
  694Sol     HW 5727   1.135   1.074   3.156 -0.0228 -1.7556 -0.3025
  694Sol     MW 5728   1.220   1.081   3.184 -0.6002  0.2681  0.3188
  695Sol     OW 5729   0.091   3.247   5.570  0.2132 -0.3519 -0.0644
  695Sol     HW 5730   0.014   3.299   5.545  0.1882 -0.7932 -0.9382
  695Sol     HW 5731   0.116   3.280   5.656  0.7620  1.7730 -0.9908
  695Sol     MW 5732   0.086   3.255   5.575  0.2103 -0.3237 -0.6198
  696Sol     OW 5733   1.625   2.806   5.280  0.3003  0.2159 -0.1512
  696Sol     HW 5734   1.681   2.765   5.213  2.4467  1.6544  0.6911
  696Sol     HW 5735   1.680   2.806   5.359 -1.9439 -0.8496  1.4664
  696Sol     MW 5736   1.635   2.802   5.281 -0.6211 -0.0816  0.3224
  697Sol     OW 5737   0.672   2.841   9.428  0.5450 -0.0988 -0.6721
  697Sol     HW 5738   0.735   2.834   9.500  1.1527 -0.8440 -1.2526
  697Sol     HW 5739   0.670   2.753   9.391  0.1094  0.2387 -1.4495
  697Sol     MW 5740   0.678   2.832   9.431  0.1516  0.0784 -1.0801
  698Sol     OW 5741   2.523   2.910   4.526 -0.2420 -0.3223  0.1429
  698Sol     HW 5742   2.595   2.972   4.523  0.4060 -1.0385  0.4688
  698Sol     HW 5743   2.444   2.963   4.523  0.3081  0.4533 -0.4822
  698Sol     MW 5744   2.522   2.920   4.526  0.5532  0.5200  0.3094
  699Sol     OW 5745   0.629   0.961   7.470 -0.3006 -0.1928  0.2453
  699Sol     HW 5746   0.582   0.943   7.552  0.3356 -1.2007  0.3881
  699Sol     HW 5747   0.673   0.879   7.448  0.6534  0.4780 -0.3872
  699Sol     MW 5748   0.628   0.952   7.475 -0.7767 -0.7543 -0.0878
  700Sol     OW 5749   1.746   0.456   6.231  0.1396  0.1256  0.1254
  700Sol     HW 5750   1.841   0.462   6.242  0.5184 -0.0825 -2.6613
  700Sol     HW 5751   1.718   0.546   6.213  0.0919 -0.0791 -0.8810
  700Sol     MW 5752   1.752   0.464   6.230  0.0578  0.3487 -0.2287
  701Sol     OW 5753   1.100   1.671   7.571 -0.1737  0.3198  0.6774
  701Sol     HW 5754   1.077   1.763   7.568  2.0770  0.8733 -1.1587
  701Sol     HW 5755   1.194   1.669   7.553 -0.4108 -2.3939 -0.5155
  701Sol     MW 5756   1.106   1.679   7.569  0.3703 -0.7633  0.5654
  702Sol     OW 5757   0.526   0.139   5.566  0.5428 -0.1062 -0.1783
  702Sol     HW 5758   0.560   0.135   5.476  0.8436  1.0200 -0.1250
  702Sol     HW 5759   0.591   0.190   5.614 -0.2441  0.3721  0.3916
  702Sol     MW 5760   0.535   0.143   5.562 -0.3119  0.1121 -0.2320
  703Sol     OW 5761   0.750   1.143   9.108 -0.3803  0.1658  0.7391
  703Sol     HW 5762   0.670   1.123   9.155 -1.0307  0.7616 -0.0946
  703Sol     HW 5763   0.721   1.185   9.027  0.6562 -2.2141 -0.9089
  703Sol     MW 5764   0.741   1.145   9.105  0.0848 -0.2673  0.5392
  704Sol     OW 5765   3.106   1.667   8.369  0.3594 -0.1924  0.2389
  704Sol     HW 5766   3.114   1.760   8.347 -2.7978  0.0385 -0.2037
  704Sol     HW 5767   3.103   1.623   8.284 -5.3561  0.0929  0.0577
  704Sol     MW 5768   3.106   1.671   8.360  0.1117  0.9026  0.2043
  705Sol     OW 5769   1.762   0.637   9.438 -0.2463 -0.5293  0.6152
  705Sol     HW 5770   1.784   0.552   9.399 -1.0076  0.1299 -1.2864
  705Sol     HW 5771   1.846   0.676   9.460  0.1529 -1.3469  0.5689
  705Sol     MW 5772   1.771   0.633   9.436 -0.1488  0.3582 -0.1751
  706Sol     OW 5773   0.096   2.411   6.741 -0.4071 -0.3102  0.0597
  706Sol     HW 5774   0.182   2.416   6.784 -0.3530  0.0008 -0.0774
  706Sol     HW 5775   0.043   2.476   6.787 -0.7652 -0.9776  0.5789
  706Sol     MW 5776   0.099   2.418   6.749 -1.0844  0.3114  0.1629
  707Sol     OW 5777   0.169   1.698   8.995 -0.2480 -0.5344  0.2173
  707Sol     HW 5778   0.124   1.772   8.954 -0.5708 -0.4189  0.7650
  707Sol     HW 5779   0.254   1.694   8.952 -0.3746 -0.0799 -0.0769
  707Sol     MW 5780   0.172   1.704   8.987  0.8664 -0.1147  0.2642
  708Sol     OW 5781   2.827   2.121   3.927  0.3525 -0.1594 -0.3121
  708Sol     HW 5782   2.794   2.151   4.013 -2.8188 -1.8946 -0.8319
  708Sol     HW 5783   2.867   2.037   3.945 -1.2457 -1.0143 -0.6524
  708Sol     MW 5784   2.827   2.116   3.937 -0.0005  0.4182 -0.0718
  709Sol     OW 5785   0.140   1.438   7.512  0.1634 -0.0191  0.2471
  709Sol     HW 5786   0.157   1.530   7.492  0.1563 -0.0161  0.2546
  709Sol     HW 5787   0.226   1.401   7.531  0.1257  0.0639  0.5699
  709Sol     MW 5788   0.149   1.443   7.512 -0.5305 -0.5673  0.0833
  710Sol     OW 5789   2.838   3.328   2.545  0.1001 -0.7199 -0.2703
  710Sol     HW 5790   2.797   3.253   2.589  1.7233 -0.7750  1.1948
  710Sol     HW 5791   2.930   3.324   2.572  0.9366 -0.1870 -2.9295
  710Sol     MW 5792   2.843   3.321   2.551 -0.8850 -0.3355 -0.2645
  711Sol     OW 5793   2.433   0.237   9.390  0.5370  0.2968 -0.2749
  711Sol     HW 5794   2.516   0.257   9.434 -0.1068 -1.0375  1.6259
  711Sol     HW 5795   2.458   0.182   9.316  1.2399 -1.6072  1.3147
  711Sol     MW 5796   2.443   0.234   9.388 -0.1114  0.0872 -0.4885
  712Sol     OW 5797   1.553   2.240   9.212  0.2874 -0.1390 -0.0427
  712Sol     HW 5798   1.580   2.157   9.250 -1.5740 -0.0712  1.4850
  712Sol     HW 5799   1.479   2.218   9.156 -1.0566  0.6505  1.3918
  712Sol     MW 5800   1.549   2.231   9.210  0.6454  0.2508 -0.4240
  713Sol     OW 5801   1.293   0.328   6.603 -0.0697  0.0355 -0.0717
  713Sol     HW 5802   1.284   0.424   6.597  1.4515  0.2335  0.4515
  713Sol     HW 5803   1.260   0.306   6.690 -2.0200 -0.1364 -0.8460
  713Sol     MW 5804   1.289   0.335   6.610  0.0866 -0.2089  0.6134
  714Sol     OW 5805   3.310   0.001   6.691  0.0489 -0.0798 -0.6415
  714Sol     HW 5806   3.343   0.089   6.710  0.0616 -0.5405  1.5332
  714Sol     HW 5807   3.215   0.010   6.698 -0.0634  0.1308 -2.1446
  714Sol     MW 5808   3.304   0.010   6.693 -0.3333 -0.2892  0.1317
  715Sol     OW 5809   2.738   3.282   1.896  0.2187 -0.3671 -0.1054
  715Sol     HW 5810   2.715   3.371   1.920 -1.7294 -1.3375  1.8549
  715Sol     HW 5811   2.768   3.242   1.978  0.8941 -1.5574 -0.9199
  715Sol     MW 5812   2.738   3.286   1.906 -0.1371 -1.0469 -0.3237
  716Sol     OW 5813   2.487   0.972   1.317  0.5636 -0.2344 -0.3201
  716Sol     HW 5814   2.452   0.996   1.403  1.9377 -0.3781  0.2988
  716Sol     HW 5815   2.472   0.878   1.310 -1.5451  0.1327 -1.2023
  716Sol     MW 5816   2.482   0.966   1.324  0.6339  0.1558 -0.0518
  717Sol     OW 5817   1.317   0.412   4.737 -0.4378  0.1870  0.2665
  717Sol     HW 5818   1.233   0.450   4.714 -0.6126 -1.0674 -1.2138
  717Sol     HW 5819   1.370   0.418   4.657  0.9338  1.0851  1.2111
  717Sol     MW 5820   1.314   0.416   4.728  0.4461 -0.2894  0.0812
  718Sol     OW 5821   2.594   2.781   8.056  0.4187  0.3204 -0.4375
  718Sol     HW 5822   2.637   2.764   8.139  0.3532  2.0942 -0.0212
  718Sol     HW 5823   2.647   2.849   8.014 -1.2172  1.5893 -0.4942
  718Sol     MW 5824   2.602   2.785   8.060 -0.5580 -0.0038  1.2316
  719Sol     OW 5825   0.272   0.857   8.276  0.0143  0.0597 -0.5458
  719Sol     HW 5826   0.256   0.917   8.348 -1.4344  0.6529 -1.3340
  719Sol     HW 5827   0.336   0.794   8.310 -0.0155  0.8255  0.9565
  719Sol     MW 5828   0.276   0.857   8.285 -0.2562 -0.5428  0.2743
  720Sol     OW 5829   0.013   2.815   1.430  0.0667  0.2379  0.2452
  720Sol     HW 5830   0.053   2.786   1.348 -0.6579  0.1740 -0.0916
  720Sol     HW 5831   0.007   2.735   1.483 -3.0197 -0.5111 -1.1400
  720Sol     MW 5832   0.016   2.805   1.428 -0.2611 -0.8741  0.4476
  721Sol     OW 5833   0.409   1.423   5.932 -0.5412  0.2110 -0.0074
  721Sol     HW 5834   0.467   1.350   5.957 -0.1931 -0.5018 -2.6859
  721Sol     HW 5835   0.343   1.382   5.876 -1.2610  1.7130 -0.2657
  721Sol     MW 5836   0.408   1.412   5.929  0.0616  0.1008  0.1552
  722Sol     OW 5837   2.981   1.700   6.661  0.2636  0.2761 -0.8338
  722Sol     HW 5838   3.065   1.712   6.617  1.4972 -2.1022  0.7487
  722Sol     HW 5839   2.935   1.636   6.606  0.2526  0.1844 -0.7184
  722Sol     MW 5840   2.985   1.695   6.652 -0.5857  0.3564 -0.2793
  723Sol     OW 5841   0.665   0.901   9.908  0.1401  0.5613 -0.5717
  723Sol     HW 5842   0.662   0.941   9.995  0.9629 -0.6560  0.0290
  723Sol     HW 5843   0.610   0.823   9.916  1.4227 -0.3639 -0.7191
  723Sol     MW 5844   0.660   0.898   9.917 -0.3474  0.1256 -0.3593
  724Sol     OW 5845   3.295   2.600   6.956  0.0818  0.1117 -0.1288
  724Sol     HW 5846   3.384   2.574   6.982 -0.0936 -0.3450  0.0228
  724Sol     HW 5847   3.308   2.678   6.902  0.4539  1.1775  1.4494
  724Sol     MW 5848   3.304   2.605   6.954 -0.5726  0.7818 -0.4025
  725Sol     OW 5849   0.822   1.246   3.884 -0.4611  0.2043  0.0915
  725Sol     HW 5850   0.858   1.305   3.949  1.2146  0.6860 -1.2528
  725Sol     HW 5851   0.731   1.275   3.874 -0.1951  1.3328  0.8274
  725Sol     MW 5852   0.817   1.254   3.889  0.4378 -0.0399 -0.6151
  726Sol     OW 5853   1.474   0.402   4.493  0.5843  0.1205  0.5293
  726Sol     HW 5854   1.494   0.496   4.497  3.3591 -0.4529  1.1053
  726Sol     HW 5855   1.475   0.382   4.399  3.3003  0.0596  0.5199
  726Sol     MW 5856   1.476   0.409   4.485 -0.0597 -0.5825 -0.9229
  727Sol     OW 5857   1.886   1.019   5.469  0.2886  0.5077 -0.4866
  727Sol     HW 5858   1.860   0.992   5.381  2.0546  2.0662 -1.5172
  727Sol     HW 5859   1.972   0.980   5.481 -1.1377 -2.1546  1.7490
  727Sol     MW 5860   1.891   1.013   5.462  0.2529  0.2212  0.2550
  728Sol     OW 5861   2.018   0.494   6.222 -0.0048 -0.3319 -0.3582
  728Sol     HW 5862   2.103   0.533   6.244 -0.4143  0.0389  0.5910
  728Sol     HW 5863   2.038   0.402   6.203  0.5555 -0.3484  0.2864
  728Sol     MW 5864   2.027   0.489   6.223  0.1203 -0.6234 -0.1206
  729Sol     OW 5865   2.438   0.084   3.506 -0.1095 -0.0832  0.9943
  729Sol     HW 5866   2.375   0.025   3.465  0.0699  0.7934 -0.5740
  729Sol     HW 5867   2.523   0.056   3.473  0.2058 -0.4625  2.1187
  729Sol     MW 5868   2.440   0.076   3.500  0.3788  0.2630 -0.0314
  730Sol     OW 5869   1.988   2.783   4.407 -0.2955  0.1390 -0.4279
  730Sol     HW 5870   1.945   2.711   4.361 -0.5549 -0.5539  0.8699
  730Sol     HW 5871   1.920   2.819   4.464  0.3965  0.0853  0.4388
  730Sol     MW 5872   1.978   2.780   4.408 -0.1431  0.1920 -0.0193
  731Sol     OW 5873   2.428   1.928   9.260  0.2935  0.5985  0.3763
  731Sol     HW 5874   2.383   1.863   9.205  0.6644  0.1117  0.6444
  731Sol     HW 5875   2.384   2.011   9.240  0.6625  0.4877 -0.9251
  731Sol     MW 5876   2.420   1.929   9.253  0.2542 -0.4505 -0.0798
  732Sol     OW 5877   1.565   3.028   1.474 -0.6253 -0.2159 -0.5328
  732Sol     HW 5878   1.578   3.076   1.556 -1.6990  0.5361 -0.7940
  732Sol     HW 5879   1.513   3.087   1.419  0.0178 -0.7409 -1.7367
  732Sol     MW 5880   1.562   3.037   1.476  0.3118 -0.8741  0.4346
  733Sol     OW 5881   1.594   1.087   4.249 -0.2370  0.3861  0.3203
  733Sol     HW 5882   1.669   1.044   4.207  0.3696 -0.0081  1.7643
  733Sol     HW 5883   1.631   1.165   4.290 -0.4591 -0.1929  1.6644
  733Sol     MW 5884   1.604   1.090   4.249  0.4519  0.2308  0.2364
  734Sol     OW 5885   1.796   3.303   7.088  0.3256  0.0427 -0.2191
  734Sol     HW 5886   1.712   3.258   7.075 -0.2708  0.7642  1.0329
  734Sol     HW 5887   1.849   3.241   7.136  0.4534 -0.3526 -0.8650
  734Sol     MW 5888   1.793   3.294   7.091  0.1777 -0.0235  0.7244
  735Sol     OW 5889   2.552   1.392   8.586 -0.6850 -0.4473  0.1406
  735Sol     HW 5890   2.611   1.385   8.511 -1.0683  0.0862 -0.2159
  735Sol     HW 5891   2.532   1.302   8.610  1.0198 -0.6552  0.8696
  735Sol     MW 5892   2.555   1.383   8.582 -0.0267  0.1781 -0.1814
  736Sol     OW 5893   2.335   3.058   4.250 -0.3201 -0.4208 -0.8515
  736Sol     HW 5894   2.403   3.067   4.184  0.5620  0.5118  0.1507
  736Sol     HW 5895   2.258   3.102   4.212  0.8270  2.0996 -0.3766
  736Sol     MW 5896   2.334   3.063   4.241  0.7522 -0.2735 -0.0145
  737Sol     OW 5897   3.183   3.171   1.892  0.1673 -0.0214 -0.3440
  737Sol     HW 5898   3.221   3.098   1.842 -3.0982 -0.8355 -1.8009
  737Sol     HW 5899   3.190   3.245   1.832 -0.4232 -0.1456 -0.5675
  737Sol     MW 5900   3.187   3.171   1.882 -0.3162 -0.5945  0.3644
  738Sol     OW 5901   0.364   0.535   4.439 -0.4708  0.5258 -0.3238
  738Sol     HW 5902   0.441   0.551   4.494 -0.3968 -0.0709 -0.2456
  738Sol     HW 5903   0.398   0.484   4.365 -1.1658 -1.7242  0.8543
  738Sol     MW 5904   0.374   0.532   4.437 -0.1465 -0.3400  0.0056
  739Sol     OW 5905   0.874   2.812   9.623 -0.4603 -0.0840  0.0448
  739Sol     HW 5906   0.882   2.717   9.612 -0.4970  0.0171 -0.9178
  739Sol     HW 5907   0.961   2.846   9.600 -0.6981  0.1808 -0.4820
  739Sol     MW 5908   0.883   2.806   9.620  0.1875 -0.0617  0.5527
  740Sol     OW 5909   2.437   1.150   9.374  0.8447  0.1012  0.4753
  740Sol     HW 5910   2.492   1.114   9.304  0.3629  1.4421 -0.6345
  740Sol     HW 5911   2.349   1.152   9.336  0.7879  1.9816  0.6637
  740Sol     MW 5912   2.434   1.147   9.364 -0.2184 -0.0725 -0.1633
  741Sol     OW 5913   2.372   2.837   5.412  0.4579  0.2095  0.4327
  741Sol     HW 5914   2.316   2.906   5.377  0.1414  0.6232  1.7126
  741Sol     HW 5915   2.368   2.849   5.507  2.2994 -0.0874  0.5736
  741Sol     MW 5916   2.367   2.844   5.417  0.1487  0.7295 -0.1992
  742Sol     OW 5917   1.820   1.265   5.037 -0.8969  0.0935  0.1663
  742Sol     HW 5918   1.895   1.206   5.027 -1.9902 -1.1992 -0.5462
  742Sol     HW 5919   1.831   1.329   4.967 -0.9305 -0.6314 -0.5132
  742Sol     MW 5920   1.828   1.265   5.030 -0.4266 -0.4433 -0.8756
  743Sol     OW 5921   2.505   2.981   8.682 -0.2507  0.9479  0.2306
  743Sol     HW 5922   2.569   2.913   8.660 -0.8072  0.1554  1.0570
  743Sol     HW 5923   2.551   3.038   8.744 -1.5315 -1.7344  3.7949
  743Sol     MW 5924   2.515   2.980   8.685  0.4997 -0.8637 -0.0694
  744Sol     OW 5925   2.407   0.618   1.869 -0.0836 -0.2659 -0.5120
  744Sol     HW 5926   2.408   0.541   1.813 -0.7469 -0.5828 -0.0890
  744Sol     HW 5927   2.491   0.616   1.915  0.6875  0.2657 -1.8396
  744Sol     MW 5928   2.415   0.611   1.868 -0.4553 -0.5193  0.2494
  745Sol     OW 5929   1.581   3.235   3.000  0.0341 -0.6093 -0.3066
  745Sol     HW 5930   1.507   3.291   3.020  0.0038 -1.7988  3.2066
  745Sol     HW 5931   1.657   3.293   3.007 -0.2363 -0.3260  0.3780
  745Sol     MW 5932   1.581   3.245   3.003  0.4997 -0.0907  0.1728
  746Sol     OW 5933   1.885   1.121   4.625 -0.1258 -0.2458 -0.7580
  746Sol     HW 5934   1.849   1.174   4.554  2.6486 -0.5999 -2.4704
  746Sol     HW 5935   1.967   1.164   4.649  0.9110 -2.3313 -0.4591
  746Sol     MW 5936   1.889   1.130   4.621 -0.5056 -0.7071 -0.6964
  747Sol     OW 5937   0.386   2.847   2.034 -0.2779  0.2179 -0.1189
  747Sol     HW 5938   0.409   2.758   2.059 -0.4061 -0.2350 -1.5886
  747Sol     HW 5939   0.311   2.869   2.091 -0.4370 -0.7079  0.0371
  747Sol     MW 5940   0.381   2.841   2.042 -0.2991  0.0270  0.1078
  748Sol     OW 5941   1.726   0.483   5.501  0.4960 -0.3343 -0.0011
  748Sol     HW 5942   1.729   0.554   5.437  0.0121  0.7059  1.1070
  748Sol     HW 5943   1.636   0.483   5.532  1.1921  0.4229  2.0603
  748Sol     MW 5944   1.718   0.489   5.498  0.6254 -0.2432 -0.2132
  749Sol     OW 5945   0.024   0.736   9.874  0.2018  0.0578 -0.0680
  749Sol     HW 5946  -0.042   0.671   9.850 -0.5698  0.1976  1.6223
  749Sol     HW 5947  -0.024   0.818   9.883  0.2407 -0.2259  3.0803
  749Sol     MW 5948   0.014   0.737   9.873 -0.5271  1.0206 -0.0170
  750Sol     OW 5949   1.263   1.554   5.663  0.8326 -0.2519  0.5893
  750Sol     HW 5950   1.214   1.474   5.643 -1.1696  0.8415  0.9363
  750Sol     HW 5951   1.221   1.621   5.608  2.2085  0.6403  0.6174
  750Sol     MW 5952   1.255   1.553   5.656 -0.4640  0.0198  0.6510
  751Sol     OW 5953   1.868   1.294   5.540 -0.0634  0.3006 -0.0189
  751Sol     HW 5954   1.893   1.208   5.507  0.2587  0.3504  0.0935
  751Sol     HW 5955   1.813   1.276   5.616  1.3127  0.2032  0.9585
  751Sol     MW 5956   1.865   1.285   5.544  0.3885  0.3020 -0.1577
  752Sol     OW 5957   0.996   1.475   7.397 -0.0934 -0.1833 -0.0540
  752Sol     HW 5958   1.034   1.399   7.441 -0.7213 -0.5693 -0.1634
  752Sol     HW 5959   1.015   1.549   7.454 -1.3286 -0.7535  1.1021
  752Sol     MW 5960   1.001   1.475   7.406  0.2549  0.4684 -0.3982
  753Sol     OW 5961   1.132   2.833   3.171  0.1824  0.7454  0.0281
  753Sol     HW 5962   1.170   2.751   3.138 -0.8913  0.5282 -0.7089
  753Sol     HW 5963   1.164   2.900   3.110  1.0596  0.8692  0.6306
  753Sol     MW 5964   1.138   2.831   3.162  0.1284 -0.0916  0.1134
  754Sol     OW 5965   1.704   0.666   1.380 -0.0936  0.0482 -0.4882
  754Sol     HW 5966   1.654   0.668   1.462 -0.3502 -3.8191 -0.4708
  754Sol     HW 5967   1.639   0.688   1.313 -0.6177  0.0543  0.0131
  754Sol     MW 5968   1.694   0.668   1.382  0.3281 -0.7204  0.3391
  755Sol     OW 5969   0.746   1.586   2.199  0.0021 -0.2305 -0.0581
  755Sol     HW 5970   0.720   1.672   2.232 -1.5985 -1.4238  1.9040
  755Sol     HW 5971   0.765   1.535   2.278 -0.3745 -2.0798 -1.1471
  755Sol     MW 5972   0.746   1.589   2.209  0.0003 -0.2816 -0.2425
  756Sol     OW 5973   2.793   1.764   1.439  0.3611  0.3658  0.0558
  756Sol     HW 5974   2.774   1.811   1.358  0.0715 -0.0615 -0.1273
  756Sol     HW 5975   2.838   1.828   1.494 -3.2496  2.0209  1.2328
  756Sol     MW 5976   2.795   1.774   1.437  0.3872 -0.0860  0.0866
  757Sol     OW 5977   0.343   2.143   4.700 -0.2966 -0.3213  0.5276
  757Sol     HW 5978   0.309   2.105   4.781 -0.8372  2.2538  1.5780
  757Sol     HW 5979   0.324   2.078   4.633 -2.0609 -1.4766  2.0814
  757Sol     MW 5980   0.338   2.134   4.701  0.0569  0.6960 -0.9882
  758Sol     OW 5981   2.295   1.682   1.569 -0.2790 -0.9134  0.2313
  758Sol     HW 5982   2.273   1.759   1.622 -0.4540 -0.0897 -1.0094
  758Sol     HW 5983   2.214   1.631   1.566  0.2410 -1.9027  2.2695
  758Sol     MW 5984   2.285   1.684   1.574 -0.9254 -0.1938  0.4521
  759Sol     OW 5985   0.960   1.961   1.707  0.0963 -0.3552  0.4734
  759Sol     HW 5986   1.053   1.967   1.685  0.1249 -2.3885  0.0011
  759Sol     HW 5987   0.924   1.900   1.643 -1.3451 -0.4563  1.3753
  759Sol     MW 5988   0.965   1.956   1.699 -0.2245  0.4786 -0.0249
  760Sol     OW 5989   1.673   2.913   5.865  0.0341  0.0600  0.3519
  760Sol     HW 5990   1.633   2.994   5.897  0.4115  0.7593 -0.9467
  760Sol     HW 5991   1.609   2.876   5.805  0.7774  0.5313 -0.7534
  760Sol     MW 5992   1.664   2.917   5.863 -1.5570  0.5612  0.3368
  761Sol     OW 5993   2.824   1.836   3.512 -0.3003  0.2434 -0.5151
  761Sol     HW 5994   2.768   1.913   3.500 -1.8111 -0.7776 -0.2120
  761Sol     HW 5995   2.913   1.869   3.500 -0.7725  2.4546  1.5393
  761Sol     MW 5996   2.827   1.846   3.510  0.1060 -0.1189  0.2569
  762Sol     OW 5997   0.684   0.461   9.976 -0.5198 -0.4288  0.2073
  762Sol     HW 5998   0.640   0.541   9.946  1.5362  0.6015 -0.1638
  762Sol     HW 5999   0.632   0.431  10.051 -1.0084  1.5348  0.6760
  762Sol     MW 6000   0.675   0.465   9.980 -0.3307 -0.1499 -0.8399
  763Sol     OW 6001   0.065   3.308   3.412 -0.2000 -0.1675  0.1295
  763Sol     HW 6002   0.111   3.272   3.335 -0.6102 -0.2328 -0.0891
  763Sol     HW 6003   0.098   3.397   3.420 -0.2362 -0.1228 -0.1928
  763Sol     MW 6004   0.072   3.312   3.405  0.3331 -0.0994  0.5598
  764Sol     OW 6005   0.265   2.124   4.977 -0.0266 -0.1290  0.0822
  764Sol     HW 6006   0.319   2.075   5.039  1.7585  1.1240 -0.4564
  764Sol     HW 6007   0.176   2.113   5.010  0.7931 -0.2682  2.3417
  764Sol     MW 6008   0.262   2.118   4.986  0.3032 -0.0725  1.0887
  765Sol     OW 6009   2.309   2.846   7.234  0.2214 -0.0023 -0.7530
  765Sol     HW 6010   2.302   2.942   7.231  2.6372  0.2398 -0.1983
  765Sol     HW 6011   2.403   2.830   7.241 -0.3023 -2.3648  1.5029
  765Sol     MW 6012   2.317   2.853   7.234  0.4187  0.0951  0.1000
  766Sol     OW 6013   2.576   0.371   4.220  0.0342  0.6458  0.3825
  766Sol     HW 6014   2.564   0.298   4.160  0.7276  1.5954 -0.9266
  766Sol     HW 6015   2.490   0.384   4.260 -0.4438  0.0521 -0.4467
  766Sol     MW 6016   2.568   0.366   4.218 -0.1865 -0.2084 -0.0449
  767Sol     OW 6017   0.199   2.189   6.283  0.4596  0.3226 -0.2245
  767Sol     HW 6018   0.189   2.284   6.275 -1.6060  0.0328 -1.4782
  767Sol     HW 6019   0.126   2.162   6.337  1.2477 -0.5349  0.4271
  767Sol     MW 6020   0.192   2.195   6.287  0.7839  0.2196 -0.3507
  768Sol     OW 6021   2.866   0.328   2.489  0.2001 -0.0729 -0.4278
  768Sol     HW 6022   2.789   0.270   2.492  0.1256  0.1080  1.6358
  768Sol     HW 6023   2.939   0.271   2.514  0.2660  0.4690  0.6576
  768Sol     MW 6024   2.866   0.317   2.492 -0.4500  0.0342 -0.7232
  769Sol     OW 6025   2.331   3.077   3.157 -0.0935  0.2087 -0.4985
  769Sol     HW 6026   2.358   3.044   3.242 -1.7482 -2.7527 -1.0605
  769Sol     HW 6027   2.403   3.055   3.098  0.3702  0.8769 -0.1904
  769Sol     MW 6028   2.340   3.072   3.159  0.4772  0.0500 -0.2681
  770Sol     OW 6029   1.971   1.613   1.790  0.0328 -0.2228 -0.7980
  770Sol     HW 6030   2.053   1.650   1.821 -0.6914  0.5552  0.2441
  770Sol     HW 6031   1.983   1.603   1.695  0.7518  1.4012 -0.8989
  770Sol     MW 6032   1.979   1.616   1.784 -0.4596  0.6613 -0.1750
  771Sol     OW 6033   0.799   0.220   5.359  0.3261  0.4572 -0.2977
  771Sol     HW 6034   0.744   0.148   5.329 -1.3231  1.7689 -0.5353
  771Sol     HW 6035   0.888   0.185   5.356 -0.5860 -2.1843  1.4852
  771Sol     MW 6036   0.802   0.211   5.356  0.6378 -0.0477  0.3252
  772Sol     OW 6037   0.598   2.517   6.366 -0.1606 -0.0504 -0.4335
  772Sol     HW 6038   0.578   2.549   6.278 -1.7703 -1.7489 -0.7111
  772Sol     HW 6039   0.681   2.471   6.356  0.2861  0.8106 -0.7888
  772Sol     MW 6040   0.604   2.516   6.357  0.2201 -0.1394  0.5426
  773Sol     OW 6041   3.143   1.309   8.748  0.3426  0.6664 -0.3356
  773Sol     HW 6042   3.133   1.218   8.776  1.5315  0.0688 -1.7876
  773Sol     HW 6043   3.224   1.339   8.790 -0.3919  1.2632  0.6633
  773Sol     MW 6044   3.149   1.304   8.754  0.2099 -0.1825  0.3355
  774Sol     OW 6045   1.399   1.367   9.317  0.1492 -0.3499  0.3434
  774Sol     HW 6046   1.411   1.304   9.388 -0.3887 -1.4514 -0.5322
  774Sol     HW 6047   1.381   1.314   9.240 -1.8781  0.9115 -0.1020
  774Sol     MW 6048   1.398   1.357   9.317 -0.4138  0.3500 -0.2457
  775Sol     OW 6049   1.582   2.566   5.453  0.5499  0.7176 -0.3277
  775Sol     HW 6050   1.672   2.573   5.483  0.8624  1.2514 -1.3812
  775Sol     HW 6051   1.573   2.634   5.387 -0.9493  1.4059  0.5543
  775Sol     MW 6052   1.589   2.573   5.450  0.3506 -0.5533  0.6092
  776Sol     OW 6053   1.756   1.668   9.529  0.2139  0.1783 -0.1231
  776Sol     HW 6054   1.821   1.647   9.462  0.3770  2.8524 -0.8301
  776Sol     HW 6055   1.672   1.652   9.486  0.3349 -0.7837 -0.0310
  776Sol     MW 6056   1.754   1.664   9.520 -0.9213  0.0433  0.2644
  777Sol     OW 6057   0.170   1.562   4.179 -0.0868 -0.1542 -0.3527
  777Sol     HW 6058   0.161   1.500   4.252 -2.7279  0.4143 -0.1449
  777Sol     HW 6059   0.260   1.593   4.185  0.6755 -2.4851  0.7530
  777Sol     MW 6060   0.177   1.559   4.186 -0.1625 -0.4123 -0.2390
  778Sol     OW 6061   2.521   1.515   2.607  0.6772 -0.5778 -0.3292
  778Sol     HW 6062   2.457   1.584   2.593 -0.5786 -1.4490  0.9942
  778Sol     HW 6063   2.481   1.437   2.570  0.4637 -1.3700  1.5180
  778Sol     MW 6064   2.512   1.514   2.602 -0.1585  0.1278  0.4905
  779Sol     OW 6065   3.150   0.593   1.805 -0.3702 -0.2013 -0.2852
  779Sol     HW 6066   3.158   0.527   1.736  0.4187 -0.3628 -0.0436
  779Sol     HW 6067   3.238   0.631   1.812 -0.8888  1.0793 -0.6284
  779Sol     MW 6068   3.159   0.591   1.799 -0.1379 -0.5934  0.1233
  780Sol     OW 6069   2.193   2.959   6.815  0.6103  0.3200  0.3658
  780Sol     HW 6070   2.279   2.926   6.791 -0.4008 -0.4570 -2.3662
  780Sol     HW 6071   2.197   3.053   6.798  0.6235  0.1209 -0.7932
  780Sol     MW 6072   2.201   2.965   6.811  0.1641  0.4531 -0.7400
  781Sol     OW 6073   1.388   1.331   8.592  0.4201 -0.9122 -0.1798
  781Sol     HW 6074   1.346   1.411   8.560  2.1727  0.1776  0.1804
  781Sol     HW 6075   1.402   1.278   8.514  0.7367 -0.1473 -0.6508
  781Sol     MW 6076   1.386   1.333   8.582 -0.4709 -0.1472 -0.4082
  782Sol     OW 6077   1.859   0.888   2.198 -0.1717 -0.2148 -0.7332
  782Sol     HW 6078   1.899   0.975   2.204 -0.0790 -0.2372 -1.0236
  782Sol     HW 6079   1.765   0.905   2.190 -0.3855 -0.1940  1.4906
  782Sol     MW 6080   1.854   0.897   2.198  0.2567  0.3740 -0.3820
  783Sol     OW 6081   1.493   1.543   4.983  0.0178  0.5469  0.0320
  783Sol     HW 6082   1.408   1.585   4.998  0.3074  1.3400 -0.5312
  783Sol     HW 6083   1.547   1.571   5.057 -0.3801 -0.4398  0.7109
  783Sol     MW 6084   1.490   1.550   4.991  0.2221  0.8143 -0.4520
  784Sol     OW 6085   1.037   2.743   2.385 -0.0012  0.1153 -0.2871
  784Sol     HW 6086   1.019   2.755   2.292  2.3883  0.6244 -0.7106
  784Sol     HW 6087   1.084   2.822   2.412  1.6432 -1.1546  0.7108
  784Sol     MW 6088   1.040   2.751   2.379  0.7017 -0.6427  0.0195
  785Sol     OW 6089   0.926   3.245   2.981  0.1872 -0.4305 -0.0022
  785Sol     HW 6090   0.920   3.245   2.886  2.4076 -0.7531 -0.1685
  785Sol     HW 6091   0.954   3.156   3.004 -1.6401 -0.7595  1.0642
  785Sol     MW 6092   0.928   3.237   2.975  0.2470  0.3512  1.1047
  786Sol     OW 6093   2.440   0.021   3.862 -0.2225  0.6820  0.2647
  786Sol     HW 6094   2.505  -0.035   3.821  1.1183  1.3542  1.4239
  786Sol     HW 6095   2.359   0.003   3.814  0.9275  0.2475 -1.5666
  786Sol     MW 6096   2.438   0.015   3.854  0.1302 -0.4458  0.0034
  787Sol     OW 6097   0.076   0.665   2.000 -0.4762  0.2221  0.4236
  787Sol     HW 6098  -0.013   0.698   2.001 -0.5949 -0.0970  0.3397
  787Sol     HW 6099   0.067   0.570   1.996 -0.1356  0.1755  0.6804
  787Sol     MW 6100   0.067   0.659   2.000 -0.4778  0.4205 -0.5649
  788Sol     OW 6101   3.055   0.566   7.802  0.8843  0.2703 -0.0818
  788Sol     HW 6102   3.082   0.631   7.867 -1.0082  0.1082  0.8970
  788Sol     HW 6103   3.086   0.482   7.837  0.3790  0.2500  0.3074
  788Sol     MW 6104   3.061   0.564   7.811 -0.2601  0.2297  0.6567
  789Sol     OW 6105   2.986   1.279   8.307 -0.2770  0.2240  0.2369
  789Sol     HW 6106   3.037   1.250   8.382 -0.3650  0.5903  0.4390
  789Sol     HW 6107   2.982   1.202   8.249 -0.5472 -0.1749  0.7857
  789Sol     MW 6108   2.990   1.269   8.308 -0.2086 -0.1217  0.4527
  790Sol     OW 6109   0.144   1.733   2.120 -0.6950  0.6112 -0.0007
  790Sol     HW 6110   0.191   1.753   2.039 -1.7817  0.3963 -0.7006
  790Sol     HW 6111   0.089   1.658   2.097  0.4539 -0.7562  1.4941
  790Sol     MW 6112   0.144   1.728   2.111  0.1103  0.1447 -0.1159
  791Sol     OW 6113   2.716   2.634   5.510  0.4120 -0.4372 -0.4222
  791Sol     HW 6114   2.811   2.642   5.520  0.5595 -0.3885 -1.7269
  791Sol     HW 6115   2.682   2.633   5.600  1.6458 -0.5081  0.0535
  791Sol     MW 6116   2.722   2.635   5.519  0.4937 -0.2608 -0.4503
  792Sol     OW 6117   2.475   1.132   6.330  0.6005  0.3874  0.5438
  792Sol     HW 6118   2.554   1.128   6.277 -0.0997  0.0265 -0.4675
  792Sol     HW 6119   2.479   1.054   6.385 -0.2036 -0.8716 -1.1444
  792Sol     MW 6120   2.482   1.125   6.331  0.1694  0.5380 -0.2291
  793Sol     OW 6121   1.460   0.551   7.557  0.0776 -0.3732  0.0376
  793Sol     HW 6122   1.470   0.642   7.585 -0.6042 -0.0578 -0.7223
  793Sol     HW 6123   1.392   0.515   7.615 -2.1956  0.6172 -1.9222
  793Sol     MW 6124   1.455   0.556   7.565  0.2705  0.4209  0.0417
  794Sol     OW 6125   1.184   2.785   1.440 -0.1209  0.0458  0.1551
  794Sol     HW 6126   1.135   2.850   1.390 -0.2846  1.1088  1.6734
  794Sol     HW 6127   1.276   2.812   1.433 -0.0503 -0.3021 -0.2879
  794Sol     MW 6128   1.188   2.793   1.435  0.0283  0.9453 -0.2598
  795Sol     OW 6129   0.558   1.806   2.044 -0.1553  0.4180 -0.9651
  795Sol     HW 6130   0.524   1.894   2.026 -0.3382  0.1940 -1.7144
  795Sol     HW 6131   0.609   1.817   2.124 -1.1129  0.9815 -0.4108
  795Sol     MW 6132   0.559   1.815   2.050 -0.7347 -1.5209  0.6485
  796Sol     OW 6133   1.382   2.631   8.567 -0.2827  0.0495 -0.1682
  796Sol     HW 6134   1.471   2.661   8.550  0.0515 -1.8035 -1.9693
  796Sol     HW 6135   1.346   2.615   8.480 -1.5381 -1.5551  0.6304
  796Sol     MW 6136   1.387   2.632   8.557 -0.5990 -0.6442 -0.5124
  797Sol     OW 6137   1.592   2.042   4.572  0.1762  0.0216  0.7856
  797Sol     HW 6138   1.627   2.052   4.483 -0.9578  2.8425  0.6153
  797Sol     HW 6139   1.585   1.947   4.584  0.6085 -0.4079 -2.0252
  797Sol     MW 6140   1.595   2.034   4.565 -0.5755 -0.1376  0.1586
  798Sol     OW 6141   2.288   0.013   2.549 -0.8029  0.2025  0.0814
  798Sol     HW 6142   2.382  -0.005   2.547 -0.9217 -0.3075 -2.3422
  798Sol     HW 6143   2.283   0.104   2.578  0.4744  0.4107 -0.2849
  798Sol     MW 6144   2.296   0.020   2.551  0.1481  0.0267  1.2611
  799Sol     OW 6145   1.738   2.240   5.150 -0.0360  0.2657  0.2064
  799Sol     HW 6146   1.801   2.311   5.141 -1.0232  1.0651 -0.4075
  799Sol     HW 6147   1.653   2.283   5.159 -0.8181 -0.8427 -1.5472
  799Sol     MW 6148   1.736   2.250   5.150 -0.1521  0.2089 -0.5995
  800Sol     OW 6149   0.097   1.437   3.065  0.6638  0.0778 -0.7757
  800Sol     HW 6150   0.050   1.434   2.982  2.7208  2.4965 -2.1022
  800Sol     HW 6151   0.032   1.465   3.129 -0.2189  1.3354 -2.1841
  800Sol     MW 6152   0.087   1.439   3.063 -0.1001 -0.4648 -0.1118
  801Sol     OW 6153   1.237   2.770   2.750 -0.1519  0.0548  0.0377
  801Sol     HW 6154   1.264   2.772   2.658 -2.8499  0.5090 -0.7901
  801Sol     HW 6155   1.214   2.678   2.766 -2.5430  0.4737 -0.6805
  801Sol     MW 6156   1.237   2.762   2.743  0.4890 -0.2866 -0.1661
  802Sol     OW 6157   1.495   0.667   4.548 -0.1390 -0.0068 -0.0034
  802Sol     HW 6158   1.502   0.663   4.643 -0.4983  0.0090  0.0226
  802Sol     HW 6159   1.550   0.741   4.523 -0.0783  0.0137  0.1925
  802Sol     MW 6160   1.501   0.673   4.554 -0.5706 -0.3230 -0.3471
  803Sol     OW 6161   2.641   1.751   6.554 -0.3021 -0.3847 -0.3051
  803Sol     HW 6162   2.585   1.796   6.490 -0.9339 -0.6880  0.0321
  803Sol     HW 6163   2.666   1.669   6.510  0.5599  0.1195 -0.7803
  803Sol     MW 6164   2.638   1.748   6.544 -0.3984 -0.0414 -1.1346
  804Sol     OW 6165   1.638   2.386   1.803  0.0374  0.6888  0.6403
  804Sol     HW 6166   1.622   2.320   1.736  0.8167  2.9319 -1.8282
  804Sol     HW 6167   1.732   2.400   1.803  0.1171  0.3144  2.6251
  804Sol     MW 6168   1.645   2.381   1.797  0.0501  0.0086  0.4388
  805Sol     OW 6169   3.312   0.623   1.436 -0.0072 -0.1684 -0.1371
  805Sol     HW 6170   3.265   0.642   1.355  0.9368  0.7199 -0.4807
  805Sol     HW 6171   3.269   0.545   1.471 -1.4577  0.3883 -0.6575
  805Sol     MW 6172   3.304   0.618   1.432 -0.1398 -0.5938  0.1251
  806Sol     OW 6173   2.868   1.904   7.251 -0.4806  0.4076  0.1014
  806Sol     HW 6174   2.873   1.861   7.166  0.5402  0.3099  0.2092
  806Sol     HW 6175   2.829   1.839   7.309  0.5101 -0.1749  0.1246
  806Sol     MW 6176   2.865   1.895   7.249  0.7252 -0.7925 -0.1177
  807Sol     OW 6177   1.780   1.184   1.346  0.5953 -0.3335 -0.5978
  807Sol     HW 6178   1.722   1.260   1.346 -0.9705 -1.4905 -1.3766
  807Sol     HW 6179   1.749   1.131   1.420  0.4940 -1.0849 -1.1741
  807Sol     MW 6180   1.772   1.186   1.353  0.6200  0.5781 -0.4078
  808Sol     OW 6181   0.003   0.200   7.877 -0.0506 -0.1431 -0.8648
  808Sol     HW 6182   0.069   0.253   7.833 -1.2124  1.1785 -1.0738
  808Sol     HW 6183   0.050   0.158   7.949  1.0856  0.5126 -1.2057
  808Sol     MW 6184   0.013   0.201   7.880 -0.4303  0.2565  0.1396
  809Sol     OW 6185   0.433   3.307   7.431 -0.1270  0.6954 -0.2059
  809Sol     HW 6186   0.483   3.332   7.508 -2.2490 -0.1656  1.4953
  809Sol     HW 6187   0.440   3.212   7.427 -0.1213  0.7256 -1.0260
  809Sol     MW 6188   0.438   3.301   7.437 -0.0885 -0.9112 -0.0527
  810Sol     OW 6189   0.155   1.116   4.144  0.1693  0.0823 -0.2728
  810Sol     HW 6190   0.204   1.057   4.202  1.2060  0.6859 -0.5275
  810Sol     HW 6191   0.208   1.122   4.065  0.3365  1.7357 -0.0683
  810Sol     MW 6192   0.164   1.111   4.142  0.2946  0.0763  0.5251
  811Sol     OW 6193   0.263   3.043   2.617  0.2739  0.1148 -0.3367
  811Sol     HW 6194   0.225   3.129   2.599  1.6423  0.9189  0.5142
  811Sol     HW 6195   0.274   3.041   2.712  0.8835 -0.7405 -0.4218
  811Sol     MW 6196   0.260   3.050   2.624  0.1255 -0.0343  0.1724
  812Sol     OW 6197   1.823   0.154   6.317 -0.5762  0.6092  0.4876
  812Sol     HW 6198   1.807   0.230   6.373  0.1963  1.0682  0.0938
  812Sol     HW 6199   1.784   0.080   6.364  2.1341  0.5640  2.8217
  812Sol     MW 6200   1.818   0.154   6.327  0.3670  0.1602  0.3534
  813Sol     OW 6201   2.861   2.191   3.248 -0.4536 -0.2631 -0.3387
  813Sol     HW 6202   2.870   2.097   3.260  1.0157 -0.0766  0.1454
  813Sol     HW 6203   2.816   2.221   3.327  0.5638 -0.3488  0.2898
  813Sol     MW 6204   2.858   2.185   3.256 -0.5768 -0.6869 -0.7460
  814Sol     OW 6205   2.232   1.187   6.213 -0.0022  0.3311 -0.4900
  814Sol     HW 6206   2.316   1.151   6.242 -0.7302  0.4528  1.8576
  814Sol     HW 6207   2.211   1.254   6.278 -1.5535  0.8384 -1.4916
  814Sol     MW 6208   2.237   1.190   6.221 -0.3829  0.1631 -0.2031
  815Sol     OW 6209   1.699   3.397   2.675  0.2300 -0.5883  0.2826
  815Sol     HW 6210   1.755   3.451   2.731 -0.5891  0.8476 -0.2354
  815Sol     HW 6211   1.744   3.395   2.591 -0.7930  1.1315 -0.3316
  815Sol     MW 6212   1.708   3.402   2.673  0.1943  0.0320 -0.8615
  816Sol     OW 6213   0.751   1.573   7.031  0.5024  0.1238 -0.6968
  816Sol     HW 6214   0.761   1.504   7.097 -1.5847  1.1913  0.7885
  816Sol     HW 6215   0.717   1.527   6.954  1.4568 -0.8784 -0.5401
  816Sol     MW 6216   0.749   1.562   7.030  0.1226 -0.4080  0.6452
  817Sol     OW 6217   0.247   1.901   4.090 -0.1547  0.5345 -0.0715
  817Sol     HW 6218   0.160   1.863   4.096  0.0308  0.2119  0.6706
  817Sol     HW 6219   0.264   1.910   3.996 -0.7260  0.0016 -0.2223
  817Sol     MW 6220   0.241   1.898   4.082  0.6032 -0.0660  0.4858
  818Sol     OW 6221   2.048   0.721   8.992 -0.1993  0.4648  0.0530
  818Sol     HW 6222   2.058   0.632   8.958 -0.2782  0.2539  0.5874
  818Sol     HW 6223   1.961   0.748   8.962  0.2174  0.7346 -0.9587
  818Sol     MW 6224   2.041   0.716   8.986 -0.3299  0.2609  1.0668
  819Sol     OW 6225   1.059   0.550   7.451  0.3584  0.0604 -0.1709
  819Sol     HW 6226   0.990   0.487   7.469  1.5246 -1.8343 -2.1431
  819Sol     HW 6227   1.095   0.524   7.366  4.3390  0.1845  1.3662
  819Sol     MW 6228   1.056   0.542   7.445 -0.2047  0.2154  0.1327
  820Sol     OW 6229   0.786   1.484   8.471  0.3960  0.1437  0.2858
  820Sol     HW 6230   0.736   1.403   8.468  1.3992 -0.5185  1.3832
  820Sol     HW 6231   0.845   1.474   8.545  2.4571  0.7472 -1.2182
  820Sol     MW 6232   0.787   1.476   8.477 -0.7343  1.0319 -0.2750
  821Sol     OW 6233   0.901   1.780   3.963  0.0879  0.2351 -0.2106
  821Sol     HW 6234   0.872   1.812   4.049 -0.5745  1.8920 -1.0433
  821Sol     HW 6235   0.822   1.749   3.920  0.4380 -0.7106 -0.1995
  821Sol     MW 6236   0.892   1.780   3.967  0.3387 -0.2174 -0.1262
  822Sol     OW 6237   0.674   1.081   6.494 -0.3873 -0.2863  0.1562
  822Sol     HW 6238   0.683   1.005   6.436 -2.3410  0.0429 -0.6186
  822Sol     HW 6239   0.760   1.091   6.534 -0.0775 -2.9096  0.2500
  822Sol     MW 6240   0.683   1.075   6.493 -0.6886 -0.0899  0.5375
  823Sol     OW 6241   1.218   0.229   5.827 -0.0036  0.2683 -0.4073
  823Sol     HW 6242   1.158   0.234   5.753  0.3884 -2.6823 -0.9668
  823Sol     HW 6243   1.303   0.257   5.791  0.3110 -1.7182 -1.2377
  823Sol     MW 6244   1.221   0.232   5.817 -0.1798 -0.7244 -0.1137
  824Sol     OW 6245   2.190   1.197   9.235  0.7169  0.7582 -0.0913
  824Sol     HW 6246   2.098   1.173   9.228  1.2925 -1.0577 -1.9087
  824Sol     HW 6247   2.189   1.292   9.244 -1.2818  0.9254 -1.6487
  824Sol     MW 6248   2.182   1.204   9.236  0.7424  0.6372  0.9537
  825Sol     OW 6249   1.935   1.500   9.353  0.1393  0.5160 -0.5666
  825Sol     HW 6250   1.869   1.431   9.355 -3.4725  3.7412 -2.3179
  825Sol     HW 6251   1.982   1.486   9.271  0.6821 -0.9490 -0.0123
  825Sol     MW 6252   1.933   1.493   9.346  0.4699  0.5534  0.5146
  826Sol     OW 6253   1.995   1.089   8.663 -0.2470  0.1745 -0.1420
  826Sol     HW 6254   2.059   1.030   8.623 -0.5528 -1.0252  1.1249
  826Sol     HW 6255   1.961   1.140   8.589  2.4300  1.1238 -0.7927
  826Sol     MW 6256   1.998   1.088   8.653  0.1143  0.2128 -0.0250
  827Sol     OW 6257   0.236   0.750   4.834  0.5216  0.2981 -0.4757
  827Sol     HW 6258   0.262   0.835   4.868  0.3752  0.4431 -0.7244
  827Sol     HW 6259   0.238   0.760   4.739 -0.1945  0.2420 -0.5044
  827Sol     MW 6260   0.238   0.758   4.829 -0.1345  0.4901 -0.9220
  828Sol     OW 6261   2.389   1.150   3.368  0.0728  0.0462  0.2580
  828Sol     HW 6262   2.391   1.086   3.439 -1.1469  0.2177  0.4583
  828Sol     HW 6263   2.339   1.224   3.403  0.2331  0.5059 -0.4682
  828Sol     MW 6264   2.385   1.151   3.377 -0.2742  0.1063 -0.7044
  829Sol     OW 6265   2.184   2.105   3.332 -0.0144 -0.6422 -0.3081
  829Sol     HW 6266   2.133   2.026   3.316 -0.3758 -0.1855 -1.5427
  829Sol     HW 6267   2.253   2.078   3.393 -2.0244 -1.1401  1.7701
  829Sol     MW 6268   2.186   2.096   3.336  1.0373  0.3469 -0.3123
  830Sol     OW 6269   1.260   1.479   6.954 -0.4528  0.2773  0.5826
  830Sol     HW 6270   1.170   1.508   6.939 -1.0067 -1.7664 -0.1736
  830Sol     HW 6271   1.306   1.504   6.873 -0.1878  1.7849  1.1716
  830Sol     MW 6272   1.256   1.484   6.945 -0.2036  0.5433  0.6685
  831Sol     OW 6273   2.855   2.417   5.201 -0.2608 -0.4216  0.3631
  831Sol     HW 6274   2.825   2.374   5.282 -1.9087  1.0406  0.5645
  831Sol     HW 6275   2.889   2.502   5.231 -1.4833  0.3972 -0.5219
  831Sol     MW 6276   2.856   2.421   5.211  0.6901  0.1379  0.5147
  832Sol     OW 6277   1.115   2.651   4.062 -0.3978 -1.1544  0.3815
  832Sol     HW 6278   1.067   2.680   4.139 -0.8519  0.8541 -0.6226
  832Sol     HW 6279   1.207   2.657   4.088 -0.5575 -0.8305  0.8877
  832Sol     MW 6280   1.119   2.654   4.071 -0.4014  0.0336  0.0175
  833Sol     OW 6281   2.285   3.185   5.161  0.1761 -0.0554 -0.1231
  833Sol     HW 6282   2.310   3.275   5.182  1.1570 -0.7165  1.6802
  833Sol     HW 6283   2.223   3.161   5.229 -2.0664  0.0603 -2.0416
  833Sol     MW 6284   2.282   3.191   5.169  0.7864 -0.1465  0.1053
  834Sol     OW 6285   2.777   0.121   2.787  0.2321  0.4989 -0.3377
  834Sol     HW 6286   2.863   0.130   2.744  1.0446 -0.1628  1.1240
  834Sol     HW 6287   2.716   0.109   2.714  1.4184  0.5615 -1.3823
  834Sol     MW 6288   2.780   0.121   2.776 -0.1327  0.1878 -0.2105
  835Sol     OW 6289   0.836   2.393   6.319 -0.3844 -0.3654  0.4340
  835Sol     HW 6290   0.835   2.335   6.243  4.7078 -0.1296  0.0205
  835Sol     HW 6291   0.875   2.341   6.389 -0.3839  0.9838  1.4656
  835Sol     MW 6292   0.840   2.383   6.318  0.4026  0.0497  0.1411
  836Sol     OW 6293   3.086   2.864   2.126 -0.4710  0.0444 -0.1881
  836Sol     HW 6294   2.993   2.880   2.108 -0.3866 -0.0694 -0.7322
  836Sol     HW 6295   3.108   2.789   2.071 -0.2908 -0.5249  0.6487
  836Sol     MW 6296   3.079   2.858   2.120 -0.1270  0.5170  0.6482
  837Sol     OW 6297   1.229   0.469   7.655  0.3024  0.0217  0.2245
  837Sol     HW 6298   1.184   0.519   7.587  2.1670  0.5727 -0.6261
  837Sol     HW 6299   1.216   0.521   7.735 -1.3712 -0.3174  0.1948
  837Sol     MW 6300   1.224   0.478   7.656  0.2880  0.1939  0.4508
  838Sol     OW 6301   0.853   2.847   9.912  0.1718  0.2378 -0.0970
  838Sol     HW 6302   0.903   2.928   9.921  0.3922  0.1434 -0.4449
  838Sol     HW 6303   0.849   2.832   9.818  0.0858 -0.1260 -0.0358
  838Sol     MW 6304   0.857   2.853   9.904  0.1271 -0.2458 -0.4596
  839Sol     OW 6305   2.576   1.048   2.171 -0.1541  0.1687 -0.4070
  839Sol     HW 6306   2.611   1.120   2.223  0.1194 -1.7610  2.1731
  839Sol     HW 6307   2.651   0.992   2.152 -0.6494 -0.3530 -0.8889
  839Sol     MW 6308   2.585   1.049   2.174 -0.0329 -0.1052  0.6636
  840Sol     OW 6309   3.011   1.119   5.343  0.5714  0.2971  0.1285
  840Sol     HW 6310   2.929   1.145   5.301  0.8098  1.1686  0.2011
  840Sol     HW 6311   3.068   1.196   5.336  1.3086 -0.2264  0.2710
  840Sol     MW 6312   3.009   1.128   5.339 -0.0589 -0.2835  0.3625
  841Sol     OW 6313   0.631   0.493   6.325  0.1139 -0.5402  0.1622
  841Sol     HW 6314   0.722   0.510   6.302  0.5446 -1.0993  1.3934
  841Sol     HW 6315   0.635   0.423   6.390 -1.2019 -0.5968  0.2102
  841Sol     MW 6316   0.639   0.488   6.329  0.4057  0.0240 -0.0677
  842Sol     OW 6317   2.107   2.950   3.071 -0.2541  0.5900  0.4197
  842Sol     HW 6318   2.083   2.881   3.133  0.9997 -1.6209 -1.4843
  842Sol     HW 6319   2.192   2.981   3.101  2.1235 -3.0155 -2.1130
  842Sol     MW 6320   2.112   2.946   3.079 -0.1625  1.1172  0.4623
  843Sol     OW 6321   0.351   0.007   5.190 -0.1311  0.0611 -0.5727
  843Sol     HW 6322   0.275   0.009   5.132  0.1219 -0.2213 -0.9228
  843Sol     HW 6323   0.346  -0.079   5.232 -1.8339  1.3127  1.9097
  843Sol     MW 6324   0.344  -0.001   5.188  0.3052  0.5464 -0.4222
  844Sol     OW 6325   2.768   1.978   9.736  0.2724 -0.0847  0.0912
  844Sol     HW 6326   2.731   1.915   9.675 -0.3776 -0.9090  1.3068
  844Sol     HW 6327   2.697   1.995   9.799  0.8418  0.9318  0.4686
  844Sol     MW 6328   2.758   1.974   9.737  0.2031 -0.0022 -0.2257
  845Sol     OW 6329   3.282   3.316   8.597 -0.1886  0.0293  0.1374
  845Sol     HW 6330   3.209   3.273   8.642  1.2142 -0.4483  2.0190
  845Sol     HW 6331   3.284   3.276   8.511 -1.8678 -0.2834  0.2336
  845Sol     MW 6332   3.276   3.308   8.594  0.0520 -0.1603  0.3696
  846Sol     OW 6333   1.189   2.228   5.030 -0.0522  0.3047  0.1193
  846Sol     HW 6334   1.223   2.295   5.089  0.2228  0.1778  0.1057
  846Sol     HW 6335   1.114   2.191   5.077 -0.2983  0.7226  0.0611
  846Sol     MW 6336   1.185   2.230   5.040 -0.1458  0.4079  0.6161
  847Sol     OW 6337   0.677   1.979   6.137  0.1049 -0.5241  0.2166
  847Sol     HW 6338   0.591   2.018   6.153  0.5865  1.4952 -1.7427
  847Sol     HW 6339   0.699   1.934   6.218 -3.1817 -1.8471  0.4301
  847Sol     MW 6340   0.671   1.979   6.146 -0.2597 -0.1727 -0.1899
  848Sol     OW 6341   3.080   0.600   4.942 -0.6611  0.0411  0.6363
  848Sol     HW 6342   3.141   0.541   4.987 -1.6648  0.2959  2.3881
  848Sol     HW 6343   3.137   0.664   4.897  0.3749 -0.4019  1.2952
  848Sol     MW 6344   3.091   0.601   4.942  0.5560 -0.1638  0.0061
  849Sol     OW 6345   2.554   3.003   5.835  0.0846 -0.4570  0.0414
  849Sol     HW 6346   2.553   3.098   5.818 -0.4468 -0.2500  1.2129
  849Sol     HW 6347   2.578   2.995   5.927  2.0953 -1.5501 -0.5341
  849Sol     MW 6348   2.556   3.011   5.841  0.0781  0.3567  0.6461
  850Sol     OW 6349   3.062   2.407   1.479 -0.5049  0.1779 -0.1948
  850Sol     HW 6350   3.103   2.321   1.491  1.0546  1.0671  0.9512
  850Sol     HW 6351   3.045   2.412   1.385  1.2668 -0.5481 -0.5670
  850Sol     MW 6352   3.064   2.399   1.472  0.3962 -0.6635 -0.1321
  851Sol     OW 6353   0.543   0.973   1.474  0.1104  0.6605 -0.0686
  851Sol     HW 6354   0.448   0.969   1.482  0.2313 -1.7777  0.4934
  851Sol     HW 6355   0.560   1.054   1.426 -2.1657  1.7925  0.9608
  851Sol     MW 6356   0.536   0.980   1.470  0.4959  0.1658 -0.1116
  852Sol     OW 6357   2.731   1.219   5.258  0.3392  0.3420 -0.9723
  852Sol     HW 6358   2.688   1.264   5.331  0.0151 -2.0872  0.3789
  852Sol     HW 6359   2.686   1.252   5.180 -0.8197  1.3081  0.0886
  852Sol     MW 6360   2.723   1.226   5.257  0.1347 -1.2194  0.0275
  853Sol     OW 6361   2.311   2.813   8.035  0.0786  0.2341 -1.2576
  853Sol     HW 6362   2.403   2.837   8.044  0.2423 -0.1401 -1.8553
  853Sol     HW 6363   2.310   2.718   8.044 -0.4075  0.3390 -0.0887
  853Sol     MW 6364   2.319   2.807   8.036  0.3091  0.1304  0.3209
  854Sol     OW 6365   2.753   3.324   5.881 -0.1152 -0.9583  0.0054
  854Sol     HW 6366   2.802   3.287   5.954 -1.6109 -1.0201  0.9986
  854Sol     HW 6367   2.814   3.387   5.840  0.7535 -0.9864  1.2390
  854Sol     MW 6368   2.763   3.326   5.884 -0.3163  0.1209 -0.3117
  855Sol     OW 6369   2.829   0.910   2.955  0.0703 -0.0958 -0.0331
  855Sol     HW 6370   2.766   0.980   2.972  0.3402  0.4022 -1.0221
  855Sol     HW 6371   2.779   0.843   2.908 -0.7312 -1.5715  2.8094
  855Sol     MW 6372   2.819   0.910   2.952  0.0120 -0.5463 -0.5438
  856Sol     OW 6373   1.569   1.781   4.637  0.0886 -0.0261  0.1224
  856Sol     HW 6374   1.611   1.710   4.589  1.0448  0.9799 -0.5348
  856Sol     HW 6375   1.477   1.753   4.645  0.2690 -0.9335 -0.8686
  856Sol     MW 6376   1.564   1.772   4.634  0.0887 -0.7435  0.3481
  857Sol     OW 6377   0.204   0.207   5.786  0.2271  0.1660 -0.0120
  857Sol     HW 6378   0.126   0.181   5.836 -1.5981  2.7715 -1.3773
  857Sol     HW 6379   0.246   0.273   5.841  1.1716 -0.7968  0.4409
  857Sol     MW 6380   0.201   0.211   5.796  0.0261 -0.7365  0.2129
  858Sol     OW 6381   2.452   2.372   9.232 -0.3909  0.0699  0.2235
  858Sol     HW 6382   2.392   2.446   9.226 -1.0934 -0.5056  0.1112
  858Sol     HW 6383   2.476   2.368   9.325 -0.1033  0.6313  0.1749
  858Sol     MW 6384   2.449   2.378   9.240 -0.0390  0.7559 -0.0335
  859Sol     OW 6385   1.280   3.233   6.434  0.0650  0.7149 -0.1113
  859Sol     HW 6386   1.317   3.145   6.445  0.7884  1.2337  1.9199
  859Sol     HW 6387   1.298   3.256   6.343 -1.7088 -1.9272 -1.1586
  859Sol     MW 6388   1.285   3.227   6.427 -0.2196  0.5482 -0.8263
  860Sol     OW 6389   2.741   2.573   6.613  0.4826  0.1405 -0.5367
  860Sol     HW 6390   2.800   2.509   6.652  0.5561  0.9027  0.6165
  860Sol     HW 6391   2.662   2.522   6.592  0.5138 -0.3215  0.4254
  860Sol     MW 6392   2.739   2.562   6.614 -0.5932 -0.3206  0.1247
  861Sol     OW 6393   2.339   1.823   6.517 -0.2178  0.2463  0.2883
  861Sol     HW 6394   2.281   1.872   6.459 -0.0701  0.8575  0.6493
  861Sol     HW 6395   2.285   1.752   6.551  0.4936 -1.9425 -2.8944
  861Sol     MW 6396   2.329   1.821   6.515 -0.5156  0.0182 -0.1228
  862Sol     OW 6397   0.404   0.294   6.646  0.3014  0.6942  0.6047
  862Sol     HW 6398   0.328   0.263   6.597 -0.1517  0.8957  1.1801
  862Sol     HW 6399   0.374   0.302   6.737  1.2148  0.0569  0.9725
  862Sol     MW 6400   0.395   0.292   6.650  0.1427 -0.2567 -0.0887
  863Sol     OW 6401   2.932   0.470   1.936  0.1600  0.5168  0.3692
  863Sol     HW 6402   2.959   0.511   2.018 -1.7382  0.5098  1.0233
  863Sol     HW 6403   2.984   0.514   1.868  1.9075  0.3710  1.5743
  863Sol     MW 6404   2.939   0.478   1.937 -0.1764  1.2900  0.9348
  864Sol     OW 6405   2.835   0.920   5.808 -0.0464 -0.0655 -0.7248
  864Sol     HW 6406   2.764   0.942   5.747 -2.0097 -1.9763  0.8209
  864Sol     HW 6407   2.799   0.936   5.894  1.8205  0.0415  0.0677
  864Sol     MW 6408   2.826   0.924   5.810 -0.4276  0.4324  0.1463
  865Sol     OW 6409   3.050   1.451   1.421  0.1189 -0.2711  0.2999
  865Sol     HW 6410   3.040   1.511   1.347 -0.8138 -0.4275  0.2935
  865Sol     HW 6411   3.064   1.508   1.497  1.3977 -0.1197 -0.0447
  865Sol     MW 6412   3.050   1.462   1.421  0.3915  0.6816 -0.4834
  866Sol     OW 6413   3.023   2.050   2.349 -0.1493 -0.2368  0.8814
  866Sol     HW 6414   3.000   2.017   2.262 -1.4270  0.0304  1.1152
  866Sol     HW 6415   3.070   2.131   2.333  0.2357 -0.5467  0.4221
  866Sol     MW 6416   3.026   2.054   2.340 -0.9547 -0.2487 -0.1758
  867Sol     OW 6417   1.685   1.420   4.807 -0.2098  0.9287 -0.1774
  867Sol     HW 6418   1.688   1.379   4.721 -0.5784  1.2104 -0.3229
  867Sol     HW 6419   1.594   1.446   4.819 -0.5521 -0.7443  1.0611
  867Sol     MW 6420   1.677   1.419   4.801  0.3094  0.1594 -0.5050
  868Sol     OW 6421   0.316   2.108   5.590 -0.4723  0.4484  0.4172
  868Sol     HW 6422   0.283   2.082   5.504 -0.1960  0.4768  0.3008
  868Sol     HW 6423   0.393   2.162   5.571 -0.0326 -0.0767  0.6937
  868Sol     MW 6424   0.320   2.111   5.581  0.0988  0.1771  0.4933
  869Sol     OW 6425   2.999   2.012   6.389 -0.2165  0.4102 -0.0465
  869Sol     HW 6426   3.064   2.082   6.398 -1.0231  1.5993 -2.6762
  869Sol     HW 6427   2.961   2.003   6.476 -1.0384  4.2517  0.1201
  869Sol     MW 6428   3.001   2.018   6.397  0.0665 -0.1940  0.5760
  870Sol     OW 6429   0.505   1.716   6.689 -0.3740  0.2790  0.4070
  870Sol     HW 6430   0.439   1.749   6.750  0.2456  1.2254  0.5834
  870Sol     HW 6431   0.571   1.785   6.686  0.5655 -0.6170  0.1604
  870Sol     MW 6432   0.505   1.725   6.694 -0.3812  0.2974  0.2538
  871Sol     OW 6433   0.360   2.701   7.209 -0.2143 -0.4166 -0.2101
  871Sol     HW 6434   0.340   2.642   7.281 -0.2668 -2.0314 -1.5249
  871Sol     HW 6435   0.377   2.785   7.252 -2.5471 -0.7524  1.4960
  871Sol     MW 6436   0.360   2.704   7.220 -0.6268  0.2809  0.5637
  872Sol     OW 6437   2.364   0.690   5.629 -0.1271 -0.5415  0.1235
  872Sol     HW 6438   2.386   0.685   5.722 -1.5300  0.2610  0.5241
  872Sol     HW 6439   2.447   0.705   5.585  0.7935 -2.7036  1.0788
  872Sol     MW 6440   2.373   0.691   5.633  0.2773  0.0094 -0.6083
  873Sol     OW 6441   0.229   2.223   3.970  0.0327 -0.4072 -0.4579
  873Sol     HW 6442   0.235   2.277   4.049  0.3533 -0.4796 -0.4325
  873Sol     HW 6443   0.151   2.170   3.983 -1.1401  1.1114 -1.1335
  873Sol     MW 6444   0.223   2.223   3.978  0.0678  0.0925  0.4338
  874Sol     OW 6445   1.257   1.578   5.289 -0.2282  0.5344 -0.6464
  874Sol     HW 6446   1.348   1.558   5.269 -0.3125 -0.6547  0.1461
  874Sol     HW 6447   1.223   1.499   5.331 -1.3454  1.3242 -0.0379
  874Sol     MW 6448   1.262   1.570   5.291 -0.5947  0.3492  0.3305
  875Sol     OW 6449   2.105   1.348   5.239  0.6203 -0.9549 -0.3535
  875Sol     HW 6450   2.090   1.422   5.299 -2.1116 -1.4403 -0.3794
  875Sol     HW 6451   2.093   1.385   5.152 -1.0621 -1.4758 -0.3540
  875Sol     MW 6452   2.102   1.358   5.237 -0.3442  0.5859  0.0741
  876Sol     OW 6453   3.027   2.381   2.757 -0.2603 -0.3052  0.3412
  876Sol     HW 6454   3.046   2.403   2.666  1.7316  0.6021  0.9482
  876Sol     HW 6455   2.960   2.444   2.783 -1.2883 -0.9601 -0.6571
  876Sol     MW 6456   3.023   2.389   2.751 -0.1988  0.1258 -0.3422
  877Sol     OW 6457   1.194   3.281   3.032 -0.7253  0.6172 -0.4693
  877Sol     HW 6458   1.210   3.353   3.093  1.0049 -0.3057  0.2136
  877Sol     HW 6459   1.100   3.285   3.014 -1.3005  0.8757  2.3154
  877Sol     MW 6460   1.187   3.288   3.036  0.2272  0.8987 -0.7609
  878Sol     OW 6461   3.110   3.158   3.326  0.0636 -0.1126  0.1613
  878Sol     HW 6462   3.131   3.122   3.239  1.6855  1.7402 -0.2523
  878Sol     HW 6463   3.192   3.194   3.357 -0.2464 -1.7280  3.0040
  878Sol     MW 6464   3.119   3.158   3.321  0.1308 -0.5849 -0.4527
  879Sol     OW 6465   0.044   3.383   1.653  0.4389 -0.1212  0.9347
  879Sol     HW 6466   0.129   3.353   1.685  0.0263 -0.1184  2.0734
  879Sol     HW 6467   0.050   3.478   1.652 -0.3379 -0.0045  3.3534
  879Sol     MW 6468   0.052   3.389   1.656 -0.0297 -0.9952  0.6422
  880Sol     OW 6469   3.236   3.403   7.371 -0.7232 -0.0088  0.2045
  880Sol     HW 6470   3.142   3.383   7.367 -0.5112 -0.8046 -1.0828
  880Sol     HW 6471   3.251   3.466   7.302 -0.1160 -0.7275 -0.3329
  880Sol     MW 6472   3.229   3.407   7.365 -0.2449 -0.1277  1.2593
  881Sol     OW 6473   0.836   0.788   1.723  0.2575 -0.0187 -0.2304
  881Sol     HW 6474   0.779   0.712   1.732  0.2533 -0.1709 -1.4316
  881Sol     HW 6475   0.812   0.845   1.797 -0.6014 -0.6221 -0.0368
  881Sol     MW 6476   0.828   0.786   1.730  0.5124  0.5503  0.0772
  882Sol     OW 6477   3.212   1.099   9.227  0.2266 -0.0036 -0.3799
  882Sol     HW 6478   3.303   1.070   9.226 -0.2778 -1.6801 -0.5800
  882Sol     HW 6479   3.166   1.033   9.174 -0.9626  1.2898 -0.9709
  882Sol     MW 6480   3.216   1.090   9.222  0.5101 -0.3418  0.1075
  883Sol     OW 6481   2.246   1.490   9.267 -0.6396 -0.0524 -0.4688
  883Sol     HW 6482   2.227   1.545   9.342  0.6740  0.3168 -0.3940
  883Sol     HW 6483   2.276   1.550   9.199  2.5305 -0.7918  0.1912
  883Sol     MW 6484   2.247   1.500   9.268  0.1152  0.0957 -0.3535
  884Sol     OW 6485   0.733   1.600   5.070  0.2179  0.4910 -0.0378
  884Sol     HW 6486   0.681   1.522   5.049 -0.6110  1.3443 -1.1416
  884Sol     HW 6487   0.739   1.648   4.988  1.4939  1.1632  0.4298
  884Sol     MW 6488   0.729   1.597   5.061 -0.0256 -0.4106  0.0994
  885Sol     OW 6489   1.021   1.747   6.370  0.2446 -0.3282  0.6167
  885Sol     HW 6490   1.028   1.660   6.331  0.4290 -0.5613  1.1781
  885Sol     HW 6491   1.112   1.777   6.378  0.2559 -0.6469  1.7108
  885Sol     MW 6492   1.030   1.742   6.367 -0.4527 -0.2760 -0.6346
  886Sol     OW 6493   0.809   1.643   6.747 -0.1405 -0.0876 -0.1591
  886Sol     HW 6494   0.758   1.568   6.776  0.3066  0.0659  1.0312
  886Sol     HW 6495   0.772   1.718   6.795  0.3779  0.2164 -0.2268
  886Sol     MW 6496   0.801   1.643   6.754  0.2914  0.1535  0.3690
  887Sol     OW 6497   1.237   0.873   8.689 -0.0103 -0.1294  0.5838
  887Sol     HW 6498   1.261   0.868   8.781  1.0415 -0.9467  0.2692
  887Sol     HW 6499   1.320   0.883   8.642 -0.4898 -0.3014 -0.3177
  887Sol     MW 6500   1.246   0.874   8.693  0.3079  0.1165 -0.1585
  888Sol     OW 6501   1.676   1.769   6.880 -0.1961  0.5846  0.3048
  888Sol     HW 6502   1.622   1.722   6.943  0.4333 -2.3789 -1.2554
  888Sol     HW 6503   1.742   1.814   6.933  0.9336 -2.6270  1.7662
  888Sol     MW 6504   1.677   1.769   6.890  0.3981 -0.1413 -0.3856
  889Sol     OW 6505   3.039   3.023   9.630  0.1776  0.2073 -0.3257
  889Sol     HW 6506   3.026   2.959   9.560 -1.0912 -0.1022  0.1869
  889Sol     HW 6507   3.046   2.971   9.710 -1.2365  0.7159  0.1424
  889Sol     MW 6508   3.038   3.013   9.631 -0.0070  1.2591 -0.0518
  890Sol     OW 6509   0.422   3.371   2.366 -0.1206  0.1221 -0.6705
  890Sol     HW 6510   0.430   3.467   2.372  1.0987  0.0491 -1.0830
  890Sol     HW 6511   0.432   3.341   2.456  0.2955  0.3239 -0.6481
  890Sol     MW 6512   0.423   3.377   2.374  0.3881 -0.4724  0.0801
  891Sol     OW 6513   3.024   0.986   2.782  0.3677  0.0690 -0.8444
  891Sol     HW 6514   3.046   1.079   2.779 -1.1896  0.4746 -0.6114
  891Sol     HW 6515   2.945   0.982   2.837  1.1637 -1.5379  0.2283
  891Sol     MW 6516   3.019   0.994   2.787 -0.8762 -0.3968 -0.3619
  892Sol     OW 6517   2.646   1.797   2.816  0.3853 -0.1564 -0.6529
  892Sol     HW 6518   2.720   1.841   2.859 -1.1426  1.5196  0.3224
  892Sol     HW 6519   2.591   1.869   2.784 -1.6818 -1.3630  0.1052
  892Sol     MW 6520   2.648   1.807   2.817  0.1826 -1.4223 -0.7475
  893Sol     OW 6521   2.064   3.010   2.242  0.3158  0.6359  1.0074
  893Sol     HW 6522   2.039   3.038   2.154 -2.8142 -2.5597  0.7761
  893Sol     HW 6523   2.105   2.924   2.229 -0.3438  0.0487  2.6842
  893Sol     MW 6524   2.065   3.004   2.233  0.3914  0.1447  0.1218
  894Sol     OW 6525   1.872   0.577   1.897 -0.3490  0.0223 -0.4430
  894Sol     HW 6526   1.918   0.657   1.922  1.2403 -1.1523  0.5518
  894Sol     HW 6527   1.927   0.539   1.828 -0.1848 -1.0254  0.2470
  894Sol     MW 6528   1.881   0.581   1.893 -0.1747 -0.1450 -0.0275
  895Sol     OW 6529   2.463   2.517   6.600 -0.2719  0.2731  0.1523
  895Sol     HW 6530   2.382   2.505   6.550  0.7365  1.6715 -1.9040
  895Sol     HW 6531   2.437   2.502   6.691 -2.3177 -1.6705 -0.6978
  895Sol     MW 6532   2.453   2.515   6.604 -1.0927 -0.2237 -0.5667
  896Sol     OW 6533   0.103   0.845   7.094  0.0407  0.1744 -0.6669
  896Sol     HW 6534   0.115   0.902   7.018 -1.4841  2.0609  0.4809
  896Sol     HW 6535   0.009   0.847   7.112  0.4234  0.0860  1.5132
  896Sol     MW 6536   0.096   0.850   7.089 -0.0202  0.1250  0.1525
  897Sol     OW 6537   2.933   0.317   1.500 -0.2517  0.2433  0.0287
  897Sol     HW 6538   2.952   0.282   1.413  0.4885 -0.0687  0.3101
  897Sol     HW 6539   2.873   0.390   1.484 -0.1809  0.1377 -0.7352
  897Sol     MW 6540   2.929   0.321   1.491  0.0892  0.7492  0.3917
  898Sol     OW 6541   2.178   2.746   3.517  0.2562 -0.1720  0.5466
  898Sol     HW 6542   2.203   2.673   3.574  1.3043 -1.9321 -2.0996
  898Sol     HW 6543   2.251   2.756   3.457 -0.5761  2.0478 -0.1396
  898Sol     MW 6544   2.187   2.740   3.517  0.6961  0.7333 -0.2718
  899Sol     OW 6545   3.179   2.282   4.413  0.7916  0.2191 -0.0807
  899Sol     HW 6546   3.196   2.215   4.347  0.8770  0.8048 -0.6580
  899Sol     HW 6547   3.245   2.349   4.397 -0.4191  1.2894 -0.6697
  899Sol     MW 6548   3.186   2.282   4.406 -0.5638  0.4257  0.2204
  900Sol     OW 6549   2.102   1.073   3.712 -0.5296  0.1733  0.4370
  900Sol     HW 6550   2.028   1.015   3.695 -0.6963  0.5170 -0.0124
  900Sol     HW 6551   2.121   1.114   3.628 -0.1902  0.5131  0.6733
  900Sol     MW 6552   2.097   1.072   3.703  0.2633  0.2124 -0.1159
  901Sol     OW 6553   1.524   3.055   5.219  0.5827  0.3603  0.2231
  901Sol     HW 6554   1.488   3.045   5.131 -0.7019 -1.4516  0.9105
  901Sol     HW 6555   1.577   2.977   5.233 -1.4268 -0.7440  2.0290
  901Sol     MW 6556   1.525   3.047   5.213 -0.3214 -0.0897 -0.0486
  902Sol     OW 6557   2.052   0.147   6.843  0.4967 -0.3830  0.4501
  902Sol     HW 6558   2.109   0.118   6.772  1.1895  1.1960  0.3237
  902Sol     HW 6559   1.963   0.139   6.808  0.9276  2.8056 -1.5945
  902Sol     MW 6560   2.049   0.144   6.834 -0.3272 -0.2867 -0.2565
  903Sol     OW 6561   2.458   3.254   1.890 -0.1987 -0.0726 -0.1006
  903Sol     HW 6562   2.430   3.163   1.877 -0.1388  0.0575 -1.1914
  903Sol     HW 6563   2.551   3.253   1.871 -0.0902  0.1122  0.4330
  903Sol     MW 6564   2.464   3.245   1.887  0.2063  0.5948  0.0047
  904Sol     OW 6565   1.493   1.319   5.914 -0.0010  0.0105  0.3163
  904Sol     HW 6566   1.437   1.384   5.955 -0.1769  0.4662 -0.6131
  904Sol     HW 6567   1.547   1.284   5.985  0.1304  1.2167  0.8181
  904Sol     MW 6568   1.493   1.322   5.924 -0.4781  0.1535  0.2175
  905Sol     OW 6569   2.606   3.049   2.212  0.4836 -0.0371  0.9331
  905Sol     HW 6570   2.554   2.991   2.157  1.2627 -0.0980  0.2426
  905Sol     HW 6571   2.558   3.132   2.212  0.6638  0.0786 -0.1561
  905Sol     MW 6572   2.597   3.051   2.207 -0.2967 -0.1289 -0.0466
  906Sol     OW 6573   2.304   2.423   7.643 -0.8298 -0.0153 -0.1085
  906Sol     HW 6574   2.340   2.511   7.652 -0.3227 -0.3033  0.7872
  906Sol     HW 6575   2.213   2.432   7.674 -1.3904  0.5996 -1.8868
  906Sol     MW 6576   2.299   2.432   7.647  0.1502  0.2566 -0.2371
  907Sol     OW 6577   2.340   1.385   5.582 -0.3023 -0.0359  0.1821
  907Sol     HW 6578   2.261   1.360   5.630  0.0101  1.5388  1.5787
  907Sol     HW 6579   2.308   1.435   5.507 -0.6211  1.4812  1.2969
  907Sol     MW 6580   2.330   1.388   5.580  0.3654 -0.4660  0.0411
  908Sol     OW 6581   2.613   1.766   3.903  0.3467 -0.0735  0.8572
  908Sol     HW 6582   2.700   1.738   3.872 -0.3903  0.0366 -1.3713
  908Sol     HW 6583   2.591   1.841   3.848 -0.7586  0.5344  2.0942
  908Sol     MW 6584   2.619   1.770   3.896  0.2151  0.6541  0.2617
  909Sol     OW 6585   0.459   2.580   7.801 -0.4855 -0.2379 -0.4516
  909Sol     HW 6586   0.490   2.500   7.759  1.6013  0.1470  0.2965
  909Sol     HW 6587   0.441   2.640   7.728 -0.1845 -0.7224 -0.9248
  909Sol     MW 6588   0.460   2.578   7.791 -0.5661 -0.3949  0.0304
  910Sol     OW 6589   2.385   0.998   3.603  0.0502 -0.2211  0.2308
  910Sol     HW 6590   2.323   1.040   3.663  1.9677  1.6017  1.0039
  910Sol     HW 6591   2.379   0.905   3.624 -1.9680 -0.0015  0.7189
  910Sol     MW 6592   2.379   0.994   3.610  0.3916  0.2393 -0.3281
  911Sol     OW 6593   2.942   2.018   6.896 -0.3892 -0.3989  0.4293
  911Sol     HW 6594   2.946   1.933   6.938  1.0240 -0.9689 -0.8414
  911Sol     HW 6595   3.027   2.030   6.855 -0.9198  1.1711 -0.2805
  911Sol     MW 6596   2.950   2.012   6.896  0.4807  0.5196  0.1793
  912Sol     OW 6597   2.499   1.814   1.429  0.3748 -0.1102 -0.0819
  912Sol     HW 6598   2.433   1.770   1.482  1.0779  0.2407  1.0993
  912Sol     HW 6599   2.580   1.765   1.447  0.8348  0.6770  0.0175
  912Sol     MW 6600   2.500   1.806   1.435 -0.6097  0.6044 -0.4183
  913Sol     OW 6601   2.804   0.260   8.721  0.4702  0.4376  0.0950
  913Sol     HW 6602   2.899   0.272   8.714  0.6065 -0.0931  0.9588
  913Sol     HW 6603   2.774   0.337   8.769  0.6996 -0.2330  1.3400
  913Sol     MW 6604   2.810   0.268   8.724  0.0154 -0.6446 -0.0276
  914Sol     OW 6605   0.949   3.068   7.283 -0.1478 -0.5324 -0.0556
  914Sol     HW 6606   1.029   3.085   7.236  0.8166  0.8354  2.0043
  914Sol     HW 6607   0.887   3.134   7.253 -0.6736 -1.8450 -1.9490
  914Sol     MW 6608   0.950   3.075   7.276 -0.4445 -0.5290 -0.2734
  915Sol     OW 6609   0.400   3.426   9.132  0.4506 -0.6908 -0.3612
  915Sol     HW 6610   0.363   3.341   9.107  0.9489 -1.4803  1.4728
  915Sol     HW 6611   0.372   3.439   9.222  1.5611  0.4292 -0.1629
  915Sol     MW 6612   0.395   3.419   9.137  0.2402  0.3740  0.4139
  916Sol     OW 6613   0.464   1.294   6.664 -0.4103  0.0222 -0.1799
  916Sol     HW 6614   0.481   1.276   6.571  1.5226  0.8531  0.0007
  916Sol     HW 6615   0.479   1.210   6.708 -1.6214 -0.4487 -0.6214
  916Sol     MW 6616   0.467   1.285   6.660  0.0793 -0.1305  0.1574
  917Sol     OW 6617   2.030   2.236   6.492 -0.0515 -0.1344  0.0791
  917Sol     HW 6618   2.016   2.320   6.536  0.5202  0.1222 -0.2167
  917Sol     HW 6619   1.943   2.206   6.468 -0.3622 -0.2350  1.3137
  917Sol     MW 6620   2.021   2.241   6.494 -0.3354  0.2506  0.2288
  918Sol     OW 6621   2.957   0.007   5.252 -0.3366 -0.6205 -0.4092
  918Sol     HW 6622   2.945   0.006   5.157  2.4448 -0.5691 -0.8070
  918Sol     HW 6623   2.902   0.079   5.282 -2.5290 -1.6815 -1.7668
  918Sol     MW 6624   2.951   0.013   5.246  0.7534 -0.2299 -0.3674
  919Sol     OW 6625   1.075   0.520   4.694  0.4762  0.0479 -0.3301
  919Sol     HW 6626   1.006   0.478   4.746 -0.2452  0.3864 -0.9965
  919Sol     HW 6627   1.032   0.595   4.654  1.4958  0.8405  0.0360
  919Sol     MW 6628   1.065   0.523   4.696 -0.0176 -0.3669 -0.4717
  920Sol     OW 6629   1.080   0.012   4.765 -0.1712 -0.9588  0.2875
  920Sol     HW 6630   1.011   0.073   4.792  0.0837 -1.2147  1.5379
  920Sol     HW 6631   1.107   0.044   4.679 -1.5864 -0.6397 -0.0589
  920Sol     MW 6632   1.076   0.021   4.759  0.6999 -0.0772  0.5966
  921Sol     OW 6633   1.322   2.342   6.837  0.1553  0.5637 -0.3434
  921Sol     HW 6634   1.316   2.421   6.783 -0.8723  0.6943 -0.0504
  921Sol     HW 6635   1.343   2.375   6.924 -2.7531  0.7633  0.3515
  921Sol     MW 6636   1.323   2.352   6.840 -0.0776  0.8360  0.4447
  922Sol     OW 6637   2.522   0.824   2.659  0.1242  0.1872 -0.1490
  922Sol     HW 6638   2.584   0.783   2.720  0.6688  0.1321 -0.7377
  922Sol     HW 6639   2.536   0.918   2.670 -0.7000  0.2175  0.7598
  922Sol     MW 6640   2.528   0.828   2.666 -0.6776 -0.8905 -0.4615
  923Sol     OW 6641   1.080   0.565   1.883 -0.1130 -0.3877 -0.0713
  923Sol     HW 6642   1.070   0.586   1.790 -1.0656 -0.5613 -0.0123
  923Sol     HW 6643   1.163   0.605   1.908  0.2057 -0.4417 -1.0269
  923Sol     MW 6644   1.086   0.570   1.877  0.3167  0.2471  0.3408
  924Sol     OW 6645   2.004   1.046   7.205  0.2720 -0.2786 -0.1500
  924Sol     HW 6646   1.940   1.104   7.247  0.1739 -0.7711  0.3928
  924Sol     HW 6647   2.089   1.086   7.225  0.2190 -0.4562  0.4278
  924Sol     MW 6648   2.006   1.055   7.210  0.2121 -1.0059  0.1321
  925Sol     OW 6649   0.158   2.866   6.228 -0.6573  0.4055 -0.5550
  925Sol     HW 6650   0.235   2.868   6.171 -1.0808  0.3494 -1.1289
  925Sol     HW 6651   0.184   2.918   6.304 -0.0814  0.4598 -0.7838
  925Sol     MW 6652   0.167   2.871   6.230 -0.4438  0.5158 -0.3475
  926Sol     OW 6653   0.635   0.178   6.775  0.3122 -0.3840  0.1145
  926Sol     HW 6654   0.709   0.221   6.732  0.3456 -0.9443 -0.4027
  926Sol     HW 6655   0.558   0.225   6.743  0.3479 -0.7073 -0.4619
  926Sol     MW 6656   0.635   0.186   6.768 -0.1543  0.6221 -0.5728
  927Sol     OW 6657   2.889   1.132   3.720 -0.0435 -0.1579  0.9204
  927Sol     HW 6658   2.806   1.156   3.680  0.3146 -0.2577  0.1117
  927Sol     HW 6659   2.866   1.107   3.810 -0.9472 -0.6145  0.5674
  927Sol     MW 6660   2.880   1.132   3.725 -0.1640  0.5400  0.3463
  928Sol     OW 6661   2.383   0.720   5.045  0.1242  0.4687  0.0159
  928Sol     HW 6662   2.302   0.753   5.083 -0.6642 -1.8874  0.4594
  928Sol     HW 6663   2.357   0.642   4.996  1.7346  1.1821 -2.1010
  928Sol     MW 6664   2.374   0.716   5.044 -0.2319 -0.6401  0.8785
  929Sol     OW 6665   3.223   2.171   5.665  0.6459  0.1246 -0.0650
  929Sol     HW 6666   3.203   2.078   5.658  0.1632  0.1810  0.4805
  929Sol     HW 6667   3.138   2.213   5.676  0.8086  0.7009 -0.9976
  929Sol     MW 6668   3.213   2.167   5.666  0.4347 -0.0622  0.5779
  930Sol     OW 6669   1.267   1.523   4.476  0.2369  0.2870 -0.0574
  930Sol     HW 6670   1.264   1.575   4.556  0.8612 -0.3804  0.4164
  930Sol     HW 6671   1.327   1.451   4.498 -1.0893 -0.9705 -0.4862
  930Sol     MW 6672   1.272   1.521   4.486 -0.3610  0.0618  0.9976
  931Sol     OW 6673   2.904   1.863   9.088 -0.3786  0.2493 -0.2681
  931Sol     HW 6674   2.831   1.815   9.129  0.5205 -0.5465  0.4130
  931Sol     HW 6675   2.952   1.901   9.161  1.4458 -1.4707 -0.5380
  931Sol     MW 6676   2.901   1.862   9.098  0.0004 -0.2306 -0.2602
  932Sol     OW 6677   2.325   2.587   4.439  0.4658  0.0924  0.2477
  932Sol     HW 6678   2.268   2.576   4.516  2.1896  1.5248  1.7752
  932Sol     HW 6679   2.310   2.678   4.412 -0.8964 -0.7073 -1.7763
  932Sol     MW 6680   2.318   2.594   4.444 -0.0870  0.1420 -0.7078
  933Sol     OW 6681   2.024   0.271   3.493 -0.3946 -0.3245  0.1537
  933Sol     HW 6682   2.028   0.277   3.397 -0.8069 -1.5875  0.0522
  933Sol     HW 6683   2.029   0.362   3.522  2.4531 -0.0569 -0.9665
  933Sol     MW 6684   2.025   0.280   3.487 -0.0045  0.0154  0.1648
  934Sol     OW 6685   0.530   1.779   7.192 -0.4670 -0.1237  0.0339
  934Sol     HW 6686   0.556   1.705   7.136  0.0215  0.8896 -1.0968
  934Sol     HW 6687   0.602   1.787   7.255 -0.5126 -0.6010  0.1513
  934Sol     MW 6688   0.539   1.773   7.193 -0.4768 -0.8178 -0.4429
  935Sol     OW 6689   2.354   1.025   1.549  0.5004 -0.5801 -0.1533
  935Sol     HW 6690   2.428   1.017   1.610  0.2686 -1.4950  0.0175
  935Sol     HW 6691   2.285   1.066   1.600  0.4618 -0.9158  0.0651
  935Sol     MW 6692   2.355   1.028   1.559  0.4746  0.5307  0.9877
  936Sol     OW 6693   2.828   3.050   5.395  0.5557  0.2347  0.9747
  936Sol     HW 6694   2.854   2.988   5.463 -0.7376 -1.1185  0.2806
  936Sol     HW 6695   2.866   3.015   5.315 -0.4363  0.1597  0.5248
  936Sol     MW 6696   2.833   3.041   5.394  0.2694 -0.5635  0.2657
  937Sol     OW 6697   2.627   2.995   2.720 -0.5575 -0.0602 -0.0136
  937Sol     HW 6698   2.537   2.982   2.691 -0.5160  0.2142 -0.2742
  937Sol     HW 6699   2.677   3.009   2.639 -0.5223  1.1831  0.2129
  937Sol     MW 6700   2.624   2.995   2.710  0.3263  0.3180 -0.0895
  938Sol     OW 6701   0.278   3.234   5.350  0.1078  0.1235 -0.0490
  938Sol     HW 6702   0.217   3.236   5.425 -1.7004  0.6934 -1.4925
  938Sol     HW 6703   0.237   3.173   5.288 -0.2045  2.2609 -2.0126
  938Sol     MW 6704   0.269   3.229   5.352 -0.1113  0.0713  0.3435
  939Sol     OW 6705   2.723   0.708   3.772  0.3577 -0.3816 -0.4247
  939Sol     HW 6706   2.661   0.740   3.838 -0.1103 -1.8478 -0.1460
  939Sol     HW 6707   2.675   0.641   3.724  0.7085  0.6248 -2.2537
  939Sol     MW 6708   2.713   0.705   3.774  1.1710  0.6837 -0.8702
  940Sol     OW 6709   1.825   1.029   7.531 -0.8488 -0.1341 -0.0744
  940Sol     HW 6710   1.880   1.096   7.572  0.7640 -0.0129 -2.3678
  940Sol     HW 6711   1.780   1.074   7.460  0.6491 -1.5574 -1.9784
  940Sol     MW 6712   1.826   1.039   7.529  0.3034  0.2052  0.1518
  941Sol     OW 6713   3.302   2.866   8.780 -0.3086  0.3389 -0.0744
  941Sol     HW 6714   3.370   2.925   8.747 -0.0173  0.5079  0.8234
  941Sol     HW 6715   3.318   2.784   8.732  1.2049  0.0408  0.8998
  941Sol     MW 6716   3.310   2.864   8.772 -0.0345 -0.4139  0.0792
  942Sol     OW 6717   2.263   0.514   3.998  0.0175  0.1749 -0.0623
  942Sol     HW 6718   2.301   0.559   3.923 -1.3601 -0.6214 -1.2632
  942Sol     HW 6719   2.243   0.426   3.966 -3.5943  0.8063  0.2297
  942Sol     MW 6720   2.265   0.510   3.989 -0.6210 -0.2985 -0.6716
  943Sol     OW 6721   0.571   1.472   7.834  0.3459  0.4707  0.3400
  943Sol     HW 6722   0.647   1.447   7.885  0.7178 -0.0492 -0.4556
  943Sol     HW 6723   0.526   1.390   7.816 -0.7090  0.8336  1.2757
  943Sol     MW 6724   0.574   1.463   7.837  0.3408 -0.0945 -0.6575
  944Sol     OW 6725   1.676   2.369   6.931 -0.6562 -0.1884 -0.1422
  944Sol     HW 6726   1.617   2.300   6.961 -1.0109  0.4764  0.6908
  944Sol     HW 6727   1.753   2.361   6.988  0.3222 -1.4128 -1.5793
  944Sol     MW 6728   1.678   2.362   6.939  0.8776  0.2353 -0.0818
  945Sol     OW 6729   0.709   1.237   4.358  0.0528  0.2636  0.5528
  945Sol     HW 6730   0.715   1.211   4.449  3.9920  2.3183  1.0142
  945Sol     HW 6731   0.783   1.193   4.315 -0.9790  0.3190 -1.3652
  945Sol     MW 6732   0.717   1.231   4.362 -0.3370 -0.0732 -0.1817
  946Sol     OW 6733   2.273   1.350   5.955 -0.4544 -0.1809 -0.2200
  946Sol     HW 6734   2.300   1.435   5.989  1.5634 -1.0303  0.4247
  946Sol     HW 6735   2.249   1.299   6.032  0.0556 -0.7524 -0.4271
  946Sol     MW 6736   2.273   1.353   5.965 -0.5879 -0.0733 -0.0249
  947Sol     OW 6737   0.554   1.673   8.401  0.2885  0.0344  0.4518
  947Sol     HW 6738   0.471   1.626   8.397  0.2592  0.0957  0.3115
  947Sol     HW 6739   0.617   1.610   8.436  0.3245 -0.2210 -0.0583
  947Sol     MW 6740   0.553   1.663   8.403 -0.6530 -0.9340  0.7782
  948Sol     OW 6741   2.146   0.216   8.266  0.0141 -0.0641 -0.2746
  948Sol     HW 6742   2.120   0.270   8.340 -0.3370 -1.0162  0.3076
  948Sol     HW 6743   2.065   0.201   8.217  0.1663  0.1910 -0.6117
  948Sol     MW 6744   2.137   0.219   8.268 -0.5872  0.6921 -0.1121
  949Sol     OW 6745   1.441   1.088   9.423 -0.1349  0.7426  0.7343
  949Sol     HW 6746   1.468   1.044   9.504 -0.4492 -1.0757 -0.1295
  949Sol     HW 6747   1.518   1.084   9.367 -0.7167 -0.2610  0.0047
  949Sol     MW 6748   1.451   1.084   9.425  0.0548  0.1929 -0.2294
  950Sol     OW 6749   0.742   0.785   3.225  0.1013 -0.1953  0.5858
  950Sol     HW 6750   0.822   0.751   3.266  0.8135  0.1435 -0.4975
  950Sol     HW 6751   0.675   0.721   3.248  0.8495 -0.9025  0.8557
  950Sol     MW 6752   0.743   0.776   3.231 -0.1246  0.4777  0.1634
  951Sol     OW 6753   0.441   1.026   8.121  0.5627  0.5526 -0.2021
  951Sol     HW 6754   0.401   0.948   8.157 -0.0560  0.3268 -1.3411
  951Sol     HW 6755   0.369   1.089   8.114  1.3438  1.7680  2.1211
  951Sol     MW 6756   0.431   1.025   8.123  0.4004 -0.7030 -0.4447
  952Sol     OW 6757   2.949   2.434   6.710 -0.5893 -0.6621 -0.5198
  952Sol     HW 6758   2.999   2.497   6.762 -0.1375 -0.7992 -0.7854
  952Sol     HW 6759   2.901   2.382   6.775  0.8609 -1.5936 -0.1606
  952Sol     MW 6760   2.949   2.435   6.720 -0.0137  0.2566 -0.6099
  953Sol     OW 6761   2.643   1.801   3.199 -0.1968 -0.3664  0.8400
  953Sol     HW 6762   2.728   1.824   3.236  0.2837 -0.3605 -0.2687
  953Sol     HW 6763   2.660   1.728   3.140 -0.7880  0.3340 -0.2087
  953Sol     MW 6764   2.652   1.797   3.197  0.0601  0.0446  0.6391
  954Sol     OW 6765   1.339   1.752   2.055 -0.5682  0.3091 -0.0842
  954Sol     HW 6766   1.252   1.789   2.070 -0.4524  0.3537  0.5188
  954Sol     HW 6767   1.394   1.796   2.120 -0.1659  0.0398 -0.2452
  954Sol     MW 6768   1.336   1.759   2.062 -0.6048 -0.2903 -0.4599
  955Sol     OW 6769   0.229   2.502   7.036 -0.5872  0.2164  0.0025
  955Sol     HW 6770   0.203   2.430   7.093 -1.1984  1.3879  1.2189
  955Sol     HW 6771   0.265   2.569   7.095  2.7002 -0.2423 -1.3817
  955Sol     MW 6772   0.230   2.502   7.046  0.1070  0.3248 -0.2539
  956Sol     OW 6773   2.264   0.549   7.309 -0.6221 -0.1601 -0.3014
  956Sol     HW 6774   2.251   0.454   7.307 -0.1420 -0.2086 -2.5246
  956Sol     HW 6775   2.259   0.576   7.217  0.0854  1.8460  0.2198
  956Sol     MW 6776   2.263   0.543   7.300  0.4973 -0.2039 -0.0227
  957Sol     OW 6777   0.426   1.232   2.380  0.7740 -0.1308 -0.2432
  957Sol     HW 6778   0.402   1.324   2.373 -0.7703 -0.4306  0.8506
  957Sol     HW 6779   0.353   1.185   2.340  0.3104 -0.9834  1.5526
  957Sol     MW 6780   0.417   1.236   2.376  0.6871 -0.3028 -0.4852
  958Sol     OW 6781   1.912   3.419   2.447  0.4820 -0.0709 -0.4443
  958Sol     HW 6782   1.850   3.420   2.375  3.0264 -2.9686 -2.8666
  958Sol     HW 6783   1.963   3.499   2.437 -0.9178  0.8591 -0.2043
  958Sol     MW 6784   1.911   3.426   2.440 -0.1997  0.1395  0.0470
  959Sol     OW 6785   0.020   2.648   4.825 -0.8278 -0.4218  0.0193
  959Sol     HW 6786  -0.032   2.596   4.764 -1.5476  0.6505 -0.2975
  959Sol     HW 6787   0.032   2.732   4.780  0.3491 -0.3252  0.5061
  959Sol     MW 6788   0.017   2.651   4.815 -0.0792 -0.3901 -0.1484
  960Sol     OW 6789   1.524   0.150   7.635  0.1277  0.1698 -0.1353
  960Sol     HW 6790   1.562   0.072   7.593  1.7142  1.2674 -0.7876
  960Sol     HW 6791   1.598   0.192   7.678 -0.7730  1.1953  0.4272
  960Sol     MW 6792   1.534   0.147   7.635  0.5872  0.7385 -0.3745
  961Sol     OW 6793   0.211   1.694   2.776  0.0592  0.1709  0.2969
  961Sol     HW 6794   0.241   1.780   2.747  2.3179  0.0025  2.0207
  961Sol     HW 6795   0.182   1.651   2.695  3.3150  0.8456 -1.3640
  961Sol     MW 6796   0.211   1.698   2.766  0.0966  0.6721  0.2700
  962Sol     OW 6797   2.645   2.100   6.654 -0.0448  0.3718  0.1402
  962Sol     HW 6798   2.569   2.044   6.666 -0.6796  1.2699  0.3771
  962Sol     HW 6799   2.715   2.040   6.630 -0.5796 -0.5855  0.8997
  962Sol     MW 6800   2.644   2.090   6.653  0.3413  0.2502 -0.1138
  963Sol     OW 6801   3.171   3.333   8.978 -0.0655 -0.3180  0.3162
  963Sol     HW 6802   3.094   3.357   9.029 -0.7296  0.3214 -0.9522
  963Sol     HW 6803   3.209   3.417   8.952  0.6320 -0.6357  0.3078
  963Sol     MW 6804   3.167   3.343   8.980 -0.1388 -0.3529 -0.5035
  964Sol     OW 6805   1.514   3.320   8.148  0.0781 -0.4526 -0.4477
  964Sol     HW 6806   1.443   3.374   8.181 -1.4189 -2.5966 -0.0413
  964Sol     HW 6807   1.509   3.329   8.053 -0.9724 -0.8629 -0.4348
  964Sol     MW 6808   1.507   3.325   8.142 -0.7605  1.1776 -0.2270
  965Sol     OW 6809   1.949   2.749   8.617 -0.4283 -0.1900 -0.0931
  965Sol     HW 6810   2.014   2.681   8.600  0.0522  0.8705 -2.7373
  965Sol     HW 6811   1.994   2.811   8.674  0.0073 -0.7329  0.1678
  965Sol     MW 6812   1.959   2.748   8.620  0.2217  0.1314  0.4125
  966Sol     OW 6813   1.382   2.787   9.673  0.1988  0.1789  0.2800
  966Sol     HW 6814   1.350   2.724   9.737 -2.4964 -0.4969 -1.6706
  966Sol     HW 6815   1.403   2.735   9.595  1.7245  1.2011 -0.0280
  966Sol     MW 6816   1.381   2.777   9.671  0.3471 -0.0709 -0.1331
  967Sol     OW 6817   1.104   1.661   5.062  0.6062 -0.6818  0.0294
  967Sol     HW 6818   1.190   1.684   5.026  1.0228  0.5160  1.7466
  967Sol     HW 6819   1.119   1.647   5.155 -1.0054 -0.8325  0.2915
  967Sol     MW 6820   1.113   1.662   5.067  0.4467 -0.3629 -0.2293
  968Sol     OW 6821   0.936   3.431   4.489 -0.3573  0.5621  1.0369
  968Sol     HW 6822   0.949   3.338   4.473 -1.9296  0.8385 -2.2608
  968Sol     HW 6823   1.023   3.465   4.508  0.3536 -1.4140  1.4210
  968Sol     MW 6824   0.945   3.426   4.490 -0.2510  0.2230  0.5716
  969Sol     OW 6825   2.670   0.793   7.446  0.4412  1.2668 -0.1325
  969Sol     HW 6826   2.728   0.754   7.510 -0.7071  0.0202  0.1708
  969Sol     HW 6827   2.640   0.719   7.392 -3.2880  1.3562  1.6664
  969Sol     MW 6828   2.672   0.783   7.447 -0.0249 -0.0831 -0.3641
  970Sol     OW 6829   2.395   0.588   7.668  0.2940  0.0475 -0.0628
  970Sol     HW 6830   2.435   0.515   7.619  2.8233  2.0504 -1.0680
  970Sol     HW 6831   2.343   0.545   7.736  1.4978 -2.6997 -0.8029
  970Sol     MW 6832   2.394   0.577   7.669  0.0610 -0.3296 -0.0794
  971Sol     OW 6833   0.720   3.414   2.509  0.3056  0.3295 -0.4860
  971Sol     HW 6834   0.799   3.419   2.456  1.2784 -0.7275  0.8107
  971Sol     HW 6835   0.654   3.377   2.451  1.9614 -3.0255 -0.3377
  971Sol     MW 6836   0.721   3.411   2.499 -0.8196  0.1079 -0.2576
  972Sol     OW 6837   2.010   0.711   3.051 -0.3514  0.7095  0.5432
  972Sol     HW 6838   1.937   0.677   3.000  1.0259 -0.1898 -0.8670
  972Sol     HW 6839   2.043   0.635   3.099  0.8765  0.6636 -0.3456
  972Sol     MW 6840   2.007   0.701   3.051  0.0874 -0.1592  0.2098
  973Sol     OW 6841   0.297   2.334   3.112  0.6327  0.0462  0.1293
  973Sol     HW 6842   0.268   2.294   3.194  0.0835  1.4428  0.6238
  973Sol     HW 6843   0.392   2.330   3.115  0.6004 -0.3616  0.5963
  973Sol     MW 6844   0.303   2.330   3.119 -0.1438  0.0081  0.0057
  974Sol     OW 6845   1.923   2.935   5.260  0.4159  0.8396  0.0570
  974Sol     HW 6846   1.845   2.917   5.312  1.0782 -0.0092  0.7856
  974Sol     HW 6847   1.907   3.020   5.220  0.0737  1.7165  2.0252
  974Sol     MW 6848   1.915   2.941   5.261 -0.1082 -0.2923 -0.3373
  975Sol     OW 6849   3.073   2.031   4.610 -0.0077 -0.0988 -0.2150
  975Sol     HW 6850   3.157   2.078   4.609 -0.2269  0.4373  2.0926
  975Sol     HW 6851   3.061   2.008   4.702 -1.5042 -1.8050 -0.8237
  975Sol     MW 6852   3.080   2.033   4.619  0.1529  0.0538 -0.3178
  976Sol     OW 6853   3.104   2.859   6.010 -0.2529 -0.4258  0.0771
  976Sol     HW 6854   3.091   2.779   6.061  1.2197  0.1897  1.4495
  976Sol     HW 6855   3.155   2.830   5.934 -0.1683 -0.8783  0.3049
  976Sol     MW 6856   3.107   2.849   6.008  1.0793  0.5937  0.4850
  977Sol     OW 6857   2.390   2.103   1.485  0.2189  0.5249  0.2023
  977Sol     HW 6858   2.321   2.126   1.423 -0.2547 -0.0319  0.5225
  977Sol     HW 6859   2.426   2.020   1.452 -0.4842 -0.1185  1.0395
  977Sol     MW 6860   2.387   2.098   1.477 -0.2445  0.2566  0.2295
  978Sol     OW 6861   0.703   1.164   2.378 -0.3832  0.1621  0.2951
  978Sol     HW 6862   0.612   1.144   2.398 -0.2314  1.3963  2.3574
  978Sol     HW 6863   0.754   1.098   2.425 -0.1515  0.5210  0.5475
  978Sol     MW 6864   0.699   1.156   2.384  1.0999  0.0294  0.3210
  979Sol     OW 6865   3.065   1.259   7.180  0.1915 -0.1397  0.3797
  979Sol     HW 6866   3.008   1.183   7.187  0.2653 -0.1283  1.1392
  979Sol     HW 6867   3.147   1.225   7.143  0.4208 -0.5326  1.2436
  979Sol     MW 6868   3.067   1.249   7.178 -0.3837 -0.5035  0.0527
  980Sol     OW 6869   2.761   1.456   2.022  0.3594 -0.8552  0.6895
  980Sol     HW 6870   2.670   1.474   2.044  0.0801 -0.9616 -0.3790
  980Sol     HW 6871   2.806   1.539   2.038 -0.3485 -0.1188 -1.0869
  980Sol     MW 6872   2.757   1.465   2.026  0.8382 -0.0527 -0.5075
  981Sol     OW 6873   0.099   2.446   9.367  0.6869 -0.1174  0.0971
  981Sol     HW 6874   0.164   2.484   9.307 -2.2905  0.9449 -2.6673
  981Sol     HW 6875   0.117   2.487   9.451  4.4699 -0.9658 -0.2348
  981Sol     MW 6876   0.106   2.453   9.369 -0.0061  0.0984  0.4066
  982Sol     OW 6877   0.619   1.809   4.299 -0.2637  0.2524 -0.6196
  982Sol     HW 6878   0.597   1.810   4.393 -1.8393  0.5393 -0.9760
  982Sol     HW 6879   0.598   1.897   4.269 -1.5520 -0.3977 -1.6381
  982Sol     MW 6880   0.615   1.817   4.305  0.2441  1.0562  0.1517
  983Sol     OW 6881   1.349   1.345   6.343 -0.4391 -0.5532  0.4101
  983Sol     HW 6882   1.428   1.305   6.381 -0.3901 -0.6238  0.2319
  983Sol     HW 6883   1.289   1.353   6.417 -0.3281 -0.6580  0.5112
  983Sol     MW 6884   1.351   1.342   6.353 -0.1625  0.0809 -0.4064
  984Sol     OW 6885   2.393   1.123   5.778  0.2862  0.0391  0.0456
  984Sol     HW 6886   2.302   1.093   5.776  0.2619  0.1977 -2.2877
  984Sol     HW 6887   2.388   1.214   5.807 -0.2898  0.0887 -0.2155
  984Sol     MW 6888   2.384   1.128   5.781  0.6174 -0.0750  0.2325
  985Sol     OW 6889   2.140   2.516   4.969 -0.3458  0.3200 -0.4652
  985Sol     HW 6890   2.085   2.552   4.899  0.2061  0.1095 -1.0136
  985Sol     HW 6891   2.209   2.582   4.981 -0.5327  0.4322 -0.0017
  985Sol     MW 6892   2.141   2.525   4.964  0.3033  0.6539 -0.1416
  986Sol     OW 6893   0.474   1.539   2.082  0.4465 -0.2117  0.2263
  986Sol     HW 6894   0.450   1.630   2.064 -1.1623 -0.5115  0.7161
  986Sol     HW 6895   0.564   1.543   2.112  0.2333  1.2853  0.6976
  986Sol     MW 6896   0.480   1.547   2.083 -0.3863 -0.5500  0.2752
  987Sol     OW 6897   0.744   3.433   9.967  0.2292 -0.0919  1.1838
  987Sol     HW 6898   0.707   3.356  10.010  1.1935 -1.1537  0.1581
  987Sol     HW 6899   0.831   3.404   9.937  0.6789  1.4514  0.9662
  987Sol     MW 6900   0.748   3.423   9.968  0.5084  0.0657  0.3709
  988Sol     OW 6901   0.870   0.333   3.361  0.0657  0.4845  0.0614
  988Sol     HW 6902   0.839   0.295   3.279 -1.6983 -0.0822  0.9828
  988Sol     HW 6903   0.903   0.258   3.411 -0.8224  0.5374  0.7303
  988Sol     MW 6904   0.871   0.323   3.358 -0.0946 -0.5249  0.4455
  989Sol     OW 6905   1.002   3.208   5.424  0.3584 -0.1403 -0.3174
  989Sol     HW 6906   1.010   3.125   5.471 -0.1906  0.9273  1.7519
  989Sol     HW 6907   1.088   3.250   5.434 -0.2860  0.8571  1.3112
  989Sol     MW 6908   1.010   3.205   5.430 -0.5589  0.6267 -0.0366
  990Sol     OW 6909   1.588   3.158   2.310  0.0307 -0.1260  0.0664
  990Sol     HW 6910   1.666   3.104   2.316  0.9676  1.4485  3.0165
  990Sol     HW 6911   1.621   3.248   2.312 -1.6986  0.6007 -1.7881
  990Sol     MW 6912   1.598   3.161   2.310  0.4559 -0.2000 -0.5687
  991Sol     OW 6913   1.099   3.102   7.641  0.0786  0.3937  0.3513
  991Sol     HW 6914   1.030   3.167   7.631  0.9543  1.1416 -1.0914
  991Sol     HW 6915   1.052   3.021   7.660 -1.3254  0.6029 -1.9175
  991Sol     MW 6916   1.088   3.101   7.642 -0.0374  0.3658  0.1876
  992Sol     OW 6917   0.282   2.483   8.550  0.8680  0.2652 -0.1889
  992Sol     HW 6918   0.284   2.389   8.570 -0.4313  0.1961 -0.3702
  992Sol     HW 6919   0.233   2.488   8.468  2.0725  0.9871 -0.8870
  992Sol     MW 6920   0.278   2.475   8.544  0.0609  0.6267 -0.6027
  993Sol     OW 6921   3.069   2.656   6.189  0.0453  0.6157  0.1069
  993Sol     HW 6922   2.995   2.691   6.239 -0.3805  1.1195 -0.8773
  993Sol     HW 6923   3.049   2.562   6.181 -0.0503  0.5895  0.5848
  993Sol     MW 6924   3.060   2.651   6.193 -0.0810  0.2329 -0.1485
  994Sol     OW 6925   0.953   0.734   4.576 -0.1334  0.2847  0.0889
  994Sol     HW 6926   1.000   0.808   4.536  1.3568 -1.6731 -1.8963
  994Sol     HW 6927   0.885   0.775   4.629  0.6191  3.0852 -1.0086
  994Sol     MW 6928   0.951   0.744   4.577  0.1610 -0.4884  0.4844
  995Sol     OW 6929   2.640   2.200   2.193  0.1530 -0.3560  0.3755
  995Sol     HW 6930   2.577   2.271   2.179  0.4827 -0.1606 -0.1472
  995Sol     HW 6931   2.674   2.216   2.282 -0.3760 -0.3415  0.5759
  995Sol     MW 6932   2.637   2.208   2.200  0.3185  0.0851  0.2058
  996Sol     OW 6933   1.754   3.301   7.700  0.1652  0.2055 -0.0845
  996Sol     HW 6934   1.781   3.210   7.688  2.8673  0.3539  3.7475
  996Sol     HW 6935   1.763   3.341   7.614  1.0280 -2.6342 -1.3726
  996Sol     MW 6936   1.757   3.297   7.691 -0.3186 -0.6774 -0.0565
  997Sol     OW 6937   0.218   1.433   3.928  0.4253  0.0546 -0.3138
  997Sol     HW 6938   0.135   1.389   3.913  0.2845  0.2095  0.0173
  997Sol     HW 6939   0.209   1.474   4.014  0.6055  0.6100 -0.5557
  997Sol     MW 6940   0.210   1.433   3.934  0.0648 -0.5232  0.0377
  998Sol     OW 6941   0.450   2.070   2.328  0.6801  0.1438  0.2678
  998Sol     HW 6942   0.442   2.091   2.421  1.5196 -0.7546  0.5529
  998Sol     HW 6943   0.396   1.991   2.317 -0.2136  0.8151 -0.2131
  998Sol     MW 6944   0.444   2.065   2.335  0.3252 -0.5282  0.4586
  999Sol     OW 6945   0.544   2.279   5.807  0.1568 -0.2969 -0.6918
  999Sol     HW 6946   0.574   2.330   5.882  0.3288 -0.9220 -0.3259
  999Sol     HW 6947   0.463   2.236   5.838 -0.1223 -0.0485 -1.0741
  999Sol     MW 6948   0.539   2.279   5.817 -0.5476 -0.4284 -1.0974
 1000Sol     OW 6949   0.487   2.934   2.497  0.2792  0.1721 -0.6782
 1000Sol     HW 6950   0.400   2.972   2.511  1.1691  2.3731 -1.0028
 1000Sol     HW 6951   0.540   3.006   2.462  2.9594 -0.4302  1.9635
 1000Sol     MW 6952   0.484   2.944   2.495  0.1700  0.5415 -0.1068
 1001Sol     OW 6953   2.646   3.352   3.199  0.4037  0.3940 -0.2557
 1001Sol     HW 6954   2.675   3.263   3.219  0.6870  0.4136 -0.5676
 1001Sol     HW 6955   2.672   3.366   3.108 -2.4136 -0.3436 -1.2271
 1001Sol     MW 6956   2.651   3.345   3.193 -0.9755 -0.3587 -0.2309
 1002Sol     OW 6957   1.686   2.034   2.258  0.6271 -0.0569 -0.0485
 1002Sol     HW 6958   1.604   1.984   2.258  0.3237  0.3829 -1.9969
 1002Sol     HW 6959   1.715   2.034   2.349 -0.8540 -1.3494  0.4370
 1002Sol     MW 6960   1.682   2.029   2.266 -0.1710  0.6389 -0.2347
 1003Sol     OW 6961   1.137   2.885   6.174  0.1230  0.1718  0.0874
 1003Sol     HW 6962   1.048   2.902   6.143 -0.6685 -0.3605  1.9496
 1003Sol     HW 6963   1.154   2.794   6.151  0.0253  0.1615  0.0561
 1003Sol     MW 6964   1.130   2.878   6.169  0.1735  0.1314 -0.2511
 1004Sol     OW 6965   1.682   2.689   7.280  0.0023  0.1721  0.4189
 1004Sol     HW 6966   1.629   2.642   7.345  1.5050 -1.0828  0.7704
 1004Sol     HW 6967   1.729   2.755   7.331 -1.5101  1.5530  0.0461
 1004Sol     MW 6968   1.681   2.690   7.291  0.2263 -0.4495 -0.0021
 1005Sol     OW 6969   0.316   0.771   7.885 -0.0496  0.1208 -0.1907
 1005Sol     HW 6970   0.279   0.857   7.868 -1.5512 -0.3343  0.6983
 1005Sol     HW 6971   0.348   0.775   7.975 -1.9192 -0.8448  0.5465
 1005Sol     MW 6972   0.316   0.779   7.891 -0.0506  0.6061 -0.1595
 1006Sol     OW 6973   1.792   2.602   3.442 -0.0198 -0.2719 -0.0749
 1006Sol     HW 6974   1.761   2.693   3.450  0.2668 -0.1999  0.2431
 1006Sol     HW 6975   1.781   2.581   3.350 -0.8742 -0.1954  0.0094
 1006Sol     MW 6976   1.789   2.609   3.435 -0.1262 -0.7996 -0.3485
 1007Sol     OW 6977   0.372   0.226   7.152  0.1540 -0.4231  0.0690
 1007Sol     HW 6978   0.434   0.298   7.142  1.1325 -1.2697 -0.0241
 1007Sol     HW 6979   0.292   0.268   7.183 -0.2833  1.1578 -3.0070
 1007Sol     MW 6980   0.370   0.236   7.154 -0.0427 -0.3066 -0.3331
 1008Sol     OW 6981   1.951   0.657   7.934  0.4064 -0.3188  0.1254
 1008Sol     HW 6982   1.960   0.720   7.863 -0.9484 -0.5437 -0.2446
 1008Sol     HW 6983   1.876   0.603   7.910 -0.7716  0.3053  2.2624
 1008Sol     MW 6984   1.945   0.658   7.926  0.2707  0.1806 -0.1612
 1009Sol     OW 6985   1.584   1.312   6.788 -0.3469 -0.4797  0.0035
 1009Sol     HW 6986   1.613   1.248   6.853  0.3039 -0.1680  0.0287
 1009Sol     HW 6987   1.496   1.285   6.764 -0.4850 -0.7491  0.8242
 1009Sol     MW 6988   1.579   1.304   6.792  0.6764 -0.0362 -0.6236
 1010Sol     OW 6989   2.209   2.263   5.776 -0.0341  0.5605  0.6320
 1010Sol     HW 6990   2.147   2.297   5.711 -1.0581 -1.3346  0.5920
 1010Sol     HW 6991   2.251   2.189   5.733  0.0362 -0.0605  1.7601
 1010Sol     MW 6992   2.207   2.259   5.766 -0.4414  0.3186 -0.0476
 1011Sol     OW 6993   0.417   2.321   3.615 -0.0862 -0.4907  0.4211
 1011Sol     HW 6994   0.464   2.248   3.655  0.9361  0.0506  0.2184
 1011Sol     HW 6995   0.337   2.328   3.666  0.3366 -1.0223  1.1699
 1011Sol     MW 6996   0.414   2.315   3.623 -0.0791  0.4071  0.1754
 1012Sol     OW 6997   3.181   1.324   6.585  0.0916  0.3474 -0.4043
 1012Sol     HW 6998   3.260   1.313   6.532  0.0357  1.8990 -0.8365
 1012Sol     HW 6999   3.211   1.367   6.665 -0.1486 -0.1044 -0.0666
 1012Sol     MW 7000   3.191   1.326   6.587 -0.5229  0.3509  0.9174
 1013Sol     OW 7001   1.155   1.108   9.436 -0.4426  0.1178  0.3353
 1013Sol     HW 7002   1.248   1.084   9.445  0.1956  2.2170 -0.4719
 1013Sol     HW 7003   1.109   1.045   9.492  1.4637 -0.9304  0.7746
 1013Sol     MW 7004   1.159   1.100   9.442  0.4776 -0.7579 -0.1547
 1014Sol     OW 7005   0.686   3.185   2.316  0.1647 -0.2029  0.1083
 1014Sol     HW 7006   0.729   3.148   2.239  2.0348  0.3431  0.8506
 1014Sol     HW 7007   0.739   3.154   2.390  0.6805  2.3603  0.8731
 1014Sol     MW 7008   0.695   3.179   2.316 -0.3869  0.2333  0.2241
 1015Sol     OW 7009   2.719   0.071   3.416 -0.9182  0.2123 -0.0232
 1015Sol     HW 7010   2.721   0.005   3.347  2.0015 -0.9731  1.0989
 1015Sol     HW 7011   2.811   0.090   3.433 -1.5739  0.8253  3.1963
 1015Sol     MW 7012   2.727   0.067   3.411  0.5887  1.1480  0.1138
 1016Sol     OW 7013   0.997   0.565   2.600 -0.4276  0.5061 -0.2251
 1016Sol     HW 7014   0.994   0.583   2.506  0.1695  0.8850 -0.1767
 1016Sol     HW 7015   0.929   0.621   2.637 -0.9644  0.0280 -0.4786
 1016Sol     MW 7016   0.991   0.572   2.595  0.7228  0.1998  0.5028
 1017Sol     OW 7017   1.751   0.275   9.166 -0.3496  0.4962  0.1709
 1017Sol     HW 7018   1.776   0.183   9.174 -1.7765  0.1066  0.3224
 1017Sol     HW 7019   1.752   0.293   9.072  0.3034  0.4350  0.1662
 1017Sol     MW 7020   1.753   0.269   9.159 -0.0842  0.6584 -0.3674
 1018Sol     OW 7021   3.317   2.997   1.721  0.2429 -0.2086  0.5379
 1018Sol     HW 7022   3.299   2.977   1.629  1.8356 -0.1397  0.1965
 1018Sol     HW 7023   3.411   2.980   1.731  0.1821  0.2802  2.0232
 1018Sol     MW 7024   3.324   2.994   1.714 -0.2701 -0.3992 -0.5065
 1019Sol     OW 7025   0.389   0.340   6.061 -0.1974  0.3182 -0.0132
 1019Sol     HW 7026   0.447   0.280   6.106 -1.0121 -0.3583  0.1403
 1019Sol     HW 7027   0.326   0.367   6.128  0.4532  1.7228  0.0504
 1019Sol     MW 7028   0.389   0.337   6.071  0.3629 -0.2785  0.1910
 1020Sol     OW 7029   0.262   3.255   7.968 -0.2370 -0.2902 -0.1364
 1020Sol     HW 7030   0.288   3.334   7.921 -0.0578  0.2091  0.7814
 1020Sol     HW 7031   0.313   3.185   7.928 -0.3903  0.0560 -0.9507
 1020Sol     MW 7032   0.269   3.256   7.960 -0.2523 -0.1576  0.3704
 1021Sol     OW 7033   0.232   0.719   6.795 -0.3472  0.5610 -0.0102
 1021Sol     HW 7034   0.224   0.675   6.879  2.1255  2.3346  1.1915
 1021Sol     HW 7035   0.325   0.715   6.774 -0.6153  2.1223 -1.5973
 1021Sol     MW 7036   0.239   0.714   6.800  0.1049 -0.0242  0.1761
 1022Sol     OW 7037   0.534   0.921   2.346 -0.0865  0.2069  0.3027
 1022Sol     HW 7038   0.514   0.830   2.326 -0.0849 -0.0408  1.3960
 1022Sol     HW 7039   0.466   0.971   2.300 -2.0991 -0.5323  2.3998
 1022Sol     MW 7040   0.526   0.918   2.340 -0.0421  0.1302 -0.3179
 1023Sol     OW 7041   2.304   2.582   8.932  0.0732  0.4258 -0.4690
 1023Sol     HW 7042   2.299   2.609   9.024 -0.5137  0.2252 -0.4380
 1023Sol     HW 7043   2.340   2.658   8.887 -0.0475  0.6838 -0.1363
 1023Sol     MW 7044   2.306   2.592   8.937 -0.4749  0.1277  0.1305
 1024Sol     OW 7045   0.525   3.129   6.842  0.0492  0.2901 -0.5363
 1024Sol     HW 7046   0.581   3.205   6.824 -0.4149  1.0550  1.1187
 1024Sol     HW 7047   0.436   3.160   6.829 -0.2290  0.5038  1.6606
 1024Sol     MW 7048   0.522   3.138   6.839  0.4424  0.6435 -0.0599
 1025Sol     OW 7049   0.965   0.157   6.241  0.0849 -0.1224  0.0077
 1025Sol     HW 7050   1.060   0.150   6.230  0.1603  0.4179  0.3029
 1025Sol     HW 7051   0.939   0.070   6.273  0.6804  0.1557  1.2908
 1025Sol     MW 7052   0.971   0.148   6.243 -0.1155  0.1804  0.7612
 1026Sol     OW 7053   3.103   1.506   8.155  0.4915  0.3365 -0.2897
 1026Sol     HW 7054   3.045   1.436   8.184  0.3024  0.9185  0.7412
 1026Sol     HW 7055   3.105   1.497   8.059 -0.4574 -0.3412 -0.2512
 1026Sol     MW 7056   3.098   1.499   8.149 -0.4111  0.3705  0.0392
 1027Sol     OW 7057   1.792   2.623   8.294 -0.1635  0.2210 -0.2419
 1027Sol     HW 7058   1.886   2.634   8.312 -0.6120  0.8535  1.9159
 1027Sol     HW 7059   1.780   2.661   8.207  1.6249 -0.0927 -0.6548
 1027Sol     MW 7060   1.800   2.627   8.288  0.7795 -0.2951  0.7311
 1028Sol     OW 7061   0.009   2.988   2.425  0.3542  0.0358  0.0405
 1028Sol     HW 7062   0.010   3.084   2.434  1.7310  0.0078  0.3152
 1028Sol     HW 7063   0.056   2.972   2.343 -0.7690 -0.3653 -0.5370
 1028Sol     MW 7064   0.014   2.996   2.418  0.4702  0.1354 -0.1516
 1029Sol     OW 7065   2.180   1.614   3.435 -0.3062  0.0911  0.3098
 1029Sol     HW 7066   2.226   1.557   3.373  0.1897  0.7473  0.0766
 1029Sol     HW 7067   2.155   1.690   3.383 -0.7345  0.2120  0.6900
 1029Sol     MW 7068   2.182   1.616   3.424  0.4865 -0.8603  0.4891
 1030Sol     OW 7069   0.798   1.459   2.416  0.0085  0.0993  0.1806
 1030Sol     HW 7070   0.737   1.478   2.487  1.3791  2.4271  0.8014
 1030Sol     HW 7071   0.783   1.367   2.395 -0.3510 -0.6975  3.5824
 1030Sol     MW 7072   0.791   1.453   2.421  0.2449 -0.0669  0.0332
 1031Sol     OW 7073   3.026   1.280   2.565  0.4732  0.5205  0.3941
 1031Sol     HW 7074   2.970   1.316   2.496  1.1754  1.6078  0.3864
 1031Sol     HW 7075   3.031   1.349   2.631  0.1844 -0.3437  1.3234
 1031Sol     MW 7076   3.022   1.289   2.564  0.5660  0.1878 -0.1586
 1032Sol     OW 7077   0.425   3.199   8.352 -0.3123 -0.0413  0.2953
 1032Sol     HW 7078   0.455   3.290   8.355 -0.8148  0.1102  0.9185
 1032Sol     HW 7079   0.463   3.159   8.430 -2.0711  0.2655  1.3204
 1032Sol     MW 7080   0.431   3.204   8.359 -0.7810  0.0395  0.1128
 1033Sol     OW 7081   0.418   3.366   3.233  0.2044 -0.3061 -0.7046
 1033Sol     HW 7082   0.410   3.461   3.222 -0.5081 -0.1861  0.7265
 1033Sol     HW 7083   0.504   3.345   3.198  0.1065  0.7713 -1.6308
 1033Sol     MW 7084   0.425   3.373   3.229 -0.0718 -0.0708 -0.3638
 1034Sol     OW 7085   1.656   0.856   4.410  0.0245  0.2641 -0.3610
 1034Sol     HW 7086   1.619   0.942   4.389 -0.0634 -0.1138 -1.7917
 1034Sol     HW 7087   1.654   0.808   4.328  1.5485 -0.5694  0.0714
 1034Sol     MW 7088   1.653   0.860   4.401 -0.5245 -0.1554  0.4424
 1035Sol     OW 7089   1.633   1.262   3.063 -0.0921  0.0565  0.1978
 1035Sol     HW 7090   1.666   1.172   3.063  0.4611  0.2230  2.4956
 1035Sol     HW 7091   1.699   1.312   3.113 -0.3764  1.7455 -1.0592
 1035Sol     MW 7092   1.642   1.259   3.068  0.2036 -0.6433  0.2244
 1036Sol     OW 7093   1.440   0.572   6.033 -0.6925 -0.4627 -0.1383
 1036Sol     HW 7094   1.373   0.635   6.060 -1.4680 -0.5881 -1.7305
 1036Sol     HW 7095   1.398   0.487   6.041  0.4239 -0.8397  2.2206
 1036Sol     MW 7096   1.430   0.570   6.037  0.0616  0.6199  0.7160
 1037Sol     OW 7097   1.066   2.813   3.858  0.1396 -0.0477  0.0274
 1037Sol     HW 7098   1.041   2.750   3.791  0.6343 -1.1680  0.8821
 1037Sol     HW 7099   1.073   2.761   3.938  0.0906  1.1750  0.8408
 1037Sol     MW 7100   1.064   2.803   3.859 -0.5832  0.7037 -0.5682
 1038Sol     OW 7101   1.433   0.487   2.122  0.1907 -0.0239 -0.4143
 1038Sol     HW 7102   1.458   0.410   2.173  0.2637  0.8815  0.9627
 1038Sol     HW 7103   1.498   0.491   2.052 -0.4757 -1.8303 -1.1455
 1038Sol     MW 7104   1.441   0.481   2.121 -0.7547 -0.1912  0.4321
 1039Sol     OW 7105   2.418   2.675   3.331  0.2189 -0.1827  0.5066
 1039Sol     HW 7106   2.459   2.690   3.245 -0.5540 -1.3073 -0.0733
 1039Sol     HW 7107   2.480   2.713   3.394  1.4611 -0.5652 -0.4594
 1039Sol     MW 7108   2.427   2.680   3.329  0.2778  0.0970  1.0418
 1040Sol     OW 7109   2.084   2.963   8.802 -0.4308  0.2416  0.6188
 1040Sol     HW 7110   2.134   2.888   8.833 -0.0865  0.0341 -0.4046
 1040Sol     HW 7111   2.151   3.025   8.771 -0.7234  0.8483  1.2013
 1040Sol     MW 7112   2.095   2.962   8.802  0.7126 -0.2217  0.3276
 1041Sol     OW 7113   0.277   0.924   4.287  0.7036  0.1937 -0.0862
 1041Sol     HW 7114   0.222   0.847   4.280  0.8215  0.0045  0.8828
 1041Sol     HW 7115   0.309   0.922   4.378 -0.5916  2.2507  0.4606
 1041Sol     MW 7116   0.275   0.917   4.295  0.5496  0.6113 -0.5091
 1042Sol     OW 7117   3.074   0.316   8.205 -0.4250 -0.3648  0.7074
 1042Sol     HW 7118   3.090   0.231   8.248 -1.8590 -0.3239  1.3420
 1042Sol     HW 7119   2.980   0.319   8.192 -0.6342  1.9411  2.3900
 1042Sol     MW 7120   3.067   0.308   8.208 -0.2851  1.0332 -1.0027
 1043Sol     OW 7121   2.960   0.650   5.573  0.2734  0.5510 -0.5667
 1043Sol     HW 7122   2.926   0.739   5.565 -1.3728  0.0456  0.7994
 1043Sol     HW 7123   3.020   0.654   5.648 -0.6470  0.2592  0.1923
 1043Sol     MW 7124   2.963   0.659   5.579  0.3305 -0.0788 -0.0686
 1044Sol     OW 7125   0.277   2.906   5.267 -0.6870  0.3871 -0.2564
 1044Sol     HW 7126   0.326   2.936   5.190  0.8511 -1.7316 -0.1743
 1044Sol     HW 7127   0.191   2.884   5.233 -0.2131  0.0470 -1.2846
 1044Sol     MW 7128   0.274   2.906   5.257  0.4983 -0.1045  0.8453
 1045Sol     OW 7129   3.043   1.858   6.174 -0.3642  1.0524  0.1476
 1045Sol     HW 7130   3.069   1.783   6.229  1.4597  0.5186 -1.3683
 1045Sol     HW 7131   3.001   1.919   6.235  1.5479  0.4601  2.1400
 1045Sol     MW 7132   3.042   1.857   6.184  0.3714 -0.2667 -0.7249
 1046Sol     OW 7133   2.074   1.201   9.941 -0.9806  0.0919  0.6756
 1046Sol     HW 7134   2.116   1.244  10.016 -0.1140  0.5335 -0.0527
 1046Sol     HW 7135   1.981   1.223   9.950 -0.3554  3.5199 -0.5538
 1046Sol     MW 7136   2.069   1.207   9.949 -0.3040  0.1552  0.4028
 1047Sol     OW 7137   1.695   1.881   1.746  0.2726 -0.7353  0.1178
 1047Sol     HW 7138   1.775   1.918   1.709  0.4302  0.8312  1.9362
 1047Sol     HW 7139   1.724   1.835   1.825  0.0327 -4.5899 -1.8860
 1047Sol     MW 7140   1.705   1.880   1.750  0.4616 -0.3701 -0.4131
 1048Sol     OW 7141   2.623   1.530   3.086 -0.3054  0.0759  0.3648
 1048Sol     HW 7142   2.585   1.528   2.998  0.5096 -2.2850  0.0207
 1048Sol     HW 7143   2.602   1.444   3.123 -1.6907  1.4568  2.9738
 1048Sol     MW 7144   2.618   1.522   3.081  0.1493  0.2428 -0.1573
 1049Sol     OW 7145   2.272   0.316   2.087  0.2369  0.5006 -0.1747
 1049Sol     HW 7146   2.361   0.325   2.121 -1.0420  0.3771  3.4179
 1049Sol     HW 7147   2.238   0.406   2.087 -0.3501  0.2817  0.5734
 1049Sol     MW 7148   2.277   0.325   2.090 -0.1375 -0.5902 -0.4683
 1050Sol     OW 7149   1.629   1.994   9.354 -0.0585 -0.5101  0.0348
 1050Sol     HW 7150   1.564   1.982   9.423 -0.0014 -1.0897 -0.0152
 1050Sol     HW 7151   1.642   1.907   9.318  2.3161 -0.7845  1.4597
 1050Sol     MW 7152   1.624   1.985   9.357  0.2009  0.1351  0.8706
 1051Sol     OW 7153   1.391   2.786   2.523 -0.4447 -0.1333 -0.2143
 1051Sol     HW 7154   1.389   2.878   2.496 -2.3292  0.1974  0.9705
 1051Sol     HW 7155   1.484   2.766   2.531 -0.0211  1.8200  0.0306
 1051Sol     MW 7156   1.400   2.792   2.521  0.4172 -0.0164 -0.0471
 1052Sol     OW 7157   3.161   0.747   7.993  0.0503  0.5028  0.8519
 1052Sol     HW 7158   3.237   0.790   8.032  0.1161  1.3667 -0.1942
 1052Sol     HW 7159   3.124   0.694   8.063  1.8416 -0.2144  1.2541
 1052Sol     MW 7160   3.164   0.746   8.002  0.3980 -0.2887 -0.5243
 1053Sol     OW 7161   3.307   0.821   1.656 -0.0751 -0.0227 -0.1877
 1053Sol     HW 7162   3.304   0.774   1.572  0.6788  0.1028 -0.2938
 1053Sol     HW 7163   3.217   0.819   1.688 -0.0293 -1.7208 -0.0880
 1053Sol     MW 7164   3.299   0.816   1.651 -0.2355  0.3811  0.9913
 1054Sol     OW 7165   1.674   1.092   1.902  0.1151  0.5973 -0.5395
 1054Sol     HW 7166   1.582   1.115   1.897  0.2268  0.6697 -2.5924
 1054Sol     HW 7167   1.674   1.000   1.928 -0.4805  0.9727  0.8516
 1054Sol     MW 7168   1.666   1.086   1.904  0.0728 -0.1566 -0.8327
 1055Sol     OW 7169   1.483   3.111   5.487  0.8074  0.6865  0.1276
 1055Sol     HW 7170   1.417   3.177   5.510  1.3882  0.7965  1.5845
 1055Sol     HW 7171   1.489   3.114   5.392 -1.3330  0.6285 -0.0387
 1055Sol     MW 7172   1.478   3.117   5.481  0.0205 -0.2324  0.0960
 1056Sol     OW 7173   1.373   2.670   7.039  0.0046  0.6798  1.5578
 1056Sol     HW 7174   1.461   2.660   7.001  0.0648  1.3963  1.4880
 1056Sol     HW 7175   1.317   2.692   6.964 -0.0841  0.9952  1.7122
 1056Sol     MW 7176   1.376   2.671   7.028  0.5379 -0.4553  0.3013
 1057Sol     OW 7177   0.634   0.792   8.575  0.1080 -0.0214 -0.0134
 1057Sol     HW 7178   0.577   0.860   8.611  1.6763  1.9442 -1.1484
 1057Sol     HW 7179   0.620   0.717   8.633 -2.7356  0.7628  0.4277
 1057Sol     MW 7180   0.627   0.791   8.584 -0.8517 -0.5731  0.1024
 1058Sol     OW 7181   2.171   0.274   7.266  0.3702 -0.0385  0.0968
 1058Sol     HW 7182   2.102   0.232   7.316  0.2601 -1.1282 -0.9554
 1058Sol     HW 7183   2.125   0.323   7.197  0.6785 -1.5760 -1.2170
 1058Sol     MW 7184   2.161   0.275   7.264  0.0787  0.0971 -0.1771
 1059Sol     OW 7185   1.610   2.125   7.083  0.2542  0.1005 -0.2570
 1059Sol     HW 7186   1.661   2.044   7.075  1.3758  0.6590  0.9629
 1059Sol     HW 7187   1.521   2.096   7.100  0.5010 -0.8813 -0.5945
 1059Sol     MW 7188   1.607   2.115   7.083 -0.5619 -1.0563  0.4188
 1060Sol     OW 7189   2.959   1.450   2.803  0.2852 -0.2183 -0.2444
 1060Sol     HW 7190   3.040   1.500   2.790 -0.8060  2.5256  2.8896
 1060Sol     HW 7191   2.889   1.515   2.796 -1.4228 -1.9001  0.6767
 1060Sol     MW 7192   2.960   1.460   2.801 -0.4782 -0.1016 -0.1130
 1061Sol     OW 7193   2.935   0.887   8.712  0.4677 -0.2364  0.6352
 1061Sol     HW 7194   2.971   0.873   8.624  1.3251  1.6915  0.6574
 1061Sol     HW 7195   2.976   0.819   8.766  0.4649 -0.9951 -0.2978
 1061Sol     MW 7196   2.942   0.879   8.709 -0.4151  0.6469  0.2915
 1062Sol     OW 7197   1.706   0.160   8.375  0.0777  0.2875 -0.2853
 1062Sol     HW 7198   1.711   0.087   8.313 -0.5162  1.0263 -1.2250
 1062Sol     HW 7199   1.647   0.129   8.444 -0.8831  0.1869 -1.1295
 1062Sol     MW 7200   1.701   0.150   8.375  0.1288 -0.7385 -0.6123
 1063Sol     OW 7201   0.070   2.608   8.684 -0.4686  0.2652 -0.0232
 1063Sol     HW 7202  -0.005   2.550   8.699 -0.5557  0.1589 -0.8456
 1063Sol     HW 7203   0.133   2.555   8.636 -0.5052  0.8109 -0.6864
 1063Sol     MW 7204   0.069   2.598   8.681 -0.1274  0.2701 -0.5392
 1064Sol     OW 7205   1.879   2.108   4.640  0.2841  0.1420  0.4029
 1064Sol     HW 7206   1.793   2.090   4.603  0.3937  1.1977 -0.3977
 1064Sol     HW 7207   1.892   2.040   4.706 -0.9697 -0.2843  0.2178
 1064Sol     MW 7208   1.873   2.101   4.643 -0.1077  0.2790 -0.5681
 1065Sol     OW 7209   3.184   1.758   5.064  0.3721 -0.1258  0.4601
 1065Sol     HW 7210   3.119   1.704   5.109  0.3848  0.0614  0.7069
 1065Sol     HW 7211   3.258   1.699   5.050  0.7689  0.0834  1.5979
 1065Sol     MW 7212   3.184   1.748   5.067  0.0829 -0.1053  0.4689
 1066Sol     OW 7213   1.061   0.023   1.849  0.2072 -0.1266 -0.0880
 1066Sol     HW 7214   1.147  -0.008   1.877  0.0077 -0.6003 -0.0021
 1066Sol     HW 7215   1.074   0.117   1.834  0.7898 -0.2305 -0.2718
 1066Sol     MW 7216   1.070   0.029   1.850  0.5619 -0.5345  0.8834
 1067Sol     OW 7217   0.802   2.570   4.423 -0.1565 -0.1434  0.2903
 1067Sol     HW 7218   0.837   2.481   4.425 -1.0058 -0.5079 -0.5902
 1067Sol     HW 7219   0.796   2.595   4.515 -0.3967 -1.1891  0.5721
 1067Sol     MW 7220   0.805   2.564   4.431 -0.4426  0.8724  0.5770
 1068Sol     OW 7221   2.321   2.744   5.034  0.2290  0.3617 -0.4325
 1068Sol     HW 7222   2.407   2.711   5.061  0.3184  0.7472 -0.2334
 1068Sol     HW 7223   2.340   2.824   4.985 -0.0187  0.4924 -0.3184
 1068Sol     MW 7224   2.330   2.748   5.032 -0.1254  0.0502 -0.4480
 1069Sol     OW 7225   1.545   1.616   5.605 -0.2845 -0.7773 -0.8516
 1069Sol     HW 7226   1.449   1.615   5.608 -0.2666 -2.0268 -0.3641
 1069Sol     HW 7227   1.572   1.604   5.696  0.3482  0.7871 -0.8192
 1069Sol     MW 7228   1.539   1.615   5.613 -0.1408 -0.4692 -0.6252
 1070Sol     OW 7229   1.581   0.728   7.229  0.1706 -0.2795 -0.3014
 1070Sol     HW 7230   1.540   0.789   7.290  1.8948 -0.1170  0.7220
 1070Sol     HW 7231   1.547   0.642   7.256  0.6456 -0.1732  0.6818
 1070Sol     MW 7232   1.574   0.726   7.237  0.7148  0.0039 -0.6151
 1071Sol     OW 7233   0.198   1.069   2.939 -0.1617 -0.0383  0.7863
 1071Sol     HW 7234   0.114   1.105   2.969 -0.7817  0.0652 -1.0064
 1071Sol     HW 7235   0.259   1.142   2.946 -0.9529  0.8138 -0.8735
 1071Sol     MW 7236   0.196   1.079   2.942  0.3225  0.5849 -0.2342
 1072Sol     OW 7237   1.824   3.018   7.695 -0.2487  0.2706 -0.3076
 1072Sol     HW 7238   1.756   2.974   7.747  1.5407 -1.4760  0.6365
 1072Sol     HW 7239   1.846   2.955   7.627  0.3589  0.8816 -0.6761
 1072Sol     MW 7240   1.820   3.008   7.694 -0.4231  0.2220 -0.6812
 1073Sol     OW 7241   0.398   2.869   3.710  0.1529  0.2612 -0.2596
 1073Sol     HW 7242   0.432   2.927   3.642 -0.1653 -0.2027 -0.8136
 1073Sol     HW 7243   0.412   2.917   3.792 -0.1032  1.1139 -0.7153
 1073Sol     MW 7244   0.403   2.879   3.712  0.0962  0.2346 -0.3635
 1074Sol     OW 7245   1.569   1.488   3.391  0.2259  0.4465 -0.6293
 1074Sol     HW 7246   1.507   1.432   3.344  0.6401  2.2369 -3.3488
 1074Sol     HW 7247   1.655   1.455   3.366  0.4471 -0.2325  0.9458
 1074Sol     MW 7248   1.571   1.480   3.385 -0.1698 -0.2256 -0.6710
 1075Sol     OW 7249   1.034   2.822   1.709 -0.4790 -0.4617 -0.7506
 1075Sol     HW 7250   1.100   2.789   1.769  0.2579  1.2367 -0.6056
 1075Sol     HW 7251   1.075   2.816   1.623  0.3005  1.5868 -0.5489
 1075Sol     MW 7252   1.044   2.818   1.707  0.5745  0.1674 -0.5313
 1076Sol     OW 7253   0.649   2.894   4.156 -0.2768 -0.4088  0.7499
 1076Sol     HW 7254   0.724   2.954   4.146 -0.6200  0.0213  0.7316
 1076Sol     HW 7255   0.633   2.893   4.250  1.0877 -2.1576  0.9979
 1076Sol     MW 7256   0.655   2.900   4.164 -0.0439 -0.2466 -0.3708
 1077Sol     OW 7257   2.247   1.129   8.957  0.0902  0.1424  0.1012
 1077Sol     HW 7258   2.226   1.139   9.050 -0.8429 -0.8919  0.0092
 1077Sol     HW 7259   2.340   1.151   8.951 -0.1109  1.3500  1.0858
 1077Sol     MW 7260   2.254   1.132   8.965 -0.0466  0.8661  0.1409
 1078Sol     OW 7261   2.382   2.452   8.597 -0.1832 -0.5078  0.3137
 1078Sol     HW 7262   2.381   2.375   8.653  0.3503 -0.9753 -0.3044
 1078Sol     HW 7263   2.474   2.475   8.589 -0.3354  0.1804  0.4665
 1078Sol     MW 7264   2.390   2.447   8.601 -0.9156  0.2983  0.4145
 1079Sol     OW 7265   1.014   2.818   4.848  0.4328  0.7897  0.2006
 1079Sol     HW 7266   1.006   2.768   4.929  0.4317  0.3109 -0.0922
 1079Sol     HW 7267   1.053   2.756   4.785  1.3198  1.4402  0.1015
 1079Sol     MW 7268   1.017   2.808   4.849  0.5179  0.5667 -0.0436
 1080Sol     OW 7269   2.205   1.627   6.658  0.1539  0.3098  0.0028
 1080Sol     HW 7270   2.121   1.662   6.688 -0.4674 -0.3925 -0.8874
 1080Sol     HW 7271   2.186   1.537   6.633  1.4753 -0.3029  1.1119
 1080Sol     MW 7272   2.196   1.622   6.659 -0.3883 -0.0948 -0.2427
 1081Sol     OW 7273   1.374   0.715   2.526 -0.0624 -0.1490 -0.1065
 1081Sol     HW 7274   1.343   0.624   2.522  0.2581 -0.2096 -1.1836
 1081Sol     HW 7275   1.440   0.721   2.458 -0.1961  0.9428 -0.1433
 1081Sol     MW 7276   1.377   0.707   2.520 -0.3308  0.1355  0.1680
 1082Sol     OW 7277   2.736   2.361   3.455  0.0698  0.0619 -0.2878
 1082Sol     HW 7278   2.644   2.386   3.456  0.4922  1.7579 -1.3778
 1082Sol     HW 7279   2.764   2.365   3.546 -0.5754  0.9675 -0.1290
 1082Sol     MW 7280   2.730   2.364   3.463 -0.1583  0.4285  0.1349
 1083Sol     OW 7281   1.476   1.948   9.003 -0.4710 -0.0367  0.5242
 1083Sol     HW 7282   1.452   1.907   9.086 -2.9482  1.6093  0.6933
 1083Sol     HW 7283   1.434   2.034   9.006  1.0492  0.8211 -1.6068
 1083Sol     MW 7284   1.470   1.952   9.011 -0.3409 -1.0610  0.1098
 1084Sol     OW 7285   0.745   0.837   6.399  0.3193 -0.1944 -0.4566
 1084Sol     HW 7286   0.675   0.801   6.454  0.3321  0.3050 -0.1080
 1084Sol     HW 7287   0.715   0.822   6.309 -0.2622  0.0614 -0.3058
 1084Sol     MW 7288   0.736   0.833   6.395  0.5774  0.3637 -0.5830
 1085Sol     OW 7289   2.082   1.871   3.251 -0.3565  0.2186 -0.7625
 1085Sol     HW 7290   1.998   1.835   3.224 -0.3078 -1.0538  0.7083
 1085Sol     HW 7291   2.143   1.845   3.182 -0.7235 -0.8231 -0.6956
 1085Sol     MW 7292   2.080   1.866   3.242 -0.4972 -0.0035 -1.0641
 1086Sol     OW 7293   3.199   2.338   2.966 -0.3173  0.0609 -0.2690
 1086Sol     HW 7294   3.155   2.332   3.050  0.4251 -1.3025  0.0444
 1086Sol     HW 7295   3.129   2.356   2.903 -0.9433  0.5668  0.5665
 1086Sol     MW 7296   3.189   2.339   2.968 -0.0146 -0.2421  0.0374
 1087Sol     OW 7297   0.095   2.317   9.637 -0.0609  0.0287 -0.2722
 1087Sol     HW 7298   0.010   2.275   9.646  0.2060 -0.7053 -1.0674
 1087Sol     HW 7299   0.141   2.294   9.718 -0.4673  0.0667 -0.0294
 1087Sol     MW 7300   0.092   2.311   9.645 -0.2046 -0.2553 -0.4584
 1088Sol     OW 7301   2.423   2.494   8.305  0.3325  0.0236  0.2061
 1088Sol     HW 7302   2.475   2.414   8.310  0.6496  0.2539  0.5724
 1088Sol     HW 7303   2.378   2.500   8.389 -0.0459 -0.0103  0.0071
 1088Sol     MW 7304   2.423   2.487   8.313  0.1196 -0.5775  0.5697
 1089Sol     OW 7305   2.212   3.379   9.766 -0.0924 -0.2013  0.4226
 1089Sol     HW 7306   2.166   3.295   9.776  1.5209 -1.2175 -0.5076
 1089Sol     HW 7307   2.288   3.371   9.824  0.1359  0.5840  0.2338
 1089Sol     MW 7308   2.214   3.371   9.772 -0.0287  0.1772  0.0909
 1090Sol     OW 7309   0.305   1.150   3.905 -0.4551  0.3691  0.0090
 1090Sol     HW 7310   0.358   1.218   3.946  0.2978  0.4648 -1.1167
 1090Sol     HW 7311   0.268   1.192   3.827 -1.3605 -0.0073  0.2246
 1090Sol     MW 7312   0.306   1.160   3.902  0.7162 -0.5514  0.3333
 1091Sol     OW 7313   2.895   0.271   9.169  0.1213  0.3377  0.3810
 1091Sol     HW 7314   2.809   0.243   9.139  0.1857  0.5501 -0.0036
 1091Sol     HW 7315   2.946   0.284   9.089  0.4512  0.4030  0.5986
 1091Sol     MW 7316   2.892   0.270   9.159 -0.2736  0.4767 -0.3652
 1092Sol     OW 7317   1.332   1.918   3.649 -0.3921  0.4549 -0.1945
 1092Sol     HW 7318   1.261   1.855   3.637 -2.7785  2.5861  2.1133
 1092Sol     HW 7319   1.408   1.865   3.672 -1.9756 -1.6831  0.2696
 1092Sol     MW 7320   1.333   1.908   3.650 -0.0714  0.7065  0.8351
 1093Sol     OW 7321   0.793   0.889   4.743 -0.2146  0.3282  0.3387
 1093Sol     HW 7322   0.723   0.824   4.753 -0.2313 -0.0346 -1.9553
 1093Sol     HW 7323   0.825   0.903   4.832 -0.9961 -1.9524  1.0206
 1093Sol     MW 7324   0.789   0.884   4.752 -0.1688  0.2429  0.7196
 1094Sol     OW 7325   1.395   2.661   4.112  0.2210 -0.0082 -0.1980
 1094Sol     HW 7326   1.387   2.610   4.192 -1.4981  0.4293 -0.0501
 1094Sol     HW 7327   1.394   2.597   4.042  1.7551 -0.3949  0.1363
 1094Sol     MW 7328   1.394   2.651   4.113  0.5196 -0.0776  0.5825
 1095Sol     OW 7329   0.096   0.028   5.053 -0.0040  0.3684  0.3297
 1095Sol     HW 7330   0.025   0.092   5.058 -1.5152 -1.1375 -0.9879
 1095Sol     HW 7331   0.136   0.043   4.967 -2.0748 -2.1035 -1.1581
 1095Sol     MW 7332   0.093   0.035   5.046  0.8569  0.1386 -0.2188
 1096Sol     OW 7333   2.566   3.040   3.008 -0.3950  0.6391  0.0031
 1096Sol     HW 7334   2.635   3.006   3.064 -0.1311  1.7552  0.3680
 1096Sol     HW 7335   2.606   3.048   2.922  0.0748  1.7115  0.3122
 1096Sol     MW 7336   2.575   3.038   3.005 -0.0514  0.4749  0.1608
 1097Sol     OW 7337   1.003   1.424   4.033 -0.4597  0.3870  0.5406
 1097Sol     HW 7338   1.038   1.482   3.966 -2.9254  0.2467 -0.9286
 1097Sol     HW 7339   1.073   1.417   4.098  1.5308  1.4385 -1.4447
 1097Sol     MW 7340   1.012   1.429   4.033 -0.1067 -0.8690 -0.6397
 1098Sol     OW 7341   2.279   1.092   6.947  0.5088 -0.0412 -0.1111
 1098Sol     HW 7342   2.223   1.154   6.994  0.0280  0.9160 -1.9296
 1098Sol     HW 7343   2.307   1.030   7.015 -0.9678  0.7385  1.2522
 1098Sol     MW 7344   2.277   1.092   6.957  0.1654  0.0266 -0.4909
 1099Sol     OW 7345   1.613   0.458   6.982 -0.0677 -0.2507  0.6281
 1099Sol     HW 7346   1.673   0.521   7.021 -0.0130 -0.1474  0.3828
 1099Sol     HW 7347   1.530   0.471   7.028 -0.7505  1.7047 -1.0538
 1099Sol     MW 7348   1.611   0.465   6.989  0.1329 -0.9723 -0.9265
 1100Sol     OW 7349   1.751   0.054   9.575 -0.6537 -0.4456 -0.1015
 1100Sol     HW 7350   1.674   0.010   9.539 -0.4058 -1.5431  0.7037
 1100Sol     HW 7351   1.822   0.032   9.515 -0.9445  0.5466 -0.8301
 1100Sol     MW 7352   1.751   0.048   9.566  0.2377  0.2984 -0.0315
 1101Sol     OW 7353   3.039   0.160   5.544  0.0815  0.5146  0.2290
 1101Sol     HW 7354   3.125   0.201   5.534  0.4946 -0.0574  1.4181
 1101Sol     HW 7355   2.979   0.221   5.500  1.1556  0.6383 -1.0971
 1101Sol     MW 7356   3.041   0.169   5.539 -0.1104  0.0628  0.5203
 1102Sol     OW 7357   0.630   2.810   5.472 -0.0851  0.0619 -0.3416
 1102Sol     HW 7358   0.562   2.877   5.471 -1.2807 -1.1397 -0.1906
 1102Sol     HW 7359   0.660   2.805   5.381  0.6383  1.4069 -0.1938
 1102Sol     MW 7360   0.627   2.816   5.463 -1.0209  0.5873 -0.6555
 1103Sol     OW 7361   0.937   2.864   7.985 -0.0241  0.5434 -0.3913
 1103Sol     HW 7362   0.919   2.867   7.891 -0.8218  1.7836 -0.2005
 1103Sol     HW 7363   1.017   2.914   7.995  0.6556 -0.5022 -0.5451
 1103Sol     MW 7364   0.942   2.868   7.977  0.5600  0.2970 -0.5368
 1104Sol     OW 7365   2.830   3.391   2.284  0.1767 -0.1716  0.0213
 1104Sol     HW 7366   2.846   3.370   2.376 -1.0285 -1.4232 -0.0287
 1104Sol     HW 7367   2.831   3.306   2.240 -0.3258  0.3203 -0.9481
 1104Sol     MW 7368   2.831   3.382   2.288 -0.3934 -0.0240 -0.5151
 1105Sol     OW 7369   1.632   1.743   1.495  0.3079  0.1697  0.7164
 1105Sol     HW 7370   1.667   1.789   1.571 -0.1855  1.3021  0.2679
 1105Sol     HW 7371   1.552   1.702   1.527 -0.3272  1.3144  0.6163
 1105Sol     MW 7372   1.628   1.743   1.505  1.2510 -0.2426  0.4793
 1106Sol     OW 7373   1.367   1.475   3.982  0.3878  0.1701 -0.1653
 1106Sol     HW 7374   1.457   1.507   3.981  0.5143 -0.1985 -0.6488
 1106Sol     HW 7375   1.367   1.407   4.049 -0.3119  2.3896  2.1883
 1106Sol     MW 7376   1.375   1.472   3.988 -0.1870  0.1260 -0.0526
 1107Sol     OW 7377   1.511   0.325   3.917 -0.6595  0.0202 -0.2224
 1107Sol     HW 7378   1.495   0.367   4.002 -1.8551 -0.5796 -0.1405
 1107Sol     HW 7379   1.506   0.397   3.854  0.2125  0.4645  0.2052
 1107Sol     MW 7380   1.509   0.335   3.919 -0.0570 -0.2620  0.3033
 1108Sol     OW 7381   0.329   2.494   4.468 -0.4482  0.0745 -0.3458
 1108Sol     HW 7382   0.410   2.493   4.519 -1.0109  1.1490  0.5967
 1108Sol     HW 7383   0.259   2.493   4.534 -1.2233 -1.9094 -1.1713
 1108Sol     MW 7384   0.330   2.494   4.479 -0.2242  0.1589 -0.6029
 1109Sol     OW 7385   2.774   1.169   4.220  0.3523 -0.0917 -0.0479
 1109Sol     HW 7386   2.805   1.196   4.306 -0.6554  0.8813  0.0339
 1109Sol     HW 7387   2.715   1.240   4.193 -1.2627 -1.5437 -0.4630
 1109Sol     MW 7388   2.771   1.178   4.225 -0.0833 -0.1939 -0.5638
 1110Sol     OW 7389   0.904   2.317   4.412 -0.6792 -0.1043  0.1995
 1110Sol     HW 7390   0.950   2.286   4.489  0.4288  2.8777  0.7812
 1110Sol     HW 7391   0.967   2.307   4.340  0.0238  1.6082  0.5542
 1110Sol     MW 7392   0.913   2.313   4.412 -0.0722 -0.1515  0.2462
 1111Sol     OW 7393   1.780   1.426   8.168 -0.4106 -0.2098 -0.7102
 1111Sol     HW 7394   1.812   1.448   8.081  0.1566  2.6901  0.1723
 1111Sol     HW 7395   1.859   1.408   8.220 -0.6293  0.0882 -0.2695
 1111Sol     MW 7396   1.790   1.426   8.165 -0.2115  0.5499 -0.7459
 1112Sol     OW 7397   1.213   0.067   3.186  0.0540  0.7446  0.0333
 1112Sol     HW 7398   1.174   0.153   3.169 -0.7913  0.4717  0.6093
 1112Sol     HW 7399   1.243   0.072   3.277  0.5443  0.6268 -0.1161
 1112Sol     MW 7400   1.213   0.075   3.193 -0.1963 -0.5370 -0.2123
 1113Sol     OW 7401   1.852   1.004   6.121  0.5810 -0.1862  0.0966
 1113Sol     HW 7402   1.829   0.960   6.203  0.3052 -0.5577 -0.1748
 1113Sol     HW 7403   1.779   0.983   6.062  0.4401  0.6495 -0.0317
 1113Sol     MW 7404   1.843   0.998   6.123 -0.2114  0.5730  0.4822
 1114Sol     OW 7405   2.661   3.240   7.115  0.1371 -0.4162 -0.3634
 1114Sol     HW 7406   2.689   3.279   7.033  2.5317 -0.8455  0.2038
 1114Sol     HW 7407   2.601   3.170   7.090 -0.8662  0.8746 -1.5988
 1114Sol     MW 7408   2.658   3.237   7.106 -0.3941  0.9692 -0.6510
 1115Sol     OW 7409   3.155   2.410   9.383 -0.7939  0.3746 -0.5645
 1115Sol     HW 7410   3.137   2.332   9.435 -2.5926 -0.3722 -2.2228
 1115Sol     HW 7411   3.247   2.403   9.359 -0.9619 -1.2867 -0.7653
 1115Sol     MW 7412   3.162   2.402   9.386 -0.3106 -0.6759  0.2909
 1116Sol     OW 7413   0.538   2.217   2.844 -0.0608 -0.3528  0.6432
 1116Sol     HW 7414   0.567   2.218   2.935 -0.2878  2.3327  0.7407
 1116Sol     HW 7415   0.462   2.275   2.843 -0.3731 -0.7726 -1.1577
 1116Sol     MW 7416   0.534   2.222   2.852  0.1029 -0.3601 -0.6519
 1117Sol     OW 7417   3.179   0.819   2.085  0.2929  0.4126  0.6626
 1117Sol     HW 7418   3.160   0.871   2.164 -0.2364 -1.3106  1.6986
 1117Sol     HW 7419   3.124   0.741   2.094 -0.5672  0.6808 -1.9518
 1117Sol     MW 7420   3.172   0.817   2.093 -0.2807 -0.2028  0.1836
 1118Sol     OW 7421   1.882   2.770   1.667 -0.1746  0.3848  0.6894
 1118Sol     HW 7422   1.904   2.719   1.744  1.4705 -0.1083 -0.0855
 1118Sol     HW 7423   1.915   2.858   1.686  2.3470 -0.2807 -0.3468
 1118Sol     MW 7424   1.887   2.773   1.676  0.0338  0.1573 -0.6814
 1119Sol     OW 7425   1.791   2.674   8.029 -0.0465  0.3180 -0.0771
 1119Sol     HW 7426   1.778   2.626   7.947 -1.2079  1.2500 -0.4580
 1119Sol     HW 7427   1.866   2.730   8.012 -1.8256  2.3699 -1.3997
 1119Sol     MW 7428   1.796   2.674   8.020  0.0425  0.4118  0.0876
 1120Sol     OW 7429   0.290   3.178   9.103 -0.1203 -0.2438  0.0811
 1120Sol     HW 7430   0.298   3.117   9.030 -2.8935  0.2853 -0.7280
 1120Sol     HW 7431   0.209   3.153   9.147 -0.6247  2.0241  0.5021
 1120Sol     MW 7432   0.284   3.170   9.100 -0.1431  0.3457 -0.7147
 1121Sol     OW 7433   0.868   2.361   8.232 -0.3678 -0.2259 -0.2225
 1121Sol     HW 7434   0.839   2.381   8.143  1.0702 -2.2975 -1.2050
 1121Sol     HW 7435   0.797   2.308   8.269 -0.5436 -0.1609 -0.4648
 1121Sol     MW 7436   0.859   2.358   8.228 -0.5575  0.2223  0.2404
 1122Sol     OW 7437   2.286   0.122   7.597 -0.0057  0.1120  0.2710
 1122Sol     HW 7438   2.301   0.073   7.516 -1.7089 -0.5450  0.3284
 1122Sol     HW 7439   2.299   0.057   7.667  0.9503  0.5546  0.5231
 1122Sol     MW 7440   2.289   0.112   7.596 -0.8092  0.6939 -0.5844
 1123Sol     OW 7441   3.128   0.713   5.777 -0.1045 -0.7384 -0.5174
 1123Sol     HW 7442   3.208   0.753   5.744 -1.2637  0.7913 -1.5837
 1123Sol     HW 7443   3.158   0.644   5.836  1.9825  1.9881  1.7605
 1123Sol     MW 7444   3.138   0.711   5.779  0.2995 -0.8130  0.0240
 1124Sol     OW 7445   0.247   2.424   8.124 -0.4809  0.6482  0.0116
 1124Sol     HW 7446   0.311   2.488   8.091 -1.0270  1.6701  0.8787
 1124Sol     HW 7447   0.281   2.339   8.097 -0.1587  1.3540 -1.8991
 1124Sol     MW 7448   0.256   2.422   8.119  0.2387 -0.1486 -0.0939
 1125Sol     OW 7449   1.297   2.113   7.409 -0.1046 -0.1781  0.3590
 1125Sol     HW 7450   1.217   2.145   7.452  0.4545  1.1261  0.4581
 1125Sol     HW 7451   1.266   2.074   7.327 -0.8756  0.0495  0.5371
 1125Sol     MW 7452   1.287   2.113   7.406  0.3680 -0.0493  0.0818
 1126Sol     OW 7453   2.228   2.260   3.095 -0.1456  0.2277 -0.3648
 1126Sol     HW 7454   2.210   2.221   3.181 -0.5787  0.1209 -0.5015
 1126Sol     HW 7455   2.177   2.207   3.034 -0.6720  0.9506 -0.5670
 1126Sol     MW 7456   2.222   2.252   3.097 -0.1539  0.4453  0.6064
 1127Sol     OW 7457   3.260   0.494   8.602 -0.3128  0.4768  0.2565
 1127Sol     HW 7458   3.350   0.461   8.596  0.2811  2.0538  0.0425
 1127Sol     HW 7459   3.256   0.538   8.687 -1.0689 -0.1102  0.5272
 1127Sol     MW 7460   3.268   0.495   8.609  0.3022  0.1189 -0.3282
 1128Sol     OW 7461   1.168   1.419   3.208  0.2226 -0.5365  0.8787
 1128Sol     HW 7462   1.077   1.416   3.238  0.0130  2.1157  0.6077
 1128Sol     HW 7463   1.208   1.490   3.258  2.1936 -1.7459  1.0733
 1128Sol     MW 7464   1.163   1.425   3.215  0.7882 -0.1280  0.2182
 1129Sol     OW 7465   1.197   0.388   4.210  0.3454 -0.1907 -0.6098
 1129Sol     HW 7466   1.184   0.469   4.260 -0.0981 -0.1706 -0.7588
 1129Sol     HW 7467   1.290   0.368   4.222  0.9106  1.3873 -2.1570
 1129Sol     MW 7468   1.205   0.394   4.216 -0.2054 -0.3175 -0.7787
 1130Sol     OW 7469   3.141   1.347   1.837 -0.5311  0.0014  0.4852
 1130Sol     HW 7470   3.213   1.323   1.895 -0.8616  0.2934  1.0214
 1130Sol     HW 7471   3.064   1.307   1.878 -0.7360  0.0499  0.1440
 1130Sol     MW 7472   3.140   1.341   1.846 -0.1647  0.2580 -0.4767
 1131Sol     OW 7473   2.417   0.254   3.753  0.2062  0.0392  0.4513
 1131Sol     HW 7474   2.429   0.183   3.816 -0.3278  0.1024  0.6255
 1131Sol     HW 7475   2.439   0.215   3.668  1.3011  0.0597  0.7207
 1131Sol     MW 7476   2.420   0.244   3.751  0.1574  0.0012  0.1447
 1132Sol     OW 7477   1.458   3.122   3.875 -0.0606 -0.4830 -0.2429
 1132Sol     HW 7478   1.446   3.051   3.939  1.2039 -1.1017 -0.6581
 1132Sol     HW 7479   1.371   3.137   3.839 -0.5118 -1.1935  0.5207
 1132Sol     MW 7480   1.449   3.117   3.878  0.5073  0.0704  0.2745
 1133Sol     OW 7481   2.511   2.956   9.915  0.4371 -0.1232  0.5125
 1133Sol     HW 7482   2.549   2.884   9.964 -0.1632  0.3780  1.7456
 1133Sol     HW 7483   2.445   2.916   9.859  2.4634 -0.9461 -1.3503
 1133Sol     MW 7484   2.509   2.946   9.914  0.4549  0.2505  0.1541
 1134Sol     OW 7485   1.817   0.121   6.741 -0.2552  0.3593  0.4238
 1134Sol     HW 7486   1.776   0.159   6.662 -2.4691 -1.1424  0.8123
 1134Sol     HW 7487   1.763   0.153   6.813  0.9895  0.6641  1.2205
 1134Sol     MW 7488   1.808   0.128   6.740 -0.0921  0.7583  0.4792
 1135Sol     OW 7489   0.053   0.827   5.370  0.3333  0.3248  0.0548
 1135Sol     HW 7490   0.123   0.764   5.386  0.4619 -0.0479 -1.9599
 1135Sol     HW 7491  -0.026   0.774   5.363  0.4773  0.3393 -1.9006
 1135Sol     MW 7492   0.052   0.817   5.371 -0.1735 -0.9578  0.2822
 1136Sol     OW 7493   1.060   2.568   9.475  0.3881 -0.4996  0.3694
 1136Sol     HW 7494   1.058   2.619   9.393 -0.7811  0.4354  0.9541
 1136Sol     HW 7495   1.151   2.572   9.503  0.7170 -0.4500 -0.6587
 1136Sol     MW 7496   1.068   2.573   9.470  0.1239 -0.7582 -0.3470
 1137Sol     OW 7497   2.865   0.125   5.769  0.5750  0.1540  0.3866
 1137Sol     HW 7498   2.918   0.151   5.693  0.3538  2.2184  0.8988
 1137Sol     HW 7499   2.778   0.160   5.750 -0.5602 -2.8400 -0.2437
 1137Sol     MW 7500   2.862   0.131   5.760 -0.0968  0.4867 -0.8158
 1138Sol     OW 7501   2.326   1.684   9.110 -0.7092 -0.5335  0.0710
 1138Sol     HW 7502   2.378   1.651   9.037  0.5763  0.0359  0.7276
 1138Sol     HW 7503   2.249   1.723   9.068  1.2029  2.0503 -1.2170
 1138Sol     MW 7504   2.323   1.685   9.099 -0.3900  0.0242 -0.0389
 1139Sol     OW 7505   1.536   2.408   2.480  0.4665  0.5812 -0.3396
 1139Sol     HW 7506   1.601   2.339   2.495 -0.8826 -0.7980 -0.7029
 1139Sol     HW 7507   1.453   2.370   2.512 -0.4120  1.7703 -1.1753
 1139Sol     MW 7508   1.534   2.398   2.485 -0.1009 -0.0414  0.5020
 1140Sol     OW 7509   0.103   2.254   9.962  0.0076 -0.1639  0.0396
 1140Sol     HW 7510   0.187   2.218   9.935 -0.8601 -2.4996  0.2988
 1140Sol     HW 7511   0.119   2.348   9.973  2.4182 -0.4860 -0.4508
 1140Sol     MW 7512   0.112   2.259   9.961  0.7291  0.0943 -0.7451
 1141Sol     OW 7513   1.627   1.272   6.401 -0.4513  0.3095  0.0990
 1141Sol     HW 7514   1.687   1.220   6.455 -0.5120  0.1075 -0.0289
 1141Sol     HW 7515   1.649   1.362   6.423 -1.1555  0.2205  1.2155
 1141Sol     MW 7516   1.635   1.275   6.408  0.1566  1.1725 -0.3774
 1142Sol     OW 7517   0.871   1.810   3.594 -0.2027  0.4460  0.7868
 1142Sol     HW 7518   0.837   1.725   3.622 -0.5097  0.9170  1.8971
 1142Sol     HW 7519   0.834   1.824   3.507  0.7756 -1.0661  0.1146
 1142Sol     MW 7520   0.864   1.804   3.589 -0.3166  0.7256  0.0195
 1143Sol     OW 7521   2.885   2.830   4.539  0.2590 -0.4365 -0.0793
 1143Sol     HW 7522   2.875   2.810   4.446  0.9477 -0.6151 -0.1139
 1143Sol     HW 7523   2.833   2.909   4.552  1.9993  0.9059 -1.1041
 1143Sol     MW 7524   2.879   2.835   4.532  0.3002  0.2000 -0.6366
 1144Sol     OW 7525   1.946   1.698   8.533 -0.5321  0.2712 -0.1774
 1144Sol     HW 7526   1.931   1.783   8.574  0.4019  1.2763 -1.8670
 1144Sol     HW 7527   1.861   1.673   8.498 -0.9236  0.2538  0.7628
 1144Sol     MW 7528   1.937   1.703   8.534 -0.8113  0.0220  0.7654
 1145Sol     OW 7529   3.090   2.204   9.567 -0.1974 -0.3983 -0.0949
 1145Sol     HW 7530   3.006   2.160   9.577 -1.0263  1.1747  0.0914
 1145Sol     HW 7531   3.114   2.230   9.656 -0.8625  1.5504 -0.4615
 1145Sol     MW 7532   3.085   2.202   9.576  0.3150  0.3493 -0.8617
 1146Sol     OW 7533   0.766   2.242   3.545  0.0283  0.2181 -0.7360
 1146Sol     HW 7534   0.703   2.187   3.591 -0.2479  0.1517 -1.1908
 1146Sol     HW 7535   0.851   2.199   3.559  0.3456  1.6177  1.9377
 1146Sol     MW 7536   0.768   2.233   3.550  0.3369  0.7120  0.0141
 1147Sol     OW 7537   1.534   2.281   4.269 -0.1796  0.7478  0.3245
 1147Sol     HW 7538   1.481   2.351   4.306  2.2101  2.7366  0.0982
 1147Sol     HW 7539   1.556   2.311   4.181  0.8834 -0.2971  0.2257
 1147Sol     MW 7540   1.531   2.290   4.264  0.4911  0.0410 -0.1007
 1148Sol     OW 7541   1.270   1.138   2.710 -0.2407 -0.1533  0.2073
 1148Sol     HW 7542   1.332   1.081   2.665 -0.1521  0.3602 -0.3292
 1148Sol     HW 7543   1.299   1.137   2.801  0.2471 -0.3225  0.0527
 1148Sol     MW 7544   1.278   1.133   2.714 -0.3601 -0.5510 -0.2478
 1149Sol     OW 7545   0.903   3.198   6.755 -0.3298  0.0801  0.0729
 1149Sol     HW 7546   0.977   3.257   6.773 -0.3736  0.4134 -0.8027
 1149Sol     HW 7547   0.934   3.143   6.683 -0.6339 -0.3375  0.2641
 1149Sol     MW 7548   0.912   3.199   6.750 -0.3520 -0.0616 -0.0546
 1150Sol     OW 7549   1.261   0.115   6.244  0.1859 -0.0812  0.2538
 1150Sol     HW 7550   1.266   0.022   6.221  0.2858 -0.2394  0.8912
 1150Sol     HW 7551   1.348   0.136   6.278  0.3496  0.4019 -0.4686
 1150Sol     MW 7552   1.269   0.108   6.245  1.4598  0.0569 -0.0005
 1151Sol     OW 7553   1.655   2.637   6.548 -0.3089 -0.1269  0.2569
 1151Sol     HW 7554   1.717   2.701   6.582 -0.0912  0.0049 -0.3843
 1151Sol     HW 7555   1.668   2.559   6.602 -0.6595  0.3975  1.1249
 1151Sol     MW 7556   1.662   2.636   6.556  0.1406  0.7047 -0.0116
 1152Sol     OW 7557   1.211   0.087   4.505  0.0410  0.3598  0.2848
 1152Sol     HW 7558   1.188   0.177   4.482  1.6282  0.5276 -0.7858
 1152Sol     HW 7559   1.250   0.051   4.425  0.1041 -1.0459  0.9199
 1152Sol     MW 7560   1.213   0.091   4.496  0.6261  0.7797  0.2917
 1153Sol     OW 7561   1.349   2.570   9.394 -0.2212  0.1227 -0.2748
 1153Sol     HW 7562   1.379   2.606   9.311 -0.4927  1.3966  0.1650
 1153Sol     HW 7563   1.416   2.506   9.419  0.3320  0.4177 -1.0021
 1153Sol     MW 7564   1.358   2.567   9.389 -0.2374  0.1459  0.3536
 1154Sol     OW 7565   3.155   1.892   5.542 -0.0730  0.3066  0.5299
 1154Sol     HW 7566   3.068   1.894   5.580  0.3182  1.8902  1.4173
 1154Sol     HW 7567   3.202   1.824   5.591  0.1096  1.6009  2.2214
 1154Sol     MW 7568   3.152   1.886   5.550 -0.0093  0.9542 -0.2468
 1155Sol     OW 7569   0.408   1.371   7.560  0.3940  0.0917  0.2436
 1155Sol     HW 7570   0.481   1.343   7.506  0.7054  1.2975  0.0197
 1155Sol     HW 7571   0.420   1.466   7.570 -1.3942  0.3938 -0.2122
 1155Sol     MW 7572   0.415   1.377   7.556  0.3752  0.2072  0.4600
 1156Sol     OW 7573   3.162   2.692   7.691  0.0836  0.1028  0.5124
 1156Sol     HW 7574   3.080   2.671   7.737 -0.4892  0.8661 -0.1312
 1156Sol     HW 7575   3.183   2.613   7.642  0.9712 -0.8959  2.4675
 1156Sol     MW 7576   3.156   2.683   7.691 -0.5022 -0.1358 -0.4100
 1157Sol     OW 7577   1.153   0.649   9.127 -0.0094  0.2651  0.2418
 1157Sol     HW 7578   1.081   0.642   9.190 -0.6025 -1.5437 -0.6230
 1157Sol     HW 7579   1.200   0.728   9.154 -1.4453  0.6457  1.7140
 1157Sol     MW 7580   1.151   0.656   9.135  0.9898  0.0296  0.3152
 1158Sol     OW 7581   0.449   1.655   7.588 -0.2414 -0.2765 -0.3966
 1158Sol     HW 7582   0.430   1.736   7.541  0.0926 -0.3231 -0.6170
 1158Sol     HW 7583   0.544   1.647   7.585 -0.0055  0.9715  2.4316
 1158Sol     MW 7584   0.455   1.661   7.583 -0.3308 -0.5036  0.3821
 1159Sol     OW 7585   0.061   1.766   9.227 -0.0916  0.1294  0.0493
 1159Sol     HW 7586  -0.029   1.741   9.205 -0.1960 -1.2192  1.9175
 1159Sol     HW 7587   0.112   1.740   9.151 -1.2100  0.5093 -0.8525
 1159Sol     MW 7588   0.057   1.762   9.218 -0.1222 -0.1128  0.4704
 1160Sol     OW 7589   0.681   2.622   4.179 -0.4122 -0.2098 -0.0207
 1160Sol     HW 7590   0.710   2.606   4.269 -1.0501 -1.9498 -0.1006
 1160Sol     HW 7591   0.686   2.717   4.168  1.1323 -0.1280  1.3460
 1160Sol     MW 7592   0.684   2.629   4.186  0.1015  0.1042 -0.5150
 1161Sol     OW 7593   0.697   3.002   3.042  0.0355 -0.2070  0.2630
 1161Sol     HW 7594   0.727   2.956   2.963 -1.2758 -0.3311 -0.1890
 1161Sol     HW 7595   0.775   3.012   3.096  0.8478 -0.6037 -0.8204
 1161Sol     MW 7596   0.707   2.998   3.039  0.3615 -0.4760  0.3729
 1162Sol     OW 7597   0.120   1.217   6.863  1.0029 -0.3132 -0.7389
 1162Sol     HW 7598   0.140   1.281   6.795  1.7030  1.0619  0.7245
 1162Sol     HW 7599   0.041   1.172   6.832  0.5226  1.2411 -1.7940
 1162Sol     MW 7600   0.114   1.218   6.854  0.3153  0.1924  0.3283
 1163Sol     OW 7601   3.219   1.587   6.047  0.6156  0.4237  0.2355
 1163Sol     HW 7602   3.248   1.523   5.983  1.7877  1.0519  0.1091
 1163Sol     HW 7603   3.137   1.621   6.012  0.6269 -0.1091 -0.3177
 1163Sol     MW 7604   3.214   1.585   6.038 -0.6176 -0.0078 -0.2981
 1164Sol     OW 7605   1.935   2.817   5.701 -0.0003  0.7968 -0.0174
 1164Sol     HW 7606   2.017   2.826   5.749  1.3506  2.8098 -2.6023
 1164Sol     HW 7607   1.868   2.848   5.762  0.9878 -1.5459  2.3773
 1164Sol     MW 7608   1.936   2.820   5.711 -0.2439 -0.2296 -0.2427
 1165Sol     OW 7609   2.991   1.880   3.978  0.8336  0.3661  0.0455
 1165Sol     HW 7610   2.931   1.820   3.934  0.1963  1.3822 -0.4807
 1165Sol     HW 7611   3.065   1.890   3.917  0.5719  0.7278 -0.2145
 1165Sol     MW 7612   2.992   1.876   3.969 -0.1962 -0.4538  0.2995
 1166Sol     OW 7613   3.131   0.341   6.232 -0.2813 -0.6248  0.2462
 1166Sol     HW 7614   3.103   0.415   6.179 -0.8228 -0.4623  0.7549
 1166Sol     HW 7615   3.203   0.302   6.183  1.8708  1.9040  1.2870
 1166Sol     MW 7616   3.135   0.344   6.223 -0.1787  0.2666 -0.4031
 1167Sol     OW 7617   1.185   3.327   4.029 -0.4578  0.4464 -0.2167
 1167Sol     HW 7618   1.206   3.353   3.940 -1.1370  0.2112 -0.4463
 1167Sol     HW 7619   1.094   3.298   4.025 -0.1422 -0.6439  0.3176
 1167Sol     MW 7620   1.179   3.327   4.021 -0.8254 -0.4877  0.1292
 1168Sol     OW 7621   0.303   3.292   1.808 -0.2379 -0.2988 -0.2881
 1168Sol     HW 7622   0.369   3.351   1.843 -0.0982 -0.7748  0.2614
 1168Sol     HW 7623   0.353   3.223   1.763 -0.2614 -1.8212  1.9528
 1168Sol     MW 7624   0.314   3.291   1.807  0.2322 -0.2479 -0.3994
 1169Sol     OW 7625   1.526   1.507   5.269 -0.0407 -0.0440 -0.1947
 1169Sol     HW 7626   1.547   1.548   5.353  0.6810 -0.6148 -0.1000
 1169Sol     HW 7627   1.568   1.421   5.272 -1.2732 -0.6675 -0.5317
 1169Sol     MW 7628   1.531   1.503   5.276 -0.3597  0.2011  0.1747
 1170Sol     OW 7629   1.096   2.300   3.498 -0.6778 -0.0361  0.1941
 1170Sol     HW 7630   1.036   2.338   3.433  1.4914 -1.7031 -2.9366
 1170Sol     HW 7631   1.057   2.215   3.519 -0.0123 -0.6539 -1.0183
 1170Sol     MW 7632   1.087   2.296   3.494  0.1758  0.3766 -0.2708
 1171Sol     OW 7633   1.040   0.812   8.048 -0.2713 -0.3624  0.1854
 1171Sol     HW 7634   1.034   0.729   8.095 -0.9721 -0.5110 -0.1478
 1171Sol     HW 7635   0.963   0.812   7.990  0.9461 -0.4800 -1.4483
 1171Sol     MW 7636   1.032   0.805   8.047  0.6393  0.3284  0.2976
 1172Sol     OW 7637   2.410   2.041   5.363  0.1617 -0.5680  0.0978
 1172Sol     HW 7638   2.333   2.001   5.406 -0.1042  0.0430  0.1936
 1172Sol     HW 7639   2.375   2.120   5.322  0.6596 -0.5235 -0.2278
 1172Sol     MW 7640   2.400   2.044   5.363 -0.5222  0.5513 -0.1129
 1173Sol     OW 7641   1.076   0.881   3.402 -0.4707 -0.1754  0.4299
 1173Sol     HW 7642   1.004   0.820   3.419 -0.9031  0.5325  1.1948
 1173Sol     HW 7643   1.122   0.844   3.327  0.2608 -2.3309  1.8883
 1173Sol     MW 7644   1.073   0.872   3.397  0.3646 -0.6854 -0.1068
 1174Sol     OW 7645   0.876   1.875   4.225 -0.0053  0.1753  0.5999
 1174Sol     HW 7646   0.798   1.832   4.262 -0.0942  0.2588  0.5101
 1174Sol     HW 7647   0.859   1.969   4.238 -1.3787  0.3649 -2.3130
 1174Sol     MW 7648   0.867   1.880   4.230 -0.4171  0.2880 -0.7492
 1175Sol     OW 7649   1.249   3.033   3.339 -0.2090  0.4751 -0.5258
 1175Sol     HW 7650   1.327   3.051   3.285  0.2780 -0.1454 -0.0406
 1175Sol     HW 7651   1.217   2.949   3.306 -0.0113  0.1788  0.0363
 1175Sol     MW 7652   1.253   3.027   3.331 -0.1076 -0.5025 -0.0041
 1176Sol     OW 7653   3.059   0.145   5.961 -0.3992  0.1062 -0.6270
 1176Sol     HW 7654   3.026   0.167   6.048  0.2933  1.2110 -0.6233
 1176Sol     HW 7655   2.981   0.143   5.906 -0.9218 -1.2879  0.1461
 1176Sol     MW 7656   3.049   0.147   5.964 -0.4722  0.5981  0.6414
 1177Sol     OW 7657   1.980   3.021   9.496  0.0409  0.2172  0.6876
 1177Sol     HW 7658   2.018   3.058   9.576 -0.2238  1.7299  0.1242
 1177Sol     HW 7659   2.045   3.042   9.428 -0.6304  0.6133  0.1696
 1177Sol     MW 7660   1.990   3.026   9.497 -0.1665  0.4205 -0.7634
 1178Sol     OW 7661   1.669   2.478   3.770 -0.0488 -0.4188 -0.1489
 1178Sol     HW 7662   1.702   2.487   3.680 -1.3856 -0.0548 -0.6176
 1178Sol     HW 7663   1.724   2.537   3.822 -0.2576  0.5283 -0.9884
 1178Sol     MW 7664   1.677   2.484   3.766 -1.0394 -0.1713 -0.3010
 1179Sol     OW 7665   3.285   2.801   5.824  0.6582 -0.2409 -0.0920
 1179Sol     HW 7666   3.277   2.869   5.757 -1.3201 -0.4013 -0.0454
 1179Sol     HW 7667   3.315   2.723   5.777  0.3270 -0.0614 -0.6007
 1179Sol     MW 7668   3.287   2.800   5.814  0.2631  0.1000  0.1594
 1180Sol     OW 7669   1.169   2.315   5.865 -0.0431  0.0431  0.9499
 1180Sol     HW 7670   1.258   2.323   5.900 -0.3134  1.1581  1.4030
 1180Sol     HW 7671   1.120   2.272   5.935  0.4787 -1.9579  0.1057
 1180Sol     MW 7672   1.173   2.312   5.875  0.0544 -0.2109  0.8539
 1181Sol     OW 7673   1.808   0.137   1.538 -0.1511  0.8056  0.2299
 1181Sol     HW 7674   1.783   0.170   1.624  1.6986 -0.7622  1.4182
 1181Sol     HW 7675   1.900   0.113   1.548  0.3410  1.4402 -2.4549
 1181Sol     MW 7676   1.814   0.138   1.546 -0.2146  0.3950  0.2210
 1182Sol     OW 7677   3.298   0.630   6.053 -0.2705 -1.0279 -0.1701
 1182Sol     HW 7678   3.203   0.619   6.039 -0.4625 -0.2974  0.5517
 1182Sol     HW 7679   3.311   0.608   6.145  0.1550 -0.4197 -0.0893
 1182Sol     MW 7680   3.290   0.627   6.060 -0.1539  0.1097  0.6558
 1183Sol     OW 7681   0.209   0.038   4.804  0.4047 -0.4318 -0.2220
 1183Sol     HW 7682   0.235  -0.053   4.818  0.0392 -0.2364  1.8392
 1183Sol     HW 7683   0.292   0.086   4.800  0.5434 -0.4448  1.8162
 1183Sol     MW 7684   0.219   0.034   4.805 -0.5255  0.2386  0.3832
 1184Sol     OW 7685   2.479   1.542   5.780 -0.1350 -0.5811 -0.4248
 1184Sol     HW 7686   2.435   1.468   5.739 -1.8434 -0.2690  0.8098
 1184Sol     HW 7687   2.460   1.533   5.874  1.2376  0.3517 -0.0396
 1184Sol     MW 7688   2.473   1.535   5.785 -0.2595  0.0511 -0.4391
 1185Sol     OW 7689   2.675   3.319   3.787 -0.3220 -0.4712 -0.3461
 1185Sol     HW 7690   2.729   3.268   3.846 -2.6400 -3.0003 -0.3371
 1185Sol     HW 7691   2.675   3.269   3.705  2.2591  2.6105 -2.3491
 1185Sol     MW 7692   2.680   3.310   3.785  0.0220 -0.2427 -0.2425
 1186Sol     OW 7693   2.173   0.216   2.745  0.0873  0.7166  0.1015
 1186Sol     HW 7694   2.211   0.145   2.796  2.4722  2.2146  0.4976
 1186Sol     HW 7695   2.088   0.233   2.787 -0.7915 -2.2173 -0.3672
 1186Sol     MW 7696   2.168   0.212   2.754 -0.3766  0.0234 -0.1958
 1187Sol     OW 7697   0.956   3.242   1.975 -0.1855  0.3034 -0.0420
 1187Sol     HW 7698   0.978   3.194   1.895  2.2295 -1.1279  1.4394
 1187Sol     HW 7699   0.983   3.332   1.956  0.7656 -0.1123 -0.7073
 1187Sol     MW 7700   0.960   3.246   1.966  0.0206 -0.0632 -0.0977
 1188Sol     OW 7701   1.068   0.334   4.463 -0.0180 -0.7814  0.4309
 1188Sol     HW 7702   1.063   0.409   4.522 -3.5097 -1.5260  1.1576
 1188Sol     HW 7703   1.065   0.372   4.375 -0.9283 -0.0161  0.7901
 1188Sol     MW 7704   1.067   0.344   4.460  0.3460 -0.7302  0.3966
 1189Sol     OW 7705   1.442   0.773   5.623  0.1001 -0.2988  0.1408
 1189Sol     HW 7706   1.382   0.847   5.632 -1.9598 -2.0722  1.4768
 1189Sol     HW 7707   1.525   0.812   5.598 -1.4578  2.2812 -1.1742
 1189Sol     MW 7708   1.444   0.783   5.621 -0.4938  0.0876  0.9185
 1190Sol     OW 7709   3.103   3.175   5.094  0.1057  0.5179  0.2175
 1190Sol     HW 7710   3.057   3.258   5.083 -0.8433 -0.0709 -0.2629
 1190Sol     HW 7711   3.112   3.140   5.006  0.0258 -0.1453  0.4686
 1190Sol     MW 7712   3.100   3.179   5.085  0.1052 -0.5303  0.5900
 1191Sol     OW 7713   0.451   0.736   9.632 -0.0026  0.6344 -0.5995
 1191Sol     HW 7714   0.521   0.717   9.569  2.6817  0.8113  2.2316
 1191Sol     HW 7715   0.466   0.827   9.657 -1.1748  0.6190  0.1548
 1191Sol     MW 7716   0.459   0.742   9.628  0.1275 -0.6012 -0.3071
 1192Sol     OW 7717   3.057   2.142   5.186 -0.2659 -0.1362 -0.0287
 1192Sol     HW 7718   3.137   2.132   5.237  0.3884 -2.0396 -1.3663
 1192Sol     HW 7719   3.039   2.236   5.188  1.0279  0.1110  1.7134
 1192Sol     MW 7720   3.062   2.149   5.191 -0.0633  0.1615  0.2354
 1193Sol     OW 7721   0.529   1.393   8.195 -0.2255 -0.5945  0.2149
 1193Sol     HW 7722   0.607   1.383   8.140 -1.3526  1.6647 -1.8655
 1193Sol     HW 7723   0.455   1.387   8.134 -1.5164  1.5115  1.5243
 1193Sol     MW 7724   0.529   1.392   8.185  0.1863 -0.3873  0.4180
 1194Sol     OW 7725   2.406   2.367   7.883  0.3573  0.0934 -0.6280
 1194Sol     HW 7726   2.424   2.273   7.888 -0.9293 -0.2141 -1.5721
 1194Sol     HW 7727   2.380   2.382   7.792 -2.4608  0.8251  0.2704
 1194Sol     MW 7728   2.406   2.360   7.875  0.0531  0.1852  0.2787
 1195Sol     OW 7729   0.451   3.347   3.493 -0.4876  0.0132  0.0688
 1195Sol     HW 7730   0.377   3.398   3.526  0.4459  1.4373 -0.0010
 1195Sol     HW 7731   0.449   3.362   3.398  0.3514  0.6930  0.1565
 1195Sol     MW 7732   0.444   3.353   3.487 -0.2544 -0.0286  0.3958
 1196Sol     OW 7733   0.249   0.980   6.908 -0.2987 -0.3689  0.9012
 1196Sol     HW 7734   0.237   0.915   6.839 -0.0460  0.0976  0.4143
 1196Sol     HW 7735   0.204   1.058   6.875 -0.6279 -0.3028  1.4960
 1196Sol     MW 7736   0.244   0.981   6.899  0.2616  0.6888  0.0032
 1197Sol     OW 7737   3.192   1.949   3.771 -0.1286  0.1919 -0.2598
 1197Sol     HW 7738   3.196   1.987   3.683  1.6140  0.7410  0.0236
 1197Sol     HW 7739   3.230   1.861   3.761  0.7478  0.5212  0.0490
 1197Sol     MW 7740   3.196   1.944   3.762  0.5982  0.5639  0.1397
 1198Sol     OW 7741   2.843   0.621   7.170 -0.0065  0.2719  0.6276
 1198Sol     HW 7742   2.761   0.618   7.219 -0.4958  1.1184 -0.1517
 1198Sol     HW 7743   2.819   0.652   7.083  0.8680 -1.2523 -0.1824
 1198Sol     MW 7744   2.834   0.623   7.167  0.0545  0.4683  0.8948
 1199Sol     OW 7745   1.418   0.932   7.364 -0.6048 -0.1421 -0.4007
 1199Sol     HW 7746   1.411   0.897   7.453  0.4289  2.1756  0.6313
 1199Sol     HW 7747   1.334   0.910   7.323 -1.8631  0.4515  1.7726
 1199Sol     MW 7748   1.410   0.927   7.368  0.2297 -0.5994 -0.2084
 1200Sol     OW 7749   0.902   1.089   3.297  0.0486 -0.3514  0.1747
 1200Sol     HW 7750   0.950   1.037   3.362  1.2472 -0.6567 -0.9179
 1200Sol     HW 7751   0.815   1.051   3.294 -0.1420 -0.0843  1.8815
 1200Sol     MW 7752   0.899   1.081   3.302  0.2107 -0.7721 -0.6070
 1201Sol     OW 7753   0.780   0.154   4.349 -0.6505  0.1829 -0.1424
 1201Sol     HW 7754   0.822   0.221   4.295  0.0684 -0.3503 -0.2483
 1201Sol     HW 7755   0.852   0.103   4.385 -1.2146 -1.0803 -0.7563
 1201Sol     MW 7756   0.790   0.155   4.348 -0.1153  0.4089  0.7345
 1202Sol     OW 7757   1.422   0.504   5.568 -0.0835 -0.4287 -0.0048
 1202Sol     HW 7758   1.402   0.596   5.584 -0.1950 -0.4508 -0.0178
 1202Sol     HW 7759   1.407   0.493   5.474  0.2004 -0.3912 -0.0554
 1202Sol     MW 7760   1.419   0.512   5.561  0.1631  0.2049  0.1082
 1203Sol     OW 7761   0.766   2.630   8.024  0.5647 -0.2333 -0.0496
 1203Sol     HW 7762   0.787   2.566   7.956  0.0508  1.0311 -1.4365
 1203Sol     HW 7763   0.841   2.689   8.026  0.1536  0.2991 -0.2062
 1203Sol     MW 7764   0.775   2.629   8.018  0.6864 -0.3183  0.2458
 1204Sol     OW 7765   0.086   2.251   7.603 -0.1003 -0.3703  0.2404
 1204Sol     HW 7766   0.136   2.171   7.621 -1.0948 -1.0480  0.0140
 1204Sol     HW 7767   0.137   2.321   7.646  1.6921 -0.8663 -1.0370
 1204Sol     MW 7768   0.095   2.250   7.609  0.0483 -0.0264 -0.4251
 1205Sol     OW 7769   1.325   2.944   6.393  0.0084 -0.2717  0.3702
 1205Sol     HW 7770   1.411   2.927   6.354 -0.6820 -0.2988 -1.1865
 1205Sol     HW 7771   1.262   2.910   6.329 -1.1871  0.9653  0.8510
 1205Sol     MW 7772   1.327   2.940   6.384  0.9893  0.2694  0.0130
 1206Sol     OW 7773   0.244   3.099   4.608  0.2482  0.2674  0.6334
 1206Sol     HW 7774   0.179   3.155   4.567  0.6298 -1.1002 -1.9950
 1206Sol     HW 7775   0.290   3.057   4.534  2.6487 -0.4263  2.4263
 1206Sol     MW 7776   0.243   3.100   4.597  0.9164  0.2002  0.0955
 1207Sol     OW 7777   3.025   2.974   7.031  0.4530 -0.9424 -0.1200
 1207Sol     HW 7778   2.966   2.899   7.042 -2.1178  1.0807  0.2505
 1207Sol     HW 7779   3.028   2.989   6.937  0.6296 -1.2397 -0.1627
 1207Sol     MW 7780   3.020   2.969   7.024  0.3907 -0.9961 -0.1080
 1208Sol     OW 7781   1.915   1.143   2.522  0.2254  0.1572  0.6687
 1208Sol     HW 7782   1.956   1.124   2.438  0.9589 -0.1842  1.0903
 1208Sol     HW 7783   1.885   1.233   2.515 -0.2834 -0.0678 -0.1776
 1208Sol     MW 7784   1.916   1.149   2.514  0.1619 -0.7615 -0.4678
 1209Sol     OW 7785   1.901   1.296   2.114 -0.3263  0.2976  0.1778
 1209Sol     HW 7786   1.815   1.299   2.155  0.5872  0.7884  2.1167
 1209Sol     HW 7787   1.883   1.271   2.023 -2.4951  0.3523  0.5543
 1209Sol     MW 7788   1.892   1.294   2.110  0.0435  0.2514  0.0583
 1210Sol     OW 7789   1.415   2.193   9.817 -0.4850  0.5730  0.0411
 1210Sol     HW 7790   1.392   2.242   9.896 -1.1968  2.9429 -1.6137
 1210Sol     HW 7791   1.511   2.188   9.819 -0.4786  0.9569  0.8273
 1210Sol     MW 7792   1.422   2.197   9.825  0.2045  0.1595  0.2181
 1211Sol     OW 7793   0.347   0.099   7.399 -1.1341 -0.3508 -0.4032
 1211Sol     HW 7794   0.347   0.117   7.304  0.8121  0.0768 -0.3339
 1211Sol     HW 7795   0.386   0.013   7.407 -0.6184 -0.0750  0.0595
 1211Sol     MW 7796   0.350   0.093   7.391  0.2393  0.1903  0.3203
 1212Sol     OW 7797   1.265   0.010   8.212  0.2852 -0.2165 -0.4821
 1212Sol     HW 7798   1.257  -0.002   8.307  0.7369 -1.1862 -0.5540
 1212Sol     HW 7799   1.221  -0.067   8.175  2.2905 -1.1673 -1.0029
 1212Sol     MW 7800   1.260   0.002   8.217  0.0653  0.1070  0.7450
 1213Sol     OW 7801   2.505   3.092   7.475 -0.1926 -0.2074 -0.3275
 1213Sol     HW 7802   2.448   3.087   7.398  0.6664 -1.7410 -0.8804
 1213Sol     HW 7803   2.590   3.118   7.441  0.3406 -1.4569  0.0106
 1213Sol     MW 7804   2.507   3.094   7.465 -0.1245  0.2822 -0.2254
 1214Sol     OW 7805   0.069   0.897   6.026 -0.1063 -0.2248 -0.2769
 1214Sol     HW 7806   0.131   0.892   5.953  0.5379 -1.5164  0.3392
 1214Sol     HW 7807   0.053   0.806   6.050 -3.8045 -0.0288 -1.7052
 1214Sol     MW 7808   0.074   0.889   6.021  0.4677  0.3166  0.0145
 1215Sol     OW 7809   3.014   0.513   2.808  0.5696  0.6482 -0.0345
 1215Sol     HW 7810   2.967   0.572   2.748  0.8746 -0.2968 -1.2117
 1215Sol     HW 7811   2.946   0.456   2.844  0.5222  0.5847 -0.2229
 1215Sol     MW 7812   3.004   0.513   2.806  0.2895  1.1648  0.7339
 1216Sol     OW 7813   2.990   0.623   9.176  0.0386  0.5062 -0.3716
 1216Sol     HW 7814   3.046   0.547   9.160 -1.3944 -0.5999 -0.2418
 1216Sol     HW 7815   2.950   0.606   9.262 -1.6850  0.5301 -1.1571
 1216Sol     MW 7816   2.992   0.615   9.183  0.5329 -0.2734 -0.3276
 1217Sol     OW 7817   2.798   2.896   3.157 -0.0763  0.1993  0.6205
 1217Sol     HW 7818   2.857   2.954   3.110 -0.9679 -0.5196 -1.4538
 1217Sol     HW 7819   2.839   2.809   3.150 -0.8435 -0.1265  0.0469
 1217Sol     MW 7820   2.807   2.893   3.152  0.7639 -0.3808  0.0749
 1218Sol     OW 7821   2.829   1.079   2.467  0.6216 -0.4171 -0.4772
 1218Sol     HW 7822   2.858   0.990   2.490  0.9584 -0.2337 -0.1775
 1218Sol     HW 7823   2.895   1.136   2.507 -0.2449  0.0124  0.3622
 1218Sol     MW 7824   2.837   1.076   2.473  0.1511  0.2549 -0.4805
 1219Sol     OW 7825   0.507   1.950   3.122 -0.1567 -0.5185  0.9018
 1219Sol     HW 7826   0.441   1.974   3.057  0.9822 -1.3309 -0.5880
 1219Sol     HW 7827   0.516   2.028   3.177  1.1763  1.3784 -1.8873
 1219Sol     MW 7828   0.502   1.959   3.121 -0.4496  0.1711  0.1639
 1220Sol     OW 7829   0.515   2.623   2.939  0.8287  0.1159  0.2092
 1220Sol     HW 7830   0.600   2.602   2.976  1.4067  0.5941 -0.8260
 1220Sol     HW 7831   0.492   2.547   2.885  0.6127 -0.0054  0.4729
 1220Sol     MW 7832   0.520   2.614   2.937  0.3148  0.8633  1.1380
 1221Sol     OW 7833   2.187   1.607   7.636 -0.0568 -0.5613 -0.4150
 1221Sol     HW 7834   2.232   1.686   7.666 -0.9074  0.3525 -1.5094
 1221Sol     HW 7835   2.257   1.550   7.605  0.6404 -0.6254  1.2423
 1221Sol     MW 7836   2.197   1.609   7.636  0.1627  0.1349  0.5545
 1222Sol     OW 7837   0.556   0.364   5.223 -0.0824  0.5186 -0.2206
 1222Sol     HW 7838   0.471   0.320   5.225 -1.6151  3.3637 -0.5260
 1222Sol     HW 7839   0.575   0.383   5.315 -0.4013  1.0516 -0.2661
 1222Sol     MW 7840   0.550   0.362   5.232 -0.2197  0.5700  0.1198
 1223Sol     OW 7841   0.606   3.053   8.565  1.0619 -0.6178 -0.2430
 1223Sol     HW 7842   0.694   3.078   8.538  0.5097  1.6352 -0.0697
 1223Sol     HW 7843   0.598   3.086   8.654 -0.2522 -0.0279 -0.5679
 1223Sol     MW 7844   0.613   3.058   8.571 -0.4298  0.4835 -0.3565
 1224Sol     OW 7845   0.011   1.759   4.095  0.9591 -0.1556 -0.0869
 1224Sol     HW 7846   0.070   1.695   4.135  0.4225 -0.0992  0.7991
 1224Sol     HW 7847  -0.053   1.779   4.163  0.7456  0.8488 -0.5719
 1224Sol     MW 7848   0.011   1.755   4.105 -0.1407  0.4602 -0.3896
 1225Sol     OW 7849   0.049   1.159   6.118 -0.4577  0.3625 -0.0739
 1225Sol     HW 7850   0.011   1.084   6.072 -0.3906  0.2611  0.0361
 1225Sol     HW 7851   0.141   1.135   6.132 -0.6655  0.0694  0.7882
 1225Sol     MW 7852   0.054   1.150   6.115 -0.4638 -0.4212 -0.4236
 1226Sol     OW 7853   2.295   3.431   4.776  0.4571 -0.1037  0.2295
 1226Sol     HW 7854   2.333   3.465   4.857  1.2791 -0.2959 -0.0694
 1226Sol     HW 7855   2.371   3.410   4.721  0.0411 -3.4358  0.8076
 1226Sol     MW 7856   2.305   3.432   4.778  0.1199  0.7365 -0.0416
 1227Sol     OW 7857   2.589   2.820   3.539 -0.2295  0.3014 -0.2150
 1227Sol     HW 7858   2.665   2.863   3.578  0.6801 -1.3948 -0.0441
 1227Sol     HW 7859   2.588   2.733   3.579 -0.4861 -0.7564 -2.4493
 1227Sol     MW 7860   2.595   2.816   3.546  0.3565 -0.2323 -0.1672
 1228Sol     OW 7861   3.293   0.523   4.603  0.2201  0.5831 -0.6807
 1228Sol     HW 7862   3.344   0.443   4.616 -1.2121 -0.2816 -0.3075
 1228Sol     HW 7863   3.289   0.533   4.508 -0.2027 -0.1821 -0.7468
 1228Sol     MW 7864   3.297   0.516   4.596  0.1404 -0.2173 -0.4658
 1229Sol     OW 7865   1.738   2.185   6.526 -0.1262  0.4477  0.3773
 1229Sol     HW 7866   1.676   2.160   6.457 -0.3227  0.6810  0.4648
 1229Sol     HW 7867   1.753   2.105   6.576  0.1519  0.2407 -0.0475
 1229Sol     MW 7868   1.733   2.176   6.525  0.0033  0.3060 -0.2259
 1230Sol     OW 7869   0.638   1.249   7.409 -0.4009 -0.6378  0.6640
 1230Sol     HW 7870   0.622   1.155   7.397 -0.5131 -0.5275 -0.0492
 1230Sol     HW 7871   0.690   1.254   7.489 -1.0165 -1.2555  1.1166
 1230Sol     MW 7872   0.641   1.241   7.415 -0.5477 -0.3985 -0.5454
 1231Sol     OW 7873   1.669   0.156   8.004  0.1822  0.5611 -0.2708
 1231Sol     HW 7874   1.758   0.144   8.037 -0.2139 -0.1663  0.5784
 1231Sol     HW 7875   1.655   0.083   7.943  0.0608  0.4838 -0.1535
 1231Sol     MW 7876   1.675   0.148   8.002  0.0107  0.1314  1.0007
 1232Sol     OW 7877   1.894   1.654   4.829  0.0752  0.1482 -0.3737
 1232Sol     HW 7878   1.963   1.602   4.789 -1.4838 -1.5651 -0.8713
 1232Sol     HW 7879   1.813   1.611   4.803 -1.1367  1.3716  1.2950
 1232Sol     MW 7880   1.893   1.646   4.823  0.3543  0.0017 -0.7902
 1233Sol     OW 7881   0.842   2.989   3.727  0.3551 -0.2485  0.1870
 1233Sol     HW 7882   0.829   2.935   3.649  3.1859  0.2271 -0.6598
 1233Sol     HW 7883   0.910   2.944   3.777  0.5493  0.9012  0.9819
 1233Sol     MW 7884   0.847   2.980   3.724 -0.1814 -0.4558  0.7071
 1234Sol     OW 7885   2.615   0.555   9.344 -0.6025  0.0561  0.1453
 1234Sol     HW 7886   2.611   0.562   9.248 -0.9701  0.5877  0.1934
 1234Sol     HW 7887   2.708   0.553   9.364 -0.5309 -1.1146 -0.2966
 1234Sol     MW 7888   2.623   0.556   9.337  1.0998 -0.5837  0.2423
 1235Sol     OW 7889   1.997   0.793   9.534 -0.5243  0.1908  0.2866
 1235Sol     HW 7890   2.026   0.791   9.443 -0.0635  0.9978  0.4130
 1235Sol     HW 7891   2.047   0.724   9.577  0.4489  0.8894  0.2823
 1235Sol     MW 7892   2.004   0.787   9.530  0.3721 -0.4677  0.2457
 1236Sol     OW 7893   2.818   3.355   2.964  0.3698 -0.4851  0.8656
 1236Sol     HW 7894   2.898   3.402   2.985 -1.3493  1.1241  4.1818
 1236Sol     HW 7895   2.777   3.407   2.895  1.2084 -0.2435  0.5398
 1236Sol     MW 7896   2.822   3.363   2.959  0.5046 -0.3033  0.1703
 1237Sol     OW 7897   3.135   1.645   6.329 -0.7512  0.1314 -0.6391
 1237Sol     HW 7898   3.165   1.586   6.260 -1.1861 -0.1140 -0.6265
 1237Sol     HW 7899   3.081   1.589   6.385 -0.7196  0.4188 -0.3225
 1237Sol     MW 7900   3.133   1.635   6.328  0.6688  0.0984 -0.0387
 1238Sol     OW 7901   0.412   2.596   6.578  0.3898 -0.0459  0.0870
 1238Sol     HW 7902   0.469   2.562   6.508  1.4261  0.2598  0.7776
 1238Sol     HW 7903   0.335   2.630   6.531  1.0507  0.1102 -0.9123
 1238Sol     MW 7904   0.410   2.596   6.567  0.4555  0.0225  0.6423
 1239Sol     OW 7905   2.086   0.465   8.927 -0.0673  0.2223 -0.3475
 1239Sol     HW 7906   2.011   0.409   8.907 -0.5765  0.5527  0.6059
 1239Sol     HW 7907   2.135   0.416   8.993 -1.2439  1.4961  1.4936
 1239Sol     MW 7908   2.084   0.455   8.931  0.8965  0.0138 -0.6771
 1240Sol     OW 7909   0.803   3.140   4.746 -0.3503 -0.9530 -0.0962
 1240Sol     HW 7910   0.803   3.083   4.669 -0.1125 -0.3425 -0.5520
 1240Sol     HW 7911   0.796   3.080   4.820  0.2971 -1.6069 -0.5500
 1240Sol     MW 7912   0.803   3.129   4.746 -0.1313 -0.2919 -0.1026
 1241Sol     OW 7913   0.519   1.852   8.182  0.1081 -0.2228 -0.0964
 1241Sol     HW 7914   0.559   1.795   8.116  0.9713 -1.0427  1.1214
 1241Sol     HW 7915   0.518   1.800   8.262 -0.0024  1.1145  0.7954
 1241Sol     MW 7916   0.523   1.843   8.183  0.2313 -0.0633 -0.0756
 1242Sol     OW 7917   3.270   2.753   4.409 -0.7276  0.5828  0.4014
 1242Sol     HW 7918   3.220   2.715   4.481  0.6719 -0.8562  0.6471
 1242Sol     HW 7919   3.310   2.678   4.365  0.1890  1.5991 -0.5508
 1242Sol     MW 7920   3.269   2.743   4.411 -0.3836  0.5664  0.0637
 1243Sol     OW 7921   2.153   1.945   2.156  0.5600  0.2238 -0.1538
 1243Sol     HW 7922   2.071   1.909   2.121  1.4724 -0.7859 -1.3209
 1243Sol     HW 7923   2.132   1.969   2.246 -1.0791  0.1981 -0.5100
 1243Sol     MW 7924   2.144   1.944   2.161  0.1097  0.0190 -0.1475
 1244Sol     OW 7925   1.155   1.824   7.878  0.0706  0.4103 -0.2107
 1244Sol     HW 7926   1.194   1.886   7.940 -0.7136  1.2476 -0.5474
 1244Sol     HW 7927   1.112   1.758   7.933  1.6318 -0.3140  0.1551
 1244Sol     MW 7928   1.155   1.823   7.889  0.6199  0.3263  0.5989
 1245Sol     OW 7929   1.686   0.863   5.627  0.0732  0.3819 -0.2772
 1245Sol     HW 7930   1.742   0.916   5.571 -0.3680  0.0254 -1.0652
 1245Sol     HW 7931   1.739   0.786   5.649  0.2644  0.5474 -0.1562
 1245Sol     MW 7932   1.696   0.861   5.624  0.0025 -0.0365 -0.0714
 1246Sol     OW 7933   3.067   0.917   7.520  0.2281  0.4079  0.0694
 1246Sol     HW 7934   3.085   0.925   7.614 -1.2602 -2.2236  0.6038
 1246Sol     HW 7935   3.124   0.846   7.491  0.1280  0.7070 -0.8703
 1246Sol     MW 7936   3.074   0.912   7.526  0.3971 -0.4103  0.1651
 1247Sol     OW 7937   1.982   2.033   7.742 -0.3395  0.5315  0.3155
 1247Sol     HW 7938   1.927   2.112   7.743 -1.3539 -0.1563 -0.0476
 1247Sol     HW 7939   1.985   2.005   7.833 -2.3414 -0.5982  0.0653
 1247Sol     MW 7940   1.977   2.038   7.750  0.3375  0.2838  0.4412
 1248Sol     OW 7941   1.636   2.980   4.745  0.3053  0.2490 -0.5497
 1248Sol     HW 7942   1.588   3.059   4.719 -1.0339 -1.3632 -3.2491
 1248Sol     HW 7943   1.568   2.913   4.752  1.5192 -0.8466  1.0534
 1248Sol     MW 7944   1.626   2.981   4.744  0.1744  0.2665  0.0168
 1249Sol     OW 7945   2.293   0.669   6.242  0.1450  0.0846  0.0292
 1249Sol     HW 7946   2.352   0.687   6.316  1.8680  0.3233 -1.3765
 1249Sol     HW 7947   2.264   0.755   6.213 -0.9919 -0.0342  0.7555
 1249Sol     MW 7948   2.296   0.678   6.246 -0.2081  0.1249 -0.4523
 1250Sol     OW 7949   1.454   0.915   8.524 -0.1039 -0.5697  0.4465
 1250Sol     HW 7950   1.434   0.876   8.439  1.9472 -1.0079  0.1404
 1250Sol     HW 7951   1.446   1.009   8.510 -0.5402 -0.6768 -0.0230
 1250Sol     MW 7952   1.452   0.920   8.515 -0.4021  0.0875 -0.5158
 1251Sol     OW 7953   0.616   1.243   8.892  0.4605 -0.1328 -0.0448
 1251Sol     HW 7954   0.623   1.293   8.810 -0.4698 -0.6676 -0.4631
 1251Sol     HW 7955   0.542   1.184   8.877  0.2278 -0.1667  1.2248
 1251Sol     MW 7956   0.610   1.242   8.883 -0.1804  0.2945  0.9921
 1252Sol     OW 7957   2.441   1.357   5.148  0.3497 -0.1056 -0.8264
 1252Sol     HW 7958   2.452   1.410   5.228  0.7496  0.4443 -1.2428
 1252Sol     HW 7959   2.365   1.396   5.104  1.1061  0.6093 -1.5133
 1252Sol     MW 7960   2.435   1.366   5.152 -0.5429 -0.1040 -0.0613
 1253Sol     OW 7961   2.553   2.325   5.971  0.0074 -0.0797 -0.0076
 1253Sol     HW 7962   2.641   2.329   6.008 -0.5044 -2.8865  1.6710
 1253Sol     HW 7963   2.560   2.260   5.900 -0.6511 -0.1240 -0.0372
 1253Sol     MW 7964   2.562   2.319   5.968  0.0682 -0.2622 -0.5519
 1254Sol     OW 7965   0.574   3.164   8.805  0.4014  0.4032  0.1473
 1254Sol     HW 7966   0.500   3.108   8.828  1.9116 -2.3171 -1.2983
 1254Sol     HW 7967   0.536   3.249   8.785 -2.2236 -0.7403  0.1867
 1254Sol     MW 7968   0.564   3.167   8.805 -0.4931 -0.5267  1.0826
 1255Sol     OW 7969   1.308   3.014   1.777  0.7110 -0.1854 -0.6317
 1255Sol     HW 7970   1.391   2.967   1.780  0.3258 -0.8544 -0.4537
 1255Sol     HW 7971   1.331   3.101   1.743  1.7574  0.2169  1.0492
 1255Sol     MW 7972   1.318   3.018   1.774 -0.4527  0.1265 -0.2802
 1256Sol     OW 7973   1.315   0.889   4.320 -0.2462  0.0733  0.2580
 1256Sol     HW 7974   1.382   0.899   4.252 -0.9285 -1.5462 -0.6705
 1256Sol     HW 7975   1.351   0.937   4.395  1.9774 -0.7974 -0.2087
 1256Sol     MW 7976   1.324   0.894   4.321 -0.2279 -0.4015 -0.3943
 1257Sol     OW 7977   1.995   0.297   4.968 -0.6563 -0.0130  0.4690
 1257Sol     HW 7978   1.923   0.347   5.006 -2.0577 -1.6179 -0.0014
 1257Sol     HW 7979   1.967   0.282   4.877  1.9682  2.5281 -0.8282
 1257Sol     MW 7980   1.986   0.300   4.963 -0.1170  0.2773 -0.0647
 1258Sol     OW 7981   2.637   1.244   2.354 -0.2886 -0.2176 -0.2383
 1258Sol     HW 7982   2.703   1.311   2.339 -0.2678  0.1862  1.5299
 1258Sol     HW 7983   2.686   1.170   2.390 -0.8389  0.2795  1.6067
 1258Sol     MW 7984   2.647   1.243   2.356 -0.0313  0.9230 -0.1907
 1259Sol     OW 7985   0.359   0.133   4.497 -0.3125 -0.3273 -0.4838
 1259Sol     HW 7986   0.403   0.136   4.412 -1.5305  0.3588 -1.1045
 1259Sol     HW 7987   0.346   0.039   4.514 -0.9978 -0.4357 -1.5564
 1259Sol     MW 7988   0.361   0.125   4.491  0.1170  0.2821 -0.6827
 1260Sol     OW 7989   0.219   2.998   5.930  0.8795  0.9832  0.4038
 1260Sol     HW 7990   0.196   3.085   5.897  0.0635  0.7083  0.2238
 1260Sol     HW 7991   0.135   2.954   5.941  1.3757 -0.4583 -1.3683
 1260Sol     MW 7992   0.209   3.002   5.928  0.0111 -0.0289  0.5220
 1261Sol     OW 7993   1.010   1.926   7.665  0.6696  0.3425  0.2021
 1261Sol     HW 7994   1.036   2.014   7.638 -0.2854  1.0506  1.5151
 1261Sol     HW 7995   1.067   1.906   7.739  1.1147 -0.2848 -0.3092
 1261Sol     MW 7996   1.018   1.932   7.669 -0.3864  0.4066  0.0479
 1262Sol     OW 7997   3.149   2.918   6.595 -0.1387 -0.2128  0.0669
 1262Sol     HW 7998   3.150   2.994   6.537 -2.2027 -2.1522 -2.6627
 1262Sol     HW 7999   3.083   2.940   6.661  0.2525  0.9131  0.0960
 1262Sol     MW 8000   3.143   2.927   6.596 -0.7018  0.7391 -0.1166
 1263Sol     OW 8001   0.775   3.286   7.077 -0.1906 -0.4108 -0.1159
 1263Sol     HW 8002   0.682   3.309   7.076 -0.2818 -0.8040 -1.3381
 1263Sol     HW 8003   0.778   3.195   7.048  0.6506 -0.0544 -1.2146
 1263Sol     MW 8004   0.767   3.280   7.074  0.3529 -0.0776  0.1633
 1264Sol     OW 8005   1.278   3.059   5.986  0.1196 -0.2966  0.0607
 1264Sol     HW 8006   1.223   3.059   5.908 -0.4808 -1.0681  0.4802
 1264Sol     HW 8007   1.237   2.995   6.045  1.0450 -0.3416  0.6672
 1264Sol     MW 8008   1.269   3.054   5.985  0.5578  0.2718 -0.3549
 1265Sol     OW 8009   0.031   0.514   5.503  0.4285 -0.2776 -0.7451
 1265Sol     HW 8010   0.124   0.526   5.481  0.7621 -2.4605 -0.6049
 1265Sol     HW 8011   0.025   0.539   5.595 -0.0331  4.1846 -1.8710
 1265Sol     MW 8012   0.039   0.517   5.510 -0.7947  0.4651  0.1922
 1266Sol     OW 8013   2.601   1.790   9.628  0.0255  0.0853  0.3017
 1266Sol     HW 8014   2.614   1.695   9.626  0.6398  0.1720  0.3915
 1266Sol     HW 8015   2.505   1.800   9.625 -0.0532 -0.5404  0.5440
 1266Sol     MW 8016   2.593   1.783   9.627 -0.9939 -0.5074  0.1285
 1267Sol     OW 8017   2.296   2.074   9.525  0.2243 -0.2844 -0.0568
 1267Sol     HW 8018   2.370   2.132   9.507 -0.3292  0.2767 -0.5778
 1267Sol     HW 8019   2.336   1.991   9.552  1.0698 -0.3555 -1.4388
 1267Sol     MW 8020   2.306   2.072   9.526 -0.3920 -0.4918  0.5002
 1268Sol     OW 8021   0.194   0.208   1.367 -0.1423  0.0199  0.7836
 1268Sol     HW 8022   0.266   0.216   1.429 -1.0810  2.1553  1.6553
 1268Sol     HW 8023   0.200   0.287   1.313 -1.2881 -0.2366  0.2661
 1268Sol     MW 8024   0.201   0.216   1.367  0.7698  0.0482 -0.3158
 1269Sol     OW 8025   1.716   2.636   9.406  0.8055  0.6952 -0.4411
 1269Sol     HW 8026   1.731   2.576   9.333  1.0100  1.8384 -1.3615
 1269Sol     HW 8027   1.725   2.582   9.484 -0.0609 -0.6901 -1.2787
 1269Sol     MW 8028   1.718   2.626   9.406  0.7292 -0.4412  0.0559
 1270Sol     OW 8029   1.684   1.164   7.015  0.5321  0.0838 -0.2451
 1270Sol     HW 8030   1.610   1.145   7.073  0.5916  0.5163 -0.0221
 1270Sol     HW 8031   1.717   1.248   7.046  1.4935 -0.3952  0.0387
 1270Sol     MW 8032   1.680   1.170   7.023 -0.2619 -0.5065  0.1077
 1271Sol     OW 8033   3.030   2.375   3.174  0.1128 -0.2528  0.4645
 1271Sol     HW 8034   2.969   2.447   3.154  0.6028  0.6347  2.0919
 1271Sol     HW 8035   2.973   2.303   3.200 -0.2858  0.6130  2.0941
 1271Sol     MW 8036   3.019   2.375   3.175  0.0238  0.6382  0.2582
 1272Sol     OW 8037   2.526   2.005   8.834  0.7244  0.1647 -0.2162
 1272Sol     HW 8038   2.591   1.995   8.764 -0.6084  1.1588 -1.6281
 1272Sol     HW 8039   2.480   1.922   8.837  0.0485  0.4966 -1.2840
 1272Sol     MW 8040   2.528   1.997   8.828 -0.0659 -0.5124  0.0159
 1273Sol     OW 8041   0.565   2.483   2.479 -0.0462 -0.0607 -0.2990
 1273Sol     HW 8042   0.471   2.471   2.492 -0.0092 -0.7810 -0.6858
 1273Sol     HW 8043   0.574   2.573   2.447 -0.7531 -0.4998 -1.7587
 1273Sol     MW 8044   0.558   2.490   2.477 -0.3817  0.3359  0.0313
 1274Sol     OW 8045   2.873   2.326   8.482 -0.8999  0.1067  0.1109
 1274Sol     HW 8046   2.908   2.292   8.400 -1.8181 -0.3144 -0.1065
 1274Sol     HW 8047   2.913   2.272   8.550 -1.2983 -0.5200 -0.1517
 1274Sol     MW 8048   2.880   2.319   8.481 -0.2062  0.4871  0.6690
 1275Sol     OW 8049   0.723   1.893   2.935  1.1341 -0.2425  0.4508
 1275Sol     HW 8050   0.652   1.938   2.981  2.2540  0.1712  1.8458
 1275Sol     HW 8051   0.705   1.800   2.948 -0.1083 -0.1781 -0.7369
 1275Sol     MW 8052   0.715   1.889   2.941 -0.3482  0.6468  0.3310
 1276Sol     OW 8053   2.794   0.728   6.900 -0.3611  0.3265  0.4226
 1276Sol     HW 8054   2.762   0.818   6.890  0.9425  0.5301 -2.4543
 1276Sol     HW 8055   2.718   0.673   6.879 -0.4332  0.7940 -0.6084
 1276Sol     MW 8056   2.784   0.731   6.897  0.0836 -0.0035  0.4772
 1277Sol     OW 8057   1.369   3.175   6.864 -0.0074  0.0853 -0.1947
 1277Sol     HW 8058   1.377   3.104   6.800  0.5921  1.2279 -1.3952
 1277Sol     HW 8059   1.356   3.254   6.812  0.0388  0.9764  1.1135
 1277Sol     MW 8060   1.368   3.176   6.854 -0.2934 -0.3306  0.1198
 1278Sol     OW 8061   0.445   0.649   2.314 -0.0230  0.3875  0.7194
 1278Sol     HW 8062   0.350   0.651   2.331  0.2737  0.3124  2.4537
 1278Sol     HW 8063   0.462   0.560   2.283 -0.5685  0.5133  0.0292
 1278Sol     MW 8064   0.438   0.642   2.312  0.6435 -0.6934 -0.4922
 1279Sol     OW 8065   0.338   1.408   9.141 -0.6681 -0.5670  0.6218
 1279Sol     HW 8066   0.405   1.403   9.209 -0.1818 -0.9407  0.1142
 1279Sol     HW 8067   0.260   1.441   9.187  0.3147  1.4886  0.8656
 1279Sol     MW 8068   0.337   1.411   9.151 -0.3638  0.5143  0.3000
 1280Sol     OW 8069   1.262   2.192   6.493  0.5707  0.3498 -0.1014
 1280Sol     HW 8070   1.319   2.178   6.569  1.0863 -1.2163 -0.7678
 1280Sol     HW 8071   1.287   2.278   6.460  0.1045  1.2096  1.6963
 1280Sol     MW 8072   1.269   2.199   6.497  0.2223  0.4249 -0.1973
 1281Sol     OW 8073   1.998   0.213   3.201  0.4640  0.1059 -0.3530
 1281Sol     HW 8074   2.015   0.122   3.176 -2.2123 -0.4612 -0.2913
 1281Sol     HW 8075   1.903   0.218   3.208  0.7202  2.2334  2.2767
 1281Sol     MW 8076   1.991   0.205   3.199  0.4404 -0.3486 -0.0277
 1282Sol     OW 8077   0.532   3.430   7.661 -0.0933  0.1183  0.1585
 1282Sol     HW 8078   0.563   3.519   7.647  0.8285 -0.3242 -0.6762
 1282Sol     HW 8079   0.452   3.440   7.713 -1.2787  1.6022 -1.8682
 1282Sol     MW 8080   0.527   3.439   7.664 -0.3117 -0.2776 -0.5650
 1283Sol     OW 8081   0.962   1.917   4.535 -0.2588  0.1974 -0.1253
 1283Sol     HW 8082   1.055   1.926   4.515 -0.2504  0.5962  0.0858
 1283Sol     HW 8083   0.937   1.833   4.497  0.1561  0.1541 -0.3022
 1283Sol     MW 8084   0.968   1.911   4.530  0.4981 -0.2587 -0.3212
 1284Sol     OW 8085   1.405   3.059   2.501 -0.3315  0.8665 -0.9724
 1284Sol     HW 8086   1.426   3.099   2.585  0.8047 -2.4545  0.4373
 1284Sol     HW 8087   1.472   3.091   2.441 -0.4590  2.3543 -0.3253
 1284Sol     MW 8088   1.413   3.065   2.503 -0.0238 -0.2042 -0.2365
 1285Sol     OW 8089   2.996   3.412   3.268 -0.4934  0.2545  0.1548
 1285Sol     HW 8090   3.002   3.325   3.308 -2.1519  0.8374  1.7171
 1285Sol     HW 8091   3.018   3.472   3.339  0.2892  1.1505 -0.8304
 1285Sol     MW 8092   2.999   3.409   3.278 -0.1993 -0.2028 -0.1966
 1286Sol     OW 8093   2.450   0.290   7.845 -0.4192  0.0658  0.2290
 1286Sol     HW 8094   2.536   0.332   7.851 -0.4649  0.2413 -0.3024
 1286Sol     HW 8095   2.432   0.286   7.751 -1.0111  0.0651  0.3393
 1286Sol     MW 8096   2.456   0.293   7.837  0.0363  1.0602  0.2630
 1287Sol     OW 8097   0.521   1.206   5.556 -0.0421  0.1735 -0.5219
 1287Sol     HW 8098   0.480   1.230   5.473  2.4126 -1.6577 -2.3478
 1287Sol     HW 8099   0.525   1.287   5.606 -2.4624  1.0977 -1.7676
 1287Sol     MW 8100   0.518   1.215   5.553  0.3613 -0.0028 -0.7355
 1288Sol     OW 8101   0.803   2.268   4.767 -0.5001  0.3016 -0.0162
 1288Sol     HW 8102   0.895   2.293   4.754  0.1798 -0.4410  2.9062
 1288Sol     HW 8103   0.802   2.173   4.754 -1.0499  0.4235 -0.9198
 1288Sol     MW 8104   0.811   2.261   4.765  0.1075 -0.1317 -0.1962
 1289Sol     OW 8105   1.122   0.039   8.792  0.2502 -0.2690 -0.2420
 1289Sol     HW 8106   1.194  -0.023   8.806  0.8969  0.3698 -0.7033
 1289Sol     HW 8107   1.162   0.125   8.806 -0.3476  0.1047 -0.8226
 1289Sol     MW 8108   1.132   0.041   8.794 -1.0816  0.5310  0.1212
 1290Sol     OW 8109   1.672   2.147   1.546  0.0918  0.2914  0.4733
 1290Sol     HW 8110   1.646   2.098   1.624 -1.2555 -0.2723 -0.3112
 1290Sol     HW 8111   1.630   2.101   1.473  0.3606  1.4952 -0.4673
 1290Sol     MW 8112   1.666   2.139   1.546  0.0439  0.2743 -0.9678
 1291Sol     OW 8113   2.657   3.362   9.258 -0.4563  0.0270 -0.5628
 1291Sol     HW 8114   2.697   3.311   9.188  0.1404  0.6074 -0.6518
 1291Sol     HW 8115   2.720   3.357   9.330 -0.5333  0.3804 -0.4674
 1291Sol     MW 8116   2.666   3.357   9.258 -0.1601 -0.1111  0.1031
 1292Sol     OW 8117   1.599   0.398   3.428 -0.4015  0.1009 -0.5399
 1292Sol     HW 8118   1.658   0.391   3.503  0.9902  2.0241 -1.4228
 1292Sol     HW 8119   1.516   0.364   3.460  0.7960 -1.3566  1.1495
 1292Sol     MW 8120   1.597   0.394   3.438  0.4121  0.5613  0.3418
 1293Sol     OW 8121   2.151   2.938   3.774  0.5115 -0.3454  0.2180
 1293Sol     HW 8122   2.107   2.921   3.691 -0.3722 -0.7165  0.7581
 1293Sol     HW 8123   2.192   2.854   3.796 -1.7852 -1.1476  1.6491
 1293Sol     MW 8124   2.151   2.929   3.769 -0.0454  0.0584  0.2826
 1294Sol     OW 8125   0.462   0.716   6.427  0.1193 -0.1836 -0.8051
 1294Sol     HW 8126   0.525   0.652   6.393  1.8105  1.2308 -0.4151
 1294Sol     HW 8127   0.484   0.724   6.520  1.4220  2.5956 -1.3102
 1294Sol     MW 8128   0.470   0.711   6.432  0.6874  0.6779 -0.0223
 1295Sol     OW 8129   2.896   0.836   1.833 -0.2167  0.2943  0.2347
 1295Sol     HW 8130   2.953   0.886   1.774 -0.4701  0.3004 -0.0046
 1295Sol     HW 8131   2.956   0.798   1.898  0.0561  0.3238 -0.0007
 1295Sol     MW 8132   2.907   0.837   1.834 -0.1280 -0.9702 -0.0241
 1296Sol     OW 8133   3.223   0.257   4.188  0.1733  0.4298 -0.5094
 1296Sol     HW 8134   3.132   0.230   4.199  0.5122  0.0666  1.8022
 1296Sol     HW 8135   3.244   0.236   4.097 -1.0734 -2.5547 -0.1738
 1296Sol     MW 8136   3.217   0.253   4.181  0.1636  0.1160 -0.1804
 1297Sol     OW 8137   2.088   3.164   7.402 -0.1435 -0.2551  0.3266
 1297Sol     HW 8138   2.134   3.138   7.482  0.6578  2.0958  0.6860
 1297Sol     HW 8139   2.012   3.213   7.433  0.0459  0.4715 -0.3423
 1297Sol     MW 8140   2.086   3.166   7.412 -0.4276  0.7472  0.6870
 1298Sol     OW 8141   0.365   0.263   1.567  0.1538 -0.5634  0.2034
 1298Sol     HW 8142   0.446   0.213   1.576 -0.3822 -1.0317  2.9499
 1298Sol     HW 8143   0.393   0.353   1.554  1.1206 -0.7752  0.8252
 1298Sol     MW 8144   0.375   0.266   1.566  0.4743 -0.7531 -0.9519
 1299Sol     OW 8145   2.692   3.009   7.895 -0.6353 -0.0187  0.3600
 1299Sol     HW 8146   2.758   2.967   7.840 -1.0123  0.3123 -0.3518
 1299Sol     HW 8147   2.645   3.067   7.836  0.6526  2.3127  1.5437
 1299Sol     MW 8148   2.694   3.011   7.885 -0.3129 -0.2683 -0.4876
 1300Sol     OW 8149   0.307   0.257   5.256 -0.0870 -0.2453 -0.2612
 1300Sol     HW 8150   0.248   0.264   5.331 -0.3639 -0.5761 -0.4469
 1300Sol     HW 8151   0.318   0.163   5.242 -1.5550 -0.2043 -1.8158
 1300Sol     MW 8152   0.303   0.249   5.261 -0.0162 -0.4391  0.0630
 1301Sol     OW 8153   2.593   0.395   5.461 -0.3052 -0.2622 -0.2673
 1301Sol     HW 8154   2.525   0.384   5.394 -0.0454  0.1535 -0.5964
 1301Sol     HW 8155   2.592   0.488   5.481  0.7271 -0.1145 -0.8638
 1301Sol     MW 8156   2.587   0.402   5.457  0.2813 -0.8015 -0.1000
 1302Sol     OW 8157   1.788   0.631   3.525  0.0161  0.5563  0.0515
 1302Sol     HW 8158   1.713   0.690   3.518 -1.2944 -0.9459  0.9244
 1302Sol     HW 8159   1.758   0.562   3.585  1.2076 -1.3883 -1.5405
 1302Sol     MW 8160   1.778   0.630   3.530 -0.4030  0.7597 -0.3389
 1303Sol     OW 8161   2.833   2.070   5.815  0.3693  0.1679  0.2063
 1303Sol     HW 8162   2.740   2.078   5.795  0.7226  1.0229 -1.1699
 1303Sol     HW 8163   2.842   2.104   5.903 -0.7061 -0.4679  0.5737
 1303Sol     MW 8164   2.825   2.073   5.821 -0.0520 -0.1040  0.2630
 1304Sol     OW 8165   1.264   1.560   1.863 -0.1938  0.4125 -0.2635
 1304Sol     HW 8166   1.237   1.645   1.829  0.0319  0.6182  0.0620
 1304Sol     HW 8167   1.314   1.581   1.942 -0.7408 -0.0607  0.2113
 1304Sol     MW 8168   1.266   1.570   1.867  0.2909 -0.1935  0.1620
 1305Sol     OW 8169   1.979   0.001   4.477  0.1309 -0.3161 -0.2342
 1305Sol     HW 8170   1.995  -0.093   4.488  0.7900 -0.3039 -1.0620
 1305Sol     HW 8171   1.995   0.018   4.384  0.5012  0.7038  0.0011
 1305Sol     MW 8172   1.982  -0.006   4.470 -0.4912  0.2302  0.9104
 1306Sol     OW 8173   1.872   1.230   8.458  0.5366 -0.0627  0.7064
 1306Sol     HW 8174   1.931   1.287   8.408  0.5196 -0.6789 -0.0301
 1306Sol     HW 8175   1.816   1.190   8.391  0.4912 -0.8742  1.2303
 1306Sol     MW 8176   1.872   1.232   8.447  0.1834 -0.7889 -0.4648
 1307Sol     OW 8177   0.776   3.103   6.146  0.1271  0.2735 -0.6316
 1307Sol     HW 8178   0.711   3.163   6.111 -0.7301 -0.7953 -0.8920
 1307Sol     HW 8179   0.819   3.066   6.069 -0.5526 -0.7507 -0.5339
 1307Sol     MW 8180   0.774   3.105   6.136  0.1802  0.2789  0.0599
 1308Sol     OW 8181   0.966   2.845   7.726  0.4813  0.4064 -0.1649
 1308Sol     HW 8182   1.054   2.811   7.738  0.5856  0.4915 -0.6901
 1308Sol     HW 8183   0.956   2.853   7.632 -0.8092 -1.4760 -0.2189
 1308Sol     MW 8184   0.973   2.843   7.719  0.0196 -0.6964 -0.2919
 1309Sol     OW 8185   0.785   1.876   2.661  0.0139  0.0727 -0.8087
 1309Sol     HW 8186   0.807   1.962   2.626 -0.7411  0.1379 -1.1455
 1309Sol     HW 8187   0.780   1.889   2.756 -0.9695  0.6057 -0.9297
 1309Sol     MW 8188   0.786   1.885   2.667  0.0316 -0.1584 -0.0417
 1310Sol     OW 8189   2.535   2.654   5.737  0.1746  0.5160 -0.2746
 1310Sol     HW 8190   2.461   2.606   5.772  1.3523  0.0540  1.6164
 1310Sol     HW 8191   2.520   2.745   5.765  0.4100  0.3894  0.2692
 1310Sol     MW 8192   2.527   2.658   5.743 -0.1445 -0.2582  0.1947
 1311Sol     OW 8193   0.808   1.553   3.715 -0.4103  0.1656 -0.2848
 1311Sol     HW 8194   0.735   1.511   3.670  0.4319 -2.3715  0.6273
 1311Sol     HW 8195   0.772   1.583   3.799 -0.3338 -1.4019  0.3148
 1311Sol     MW 8196   0.798   1.552   3.719 -0.1786  0.0351 -0.4697
 1312Sol     OW 8197   2.150   2.486   7.249 -0.0158  0.4074 -0.2526
 1312Sol     HW 8198   2.184   2.536   7.323 -0.0635  0.0483  0.0135
 1312Sol     HW 8199   2.058   2.514   7.241  0.0406  0.5821 -0.2924
 1312Sol     MW 8200   2.144   2.493   7.255 -0.3025  0.2654 -0.7625
 1313Sol     OW 8201   2.233   2.994   6.031 -0.8295 -0.7675 -0.7166
 1313Sol     HW 8202   2.184   3.017   6.110 -1.9528  0.5187 -1.7722
 1313Sol     HW 8203   2.185   2.920   5.994 -1.7668  0.2558 -1.5526
 1313Sol     MW 8204   2.224   2.989   6.035  0.1447  0.3121  0.2765
 1314Sol     OW 8205   1.002   2.117   5.206  0.3406 -0.8048  0.5829
 1314Sol     HW 8206   0.958   2.128   5.290  1.7149  1.2602  1.0561
 1314Sol     HW 8207   0.964   2.037   5.170  0.1298 -2.0210  3.3930
 1314Sol     MW 8208   0.994   2.111   5.210  0.0994 -0.3566 -0.4845
 1315Sol     OW 8209   1.067   0.580   3.056  0.7986 -0.3240 -0.3511
 1315Sol     HW 8210   1.068   0.622   2.969  0.9109 -0.9462 -0.6490
 1315Sol     HW 8211   1.120   0.638   3.110 -0.9403  1.1674 -0.1855
 1315Sol     MW 8212   1.072   0.589   3.053 -0.7245  0.0303 -0.8996
 1316Sol     OW 8213   0.779   0.301   5.631 -0.7746 -0.5623 -0.0476
 1316Sol     HW 8214   0.811   0.262   5.550 -0.5259  0.9552 -0.6988
 1316Sol     HW 8215   0.815   0.246   5.700  0.7496 -0.6614 -0.8875
 1316Sol     MW 8216   0.785   0.293   5.630 -0.6241 -0.4801 -0.5207
 1317Sol     OW 8217   2.462   0.836   6.698  0.0187 -0.3421 -0.2022
 1317Sol     HW 8218   2.499   0.891   6.629  1.2142  0.1715  0.8284
 1317Sol     HW 8219   2.510   0.861   6.777 -0.8857 -1.3768  0.6905
 1317Sol     MW 8220   2.470   0.843   6.699 -0.5387 -0.2912 -0.2390
 1318Sol     OW 8221   2.649   2.231   4.434 -0.1653  0.3644  0.1214
 1318Sol     HW 8222   2.730   2.216   4.483 -0.1060  1.2443  0.3011
 1318Sol     HW 8223   2.616   2.315   4.467 -2.2830 -0.9905  1.5840
 1318Sol     MW 8224   2.653   2.237   4.441 -0.2870  0.2650 -0.3591
 1319Sol     OW 8225   2.767   1.611   2.664  0.6255 -0.1078 -0.0237
 1319Sol     HW 8226   2.742   1.679   2.726  0.8826 -0.6902  0.7297
 1319Sol     HW 8227   2.684   1.576   2.631  0.4954  0.6094 -0.4644
 1319Sol     MW 8228   2.757   1.614   2.666 -0.1296  0.2663 -0.3576
 1320Sol     OW 8229   2.880   3.366   9.406 -0.3575 -0.2983  0.1579
 1320Sol     HW 8230   2.882   3.336   9.497  1.1733 -2.9219 -0.7010
 1320Sol     HW 8231   2.916   3.293   9.356 -2.0752  0.7357 -2.6747
 1320Sol     MW 8232   2.883   3.357   9.410 -0.4305 -0.4175  0.5365
 1321Sol     OW 8233   1.866   2.590   5.516 -0.0586 -0.1088  0.3837
 1321Sol     HW 8234   1.921   2.602   5.439  0.7485  0.6098  1.0739
 1321Sol     HW 8235   1.901   2.650   5.581 -3.4489  2.5301 -0.0870
 1321Sol     MW 8236   1.874   2.596   5.515 -0.3302  0.5642 -0.1551
 1322Sol     OW 8237   1.634   1.493   3.915  0.2671  0.4750 -0.2456
 1322Sol     HW 8238   1.603   1.481   3.826  0.6081 -3.1201  0.0548
 1322Sol     HW 8239   1.729   1.486   3.909  0.2753 -0.0732  0.4162
 1322Sol     MW 8240   1.639   1.491   3.907 -0.1561  0.5613 -0.8568
 1323Sol     OW 8241   2.847   1.679   9.414  0.2307  0.3011  0.0994
 1323Sol     HW 8242   2.774   1.694   9.354 -0.3678  0.7392  0.9236
 1323Sol     HW 8243   2.816   1.611   9.474  0.3664  0.7386  0.6703
 1323Sol     MW 8244   2.838   1.674   9.414 -0.8292  0.2723 -0.0367
 1324Sol     OW 8245   0.651   0.268   6.471  0.2095 -0.4888  0.5824
 1324Sol     HW 8246   0.580   0.267   6.534  2.5328 -0.0696  3.3299
 1324Sol     HW 8247   0.699   0.187   6.487  0.7531 -0.4417 -0.7359
 1324Sol     MW 8248   0.649   0.261   6.478  0.5352  0.2545 -0.0857
 1325Sol     OW 8249   2.284   2.143   1.992 -0.2762  0.3214  0.3198
 1325Sol     HW 8250   2.368   2.114   2.027 -0.8216  0.2151  1.5888
 1325Sol     HW 8251   2.221   2.079   2.025 -0.5802 -0.7587 -2.3058
 1325Sol     MW 8252   2.285   2.135   1.998  0.2105 -0.2295 -0.3384
 1326Sol     OW 8253   1.986   3.053   3.953  0.5718 -0.1866  0.5158
 1326Sol     HW 8254   1.907   3.006   3.926 -0.1206  0.4837  1.3464
 1326Sol     HW 8255   2.056   3.014   3.901  0.0165 -2.1509  1.1846
 1326Sol     MW 8256   1.985   3.045   3.946  0.1277  0.3364 -0.1715
 1327Sol     OW 8257   1.493   0.033   3.138  0.3576 -0.2797 -0.8007
 1327Sol     HW 8258   1.397   0.043   3.139  0.4191  0.7547 -2.8306
 1327Sol     HW 8259   1.515   0.006   3.227 -1.8465 -0.7023 -0.3541
 1327Sol     MW 8260   1.486   0.032   3.146  0.4620  0.7876 -0.1222
 1328Sol     OW 8261   0.428   1.642   4.208  0.4556 -0.2064  0.2042
 1328Sol     HW 8262   0.492   1.707   4.235  1.8078 -0.5545 -2.0613
 1328Sol     HW 8263   0.454   1.562   4.254 -0.0914  0.3441  1.5124
 1328Sol     MW 8264   0.436   1.641   4.215 -0.1792 -0.3463 -0.4753
 1329Sol     OW 8265   2.463   2.400   2.096  0.8918 -0.2134 -0.2753
 1329Sol     HW 8266   2.468   2.404   2.001  0.9375  2.1551 -0.2001
 1329Sol     HW 8267   2.431   2.486   2.122 -0.3529 -1.2530  1.7811
 1329Sol     MW 8268   2.461   2.408   2.090  0.2619  0.1566  0.2017
 1330Sol     OW 8269   0.001   0.605   6.331  0.2093  0.7348  0.2825
 1330Sol     HW 8270   0.059   0.646   6.396 -0.1613  1.8950 -0.1036
 1330Sol     HW 8271  -0.086   0.639   6.352 -0.2035 -0.3466  0.3329
 1330Sol     MW 8272  -0.001   0.612   6.339 -0.1484  0.3987 -0.3222
 1331Sol     OW 8273   1.208   1.189   6.188  0.1077  0.1516 -0.1728
 1331Sol     HW 8274   1.258   1.262   6.224 -0.5961  0.8272 -0.5445
 1331Sol     HW 8275   1.238   1.112   6.237  0.8523  0.6922  0.2201
 1331Sol     MW 8276   1.215   1.189   6.196  0.0997 -0.0556 -0.4959
 1332Sol     OW 8277   1.338   3.108   7.802  0.7823  0.5601 -0.7181
 1332Sol     HW 8278   1.264   3.075   7.751  0.2199  0.7879 -0.0437
 1332Sol     HW 8279   1.320   3.202   7.813  0.5933  0.3834  0.4465
 1332Sol     MW 8280   1.330   3.114   7.798 -0.2464  0.6314 -0.7266
 1333Sol     OW 8281   3.240   2.596   2.100 -0.2658 -0.3239  0.0978
 1333Sol     HW 8282   3.291   2.618   2.023  1.9118  0.0838  1.6177
 1333Sol     HW 8283   3.167   2.544   2.066  1.7394 -1.8812 -2.0069
 1333Sol     MW 8284   3.238   2.593   2.090  0.0355  0.0837  0.0494
 1334Sol     OW 8285   1.771   1.678   5.473 -0.0388 -0.3285 -0.3318
 1334Sol     HW 8286   1.690   1.649   5.515  0.3094 -0.4594  0.2450
 1334Sol     HW 8287   1.748   1.686   5.380 -0.9223  0.4052 -0.0453
 1334Sol     MW 8288   1.762   1.676   5.468 -0.7165 -0.0419  0.1986
 1335Sol     OW 8289   2.796   0.880   5.232 -0.1974 -0.5495  0.5588
 1335Sol     HW 8290   2.702   0.866   5.215 -0.9681  2.7816  1.7253
 1335Sol     HW 8291   2.839   0.808   5.186 -3.3884 -2.9042  1.0613
 1335Sol     MW 8292   2.791   0.873   5.226 -0.3912  0.1756  0.2897
 1336Sol     OW 8293   2.420   2.016   3.429 -0.3656 -0.1329 -0.2919
 1336Sol     HW 8294   2.433   2.000   3.336 -0.4657 -1.2794 -0.1178
 1336Sol     HW 8295   2.397   1.930   3.465 -0.1939  0.2732  0.8063
 1336Sol     MW 8296   2.420   2.007   3.424  0.3161  0.9915 -0.6316
 1337Sol     OW 8297   3.220   2.408   5.171  0.3865  0.3373  0.3513
 1337Sol     HW 8298   3.262   2.339   5.222 -0.8069  0.0447  0.9454
 1337Sol     HW 8299   3.240   2.385   5.080 -0.4630 -1.1271  0.5042
 1337Sol     MW 8300   3.225   2.399   5.167  0.1349  0.1468  0.3617
 1338Sol     OW 8301   0.772   0.837   1.468 -0.5420  0.0220 -0.3191
 1338Sol     HW 8302   0.782   0.825   1.562  0.2611  2.0870 -0.0995
 1338Sol     HW 8303   0.688   0.881   1.458  0.2263  1.5281 -0.3739
 1338Sol     MW 8304   0.766   0.840   1.475  0.0701 -0.2730 -0.5355
 1339Sol     OW 8305   3.131   1.055   4.444 -0.4128 -0.3029  0.4969
 1339Sol     HW 8306   3.122   0.986   4.378 -1.4309  0.1071  0.1997
 1339Sol     HW 8307   3.180   1.014   4.516 -1.0792 -1.3577  0.3504
 1339Sol     MW 8308   3.135   1.045   4.445 -0.3794  0.5853  0.6645
 1340Sol     OW 8309   3.271   3.009   3.133 -0.0397  0.2579  0.6067
 1340Sol     HW 8310   3.357   3.045   3.152  0.0332  0.3463  0.1041
 1340Sol     HW 8311   3.288   2.933   3.077 -0.2905  0.3079  0.4609
 1340Sol     MW 8312   3.280   3.006   3.130  0.4212  0.3556  0.3166
 1341Sol     OW 8313   1.691   3.144   1.703  0.1531 -0.0174  0.2704
 1341Sol     HW 8314   1.638   3.176   1.776 -0.4263  0.5259 -0.3797
 1341Sol     HW 8315   1.750   3.080   1.743 -1.1542 -0.8190  0.9731
 1341Sol     MW 8316   1.692   3.141   1.713  0.0540 -0.1058 -0.5306
 1342Sol     OW 8317   1.610   2.558   7.712  0.7490 -0.2433  0.8162
 1342Sol     HW 8318   1.559   2.629   7.751 -0.7885 -1.2920  0.7510
 1342Sol     HW 8319   1.587   2.560   7.619  0.7766 -0.7667  0.7967
 1342Sol     MW 8320   1.603   2.565   7.707  0.5221  0.5252  0.3320
 1343Sol     OW 8321   1.687   0.063   5.429 -0.6181 -0.7720  0.0532
 1343Sol     HW 8322   1.731   0.040   5.348  0.6548  0.7738  0.2953
 1343Sol     HW 8323   1.695  -0.016   5.483  2.0609 -0.4614  0.1778
 1343Sol     MW 8324   1.691   0.054   5.427  0.1808 -0.1896 -0.3920
 1344Sol     OW 8325   0.984   1.106   8.112  0.1320  0.6129  0.3341
 1344Sol     HW 8326   0.922   1.119   8.183  1.1989 -0.3958  1.4879
 1344Sol     HW 8327   0.986   1.011   8.099  1.9255  0.5675  0.7958
 1344Sol     MW 8328   0.979   1.098   8.117  0.8156  0.8919 -0.3362
 1345Sol     OW 8329   1.344   1.122   1.597 -0.1798  0.5304  0.1443
 1345Sol     HW 8330   1.279   1.058   1.624  1.5849 -0.1340  3.0264
 1345Sol     HW 8331   1.397   1.076   1.532  0.2747 -0.5186  1.2414
 1345Sol     MW 8332   1.343   1.112   1.594 -0.1872 -0.7096  0.8425
 1346Sol     OW 8333   1.961   2.143   2.338 -0.0498 -0.3783  0.2047
 1346Sol     HW 8334   1.972   2.219   2.395  1.2829 -0.1480 -0.3451
 1346Sol     HW 8335   1.906   2.174   2.266  0.6606  0.1154 -0.1229
 1346Sol     MW 8336   1.957   2.152   2.337 -0.9775  0.2226 -0.1730
 1347Sol     OW 8337   2.592   2.841   7.246  0.1007 -0.7654 -0.1422
 1347Sol     HW 8338   2.685   2.822   7.230  0.2480  0.5044 -0.8511
 1347Sol     HW 8339   2.590   2.876   7.335  0.3841 -0.1975 -0.3606
 1347Sol     MW 8340   2.600   2.842   7.253  0.1333 -0.3938 -0.3484
 1348Sol     OW 8341   2.610   1.159   4.526 -0.0013 -0.4748  0.3175
 1348Sol     HW 8342   2.703   1.166   4.502 -0.5870 -1.2410 -2.3532
 1348Sol     HW 8343   2.595   1.065   4.534 -0.0526 -0.2768  2.9942
 1348Sol     MW 8344   2.617   1.151   4.524  0.0352 -0.9451  0.9608
 1349Sol     OW 8345   2.115   1.507   7.884 -0.4239 -0.1741  0.2927
 1349Sol     HW 8346   2.173   1.566   7.932  0.4496 -1.3460  0.7007
 1349Sol     HW 8347   2.130   1.529   7.792  1.1048 -0.8324  0.3644
 1349Sol     MW 8348   2.122   1.514   7.880 -0.2213  0.0472  0.0268
 1350Sol     OW 8349   1.148   1.650   8.216  0.4052  0.1996 -0.2114
 1350Sol     HW 8350   1.055   1.632   8.210  0.3216  0.5384  0.0125
 1350Sol     HW 8351   1.153   1.744   8.236  0.7285 -0.3207  2.2152
 1350Sol     MW 8352   1.140   1.657   8.217 -0.0814  0.2075  0.1442
 1351Sol     OW 8353   1.064   0.456   7.182  0.0196  0.2805  0.2652
 1351Sol     HW 8354   1.095   0.438   7.093 -0.2881 -2.2262  0.6460
 1351Sol     HW 8355   1.060   0.370   7.224 -1.6667  1.2351  2.1158
 1351Sol     MW 8356   1.067   0.447   7.178  0.3607 -0.5515 -0.2355
 1352Sol     OW 8357   1.669   1.344   2.247  0.5011 -0.0074 -0.4321
 1352Sol     HW 8358   1.705   1.362   2.334  1.7536 -0.5884 -0.8164
 1352Sol     HW 8359   1.604   1.276   2.261 -1.3744  1.9082  0.4537
 1352Sol     MW 8360   1.667   1.340   2.256 -0.0033  0.6220 -0.1995
 1353Sol     OW 8361   0.770   2.481   3.693  0.2205 -0.2873 -0.1854
 1353Sol     HW 8362   0.760   2.403   3.638  0.5794 -1.2917  1.1767
 1353Sol     HW 8363   0.737   2.455   3.779 -1.6420  1.6924 -0.2371
 1353Sol     MW 8364   0.766   2.472   3.696 -0.4207 -0.1860 -0.6640
 1354Sol     OW 8365   2.829   2.792   7.091 -0.1616 -0.2219  0.0864
 1354Sol     HW 8366   2.862   2.707   7.120 -0.2755 -0.0034  0.8772
 1354Sol     HW 8367   2.793   2.776   7.004 -1.7091 -1.3408  0.9054
 1354Sol     MW 8368   2.829   2.783   7.086  0.0849 -0.8847  0.3752
 1355Sol     OW 8369   2.525   1.028   4.925  0.6524 -0.0730  0.0098
 1355Sol     HW 8370   2.555   1.116   4.949  0.0768  0.1062  0.0659
 1355Sol     HW 8371   2.434   1.040   4.900  0.6281 -0.6279 -0.1572
 1355Sol     MW 8372   2.520   1.037   4.925  0.0179  0.3618 -0.1665
 1356Sol     OW 8373   1.926   1.667   6.741  0.2407 -0.2729 -0.6628
 1356Sol     HW 8374   1.844   1.716   6.734 -0.7381 -1.7217  0.0979
 1356Sol     HW 8375   1.907   1.584   6.696  0.2801 -1.8065  2.0193
 1356Sol     MW 8376   1.917   1.664   6.736  0.1459 -0.1717 -0.2672
 1357Sol     OW 8377   2.616   2.802   3.906  0.2638  0.0052 -0.0167
 1357Sol     HW 8378   2.676   2.737   3.871 -2.9185 -0.7653 -4.4255
 1357Sol     HW 8379   2.564   2.754   3.971  0.7935 -0.7294 -0.1289
 1357Sol     MW 8380   2.617   2.792   3.909  0.0716  0.3019  0.1953
 1358Sol     OW 8381   2.973   1.481   6.477 -0.3656  0.1864  0.2321
 1358Sol     HW 8382   3.050   1.424   6.484 -0.5888 -0.3063 -1.0206
 1358Sol     HW 8383   2.907   1.425   6.435 -0.4161  1.5311 -1.5302
 1358Sol     MW 8384   2.974   1.471   6.474 -0.7307 -0.1491  0.0305
 1359Sol     OW 8385   0.753   3.059   9.257 -0.5434  0.4835 -0.0292
 1359Sol     HW 8386   0.701   2.995   9.306  0.8458  0.0268  0.8763
 1359Sol     HW 8387   0.828   3.077   9.314  0.3169  1.0901 -1.3397
 1359Sol     MW 8388   0.755   3.055   9.267 -0.0157 -0.0773 -0.3751
 1360Sol     OW 8389   1.985   0.711   4.919 -0.0181  0.3160  0.5802
 1360Sol     HW 8390   2.071   0.744   4.893 -0.2213  0.9813  0.7511
 1360Sol     HW 8391   2.004   0.630   4.965  0.4770  0.1204  0.0457
 1360Sol     MW 8392   1.995   0.707   4.921 -0.4264 -0.1150  0.3596
 1361Sol     OW 8393   0.036   3.266   2.467  0.1160 -0.8224 -0.6515
 1361Sol     HW 8394   0.063   3.286   2.377 -0.5047  0.3252 -0.5980
 1361Sol     HW 8395   0.087   3.327   2.521 -1.2769  0.1553 -0.4169
 1361Sol     MW 8396   0.043   3.274   2.464  0.2158  0.0006  0.3812
 1362Sol     OW 8397   0.007   0.446   3.269 -0.8270  0.0515  0.1074
 1362Sol     HW 8398  -0.071   0.494   3.241  0.2085  1.4901 -0.3682
 1362Sol     HW 8399   0.006   0.366   3.215 -0.6208  1.2530 -1.7185
 1362Sol     MW 8400  -0.000   0.443   3.262 -0.5745  0.7529  0.3092
 1363Sol     OW 8401   1.400   0.856   4.012  0.5683  0.0543  0.2095
 1363Sol     HW 8402   1.410   0.948   3.988 -0.1894  0.1188  0.1141
 1363Sol     HW 8403   1.308   0.836   3.992  0.3587 -0.3390  1.5150
 1363Sol     MW 8404   1.392   0.862   4.008  0.3730 -0.0091 -0.1851
 1364Sol     OW 8405   3.062   2.284   3.858  0.0407  0.4271  0.6308
 1364Sol     HW 8406   2.978   2.249   3.886  0.0588  0.7372  1.0679
 1364Sol     HW 8407   3.042   2.372   3.827  0.2499  0.6079  1.0056
 1364Sol     MW 8408   3.053   2.289   3.858 -0.4978 -0.0005  0.3588
 1365Sol     OW 8409   2.629   2.974   8.366  0.2133  0.0668  0.2986
 1365Sol     HW 8410   2.580   3.033   8.424 -1.1952 -1.9679  1.2215
 1365Sol     HW 8411   2.623   3.015   8.280 -0.0827  1.6718  1.0581
 1365Sol     MW 8412   2.624   2.983   8.364  0.4613 -0.0261 -0.0036
 1366Sol     OW 8413   0.516   1.719   3.265 -0.0828  0.2814 -0.0002
 1366Sol     HW 8414   0.444   1.657   3.258 -0.8672  1.3119 -1.2445
 1366Sol     HW 8415   0.479   1.803   3.237  1.0873  1.2197  1.1716
 1366Sol     MW 8416   0.506   1.721   3.262  0.0272  0.0109  0.5789
 1367Sol     OW 8417   2.665   1.760   7.427 -0.1282  0.7520 -0.0451
 1367Sol     HW 8418   2.619   1.793   7.350 -0.9844  0.3641  0.2883
 1367Sol     HW 8419   2.645   1.825   7.495 -0.8439  0.1670  0.3074
 1367Sol     MW 8420   2.659   1.769   7.426  0.6844 -0.6302 -0.2565
 1368Sol     OW 8421   1.247   1.649   9.037  0.1765  0.0340  0.3048
 1368Sol     HW 8422   1.176   1.603   9.082  0.7859 -1.8365 -0.6004
 1368Sol     HW 8423   1.289   1.702   9.105 -1.6526  0.6308  0.9817
 1368Sol     MW 8424   1.245   1.650   9.047 -0.1191 -0.4330 -0.2015
 1369Sol     OW 8425   3.152   3.071   5.341 -0.5912 -0.2479  0.7328
 1369Sol     HW 8426   3.148   3.118   5.258 -0.5741 -0.3867  0.6522
 1369Sol     HW 8427   3.150   3.139   5.408 -1.0508 -0.1590  0.6269
 1369Sol     MW 8428   3.152   3.081   5.340 -0.3700 -0.1615  0.7873
 1370Sol     OW 8429   2.052   1.436   9.762  0.1293 -0.8846 -0.6458
 1370Sol     HW 8430   2.086   1.382   9.834  1.9891 -0.3943 -1.1286
 1370Sol     HW 8431   2.050   1.377   9.687 -0.7010 -1.0785 -0.4791
 1370Sol     MW 8432   2.055   1.426   9.762 -0.8067 -0.6037  0.2046
 1371Sol     OW 8433   2.080   2.489   6.943 -0.3566 -0.4840 -0.3589
 1371Sol     HW 8434   2.039   2.575   6.952 -0.1907 -0.4144 -0.2628
 1371Sol     HW 8435   2.105   2.465   7.032 -1.6905 -1.2711 -0.1753
 1371Sol     MW 8436   2.079   2.494   6.952 -0.6356 -0.7115 -0.5566
 1372Sol     OW 8437   0.694   2.165   7.033  0.0824 -0.2594 -0.1335
 1372Sol     HW 8438   0.787   2.160   7.010 -0.1185  0.4345 -1.1500
 1372Sol     HW 8439   0.677   2.085   7.082  1.3444 -0.1318  0.5300
 1372Sol     MW 8440   0.701   2.157   7.035 -0.2551 -0.0948 -0.6261
 1373Sol     OW 8441   2.583   0.891   4.592  0.4660 -0.6856 -0.1347
 1373Sol     HW 8442   2.504   0.867   4.640  0.3573 -0.1831 -0.0639
 1373Sol     HW 8443   2.652   0.894   4.658 -0.2113  2.7478  0.5000
 1373Sol     MW 8444   2.582   0.889   4.602  0.0008  0.1560 -0.0678
 1374Sol     OW 8445   0.249   0.177   5.538 -0.4217 -0.0844 -0.2844
 1374Sol     HW 8446   0.342   0.156   5.536 -0.5534 -0.6363 -2.4862
 1374Sol     HW 8447   0.232   0.204   5.628  1.6954 -0.7216  0.3368
 1374Sol     MW 8448   0.255   0.177   5.546  0.5286 -0.6260  0.0158
 1375Sol     OW 8449   1.296   2.136   4.338 -0.3749 -0.3329 -0.1382
 1375Sol     HW 8450   1.278   2.178   4.422  0.0211 -0.0203 -0.2060
 1375Sol     HW 8451   1.383   2.168   4.314  0.2060 -1.7193  0.1151
 1375Sol     MW 8452   1.302   2.143   4.343  0.1462 -0.2454 -0.5670
 1376Sol     OW 8453   2.408   1.283   2.492 -0.1088 -0.2254  0.1708
 1376Sol     HW 8454   2.370   1.351   2.435  0.5315  0.7462  0.8824
 1376Sol     HW 8455   2.483   1.249   2.442 -0.5179 -0.5037 -0.2500
 1376Sol     MW 8456   2.412   1.286   2.482  0.4309  0.5556  0.3185
 1377Sol     OW 8457   1.789   0.191   7.697  0.6683  0.0956 -0.1140
 1377Sol     HW 8458   1.808   0.277   7.732  0.9090  0.3757 -0.9182
 1377Sol     HW 8459   1.833   0.130   7.756  0.0186  0.4887  0.7849
 1377Sol     MW 8460   1.795   0.193   7.705 -0.3799  0.8819 -0.5785
 1378Sol     OW 8461   0.497   1.197   5.219  0.5230  0.1625 -0.2613
 1378Sol     HW 8462   0.403   1.212   5.230  0.1098  0.0003 -3.1653
 1378Sol     HW 8463   0.538   1.250   5.288 -1.7012 -0.4802  1.6148
 1378Sol     MW 8464   0.493   1.203   5.226  0.1748 -0.5494 -0.0397
 1379Sol     OW 8465   2.997   3.419   6.998  0.0066  0.0626 -0.2386
 1379Sol     HW 8466   2.930   3.377   6.945  0.0942  0.6781 -0.8509
 1379Sol     HW 8467   3.046   3.346   7.036  0.0125 -0.3995 -1.0968
 1379Sol     MW 8468   2.996   3.409   6.996 -1.1326  0.8596 -0.5585
 1380Sol     OW 8469   0.375   0.442   8.449 -0.0413  0.1388  0.1529
 1380Sol     HW 8470   0.386   0.528   8.408 -0.1201 -0.0093 -0.1839
 1380Sol     HW 8471   0.450   0.392   8.418  0.5985  0.4137  1.2213
 1380Sol     MW 8472   0.383   0.446   8.443 -0.5259  0.1499 -0.0507
 1381Sol     OW 8473   2.464   2.390   3.352  0.2319  0.0426  0.0647
 1381Sol     HW 8474   2.441   2.481   3.338  0.3659 -0.0947 -1.1193
 1381Sol     HW 8475   2.397   2.357   3.411 -0.4446  0.6254 -0.3717
 1381Sol     MW 8476   2.456   2.395   3.356  0.2074 -0.0331 -0.3596
 1382Sol     OW 8477   3.299   2.160   8.587  0.3036  0.2494 -0.0159
 1382Sol     HW 8478   3.391   2.180   8.603 -0.1458  1.6604  0.9459
 1382Sol     HW 8479   3.255   2.185   8.669 -0.7857 -1.4384 -0.0653
 1382Sol     MW 8480   3.303   2.164   8.596 -0.4493  0.2685 -0.0511
 1383Sol     OW 8481   2.867   1.723   3.777  0.6902  0.4145  0.2638
 1383Sol     HW 8482   2.923   1.648   3.755  0.9567  0.5891  0.3320
 1383Sol     HW 8483   2.837   1.756   3.692  0.7247  0.3418  0.2234
 1383Sol     MW 8484   2.870   1.720   3.767  0.3930 -0.6218  0.5759
 1384Sol     OW 8485   1.014   2.019   6.767 -0.2528  0.4225  0.1266
 1384Sol     HW 8486   1.023   1.934   6.725  0.0928  1.3863 -1.8387
 1384Sol     HW 8487   0.979   2.076   6.698 -0.7515  1.8108  1.4841
 1384Sol     MW 8488   1.011   2.017   6.757  0.3412  0.5102  0.2085
 1385Sol     OW 8489   0.670   0.682   9.480  0.2963 -0.2885  0.3132
 1385Sol     HW 8490   0.712   0.764   9.457  1.1171 -0.8583 -0.2476
 1385Sol     HW 8491   0.740   0.627   9.513 -0.2856 -0.6864  0.8980
 1385Sol     MW 8492   0.680   0.684   9.481  0.1952  0.6075 -0.6321
 1386Sol     OW 8493   0.338   1.519   9.501  0.5517  0.4455  0.1178
 1386Sol     HW 8494   0.296   1.605   9.504  1.3984  0.8506  0.6459
 1386Sol     HW 8495   0.348   1.494   9.593 -1.2227 -0.9943 -0.0549
 1386Sol     MW 8496   0.335   1.524   9.510  0.4921 -0.3754 -0.3899
 1387Sol     OW 8497   0.366   2.170   9.885 -0.1185  0.1151  0.0562
 1387Sol     HW 8498   0.391   2.118   9.961  0.3869 -1.6705 -1.2864
 1387Sol     HW 8499   0.338   2.105   9.820 -0.2110  1.5692 -1.3857
 1387Sol     MW 8500   0.366   2.159   9.886 -0.1139  0.5400  0.7623
 1388Sol     OW 8501   0.585   0.740   4.707 -0.0058  0.3019 -0.0591
 1388Sol     HW 8502   0.527   0.714   4.779  2.4147 -1.4825  1.3008
 1388Sol     HW 8503   0.601   0.659   4.658  0.5679  0.9720 -1.0069
 1388Sol     MW 8504   0.581   0.731   4.709  0.8466  0.0326 -0.7998
 1389Sol     OW 8505   3.085   3.011   4.581  0.1518 -0.0941  0.5113
 1389Sol     HW 8506   3.030   2.936   4.558 -0.7079  0.1408  1.7324
 1389Sol     HW 8507   3.173   2.974   4.593  0.9463 -0.0406 -4.2418
 1389Sol     MW 8508   3.088   3.001   4.580  0.3089 -0.5787  0.4939
 1390Sol     OW 8509   2.413   0.125   5.020  0.2216 -0.1915  0.1678
 1390Sol     HW 8510   2.327   0.139   5.060 -0.5209  0.3769 -1.5505
 1390Sol     HW 8511   2.432   0.209   4.977  0.8000 -0.9080 -0.9864
 1390Sol     MW 8512   2.407   0.134   5.020  0.2382  0.1223 -0.2585
 1391Sol     OW 8513   0.623   1.250   3.025  0.5861  0.6254  0.0167
 1391Sol     HW 8514   0.623   1.188   3.098  0.2328 -1.0315 -1.3842
 1391Sol     HW 8515   0.533   1.282   3.021 -0.1909 -1.6649 -1.6705
 1391Sol     MW 8516   0.615   1.248   3.031  0.0896  0.1696  0.4384
 1392Sol     OW 8517   0.367   2.834   2.820  0.2441 -0.2331  0.0606
 1392Sol     HW 8518   0.424   2.910   2.813  0.1151 -0.2889 -1.8580
 1392Sol     HW 8519   0.427   2.761   2.836  0.3991  0.1915  1.5172
 1392Sol     MW 8520   0.377   2.834   2.821 -0.2457  0.4536 -0.1164
 1393Sol     OW 8521   1.639   2.640   2.589 -0.4089 -0.4831  0.6915
 1393Sol     HW 8522   1.597   2.557   2.565  0.5899 -1.0084  0.7596
 1393Sol     HW 8523   1.621   2.650   2.682 -0.6495 -0.5571  0.6531
 1393Sol     MW 8524   1.633   2.634   2.595 -0.3716  0.1113  0.5574
 1394Sol     OW 8525   0.007   1.926   9.987 -0.2624  0.2904  0.4842
 1394Sol     HW 8526   0.034   2.011  10.020 -0.7831  1.1163 -1.1867
 1394Sol     HW 8527  -0.018   1.942   9.896  1.8096 -2.0854 -0.5366
 1394Sol     MW 8528   0.007   1.935   9.982 -0.3901  0.2123 -0.5616
 1395Sol     OW 8529   0.036   0.904   6.426 -0.0665 -0.4773  0.2639
 1395Sol     HW 8530   0.036   0.838   6.495  0.4184  0.8034  1.5250
 1395Sol     HW 8531   0.110   0.882   6.370  0.7945 -0.3470  1.3374
 1395Sol     MW 8532   0.042   0.896   6.427  0.7577  0.6100  0.3295
 1396Sol     OW 8533   2.187   1.287   3.514  0.0208  0.6469  0.3957
 1396Sol     HW 8534   2.116   1.312   3.455  2.3340  3.3239 -1.3413
 1396Sol     HW 8535   2.190   1.358   3.579  0.6576  0.1858  0.8770
 1396Sol     MW 8536   2.180   1.295   3.515 -0.2481 -0.4196  0.4500
 1397Sol     OW 8537   0.816   2.708   8.449  0.1358  0.1745 -0.5964
 1397Sol     HW 8538   0.859   2.787   8.416  1.4507 -0.2399  0.0925
 1397Sol     HW 8539   0.723   2.722   8.431  0.4129  1.6551 -0.9324
 1397Sol     MW 8540   0.812   2.716   8.444  0.4095 -0.1536  0.0560
 1398Sol     OW 8541   1.841   1.193   7.862  0.4972 -0.0915  0.5022
 1398Sol     HW 8542   1.905   1.169   7.794  0.4237 -0.3546  0.5269
 1398Sol     HW 8543   1.862   1.284   7.882 -0.3972  0.4448 -0.8965
 1398Sol     MW 8544   1.849   1.199   7.857  0.4615  0.8006 -0.3324
 1399Sol     OW 8545   0.936   0.012   7.868  0.0659 -0.4584  0.1187
 1399Sol     HW 8546   0.855  -0.029   7.897 -0.5698  1.8571  1.7220
 1399Sol     HW 8547   1.005  -0.032   7.918 -0.3636 -1.1024  0.1452
 1399Sol     MW 8548   0.935   0.004   7.875  0.0474 -1.0775 -0.2449
 1400Sol     OW 8549   1.020   1.559   6.957  0.0773 -0.0939  0.4528
 1400Sol     HW 8550   0.946   1.613   6.929  1.9567  1.1170 -2.3208
 1400Sol     HW 8551   1.039   1.591   7.046 -1.8483  0.5086  0.6820
 1400Sol     MW 8552   1.015   1.567   6.963  0.0799 -0.2773 -0.0966
 1401Sol     OW 8553   2.167   0.174   5.119  0.5993  0.0320  0.7560
 1401Sol     HW 8554   2.095   0.214   5.071  0.8412  2.8068  2.5679
 1401Sol     HW 8555   2.128   0.149   5.203  1.1605 -0.8027  0.7702
 1401Sol     MW 8556   2.157   0.176   5.122 -0.5931 -0.7293 -0.1300
 1402Sol     OW 8557   2.279   0.164   6.347  0.1400  0.3324  0.1556
 1402Sol     HW 8558   2.349   0.223   6.319 -0.7018  0.9865 -0.6252
 1402Sol     HW 8559   2.205   0.187   6.290 -0.0771 -1.7408 -0.4217
 1402Sol     MW 8560   2.279   0.172   6.339 -0.6639 -0.4348  0.3536
 1403Sol     OW 8561   1.022   1.172   7.166 -0.1644 -0.4375 -0.3394
 1403Sol     HW 8562   0.960   1.241   7.188 -0.0001 -0.1579 -0.7537
 1403Sol     HW 8563   0.987   1.133   7.086  0.3172 -0.1173 -0.7110
 1403Sol     MW 8564   1.013   1.175   7.161 -0.3391 -0.2907  0.5670
 1404Sol     OW 8565   2.605   0.670   6.425 -0.4182 -0.1502  0.2339
 1404Sol     HW 8566   2.637   0.639   6.510 -0.3550 -1.2194 -0.1762
 1404Sol     HW 8567   2.628   0.600   6.364 -2.1726 -0.2571 -0.3288
 1404Sol     MW 8568   2.610   0.661   6.427  0.6032  0.2326  0.3430
 1405Sol     OW 8569   0.312   1.845   2.318  0.2910  0.0468  0.9074
 1405Sol     HW 8570   0.261   1.776   2.277  1.1651 -1.3340  2.1216
 1405Sol     HW 8571   0.315   1.821   2.411  2.7186  0.3613  0.9330
 1405Sol     MW 8572   0.307   1.837   2.323 -0.4334 -0.3123  0.2708
 1406Sol     OW 8573   0.796   2.028   3.832  0.4997 -0.3672 -0.2021
 1406Sol     HW 8574   0.856   1.968   3.877  2.2491 -0.0674 -2.0894
 1406Sol     HW 8575   0.820   2.114   3.864  1.6314 -0.1702 -1.5253
 1406Sol     MW 8576   0.803   2.030   3.839 -0.5309  0.0203 -0.2743
 1407Sol     OW 8577   2.274   2.683   3.838 -0.2274  0.0584 -0.7727
 1407Sol     HW 8578   2.339   2.694   3.908  0.4874  1.7745 -1.6780
 1407Sol     HW 8579   2.293   2.596   3.802  0.1524 -0.3575  0.4018
 1407Sol     MW 8580   2.282   2.676   3.841 -0.2546  0.4024  0.1346
 1408Sol     OW 8581   3.304   1.132   3.258  1.2262  0.2046  0.1486
 1408Sol     HW 8582   3.293   1.144   3.163  4.2322 -0.7249 -0.3590
 1408Sol     HW 8583   3.245   1.059   3.280 -1.4678  2.1020 -0.4701
 1408Sol     MW 8584   3.298   1.126   3.251  0.0954  0.6180  0.6525
 1409Sol     OW 8585   1.634   0.962   5.906 -0.0711  0.4770 -0.3130
 1409Sol     HW 8586   1.546   0.957   5.944 -0.3544 -0.0823 -1.0275
 1409Sol     HW 8587   1.631   0.901   5.832  1.0644  0.1058 -0.0503
 1409Sol     MW 8588   1.625   0.956   5.903 -0.1748 -0.5397 -0.2732
 1410Sol     OW 8589   1.060   2.187   6.065  0.0799  0.2293 -0.2128
 1410Sol     HW 8590   0.968   2.210   6.052  0.0590 -0.4827 -1.4787
 1410Sol     HW 8591   1.059   2.093   6.080  0.6978 -0.0097 -1.5678
 1410Sol     MW 8592   1.052   2.181   6.065  1.0830 -0.2169 -0.0855
 1411Sol     OW 8593   1.347   2.553   6.635  0.2200 -0.1694  0.1728
 1411Sol     HW 8594   1.439   2.529   6.632 -0.1710 -1.9061  1.5183
 1411Sol     HW 8595   1.309   2.515   6.555 -0.2343 -3.4969  1.8926
 1411Sol     MW 8596   1.352   2.548   6.627 -0.6063 -0.0145  0.1324
 1412Sol     OW 8597   1.903   1.243   5.978  0.4516 -0.1994  0.1525
 1412Sol     HW 8598   1.908   1.156   6.018  1.5511 -1.0348 -1.7287
 1412Sol     HW 8599   1.840   1.234   5.907  0.6579  0.5123 -0.1298
 1412Sol     MW 8600   1.898   1.234   5.976 -0.4206 -0.8216  0.2205
 1413Sol     OW 8601   1.604   0.094   4.157  0.3852  0.0831  0.1969
 1413Sol     HW 8602   1.647   0.063   4.236  0.9020  1.0770  0.3098
 1413Sol     HW 8603   1.597   0.016   4.102  3.2359  0.0410 -0.2293
 1413Sol     MW 8604   1.608   0.084   4.159  1.0246 -0.3208  0.0648
 1414Sol     OW 8605   1.237   0.874   9.235 -0.4493 -0.4170  0.1929
 1414Sol     HW 8606   1.243   0.872   9.331  1.1224  1.1319  0.1475
 1414Sol     HW 8607   1.163   0.932   9.217 -0.5184 -0.4208  0.4642
 1414Sol     MW 8608   1.231   0.879   9.242  0.7894  0.6825 -0.2624
 1415Sol     OW 8609   2.408   0.123   8.221  0.0614  0.5101 -0.0672
 1415Sol     HW 8610   2.319   0.157   8.210 -0.3112 -0.4990 -0.2492
 1415Sol     HW 8611   2.412   0.094   8.313 -0.3221 -0.8890 -0.4795
 1415Sol     MW 8612   2.400   0.124   8.228  0.7057 -0.2550  0.0949
 1416Sol     OW 8613   1.222   1.284   8.977  0.1382  0.8726  0.1381
 1416Sol     HW 8614   1.257   1.219   9.038  1.1519  2.7950  1.6750
 1416Sol     HW 8615   1.293   1.298   8.914 -0.9346 -1.1653 -1.5944
 1416Sol     MW 8616   1.232   1.280   8.976  0.4992 -0.0707  0.6114
 1417Sol     OW 8617   1.671   2.200   2.887 -0.3849  0.0772  0.7254
 1417Sol     HW 8618   1.701   2.212   2.797  0.7191 -0.9813  0.9487
 1417Sol     HW 8619   1.583   2.238   2.888 -1.3157 -1.9226 -1.3766
 1417Sol     MW 8620   1.666   2.205   2.879 -0.2298  0.0092  0.0815
 1418Sol     OW 8621   0.986   2.066   3.569  0.4704  0.2915 -0.6283
 1418Sol     HW 8622   0.922   1.998   3.588 -1.5818  1.8105 -2.0139
 1418Sol     HW 8623   1.043   2.066   3.646 -0.9881 -1.2784  0.4927
 1418Sol     MW 8624   0.986   2.060   3.578  0.0284  0.0931  0.6156
 1419Sol     OW 8625   2.401   2.691   7.619  0.1661 -0.4795 -0.0038
 1419Sol     HW 8626   2.384   2.753   7.691  0.5164  0.7138 -0.9344
 1419Sol     HW 8627   2.494   2.700   7.601  0.0898 -0.8349 -0.5758
 1419Sol     MW 8628   2.408   2.697   7.624  0.5228 -0.8938  0.5877
 1420Sol     OW 8629   1.097   0.676   8.562  0.2170  0.2772  0.0327
 1420Sol     HW 8630   1.146   0.746   8.604  0.6014  0.5455 -0.8622
 1420Sol     HW 8631   1.149   0.652   8.486  0.5645 -1.6302  0.8437
 1420Sol     MW 8632   1.106   0.680   8.559 -0.1405  0.1773  0.2351
 1421Sol     OW 8633   1.677   2.948   9.073  0.4327 -0.1299 -0.2277
 1421Sol     HW 8634   1.772   2.963   9.068  0.2563  1.0381 -0.1550
 1421Sol     HW 8635   1.659   2.942   9.166  0.4342 -0.3538 -0.2431
 1421Sol     MW 8636   1.684   2.949   9.081 -0.2791 -0.2837 -0.2735
 1422Sol     OW 8637   2.066   3.350   7.041 -0.3042  0.6948  0.1295
 1422Sol     HW 8638   1.976   3.331   7.067  0.0477  0.6727  1.3845
 1422Sol     HW 8639   2.059   3.417   6.974 -1.3034 -0.0782 -0.5484
 1422Sol     MW 8640   2.058   3.354   7.037 -0.3094  0.4596 -0.5244
 1423Sol     OW 8641   2.293   1.659   9.855 -0.2979  0.2360  0.4160
 1423Sol     HW 8642   2.220   1.610   9.817  0.4955 -0.4756 -0.2236
 1423Sol     HW 8643   2.289   1.639   9.948 -0.3027 -0.6490  0.2362
 1423Sol     MW 8644   2.286   1.653   9.860  1.0368 -0.6532 -0.0624
 1424Sol     OW 8645   0.554   2.364   6.069 -0.1462 -0.4243 -0.0142
 1424Sol     HW 8646   0.511   2.444   6.036  0.6697 -0.9993 -2.5686
 1424Sol     HW 8647   0.482   2.302   6.081 -0.4321 -0.2797 -0.9540
 1424Sol     MW 8648   0.543   2.366   6.067 -0.2826  0.4177  0.3545
 1425Sol     OW 8649   1.492   0.114   6.533 -0.2376 -0.2152 -0.2729
 1425Sol     HW 8650   1.568   0.173   6.526 -0.1204 -0.3554 -0.1725
 1425Sol     HW 8651   1.417   0.173   6.543  0.1056 -0.1277  2.0102
 1425Sol     MW 8652   1.492   0.125   6.533  0.0710  0.0733 -0.0079
 1426Sol     OW 8653   1.191   0.505   3.937 -0.6310 -0.3031  0.0112
 1426Sol     HW 8654   1.194   0.454   4.017 -2.2708 -1.5773 -0.6985
 1426Sol     HW 8655   1.155   0.590   3.963  0.6364 -0.0361  0.9280
 1426Sol     MW 8656   1.188   0.508   3.946 -0.6099  0.5844 -0.6331
 1427Sol     OW 8657   1.810   1.394   2.557  0.0432 -0.5981  0.2513
 1427Sol     HW 8658   1.847   1.468   2.508 -0.0129 -1.4124 -1.0676
 1427Sol     HW 8659   1.750   1.433   2.620  1.3940  0.5953  0.8178
 1427Sol     MW 8660   1.808   1.404   2.558 -0.8445 -0.1065  0.5701
 1428Sol     OW 8661   0.420   3.132   2.218 -0.2563  0.5175  0.3309
 1428Sol     HW 8662   0.427   3.216   2.263  3.1909  0.1385  0.6354
 1428Sol     HW 8663   0.510   3.105   2.203 -1.3072 -2.1124 -1.7264
 1428Sol     MW 8664   0.428   3.137   2.221  0.5800  0.5095 -0.9857
 1429Sol     OW 8665   2.459   3.308   2.154  0.6251  0.1765  0.0499
 1429Sol     HW 8666   2.460   3.296   2.059  0.2942  0.0831  0.0590
 1429Sol     HW 8667   2.367   3.322   2.175  0.8331  1.3967  0.2060
 1429Sol     MW 8668   2.451   3.308   2.147  0.0447  0.7685  0.5324
 1430Sol     OW 8669   2.622   2.698  10.013 -0.2403 -0.2629 -0.2669
 1430Sol     HW 8670   2.628   2.694   9.917 -0.3793 -1.1015 -0.2435
 1430Sol     HW 8671   2.688   2.636  10.044  1.2298  1.5156  0.2222
 1430Sol     MW 8672   2.628   2.692  10.007 -1.0678 -0.2324  0.3546
 1431Sol     OW 8673   0.579   2.143   3.316  0.3038  0.7390 -0.0513
 1431Sol     HW 8674   0.618   2.067   3.360  0.5313  1.3369  0.7848
 1431Sol     HW 8675   0.493   2.153   3.357  1.4479  2.7465  1.9867
 1431Sol     MW 8676   0.575   2.137   3.324  0.2727  1.1178 -0.8910
 1432Sol     OW 8677   0.495   2.200   3.977  0.1406 -0.0474  0.0981
 1432Sol     HW 8678   0.533   2.170   3.894  0.6978 -0.3346  0.4535
 1432Sol     HW 8679   0.401   2.206   3.960  0.5485  2.7873 -1.4689
 1432Sol     MW 8680   0.490   2.198   3.968  0.3673 -0.0501 -0.2401
 1433Sol     OW 8681   3.271   2.742   9.023  0.0713 -0.5728 -0.3022
 1433Sol     HW 8682   3.178   2.720   9.026 -0.0337 -0.1357 -0.3673
 1433Sol     HW 8683   3.282   2.792   8.943  0.7732 -2.4610 -1.4277
 1433Sol     MW 8684   3.264   2.744   9.016  0.1521  0.3653 -0.9084
 1434Sol     OW 8685   3.116   0.993   6.603  0.4932 -0.5790  0.2360
 1434Sol     HW 8686   3.099   1.087   6.601  0.4719 -0.5290  2.0347
 1434Sol     HW 8687   3.170   0.977   6.526 -0.1936  0.7600 -0.5453
 1434Sol     MW 8688   3.119   1.000   6.596 -0.3699 -0.6833  0.0382
 1435Sol     OW 8689   2.864   0.433   4.136 -0.4363  0.0603 -0.4229
 1435Sol     HW 8690   2.898   0.365   4.194 -0.9665 -1.1536 -1.5061
 1435Sol     HW 8691   2.770   0.435   4.153 -0.6974 -0.7730 -1.7013
 1435Sol     MW 8692   2.859   0.427   4.143 -0.2509 -0.4098  0.7929
 1436Sol     OW 8693   2.131   2.400   4.081  0.0497  0.4722 -0.3590
 1436Sol     HW 8694   2.144   2.373   3.990  1.2662 -1.1985  0.2760
 1436Sol     HW 8695   2.100   2.490   4.075 -0.1827  0.2933 -2.4354
 1436Sol     MW 8696   2.129   2.405   4.072  0.2847 -0.2781  0.2094
 1437Sol     OW 8697   0.695   2.580   9.355  0.3334  0.1293  0.6995
 1437Sol     HW 8698   0.790   2.586   9.355  0.7703 -4.9711  0.6527
 1437Sol     HW 8699   0.674   2.530   9.434 -2.3999  1.7880  1.0848
 1437Sol     MW 8700   0.701   2.576   9.363 -0.1402  0.3928 -0.2327
 1438Sol     OW 8701   0.854   2.612   2.021  0.0342 -0.0868 -0.5099
 1438Sol     HW 8702   0.911   2.543   2.056  0.3705  0.6689  0.4689
 1438Sol     HW 8703   0.894   2.694   2.052 -2.6399  0.4033  1.8169
 1438Sol     MW 8704   0.863   2.613   2.027  0.2667  0.6947 -0.1892
 1439Sol     OW 8705   0.682   1.410   5.352  0.1614 -0.1127 -0.0647
 1439Sol     HW 8706   0.766   1.392   5.311 -0.1260  2.3050 -1.8869
 1439Sol     HW 8707   0.685   1.504   5.372 -1.9809 -0.0404  0.0684
 1439Sol     MW 8708   0.690   1.417   5.350  0.3150 -0.7199  0.2392
 1440Sol     OW 8709   0.703   0.150   2.703 -0.2615 -0.2503 -0.1275
 1440Sol     HW 8710   0.726   0.105   2.621 -0.5544  0.7035 -0.7541
 1440Sol     HW 8711   0.759   0.228   2.703  0.1414 -0.5456  0.8646
 1440Sol     MW 8712   0.710   0.153   2.695  0.1003  0.7364  0.3473
 1441Sol     OW 8713   1.213   3.255   9.369  0.3359  0.1910  0.1854
 1441Sol     HW 8714   1.272   3.200   9.317  3.5266  1.6064  2.1356
 1441Sol     HW 8715   1.196   3.331   9.313  0.0781 -0.3788 -0.5210
 1441Sol     MW 8716   1.217   3.257   9.359 -0.1130  0.9701 -0.7106
 1442Sol     OW 8717   0.792   0.314   1.855 -0.3131 -0.4228  0.1230
 1442Sol     HW 8718   0.763   0.308   1.946  3.1532  1.7162  1.4695
 1442Sol     HW 8719   0.782   0.406   1.832  2.2230 -0.2321 -0.3956
 1442Sol     MW 8720   0.788   0.322   1.861 -0.8181  0.1434 -0.2096
 1443Sol     OW 8721   1.841   3.194   8.526  0.2901  0.0307  0.5616
 1443Sol     HW 8722   1.806   3.242   8.450 -1.1741  0.9526  1.7879
 1443Sol     HW 8723   1.895   3.258   8.572  1.5971 -0.6799  0.0333
 1443Sol     MW 8724   1.843   3.204   8.523 -0.7968 -0.3814  0.9454
 1444Sol     OW 8725   0.028   0.819   5.679  0.6256 -0.1762 -0.1463
 1444Sol     HW 8726   0.115   0.779   5.683  0.8652  0.1091 -2.1049
 1444Sol     HW 8727   0.042   0.903   5.636 -0.2787  0.9427  1.6685
 1444Sol     MW 8728   0.037   0.823   5.676 -0.0366 -0.0289 -0.4501
 1445Sol     OW 8729   3.100   1.921   1.439 -0.0961  0.1532 -0.2087
 1445Sol     HW 8730   3.057   1.968   1.510  1.2740  1.0319  0.0678
 1445Sol     HW 8731   3.192   1.946   1.447  0.1571 -0.2051 -1.9408
 1445Sol     MW 8732   3.104   1.928   1.446  0.3220 -0.4090  0.4047
 1446Sol     OW 8733   2.295   1.721   2.310 -0.3516 -0.3127  0.0350
 1446Sol     HW 8734   2.249   1.767   2.240  0.9334  0.6217 -0.2125
 1446Sol     HW 8735   2.307   1.632   2.276 -1.8359 -0.5336  0.0561
 1446Sol     MW 8736   2.292   1.717   2.301 -0.7089 -0.4702 -0.1490
 1447Sol     OW 8737   1.788   1.005   8.067 -0.9444 -0.2219  0.7429
 1447Sol     HW 8738   1.877   0.977   8.087 -0.9352  0.4968  1.7765
 1447Sol     HW 8739   1.797   1.062   7.991 -0.4187  0.4233  1.2779
 1447Sol     MW 8740   1.797   1.008   8.062  0.3536 -0.1590  0.1645
 1448Sol     OW 8741   0.083   2.486   2.897  0.0197  0.3040  0.6717
 1448Sol     HW 8742   0.011   2.430   2.925 -1.0754  2.2629  1.8766
 1448Sol     HW 8743   0.102   2.541   2.974  1.3384  1.3060 -0.3459
 1448Sol     MW 8744   0.079   2.486   2.907 -0.0286 -0.2863  0.4806
 1449Sol     OW 8745   2.792   1.150   6.696  0.7432  0.0484  0.0217
 1449Sol     HW 8746   2.739   1.210   6.643  0.0796 -0.7510 -0.2294
 1449Sol     HW 8747   2.834   1.206   6.761 -1.9966  0.4347  1.5103
 1449Sol     MW 8748   2.791   1.161   6.697 -0.1685 -0.2059  0.3038
 1450Sol     OW 8749   1.297   2.963   8.276  1.0646  0.4782 -0.6420
 1450Sol     HW 8750   1.384   2.969   8.314  1.5525  0.6840 -1.7485
 1450Sol     HW 8751   1.237   2.973   8.350  1.9779 -1.2810  0.3549
 1450Sol     MW 8752   1.300   2.965   8.286  0.3217  0.0467  0.7433
 1451Sol     OW 8753   0.655   0.503   3.945  0.0375 -0.4336 -0.5000
 1451Sol     HW 8754   0.595   0.533   4.013 -1.5106 -1.2822 -1.4614
 1451Sol     HW 8755   0.742   0.509   3.985 -0.5871  1.5740  0.6383
 1451Sol     MW 8756   0.658   0.506   3.954 -0.3839 -0.1105 -0.2214
 1452Sol     OW 8757   2.421   0.974   3.134 -0.1994  0.4409  0.2706
 1452Sol     HW 8758   2.393   1.025   3.210 -0.1904 -1.7140  1.7694
 1452Sol     HW 8759   2.339   0.948   3.092 -0.2780 -0.2435  0.8361
 1452Sol     MW 8760   2.411   0.977   3.137  0.5366  0.0510  0.1255
 1453Sol     OW 8761   1.139   0.825   3.642  0.0359 -0.4097 -0.0078
 1453Sol     HW 8762   1.066   0.768   3.666 -0.4629  0.2765  0.1164
 1453Sol     HW 8763   1.123   0.848   3.551  0.1642 -0.3509 -0.0160
 1453Sol     MW 8764   1.131   0.822   3.636 -0.4537  0.3348  0.1793
 1454Sol     OW 8765   3.176   1.694   2.427 -0.5286  0.1861  0.3146
 1454Sol     HW 8766   3.198   1.770   2.372  2.0806  0.0006  1.0093
 1454Sol     HW 8767   3.083   1.704   2.446 -0.5643  2.4131 -0.8467
 1454Sol     MW 8768   3.170   1.702   2.424  0.9989 -0.4392 -0.0302
 1455Sol     OW 8769   0.799   0.251   3.107 -0.2172  0.6238 -0.1341
 1455Sol     HW 8770   0.766   0.329   3.063 -0.0524  2.3778  2.6813
 1455Sol     HW 8771   0.734   0.183   3.089 -0.6959  1.5880 -2.0982
 1455Sol     MW 8772   0.790   0.252   3.102  0.0279 -0.3202  0.0595
 1456Sol     OW 8773   3.032   2.022   9.286 -0.2917 -0.6153 -0.7786
 1456Sol     HW 8774   3.118   2.063   9.296 -0.4775 -0.4793  0.3863
 1456Sol     HW 8775   2.979   2.061   9.355 -1.1441 -1.0776 -1.1633
 1456Sol     MW 8776   3.035   2.029   9.293 -0.0798  0.3417  0.6896
 1457Sol     OW 8777   0.967   2.647   3.648  0.4764 -0.5072  0.3282
 1457Sol     HW 8778   0.910   2.575   3.674  0.8678 -0.5850  0.9724
 1457Sol     HW 8779   0.949   2.659   3.555  0.4274 -1.4504  0.2146
 1457Sol     MW 8780   0.960   2.642   3.642 -0.2681  0.2976  0.2197
 1458Sol     OW 8781   3.261   0.422   2.700 -0.3177 -0.5348 -0.7500
 1458Sol     HW 8782   3.267   0.428   2.795  0.2353  2.6843 -0.9368
 1458Sol     HW 8783   3.170   0.444   2.681  0.2424  1.5109 -1.1193
 1458Sol     MW 8784   3.253   0.424   2.707  0.4399 -0.0960  0.4288
 1459Sol     OW 8785   0.523   0.140   4.293 -0.5150 -0.2350 -0.0437
 1459Sol     HW 8786   0.618   0.132   4.307 -0.1370  0.9346 -1.7412
 1459Sol     HW 8787   0.495   0.052   4.267  0.6009 -0.0096 -2.1273
 1459Sol     MW 8788   0.529   0.131   4.291 -0.1909  0.1290  0.4400
 1460Sol     OW 8789   1.160   0.948   4.706 -0.2122 -0.3951  0.1645
 1460Sol     HW 8790   1.122   1.018   4.759 -0.8337  0.7823 -1.7832
 1460Sol     HW 8791   1.214   0.899   4.767 -0.5875  1.1569  1.8021
 1460Sol     MW 8792   1.161   0.950   4.716 -0.1925  0.9909  0.2878
 1461Sol     OW 8793   2.842   1.274   5.895  0.0513  0.1087 -0.1952
 1461Sol     HW 8794   2.797   1.204   5.943 -1.4050  2.5675  2.1569
 1461Sol     HW 8795   2.935   1.253   5.906 -0.3058 -0.5530  1.9737
 1461Sol     MW 8796   2.847   1.266   5.901  1.1904  0.0815 -0.0671
 1462Sol     OW 8797   1.380   1.356   4.791 -0.3111 -0.4775  0.0664
 1462Sol     HW 8798   1.291   1.388   4.784 -0.2607 -0.3129  0.1645
 1462Sol     HW 8799   1.413   1.395   4.872  0.6822  1.5100 -1.2573
 1462Sol     MW 8800   1.375   1.362   4.798 -0.3443  0.1228  0.2369
 1463Sol     OW 8801   0.191   0.756   7.343  0.1336  0.3011  0.3930
 1463Sol     HW 8802   0.145   0.798   7.271 -0.2358  0.2491  0.5975
 1463Sol     HW 8803   0.271   0.721   7.304  0.1397  0.6469  0.0948
 1463Sol     MW 8804   0.194   0.757   7.333  0.7732 -0.2866 -0.1346
 1464Sol     OW 8805   2.256   1.816   3.051 -0.0508  0.1646  0.8824
 1464Sol     HW 8806   2.322   1.884   3.066 -0.2891  0.4307  0.7141
 1464Sol     HW 8807   2.307   1.739   3.025  0.1553  0.5370  0.1776
 1464Sol     MW 8808   2.267   1.815   3.050 -0.2110  0.4540 -0.3517
 1465Sol     OW 8809   3.270   2.088   4.991  0.5706 -0.0275  0.4081
 1465Sol     HW 8810   3.186   2.095   5.035 -0.4014 -0.6140 -1.3025
 1465Sol     HW 8811   3.284   2.174   4.951 -0.1410 -0.4946 -0.8870
 1465Sol     MW 8812   3.264   2.096   4.991 -0.1692  0.5653  0.0169
 1466Sol     OW 8813   3.213   2.835   4.971 -0.1514 -0.0079  0.1691
 1466Sol     HW 8814   3.264   2.764   4.931 -2.0800 -1.1158 -0.3780
 1466Sol     HW 8815   3.271   2.872   5.037  1.0627 -1.7679  0.1044
 1466Sol     MW 8816   3.223   2.832   4.973 -0.3515 -0.6283 -0.1732
 1467Sol     OW 8817   1.469   2.913   7.151 -0.5093 -0.3106  0.5943
 1467Sol     HW 8818   1.428   2.846   7.096  0.0559 -0.4844  0.3831
 1467Sol     HW 8819   1.543   2.869   7.192  0.4172  0.4241 -0.2563
 1467Sol     MW 8820   1.472   2.903   7.149 -0.6334 -0.1565  0.5986
 1468Sol     OW 8821   2.533   0.368   2.391  0.2486 -0.3386 -0.3032
 1468Sol     HW 8822   2.443   0.339   2.375  0.6947 -1.7573 -0.2991
 1468Sol     HW 8823   2.528   0.464   2.391 -0.9114 -0.3609 -2.4043
 1468Sol     MW 8824   2.525   0.374   2.389 -0.7305 -0.8211 -0.7395
 1469Sol     OW 8825   2.669   1.341   3.483 -0.5498  0.2488  0.2749
 1469Sol     HW 8826   2.650   1.325   3.390 -0.6497  1.5612  0.0568
 1469Sol     HW 8827   2.600   1.402   3.511 -0.0110  0.5348  0.9865
 1469Sol     MW 8828   2.661   1.345   3.477  0.0708 -0.4054  0.1775
 1470Sol     OW 8829   0.769   0.233   6.061 -0.0343  0.0384  0.3575
 1470Sol     HW 8830   0.685   0.200   6.091 -1.2859  2.5580 -0.2355
 1470Sol     HW 8831   0.833   0.196   6.122 -1.5421 -2.0186  0.7176
 1470Sol     MW 8832   0.767   0.227   6.069 -0.5293  0.1354  0.4074
 1471Sol     OW 8833   2.951   3.394   9.114 -0.5496 -0.0633 -0.5828
 1471Sol     HW 8834   2.905   3.452   9.054  0.4914  1.7865  0.3574
 1471Sol     HW 8835   2.959   3.444   9.195 -1.6652 -2.3985  1.0452
 1471Sol     MW 8836   2.948   3.404   9.116 -0.1880  0.0488 -0.0637
 1472Sol     OW 8837   2.476   2.469   4.093  0.3999 -0.1138 -0.4666
 1472Sol     HW 8838   2.424   2.431   4.164  0.4161  1.2705  0.3016
 1472Sol     HW 8839   2.472   2.403   4.024 -0.9089 -0.8071  0.2317
 1472Sol     MW 8840   2.471   2.459   4.094 -0.3534  0.0353 -0.3490
 1473Sol     OW 8841   0.768   1.195   6.974  0.1430 -0.0319 -0.7188
 1473Sol     HW 8842   0.731   1.240   7.050  1.5197  1.8705 -1.1163
 1473Sol     HW 8843   0.734   1.106   6.979 -1.2221  0.5602  1.1189
 1473Sol     MW 8844   0.762   1.191   6.981 -0.4740  0.3638 -0.3402
 1474Sol     OW 8845   2.321   1.967   9.932  0.0032  0.6003 -0.1694
 1474Sol     HW 8846   2.268   1.977   9.852 -1.2872  0.6655  0.6755
 1474Sol     HW 8847   2.286   1.888   9.973  0.8613  0.4110  0.1976
 1474Sol     MW 8848   2.313   1.961   9.928  0.3067 -0.5631 -0.3711
 1475Sol     OW 8849   0.189   1.956   9.602 -0.0696 -0.0870  0.0396
 1475Sol     HW 8850   0.197   2.017   9.529 -0.2642  0.5752  0.5579
 1475Sol     HW 8851   0.279   1.941   9.632  0.2017 -2.0185 -1.6551
 1475Sol     MW 8852   0.197   1.960   9.598 -0.5170  0.1393 -0.1253
 1476Sol     OW 8853   2.780   0.454   5.115  0.1047 -0.1555  0.0754
 1476Sol     HW 8854   2.808   0.540   5.146  1.1197 -0.5445  0.2670
 1476Sol     HW 8855   2.825   0.443   5.031  0.2164 -0.6176  0.1900
 1476Sol     MW 8856   2.786   0.461   5.110 -0.0066 -0.2887 -0.1964
 1477Sol     OW 8857   1.771   0.273   9.979  0.1222 -0.0888 -0.1313
 1477Sol     HW 8858   1.792   0.186   9.944 -0.0174  0.1382 -0.7962
 1477Sol     HW 8859   1.829   0.283  10.055  0.7471 -0.4137 -0.5559
 1477Sol     MW 8860   1.778   0.266   9.983  0.2491 -0.2987  0.0529
 1478Sol     OW 8861   2.667   2.044   9.323 -0.2826  0.3124 -0.5292
 1478Sol     HW 8862   2.589   1.989   9.311  0.2421 -0.6282  0.2989
 1478Sol     HW 8863   2.682   2.083   9.237  0.0933 -1.8765 -1.4903
 1478Sol     MW 8864   2.661   2.042   9.314  0.1477  0.1193  0.4435
 1479Sol     OW 8865   2.851   0.393   5.592  0.1821 -0.6220 -0.2369
 1479Sol     HW 8866   2.770   0.384   5.542 -0.7389 -1.4688  1.3761
 1479Sol     HW 8867   2.882   0.482   5.572 -1.0049 -0.3918 -1.0626
 1479Sol     MW 8868   2.847   0.400   5.586 -0.1582 -0.9908  0.1400
 1480Sol     OW 8869   1.454   1.149   2.362 -0.3078  0.0364  0.2409
 1480Sol     HW 8870   1.449   1.216   2.431 -1.8688  0.8351 -0.6154
 1480Sol     HW 8871   1.365   1.144   2.327  0.7181  0.5027 -2.5522
 1480Sol     MW 8872   1.445   1.154   2.365  0.1619 -0.4080  0.1595
 1481Sol     OW 8873   1.913   2.982   4.623 -0.0525 -0.4223  0.3666
 1481Sol     HW 8874   1.995   2.974   4.672 -0.3067  1.9327  1.2815
 1481Sol     HW 8875   1.846   2.954   4.684 -0.2876  1.7010  1.1427
 1481Sol     MW 8876   1.915   2.979   4.633 -0.4179  0.0162 -0.3716
 1482Sol     OW 8877   1.905   1.061   9.505 -0.3559 -0.5375  0.4651
 1482Sol     HW 8878   1.919   0.966   9.510 -1.3751 -0.6947  0.2634
 1482Sol     HW 8879   1.993   1.097   9.491 -0.3133 -1.6733 -2.6872
 1482Sol     MW 8880   1.915   1.056   9.504  0.6799 -0.4885 -0.1700
 1483Sol     OW 8881   2.813   0.247   1.774  0.3219  0.3784  0.3216
 1483Sol     HW 8882   2.878   0.242   1.704  1.6328 -0.1075  1.5479
 1483Sol     HW 8883   2.849   0.311   1.835 -1.6681  2.1275 -0.3018
 1483Sol     MW 8884   2.822   0.252   1.773 -0.3006 -0.0667  0.1427
 1484Sol     OW 8885   3.279   0.730   4.807  0.4583  0.7041 -0.3730
 1484Sol     HW 8886   3.289   0.665   4.737  2.3592  0.4526  0.1125
 1484Sol     HW 8887   3.368   0.748   4.836 -0.1451  2.6572  0.3104
 1484Sol     MW 8888   3.288   0.725   4.803 -0.2153  0.2627  0.6461
 1485Sol     OW 8889   1.592   0.402   9.799 -0.1072 -0.3055  0.2803
 1485Sol     HW 8890   1.655   0.400   9.727  0.2843  1.0131  0.5626
 1485Sol     HW 8891   1.639   0.367   9.874 -0.0135 -0.2101  0.2659
 1485Sol     MW 8892   1.601   0.399   9.799  0.5613  0.2051 -0.3086
 1486Sol     OW 8893   2.590   3.365   6.629 -0.4311 -0.2201  0.2755
 1486Sol     HW 8894   2.679   3.346   6.601 -0.4669  0.0019  0.0075
 1486Sol     HW 8895   2.543   3.282   6.619 -0.5039 -0.0784 -0.5637
 1486Sol     MW 8896   2.594   3.356   6.626  0.2857 -0.2619 -0.5998
 1487Sol     OW 8897   1.225   2.869   7.269  0.0860 -0.2398 -0.5495
 1487Sol     HW 8898   1.191   2.797   7.216  0.4983 -0.2258 -0.8304
 1487Sol     HW 8899   1.314   2.883   7.237 -0.3757  1.1567 -1.2883
 1487Sol     MW 8900   1.230   2.864   7.261 -0.0503  0.5305  0.4581
 1488Sol     OW 8901   2.607   0.938   6.465  0.2468 -0.3030  0.4423
 1488Sol     HW 8902   2.591   0.847   6.440  2.3573 -0.9126  1.2281
 1488Sol     HW 8903   2.701   0.951   6.452  0.3118  1.1776  2.1948
 1488Sol     MW 8904   2.614   0.931   6.462 -0.0132 -0.5122 -0.0095
 1489Sol     OW 8905   0.738   2.661   8.740 -0.1082  0.3431  0.0886
 1489Sol     HW 8906   0.651   2.661   8.701  0.1170 -2.0098 -0.5146
 1489Sol     HW 8907   0.797   2.687   8.669  0.1022 -2.1451 -0.6885
 1489Sol     MW 8908   0.736   2.663   8.730  0.5620 -0.6917 -0.4185
 1490Sol     OW 8909   0.307   1.539   5.180 -0.5143  0.5047 -0.9745
 1490Sol     HW 8910   0.293   1.444   5.184  0.5887  0.4103  1.2889
 1490Sol     HW 8911   0.261   1.573   5.257 -0.5366  1.7733 -1.5348
 1490Sol     MW 8912   0.302   1.533   5.187 -0.2467 -0.2324  0.0446
 1491Sol     OW 8913   1.452   0.044   9.019 -0.3807  0.2737  0.7034
 1491Sol     HW 8914   1.481   0.097   8.944 -1.4327  1.3731  1.0639
 1491Sol     HW 8915   1.437   0.108   9.089 -2.1066 -0.4466  1.0069
 1491Sol     MW 8916   1.454   0.055   9.018  0.2962 -0.0558 -0.0744
 1492Sol     OW 8917   2.653   0.876   8.694 -1.0266  0.0962  0.1205
 1492Sol     HW 8918   2.627   0.786   8.673  0.5615 -0.4285  0.3972
 1492Sol     HW 8919   2.748   0.874   8.698 -0.9315  1.9562 -0.6128
 1492Sol     MW 8920   2.659   0.868   8.692  0.0048 -0.7599 -0.0795
 1493Sol     OW 8921   2.737   1.981   8.654 -0.4916 -0.1107 -0.1091
 1493Sol     HW 8922   2.807   2.000   8.716 -0.7163 -0.4982  0.2717
 1493Sol     HW 8923   2.724   2.063   8.606 -1.0748  0.5300  1.1201
 1493Sol     MW 8924   2.742   1.990   8.655 -0.9293 -0.5680 -0.0567
 1494Sol     OW 8925   3.130   3.069   4.848  0.3303  0.2553 -0.4711
 1494Sol     HW 8926   3.170   2.989   4.882 -0.5223  0.3529  0.7967
 1494Sol     HW 8927   3.108   3.048   4.757 -0.7130 -1.2672  0.1215
 1494Sol     MW 8928   3.131   3.060   4.843 -0.1588  0.5250  0.2311
 1495Sol     OW 8929   0.232   0.269   1.802 -0.5737 -0.1283  0.7333
 1495Sol     HW 8930   0.293   0.275   1.728 -1.7701 -0.5813 -0.3082
 1495Sol     HW 8931   0.277   0.213   1.865 -0.1619 -0.9656 -0.2872
 1495Sol     MW 8932   0.242   0.264   1.801 -0.2604  0.0040  1.0139
 1496Sol     OW 8933   2.658   0.139   9.104  0.1116 -0.2857 -0.4469
 1496Sol     HW 8934   2.706   0.101   9.031 -0.3344 -1.8772  0.0485
 1496Sol     HW 8935   2.649   0.066   9.166  0.2432  0.9572  1.0624
 1496Sol     MW 8936   2.662   0.129   9.103  0.6821  0.4045 -0.0803
 1497Sol     OW 8937   2.997   1.560   5.141 -0.2863  0.0793 -0.1612
 1497Sol     HW 8938   2.922   1.568   5.200 -0.7863 -0.3304 -0.7374
 1497Sol     HW 8939   2.968   1.603   5.061 -1.2495 -3.1455 -1.6402
 1497Sol     MW 8940   2.987   1.565   5.140 -0.3301 -1.0067 -0.4605
 1498Sol     OW 8941   2.099   3.277   2.625 -0.5610  0.0835 -0.3688
 1498Sol     HW 8942   2.174   3.331   2.601 -0.8907  0.1328 -1.2996
 1498Sol     HW 8943   2.029   3.303   2.565 -1.8396  1.2074  1.5344
 1498Sol     MW 8944   2.099   3.284   2.618  0.4201  0.0901  0.7176
 1499Sol     OW 8945   0.245   3.149   3.960 -0.3610 -0.5128  0.6152
 1499Sol     HW 8946   0.324   3.096   3.962  0.4347  0.5669 -1.0286
 1499Sol     HW 8947   0.207   3.139   4.048  1.3352 -1.4171  1.2713
 1499Sol     MW 8948   0.249   3.144   3.968  0.9860 -0.3024  0.0601
 1500Sol     OW 8949   1.774   2.558   9.971 -0.4424 -0.0583 -0.5550
 1500Sol     HW 8950   1.853   2.521   9.932 -0.3679 -0.2488 -0.2275
 1500Sol     HW 8951   1.790   2.652   9.975 -0.8225  0.0758 -1.8268
 1500Sol     MW 8952   1.782   2.563   9.968 -0.6128  0.3220 -0.2753
 1501Sol     OW 8953   1.872   0.819   7.319 -0.0974 -0.0656 -0.6020
 1501Sol     HW 8954   1.860   0.866   7.401 -3.6825  1.8455 -2.1069
 1501Sol     HW 8955   1.904   0.885   7.258  0.2931 -0.9190 -1.3360
 1501Sol     MW 8956   1.874   0.829   7.321 -0.3841  0.2357 -0.4519
 1502Sol     OW 8957   2.964   1.474   3.736 -0.0397  0.1134  0.0447
 1502Sol     HW 8958   3.026   1.408   3.705 -0.2956 -1.3793  2.5783
 1502Sol     HW 8959   2.915   1.431   3.806 -1.4820  2.4117  0.5182
 1502Sol     MW 8960   2.965   1.465   3.740 -0.9103  0.2443 -0.4139
 1503Sol     OW 8961   0.659   3.387   7.927  0.0084  0.3488 -0.8973
 1503Sol     HW 8962   0.632   3.317   7.986 -1.1654  0.2739 -1.5118
 1503Sol     HW 8963   0.610   3.371   7.846  0.8774  0.9997 -1.5662
 1503Sol     MW 8964   0.652   3.380   7.925  0.1550 -1.0263 -0.2455
 1504Sol     OW 8965   1.473   3.130   3.232  0.1592 -0.2186 -0.4995
 1504Sol     HW 8966   1.544   3.145   3.295 -1.3086  1.0378  0.8843
 1504Sol     HW 8967   1.506   3.168   3.150  1.4898 -0.5533 -0.1327
 1504Sol     MW 8968   1.482   3.135   3.230  0.8072 -0.1434  0.2851
 1505Sol     OW 8969   0.582   3.092   5.211  0.3671 -0.0684  0.0985
 1505Sol     HW 8970   0.591   3.015   5.267  0.3389 -0.3313 -0.2551
 1505Sol     HW 8971   0.661   3.143   5.228  1.2295 -1.0396 -0.9739
 1505Sol     MW 8972   0.590   3.090   5.218  0.9448  0.4719  0.3836
 1506Sol     OW 8973   1.384   2.711   2.102  0.4762 -0.2006 -0.5480
 1506Sol     HW 8974   1.399   2.631   2.052  2.1945  0.6232 -1.4024
 1506Sol     HW 8975   1.338   2.682   2.181  0.0599 -1.8618 -1.3724
 1506Sol     MW 8976   1.381   2.701   2.105 -0.0157  0.4830  0.0246
 1507Sol     OW 8977   2.172   0.883   5.575  0.1271 -0.0573  0.5074
 1507Sol     HW 8978   2.214   0.925   5.500 -0.8544 -0.1293 -0.0863
 1507Sol     HW 8979   2.229   0.809   5.596  0.0846 -0.4031 -0.5600
 1507Sol     MW 8980   2.181   0.880   5.570 -0.0280  0.4560  0.1885
 1508Sol     OW 8981   2.625   1.760   9.982  0.2251  0.3602  0.4201
 1508Sol     HW 8982   2.603   1.854   9.981 -2.2424 -0.1846 -0.0639
 1508Sol     HW 8983   2.652   1.741   9.893 -1.3603  0.1800 -0.0444
 1508Sol     MW 8984   2.625   1.767   9.974  0.4821 -0.2884  0.0639
 1509Sol     OW 8985   3.186   1.558   2.681  0.0657  0.0962  0.3904
 1509Sol     HW 8986   3.178   1.569   2.586 -1.2767  0.8106  0.5747
 1509Sol     HW 8987   3.184   1.647   2.716 -0.6743 -0.2250  1.1757
 1509Sol     MW 8988   3.185   1.567   2.675  0.2713 -0.0910  0.4218
 1510Sol     OW 8989   3.230   1.105   3.988 -0.1464  0.2709  0.7129
 1510Sol     HW 8990   3.307   1.097   4.044  0.3435  1.1210  0.1696
 1510Sol     HW 8991   3.234   1.195   3.955 -1.4635  0.3851  0.8237
 1510Sol     MW 8992   3.237   1.112   3.990  0.2454  0.2890  0.0074
 1511Sol     OW 8993   2.325   0.425   3.072 -0.1352  0.1189  0.0153
 1511Sol     HW 8994   2.366   0.345   3.106 -1.8399 -0.3972  0.9064
 1511Sol     HW 8995   2.390   0.493   3.088  0.7975 -0.8611  0.4799
 1511Sol     MW 8996   2.335   0.424   3.077 -0.0334 -0.5614 -0.7793
 1512Sol     OW 8997   2.326   3.108   7.272 -0.6020  0.1775  0.2447
 1512Sol     HW 8998   2.244   3.131   7.317  0.3095  1.5863  1.1999
 1512Sol     HW 8999   2.341   3.181   7.211 -0.5802 -0.5743 -0.6585
 1512Sol     MW 9000   2.320   3.117   7.270  0.4186 -0.1781 -0.3831
 1513Sol     OW 9001   2.928   1.988   4.397  0.7939  0.3304  0.2832
 1513Sol     HW 9002   2.979   1.991   4.479  0.5887  1.4450  0.3781
 1513Sol     HW 9003   2.928   2.078   4.366  0.0488  0.0814 -0.4477
 1513Sol     MW 9004   2.933   1.996   4.402  0.1599 -0.1126  0.1137
 1514Sol     OW 9005   0.295   0.895   5.872 -0.5119 -0.1572 -0.1057
 1514Sol     HW 9006   0.331   0.825   5.927  0.9418 -0.1022 -0.9792
 1514Sol     HW 9007   0.368   0.922   5.816 -0.6196  3.0745  1.1953
 1514Sol     MW 9008   0.305   0.891   5.872  0.1187  0.1549 -0.3623
 1515Sol     OW 9009   2.815   2.787   8.842 -0.2032  0.1943 -0.3316
 1515Sol     HW 9010   2.886   2.851   8.843  0.7335 -0.7795 -2.2869
 1515Sol     HW 9011   2.769   2.804   8.760  0.1319 -1.6822 -0.9355
 1515Sol     MW 9012   2.817   2.795   8.835  0.5483 -0.6888 -0.5826
 1516Sol     OW 9013   0.030   1.904   8.842  0.2985 -0.0775  0.0236
 1516Sol     HW 9014  -0.045   1.852   8.870  1.4858 -0.2361  3.0603
 1516Sol     HW 9015   0.068   1.854   8.770 -0.2365 -1.9791  1.0361
 1516Sol     MW 9016   0.027   1.895   8.838  0.3696  0.1244 -0.0097
 1517Sol     OW 9017   2.337   2.925   5.652 -0.2451  0.6974  0.0412
 1517Sol     HW 9018   2.309   3.007   5.611  1.3444  0.8615 -0.7087
 1517Sol     HW 9019   2.396   2.952   5.722  0.7130  0.1508 -0.5593
 1517Sol     MW 9020   2.339   2.935   5.655 -0.2019  0.3708  0.0048
 1518Sol     OW 9021   2.128   2.944   4.787 -0.1197  0.3040 -0.4055
 1518Sol     HW 9022   2.224   2.940   4.788 -0.1687 -2.0140 -1.1278
 1518Sol     HW 9023   2.106   3.000   4.861  1.8159  1.5164 -0.7139
 1518Sol     MW 9024   2.135   2.948   4.794 -0.4957 -0.0896  0.1829
 1519Sol     OW 9025   0.116   2.786   2.582  0.7054  0.2417  0.9315
 1519Sol     HW 9026   0.062   2.858   2.551 -0.7003 -1.2868 -0.2868
 1519Sol     HW 9027   0.192   2.828   2.622  0.0538  2.3710  0.0039
 1519Sol     MW 9028   0.118   2.796   2.583 -0.7656  0.0508  0.3127
 1520Sol     OW 9029   0.029   3.132   7.601 -0.2112  0.1051 -0.5203
 1520Sol     HW 9030   0.024   3.208   7.659 -1.2092 -0.8166  0.6230
 1520Sol     HW 9031  -0.045   3.078   7.626  0.2618 -1.0634 -1.5983
 1520Sol     MW 9032   0.022   3.134   7.608 -1.1597  0.0140 -0.3386
 1521Sol     OW 9033   2.870   2.028   2.569 -0.1507  0.9232  0.5511
 1521Sol     HW 9034   2.932   2.036   2.496  0.0982 -3.6604  0.0713
 1521Sol     HW 9035   2.785   2.016   2.527 -0.1933 -0.3919  0.9702
 1521Sol     MW 9036   2.868   2.027   2.559 -0.2875 -0.3917  0.1470
 1522Sol     OW 9037   1.036   1.800   2.468  0.2669 -0.4512 -0.4828
 1522Sol     HW 9038   1.089   1.740   2.521 -0.7290 -0.3661  0.6444
 1522Sol     HW 9039   0.948   1.791   2.503  0.2649  2.3515  0.3717
 1522Sol     MW 9040   1.033   1.794   2.476  0.4637  0.5598  0.1084
 1523Sol     OW 9041   0.199   0.828   1.813  0.2703 -0.3341 -0.3285
 1523Sol     HW 9042   0.178   0.765   1.882 -0.6140  0.0829 -0.2161
 1523Sol     HW 9043   0.127   0.820   1.751  0.4531  0.1648 -0.6008
 1523Sol     MW 9044   0.191   0.821   1.814 -0.0555  0.1734  0.6154
 1524Sol     OW 9045   1.377   1.135   5.374  0.6180  0.3000  0.0052
 1524Sol     HW 9046   1.368   1.080   5.296  1.1664 -0.0269  0.1665
 1524Sol     HW 9047   1.460   1.180   5.361  1.1927 -0.5036  0.8630
 1524Sol     MW 9048   1.384   1.134   5.366  0.6754 -0.5200 -0.5489
 1525Sol     OW 9049   0.785   2.426   7.379  0.3869 -0.4794 -0.1196
 1525Sol     HW 9050   0.691   2.440   7.396  0.5537  0.2546  0.2313
 1525Sol     HW 9051   0.809   2.499   7.322  1.1906  0.4478  1.3853
 1525Sol     MW 9052   0.778   2.434   7.375 -0.3849 -0.2393  0.3194
 1526Sol     OW 9053   1.012   2.523   8.411  0.0847 -0.3546  0.0827
 1526Sol     HW 9054   0.962   2.473   8.346  0.0532 -3.9609  2.7000
 1526Sol     HW 9055   0.959   2.599   8.430 -0.9221 -0.3572 -2.4828
 1526Sol     MW 9056   1.003   2.525   8.407  0.4460  0.3485 -0.3143
 1527Sol     OW 9057   1.457   3.288   4.735 -0.5121 -0.1621  0.7221
 1527Sol     HW 9058   1.408   3.266   4.656 -1.0608  0.1918  0.9578
 1527Sol     HW 9059   1.421   3.373   4.763 -1.6562 -1.1734  2.4045
 1527Sol     MW 9060   1.449   3.294   4.730 -0.4319  0.3319  0.1618
 1528Sol     OW 9061   2.923   1.704   7.923 -0.8765 -0.2123  0.3986
 1528Sol     HW 9062   2.974   1.624   7.931  1.0807  1.0856  1.3336
 1528Sol     HW 9063   2.895   1.724   8.012 -1.7141 -0.0736  0.1115
 1528Sol     MW 9064   2.925   1.699   7.932  0.4261 -0.0864 -0.2856
 1529Sol     OW 9065   2.642   1.062   5.661  0.2599 -0.1631  0.4867
 1529Sol     HW 9066   2.662   1.155   5.652 -0.6134  0.0814  1.0581
 1529Sol     HW 9067   2.548   1.059   5.677  0.0851 -1.2253 -0.6932
 1529Sol     MW 9068   2.635   1.070   5.662  0.2111  0.5367  0.1776
 1530Sol     OW 9069   2.572   2.566   3.629 -0.3908  0.3183 -0.0054
 1530Sol     HW 9070   2.494   2.518   3.658  0.6364 -2.1327 -1.2082
 1530Sol     HW 9071   2.631   2.564   3.704 -0.9546  1.0404  0.4624
 1530Sol     MW 9072   2.570   2.562   3.638 -0.1915  0.4729  0.4229
 1531Sol     OW 9073   2.552   0.561   9.052 -0.1494 -0.5385  0.0363
 1531Sol     HW 9074   2.537   0.651   9.022  1.4345  0.4925  2.2360
 1531Sol     HW 9075   2.605   0.522   8.983  1.9816  1.2620  0.5943
 1531Sol     MW 9076   2.555   0.566   9.043 -0.2899 -0.2294 -0.1546
 1532Sol     OW 9077   2.593   0.179   6.498 -0.8253 -0.1755 -0.2076
 1532Sol     HW 9078   2.576   0.085   6.513 -1.3285  0.0565  0.7295
 1532Sol     HW 9079   2.550   0.222   6.571  0.0317  0.7465 -0.2491
 1532Sol     MW 9080   2.588   0.174   6.506  0.2956  0.2775  0.4468
 1533Sol     OW 9081   1.450   0.163   7.261 -0.0224 -0.1388  0.1653
 1533Sol     HW 9082   1.369   0.120   7.287 -0.9387  1.3126 -0.2178
 1533Sol     HW 9083   1.462   0.233   7.325 -0.3410  1.1486 -1.1515
 1533Sol     MW 9084   1.444   0.165   7.269  0.3924 -0.3203  0.1764
 1534Sol     OW 9085   1.539   0.230   2.921  0.3074 -0.4036  0.0579
 1534Sol     HW 9086   1.506   0.303   2.973  1.2165  0.9707 -1.2354
 1534Sol     HW 9087   1.489   0.154   2.952 -0.3218  0.6667  1.7522
 1534Sol     MW 9088   1.531   0.230   2.928 -0.4003 -0.3668 -0.0654
 1535Sol     OW 9089   2.592   0.229   5.689  0.2531  0.2151  0.0786
 1535Sol     HW 9090   2.592   0.293   5.618 -0.7905 -0.1655 -0.2749
 1535Sol     HW 9091   2.574   0.145   5.647  2.4634 -0.4693  0.4282
 1535Sol     MW 9092   2.590   0.227   5.679  0.1564  0.4513  0.2236
 1536Sol     OW 9093   2.741   0.494   8.841 -0.1563  0.5271  0.3132
 1536Sol     HW 9094   2.682   0.534   8.776  1.7358  0.7743 -1.2786
 1536Sol     HW 9095   2.812   0.557   8.850  2.3214 -1.9398 -1.4180
 1536Sol     MW 9096   2.742   0.503   8.836 -0.4066 -0.3479  0.0449
 1537Sol     OW 9097   1.530   1.425   7.979 -0.0778 -0.1360 -0.1308
 1537Sol     HW 9098   1.549   1.390   7.892 -0.8801 -1.0734  0.0684
 1537Sol     HW 9099   1.610   1.409   8.029  0.7858  1.3854 -0.9915
 1537Sol     MW 9100   1.539   1.421   7.976  0.1873 -0.2525 -0.3539
 1538Sol     OW 9101   1.684   2.289   3.143  0.5348 -0.6453  0.2656
 1538Sol     HW 9102   1.670   2.242   3.061  0.3306  1.2984 -0.8539
 1538Sol     HW 9103   1.764   2.252   3.180  0.6472 -1.5015 -0.8357
 1538Sol     MW 9104   1.690   2.282   3.139 -0.4073 -0.3517 -0.1031
 1539Sol     OW 9105   2.259   3.082   8.597 -0.1318  0.0462  0.0349
 1539Sol     HW 9106   2.341   3.035   8.614 -0.0411  0.0375 -0.4261
 1539Sol     HW 9107   2.211   3.027   8.536 -1.1129 -0.6299  1.4050
 1539Sol     MW 9108   2.262   3.073   8.593  0.6795 -0.7073 -0.3830
 1540Sol     OW 9109   0.213   3.141   9.453 -0.4507  0.2841  0.0549
 1540Sol     HW 9110   0.266   3.067   9.423 -2.5361 -0.8698 -0.8860
 1540Sol     HW 9111   0.264   3.218   9.428  0.3602 -0.7735 -1.6688
 1540Sol     MW 9112   0.223   3.141   9.448 -0.5001 -0.0207  0.0079
 1541Sol     OW 9113   3.071   3.214   8.746 -0.9587 -0.8647 -0.1038
 1541Sol     HW 9114   3.069   3.119   8.756 -0.0330 -0.7392  1.4470
 1541Sol     HW 9115   3.109   3.246   8.828 -1.1164  0.8352 -0.6726
 1541Sol     MW 9116   3.074   3.209   8.755  0.2411  0.3512  0.0488
 1542Sol     OW 9117   1.280   1.550   8.473 -0.0124  0.3587  0.1942
 1542Sol     HW 9118   1.215   1.564   8.542 -0.0893 -1.6565  0.5703
 1542Sol     HW 9119   1.228   1.541   8.393 -0.2328 -1.2683  0.4984
 1542Sol     MW 9120   1.269   1.551   8.472 -0.2729 -0.7144  0.2509
 1543Sol     OW 9121   1.098   1.771   3.112 -0.1532  0.1650 -0.8901
 1543Sol     HW 9122   1.024   1.831   3.117 -0.9371 -0.7159 -1.6133
 1543Sol     HW 9123   1.111   1.757   3.019  1.1564  0.5797 -0.7744
 1543Sol     MW 9124   1.093   1.775   3.104  0.1194 -0.6259  0.0049
 1544Sol     OW 9125   2.325   2.123   2.558  0.3062 -0.3726  0.6339
 1544Sol     HW 9126   2.380   2.169   2.495 -0.5620 -0.5669 -0.2653
 1544Sol     HW 9127   2.329   2.177   2.637 -1.2635  1.6311 -0.6229
 1544Sol     MW 9128   2.331   2.132   2.560 -0.7384 -0.4341 -1.3994
 1545Sol     OW 9129   1.826   2.636   3.898  0.1448 -0.4425 -0.1196
 1545Sol     HW 9130   1.830   2.728   3.869 -2.5076 -0.3597 -0.3718
 1545Sol     HW 9131   1.916   2.614   3.921  0.9948  1.9220 -1.0229
 1545Sol     MW 9132   1.834   2.643   3.897 -0.3775 -0.3489 -0.3872
 1546Sol     OW 9133   2.430   0.944   9.996 -0.3336  0.2709 -0.4933
 1546Sol     HW 9134   2.409   0.858  10.032  2.2669 -0.0568  0.3537
 1546Sol     HW 9135   2.385   0.947   9.912 -0.3531 -1.9735 -0.5864
 1546Sol     MW 9136   2.424   0.937   9.991  0.1509  0.1742 -0.0775
 1547Sol     OW 9137   1.324   1.947   9.717  0.2284  0.1474  0.2589
 1547Sol     HW 9138   1.231   1.965   9.724 -0.2727 -2.1473 -0.1339
 1547Sol     HW 9139   1.366   2.019   9.764 -1.7822  0.5207  1.5284
 1547Sol     MW 9140   1.320   1.955   9.722  0.1268  0.7208  0.4804
 1548Sol     OW 9141   0.182   0.364   2.393  0.4908  0.5892 -0.1714
 1548Sol     HW 9142   0.125   0.299   2.351  1.7816 -1.0242  0.5364
 1548Sol     HW 9143   0.158   0.446   2.351 -0.4843 -0.4927 -1.8086
 1548Sol     MW 9144   0.174   0.365   2.385  0.2545 -0.3765 -1.2220
 1549Sol     OW 9145   1.828   1.135   4.111 -0.5459 -0.1692  0.9597
 1549Sol     HW 9146   1.905   1.091   4.078  0.2046  0.1498  2.2419
 1549Sol     HW 9147   1.810   1.205   4.048  0.9139  0.5013  1.2840
 1549Sol     MW 9148   1.833   1.137   4.103 -0.2879  0.0778  0.3407
 1550Sol     OW 9149   0.214   2.725   9.397  0.2763  0.3992  0.3559
 1550Sol     HW 9150   0.165   2.780   9.336  0.5087  1.2495  0.9283
 1550Sol     HW 9151   0.271   2.672   9.341 -0.4658  0.2257 -0.2417
 1550Sol     MW 9152   0.215   2.726   9.386  0.0708  0.4289  0.0729
 1551Sol     OW 9153   1.682   0.143   1.800 -0.1627 -0.3186 -0.5779
 1551Sol     HW 9154   1.686   0.168   1.892  0.6427  0.7549 -0.8926
 1551Sol     HW 9155   1.739   0.067   1.794 -0.7890 -0.8326 -0.0543
 1551Sol     MW 9156   1.688   0.138   1.808 -0.5683 -0.1916  0.0868
 1552Sol     OW 9157   0.616   0.021   5.333 -0.6678 -0.5610  0.2529
 1552Sol     HW 9158   0.668  -0.058   5.314  0.8363  0.7715 -1.2882
 1552Sol     HW 9159   0.545   0.018   5.269 -1.7737 -1.6938  1.5032
 1552Sol     MW 9160   0.615   0.013   5.326  0.3362  1.0660  0.2306
 1553Sol     OW 9161   2.130   1.961   2.450 -0.2115  0.3493  0.6975
 1553Sol     HW 9162   2.206   2.004   2.488  1.0352  0.5840 -1.9647
 1553Sol     HW 9163   2.062   2.029   2.448  0.6566  1.1975 -0.2698
 1553Sol     MW 9164   2.130   1.971   2.454  0.3883 -0.4617 -0.3906
 1554Sol     OW 9165   0.679   1.278   4.824  0.3684 -0.4759  0.5604
 1554Sol     HW 9166   0.632   1.212   4.875 -2.3459  1.7791  1.1283
 1554Sol     HW 9167   0.754   1.301   4.878 -0.8953 -0.1998  2.2327
 1554Sol     MW 9168   0.682   1.274   4.833  0.1085  0.4397 -0.1909
 1555Sol     OW 9169   3.260   2.095   3.990 -0.3437  0.5588  0.0290
 1555Sol     HW 9170   3.238   2.029   3.925 -2.2066  1.2111 -0.0213
 1555Sol     HW 9171   3.196   2.165   3.976  0.7508  1.7745  0.9715
 1555Sol     MW 9172   3.253   2.096   3.983 -0.4762 -0.1091  0.1419
 1556Sol     OW 9173   3.143   0.844   7.113  0.0219 -0.4220 -0.5158
 1556Sol     HW 9174   3.125   0.789   7.190  1.5752 -1.8091 -1.1037
 1556Sol     HW 9175   3.063   0.895   7.101 -1.1652 -1.9540  0.5753
 1556Sol     MW 9176   3.134   0.843   7.119 -0.3329 -0.0303  0.2933
 1557Sol     OW 9177   0.767   1.111   8.284 -0.1995  0.2158  0.0285
 1557Sol     HW 9178   0.696   1.160   8.326  1.1152  0.0966  2.4551
 1557Sol     HW 9179   0.758   1.021   8.317  0.0529 -0.2103 -1.0096
 1557Sol     MW 9180   0.760   1.107   8.291 -0.6784 -0.2599  0.1553
 1558Sol     OW 9181   0.643   1.848   4.585 -0.1075  0.5165 -0.1512
 1558Sol     HW 9182   0.563   1.899   4.584  0.1522  0.9386  0.1887
 1558Sol     HW 9183   0.702   1.898   4.642  0.1581 -0.1375  0.1539
 1558Sol     MW 9184   0.641   1.857   4.590 -0.2985 -0.1772 -0.3311
 1559Sol     OW 9185   0.952   2.316   8.843  0.3679  0.2705 -0.1748
 1559Sol     HW 9186   1.002   2.283   8.769  0.5393  0.6158 -0.2157
 1559Sol     HW 9187   0.862   2.288   8.827  0.1717  1.4022 -1.1543
 1559Sol     MW 9188   0.948   2.311   8.835 -0.0469  1.1800 -0.4925
 1560Sol     OW 9189   1.983   2.040   5.242 -0.5339  0.9943 -0.2620
 1560Sol     HW 9190   1.907   2.000   5.201  0.1102 -0.0173 -0.4682
 1560Sol     HW 9191   1.954   2.128   5.266 -1.6236  0.7665 -0.7531
 1560Sol     MW 9192   1.974   2.045   5.241 -0.3777 -1.0473 -0.2590
 1561Sol     OW 9193   0.183   1.638   5.408  0.5953  0.0268  1.0240
 1561Sol     HW 9194   0.136   1.720   5.397  1.1636  0.0728 -1.3116
 1561Sol     HW 9195   0.258   1.660   5.463  0.3296  0.8891  1.0416
 1561Sol     MW 9196   0.186   1.647   5.412 -0.7324 -1.0108  0.4087
 1562Sol     OW 9197   2.709   2.466   1.516 -0.1452  0.3117 -0.0684
 1562Sol     HW 9198   2.618   2.479   1.488 -0.3789 -0.9628  0.0874
 1562Sol     HW 9199   2.760   2.476   1.435 -0.4328  0.8631 -0.1875
 1562Sol     MW 9200   2.705   2.468   1.506  1.1091  0.4385 -0.0974
 1563Sol     OW 9201   3.243   1.701   3.528 -0.2862  0.1844 -0.5232
 1563Sol     HW 9202   3.289   1.690   3.611  1.2527  2.0315 -1.1219
 1563Sol     HW 9203   3.165   1.752   3.550 -1.0532 -1.2331  0.1378
 1563Sol     MW 9204   3.240   1.704   3.537  0.4040 -0.4947  0.6199
 1564Sol     OW 9205   1.796   3.429   9.862 -0.1477  0.2172  0.3504
 1564Sol     HW 9206   1.777   3.471   9.778 -0.3985  0.3912  0.4942
 1564Sol     HW 9207   1.713   3.389   9.888  0.6078 -2.2482 -0.8324
 1564Sol     MW 9208   1.786   3.429   9.857 -0.6053 -0.2808  0.1955
 1565Sol     OW 9209   2.101   0.674   7.511  0.0225 -0.2159  0.2002
 1565Sol     HW 9210   2.081   0.698   7.421 -1.4074  0.2722  0.6286
 1565Sol     HW 9211   2.177   0.616   7.505  0.4252  0.4547 -1.2438
 1565Sol     MW 9212   2.106   0.671   7.503  0.3363 -0.3064  0.0507
 1566Sol     OW 9213   2.182   2.513   4.657  0.3124 -0.0905 -0.0294
 1566Sol     HW 9214   2.265   2.497   4.703  0.5144 -0.9635 -0.6941
 1566Sol     HW 9215   2.146   2.426   4.641 -0.1628  0.2422 -0.7838
 1566Sol     MW 9216   2.186   2.504   4.660  0.0492 -0.4685 -0.0308
 1567Sol     OW 9217   0.575   0.183   7.981 -0.4415 -0.4945 -0.0309
 1567Sol     HW 9218   0.483   0.198   7.956 -1.0028 -0.9994  1.6357
 1567Sol     HW 9219   0.591   0.091   7.960 -0.7541 -0.7780  0.9288
 1567Sol     MW 9220   0.568   0.176   7.977 -0.2168  0.6097 -0.6145
 1568Sol     OW 9221   1.735   2.306   7.226  0.0314  0.6170 -0.2641
 1568Sol     HW 9222   1.704   2.228   7.180  0.5128 -0.0789  0.5603
 1568Sol     HW 9223   1.656   2.342   7.268 -0.0653  0.1307 -0.0198
 1568Sol     MW 9224   1.725   2.302   7.226 -0.0013 -0.1922 -0.4257
 1569Sol     OW 9225   0.601   2.659   7.070 -0.2761 -0.7092  0.2526
 1569Sol     HW 9226   0.545   2.671   6.994  0.7404  2.9437 -0.0004
 1569Sol     HW 9227   0.543   2.671   7.145 -0.7055 -1.5573  0.0699
 1569Sol     MW 9228   0.591   2.661   7.070  0.3956  0.0380 -1.0591
 1570Sol     OW 9229   2.028   2.979   8.455  0.0451  0.1940  0.2391
 1570Sol     HW 9230   1.996   2.892   8.478 -1.7460  0.1875 -2.1550
 1570Sol     HW 9231   1.967   3.040   8.498  0.3091  0.2663  0.5185
 1570Sol     MW 9232   2.020   2.977   8.461  0.1575 -0.2626 -0.5031
 1571Sol     OW 9233   1.430   0.055   2.173  0.0744 -0.2075  0.5820
 1571Sol     HW 9234   1.388   0.007   2.244 -0.7610 -0.9706 -0.4049
 1571Sol     HW 9235   1.460   0.137   2.213  0.5959 -1.1018  2.0524
 1571Sol     MW 9236   1.429   0.058   2.182  0.1288  0.4039 -0.0472
 1572Sol     OW 9237   0.869   0.879   8.443 -0.2524 -0.1011  0.1693
 1572Sol     HW 9238   0.811   0.848   8.512 -0.2157 -0.4801  0.0307
 1572Sol     HW 9239   0.956   0.875   8.481 -0.0654 -1.7280 -0.3886
 1572Sol     MW 9240   0.872   0.876   8.453 -0.0726 -0.4617  0.3096
 1573Sol     OW 9241   1.739   2.426   1.491 -0.4999  0.0408  0.3776
 1573Sol     HW 9242   1.658   2.477   1.500  0.0927  1.1340 -0.3777
 1573Sol     HW 9243   1.710   2.335   1.495 -1.7171  0.4239  0.6007
 1573Sol     MW 9244   1.729   2.423   1.492  0.2886 -0.6433 -0.4284
 1574Sol     OW 9245   2.350   2.861   8.858 -0.3899  0.2293 -0.1239
 1574Sol     HW 9246   2.378   2.898   8.942  2.3960 -0.8454 -0.5095
 1574Sol     HW 9247   2.402   2.909   8.793 -1.1023 -0.2922 -1.0814
 1574Sol     MW 9248   2.357   2.869   8.860 -0.3023  0.3174 -0.1443
 1575Sol     OW 9249   1.973   2.927   3.543 -0.4256 -0.0790 -0.5068
 1575Sol     HW 9250   1.883   2.935   3.510 -0.9192 -0.5691  0.6642
 1575Sol     HW 9251   2.021   2.882   3.474 -1.1487 -0.0833 -1.0129
 1575Sol     MW 9252   1.969   2.924   3.534 -0.6251  0.5239 -0.2660
 1576Sol     OW 9253   3.034   2.583   6.928 -0.4134  0.4257 -0.2381
 1576Sol     HW 9254   3.001   2.562   7.015 -0.1483  0.5097 -0.1141
 1576Sol     HW 9255   3.129   2.591   6.940 -0.4933  1.5871 -0.3012
 1576Sol     MW 9256   3.040   2.582   6.937 -0.5305 -0.3224 -0.4715
 1577Sol     OW 9257   1.063   2.451   6.947 -0.3918 -0.0033 -0.4660
 1577Sol     HW 9258   1.004   2.439   7.021  1.6415 -1.0007  1.0449
 1577Sol     HW 9259   1.147   2.415   6.977  0.5792 -0.0457 -3.1018
 1577Sol     MW 9260   1.066   2.447   6.956  0.4057 -0.1339 -0.6178
 1578Sol     OW 9261   1.913   2.138   1.947  0.0352  0.2438  0.0790
 1578Sol     HW 9262   1.871   2.205   2.000 -0.3397 -0.9782  1.3507
 1578Sol     HW 9263   1.921   2.063   2.005  1.2991 -0.5116 -1.0437
 1578Sol     MW 9264   1.910   2.137   1.957 -0.3272 -0.1186  0.2537
 1579Sol     OW 9265   3.204   0.160   5.207  0.0593 -0.3836 -0.3992
 1579Sol     HW 9266   3.121   0.116   5.223  1.1385 -2.5506 -0.4626
 1579Sol     HW 9267   3.242   0.174   5.294  0.7626 -1.7374 -0.4725
 1579Sol     MW 9268   3.200   0.157   5.216 -0.0703  0.1410  0.3566
 1580Sol     OW 9269   1.677   1.982   3.432 -0.2404  0.1487  0.0441
 1580Sol     HW 9270   1.626   1.918   3.482  0.6097 -0.2952  0.3517
 1580Sol     HW 9271   1.633   2.065   3.448 -0.2864 -0.0777  1.0990
 1580Sol     MW 9272   1.668   1.984   3.438 -0.3735 -0.3585  0.0266
 1581Sol     OW 9273   0.747   1.223   9.578  0.1556  0.2379 -0.1614
 1581Sol     HW 9274   0.775   1.251   9.665  0.8622 -1.5598  0.2242
 1581Sol     HW 9275   0.696   1.296   9.544  2.3365  2.1617  0.5899
 1581Sol     MW 9276   0.745   1.232   9.583  0.4201 -0.7814  0.3527
 1582Sol     OW 9277   0.586   1.437   1.410 -0.3409  0.0542 -0.1598
 1582Sol     HW 9278   0.575   1.467   1.501 -0.6429  0.2278 -0.2524
 1582Sol     HW 9279   0.578   1.516   1.357 -0.4331 -0.0858 -0.3559
 1582Sol     MW 9280   0.584   1.446   1.414  0.0800 -0.4441  0.8200
 1583Sol     OW 9281   1.356   0.288   3.471 -0.1095  0.2135 -0.7562
 1583Sol     HW 9282   1.308   0.226   3.526 -0.0494  2.5269  2.0326
 1583Sol     HW 9283   1.291   0.356   3.450  0.3427  0.2363 -2.1140
 1583Sol     MW 9284   1.346   0.289   3.474 -0.2515  0.4661  1.0662
 1584Sol     OW 9285   2.552   1.416   4.374 -0.1314  0.1322 -0.2676
 1584Sol     HW 9286   2.580   1.346   4.433 -1.0075 -0.7194 -0.8503
 1584Sol     HW 9287   2.570   1.496   4.423  0.8797 -0.4870  0.4077
 1584Sol     MW 9288   2.556   1.417   4.384 -0.4122  0.3895 -0.2914
 1585Sol     OW 9289   2.758   2.567   4.122  0.8530 -0.3753  0.5478
 1585Sol     HW 9290   2.821   2.550   4.193 -0.2669 -1.4050  1.3180
 1585Sol     HW 9291   2.672   2.553   4.162  0.1674 -0.0908 -0.7880
 1585Sol     MW 9292   2.756   2.564   4.132  0.5788  0.2477  0.6714
 1586Sol     OW 9293   2.169   2.414   1.515 -0.0932  0.0129  0.1963
 1586Sol     HW 9294   2.155   2.490   1.458  0.8523  0.6138  0.7441
 1586Sol     HW 9295   2.187   2.453   1.601 -0.0273 -0.8475  0.5697
 1586Sol     MW 9296   2.170   2.425   1.518 -0.0760  0.0873  0.0394
 1587Sol     OW 9297   3.276   1.346   9.155 -0.5271 -0.0684  0.1265
 1587Sol     HW 9298   3.336   1.364   9.227 -1.3460  0.0824  0.7738
 1587Sol     HW 9299   3.241   1.259   9.174  0.2946 -0.6109 -0.8155
 1587Sol     MW 9300   3.278   1.340   9.163 -0.6614  0.9997 -0.4193
 1588Sol     OW 9301   0.818   1.508   1.832 -0.5188 -0.1237  0.5936
 1588Sol     HW 9302   0.897   1.482   1.783 -1.7241 -1.7334 -0.5367
 1588Sol     HW 9303   0.760   1.544   1.766 -1.3254 -0.3258  1.1885
 1588Sol     MW 9304   0.820   1.508   1.822  0.1610  0.0124 -0.3598
 1589Sol     OW 9305   1.156   2.034   5.442 -0.3590  0.3119  0.4032
 1589Sol     HW 9306   1.069   2.055   5.476 -0.9528  0.7391 -1.3646
 1589Sol     HW 9307   1.206   2.115   5.454 -0.3057  0.1914  1.0383
 1589Sol     MW 9308   1.153   2.043   5.446 -0.3000  0.3844  0.3769
 1590Sol     OW 9309   1.986   2.449   3.618 -0.0360 -0.9435 -0.2939
 1590Sol     HW 9310   1.908   2.395   3.607 -0.8400  0.5172 -2.1564
 1590Sol     HW 9311   1.966   2.530   3.571  2.2177 -0.1272  0.0612
 1590Sol     MW 9312   1.977   2.452   3.613  0.2286 -0.4562 -0.1181
 1591Sol     OW 9313   0.161   2.949   3.339  0.1758 -0.0193 -0.7080
 1591Sol     HW 9314   0.200   2.967   3.425 -1.7093 -1.3533  0.4731
 1591Sol     HW 9315   0.222   2.888   3.298 -0.3441 -1.7022  0.9197
 1591Sol     MW 9316   0.170   2.945   3.343 -0.0381 -0.7616  0.9054
 1592Sol     OW 9317   0.528   0.968   4.521 -0.1497  0.2639  0.0682
 1592Sol     HW 9318   0.544   0.896   4.582  0.9710 -0.1562 -0.6981
 1592Sol     HW 9319   0.597   1.032   4.540  0.4327 -0.0283 -0.9614
 1592Sol     MW 9320   0.536   0.967   4.528  0.7733  0.2842  1.1036
 1593Sol     OW 9321   0.950   1.060   7.590  0.3023  0.7024 -0.3811
 1593Sol     HW 9322   0.955   0.974   7.547 -2.1879  0.8236 -0.9879
 1593Sol     HW 9323   0.988   1.045   7.677  0.4989 -0.8561 -0.7105
 1593Sol     MW 9324   0.954   1.051   7.594  0.7132 -0.5697  0.1465
 1594Sol     OW 9325   2.593   1.292   3.222 -0.1337  0.0736  0.1109
 1594Sol     HW 9326   2.629   1.233   3.155 -0.7971  0.3064 -0.4557
 1594Sol     HW 9327   2.524   1.241   3.264  0.0790  0.0340  0.4071
 1594Sol     MW 9328   2.590   1.283   3.219 -0.0483 -0.0229 -0.3685
 1595Sol     OW 9329   3.257   0.288   3.477 -0.0243  0.0851 -0.2066
 1595Sol     HW 9330   3.260   0.346   3.553 -3.7210 -0.6915  0.6302
 1595Sol     HW 9331   3.283   0.344   3.404  1.2918  1.4677  1.2547
 1595Sol     MW 9332   3.260   0.299   3.477 -0.0988  0.5718  0.1672
 1596Sol     OW 9333   2.595   0.487   2.683  0.0364  0.8506 -0.0648
 1596Sol     HW 9334   2.504   0.465   2.703  0.3293  1.6114  2.3529
 1596Sol     HW 9335   2.644   0.409   2.709  0.1083  0.5902 -0.9880
 1596Sol     MW 9336   2.591   0.478   2.687  0.4725  0.4318  0.7481
 1597Sol     OW 9337   1.789   0.777   8.945  0.0726  0.4531  0.4703
 1597Sol     HW 9338   1.716   0.728   8.907 -0.3611  0.5987  1.1111
 1597Sol     HW 9339   1.770   0.780   9.039  2.6730 -2.5611  1.1872
 1597Sol     MW 9340   1.781   0.773   8.950 -0.0673 -0.2382 -0.1924
 1598Sol     OW 9341   2.544   0.396   8.225  0.2693 -0.2548 -0.5541
 1598Sol     HW 9342   2.467   0.441   8.259  1.0744 -0.1831  1.2496
 1598Sol     HW 9343   2.521   0.304   8.228 -1.5287 -0.0629 -4.6148
 1598Sol     MW 9344   2.535   0.392   8.228 -0.1889  0.1222  0.7890
 1599Sol     OW 9345   2.597   0.354   7.237  0.3279 -0.6366  0.0400
 1599Sol     HW 9346   2.623   0.324   7.325  1.2136  0.2128  0.0785
 1599Sol     HW 9347   2.664   0.317   7.179  1.7159  1.5963  0.1391
 1599Sol     MW 9348   2.606   0.348   7.240 -0.7753 -0.4916  0.0150
 1600Sol     OW 9349   1.539   0.940   6.239 -0.3219  0.2727 -0.3778
 1600Sol     HW 9350   1.469   0.953   6.304  0.7563  0.9747  0.6489
 1600Sol     HW 9351   1.555   1.027   6.204  1.3330  0.4440  0.7430
 1600Sol     MW 9352   1.534   0.949   6.242  0.6613  0.6985  1.0957
 1601Sol     OW 9353   1.070   2.694   7.146 -0.2125  0.2722 -0.2577
 1601Sol     HW 9354   1.026   2.736   7.072 -0.6321 -0.4447 -0.4204
 1601Sol     HW 9355   1.089   2.606   7.115  0.2169  0.1842  0.2576
 1601Sol     MW 9356   1.067   2.690   7.136 -0.0832 -0.2310  0.2497
 1602Sol     OW 9357   1.299   2.963   4.538  0.2337  0.3896 -0.2080
 1602Sol     HW 9358   1.248   2.995   4.463 -0.0745 -2.8056 -1.4131
 1602Sol     HW 9359   1.390   2.974   4.511  0.1793  2.3982  0.3493
 1602Sol     MW 9360   1.302   2.967   4.529  0.1992 -0.5848 -0.0217
 1603Sol     OW 9361   2.793   3.293   8.754 -0.6413  0.0016 -0.5042
 1603Sol     HW 9362   2.769   3.324   8.667  0.0859  0.3928 -0.5713
 1603Sol     HW 9363   2.882   3.260   8.744 -0.5527  0.0481  0.0942
 1603Sol     MW 9364   2.799   3.293   8.746 -0.3412  0.2437  0.0707
 1604Sol     OW 9365   0.408   2.876   6.109  0.4038 -0.3402  0.4282
 1604Sol     HW 9366   0.385   2.956   6.062  1.4819 -1.1873 -1.6249
 1604Sol     HW 9367   0.434   2.815   6.040  0.3497 -2.2054  2.0178
 1604Sol     MW 9368   0.408   2.878   6.098  0.0531  0.2896  0.0749
 1605Sol     OW 9369   0.796   0.352   2.132 -0.2546 -0.0471  0.0208
 1605Sol     HW 9370   0.820   0.441   2.106 -2.3037  0.8697  1.1366
 1605Sol     HW 9371   0.876   0.300   2.118 -0.0890  1.1856 -4.0899
 1605Sol     MW 9372   0.806   0.355   2.129  0.4589  0.0581 -0.1149
 1606Sol     OW 9373   2.325   0.443   9.145  0.0765 -0.4098  0.0165
 1606Sol     HW 9374   2.359   0.444   9.234 -0.7844 -1.8717  0.3816
 1606Sol     HW 9375   2.400   0.467   9.090  0.4924  0.9413  1.1566
 1606Sol     MW 9376   2.335   0.445   9.148 -0.7013 -0.1735  0.1807
 1607Sol     OW 9377   3.244   1.957   8.027  0.1112 -0.9260  0.3431
 1607Sol     HW 9378   3.207   2.009   7.956  1.5173  0.0442  0.3075
 1607Sol     HW 9379   3.258   1.871   7.988  0.0501 -0.6486 -0.3106
 1607Sol     MW 9380   3.242   1.954   8.017  0.2620 -0.4068  0.0281
 1608Sol     OW 9381   2.902   2.134   2.817 -0.1898 -0.0960  0.6432
 1608Sol     HW 9382   2.889   2.112   2.725  0.3798  1.1065  0.2558
 1608Sol     HW 9383   2.969   2.204   2.816  3.5596 -3.4452  2.2529
 1608Sol     MW 9384   2.907   2.139   2.809 -0.5876 -0.8198  0.5350
 1609Sol     OW 9385   3.126   1.769   8.957  0.2350  0.3323  0.2084
 1609Sol     HW 9386   3.049   1.810   8.997  1.5945  1.0913  2.1248
 1609Sol     HW 9387   3.147   1.697   9.017  1.2995  0.4070 -0.0819
 1609Sol     MW 9388   3.121   1.766   8.966 -0.4252  0.5039 -0.0793
 1610Sol     OW 9389   2.611   0.366   9.548  0.0219 -0.0650  1.0490
 1610Sol     HW 9390   2.586   0.436   9.488 -2.9889 -1.5655  0.4786
 1610Sol     HW 9391   2.688   0.325   9.507 -0.4844  0.5189 -0.4979
 1610Sol     MW 9392   2.616   0.368   9.539 -0.4164  0.0919  0.2007
 1611Sol     OW 9393   0.888   0.547   4.006  0.2218 -0.1892 -0.0663
 1611Sol     HW 9394   0.909   0.576   3.917  0.3468  0.2470  0.1032
 1611Sol     HW 9395   0.881   0.628   4.056 -1.7261 -0.3207 -0.0774
 1611Sol     MW 9396   0.889   0.557   4.002  0.5181  0.2042  0.1529
 1612Sol     OW 9397   0.334   0.833   2.911 -0.6602 -0.0054 -0.0226
 1612Sol     HW 9398   0.281   0.911   2.928 -0.5579 -0.2302  1.4000
 1612Sol     HW 9399   0.342   0.830   2.816  0.6689  2.6358 -0.0543
 1612Sol     MW 9400   0.330   0.840   2.904 -0.1021 -0.2167  0.5980
 1613Sol     OW 9401   1.638   1.731   8.784  0.2141 -0.0242 -0.3041
 1613Sol     HW 9402   1.608   1.674   8.713 -0.1227 -0.8413  0.4910
 1613Sol     HW 9403   1.560   1.778   8.812  0.5396  1.0271 -1.1267
 1613Sol     MW 9404   1.628   1.730   8.780 -0.2062 -0.5599 -0.5720
 1614Sol     OW 9405   1.943   3.368   6.592 -0.4039 -0.4712 -0.6119
 1614Sol     HW 9406   1.892   3.413   6.659  1.4784  0.2080  0.4329
 1614Sol     HW 9407   1.900   3.388   6.510 -0.4779  2.0185 -0.0077
 1614Sol     MW 9408   1.935   3.374   6.591 -0.5743 -0.3811 -0.5997
 1615Sol     OW 9409   0.025   0.434   3.714 -0.2122 -0.9463  0.0937
 1615Sol     HW 9410   0.033   0.386   3.796  2.7889 -3.0461 -1.3537
 1615Sol     HW 9411   0.114   0.435   3.678 -1.5180 -0.2550 -3.2515
 1615Sol     MW 9412   0.034   0.430   3.718  0.0087 -0.3943  0.3816
 1616Sol     OW 9413   2.048   3.031   7.854 -0.0303  0.5059 -0.4121
 1616Sol     HW 9414   1.961   3.032   7.814 -0.0570 -0.4486 -0.3693
 1616Sol     HW 9415   2.032   3.016   7.947  0.0665  2.2039 -0.1028
 1616Sol     MW 9416   2.039   3.030   7.859 -1.0772  0.8158 -0.6856
 1617Sol     OW 9417   1.808   1.923   8.679  0.4795 -0.3484  0.1246
 1617Sol     HW 9418   1.746   1.854   8.701  0.9376 -0.7565  0.1512
 1617Sol     HW 9419   1.861   1.933   8.758  1.2893 -0.9127 -0.3382
 1617Sol     MW 9420   1.807   1.917   8.688  0.2080  0.3952  0.8166
 1618Sol     OW 9421   1.336   2.675   5.537 -0.3080 -0.5592  0.4807
 1618Sol     HW 9422   1.427   2.648   5.529  0.3598  1.6059  0.4159
 1618Sol     HW 9423   1.294   2.605   5.587  1.0923 -2.1858 -0.5682
 1618Sol     MW 9424   1.340   2.666   5.540  0.4411 -0.5433 -0.1057
 1619Sol     OW 9425   0.522   0.621   9.239  0.0586  0.2669 -0.3938
 1619Sol     HW 9426   0.551   0.642   9.327  0.9524 -0.7683 -0.4275
 1619Sol     HW 9427   0.600   0.631   9.185 -0.1707 -0.3535 -0.8525
 1619Sol     MW 9428   0.531   0.623   9.242  0.0857  0.4777  0.7871
 1620Sol     OW 9429   2.362   2.232   2.787  0.4358 -0.8347  0.0404
 1620Sol     HW 9430   2.365   2.327   2.782  1.7829 -0.8474  0.2073
 1620Sol     HW 9431   2.436   2.209   2.844 -0.9393 -1.8804  1.4573
 1620Sol     MW 9432   2.369   2.238   2.792 -0.4751  0.0508 -0.7307
 1621Sol     OW 9433   2.565   0.961   1.739  0.7984  0.0634  0.6755
 1621Sol     HW 9434   2.520   0.971   1.823  0.5283  0.7276  0.4502
 1621Sol     HW 9435   2.637   1.023   1.742 -0.1408  1.2219 -0.2078
 1621Sol     MW 9436   2.567   0.967   1.747  0.4793  0.0976  0.0913
 1622Sol     OW 9437   1.252   0.193   7.560 -0.6818 -0.0650 -0.7607
 1622Sol     HW 9438   1.341   0.189   7.596 -0.4182 -1.2475 -1.5243
 1622Sol     HW 9439   1.215   0.273   7.597  0.7823  0.5635 -0.6234
 1622Sol     MW 9440   1.257   0.200   7.567 -0.3172 -0.4665  0.0194
 1623Sol     OW 9441   1.137   2.081   3.804  0.3328 -0.0067 -0.6740
 1623Sol     HW 9442   1.150   2.090   3.899 -0.8260 -1.6853 -0.3344
 1623Sol     HW 9443   1.208   2.025   3.775  0.1645 -0.2334 -0.6475
 1623Sol     MW 9444   1.144   2.077   3.810 -0.2080  0.2174 -0.2556
 1624Sol     OW 9445   2.492   0.954   9.569  0.3389 -0.8554 -0.1090
 1624Sol     HW 9446   2.467   1.025   9.510  0.9749 -0.4425  0.1073
 1624Sol     HW 9447   2.473   0.874   9.521 -1.9620 -0.5697  0.2808
 1624Sol     MW 9448   2.488   0.953   9.560  0.3100  0.2802  0.4966
 1625Sol     OW 9449   1.107   0.618   1.613 -0.1518  0.4299 -0.0950
 1625Sol     HW 9450   1.060   0.645   1.534  0.1374  0.5273 -0.2321
 1625Sol     HW 9451   1.166   0.549   1.584 -1.1000 -0.5808  0.3071
 1625Sol     MW 9452   1.108   0.614   1.604  0.3465  0.6544  0.5227
 1626Sol     OW 9453   2.213   3.155   2.406 -0.2461 -0.2260  0.2359
 1626Sol     HW 9454   2.157   3.091   2.362  1.3784 -1.1683 -0.5095
 1626Sol     HW 9455   2.167   3.176   2.487 -2.9301  0.9615 -1.5254
 1626Sol     MW 9456   2.204   3.152   2.409 -0.4106  0.1129  0.2045
 1627Sol     OW 9457   2.247   3.250   8.387 -0.1861  0.5123 -0.1086
 1627Sol     HW 9458   2.242   3.197   8.467 -2.4894 -0.9101 -1.1262
 1627Sol     HW 9459   2.247   3.340   8.418 -2.3385  0.0183  1.5132
 1627Sol     MW 9460   2.246   3.253   8.397 -0.1726  0.2032 -0.5318
 1628Sol     OW 9461   0.756   1.178   6.075 -0.8347  0.2821 -0.6636
 1628Sol     HW 9462   0.796   1.157   5.991 -0.1860  0.5991 -0.4332
 1628Sol     HW 9463   0.822   1.153   6.140 -1.3034  0.1095 -0.2525
 1628Sol     MW 9464   0.765   1.174   6.073  0.2161  0.3657 -0.5129
 1629Sol     OW 9465   0.379   1.933   4.516  0.3058  0.4115  0.4134
 1629Sol     HW 9466   0.319   1.858   4.521  1.5684 -0.6794 -0.4411
 1629Sol     HW 9467   0.361   1.973   4.431  1.0945 -0.1870 -0.0387
 1629Sol     MW 9468   0.372   1.930   4.509  0.3150  0.5220 -0.1410
 1630Sol     OW 9469   2.143   2.013   5.464  0.1934  0.2893  0.1131
 1630Sol     HW 9470   2.090   2.029   5.386 -1.2656  1.6403  1.3499
 1630Sol     HW 9471   2.100   1.940   5.508  1.9022 -1.5098 -1.0862
 1630Sol     MW 9472   2.135   2.008   5.461  0.2562  0.5981  0.0536
 1631Sol     OW 9473   0.135   2.965   9.672 -0.4575  0.0039  0.0581
 1631Sol     HW 9474   0.129   2.992   9.581 -0.9603 -0.3100 -0.0021
 1631Sol     HW 9475   0.142   3.048   9.721  0.5056  0.1442 -0.3091
 1631Sol     MW 9476   0.135   2.975   9.668  0.2472 -0.6649 -0.2462
 1632Sol     OW 9477   0.628   0.237   4.594  0.2827  0.1495 -0.0730
 1632Sol     HW 9478   0.553   0.199   4.549  0.8795 -1.4532  0.2413
 1632Sol     HW 9479   0.700   0.228   4.532  0.5862  0.1110  0.2840
 1632Sol     MW 9480   0.628   0.233   4.585 -0.0920  0.2195 -0.1719
 1633Sol     OW 9481   0.559   0.219   7.559 -0.3538  0.1136  0.1486
 1633Sol     HW 9482   0.485   0.190   7.505 -0.7964  3.3095 -1.0401
 1633Sol     HW 9483   0.636   0.209   7.502 -0.1053 -1.3596  0.7201
 1633Sol     MW 9484   0.559   0.215   7.549  0.1025  0.1281  0.9139
 1634Sol     OW 9485   0.328   0.683   6.049  0.0307  0.1684  0.0421
 1634Sol     HW 9486   0.395   0.625   6.086  1.5973  1.1527 -1.1916
 1634Sol     HW 9487   0.286   0.722   6.126  0.6814 -0.6729  0.8435
 1634Sol     MW 9488   0.330   0.681   6.059 -0.1195  0.0907  0.2064
 1635Sol     OW 9489   3.174   2.475   2.477 -0.2687 -0.2511 -0.6621
 1635Sol     HW 9490   3.151   2.565   2.455  0.2681 -0.0201 -0.2821
 1635Sol     HW 9491   3.242   2.483   2.543 -1.9298 -0.9364  1.1650
 1635Sol     MW 9492   3.178   2.484   2.481 -0.5798 -0.3335 -0.1317
 1636Sol     OW 9493   1.414   1.167   8.377  0.2766  0.8857 -0.8770
 1636Sol     HW 9494   1.342   1.175   8.315 -0.7481  0.2134  0.1957
 1636Sol     HW 9495   1.492   1.162   8.323 -0.4507  1.9329 -2.0508
 1636Sol     MW 9496   1.414   1.168   8.367 -0.2088  0.1684  0.2413
 1637Sol     OW 9497   2.123   2.574   7.815  0.0859 -0.3716  0.4654
 1637Sol     HW 9498   2.027   2.577   7.815  0.0121 -1.9517 -0.0785
 1637Sol     HW 9499   2.146   2.543   7.902  0.1127  0.3743  0.7199
 1637Sol     MW 9500   2.117   2.571   7.822 -0.0476  0.4400  0.5691
 1638Sol     OW 9501   1.256   3.312   3.750 -0.0529 -0.7203  0.2273
 1638Sol     HW 9502   1.306   3.273   3.678  1.9944  0.9410  0.6766
 1638Sol     HW 9503   1.253   3.405   3.729  2.0695  0.0572  3.1031
 1638Sol     MW 9504   1.260   3.317   3.742  0.2829 -0.4614  0.0537
 1639Sol     OW 9505   2.822   0.592   6.236  0.2980  0.0059 -0.1426
 1639Sol     HW 9506   2.790   0.502   6.229 -1.3070  0.5006  0.5814
 1639Sol     HW 9507   2.873   0.593   6.317 -1.2124  0.1615  0.8431
 1639Sol     MW 9508   2.823   0.584   6.243  0.0264  0.3869  0.3260
 1640Sol     OW 9509   2.731   2.246   4.161 -0.0224  0.2390 -0.5810
 1640Sol     HW 9510   2.723   2.251   4.256 -1.2272 -1.4544 -0.5714
 1640Sol     HW 9511   2.699   2.330   4.130 -0.8800  0.3038  0.4503
 1640Sol     MW 9512   2.728   2.254   4.167  0.0568  0.3197 -0.2002
 1641Sol     OW 9513   2.029   1.475   6.125 -0.0805 -0.0036 -0.6994
 1641Sol     HW 9514   2.043   1.403   6.063  0.9345 -0.1207 -0.3325
 1641Sol     HW 9515   2.092   1.459   6.196 -1.7046 -0.2886  0.7316
 1641Sol     MW 9516   2.036   1.467   6.126  0.3180 -0.6447  0.2368
 1642Sol     OW 9517   0.958   0.652   3.770  0.6528  0.7934 -0.4003
 1642Sol     HW 9518   0.865   0.671   3.754 -0.5850 -1.8225  3.0525
 1642Sol     HW 9519   0.972   0.567   3.728  0.2451 -0.8834  2.6968
 1642Sol     MW 9520   0.951   0.646   3.765  0.1742 -0.2540  0.5510
 1643Sol     OW 9521   0.472   0.598   7.488  0.2464  0.2498 -0.0515
 1643Sol     HW 9522   0.475   0.550   7.570  0.0757  0.4495  0.0715
 1643Sol     HW 9523   0.452   0.688   7.513 -0.6577  0.1513 -0.3736
 1643Sol     MW 9524   0.470   0.602   7.497  0.2861  0.0499 -0.3321
 1644Sol     OW 9525   0.793   0.629   5.062 -0.4486 -0.0132 -0.6346
 1644Sol     HW 9526   0.851   0.704   5.057 -0.6362  0.2386  0.7413
 1644Sol     HW 9527   0.842   0.563   5.111 -0.7345 -0.3587 -0.8017
 1644Sol     MW 9528   0.802   0.630   5.066  0.2498 -0.0296  0.1859
 1645Sol     OW 9529   3.097   1.059   8.817  0.2206  0.1868  0.2176
 1645Sol     HW 9530   3.030   1.005   8.776 -0.1763 -0.1133  1.2430
 1645Sol     HW 9531   3.154   0.996   8.862  1.0807  0.4484 -0.4942
 1645Sol     MW 9532   3.096   1.048   8.818 -0.4569  0.3284  0.0145
 1646Sol     OW 9533   2.471   0.946   7.109 -0.1419  0.0140  0.3185
 1646Sol     HW 9534   2.478   0.861   7.065  0.6975 -0.6173  1.6500
 1646Sol     HW 9535   2.443   0.925   7.198 -2.6676  1.3415 -0.0961
 1646Sol     MW 9536   2.469   0.937   7.113  0.1644  0.1972 -0.2111
 1647Sol     OW 9537   2.677   2.100   9.052  0.2119 -0.1444 -0.3219
 1647Sol     HW 9538   2.756   2.105   8.997 -0.2132  1.1888 -0.8199
 1647Sol     HW 9539   2.613   2.054   8.997  0.1667  0.1113 -0.4837
 1647Sol     MW 9540   2.679   2.096   9.042 -0.3367  0.2493 -0.6815
 1648Sol     OW 9541   0.362   2.970   7.331 -0.1089  0.2343  0.1641
 1648Sol     HW 9542   0.324   3.041   7.280  0.4097  0.5720  0.2499
 1648Sol     HW 9543   0.316   2.973   7.415 -0.2836  0.2928  0.0653
 1648Sol     MW 9544   0.355   2.976   7.334  0.1197  0.5956 -0.0734
 1649Sol     OW 9545   1.158   3.016   4.279  0.2928  0.2046  0.0978
 1649Sol     HW 9546   1.228   3.005   4.214  0.7493 -2.1698  0.9306
 1649Sol     HW 9547   1.079   2.987   4.233  0.2418  0.6338 -0.0898
 1649Sol     MW 9548   1.158   3.012   4.269  0.1495  0.2424  0.1262
 1650Sol     OW 9549   2.587   2.018   9.936  0.1732  0.0681  0.4437
 1650Sol     HW 9550   2.493   2.020   9.916  0.3244 -0.0423 -0.2871
 1650Sol     HW 9551   2.607   2.108   9.962 -0.1215  0.1100  0.5321
 1650Sol     MW 9552   2.580   2.026   9.936 -0.3822  0.2907  0.1181
 1651Sol     OW 9553   1.760   0.437   7.877  0.2452 -0.0361  0.2916
 1651Sol     HW 9554   1.749   0.356   7.927 -0.2402 -0.3454 -0.3078
 1651Sol     HW 9555   1.672   0.474   7.873  0.4099  0.3511  0.2744
 1651Sol     MW 9556   1.751   0.433   7.881 -0.0009 -0.3712 -0.2353
 1652Sol     OW 9557   0.772   1.893   6.880 -0.2506 -0.4918 -0.0523
 1652Sol     HW 9558   0.828   1.960   6.840 -0.1609 -0.0821  0.7577
 1652Sol     HW 9559   0.683   1.926   6.868 -0.2075 -0.2320  0.3303
 1652Sol     MW 9560   0.769   1.902   6.875  0.4370 -0.9655 -0.1271
 1653Sol     OW 9561   2.237   2.812   4.295  0.0350 -0.3908  0.3371
 1653Sol     HW 9562   2.285   2.895   4.294 -1.3037  0.3984  0.0401
 1653Sol     HW 9563   2.159   2.830   4.347 -0.6792 -1.2233 -0.4372
 1653Sol     MW 9564   2.235   2.821   4.299  0.8191 -0.1631 -0.1484
 1654Sol     OW 9565   2.896   1.884   2.917 -0.1220  0.1912 -0.2382
 1654Sol     HW 9566   2.884   1.976   2.893 -0.2771  0.1376 -0.3692
 1654Sol     HW 9567   2.984   1.862   2.886  0.6011  0.7866  1.3591
 1654Sol     MW 9568   2.903   1.890   2.912  1.0653  0.9962 -0.4284
 1655Sol     OW 9569   2.682   2.061   3.493 -0.3540 -0.1660 -0.0792
 1655Sol     HW 9570   2.599   2.050   3.447  0.1510  0.9602 -1.2792
 1655Sol     HW 9571   2.702   2.154   3.486  0.5464 -0.2531  1.0357
 1655Sol     MW 9572   2.676   2.068   3.489  0.1116 -0.3111 -0.4185
 1656Sol     OW 9573   0.969   3.101   1.738 -0.2440 -0.1280 -0.3813
 1656Sol     HW 9574   0.885   3.068   1.707  0.2238  0.6393 -2.5396
 1656Sol     HW 9575   1.029   3.027   1.728 -0.0512  0.1757 -1.5343
 1656Sol     MW 9576   0.967   3.092   1.735 -0.1743 -0.2432 -0.5614
 1657Sol     OW 9577   0.956   1.030   4.052  0.2987 -0.1277  0.1811
 1657Sol     HW 9578   0.914   1.082   3.983  2.0163  2.0267  0.7040
 1657Sol     HW 9579   0.952   1.086   4.129  1.6879 -0.9914  0.8963
 1657Sol     MW 9580   0.952   1.040   4.052  0.6814  0.3400 -0.0321
 1658Sol     OW 9581   0.141   3.382   2.232 -0.0035 -0.3861  0.2771
 1658Sol     HW 9582   0.224   3.364   2.277 -0.9845 -2.9824  1.1281
 1658Sol     HW 9583   0.157   3.356   2.141  0.3859 -0.0628  0.2515
 1658Sol     MW 9584   0.150   3.378   2.228 -0.1724  0.7466 -0.6251
 1659Sol     OW 9585   0.501   2.475   1.437  0.7245 -0.2222 -0.2551
 1659Sol     HW 9586   0.561   2.549   1.431  1.2412 -0.7071 -1.1551
 1659Sol     HW 9587   0.428   2.498   1.379 -0.1841  0.5563  1.1619
 1659Sol     MW 9588   0.500   2.484   1.431  0.7048  0.7647 -0.0359
 1660Sol     OW 9589   1.392   3.259   4.467 -0.0058 -0.2908  0.4005
 1660Sol     HW 9590   1.362   3.306   4.389  0.7392  0.6289  0.6583
 1660Sol     HW 9591   1.463   3.204   4.436  0.0737 -0.1694  0.3645
 1660Sol     MW 9592   1.395   3.259   4.457 -0.3212  0.4046  0.5644
 1661Sol     OW 9593   2.560   0.001   5.535 -0.2956 -0.0453 -0.4040
 1661Sol     HW 9594   2.523   0.013   5.448  1.4706  0.3111 -1.1083
 1661Sol     HW 9595   2.651  -0.024   5.520 -0.0437 -0.2311  1.3314
 1661Sol     MW 9596   2.565  -0.000   5.526 -0.4923 -0.3953 -0.3272
 1662Sol     OW 9597   2.294   0.297   3.415 -0.2866 -0.1610 -0.3740
 1662Sol     HW 9598   2.216   0.298   3.471 -0.4665 -0.0911 -0.6255
 1662Sol     HW 9599   2.351   0.231   3.454 -1.0952 -1.2708 -1.0302
 1662Sol     MW 9600   2.292   0.291   3.423 -0.2963 -0.1658  0.0948
 1663Sol     OW 9601   3.286   1.005   4.714  0.2730  0.2296  0.2071
 1663Sol     HW 9602   3.265   0.916   4.742  1.1487 -0.0140  0.1059
 1663Sol     HW 9603   3.232   1.061   4.769  1.4942 -0.2709  1.9391
 1663Sol     MW 9604   3.280   1.002   4.721  0.1288 -0.5731 -0.2778
 1664Sol     OW 9605   0.905   1.356   4.961 -0.5203  0.4730 -0.1158
 1664Sol     HW 9606   0.983   1.394   4.922 -0.7007  1.0879  0.1183
 1664Sol     HW 9607   0.898   1.398   5.047 -0.1504 -0.8417  0.5610
 1664Sol     MW 9608   0.911   1.363   4.965 -0.3961 -0.2890 -0.3556
 1665Sol     OW 9609   2.682   1.748   9.216  0.3730  0.4469 -0.3337
 1665Sol     HW 9610   2.600   1.797   9.228  0.6138  0.5536  0.9822
 1665Sol     HW 9611   2.656   1.656   9.225  0.4673  0.5029  0.5496
 1665Sol     MW 9612   2.672   1.744   9.218  0.3573 -0.2636 -0.1040
 1666Sol     OW 9613   2.767   0.420   3.473 -0.0819 -0.0031  0.3662
 1666Sol     HW 9614   2.826   0.348   3.496  0.8000  0.5209 -0.2238
 1666Sol     HW 9615   2.698   0.377   3.420  1.2973 -0.1859 -1.3437
 1666Sol     MW 9616   2.766   0.409   3.470 -0.2820 -0.3855 -0.0594
 1667Sol     OW 9617   1.963   2.006   1.707  0.0257 -0.2093  0.0499
 1667Sol     HW 9618   1.954   2.063   1.631 -0.6268 -3.1430 -2.1319
 1667Sol     HW 9619   1.921   2.055   1.778  1.0560  2.7789 -1.2978
 1667Sol     MW 9620   1.958   2.016   1.707 -0.8975  0.1220  0.5461
 1668Sol     OW 9621   0.302   2.547   9.176  0.2573  0.3098 -0.2133
 1668Sol     HW 9622   0.260   2.559   9.091 -0.0296 -0.8447 -0.2493
 1668Sol     HW 9623   0.395   2.539   9.157  0.2748  0.8290 -0.3413
 1668Sol     MW 9624   0.306   2.547   9.167  0.2991 -0.8292  0.3997
 1669Sol     OW 9625   2.526   2.303   6.314 -0.5241  0.3481  0.4363
 1669Sol     HW 9626   2.607   2.304   6.365  0.8000 -0.1121 -1.6145
 1669Sol     HW 9627   2.535   2.228   6.255 -1.1029  2.0937 -1.9438
 1669Sol     MW 9628   2.534   2.296   6.313  0.2685 -0.6522  0.1270
 1670Sol     OW 9629   0.565   0.701   2.915  0.2765 -0.1363  0.1672
 1670Sol     HW 9630   0.531   0.647   2.843 -1.3316 -0.3932  1.1019
 1670Sol     HW 9631   0.495   0.763   2.934  1.4278  1.1525  0.2881
 1670Sol     MW 9632   0.556   0.701   2.910  0.7495 -0.0726  0.6491
 1671Sol     OW 9633   3.151   1.813   2.820  0.2171  0.0190 -0.1979
 1671Sol     HW 9634   3.223   1.856   2.774  0.4273 -1.4805 -1.2950
 1671Sol     HW 9635   3.187   1.791   2.905  0.8513 -0.1388 -0.5069
 1671Sol     MW 9636   3.160   1.815   2.823  0.2937 -0.4724 -0.3091
 1672Sol     OW 9637   2.542   2.725   6.987  0.0447  0.7269  0.1606
 1672Sol     HW 9638   2.559   2.756   7.075  1.0415 -0.2701  0.3324
 1672Sol     HW 9639   2.575   2.635   6.986 -0.9684  0.3522 -0.8957
 1672Sol     MW 9640   2.547   2.720   6.995  0.4567 -0.0878 -0.5254
 1673Sol     OW 9641   1.658   0.182   5.865  0.2663  0.2835 -0.0738
 1673Sol     HW 9642   1.739   0.226   5.841  0.3673  0.1780  0.0755
 1673Sol     HW 9643   1.657   0.184   5.961 -0.5617  1.4955 -0.0929
 1673Sol     MW 9644   1.665   0.186   5.872  0.2889 -0.1186  0.2933
 1674Sol     OW 9645   1.084   2.188   4.605  0.4756  0.0760  0.1570
 1674Sol     HW 9646   1.078   2.108   4.658  0.3053 -0.7291 -1.0569
 1674Sol     HW 9647   1.167   2.227   4.631  0.4168 -0.3367  0.9840
 1674Sol     MW 9648   1.091   2.184   4.612  0.3175 -0.0409 -0.6953
 1675Sol     OW 9649   3.178   1.534   9.481 -0.2345 -0.1803  0.2601
 1675Sol     HW 9650   3.104   1.521   9.540  0.9483 -1.3773  1.4995
 1675Sol     HW 9651   3.188   1.629   9.476 -1.7273 -0.0137  0.2274
 1675Sol     MW 9652   3.172   1.541   9.485  0.3241 -0.0691  0.2772
 1676Sol     OW 9653   3.263   3.234   9.381  0.4904 -0.6189 -0.0435
 1676Sol     HW 9654   3.286   3.327   9.389 -0.1159 -0.4380 -0.3604
 1676Sol     HW 9655   3.338   3.188   9.419  0.2238  0.0360  1.2886
 1676Sol     MW 9656   3.272   3.238   9.385  0.0882  0.0967 -0.3992
 1677Sol     OW 9657   1.171   3.242   2.663  0.7895  0.6087 -0.1586
 1677Sol     HW 9658   1.097   3.298   2.685  0.5279  0.1207  0.2150
 1677Sol     HW 9659   1.247   3.287   2.701  0.2889 -0.4325  2.1727
 1677Sol     MW 9660   1.171   3.251   2.669  0.3562 -0.0094 -0.0761
 1678Sol     OW 9661   3.112   0.340   7.932 -0.2026  0.2622  0.0128
 1678Sol     HW 9662   3.098   0.332   8.027 -0.9491  0.7116 -0.0579
 1678Sol     HW 9663   3.198   0.301   7.918 -0.2136 -0.0827  0.8361
 1678Sol     MW 9664   3.119   0.336   7.939 -0.5358 -1.0499 -0.2886
 1679Sol     OW 9665   1.211   2.773   6.858 -0.1921  0.5447 -0.3428
 1679Sol     HW 9666   1.147   2.721   6.809  0.4973  0.0056 -0.6820
 1679Sol     HW 9667   1.164   2.853   6.881 -1.1951 -0.1316 -0.0124
 1679Sol     MW 9668   1.201   2.776   6.855 -0.3740 -0.1356  0.1457
 1680Sol     OW 9669   0.894   0.696   7.121  0.3745  0.2552  0.1839
 1680Sol     HW 9670   0.943   0.749   7.058 -0.0936 -1.4018 -1.6375
 1680Sol     HW 9671   0.949   0.620   7.136 -0.9163 -0.8905 -0.7174
 1680Sol     MW 9672   0.903   0.694   7.116 -0.3417 -0.1771 -0.1575
 1681Sol     OW 9673   2.195   2.700   7.429 -0.2424 -0.2169  0.3948
 1681Sol     HW 9674   2.247   2.706   7.509 -0.3525 -1.5433  0.5672
 1681Sol     HW 9675   2.246   2.749   7.364  0.0736  0.4683  1.1541
 1681Sol     MW 9676   2.205   2.705   7.430 -0.2613 -0.2458  0.3615
 1682Sol     OW 9677   2.020   1.623   5.071  0.0198 -0.0325  0.0872
 1682Sol     HW 9678   1.964   1.630   4.994  0.0442 -1.3586 -0.0599
 1682Sol     HW 9679   2.050   1.712   5.087  0.9819  0.0772 -2.1565
 1682Sol     MW 9680   2.017   1.631   5.066  0.0502 -0.1995 -0.2193
 1683Sol     OW 9681   1.645   1.653   7.806 -0.4031 -0.0215  0.0501
 1683Sol     HW 9682   1.570   1.712   7.811 -0.3563  0.1715 -1.2873
 1683Sol     HW 9683   1.710   1.702   7.754  1.0977  0.2880  2.1508
 1683Sol     MW 9684   1.644   1.663   7.801 -0.1976 -0.4116  0.0359
 1684Sol     OW 9685   2.759   3.334   6.871 -0.0904  0.1998  0.6281
 1684Sol     HW 9686   2.745   3.427   6.850  1.1578  0.2361 -0.1248
 1684Sol     HW 9687   2.712   3.287   6.801  1.7083  0.3024 -0.6839
 1684Sol     MW 9688   2.753   3.338   6.863  0.0968  0.1145  0.2985
 1685Sol     OW 9689   2.613   3.079   5.071 -0.2431  0.3602  0.3709
 1685Sol     HW 9690   2.570   3.113   5.150 -2.6159 -0.2698 -0.6382
 1685Sol     HW 9691   2.701   3.057   5.101 -0.2865  2.4893  2.2692
 1685Sol     MW 9692   2.617   3.080   5.081 -0.4188 -0.3012 -0.4751
 1686Sol     OW 9693   3.031   2.941   8.736 -0.1134 -0.1755 -0.0145
 1686Sol     HW 9694   3.043   2.962   8.644 -0.3767 -0.1789 -0.0496
 1686Sol     HW 9695   3.110   2.893   8.761 -0.4227 -0.9300 -0.4638
 1686Sol     MW 9696   3.039   2.938   8.730  0.3749  0.5510  0.2596
 1687Sol     OW 9697   2.716   1.816   4.327  0.4589 -0.0688  0.1924
 1687Sol     HW 9698   2.650   1.849   4.267 -0.9059 -2.8517  0.1008
 1687Sol     HW 9699   2.771   1.892   4.346 -0.9026  1.5587 -2.1545
 1687Sol     MW 9700   2.715   1.826   4.323  0.0043 -0.3720  0.2747
 1688Sol     OW 9701   1.522   2.324   5.572  0.0510  0.4523  0.3864
 1688Sol     HW 9702   1.579   2.252   5.543  0.2259  0.4791  0.6645
 1688Sol     HW 9703   1.571   2.403   5.549  0.7561  0.4683  1.8764
 1688Sol     MW 9704   1.532   2.324   5.567  0.7794 -0.2359 -0.6224
 1689Sol     OW 9705   1.582   1.871   8.412 -0.1213  0.0920 -0.1378
 1689Sol     HW 9706   1.518   1.862   8.482 -0.7046 -0.2286 -0.7061
 1689Sol     HW 9707   1.618   1.783   8.401  1.6978  0.6200  1.3701
 1689Sol     MW 9708   1.579   1.862   8.417  0.6050 -0.4208 -0.1271
 1690Sol     OW 9709   0.040   2.018   1.507  0.4432 -0.6204  0.3480
 1690Sol     HW 9710   0.085   2.073   1.443  0.1836 -1.1531 -0.2869
 1690Sol     HW 9711   0.104   2.007   1.578  0.2008  1.1949  0.8732
 1690Sol     MW 9712   0.050   2.022   1.508  0.3965  0.3240 -0.3860
 1691Sol     OW 9713   0.292   1.565   3.715  0.1168 -0.4713 -0.3243
 1691Sol     HW 9714   0.351   1.633   3.749  2.0925 -1.8509 -0.8907
 1691Sol     HW 9715   0.252   1.527   3.793  1.8696 -1.1842  0.2509
 1691Sol     MW 9716   0.294   1.568   3.725 -0.6850 -0.1150  0.6661
 1692Sol     OW 9717   2.104   1.517   4.739  0.6289 -0.4393 -0.5675
 1692Sol     HW 9718   2.164   1.548   4.671  1.0791 -0.1960 -0.0645
 1692Sol     HW 9719   2.161   1.478   4.805  0.3475  1.1275  0.6098
 1692Sol     MW 9720   2.114   1.516   4.738  0.1752  0.5377 -0.5169
 1693Sol     OW 9721   0.722   3.018   7.050 -0.3939 -0.1613 -0.1346
 1693Sol     HW 9722   0.763   2.946   7.003 -0.6288 -0.1812 -0.3130
 1693Sol     HW 9723   0.651   3.047   6.992 -0.2493  0.2656 -0.1003
 1693Sol     MW 9724   0.719   3.014   7.041 -0.0435  0.1913  0.2784
 1694Sol     OW 9725   1.535   0.434   7.333 -0.2777  0.3838 -0.5507
 1694Sol     HW 9726   1.480   0.463   7.406 -2.1564 -1.5180 -1.1531
 1694Sol     HW 9727   1.622   0.469   7.353 -1.2142  1.6205  1.5401
 1694Sol     MW 9728   1.538   0.440   7.341  0.4070 -0.4149 -0.6445
 1695Sol     OW 9729   1.282   1.494   2.171  0.0677  0.8428  0.5286
 1695Sol     HW 9730   1.252   1.407   2.197  1.5017  0.2802  0.3679
 1695Sol     HW 9731   1.202   1.546   2.161 -0.8957 -0.8968 -0.9887
 1695Sol     MW 9732   1.272   1.491   2.173 -0.0668 -0.4979 -0.9202
 1696Sol     OW 9733   3.133   1.050   3.727  0.0963  0.0777  0.5474
 1696Sol     HW 9734   3.151   1.060   3.821  0.2351  0.4775  0.4791
 1696Sol     HW 9735   3.039   1.067   3.719 -0.7984 -4.1494  1.2154
 1696Sol     MW 9736   3.126   1.053   3.735 -1.9775 -0.0787 -0.0365
 1697Sol     OW 9737   3.145   0.985   2.299 -0.2659  0.1941  0.0733
 1697Sol     HW 9738   3.121   0.929   2.374  0.2377 -0.5211 -0.2880
 1697Sol     HW 9739   3.209   1.046   2.336  0.6317 -0.7062  0.0551
 1697Sol     MW 9740   3.149   0.985   2.309  0.0085  0.3847  0.2243
 1698Sol     OW 9741   1.444   2.961   9.424  0.2838 -0.1337  0.3852
 1698Sol     HW 9742   1.533   2.931   9.403 -0.6208 -2.6030 -0.1595
 1698Sol     HW 9743   1.425   2.922   9.510  0.0594  1.1529  0.9287
 1698Sol     MW 9744   1.450   2.955   9.430 -0.6560 -0.1019 -0.0167
 1699Sol     OW 9745   1.335   3.377   6.671  0.3139 -0.4229 -0.0154
 1699Sol     HW 9746   1.396   3.436   6.628 -0.4591  0.6021  0.2909
 1699Sol     HW 9747   1.298   3.324   6.600 -0.7065  1.0297 -0.5909
 1699Sol     MW 9748   1.337   3.377   6.661 -0.0156  0.4184 -0.2517
 1700Sol     OW 9749   3.194   2.629   3.433 -0.2727  0.2472  0.1553
 1700Sol     HW 9750   3.177   2.723   3.424  0.6805  0.4611  0.5575
 1700Sol     HW 9751   3.274   2.624   3.485  0.0602 -0.7823 -0.4528
 1700Sol     MW 9752   3.199   2.637   3.437 -1.0058  0.5222 -0.1877
 1701Sol     OW 9753   3.255   1.769   6.566 -0.1039 -0.0475  0.4268
 1701Sol     HW 9754   3.300   1.694   6.606 -1.0517 -1.5619 -1.2423
 1701Sol     HW 9755   3.245   1.744   6.474  1.6859  3.1863 -0.7108
 1701Sol     MW 9756   3.258   1.760   6.562 -0.7908 -0.3248  0.0301
 1702Sol     OW 9757   0.667   0.657   6.986  0.2624  0.0408  0.0400
 1702Sol     HW 9758   0.742   0.680   7.041 -1.1767 -0.1031  2.1360
 1702Sol     HW 9759   0.641   0.570   7.016 -1.4767  0.5934  0.2113
 1702Sol     MW 9760   0.671   0.652   6.994 -0.0841 -0.2408 -0.0233
 1703Sol     OW 9761   2.215   2.370   3.493 -0.3831  0.1782  0.3028
 1703Sol     HW 9762   2.210   2.279   3.463  0.7622  1.2080 -3.1933
 1703Sol     HW 9763   2.124   2.392   3.516 -0.6356 -1.8840  1.4206
 1703Sol     MW 9764   2.206   2.363   3.492 -0.1724 -0.2657 -0.0482
 1704Sol     OW 9765   0.160   2.033   5.353  0.1038  0.0673  0.2029
 1704Sol     HW 9766   0.231   2.028   5.288  1.6883 -0.9726  1.9656
 1704Sol     HW 9767   0.099   1.965   5.325  0.4189  0.1111 -0.6264
 1704Sol     MW 9768   0.161   2.026   5.344 -0.1043  0.0709 -0.2487
 1705Sol     OW 9769   1.578   3.200   8.613 -0.2063 -0.4206  0.2744
 1705Sol     HW 9770   1.565   3.163   8.700 -0.3611 -0.8086  0.0881
 1705Sol     HW 9771   1.673   3.199   8.601 -0.1089  0.7093  0.8969
 1705Sol     MW 9772   1.586   3.197   8.620 -1.3716  0.0624  0.0109
 1706Sol     OW 9773   1.431   0.453   5.281 -0.2069 -0.2586  0.5449
 1706Sol     HW 9774   1.455   0.363   5.301 -2.5114 -1.1795 -0.5880
 1706Sol     HW 9775   1.350   0.445   5.231  0.3253  2.3875 -0.8115
 1706Sol     MW 9776   1.426   0.444   5.279 -0.2541  0.5943  0.3100
 1707Sol     OW 9777   1.233   3.443   7.319  0.2513  0.0335 -0.5359
 1707Sol     HW 9778   1.223   3.437   7.414 -0.3716  0.9076 -0.5378
 1707Sol     HW 9779   1.270   3.359   7.294  0.2282 -0.2865  0.4590
 1707Sol     MW 9780   1.235   3.435   7.326  0.1290 -0.2336 -0.6835
 1708Sol     OW 9781   0.272   2.994   7.583  0.2097  0.3898 -0.1157
 1708Sol     HW 9782   0.187   3.037   7.592 -0.0266 -0.3104  1.1020
 1708Sol     HW 9783   0.320   3.020   7.662 -0.1455 -2.0250  0.9409
 1708Sol     MW 9784   0.269   3.000   7.591  0.3899 -0.1630 -0.7143
 1709Sol     OW 9785   2.337   1.461   2.287 -0.1539  0.3089  0.0063
 1709Sol     HW 9786   2.248   1.468   2.252  0.0915  1.3088 -0.4450
 1709Sol     HW 9787   2.393   1.470   2.210  0.3357 -0.5533  0.2563
 1709Sol     MW 9788   2.334   1.463   2.277 -0.4510  0.3609  0.3123
 1710Sol     OW 9789   2.017   0.480   5.905 -0.2496 -0.0823 -0.2488
 1710Sol     HW 9790   1.993   0.390   5.884  0.9729 -0.9897  2.0614
 1710Sol     HW 9791   1.998   0.489   5.999 -0.9690  2.2606 -0.6023
 1710Sol     MW 9792   2.013   0.473   5.912 -0.0651  0.7524 -0.2085
 1711Sol     OW 9793   2.247   2.545   9.215  0.1761  0.3525 -0.6175
 1711Sol     HW 9794   2.241   2.615   9.281  0.4017 -0.6807  0.5046
 1711Sol     HW 9795   2.157   2.535   9.184  0.0604  0.8048 -0.4416
 1711Sol     MW 9796   2.238   2.551   9.218 -0.0335 -0.0662  0.8616
 1712Sol     OW 9797   1.793   0.159   2.845 -0.4154 -0.7989  0.0648
 1712Sol     HW 9798   1.711   0.191   2.884 -1.0593 -3.5881  1.1014
 1712Sol     HW 9799   1.856   0.230   2.860 -2.7681  1.6678 -1.3197
 1712Sol     MW 9800   1.791   0.169   2.850 -0.0666  0.2587 -0.5313
 1713Sol     OW 9801   1.263   1.046   3.675  0.2961 -0.3649 -0.4064
 1713Sol     HW 9802   1.228   0.958   3.665 -2.0163  0.3091  1.3269
 1713Sol     HW 9803   1.244   1.089   3.591 -0.5122 -0.8863 -0.4982
 1713Sol     MW 9804   1.258   1.042   3.666 -0.3349 -0.5269  0.7928
 1714Sol     OW 9805   1.498   2.122   6.367 -0.0488 -0.2178 -0.4613
 1714Sol     HW 9806   1.415   2.137   6.414 -0.1292  1.2058 -1.0261
 1714Sol     HW 9807   1.472   2.076   6.288 -0.3719  0.6772 -0.8811
 1714Sol     MW 9808   1.488   2.119   6.364  0.8967 -0.0634 -0.2958
 1715Sol     OW 9809   0.009   2.350   3.280 -0.0085  0.3523 -0.1779
 1715Sol     HW 9810   0.041   2.431   3.242 -0.3198  0.1485 -0.8896
 1715Sol     HW 9811  -0.086   2.355   3.271  0.0535 -0.8608 -1.8512
 1715Sol     MW 9812   0.003   2.358   3.276 -0.2716 -0.1668  0.0652
 1716Sol     OW 9813   0.541   0.519   5.002  0.1902 -0.3329 -0.5600
 1716Sol     HW 9814   0.540   0.461   5.078  1.3760 -0.2642 -0.4846
 1716Sol     HW 9815   0.621   0.570   5.011 -0.8024  1.2770 -0.6808
 1716Sol     MW 9816   0.548   0.518   5.009  0.3575  0.9678 -0.0035
 1717Sol     OW 9817   0.625   2.871   4.427  0.3491 -0.5970 -0.0388
 1717Sol     HW 9818   0.582   2.828   4.501  0.3825 -1.5529 -0.5672
 1717Sol     HW 9819   0.716   2.881   4.454  0.1716 -0.1117  0.4038
 1717Sol     MW 9820   0.629   2.868   4.436 -0.0269 -0.2522 -0.2491
 1718Sol     OW 9821   0.069   2.158   3.004 -0.5649 -0.4978  0.2038
 1718Sol     HW 9822   0.136   2.216   3.039 -0.7128 -0.6173  0.6918
 1718Sol     HW 9823  -0.006   2.215   2.989 -1.2708 -0.8384  2.2510
 1718Sol     MW 9824   0.068   2.168   3.006 -0.2753 -0.7586 -0.1261
 1719Sol     OW 9825   3.015   1.381   7.426 -0.1559  0.1423 -0.2720
 1719Sol     HW 9826   3.053   1.331   7.498  0.6120  1.0054 -0.0649
 1719Sol     HW 9827   3.053   1.342   7.347  2.4453  1.9998 -0.0087
 1719Sol     MW 9828   3.022   1.373   7.425  0.3981 -0.3260 -0.6642
 1720Sol     OW 9829   3.237   0.672   2.910  0.1049  0.2428 -0.6125
 1720Sol     HW 9830   3.162   0.612   2.910  0.3503 -0.0724  0.0715
 1720Sol     HW 9831   3.209   0.744   2.967 -0.2385  0.8397 -1.5394
 1720Sol     MW 9832   3.228   0.673   2.916  0.1439  0.7831  0.2638
 1721Sol     OW 9833   2.327   3.123   3.666  0.0896  0.1836  0.7765
 1721Sol     HW 9834   2.415   3.113   3.702  0.4756  1.8734  0.3381
 1721Sol     HW 9835   2.277   3.051   3.704  1.5501 -0.5268  1.3762
 1721Sol     MW 9836   2.330   3.116   3.673  0.4735  0.0114  0.1490
 1722Sol     OW 9837   0.154   2.178   5.777 -0.1540 -0.7373 -0.5551
 1722Sol     HW 9838   0.216   2.151   5.709 -0.0792 -0.7325 -0.4886
 1722Sol     HW 9839   0.078   2.212   5.729 -0.7423 -2.1704 -0.6596
 1722Sol     MW 9840   0.153   2.178   5.767 -0.1681  0.1825 -0.0156
 1723Sol     OW 9841   0.898   0.145   6.718 -0.0277 -0.2698  0.6308
 1723Sol     HW 9842   0.935   0.176   6.635 -2.0334 -0.2332 -0.2971
 1723Sol     HW 9843   0.962   0.083   6.751  0.7643 -0.3618 -1.0042
 1723Sol     MW 9844   0.907   0.143   6.714  0.3004  0.0534  0.1402
 1724Sol     OW 9845   0.001   1.069   5.484 -0.1987  0.5782 -0.0926
 1724Sol     HW 9846  -0.086   1.062   5.523 -1.1096  1.6100 -1.8561
 1724Sol     HW 9847   0.009   0.990   5.430 -0.6379  1.1885 -1.0589
 1724Sol     MW 9848  -0.006   1.061   5.482 -0.3740 -0.6768  0.2905
 1725Sol     OW 9849   1.364   3.187   2.122  0.0622 -0.4095 -0.3145
 1725Sol     HW 9850   1.328   3.098   2.122  1.1502 -0.8649 -0.1159
 1725Sol     HW 9851   1.443   3.181   2.176  1.8025 -0.0332 -2.6976
 1725Sol     MW 9852   1.368   3.178   2.127 -0.2037  0.3751 -0.0973
 1726Sol     OW 9853   0.247   2.088   4.281 -0.1748  0.1645 -0.6811
 1726Sol     HW 9854   0.251   2.027   4.207 -2.2137  1.4605 -1.9375
 1726Sol     HW 9855   0.276   2.171   4.244  0.1792  0.5100  0.3641
 1726Sol     MW 9856   0.250   2.090   4.271  0.2281 -0.0748  0.1672
 1727Sol     OW 9857   1.378   0.149   4.734  0.5566 -0.2052  0.2183
 1727Sol     HW 9858   1.370   0.141   4.639  2.2464  1.2519 -0.0536
 1727Sol     HW 9859   1.310   0.211   4.759 -0.2558 -1.0095  0.0551
 1727Sol     MW 9860   1.371   0.154   4.728 -0.5735  0.6208 -0.1279
 1728Sol     OW 9861   0.617   2.302   3.097  0.0694  0.0131  0.1391
 1728Sol     HW 9862   0.647   2.390   3.119  3.1273 -0.3748 -2.1112
 1728Sol     HW 9863   0.617   2.255   3.181  1.2617  1.3599  0.9165
 1728Sol     MW 9864   0.620   2.306   3.107 -0.3102  0.3963  0.4602
 1729Sol     OW 9865   1.410   2.612   9.131  0.0901 -0.5394 -0.6644
 1729Sol     HW 9866   1.475   2.658   9.078 -1.5103  1.1915 -1.1645
 1729Sol     HW 9867   1.389   2.534   9.080  1.6054 -1.0099 -0.5944
 1729Sol     MW 9868   1.414   2.609   9.122 -0.3217 -0.3014  0.1618
 1730Sol     OW 9869   0.011   3.127   9.141 -0.1165 -0.1993 -0.1109
 1730Sol     HW 9870  -0.041   3.184   9.085 -1.6591 -1.1110  0.3409
 1730Sol     HW 9871  -0.021   3.145   9.230  0.8147 -0.2879  0.2455
 1730Sol     MW 9872   0.004   3.133   9.144 -0.2511 -0.4239 -0.1190
 1731Sol     OW 9873   3.037   0.891   8.460 -0.6306  0.1248 -0.0906
 1731Sol     HW 9874   2.995   0.914   8.377 -1.5161 -0.7887  0.0925
 1731Sol     HW 9875   3.089   0.813   8.440  0.4974  0.8723 -0.1624
 1731Sol     MW 9876   3.038   0.886   8.451 -0.3410 -0.0914  0.5861
 1732Sol     OW 9877   2.014   2.356   9.451  0.1168  0.3146  0.2871
 1732Sol     HW 9878   2.066   2.292   9.403 -0.7863  0.6817 -1.2257
 1732Sol     HW 9879   2.074   2.428   9.468  0.3975  0.2768 -0.5144
 1732Sol     MW 9880   2.024   2.357   9.448  0.4160 -0.1437 -0.7351
 1733Sol     OW 9881   0.811   1.940   5.836 -0.0025 -0.0957  0.0896
 1733Sol     HW 9882   0.733   1.896   5.868  0.3660 -1.2245 -0.5472
 1733Sol     HW 9883   0.851   1.878   5.775  1.8902  0.0941  1.0948
 1733Sol     MW 9884   0.808   1.931   5.833  0.0703 -0.3811  0.7056
 1734Sol     OW 9885   0.093   0.114   4.310 -0.0675  0.3403 -0.0495
 1734Sol     HW 9886   0.007   0.134   4.273 -0.3600  0.7348  0.8330
 1734Sol     HW 9887   0.109   0.184   4.373  0.1153 -0.7128  1.0826
 1734Sol     MW 9888   0.087   0.122   4.312  0.4997  0.7373  0.5884
 1735Sol     OW 9889   2.532   1.849   2.263  0.1036 -1.0591  0.1308
 1735Sol     HW 9890   2.527   1.898   2.180  1.0024 -0.2709  0.5265
 1735Sol     HW 9891   2.444   1.814   2.275  0.1601 -1.8824 -1.5735
 1735Sol     MW 9892   2.524   1.851   2.256  0.0756 -0.5507  0.9727
 1736Sol     OW 9893   1.394   1.127   2.958 -0.0403  0.1820 -0.0353
 1736Sol     HW 9894   1.484   1.117   2.991  0.7033  2.4619 -1.2521
 1736Sol     HW 9895   1.340   1.133   3.037  1.1875  1.3343  0.7399
 1736Sol     MW 9896   1.397   1.127   2.968  0.5172  0.1004  0.5291
 1737Sol     OW 9897   3.288   1.389   5.857 -0.3251  0.0177  0.2227
 1737Sol     HW 9898   3.229   1.314   5.847 -0.4331  0.0983  0.2563
 1737Sol     HW 9899   3.261   1.450   5.789 -1.0182  0.5413  0.9647
 1737Sol     MW 9900   3.281   1.388   5.850 -0.4956 -0.2141 -0.7743
 1738Sol     OW 9901   0.024   1.531   6.729  0.1453 -0.5660  0.2070
 1738Sol     HW 9902   0.092   1.468   6.704  0.9015 -0.3182  1.5687
 1738Sol     HW 9903   0.065   1.583   6.799 -1.0807  0.2921  0.2969
 1738Sol     MW 9904   0.034   1.530   6.733 -0.5601  0.3663  0.0151
 1739Sol     OW 9905   3.026   2.110   7.351 -0.0473  0.6479 -0.2033
 1739Sol     HW 9906   3.096   2.070   7.403 -0.9499  1.6315  1.8136
 1739Sol     HW 9907   2.969   2.037   7.327  0.0309  0.2691  0.7458
 1739Sol     MW 9908   3.027   2.100   7.354  0.0789 -0.5958 -0.1342
 1740Sol     OW 9909   2.592   1.949   7.622  0.3592  0.1765  0.1810
 1740Sol     HW 9910   2.536   2.013   7.666  0.5438  0.1944  0.3932
 1740Sol     HW 9911   2.609   1.883   7.688 -1.6283 -1.2506 -0.6760
 1740Sol     MW 9912   2.589   1.949   7.632  0.1714  0.4127  0.4431
 1741Sol     OW 9913   0.963   1.041   1.524  0.3878  0.2589  0.4998
 1741Sol     HW 9914   0.897   0.976   1.500  1.0497 -0.1141 -0.3064
 1741Sol     HW 9915   1.017   0.997   1.589  1.4553 -0.3501 -0.7962
 1741Sol     MW 9916   0.962   1.032   1.528  0.1242  0.1832 -0.1721
 1742Sol     OW 9917   1.637   2.653   6.896 -0.0824 -0.4811  0.0215
 1742Sol     HW 9918   1.642   2.561   6.924  0.6271 -0.8966 -1.4472
 1742Sol     HW 9919   1.721   2.690   6.921  0.0261 -0.4934 -0.3346
 1742Sol     MW 9920   1.645   2.648   6.901  0.1891  0.2721  0.4464
 1743Sol     OW 9921   1.033   3.051   9.825  0.2225 -0.1310  0.4714
 1743Sol     HW 9922   1.056   3.024   9.736  2.6290 -0.9838  1.3094
 1743Sol     HW 9923   1.117   3.060   9.870 -0.8619  2.2991  2.1124
 1743Sol     MW 9924   1.043   3.049   9.821 -0.1534  0.3192 -0.1387
 1744Sol     OW 9925   3.146   2.443   8.693 -0.0437 -0.2974  0.3803
 1744Sol     HW 9926   3.079   2.401   8.638 -1.2617  1.3464  0.5653
 1744Sol     HW 9927   3.096   2.497   8.754  1.4892  2.1745 -0.4789
 1744Sol     MW 9928   3.135   2.444   8.693  0.0255 -0.1470 -0.6812
 1745Sol     OW 9929   1.828   1.136   8.888  0.5502 -0.5040 -0.2104
 1745Sol     HW 9930   1.914   1.114   8.851  0.8108 -1.4409  0.9332
 1745Sol     HW 9931   1.798   1.211   8.836  1.7968 -0.5369 -0.9963
 1745Sol     MW 9932   1.833   1.140   8.880 -0.5676 -0.4176  0.9900
 1746Sol     OW 9933   1.444   0.975   2.580  0.2496  0.0822  0.2740
 1746Sol     HW 9934   1.394   0.898   2.552 -2.4137  1.4789  1.0412
 1746Sol     HW 9935   1.493   1.001   2.502 -0.0721 -1.4326 -0.4482
 1746Sol     MW 9936   1.444   0.971   2.570 -0.3075 -0.4085 -0.3981
 1747Sol     OW 9937   3.040   1.417   4.138  0.4234  0.3019  0.2618
 1747Sol     HW 9938   3.100   1.377   4.200  0.9266  0.6481  0.0035
 1747Sol     HW 9939   2.996   1.487   4.187  0.0565 -0.1110  0.5174
 1747Sol     MW 9940   3.041   1.420   4.148  0.4948 -0.1962 -0.0914
 1748Sol     OW 9941   0.506   0.189   8.965 -0.0627 -0.0303  0.5636
 1748Sol     HW 9942   0.520   0.268   9.017  0.3555  0.7257 -0.6720
 1748Sol     HW 9943   0.480   0.122   9.029 -0.5457  1.1323  1.5959
 1748Sol     MW 9944   0.505   0.190   8.976  0.3383 -0.4381 -0.1193
 1749Sol     OW 9945   1.884   1.915   2.083  0.4594  0.3654  0.1000
 1749Sol     HW 9946   1.831   1.851   2.035  0.8031 -0.8588  1.3467
 1749Sol     HW 9947   1.823   1.957   2.144  0.7521 -0.4681  0.9647
 1749Sol     MW 9948   1.874   1.913   2.084  0.2436 -0.4504 -0.8123
 1750Sol     OW 9949   3.102   1.148   4.881 -0.5777 -0.8109  0.4278
 1750Sol     HW 9950   3.071   1.221   4.826  0.1009 -2.6312 -2.4920
 1750Sol     HW 9951   3.027   1.126   4.935 -3.1065 -2.2712 -3.4182
 1750Sol     MW 9952   3.093   1.153   4.881  0.4683  0.2180 -0.2253
 1751Sol     OW 9953   3.277   1.986   9.722 -0.6721 -0.0489 -0.3248
 1751Sol     HW 9954   3.353   1.967   9.668 -0.2666 -0.2365  0.3037
 1751Sol     HW 9955   3.205   1.997   9.660 -0.7340 -2.6890 -0.8053
 1751Sol     MW 9956   3.277   1.985   9.712  0.2532  0.2624 -0.8852
 1752Sol     OW 9957   0.813   1.378   7.235 -0.0207  0.1732  0.0163
 1752Sol     HW 9958   0.885   1.411   7.290 -0.0238 -0.3511  0.3491
 1752Sol     HW 9959   0.763   1.321   7.294 -0.2175 -0.1331 -0.4458
 1752Sol     MW 9960   0.815   1.375   7.245  0.7118  0.4461 -0.0411
 1753Sol     OW 9961   3.291   3.026   6.128 -0.4221  0.0441  0.6254
 1753Sol     HW 9962   3.365   2.971   6.155  0.0045  0.2716 -0.0725
 1753Sol     HW 9963   3.222   2.963   6.106  0.7271 -0.3199 -2.1278
 1753Sol     MW 9964   3.292   3.015   6.129 -0.3775  0.0919  0.3513
 1754Sol     OW 9965   3.086   0.578   3.231 -0.8205 -0.8929 -0.0371
 1754Sol     HW 9966   3.092   0.637   3.156  0.4833 -1.0901 -0.0998
 1754Sol     HW 9967   3.030   0.624   3.294 -0.8554 -0.1544 -0.6037
 1754Sol     MW 9968   3.081   0.588   3.230 -0.1049  0.2898 -0.0951
 1755Sol     OW 9969   0.344   1.252   2.034 -0.1709  0.2311 -0.7266
 1755Sol     HW 9970   0.433   1.281   2.016 -0.1675  0.1065 -0.9151
 1755Sol     HW 9971   0.315   1.213   1.951  0.8255 -2.8789  0.3139
 1755Sol     MW 9972   0.349   1.251   2.025  0.3358  0.2557  0.2950
 1756Sol     OW 9973   0.647   0.186   5.033  0.2363 -0.5361 -0.1755
 1756Sol     HW 9974   0.616   0.244   5.103 -0.9068 -1.1306 -0.1726
 1756Sol     HW 9975   0.572   0.179   4.973  1.2405  0.0788 -1.5390
 1756Sol     MW 9976   0.637   0.191   5.034 -0.0017 -0.0428  0.6760
 1757Sol     OW 9977   2.823   0.910   7.861 -0.1695  0.5276 -0.2147
 1757Sol     HW 9978   2.856   0.872   7.942  0.6799  1.7848  0.0358
 1757Sol     HW 9979   2.902   0.936   7.813 -0.7293  1.6144 -0.5502
 1757Sol     MW 9980   2.833   0.909   7.864  0.0065 -0.4058 -0.2646
 1758Sol     OW 9981   0.008   2.501   4.298 -0.3135 -0.2946 -0.0795
 1758Sol     HW 9982  -0.040   2.518   4.217  0.6140  3.2768  0.0194
 1758Sol     HW 9983   0.096   2.477   4.270 -0.2999 -0.1498 -0.1604
 1758Sol     MW 9984   0.012   2.501   4.288 -0.4958  0.3057  0.2369
 1759Sol     OW 9985   1.269   2.183   1.547 -0.2443 -0.1495 -0.7975
 1759Sol     HW 9986   1.336   2.196   1.479  3.3616  1.3123  2.8122
 1759Sol     HW 9987   1.277   2.260   1.603 -1.0395 -2.6633  2.9418
 1759Sol     MW 9988   1.276   2.191   1.546 -0.6545 -0.7235 -0.2744
 1760Sol     OW 9989   0.796   0.482   9.619  0.7721 -0.6830  0.4967
 1760Sol     HW 9990   0.836   0.470   9.705 -0.2848  0.6932  1.2138
 1760Sol     HW 9991   0.775   0.394   9.588 -0.8626 -1.0712  2.6392
 1760Sol     MW 9992   0.798   0.473   9.624  0.1024 -0.5427 -0.3741
 1761Sol     OW 9993   1.152   3.129   7.108  0.0491  0.1422  0.4818
 1761Sol     HW 9994   1.092   3.078   7.054  0.6458  0.2072 -0.2469
 1761Sol     HW 9995   1.211   3.171   7.046  0.6083  0.3920  1.1752
 1761Sol     MW 9996   1.152   3.129   7.098 -0.3272 -0.0609 -0.2061
 1762Sol     OW 9997   1.659   0.746   8.103 -0.3091 -0.7826 -0.1174
 1762Sol     HW 9998   1.731   0.694   8.138  0.0989 -0.3531 -0.3215
 1762Sol     HW 9999   1.700   0.826   8.069 -0.9481 -0.2737  0.2939
 1762Sol     MW10000   1.669   0.748   8.103 -0.0127 -0.5308  0.2915
 1763Sol     OW10001   1.153   1.892   8.333 -0.3257  0.8670  0.2617
 1763Sol     HW10002   1.220   1.946   8.289  0.5233 -1.4503 -1.3951
 1763Sol     HW10003   1.201   1.850   8.405  0.7203 -2.6289 -2.3262
 1763Sol     MW10004   1.164   1.893   8.336  0.9601  0.2570 -0.7848
 1764Sol     OW10005   0.488   1.449   5.647  0.3520 -0.0392 -0.0600
 1764Sol     HW10006   0.464   1.522   5.589 -2.3301 -0.3315  0.6449
 1764Sol     HW10007   0.478   1.484   5.735 -0.9347 -1.2164  0.2819
 1764Sol     MW10008   0.485   1.459   5.649  0.1013 -0.5090 -0.3548
 1765Sol     OW10009   1.081   3.384   6.842  0.0202  0.2138  0.0387
 1765Sol     HW10010   1.081   3.411   6.934 -0.9488  0.3383  0.0081
 1765Sol     HW10011   1.173   3.384   6.817  0.3217 -0.1586  1.1066
 1765Sol     MW10012   1.089   3.386   6.848 -0.1554  0.3985 -0.0193
 1766Sol     OW10013   2.421   2.099   4.368  0.5247  0.0458  0.7133
 1766Sol     HW10014   2.513   2.123   4.378  0.9414 -1.7918  1.4733
 1766Sol     HW10015   2.378   2.180   4.340  2.5544  0.6467 -0.8014
 1766Sol     MW10016   2.425   2.109   4.366  1.0675  0.1436 -0.6789
 1767Sol     OW10017   1.063   1.450   9.118  0.3281 -0.0978 -0.2077
 1767Sol     HW10018   1.122   1.393   9.070 -2.2815 -2.0603 -1.1580
 1767Sol     HW10019   1.048   1.405   9.201  1.1759  1.0629  0.6077
 1767Sol     MW10020   1.067   1.441   9.121 -0.1008 -0.5219  0.2053
 1768Sol     OW10021   2.776   2.241   6.441 -0.1477  0.8595 -0.0279
 1768Sol     HW10022   2.727   2.211   6.518  0.1156  0.6558  0.0584
 1768Sol     HW10023   2.821   2.163   6.409 -2.2781  0.3262 -1.9087
 1768Sol     MW10024   2.775   2.231   6.445 -0.5668  0.3103  0.0988
 1769Sol     OW10025   2.115   0.241   9.338 -0.1835  0.2075  0.0352
 1769Sol     HW10026   2.129   0.175   9.406  0.6232  0.4212  0.0835
 1769Sol     HW10027   2.198   0.288   9.333 -0.6219  0.9619 -0.2767
 1769Sol     MW10028   2.123   0.239   9.344 -0.4175 -0.2102 -0.2022
 1770Sol     OW10029   1.594   0.575   3.217  0.0792  0.5339 -0.0334
 1770Sol     HW10030   1.558   0.511   3.156  1.4364  0.2773 -0.5736
 1770Sol     HW10031   1.587   0.533   3.303  2.2469 -0.9541 -0.5382
 1770Sol     MW10032   1.590   0.565   3.219 -0.2489  0.1120 -0.3636
 1771Sol     OW10033   0.929   1.757   5.680 -0.1373  0.0424  0.1062
 1771Sol     HW10034   1.013   1.752   5.635  1.6522  2.9915  2.9402
 1771Sol     HW10035   0.930   1.683   5.741  0.8485  0.6340  0.8134
 1771Sol     MW10036   0.936   1.750   5.682  0.5660 -0.1696  0.3825
 1772Sol     OW10037   1.738   1.462   7.059 -0.0211  0.3495 -0.1236
 1772Sol     HW10038   1.725   1.439   7.151  1.5531  2.6523  0.7139
 1772Sol     HW10039   1.666   1.522   7.039 -0.3212 -0.0948 -0.3937
 1772Sol     MW10040   1.730   1.465   7.066  0.1503  0.2705  0.0853
 1773Sol     OW10041   1.365   0.476   1.521  0.3116  0.8349  0.0853
 1773Sol     HW10042   1.421   0.407   1.556  1.2333  1.8953  0.7349
 1773Sol     HW10043   1.341   0.445   1.434  0.5657 -0.3816  0.4337
 1773Sol     MW10044   1.368   0.467   1.516 -0.2673  0.3750  0.5538
 1774Sol     OW10045   1.069   1.134   7.833  0.4496  0.1922  0.5128
 1774Sol     HW10046   1.045   1.127   7.925 -0.5096 -0.2694  0.2316
 1774Sol     HW10047   1.054   1.226   7.811  0.8808  0.3500  0.8621
 1774Sol     MW10048   1.066   1.142   7.839 -0.2174 -0.1993  0.4801
 1775Sol     OW10049   0.377   2.804   4.910  0.4702 -0.4978 -0.3467
 1775Sol     HW10050   0.374   2.889   4.954  3.8637 -0.6489  0.3289
 1775Sol     HW10051   0.309   2.752   4.952 -2.2345  2.0755 -1.3149
 1775Sol     MW10052   0.371   2.807   4.918  0.2474  0.3654 -0.2648
 1776Sol     OW10053   1.820   3.436   5.210  0.9832 -0.0728  0.4014
 1776Sol     HW10054   1.768   3.465   5.134  0.0403 -1.6786  0.3985
 1776Sol     HW10055   1.814   3.340   5.207  1.1527 -0.1629  2.3549
 1776Sol     MW10056   1.815   3.430   5.203 -0.4269  0.2723 -0.3381
 1777Sol     OW10057   3.169   1.599   9.166  0.3941  0.4211  0.0883
 1777Sol     HW10058   3.193   1.506   9.174 -0.8206  0.0061 -0.9014
 1777Sol     HW10059   3.132   1.621   9.251 -1.8734 -0.7871 -0.5424
 1777Sol     MW10060   3.168   1.592   9.175 -0.1014  0.1616 -0.2667
 1778Sol     OW10061   2.954   2.116   9.876 -0.3570  0.1030 -0.4513
 1778Sol     HW10062   2.886   2.083   9.818 -0.6169  1.4733 -0.9649
 1778Sol     HW10063   2.943   2.068   9.958 -2.1132  0.4922 -0.4499
 1778Sol     MW10064   2.947   2.109   9.878  0.0553 -0.8916 -0.2403
 1779Sol     OW10065   1.898   2.394   1.716 -0.0749  0.3591  0.3768
 1779Sol     HW10066   1.992   2.375   1.711  0.0780  1.0446  0.6675
 1779Sol     HW10067   1.871   2.407   1.624  0.2384  0.7699  0.3431
 1779Sol     MW10068   1.904   2.393   1.707  0.1670  0.5209 -0.6206
 1780Sol     OW10069   0.631   1.904   9.113  0.0404  0.0881 -0.1724
 1780Sol     HW10070   0.611   1.935   9.202  0.0075  2.4107 -0.9407
 1780Sol     HW10071   0.648   1.811   9.123  3.1335  0.8596  2.7914
 1780Sol     MW10072   0.631   1.899   9.122  0.6714 -0.2916 -0.8670
 1781Sol     OW10073   1.146   0.332   3.191 -0.3351 -0.1333  0.1419
 1781Sol     HW10074   1.125   0.386   3.267  1.1617  0.4120  0.1668
 1781Sol     HW10075   1.097   0.373   3.119 -1.5239 -0.4812  0.7304
 1781Sol     MW10076   1.140   0.340   3.191 -0.6777 -0.8530 -0.0612
 1782Sol     OW10077   0.317   1.338   9.738 -0.3116  0.3721 -0.6958
 1782Sol     HW10078   0.308   1.246   9.712  1.4469 -0.8809  2.7909
 1782Sol     HW10079   0.236   1.357   9.786  0.1097  0.0605  0.1480
 1782Sol     MW10080   0.309   1.331   9.740  0.3493 -0.2890 -0.1559
 1783Sol     OW10081   2.240   3.271   5.902  0.2429  0.1383 -0.1038
 1783Sol     HW10082   2.334   3.283   5.887 -0.0464 -0.5735 -2.8039
 1783Sol     HW10083   2.234   3.185   5.944  0.6777 -0.8646 -2.0213
 1783Sol     MW10084   2.248   3.264   5.904 -0.2664 -0.0399  0.5388
 1784Sol     OW10085   1.343   1.166   6.712 -0.5557 -0.5673  0.0551
 1784Sol     HW10086   1.296   1.120   6.782 -1.7146  0.8109  0.2027
 1784Sol     HW10087   1.278   1.224   6.674  0.8308  0.7899 -0.2773
 1784Sol     MW10088   1.333   1.167   6.715  0.1644  0.0483 -0.7701
 1785Sol     OW10089   2.833   0.068   8.906  0.1218  0.0743 -0.3209
 1785Sol     HW10090   2.820   0.134   8.838  2.1928  1.4850  0.6044
 1785Sol     HW10091   2.835  -0.015   8.858 -1.4384  0.7606 -1.6199
 1785Sol     MW10092   2.832   0.066   8.895 -0.0569 -0.2559 -0.5104
 1786Sol     OW10093   2.212   2.116   6.702  0.3064  0.2208  0.2042
 1786Sol     HW10094   2.233   2.176   6.773 -0.5107  1.1964 -0.3728
 1786Sol     HW10095   2.159   2.167   6.641 -0.3567 -1.0645 -0.3258
 1786Sol     MW10096   2.209   2.126   6.702  0.5860  0.4821 -0.3020
 1787Sol     OW10097   1.022   1.121   4.887 -0.0163  0.7379  0.2332
 1787Sol     HW10098   0.983   1.206   4.870  2.8328  1.9882 -0.3344
 1787Sol     HW10099   1.069   1.132   4.970 -2.0783 -1.1949  1.7311
 1787Sol     MW10100   1.023   1.129   4.893  0.4117 -0.1312 -0.8831
 1788Sol     OW10101   0.974   2.001   2.273 -0.2862  0.5331  0.2634
 1788Sol     HW10102   0.965   1.923   2.328  1.5634  0.3124  0.2662
 1788Sol     HW10103   1.024   2.062   2.326  0.9773  0.5556 -0.9293
 1788Sol     MW10104   0.977   2.000   2.283  0.4114 -0.1863  0.2287
 1789Sol     OW10105   0.758   0.176   8.810  0.5512  0.0118 -0.0718
 1789Sol     HW10106   0.787   0.161   8.720 -1.2327  1.2061 -0.8747
 1789Sol     HW10107   0.664   0.158   8.808  0.5672 -0.3565  1.6585
 1789Sol     MW10108   0.752   0.173   8.802 -0.2622  0.3420 -0.1336
 1790Sol     OW10109   2.289   0.717   1.582 -0.1537 -0.6209 -0.3764
 1790Sol     HW10110   2.334   0.684   1.660  0.6126 -0.4647 -0.7470
 1790Sol     HW10111   2.322   0.806   1.571 -1.9667  0.1712  0.4280
 1790Sol     MW10112   2.296   0.722   1.588  0.3390 -0.7624 -0.0905
 1791Sol     OW10113   2.642   1.100   3.592  0.5856 -0.0045 -0.2245
 1791Sol     HW10114   2.640   1.183   3.545  0.5472  0.7006  0.9926
 1791Sol     HW10115   2.551   1.082   3.614  0.4811 -0.8632 -1.3123
 1791Sol     MW10116   2.634   1.106   3.590  0.4095 -0.2931 -0.0351
 1792Sol     OW10117   2.914   2.547   7.178 -0.0095  0.3073  0.5617
 1792Sol     HW10118   2.985   2.494   7.214 -1.2607 -0.7385  1.5505
 1792Sol     HW10119   2.835   2.497   7.196 -0.9379  1.0192 -1.3224
 1792Sol     MW10120   2.913   2.538   7.183 -0.1979 -0.1580 -0.1351
 1793Sol     OW10121   2.006   0.856   5.927  0.6500 -0.6355 -0.3116
 1793Sol     HW10122   1.958   0.781   5.893  0.1385 -0.8854  0.9352
 1793Sol     HW10123   1.956   0.884   6.004  1.0427  0.7419 -0.5391
 1793Sol     MW10124   1.998   0.852   5.931 -0.3661 -0.5339 -0.2867
 1794Sol     OW10125   1.051   0.127   3.791  0.3340 -0.1660 -0.8894
 1794Sol     HW10126   1.130   0.125   3.845 -0.1824 -2.6199 -0.1630
 1794Sol     HW10127   0.980   0.111   3.852 -0.4363 -1.0337 -2.0005
 1794Sol     MW10128   1.052   0.126   3.801 -0.0279 -0.4066 -0.3038
 1795Sol     OW10129   2.370   3.336   9.294 -0.4620 -0.3201 -0.1382
 1795Sol     HW10130   2.386   3.320   9.387  1.1401 -1.6266 -0.6116
 1795Sol     HW10131   2.456   3.328   9.253 -1.2683 -0.5097 -1.8403
 1795Sol     MW10132   2.379   3.334   9.299  0.0263  0.3845  0.1590
 1796Sol     OW10133   1.046   1.510   6.240  0.6768  0.6151 -0.4687
 1796Sol     HW10134   1.129   1.491   6.196 -0.0774  0.6060 -1.8834
 1796Sol     HW10135   0.979   1.484   6.178 -0.4033  0.8154  0.5965
 1796Sol     MW10136   1.048   1.506   6.231  0.1813 -0.4833 -0.1607
 1797Sol     OW10137   1.226   0.960   1.946 -0.3850 -0.2008  0.0950
 1797Sol     HW10138   1.247   0.868   1.962 -1.7210 -0.6884 -0.9227
 1797Sol     HW10139   1.174   0.986   2.022 -1.3483 -0.7315 -0.3824
 1797Sol     MW10140   1.223   0.954   1.954  0.3890 -0.0982  0.4310
 1798Sol     OW10141   2.607   0.643   3.355 -0.1320 -0.2555  0.4150
 1798Sol     HW10142   2.612   0.733   3.387  0.3230 -0.2019  0.1894
 1798Sol     HW10143   2.677   0.597   3.401 -0.8590 -0.6785  1.1214
 1798Sol     MW10144   2.614   0.647   3.362  0.1694  0.3663  0.4058
 1799Sol     OW10145   0.067   0.710   7.746  0.0692 -0.2139 -0.1778
 1799Sol     HW10146   0.138   0.729   7.808 -0.4282  0.6589  0.1348
 1799Sol     HW10147   0.075   0.778   7.679 -0.4857 -0.1053 -0.1299
 1799Sol     MW10148   0.074   0.718   7.746 -0.0089 -0.1087 -0.5835
 1800Sol     OW10149   0.236   0.280   9.409  0.1770 -0.2436 -0.0035
 1800Sol     HW10150   0.281   0.325   9.338  1.7645  0.9840  1.7318
 1800Sol     HW10151   0.270   0.321   9.489 -2.7176 -0.5161  1.4309
 1800Sol     MW10152   0.243   0.288   9.410  0.6533 -0.0377  0.0123
 1801Sol     OW10153   1.888   0.405   9.360  0.0203  0.0007  0.2012
 1801Sol     HW10154   1.833   0.347   9.308  0.2987 -0.3980  0.3456
 1801Sol     HW10155   1.977   0.373   9.345  0.2336  0.7892 -0.2156
 1801Sol     MW10156   1.891   0.397   9.354 -0.2715  0.2199  0.3722
 1802Sol     OW10157   1.650   2.555   3.135 -0.3338  0.6640  0.5344
 1802Sol     HW10158   1.659   2.459   3.140  0.0890  0.7172  0.7869
 1802Sol     HW10159   1.632   2.572   3.043  0.9124  0.4562  0.2510
 1802Sol     MW10160   1.649   2.548   3.127  0.3155 -0.5641 -0.3639
 1803Sol     OW10161   2.963   3.323   7.405 -0.7202  0.3763  0.2031
 1803Sol     HW10162   2.931   3.264   7.338 -1.9982  0.5887  0.6107
 1803Sol     HW10163   2.919   3.295   7.485  0.2720  0.5536  0.8248
 1803Sol     MW10164   2.957   3.316   7.406  0.6221  0.7261 -0.0740
 1804Sol     OW10165   2.526   2.256   8.247  0.8235 -0.1356  0.2058
 1804Sol     HW10166   2.469   2.203   8.190  0.2505 -0.5801  1.1747
 1804Sol     HW10167   2.606   2.268   8.196  0.1498 -0.1503 -0.8734
 1804Sol     MW10168   2.528   2.252   8.238 -0.3380  0.7734  0.3147
 1805Sol     OW10169   2.667   1.522   6.352  0.1666  0.3335 -0.3055
 1805Sol     HW10170   2.625   1.454   6.404  1.5122 -0.2123  0.1042
 1805Sol     HW10171   2.717   1.473   6.286  0.7898  0.9228 -0.2803
 1805Sol     MW10172   2.668   1.512   6.351 -0.6247 -0.5136 -0.4144
 1806Sol     OW10173   1.747   2.240   2.605  0.0400 -0.0603  0.1264
 1806Sol     HW10174   1.758   2.148   2.581  0.5547 -0.2613  1.1389
 1806Sol     HW10175   1.835   2.277   2.600 -0.0122  0.1442  0.6692
 1806Sol     MW10176   1.755   2.235   2.602  0.7547 -0.2908  0.6409
 1807Sol     OW10177   1.458   0.621   4.829  0.0528  0.0398 -0.6722
 1807Sol     HW10178   1.400   0.547   4.812 -1.1131  0.5867  0.8864
 1807Sol     HW10179   1.546   0.583   4.825 -0.3631 -0.7419 -3.2484
 1807Sol     MW10180   1.461   0.611   4.827  0.0397 -0.1932  0.7206
 1808Sol     OW10181   2.409   0.725   2.439 -0.3885  0.0195 -0.0348
 1808Sol     HW10182   2.446   0.777   2.510 -0.0096 -1.0254  0.5424
 1808Sol     HW10183   2.468   0.741   2.365  0.4156 -0.4985  0.4771
 1808Sol     MW10184   2.418   0.731   2.438  0.3949  0.1328  0.2149
 1809Sol     OW10185   2.373   0.097   7.342  0.3977  1.0517  0.4382
 1809Sol     HW10186   2.346   0.185   7.317  0.2854  1.3445  1.5359
 1809Sol     HW10187   2.342   0.040   7.271 -0.7939  1.7158  0.4183
 1809Sol     MW10188   2.368   0.099   7.334  0.3163 -0.0827  0.7743
 1810Sol     OW10189   2.812   0.604   2.540  0.5222 -0.1354 -0.7282
 1810Sol     HW10190   2.727   0.584   2.577  0.6483  1.0421  0.2194
 1810Sol     HW10191   2.841   0.522   2.500 -0.0908 -1.1484  0.8546
 1810Sol     MW10192   2.807   0.595   2.540 -0.0969 -0.0834 -0.8268
 1811Sol     OW10193   1.562   3.167   7.068  0.0148 -0.2282  0.0939
 1811Sol     HW10194   1.548   3.075   7.091 -1.7045 -0.4189 -1.5616
 1811Sol     HW10195   1.504   3.182   6.994  0.8646  1.9987 -0.1598
 1811Sol     MW10196   1.555   3.160   7.064 -0.2270  0.1609 -0.1161
 1812Sol     OW10197   1.557   3.106   8.866 -0.5335 -0.4284  0.0150
 1812Sol     HW10198   1.612   3.064   8.932  1.6905  0.9348 -0.9106
 1812Sol     HW10199   1.479   3.051   8.861  0.4647 -2.0627  1.8212
 1812Sol     MW10200   1.555   3.098   8.871 -0.3891 -1.1298  0.1744
 1813Sol     OW10201   3.238   1.139   2.992 -0.0842  0.4836  0.0539
 1813Sol     HW10202   3.144   1.123   2.985  0.5177 -2.8315 -1.2193
 1813Sol     HW10203   3.257   1.198   2.919 -1.1583  1.1999  0.3410
 1813Sol     MW10204   3.231   1.143   2.984  0.8090 -0.1007 -0.4282
 1814Sol     OW10205   0.650   2.083   7.745  0.1817  0.6751 -0.1421
 1814Sol     HW10206   0.663   2.096   7.651  2.9290  0.6881  0.2010
 1814Sol     HW10207   0.713   2.142   7.786 -1.6037  1.3170  1.7481
 1814Sol     MW10208   0.657   2.090   7.740 -0.5374  0.3425 -0.2455
 1815Sol     OW10209   0.935   3.179   1.380  0.2753 -0.5308  0.7105
 1815Sol     HW10210   0.856   3.148   1.423 -1.8543  1.6361 -1.4759
 1815Sol     HW10211   0.967   3.249   1.438  0.8977 -1.7441  1.8490
 1815Sol     MW10212   0.931   3.183   1.389 -0.0615  0.0284  0.6189
 1816Sol     OW10213   2.567   2.766   9.256  0.2403 -0.4905  0.0850
 1816Sol     HW10214   2.579   2.794   9.347  0.4824 -0.8523  0.1677
 1816Sol     HW10215   2.494   2.819   9.223 -0.7093 -1.2846  0.8850
 1816Sol     MW10216   2.562   2.773   9.261 -0.0598  0.3203 -0.3584
 1817Sol     OW10217   0.112   1.434   3.523  0.0315 -0.2594  0.0042
 1817Sol     HW10218   0.172   1.479   3.582 -1.5773  0.8774  0.8159
 1817Sol     HW10219   0.165   1.410   3.447  1.4325  0.9219  0.5954
 1817Sol     MW10220   0.122   1.436   3.522 -0.1495  0.0682  0.2238
 1818Sol     OW10221   1.414   1.833   7.727  0.2567  0.3445  0.0750
 1818Sol     HW10222   1.331   1.837   7.774 -0.8041 -0.4461 -1.6683
 1818Sol     HW10223   1.431   1.923   7.701  0.3668  0.6338  1.1260
 1818Sol     MW10224   1.408   1.841   7.729 -0.1911 -0.2963  0.4390
 1819Sol     OW10225   1.226   2.407   5.223  0.4572  0.2038  0.2302
 1819Sol     HW10226   1.223   2.362   5.307 -1.4697 -1.0445 -0.4507
 1819Sol     HW10227   1.148   2.462   5.222  0.0231 -0.4047 -1.0429
 1819Sol     MW10228   1.218   2.408   5.230  0.0560 -0.2411 -0.2620
 1820Sol     OW10229   2.503   0.598   5.897  0.1140  0.5963 -0.9322
 1820Sol     HW10230   2.590   0.628   5.870  0.2947  1.4954  0.5823
 1820Sol     HW10231   2.459   0.678   5.926 -0.2807 -0.2469  0.8000
 1820Sol     MW10232   2.507   0.608   5.897 -0.5644  0.4984  0.0333
 1821Sol     OW10233   0.271   1.747   1.875 -0.4016 -0.3170  0.8041
 1821Sol     HW10234   0.302   1.662   1.843 -0.5523  0.0432 -0.3159
 1821Sol     HW10235   0.351   1.799   1.884 -0.3704 -0.3825  0.9090
 1821Sol     MW10236   0.281   1.744   1.873  0.0382  0.4833 -0.4019
 1822Sol     OW10237   1.609   1.528   8.613 -0.0600  0.4333  0.3756
 1822Sol     HW10238   1.676   1.475   8.656 -0.5148  1.1040  1.9543
 1822Sol     HW10239   1.530   1.476   8.617  0.1272  0.0776 -0.5528
 1822Sol     MW10240   1.608   1.519   8.617 -0.5444 -0.3314  0.7352
 1823Sol     OW10241   0.087   2.542  10.003 -0.4920  0.5475 -0.8381
 1823Sol     HW10242   0.109   2.627   9.965 -1.7573  2.1164  1.7729
 1823Sol     HW10243   0.154   2.528  10.070 -0.2222 -0.5678 -1.3391
 1823Sol     MW10244   0.095   2.548  10.006  0.4069 -0.0641 -0.2691
 1824Sol     OW10245   1.595   0.224   6.159 -0.5606  0.2348  0.0468
 1824Sol     HW10246   1.660   0.166   6.198  1.3043  1.5745 -0.9766
 1824Sol     HW10247   1.637   0.311   6.160 -1.7727  0.8663 -1.8952
 1824Sol     MW10248   1.605   0.227   6.162  0.1497  0.8673  0.5685
 1825Sol     OW10249   1.499   2.368   5.221  0.1536 -0.3347  0.2833
 1825Sol     HW10250   1.524   2.433   5.287 -1.1077 -1.1882  1.6457
 1825Sol     HW10251   1.403   2.369   5.223  0.1048 -0.2738 -1.6551
 1825Sol     MW10252   1.492   2.374   5.227 -0.4068 -0.4202  0.9917
 1826Sol     OW10253   2.698   2.427   2.704 -0.0519  0.0090 -0.2215
 1826Sol     HW10254   2.664   2.382   2.627  1.7946 -1.0317 -0.4516
 1826Sol     HW10255   2.681   2.367   2.776  2.2286 -0.9965 -0.4981
 1826Sol     MW10256   2.693   2.418   2.703  0.0282  0.2448  0.9752
 1827Sol     OW10257   0.112   1.345   8.441 -0.2809 -0.3934  0.7982
 1827Sol     HW10258   0.158   1.353   8.525 -0.5112 -0.7676  0.9642
 1827Sol     HW10259   0.021   1.369   8.461 -0.0112  1.0667  0.3124
 1827Sol     MW10260   0.108   1.348   8.450  0.3281 -0.4392  0.0096
 1828Sol     OW10261   3.029   2.622   8.926 -0.1555 -0.4124  0.3900
 1828Sol     HW10262   2.992   2.567   8.994 -0.5589 -0.6356 -0.0107
 1828Sol     HW10263   2.953   2.662   8.883  0.0375 -1.2570 -0.7502
 1828Sol     MW10264   3.019   2.621   8.928 -0.0893 -0.6455  0.5898
 1829Sol     OW10265   2.375   0.621   4.696  0.5809  0.0518  0.8569
 1829Sol     HW10266   2.460   0.593   4.732  1.5998  0.6768 -1.0076
 1829Sol     HW10267   2.322   0.542   4.696  1.4119 -0.5191  1.3309
 1829Sol     MW10268   2.378   0.611   4.700  0.0877  0.0086 -0.1644
 1830Sol     OW10269   0.410   3.418   6.847  0.1617 -0.8066 -0.3926
 1830Sol     HW10270   0.349   3.356   6.806 -1.5774  1.8178 -1.9384
 1830Sol     HW10271   0.477   3.433   6.781  0.6541 -1.1151  0.0311
 1830Sol     MW10272   0.410   3.414   6.837 -0.2087  0.3320 -0.8209
 1831Sol     OW10273   0.452   1.126   2.617 -0.3488 -0.7530  0.0442
 1831Sol     HW10274   0.543   1.120   2.644 -0.7223 -0.1399  1.4970
 1831Sol     HW10275   0.453   1.182   2.540  0.5252 -1.0125 -0.1409
 1831Sol     MW10276   0.460   1.130   2.613  0.4221 -0.1835 -0.4255
 1832Sol     OW10277   3.001   2.062   2.053  0.1101 -0.5820  0.4929
 1832Sol     HW10278   3.013   2.020   1.968  0.8883 -0.8290  0.7140
 1832Sol     HW10279   2.918   2.108   2.046  0.2279 -0.4997 -0.4423
 1832Sol     MW10280   2.995   2.062   2.045  0.2934  0.1696 -0.4427
 1833Sol     OW10281   3.079   1.557   1.667  0.2301 -0.1566 -0.6615
 1833Sol     HW10282   3.124   1.497   1.727  0.9541 -2.3452 -3.2466
 1833Sol     HW10283   2.987   1.531   1.672 -0.1377  1.4541  1.4390
 1833Sol     MW10284   3.075   1.549   1.673  0.2078  0.0276 -0.4116
 1834Sol     OW10285   1.202   0.612   7.878  0.0015 -0.2983 -0.3824
 1834Sol     HW10286   1.153   0.692   7.858 -0.9162 -0.8381 -0.3145
 1834Sol     HW10287   1.142   0.560   7.932  0.0299 -1.6877 -1.6636
 1834Sol     MW10288   1.192   0.615   7.881  0.2714  0.5354  1.1349
 1835Sol     OW10289   1.598   0.159   8.794  0.3329 -0.2725  0.0625
 1835Sol     HW10290   1.570   0.251   8.792  0.9071 -0.1151 -1.5710
 1835Sol     HW10291   1.694   0.164   8.801  0.2781 -0.7667  1.2178
 1835Sol     MW10292   1.604   0.168   8.794  0.3724 -0.4401  0.7221
 1836Sol     OW10293   1.096   2.551   8.853 -0.0274  0.4800  0.9255
 1836Sol     HW10294   1.045   2.560   8.933 -1.1593  1.7103  0.0853
 1836Sol     HW10295   1.055   2.479   8.805 -0.1764  0.6253  0.8359
 1836Sol     MW10296   1.088   2.546   8.856  0.1917  0.3622 -0.0443
 1837Sol     OW10297   2.573   2.493   4.509 -0.3124  0.0161  0.0422
 1837Sol     HW10298   2.482   2.512   4.489 -0.6240  0.4631  1.8134
 1837Sol     HW10299   2.583   2.514   4.602  1.2847 -1.1677  0.1709
 1837Sol     MW10300   2.566   2.496   4.516  0.5460 -0.4362 -0.8183
 1838Sol     OW10301   1.872   2.778   6.664  0.1975  0.3616  0.0194
 1838Sol     HW10302   1.898   2.763   6.755  0.6504  1.9848  0.1845
 1838Sol     HW10303   1.813   2.854   6.669 -0.4948 -0.1128 -0.9394
 1838Sol     MW10304   1.869   2.784   6.673  0.3963 -0.5214 -0.1026
 1839Sol     OW10305   0.432   0.385   4.216  0.2549 -0.6364 -0.0146
 1839Sol     HW10306   0.377   0.380   4.138 -0.0394  0.0263  0.1472
 1839Sol     HW10307   0.480   0.302   4.217  0.0173 -0.7854 -0.7169
 1839Sol     MW10308   0.432   0.377   4.209  0.1103 -0.1279  0.1820
 1840Sol     OW10309   1.906   1.881   9.649 -0.0698 -0.1614 -0.0733
 1840Sol     HW10310   1.861   1.963   9.628  0.0663 -0.1001 -0.1229
 1840Sol     HW10311   1.855   1.814   9.603  1.2448  0.1593 -2.0438
 1840Sol     MW10312   1.897   1.882   9.643 -0.2022 -0.6675 -0.4685
 1841Sol     OW10313   1.281   2.353   3.707 -0.1075 -0.1359  0.0126
 1841Sol     HW10314   1.240   2.290   3.766  0.2001 -1.4210 -1.1186
 1841Sol     HW10315   1.214   2.373   3.642 -0.5269  1.4593  0.9061
 1841Sol     MW10316   1.272   2.349   3.706 -0.1517  0.4102  0.3003
 1842Sol     OW10317   2.074   1.092   5.082 -0.5711  0.2512  0.4000
 1842Sol     HW10318   2.112   1.163   5.134  1.6675 -1.2391  0.8708
 1842Sol     HW10319   2.125   1.090   5.001 -3.0546  1.5655 -1.2765
 1842Sol     MW10320   2.082   1.098   5.079 -0.0609 -0.3873  0.1344
 1843Sol     OW10321   1.164   2.169   9.329  0.0167  0.2447  0.6854
 1843Sol     HW10322   1.097   2.194   9.266  0.3614 -0.2273  0.1244
 1843Sol     HW10323   1.153   2.230   9.402 -0.4195  0.7551  0.1932
 1843Sol     MW10324   1.157   2.177   9.330  0.0204  0.3329 -0.4721
 1844Sol     OW10325   0.538   1.602   6.085 -0.2883  0.3791  0.1057
 1844Sol     HW10326   0.491   1.535   6.036 -1.6880  1.7452 -0.4336
 1844Sol     HW10327   0.496   1.603   6.171  0.3668 -0.0992  0.4371
 1844Sol     MW10328   0.530   1.596   6.089  0.6846  0.2924  0.1539
 1845Sol     OW10329   0.993   1.287   2.081 -0.2740 -0.5279 -0.7161
 1845Sol     HW10330   0.904   1.252   2.078 -0.5245 -0.0844  0.9328
 1845Sol     HW10331   0.982   1.382   2.086  0.1452 -0.6135  3.2062
 1845Sol     MW10332   0.984   1.293   2.081  0.0818  0.5712  0.3136
 1846Sol     OW10333   1.947   2.271   6.987  0.3141 -0.4177  0.0177
 1846Sol     HW10334   1.990   2.356   6.975 -0.5092 -0.1952 -1.4863
 1846Sol     HW10335   1.963   2.250   7.079  2.8549  0.0790 -0.2469
 1846Sol     MW10336   1.953   2.277   6.994 -0.0584  0.2243  0.1820
 1847Sol     OW10337   0.418   0.356   3.837 -0.5961 -0.2391 -0.3495
 1847Sol     HW10338   0.493   0.400   3.877  0.1714 -0.8277 -1.1183
 1847Sol     HW10339   0.352   0.354   3.906 -0.2088  1.0338  0.0706
 1847Sol     MW10340   0.419   0.360   3.846  0.3755  0.0686 -0.4447
 1848Sol     OW10341   0.816   2.778   2.536 -0.2084 -0.2998  0.1957
 1848Sol     HW10342   0.745   2.766   2.472  0.4566 -3.8799  0.0018
 1848Sol     HW10343   0.895   2.756   2.487  0.4998 -1.2384  1.7347
 1848Sol     MW10344   0.817   2.775   2.526 -0.4277 -0.2474  0.1172
 1849Sol     OW10345   2.603   1.022   7.794 -0.7796  0.1889  0.3324
 1849Sol     HW10346   2.675   0.963   7.815 -1.3435 -0.3600  0.7627
 1849Sol     HW10347   2.532   0.964   7.766 -1.0965  0.7101  0.0354
 1849Sol     MW10348   2.603   1.012   7.793  0.4737  0.6134  0.0243
 1850Sol     OW10349   0.888   0.429   4.889  0.1935  0.1734 -0.0096
 1850Sol     HW10350   0.816   0.464   4.942  0.4927 -0.3664  0.7664
 1850Sol     HW10351   0.872   0.335   4.887  0.8468  0.0635  0.1015
 1850Sol     MW10352   0.880   0.424   4.894 -0.0806  0.4258 -0.2080
 1851Sol     OW10353   1.996   1.533   5.468 -0.3045 -0.4440  0.2742
 1851Sol     HW10354   1.977   1.460   5.527 -0.5693  0.0302  0.7765
 1851Sol     HW10355   1.912   1.578   5.456 -0.0671  0.0038  0.2685
 1851Sol     MW10356   1.987   1.531   5.472  0.5289  0.1555 -0.8758
 1852Sol     OW10357   1.797   0.091   3.535  0.2192  0.3530 -0.3537
 1852Sol     HW10358   1.809   0.044   3.618  0.9083 -0.6147 -0.9888
 1852Sol     HW10359   1.852   0.169   3.544  1.2422 -0.3450 -0.3437
 1852Sol     MW10360   1.803   0.093   3.543  0.0295 -0.1171  0.5669
 1853Sol     OW10361   0.979   1.293   6.856 -0.2221  0.0807 -0.2089
 1853Sol     HW10362   0.921   1.250   6.920  0.9990 -2.4402 -0.7550
 1853Sol     HW10363   0.998   1.378   6.896 -2.2401 -0.0562  1.1690
 1853Sol     MW10364   0.975   1.297   6.865  0.0537  0.4626 -0.0757
 1854Sol     OW10365   2.126   2.539   8.562  0.3694 -0.3968  0.4609
 1854Sol     HW10366   2.220   2.523   8.570  0.3990 -0.0798  0.7611
 1854Sol     HW10367   2.115   2.575   8.475  0.3723 -1.5479 -0.0255
 1854Sol     MW10368   2.133   2.540   8.555  0.0788 -0.0074  0.2395
 1855Sol     OW10369   0.056   2.886   9.237 -0.0682 -0.0212 -0.3003
 1855Sol     HW10370  -0.001   2.829   9.186 -1.0697  1.4474 -0.8527
 1855Sol     HW10371   0.052   2.970   9.193 -1.0511  1.3233  2.2432
 1855Sol     MW10372   0.051   2.888   9.229  0.3619  0.0287 -0.6910
 1856Sol     OW10373   0.305   1.098   6.188 -0.2080  0.4702 -0.3869
 1856Sol     HW10374   0.357   1.098   6.107  0.3345  0.3048 -0.0467
 1856Sol     HW10375   0.366   1.131   6.254  0.3140 -2.2102  0.5379
 1856Sol     MW10376   0.315   1.101   6.186 -0.2640 -0.0216 -0.6255
 1857Sol     OW10377   0.499   1.240   6.371  0.1842  0.2516 -0.4498
 1857Sol     HW10378   0.562   1.185   6.418 -0.0870 -0.2447 -0.6570
 1857Sol     HW10379   0.552   1.307   6.329  0.5514 -0.0128 -0.4168
 1857Sol     MW10380   0.509   1.241   6.372 -0.6066  0.1687  0.5551
 1858Sol     OW10381   0.853   2.244   9.569  0.6322  0.1828  0.2778
 1858Sol     HW10382   0.799   2.236   9.491  0.6405 -0.1055  0.3016
 1858Sol     HW10383   0.856   2.338   9.587  0.8017  0.2675 -0.1877
 1858Sol     MW10384   0.849   2.251   9.563  0.7765  0.1218  0.2959
 1859Sol     OW10385   1.018   0.677   9.547  0.2991 -0.2564 -0.5534
 1859Sol     HW10386   0.997   0.636   9.463 -1.3712 -1.1523  0.2763
 1859Sol     HW10387   1.014   0.606   9.611  1.3549  0.4527  0.3230
 1859Sol     MW10388   1.016   0.667   9.545 -0.1578  0.1738  0.1086
 1860Sol     OW10389   1.880   1.683   1.418 -0.0627  0.3863 -0.2527
 1860Sol     HW10390   1.787   1.687   1.441  0.1558  0.7705  0.6030
 1860Sol     HW10391   1.905   1.774   1.402  0.0221  0.2175 -1.0649
 1860Sol     MW10392   1.874   1.691   1.419  0.1938 -0.0834 -0.2108
 1861Sol     OW10393   3.163   2.253   9.821  0.7698  0.1560 -0.3101
 1861Sol     HW10394   3.088   2.194   9.832 -0.2296  1.3748 -0.4490
 1861Sol     HW10395   3.237   2.205   9.858 -0.6867  0.2504  2.8946
 1861Sol     MW10396   3.163   2.243   9.825 -0.3399 -0.2332 -0.1874
 1862Sol     OW10397   1.135   1.963   4.773  0.3289  0.3997  0.2515
 1862Sol     HW10398   1.180   1.884   4.743  0.4723 -0.3479  2.3734
 1862Sol     HW10399   1.190   1.995   4.845 -1.7864  0.2521  1.9644
 1862Sol     MW10400   1.144   1.959   4.777  0.2445  0.0702 -0.1256
 1863Sol     OW10401   2.081   0.466   8.163  0.1829 -0.3227  0.3709
 1863Sol     HW10402   2.128   0.389   8.195 -2.3129 -2.1392 -0.1810
 1863Sol     HW10403   2.107   0.473   8.071  0.3637 -0.5685  0.4018
 1863Sol     MW10404   2.088   0.460   8.157 -0.5273  0.0320  0.4517
 1864Sol     OW10405   1.116   3.010   8.494  0.2147  0.5714  0.2638
 1864Sol     HW10406   1.142   2.953   8.566  1.1968 -0.1150 -0.6260
 1864Sol     HW10407   1.129   3.098   8.528 -0.3228  0.2683  1.2889
 1864Sol     MW10408   1.119   3.012   8.504  0.9393  0.8072  0.6761
 1865Sol     OW10409   1.633   3.315   9.198  0.4279 -0.9653  0.0406
 1865Sol     HW10410   1.588   3.231   9.205  1.1279 -1.4744 -1.3340
 1865Sol     HW10411   1.575   3.369   9.144 -1.1382  0.2422  2.8633
 1865Sol     MW10412   1.624   3.312   9.194  0.7440 -0.5028  0.4183
 1866Sol     OW10413   1.090   2.031   1.957 -0.3311 -0.3692 -0.3622
 1866Sol     HW10414   1.050   2.005   1.874  0.3999  0.4510 -0.9722
 1866Sol     HW10415   1.089   1.950   2.009  2.0984 -1.7150 -2.3176
 1866Sol     MW10416   1.086   2.021   1.955  0.2997  0.2463  0.3407
 1867Sol     OW10417   2.842   0.329   2.929 -0.6093 -0.2767 -0.0605
 1867Sol     HW10418   2.802   0.320   3.015  0.3133 -2.9558  0.1600
 1867Sol     HW10419   2.810   0.254   2.879 -0.6023  0.8606 -1.8470
 1867Sol     MW10420   2.836   0.321   2.932 -0.3332 -0.3810 -0.6532
 1868Sol     OW10421   0.795   0.289   7.010  0.7585  0.3890  0.4383
 1868Sol     HW10422   0.883   0.322   6.996  0.4634  0.0371 -2.6754
 1868Sol     HW10423   0.790   0.211   6.954 -1.7233  0.7812  0.0754
 1868Sol     MW10424   0.802   0.285   7.004  0.5887  0.0856 -0.1876
 1869Sol     OW10425   1.504   0.952   1.408 -0.0736  0.1523 -0.0556
 1869Sol     HW10426   1.570   0.987   1.468  0.6242 -1.9968  0.4763
 1869Sol     HW10427   1.501   1.014   1.336  0.8739  1.4705  1.0182
 1869Sol     MW10428   1.509   0.960   1.407 -0.1242  0.1972 -0.2946
 1870Sol     OW10429   2.752   2.561   3.861  0.1798  0.0457 -0.0401
 1870Sol     HW10430   2.837   2.595   3.833 -0.5969  0.8829 -1.4373
 1870Sol     HW10431   2.759   2.556   3.956  1.8775 -0.1295 -0.1539
 1870Sol     MW10432   2.760   2.564   3.867  0.7228 -0.2024 -0.2246
 1871Sol     OW10433   3.214   2.889   3.417  0.3393 -0.1576 -0.1094
 1871Sol     HW10434   3.156   2.963   3.396  1.0514  0.4067 -0.1153
 1871Sol     HW10435   3.297   2.913   3.376  0.9597 -0.3367  1.0475
 1871Sol     MW10436   3.216   2.898   3.411 -0.4754  0.6718 -0.3327
 1872Sol     OW10437   2.624   2.279  10.002  0.2572 -0.1729 -0.2536
 1872Sol     HW10438   2.541   2.326  10.009  0.4094 -0.0583  0.9327
 1872Sol     HW10439   2.667   2.317   9.926 -1.1870 -0.8939 -1.4517
 1872Sol     MW10440   2.620   2.287   9.996 -0.0958  0.3384 -0.2541
 1873Sol     OW10441   0.559   3.036   2.746  0.2324 -0.7653  0.3913
 1873Sol     HW10442   0.535   3.000   2.660  1.0428 -0.8451  0.2001
 1873Sol     HW10443   0.651   3.014   2.757  0.4169  0.1786  0.8108
 1873Sol     MW10444   0.565   3.031   2.739 -0.2375 -0.1773 -0.1210
 1874Sol     OW10445   0.314   0.885   2.601 -0.2365  0.5458  0.2029
 1874Sol     HW10446   0.378   0.818   2.579  0.1588  0.9247  0.2008
 1874Sol     HW10447   0.357   0.967   2.580 -0.1846  0.8747  1.5242
 1874Sol     MW10448   0.324   0.886   2.597  0.2621  0.1107 -0.0743
 1875Sol     OW10449   2.502   1.192   8.946 -0.2071  0.1621  0.6131
 1875Sol     HW10450   2.540   1.134   9.012  1.0943  0.8342  0.4809
 1875Sol     HW10451   2.528   1.280   8.973 -0.5398  0.5265 -0.2204
 1875Sol     MW10452   2.508   1.194   8.954 -0.7440  0.3657 -0.6219
 1876Sol     OW10453   1.404   1.576   2.424  0.5723  0.2654  0.3859
 1876Sol     HW10454   1.379   1.539   2.339 -1.3531  2.8915 -0.2506
 1876Sol     HW10455   1.360   1.520   2.489 -1.1372  0.5265 -0.5103
 1876Sol     MW10456   1.397   1.567   2.422  0.4953 -0.1294 -0.2146
 1877Sol     OW10457   1.245   2.836   7.716  0.1868  0.5306 -0.1182
 1877Sol     HW10458   1.324   2.823   7.768 -0.1743  1.9197  0.7820
 1877Sol     HW10459   1.274   2.888   7.641  0.7945 -1.8237 -1.5958
 1877Sol     MW10460   1.254   2.840   7.714  0.0352 -0.3667 -0.3165
 1878Sol     OW10461   0.537   2.372   2.208 -0.1638 -0.5745  0.3355
 1878Sol     HW10462   0.443   2.376   2.228  0.2598  0.3046  2.2546
 1878Sol     HW10463   0.580   2.396   2.290  1.7584 -1.3291 -0.4241
 1878Sol     MW10464   0.532   2.374   2.217 -0.7324  0.0303 -0.0693
 1879Sol     OW10465   1.166   2.597   1.895  0.1522 -0.5400  0.3746
 1879Sol     HW10466   1.159   2.525   1.957 -0.3899 -1.3405 -0.6063
 1879Sol     HW10467   1.222   2.564   1.825 -2.2410 -1.0029 -1.4061
 1879Sol     MW10468   1.170   2.588   1.894  0.6300 -0.0780  0.5197
 1880Sol     OW10469   1.801   0.764   2.683 -0.0810  0.3669 -0.0789
 1880Sol     HW10470   1.865   0.835   2.686 -1.2703  1.4333  0.6349
 1880Sol     HW10471   1.851   0.687   2.655  1.5160  1.1555  0.5486
 1880Sol     MW10472   1.811   0.763   2.681 -0.6494 -0.5110  0.6490
 1881Sol     OW10473   3.226   1.052   6.854  0.4260 -0.4477 -0.0537
 1881Sol     HW10474   3.181   1.033   6.772  0.3433 -0.7815  0.0691
 1881Sol     HW10475   3.188   0.991   6.917  1.1106 -0.7902  0.0290
 1881Sol     MW10476   3.219   1.045   6.852  0.3454  0.0123  0.3227
 1882Sol     OW10477   2.773   3.171   9.110 -0.2347 -0.5209 -0.3954
 1882Sol     HW10478   2.855   3.215   9.130 -1.2673  0.7189  1.3212
 1882Sol     HW10479   2.779   3.086   9.155  0.0344 -0.3635 -0.1385
 1882Sol     MW10480   2.781   3.167   9.116  0.3581 -0.2924 -0.6608
 1883Sol     OW10481   2.757   1.005   9.668  0.1643  0.0981  0.3336
 1883Sol     HW10482   2.686   0.960   9.624 -0.2821 -0.9254  2.0624
 1883Sol     HW10483   2.717   1.043   9.746  0.8950  2.0895 -0.2146
 1883Sol     MW10484   2.747   1.004   9.671 -0.5022  0.8396  0.3472
 1884Sol     OW10485   1.960   0.369   2.930 -0.4358 -0.3932  0.4730
 1884Sol     HW10486   1.956   0.349   3.023 -0.2728  0.9854  0.7864
 1884Sol     HW10487   1.922   0.457   2.923  0.8426  0.0833 -0.5756
 1884Sol     MW10488   1.956   0.375   2.938  0.0662 -0.1720 -0.1363
 1885Sol     OW10489   0.700   1.184   2.741 -0.4496 -0.2598  0.2535
 1885Sol     HW10490   0.686   1.205   2.834 -0.4780  1.7547 -0.1818
 1885Sol     HW10491   0.791   1.211   2.725 -0.5949 -0.1744 -0.4108
 1885Sol     MW10492   0.707   1.189   2.748 -0.5729 -0.2680  0.1015
 1886Sol     OW10493   1.373   0.422   7.091  0.5540  0.6231 -0.3422
 1886Sol     HW10494   1.413   0.410   7.176 -1.9257 -1.7058  0.5795
 1886Sol     HW10495   1.314   0.497   7.102 -0.0411  0.0921  0.1156
 1886Sol     MW10496   1.371   0.428   7.099 -0.7366  0.7364  0.4978
 1887Sol     OW10497   2.134   1.419   6.895 -0.2510 -0.0188 -0.1271
 1887Sol     HW10498   2.216   1.465   6.913 -0.5998  0.9045 -0.9179
 1887Sol     HW10499   2.069   1.462   6.950 -0.2864 -0.5163  0.2268
 1887Sol     MW10500   2.136   1.427   6.902 -0.4087 -0.4127  0.8158
 1888Sol     OW10501   0.070   3.196   5.109  0.5871  0.0886 -0.8367
 1888Sol     HW10502  -0.021   3.172   5.094  0.0494  1.4364  0.1760
 1888Sol     HW10503   0.072   3.291   5.099  2.2187 -0.1003 -2.5018
 1888Sol     MW10504   0.062   3.203   5.107  0.3423 -0.5601 -0.4210
 1889Sol     OW10505   0.962   0.027   9.521  0.0360  0.2065  0.2622
 1889Sol     HW10506   1.037  -0.003   9.573  0.7017  1.8540  0.3037
 1889Sol     HW10507   0.994   0.026   9.431 -0.5152 -0.8935  0.0796
 1889Sol     MW10508   0.972   0.024   9.518 -0.2840 -0.1989 -0.3028
 1890Sol     OW10509   2.265   0.925   8.627  0.3871 -0.2872 -0.2618
 1890Sol     HW10510   2.315   1.007   8.635 -2.4157  1.2337  2.4072
 1890Sol     HW10511   2.266   0.888   8.715 -0.4052 -1.9422 -0.9418
 1890Sol     MW10512   2.270   0.929   8.635  0.3152  0.1415  0.1564
 1891Sol     OW10513   2.805   1.245   7.479 -0.5228  0.5738  0.1263
 1891Sol     HW10514   2.834   1.158   7.451  3.7125  1.3040  1.9020
 1891Sol     HW10515   2.863   1.305   7.433 -1.4380  2.3315  1.2451
 1891Sol     MW10516   2.813   1.242   7.472  0.2616 -0.6734 -0.4365
 1892Sol     OW10517   1.788   2.966   2.343  0.2758  0.0424  0.3671
 1892Sol     HW10518   1.882   2.980   2.344  0.0899  1.5097 -0.4340
 1892Sol     HW10519   1.777   2.871   2.339  1.6976 -0.1636  1.3103
 1892Sol     MW10520   1.795   2.959   2.343  0.0578  0.6051  0.2430
 1893Sol     OW10521   0.392   1.071   8.810 -0.2333  0.4173  0.3528
 1893Sol     HW10522   0.431   1.078   8.722  0.3179  0.7251  0.6169
 1893Sol     HW10523   0.451   1.012   8.857  0.3562  1.5092  0.9954
 1893Sol     MW10524   0.401   1.066   8.806 -1.0297 -0.4052  0.6738
 1894Sol     OW10525   2.402   1.527   3.716 -0.0626  0.0281  0.2694
 1894Sol     HW10526   2.493   1.537   3.690 -0.2650  0.8282 -0.1711
 1894Sol     HW10527   2.403   1.461   3.785  0.9516  0.7090  0.9187
 1894Sol     MW10528   2.410   1.522   3.719  0.0887  0.3484 -0.5314
 1895Sol     OW10529   0.577   1.463   9.852 -0.3999  0.5259 -0.0477
 1895Sol     HW10530   0.506   1.402   9.833  0.2679 -0.4213  0.4267
 1895Sol     HW10531   0.655   1.407   9.857  0.5068  1.6406 -1.3689
 1895Sol     MW10532   0.578   1.452   9.851  0.1749  0.2825  0.1492
 1896Sol     OW10533   1.208   2.786   8.698 -0.3884  0.6235 -0.8407
 1896Sol     HW10534   1.157   2.721   8.746 -0.5972  1.7100  0.4493
 1896Sol     HW10535   1.261   2.735   8.637 -0.9067 -0.7092 -0.1997
 1896Sol     MW10536   1.208   2.776   8.697  0.3840 -0.0949 -0.6079
 1897Sol     OW10537   2.989   0.643   2.152 -0.1535 -0.0904  0.3066
 1897Sol     HW10538   3.029   0.652   2.239 -0.0448  0.1759  0.2283
 1897Sol     HW10539   2.911   0.697   2.156  0.7727  1.3144 -0.3298
 1897Sol     MW10540   2.986   0.648   2.160  0.1450  0.8486 -0.5844
 1898Sol     OW10541   0.431   1.346   3.360  0.5073 -0.1273  0.0050
 1898Sol     HW10542   0.401   1.399   3.287 -3.6421 -0.6483  1.2215
 1898Sol     HW10543   0.406   1.257   3.338 -0.1755 -0.3856  1.7409
 1898Sol     MW10544   0.426   1.343   3.352 -0.6108 -0.3296 -0.0424
 1899Sol     OW10545   0.949   3.168   9.423  0.6493 -0.5660 -0.1786
 1899Sol     HW10546   0.919   3.254   9.451  0.1483  0.1952 -2.8618
 1899Sol     HW10547   1.027   3.186   9.370  1.5811 -1.9234  0.7091
 1899Sol     MW10548   0.953   3.177   9.421 -0.0514  0.2075  0.1975
 1900Sol     OW10549   2.580   2.116   5.041  0.1521 -0.0216  0.3616
 1900Sol     HW10550   2.673   2.094   5.041  0.5325  1.5300  0.8726
 1900Sol     HW10551   2.574   2.196   5.093 -1.1692  1.1292 -1.5174
 1900Sol     MW10552   2.588   2.121   5.046  0.2477  0.3126 -0.6148
 1901Sol     OW10553   0.238   2.197   1.433 -0.3147  0.3165 -0.5268
 1901Sol     HW10554   0.237   2.275   1.377  2.7782  0.4884 -0.4643
 1901Sol     HW10555   0.308   2.214   1.497  1.1880 -2.8926 -1.1851
 1901Sol     MW10556   0.245   2.206   1.433  0.2891  0.4136 -0.4128
 1902Sol     OW10557   2.091   2.154   2.823  0.0482  0.3227 -0.0707
 1902Sol     HW10558   2.095   2.061   2.845 -1.8238  0.7183  2.0388
 1902Sol     HW10559   2.182   2.179   2.806  0.8916 -1.2689  2.0142
 1902Sol     MW10560   2.100   2.148   2.823  0.3438 -0.6494  0.3374
 1903Sol     OW10561   1.716   0.481   4.113 -0.1745 -0.2893  0.4666
 1903Sol     HW10562   1.786   0.424   4.143 -0.0028 -0.1474  0.3325
 1903Sol     HW10563   1.757   0.538   4.047 -0.3080  0.0972  0.7155
 1903Sol     MW10564   1.726   0.481   4.109  0.2275  0.4452  1.0024
 1904Sol     OW10565   0.587   2.615   2.093  0.6094 -0.8253 -0.3180
 1904Sol     HW10566   0.558   2.529   2.122  2.2238 -0.2220  3.3092
 1904Sol     HW10567   0.682   2.614   2.107  0.6204  1.5770 -0.0705
 1904Sol     MW10568   0.593   2.607   2.097 -0.0745  0.2634  0.2877
 1905Sol     OW10569   0.305   0.043   7.814 -0.7201  0.2233 -0.2268
 1905Sol     HW10570   0.297   0.136   7.836  0.2526  0.7015 -1.8062
 1905Sol     HW10571   0.246   0.031   7.739 -0.4503 -0.3080 -0.3554
 1905Sol     MW10572   0.299   0.050   7.809  0.7465 -0.0854 -0.0010
 1906Sol     OW10573   3.172   1.970   8.300 -0.5511  0.4964 -0.6111
 1906Sol     HW10574   3.087   2.012   8.291 -1.4752 -1.5606 -1.9635
 1906Sol     HW10575   3.198   1.950   8.210  1.2899  0.9527 -0.1885
 1906Sol     MW10576   3.167   1.972   8.291  0.0356  0.5906  0.0943
 1907Sol     OW10577   1.674   3.173   3.475  0.5888  0.1684 -0.4403
 1907Sol     HW10578   1.763   3.205   3.487  1.7365 -1.9683 -2.7572
 1907Sol     HW10579   1.683   3.077   3.477 -1.3817 -0.0875 -2.3249
 1907Sol     MW10580   1.683   3.167   3.477  0.5402 -0.3565 -0.1194
 1908Sol     OW10581   1.182   0.494   3.436  0.1863 -0.2344  0.1276
 1908Sol     HW10582   1.253   0.545   3.476 -1.6858  1.6773  1.0766
 1908Sol     HW10583   1.134   0.458   3.511 -1.2465  0.4449 -0.4463
 1908Sol     MW10584   1.184   0.495   3.447  0.6447 -0.0857 -0.2906
 1909Sol     OW10585   2.275   2.919   7.769  0.0998  0.6006 -0.4112
 1909Sol     HW10586   2.295   2.874   7.851  1.3163  1.8595 -0.0091
 1909Sol     HW10587   2.190   2.960   7.784  0.9619  2.0128  0.7361
 1909Sol     MW10588   2.269   2.918   7.778 -0.7310 -0.7164 -0.3187
 1910Sol     OW10589   2.626   2.777   5.312  0.3771  0.2149 -0.2797
 1910Sol     HW10590   2.642   2.736   5.396 -1.5465  0.7497  0.3856
 1910Sol     HW10591   2.540   2.819   5.322  0.1448  0.3216 -2.4861
 1910Sol     MW10592   2.620   2.777   5.320  0.4495  0.5230 -0.1047
 1911Sol     OW10593   2.864   0.471   4.826 -0.6524 -0.3490 -0.0157
 1911Sol     HW10594   2.779   0.512   4.809 -0.3035  0.2940 -0.2071
 1911Sol     HW10595   2.916   0.539   4.869 -0.0434 -0.5573 -0.4128
 1911Sol     MW10596   2.861   0.481   4.828  0.0164  0.1651  0.3013
 1912Sol     OW10597   2.686   2.826   4.884  0.5358  0.3963  0.0293
 1912Sol     HW10598   2.652   2.897   4.938  0.5464  0.0167  0.5321
 1912Sol     HW10599   2.779   2.844   4.876  0.5982  0.2499  0.4404
 1912Sol     MW10600   2.691   2.834   4.888  0.2431 -0.6549  0.6315
 1913Sol     OW10601   1.621   2.623   2.860  0.3633  0.3435  0.8074
 1913Sol     HW10602   1.700   2.677   2.858 -0.0782  1.0547  1.9811
 1913Sol     HW10603   1.552   2.683   2.891 -0.4106 -0.5519  0.8330
 1913Sol     MW10604   1.622   2.634   2.862  0.3173 -0.5760  0.2990
 1914Sol     OW10605   0.803   0.170   4.807  0.1526  0.3288 -0.7176
 1914Sol     HW10606   0.761   0.215   4.734 -0.0506  0.3611 -0.5828
 1914Sol     HW10607   0.737   0.170   4.877  0.9185  1.7498  0.0388
 1914Sol     MW10608   0.793   0.174   4.807 -0.1534  0.3315 -0.8185
 1915Sol     OW10609   2.200   0.487   4.989 -0.2820 -0.7121 -0.0289
 1915Sol     HW10610   2.239   0.447   4.911  0.5965 -1.1020  0.6084
 1915Sol     HW10611   2.137   0.422   5.020  0.8184 -1.4147  0.7451
 1915Sol     MW10612   2.198   0.478   4.985 -0.3213 -0.0518  0.5304
 1916Sol     OW10613   0.132   0.038   7.582  0.2504 -0.0344 -0.2987
 1916Sol     HW10614   0.195   0.071   7.518  0.7583 -0.9272 -0.2851
 1916Sol     HW10615   0.064  -0.004   7.530  0.3147 -0.1645 -0.2798
 1916Sol     MW10616   0.132   0.037   7.571 -0.1878  0.4160 -0.0214
 1917Sol     OW10617   2.479   0.778   3.907  0.0642  0.0585  0.2252
 1917Sol     HW10618   2.510   0.744   3.991  1.5961  0.4577 -0.1530
 1917Sol     HW10619   2.455   0.701   3.857 -1.1299 -0.1646  1.1342
 1917Sol     MW10620   2.480   0.768   3.910  0.9832  0.4965  0.3214
 1918Sol     OW10621   3.307   1.707   7.938 -0.2344  0.2762 -0.0906
 1918Sol     HW10622   3.402   1.719   7.936 -0.3366  1.0450 -0.5387
 1918Sol     HW10623   3.290   1.640   7.871  0.0562 -0.3443  0.4530
 1918Sol     MW10624   3.314   1.702   7.932 -0.8661 -0.3727 -0.4650
 1919Sol     OW10625   1.284   0.820   4.903 -0.6365 -0.1801 -0.4693
 1919Sol     HW10626   1.360   0.763   4.893 -0.7197 -0.1750 -1.1540
 1919Sol     HW10627   1.214   0.761   4.931 -0.0750  0.0206  1.4141
 1919Sol     MW10628   1.285   0.809   4.905 -0.8667 -0.3615  0.7550
 1920Sol     OW10629   0.411   2.606   5.918  0.2735 -0.3611 -0.4554
 1920Sol     HW10630   0.437   2.640   5.831 -1.1622 -1.0319 -1.1590
 1920Sol     HW10631   0.326   2.565   5.903  0.9429 -2.2611  0.8815
 1920Sol     MW10632   0.406   2.606   5.909  0.1135 -0.2884 -0.1318
 1921Sol     OW10633   0.973   2.891   5.164 -0.0913  0.6321 -1.1354
 1921Sol     HW10634   1.024   2.943   5.102 -1.4521  0.9846 -1.9774
 1921Sol     HW10635   1.038   2.849   5.219  1.1153  1.0770 -2.1980
 1921Sol     MW10636   0.983   2.892   5.163 -0.6734 -0.5205  0.6342
 1922Sol     OW10637   1.005   3.180   4.452 -0.0976 -0.3627 -0.1402
 1922Sol     HW10638   1.067   3.153   4.384  0.3327  2.4941 -0.9975
 1922Sol     HW10639   1.058   3.189   4.531  0.1911 -0.0250 -0.3659
 1922Sol     MW10640   1.015   3.179   4.453 -0.3472 -0.3467  0.3674
 1923Sol     OW10641   2.187   1.878   5.138  0.7129  0.1664  0.1379
 1923Sol     HW10642   2.279   1.906   5.147  0.7372  0.1253  0.0079
 1923Sol     HW10643   2.137   1.947   5.182  0.7825  0.3617 -0.0878
 1923Sol     MW10644   2.191   1.887   5.143  0.3150 -0.1920 -0.1883
 1924Sol     OW10645   1.119   0.278   2.756  0.2207  0.2100  0.0967
 1924Sol     HW10646   1.111   0.217   2.830  0.7117 -1.5774 -1.2970
 1924Sol     HW10647   1.040   0.331   2.760 -0.1743 -0.4456  1.3821
 1924Sol     MW10648   1.111   0.278   2.763  0.5220  0.3650 -0.7090
 1925Sol     OW10649   1.376   3.218   9.600  0.5659 -0.0142 -0.1020
 1925Sol     HW10650   1.447   3.270   9.563  0.0941  1.7880  1.4455
 1925Sol     HW10651   1.304   3.228   9.538  0.5679  0.9681  0.0397
 1925Sol     MW10652   1.376   3.224   9.591  0.5409  0.2708  0.2485
 1926Sol     OW10653   0.998   3.441   7.122  0.0946  0.0867  0.2722
 1926Sol     HW10654   1.026   3.415   7.210  1.0169 -1.0734 -0.3428
 1926Sol     HW10655   0.920   3.388   7.104  0.1350  0.0372  0.2425
 1926Sol     MW10656   0.994   3.434   7.128 -0.0229 -0.1831 -0.0775
 1927Sol     OW10657   0.217   2.465   6.246 -0.0532  0.0014  0.5192
 1927Sol     HW10658   0.204   2.498   6.157  1.5810  0.3969  0.3919
 1927Sol     HW10659   0.232   2.544   6.298 -0.8645 -0.2383  1.1283
 1927Sol     MW10660   0.218   2.475   6.243 -0.2943  0.4418 -0.3099
 1928Sol     OW10661   1.721   0.426   3.701 -0.3293 -0.0903 -0.2986
 1928Sol     HW10662   1.769   0.374   3.766 -0.3868 -1.6217 -1.4534
 1928Sol     HW10663   1.642   0.455   3.747 -0.1220 -0.7412  0.4777
 1928Sol     MW10664   1.718   0.424   3.711  0.2392 -0.2651  0.7207
 1929Sol     OW10665   0.521   3.439   7.101  0.0862 -0.0818  0.0824
 1929Sol     HW10666   0.491   3.525   7.131  2.5859  0.6775  0.5894
 1929Sol     HW10667   0.483   3.429   7.014  0.6173  2.0438 -0.4375
 1929Sol     MW10668   0.515   3.446   7.096 -0.4696  0.0652 -0.6757
 1930Sol     OW10669   3.123   1.159   8.488 -0.2937  0.0784  0.1459
 1930Sol     HW10670   3.094   1.068   8.497 -2.3245  0.6438 -0.3712
 1930Sol     HW10671   3.127   1.192   8.578 -1.5192  0.0525  0.2181
 1930Sol     MW10672   3.121   1.154   8.497 -0.3114 -0.1963  0.2723
 1931Sol     OW10673   3.272   1.888   2.247 -0.1300  0.1485  0.3617
 1931Sol     HW10674   3.194   1.878   2.193  0.3006  0.7701 -0.3782
 1931Sol     HW10675   3.343   1.849   2.196 -0.0014 -0.7147  1.1757
 1931Sol     MW10676   3.271   1.884   2.238 -0.2558  0.1892  0.0299
 1932Sol     OW10677   2.848   3.167   5.687 -0.1205  0.6409 -0.3283
 1932Sol     HW10678   2.828   3.218   5.608 -0.3520  0.0172 -0.6760
 1932Sol     HW10679   2.797   3.209   5.756  0.5194  1.5389 -0.3891
 1932Sol     MW10680   2.842   3.175   5.686 -0.7285  0.7022  0.1915
 1933Sol     OW10681   0.770   2.406   7.842  0.0906  1.2169 -0.7649
 1933Sol     HW10682   0.687   2.389   7.797 -0.4051 -1.3375  1.0139
 1933Sol     HW10683   0.788   2.326   7.891  2.1344  2.8001  1.2138
 1933Sol     MW10684   0.764   2.398   7.842 -0.1429 -0.3940 -0.4023
 1934Sol     OW10685   3.221   1.686   5.764  0.0479 -0.2710  0.2611
 1934Sol     HW10686   3.134   1.701   5.802 -0.4511  0.5369 -1.1788
 1934Sol     HW10687   3.275   1.757   5.799  0.4630 -1.4308  2.0885
 1934Sol     MW10688   3.218   1.694   5.771 -0.6077  0.6484  0.8862
 1935Sol     OW10689   0.536   2.008   6.836  0.6191  0.1805 -0.1317
 1935Sol     HW10690   0.528   2.081   6.897 -0.2379 -0.2228  0.2387
 1935Sol     HW10691   0.512   2.046   6.751 -0.8472  0.0772  0.2330
 1935Sol     MW10692   0.533   2.018   6.834 -0.3640  0.1507 -0.3101
 1936Sol     OW10693   1.542   0.386   8.376 -0.2304  0.0302  0.2317
 1936Sol     HW10694   1.526   0.355   8.287 -1.1794  0.6583  0.1682
 1936Sol     HW10695   1.629   0.353   8.398 -0.0897 -0.3387 -0.8345
 1936Sol     MW10696   1.548   0.380   8.370  0.8157  0.2888  0.2060
 1937Sol     OW10697   0.724   1.886   3.349  0.1534 -0.1508  0.2217
 1937Sol     HW10698   0.787   1.897   3.277 -1.3610 -0.8443 -1.2309
 1937Sol     HW10699   0.670   1.812   3.322 -1.4047  0.5530  1.3908
 1937Sol     MW10700   0.725   1.880   3.340 -0.2155  0.7429  0.5856
 1938Sol     OW10701   0.869   0.875   8.980  0.3898 -0.2734  0.2507
 1938Sol     HW10702   0.924   0.933   9.033  1.7609 -2.5108  1.3759
 1938Sol     HW10703   0.930   0.808   8.948 -1.2240 -1.3180 -0.6712
 1938Sol     MW10704   0.880   0.874   8.982 -0.1027 -0.1570 -0.4240
 1939Sol     OW10705   1.154   1.229   3.475  0.1775  0.0350  0.5232
 1939Sol     HW10706   1.158   1.300   3.411  0.9110 -1.3720 -1.0446
 1939Sol     HW10707   1.115   1.269   3.553 -2.4606  1.3264 -1.3826
 1939Sol     MW10708   1.151   1.239   3.476 -0.2797  0.3219 -0.3983
 1940Sol     OW10709   2.373   2.130   4.617 -0.3565  0.2705 -0.1559
 1940Sol     HW10710   2.381   2.103   4.525  0.4288 -3.5207  0.9133
 1940Sol     HW10711   2.293   2.182   4.620 -2.0847 -2.1269 -2.4897
 1940Sol     MW10712   2.366   2.132   4.609  0.5084  0.6751  0.2803
 1941Sol     OW10713   1.454   0.297   8.121 -0.4011 -0.2722 -0.0358
 1941Sol     HW10714   1.518   0.234   8.088  0.9271  1.1221 -0.1922
 1941Sol     HW10715   1.461   0.371   8.060  1.5137  2.0270  2.8379
 1941Sol     MW10716   1.460   0.298   8.112  0.6437  0.2966  0.2878
 1942Sol     OW10717   3.051   1.697   2.108  0.1511  0.0242 -0.3952
 1942Sol     HW10718   2.978   1.750   2.137  0.3794 -0.6414  1.4458
 1942Sol     HW10719   3.050   1.704   2.012 -0.2762  2.6923 -0.2232
 1942Sol     MW10720   3.045   1.702   2.102 -0.2692  0.2430  0.6758
 1943Sol     OW10721   0.875   1.795   7.188  0.1018  0.5857 -0.1073
 1943Sol     HW10722   0.819   1.738   7.136 -0.3839  0.4519  0.5529
 1943Sol     HW10723   0.827   1.809   7.269  0.8276  0.8300  0.2929
 1943Sol     MW10724   0.866   1.791   7.191 -0.5738 -0.4468 -0.3783
 1944Sol     OW10725   2.972   0.662   8.885  0.5257 -0.3778  0.3134
 1944Sol     HW10726   2.976   0.674   8.980 -0.1949 -0.9020  0.4151
 1944Sol     HW10727   3.055   0.620   8.862  0.1443 -1.4621  0.8920
 1944Sol     MW10728   2.980   0.660   8.892  0.4441  0.1350  0.6082
 1945Sol     OW10729   0.475   2.604   8.075  0.5192 -0.5090  0.4974
 1945Sol     HW10730   0.558   2.636   8.111  0.9842  1.0935 -1.8470
 1945Sol     HW10731   0.488   2.609   7.980 -1.9936 -0.9710  0.1119
 1945Sol     MW10732   0.484   2.608   8.069  0.2436 -0.0579  0.8533
 1946Sol     OW10733   2.871   0.576   9.418 -0.5034  0.1583  0.4120
 1946Sol     HW10734   2.915   0.507   9.468 -1.2020 -0.6426 -0.0649
 1946Sol     HW10735   2.906   0.657   9.454 -0.4696 -0.4152  1.7162
 1946Sol     MW10736   2.878   0.577   9.426 -0.6205  0.2232  0.3786
 1947Sol     OW10737   2.957   2.515   4.297  0.3847 -0.3273  0.2902
 1947Sol     HW10738   3.025   2.490   4.234 -2.1524 -1.1725 -2.2155
 1947Sol     HW10739   2.945   2.437   4.351  0.8775 -0.4192  0.2736
 1947Sol     MW10740   2.962   2.506   4.296 -0.3511  0.3911  0.3568
 1948Sol     OW10741   0.378   1.985   7.118  0.4956  0.2749  0.1657
 1948Sol     HW10742   0.446   1.917   7.118 -0.3378 -0.6046  1.4830
 1948Sol     HW10743   0.296   1.936   7.114 -0.0625  1.3362 -1.5930
 1948Sol     MW10744   0.377   1.974   7.118 -0.3444  0.7940  0.4546
 1949Sol     OW10745   1.713   3.375   6.426  0.2821  0.3869  0.1024
 1949Sol     HW10746   1.620   3.388   6.446  0.0935 -0.6655 -0.0553
 1949Sol     HW10747   1.714   3.315   6.351  1.0868 -0.0732  0.4671
 1949Sol     MW10748   1.705   3.371   6.421  0.3433  0.1712 -0.4091
 1950Sol     OW10749   0.316   3.439   9.418  0.5974 -0.4240 -0.2828
 1950Sol     HW10750   0.316   3.419   9.512 -1.3216  0.5694 -0.0518
 1950Sol     HW10751   0.305   3.534   9.414  1.0716 -0.4120 -1.5081
 1950Sol     MW10752   0.315   3.446   9.426 -0.1982 -0.0620  0.0621
 1951Sol     OW10753   2.852   1.278   5.595 -0.1543  0.3766  0.4899
 1951Sol     HW10754   2.941   1.311   5.591  0.0303  0.0955  1.8307
 1951Sol     HW10755   2.850   1.225   5.675 -0.9704 -1.2544 -0.5876
 1951Sol     MW10756   2.860   1.276   5.602  0.0157 -0.6165 -0.0652
 1952Sol     OW10757   0.983   1.176   4.271  0.5165 -0.0156 -0.6633
 1952Sol     HW10758   1.027   1.127   4.341 -0.6771 -1.0837 -0.6475
 1952Sol     HW10759   1.045   1.245   4.248  0.5922  0.8184  1.9631
 1952Sol     MW10760   0.993   1.178   4.275  0.3043 -0.0894 -0.5107
 1953Sol     OW10761   0.385   1.503   1.809  0.1515  0.4489 -0.2159
 1953Sol     HW10762   0.314   1.440   1.792 -0.0558  0.3320  1.0702
 1953Sol     HW10763   0.410   1.488   1.900 -1.4791  3.8280  0.8592
 1953Sol     MW10764   0.381   1.496   1.815  0.0745  0.3910 -0.1314
 1954Sol     OW10765   3.140   3.213   7.123 -0.0757 -0.6717 -0.2874
 1954Sol     HW10766   3.168   3.199   7.213 -0.4456  1.2853  0.1415
 1954Sol     HW10767   3.105   3.128   7.096 -0.1069 -1.2309  1.4615
 1954Sol     MW10768   3.139   3.204   7.129  0.4006 -0.4282 -0.2266
 1955Sol     OW10769   1.008   0.820   7.448 -0.1609  0.2795  0.1294
 1955Sol     HW10770   0.929   0.792   7.401  0.8624 -0.9878 -0.8592
 1955Sol     HW10771   1.044   0.740   7.486  0.6833  0.8404  0.5358
 1955Sol     MW10772   1.004   0.810   7.447  0.1732  0.6341  0.1043
 1956Sol     OW10773   0.059   2.700   7.863  0.5882  0.2382 -0.2028
 1956Sol     HW10774   0.073   2.610   7.890 -0.3591  0.5648  1.4501
 1956Sol     HW10775  -0.004   2.694   7.791  0.5555 -0.4043 -0.1202
 1956Sol     MW10776   0.055   2.692   7.859 -0.1518  1.0816  0.4506
 1957Sol     OW10777   1.065   3.256   2.233  0.0598  0.2874  0.4113
 1957Sol     HW10778   1.048   3.219   2.146  0.5188 -1.5153  1.0784
 1957Sol     HW10779   1.156   3.284   2.230 -0.4390  1.9727 -0.2759
 1957Sol     MW10780   1.071   3.255   2.225 -0.6098  0.1635 -0.1574
 1958Sol     OW10781   3.026   1.897   4.895 -0.1098  0.2494  0.6101
 1958Sol     HW10782   3.101   1.874   4.949 -1.4748 -0.1620  2.3701
 1958Sol     HW10783   2.965   1.939   4.955 -1.5290  0.0777 -0.6867
 1958Sol     MW10784   3.027   1.899   4.905 -0.3048 -0.3227 -0.0644
 1959Sol     OW10785   1.271   0.423   9.015 -0.0670  0.2859 -0.3371
 1959Sol     HW10786   1.185   0.382   9.018  0.5175 -0.8846  1.1794
 1959Sol     HW10787   1.261   0.506   9.062 -0.3571  0.1558 -0.1745
 1959Sol     MW10788   1.263   0.427   9.019  0.4509 -0.8502  0.7701
 1960Sol     OW10789   1.779   3.181   5.145  0.1808 -0.1203 -0.3347
 1960Sol     HW10790   1.776   3.202   5.052  0.1445  0.7124 -0.1500
 1960Sol     HW10791   1.687   3.173   5.171  0.2112 -1.9679 -0.7176
 1960Sol     MW10792   1.771   3.182   5.139  0.4333 -0.3511  0.6222
 1961Sol     OW10793   1.438   2.451   1.467  0.7283 -0.4080  0.7020
 1961Sol     HW10794   1.396   2.434   1.552 -0.0248  0.0982  0.4314
 1961Sol     HW10795   1.401   2.534   1.438 -1.2670 -1.9963 -1.5207
 1961Sol     MW10796   1.431   2.457   1.472 -0.1475 -0.2250  0.4019
 1962Sol     OW10797   1.862   3.362   1.803 -0.3626 -0.1283  0.0380
 1962Sol     HW10798   1.949   3.363   1.764 -1.1118  0.6944 -1.6577
 1962Sol     HW10799   1.814   3.297   1.751 -1.0088  0.0557  0.4055
 1962Sol     MW10800   1.865   3.356   1.794 -0.3744  0.4399 -0.8366
 1963Sol     OW10801   2.638   0.346   5.930  0.0933 -0.0933 -0.0009
 1963Sol     HW10802   2.608   0.298   5.853 -0.7266  0.8351 -0.2774
 1963Sol     HW10803   2.586   0.426   5.930  0.4226  0.1414  1.2499
 1963Sol     MW10804   2.630   0.349   5.923  0.1128 -0.3912 -0.2265
 1964Sol     OW10805   0.595   2.706   3.578  0.5703  0.8298 -0.2547
 1964Sol     HW10806   0.516   2.744   3.618  0.8121  1.1110 -0.0425
 1964Sol     HW10807   0.646   2.673   3.653 -0.2525 -1.1074 -0.5183
 1964Sol     MW10808   0.592   2.706   3.589 -0.0413  0.2219  0.0337
 1965Sol     OW10809   1.966   1.827   9.295 -0.1609 -0.5867 -0.0660
 1965Sol     HW10810   1.873   1.820   9.273  0.0426 -1.6224 -0.6929
 1965Sol     HW10811   1.982   1.920   9.307 -1.5813 -0.5247  1.4281
 1965Sol     MW10812   1.959   1.834   9.294 -0.3862 -0.1099  0.5089
 1966Sol     OW10813   0.266   2.634   5.312  0.6530 -0.3818 -0.1389
 1966Sol     HW10814   0.280   2.728   5.320 -3.5681  0.3697 -0.2535
 1966Sol     HW10815   0.243   2.620   5.220 -2.8865 -0.7490  0.6936
 1966Sol     MW10816   0.265   2.641   5.305  0.4997  0.4498  0.2626
 1967Sol     OW10817   2.656   1.260   5.008  0.4277  0.1600 -0.2409
 1967Sol     HW10818   2.702   1.313   4.943 -0.3840 -2.5059 -3.0931
 1967Sol     HW10819   2.579   1.313   5.030  1.4878  1.7640 -0.2864
 1967Sol     MW10820   2.653   1.270   5.004 -0.2131  0.2357 -0.1342
 1968Sol     OW10821   0.169   1.669   6.926  0.0143  0.7196 -0.1954
 1968Sol     HW10822   0.239   1.606   6.946  0.1052  0.4169 -1.4288
 1968Sol     HW10823   0.214   1.742   6.884 -0.2475  1.1045  0.1880
 1968Sol     MW10824   0.180   1.670   6.924  0.0129 -0.2071  0.4465
 1969Sol     OW10825   0.445   3.001   5.498 -0.3547 -0.0211 -0.0860
 1969Sol     HW10826   0.471   3.084   5.540  0.9166  0.6321 -2.1227
 1969Sol     HW10827   0.371   3.025   5.442 -0.8132 -0.5282  0.2976
 1969Sol     MW10828   0.440   3.011   5.497  0.0695 -0.1858  0.7014
 1970Sol     OW10829   2.443   1.980   3.164 -0.7290 -0.7663 -0.5539
 1970Sol     HW10830   2.517   1.919   3.161  0.1370  0.2047  0.7834
 1970Sol     HW10831   2.482   2.066   3.150 -1.7810 -0.3641 -1.1003
 1970Sol     MW10832   2.453   1.982   3.162  0.3773 -0.1158  0.5310
 1971Sol     OW10833   1.687   0.768   6.717 -0.0608  0.4733  0.0787
 1971Sol     HW10834   1.633   0.833   6.671  0.7325  0.7475 -0.4840
 1971Sol     HW10835   1.725   0.817   6.791  0.0130  0.4807  0.0361
 1971Sol     MW10836   1.686   0.778   6.719 -0.0708  0.1072 -0.3305
 1972Sol     OW10837   0.519   0.981   5.735 -0.1687  0.2184  0.6792
 1972Sol     HW10838   0.581   0.912   5.712  0.4756  0.4423  1.7063
 1972Sol     HW10839   0.533   1.049   5.669 -0.2321 -0.2793  0.1467
 1972Sol     MW10840   0.526   0.981   5.727  0.3204 -0.1255 -0.5288
 1973Sol     OW10841   1.437   0.933   9.922 -0.3694  0.1756  0.2375
 1973Sol     HW10842   1.484   0.906  10.001 -1.0340 -2.7928 -0.3086
 1973Sol     HW10843   1.346   0.942   9.949 -0.3786  0.5087  0.1024
 1973Sol     MW10844   1.433   0.931   9.931 -1.0850 -0.3550 -0.2394
 1974Sol     OW10845   3.162   0.254   7.531  0.2172  0.0969  0.0058
 1974Sol     HW10846   3.101   0.207   7.588  1.3242 -1.4248 -0.0416
 1974Sol     HW10847   3.174   0.197   7.455  1.6053  0.4136 -0.0368
 1974Sol     MW10848   3.158   0.245   7.530  0.3480 -0.4711  0.1138
 1975Sol     OW10849   0.719   0.795   5.700  0.1235 -0.6578  0.6572
 1975Sol     HW10850   0.812   0.803   5.678 -0.0006 -0.1613  0.3122
 1975Sol     HW10851   0.707   0.701   5.718  0.1486 -1.1871 -1.8364
 1975Sol     MW10852   0.726   0.787   5.700  0.9361 -0.3197 -0.2161
 1976Sol     OW10853   0.725   3.319   3.508  0.1266 -0.1189  0.0253
 1976Sol     HW10854   0.770   3.370   3.440 -0.5849 -0.2349 -0.5392
 1976Sol     HW10855   0.635   3.352   3.507 -0.1623 -0.8930  0.1396
 1976Sol     MW10856   0.721   3.327   3.502  0.0819 -0.6592  0.2712
 1977Sol     OW10857   0.882   2.750   6.954  0.0847  0.4925 -0.0730
 1977Sol     HW10858   0.884   2.702   6.872 -0.3892  1.7373 -0.8187
 1977Sol     HW10859   0.801   2.722   6.997 -1.5109  2.5044 -1.6743
 1977Sol     MW10860   0.875   2.743   6.951 -0.5554  0.2743  0.6708
 1978Sol     OW10861   2.391   0.546   3.494  0.0089  0.3392  0.3964
 1978Sol     HW10862   2.464   0.556   3.433  0.0071  0.6451  0.4457
 1978Sol     HW10863   2.335   0.481   3.453 -0.4005  1.1380 -0.3274
 1978Sol     MW10864   2.393   0.541   3.485  0.0199  0.2081 -0.1007
 1979Sol     OW10865   3.188   1.321   3.641 -0.1095  0.2910  0.1483
 1979Sol     HW10866   3.255   1.339   3.574  0.0381  0.0208  0.2231
 1979Sol     HW10867   3.151   1.237   3.617  0.2802 -0.0410  0.6743
 1979Sol     MW10868   3.191   1.315   3.633  0.0158 -0.0224  0.4432
 1980Sol     OW10869   0.978   3.418   9.238 -0.5374  0.6247 -0.0859
 1980Sol     HW10870   0.979   3.357   9.165 -1.1227 -0.8924  1.1603
 1980Sol     HW10871   0.926   3.492   9.206 -0.5065  0.1286 -1.3157
 1980Sol     MW10872   0.974   3.420   9.229 -0.4688 -0.7745  0.4770
 1981Sol     OW10873   1.182   2.530   4.506 -0.0533  0.5974 -0.1753
 1981Sol     HW10874   1.201   2.461   4.569 -1.7803 -0.1415 -0.4403
 1981Sol     HW10875   1.197   2.612   4.555  1.9563  0.0741  0.1432
 1981Sol     MW10876   1.185   2.531   4.516 -0.3335  0.0780  0.3373
 1982Sol     OW10877   2.266   0.872   8.900 -0.0425 -0.2264 -0.2471
 1982Sol     HW10878   2.198   0.822   8.945 -1.3697  0.4600 -1.4257
 1982Sol     HW10879   2.256   0.961   8.932  0.1338 -0.0682 -0.6310
 1982Sol     MW10880   2.259   0.875   8.907  0.2471 -0.4495 -0.5165
 1983Sol     OW10881   1.890   1.557   3.526 -0.6280 -0.5982  0.2124
 1983Sol     HW10882   1.960   1.580   3.464 -1.4960  0.2533 -0.4650
 1983Sol     HW10883   1.822   1.518   3.471 -1.1233 -0.4554  0.7332
 1983Sol     MW10884   1.890   1.556   3.515 -0.0879 -0.6235  0.0370
 1984Sol     OW10885   0.973   0.642   8.260  0.0050 -0.0503  0.1644
 1984Sol     HW10886   0.914   0.691   8.316 -0.0760  1.4606 -1.1953
 1984Sol     HW10887   1.059   0.650   8.302 -0.1930  0.4200  0.4793
 1984Sol     MW10888   0.976   0.647   8.268  0.5565 -0.1254 -0.4458
 1985Sol     OW10889   1.021   1.355   9.400  0.1594  0.1159 -0.4111
 1985Sol     HW10890   1.050   1.265   9.413 -0.8134 -0.2807 -0.8659
 1985Sol     HW10891   1.073   1.407   9.461  2.2686 -0.4743 -1.6595
 1985Sol     MW10892   1.028   1.352   9.406 -0.9615 -0.1000 -0.0258
 1986Sol     OW10893   1.250   2.277   5.483 -0.0419 -0.0928 -0.1219
 1986Sol     HW10894   1.339   2.309   5.499 -0.6091  1.8550 -0.7760
 1986Sol     HW10895   1.205   2.287   5.567  1.0098 -3.4433  0.9293
 1986Sol     MW10896   1.254   2.280   5.492 -0.2158  0.3548 -0.2077
 1987Sol     OW10897   2.067   3.225   2.905 -0.5356 -0.1225 -0.3900
 1987Sol     HW10898   2.082   3.244   2.812 -1.7091  0.2931 -0.5032
 1987Sol     HW10899   2.053   3.130   2.908  0.3650 -0.2641 -0.5132
 1987Sol     MW10900   2.067   3.218   2.897  0.7383 -0.1039  0.7767
 1988Sol     OW10901   3.157   3.168   2.189  0.1135 -0.0153 -0.7653
 1988Sol     HW10902   3.183   3.260   2.193  1.0689 -0.2450 -1.5357
 1988Sol     HW10903   3.177   3.141   2.099 -0.1947 -0.9628 -0.5551
 1988Sol     MW10904   3.161   3.174   2.181 -0.2632  0.4219 -0.1359
 1989Sol     OW10905   2.296   2.424   5.462  0.0058 -0.6935 -0.1222
 1989Sol     HW10906   2.210   2.396   5.495  0.8977 -1.3955  1.6774
 1989Sol     HW10907   2.277   2.502   5.410 -1.9374 -1.8629 -1.2543
 1989Sol     MW10908   2.286   2.428   5.460  0.5524  0.0602 -0.0481
 1990Sol     OW10909   0.420   0.641   7.191 -0.3753  0.5448 -0.2350
 1990Sol     HW10910   0.454   0.619   7.278 -0.9967  0.1987 -0.0751
 1990Sol     HW10911   0.497   0.673   7.143  0.1920 -0.2645  0.1052
 1990Sol     MW10912   0.430   0.642   7.195 -0.8131  0.2457  0.1789
 1991Sol     OW10913   2.601   3.161   8.893  0.3185 -0.3596 -0.0595
 1991Sol     HW10914   2.664   3.154   8.964  0.9751 -1.3882 -0.7270
 1991Sol     HW10915   2.639   3.225   8.833  1.3471 -1.8581 -1.0555
 1991Sol     MW10916   2.610   3.166   8.894  0.1368 -0.3709  0.5154
 1992Sol     OW10917   1.017   1.918   6.061 -0.0073  0.4688  0.6781
 1992Sol     HW10918   0.961   1.928   5.984  0.9181  3.8911  0.3669
 1992Sol     HW10919   0.961   1.875   6.126 -1.0282 -1.7986 -1.6067
 1992Sol     MW10920   1.007   1.915   6.060 -1.2794  0.5909  0.2201
 1993Sol     OW10921   0.264   1.527   7.857 -0.0898  0.4609  0.8004
 1993Sol     HW10922   0.314   1.546   7.778 -0.2431  1.3321  0.9102
 1993Sol     HW10923   0.274   1.605   7.912 -0.7331  0.2331  1.2482
 1993Sol     MW10924   0.269   1.535   7.855 -0.0915  0.4484  0.2947
 1994Sol     OW10925   3.252   0.567   8.849  0.0415 -0.2458 -0.2546
 1994Sol     HW10926   3.306   0.528   8.918  2.4452  0.2631 -1.8068
 1994Sol     HW10927   3.269   0.661   8.855  0.3523 -0.2093 -1.6118
 1994Sol     MW10928   3.258   0.572   8.856  0.2357 -0.2741  0.2937
 1995Sol     OW10929   1.836   0.644   7.634  0.4631 -0.5292 -0.5268
 1995Sol     HW10930   1.791   0.636   7.550  0.9157  4.4645 -1.3778
 1995Sol     HW10931   1.928   0.656   7.611  0.7346 -0.0944  0.7378
 1995Sol     MW10932   1.841   0.644   7.625  0.1958 -0.3985 -0.2339
 1996Sol     OW10933   3.154   0.427   1.597 -0.3280 -0.0016 -0.3142
 1996Sol     HW10934   3.209   0.350   1.606  1.2905  0.9368 -1.9702
 1996Sol     HW10935   3.071   0.393   1.563 -0.4015 -1.2793  1.1282
 1996Sol     MW10936   3.151   0.417   1.595 -0.3747  0.3663 -0.5003
 1997Sol     OW10937   2.251   0.732   3.650  0.0974  0.6970  0.2168
 1997Sol     HW10938   2.175   0.739   3.593 -1.2862 -0.9908  1.7745
 1997Sol     HW10939   2.296   0.653   3.620 -0.1972  0.2589  0.8895
 1997Sol     MW10940   2.248   0.725   3.643  0.1710  0.6746  0.1857
 1998Sol     OW10941   1.569   0.359   9.391 -0.6755 -0.1142  0.9516
 1998Sol     HW10942   1.620   0.311   9.326 -1.7864 -2.8833  2.0864
 1998Sol     HW10943   1.626   0.362   9.469 -1.1268 -0.7424  1.3058
 1998Sol     MW10944   1.579   0.355   9.392 -0.9981  0.8771 -0.7666
 1999Sol     OW10945   1.603   1.379   2.808 -1.3441  0.2572 -0.0096
 1999Sol     HW10946   1.614   1.311   2.875 -0.2584 -0.7482 -1.1734
 1999Sol     HW10947   1.550   1.446   2.850 -1.0881 -0.5813  1.6967
 1999Sol     MW10948   1.599   1.379   2.817 -0.0242  0.0631  0.1088
 2000Sol     OW10949   1.215   1.643   3.348  0.2501  0.4588 -0.3176
 2000Sol     HW10950   1.205   1.677   3.437  0.1016 -1.4778  0.4319
 2000Sol     HW10951   1.153   1.693   3.295 -1.4345 -0.0367  1.1470
 2000Sol     MW10952   1.209   1.650   3.351  0.0718 -0.1687  0.0479
 2001Sol     OW10953   2.235   1.402   1.730 -0.0594  0.4480  0.0456
 2001Sol     HW10954   2.200   1.314   1.717  0.0347  0.3361  0.5409
 2001Sol     HW10955   2.189   1.456   1.666  0.0747 -0.0097 -0.4404
 2001Sol     MW10956   2.228   1.399   1.723  0.1224  0.2560  0.6476
 2002Sol     OW10957   0.294   2.248   7.185 -0.0865 -0.6668 -0.1367
 2002Sol     HW10958   0.320   2.157   7.170 -0.1210 -0.4105 -1.8139
 2002Sol     HW10959   0.372   2.299   7.161 -0.8511 -0.1239 -1.5072
 2002Sol     MW10960   0.304   2.244   7.182 -0.3236  0.6796  0.4325
 2003Sol     OW10961   0.922   2.546   7.665 -0.3196  0.5249 -0.1337
 2003Sol     HW10962   0.988   2.529   7.732 -1.3647  1.8508  1.2678
 2003Sol     HW10963   0.840   2.515   7.704 -0.6717 -0.3550 -1.5320
 2003Sol     MW10964   0.921   2.542   7.675  0.1452  0.6015  0.3185
 2004Sol     OW10965   0.945   0.860   9.893  0.3302  0.4691 -0.4485
 2004Sol     HW10966   0.849   0.864   9.894  0.2806 -0.2736 -1.3711
 2004Sol     HW10967   0.968   0.856   9.800  1.3486  2.4565 -0.3063
 2004Sol     MW10968   0.938   0.860   9.885  0.7037 -0.2347 -0.5836
 2005Sol     OW10969   0.105   1.911   4.853  0.1620  0.1265  0.3295
 2005Sol     HW10970   0.117   1.821   4.882 -0.4933  0.3081  1.1927
 2005Sol     HW10971   0.042   1.948   4.915  1.3877  1.5623  0.7641
 2005Sol     MW10972   0.100   1.906   4.861  0.7613 -0.3119  0.7842
 2006Sol     OW10973   0.480   3.343   6.282 -0.3599  0.3385  0.0125
 2006Sol     HW10974   0.495   3.298   6.199 -1.6548  1.4447 -0.8393
 2006Sol     HW10975   0.385   3.351   6.289 -0.2985 -0.0805  1.8039
 2006Sol     MW10976   0.473   3.340   6.275 -0.0626 -0.3028  0.3205
 2007Sol     OW10977   2.610   0.596   4.839 -0.1526  0.6012 -0.3176
 2007Sol     HW10978   2.552   0.550   4.900 -0.0394  0.6986 -0.1351
 2007Sol     HW10979   2.647   0.668   4.891  1.1291 -0.2251 -0.0746
 2007Sol     MW10980   2.608   0.598   4.849  1.0884 -0.1488 -0.2606
 2008Sol     OW10981   1.229   0.629   4.357  0.3859 -0.6659 -0.1105
 2008Sol     HW10982   1.317   0.617   4.393 -0.5264  2.7937  3.6648
 2008Sol     HW10983   1.229   0.718   4.323 -1.1276 -1.2912 -1.7910
 2008Sol     MW10984   1.237   0.635   4.357 -0.2472  0.2028 -0.1656
 2009Sol     OW10985   0.585   0.405   7.105  0.4985 -0.2646 -0.6964
 2009Sol     HW10986   0.664   0.374   7.061  0.3463  0.1270 -1.2436
 2009Sol     HW10987   0.616   0.435   7.191  1.0617  0.5690 -1.1798
 2009Sol     MW10988   0.595   0.405   7.109  0.4957  0.3674  0.0149
 2010Sol     OW10989   0.773   1.255   7.642 -0.5738  0.2338 -0.1821
 2010Sol     HW10990   0.826   1.322   7.685 -0.9861  0.4847 -0.0621
 2010Sol     HW10991   0.830   1.179   7.637 -0.4410  0.2843  0.5764
 2010Sol     MW10992   0.782   1.254   7.645 -0.2545  0.6025  0.2511
 2011Sol     OW10993   1.811   1.360   8.688 -0.3551 -0.0891  0.1184
 2011Sol     HW10994   1.903   1.385   8.700 -0.8049  2.6780 -1.6411
 2011Sol     HW10995   1.810   1.307   8.608 -0.1441 -1.1084  0.7872
 2011Sol     MW10996   1.819   1.358   8.682  0.4908  0.1004 -0.6481
 2012Sol     OW10997   1.774   1.247   4.392  0.0137 -0.0718  0.0815
 2012Sol     HW10998   1.818   1.330   4.409  1.2346 -0.5953 -0.4617
 2012Sol     HW10999   1.816   1.212   4.313 -0.1537 -1.4216  0.5663
 2012Sol     MW11000   1.782   1.251   4.387 -1.0600 -0.0639  0.2978
 2013Sol     OW11001   1.868   0.244   5.543 -0.2298 -0.2249 -0.2039
 2013Sol     HW11002   1.799   0.178   5.529 -0.8459 -0.5993  4.0481
 2013Sol     HW11003   1.826   0.327   5.520 -2.4268 -0.3682  2.8876
 2013Sol     MW11004   1.858   0.245   5.540 -0.5766 -0.0098  0.2334
 2014Sol     OW11005   2.461   0.529   3.775  0.0206 -0.1861  0.3176
 2014Sol     HW11006   2.431   0.519   3.685  2.0854 -1.1946 -0.2857
 2014Sol     HW11007   2.472   0.439   3.806  2.4548  0.1428  0.4851
 2014Sol     MW11008   2.459   0.520   3.770  0.5711 -0.1931  0.1462
 2015Sol     OW11009   1.965   1.458   9.073 -0.1047  0.0551 -0.0121
 2015Sol     HW11010   2.013   1.430   8.995 -0.5695 -0.7747  0.0033
 2015Sol     HW11011   1.880   1.488   9.041 -0.3205 -0.3465  0.1816
 2015Sol     MW11012   1.962   1.458   9.063 -0.4308 -0.5020 -0.3441
 2016Sol     OW11013   2.771   0.451   6.553 -0.1963 -0.6525 -0.0311
 2016Sol     HW11014   2.838   0.386   6.532 -0.5666 -1.1246  0.2538
 2016Sol     HW11015   2.780   0.465   6.648  2.1604  2.2218 -0.5982
 2016Sol     MW11016   2.778   0.446   6.560  0.0436  0.2621  0.1321
 2017Sol     OW11017   1.560   3.434   3.398 -0.5214  0.1037 -0.1594
 2017Sol     HW11018   1.576   3.344   3.426 -0.2299 -0.0647 -0.8814
 2017Sol     HW11019   1.633   3.484   3.435 -0.3807 -0.0440 -0.2401
 2017Sol     MW11020   1.568   3.430   3.404  0.1790 -0.2539 -0.4335
 2018Sol     OW11021   1.554   0.395   2.499  0.1425  0.6796 -0.0304
 2018Sol     HW11022   1.569   0.312   2.543  0.4154  1.1078  0.6852
 2018Sol     HW11023   1.478   0.433   2.543 -1.6669 -0.3965 -2.0969
 2018Sol     MW11024   1.549   0.391   2.507  1.3734 -0.0654  0.4903
 2019Sol     OW11025   1.298   0.144   3.913 -0.3029 -0.0719  0.2379
 2019Sol     HW11026   1.339   0.058   3.918 -0.4472 -0.3168 -2.0756
 2019Sol     HW11027   1.371   0.206   3.916  0.1676 -0.4472 -2.1809
 2019Sol     MW11028   1.308   0.142   3.914  0.3108  0.2067 -0.3087
 2020Sol     OW11029   2.045   0.548   3.460 -0.0167 -0.6187  0.3338
 2020Sol     HW11030   1.958   0.583   3.475  0.2617 -0.2745  1.1899
 2020Sol     HW11031   2.052   0.541   3.365 -1.1259 -1.0402  0.2767
 2020Sol     MW11032   2.038   0.551   3.453 -0.0817 -0.7292  0.6003
 2021Sol     OW11033   1.983   3.227   9.898  0.1529 -0.0471  0.0213
 2021Sol     HW11034   1.912   3.289   9.882  1.0364  0.5841 -1.5647
 2021Sol     HW11035   2.041   3.273   9.960  0.1508  0.1983 -0.1587
 2021Sol     MW11036   1.982   3.237   9.902  0.0509  0.2106 -0.0476
 2022Sol     OW11037   0.342   0.474   9.612  0.3043 -1.1998  0.3498
 2022Sol     HW11038   0.343   0.453   9.706  0.9276 -3.2836 -0.1085
 2022Sol     HW11039   0.386   0.559   9.606 -1.1475 -0.2798  2.1116
 2022Sol     MW11040   0.346   0.480   9.620 -0.1545 -0.0241 -0.2345
 2023Sol     OW11041   1.285   2.408   1.686  0.1905  0.2384 -0.7612
 2023Sol     HW11042   1.247   2.364   1.761 -0.4446  0.5727 -0.8880
 2023Sol     HW11043   1.211   2.446   1.640  0.7363  1.4347 -0.6603
 2023Sol     MW11044   1.275   2.407   1.688 -0.0939  0.6086 -0.3142
 2024Sol     OW11045   0.230   1.748   9.976 -0.1534 -0.3591 -0.6967
 2024Sol     HW11046   0.159   1.812   9.981 -0.4807 -0.8588  1.3540
 2024Sol     HW11047   0.209   1.696   9.898 -0.6400  1.1080 -1.5738
 2024Sol     MW11048   0.222   1.749   9.969 -0.1585  0.2499  0.1354
 2025Sol     OW11049   1.232   0.127   7.951 -0.4692  0.3129 -0.1270
 2025Sol     HW11050   1.237   0.093   8.041  0.6029  0.9660  0.0699
 2025Sol     HW11051   1.291   0.202   7.951  0.3649 -0.3354 -1.6790
 2025Sol     MW11052   1.238   0.130   7.959  0.9623  0.0767 -0.5383
 2026Sol     OW11053   1.505   1.150   7.221 -0.4861  0.3594  0.1172
 2026Sol     HW11054   1.431   1.190   7.176 -0.3317 -0.0408 -0.5026
 2026Sol     HW11055   1.467   1.079   7.273 -0.6452  0.7185  0.4914
 2026Sol     MW11056   1.495   1.147   7.221  0.2575  0.1243  0.6725
 2027Sol     OW11057   0.472   3.438   8.766  0.3414  0.1566  0.0749
 2027Sol     HW11058   0.381   3.409   8.767  0.1547  0.7311  0.0097
 2027Sol     HW11059   0.477   3.504   8.835  0.4748  0.8104 -0.5470
 2027Sol     MW11060   0.464   3.441   8.772  0.1922 -0.1702  0.7600
 2028Sol     OW11061   3.149   0.228   4.866  0.1002 -0.4261 -0.1507
 2028Sol     HW11062   3.083   0.263   4.806  0.2879 -0.3051 -0.2839
 2028Sol     HW11063   3.173   0.302   4.921 -0.8888 -0.7946  0.8168
 2028Sol     MW11064   3.145   0.238   4.866 -0.7515  0.2379 -0.7709
 2029Sol     OW11065   1.019   0.246   6.499  0.3300 -0.1373  0.1149
 2029Sol     HW11066   1.000   0.214   6.411 -0.3038 -1.7965  0.8459
 2029Sol     HW11067   1.113   0.265   6.497  0.2740  0.0948 -0.9929
 2029Sol     MW11068   1.025   0.245   6.491  0.3647 -0.1146  0.2358
 2030Sol     OW11069   2.884   2.592   4.696 -0.0790 -0.0101  0.3319
 2030Sol     HW11070   2.875   2.647   4.618  0.9599 -0.0002  0.2152
 2030Sol     HW11071   2.876   2.653   4.769 -0.0514  0.1257  0.2211
 2030Sol     MW11072   2.882   2.602   4.695  0.4873 -0.3173 -0.3913
 2031Sol     OW11073   1.883   0.179   4.746 -0.5100 -0.5822 -0.4868
 2031Sol     HW11074   1.956   0.178   4.684 -0.1752 -0.6358 -0.0951
 2031Sol     HW11075   1.806   0.162   4.692 -0.1521 -1.2455 -0.8018
 2031Sol     MW11076   1.883   0.177   4.736 -1.1415  0.1092 -0.0804
 2032Sol     OW11077   3.274   3.352   7.794  0.7803 -0.3637 -0.0412
 2032Sol     HW11078   3.248   3.398   7.874  1.1241 -1.8262  0.9467
 2032Sol     HW11079   3.330   3.413   7.747 -2.1233  1.7942 -0.8254
 2032Sol     MW11080   3.277   3.361   7.797  0.4133 -0.5488  0.1428
 2033Sol     OW11081   0.902   3.284   2.706 -1.4463  0.5839 -0.3923
 2033Sol     HW11082   0.898   3.208   2.647 -1.2458 -0.7079  1.1998
 2033Sol     HW11083   0.835   3.343   2.673 -1.0380  0.0929 -2.1772
 2033Sol     MW11084   0.896   3.282   2.698  1.4502  0.2648  0.7487
 2034Sol     OW11085   0.881   0.510   6.202 -0.1310  0.7216 -0.3151
 2034Sol     HW11086   0.970   0.491   6.232 -0.6068 -0.9489  0.0840
 2034Sol     HW11087   0.863   0.444   6.135 -1.4380  0.3908  0.3442
 2034Sol     MW11088   0.887   0.502   6.199  0.1746 -0.4554  0.4494
 2035Sol     OW11089   2.973   3.199   3.561 -0.0120  0.1863  0.1752
 2035Sol     HW11090   2.878   3.190   3.555  0.1417 -0.6323 -1.2402
 2035Sol     HW11091   3.004   3.188   3.471  1.4288  0.4495  0.6207
 2035Sol     MW11092   2.967   3.198   3.552  0.7935 -1.2565  0.4689
 2036Sol     OW11093   0.591   2.977   1.876  0.4548  0.0194  0.6873
 2036Sol     HW11094   0.541   2.944   1.951  1.2993 -0.6510  0.9635
 2036Sol     HW11095   0.648   2.904   1.851  0.8900  0.5788  0.0161
 2036Sol     MW11096   0.592   2.967   1.880 -0.0868  0.4422  0.1983
 2037Sol     OW11097   1.037   3.438   7.626 -0.0498 -0.7336  0.1211
 2037Sol     HW11098   1.109   3.498   7.605  1.0187 -1.4984  1.4538
 2037Sol     HW11099   0.994   3.478   7.701  0.9740 -1.8421  1.3325
 2037Sol     MW11100   1.040   3.447   7.631  1.2323 -0.9994 -0.3593
 2038Sol     OW11101   1.793   2.915   7.388 -0.7061  0.4208 -0.4109
 2038Sol     HW11102   1.843   2.959   7.320 -2.0962  0.7915 -1.2185
 2038Sol     HW11103   1.730   2.981   7.418 -2.1797 -0.7072 -0.9645
 2038Sol     MW11104   1.792   2.925   7.385  0.5564  0.4387 -0.0110
 2039Sol     OW11105   0.053   0.263   6.707  0.4240  0.0040  0.3356
 2039Sol     HW11106  -0.008   0.336   6.704 -0.0668 -0.3985  0.5597
 2039Sol     HW11107   0.114   0.286   6.777  0.7976  0.6107 -0.1814
 2039Sol     MW11108   0.053   0.272   6.713 -0.4859  0.4574  0.1413
 2040Sol     OW11109   2.203   0.837   3.895 -0.2822  0.1075  0.2900
 2040Sol     HW11110   2.294   0.842   3.923 -0.2804 -0.8493  0.4869
 2040Sol     HW11111   2.207   0.814   3.802 -0.3034  2.1397 -0.2278
 2040Sol     MW11112   2.211   0.835   3.889  0.1398  0.2482  0.1208
 2041Sol     OW11113   3.052   0.032   2.995 -0.0554  0.1226  0.3886
 2041Sol     HW11114   3.058   0.019   3.090  2.1586  0.8130  0.3802
 2041Sol     HW11115   3.091  -0.047   2.958 -1.6420 -0.5017  0.0237
 2041Sol     MW11116   3.056   0.024   3.000 -0.8358  0.3404  0.0696
 2042Sol     OW11117   1.833   2.879   3.772 -0.0460 -0.4871 -0.5195
 2042Sol     HW11118   1.746   2.911   3.749  0.5778  0.7081 -1.2802
 2042Sol     HW11119   1.880   2.875   3.689  1.3910  1.2736  0.1783
 2042Sol     MW11120   1.830   2.882   3.763  0.4805 -0.1501  0.3981
 2043Sol     OW11121   3.130   2.789   2.399 -0.0345 -0.0646 -0.8263
 2043Sol     HW11122   3.119   2.800   2.305  0.3105 -1.9808 -1.1082
 2043Sol     HW11123   3.209   2.839   2.420  0.1075  0.0497 -1.6214
 2043Sol     MW11124   3.136   2.794   2.392 -0.0618 -0.8768 -0.2834
 2044Sol     OW11125   0.075   3.245   6.530 -0.5397  0.1465  0.2556
 2044Sol     HW11126   0.007   3.216   6.470 -0.1953 -1.4816  0.6140
 2044Sol     HW11127   0.034   3.314   6.583 -2.1939 -1.4339  1.0722
 2044Sol     MW11128   0.066   3.249   6.529 -0.0010 -0.0626 -0.4120
 2045Sol     OW11129   1.266   3.307   5.504  0.1974  0.0414 -0.4053
 2045Sol     HW11130   1.289   3.365   5.432 -2.4518 -0.2518 -1.5684
 2045Sol     HW11131   1.255   3.365   5.580  1.7307  0.5080 -0.5404
 2045Sol     MW11132   1.267   3.317   5.505 -0.1596  0.4754 -0.5038
 2046Sol     OW11133   2.436   0.892   5.949  0.0060 -0.6586 -0.2945
 2046Sol     HW11134   2.449   0.968   5.893 -0.8621  0.1162  0.5367
 2046Sol     HW11135   2.358   0.913   6.000  0.5641 -1.5093  0.9355
 2046Sol     MW11136   2.430   0.901   5.949 -0.4206 -0.2515  0.3264
 2047Sol     OW11137   0.706   3.423   6.438 -0.2105 -0.6389 -0.1488
 2047Sol     HW11138   0.702   3.383   6.525  0.7210  0.6248  0.5016
 2047Sol     HW11139   0.637   3.381   6.388  0.4649 -2.7346  0.6393
 2047Sol     MW11140   0.700   3.416   6.441 -0.0905  0.2875  0.5146
 2048Sol     OW11141   0.291   0.968   1.567 -0.2240 -0.6175 -0.3148
 2048Sol     HW11142   0.282   0.919   1.649  1.6134  0.7969  0.7601
 2048Sol     HW11143   0.226   1.038   1.575 -0.3670 -0.7528 -0.2774
 2048Sol     MW11144   0.284   0.970   1.575  0.0899 -0.4027 -0.1101
 2049Sol     OW11145   2.200   0.016   6.618 -0.6049 -0.2080  0.5449
 2049Sol     HW11146   2.114  -0.017   6.594 -0.5956 -1.4693  2.1422
 2049Sol     HW11147   2.229   0.066   6.542 -3.3379  1.4421  0.5204
 2049Sol     MW11148   2.195   0.018   6.609  0.4061 -0.2456 -0.0781
 2050Sol     OW11149   1.843   0.568   8.256  0.3157  0.4187  0.7520
 2050Sol     HW11150   1.923   0.532   8.218  0.3986  2.5719 -1.1685
 2050Sol     HW11151   1.868   0.593   8.345  1.8698  1.2749  0.0984
 2050Sol     MW11152   1.853   0.567   8.261 -0.0524 -0.1107  0.1775
 2051Sol     OW11153   2.950   2.264   5.628  0.1685 -0.2267  0.7922
 2051Sol     HW11154   2.916   2.188   5.675  1.2727 -1.5618 -0.5272
 2051Sol     HW11155   2.959   2.332   5.695 -2.6548 -0.6166  1.6314
 2051Sol     MW11156   2.948   2.263   5.638 -0.4553  0.2029  0.2384
 2052Sol     OW11157   1.412   2.670   6.307  0.6606  0.4261 -0.4016
 2052Sol     HW11158   1.395   2.748   6.360  1.7089  0.4424 -0.0821
 2052Sol     HW11159   1.487   2.629   6.349 -0.1102 -0.9504 -0.3622
 2052Sol     MW11160   1.417   2.674   6.315 -0.1121  1.1892  0.0854
 2053Sol     OW11161   2.076   1.319   9.511 -0.5765 -0.3575  0.1202
 2053Sol     HW11162   2.035   1.394   9.469 -0.7380  1.1114  2.7861
 2053Sol     HW11163   2.168   1.343   9.518 -0.5459 -0.5995  0.5712
 2053Sol     MW11164   2.081   1.328   9.508 -0.2751  1.0636 -0.0866
 2054Sol     OW11165   0.097   2.498   8.344  0.2502 -0.0217 -0.3010
 2054Sol     HW11166   0.153   2.467   8.273  0.5957 -0.0177 -0.0356
 2054Sol     HW11167   0.072   2.587   8.318  0.8572  0.1996 -0.1426
 2054Sol     MW11168   0.100   2.503   8.335  0.4580  0.9773  0.2615
 2055Sol     OW11169   3.101   0.924   7.803  0.0474  0.3664  0.0129
 2055Sol     HW11170   3.143   1.008   7.822  2.5184 -0.6859 -0.6009
 2055Sol     HW11171   3.133   0.865   7.871 -1.0983 -0.2974  0.0033
 2055Sol     MW11172   3.107   0.926   7.811 -0.3263  0.0448  0.0022
 2056Sol     OW11173   1.891   2.527   7.187 -0.3770 -0.0787 -0.1176
 2056Sol     HW11174   1.851   2.440   7.194  1.6590 -1.0446  0.0638
 2056Sol     HW11175   1.842   2.581   7.249 -0.3983 -1.6271  1.2792
 2056Sol     MW11176   1.883   2.524   7.194 -0.1858 -0.2564 -0.7274
 2057Sol     OW11177   0.257   1.772   7.967 -0.2698  0.5242  0.0228
 2057Sol     HW11178   0.238   1.824   8.045  0.8412  0.1417  0.5598
 2057Sol     HW11179   0.350   1.787   7.950 -0.5043  0.6073 -1.2336
 2057Sol     MW11180   0.264   1.778   7.972 -0.3463  0.3213  0.3058
 2058Sol     OW11181   2.529   2.690   4.708  0.2366 -0.6224  0.3949
 2058Sol     HW11182   2.598   2.715   4.770  0.1301 -0.4719  0.4548
 2058Sol     HW11183   2.532   2.758   4.641  2.7901 -2.7548 -1.7353
 2058Sol     MW11184   2.535   2.699   4.708  0.1080 -0.1933 -0.0767
 2059Sol     OW11185   1.451   1.324   4.528 -0.2845 -0.6487 -0.7734
 2059Sol     HW11186   1.425   1.233   4.514  0.9424 -1.2496  0.6966
 2059Sol     HW11187   1.435   1.339   4.622  2.2447 -0.2792 -0.3638
 2059Sol     MW11188   1.447   1.317   4.535  0.7756  0.2390 -0.5650
 2060Sol     OW11189   0.381   3.308   4.417 -0.1856 -0.1494 -0.3338
 2060Sol     HW11190   0.352   3.221   4.393 -0.7875  0.1510 -0.7043
 2060Sol     HW11191   0.474   3.298   4.437 -0.6704 -1.2559  1.5369
 2060Sol     MW11192   0.387   3.300   4.417 -0.6272 -1.1974 -0.1503
 2061Sol     OW11193   0.987   2.688   9.235 -0.0162 -0.3491  0.0320
 2061Sol     HW11194   0.919   2.675   9.168 -0.4439  1.9099 -0.0194
 2061Sol     HW11195   1.049   2.749   9.194  0.9283 -0.7578  0.8516
 2061Sol     MW11196   0.987   2.693   9.225  0.0880  0.0636  0.2469
 2062Sol     OW11197   0.381   3.034   5.050 -0.1337 -0.0092  0.2334
 2062Sol     HW11198   0.468   3.051   5.086  0.1795 -0.3240 -0.3656
 2062Sol     HW11199   0.354   3.117   5.012 -1.1239  0.7669  2.5267
 2062Sol     MW11200   0.386   3.043   5.050  0.0839 -0.2088  0.4856
 2063Sol     OW11201   2.067   2.076   9.363 -0.2642 -0.2535 -0.2070
 2063Sol     HW11202   2.125   2.079   9.286 -1.7143 -0.4975 -1.3222
 2063Sol     HW11203   2.127   2.065   9.437  1.2235  1.0396 -1.1921
 2063Sol     MW11204   2.078   2.075   9.362  0.0461 -0.7596 -0.3348
 2064Sol     OW11205   1.993   2.671   5.288 -0.0808 -0.1764  0.1391
 2064Sol     HW11206   2.087   2.653   5.291 -0.1899 -0.7618  0.0616
 2064Sol     HW11207   1.987   2.758   5.249  0.5147  0.5565  1.6224
 2064Sol     MW11208   2.001   2.677   5.285  0.2833  0.3321  0.3485
 2065Sol     OW11209   1.802   1.240   9.950 -0.2494  0.1640  0.2030
 2065Sol     HW11210   1.762   1.221   9.865  1.3402 -2.1761 -0.0525
 2065Sol     HW11211   1.778   1.332   9.967 -1.9970  0.1648 -1.9616
 2065Sol     MW11212   1.796   1.247   9.944  0.2722  0.0911 -0.4206
 2066Sol     OW11213   1.178   0.925   7.223  0.4311  0.2111 -0.8157
 2066Sol     HW11214   1.136   1.010   7.206  1.2676  0.3521 -2.3030
 2066Sol     HW11215   1.116   0.879   7.280 -1.5604  0.5903 -2.5856
 2066Sol     MW11216   1.169   0.929   7.226  0.1478 -0.2622 -0.0618
 2067Sol     OW11217   0.529   2.421   8.833  0.6429  0.0401 -0.0738
 2067Sol     HW11218   0.517   2.493   8.771 -0.6785  0.8427  1.0996
 2067Sol     HW11219   0.542   2.463   8.917 -1.3029 -1.0926  0.8237
 2067Sol     MW11220   0.529   2.431   8.835  0.2425 -0.0441 -0.3547
 2068Sol     OW11221   2.488   0.346   7.556  0.6336  0.2540  0.5997
 2068Sol     HW11222   2.414   0.286   7.543 -0.1817  1.9573 -3.6626
 2068Sol     HW11223   2.564   0.289   7.563 -0.4732 -1.3790 -0.2937
 2068Sol     MW11224   2.488   0.335   7.555  0.6943 -0.0211 -0.1800
 2069Sol     OW11225   1.447   0.799   8.295  0.4320  0.3854 -0.1956
 2069Sol     HW11226   1.529   0.794   8.246  0.2881  0.2997 -0.4287
 2069Sol     HW11227   1.386   0.840   8.235  0.5680  1.3763  0.3323
 2069Sol     MW11228   1.449   0.802   8.285  0.7268 -0.0750  0.1172
 2070Sol     OW11229   2.406   2.452   9.942 -0.1370  0.1929 -0.3146
 2070Sol     HW11230   2.331   2.393   9.947  0.7055 -0.7677  1.2239
 2070Sol     HW11231   2.382   2.527   9.996 -0.4090  0.3828 -0.6921
 2070Sol     MW11232   2.397   2.453   9.947  0.8281 -0.4274 -0.0743
 2071Sol     OW11233   2.179   1.421   6.340 -0.3430  0.0982 -0.1160
 2071Sol     HW11234   2.252   1.481   6.325  0.7272 -0.9659  0.7682
 2071Sol     HW11235   2.158   1.431   6.432  0.1794 -1.2296  0.1672
 2071Sol     MW11236   2.184   1.427   6.347 -0.3760  0.5553 -0.0424
 2072Sol     OW11237   1.733   1.688   5.174  0.3843 -0.1147 -0.2438
 2072Sol     HW11238   1.805   1.633   5.142  0.3459  0.1769 -0.8379
 2072Sol     HW11239   1.730   1.762   5.112  0.2947  0.4382  0.4187
 2072Sol     MW11240   1.739   1.690   5.165 -0.1113 -0.0583 -0.6673
 2073Sol     OW11241   1.431   2.775   3.001  0.3953 -0.0781  0.2213
 2073Sol     HW11242   1.374   2.701   3.022  2.2120 -1.2565  1.1203
 2073Sol     HW11243   1.371   2.847   2.980 -1.4085 -1.1401  1.6652
 2073Sol     MW11244   1.420   2.775   3.001 -0.8864 -0.3449  0.3658
 2074Sol     OW11245   2.841   1.037   9.216  0.3651 -0.1247  0.4003
 2074Sol     HW11246   2.886   1.040   9.301 -0.1660  2.1572  0.6498
 2074Sol     HW11247   2.873   1.115   9.170 -2.4523  0.9490  0.1587
 2074Sol     MW11248   2.848   1.044   9.220 -0.1359 -0.1958 -0.0801
 2075Sol     OW11249   0.837   2.876   5.669 -0.1742  0.5634  0.1326
 2075Sol     HW11250   0.861   2.788   5.699  2.9240  0.6258 -1.9078
 2075Sol     HW11251   0.769   2.861   5.603  1.0594 -0.4291 -0.9497
 2075Sol     MW11252   0.833   2.867   5.666 -0.6480 -0.2357  0.0691
 2076Sol     OW11253   2.430   0.763   8.110  0.5117  0.0958  0.3763
 2076Sol     HW11254   2.510   0.719   8.082  0.3683 -0.7318  1.2306
 2076Sol     HW11255   2.455   0.855   8.121  1.0365  0.0617 -0.5587
 2076Sol     MW11256   2.439   0.768   8.109  0.0917 -0.7530 -0.0058
 2077Sol     OW11257   0.906   2.254   7.551  0.1017  0.3920 -0.5138
 2077Sol     HW11258   0.878   2.342   7.526  1.7646  1.3046  0.6791
 2077Sol     HW11259   0.993   2.267   7.588  0.2283 -1.7222 -0.0200
 2077Sol     MW11260   0.911   2.263   7.552 -1.0170 -0.2031  0.0167
 2078Sol     OW11261   0.022   0.392   1.970 -1.0742 -0.2742 -0.2660
 2078Sol     HW11262  -0.052   0.349   1.928 -1.9689  0.4694  0.5104
 2078Sol     HW11263   0.096   0.379   1.910 -2.2829  0.6484 -1.9890
 2078Sol     MW11264   0.022   0.387   1.961  0.4966 -0.5446 -0.2500
 2079Sol     OW11265   0.343   2.692   3.323 -0.5006  0.4372  0.2330
 2079Sol     HW11266   0.397   2.752   3.272 -0.2047  0.2022  0.2638
 2079Sol     HW11267   0.406   2.631   3.361 -0.7732  0.2761  0.4244
 2079Sol     MW11268   0.354   2.692   3.322 -0.0820  0.2510  0.4812
 2080Sol     OW11269   0.525   0.404   2.223 -0.4957 -0.0713 -0.0331
 2080Sol     HW11270   0.609   0.383   2.181  0.0426  1.7885  0.0772
 2080Sol     HW11271   0.509   0.331   2.283 -1.1437 -2.6595 -3.2256
 2080Sol     MW11272   0.531   0.396   2.225  0.0079  0.6121 -0.5938
 2081Sol     OW11273   1.944   0.318   1.999  0.2619 -0.2744 -0.3644
 2081Sol     HW11274   1.934   0.411   1.976 -0.6889 -0.6753 -1.6389
 2081Sol     HW11275   1.910   0.312   2.088  2.9968  1.1137  0.8346
 2081Sol     MW11276   1.940   0.326   2.005 -0.2878  0.2932 -0.8707
 2082Sol     OW11277   0.693   0.539   5.778  0.1280 -0.1907  0.2749
 2082Sol     HW11278   0.714   0.446   5.772 -0.8957 -0.4838  1.0888
 2082Sol     HW11279   0.644   0.547   5.860 -3.1778  0.4398 -1.6740
 2082Sol     MW11280   0.691   0.532   5.785  0.2096 -0.4796  0.8960
 2083Sol     OW11281   0.786   3.057   2.070  0.0684  0.2152 -0.2634
 2083Sol     HW11282   0.828   3.137   2.039  0.9812 -0.2444 -0.2228
 2083Sol     HW11283   0.727   3.032   1.998  0.3734  0.4889 -0.6107
 2083Sol     MW11284   0.784   3.062   2.060 -0.0256  0.3393 -0.3224
 2084Sol     OW11285   0.564   1.402   8.671 -0.5602 -0.0574  0.3024
 2084Sol     HW11286   0.614   1.484   8.666 -0.3902 -0.2387 -1.2384
 2084Sol     HW11287   0.473   1.431   8.682 -0.2651  0.2928  1.8886
 2084Sol     MW11288   0.560   1.412   8.671 -1.0596  0.4973  0.1935
 2085Sol     OW11289   0.979   2.227   6.498  0.2562 -0.1013  0.5307
 2085Sol     HW11290   1.069   2.201   6.516  0.3557 -0.4845 -0.4817
 2085Sol     HW11291   0.944   2.255   6.583  0.5967 -2.1373  1.3585
 2085Sol     MW11292   0.984   2.227   6.507 -0.2088 -0.4301 -0.8235
 2086Sol     OW11293   1.521   2.558   7.436  0.1763  0.2167  0.0276
 2086Sol     HW11294   1.508   2.469   7.403 -0.6901  0.3600 -0.0457
 2086Sol     HW11295   1.437   2.580   7.477  0.3832  1.0000  0.0400
 2086Sol     MW11296   1.512   2.552   7.437 -0.4773 -0.6102 -0.4509
 2087Sol     OW11297   2.209   3.371   3.756 -0.2904  0.1407 -0.3760
 2087Sol     HW11298   2.248   3.290   3.722  1.8086  1.6396 -1.7011
 2087Sol     HW11299   2.151   3.401   3.687 -3.2722 -1.6587  1.2688
 2087Sol     MW11300   2.208   3.366   3.747 -0.2544 -0.0077 -0.1134
 2088Sol     OW11301   1.301   2.442   6.385  0.6222  0.5476 -0.1537
 2088Sol     HW11302   1.233   2.442   6.317  0.7632 -0.7109 -0.3040
 2088Sol     HW11303   1.352   2.521   6.368 -0.5942  1.3202 -0.2558
 2088Sol     MW11304   1.299   2.449   6.377 -0.2475 -0.0921  1.6613
 2089Sol     OW11305   1.540   2.467   4.611 -0.6661 -0.1846  0.3160
 2089Sol     HW11306   1.612   2.409   4.588  0.3591  2.0722 -2.3529
 2089Sol     HW11307   1.573   2.518   4.685  0.4632  0.8287 -0.8881
 2089Sol     MW11308   1.549   2.466   4.616  0.5085  0.2878 -0.7918
 2090Sol     OW11309   0.532   1.697   5.239 -0.0910 -0.6481 -0.0110
 2090Sol     HW11310   0.597   1.659   5.180 -0.9073  0.2681 -1.5220
 2090Sol     HW11311   0.452   1.648   5.222 -0.2018 -0.7096  0.6884
 2090Sol     MW11312   0.531   1.690   5.232 -0.0854 -0.0318  0.7548
 2091Sol     OW11313   3.282   2.225   5.399  0.0593  0.1401  0.1928
 2091Sol     HW11314   3.352   2.162   5.383  0.4588  0.7701 -0.5916
 2091Sol     HW11315   3.265   2.219   5.493 -0.7061 -1.9487 -0.0639
 2091Sol     MW11316   3.287   2.219   5.406 -0.3441  0.1314  0.1948
 2092Sol     OW11317   2.756   0.245   7.063 -0.5469 -0.2486  0.1805
 2092Sol     HW11318   2.750   0.187   6.988  0.8587  2.9273 -2.5425
 2092Sol     HW11319   2.824   0.207   7.119  1.0714 -0.7127 -2.0508
 2092Sol     MW11320   2.761   0.237   7.062 -0.1203 -0.3460  0.5014
 2093Sol     OW11321   0.834   0.339   2.431  0.2523  0.2161 -0.0124
 2093Sol     HW11322   0.834   0.381   2.345  0.8664 -1.1811 -0.7071
 2093Sol     HW11323   0.867   0.251   2.415 -0.7259 -0.4445  1.4681
 2093Sol     MW11324   0.837   0.335   2.422 -0.5086 -0.2945  0.6821
 2094Sol     OW11325   2.236   2.106   3.700 -0.0259  0.1057 -0.0187
 2094Sol     HW11326   2.160   2.059   3.664 -0.7665  1.0226  0.3324
 2094Sol     HW11327   2.307   2.085   3.640 -1.1929  1.4667 -1.9483
 2094Sol     MW11328   2.235   2.100   3.691  0.2738 -0.0351 -0.2244
 2095Sol     OW11329   0.294   2.675   1.626  0.5439  0.6937  0.9043
 2095Sol     HW11330   0.253   2.744   1.678 -3.0072 -0.0136 -0.8078
 2095Sol     HW11331   0.261   2.594   1.663  1.9124  0.0172  0.6684
 2095Sol     MW11332   0.287   2.674   1.634 -0.2054 -0.2408 -0.4857
 2096Sol     OW11333   1.235   2.621   6.089  0.3160 -0.2040 -0.3317
 2096Sol     HW11334   1.185   2.549   6.128 -1.3231  1.7709  1.3531
 2096Sol     HW11335   1.321   2.616   6.131  0.1550 -1.0650 -0.0965
 2096Sol     MW11336   1.238   2.614   6.097  0.3668 -0.2213  0.1027
 2097Sol     OW11337   2.807   2.838   9.158 -0.1375  0.4180  0.0580
 2097Sol     HW11338   2.719   2.801   9.169 -1.2644  2.8253 -0.5956
 2097Sol     HW11339   2.822   2.835   9.063  0.4720  0.1125  0.1594
 2097Sol     MW11340   2.800   2.834   9.150 -0.3858  0.3516  0.0267
 2098Sol     OW11341   1.381   3.200   7.262 -1.0935 -0.1009  0.1734
 2098Sol     HW11342   1.300   3.160   7.230 -1.6746  1.4492 -0.3093
 2098Sol     HW11343   1.447   3.176   7.197 -1.3677 -0.5319  0.0524
 2098Sol     MW11344   1.379   3.194   7.253 -0.1771  0.8503 -0.0371
 2099Sol     OW11345   1.503   1.603   9.393 -0.0083  0.1020 -0.7530
 2099Sol     HW11346   1.440   1.616   9.464 -0.0516  0.8088 -0.9129
 2099Sol     HW11347   1.469   1.529   9.344  0.3349 -0.7705  0.3051
 2099Sol     MW11348   1.495   1.597   9.395 -0.3116  0.2041 -0.0119
 2100Sol     OW11349   0.772   1.129   2.094  0.6425  0.2160  0.2189
 2100Sol     HW11350   0.732   1.135   2.180 -0.6839 -2.1710 -0.2035
 2100Sol     HW11351   0.715   1.183   2.038 -0.6759 -1.2826  0.0923
 2100Sol     MW11352   0.763   1.135   2.096 -0.0749 -0.3059 -0.1801
 2101Sol     OW11353   3.306   0.132   8.650  0.1655  0.1002 -0.5063
 2101Sol     HW11354   3.374   0.179   8.602  0.1231  0.1058 -0.5606
 2101Sol     HW11355   3.307   0.043   8.613  1.9058 -0.6411  1.2565
 2101Sol     MW11356   3.312   0.128   8.642  0.4541 -0.3449 -0.5062
 2102Sol     OW11357   2.124   1.260   4.665  0.1926  0.4604  0.0216
 2102Sol     HW11358   2.104   1.353   4.679  1.1131  0.7103 -0.3165
 2102Sol     HW11359   2.208   1.260   4.619  0.9202 -0.5758  1.3249
 2102Sol     MW11360   2.130   1.268   4.662 -0.3168 -0.1486  0.3817
 2103Sol     OW11361   2.403   2.636   2.217  0.5413 -0.4764 -0.1996
 2103Sol     HW11362   2.334   2.701   2.205  2.0384  0.6810 -3.1123
 2103Sol     HW11363   2.441   2.657   2.302 -0.1264  1.3761 -0.3401
 2103Sol     MW11364   2.400   2.644   2.223  0.4278  0.0449 -0.8353
 2104Sol     OW11365   1.134   2.253   8.209 -0.2305 -0.1799 -0.1009
 2104Sol     HW11366   1.210   2.300   8.244 -0.4188  0.6094 -0.7366
 2104Sol     HW11367   1.062   2.316   8.214 -0.3289 -0.1526 -1.5998
 2104Sol     MW11368   1.135   2.263   8.212 -0.4029  0.8218  0.7788
 2105Sol     OW11369   0.754   3.361   8.433 -0.1764 -0.0936  0.5579
 2105Sol     HW11370   0.803   3.279   8.425  0.3633  0.1278  1.5654
 2105Sol     HW11371   0.784   3.399   8.515  0.2174  1.5374 -0.3187
 2105Sol     MW11372   0.761   3.357   8.439 -0.1768 -0.2732 -0.6626
 2106Sol     OW11373   1.002   2.642   9.995 -0.0702  0.0894  0.2928
 2106Sol     HW11374   0.949   2.579   9.946 -1.1264  3.3761 -3.0250
 2106Sol     HW11375   0.965   2.727   9.972  2.6444  2.0747  2.9661
 2106Sol     MW11376   0.994   2.644   9.988  0.9884  0.5541 -0.3147
 2107Sol     OW11377   1.148   1.640   3.888  0.0020  0.2021  0.2165
 2107Sol     HW11378   1.226   1.621   3.941  0.4839  1.1208 -0.1510
 2107Sol     HW11379   1.105   1.712   3.935  0.4357  1.0311 -0.6316
 2107Sol     MW11380   1.151   1.645   3.897 -0.2739  0.2146 -0.8734
 2108Sol     OW11381   3.061   0.066   6.752  0.1791 -0.3718 -0.4315
 2108Sol     HW11382   3.031   0.053   6.843  0.3495  0.6707 -0.2188
 2108Sol     HW11383   3.036   0.156   6.732  0.0639 -0.6327 -1.4574
 2108Sol     MW11384   3.056   0.073   6.759 -0.0688  0.0129 -0.2708
 2109Sol     OW11385   3.176   0.335   2.193  0.0681 -0.1878  0.2732
 2109Sol     HW11386   3.216   0.264   2.244 -0.4564 -0.3144  0.5156
 2109Sol     HW11387   3.235   0.347   2.119 -0.2680 -1.4647 -0.2292
 2109Sol     MW11388   3.185   0.329   2.191  0.8284 -0.0275 -0.6478
 2110Sol     OW11389   2.939   2.938   7.443 -0.6788 -0.3189  0.2089
 2110Sol     HW11390   3.021   2.954   7.396 -0.2516  0.7393  1.2896
 2110Sol     HW11391   2.877   3.001   7.406 -0.3744  0.4343  0.9671
 2110Sol     MW11392   2.941   2.945   7.436 -0.3834 -0.4795  0.2070
 2111Sol     OW11393   1.915   1.669   3.178 -0.4774  0.1816  0.3921
 2111Sol     HW11394   1.837   1.714   3.209  0.3570  1.4072  0.7429
 2111Sol     HW11395   1.900   1.656   3.085 -0.5749  1.4772  0.2270
 2111Sol     MW11396   1.907   1.672   3.173 -0.5296  1.4213 -0.7006
 2112Sol     OW11397   0.936   1.455   8.697  0.0708 -0.2141 -1.0714
 2112Sol     HW11398   0.917   1.467   8.790  0.6428  2.5772 -1.2563
 2112Sol     HW11399   0.993   1.379   8.693 -0.6437 -0.8716  0.7638
 2112Sol     MW11400   0.939   1.450   8.705  0.8336 -0.4385 -0.5374
 2113Sol     OW11401   0.194   2.695   6.431 -0.2230  0.1689  0.2073
 2113Sol     HW11402   0.186   2.739   6.346 -0.4771 -1.0789 -0.4250
 2113Sol     HW11403   0.105   2.692   6.466 -0.4271 -1.0693 -0.3870
 2113Sol     MW11404   0.185   2.699   6.426  0.0649  0.2052  0.1790
 2114Sol     OW11405   1.150   1.774   4.167 -0.3295 -0.1453  0.0794
 2114Sol     HW11406   1.054   1.773   4.161 -0.3926 -1.5297  0.9957
 2114Sol     HW11407   1.172   1.693   4.213  1.2761  0.2664  0.0767
 2114Sol     MW11408   1.143   1.767   4.171 -0.0222 -0.4656  0.2015
 2115Sol     OW11409   0.687   0.623   3.696  0.0965 -0.1783 -0.0639
 2115Sol     HW11410   0.679   0.545   3.640  1.5820 -0.9742  0.7958
 2115Sol     HW11411   0.673   0.590   3.785  2.5084  0.1977  0.4803
 2115Sol     MW11412   0.685   0.613   3.699 -0.4500 -0.1972  0.1700
 2116Sol     OW11413   2.432   1.953   6.732  0.1038 -0.4947  0.6056
 2116Sol     HW11414   2.371   2.026   6.738  1.9912  1.4073 -2.3989
 2116Sol     HW11415   2.402   1.902   6.656  2.7061  0.9870 -1.4922
 2116Sol     MW11416   2.424   1.955   6.726 -0.0396 -0.5190 -0.4925
 2117Sol     OW11417   1.990   1.758   2.608  0.2844 -0.1937 -0.3500
 2117Sol     HW11418   2.049   1.817   2.561  1.4774 -1.5382 -0.5854
 2117Sol     HW11419   1.993   1.788   2.699  0.3485  0.5300 -0.5881
 2117Sol     MW11420   1.996   1.766   2.612 -0.1104 -0.2493 -0.0422
 2118Sol     OW11421   1.515   1.003   9.681 -0.4049 -0.0473  0.2107
 2118Sol     HW11422   1.523   0.998   9.776 -1.8274 -1.4100  0.2736
 2118Sol     HW11423   1.536   0.915   9.650  1.9564  0.8672 -0.9089
 2118Sol     MW11424   1.517   0.995   9.686  0.4170 -0.0335  0.1076
 2119Sol     OW11425   2.222   3.398   2.232 -0.2698 -0.0494  0.6216
 2119Sol     HW11426   2.131   3.390   2.201 -0.3204  0.7379  0.5759
 2119Sol     HW11427   2.222   3.353   2.317 -0.0904 -2.4007 -0.5623
 2119Sol     MW11428   2.214   3.393   2.237 -0.2448 -0.3664  0.3592
 2120Sol     OW11429   1.637   2.570   4.113  0.5528  0.1523 -0.1214
 2120Sol     HW11430   1.697   2.605   4.046 -0.2831  0.1960 -0.8616
 2120Sol     HW11431   1.551   2.602   4.086 -0.1720 -2.0512 -0.5465
 2120Sol     MW11432   1.635   2.576   4.104 -0.5946 -0.0369  0.6050
 2121Sol     OW11433   2.509   3.307   4.628  0.3219 -0.0342  0.0007
 2121Sol     HW11434   2.454   3.249   4.576 -0.2572  0.6149 -0.1187
 2121Sol     HW11435   2.585   3.324   4.573  1.1913 -1.8176  0.5965
 2121Sol     MW11436   2.511   3.303   4.619  0.4090  0.6369  0.6150
 2122Sol     OW11437   2.911   1.014   7.121 -0.3831  0.3904 -0.1409
 2122Sol     HW11438   2.863   1.017   7.204  0.7521 -1.2127  0.6129
 2122Sol     HW11439   2.845   0.992   7.055 -1.0502  0.2995  0.5548
 2122Sol     MW11440   2.901   1.012   7.122  0.0573  0.0219 -0.4768
 2123Sol     OW11441   1.305   0.018   5.266 -0.8085 -0.3789  0.1071
 2123Sol     HW11442   1.346   0.010   5.180 -3.2607 -0.8570 -1.0547
 2123Sol     HW11443   1.355   0.087   5.310 -0.9199  1.4914 -2.5543
 2123Sol     MW11444   1.313   0.024   5.262  0.6470  0.7379 -0.5205
 2124Sol     OW11445   1.443   0.551   3.769 -0.1334 -0.0741 -0.1179
 2124Sol     HW11446   1.425   0.601   3.690 -0.5181 -1.8041 -1.1397
 2124Sol     HW11447   1.358   0.516   3.795  0.1742 -0.3918  0.4831
 2124Sol     MW11448   1.434   0.553   3.765  0.1881  0.4499 -0.9450
 2125Sol     OW11449   0.899   3.400   3.246 -0.5044 -0.5012 -0.5739
 2125Sol     HW11450   0.942   3.319   3.273 -0.7139 -0.8778 -1.3615
 2125Sol     HW11451   0.952   3.469   3.285  0.3252 -0.9876 -0.8238
 2125Sol     MW11452   0.907   3.399   3.252 -0.7733 -0.9462  0.2478
 2126Sol     OW11453   1.085   2.548   7.426  0.1599  0.3709  0.0735
 2126Sol     HW11454   1.072   2.631   7.379  1.5600  0.4855 -0.1351
 2126Sol     HW11455   1.028   2.556   7.503  0.7658  1.8093  0.3996
 2126Sol     MW11456   1.079   2.556   7.428 -0.0791 -0.4248  0.4287
 2127Sol     OW11457   3.104   0.293   9.373  0.0079  0.2751  0.4369
 2127Sol     HW11458   3.076   0.321   9.460 -0.7178 -1.4854  0.7900
 2127Sol     HW11459   3.023   0.285   9.323  0.2089 -0.9691  0.2902
 2127Sol     MW11460   3.094   0.295   9.376 -0.1709 -0.1563  0.1540
 2128Sol     OW11461   3.167   2.640   5.340  0.8730 -0.0176 -0.8457
 2128Sol     HW11462   3.239   2.607   5.394  1.9768 -0.2837 -2.4570
 2128Sol     HW11463   3.155   2.575   5.272 -3.3348 -1.7860  1.3715
 2128Sol     MW11464   3.173   2.632   5.339 -0.0569  0.2488  0.4112
 2129Sol     OW11465   0.560   2.389   9.865 -0.2487  0.0933  0.3082
 2129Sol     HW11466   0.494   2.321   9.875  0.0329 -0.0384  1.3925
 2129Sol     HW11467   0.529   2.461   9.921  1.8148 -0.9708  2.9390
 2129Sol     MW11468   0.551   2.390   9.871  0.1753  0.1305 -0.4044
 2130Sol     OW11469   3.050   0.696   6.367  0.3983  0.0585  0.2210
 2130Sol     HW11470   2.996   0.713   6.444 -1.4464 -0.6015 -0.8972
 2130Sol     HW11471   3.049   0.779   6.318  0.9030  0.2312  0.5019
 2130Sol     MW11472   3.045   0.705   6.369 -0.1208 -0.1631 -0.0500
 2131Sol     OW11473   0.301   1.897   3.789 -0.2574 -0.0111  0.1937
 2131Sol     HW11474   0.345   1.894   3.704 -1.1081  1.5933 -0.3186
 2131Sol     HW11475   0.362   1.854   3.849  0.5528 -0.7442 -1.1285
 2131Sol     MW11476   0.310   1.892   3.787  0.2783  0.2525 -0.2576
 2132Sol     OW11477   2.424   3.110   6.488 -0.1795  0.1223  0.1738
 2132Sol     HW11478   2.422   3.197   6.449 -0.7446  0.3268  0.6483
 2132Sol     HW11479   2.406   3.051   6.415  1.0542  0.3374 -0.3177
 2132Sol     MW11480   2.422   3.113   6.478 -0.3238 -0.2056  0.0483
 2133Sol     OW11481   2.782   2.293   5.424 -0.2409 -0.2850  0.2744
 2133Sol     HW11482   2.700   2.321   5.464  0.4656  0.7220  1.0500
 2133Sol     HW11483   2.845   2.295   5.496  1.5691  3.6660 -1.2676
 2133Sol     MW11484   2.780   2.296   5.434 -0.2897  0.3675 -0.3607
 2134Sol     OW11485   1.143   3.258   5.163  0.0012 -0.1011  0.5030
 2134Sol     HW11486   1.227   3.285   5.200 -0.1731 -0.4776  1.1934
 2134Sol     HW11487   1.099   3.213   5.235 -0.1255 -1.3337 -0.3238
 2134Sol     MW11488   1.146   3.256   5.173 -0.4558 -0.2737  0.1887
 2135Sol     OW11489   1.874   2.521   7.750  0.4049  0.0306 -0.4636
 2135Sol     HW11490   1.778   2.526   7.745  0.3600 -0.3710 -0.0956
 2135Sol     HW11491   1.905   2.568   7.672 -0.0542  1.3101  0.1167
 2135Sol     MW11492   1.868   2.525   7.742 -0.1890  0.2343 -0.1063
 2136Sol     OW11493   3.180   2.773   9.823  0.6949 -0.1667 -0.8336
 2136Sol     HW11494   3.132   2.696   9.852  0.9451  0.1576  0.4777
 2136Sol     HW11495   3.219   2.747   9.740  1.2248 -1.6411 -0.1392
 2136Sol     MW11496   3.179   2.764   9.818  0.2799  0.1086  1.0592
 2137Sol     OW11497   2.050   1.732   9.055 -0.1250  0.9851  0.0828
 2137Sol     HW11498   2.034   1.638   9.054 -0.8914  1.1102  0.3030
 2137Sol     HW11499   2.022   1.761   9.141  0.7860  1.3068  0.2804
 2137Sol     MW11500   2.046   1.726   9.062 -0.3511 -0.0658  0.0823
 2138Sol     OW11501   3.063   3.186   7.787 -0.5252  0.0208  0.3970
 2138Sol     HW11502   3.149   3.227   7.780  0.3110 -1.3055  2.5889
 2138Sol     HW11503   3.069   3.107   7.732 -0.0657 -0.5058  1.1986
 2138Sol     MW11504   3.071   3.182   7.782 -0.2768  0.3358 -0.1704
 2139Sol     OW11505   1.815   2.249   3.532 -0.2742 -0.1024 -0.4782
 2139Sol     HW11506   1.720   2.243   3.523 -0.1545 -1.2795 -0.9734
 2139Sol     HW11507   1.845   2.158   3.537  0.7180  0.2737  0.8228
 2139Sol     MW11508   1.810   2.240   3.532 -0.3619  0.1667  0.0251
 2140Sol     OW11509   2.438   1.293   4.704 -0.6947  0.1809  0.3306
 2140Sol     HW11510   2.499   1.346   4.756 -1.1145 -0.9010  1.9811
 2140Sol     HW11511   2.494   1.235   4.653 -0.2768  1.1378 -0.3056
 2140Sol     MW11512   2.448   1.292   4.704  0.1381  0.5167 -0.7377
 2141Sol     OW11513   0.705   2.134   2.335  0.3380  0.2065  0.6358
 2141Sol     HW11514   0.780   2.155   2.278  0.3375 -1.9651 -0.1914
 2141Sol     HW11515   0.629   2.157   2.282  0.2422 -4.3666 -1.4358
 2141Sol     MW11516   0.705   2.138   2.325 -0.7271 -0.4752  0.0296
 2142Sol     OW11517   0.031   3.070   3.800 -0.3165 -0.3798  0.7010
 2142Sol     HW11518   0.103   3.106   3.853 -0.6708  0.1048  0.8540
 2142Sol     HW11519   0.074   3.006   3.743  0.1594 -0.4900  1.1680
 2142Sol     MW11520   0.042   3.067   3.800 -0.6614 -0.5486 -0.0145
 2143Sol     OW11521   2.147   1.122   1.927 -0.4795 -0.1166 -0.0278
 2143Sol     HW11522   2.100   1.204   1.909  0.6802  0.3466 -1.0387
 2143Sol     HW11523   2.111   1.060   1.863 -1.1474 -0.3187  0.5411
 2143Sol     MW11524   2.140   1.124   1.920 -0.1467 -0.0870 -0.8433
 2144Sol     OW11525   2.292   2.908   9.760  0.0473  0.0805  0.8757
 2144Sol     HW11526   2.228   2.842   9.787  0.3384 -0.3553  0.5113
 2144Sol     HW11527   2.304   2.893   9.666  0.1744  0.6031  0.8059
 2144Sol     MW11528   2.288   2.901   9.754 -0.0690  0.0607 -0.0728
 2145Sol     OW11529   1.012   2.251   9.102  0.8457  0.6528 -0.0989
 2145Sol     HW11530   1.016   2.295   9.017  2.4040 -1.8498 -1.4125
 2145Sol     HW11531   0.929   2.203   9.099  0.1156  1.8653  0.4913
 2145Sol     MW11532   1.005   2.250   9.094 -0.7759 -0.4633 -0.3905
 2146Sol     OW11533   3.148   3.245   6.002  0.1161  0.3988  0.1978
 2146Sol     HW11534   3.060   3.207   5.998 -0.6357  1.8514  1.9117
 2146Sol     HW11535   3.206   3.170   6.010 -0.9905 -0.5842 -0.7970
 2146Sol     MW11536   3.145   3.235   6.003 -0.8718  0.4696 -0.0923
 2147Sol     OW11537   0.383   1.833   6.433  0.0869  0.1019 -0.2831
 2147Sol     HW11538   0.300   1.877   6.452  0.0394 -0.1066 -0.0088
 2147Sol     HW11539   0.428   1.829   6.518  1.0095  1.5178 -0.6905
 2147Sol     MW11540   0.379   1.836   6.442 -0.1286  0.0614 -1.0430
 2148Sol     OW11541   1.682   0.896   7.707  0.5049 -0.4106  0.0562
 2148Sol     HW11542   1.739   0.821   7.694  0.6070 -0.2554 -0.3939
 2148Sol     HW11543   1.715   0.963   7.647  1.8414  0.7947  2.0414
 2148Sol     MW11544   1.690   0.895   7.701  0.1234  0.0316 -0.5656
 2149Sol     OW11545   0.184   1.977   7.585 -0.1537  0.7511 -0.1899
 2149Sol     HW11546   0.247   1.966   7.514  0.1443  0.3997  0.1339
 2149Sol     HW11547   0.099   1.982   7.540  0.1137  1.4228 -0.6356
 2149Sol     MW11548   0.182   1.977   7.575  0.2212  0.1451 -0.0077
 2150Sol     OW11549   0.963   2.856   2.131 -0.1748 -0.3633  0.4431
 2150Sol     HW11550   0.900   2.925   2.112 -1.6573 -1.4212  1.3768
 2150Sol     HW11551   1.044   2.884   2.088 -2.0819 -0.4006 -3.3833
 2150Sol     MW11552   0.964   2.864   2.125 -0.8912 -0.4350  0.1944
 2151Sol     OW11553   2.669   1.776   8.460 -0.0440  0.4640  0.5214
 2151Sol     HW11554   2.685   1.846   8.524  0.7314  0.0509  0.7866
 2151Sol     HW11555   2.738   1.712   8.478 -0.0001  0.2137 -0.5490
 2151Sol     MW11556   2.677   1.777   8.467 -0.2380 -0.5559  0.4879
 2152Sol     OW11557   2.572   1.333   6.556 -0.2862  0.0148 -0.0891
 2152Sol     HW11558   2.519   1.261   6.518  0.8482 -0.7851 -0.1750
 2152Sol     HW11559   2.546   1.336   6.648 -0.7551 -0.1313 -0.2141
 2152Sol     MW11560   2.565   1.327   6.561 -0.0612  0.0428 -1.0478
 2153Sol     OW11561   3.000   2.531   3.751 -0.0131  0.3334  0.1774
 2153Sol     HW11562   3.020   2.535   3.658 -1.1569  3.0510 -0.0176
 2153Sol     HW11563   3.064   2.589   3.792 -1.0941  1.1621  0.7383
 2153Sol     MW11564   3.007   2.537   3.746  0.2036  0.1923 -0.0460
 2154Sol     OW11565   1.267   2.845   9.183  0.1995  0.2098  0.1094
 2154Sol     HW11566   1.317   2.864   9.262 -0.9843  0.6861  0.7444
 2154Sol     HW11567   1.307   2.764   9.149  1.3294  0.5285  0.6585
 2154Sol     MW11568   1.275   2.839   9.187  0.4283  0.2369 -0.3601
 2155Sol     OW11569   2.575   3.411   2.378 -0.4131 -0.1886 -0.3705
 2155Sol     HW11570   2.512   3.384   2.312 -0.1940 -0.4775 -0.4633
 2155Sol     HW11571   2.660   3.396   2.337 -0.2951  2.0260 -0.9630
 2155Sol     MW11572   2.577   3.407   2.369  0.9064 -0.6730  0.7873
 2156Sol     OW11573   3.179   0.595   6.975 -0.3714 -0.0276 -0.3769
 2156Sol     HW11574   3.134   0.528   7.026  0.8982 -0.2610  0.4447
 2156Sol     HW11575   3.154   0.678   7.017 -1.7959  0.0304 -1.2840
 2156Sol     MW11576   3.172   0.596   6.983 -0.2911  0.6409 -0.7423
 2157Sol     OW11577   3.271   1.371   3.891  0.1412  0.0792  0.3467
 2157Sol     HW11578   3.239   1.353   3.803 -0.9523 -0.0034  0.7579
 2157Sol     HW11579   3.217   1.443   3.922  0.5479  0.1278  0.9490
 2157Sol     MW11580   3.264   1.376   3.886 -0.6151 -0.1307  0.3561
 2158Sol     OW11581   1.938   2.161   1.473  0.0570 -0.1932  0.1962
 2158Sol     HW11582   1.845   2.142   1.484 -0.0421 -0.7286 -1.4010
 2158Sol     HW11583   1.941   2.250   1.438  0.1797  0.0739  0.8849
 2158Sol     MW11584   1.930   2.167   1.470 -0.1730 -0.1707  0.1839
 2159Sol     OW11585   2.721   3.400   4.479 -0.2307  0.2592  0.6910
 2159Sol     HW11586   2.723   3.496   4.473 -1.6382  0.3109  1.0094
 2159Sol     HW11587   2.814   3.375   4.478  0.1074  1.4393 -1.9026
 2159Sol     MW11588   2.730   3.406   4.479 -0.0711  0.4041  0.3704
 2160Sol     OW11589   2.719   1.130   6.103  0.0294 -0.4551  0.5472
 2160Sol     HW11590   2.768   1.164   6.179 -0.6957  0.2009  0.7328
 2160Sol     HW11591   2.713   1.036   6.119 -1.1742 -0.1613  1.9335
 2160Sol     MW11592   2.723   1.125   6.111  0.2817  0.3163 -0.0528
 2161Sol     OW11593   2.464   1.893   5.102  0.1414 -0.1961 -0.0609
 2161Sol     HW11594   2.492   1.979   5.070 -0.9899  0.3242  0.3285
 2161Sol     HW11595   2.543   1.856   5.141  0.3674  1.1404  0.7932
 2161Sol     MW11596   2.474   1.898   5.103  0.4948 -0.4822 -0.1239
 2162Sol     OW11597   2.398   2.918   4.813  0.2032 -0.4682  0.3425
 2162Sol     HW11598   2.430   2.846   4.758 -0.6074  0.1579 -0.9639
 2162Sol     HW11599   2.463   2.988   4.800  0.7905 -0.8272  1.3212
 2162Sol     MW11600   2.407   2.918   4.807 -0.5478 -0.4338  0.1302
 2163Sol     OW11601   2.756   0.784   2.059 -0.4399 -0.4986 -0.0847
 2163Sol     HW11602   2.769   0.825   1.974 -0.2743  0.9401  0.6242
 2163Sol     HW11603   2.716   0.699   2.039 -0.4944 -0.1294 -1.5803
 2163Sol     MW11604   2.753   0.780   2.050 -0.7468  0.1264  0.4223
 2164Sol     OW11605   1.536   0.022   8.582 -0.0408 -0.2790  0.3346
 2164Sol     HW11606   1.547   0.076   8.660  2.6827 -1.1794  0.5966
 2164Sol     HW11607   1.563  -0.066   8.608 -3.0041 -1.5271 -0.5187
 2164Sol     MW11608   1.539   0.019   8.591  0.2562  0.4469 -0.8470
 2165Sol     OW11609   2.408   1.306   3.910 -0.0308  0.0655  0.1250
 2165Sol     HW11610   2.460   1.347   3.979  2.4982 -0.6552 -1.2581
 2165Sol     HW11611   2.450   1.221   3.896  0.7462  0.9757 -3.5725
 2165Sol     MW11612   2.417   1.302   3.915  0.5450 -0.0311 -0.1547
 2166Sol     OW11613   1.351   0.671   3.550 -0.4764 -0.6889  0.1179
 2166Sol     HW11614   1.288   0.736   3.582 -1.1091 -0.0879 -2.2368
 2166Sol     HW11615   1.417   0.722   3.502 -1.5072 -1.7763 -2.6039
 2166Sol     MW11616   1.351   0.681   3.548 -0.3025  0.3028  0.6052
 2167Sol     OW11617   1.664   1.178   8.240  0.1893  0.0297  0.8158
 2167Sol     HW11618   1.703   1.114   8.179 -0.7447 -0.1237  0.3785
 2167Sol     HW11619   1.691   1.263   8.205  2.0262 -0.1248  1.7958
 2167Sol     MW11620   1.670   1.180   8.231  0.0487 -0.0758  0.2824
 2168Sol     OW11621   2.707   1.458   4.756 -0.1259 -0.5347 -0.2554
 2168Sol     HW11622   2.796   1.424   4.748 -0.6268 -1.6687 -1.1482
 2168Sol     HW11623   2.695   1.511   4.677  0.3795  1.1315  0.7545
 2168Sol     MW11624   2.714   1.459   4.748  0.1128  0.4187  0.0988
 2169Sol     OW11625   2.622   1.370   5.458  0.2794  0.7394  0.0569
 2169Sol     HW11626   2.680   1.340   5.528 -0.3583  0.7351  0.5833
 2169Sol     HW11627   2.540   1.391   5.502 -0.1430  0.6860 -0.6969
 2169Sol     MW11628   2.620   1.369   5.468  0.5283  0.0204 -0.6196
 2170Sol     OW11629   0.959   0.495   6.601 -0.0566  0.4710  0.6200
 2170Sol     HW11630   1.052   0.501   6.578 -0.2804  1.2245 -0.1582
 2170Sol     HW11631   0.932   0.409   6.569  0.0828  0.7594 -0.3132
 2170Sol     MW11632   0.965   0.488   6.596  0.4549 -0.1173 -0.4063
 2171Sol     OW11633   1.037   3.319   1.603 -0.1116 -0.2275 -0.4151
 2171Sol     HW11634   1.034   3.232   1.643 -0.1930 -0.6508 -1.3201
 2171Sol     HW11635   1.031   3.380   1.677  0.0654 -0.9883  0.2339
 2171Sol     MW11636   1.036   3.317   1.613 -0.0471  0.6847  0.0943
 2172Sol     OW11637   3.276   0.183   2.575  0.2199  0.2316 -0.0641
 2172Sol     HW11638   3.264   0.186   2.480 -0.6763  1.4088  0.0838
 2172Sol     HW11639   3.297   0.273   2.600 -2.6803  0.5915  1.2534
 2172Sol     MW11640   3.277   0.191   2.569 -0.0958  0.3690  0.5514
 2173Sol     OW11641   2.023   0.113   5.334  0.3406 -0.2710 -0.0774
 2173Sol     HW11642   1.951   0.063   5.296  0.9064 -0.6981 -0.5840
 2173Sol     HW11643   1.983   0.161   5.407 -0.2380 -1.3296  0.3024
 2173Sol     MW11644   2.013   0.113   5.337  1.0186  0.1831  0.7247
 2174Sol     OW11645   0.466   3.268   2.902  0.7406 -0.0245 -0.1315
 2174Sol     HW11646   0.382   3.222   2.910  0.6885  0.0083 -0.4650
 2174Sol     HW11647   0.530   3.198   2.892  1.1939 -0.2119  3.5100
 2174Sol     MW11648   0.464   3.257   2.902 -0.1340  0.3286  0.8072
 2175Sol     OW11649   2.213   2.923   2.794  0.3678  0.0527  0.0243
 2175Sol     HW11650   2.195   2.921   2.888  0.4182 -1.9662  0.0202
 2175Sol     HW11651   2.177   2.841   2.761  4.1065 -1.2668 -0.9833
 2175Sol     MW11652   2.208   2.916   2.800 -0.6750  0.0465  0.1817
 2176Sol     OW11653   0.282   2.358   4.222 -0.1961 -0.5012  0.1333
 2176Sol     HW11654   0.340   2.417   4.173 -2.2149  1.7443  0.3802
 2176Sol     HW11655   0.289   2.387   4.313 -1.2705 -0.5606  0.2399
 2176Sol     MW11656   0.288   2.366   4.225 -0.4692 -0.5268  0.0062
 2177Sol     OW11657   1.925   1.851   5.620 -0.6857 -0.1711 -0.0427
 2177Sol     HW11658   1.874   1.784   5.575 -2.1274 -0.4852  2.0032
 2177Sol     HW11659   1.979   1.802   5.682  2.2908  0.1416 -2.2893
 2177Sol     MW11660   1.925   1.840   5.622 -0.9701 -0.0800 -0.2377
 2178Sol     OW11661   2.173   2.801   9.446  1.0247  0.3010 -0.8150
 2178Sol     HW11662   2.086   2.838   9.463  0.8738 -0.4701  0.1160
 2178Sol     HW11663   2.210   2.857   9.377 -0.4280  0.2988 -1.6135
 2178Sol     MW11664   2.169   2.809   9.441  0.0868  0.1327  0.2114
 2179Sol     OW11665   1.090   0.427   3.696  0.1199 -1.2069 -0.1583
 2179Sol     HW11666   1.148   0.439   3.771 -1.9830  1.4747  1.1331
 2179Sol     HW11667   1.053   0.340   3.708 -1.1841 -0.3167  2.6787
 2179Sol     MW11668   1.092   0.420   3.703 -0.8751 -1.0237 -0.0251
 2180Sol     OW11669   2.770   2.316   3.731  0.1596 -0.5578 -0.5024
 2180Sol     HW11670   2.806   2.262   3.801  0.9366  0.5027 -0.0644
 2180Sol     HW11671   2.740   2.396   3.775 -2.4151 -1.2393 -0.9060
 2180Sol     MW11672   2.770   2.318   3.742 -0.5556  0.5861 -0.4658
 2181Sol     OW11673   0.675   1.929   6.545  0.5468 -0.1482  0.3567
 2181Sol     HW11674   0.696   1.871   6.472 -3.1870 -2.5292  1.0496
 2181Sol     HW11675   0.653   2.013   6.504 -0.6315 -1.2005 -1.2253
 2181Sol     MW11676   0.675   1.932   6.535  0.2363  0.2001 -0.2498
 2182Sol     OW11677   1.229   1.178   8.189 -0.3819  0.1126  0.3382
 2182Sol     HW11678   1.243   1.263   8.148  0.1436 -0.7199 -1.2462
 2182Sol     HW11679   1.138   1.156   8.170 -1.0125  1.0743  2.1952
 2182Sol     MW11680   1.222   1.184   8.184  0.4678  0.3686 -0.6859
 2183Sol     OW11681   2.755   0.103   2.076  0.8458  0.1786  0.0634
 2183Sol     HW11682   2.756   0.057   2.160 -3.2940  2.4014  1.4638
 2183Sol     HW11683   2.812   0.179   2.089  2.6388 -1.1052 -0.1820
 2183Sol     MW11684   2.760   0.106   2.084 -0.4991 -0.8151 -0.5924
 2184Sol     OW11685   0.614   2.852   7.977  0.5802 -0.6316 -0.6211
 2184Sol     HW11686   0.635   2.904   7.900 -0.7262  1.0537  0.1379
 2184Sol     HW11687   0.673   2.777   7.972  1.1776 -0.0518 -2.7342
 2184Sol     MW11688   0.621   2.850   7.970 -0.3594 -0.0191  0.1944
 2185Sol     OW11689   2.260   1.207   9.754 -0.1291  0.6054  0.3230
 2185Sol     HW11690   2.185   1.211   9.813 -1.3864 -2.2623 -0.9994
 2185Sol     HW11691   2.296   1.119   9.766  1.5327  1.0977 -0.8564
 2185Sol     MW11692   2.257   1.199   9.760 -0.2879  0.7684 -0.8991
 2186Sol     OW11693   2.125   3.107   9.710  0.1411  0.0215  0.3856
 2186Sol     HW11694   2.170   3.029   9.743  0.2128  0.4422  1.2882
 2186Sol     HW11695   2.080   3.143   9.786 -2.6026 -0.9636 -0.7415
 2186Sol     MW11696   2.125   3.103   9.719  0.5657  0.1980 -0.0388
 2187Sol     OW11697   0.657   3.100   3.389 -0.4983  0.6889  0.2910
 2187Sol     HW11698   0.636   3.122   3.299  2.1347  0.1205 -0.4887
 2187Sol     HW11699   0.695   3.179   3.426 -2.7124  1.3202  1.3254
 2187Sol     MW11700   0.658   3.109   3.384  0.2748 -0.9141 -0.1479
 2188Sol     OW11701   0.170   0.310   8.600  0.3306 -0.1092  0.3713
 2188Sol     HW11702   0.211   0.316   8.687  1.2191  0.2438 -0.0620
 2188Sol     HW11703   0.231   0.355   8.542  0.4744 -1.6286 -0.6911
 2188Sol     MW11704   0.179   0.314   8.603 -0.6989  0.3101  1.2014
 2189Sol     OW11705   1.559   3.146   5.960 -0.0408 -0.6826 -0.4712
 2189Sol     HW11706   1.475   3.098   5.961 -0.9996  0.9636  0.0221
 2189Sol     HW11707   1.539   3.227   5.913  1.2009 -0.1285 -0.0515
 2189Sol     MW11708   1.549   3.149   5.956  0.0385 -0.4436  0.6540
 2190Sol     OW11709   0.084   0.982   2.047  0.1998 -0.5353 -0.0511
 2190Sol     HW11710   0.122   0.944   1.968  0.7954  0.0557 -0.0487
 2190Sol     HW11711   0.026   0.914   2.081  0.7022 -1.1641 -0.4516
 2190Sol     MW11712   0.082   0.973   2.043 -0.0900 -0.2204 -0.3444
 2191Sol     OW11713   0.144   2.205   6.583 -0.0503 -0.3119  0.3808
 2191Sol     HW11714   0.237   2.202   6.607  0.1122  0.0411 -0.2145
 2191Sol     HW11715   0.108   2.275   6.637  0.3586  0.6168 -0.5338
 2191Sol     MW11716   0.149   2.211   6.590 -0.2792 -0.2556 -0.3922
 2192Sol     OW11717   0.199   3.420   6.328 -0.6195  0.3611  0.5288
 2192Sol     HW11718   0.155   3.343   6.364 -0.5921 -0.1078 -0.4150
 2192Sol     HW11719   0.168   3.425   6.238  0.4650  0.6222  0.1634
 2192Sol     MW11720   0.192   3.413   6.323  0.5915 -0.2236 -0.4239
 2193Sol     OW11721   0.886   1.556   8.947 -0.1913  0.4670  0.2483
 2193Sol     HW11722   0.960   1.538   9.004  1.3682  0.0232 -1.8820
 2193Sol     HW11723   0.817   1.585   9.006  1.1286 -0.7580  2.4407
 2193Sol     MW11724   0.886   1.557   8.957  0.1045  0.0850  0.2813
 2194Sol     OW11725   1.072   1.802   2.119 -0.1215  0.4444 -0.0543
 2194Sol     HW11726   1.014   1.862   2.166 -2.2738  0.3798 -2.4893
 2194Sol     HW11727   1.025   1.718   2.120  2.2317 -0.9531  2.1401
 2194Sol     MW11728   1.062   1.800   2.124  0.3357 -0.4391 -1.1366
 2195Sol     OW11729   2.483   2.087   7.390  0.2677 -0.2582  0.0141
 2195Sol     HW11730   2.509   2.047   7.472 -0.3484 -0.8041 -0.0571
 2195Sol     HW11731   2.486   2.182   7.407 -0.4304 -0.3772  0.8452
 2195Sol     MW11732   2.485   2.092   7.399 -0.3563 -0.0507 -0.6393
 2196Sol     OW11733   0.712   1.830   7.385 -0.2977 -0.2104  0.4055
 2196Sol     HW11734   0.702   1.920   7.419 -0.0580 -0.8671  2.3049
 2196Sol     HW11735   0.704   1.775   7.463  1.0650 -1.7492 -0.5221
 2196Sol     MW11736   0.711   1.834   7.395 -0.9585 -0.7549  0.7290
 2197Sol     OW11737   2.634   2.208   1.414 -0.1593  0.0866  0.6222
 2197Sol     HW11738   2.655   2.293   1.454 -0.5674  1.2711 -1.5891
 2197Sol     HW11739   2.548   2.186   1.450  0.6214 -0.1528  2.3926
 2197Sol     MW11740   2.628   2.214   1.421  0.3014  0.6687  0.0989
 2198Sol     OW11741   1.707   0.107   4.951 -0.2156  0.2473  0.5208
 2198Sol     HW11742   1.730   0.189   4.995  0.0678 -0.1383  1.0975
 2198Sol     HW11743   1.769   0.101   4.878 -1.8996  1.8260 -1.0893
 2198Sol     MW11744   1.715   0.114   4.948  0.3758  0.2648 -0.7639
 2199Sol     OW11745   1.404   3.191   3.554 -0.4426  0.0617  0.1874
 2199Sol     HW11746   1.497   3.175   3.540 -0.6726 -0.5381 -0.7202
 2199Sol     HW11747   1.360   3.120   3.508 -1.3693  0.8413 -0.1715
 2199Sol     MW11748   1.408   3.184   3.548  0.1393  0.1699  0.6852
 2200Sol     OW11749   0.424   0.208   2.357  0.0786  0.6591  0.0302
 2200Sol     HW11750   0.344   0.256   2.335  0.1760  1.0551  0.5335
 2200Sol     HW11751   0.428   0.210   2.453 -0.7678 -1.7350  0.1666
 2200Sol     MW11752   0.417   0.212   2.364  0.3486  0.1431 -0.5719
 2201Sol     OW11753   1.841   1.478   7.918 -0.2701 -0.3344  0.0136
 2201Sol     HW11754   1.933   1.502   7.907 -0.5244  0.6472 -0.0155
 2201Sol     HW11755   1.793   1.545   7.869 -1.0293 -0.5247  0.4903
 2201Sol     MW11756   1.845   1.487   7.912  0.6671 -0.1773 -0.0348
 2202Sol     OW11757   3.214   1.313   4.336 -0.1579  0.6498  0.0331
 2202Sol     HW11758   3.309   1.322   4.344 -0.4127  1.4481  2.7336
 2202Sol     HW11759   3.196   1.224   4.366 -0.1952  0.1710 -1.3727
 2202Sol     MW11760   3.221   1.306   4.340  0.2503 -0.0783 -0.7047
 2203Sol     OW11761   2.984   3.291   4.204 -0.1062  0.3836  0.3674
 2203Sol     HW11762   3.069   3.260   4.235 -0.8186  0.1140  2.1039
 2203Sol     HW11763   2.968   3.242   4.124  0.9308 -0.2611  0.5448
 2203Sol     MW11764   2.990   3.284   4.200  0.0638  0.1935  0.4193
 2204Sol     OW11765   2.290   2.551   5.850 -0.1014 -0.2488  0.1352
 2204Sol     HW11766   2.328   2.533   5.936 -1.1474 -0.3832  0.5855
 2204Sol     HW11767   2.293   2.467   5.804  1.2806  0.0312 -0.2975
 2204Sol     MW11768   2.294   2.542   5.854  0.5848 -0.2399  0.1845
 2205Sol     OW11769   2.624   1.322   2.807  0.3905  0.5670 -0.7089
 2205Sol     HW11770   2.585   1.395   2.758  0.7163  1.4612  0.3472
 2205Sol     HW11771   2.715   1.348   2.820  0.5080 -0.0395 -0.3247
 2205Sol     MW11772   2.629   1.331   2.803 -0.0263 -0.6246  1.0229
 2206Sol     OW11773   0.694   3.346   6.742 -0.1013 -0.4983 -0.2690
 2206Sol     HW11774   0.705   3.425   6.795  0.6450 -0.7789  0.0001
 2206Sol     HW11775   0.771   3.293   6.762  0.3354 -0.4812 -1.8452
 2206Sol     MW11776   0.702   3.349   6.749  0.1610  0.3340  0.7442
 2207Sol     OW11777   0.127   1.745   8.643 -0.0504 -0.6550  0.0189
 2207Sol     HW11778   0.131   1.785   8.556  0.2987 -1.9595 -0.5772
 2207Sol     HW11779   0.218   1.728   8.666 -0.0089  1.2928  1.4205
 2207Sol     MW11780   0.135   1.747   8.638 -0.7307  0.4210  0.5321
 2208Sol     OW11781   1.770   2.683   5.093 -0.4158 -0.1115  0.1530
 2208Sol     HW11782   1.831   2.609   5.095 -1.1199 -0.6646  2.1806
 2208Sol     HW11783   1.799   2.735   5.018 -1.3941 -3.6750 -2.8951
 2208Sol     MW11784   1.778   2.681   5.086 -0.6594 -0.1419  0.4117
 2209Sol     OW11785   0.312   0.480   4.856  0.2031 -0.3097  0.6598
 2209Sol     HW11786   0.279   0.559   4.815  1.9666 -0.5083 -1.2647
 2209Sol     HW11787   0.392   0.507   4.901  0.6781 -0.9285  0.2099
 2209Sol     MW11788   0.317   0.489   4.856  0.0127 -0.0505 -0.1702
 2210Sol     OW11789   1.094   3.078   4.976  0.5616 -0.1400 -0.2469
 2210Sol     HW11790   1.096   3.125   4.893  1.0019  1.1031  0.4429
 2210Sol     HW11791   1.129   3.141   5.039 -0.6184 -0.7302  1.0296
 2210Sol     MW11792   1.097   3.088   4.974  0.2385 -0.4366 -0.2314
 2211Sol     OW11793   2.991   2.258   8.254  0.1301 -0.3546  0.1933
 2211Sol     HW11794   2.950   2.319   8.192  0.2481 -0.7342 -0.2653
 2211Sol     HW11795   3.082   2.286   8.258 -0.1809  0.5277  1.2650
 2211Sol     MW11796   2.995   2.266   8.248 -0.1931 -0.0565  0.0313
 2212Sol     OW11797   1.276   0.740   6.185 -0.8991  0.0121 -0.3548
 2212Sol     HW11798   1.185   0.765   6.170 -0.6276  1.0107 -0.4073
 2212Sol     HW11799   1.305   0.799   6.255 -0.9295 -1.7565  1.2065
 2212Sol     MW11800   1.270   0.748   6.190  0.5949 -0.3109 -0.2223
 2213Sol     OW11801   1.252   2.280   1.945 -0.3582 -0.0368 -0.4629
 2213Sol     HW11802   1.289   2.192   1.936 -0.3439  0.0523 -1.3531
 2213Sol     HW11803   1.172   2.267   1.996 -0.5159 -0.6124 -0.8476
 2213Sol     MW11804   1.248   2.271   1.948  0.0767 -0.5177 -0.4102
 2214Sol     OW11805   2.980   0.193   3.506  0.2814  0.4574  0.6252
 2214Sol     HW11806   2.988   0.138   3.583  1.8942  0.3946  0.4316
 2214Sol     HW11807   3.065   0.237   3.498  0.6478 -0.6188 -1.9144
 2214Sol     MW11808   2.988   0.192   3.512  0.1966  0.0980 -0.8236
 2215Sol     OW11809   2.359   0.491   4.372  0.3842  0.4009  0.3091
 2215Sol     HW11810   2.311   0.563   4.331  0.7730  0.6005  0.2038
 2215Sol     HW11811   2.365   0.515   4.464 -1.7956 -0.7501  0.7992
 2215Sol     MW11812   2.355   0.499   4.377  0.3253 -0.1484 -0.3726
 2216Sol     OW11813   2.125   1.431   2.593  0.2298 -0.3768 -0.3821
 2216Sol     HW11814   2.161   1.349   2.627 -0.2142 -1.2367 -1.9466
 2216Sol     HW11815   2.035   1.432   2.626  0.3721 -0.2904  0.0116
 2216Sol     MW11816   2.120   1.423   2.599 -0.5177  0.2682 -0.7842
 2217Sol     OW11817   1.415   0.259   9.193  0.5037  0.3429  0.3330
 2217Sol     HW11818   1.357   0.317   9.143 -0.1270 -1.7180 -1.4109
 2217Sol     HW11819   1.449   0.314   9.264 -1.2870  2.3952 -0.3451
 2217Sol     MW11820   1.413   0.269   9.195 -0.1879 -0.8216 -0.0337
 2218Sol     OW11821   0.321   2.197   5.975  0.7684 -0.0707  0.4300
 2218Sol     HW11822   0.261   2.191   5.900 -0.2219 -0.7136  1.2668
 2218Sol     HW11823   0.265   2.186   6.052  2.1099 -1.8182  1.1818
 2218Sol     MW11824   0.310   2.195   5.975 -0.4515 -0.1872  0.1475
 2219Sol     OW11825   0.360   2.404   6.824  0.3337 -0.0316  0.1904
 2219Sol     HW11826   0.358   2.477   6.762 -1.0155  0.1813  0.4574
 2219Sol     HW11827   0.320   2.439   6.904 -1.2507 -1.3505 -0.0031
 2219Sol     MW11828   0.356   2.414   6.826 -0.1669 -1.3637  0.0594
 2220Sol     OW11829   2.074   2.669   4.023 -0.0051  0.4208 -0.0615
 2220Sol     HW11830   2.096   2.734   4.090 -0.6399  0.7681 -0.1841
 2220Sol     HW11831   2.142   2.679   3.956  0.2483  0.5388  0.2114
 2220Sol     MW11832   2.082   2.676   4.023 -0.0046 -0.4349 -0.1792
 2221Sol     OW11833   2.178   0.436   4.708  0.6221  0.1403  0.7645
 2221Sol     HW11834   2.158   0.344   4.689  0.1220  0.6690 -1.5526
 2221Sol     HW11835   2.100   0.483   4.679  1.6710  1.4644  0.0305
 2221Sol     MW11836   2.169   0.432   4.703 -0.1468 -0.3050 -0.8492
 2222Sol     OW11837   2.165   0.364   7.657 -0.1586  0.0044 -0.4238
 2222Sol     HW11838   2.097   0.391   7.595 -0.9436 -2.0334 -0.4892
 2222Sol     HW11839   2.202   0.284   7.620 -2.0582 -2.4522  2.6357
 2222Sol     MW11840   2.162   0.359   7.648  0.5340 -0.3632 -0.2569
 2223Sol     OW11841   2.635   0.804   5.007 -0.3040 -0.6074 -0.5198
 2223Sol     HW11842   2.542   0.788   5.024 -0.4255  1.2645  0.7370
 2223Sol     HW11843   2.636   0.890   4.965  1.1244  1.1144  2.8589
 2223Sol     MW11844   2.626   0.810   5.004  0.3401  0.1219  0.0778
 2224Sol     OW11845   3.146   0.879   4.248 -0.1102 -0.4084  0.7010
 2224Sol     HW11846   3.172   0.945   4.184 -0.1908 -0.0939  0.9845
 2224Sol     HW11847   3.090   0.819   4.200 -1.9370  1.0177  0.9440
 2224Sol     MW11848   3.143   0.880   4.238 -0.0004 -0.6621 -0.0898
 2225Sol     OW11849   0.070   1.417   8.888  0.6327  0.2954 -0.2164
 2225Sol     HW11850   0.057   1.512   8.883  1.8205  0.5083  0.5940
 2225Sol     HW11851   0.053   1.396   8.980 -1.2489 -0.5387 -0.7340
 2225Sol     MW11852   0.067   1.424   8.896 -0.0566 -0.1249  0.3466
 2226Sol     OW11853   1.337   0.853   8.943  0.1962 -0.2502 -0.2422
 2226Sol     HW11854   1.291   0.890   9.019 -1.8111 -3.9596  0.4641
 2226Sol     HW11855   1.422   0.898   8.942 -0.5324  1.3381  2.9615
 2226Sol     MW11856   1.341   0.860   8.950  0.0979  0.7579  0.3870
 2227Sol     OW11857   0.205   3.181   3.201 -0.5377 -0.0339 -0.2150
 2227Sol     HW11858   0.222   3.105   3.256 -1.0314 -2.4153 -3.2219
 2227Sol     HW11859   0.287   3.230   3.202  0.1140 -1.1171  0.9837
 2227Sol     MW11860   0.214   3.179   3.206  0.1548 -0.9727 -0.4452
 2228Sol     OW11861   0.178   2.988   2.205 -0.1721 -0.7686  0.7405
 2228Sol     HW11862   0.255   3.045   2.197  0.9110 -2.1346  1.2365
 2228Sol     HW11863   0.121   3.015   2.132  0.6451  0.4342  0.5240
 2228Sol     MW11864   0.180   2.996   2.198  0.2311 -0.0578 -1.0231
 2229Sol     OW11865   0.703   1.640   9.120  0.1021 -0.1276  0.0705
 2229Sol     HW11866   0.706   1.604   9.209 -2.5878  2.5025  1.3025
 2229Sol     HW11867   0.638   1.586   9.075  2.9113 -2.7661 -1.0100
 2229Sol     MW11868   0.697   1.632   9.124 -0.6043  0.5067  0.2288
 2230Sol     OW11869   2.820   2.866   7.704 -0.3877 -0.1155  0.8531
 2230Sol     HW11870   2.854   2.870   7.615  2.4072  2.3993  1.9677
 2230Sol     HW11871   2.841   2.778   7.734  0.5276 -0.2756 -0.2417
 2230Sol     MW11872   2.825   2.859   7.699 -0.5839  0.6647 -0.2269
 2231Sol     OW11873   1.332   0.958   6.407  0.1127  1.0077  0.3281
 2231Sol     HW11874   1.372   0.931   6.491 -0.6257  0.1730  0.4201
 2231Sol     HW11875   1.249   0.998   6.432 -1.0086 -0.9941 -0.1135
 2231Sol     MW11876   1.328   0.959   6.417  0.2672 -0.3884 -0.2754
 2232Sol     OW11877   1.491   2.038   8.212 -0.1882 -0.3071  0.0301
 2232Sol     HW11878   1.572   2.041   8.161 -0.2200 -1.4367 -0.0842
 2232Sol     HW11879   1.509   1.977   8.283 -1.2969 -1.4006 -0.6097
 2232Sol     MW11880   1.500   2.033   8.214  0.0258  0.0249 -0.0619
 2233Sol     OW11881   3.283   2.103   4.265 -0.0246  0.3780 -0.4204
 2233Sol     HW11882   3.267   2.096   4.171 -0.8386  1.2619 -0.3693
 2233Sol     HW11883   3.378   2.093   4.275  0.2526  1.7711 -1.5016
 2233Sol     MW11884   3.290   2.102   4.258 -0.3376 -0.2563  0.6823
 2234Sol     OW11885   0.874   1.477   1.409  0.7502  0.3329  0.6245
 2234Sol     HW11886   0.940   1.430   1.459 -0.2040  0.1920  1.7686
 2234Sol     HW11887   0.794   1.426   1.421  0.2915  0.8395 -0.2406
 2234Sol     MW11888   0.873   1.469   1.414 -0.2003  0.2752  0.3699
 2235Sol     OW11889   3.316   1.335   2.819 -0.2060 -0.2690 -0.0752
 2235Sol     HW11890   3.385   1.286   2.775 -0.0131  1.3416 -1.6327
 2235Sol     HW11891   3.290   1.402   2.755 -2.8622 -0.5537  0.6812
 2235Sol     MW11892   3.320   1.337   2.810 -0.7026 -0.5906 -0.3383
 2236Sol     OW11893   3.037   0.135   2.723 -0.0978  0.1399 -0.4485
 2236Sol     HW11894   3.057   0.096   2.808  0.5996  1.4825  0.0238
 2236Sol     HW11895   3.122   0.153   2.684 -0.4133  0.4313 -1.0103
 2236Sol     MW11896   3.046   0.133   2.727 -0.6269 -0.2887  0.1690
 2237Sol     OW11897   0.768   2.176   5.685  0.5370  0.3338 -0.2203
 2237Sol     HW11898   0.799   2.110   5.747  0.0298  0.3212  0.0256
 2237Sol     HW11899   0.694   2.218   5.730  0.3860  0.5614 -0.6788
 2237Sol     MW11900   0.764   2.174   5.695 -0.3403 -0.2003  0.2640
 2238Sol     OW11901   1.421   1.601   1.593  0.0756  0.0194 -0.2870
 2238Sol     HW11902   1.413   1.598   1.688  1.2520  1.4753 -0.1260
 2238Sol     HW11903   1.392   1.514   1.564 -0.4742 -0.3723  1.3697
 2238Sol     MW11904   1.418   1.593   1.599 -0.4029  0.5683  0.3087
 2239Sol     OW11905   1.026   0.799   6.637  0.4497 -0.0506 -0.1285
 2239Sol     HW11906   1.023   0.838   6.549  0.6318  0.0001 -0.1115
 2239Sol     HW11907   0.935   0.774   6.654  0.4889 -0.4646 -0.5126
 2239Sol     MW11908   1.017   0.800   6.631 -0.3231 -0.1343 -0.0538
 2240Sol     OW11909   1.322   3.423   4.260 -0.5298  0.2931  0.8999
 2240Sol     HW11910   1.268   3.397   4.186  0.3045  0.9024  0.0593
 2240Sol     HW11911   1.405   3.450   4.221  0.1010  0.1382  2.1002
 2240Sol     MW11912   1.325   3.423   4.250  0.5889 -0.1982  0.2190
 2241Sol     OW11913   2.702   3.410   7.759  0.2453  0.2477  0.1218
 2241Sol     HW11914   2.652   3.444   7.833  0.0173  0.0771  0.0461
 2241Sol     HW11915   2.706   3.484   7.698 -1.2496 -0.2059 -0.5484
 2241Sol     MW11916   2.698   3.420   7.760 -0.2241  0.4987  0.1417
 2242Sol     OW11917   0.027   2.112   4.567 -0.1987 -0.0940  0.2355
 2242Sol     HW11918  -0.008   2.110   4.478  2.7815 -0.8033 -0.9937
 2242Sol     HW11919   0.079   2.032   4.575 -0.1981  0.0891  2.5275
 2242Sol     MW11920   0.029   2.105   4.560 -0.1338 -0.3480 -0.3704
 2243Sol     OW11921   2.622   3.104   4.791  0.0141 -0.2185 -0.1784
 2243Sol     HW11922   2.589   3.191   4.767  1.8568  0.3778 -0.5679
 2243Sol     HW11923   2.629   3.106   4.886  0.4436  0.1854 -0.2223
 2243Sol     MW11924   2.619   3.112   4.797  1.1036  0.6390  0.0861
 2244Sol     OW11925   0.158   1.945   6.534  0.4837  0.0679 -0.2999
 2244Sol     HW11926   0.131   2.036   6.545  0.0790 -0.2011  1.0101
 2244Sol     HW11927   0.075   1.896   6.530  0.7071 -0.2821 -0.6303
 2244Sol     MW11928   0.148   1.949   6.534  0.7353  0.7013  0.3853
 2245Sol     OW11929   1.011   1.357   3.677 -0.0653 -0.1116  0.2055
 2245Sol     HW11930   0.967   1.293   3.733  1.0778 -0.5442  0.6280
 2245Sol     HW11931   0.971   1.441   3.700 -0.1143 -0.3897  1.1736
 2245Sol     MW11932   1.004   1.359   3.684  0.1888 -0.1180  0.4281
 2246Sol     OW11933   2.000   2.535   2.313 -0.1017  0.0885  0.0310
 2246Sol     HW11934   2.041   2.491   2.240 -1.0393  0.8819 -0.9889
 2246Sol     HW11935   2.000   2.470   2.384  1.3502 -0.4715 -0.4656
 2246Sol     MW11936   2.003   2.525   2.313 -0.0964 -0.5413 -0.0803
 2247Sol     OW11937   0.419   0.181   2.649  0.6959  0.5571 -0.1696
 2247Sol     HW11938   0.364   0.258   2.633  0.1694  1.0013  3.4448
 2247Sol     HW11939   0.490   0.214   2.704  0.9013 -1.4011  0.7464
 2247Sol     MW11940   0.420   0.191   2.652  0.5294  0.0274  0.1717
 2248Sol     OW11941   0.333   1.041   2.198 -0.2114  0.2834  0.2510
 2248Sol     HW11942   0.356   1.124   2.157  1.1312 -0.9745 -1.6104
 2248Sol     HW11943   0.242   1.026   2.173  0.1844  0.1966 -1.1686
 2248Sol     MW11944   0.327   1.047   2.192  0.2460 -0.4805 -0.0426
 2249Sol     OW11945   2.763   3.117   3.330  0.2523  0.2232 -0.0810
 2249Sol     HW11946   2.757   3.039   3.276 -0.2314 -0.5785  1.1233
 2249Sol     HW11947   2.744   3.087   3.419  1.1915  1.4897  0.5729
 2249Sol     MW11948   2.761   3.108   3.333 -0.1130  1.2669 -0.4514
 2250Sol     OW11949   3.227   2.659   6.462  0.2991 -0.3621 -0.3675
 2250Sol     HW11950   3.197   2.662   6.372  0.2709 -1.1655 -0.3964
 2250Sol     HW11951   3.206   2.744   6.499  1.6573  0.5013 -1.5509
 2250Sol     MW11952   3.223   2.667   6.458 -0.3413 -0.3333 -0.2992
 2251Sol     OW11953   1.322   2.412   8.972 -0.3991 -0.4532 -0.0342
 2251Sol     HW11954   1.374   2.406   8.891 -1.6374 -1.9919 -0.7603
 2251Sol     HW11955   1.242   2.459   8.946 -1.0867 -1.5114  0.1125
 2251Sol     MW11956   1.319   2.416   8.962  0.3469  0.9648 -0.4407
 2252Sol     OW11957   3.250   2.171   6.415  0.3383  0.0339 -0.1679
 2252Sol     HW11958   3.191   2.245   6.428  0.5299  0.2824 -0.7287
 2252Sol     HW11959   3.322   2.186   6.476  1.9326  1.9198 -2.4361
 2252Sol     MW11960   3.251   2.179   6.422  0.1026  0.1374  0.1073
 2253Sol     OW11961   2.312   2.340   4.284  0.5175 -0.2542 -0.2614
 2253Sol     HW11962   2.292   2.412   4.345 -0.8859 -0.7919 -0.0665
 2253Sol     HW11963   2.249   2.352   4.213  2.0263  0.2603 -1.5377
 2253Sol     MW11964   2.305   2.348   4.283 -0.0438 -0.1777 -0.1717
 2254Sol     OW11965   0.919   3.003   5.943  0.3627  0.2498 -0.6335
 2254Sol     HW11966   0.981   3.060   5.899  1.0790  0.1635  0.2477
 2254Sol     HW11967   0.886   2.945   5.875  3.2474 -1.5058 -0.6202
 2254Sol     MW11968   0.921   3.003   5.933  0.4444 -0.3121 -0.3859
 2255Sol     OW11969   3.315   1.915   3.134 -0.1149 -0.3628 -0.3577
 2255Sol     HW11970   3.363   1.996   3.115  1.6972 -0.6608  2.5408
 2255Sol     HW11971   3.349   1.852   3.070 -0.2087  0.6776 -1.4579
 2255Sol     MW11972   3.323   1.917   3.127  0.2141  0.2719 -0.3820
 2256Sol     OW11973   2.462   1.454   9.002 -0.0456  0.5801 -0.1992
 2256Sol     HW11974   2.382   1.448   8.951  0.9659  0.3055 -1.7801
 2256Sol     HW11975   2.527   1.488   8.941  0.8209  1.7331  1.3265
 2256Sol     MW11976   2.461   1.457   8.992 -0.1994 -0.2780  0.4360
 2257Sol     OW11977   3.194   3.398   8.046 -0.5380  0.4930  0.1372
 2257Sol     HW11978   3.192   3.451   8.125  1.6240  0.4951  0.2098
 2257Sol     HW11979   3.102   3.395   8.017 -1.3689  0.3437  2.7044
 2257Sol     MW11980   3.185   3.403   8.050  0.2608  0.0924 -0.0193
 2258Sol     OW11981   2.503   1.295   1.877  0.4240 -0.3090  0.1406
 2258Sol     HW11982   2.463   1.329   1.797  0.7619 -0.0569  0.0776
 2258Sol     HW11983   2.587   1.260   1.849  0.8204  0.3609  0.4881
 2258Sol     MW11984   2.507   1.295   1.867  1.0746 -0.0760  0.5512
 2259Sol     OW11985   2.807   0.887   5.488 -0.2639 -0.8394 -0.2257
 2259Sol     HW11986   2.808   0.904   5.394  0.4576  0.6676  0.0483
 2259Sol     HW11987   2.773   0.967   5.527 -1.2098 -1.7008  0.7646
 2259Sol     MW11988   2.804   0.895   5.484  0.2046  0.3367 -0.0084
 2260Sol     OW11989   0.309   0.293   7.890 -0.4804  0.2177  0.2210
 2260Sol     HW11990   0.286   0.326   7.977 -0.2434  2.4615 -0.5429
 2260Sol     HW11991   0.259   0.348   7.830  2.0714  1.0126 -1.2069
 2260Sol     MW11992   0.302   0.300   7.892  0.1114  0.1113 -0.2303
 2261Sol     OW11993   0.249   3.004   8.178 -0.5747  0.0264  0.1340
 2261Sol     HW11994   0.249   2.948   8.100 -3.4099  0.6737 -0.3653
 2261Sol     HW11995   0.211   3.087   8.149  0.9867  1.2928  1.5510
 2261Sol     MW11996   0.246   3.006   8.168  0.6313 -0.4415  0.5307
 2262Sol     OW11997   2.433   1.876   4.204 -0.0383 -0.6003 -0.4508
 2262Sol     HW11998   2.436   1.954   4.260 -0.4524 -0.4675 -0.6082
 2262Sol     HW11999   2.416   1.910   4.117  1.2256 -0.7594 -0.7727
 2262Sol     MW12000   2.432   1.886   4.202  0.2072 -0.2274 -0.6770
 2263Sol     OW12001   1.769   2.142   8.449 -0.2784  0.6378 -0.1930
 2263Sol     HW12002   1.697   2.079   8.458  0.5620 -0.8444 -3.1400
 2263Sol     HW12003   1.837   2.109   8.508 -0.7316  0.1312  0.0527
 2263Sol     MW12004   1.768   2.133   8.455 -0.4705 -0.4229 -0.2282
 2264Sol     OW12005   3.019   2.154   8.631  0.5370 -0.1916  0.3154
 2264Sol     HW12006   2.999   2.089   8.699  2.1448 -1.5353 -0.4854
 2264Sol     HW12007   3.096   2.120   8.587  0.7937  1.7717 -0.7905
 2264Sol     MW12008   3.024   2.145   8.633  0.5850 -0.5662  0.0442
 2265Sol     OW12009   0.869   2.951   4.538  0.1290 -0.1840  0.5732
 2265Sol     HW12010   0.915   3.009   4.477 -0.3532 -1.3606 -0.9306
 2265Sol     HW12011   0.931   2.880   4.554  0.4534  0.3670  1.8937
 2265Sol     MW12012   0.879   2.950   4.534 -0.5584  0.4024 -0.8194
 2266Sol     OW12013   1.153   0.492   6.260 -0.3954 -0.3322 -0.3710
 2266Sol     HW12014   1.211   0.565   6.240  0.5831 -0.8670  0.4716
 2266Sol     HW12015   1.174   0.426   6.194 -0.7333 -0.1485 -0.6617
 2266Sol     MW12016   1.160   0.493   6.252  0.2060  0.1352  0.3094
 2267Sol     OW12017   2.852   0.995   7.385  0.9076  0.7363  0.3434
 2267Sol     HW12018   2.785   0.930   7.407 -1.0335  2.5422 -0.0562
 2267Sol     HW12019   2.932   0.961   7.426  0.0602 -2.1030 -0.2257
 2267Sol     MW12020   2.853   0.986   7.391 -0.4039  0.3100 -0.2624
 2268Sol     OW12021   2.104   1.317   3.836  0.2181 -0.4684 -1.0153
 2268Sol     HW12022   2.192   1.309   3.874  0.5573 -0.0208 -1.7090
 2268Sol     HW12023   2.085   1.229   3.804 -0.2039 -0.9389  0.4570
 2268Sol     MW12024   2.111   1.308   3.837  0.8262  0.6046 -0.4080
 2269Sol     OW12025   1.244   0.620   8.343  0.0461  0.0122  0.0320
 2269Sol     HW12026   1.254   0.527   8.323 -1.2483  0.4920 -3.0679
 2269Sol     HW12027   1.327   0.659   8.315 -0.0272  0.0123 -0.1887
 2269Sol     MW12028   1.252   0.615   8.339  0.3029  0.3930  0.0564
 2270Sol     OW12029   0.782   0.661   6.741  1.0124  0.0876 -0.1043
 2270Sol     HW12030   0.781   0.640   6.835 -0.8907 -1.4001 -0.4104
 2270Sol     HW12031   0.841   0.595   6.703  0.9352  0.0137 -0.0955
 2270Sol     MW12032   0.787   0.653   6.746 -0.4494  0.3052  0.5304
 2271Sol     OW12033   2.081   0.069   1.516  0.3909  0.4682 -0.0995
 2271Sol     HW12034   2.081   0.090   1.422 -1.1897  3.1685  0.4578
 2271Sol     HW12035   2.162   0.107   1.549 -0.7291  2.6873  0.2255
 2271Sol     MW12036   2.088   0.074   1.510 -0.1580 -0.7828  0.7863
 2272Sol     OW12037   2.466   0.428  10.015  0.5484 -0.1491 -0.1008
 2272Sol     HW12038   2.445   0.389   9.931  1.0564 -1.8213  0.5350
 2272Sol     HW12039   2.559   0.450  10.008  0.2638  0.9892 -0.4597
 2272Sol     MW12040   2.473   0.427  10.007  0.5202  0.4534  0.2367
 2273Sol     OW12041   2.581   1.041   9.168  0.3583  0.0995  0.5440
 2273Sol     HW12042   2.673   1.046   9.195  1.0029 -1.1829 -1.2636
 2273Sol     HW12043   2.576   0.959   9.118 -1.8606 -0.0178  0.9311
 2273Sol     MW12044   2.589   1.034   9.166  0.7586 -0.7082 -0.4829
 2274Sol     OW12045   0.580   0.139   9.329  0.0090 -0.1220  0.2152
 2274Sol     HW12046   0.596   0.046   9.315 -0.0844  0.0222 -0.9525
 2274Sol     HW12047   0.625   0.160   9.410  0.2492 -1.1321  0.3418
 2274Sol     MW12048   0.585   0.133   9.335  0.8842 -0.2258  0.0178
 2275Sol     OW12049   0.552   2.809   4.712 -0.0414  0.0004 -0.2536
 2275Sol     HW12050   0.619   2.850   4.767  1.5338 -1.9154 -0.6937
 2275Sol     HW12051   0.475   2.805   4.768  0.1995  2.1381  0.3042
 2275Sol     MW12052   0.551   2.813   4.722  0.1668 -0.7349  0.0993
 2276Sol     OW12053   1.283   1.123   3.943  0.3981  0.2653 -0.1975
 2276Sol     HW12054   1.190   1.107   3.961  0.3364  2.0685  1.2111
 2276Sol     HW12055   1.294   1.099   3.851 -1.4059 -0.1654 -0.3279
 2276Sol     MW12056   1.275   1.119   3.937  0.2609  0.3003 -0.2785
 2277Sol     OW12057   0.578   1.824   5.914  0.0784 -0.1478 -0.4861
 2277Sol     HW12058   0.611   1.869   5.992  0.7638  0.7423 -1.2719
 2277Sol     HW12059   0.551   1.738   5.946 -0.3145  0.4542  0.8614
 2277Sol     MW12060   0.578   1.820   5.924  0.0572  0.0365  0.0717
 2278Sol     OW12061   0.998   3.272   9.021  0.5690  0.1043  0.2850
 2278Sol     HW12062   1.071   3.209   9.017  2.0479  1.8058 -0.1794
 2278Sol     HW12063   1.035   3.354   8.988 -0.8652  1.6525  2.3908
 2278Sol     MW12064   1.008   3.274   9.018 -0.0274 -0.4007  0.0894
 2279Sol     OW12065   1.197   2.050   4.079  0.0192  0.3840  0.2724
 2279Sol     HW12066   1.211   1.956   4.094 -3.8650 -0.2794  0.4714
 2279Sol     HW12067   1.226   2.092   4.160 -0.7922 -0.9879  1.3061
 2279Sol     MW12068   1.201   2.045   4.088 -0.0723  0.4395 -0.5272
 2280Sol     OW12069   0.535   1.085   9.285  0.3713  0.7421 -0.0889
 2280Sol     HW12070   0.526   1.174   9.319 -0.5849  1.2310 -1.6101
 2280Sol     HW12071   0.464   1.075   9.222  3.0232  0.4157 -3.1503
 2280Sol     MW12072   0.528   1.092   9.283 -0.0238  0.2478  0.5707
 2281Sol     OW12073   2.116   2.016   6.097 -0.0380  0.0786 -0.1594
 2281Sol     HW12074   2.040   2.033   6.042  0.5217  3.2347 -0.0380
 2281Sol     HW12075   2.176   2.089   6.080  1.8979 -1.0285  1.5899
 2281Sol     MW12076   2.115   2.024   6.091 -0.3632 -0.0947  0.1843
 2282Sol     OW12077   2.812   0.668   7.710  0.3556 -0.2294 -0.5256
 2282Sol     HW12078   2.795   0.747   7.760  0.2063  0.3731 -1.5062
 2282Sol     HW12079   2.900   0.641   7.737  0.0076 -0.3075  0.5535
 2282Sol     MW12080   2.818   0.673   7.717  0.2181 -0.1634 -0.4116
 2283Sol     OW12081   0.155   2.518   5.976 -0.9668 -0.4685 -0.3628
 2283Sol     HW12082   0.121   2.581   5.912 -1.8118 -1.0037 -0.4468
 2283Sol     HW12083   0.090   2.448   5.977  1.1987 -2.6184 -2.1866
 2283Sol     MW12084   0.146   2.517   5.970 -0.2632  0.1920  0.0564
 2284Sol     OW12085   1.303   2.339   4.686  0.3852  0.0570  0.8312
 2284Sol     HW12086   1.373   2.394   4.653  0.5445  0.2493  1.4953
 2284Sol     HW12087   1.345   2.280   4.748  0.2431 -0.9136  0.0142
 2284Sol     MW12088   1.313   2.338   4.688 -1.2580 -0.1126 -0.0445
 2285Sol     OW12089   1.281   2.589   7.602  0.1950  0.1783  0.0888
 2285Sol     HW12090   1.270   2.678   7.636 -0.9964  0.5537 -1.2461
 2285Sol     HW12091   1.209   2.577   7.541  1.0327 -1.2864 -0.6526
 2285Sol     MW12092   1.274   2.596   7.600  0.7659 -0.3804  1.1428
 2286Sol     OW12093   0.335   1.091   9.092 -0.8491 -0.0690  0.1121
 2286Sol     HW12094   0.332   1.081   8.996 -0.9809 -0.1954  0.1299
 2286Sol     HW12095   0.322   1.185   9.106  0.1775  0.1020 -0.0372
 2286Sol     MW12096   0.333   1.099   9.084  0.2494  1.0601  0.3668
 2287Sol     OW12097   2.702   0.461   6.846 -0.6484 -0.1817  0.1475
 2287Sol     HW12098   2.624   0.444   6.794 -0.6511  0.2341  0.0144
 2287Sol     HW12099   2.697   0.399   6.918 -1.2008 -0.0215  0.2480
 2287Sol     MW12100   2.695   0.454   6.848  0.0136 -0.0712 -0.1495
 2288Sol     OW12101   3.178   2.474   4.086 -0.4142 -0.1492 -0.3988
 2288Sol     HW12102   3.185   2.398   4.028  1.0688  0.1728 -0.6569
 2288Sol     HW12103   3.140   2.542   4.031  0.1338 -0.1147 -0.7389
 2288Sol     MW12104   3.175   2.473   4.076  0.0580  0.7364 -0.1491
 2289Sol     OW12105   2.896   2.527   9.687 -0.5508 -0.0873  0.1228
 2289Sol     HW12106   2.955   2.494   9.755 -0.5677  0.3056  0.3334
 2289Sol     HW12107   2.954   2.574   9.627 -0.5098 -0.6017 -0.2423
 2289Sol     MW12108   2.907   2.529   9.688 -1.0850  0.3182  0.5606
 2290Sol     OW12109   1.717   1.777   9.170  0.1849  0.0118  0.2909
 2290Sol     HW12110   1.698   1.856   9.120 -0.2137 -0.4120 -0.2291
 2290Sol     HW12111   1.719   1.707   9.105  0.4529 -0.4228  0.7594
 2290Sol     MW12112   1.716   1.778   9.160  0.2052  1.1841 -0.4482
 2291Sol     OW12113   3.002   2.422   2.075  0.2605  0.6622  0.5035
 2291Sol     HW12114   2.972   2.460   2.158 -0.1430 -0.5624  0.9212
 2291Sol     HW12115   2.922   2.413   2.023  0.5031  1.3587 -0.0043
 2291Sol     MW12116   2.992   2.425   2.077  0.3411  0.1332 -0.7242
 2292Sol     OW12117   0.272   1.331   8.090 -0.0997 -0.6141 -0.0168
 2292Sol     HW12118   0.264   1.355   7.998 -1.3727 -1.7820 -0.2340
 2292Sol     HW12119   0.216   1.394   8.136  1.2004  0.4998  0.0631
 2292Sol     MW12120   0.266   1.339   8.086  0.1801 -0.2206 -0.1591
 2293Sol     OW12121   0.856   3.063   2.500 -0.4616 -0.1998 -0.1105
 2293Sol     HW12122   0.832   2.972   2.517 -1.3107 -0.2817 -1.7148
 2293Sol     HW12123   0.936   3.058   2.449 -0.7742 -0.0511 -0.6132
 2293Sol     MW12124   0.861   3.054   2.497 -0.3068 -0.1133 -0.0926
 2294Sol     OW12125   2.713   0.994   6.923 -0.0405 -0.3587 -0.1465
 2294Sol     HW12126   2.730   1.054   6.850 -1.7076 -1.7512 -1.7371
 2294Sol     HW12127   2.646   1.039   6.975 -2.1611 -1.2687 -1.9797
 2294Sol     MW12128   2.708   1.003   6.921 -0.4590  0.8748  0.0221
 2295Sol     OW12129   1.339   0.726   1.983 -0.0291  0.4161  0.1242
 2295Sol     HW12130   1.410   0.753   1.925  0.1023  1.4136  0.7363
 2295Sol     HW12131   1.375   0.652   2.032  1.0440  1.7210  1.3366
 2295Sol     MW12132   1.348   0.722   1.982 -0.2471  0.2796 -0.7166
 2296Sol     OW12133   0.324   2.736   4.302  0.4218 -0.0979  0.0507
 2296Sol     HW12134   0.333   2.692   4.218 -0.1322 -0.5558  0.2314
 2296Sol     HW12135   0.307   2.666   4.365 -0.4829  0.3556  0.3328
 2296Sol     MW12136   0.323   2.726   4.300 -0.2630  0.0110  0.0653
 2297Sol     OW12137   0.862   0.375   2.771  0.3527 -0.1773  0.1810
 2297Sol     HW12138   0.814   0.422   2.839  1.0104 -1.7336  1.7719
 2297Sol     HW12139   0.897   0.443   2.714 -1.7770  1.0742  0.3222
 2297Sol     MW12140   0.861   0.385   2.772  0.1170  0.4846 -0.2223
 2298Sol     OW12141   2.148   2.754   2.225 -0.1842  0.1320  0.3743
 2298Sol     HW12142   2.135   2.755   2.130 -0.3436  3.0566  0.3768
 2298Sol     HW12143   2.093   2.683   2.256  1.3907 -2.1926 -1.9000
 2298Sol     MW12144   2.142   2.748   2.219 -0.1303  0.2558 -0.0259
 2299Sol     OW12145   1.507   0.345   4.219  0.1204  0.1833  0.3291
 2299Sol     HW12146   1.544   0.257   4.212  0.3578  0.4766 -2.8895
 2299Sol     HW12147   1.581   0.403   4.202  0.1406  1.0668  3.2259
 2299Sol     MW12148   1.517   0.342   4.217 -0.5110 -0.3880  0.1121
 2300Sol     OW12149   2.850   0.732   8.128 -0.3688  0.1027  0.5526
 2300Sol     HW12150   2.918   0.671   8.156  1.0316  1.8788  1.0429
 2300Sol     HW12151   2.782   0.675   8.091 -0.4663 -2.0111  3.7613
 2300Sol     MW12152   2.850   0.721   8.128 -0.0148 -0.0081  0.2448
 2301Sol     OW12153   1.702   1.203   9.628  0.2962  0.0470 -0.2798
 2301Sol     HW12154   1.783   1.161   9.600  1.4682  2.0557 -0.0011
 2301Sol     HW12155   1.638   1.132   9.634  1.4651 -1.2254 -2.6195
 2301Sol     MW12156   1.703   1.193   9.626 -0.3170 -0.0423 -0.0032
 2302Sol     OW12157   0.756   1.819   5.461 -0.3512 -0.0836 -0.3138
 2302Sol     HW12158   0.814   1.760   5.508 -1.1125 -1.7860 -1.4596
 2302Sol     HW12159   0.675   1.818   5.512 -0.3778 -0.0504 -0.3555
 2302Sol     MW12160   0.754   1.814   5.470 -0.4605 -0.1304  0.1899
 2303Sol     OW12161   1.540   3.348   9.929  0.0556 -0.1894 -0.1942
 2303Sol     HW12162   1.495   3.271   9.896  0.1644  0.0844 -0.9802
 2303Sol     HW12163   1.473   3.417   9.929  0.1264 -0.1193 -0.0857
 2303Sol     MW12164   1.530   3.347   9.926 -0.5447 -0.0273  0.2712
 2304Sol     OW12165   2.941   1.605   4.341  0.1688 -0.7295  0.6868
 2304Sol     HW12166   3.000   1.672   4.307  0.8556 -1.8050 -0.2799
 2304Sol     HW12167   2.858   1.650   4.355  0.9448  0.5780  1.1333
 2304Sol     MW12168   2.939   1.615   4.340  0.0736 -0.0739  1.2104
 2305Sol     OW12169   0.550   1.036   6.730 -0.2354  0.6264 -0.0597
 2305Sol     HW12170   0.613   1.011   6.798 -0.6124  1.3999  0.5839
 2305Sol     HW12171   0.603   1.042   6.650 -0.0367 -1.6313 -0.1291
 2305Sol     MW12172   0.561   1.034   6.729 -0.3761  0.3126 -0.5896
 2306Sol     OW12173   2.744   3.055   2.459 -0.1737 -0.0479 -0.5990
 2306Sol     HW12174   2.682   3.061   2.386  0.1801  1.3234 -0.7885
 2306Sol     HW12175   2.829   3.076   2.420  0.2232 -0.6886 -0.0780
 2306Sol     MW12176   2.746   3.057   2.449 -0.1004 -0.2958  0.5788
 2307Sol     OW12177   1.716   1.200   5.765 -0.6479 -0.2339 -0.4203
 2307Sol     HW12178   1.639   1.256   5.775 -0.8970 -0.3703 -1.5024
 2307Sol     HW12179   1.689   1.115   5.800 -0.2068  0.3631  1.3987
 2307Sol     MW12180   1.707   1.197   5.769 -0.4549  0.4692 -0.1555
 2308Sol     OW12181   0.292   2.846   7.955 -0.4227 -0.2458 -0.2219
 2308Sol     HW12182   0.218   2.790   7.929 -1.7075  0.7173  1.2868
 2308Sol     HW12183   0.365   2.785   7.966 -0.6204 -1.0515 -3.0367
 2308Sol     MW12184   0.292   2.836   7.954  0.3509  0.7402  0.2215
 2309Sol     OW12185   3.291   0.172   7.222  0.2522  0.1664  0.0661
 2309Sol     HW12186   3.217   0.225   7.192 -0.4620  0.4300  2.2679
 2309Sol     HW12187   3.366   0.232   7.217 -0.2914  0.9555  1.1157
 2309Sol     MW12188   3.291   0.183   7.219 -0.1964 -0.0585 -0.1204
 2310Sol     OW12189   2.195   2.451   1.816  0.4656 -0.1439 -0.0815
 2310Sol     HW12190   2.253   2.381   1.784  1.9881  1.1582 -0.2225
 2310Sol     HW12191   2.175   2.426   1.906  1.2018 -0.6573 -0.0483
 2310Sol     MW12192   2.199   2.443   1.821  0.2472  0.1223 -0.2691
 2311Sol     OW12193   0.761   3.107   7.523  0.6473 -0.0499 -0.2145
 2311Sol     HW12194   0.773   3.052   7.445  1.3513  1.1083 -0.9287
 2311Sol     HW12195   0.786   3.195   7.495  1.2882  0.3095  1.4279
 2311Sol     MW12196   0.764   3.110   7.514  0.7635  0.1393 -0.0020
 2312Sol     OW12197   2.097   2.431   8.854  0.5922 -0.2390  0.0252
 2312Sol     HW12198   2.168   2.493   8.871 -0.3096  0.7971  0.0720
 2312Sol     HW12199   2.076   2.443   8.762  1.3619 -1.4865 -0.3176
 2312Sol     MW12200   2.101   2.438   8.848  0.2352 -0.3464  0.3544
 2313Sol     OW12201   0.746   1.692   4.818 -0.1963 -0.6392  0.4668
 2313Sol     HW12202   0.668   1.640   4.797 -0.5630  0.6543 -1.5693
 2313Sol     HW12203   0.727   1.779   4.781  2.1073 -0.2372  0.1377
 2313Sol     MW12204   0.737   1.695   4.812 -0.4128  0.3920 -0.6691
 2314Sol     OW12205   2.795   0.134   3.882  0.1774 -0.1266 -0.4623
 2314Sol     HW12206   2.750   0.062   3.838  0.1895  0.1417 -0.9148
 2314Sol     HW12207   2.748   0.144   3.965 -1.8281  1.4241 -1.7491
 2314Sol     MW12208   2.787   0.128   3.886  0.4065 -0.1154 -0.4683
 2315Sol     OW12209   0.259   0.624   5.414  0.5552 -0.0828  0.0749
 2315Sol     HW12210   0.349   0.625   5.446  1.1394  1.6176 -1.5596
 2315Sol     HW12211   0.267   0.621   5.319 -1.1268 -1.2494 -0.0415
 2315Sol     MW12212   0.267   0.624   5.409  0.2081 -0.6016 -0.1211
 2316Sol     OW12213   2.672   2.795   8.587  0.3130  0.7475 -0.5978
 2316Sol     HW12214   2.683   2.836   8.502  1.5584  0.0929 -0.7665
 2316Sol     HW12215   2.684   2.701   8.571  2.3355  0.7726  0.5742
 2316Sol     MW12216   2.674   2.790   8.578 -0.0028  0.0736 -0.2590
 2317Sol     OW12217   1.825   2.251   7.728  0.2576  0.6278  0.0513
 2317Sol     HW12218   1.741   2.259   7.772 -0.6189 -2.2462 -1.0113
 2317Sol     HW12219   1.862   2.340   7.732 -1.6854  1.4064  2.6748
 2317Sol     MW12220   1.821   2.260   7.732 -0.6760 -0.5585 -0.0104
 2318Sol     OW12221   2.644   2.312   2.467  0.3819  0.5777 -0.3549
 2318Sol     HW12222   2.555   2.346   2.459  0.1772  0.4939  1.4289
 2318Sol     HW12223   2.633   2.217   2.472  0.3519  0.6932  2.3858
 2318Sol     MW12224   2.635   2.306   2.466 -0.5020 -0.3492  0.2352
 2319Sol     OW12225   3.267   3.209   8.354  0.4520  0.1004  0.3095
 2319Sol     HW12226   3.192   3.237   8.303  0.7851  1.3553  0.4912
 2319Sol     HW12227   3.341   3.258   8.318  0.9317 -0.0722  1.0384
 2319Sol     MW12228   3.267   3.216   8.347 -0.0259 -0.5475 -0.6381
 2320Sol     OW12229   2.706   2.031   5.419 -0.0398  0.2654 -0.4241
 2320Sol     HW12230   2.611   2.033   5.418 -0.0466  0.2197 -0.0920
 2320Sol     HW12231   2.733   2.123   5.413 -0.1763  0.6787  3.6891
 2320Sol     MW12232   2.700   2.039   5.418 -0.4191  0.1971 -0.1229
 2321Sol     OW12233   2.223   0.593   2.236  0.0621 -0.2829  0.4208
 2321Sol     HW12234   2.284   0.612   2.307 -0.4016  0.0862  0.7240
 2321Sol     HW12235   2.236   0.663   2.173  0.5076 -0.6370  0.1182
 2321Sol     MW12236   2.230   0.601   2.236 -0.4672 -0.5355 -0.1061
 2322Sol     OW12237   2.152   2.138   8.907 -0.3269 -0.3880  0.1623
 2322Sol     HW12238   2.082   2.073   8.915 -1.4415  0.4982 -1.8954
 2322Sol     HW12239   2.107   2.221   8.896  1.0412  0.2003 -1.2376
 2322Sol     MW12240   2.142   2.140   8.907  0.4230  0.4049  0.9905
 2323Sol     OW12241   2.938   1.278   6.924 -0.1145  0.4973 -0.2227
 2323Sol     HW12242   2.968   1.231   7.001  0.4687 -0.0419 -0.7747
 2323Sol     HW12243   2.957   1.370   6.943  0.2732  0.3374  0.1590
 2323Sol     MW12244   2.942   1.282   6.933 -0.0124  0.6324  0.5813
 2324Sol     OW12245   3.106   0.954   6.255  0.0372  0.1570 -0.3697
 2324Sol     HW12246   3.198   0.965   6.279  0.2013 -1.2560 -0.3064
 2324Sol     HW12247   3.106   0.955   6.159  0.0884  0.3305 -0.3689
 2324Sol     MW12248   3.114   0.955   6.248  0.3084 -0.4538  0.2166
 2325Sol     OW12249   0.516   2.852   3.170 -0.0365  0.4186 -0.1372
 2325Sol     HW12250   0.512   2.800   3.090  0.7849 -0.5882  0.4663
 2325Sol     HW12251   0.568   2.929   3.146  0.1598  0.1469 -0.5933
 2325Sol     MW12252   0.521   2.854   3.161  0.6747 -0.5281  0.0185
 2326Sol     OW12253   0.570   2.125   8.144 -0.3518  0.8748  0.8296
 2326Sol     HW12254   0.597   2.154   8.232 -2.2339  0.8531  1.4408
 2326Sol     HW12255   0.533   2.038   8.158  1.7390 -0.2373 -0.4127
 2326Sol     MW12256   0.569   2.120   8.153  0.3364 -0.4585  0.6204
 2327Sol     OW12257   2.424   0.094   5.302 -0.1472 -0.1396  0.2673
 2327Sol     HW12258   2.486   0.103   5.230 -0.3771 -0.2706  0.0518
 2327Sol     HW12259   2.357   0.160   5.285 -1.0792 -1.2644 -0.5440
 2327Sol     MW12260   2.424   0.100   5.294 -0.4531  0.1229  0.6886
 2328Sol     OW12261   0.240   2.428   1.768  0.3394 -1.0950 -0.1758
 2328Sol     HW12262   0.289   2.355   1.729  1.2718  0.3513 -1.7732
 2328Sol     HW12263   0.298   2.464   1.835  0.1444 -1.4116  0.1632
 2328Sol     MW12264   0.250   2.425   1.770 -0.0755  0.7547 -0.0631
 2329Sol     OW12265   3.039   0.371   4.665  0.2058  0.2070  0.2517
 2329Sol     HW12266   2.970   0.424   4.705  0.5606 -0.5079  1.8664
 2329Sol     HW12267   3.093   0.433   4.617  0.3825  1.2651  1.7972
 2329Sol     MW12268   3.038   0.381   4.664  0.3629 -0.0882  0.2322
 2330Sol     OW12269   2.787   3.179   7.591  0.6380  0.1348  0.0660
 2330Sol     HW12270   2.742   3.221   7.664 -1.2090  0.6297 -1.3072
 2330Sol     HW12271   2.797   3.088   7.619 -0.4566  0.2136  0.7633
 2330Sol     MW12272   2.784   3.174   7.600 -0.2609 -0.5819  0.0807
 2331Sol     OW12273   3.209   0.372   5.858  0.0289  0.0053 -0.8297
 2331Sol     HW12274   3.138   0.329   5.906 -0.5754  0.1637 -1.5747
 2331Sol     HW12275   3.226   0.314   5.784 -1.9457  1.8339 -2.7898
 2331Sol     MW12276   3.204   0.363   5.856 -0.0999  0.1940 -0.4231
 2332Sol     OW12277   1.092   2.430   6.205 -0.4416 -0.1395 -0.4364
 2332Sol     HW12278   0.999   2.441   6.224 -0.2860  0.6994 -0.1418
 2332Sol     HW12279   1.097   2.347   6.157 -1.0487 -1.3129  1.4935
 2332Sol     MW12280   1.084   2.424   6.202 -0.5037 -0.3164  0.4767
 2333Sol     OW12281   1.431   0.808   7.614 -0.4374 -0.0719 -0.3096
 2333Sol     HW12282   1.506   0.838   7.666 -1.2095  4.1967 -1.4529
 2333Sol     HW12283   1.355   0.850   7.655 -2.4576 -4.9658  1.3375
 2333Sol     MW12284   1.431   0.814   7.622  0.4160  0.1380 -0.5505
 2334Sol     OW12285   2.210   0.637   7.044 -0.2959  0.3603  0.0813
 2334Sol     HW12286   2.180   0.557   7.001 -1.7411  0.4282  0.9227
 2334Sol     HW12287   2.139   0.699   7.031  0.0607  0.9605  0.9461
 2334Sol     MW12288   2.201   0.635   7.039 -0.1558  0.2078  0.7769
 2335Sol     OW12289   1.502   1.622   7.037  0.0651 -0.3844  0.1159
 2335Sol     HW12290   1.455   1.672   7.104  2.1685 -0.2982  1.5564
 2335Sol     HW12291   1.441   1.552   7.013 -1.3732  0.5752  0.9058
 2335Sol     MW12292   1.492   1.620   7.041 -0.5781  0.1061  0.9054
 2336Sol     OW12293   0.441   0.895   3.379  0.4177  0.0012 -0.3878
 2336Sol     HW12294   0.437   0.835   3.454  1.3955 -0.0168 -0.3425
 2336Sol     HW12295   0.473   0.841   3.307 -0.2072  0.0978 -0.7417
 2336Sol     MW12296   0.444   0.885   3.380 -0.3130 -1.5401 -0.3802
 2337Sol     OW12297   0.518   1.385   9.350  0.2788 -0.0462  0.6584
 2337Sol     HW12298   0.470   1.443   9.408  1.0608  1.1981  0.0699
 2337Sol     HW12299   0.602   1.429   9.335  0.6022 -0.9812 -0.3473
 2337Sol     MW12300   0.521   1.394   9.353 -0.4969 -0.0050 -0.2179
 2338Sol     OW12301   0.387   3.405   3.920  0.3001  0.1303  1.1325
 2338Sol     HW12302   0.333   3.415   3.998 -1.9263  1.0044 -0.4546
 2338Sol     HW12303   0.358   3.323   3.881  2.0910 -0.8084  1.6861
 2338Sol     MW12304   0.380   3.399   3.923 -0.3912  0.3054 -0.1883
 2339Sol     OW12305   0.047   3.426   6.109 -0.0440  0.3189  0.0517
 2339Sol     HW12306  -0.025   3.373   6.077 -0.4655  0.6390  0.4705
 2339Sol     HW12307   0.014   3.516   6.108 -0.5231  0.2116  2.6041
 2339Sol     MW12308   0.038   3.430   6.106 -0.7229 -0.0415  0.2501
 2340Sol     OW12309   3.001   0.052   3.747 -0.0893  0.2746 -0.5841
 2340Sol     HW12310   3.030  -0.038   3.760  0.7126  0.4887 -0.8777
 2340Sol     HW12311   2.945   0.070   3.822 -0.9113 -0.7425 -0.9454
 2340Sol     MW12312   2.999   0.045   3.755  0.2867  0.0365  0.1338
 2341Sol     OW12313   0.868   3.221   8.775  0.0980  0.1010 -0.2441
 2341Sol     HW12314   0.889   3.263   8.858  0.8461 -2.1980  0.7641
 2341Sol     HW12315   0.773   3.217   8.773  0.0513  1.0398  0.0590
 2341Sol     MW12316   0.862   3.224   8.782 -0.1936 -0.0752 -0.3508
 2342Sol     OW12317   0.526   2.938   1.445  0.3365  0.0516  0.3318
 2342Sol     HW12318   0.501   2.943   1.353 -2.1554 -1.2673  0.8907
 2342Sol     HW12319   0.557   2.848   1.457 -0.2038 -0.0562  0.9701
 2342Sol     MW12320   0.527   2.930   1.438 -0.1311 -1.0555 -0.0735
 2343Sol     OW12321   1.246   0.333   6.068 -0.5195  0.3189  0.4249
 2343Sol     HW12322   1.286   0.267   6.125 -1.0473  1.0914  1.7289
 2343Sol     HW12323   1.209   0.283   5.996  0.8962 -0.6122  0.3167
 2343Sol     MW12324   1.246   0.322   6.067  1.1342  0.2434 -0.5905
 2344Sol     OW12325   2.692   0.164   7.572 -0.0908  0.3696 -0.1108
 2344Sol     HW12326   2.681   0.109   7.495  0.1118  0.7952 -0.4408
 2344Sol     HW12327   2.771   0.214   7.555  0.2238  0.1233  0.5783
 2344Sol     MW12328   2.698   0.163   7.564 -0.3895 -0.4866  0.0477
 2345Sol     OW12329   0.296   2.402   2.526  0.3538 -0.1880  0.0728
 2345Sol     HW12330   0.213   2.447   2.546  1.2614  1.3861  0.3346
 2345Sol     HW12331   0.284   2.369   2.437  0.7839  3.2139 -1.3162
 2345Sol     MW12332   0.287   2.403   2.520 -0.6251  0.5812 -0.2227
 2346Sol     OW12333   2.613   3.109   4.092 -0.5145  0.4070 -0.0701
 2346Sol     HW12334   2.641   3.192   4.128  1.2621 -0.6234  0.9872
 2346Sol     HW12335   2.693   3.057   4.084 -1.5913 -1.2411 -0.5815
 2346Sol     MW12336   2.622   3.112   4.094  0.1585  0.3080  0.5996
 2347Sol     OW12337   1.311   2.344   2.626 -0.6320 -0.0628  0.5466
 2347Sol     HW12338   1.271   2.259   2.606 -0.4576  0.1792 -0.9200
 2347Sol     HW12339   1.352   2.332   2.712  0.9103 -2.0214 -0.4064
 2347Sol     MW12340   1.311   2.335   2.632 -0.0325 -0.3764 -0.1557
 2348Sol     OW12341   1.081   2.124   9.708 -0.0874 -0.2345 -0.1065
 2348Sol     HW12342   1.009   2.119   9.646 -1.6034  0.4349  1.5427
 2348Sol     HW12343   1.143   2.186   9.670 -1.1099  0.3430 -0.8283
 2348Sol     MW12344   1.080   2.129   9.699  0.0155  0.3046  0.1431
 2349Sol     OW12345   1.544   1.078   3.387  0.1525 -0.0348 -0.3819
 2349Sol     HW12346   1.508   1.142   3.326  2.2295  0.1841 -1.4123
 2349Sol     HW12347   1.559   1.128   3.468 -2.1163 -0.2078  0.1683
 2349Sol     MW12348   1.542   1.088   3.389  0.7808 -0.8027  0.1333
 2350Sol     OW12349   3.070   2.487   9.889  0.1883  0.0452  0.1256
 2350Sol     HW12350   3.103   2.400   9.868  1.9821  1.0630 -1.3653
 2350Sol     HW12351   3.050   2.483   9.983 -1.0318 -2.3510 -0.2048
 2350Sol     MW12352   3.071   2.479   9.896 -0.4381 -0.0007 -0.5535
 2351Sol     OW12353   3.262   3.279   4.402 -0.0041  0.0810 -0.3165
 2351Sol     HW12354   3.246   3.253   4.492  2.2467 -1.5197 -0.3471
 2351Sol     HW12355   3.294   3.369   4.408 -1.3359  0.5253  0.3290
 2351Sol     MW12356   3.264   3.285   4.410 -0.0147 -0.5150  0.5767
 2352Sol     OW12357   1.215   2.591   3.053  0.0149 -0.4837  0.2888
 2352Sol     HW12358   1.179   2.565   2.968 -2.6248  1.3959  0.7536
 2352Sol     HW12359   1.208   2.512   3.107  0.2462 -1.2473 -0.7861
 2352Sol     MW12360   1.211   2.581   3.051  0.2349 -0.3020  0.0723
 2353Sol     OW12361   1.821   1.001   3.340 -0.9219 -0.1719 -0.7266
 2353Sol     HW12362   1.790   0.917   3.306 -0.9970 -0.7504  0.7422
 2353Sol     HW12363   1.742   1.052   3.356 -0.8926  0.0485 -1.2699
 2353Sol     MW12364   1.811   0.998   3.338  0.5018  0.1297 -0.0906
 2354Sol     OW12365   0.981   1.648   4.701  0.2708 -0.4033 -0.3916
 2354Sol     HW12366   0.898   1.656   4.748  0.1500 -1.2191 -0.4679
 2354Sol     HW12367   0.955   1.633   4.610  0.4998 -0.6389 -0.4196
 2354Sol     MW12368   0.971   1.647   4.697 -0.3588  0.3475  0.5598
 2355Sol     OW12369   2.034   1.152   7.669 -0.1350  0.6248  0.5675
 2355Sol     HW12370   2.078   1.077   7.629 -1.1956  1.1816 -1.7701
 2355Sol     HW12371   2.101   1.195   7.722  0.9776 -0.8852  0.4106
 2355Sol     MW12372   2.044   1.149   7.670 -0.4965 -0.3003  0.8117
 2356Sol     OW12373   0.843   1.005   2.591 -0.2916 -0.1808  0.1252
 2356Sol     HW12374   0.778   1.041   2.651  0.3432  2.1736 -0.5387
 2356Sol     HW12375   0.921   0.994   2.645 -0.1260  0.6501  0.0720
 2356Sol     MW12376   0.844   1.008   2.601  0.0132 -0.4824  0.5641
 2357Sol     OW12377   2.475   2.328   9.501 -0.2994  0.0322  0.2316
 2357Sol     HW12378   2.550   2.298   9.552 -0.5011 -0.4977  0.2299
 2357Sol     HW12379   2.426   2.384   9.562  0.5397  1.0623 -0.0436
 2357Sol     MW12380   2.477   2.330   9.511  0.5104 -0.0363 -0.0905
 2358Sol     OW12381   2.430   2.727   4.088  0.2101  0.1921 -0.4853
 2358Sol     HW12382   2.450   2.633   4.087  1.5671  0.4440  0.6488
 2358Sol     HW12383   2.376   2.739   4.166  1.0254  0.5297  0.0346
 2358Sol     MW12384   2.427   2.719   4.095  0.6507  0.4245  0.4177
 2359Sol     OW12385   1.612   0.856   5.109 -0.2419  0.0396 -0.2859
 2359Sol     HW12386   1.697   0.893   5.134 -0.6502  0.8131 -0.0138
 2359Sol     HW12387   1.628   0.812   5.026  0.4029  0.2777 -0.2923
 2359Sol     MW12388   1.621   0.855   5.104  0.1163 -0.0208 -0.0286
 2360Sol     OW12389   3.080   0.689   7.315 -0.1831  0.0755  0.3341
 2360Sol     HW12390   3.095   0.610   7.367 -1.0721 -0.3853 -0.0813
 2360Sol     HW12391   2.990   0.679   7.283 -0.4442  1.4575  0.6226
 2360Sol     MW12392   3.073   0.681   7.317 -0.5263  0.4042 -0.0800
 2361Sol     OW12393   2.778   2.743   2.469  0.3563  0.0680 -0.3643
 2361Sol     HW12394   2.849   2.797   2.504 -0.6028  0.5871  0.8191
 2361Sol     HW12395   2.740   2.797   2.399 -0.2787  0.7362  0.4825
 2361Sol     MW12396   2.781   2.753   2.466  0.1819 -0.4089 -0.2740
 2362Sol     OW12397   3.193   1.015   5.123 -0.0211  0.4707 -0.2255
 2362Sol     HW12398   3.144   1.069   5.186  1.7976  1.6102  0.2311
 2362Sol     HW12399   3.178   1.057   5.039 -0.4235  0.3834 -0.2003
 2362Sol     MW12400   3.187   1.024   5.122  0.3011 -0.4264 -0.2484
 2363Sol     OW12401   0.118   0.528   9.045 -0.0714  0.0588  0.2243
 2363Sol     HW12402   0.044   0.505   9.102 -0.9369  1.8751 -0.1375
 2363Sol     HW12403   0.179   0.573   9.103  0.5653 -1.0307  0.4206
 2363Sol     MW12404   0.117   0.530   9.056  0.0828  0.1062  0.4105
 2364Sol     OW12405   2.367   2.098   8.062 -0.4102 -0.2799  0.5179
 2364Sol     HW12406   2.357   2.003   8.073 -0.8976 -0.2284  0.5020
 2364Sol     HW12407   2.342   2.113   7.971  0.8711 -0.3101  0.1525
 2364Sol     MW12408   2.364   2.090   8.055 -0.4536 -0.3049  0.2767
 2365Sol     OW12409   0.249   3.134   1.422 -0.1415 -0.1528 -0.0099
 2365Sol     HW12410   0.155   3.146   1.433 -0.0186  0.8542 -0.0408
 2365Sol     HW12411   0.280   3.216   1.383  0.3620 -1.4589 -2.4462
 2365Sol     MW12412   0.244   3.142   1.420 -0.2614  0.9699  0.5543
 2366Sol     OW12413   0.423   2.267   1.608 -0.3583  0.0986  0.3999
 2366Sol     HW12414   0.485   2.248   1.679  0.7777 -0.5266 -0.7424
 2366Sol     HW12415   0.464   2.339   1.560 -1.6442  1.2447  0.9976
 2366Sol     MW12416   0.432   2.272   1.610  0.0586 -0.4207 -0.0777
 2367Sol     OW12417   1.757   0.790   3.185 -0.3629 -0.2851 -0.1504
 2367Sol     HW12418   1.710   0.706   3.193 -0.2183 -0.3436  0.0889
 2367Sol     HW12419   1.840   0.767   3.143 -0.4885 -0.2020 -0.4471
 2367Sol     MW12420   1.760   0.780   3.182  0.1801  0.1150  0.3893
 2368Sol     OW12421   1.133   0.257   5.006  0.4038  0.5546 -0.5370
 2368Sol     HW12422   1.199   0.198   4.969  1.3333 -0.3943  2.4949
 2368Sol     HW12423   1.060   0.200   5.029  0.7860  0.7489  1.2179
 2368Sol     MW12424   1.132   0.247   5.005 -0.1844  0.0167 -0.7954
 2369Sol     OW12425   1.164   1.925   2.737 -0.0897  0.6240 -0.4253
 2369Sol     HW12426   1.119   1.845   2.766 -0.5365  0.1898 -2.2259
 2369Sol     HW12427   1.133   1.938   2.647  0.6874  2.3204 -0.4608
 2369Sol     MW12428   1.157   1.919   2.732  0.1908 -0.1055  0.1383
 2370Sol     OW12429   2.963   2.780   8.072 -0.2224 -0.3521 -0.1157
 2370Sol     HW12430   3.040   2.835   8.056 -0.5694  0.4946  1.0413
 2370Sol     HW12431   2.989   2.719   8.141 -0.2332 -0.8064 -0.5130
 2370Sol     MW12432   2.972   2.780   8.077  0.1228  0.6122 -0.1107
 2371Sol     OW12433   2.103   1.706   5.799  0.7251 -0.4072  0.3223
 2371Sol     HW12434   2.162   1.692   5.725 -0.3301 -0.6367 -0.4879
 2371Sol     HW12435   2.069   1.619   5.819 -1.4051  0.0824 -0.9840
 2371Sol     MW12436   2.105   1.697   5.794  0.1248  0.1579  0.2427
 2372Sol     OW12437   0.625   0.828   6.132  0.1336  0.1901  0.4224
 2372Sol     HW12438   0.589   0.755   6.083 -0.1640  0.9472 -0.5036
 2372Sol     HW12439   0.706   0.850   6.086  0.1598  0.5252  0.6267
 2372Sol     MW12440   0.629   0.824   6.124  0.5276  0.1531 -0.1197
 2373Sol     OW12441   1.719   1.360   1.641 -0.2307  0.0237 -0.3403
 2373Sol     HW12442   1.649   1.373   1.705 -0.5315  1.9339 -1.0481
 2373Sol     HW12443   1.698   1.420   1.570  1.6708 -0.0259 -0.9494
 2373Sol     MW12444   1.710   1.366   1.640 -0.0164 -0.4353  0.7964
 2374Sol     OW12445   0.106   1.833   8.379  0.4953 -0.0756  0.1959
 2374Sol     HW12446   0.018   1.869   8.390  0.6996  0.8033 -0.8544
 2374Sol     HW12447   0.143   1.884   8.307  1.4136 -1.2776 -0.2026
 2374Sol     MW12448   0.101   1.841   8.373  0.2396  0.9394 -0.2254
 2375Sol     OW12449   0.640   1.043   3.228 -0.0123 -0.0147  0.3977
 2375Sol     HW12450   0.570   1.014   3.287  1.5886 -0.7949  1.9263
 2375Sol     HW12451   0.676   0.962   3.192 -1.1130  0.4480 -1.8776
 2375Sol     MW12452   0.637   1.033   3.230 -0.1954  0.3300 -0.1057
 2376Sol     OW12453   0.583   2.471   9.126 -0.5373 -0.4599 -0.0442
 2376Sol     HW12454   0.600   2.389   9.172 -0.1734 -1.0004 -1.1201
 2376Sol     HW12455   0.643   2.534   9.165 -0.0922 -0.9612  0.0838
 2376Sol     MW12456   0.590   2.469   9.134 -0.7052  0.1065  1.1406
 2377Sol     OW12457   3.158   2.287   2.284 -0.0798  0.2482  0.0107
 2377Sol     HW12458   3.127   2.337   2.209  2.2510 -0.2786 -1.3452
 2377Sol     HW12459   3.160   2.351   2.356 -2.2436  0.7697 -0.3566
 2377Sol     MW12460   3.155   2.297   2.284  0.0595  0.9099  0.4098
 2378Sol     OW12461   0.641   0.211   9.825  1.0139 -0.2312 -0.0345
 2378Sol     HW12462   0.661   0.129   9.868  0.3092  0.1013  0.9398
 2378Sol     HW12463   0.655   0.278   9.892 -1.9238  0.1339  0.2553
 2378Sol     MW12464   0.644   0.210   9.835 -0.3141 -0.4364 -0.7011
 2379Sol     OW12465   1.882   1.501   3.815 -0.0594 -0.0634  0.0087
 2379Sol     HW12466   1.944   1.429   3.812 -1.7600 -1.6474  1.4481
 2379Sol     HW12467   1.874   1.530   3.724  2.5454  0.0104 -0.2340
 2379Sol     MW12468   1.887   1.497   3.807 -0.3483  0.0524  1.0712
 2380Sol     OW12469   0.115   1.781   3.337 -0.5604  0.3372 -0.0755
 2380Sol     HW12470   0.077   1.824   3.261  0.0891 -0.6930 -0.9977
 2380Sol     HW12471   0.039   1.754   3.389 -1.0916 -0.9374 -1.4694
 2380Sol     MW12472   0.105   1.782   3.335 -0.0035 -0.3391 -0.0255
 2381Sol     OW12473   1.161   0.491   5.141 -0.0950  0.4234  0.0152
 2381Sol     HW12474   1.086   0.480   5.198 -0.6489  1.0725 -0.5746
 2381Sol     HW12475   1.156   0.418   5.080 -1.5058  1.6409 -1.3938
 2381Sol     MW12476   1.154   0.484   5.140 -0.2223  0.7745  0.2117
 2382Sol     OW12477   1.821   2.114   9.569  0.0087 -0.0198  0.1222
 2382Sol     HW12478   1.888   2.178   9.542 -1.3091  1.7215  0.8644
 2382Sol     HW12479   1.770   2.098   9.490  0.9004 -0.8935 -0.2969
 2382Sol     MW12480   1.823   2.119   9.559  0.0856 -0.5835 -0.0678
 2383Sol     OW12481   2.154   0.139   1.909 -0.2681 -0.0198 -0.0422
 2383Sol     HW12482   2.211   0.187   1.969  1.6567 -2.5819  0.3077
 2383Sol     HW12483   2.083   0.200   1.888  1.4186  2.4897  1.2812
 2383Sol     MW12484   2.153   0.149   1.912  0.7590  0.4314  0.1222
 2384Sol     OW12485   3.278   1.158   2.498 -0.3159  0.3468  0.5144
 2384Sol     HW12486   3.194   1.183   2.537  0.0180  0.8459  0.9177
 2384Sol     HW12487   3.339   1.152   2.571  0.7849  3.2154 -0.0641
 2384Sol     MW12488   3.276   1.160   2.508  0.6776 -0.2044 -0.2186
 2385Sol     OW12489   3.289   0.235   5.463 -0.0211 -0.0377  0.4935
 2385Sol     HW12490   3.375   0.214   5.499 -0.4498  0.9135  2.1010
 2385Sol     HW12491   3.281   0.330   5.474 -0.1168  0.3261 -2.2387
 2385Sol     MW12492   3.296   0.242   5.467  0.0329  0.4425  0.1858
 2386Sol     OW12493   2.958   3.414   7.880  0.1377 -1.1726  0.0370
 2386Sol     HW12494   2.866   3.410   7.856  0.2077 -0.9194 -0.2729
 2386Sol     HW12495   2.996   3.335   7.840 -0.2495 -2.1289  1.5007
 2386Sol     MW12496   2.953   3.406   7.874 -0.6554 -0.0264  0.0141
 2387Sol     OW12497   1.544   2.308   7.801  0.4994  0.1870  0.4156
 2387Sol     HW12498   1.561   2.396   7.768  1.2485  0.3410  1.2183
 2387Sol     HW12499   1.514   2.321   7.890 -0.3650 -0.3122  0.2035
 2387Sol     MW12500   1.543   2.317   7.806  0.5997  0.3109  0.2412
 2388Sol     OW12501   1.562   3.374   7.355  0.4163 -0.1455 -0.7741
 2388Sol     HW12502   1.499   3.317   7.310  0.7479 -0.1340 -1.2556
 2388Sol     HW12503   1.522   3.461   7.351 -0.7189 -0.5403  1.1175
 2388Sol     MW12504   1.553   3.377   7.351  0.4880  0.9797  0.2087
 2389Sol     OW12505   1.931   2.606   1.880  0.3023 -0.5061  0.6981
 2389Sol     HW12506   1.931   2.528   1.824 -1.7533 -0.0705  0.0364
 2389Sol     HW12507   1.859   2.592   1.942  1.2192 -0.0393  1.8909
 2389Sol     MW12508   1.925   2.598   1.880  0.3943 -0.3069 -0.0314
 2390Sol     OW12509   1.091   1.664   2.824  0.5091 -0.1227 -0.7312
 2390Sol     HW12510   1.002   1.630   2.813  0.3535 -0.1903  0.7076
 2390Sol     HW12511   1.147   1.588   2.809  0.1287 -1.3659  3.5827
 2390Sol     MW12512   1.088   1.654   2.822  0.5747  1.0007  0.4238
 2391Sol     OW12513   2.282   1.851   5.949  0.3203 -0.1022  0.0253
 2391Sol     HW12514   2.214   1.798   5.908 -0.1428  0.2348  0.3557
 2391Sol     HW12515   2.235   1.911   6.006  0.8762  0.3328  0.0331
 2391Sol     MW12516   2.272   1.852   5.951  0.4628 -0.0608  0.2900
 2392Sol     OW12517   2.054   2.454   6.642  0.0495  0.2788 -0.3397
 2392Sol     HW12518   2.025   2.541   6.614 -3.0046 -0.6094 -0.1797
 2392Sol     HW12519   2.044   2.455   6.737  0.2643 -0.1417 -0.3125
 2392Sol     MW12520   2.050   2.461   6.648 -0.1544  0.0053 -0.0449
 2393Sol     OW12521   0.117   0.934   9.200 -0.6280 -0.1765  0.3357
 2393Sol     HW12522   0.184   0.992   9.163 -2.0991  2.0308  0.9869
 2393Sol     HW12523   0.162   0.852   9.216  1.4302  0.6285 -1.0813
 2393Sol     MW12524   0.127   0.932   9.198 -0.7270  0.7972 -0.1278
 2394Sol     OW12525   0.912   1.507   5.828 -0.9801 -0.6192 -0.4661
 2394Sol     HW12526   0.848   1.483   5.895 -1.3275  0.7041 -0.3115
 2394Sol     HW12527   0.993   1.523   5.877 -0.2204 -3.3332 -0.7704
 2394Sol     MW12528   0.913   1.507   5.839 -0.0854 -0.2171  0.4667
 2395Sol     OW12529   1.694   0.125   7.151  0.4114 -0.5028 -0.0982
 2395Sol     HW12530   1.714   0.031   7.149 -0.7807 -0.8001  1.1565
 2395Sol     HW12531   1.610   0.130   7.197  0.6970  1.2194  0.2411
 2395Sol     MW12532   1.689   0.117   7.155 -0.1392 -0.1841  0.2216
 2396Sol     OW12533   1.363   2.016   9.435  0.3428  0.0798 -0.7212
 2396Sol     HW12534   1.357   2.015   9.531 -0.9608  1.0524 -0.7931
 2396Sol     HW12535   1.288   2.067   9.406 -0.2255 -1.5997 -2.3452
 2396Sol     MW12536   1.356   2.020   9.441  0.7346 -0.0201 -0.1723
 2397Sol     OW12537   2.721   2.437   8.103  0.7131 -0.1273  0.1059
 2397Sol     HW12538   2.717   2.494   8.180 -0.3406 -0.3444  0.2259
 2397Sol     HW12539   2.686   2.490   8.032 -1.4529 -1.0051  0.4745
 2397Sol     MW12540   2.718   2.447   8.104 -0.4613 -0.1701 -0.3659
 2398Sol     OW12541   0.846   1.684   4.459  0.4833  0.0927 -0.0095
 2398Sol     HW12542   0.822   1.638   4.378  0.6500 -0.4851  0.2601
 2398Sol     HW12543   0.773   1.742   4.476  1.0535  1.2240 -1.3106
 2398Sol     MW12544   0.838   1.685   4.453  0.2559 -0.0965 -0.1269
 2399Sol     OW12545   0.902   2.674   3.269  0.1025  0.7069 -0.1197
 2399Sol     HW12546   0.982   2.710   3.231  0.4310 -0.6436 -0.7470
 2399Sol     HW12547   0.881   2.733   3.342  1.5425  1.1884 -0.0829
 2399Sol     MW12548   0.907   2.683   3.272 -0.2744  0.5815 -0.1766
 2400Sol     OW12549   2.215   1.262   7.814  0.4930  0.2270  0.0657
 2400Sol     HW12550   2.194   1.352   7.840 -1.1729 -0.7375  2.2372
 2400Sol     HW12551   2.307   1.266   7.788  0.6507  2.4266  0.8186
 2400Sol     MW12552   2.221   1.270   7.814  0.3093 -0.3961  0.6242
 2401Sol     OW12553   2.954   1.624   3.206  0.0591 -0.2316 -0.0058
 2401Sol     HW12554   2.889   1.587   3.146 -0.3203 -0.5837  0.6144
 2401Sol     HW12555   2.941   1.576   3.288 -0.0868  0.9034  0.6509
 2401Sol     MW12556   2.947   1.617   3.208 -0.7137  0.4028 -0.6430
 2402Sol     OW12557   3.010   3.077   2.394  0.6438  0.3123 -0.1244
 2402Sol     HW12558   3.052   3.125   2.323  0.3302  0.5263 -0.1667
 2402Sol     HW12559   3.060   2.996   2.401  0.9876  0.5100 -0.2559
 2402Sol     MW12560   3.019   3.074   2.389 -0.0934 -0.2944 -0.2751
 2403Sol     OW12561   3.257   3.256   4.682  0.0705 -0.3119  0.3298
 2403Sol     HW12562   3.281   3.344   4.711  1.4198 -0.4596 -0.2881
 2403Sol     HW12563   3.218   3.215   4.759  1.8981 -0.0764  1.4127
 2403Sol     MW12564   3.255   3.260   4.692 -0.0771 -0.6841  1.2578
 2404Sol     OW12565   1.706   0.324   6.520  0.3836  0.0729  0.1839
 2404Sol     HW12566   1.718   0.389   6.450  1.8036 -0.6536 -0.2567
 2404Sol     HW12567   1.678   0.376   6.595 -1.8539  0.8037 -1.0749
 2404Sol     MW12568   1.705   0.335   6.520  0.2325  0.2097 -0.6632
 2405Sol     OW12569   2.938   1.642   4.880 -0.0417 -0.4935 -0.5065
 2405Sol     HW12570   2.872   1.639   4.810  1.1514  0.3397 -1.7122
 2405Sol     HW12571   2.973   1.731   4.874  0.1402 -0.4497  1.1167
 2405Sol     MW12572   2.935   1.650   4.873  1.5698 -0.1941 -0.1506
 2406Sol     OW12573   2.179   0.823   5.171 -0.1954  0.4178  0.4145
 2406Sol     HW12574   2.137   0.908   5.156 -0.5427  0.1065 -0.4114
 2406Sol     HW12575   2.107   0.761   5.175 -0.0048  0.2715  1.9066
 2406Sol     MW12576   2.169   0.825   5.170  0.2339 -0.6022  0.2144
 2407Sol     OW12577   1.559   3.368   3.960 -0.1428 -0.5923 -0.0472
 2407Sol     HW12578   1.637   3.385   3.906 -0.7542  0.6003 -0.5783
 2407Sol     HW12579   1.533   3.279   3.937  0.0522 -0.3712 -1.1675
 2407Sol     MW12580   1.564   3.362   3.953  0.5241  0.2290 -0.3696
 2408Sol     OW12581   0.675   1.586   3.988 -0.7392 -0.4755  0.0295
 2408Sol     HW12582   0.623   1.514   3.952 -0.2237 -1.1149  0.5523
 2408Sol     HW12583   0.702   1.555   4.074 -1.0125  0.5903  0.5047
 2408Sol     MW12584   0.673   1.577   3.992 -0.3520  0.3405 -0.3444
 2409Sol     OW12585   2.913   2.509   1.711  0.2151 -0.3785  0.0229
 2409Sol     HW12586   2.858   2.500   1.633 -0.1491  2.5473 -0.1044
 2409Sol     HW12587   2.991   2.457   1.691 -0.8464 -1.4928 -1.3400
 2409Sol     MW12588   2.915   2.504   1.702 -0.8086  0.5447  0.1853
 2410Sol     OW12589   0.538   1.489   8.989  0.2628 -0.0487  0.4583
 2410Sol     HW12590   0.577   1.406   8.963 -0.3401 -0.2347  0.1425
 2410Sol     HW12591   0.459   1.465   9.037  0.3563  0.3349  0.8126
 2410Sol     MW12592   0.535   1.479   8.991 -0.2350 -0.3470  0.0406
 2411Sol     OW12593   1.713   0.455   4.771 -0.1743 -0.0348  0.0178
 2411Sol     HW12594   1.701   0.371   4.727 -0.0761 -0.9515  1.7200
 2411Sol     HW12595   1.790   0.493   4.728 -0.9789 -0.1996 -1.6418
 2411Sol     MW12596   1.719   0.451   4.763  0.3353 -0.0826 -0.6126
 2412Sol     OW12597   2.144   2.572   9.570 -0.4507  0.0021 -0.1730
 2412Sol     HW12598   2.234   2.558   9.600 -0.6317  0.6347  0.7143
 2412Sol     HW12599   2.145   2.660   9.532 -1.1111  0.8049  1.5947
 2412Sol     MW12600   2.153   2.579   9.570  0.1898 -0.3279  0.2290
 2413Sol     OW12601   0.164   3.144   9.895  0.3185  0.7246 -0.3274
 2413Sol     HW12602   0.112   3.079   9.943  0.2315  0.9415 -0.1284
 2413Sol     HW12603   0.112   3.224   9.900  0.2156  0.7011 -0.9546
 2413Sol     MW12604   0.154   3.145   9.900 -0.3664 -0.5315 -0.3321
 2414Sol     OW12605   2.451   2.257   3.928 -0.0016 -0.0951  0.8538
 2414Sol     HW12606   2.391   2.197   3.972  1.4522 -2.0058  0.3139
 2414Sol     HW12607   2.505   2.200   3.872  2.4722  1.5104  1.5244
 2414Sol     MW12608   2.451   2.246   3.927 -0.0807 -0.3750  0.1685
 2415Sol     OW12609   0.449   1.674   5.486 -0.1324 -0.1370 -0.2181
 2415Sol     HW12610   0.490   1.682   5.400 -0.0916 -1.4225 -0.3250
 2415Sol     HW12611   0.481   1.750   5.535  2.5602 -1.2472 -0.2134
 2415Sol     MW12612   0.455   1.682   5.482 -0.2262 -0.3368  0.2162
 2416Sol     OW12613   3.160   0.512   7.521 -0.3170 -0.0868  0.0988
 2416Sol     HW12614   3.158   0.535   7.614 -0.4519  0.7236 -0.1043
 2416Sol     HW12615   3.161   0.416   7.520 -2.0201 -0.1190  0.9080
 2416Sol     MW12616   3.160   0.505   7.529  0.3837 -0.1035 -0.3846
 2417Sol     OW12617   0.401   1.973   5.191 -0.4168  1.0794 -0.0569
 2417Sol     HW12618   0.448   1.897   5.157 -0.9864 -0.1232  1.7280
 2417Sol     HW12619   0.466   2.020   5.243 -0.5743  0.6632  0.5306
 2417Sol     MW12620   0.411   1.970   5.193  0.0590 -0.0195  0.1454
 2418Sol     OW12621   2.919   1.099   2.191 -0.3709  0.2291  0.3696
 2418Sol     HW12622   2.882   1.093   2.279 -1.2014  0.2860  0.0291
 2418Sol     HW12623   3.005   1.059   2.198 -0.7285 -0.4267  1.0368
 2418Sol     MW12624   2.923   1.095   2.200  0.3468  1.1534  0.1536
 2419Sol     OW12625   2.035   1.871   2.860 -0.0286  0.9638  0.3583
 2419Sol     HW12626   2.110   1.848   2.916 -0.4354  0.4289  0.6914
 2419Sol     HW12627   1.962   1.881   2.921 -0.7947 -0.9961 -0.1967
 2419Sol     MW12628   2.036   1.870   2.871 -0.2195 -0.2772  0.1967
 2420Sol     OW12629   0.287   0.201   6.882  0.6529 -0.9570  0.0545
 2420Sol     HW12630   0.335   0.119   6.868 -0.1620 -1.3003 -0.7688
 2420Sol     HW12631   0.290   0.214   6.977 -0.8749 -2.9981  0.4286
 2420Sol     MW12632   0.291   0.195   6.889  0.0395  0.3104  0.4022
 2421Sol     OW12633   1.031   1.313   1.554  0.2058  0.2616 -0.0888
 2421Sol     HW12634   1.038   1.224   1.521 -0.2515  0.0069  0.4907
 2421Sol     HW12635   1.070   1.309   1.641 -2.8931 -0.1600  1.3489
 2421Sol     MW12636   1.035   1.305   1.559 -0.3969  0.7256  0.6979
 2422Sol     OW12637   1.011   0.857   6.923  0.4491  0.6003  0.4809
 2422Sol     HW12638   1.013   0.834   6.830  1.1230 -0.0806  0.6616
 2422Sol     HW12639   1.077   0.925   6.932  1.5413 -0.4872  0.7630
 2422Sol     MW12640   1.017   0.861   6.916 -0.5668  0.0144 -0.0757
 2423Sol     OW12641   1.766   1.928   2.497 -0.3321 -0.0996 -0.6936
 2423Sol     HW12642   1.689   1.874   2.514 -0.2906 -0.0264 -0.2568
 2423Sol     HW12643   1.840   1.871   2.520 -0.3524  1.1820  2.9543
 2423Sol     MW12644   1.766   1.918   2.501  0.3212 -0.1990  0.2303
 2424Sol     OW12645   2.263   1.472   4.965 -0.0776  0.0500 -0.3881
 2424Sol     HW12646   2.319   1.548   4.947  0.1272  0.3915  1.5366
 2424Sol     HW12647   2.185   1.510   5.004 -0.4324 -0.6566 -0.4123
 2424Sol     MW12648   2.261   1.483   4.967  0.3288  0.4120 -0.1357
 2425Sol     OW12649   2.192   0.679   2.625 -0.0022 -0.1631  0.5665
 2425Sol     HW12650   2.252   0.691   2.551 -0.0354 -2.6310  0.1272
 2425Sol     HW12651   2.237   0.618   2.683  1.7202  4.4539  4.5041
 2425Sol     MW12652   2.202   0.675   2.623 -1.0045  0.1395  0.4636
 2426Sol     OW12653   1.800   1.960   2.964  0.0772  0.5217  0.0554
 2426Sol     HW12654   1.763   1.938   3.049  0.9594 -0.0023  0.3240
 2426Sol     HW12655   1.791   2.055   2.956  0.0757  0.5808  0.7760
 2426Sol     MW12656   1.796   1.966   2.971  0.2851 -0.3155  0.3290
 2427Sol     OW12657   3.049   1.764   7.689 -0.0903 -0.3947  0.2827
 2427Sol     HW12658   2.991   1.737   7.618 -0.2673 -0.6079  0.5082
 2427Sol     HW12659   3.001   1.742   7.769 -0.5556  1.2471  0.4766
 2427Sol     MW12660   3.039   1.760   7.690 -0.3609 -0.6764  0.9200
 2428Sol     OW12661   2.699   0.858   6.118  0.1929 -0.0292 -0.7304
 2428Sol     HW12662   2.737   0.781   6.159  0.7546  0.4641 -0.3175
 2428Sol     HW12663   2.639   0.823   6.052 -0.9246 -0.8368  0.6845
 2428Sol     MW12664   2.697   0.848   6.115 -0.4135  0.0287 -0.1121
 2429Sol     OW12665   3.128   2.952   7.647  0.1577 -0.2649  0.4599
 2429Sol     HW12666   3.152   2.865   7.681 -0.7902 -0.8206 -0.2652
 2429Sol     HW12667   3.079   2.933   7.567  1.5394  1.0015 -0.7033
 2429Sol     MW12668   3.126   2.942   7.643  0.4044  0.8535 -0.1302
 2430Sol     OW12669   0.596   2.729   2.370  0.2730 -0.0194  0.3360
 2430Sol     HW12670   0.550   2.805   2.403  1.5578  1.0210 -0.2165
 2430Sol     HW12671   0.586   2.735   2.275  1.2267  0.0215  0.2330
 2430Sol     MW12672   0.591   2.736   2.364 -0.0823 -0.0463 -0.3331
 2431Sol     OW12673   2.173   0.640   9.713  0.5031  0.1615  0.1496
 2431Sol     HW12674   2.132   0.652   9.799 -1.6815  1.1170 -0.9757
 2431Sol     HW12675   2.233   0.567   9.725 -1.2248 -1.0097  1.9966
 2431Sol     MW12676   2.174   0.635   9.722 -0.3042  0.4001  0.5071
 2432Sol     OW12677   0.474   0.495   1.476 -0.3164  0.2859  0.4352
 2432Sol     HW12678   0.403   0.558   1.487  0.7075  1.2823  1.6237
 2432Sol     HW12679   0.542   0.544   1.428 -0.5896 -0.7893 -1.0881
 2432Sol     MW12680   0.474   0.505   1.473 -0.0594  0.4893 -0.0694
 2433Sol     OW12681   1.556   0.764   1.837  0.0532 -0.2486  0.3733
 2433Sol     HW12682   1.606   0.686   1.864  2.4182  1.4747  1.1448
 2433Sol     HW12683   1.549   0.756   1.742  0.4897 -1.2829  0.4157
 2433Sol     MW12684   1.560   0.756   1.831  0.1762 -0.4431 -0.1879
 2434Sol     OW12685   2.347   1.501   3.238 -0.5319 -0.1533 -0.0001
 2434Sol     HW12686   2.438   1.529   3.227 -0.3820 -0.6365  0.0170
 2434Sol     HW12687   2.325   1.459   3.155 -0.0797 -1.8902  0.7508
 2434Sol     MW12688   2.353   1.500   3.230 -0.1513  0.4013  0.3255
 2435Sol     OW12689   1.564   2.806   3.251  0.3346 -0.6550  0.9982
 2435Sol     HW12690   1.590   2.716   3.230 -0.3917 -1.0932  1.9372
 2435Sol     HW12691   1.502   2.829   3.181 -0.5748 -1.4062  1.5394
 2435Sol     MW12692   1.561   2.800   3.243 -0.3726 -0.2202  0.1351
 2436Sol     OW12693   2.683   3.018   6.562 -0.0252  0.1069  0.2348
 2436Sol     HW12694   2.599   3.054   6.534 -1.9001 -2.5886  2.0371
 2436Sol     HW12695   2.703   2.950   6.497 -0.1092 -0.3802  0.7079
 2436Sol     MW12696   2.677   3.015   6.554  0.2283 -0.1172 -0.4040
 2437Sol     OW12697   2.134   0.160   4.643  0.0256 -0.0719  0.4834
 2437Sol     HW12698   2.191   0.096   4.686 -1.3443 -1.7187 -0.0700
 2437Sol     HW12699   2.096   0.112   4.569 -1.7606  1.1022  0.6042
 2437Sol     MW12700   2.136   0.150   4.640 -0.3062 -0.4970  0.1493
 2438Sol     OW12701   2.773   2.455   1.929 -0.4618 -0.0662  0.4107
 2438Sol     HW12702   2.773   2.549   1.949  1.5002 -0.0587  0.4674
 2438Sol     HW12703   2.810   2.450   1.841 -0.0636 -0.8394  0.6251
 2438Sol     MW12704   2.776   2.463   1.922 -0.2939 -0.0614 -0.6066
 2439Sol     OW12705   0.589   0.850   4.245  0.2144  0.2406  0.1737
 2439Sol     HW12706   0.567   0.866   4.337 -0.0739  1.5265 -0.1031
 2439Sol     HW12707   0.531   0.779   4.219 -0.7600  0.8682  0.5860
 2439Sol     MW12708   0.582   0.845   4.251  0.5794 -0.5468 -0.0470
 2440Sol     OW12709   1.250   2.736   4.688  0.3323 -0.0531 -0.1183
 2440Sol     HW12710   1.328   2.738   4.743 -0.7427  1.2111  1.4009
 2440Sol     HW12711   1.245   2.824   4.651 -0.0066 -0.3289 -0.7397
 2440Sol     MW12712   1.257   2.744   4.690 -0.0943  0.6878  0.8992
 2441Sol     OW12713   2.498   2.712   2.485 -0.5705 -0.1998 -0.1479
 2441Sol     HW12714   2.591   2.713   2.505  0.2428 -1.0395 -3.6106
 2441Sol     HW12715   2.465   2.795   2.521  1.3008 -0.3550  1.9590
 2441Sol     MW12716   2.503   2.720   2.490 -0.8511 -0.5570 -0.6838
 2442Sol     OW12717   1.996   0.808   1.970 -0.1956 -0.3647  0.3425
 2442Sol     HW12718   2.087   0.816   2.000 -0.1992  0.6454  0.0870
 2442Sol     HW12719   1.944   0.841   2.043 -0.3312 -0.4185  0.2691
 2442Sol     MW12720   2.000   0.812   1.979  0.0625  0.2199  0.5179
 2443Sol     OW12721   3.202   2.221   1.961  0.8044  0.5095 -0.4361
 2443Sol     HW12722   3.199   2.303   1.911 -0.2166  0.2701 -0.7698
 2443Sol     HW12723   3.112   2.204   1.987  0.7022 -1.4465 -1.9302
 2443Sol     MW12724   3.194   2.227   1.959 -0.2661 -0.1678 -0.1537
 2444Sol     OW12725   0.152   1.705   9.514 -0.6959 -0.5538  0.6873
 2444Sol     HW12726   0.102   1.725   9.435  1.8416 -0.2276 -0.9086
 2444Sol     HW12727   0.169   1.791   9.554 -0.0920 -0.5164  0.3630
 2444Sol     MW12728   0.149   1.715   9.511  0.3107 -0.6690  0.4695
 2445Sol     OW12729   1.092   1.665   8.637 -0.4388 -0.2908  0.2061
 2445Sol     HW12730   1.027   1.734   8.627  0.5391  0.6226  0.0984
 2445Sol     HW12731   1.043   1.592   8.677 -1.3370  0.6608  0.8885
 2445Sol     MW12732   1.081   1.664   8.640 -0.3436  0.0006 -0.1262
 2446Sol     OW12733   0.069   2.501   5.446  0.3232  0.3274 -0.1066
 2446Sol     HW12734   0.134   2.523   5.379 -0.0052 -0.6852 -0.7527
 2446Sol     HW12735   0.036   2.415   5.421 -1.4384  0.9266  0.1014
 2446Sol     MW12736   0.072   2.495   5.438 -0.0699  0.9228 -0.3872
 2447Sol     OW12737   2.253   1.103   4.874  0.2457  0.2276  0.1134
 2447Sol     HW12738   2.238   1.016   4.835 -0.1111  0.3685 -0.0691
 2447Sol     HW12739   2.248   1.163   4.799  1.3754  0.3127  0.1087
 2447Sol     MW12740   2.251   1.100   4.863 -0.3425  0.2962  0.3907
 2448Sol     OW12741   0.884   1.965   3.136 -0.8968 -0.2779  0.0162
 2448Sol     HW12742   0.828   1.937   3.063 -0.3638  0.2126 -0.5872
 2448Sol     HW12743   0.903   2.057   3.118 -0.9030 -0.1100  0.8724
 2448Sol     MW12744   0.881   1.970   3.128  0.7393  0.8193 -0.0694
 2449Sol     OW12745   1.952   2.366   2.747  0.0634  0.1046 -0.0534
 2449Sol     HW12746   1.990   2.288   2.787  0.9422  0.8213  0.5689
 2449Sol     HW12747   1.939   2.426   2.821 -2.5683 -0.2254 -0.2240
 2449Sol     MW12748   1.954   2.365   2.757 -0.9101  0.2419  0.7453
 2450Sol     OW12749   2.266   1.378   8.538  0.6372  0.2303  0.3628
 2450Sol     HW12750   2.261   1.388   8.443  0.4655  1.6869  0.5153
 2450Sol     HW12751   2.359   1.365   8.556  0.6347 -0.3504 -0.0255
 2450Sol     MW12752   2.274   1.378   8.531 -0.2208  0.2902 -0.1837
 2451Sol     OW12753   1.365   2.950   6.672  0.0124 -0.3365  0.2533
 2451Sol     HW12754   1.345   2.925   6.581  0.3848 -3.3338  0.9691
 2451Sol     HW12755   1.341   2.874   6.724 -0.6946  1.5415  2.7820
 2451Sol     MW12756   1.361   2.941   6.668 -0.7405  0.2712  0.5473
 2452Sol     OW12757   2.950   2.763   4.964  0.8359 -0.3153 -0.5677
 2452Sol     HW12758   2.935   2.744   5.057 -0.1696  0.2290 -0.6205
 2452Sol     HW12759   3.036   2.806   4.962 -0.0709  1.6104  0.3663
 2452Sol     MW12760   2.957   2.765   4.972 -0.1937  0.0999  0.0265
 2453Sol     OW12761   2.782   3.308   5.458  0.3512 -0.0834 -0.1031
 2453Sol     HW12762   2.790   3.215   5.437  0.0562 -0.2205  0.3804
 2453Sol     HW12763   2.848   3.351   5.403 -0.4691 -0.4135 -1.3448
 2453Sol     MW12764   2.789   3.303   5.452  0.4677  0.5287  0.4095
 2454Sol     OW12765   1.891   0.338   7.187 -0.1426 -0.1766  0.8989
 2454Sol     HW12766   1.894   0.360   7.094 -0.0168  1.5328  1.2810
 2454Sol     HW12767   1.820   0.275   7.195  0.9670 -1.6446 -0.6009
 2454Sol     MW12768   1.885   0.334   7.179 -0.1717  0.0631  0.0318
 2455Sol     OW12769   2.253   1.604   5.389  0.7715  0.0484  0.1302
 2455Sol     HW12770   2.163   1.610   5.420  1.0374  0.1814  0.8856
 2455Sol     HW12771   2.257   1.666   5.316  0.6550  1.1802  1.0700
 2455Sol     MW12772   2.245   1.610   5.385 -1.1151 -0.4092 -0.1008
 2456Sol     OW12773   0.647   0.425   3.517  0.5178 -0.5060 -0.4464
 2456Sol     HW12774   0.720   0.386   3.468  0.9949 -0.3396  0.1225
 2456Sol     HW12775   0.578   0.359   3.514  0.3792 -0.3224 -1.7087
 2456Sol     MW12776   0.647   0.416   3.512  0.9116 -0.1602  0.8678
 2457Sol     OW12777   2.883   1.511   3.447 -0.6338  0.2993 -0.0963
 2457Sol     HW12778   2.920   1.501   3.535 -0.7073 -0.4074 -0.1369
 2457Sol     HW12779   2.840   1.427   3.431 -0.6149  0.4289 -0.8111
 2457Sol     MW12780   2.882   1.502   3.454 -0.1662 -0.2175  0.5950
 2458Sol     OW12781   1.994   1.206   3.319 -0.0578 -0.2545 -0.1702
 2458Sol     HW12782   2.072   1.162   3.287  0.1845 -0.7031  1.0320
 2458Sol     HW12783   1.934   1.135   3.344 -0.7508  0.0850 -0.8328
 2458Sol     MW12784   1.995   1.196   3.318  0.1845 -0.9444  0.4473
 2459Sol     OW12785   3.124   2.364   7.282 -0.4640 -0.5560 -0.4375
 2459Sol     HW12786   3.219   2.363   7.293 -0.3973  0.3885 -0.9524
 2459Sol     HW12787   3.098   2.274   7.301  0.1449 -0.0902  2.9876
 2459Sol     MW12788   3.130   2.356   7.285 -0.4734 -0.2949  0.0248
 2460Sol     OW12789   0.284   0.485   3.598 -0.1248 -0.5064 -0.0181
 2460Sol     HW12790   0.345   0.469   3.670 -0.5309 -0.1590  0.4085
 2460Sol     HW12791   0.318   0.434   3.525 -0.4097 -1.8882  0.8023
 2460Sol     MW12792   0.292   0.479   3.598  0.8879 -0.0434  0.2238
 2461Sol     OW12793   2.875   3.160   6.086 -0.4305 -0.8051  0.0684
 2461Sol     HW12794   2.906   3.150   6.176 -2.4772  1.5999  1.0808
 2461Sol     HW12795   2.811   3.090   6.075  0.0210 -1.2745  0.3498
 2461Sol     MW12796   2.872   3.153   6.093  0.3857 -0.1282  0.3556
 2462Sol     OW12797   0.128   0.609   2.299 -0.7272  0.0604 -0.0259
 2462Sol     HW12798   0.106   0.631   2.208  1.4800  1.3936 -0.2706
 2462Sol     HW12799   0.101   0.686   2.349 -2.6169 -0.9711  0.5688
 2462Sol     MW12800   0.124   0.618   2.295  0.1916 -0.1240 -0.7154
 2463Sol     OW12801   1.136   0.642   9.914 -0.6193 -0.0888 -0.7670
 2463Sol     HW12802   1.075   0.713   9.932 -1.1049  0.0867 -2.8864
 2463Sol     HW12803   1.079   0.566   9.897 -0.1788 -0.4348 -0.7037
 2463Sol     MW12804   1.125   0.641   9.914  0.6087  0.1100  0.2135
 2464Sol     OW12805   2.395   1.622   6.323  0.4765 -0.0963  0.0081
 2464Sol     HW12806   2.484   1.595   6.342  0.4579  0.5876  1.1230
 2464Sol     HW12807   2.372   1.683   6.394 -0.0086  1.6227 -1.5706
 2464Sol     MW12808   2.401   1.625   6.331  0.5285  0.8184 -0.1952
 2465Sol     OW12809   1.624   1.455   1.384  0.2670 -0.0322 -0.4701
 2465Sol     HW12810   1.543   1.468   1.434  0.3773 -0.4320 -0.1852
 2465Sol     HW12811   1.626   1.528   1.322  0.7959  1.2369  1.0091
 2465Sol     MW12812   1.617   1.463   1.383 -0.1078  0.8567  0.7928
 2466Sol     OW12813   0.290   1.001   4.913 -0.3429 -0.5141  0.0090
 2466Sol     HW12814   0.222   0.998   4.979 -0.6888  1.2535 -0.2578
 2466Sol     HW12815   0.268   1.077   4.858  1.1990 -0.5962 -0.7547
 2466Sol     MW12816   0.282   1.007   4.914  0.7050 -0.0747  0.3448
 2467Sol     OW12817   2.174   1.632   8.376  0.2701  0.4092  0.4034
 2467Sol     HW12818   2.259   1.675   8.384 -1.0630  3.6636 -1.9699
 2467Sol     HW12819   2.114   1.687   8.427 -1.1880  0.5208 -1.3967
 2467Sol     MW12820   2.176   1.641   8.381  0.0017 -0.3598  0.3608
 2468Sol     OW12821   3.293   1.820   5.329  0.1434  0.3555  0.7756
 2468Sol     HW12822   3.236   1.821   5.252  1.5916 -1.7857 -0.3849
 2468Sol     HW12823   3.238   1.853   5.400 -0.9574  3.2293 -1.3300
 2468Sol     MW12824   3.283   1.823   5.328 -0.1805  0.0214 -0.3017
 2469Sol     OW12825   0.204   0.586   7.041  0.5651  0.2949  0.0825
 2469Sol     HW12826   0.148   0.663   7.049  1.5254  1.0324 -0.3187
 2469Sol     HW12827   0.279   0.604   7.097  1.7887  0.5532 -1.6144
 2469Sol     MW12828   0.205   0.594   7.046 -0.2364  0.0524  0.3632
 2470Sol     OW12829   1.074   2.976   5.545 -0.1328  0.1624  0.1312
 2470Sol     HW12830   0.992   2.949   5.588 -1.2926  1.9928 -0.8671
 2470Sol     HW12831   1.097   2.902   5.488 -1.9764  0.2886 -0.8082
 2470Sol     MW12832   1.069   2.967   5.544 -0.1016 -0.3219  0.1973
 2471Sol     OW12833   2.872   2.779   4.269 -0.2020 -0.3386  0.2888
 2471Sol     HW12834   2.782   2.746   4.279 -0.2222 -0.5769 -0.6280
 2471Sol     HW12835   2.927   2.703   4.289 -0.1802  0.0366  1.7084
 2471Sol     MW12836   2.869   2.769   4.272 -0.5250 -0.9224  0.1865
 2472Sol     OW12837   0.785   2.896   2.779  0.0410 -0.0992  0.1275
 2472Sol     HW12838   0.791   2.841   2.700  0.6486 -0.6288  0.5378
 2472Sol     HW12839   0.876   2.910   2.805 -0.1392  0.6142  0.3644
 2472Sol     MW12840   0.793   2.892   2.774  0.5800  1.1087  0.0532
 2473Sol     OW12841   0.536   2.269   5.504  0.0068 -0.4658  0.2419
 2473Sol     HW12842   0.597   2.254   5.576 -0.6613  1.0386  1.1474
 2473Sol     HW12843   0.528   2.364   5.498  0.8147 -0.5051 -2.4889
 2473Sol     MW12844   0.541   2.276   5.510  0.1692 -0.4441  0.3277
 2474Sol     OW12845   0.749   0.490   2.998  0.2278 -0.2074  0.1243
 2474Sol     HW12846   0.830   0.522   3.038 -0.1957  0.0773  0.7761
 2474Sol     HW12847   0.684   0.557   3.019 -0.1655 -0.4139 -0.4308
 2474Sol     MW12848   0.750   0.499   3.004  0.9643  0.1258  0.1299
 2475Sol     OW12849   0.278   0.692   1.474  0.4039 -0.0395  0.0595
 2475Sol     HW12850   0.280   0.787   1.489  2.2032  0.0398 -0.5277
 2475Sol     HW12851   0.185   0.672   1.463  0.0166  1.7125 -0.1571
 2475Sol     MW12852   0.270   0.699   1.475  0.7686  0.0764 -0.0595
 2476Sol     OW12853   0.347   1.885   7.389  0.2129 -0.2148 -0.3998
 2476Sol     HW12854   0.391   1.896   7.304 -1.8882  2.9771 -1.1731
 2476Sol     HW12855   0.276   1.823   7.371  0.8543 -0.9313 -0.5124
 2476Sol     MW12856   0.345   1.881   7.380 -0.4010  0.6507  0.5946
 2477Sol     OW12857   2.523   2.007   2.034 -0.3326 -0.1950 -0.4264
 2477Sol     HW12858   2.544   2.011   1.941  2.3507  1.1919  0.1994
 2477Sol     HW12859   2.590   2.059   2.077 -0.6767 -1.9711  2.4405
 2477Sol     MW12860   2.531   2.012   2.030 -0.2239  0.4039  0.0178
 2478Sol     OW12861   3.229   0.831   2.695  0.1660  0.4921  0.5282
 2478Sol     HW12862   3.164   0.883   2.742  2.6772  1.4256  3.1306
 2478Sol     HW12863   3.251   0.760   2.754  0.2890 -0.8112 -1.0325
 2478Sol     MW12864   3.225   0.830   2.704  0.3024  0.3661  0.2340
 2479Sol     OW12865   1.922   1.507   5.869  0.2369 -0.1504 -0.2006
 2479Sol     HW12866   1.960   1.443   5.809  0.7712  0.5498 -0.6187
 2479Sol     HW12867   1.921   1.462   5.954 -0.3771 -1.0830 -0.6902
 2479Sol     MW12868   1.926   1.497   5.871  0.2849  1.0980  0.3189
 2480Sol     OW12869   2.875   1.209   4.493 -0.0777  0.0576  0.4725
 2480Sol     HW12870   2.908   1.298   4.486  0.3228 -0.1374 -0.1941
 2480Sol     HW12871   2.945   1.155   4.457 -0.3834 -0.5077  0.7264
 2480Sol     MW12872   2.884   1.212   4.489 -0.0314 -0.8991  0.2033
 2481Sol     OW12873   0.668   3.170   3.807 -0.0575  0.2189 -0.1444
 2481Sol     HW12874   0.718   3.093   3.778 -0.5015 -0.1737  0.1206
 2481Sol     HW12875   0.694   3.239   3.747 -1.6471 -0.8130 -2.0639
 2481Sol     MW12876   0.675   3.169   3.799 -0.6462  0.1854 -0.1225
 2482Sol     OW12877   1.622   2.386   6.656 -0.3674 -0.3492 -0.4129
 2482Sol     HW12878   1.661   2.384   6.743 -1.2572 -0.2543  0.0017
 2482Sol     HW12879   1.674   2.325   6.605  0.7778  0.3470 -0.0810
 2482Sol     MW12880   1.630   2.380   6.660  0.5601 -0.5285 -0.3196
 2483Sol     OW12881   1.960   0.701   5.524 -0.4736  0.4355  0.0501
 2483Sol     HW12882   2.040   0.742   5.557 -0.0149 -0.0709 -0.4120
 2483Sol     HW12883   1.928   0.650   5.598  1.0024 -1.3590 -0.4886
 2483Sol     MW12884   1.965   0.700   5.534 -0.4296  0.2632 -0.3863
 2484Sol     OW12885   0.899   2.302   6.739  0.8508  0.1482 -0.5507
 2484Sol     HW12886   0.959   2.329   6.808  0.5148  1.0866 -0.6182
 2484Sol     HW12887   0.819   2.352   6.756 -0.2138 -1.6853  0.0287
 2484Sol     MW12888   0.897   2.309   6.747  0.3905 -0.0640 -0.0672
 2485Sol     OW12889   0.903   1.861   5.111  0.0649 -0.4352 -0.6299
 2485Sol     HW12890   0.966   1.796   5.079  1.2052  0.3664 -0.0763
 2485Sol     HW12891   0.821   1.813   5.120  0.8992 -1.8171 -0.1922
 2485Sol     MW12892   0.902   1.851   5.109 -0.0904 -0.1506  0.2751
 2486Sol     OW12893   1.470   1.491   8.969 -0.1701  0.2334  0.1941
 2486Sol     HW12894   1.478   1.411   8.918 -0.1393  0.2644  0.1491
 2486Sol     HW12895   1.376   1.500   8.986 -0.4412  1.3591 -1.7023
 2486Sol     MW12896   1.462   1.485   8.966  0.4303 -0.2079  0.1310
 2487Sol     OW12897   1.035   3.195   3.352 -0.0222  0.0571 -0.3796
 2487Sol     HW12898   1.126   3.167   3.344 -0.7957 -2.5071 -0.5150
 2487Sol     HW12899   1.022   3.206   3.446  0.4701  0.6218 -0.3712
 2487Sol     MW12900   1.042   3.194   3.360  0.6362 -0.1854 -0.3653
 2488Sol     OW12901   1.601   1.981   1.356  0.4163  0.5726 -0.1156
 2488Sol     HW12902   1.514   1.982   1.318  0.9725 -1.2600 -1.5432
 2488Sol     HW12903   1.608   1.894   1.396  2.0468  0.1746 -1.2062
 2488Sol     MW12904   1.594   1.973   1.356  0.3261 -0.0460 -0.2002
 2489Sol     OW12905   2.393   0.411   6.187  0.2945  0.8486 -0.1367
 2489Sol     HW12906   2.353   0.369   6.111 -0.7564  0.3066  0.7038
 2489Sol     HW12907   2.361   0.501   6.184 -3.3763 -0.2651  2.1020
 2489Sol     MW12908   2.387   0.415   6.180  0.0539 -0.1672  0.1919
 2490Sol     OW12909   3.034   2.259   8.944 -0.2315  0.2282  0.0762
 2490Sol     HW12910   3.129   2.258   8.934 -0.3258  0.0197 -0.8655
 2490Sol     HW12911   3.019   2.312   9.022  0.7579 -1.3787  1.3848
 2490Sol     MW12912   3.041   2.264   8.950 -0.3138 -0.5196  0.0498
 2491Sol     OW12913   1.786   0.250   3.931 -0.0363  0.3264  0.4376
 2491Sol     HW12914   1.836   0.268   4.011 -0.2486  0.2259  0.5926
 2491Sol     HW12915   1.695   0.267   3.955 -0.1859 -0.4492  0.4352
 2491Sol     MW12916   1.783   0.253   3.940 -0.4504 -0.3931  0.5597
 2492Sol     OW12917   1.860   1.921   7.054 -0.1240  0.2932  0.6460
 2492Sol     HW12918   1.901   1.960   6.977  1.3224 -1.1202  0.6798
 2492Sol     HW12919   1.933   1.895   7.110 -1.0996 -0.7522  1.4548
 2492Sol     MW12920   1.870   1.922   7.052  0.2260  0.3386 -0.1763
 2493Sol     OW12921   0.380   0.851   7.620  0.4186  0.4510 -0.2784
 2493Sol     HW12922   0.358   0.817   7.707 -0.0159  1.6265  0.0835
 2493Sol     HW12923   0.298   0.885   7.586  0.3642 -0.9363 -1.6023
 2493Sol     MW12924   0.371   0.851   7.625 -0.4420  0.1787  0.3444
 2494Sol     OW12925   1.122   3.037   2.385  0.0013  0.1428  0.1037
 2494Sol     HW12926   1.099   3.116   2.336 -0.7580 -0.8042 -1.0996
 2494Sol     HW12927   1.193   3.065   2.443  0.6210  1.3936 -1.2139
 2494Sol     MW12928   1.126   3.047   2.386  0.2051 -0.3021 -0.1570
 2495Sol     OW12929   3.141   2.705   3.921 -0.0119 -0.5284 -0.1966
 2495Sol     HW12930   3.156   2.768   3.991 -0.0651  0.5543 -1.1427
 2495Sol     HW12931   3.163   2.753   3.841 -1.4484 -1.2476 -1.0416
 2495Sol     MW12932   3.145   2.715   3.920  0.4424 -0.7362  0.4100
 2496Sol     OW12933   3.082   3.221   6.690  0.5598  0.1904  0.0790
 2496Sol     HW12934   3.065   3.128   6.711  1.1831  0.1277  0.3072
 2496Sol     HW12935   3.152   3.246   6.750  2.2180  0.0899 -1.8000
 2496Sol     MW12936   3.086   3.215   6.698 -0.0373  0.2599  0.0657
 2497Sol     OW12937   2.470   1.264   6.816  0.0335  0.4222  0.1176
 2497Sol     HW12938   2.448   1.349   6.853  0.2618 -0.3317  2.0160
 2497Sol     HW12939   2.399   1.206   6.844  0.6557 -0.3548  0.1205
 2497Sol     MW12940   2.462   1.266   6.822  0.1831 -0.0042  0.4265
 2498Sol     OW12941   0.861   3.349   7.429  0.1739 -0.2607  0.0764
 2498Sol     HW12942   0.924   3.371   7.498  1.5247 -0.2141 -1.1362
 2498Sol     HW12943   0.805   3.426   7.423 -0.0802 -0.3377  1.2439
 2498Sol     MW12944   0.862   3.358   7.435  0.5652 -0.4259  0.3477
 2499Sol     OW12945   0.818   0.447   8.879 -0.0793 -0.1188 -0.5378
 2499Sol     HW12946   0.893   0.479   8.830  0.0605 -0.4003 -0.5097
 2499Sol     HW12947   0.803   0.359   8.846  1.5415 -1.2551  1.6154
 2499Sol     MW12948   0.823   0.442   8.872  0.1327  0.0941 -0.3920
 2500Sol     OW12949   1.192   1.254   2.295 -0.3423 -0.2039  0.6341
 2500Sol     HW12950   1.139   1.299   2.361  0.2094 -1.6211  2.0820
 2500Sol     HW12951   1.129   1.198   2.248 -0.3832 -0.7598  1.3495
 2500Sol     MW12952   1.181   1.253   2.297 -0.0084  0.0187  0.3778
 2501Sol     OW12953   1.933   0.864   3.571 -0.5597 -0.7163  0.0960
 2501Sol     HW12954   1.913   0.770   3.571 -1.5586 -0.5080  0.9054
 2501Sol     HW12955   1.908   0.894   3.484  1.2702 -1.5086 -0.7288
 2501Sol     MW12956   1.929   0.858   3.563 -0.0456 -0.3136 -0.5282
 2502Sol     OW12957   2.239   1.118   8.072  0.1918 -0.3040  0.1447
 2502Sol     HW12958   2.190   1.041   8.100 -2.1813  0.9855 -0.3206
 2502Sol     HW12959   2.207   1.137   7.984  0.3890  1.4751  0.4300
 2502Sol     MW12960   2.232   1.113   8.067  0.0626 -0.6465 -0.1979
 2503Sol     OW12961   0.830   1.432   3.038  0.2083  1.0464 -0.1510
 2503Sol     HW12962   0.872   1.435   3.123  1.2081 -0.1484 -0.5947
 2503Sol     HW12963   0.763   1.365   3.046 -0.5843  1.8508  0.0774
 2503Sol     MW12964   0.828   1.426   3.046  0.8123  0.6565  0.9033
 2504Sol     OW12965   0.649   2.857   6.227 -0.4039  0.4940 -0.2430
 2504Sol     HW12966   0.564   2.865   6.184 -0.8530  0.0268  0.5483
 2504Sol     HW12967   0.693   2.941   6.209  0.6174 -0.7391 -4.0928
 2504Sol     MW12968   0.646   2.865   6.221 -0.1349  0.3982 -0.9730
 2505Sol     OW12969   0.136   2.885   3.646 -0.3059  0.8671 -0.3609
 2505Sol     HW12970   0.130   2.800   3.603  0.0492  0.6822 -0.0404
 2505Sol     HW12971   0.226   2.891   3.675 -0.7181  0.7101  0.9615
 2505Sol     MW12972   0.143   2.878   3.644 -1.1133  1.0464 -0.1124
 2506Sol     OW12973   0.400   1.037   7.125 -0.2539  0.8420  0.4606
 2506Sol     HW12974   0.345   0.998   7.058  0.1814  1.2470 -0.1434
 2506Sol     HW12975   0.361   1.010   7.208 -0.9692  0.5824  0.0401
 2506Sol     MW12976   0.392   1.031   7.126 -0.1326 -0.0387  0.1630
 2507Sol     OW12977   1.297   1.387   3.710 -0.1265  0.5350  0.1500
 2507Sol     HW12978   1.205   1.382   3.683  0.2330  0.1687 -1.0328
 2507Sol     HW12979   1.293   1.411   3.803 -1.4112  0.6649  0.0768
 2507Sol     MW12980   1.288   1.389   3.716 -0.3782 -0.1234 -0.2136
 2508Sol     OW12981   1.284   0.047   8.492 -0.1073  0.1006 -0.2658
 2508Sol     HW12982   1.375   0.054   8.523 -0.0599  0.6533 -0.5135
 2508Sol     HW12983   1.250  -0.031   8.534  0.1863  0.4300  0.5888
 2508Sol     MW12984   1.289   0.041   8.498 -0.2796  0.7743  0.2491
 2509Sol     OW12985   1.556   1.905   6.660 -0.0257  0.1756  0.3822
 2509Sol     HW12986   1.578   1.863   6.743  0.3569  0.6946  0.5425
 2509Sol     HW12987   1.508   1.984   6.684  1.3479  1.0865  0.1692
 2509Sol     MW12988   1.554   1.908   6.669  0.1760 -0.3720  0.1585
 2510Sol     OW12989   0.685   0.473   7.335 -0.0040  0.0405  0.0569
 2510Sol     HW12990   0.620   0.479   7.405 -0.0237  0.5508 -0.0056
 2510Sol     HW12991   0.759   0.425   7.374  0.5542  1.5295  0.8512
 2510Sol     MW12992   0.686   0.469   7.345 -0.3788  0.5894  0.1071
 2511Sol     OW12993   1.236   3.031   2.994 -0.1857  0.6961  0.0117
 2511Sol     HW12994   1.199   3.023   2.906  0.0813 -0.0976 -0.0415
 2511Sol     HW12995   1.227   3.123   3.017  0.7341  1.1182 -1.2952
 2511Sol     MW12996   1.232   3.038   2.988 -0.2120 -0.1856 -0.6196
 2512Sol     OW12997   1.561   2.474   9.777  0.0722 -0.4084  0.0222
 2512Sol     HW12998   1.618   2.414   9.728  1.1639 -0.3273  1.1734
 2512Sol     HW12999   1.615   2.505   9.849 -1.1340  0.4183  0.5875
 2512Sol     MW13000   1.571   2.471   9.779 -0.4206 -0.3024 -0.1114
 2513Sol     OW13001   2.935   3.094   2.993  0.6600  0.3173  0.1365
 2513Sol     HW13002   2.890   3.178   2.989  0.7719  0.4967  2.1286
 2513Sol     HW13003   3.027   3.117   3.009  0.7196 -0.1899  0.5222
 2513Sol     MW13004   2.939   3.103   2.994  0.0044 -0.1560  0.7572
 2514Sol     OW13005   0.292   0.527   3.192  0.0538  0.7017 -0.0304
 2514Sol     HW13006   0.206   0.521   3.233  0.7443  1.3048  1.5233
 2514Sol     HW13007   0.274   0.521   3.098 -1.4164 -2.1594  0.3757
 2514Sol     MW13008   0.283   0.526   3.187 -0.0822  0.4511  0.7683
 2515Sol     OW13009   2.890   1.962   6.638 -0.7540  0.2886 -0.1540
 2515Sol     HW13010   2.891   1.990   6.730  1.7340  1.8103 -0.5969
 2515Sol     HW13011   2.901   1.867   6.643 -3.5414 -0.0295  1.1710
 2515Sol     MW13012   2.891   1.956   6.647  0.0123  0.0776  0.0834
 2516Sol     OW13013   1.537   2.219   3.472 -0.2094  0.5543  0.5503
 2516Sol     HW13014   1.483   2.261   3.539 -1.3733 -1.2226  0.7591
 2516Sol     HW13015   1.474   2.185   3.409  0.8824  2.9294 -1.9420
 2516Sol     MW13016   1.526   2.220   3.472  0.0218 -0.6617 -0.5044
 2517Sol     OW13017   0.484   3.290   2.609  0.5966 -0.3146  0.0011
 2517Sol     HW13018   0.489   3.234   2.687  1.2226  0.4279  0.5046
 2517Sol     HW13019   0.547   3.360   2.626 -2.2814  2.2232  0.7038
 2517Sol     MW13020   0.490   3.291   2.617 -0.3677 -0.1917 -0.1886
 2518Sol     OW13021   1.709   1.840   3.199  0.4375 -0.5593 -0.9878
 2518Sol     HW13022   1.713   1.888   3.281 -0.2420 -0.3707 -1.0620
 2518Sol     HW13023   1.633   1.782   3.208 -0.0403 -0.0556 -1.7378
 2518Sol     MW13024   1.702   1.839   3.207  0.4426 -0.0093  0.5109
 2519Sol     OW13025   1.600   0.178   6.903  1.3785  0.0415 -0.3734
 2519Sol     HW13026   1.597   0.271   6.926 -2.4144  0.0806 -0.6852
 2519Sol     HW13027   1.626   0.135   6.984  3.1789  1.3377 -0.2238
 2519Sol     MW13028   1.602   0.183   6.912  0.0667  0.5715  0.3239
 2520Sol     OW13029   2.966   1.366   4.797  0.5538 -0.2237 -0.4496
 2520Sol     HW13030   3.012   1.386   4.715  3.5199  0.5923  1.3490
 2520Sol     HW13031   2.962   1.450   4.843  0.9968 -1.1143  1.2441
 2520Sol     MW13032   2.970   1.376   4.793  0.1944 -0.0188 -0.0766
 2521Sol     OW13033   1.451   2.166   6.683  0.2698  0.2679  0.8778
 2521Sol     HW13034   1.403   2.206   6.756 -0.0347  0.0070  0.8206
 2521Sol     HW13035   1.516   2.232   6.658 -2.1463  2.0040 -1.1410
 2521Sol     MW13036   1.453   2.176   6.687  0.2796  0.0341 -0.3893
 2522Sol     OW13037   0.942   1.162   6.251 -0.4351  0.0061  0.1753
 2522Sol     HW13038   0.909   1.230   6.310  0.5899 -0.0722  0.8637
 2522Sol     HW13039   1.031   1.191   6.230  0.1576 -1.3178  0.8047
 2522Sol     MW13040   0.947   1.171   6.254  0.1683 -1.2256 -0.1320
 2523Sol     OW13041   2.754   0.653   5.798  0.1492  0.0276 -0.1417
 2523Sol     HW13042   2.807   0.590   5.847  2.1170 -1.1931 -3.6165
 2523Sol     HW13043   2.801   0.736   5.808  1.4667 -0.5610 -1.2752
 2523Sol     MW13044   2.763   0.655   5.803  0.6233  0.4769 -0.2996
 2524Sol     OW13045   2.827   1.380   3.943  0.0222  0.3879  0.1173
 2524Sol     HW13046   2.752   1.413   3.993 -0.3505  0.1857 -0.3068
 2524Sol     HW13047   2.897   1.374   4.007 -1.1720 -2.4293  1.2093
 2524Sol     MW13048   2.826   1.383   3.953 -0.2445  0.1984 -0.0778
 2525Sol     OW13049   0.018   3.129   8.017 -0.3193 -0.0756  0.0678
 2525Sol     HW13050  -0.066   3.164   8.047 -1.2011 -2.6980  0.7158
 2525Sol     HW13051   0.050   3.195   7.955 -2.8556  0.9585 -0.1989
 2525Sol     MW13052   0.013   3.138   8.014 -0.1411 -0.3386  0.6555
 2526Sol     OW13053   1.281   3.304   8.913 -0.3202  0.1536  0.2144
 2526Sol     HW13054   1.321   3.386   8.942 -0.8932  0.7846 -0.7204
 2526Sol     HW13055   1.350   3.239   8.920  0.8235  1.1817 -1.1988
 2526Sol     MW13056   1.291   3.305   8.916  0.1704  0.5174  0.5162
 2527Sol     OW13057   1.115   0.802   3.967 -0.7188  0.1467  0.1362
 2527Sol     HW13058   1.068   0.767   3.892 -3.3432  1.2428  1.1970
 2527Sol     HW13059   1.060   0.873   3.999  1.5733  1.3313  1.5994
 2527Sol     MW13060   1.106   0.805   3.963  0.9702  0.0786 -0.4110
 2528Sol     OW13061   1.952   3.203   3.203 -0.2539 -0.0239  0.3165
 2528Sol     HW13062   1.897   3.257   3.146  0.3229 -0.6232 -0.8336
 2528Sol     HW13063   1.960   3.120   3.156 -1.3956 -1.2516  2.2136
 2528Sol     MW13064   1.948   3.200   3.194  0.2343 -0.9659  0.3506
 2529Sol     OW13065   1.287   1.422   8.093  0.0729  0.3477 -0.1105
 2529Sol     HW13066   1.366   1.425   8.040  1.6280 -2.7128  1.8855
 2529Sol     HW13067   1.302   1.487   8.163  1.0263 -0.5232  0.5018
 2529Sol     MW13068   1.295   1.428   8.095  0.5972  1.0750 -0.6766
 2530Sol     OW13069   0.138   2.607   5.710  0.5769  0.0113  0.1874
 2530Sol     HW13070   0.194   2.681   5.687 -0.7969  1.3372  0.9895
 2530Sol     HW13071   0.108   2.573   5.625 -0.5637  1.8073 -0.1704
 2530Sol     MW13072   0.140   2.610   5.700  0.7177 -0.4327 -0.3516
 2531Sol     OW13073   1.249   0.925   7.782 -0.3255 -0.0671 -0.2022
 2531Sol     HW13074   1.187   0.994   7.805  0.1339 -0.2682  1.7835
 2531Sol     HW13075   1.332   0.953   7.822  0.3128 -0.8646 -0.9405
 2531Sol     MW13076   1.251   0.934   7.788 -0.0298 -0.0152 -1.1961
 2532Sol     OW13077   2.240   1.877   1.761  0.4108 -0.4760  0.7349
 2532Sol     HW13078   2.172   1.937   1.732 -0.2649 -1.5973 -0.0576
 2532Sol     HW13079   2.256   1.901   1.852 -2.2812 -1.2932  1.4817
 2532Sol     MW13080   2.235   1.884   1.766  0.0720 -0.2405 -0.8326
 2533Sol     OW13081   0.193   1.951   1.724  0.1523 -0.2025  0.2369
 2533Sol     HW13082   0.202   1.859   1.747 -0.5213 -0.2452  0.3453
 2533Sol     HW13083   0.196   1.997   1.808  0.1159 -0.1596  0.2147
 2533Sol     MW13084   0.194   1.947   1.734  0.1270  0.2892 -0.8583
 2534Sol     OW13085   0.704   0.900   1.949  0.2955 -0.5261 -0.4866
 2534Sol     HW13086   0.735   0.987   1.975 -0.4351  0.1156 -1.7353
 2534Sol     HW13087   0.609   0.905   1.957  0.1239 -0.6468 -2.2566
 2534Sol     MW13088   0.698   0.908   1.952  0.0711  1.0107  0.3652
 2535Sol     OW13089   2.418   1.001   1.964  0.5888 -0.7197  0.0645
 2535Sol     HW13090   2.471   1.037   2.035  1.1380  0.6581 -1.0278
 2535Sol     HW13091   2.365   1.074   1.933 -0.3321 -1.5367 -0.3350
 2535Sol     MW13092   2.418   1.011   1.967 -0.0659  0.4432 -0.8525
 2536Sol     OW13093   0.500   3.272   5.542  0.0289  0.2096 -0.2780
 2536Sol     HW13094   0.542   3.323   5.474 -0.8831 -0.5314 -1.4190
 2536Sol     HW13095   0.407   3.289   5.531 -0.1247  0.1230  0.8238
 2536Sol     MW13096   0.496   3.278   5.535 -0.4962  0.0731  0.4778
 2537Sol     OW13097   1.007   0.728   1.381 -0.3209  0.2379 -0.0475
 2537Sol     HW13098   0.926   0.764   1.418 -0.4279  0.7163 -0.7546
 2537Sol     HW13099   1.049   0.802   1.339  0.6176  0.0419  0.5338
 2537Sol     MW13100   1.003   0.738   1.381 -0.3699  0.9938  0.5272
 2538Sol     OW13101   1.324   3.274   6.165  0.3798  0.4018 -0.1671
 2538Sol     HW13102   1.419   3.262   6.170  0.4016  0.6413  0.0243
 2538Sol     HW13103   1.293   3.204   6.108  0.1100 -2.5005  3.3103
 2538Sol     MW13104   1.330   3.267   6.161  0.6746 -0.3128  0.2399
 2539Sol     OW13105   2.716   3.332   4.210 -0.0095 -0.3854  0.2501
 2539Sol     HW13106   2.809   3.309   4.216 -0.1646 -0.8429  0.9500
 2539Sol     HW13107   2.690   3.351   4.300 -0.3805  0.6111 -0.0562
 2539Sol     MW13108   2.722   3.332   4.219 -0.4685 -0.1858  0.3170
 2540Sol     OW13109   2.131   0.084   5.953  0.0409 -0.1440 -0.4340
 2540Sol     HW13110   2.173  -0.002   5.955  2.5602  1.0561  1.5654
 2540Sol     HW13111   2.201   0.144   5.930 -1.9135  1.3027 -2.7990
 2540Sol     MW13112   2.141   0.081   5.952  0.0120  0.7961 -0.1425
 2541Sol     OW13113   0.622   2.391   4.934  0.0724 -0.5978  0.1518
 2541Sol     HW13114   0.680   2.342   4.876 -1.2365 -2.0034  0.0182
 2541Sol     HW13115   0.635   2.351   5.020  0.7550  0.3816  0.5163
 2541Sol     MW13116   0.629   2.383   4.937 -0.1659 -0.8097  0.3071
 2542Sol     OW13117   1.334   1.816   8.517  0.0527 -0.0745 -0.3563
 2542Sol     HW13118   1.326   1.727   8.485 -2.1090  0.4546 -1.3447
 2542Sol     HW13119   1.321   1.809   8.612 -1.7593 -0.6172 -0.6281
 2542Sol     MW13120   1.332   1.808   8.523 -0.4041 -0.1674 -0.1081
 2543Sol     OW13121   1.261   2.286   9.601  0.3314 -0.6099  0.3886
 2543Sol     HW13122   1.298   2.237   9.675 -1.0999  0.2918  1.7524
 2543Sol     HW13123   1.248   2.374   9.635 -3.2066 -0.9306  0.0731
 2543Sol     MW13124   1.263   2.289   9.611  0.0776 -0.7221  0.9176
 2544Sol     OW13125   1.546   1.763   2.563  0.0352  0.1487 -0.5666
 2544Sol     HW13126   1.604   1.718   2.624  0.7472  1.2504 -0.4082
 2544Sol     HW13127   1.503   1.693   2.514  0.6685 -0.7029  0.0877
 2544Sol     MW13128   1.547   1.753   2.564 -0.4513 -1.0292 -0.9500
 2545Sol     OW13129   1.177   3.038   8.032 -0.2716 -0.0528  0.4432
 2545Sol     HW13130   1.240   3.054   7.962 -0.3616  0.8235  0.5613
 2545Sol     HW13131   1.230   3.008   8.106 -0.2653 -1.8922 -0.2778
 2545Sol     MW13132   1.187   3.036   8.032  0.0432  0.0466 -0.5102
 2546Sol     OW13133   1.959   0.273   2.483  0.5801 -0.8334 -0.7083
 2546Sol     HW13134   2.052   0.280   2.461  1.0334 -3.0257  0.4350
 2546Sol     HW13135   1.944   0.343   2.546  1.2548  0.0459 -1.5052
 2546Sol     MW13136   1.966   0.280   2.486 -0.8494 -0.4587 -0.2674
 2547Sol     OW13137   2.777   2.508   2.321  0.4253  0.3701 -0.3088
 2547Sol     HW13138   2.734   2.438   2.370 -2.8710  1.7934 -1.0456
 2547Sol     HW13139   2.775   2.583   2.381 -0.6646  1.2154 -1.3927
 2547Sol     MW13140   2.773   2.508   2.331 -0.4255  0.2154  0.8029
 2548Sol     OW13141   0.558   1.085   4.966  0.3147 -0.4224 -0.6038
 2548Sol     HW13142   0.564   1.136   5.047  1.4402  0.4006 -1.2082
 2548Sol     HW13143   0.467   1.053   4.965 -0.2033  0.9895  0.1181
 2548Sol     MW13144   0.550   1.086   4.973 -0.0029  0.5287  0.1182
 2549Sol     OW13145   1.715   3.142   2.006  0.3384 -0.5456 -0.7209
 2549Sol     HW13146   1.654   3.072   2.028  2.3820 -2.3226 -0.4396
 2549Sol     HW13147   1.693   3.213   2.066 -2.0201 -0.7932 -1.2629
 2549Sol     MW13148   1.708   3.142   2.014  0.1002 -0.6353 -0.2479
 2550Sol     OW13149   2.826   0.160   6.130  0.1337 -0.5155 -0.0307
 2550Sol     HW13150   2.770   0.151   6.054  0.4973 -0.1375 -0.3456
 2550Sol     HW13151   2.783   0.226   6.185 -1.4006 -2.5323  1.2532
 2550Sol     MW13152   2.818   0.165   6.128  0.0347 -0.3685  0.0278
 2551Sol     OW13153   2.178   3.312   1.908 -0.3883  0.2487 -0.7883
 2551Sol     HW13154   2.273   3.306   1.898 -0.1281  0.4480  1.3797
 2551Sol     HW13155   2.157   3.403   1.887  0.3449  1.0780  1.8941
 2551Sol     MW13156   2.184   3.319   1.905 -0.2547  0.3396  0.0622
 2552Sol     OW13157   2.958   0.279   6.446  0.4502  0.1932  0.2732
 2552Sol     HW13158   2.942   0.190   6.417 -0.7220  0.5895 -0.3163
 2552Sol     HW13159   3.030   0.310   6.391  1.1329 -0.5133  0.7549
 2552Sol     MW13160   2.963   0.274   6.439 -0.5018  0.1096  0.0022
 2553Sol     OW13161   0.857   2.970   9.002 -0.0998  0.7009  0.2842
 2553Sol     HW13162   0.884   3.040   8.943  2.0902 -1.0887 -0.9319
 2553Sol     HW13163   0.793   3.010   9.060  1.2611  3.7436 -0.2425
 2553Sol     MW13164   0.854   2.980   9.002 -0.6091 -0.0410 -0.0930
 2554Sol     OW13165   0.932   3.019   3.181  0.3890  0.5459  0.1968
 2554Sol     HW13166   0.965   3.068   3.255 -0.5364 -0.5616  1.3686
 2554Sol     HW13167   0.993   2.946   3.171 -1.2129 -1.0904  1.9065
 2554Sol     MW13168   0.940   3.017   3.186  0.4343  0.1511 -0.0159
 2555Sol     OW13169   1.170   2.197   7.643  0.2935 -0.4288 -0.1509
 2555Sol     HW13170   1.163   2.272   7.701  0.4012 -1.4323  1.1761
 2555Sol     HW13171   1.256   2.160   7.661 -0.1147 -1.3957 -0.1256
 2555Sol     MW13172   1.177   2.200   7.650  0.5718 -0.2891 -0.1162
 2556Sol     OW13173   1.639   2.726   8.522  0.1709  0.4383  0.6374
 2556Sol     HW13174   1.699   2.737   8.595 -0.3339  2.2148  0.8081
 2556Sol     HW13175   1.694   2.698   8.449  0.7306 -0.9939  1.5862
 2556Sol     MW13176   1.649   2.724   8.522  0.3890 -0.3675 -0.4324
 2557Sol     OW13177   1.421   1.300   3.250  0.3827  0.2111  0.7140
 2557Sol     HW13178   1.470   1.289   3.169  1.7907 -0.0120  1.5620
 2557Sol     HW13179   1.329   1.299   3.224  0.7712 -1.5063 -0.6776
 2557Sol     MW13180   1.418   1.299   3.241 -0.1573  0.0351 -0.3350
 2558Sol     OW13181   0.575   2.720   1.604 -0.0781 -0.2271 -0.1843
 2558Sol     HW13182   0.614   2.711   1.691  1.4260 -0.4223 -0.8602
 2558Sol     HW13183   0.487   2.684   1.613  0.2142 -0.6377  1.1557
 2558Sol     MW13184   0.571   2.716   1.612 -0.5463 -0.0031 -0.3232
 2559Sol     OW13185   0.980   0.105   3.492 -0.2216 -0.6559 -0.4076
 2559Sol     HW13186   1.070   0.077   3.509  0.2832 -0.1728 -2.1224
 2559Sol     HW13187   0.928   0.060   3.558  1.0310 -2.6791 -0.7371
 2559Sol     MW13188   0.983   0.098   3.499  0.2137  0.2712 -0.7186
 2560Sol     OW13189   2.015   0.824   4.252 -0.6618 -0.0271  0.1080
 2560Sol     HW13190   2.098   0.777   4.258 -0.6504  0.1707  1.8267
 2560Sol     HW13191   2.032   0.894   4.188  0.5580  0.1209  0.5695
 2560Sol     MW13192   2.024   0.826   4.247 -0.3474 -0.4417 -0.3336
 2561Sol     OW13193   1.007   2.558   5.258  0.6737 -0.2177 -0.4891
 2561Sol     HW13194   0.976   2.599   5.177 -0.9604 -0.5839 -0.0761
 2561Sol     HW13195   0.927   2.535   5.305  1.5885 -1.4268  0.5231
 2561Sol     MW13196   0.997   2.559   5.255  0.2324 -0.3233 -0.0294
 2562Sol     OW13197   0.070   1.510   8.175 -0.3489 -0.4331  0.2498
 2562Sol     HW13198   0.042   1.581   8.117  0.5313  0.3287  0.7480
 2562Sol     HW13199  -0.011   1.477   8.215 -0.7102  0.6000  0.3630
 2562Sol     MW13200   0.060   1.513   8.174 -0.3964  0.0188  0.2131
 2563Sol     OW13201   0.133   2.328   4.678 -0.6682 -0.4395 -0.0933
 2563Sol     HW13202   0.096   2.260   4.623 -1.6119 -0.2607  0.3157
 2563Sol     HW13203   0.212   2.288   4.716 -0.7911 -1.0291 -0.4654
 2563Sol     MW13204   0.137   2.318   4.677 -0.0706 -0.1014  0.1175
 2564Sol     OW13205   1.986   0.847   4.545  0.7694  0.1215 -0.0923
 2564Sol     HW13206   1.957   0.936   4.565  0.4464 -0.1659  0.7314
 2564Sol     HW13207   1.965   0.835   4.453 -2.5790 -0.3998  0.6900
 2564Sol     MW13208   1.982   0.854   4.539  0.2328  0.3432  0.4570
 2565Sol     OW13209   1.679   1.534   6.421 -0.7612 -1.0193 -0.3004
 2565Sol     HW13210   1.735   1.579   6.358 -1.1029  1.0316  0.8099
 2565Sol     HW13211   1.604   1.593   6.432 -1.6047 -2.2462  0.6096
 2565Sol     MW13212   1.677   1.544   6.416 -0.3478 -0.3653 -0.2592
 2566Sol     OW13213   0.613   1.265   1.928 -0.0151  0.0043  0.5084
 2566Sol     HW13214   0.647   1.347   1.894 -0.0815  0.5284  1.6843
 2566Sol     HW13215   0.602   1.210   1.851  0.5986  0.8868 -0.2193
 2566Sol     MW13216   0.615   1.267   1.918  0.2467 -0.1470 -0.9388
 2567Sol     OW13217   2.594   2.445   7.018  0.1750 -0.2311  0.0094
 2567Sol     HW13218   2.671   2.403   6.978  1.3927  0.6102  1.4130
 2567Sol     HW13219   2.602   2.425   7.111 -1.8259 -0.9042  0.0654
 2567Sol     MW13220   2.602   2.439   7.023 -0.1982  0.0900 -0.3737
 2568Sol     OW13221   3.099   1.787   9.442  0.0051  0.4760 -0.3647
 2568Sol     HW13222   3.087   1.857   9.378  0.1503  1.4760  0.6582
 2568Sol     HW13223   3.013   1.747   9.452 -0.5287  1.7696  0.4186
 2568Sol     MW13224   3.090   1.790   9.437 -0.0715 -0.5477 -0.1434
 2569Sol     OW13225   1.975   2.564   2.945  0.2542 -0.3290 -0.3132
 2569Sol     HW13226   2.002   2.533   3.032 -1.1958 -1.3074 -0.1770
 2569Sol     HW13227   1.911   2.633   2.964  2.5478  1.9668 -0.6237
 2569Sol     MW13228   1.971   2.567   2.955  0.9766  0.1334  0.3410
 2570Sol     OW13229   0.537   3.233   6.017  0.4408  0.1978 -0.3163
 2570Sol     HW13230   0.540   3.164   5.951 -3.1785 -1.2674  0.9248
 2570Sol     HW13231   0.516   3.312   5.967  0.6819 -0.3243 -1.2659
 2570Sol     MW13232   0.535   3.234   6.006 -0.3308 -0.6057  0.1212
 2571Sol     OW13233   2.967   0.830   2.535  0.2300 -0.1283 -0.4261
 2571Sol     HW13234   2.977   0.863   2.624  1.5638 -0.5211 -0.4194
 2571Sol     HW13235   2.916   0.749   2.545  1.8356 -1.0935  0.1813
 2571Sol     MW13236   2.963   0.826   2.544 -0.1943  0.3799  0.2247
 2572Sol     OW13237   2.266   0.229   2.349 -0.0249 -0.4262 -0.4405
 2572Sol     HW13238   2.257   0.272   2.264 -1.0377  0.2132 -0.0273
 2572Sol     HW13239   2.244   0.137   2.333  0.0206 -0.3532 -0.9164
 2572Sol     MW13240   2.263   0.225   2.340 -0.4277  0.3064 -0.5812
 2573Sol     OW13241   0.814   2.760   1.482 -0.5303  0.0672 -0.2640
 2573Sol     HW13242   0.738   2.730   1.533 -0.4058  0.3692  0.1017
 2573Sol     HW13243   0.888   2.748   1.540 -0.6307  2.2991  0.3857
 2573Sol     MW13244   0.814   2.756   1.492 -0.4078  0.3802  0.4230
 2574Sol     OW13245   1.295   0.030   3.457 -0.2652 -0.0011  0.0045
 2574Sol     HW13246   1.378   0.068   3.428  0.2035  1.1837  2.7144
 2574Sol     HW13247   1.310  -0.065   3.456  1.2701  0.2214  0.8763
 2574Sol     MW13248   1.304   0.025   3.454  0.2081  0.4214 -1.1563
 2575Sol     OW13249   1.644   0.651   2.447 -0.1187  0.2639 -0.8185
 2575Sol     HW13250   1.641   0.559   2.472 -1.6659  0.4990 -0.1059
 2575Sol     HW13251   1.710   0.689   2.506 -0.6511 -0.0584 -0.0041
 2575Sol     MW13252   1.650   0.646   2.455 -0.2819 -0.2912  0.9497
 2576Sol     OW13253   2.677   1.498   8.817  0.5092 -0.3206  0.5538
 2576Sol     HW13254   2.756   1.543   8.787  0.7806 -0.9319  0.3522
 2576Sol     HW13255   2.631   1.474   8.736 -0.1623  0.5243  0.6790
 2576Sol     MW13256   2.680   1.500   8.807 -0.0632  0.2740 -0.0937
 2577Sol     OW13257   2.502   1.119   8.666 -0.3823  0.1180 -0.2385
 2577Sol     HW13258   2.510   1.132   8.761  0.8578 -1.4632 -0.0948
 2577Sol     HW13259   2.552   1.039   8.649 -0.7180  0.3057 -2.2139
 2577Sol     MW13260   2.507   1.113   8.673  0.5018 -0.3073  0.5717
 2578Sol     OW13261   2.194   3.149   9.062 -0.6365 -0.0537  0.2102
 2578Sol     HW13262   2.183   3.238   9.094 -2.1247 -0.6385  1.3569
 2578Sol     HW13263   2.229   3.159   8.974  1.6244  1.6148  1.2513
 2578Sol     MW13264   2.196   3.158   9.057 -0.4009 -0.8610 -0.7060
 2579Sol     OW13265   0.018   2.160   8.964 -0.3771 -0.4611 -0.6650
 2579Sol     HW13266   0.103   2.203   8.962 -1.3652  1.5847  0.0424
 2579Sol     HW13267   0.034   2.074   8.923  1.8784  0.0928 -1.0420
 2579Sol     MW13268   0.027   2.156   8.960 -0.6789  0.0621 -0.0892
 2580Sol     OW13269   2.520   0.055   7.958  0.0705 -0.0035  0.2613
 2580Sol     HW13270   2.500   0.072   8.050  1.0588  1.2995  0.2409
 2580Sol     HW13271   2.503   0.137   7.913 -1.0861 -0.8323 -0.8496
 2580Sol     MW13272   2.517   0.064   7.962 -0.4574  0.5947 -0.7194
 2581Sol     OW13273   0.717   2.885   6.731  0.4067 -0.4714  0.4515
 2581Sol     HW13274   0.641   2.937   6.756  0.1766 -0.7168  0.2631
 2581Sol     HW13275   0.720   2.890   6.635  1.1680  0.2989  0.5080
 2581Sol     MW13276   0.710   2.890   6.724 -0.0226  0.6049 -0.4327
 2582Sol     OW13277   1.714   3.419   2.223  0.6474 -0.0535 -0.0487
 2582Sol     HW13278   1.789   3.440   2.168  1.4504 -0.2118  0.9776
 2582Sol     HW13279   1.641   3.468   2.184  1.2988  0.1773 -0.9856
 2582Sol     MW13280   1.714   3.425   2.215 -0.3243  0.1636 -0.3255
 2583Sol     OW13281   1.074   2.422   4.848  0.0171 -0.0442 -0.0538
 2583Sol     HW13282   1.123   2.386   4.774  0.0173 -0.5963  0.2100
 2583Sol     HW13283   1.095   2.364   4.921 -3.1766 -2.0024 -0.5540
 2583Sol     MW13284   1.080   2.413   4.848  0.4990 -0.6343  0.0410
 2584Sol     OW13285   1.894   3.448   7.889  0.3233 -0.6594  0.4421
 2584Sol     HW13286   1.979   3.410   7.908 -0.0332 -1.9603 -0.4784
 2584Sol     HW13287   1.861   3.396   7.815 -1.0446  0.1468  0.4771
 2584Sol     MW13288   1.899   3.440   7.884 -0.6947  0.0827 -0.1147
 2585Sol     OW13289   0.371   1.706   8.765  0.0281  0.1668 -0.2219
 2585Sol     HW13290   0.396   1.798   8.757 -1.3105  0.6967  1.4321
 2585Sol     HW13291   0.455   1.659   8.773  0.7018  1.2758 -0.7062
 2585Sol     MW13292   0.381   1.710   8.765 -0.1384 -0.6103  0.7706
 2586Sol     OW13293   0.482   0.905   3.906 -0.5083 -0.9278  0.3764
 2586Sol     HW13294   0.480   0.845   3.831  1.7065  0.6732 -1.0073
 2586Sol     HW13295   0.416   0.971   3.886 -0.4306 -0.9058  0.1960
 2586Sol     MW13296   0.476   0.905   3.898 -0.2626 -0.0893  0.7944
 2587Sol     OW13297   2.195   0.905   3.012  0.3589  0.0593  0.4804
 2587Sol     HW13298   2.130   0.835   3.013 -0.2539  0.6207  0.1082
 2587Sol     HW13299   2.201   0.932   2.921 -1.1235  2.0616  0.9433
 2587Sol     MW13300   2.190   0.901   3.004 -0.0175 -0.7744 -0.1938
 2588Sol     OW13301   2.204   3.232   6.795  0.3003  0.1029  0.0060
 2588Sol     HW13302   2.120   3.255   6.834 -0.7733 -3.9442  0.2846
 2588Sol     HW13303   2.195   3.257   6.703 -1.0613  0.0772  0.1210
 2588Sol     MW13304   2.196   3.236   6.790  0.1264 -0.2039  0.0680
 2589Sol     OW13305   0.161   1.599   2.512  0.9205 -0.7466 -0.3954
 2589Sol     HW13306   0.094   1.644   2.460  0.2360 -0.8961  0.3287
 2589Sol     HW13307   0.210   1.547   2.449  1.3875  0.6060 -1.1688
 2589Sol     MW13308   0.159   1.599   2.502 -0.2542  0.1201  0.0051
 2590Sol     OW13309   2.673   1.328   9.377  0.0635 -0.2562 -0.1934
 2590Sol     HW13310   2.632   1.401   9.330  1.7616  0.2976 -0.8567
 2590Sol     HW13311   2.603   1.265   9.390 -1.1315  0.9362 -0.7651
 2590Sol     MW13312   2.663   1.329   9.374  0.1753 -0.2930  0.5461
 2591Sol     OW13313   1.927   0.207   7.457  0.2167  0.0879  0.3351
 2591Sol     HW13314   1.889   0.213   7.545  0.8381  0.2474  0.5932
 2591Sol     HW13315   1.882   0.276   7.408  2.5208  2.5356  1.5207
 2591Sol     MW13316   1.919   0.214   7.461  0.4148 -0.0492  0.0317
 2592Sol     OW13317   3.088   2.380   6.460 -0.0493 -0.6129  0.3962
 2592Sol     HW13318   3.158   2.443   6.479 -0.1323  0.0329 -1.4008
 2592Sol     HW13319   3.037   2.376   6.541  2.0279 -1.0535  1.7246
 2592Sol     MW13320   3.090   2.385   6.469 -0.5538 -0.2253  0.3079
 2593Sol     OW13321   1.521   0.178   2.662  0.7109  0.1717 -0.1265
 2593Sol     HW13322   1.570   0.097   2.670 -0.7316 -0.7042  0.0799
 2593Sol     HW13323   1.527   0.219   2.748 -0.0049 -0.5796  0.2898
 2593Sol     MW13324   1.526   0.175   2.670 -0.5102  0.1093 -0.0462
 2594Sol     OW13325   0.193   2.599   5.029  0.3216  0.1078 -0.0540
 2594Sol     HW13326   0.126   2.617   4.963 -0.6727 -0.9798  0.6292
 2594Sol     HW13327   0.226   2.512   5.006  1.1406  0.4170 -0.0744
 2594Sol     MW13328   0.190   2.593   5.021 -0.5217  0.0365  0.3177
 2595Sol     OW13329   2.789   1.715   2.249  0.4534 -0.5250  0.4003
 2595Sol     HW13330   2.699   1.742   2.233  0.0520 -2.4986 -0.8712
 2595Sol     HW13331   2.815   1.762   2.329 -2.0808 -0.7880  1.4195
 2595Sol     MW13332   2.783   1.721   2.255  0.0369  0.4601 -0.2377
 2596Sol     OW13333   2.206   0.938   2.755  0.5009 -0.3264  0.0541
 2596Sol     HW13334   2.113   0.956   2.768  0.2325 -1.5291 -0.1466
 2596Sol     HW13335   2.211   0.842   2.750  1.5781 -0.2067 -1.2046
 2596Sol     MW13336   2.198   0.931   2.756  0.4456 -0.2137  0.4070
 2597Sol     OW13337   0.515   0.636   3.304  0.1856  0.3926  0.0011
 2597Sol     HW13338   0.439   0.609   3.252  0.2894  0.3335 -0.1193
 2597Sol     HW13339   0.521   0.571   3.373 -1.1370  1.5467  1.2538
 2597Sol     MW13340   0.509   0.628   3.306 -0.2497  0.9092  0.3695
 2598Sol     OW13341   1.580   0.852   2.806 -0.0456 -0.0040 -0.2924
 2598Sol     HW13342   1.535   0.910   2.744  0.8387  0.1009 -0.8547
 2598Sol     HW13343   1.659   0.824   2.759  0.1325 -0.7175  0.4225
 2598Sol     MW13344   1.583   0.855   2.796 -1.5632  0.0534 -0.1189
 2599Sol     OW13345   2.965   0.994   8.139  0.1800  0.0955 -0.3553
 2599Sol     HW13346   2.934   1.041   8.062  0.0749  1.3665  0.4433
 2599Sol     HW13347   2.915   0.912   8.139  0.4429 -0.0719 -1.8258
 2599Sol     MW13348   2.958   0.991   8.132 -0.5323  0.3552  0.1026
 2600Sol     OW13349   1.288   2.705   9.931 -0.4779 -0.1094  1.0452
 2600Sol     HW13350   1.349   2.717  10.004 -0.5389  2.0539  0.7701
 2600Sol     HW13351   1.201   2.717   9.970 -0.5342  0.5474  0.7164
 2600Sol     MW13352   1.286   2.707   9.941 -0.0236  0.1016  0.3920
 2601Sol     OW13353   0.228   0.304   8.922  0.0069 -0.2278  0.3491
 2601Sol     HW13354   0.307   0.270   8.962  0.5373 -0.1904 -0.6461
 2601Sol     HW13355   0.208   0.383   8.972  0.0299 -0.7796  1.2345
 2601Sol     MW13356   0.233   0.308   8.930  0.3475  0.2002 -0.2082
 2602Sol     OW13357   2.818   2.600   3.126 -0.2778 -0.7119  0.1855
 2602Sol     HW13358   2.723   2.600   3.136 -0.5286 -0.2928 -1.8713
 2602Sol     HW13359   2.832   2.603   3.031  1.7862 -1.8219  0.4202
 2602Sol     MW13360   2.811   2.600   3.118 -0.3253  0.0067 -0.3952
 2603Sol     OW13361   0.911   3.343   6.300  0.1363  0.4987 -0.2888
 2603Sol     HW13362   0.846   3.360   6.368  0.0283  0.6313 -0.4273
 2603Sol     HW13363   0.863   3.297   6.231  0.6417 -1.3586  0.5472
 2603Sol     MW13364   0.901   3.340   6.300 -0.1965  0.6549 -0.3686
 2604Sol     OW13365   2.294   2.154   7.193 -0.4574 -0.3516  0.5330
 2604Sol     HW13366   2.230   2.086   7.213 -1.2330  0.8872  2.3393
 2604Sol     HW13367   2.352   2.156   7.269  0.9816 -0.5775 -0.5274
 2604Sol     MW13368   2.294   2.148   7.201  0.3167 -0.0647 -0.1631
 2605Sol     OW13369   0.070   2.520   2.620  0.0459 -0.5413  0.2219
 2605Sol     HW13370   0.091   2.609   2.591  2.3539 -1.4755 -1.0928
 2605Sol     HW13371   0.072   2.525   2.716  0.2442  0.8110  0.1565
 2605Sol     MW13372   0.072   2.528   2.626  0.1722  0.4630 -0.1276
 2606Sol     OW13373   1.824   3.153   1.425  0.5338 -0.5256 -0.6314
 2606Sol     HW13374   1.783   3.231   1.389  0.3491 -0.3192  0.0299
 2606Sol     HW13375   1.756   3.113   1.479  0.6150 -1.1633 -0.9966
 2606Sol     MW13376   1.814   3.156   1.427 -0.2555  0.4065 -0.4249
 2607Sol     OW13377   0.174   1.143   2.679 -0.3148  0.0857 -0.5426
 2607Sol     HW13378   0.193   1.110   2.767 -0.7690 -0.3483 -0.6062
 2607Sol     HW13379   0.259   1.140   2.634 -0.5012 -1.7819 -0.7995
 2607Sol     MW13380   0.184   1.140   2.683 -0.8389  0.4565  0.4222
 2608Sol     OW13381   2.133   2.328   3.833  0.3458  0.0971 -0.5920
 2608Sol     HW13382   2.155   2.243   3.795 -1.4497 -0.7562  0.2698
 2608Sol     HW13383   2.084   2.373   3.764  0.3277  0.0038 -0.6401
 2608Sol     MW13384   2.131   2.324   3.823  0.2804 -0.1511  0.2847
 2609Sol     OW13385   2.161   3.047   5.376  0.4778  0.2285  0.0323
 2609Sol     HW13386   2.146   3.077   5.465  0.7150  0.8479 -0.1354
 2609Sol     HW13387   2.084   2.994   5.355 -0.3754  1.4649  0.0100
 2609Sol     MW13388   2.153   3.045   5.382  0.6467  0.4552 -0.4997
 2610Sol     OW13389   2.386   3.371   3.282 -0.2885 -0.2121  0.1049
 2610Sol     HW13390   2.345   3.285   3.290  0.2696 -0.2687  2.8550
 2610Sol     HW13391   2.475   3.353   3.251 -1.0945 -0.3665 -2.2082
 2610Sol     MW13392   2.390   3.362   3.280  1.1869 -0.1632  0.3881
 2611Sol     OW13393   2.099   1.740   7.201 -0.6198  0.5943  0.1066
 2611Sol     HW13394   2.044   1.710   7.273 -1.1430  0.2148 -0.4482
 2611Sol     HW13395   2.073   1.685   7.126  1.0101 -0.0873  0.0222
 2611Sol     MW13396   2.092   1.732   7.200  0.9643 -0.1191 -0.2479
 2612Sol     OW13397   2.254   2.404   6.387  0.2614  0.5741 -0.0009
 2612Sol     HW13398   2.182   2.342   6.402 -0.0554  0.0837 -3.1099
 2612Sol     HW13399   2.325   2.350   6.352 -0.0388  1.9164 -2.8131
 2612Sol     MW13400   2.254   2.393   6.385 -0.2562  0.2985  0.0633
 2613Sol     OW13401   1.014   2.726   4.350 -0.0369  0.4311 -0.1854
 2613Sol     HW13402   0.937   2.671   4.367 -0.6867  0.8851 -1.6052
 2613Sol     HW13403   1.082   2.688   4.405 -1.3752  0.2616  1.4100
 2613Sol     MW13404   1.013   2.717   4.357  0.4804 -0.1056 -0.2095
 2614Sol     OW13405   1.668   0.789   9.197  0.0120  0.4993 -0.6377
 2614Sol     HW13406   1.700   0.732   9.265  1.0388  0.8862 -0.7895
 2614Sol     HW13407   1.602   0.737   9.151  0.5940 -0.3840 -0.4799
 2614Sol     MW13408   1.665   0.780   9.199 -0.0131  0.1154  0.5626
 2615Sol     OW13409   2.409   3.446   6.877 -0.2096 -0.3489  0.1595
 2615Sol     HW13410   2.325   3.436   6.831  0.2515 -0.6483 -0.6178
 2615Sol     HW13411   2.475   3.432   6.809  0.4679  0.7118  0.5905
 2615Sol     MW13412   2.407   3.444   6.866 -0.8465  0.7063 -0.1617
 2616Sol     OW13413   0.836   2.460   9.879  0.0284  0.2269 -0.0775
 2616Sol     HW13414   0.745   2.430   9.869  0.9411 -1.7520 -2.9559
 2616Sol     HW13415   0.885   2.381   9.902  1.2658  0.9720 -0.1035
 2616Sol     MW13416   0.832   2.450   9.880 -0.1294  0.0631 -0.3880
 2617Sol     OW13417   0.258   0.638   9.912 -0.5563 -0.5721 -0.0167
 2617Sol     HW13418   0.235   0.549   9.884 -0.2812 -0.3027 -1.1017
 2617Sol     HW13419   0.188   0.693   9.878  0.9197  0.0620 -2.1502
 2617Sol     MW13420   0.250   0.635   9.907 -0.4050  0.3037  0.1523
 2618Sol     OW13421   1.134   1.319   1.810 -0.3727  0.3952  0.0009
 2618Sol     HW13422   1.109   1.281   1.895  0.4501  0.5023  0.2961
 2618Sol     HW13423   1.191   1.392   1.833 -0.1468  0.4267 -0.6513
 2618Sol     MW13424   1.137   1.322   1.820  0.1740  0.1125 -0.8091
 2619Sol     OW13425   2.361   1.723   6.883  0.2460  0.1376 -0.1015
 2619Sol     HW13426   2.310   1.680   6.815  0.8026  0.1406 -0.5210
 2619Sol     HW13427   2.386   1.807   6.845  2.1258 -0.6176 -0.6056
 2619Sol     MW13428   2.359   1.727   6.874  0.3489 -0.3409  0.0931
 2620Sol     OW13429   2.592   2.185   5.744  0.0251 -0.1210  0.1911
 2620Sol     HW13430   2.593   2.257   5.681  1.5349  0.6018  0.9973
 2620Sol     HW13431   2.511   2.138   5.726  0.9632 -0.6060 -3.0170
 2620Sol     MW13432   2.585   2.187   5.737 -0.1782 -0.3668 -0.1378
 2621Sol     OW13433   1.250   0.819   3.165 -0.1523  0.0165  0.3306
 2621Sol     HW13434   1.321   0.793   3.106 -1.3003  0.7519 -1.4391
 2621Sol     HW13435   1.254   0.915   3.165 -1.5811  0.0927 -0.3810
 2621Sol     MW13436   1.257   0.825   3.160 -0.4291  0.3410  0.1572
 2622Sol     OW13437   2.831   2.030   5.058  0.1491  0.2180  0.0556
 2622Sol     HW13438   2.816   1.949   5.106  1.3580 -1.4052 -2.1538
 2622Sol     HW13439   2.907   2.070   5.101 -1.8976  1.4150  2.6200
 2622Sol     MW13440   2.837   2.026   5.066  0.1765 -0.3035  0.2318
 2623Sol     OW13441   2.925   0.810   9.534 -0.7636  0.1573 -0.0987
 2623Sol     HW13442   2.972   0.862   9.468  0.2846 -0.5029  0.1207
 2623Sol     HW13443   2.883   0.876   9.590  1.1712  0.8131  0.6316
 2623Sol     MW13444   2.925   0.821   9.533 -0.8156  0.3015  0.8038
 2624Sol     OW13445   3.039   1.767   1.843 -0.8027  0.4355  0.0967
 2624Sol     HW13446   3.044   1.852   1.799 -0.9669  0.7438  0.6749
 2624Sol     HW13447   3.057   1.703   1.774 -0.9404  0.9268 -0.3940
 2624Sol     MW13448   3.041   1.769   1.833  0.3762  0.3591  0.3433
 2625Sol     OW13449   1.254   0.680   7.110  1.1539 -0.5354 -0.0485
 2625Sol     HW13450   1.240   0.764   7.154 -1.4064 -1.3744  0.8236
 2625Sol     HW13451   1.321   0.699   7.044  0.6307  2.1980  0.1233
 2625Sol     MW13452   1.258   0.689   7.108 -0.2818  0.1665  0.4854
 2626Sol     OW13453   3.070   0.879   9.104 -0.4148 -0.9585  0.1768
 2626Sol     HW13454   3.072   0.791   9.140 -0.0255 -0.9621  0.1402
 2626Sol     HW13455   2.983   0.913   9.129 -0.1734 -0.9765  1.0704
 2626Sol     MW13456   3.062   0.875   9.110  0.1609 -0.1322  0.6791
 2627Sol     OW13457   0.193   1.331   4.333 -0.2496  0.2887  0.4391
 2627Sol     HW13458   0.260   1.308   4.398 -0.3344 -0.9686  0.0908
 2627Sol     HW13459   0.180   1.251   4.283 -0.5879  1.0994 -0.7857
 2627Sol     MW13460   0.198   1.322   4.335 -0.0256 -1.0960 -0.5078
 2628Sol     OW13461   0.814   0.890   5.927 -0.3775  0.4518 -0.4689
 2628Sol     HW13462   0.776   0.835   5.859 -0.1811 -0.2328 -0.0306
 2628Sol     HW13463   0.825   0.975   5.885 -0.8717  0.2189 -1.0925
 2628Sol     MW13464   0.811   0.893   5.917  0.2557  0.4155  0.2935
 2629Sol     OW13465   0.676   2.235   9.346 -0.6541  0.1363  0.0968
 2629Sol     HW13466   0.701   2.210   9.257 -0.7588 -0.1888  0.1578
 2629Sol     HW13467   0.611   2.170   9.372  0.1758 -0.4298  0.8163
 2629Sol     MW13468   0.673   2.227   9.340  0.0818 -0.0337  0.4420
 2630Sol     OW13469   2.518   3.263   8.415  0.2068 -0.4699  0.1751
 2630Sol     HW13470   2.425   3.251   8.396  0.2690 -1.8156  0.6665
 2630Sol     HW13471   2.561   3.256   8.330  0.0471 -1.8229  0.2060
 2630Sol     MW13472   2.514   3.262   8.405  0.2913 -0.4080  0.1139
 2631Sol     OW13473   3.088   1.021   9.447 -0.1917  0.1127 -0.3233
 2631Sol     HW13474   3.039   1.093   9.486  0.0217 -0.2307  0.5982
 2631Sol     HW13475   3.137   1.061   9.376  0.4696  1.0179  0.6274
 2631Sol     MW13476   3.088   1.031   9.445  0.2702 -0.4874  0.1023
 2632Sol     OW13477   2.140   2.783   6.564  0.0412 -0.1788  0.4151
 2632Sol     HW13478   2.044   2.784   6.567  0.0252  0.3742 -0.1855
 2632Sol     HW13479   2.167   2.845   6.631 -0.0350  0.3735 -0.0673
 2632Sol     MW13480   2.133   2.788   6.570 -0.2126  0.0853 -0.7039
 2633Sol     OW13481   1.390   3.258   1.703  0.2940  0.5891 -0.2406
 2633Sol     HW13482   1.375   3.311   1.781 -0.2065  0.3701 -0.1830
 2633Sol     HW13483   1.351   3.308   1.631 -0.1300  0.3274 -0.1947
 2633Sol     MW13484   1.385   3.267   1.703 -0.0645  0.6541  0.2942
 2634Sol     OW13485   3.313   2.762   9.575 -0.0830  0.2547  0.0889
 2634Sol     HW13486   3.387   2.735   9.521  1.6659 -0.8235  2.8610
 2634Sol     HW13487   3.346   2.836   9.626 -1.1919  0.3147  0.7460
 2634Sol     MW13488   3.323   2.766   9.575  0.1727  0.3678 -1.0386
 2635Sol     OW13489   0.500   1.418   4.356 -0.2431  0.5867 -0.0104
 2635Sol     HW13490   0.571   1.355   4.368  0.9056  1.9558  0.6604
 2635Sol     HW13491   0.435   1.395   4.422 -1.3607 -1.8992 -1.9051
 2635Sol     MW13492   0.501   1.411   4.363  0.1901  0.1324 -0.3966
 2636Sol     OW13493   2.981   1.249   1.621 -0.4250 -0.5513 -0.4893
 2636Sol     HW13494   3.041   1.288   1.685  0.1891  0.8837 -1.8748
 2636Sol     HW13495   2.987   1.308   1.545 -1.8957 -1.6491 -1.4767
 2636Sol     MW13496   2.987   1.258   1.620 -0.6122  0.4626 -0.4116
 2637Sol     OW13497   1.013   3.236   3.632  0.0900 -0.0321 -0.2859
 2637Sol     HW13498   1.084   3.257   3.692 -0.7274  1.5372  0.1267
 2637Sol     HW13499   0.979   3.152   3.663  1.6586 -0.7175 -0.3966
 2637Sol     MW13500   1.016   3.230   3.640  0.4812 -0.5100  0.1059
 2638Sol     OW13501   1.394   1.253   4.138  0.2885 -0.4770  0.1625
 2638Sol     HW13502   1.355   1.208   4.063 -1.8735 -1.9169  2.1151
 2638Sol     HW13503   1.455   1.190   4.175  1.1345  0.1261 -0.1857
 2638Sol     MW13504   1.396   1.243   4.134  0.2141  0.3739  0.1730
 2639Sol     OW13505   2.266   0.352   5.910  0.0095  0.2386  0.6053
 2639Sol     HW13506   2.196   0.414   5.891  0.1801  0.7475  1.6095
 2639Sol     HW13507   2.328   0.363   5.838 -0.6800  0.1585 -0.0064
 2639Sol     MW13508   2.265   0.358   5.902 -0.0884 -0.2817 -0.1149
 2640Sol     OW13509   0.178   0.427   5.097 -0.2422  0.2072 -0.1421
 2640Sol     HW13510   0.219   0.356   5.146  0.6196  0.3341 -0.6643
 2640Sol     HW13511   0.218   0.422   5.010 -2.3654 -0.5517 -1.1081
 2640Sol     MW13512   0.185   0.420   5.094 -0.3196 -0.5884  0.1970
 2641Sol     OW13513   2.061   3.227   1.555  0.1254  0.0287 -0.1198
 2641Sol     HW13514   2.057   3.323   1.563  0.8799  0.0725 -0.2569
 2641Sol     HW13515   1.983   3.205   1.505  0.0968  0.6045 -0.3389
 2641Sol     MW13516   2.054   3.234   1.551 -0.1924 -0.3546  0.1449
 2642Sol     OW13517   0.467   2.641   8.648 -0.2337 -0.1965  0.1347
 2642Sol     HW13518   0.405   2.578   8.613 -1.9925  1.0624  0.9426
 2642Sol     HW13519   0.493   2.693   8.572 -2.4468  1.1799  0.2852
 2642Sol     MW13520   0.464   2.640   8.638  0.5345 -0.8525 -0.3150
 2643Sol     OW13521   3.283   0.084   4.688 -0.0209  0.0125 -0.0643
 2643Sol     HW13522   3.375   0.081   4.716  0.1458 -0.8077 -0.6671
 2643Sol     HW13523   3.240   0.140   4.752  0.8226  0.0529  0.4735
 2643Sol     MW13524   3.288   0.089   4.696  0.5397  0.2954 -0.0315
 2644Sol     OW13525   3.157   0.069   8.296 -0.5950 -0.3772 -0.0522
 2644Sol     HW13526   3.238   0.119   8.301 -1.9313  2.1086 -1.9779
 2644Sol     HW13527   3.121   0.071   8.384 -0.0919  1.1465  0.1265
 2644Sol     MW13528   3.161   0.074   8.304  0.4748 -0.5332  0.1682
 2645Sol     OW13529   2.437   0.946   7.394  0.0350  0.0879 -0.2552
 2645Sol     HW13530   2.369   0.948   7.461  0.1820  2.3446 -0.1202
 2645Sol     HW13531   2.506   0.892   7.431 -0.5824 -0.0445  0.7153
 2645Sol     MW13532   2.437   0.941   7.403  0.3780  0.1791 -0.0828
 2646Sol     OW13533   1.992   3.180   4.444 -0.0265 -0.3909  0.3856
 2646Sol     HW13534   1.941   3.116   4.493 -2.4454  0.1005 -1.4237
 2646Sol     HW13535   1.990   3.150   4.354  3.3003 -0.5806  0.3050
 2646Sol     MW13536   1.987   3.172   4.440 -0.1576  0.0473  0.6387
 2647Sol     OW13537   1.286   1.983   5.205  0.5517  0.1198  0.2419
 2647Sol     HW13538   1.217   1.984   5.271 -0.4138 -0.8248 -0.7245
 2647Sol     HW13539   1.259   2.048   5.140  0.8092  0.0860  0.0986
 2647Sol     MW13540   1.277   1.989   5.205  0.3600  0.6053 -0.1884
 2648Sol     OW13541   0.455   3.092   1.682 -0.0306 -0.4617 -0.1832
 2648Sol     HW13542   0.471   3.044   1.600 -1.5025 -1.2107 -0.0409
 2648Sol     HW13543   0.487   3.034   1.750  0.2763 -0.2599 -0.1522
 2648Sol     MW13544   0.459   3.083   1.680 -0.5520  0.4296  0.1157
 2649Sol     OW13545   0.426   0.570   1.962  0.8231 -0.3179  0.6004
 2649Sol     HW13546   0.443   0.509   2.034 -0.0025  0.5539  1.5592
 2649Sol     HW13547   0.424   0.656   2.003 -2.4028 -0.0476  0.0397
 2649Sol     MW13548   0.427   0.572   1.972  0.6504 -0.2783  0.3313
 2650Sol     OW13549   0.358   1.859   2.588 -0.3983  0.3735 -0.5996
 2650Sol     HW13550   0.382   1.951   2.603  0.0163  0.1261  0.2687
 2650Sol     HW13551   0.441   1.814   2.574 -0.4256 -0.2289  1.0317
 2650Sol     MW13552   0.367   1.863   2.588 -0.3273 -0.0555  0.0780
 2651Sol     OW13553   1.656   2.753   1.520 -0.6897 -0.1086 -0.5447
 2651Sol     HW13554   1.731   2.761   1.580 -1.1162 -1.6099  0.2304
 2651Sol     HW13555   1.628   2.843   1.504  0.6402  0.4176 -0.0324
 2651Sol     MW13556   1.661   2.762   1.524  0.2336 -0.3029 -0.2075
 2652Sol     OW13557   1.258   2.536   8.319 -0.0572 -0.1088 -0.3837
 2652Sol     HW13558   1.166   2.535   8.345 -0.5388  1.8568 -1.8981
 2652Sol     HW13559   1.291   2.450   8.345 -2.4290 -1.0241 -0.2337
 2652Sol     MW13560   1.253   2.528   8.324  1.0573 -0.1263  0.3702
 2653Sol     OW13561   0.391   2.126   2.622 -0.0033  0.1679  0.7323
 2653Sol     HW13562   0.453   2.147   2.692  0.8672  1.1693 -0.3076
 2653Sol     HW13563   0.327   2.197   2.624 -1.7289 -1.3818  2.4510
 2653Sol     MW13564   0.391   2.134   2.628  0.4107 -0.3302 -0.1138
 2654Sol     OW13565   1.832   3.358   7.445  0.2197 -0.1158 -0.2180
 2654Sol     HW13566   1.752   3.378   7.398  0.6434  0.3738 -0.7398
 2654Sol     HW13567   1.874   3.443   7.457  0.5774 -0.3492  0.2040
 2654Sol     MW13568   1.829   3.368   7.442 -0.4274  0.0606 -0.8743
 2655Sol     OW13569   2.563   2.015   6.992  0.3813  0.4215 -0.2794
 2655Sol     HW13570   2.598   1.954   6.927 -1.2768  0.4115 -1.1950
 2655Sol     HW13571   2.485   2.052   6.951  0.5094  2.0209  0.8745
 2655Sol     MW13572   2.559   2.012   6.983 -0.0419 -0.3515 -0.0412
 2656Sol     OW13573   3.076   1.600   6.901  0.5993  0.5829 -0.3004
 2656Sol     HW13574   3.034   1.607   6.815  0.5269  2.3196 -0.1460
 2656Sol     HW13575   3.141   1.531   6.890 -0.8658 -0.7040 -1.1324
 2656Sol     MW13576   3.078   1.594   6.892 -0.1144 -0.7454  0.2211
 2657Sol     OW13577   1.899   0.239   8.148  0.5203 -0.2773 -0.1374
 2657Sol     HW13578   1.821   0.263   8.198  0.1857  1.3837 -1.4097
 2657Sol     HW13579   1.944   0.322   8.133  1.7643 -1.0357 -0.6879
 2657Sol     MW13580   1.896   0.248   8.151 -0.9443 -0.8150  0.8430
 2658Sol     OW13581   2.877   2.607   7.446 -0.1160  0.1383  0.2537
 2658Sol     HW13582   2.937   2.544   7.485  1.0094  0.5638 -0.7933
 2658Sol     HW13583   2.893   2.602   7.352 -0.0781  1.9215  0.1554
 2658Sol     MW13584   2.883   2.601   7.441  0.7940  0.0179  0.4284
 2659Sol     OW13585   1.013   3.124   6.440  0.5578  0.5455 -0.0965
 2659Sol     HW13586   0.985   3.200   6.389  0.2024  0.9771  0.7397
 2659Sol     HW13587   1.107   3.137   6.453  0.1887  1.7090  1.4943
 2659Sol     MW13588   1.019   3.132   6.436  0.1973 -0.7954 -0.7088
 2660Sol     OW13589   2.047   2.757   3.251  0.0295  0.4782 -0.0716
 2660Sol     HW13590   2.102   2.754   3.330 -0.3277  1.7692  0.2500
 2660Sol     HW13591   2.053   2.670   3.214 -1.5593 -0.8590  2.6016
 2660Sol     MW13592   2.053   2.749   3.255 -0.0722 -0.6418 -0.8319
 2661Sol     OW13593   2.079   0.378   8.490  0.3291  0.3761  0.5055
 2661Sol     HW13594   2.005   0.334   8.530  0.5022 -0.3361  0.0558
 2661Sol     HW13595   2.061   0.471   8.500 -2.0405  0.2743 -2.1069
 2661Sol     MW13596   2.071   0.382   8.494  0.0653 -0.0385 -0.0116
 2662Sol     OW13597   0.194   0.596   2.932  0.1278  0.3331  0.6121
 2662Sol     HW13598   0.106   0.628   2.952 -0.7655  0.1642 -2.6080
 2662Sol     HW13599   0.244   0.674   2.909  0.1721  0.2167  0.3027
 2662Sol     MW13600   0.190   0.606   2.931  0.4781  0.2855 -0.6866
 2663Sol     OW13601   1.758   0.593   2.925 -0.1469 -0.0429 -0.0328
 2663Sol     HW13602   1.743   0.638   2.842 -2.5836 -1.9092 -0.6631
 2663Sol     HW13603   1.672   0.593   2.968  1.0415  0.6970  2.4140
 2663Sol     MW13604   1.749   0.597   2.922 -0.0140 -0.1108  0.0814
 2664Sol     OW13605   1.787   0.011   3.797 -0.7744 -0.3584 -0.6932
 2664Sol     HW13606   1.863  -0.032   3.835 -0.1435  0.8015 -0.6033
 2664Sol     HW13607   1.781   0.095   3.843 -2.9212 -0.9844  0.2648
 2664Sol     MW13608   1.793   0.015   3.805  0.8921 -0.1310  0.2087
 2665Sol     OW13609   1.344   1.117   9.145 -0.4267  0.5444 -0.0827
 2665Sol     HW13610   1.300   1.063   9.211  0.6558 -1.0010 -0.5884
 2665Sol     HW13611   1.437   1.099   9.160 -0.2050 -0.8149 -2.8352
 2665Sol     MW13612   1.349   1.110   9.152  0.0492  0.5905  0.5212
 2666Sol     OW13613   0.264   1.115   3.331  0.5233 -0.6787 -0.3393
 2666Sol     HW13614   0.309   1.034   3.352 -0.5944 -0.5066  2.9865
 2666Sol     HW13615   0.180   1.087   3.295  0.2687 -1.0359  0.5056
 2666Sol     MW13616   0.261   1.106   3.330 -0.7229  0.3551  0.3346
 2667Sol     OW13617   0.744   0.124   7.376  0.4207 -0.3016  0.0314
 2667Sol     HW13618   0.828   0.169   7.387 -0.1118  0.8890 -0.7451
 2667Sol     HW13619   0.737   0.108   7.282 -0.0153 -0.8403  0.1502
 2667Sol     MW13620   0.751   0.126   7.369 -0.4396  0.2905 -0.3551
 2668Sol     OW13621   0.679   1.836   2.297 -0.0168 -0.1724 -0.7754
 2668Sol     HW13622   0.611   1.797   2.353 -0.8326  0.0634 -1.5928
 2668Sol     HW13623   0.676   1.929   2.319  1.4668 -0.4450  0.6829
 2668Sol     MW13624   0.673   1.841   2.304 -0.3282 -0.0018 -0.5214
 2669Sol     OW13625   0.900   0.270   7.738 -0.5704  0.3387 -0.5108
 2669Sol     HW13626   0.920   0.192   7.788 -0.4878  0.2961 -0.6094
 2669Sol     HW13627   0.879   0.337   7.803  1.2509  0.7640 -0.3276
 2669Sol     MW13628   0.900   0.269   7.748 -0.1890 -0.2857  0.2136
 2670Sol     OW13629   1.810   3.354   3.002 -0.2858 -0.0916 -0.3129
 2670Sol     HW13630   1.818   3.445   2.974 -0.0364  0.3789  1.2483
 2670Sol     HW13631   1.878   3.307   2.953  0.5002  0.8063 -0.0935
 2670Sol     MW13632   1.817   3.358   2.995  0.4999  0.0963  0.5988
 2671Sol     OW13633   0.312   2.210   3.358 -0.1344  0.1002 -0.2393
 2671Sol     HW13634   0.264   2.136   3.396  0.4257  0.6812  1.6759
 2671Sol     HW13635   0.311   2.276   3.427 -0.2091  1.7049 -1.7442
 2671Sol     MW13636   0.307   2.209   3.368 -0.3897  0.3952 -0.6844
 2672Sol     OW13637   0.997   1.790   6.638  0.7816 -0.3474 -0.5281
 2672Sol     HW13638   0.919   1.744   6.668  0.4044 -0.5770 -1.8157
 2672Sol     HW13639   0.983   1.803   6.544  1.3857  1.4075 -0.4016
 2672Sol     MW13640   0.989   1.787   6.632  0.4915 -0.2358  0.2874
 2673Sol     OW13641   1.531   2.995   8.420 -1.0054 -0.2915  0.4208
 2673Sol     HW13642   1.538   3.074   8.473 -1.0539  0.3579 -0.5325
 2673Sol     HW13643   1.581   2.929   8.468  0.3895  0.7443  0.4253
 2673Sol     MW13644   1.536   2.996   8.429 -0.1362  0.4398 -0.1522
 2674Sol     OW13645   0.773   2.778   1.808  0.2283 -0.1187  0.0022
 2674Sol     HW13646   0.855   2.814   1.774  0.1067  0.2056  0.0526
 2674Sol     HW13647   0.800   2.716   1.875  0.4522 -0.3920 -0.3407
 2674Sol     MW13648   0.782   2.776   1.811  0.2675  0.2502 -0.2334
 2675Sol     OW13649   1.778   1.142   6.601 -0.2174  1.0640  0.0931
 2675Sol     HW13650   1.868   1.109   6.595 -0.3356  1.2120 -2.9548
 2675Sol     HW13651   1.785   1.217   6.661  1.0132 -1.0333  2.6974
 2675Sol     MW13652   1.787   1.146   6.606 -0.4759 -0.2747  0.1401
 2676Sol     OW13653   3.193   1.816   7.012  0.3263  0.0739  1.0325
 2676Sol     HW13654   3.204   1.885   6.946 -1.2063  0.3415  1.0540
 2676Sol     HW13655   3.164   1.740   6.962  1.5483 -0.4452  1.0795
 2676Sol     MW13656   3.192   1.815   7.002 -0.4845  0.3576 -0.1777
 2677Sol     OW13657   2.676   2.654   2.113  0.0691  0.0019 -0.1851
 2677Sol     HW13658   2.580   2.657   2.121  0.0191 -1.0193 -0.4094
 2677Sol     HW13659   2.703   2.579   2.165  0.6915 -0.0996 -0.6408
 2677Sol     MW13660   2.670   2.648   2.118  0.2276 -0.7377 -0.4822
 2678Sol     OW13661   2.347   1.655   7.272 -0.4867  0.6028  0.0480
 2678Sol     HW13662   2.400   1.731   7.248  1.6761 -0.5222  1.1206
 2678Sol     HW13663   2.257   1.684   7.259  0.3604  2.5558 -1.8891
 2678Sol     MW13664   2.344   1.665   7.268  0.4261  0.6066  0.6314
 2679Sol     OW13665   0.426   0.647   2.678 -0.0177  0.7377 -0.1915
 2679Sol     HW13666   0.500   0.630   2.620  1.3452 -1.1610  2.0283
 2679Sol     HW13667   0.366   0.574   2.662 -0.5527  1.2721 -0.6376
 2679Sol     MW13668   0.427   0.639   2.671 -0.3452 -0.0506  0.4226
 2680Sol     OW13669   2.610   2.722   4.338  0.1332  0.2790 -0.1291
 2680Sol     HW13670   2.623   2.655   4.405  1.1785  0.7443  0.1539
 2680Sol     HW13671   2.567   2.794   4.383 -0.7540 -0.1006 -0.3710
 2680Sol     MW13672   2.608   2.723   4.348  0.1839 -0.2611  0.5004
 2681Sol     OW13673   2.997   1.574   8.736 -0.3570  0.1374 -0.3133
 2681Sol     HW13674   3.051   1.499   8.760 -2.2434 -0.5755  1.9162
 2681Sol     HW13675   3.029   1.645   8.791  1.6159  1.0764 -2.6270
 2681Sol     MW13676   3.004   1.574   8.743  0.3600 -0.0220 -0.3708
 2682Sol     OW13677   0.075   1.139   8.196 -0.2776  0.5606 -0.2527
 2682Sol     HW13678   0.133   1.209   8.167 -1.0703  0.5607 -1.8567
 2682Sol     HW13679   0.061   1.157   8.289  1.4334  1.1639 -0.0902
 2682Sol     MW13680   0.079   1.147   8.202  1.0873  0.2686  0.0473
 2683Sol     OW13681   2.852   1.755   7.025  0.4951  0.1064  0.2447
 2683Sol     HW13682   2.906   1.687   6.985 -1.2566 -0.8838 -0.5141
 2683Sol     HW13683   2.782   1.771   6.960 -0.4750  0.9017  1.4594
 2683Sol     MW13684   2.850   1.751   7.015 -0.9469  0.0840 -1.1807
 2684Sol     OW13685   0.447   0.746   3.609 -0.1907  0.1386 -0.2594
 2684Sol     HW13686   0.392   0.669   3.592 -1.0698  0.3800  1.3987
 2684Sol     HW13687   0.531   0.709   3.636 -0.4205 -0.2456 -0.0551
 2684Sol     MW13688   0.449   0.736   3.610 -0.5944 -0.2378  0.3786
 2685Sol     OW13689   0.934   0.308   4.142  0.5488  0.4821  0.3183
 2685Sol     HW13690   1.022   0.324   4.177 -0.6403  2.5872  2.4786
 2685Sol     HW13691   0.922   0.376   4.076  0.8335 -0.2887 -0.5284
 2685Sol     MW13692   0.941   0.316   4.139 -0.1817 -0.1604 -0.1310
 2686Sol     OW13693   1.459   3.419   5.030 -0.1604 -0.1593 -1.0125
 2686Sol     HW13694   1.483   3.495   4.977  0.1708  0.5984  0.1842
 2686Sol     HW13695   1.525   3.353   5.009  0.6895  0.5574 -0.6479
 2686Sol     MW13696   1.467   3.420   5.024  0.0622  0.1405  0.7296
 2687Sol     OW13697   0.402   0.309   3.418  0.1337  0.6812 -0.0258
 2687Sol     HW13698   0.347   0.236   3.445 -1.6135  2.1961  0.6133
 2687Sol     HW13699   0.402   0.305   3.323 -1.1784  0.7022 -0.0410
 2687Sol     MW13700   0.397   0.302   3.412  0.2230  0.1619  0.3596
 2688Sol     OW13701   3.206   0.677   8.398 -0.5238  0.1324  0.2302
 2688Sol     HW13702   3.294   0.713   8.387 -0.3474 -1.1690 -3.2443
 2688Sol     HW13703   3.215   0.607   8.462  1.0183 -0.0917 -0.2240
 2688Sol     MW13704   3.214   0.674   8.402  0.6700 -0.1217 -0.7823
 2689Sol     OW13705   2.483   1.477   2.064  0.6411 -0.1686 -0.6817
 2689Sol     HW13706   2.399   1.517   2.041  0.2424  0.7041  2.0900
 2689Sol     HW13707   2.491   1.403   2.003 -2.5435 -0.7902 -0.4739
 2689Sol     MW13708   2.476   1.474   2.056  0.1264 -0.2962 -0.1535
 2690Sol     OW13709   1.063   3.198   4.711  0.2188  0.3001  0.1709
 2690Sol     HW13710   0.971   3.177   4.728 -0.3626  0.7804 -2.1931
 2690Sol     HW13711   1.077   3.282   4.754 -0.4510  0.2274  0.5387
 2690Sol     MW13712   1.056   3.203   4.716 -0.3492 -0.6550  0.3177
 2691Sol     OW13713   0.597   1.723   2.546 -0.0304  0.4900  0.1757
 2691Sol     HW13714   0.656   1.787   2.585 -1.0062  1.2016  0.5066
 2691Sol     HW13715   0.630   1.639   2.577  1.9052  0.7197 -1.1210
 2691Sol     MW13716   0.605   1.721   2.552 -0.2552  0.7218  0.0635
 2692Sol     OW13717   2.617   0.186   8.534 -0.1943 -0.3411 -0.2547
 2692Sol     HW13718   2.535   0.215   8.573 -0.4350 -1.4556  0.0983
 2692Sol     HW13719   2.685   0.221   8.592 -0.3694  1.3904 -1.0867
 2692Sol     MW13720   2.616   0.191   8.543 -0.5472  0.3937 -0.8209
 2693Sol     OW13721   3.195   3.102   6.390 -0.2114  0.4561 -0.4919
 2693Sol     HW13722   3.230   3.077   6.305  0.7504  1.3689 -0.3841
 2693Sol     HW13723   3.100   3.098   6.380 -0.0878 -0.5311 -1.2673
 2693Sol     MW13724   3.190   3.100   6.382 -0.4083 -1.1192 -0.3152
 2694Sol     OW13725   1.587   0.953   2.175  0.0671 -0.5215 -0.1971
 2694Sol     HW13726   1.546   1.024   2.225 -1.8608 -1.5356 -0.2901
 2694Sol     HW13727   1.521   0.884   2.173  1.9781 -2.3963  0.0274
 2694Sol     MW13728   1.578   0.954   2.179  0.0735  0.0949 -0.3564
 2695Sol     OW13729   1.424   2.095   7.695  0.1307 -0.9901 -0.4051
 2695Sol     HW13730   1.464   2.168   7.741 -0.8464 -0.7056  0.0046
 2695Sol     HW13731   1.449   2.108   7.603 -1.0856  0.5666 -0.5363
 2695Sol     MW13732   1.430   2.103   7.690  0.1672  0.4048  0.5166
 2696Sol     OW13733   1.602   0.582   5.820  0.1829 -0.1824 -0.1432
 2696Sol     HW13734   1.555   0.576   5.903  3.0053  1.5939  1.6703
 2696Sol     HW13735   1.546   0.638   5.765 -1.6938 -1.3631  0.5461
 2696Sol     MW13736   1.593   0.587   5.822 -0.0833  0.3691 -0.7550
 2697Sol     OW13737   2.827   2.125   9.516 -0.6668 -0.4488 -0.0210
 2697Sol     HW13738   2.756   2.119   9.452 -1.1849 -0.2394  0.5254
 2697Sol     HW13739   2.802   2.063   9.585 -0.8769  0.4156  0.6978
 2697Sol     MW13740   2.818   2.119   9.516 -0.7592 -0.3365 -0.1752
 2698Sol     OW13741   1.211   0.276   8.664 -0.0977  0.1500  0.2556
 2698Sol     HW13742   1.232   0.217   8.591  0.0826 -0.8130  1.0773
 2698Sol     HW13743   1.266   0.353   8.648  1.2916 -0.7909  0.3249
 2698Sol     MW13744   1.218   0.278   8.656 -0.2695  0.2293  0.2770
 2699Sol     OW13745   0.179   0.330   4.541  0.4653 -0.2353  0.2916
 2699Sol     HW13746   0.238   0.255   4.534 -0.1190 -0.4930 -2.6378
 2699Sol     HW13747   0.231   0.403   4.506  0.2348  0.2452  0.9582
 2699Sol     MW13748   0.189   0.330   4.537 -0.2675 -0.7155 -0.2998
 2700Sol     OW13749   1.109   3.300   8.050 -0.7189 -0.7095  0.3381
 2700Sol     HW13750   1.154   3.225   8.010 -0.6166  0.0771 -1.0685
 2700Sol     HW13751   1.031   3.262   8.090  1.1814 -2.1007  2.8626
 2700Sol     MW13752   1.106   3.290   8.050  0.9904  0.7595 -0.3538
 2701Sol     OW13753   1.987   3.088   2.001  0.3211 -0.3753 -0.1756
 2701Sol     HW13754   1.892   3.097   2.013  0.2079 -0.9698 -0.5691
 2701Sol     HW13755   2.017   3.177   1.980 -0.0071 -0.0177  0.8392
 2701Sol     MW13756   1.981   3.097   2.000 -0.1830 -0.0495 -0.4437
 2702Sol     OW13757   0.274   1.598   8.407  0.1126  0.3730 -0.0153
 2702Sol     HW13758   0.240   1.512   8.380 -0.6751  0.1167  1.6945
 2702Sol     HW13759   0.213   1.661   8.369 -0.3950  0.0720  0.2933
 2702Sol     MW13760   0.265   1.596   8.401 -0.8908  0.3098  0.0127
 2703Sol     OW13761   1.997   1.982   3.597  0.0207 -0.1662 -0.2463
 2703Sol     HW13762   1.950   1.939   3.669  1.1918 -0.3529  0.4196
 2703Sol     HW13763   2.014   1.913   3.534  1.1178 -0.5230  0.4172
 2703Sol     MW13764   1.994   1.972   3.598  0.3704 -0.6222 -0.0671
 2704Sol     OW13765   0.751   1.373   8.021  0.1557 -0.2941  0.8208
 2704Sol     HW13766   0.760   1.278   8.008  0.3804 -0.1202 -0.3686
 2704Sol     HW13767   0.839   1.402   8.045  0.7298  0.0143 -1.5573
 2704Sol     MW13768   0.760   1.367   8.022  0.3081  0.7364 -0.2766
 2705Sol     OW13769   2.105   1.066   5.754 -0.0491 -0.2464  0.5779
 2705Sol     HW13770   2.125   1.015   5.675 -2.1660  0.2217 -0.2878
 2705Sol     HW13771   2.051   1.007   5.807  0.4598 -0.1619  1.1978
 2705Sol     MW13772   2.102   1.056   5.751  0.4713  0.1059 -0.6292
 2706Sol     OW13773   1.958   3.213   3.498  0.0931  0.2628  0.5488
 2706Sol     HW13774   2.008   3.143   3.539  2.4117  2.2305  1.1531
 2706Sol     HW13775   1.970   3.200   3.404  1.0212  0.2114  0.6742
 2706Sol     MW13776   1.963   3.206   3.493  0.3284  0.5154  0.1485
 2707Sol     OW13777   2.376   2.193   6.942  0.3303  0.1434  0.0114
 2707Sol     HW13778   2.435   2.268   6.944  1.7372 -0.9639  1.2115
 2707Sol     HW13779   2.331   2.195   7.027 -1.2119  0.8575 -0.8108
 2707Sol     MW13780   2.377   2.200   6.950  0.0754  0.5489  0.4072
 2708Sol     OW13781   2.883   1.905   5.594 -0.4110 -0.0245  0.1627
 2708Sol     HW13782   2.839   1.970   5.539 -1.3354 -0.3262  0.5322
 2708Sol     HW13783   2.879   1.942   5.683  3.3069  1.6517 -0.2860
 2708Sol     MW13784   2.878   1.914   5.597  0.3210  0.3358 -0.1610
 2709Sol     OW13785   1.348   1.792   8.804 -0.2865 -0.1766  0.3107
 2709Sol     HW13786   1.273   1.753   8.847  0.4661 -2.4692 -0.3771
 2709Sol     HW13787   1.378   1.860   8.865 -3.1983  1.1754  0.3294
 2709Sol     MW13788   1.344   1.795   8.813 -0.1110 -0.3996  0.1935
 2710Sol     OW13789   2.741   2.159   7.174 -0.0644 -0.1306 -0.0528
 2710Sol     HW13790   2.692   2.147   7.093 -0.5661 -0.0340  0.2336
 2710Sol     HW13791   2.798   2.083   7.179 -1.7817 -1.3975  0.7368
 2710Sol     MW13792   2.742   2.151   7.167  0.3560 -0.3506 -0.0252
 2711Sol     OW13793   2.879   1.614   8.498 -0.6237  0.2518  0.1298
 2711Sol     HW13794   2.943   1.628   8.427 -0.4706 -1.4734 -0.0847
 2711Sol     HW13795   2.933   1.604   8.576 -0.6587 -0.6140  0.0431
 2711Sol     MW13796   2.890   1.615   8.499 -0.3345 -0.5713 -0.4854
 2712Sol     OW13797   1.584   1.282   7.770 -0.0541 -0.0494 -0.3472
 2712Sol     HW13798   1.666   1.258   7.814 -0.0429  2.5566  1.2063
 2712Sol     HW13799   1.519   1.221   7.805  0.6265 -0.1105  0.8458
 2712Sol     MW13800   1.586   1.275   7.777 -0.2368 -0.7022  0.1363
 2713Sol     OW13801   2.048   1.491   8.673 -0.4162 -0.2825 -0.0146
 2713Sol     HW13802   2.020   1.574   8.635 -0.2567  0.0874  0.6623
 2713Sol     HW13803   2.124   1.466   8.621  0.8608  1.0958  1.1375
 2713Sol     MW13804   2.052   1.496   8.665 -0.1131 -0.1353 -0.6765
 2714Sol     OW13805   1.301   1.869   6.386  0.5723  0.0478  0.1265
 2714Sol     HW13806   1.275   1.955   6.416 -0.9495 -0.4749  0.3194
 2714Sol     HW13807   1.319   1.881   6.292  0.8468  0.6609  0.2528
 2714Sol     MW13808   1.300   1.878   6.380 -0.2182  0.2334 -0.1319
 2715Sol     OW13809   1.214   0.357   8.270  0.1934 -0.4086 -0.5161
 2715Sol     HW13810   1.167   0.308   8.338  1.5649 -0.4141  0.4618
 2715Sol     HW13811   1.289   0.301   8.250 -0.4051 -0.5784 -2.3277
 2715Sol     MW13812   1.217   0.347   8.275  0.9116  0.0476 -0.0362
 2716Sol     OW13813   0.682   1.103   8.003 -0.2878 -0.1065 -0.4607
 2716Sol     HW13814   0.592   1.083   8.030 -0.5365 -1.0561 -1.9447
 2716Sol     HW13815   0.736   1.078   8.078 -1.0335 -1.9799 -0.5110
 2716Sol     MW13816   0.679   1.099   8.012  0.5356  0.8976 -0.1704
 2717Sol     OW13817   1.893   0.160   8.613 -0.0031 -0.4525 -0.9784
 2717Sol     HW13818   1.942   0.077   8.614 -1.8637 -1.5886 -1.2651
 2717Sol     HW13819   1.843   0.156   8.531 -0.7393  0.5732 -0.5761
 2717Sol     MW13820   1.893   0.152   8.606  0.2131 -0.1184 -0.0339
 2718Sol     OW13821   0.232   0.695   5.142  0.3637  0.0028 -0.5037
 2718Sol     HW13822   0.258   0.734   5.059 -0.4938 -0.4762 -1.0064
 2718Sol     HW13823   0.204   0.606   5.119  1.8070 -0.7602  0.5449
 2718Sol     MW13824   0.232   0.690   5.133 -0.3811  0.5978  0.3126
 2719Sol     OW13825   0.426   2.046   6.227  0.4176  0.0550  0.5847
 2719Sol     HW13826   0.333   2.067   6.221  0.8556  2.0184  0.3474
 2719Sol     HW13827   0.430   1.974   6.290 -1.3766 -0.9487 -0.4087
 2719Sol     MW13828   0.418   2.041   6.232 -0.1380  0.0658 -0.2422
 2720Sol     OW13829   2.396   2.973   2.575  0.5257 -0.5856  0.3764
 2720Sol     HW13830   2.381   3.006   2.487  3.2417  0.2511  0.1845
 2720Sol     HW13831   2.312   2.982   2.619 -0.5825 -0.0299 -1.7999
 2720Sol     MW13832   2.388   2.977   2.571  0.0993 -0.0810 -0.0715
 2721Sol     OW13833   0.593   0.906   8.923 -0.1107 -0.0187  0.3117
 2721Sol     HW13834   0.583   0.810   8.922  0.7709 -0.1147 -1.1452
 2721Sol     HW13835   0.687   0.919   8.939  0.3519  0.5353 -2.7016
 2721Sol     MW13836   0.601   0.898   8.925  0.0564  0.1656  0.0936
 2722Sol     OW13837   1.200   1.717   1.468  0.0485  0.2827  0.1513
 2722Sol     HW13838   1.202   1.774   1.544 -0.5261  1.8098 -0.9577
 2722Sol     HW13839   1.282   1.667   1.473  0.2882  0.7896  1.4301
 2722Sol     MW13840   1.208   1.717   1.475  0.4085  0.3002 -0.2245
 2723Sol     OW13841   3.269   0.084   5.779 -0.6683  0.0246 -0.3217
 2723Sol     HW13842   3.240   0.021   5.713  0.8574 -1.3768  0.3113
 2723Sol     HW13843   3.200   0.085   5.844 -0.3951 -1.5228  0.0078
 2723Sol     MW13844   3.261   0.079   5.779 -0.1292 -0.3014 -0.9576
 2724Sol     OW13845   3.042   0.981   1.645  0.4096  0.1690  0.3519
 2724Sol     HW13846   3.030   1.076   1.646 -1.4503 -0.0427 -0.7467
 2724Sol     HW13847   3.017   0.954   1.557 -1.1555 -1.6076  1.3062
 2724Sol     MW13848   3.039   0.987   1.637  0.2964 -0.4788 -0.1987
 2725Sol     OW13849   1.173   1.113   5.798 -0.2787 -0.4288  0.5287
 2725Sol     HW13850   1.188   1.059   5.720  0.0444  0.7713 -0.2419
 2725Sol     HW13851   1.223   1.069   5.867 -0.3354 -1.3337  0.0058
 2725Sol     MW13852   1.178   1.104   5.798  0.5601 -0.3945  1.1517
 2726Sol     OW13853   2.141   2.836   9.155 -0.3681  0.4035  0.4650
 2726Sol     HW13854   2.096   2.753   9.170  0.8775 -0.6972 -1.6730
 2726Sol     HW13855   2.073   2.894   9.120 -0.8870 -0.1906  0.4793
 2726Sol     MW13856   2.131   2.833   9.153 -0.3023 -0.1812 -0.1098
 2727Sol     OW13857   2.874   1.418   2.380 -0.0536  0.4458  0.1339
 2727Sol     HW13858   2.854   1.510   2.394  0.7692  0.5814  0.4521
 2727Sol     HW13859   2.954   1.418   2.326  0.4117 -0.0784  0.8131
 2727Sol     MW13860   2.880   1.426   2.376  0.5134 -0.0093 -0.0747
 2728Sol     OW13861   1.504   0.730   1.573  0.0946  0.3261 -0.3786
 2728Sol     HW13862   1.477   0.796   1.509 -0.9007 -1.0765 -1.4543
 2728Sol     HW13863   1.438   0.661   1.566  1.6385 -1.2501 -0.0098
 2728Sol     MW13864   1.496   0.730   1.567 -0.8580 -0.0928 -0.9988
 2729Sol     OW13865   0.982   0.408   8.642  0.4097 -0.2389 -0.0979
 2729Sol     HW13866   1.065   0.362   8.651  0.9286  0.7866  0.4294
 2729Sol     HW13867   1.006   0.495   8.610 -0.5596 -0.3402 -1.1204
 2729Sol     MW13868   0.991   0.412   8.640 -1.0407  0.2099  0.1806
 2730Sol     OW13869   1.718   2.918   3.475  0.9586  0.2152 -0.7942
 2730Sol     HW13870   1.648   2.910   3.541  1.4843  1.6290 -0.0467
 2730Sol     HW13871   1.673   2.907   3.391  0.1406 -0.7744 -0.2366
 2730Sol     MW13872   1.708   2.916   3.474 -0.0917  0.0603 -0.3349
 2731Sol     OW13873   2.762   3.061   4.564 -0.2420  0.1457  0.5731
 2731Sol     HW13874   2.718   3.076   4.647  0.1966  0.2771  0.7837
 2731Sol     HW13875   2.829   3.129   4.559 -0.7193  0.5612 -0.2089
 2731Sol     MW13876   2.764   3.068   4.571  0.4940 -0.0108 -0.6111
 2732Sol     OW13877   0.618   1.935   8.834 -0.4328  1.0146 -0.0861
 2732Sol     HW13878   0.670   1.861   8.802 -2.2884 -0.0205 -0.7997
 2732Sol     HW13879   0.613   1.922   8.928 -1.8998 -0.5785 -0.3501
 2732Sol     MW13880   0.622   1.927   8.839 -0.6062  0.0710 -0.2695
 2733Sol     OW13881   2.060   3.082   5.007 -0.1951  0.7104 -0.7642
 2733Sol     HW13882   2.044   3.159   4.952 -2.8214  2.6124  2.4520
 2733Sol     HW13883   2.150   3.095   5.039 -0.1332  1.7180 -1.3074
 2733Sol     MW13884   2.067   3.090   5.005 -0.4937 -0.4751  0.1410
 2734Sol     OW13885   1.691   0.487   6.721 -0.0186 -0.0105 -0.7631
 2734Sol     HW13886   1.681   0.473   6.816 -0.6406 -1.7224 -1.0635
 2734Sol     HW13887   1.701   0.582   6.712  1.1121  0.0768  1.1110
 2734Sol     MW13888   1.691   0.494   6.729  1.0795  0.2043  0.5555
 2735Sol     OW13889   0.718   1.142   4.604 -0.5757  0.4261  0.4984
 2735Sol     HW13890   0.745   1.063   4.650 -0.6315 -0.3044 -0.6825
 2735Sol     HW13891   0.705   1.208   4.672 -0.5712 -0.6036  1.4960
 2735Sol     MW13892   0.719   1.141   4.614 -0.2137  0.1194  0.5702
 2736Sol     OW13893   3.052   1.444   4.530  0.1057  0.0154  0.2927
 2736Sol     HW13894   3.024   1.511   4.468 -0.0353 -0.2213  0.0983
 2736Sol     HW13895   3.102   1.382   4.477  1.0884  0.4869  0.6539
 2736Sol     MW13896   3.054   1.444   4.520 -0.5146  0.3630  0.0100
 2737Sol     OW13897   2.828   3.170   2.125  0.0910  0.1241 -0.3377
 2737Sol     HW13898   2.769   3.102   2.158  0.0695  0.8775  1.1854
 2737Sol     HW13899   2.916   3.131   2.132  0.3784  1.3066  3.3193
 2737Sol     MW13900   2.831   3.160   2.128  0.1805 -0.3000  0.3418
 2738Sol     OW13901   2.303   2.534   8.083  0.0020 -0.2100 -0.1043
 2738Sol     HW13902   2.353   2.508   8.161  0.5084 -0.9012 -0.6561
 2738Sol     HW13903   2.335   2.477   8.014 -0.0192  0.8110 -0.9724
 2738Sol     MW13904   2.311   2.527   8.084 -0.0532  0.9345  1.1866
 2739Sol     OW13905   1.087   2.963   9.532 -0.1288 -0.2477  0.6606
 2739Sol     HW13906   1.171   3.002   9.507 -0.5991 -0.3065 -1.1106
 2739Sol     HW13907   1.023   3.007   9.475 -1.3519  0.0329  2.2211
 2739Sol     MW13908   1.089   2.971   9.524 -0.2690 -0.8322 -0.4071
 2740Sol     OW13909   1.332   1.368   1.476  0.3793 -0.4614  0.1548
 2740Sol     HW13910   1.361   1.283   1.509 -0.2613  0.1081  2.2660
 2740Sol     HW13911   1.236   1.363   1.480  0.3733  1.3532  2.9488
 2740Sol     MW13912   1.326   1.360   1.479  0.1835 -0.5219 -0.7845
 2741Sol     OW13913   2.407   2.988   3.418 -0.3440 -0.4627  0.6727
 2741Sol     HW13914   2.363   3.028   3.493 -0.1721  2.1872 -0.5579
 2741Sol     HW13915   2.482   2.941   3.455 -0.2504  0.8346  2.1506
 2741Sol     MW13916   2.410   2.987   3.428  0.0229  0.0959  0.0815
 2742Sol     OW13917   1.490   0.541   7.993 -0.3997  0.1130 -0.1805
 2742Sol     HW13918   1.528   0.607   8.051 -0.8055  0.3249 -0.1548
 2742Sol     HW13919   1.407   0.578   7.966 -1.0049 -0.7322  0.4705
 2742Sol     MW13920   1.486   0.550   7.996 -0.4440  0.1235  0.3702
 2743Sol     OW13921   3.319   1.521   7.071  0.3234  0.6846  0.7768
 2743Sol     HW13922   3.377   1.568   7.011  0.5863 -0.1764  0.3461
 2743Sol     HW13923   3.309   1.579   7.146  0.5101  1.4964  0.1799
 2743Sol     MW13924   3.323   1.530   7.072 -0.4871  0.3581 -0.3078
 2744Sol     OW13925   2.273   3.038   1.883 -0.2695  0.4566  0.7295
 2744Sol     HW13926   2.214   3.096   1.932 -1.8290 -0.1119 -0.4184
 2744Sol     HW13927   2.220   2.960   1.866  2.0183 -1.6515  2.9016
 2744Sol     MW13928   2.263   3.036   1.886 -0.3846 -0.1519  0.7558
 2745Sol     OW13929   2.804   1.031   3.964  0.0132 -0.1591 -0.0625
 2745Sol     HW13930   2.800   1.080   4.046 -1.6948 -1.8224  0.8759
 2745Sol     HW13931   2.881   0.974   3.974 -0.4047 -0.6245  0.5528
 2745Sol     MW13932   2.811   1.030   3.972 -0.0121 -0.2801  0.0856
 2746Sol     OW13933   1.698   1.729   2.783 -0.1843 -0.0099 -0.3268
 2746Sol     HW13934   1.606   1.724   2.808  0.1201  0.3287  0.9056
 2746Sol     HW13935   1.731   1.807   2.829  1.6558 -2.2989  2.4319
 2746Sol     MW13936   1.693   1.736   2.790 -0.3029  0.3997  0.2219
 2747Sol     OW13937   0.442   1.722   3.934 -0.2229 -0.3457 -0.0130
 2747Sol     HW13938   0.406   1.693   4.018  0.9942 -0.4342  0.4925
 2747Sol     HW13939   0.531   1.688   3.934 -0.7510 -1.7766 -2.0861
 2747Sol     MW13940   0.447   1.716   3.942  0.0206  0.4612 -0.3666
 2748Sol     OW13941   0.654   2.968   7.735 -0.6058 -0.1216  1.1512
 2748Sol     HW13942   0.683   3.032   7.670 -0.6361 -1.3154 -0.0759
 2748Sol     HW13943   0.676   2.883   7.696 -1.6253 -0.8968  2.2249
 2748Sol     MW13944   0.659   2.966   7.725  0.2197  0.7935 -0.0147
 2749Sol     OW13945   3.067   1.440   2.170 -0.6740 -0.3945  0.3199
 2749Sol     HW13946   3.059   1.533   2.148 -0.5281 -0.3974  0.2573
 2749Sol     HW13947   3.018   1.395   2.101 -0.4979 -0.3827  0.1885
 2749Sol     MW13948   3.062   1.444   2.162  0.1718  0.9079  0.8299
 2750Sol     OW13949   3.289   2.316   6.038  0.1450 -0.8972  0.2561
 2750Sol     HW13950   3.254   2.227   6.031 -0.2878 -0.7223  0.1926
 2750Sol     HW13951   3.355   2.310   6.108 -0.6280 -1.0331  0.9847
 2750Sol     MW13952   3.292   2.307   6.044  0.1669  0.0570 -0.0648
 2751Sol     OW13953   1.866   0.656   5.792  0.0310 -0.0325  0.0520
 2751Sol     HW13954   1.778   0.623   5.815 -0.1354  1.1017  1.0706
 2751Sol     HW13955   1.925   0.589   5.826 -0.4837 -2.1255 -2.9102
 2751Sol     MW13956   1.863   0.647   5.797 -0.0360 -0.0872  0.1305
 2752Sol     OW13957   0.732   3.067   1.605 -0.2338  0.1357  0.3590
 2752Sol     HW13958   0.698   3.004   1.542 -0.6481 -0.4520  1.1781
 2752Sol     HW13959   0.655   3.109   1.642  0.0270  0.8736  0.0895
 2752Sol     MW13960   0.722   3.066   1.603 -0.7249 -0.4017  0.4198
 2753Sol     OW13961   1.037   2.262   4.189  0.2974 -0.5912 -0.2989
 2753Sol     HW13962   0.956   2.240   4.143  0.0353  0.5173 -0.3920
 2753Sol     HW13963   1.099   2.195   4.161 -1.1599 -2.7037  1.4550
 2753Sol     MW13964   1.036   2.254   4.182 -0.6504 -0.5893 -0.5161
 2754Sol     OW13965   2.374   2.429   3.712  0.4618  0.0703 -0.1166
 2754Sol     HW13966   2.299   2.396   3.663 -0.0830  0.2224  0.6054
 2754Sol     HW13967   2.393   2.362   3.777 -1.5121  1.7110  2.2518
 2754Sol     MW13968   2.369   2.420   3.713  0.0766 -0.1837  0.0459
 2755Sol     OW13969   0.198   1.336   6.635 -0.2555  0.5316 -0.3622
 2755Sol     HW13970   0.177   1.263   6.577 -0.3902 -0.0763  0.4570
 2755Sol     HW13971   0.293   1.330   6.648 -0.1898  0.8054 -0.6981
 2755Sol     MW13972   0.205   1.329   6.631 -0.2945 -0.2852 -0.5068
 2756Sol     OW13973   0.046   1.695   2.971  0.1351 -0.2190  0.0382
 2756Sol     HW13974   0.073   1.613   3.011 -0.3500 -0.1767  0.4622
 2756Sol     HW13975   0.107   1.708   2.898  1.4146  0.0215  1.1391
 2756Sol     MW13976   0.053   1.689   2.968  0.0872 -0.1450 -0.4603
 2757Sol     OW13977   0.592   1.015   9.661 -0.0227 -0.8315  0.6420
 2757Sol     HW13978   0.646   1.002   9.739 -1.5323  2.6061  2.3595
 2757Sol     HW13979   0.648   1.065   9.601 -0.2929  0.2083  1.2484
 2757Sol     MW13980   0.602   1.018   9.663  0.6075  0.3355  0.6719
 2758Sol     OW13981   2.909   0.288   2.190 -0.3720 -0.6667  0.0638
 2758Sol     HW13982   3.001   0.315   2.186 -0.5524 -0.2703 -2.1608
 2758Sol     HW13983   2.877   0.321   2.273  0.9168  1.1605 -0.1554
 2758Sol     MW13984   2.914   0.293   2.197  0.8884  0.2145 -0.4230
 2759Sol     OW13985   2.399   2.482   4.813  0.3101  0.2410 -0.1892
 2759Sol     HW13986   2.449   2.554   4.775  1.5693 -0.2351  0.5103
 2759Sol     HW13987   2.459   2.407   4.808 -0.8964 -0.7013 -0.7055
 2759Sol     MW13988   2.409   2.481   4.810  0.3675 -0.0869 -0.1739
 2760Sol     OW13989   0.220   1.252   5.230  0.0816 -0.0391 -0.1622
 2760Sol     HW13990   0.207   1.163   5.198  1.8919 -0.2091 -0.4613
 2760Sol     HW13991   0.181   1.251   5.318  1.1815 -1.4696  0.3287
 2760Sol     MW13992   0.215   1.244   5.235  0.0142  0.1727 -0.6810
 2761Sol     OW13993   3.081   1.403   5.579 -0.1954  0.6871  0.2046
 2761Sol     HW13994   3.030   1.484   5.578 -0.2602  0.6488 -0.6676
 2761Sol     HW13995   3.160   1.424   5.529 -0.0253  0.3311  0.3232
 2761Sol     MW13996   3.084   1.412   5.574  0.6411 -0.2593  0.0531
 2762Sol     OW13997   2.887   2.590   2.862  0.0268 -0.0673 -0.1725
 2762Sol     HW13998   2.814   2.547   2.818  1.6330  0.3444 -3.3683
 2762Sol     HW13999   2.879   2.682   2.836  2.2975 -0.2127 -1.4912
 2762Sol     MW14000   2.879   2.594   2.856 -0.4660  0.0629 -0.1029
 2763Sol     OW14001   3.193   1.710   7.304 -0.0863  0.1941  0.1986
 2763Sol     HW14002   3.112   1.665   7.329 -0.1133 -2.0459 -3.5579
 2763Sol     HW14003   3.164   1.783   7.249  0.3369  1.2732  1.3611
 2763Sol     MW14004   3.183   1.713   7.301 -0.2504 -0.1412  0.3841
 2764Sol     OW14005   0.379   1.206   4.502  0.7791  0.0199 -0.2794
 2764Sol     HW14006   0.426   1.123   4.489  0.5996 -0.5668  2.3496
 2764Sol     HW14007   0.328   1.191   4.582 -1.8229  1.5671 -1.5930
 2764Sol     MW14008   0.379   1.197   4.508 -0.4691  0.0091  0.2772
 2765Sol     OW14009   0.120   3.279   5.854 -0.5083 -0.4435 -0.0253
 2765Sol     HW14010   0.068   3.348   5.896  0.1938 -0.8074  1.4597
 2765Sol     HW14011   0.207   3.316   5.844 -0.7006 -0.3172 -1.2853
 2765Sol     MW14012   0.123   3.288   5.857 -0.4478  0.2743 -0.2219
 2766Sol     OW14013   0.657   3.346   9.195 -0.1666  0.4000 -0.0345
 2766Sol     HW14014   0.575   3.331   9.146  0.0509  0.5387 -0.4467
 2766Sol     HW14015   0.704   3.263   9.188 -1.2130 -0.4118  2.0446
 2766Sol     MW14016   0.653   3.337   9.190 -0.0127 -0.1177  0.2510
 2767Sol     OW14017   2.462   3.143   6.929  0.1397  0.3060 -0.3521
 2767Sol     HW14018   2.391   3.198   6.897  1.1297  1.3001 -0.8710
 2767Sol     HW14019   2.464   3.068   6.869  0.1185  0.7251 -0.8702
 2767Sol     MW14020   2.456   3.141   6.921 -0.0781  0.0109 -0.2563
 2768Sol     OW14021   1.421   3.124   9.172  0.1572  0.5325  0.0662
 2768Sol     HW14022   1.425   3.047   9.116  0.4464 -0.2546  1.1560
 2768Sol     HW14023   1.426   3.089   9.261  0.6155  1.8235  0.5586
 2768Sol     MW14024   1.422   3.114   9.175 -0.4647  0.3014  0.0674
 2769Sol     OW14025   2.717   0.836   3.512  0.0203 -0.6099  0.2215
 2769Sol     HW14026   2.730   0.812   3.604  4.4172  1.0846  0.1752
 2769Sol     HW14027   2.698   0.929   3.514 -0.0757 -0.6077 -0.5705
 2769Sol     MW14028   2.717   0.842   3.521 -1.2070  0.3492  0.2173
 2770Sol     OW14029   2.480   1.872   7.223  0.4603  0.2195  0.0456
 2770Sol     HW14030   2.493   1.951   7.275 -0.9116  0.5652 -0.1046
 2770Sol     HW14031   2.461   1.904   7.135  0.1418 -0.2837 -0.0734
 2770Sol     MW14032   2.479   1.882   7.220  0.7338 -0.2535  0.1574
 2771Sol     OW14033   1.992   3.348   3.929 -0.0302  0.3380  0.2751
 2771Sol     HW14034   1.968   3.256   3.938  1.2135  0.0578  0.9603
 2771Sol     HW14035   2.064   3.348   3.866 -0.2490  0.8826  0.0216
 2771Sol     MW14036   1.997   3.339   3.924  0.4193 -0.2895 -0.1245
 2772Sol     OW14037   1.009   2.337   7.215 -0.0119  0.1646 -0.0292
 2772Sol     HW14038   0.998   2.378   7.300  1.5175  1.4454 -0.4345
 2772Sol     HW14039   0.971   2.250   7.225 -0.0715  0.3990  1.8805
 2772Sol     MW14040   1.005   2.333   7.223 -0.2584 -0.5730 -0.3280
 2773Sol     OW14041   2.834   2.872   2.857  0.4901  0.4769 -0.0016
 2773Sol     HW14042   2.765   2.901   2.796 -1.1284  1.6978  2.3502
 2773Sol     HW14043   2.872   2.952   2.891  0.4524 -0.1829  1.6221
 2773Sol     MW14044   2.831   2.882   2.854  0.9508 -0.3912  0.2227
 2774Sol     OW14045   2.191   0.605   9.321  0.4192 -0.3604 -0.2496
 2774Sol     HW14046   2.139   0.672   9.277  0.9769  0.2309 -0.0184
 2774Sol     HW14047   2.212   0.542   9.252 -1.4362 -1.1516 -0.1419
 2774Sol     MW14048   2.188   0.605   9.311 -0.3706  0.5443  0.8687
 2775Sol     OW14049   2.027   1.399   8.311  0.7754  0.6971  0.0044
 2775Sol     HW14050   2.091   1.358   8.253 -0.4662  0.0466 -0.9507
 2775Sol     HW14051   2.062   1.486   8.328  2.7193 -0.2284  0.8470
 2775Sol     MW14052   2.035   1.403   8.307  0.3814  0.0532  0.0105
 2776Sol     OW14053   2.918   1.649   7.461  0.0864 -1.0626  0.6062
 2776Sol     HW14054   2.939   1.555   7.465  1.5586 -0.7893 -0.2865
 2776Sol     HW14055   2.824   1.651   7.443 -0.2649 -2.3550  2.1428
 2776Sol     MW14056   2.911   1.640   7.460 -0.2365  0.1543 -0.3398
 2777Sol     OW14057   2.433   0.207   3.177  0.0810 -0.1570  0.1510
 2777Sol     HW14058   2.379   0.231   3.252  0.9826  0.7261  0.5262
 2777Sol     HW14059   2.400   0.121   3.150 -0.8618 -0.0562  0.9774
 2777Sol     MW14060   2.425   0.201   3.182  0.0620  0.0919  0.0215
 2778Sol     OW14061   3.028   2.364   6.188  0.1045 -0.0476 -0.2508
 2778Sol     HW14062   3.114   2.359   6.147  0.5311  1.0565  0.4901
 2778Sol     HW14063   3.046   2.376   6.281 -0.8378  1.0287 -0.2002
 2778Sol     MW14064   3.037   2.365   6.192 -0.4052  0.0736 -0.1445
 2779Sol     OW14065   0.480   1.024   8.538  0.5206 -0.4720  0.2913
 2779Sol     HW14066   0.397   1.033   8.491 -0.6719 -0.8161  2.2635
 2779Sol     HW14067   0.529   1.103   8.516 -1.1472  0.6998  0.6462
 2779Sol     MW14068   0.477   1.032   8.532  0.5157  0.6777 -0.2710
 2780Sol     OW14069   0.198   0.236   6.451  0.0358  0.0762 -0.0552
 2780Sol     HW14070   0.206   0.153   6.404  0.0632  0.4315 -0.6844
 2780Sol     HW14071   0.123   0.224   6.509 -0.1963 -0.2650 -0.4203
 2780Sol     MW14072   0.192   0.228   6.452 -0.5327  0.0330 -0.5306
 2781Sol     OW14073   1.471   0.721   2.262  0.1908  0.3438 -0.3731
 2781Sol     HW14074   1.544   0.708   2.323 -0.7062 -0.3274  0.5671
 2781Sol     HW14075   1.462   0.637   2.218  1.4085  1.0838 -2.0922
 2781Sol     MW14076   1.477   0.712   2.263  0.0471  0.5063 -0.3818
 2782Sol     OW14077   0.895   3.269   3.947  0.4147 -0.2009  0.3384
 2782Sol     HW14078   0.871   3.361   3.950 -1.0862 -0.6254  2.8246
 2782Sol     HW14079   0.813   3.223   3.929  0.8124 -1.1654  0.9165
 2782Sol     MW14080   0.886   3.273   3.946 -0.0796 -0.0390 -0.3478
 2783Sol     OW14081   3.131   0.683   2.380  0.1097 -0.4284  0.2984
 2783Sol     HW14082   3.209   0.709   2.429  0.0012 -3.1581  2.0379
 2783Sol     HW14083   3.059   0.730   2.422  0.4704 -0.0679  0.5103
 2783Sol     MW14084   3.131   0.690   2.388  0.2809 -0.4068 -0.3899
 2784Sol     OW14085   1.590   3.069   8.113 -0.1419 -0.0103 -0.0977
 2784Sol     HW14086   1.548   3.155   8.123 -2.1703 -1.0875  0.8967
 2784Sol     HW14087   1.585   3.030   8.199  0.5057 -1.2635 -0.6249
 2784Sol     MW14088   1.586   3.074   8.121 -0.2541  0.3176  0.9502
 2785Sol     OW14089   2.074   1.009   4.044  0.0597 -0.3073  0.3339
 2785Sol     HW14090   2.119   0.948   3.986  0.3233 -1.8203  2.0799
 2785Sol     HW14091   2.142   1.041   4.103 -0.3955  0.4431  0.4634
 2785Sol     MW14092   2.084   1.006   4.044 -1.2987  0.5145  0.3179
 2786Sol     OW14093   0.380   3.002   4.399  0.1066  0.4298 -0.0762
 2786Sol     HW14094   0.472   2.995   4.425 -0.1341 -0.6606  0.5050
 2786Sol     HW14095   0.361   2.920   4.353 -0.1897  1.2522 -1.4460
 2786Sol     MW14096   0.386   2.994   4.397 -0.2524  0.6604 -0.3579
 2787Sol     OW14097   0.594   1.548   1.651 -0.7621 -0.4658  0.5002
 2787Sol     HW14098   0.515   1.516   1.696 -1.5765 -0.0404 -0.5990
 2787Sol     HW14099   0.581   1.642   1.645 -1.2106 -0.6511 -1.6375
 2787Sol     MW14100   0.586   1.553   1.655  0.6557 -0.0708 -0.2900
 2788Sol     OW14101   2.373   2.096   7.745  0.1856 -0.3199 -0.0382
 2788Sol     HW14102   2.319   2.018   7.731  1.1492 -0.9554 -0.1835
 2788Sol     HW14103   2.322   2.167   7.706 -0.5511 -0.9156 -0.1784
 2788Sol     MW14104   2.363   2.095   7.740  0.3338  0.4292  0.9905
 2789Sol     OW14105   1.403   2.710   8.174  0.1585 -0.3417 -0.3907
 2789Sol     HW14106   1.346   2.649   8.222  0.2441 -0.1867 -0.0921
 2789Sol     HW14107   1.361   2.795   8.183  0.1146 -0.3317 -0.6929
 2789Sol     MW14108   1.394   2.712   8.179  0.3049 -0.0122 -0.1592
 2790Sol     OW14109   0.140   2.091   1.974 -0.0855 -0.0970 -0.1616
 2790Sol     HW14110   0.127   2.089   2.069 -0.1412  0.3095 -0.1601
 2790Sol     HW14111   0.053   2.105   1.938  0.2554  2.1088 -0.1712
 2790Sol     MW14112   0.131   2.092   1.979  0.4293 -0.0149  0.0186
 2791Sol     OW14113   0.006   2.879   5.200  0.1095 -0.0210 -0.0402
 2791Sol     HW14114  -0.040   2.951   5.243 -0.8978  0.5050 -1.9449
 2791Sol     HW14115  -0.044   2.801   5.225 -0.7310  0.3342 -0.5556
 2791Sol     MW14116  -0.003   2.878   5.206  0.3227  0.1003  1.0559
 2792Sol     OW14117   2.530   1.528   9.257 -0.5245  0.2706 -0.8661
 2792Sol     HW14118   2.505   1.505   9.167 -1.4823  0.0869 -0.5551
 2792Sol     HW14119   2.449   1.519   9.307 -0.2304  1.3552 -0.1722
 2792Sol     MW14120   2.520   1.525   9.253 -0.0548 -0.2382  1.1252
 2793Sol     OW14121   2.928   2.988   6.750  0.2043  0.1398  0.3620
 2793Sol     HW14122   2.850   3.024   6.707  0.1478 -0.1195  0.2462
 2793Sol     HW14123   2.911   2.894   6.756  0.0314  0.2253  1.3321
 2793Sol     MW14124   2.919   2.983   6.747 -0.5220  0.6566  0.5302
 2794Sol     OW14125   2.900   2.747   5.222 -0.2259  0.1099  0.3330
 2794Sol     HW14126   2.947   2.753   5.304 -0.7662  1.6870  0.5364
 2794Sol     HW14127   2.808   2.755   5.246 -0.3868  0.5899 -0.4265
 2794Sol     MW14128   2.896   2.748   5.231 -0.9562  0.0348  0.6263
 2795Sol     OW14129   0.807   1.493   4.254 -0.7150 -0.1239  0.2995
 2795Sol     HW14130   0.779   1.414   4.301 -0.5043  0.2882  1.1236
 2795Sol     HW14131   0.879   1.463   4.198  0.7770 -0.1086  2.1677
 2795Sol     MW14132   0.811   1.483   4.253  0.1455 -0.0959  0.0160
 2796Sol     OW14133   1.851   1.906   3.818  0.1519 -0.0481  0.0405
 2796Sol     HW14134   1.836   1.963   3.893 -0.2558  1.2639 -1.0188
 2796Sol     HW14135   1.896   1.830   3.854 -0.5406  0.3235  1.6939
 2796Sol     MW14136   1.854   1.904   3.828 -0.2382  0.1600 -0.6779
 2797Sol     OW14137   1.595   2.728   8.959  0.1725 -0.4059 -0.1644
 2797Sol     HW14138   1.656   2.800   8.972  1.1591 -0.9203 -1.8198
 2797Sol     HW14139   1.558   2.743   8.872 -1.1446 -0.7820  0.3176
 2797Sol     MW14140   1.597   2.736   8.952 -0.4391 -0.5683  0.6124
 2798Sol     OW14141   2.383   0.388   1.698  0.4071 -0.3831  0.2922
 2798Sol     HW14142   2.471   0.396   1.662  0.3958  0.5797  0.4878
 2798Sol     HW14143   2.366   0.293   1.697  2.2353 -0.7633  2.1740
 2798Sol     MW14144   2.389   0.380   1.694  0.0722 -0.8569 -0.0607
 2799Sol     OW14145   2.550   2.255   4.787  0.2462 -0.4183  0.2795
 2799Sol     HW14146   2.568   2.207   4.868  2.2111 -1.7225 -0.9045
 2799Sol     HW14147   2.487   2.199   4.740  1.6697 -1.3297 -0.5846
 2799Sol     MW14148   2.546   2.245   4.790  0.0239 -0.3787  0.4396
 2800Sol     OW14149   1.727   0.244   3.220  0.0491  0.8766 -0.1996
 2800Sol     HW14150   1.687   0.299   3.288 -1.3103  1.2046 -1.2401
 2800Sol     HW14151   1.664   0.174   3.204  1.1674 -0.2259  0.1437
 2800Sol     MW14152   1.718   0.243   3.224  0.2171  0.4936  0.3571
 2801Sol     OW14153   1.388   0.432   3.058 -0.1553  0.0978 -0.0883
 2801Sol     HW14154   1.322   0.387   3.111 -1.3166  3.4324  1.3960
 2801Sol     HW14155   1.338   0.482   2.994  1.1011 -0.1324 -1.2781
 2801Sol     MW14156   1.378   0.432   3.057 -0.3677  0.0939  0.0640
 2802Sol     OW14157   1.695   1.092   1.593  0.3901  0.1225 -0.3752
 2802Sol     HW14158   1.770   1.050   1.637 -1.2743 -2.1288  0.3830
 2802Sol     HW14159   1.697   1.183   1.625  2.3886 -0.0781  0.1583
 2802Sol     MW14160   1.702   1.097   1.600  0.2806  0.3227  0.3498
 2803Sol     OW14161   0.530   1.741   7.915 -0.1468 -0.2257  0.5294
 2803Sol     HW14162   0.599   1.772   7.856 -0.6105 -0.9574 -0.4028
 2803Sol     HW14163   0.531   1.646   7.907 -1.9681 -0.2045 -0.3065
 2803Sol     MW14164   0.536   1.735   7.909  0.0256  0.1360 -0.4051
 2804Sol     OW14165   1.126   1.567   9.569  0.1330 -0.2850 -0.1626
 2804Sol     HW14166   1.215   1.587   9.595 -0.2352  0.1559  0.8025
 2804Sol     HW14167   1.103   1.635   9.505  0.8364 -1.0095 -1.1854
 2804Sol     MW14168   1.132   1.575   9.566 -0.2408  0.0602 -0.0011
 2805Sol     OW14169   1.231   3.375   5.807 -0.2591  0.1630  0.0233
 2805Sol     HW14170   1.326   3.389   5.808 -0.0830 -0.8800 -0.5995
 2805Sol     HW14171   1.194   3.453   5.846  0.8891  0.4209  0.6008
 2805Sol     MW14172   1.236   3.383   5.810  0.6365  0.3841 -0.3093
 2806Sol     OW14173   1.935   1.631   7.493  0.2964  0.4433  0.0318
 2806Sol     HW14174   1.878   1.680   7.553  1.0016  0.3310  0.8073
 2806Sol     HW14175   2.023   1.639   7.532  0.5704 -0.6379 -0.3445
 2806Sol     MW14176   1.938   1.636   7.502 -0.0144 -0.3903 -0.2173
 2807Sol     OW14177   1.484   0.441   8.856  0.0255 -0.3455  0.6272
 2807Sol     HW14178   1.437   0.463   8.776  0.6658  0.4889  0.4734
 2807Sol     HW14179   1.416   0.419   8.919 -0.4369 -2.1556 -0.4736
 2807Sol     MW14180   1.474   0.441   8.854 -0.0076 -0.4132  0.2666
 2808Sol     OW14181   2.949   0.661   5.169  0.6123  0.2082  0.0752
 2808Sol     HW14182   3.005   0.643   5.244 -1.1779 -1.0152  1.1640
 2808Sol     HW14183   3.009   0.666   5.094  2.0205 -2.6409  0.9577
 2808Sol     MW14184   2.959   0.660   5.169 -0.5864  0.3029 -0.1343
 2809Sol     OW14185   1.634   3.182   6.226 -0.2242  0.2234  0.0149
 2809Sol     HW14186   1.623   3.095   6.266 -2.3542  0.2212 -0.5403
 2809Sol     HW14187   1.669   3.163   6.138  1.6239  0.0762  0.7606
 2809Sol     MW14188   1.636   3.172   6.221 -0.2323 -0.1719 -0.2886
 2810Sol     OW14189   2.733   3.380   8.506 -0.2406  0.1512  0.8731
 2810Sol     HW14190   2.667   3.313   8.487  0.3364 -0.4641  1.0092
 2810Sol     HW14191   2.683   3.460   8.520 -0.9245 -0.2001  0.4645
 2810Sol     MW14192   2.723   3.381   8.505 -0.1040  0.5215 -0.0822
 2811Sol     OW14193   2.032   0.846   9.255 -0.5696 -0.3693  0.2162
 2811Sol     HW14194   1.995   0.934   9.249  1.1508  0.3226 -0.6827
 2811Sol     HW14195   2.004   0.802   9.175  0.5121  0.1504 -0.4592
 2811Sol     MW14196   2.026   0.850   9.248 -0.6921 -0.5742 -0.6271
 2812Sol     OW14197   0.258   0.814   6.282  0.5165  0.0926 -0.1931
 2812Sol     HW14198   0.324   0.777   6.340 -0.1466  4.0851  3.3788
 2812Sol     HW14199   0.304   0.884   6.235 -0.3867  0.8611  0.0468
 2812Sol     MW14200   0.268   0.817   6.283 -0.4175 -0.5302  0.1592
 2813Sol     OW14201   2.486   0.712   3.090  0.1303  0.1495  0.2744
 2813Sol     HW14202   2.473   0.807   3.080 -0.0917  0.0323 -0.5983
 2813Sol     HW14203   2.533   0.703   3.173 -0.7471  0.9565  0.8836
 2813Sol     MW14204   2.489   0.720   3.097 -0.6670  0.7320 -0.4530
 2814Sol     OW14205   0.351   2.198   8.030 -0.9392  0.6582  0.3309
 2814Sol     HW14206   0.363   2.175   7.938 -1.4229  1.3213  0.0943
 2814Sol     HW14207   0.436   2.178   8.070 -0.7572  0.2636 -0.2335
 2814Sol     MW14208   0.360   2.195   8.025 -0.0263  0.7594  0.5861
 2815Sol     OW14209   0.676   2.546   3.188  0.4657  0.0156  0.2592
 2815Sol     HW14210   0.630   2.541   3.272  1.3818 -1.8730  0.6506
 2815Sol     HW14211   0.744   2.612   3.202 -0.1506  0.5947  0.6011
 2815Sol     MW14212   0.678   2.552   3.197 -0.3084  0.3563  0.1280
 2816Sol     OW14213   2.066   2.344   2.490 -0.7662  0.1166 -0.2723
 2816Sol     HW14214   2.162   2.342   2.490 -0.7411  1.1080  0.8086
 2816Sol     HW14215   2.042   2.353   2.582 -1.8967  0.1187 -0.5661
 2816Sol     MW14216   2.072   2.345   2.498 -0.3614  0.3301 -0.5152
 2817Sol     OW14217   2.582   2.645   5.086  0.3046 -0.3116  0.1333
 2817Sol     HW14218   2.604   2.677   5.173  1.5044 -2.1491  0.5240
 2817Sol     HW14219   2.628   2.704   5.026 -0.4855  0.9217  0.7092
 2817Sol     MW14220   2.588   2.653   5.088 -0.2094  0.1783 -0.0422
 2818Sol     OW14221   1.718   1.328   9.378 -0.1460 -0.5749 -0.2760
 2818Sol     HW14222   1.642   1.379   9.349 -0.5920 -0.1730  1.5259
 2818Sol     HW14223   1.717   1.336   9.474  1.4591 -1.5865 -0.1564
 2818Sol     MW14224   1.711   1.333   9.384  0.3099 -0.0622 -0.0851
 2819Sol     OW14225   2.631   2.222   2.885 -0.1860  0.3632 -0.3750
 2819Sol     HW14226   2.718   2.185   2.873 -0.1983  0.4569 -0.7743
 2819Sol     HW14227   2.624   2.239   2.978 -0.0014 -0.2083 -0.2555
 2819Sol     MW14228   2.638   2.220   2.892  0.2158 -0.0850  0.1950
 2820Sol     OW14229   2.241   0.754   7.924  0.0506  0.4159  0.1922
 2820Sol     HW14230   2.227   0.662   7.903  2.6465  0.1503 -0.5606
 2820Sol     HW14231   2.309   0.753   7.990 -0.1275  1.7840  0.4053
 2820Sol     MW14232   2.246   0.746   7.928 -0.3748 -0.2348 -0.1014
 2821Sol     OW14233   1.555   0.291   2.263  0.2800 -0.1864 -0.1805
 2821Sol     HW14234   1.544   0.321   2.353 -0.1143  0.4019 -0.4163
 2821Sol     HW14235   1.646   0.310   2.241  0.0680  0.7258 -0.2826
 2821Sol     MW14236   1.562   0.295   2.269 -0.3239 -0.5162 -0.0882
 2822Sol     OW14237   3.187   2.747   1.806 -0.0516 -0.3276 -0.0134
 2822Sol     HW14238   3.253   2.812   1.781  0.5240 -1.4646 -1.4845
 2822Sol     HW14239   3.108   2.799   1.824  0.8984  0.9394  0.6153
 2822Sol     MW14240   3.186   2.758   1.806  0.6204  0.1567  0.2448
 2823Sol     OW14241   2.062   0.225   6.180 -0.0588  0.3742 -0.3448
 2823Sol     HW14242   2.081   0.189   6.094  1.4897 -1.0664  0.5733
 2823Sol     HW14243   1.978   0.186   6.205 -0.2725  0.4204 -0.9994
 2823Sol     MW14244   2.056   0.218   6.175 -0.3317  0.7438 -0.2722
 2824Sol     OW14245   0.871   2.260   3.948 -0.0102 -0.4144 -0.4789
 2824Sol     HW14246   0.934   2.307   3.893  0.5901 -0.8445 -0.1665
 2824Sol     HW14247   0.800   2.322   3.962  1.1102  0.6703  0.5213
 2824Sol     MW14248   0.871   2.270   3.944  0.0677 -0.0305  0.3462
 2825Sol     OW14249   2.724   1.832   5.229 -0.1921  0.1547 -0.5188
 2825Sol     HW14250   2.720   1.896   5.300 -0.2125  1.5050 -1.6957
 2825Sol     HW14251   2.738   1.748   5.272  0.6238  1.0622  1.0142
 2825Sol     MW14252   2.725   1.831   5.239 -0.1392  0.2065  0.4217
 2826Sol     OW14253   1.106   0.716   2.805  0.0524 -0.0509 -0.1080
 2826Sol     HW14254   1.092   0.677   2.719  1.0685 -0.3320 -0.1607
 2826Sol     HW14255   1.099   0.810   2.791 -2.3545 -0.1911  0.0067
 2826Sol     MW14256   1.104   0.721   2.796  0.6117  0.2198 -0.0874
 2827Sol     OW14257   0.163   0.410   6.228  0.2974  0.3917  0.0139
 2827Sol     HW14258   0.094   0.463   6.268 -0.3482 -0.3810 -0.0613
 2827Sol     HW14259   0.198   0.358   6.301 -0.4730 -0.5829 -0.3146
 2827Sol     MW14260   0.160   0.410   6.238 -0.6745 -0.1312 -0.2203
 2828Sol     OW14261   2.665   0.518   2.008 -0.2360  0.0685  0.1142
 2828Sol     HW14262   2.755   0.497   1.980 -0.1578 -0.2192  0.5745
 2828Sol     HW14263   2.633   0.438   2.048 -1.2944 -0.3502 -1.5234
 2828Sol     MW14264   2.671   0.509   2.009 -0.1544 -0.0950 -0.0121
 2829Sol     OW14265   1.574   2.734   4.475 -0.5271 -0.0798  0.3900
 2829Sol     HW14266   1.645   2.680   4.441 -0.1113  1.0732 -0.5835
 2829Sol     HW14267   1.539   2.683   4.548 -0.3670 -1.8270 -0.7185
 2829Sol     MW14268   1.577   2.724   4.479  0.1255  0.3663  0.4105
 2830Sol     OW14269   1.401   2.509   4.350  0.7780  0.2199  0.2354
 2830Sol     HW14270   1.459   2.564   4.403 -0.0115  0.6259  0.6749
 2830Sol     HW14271   1.315   2.519   4.390  0.4261 -0.4907 -0.3418
 2830Sol     MW14272   1.399   2.515   4.358  0.0521 -0.3267  0.1637
 2831Sol     OW14273   1.607   0.482   1.925 -0.0191 -0.3444  0.0495
 2831Sol     HW14274   1.701   0.489   1.910 -0.0319  0.2686  0.2508
 2831Sol     HW14275   1.574   0.439   1.847  0.5899 -1.6557  0.4938
 2831Sol     MW14276   1.613   0.479   1.917 -0.2076 -0.0967 -0.2590
 2832Sol     OW14277   2.647   3.103   9.692 -0.1567 -0.2211 -0.0272
 2832Sol     HW14278   2.630   3.071   9.781 -2.4802 -1.1013 -0.7489
 2832Sol     HW14279   2.672   3.195   9.704 -2.5903  0.2911  1.3752
 2832Sol     MW14280   2.648   3.108   9.701 -0.1975  0.1356  0.2872
 2833Sol     OW14281   0.330   1.320   2.987 -0.2455 -0.0201  0.4628
 2833Sol     HW14282   0.347   1.376   2.911  1.2373  0.7838  1.3506
 2833Sol     HW14283   0.253   1.359   3.028 -0.5782  0.0175 -0.1920
 2833Sol     MW14284   0.325   1.329   2.984  0.4598  0.6444 -0.4487
 2834Sol     OW14285   1.833   0.357   2.265 -0.0454 -0.0421  0.1589
 2834Sol     HW14286   1.822   0.451   2.276  0.5493  0.1361 -0.6777
 2834Sol     HW14287   1.878   0.328   2.344  1.3477  0.6794 -0.3339
 2834Sol     MW14288   1.836   0.363   2.273 -0.5133  0.2772 -0.5332
 2835Sol     OW14289   0.054   0.861   8.120  1.0280 -0.2124 -0.2444
 2835Sol     HW14290   0.146   0.843   8.141  1.6916  0.5045 -2.4183
 2835Sol     HW14291   0.044   0.955   8.135  1.3761  0.2138 -2.5130
 2835Sol     MW14292   0.061   0.868   8.123 -0.3161  0.4430 -0.1735
 2836Sol     OW14293   1.719   1.624   8.403 -0.2166  0.1475  0.1452
 2836Sol     HW14294   1.665   1.579   8.468  2.1454 -0.7721  1.5314
 2836Sol     HW14295   1.717   1.567   8.327 -4.0011  1.8214 -1.1140
 2836Sol     MW14296   1.714   1.615   8.402 -0.2068 -0.0581 -0.4169
 2837Sol     OW14297   1.981   1.718   3.935  0.3716  0.4846  0.1519
 2837Sol     HW14298   2.072   1.715   3.906  0.2913 -0.0038 -0.0664
 2837Sol     HW14299   1.944   1.634   3.906 -0.0556  0.5368  0.5353
 2837Sol     MW14300   1.985   1.710   3.930 -0.3979  0.0321  0.2289
 2838Sol     OW14301   0.930   1.727   1.494 -1.1406  0.4121  0.8327
 2838Sol     HW14302   0.889   1.650   1.455 -0.3035 -0.5337  1.8071
 2838Sol     HW14303   1.024   1.716   1.477 -0.9599  0.9118  1.4882
 2838Sol     MW14304   0.935   1.719   1.489  1.1025 -0.3644 -0.0890
 2839Sol     OW14305   0.029   1.242   7.128 -0.3545  0.2618 -0.4086
 2839Sol     HW14306   0.008   1.336   7.130 -1.6121 -0.0111  0.2894
 2839Sol     HW14307   0.062   1.227   7.040 -0.4618  1.2957 -0.6411
 2839Sol     MW14308   0.030   1.249   7.120 -0.0247  0.6331  0.6328
 2840Sol     OW14309   2.625   1.754   7.848 -0.4375  0.2773 -0.2310
 2840Sol     HW14310   2.702   1.783   7.897 -0.3984  0.2825 -0.2964
 2840Sol     HW14311   2.651   1.670   7.810 -0.5917  0.0952  0.0590
 2840Sol     MW14312   2.634   1.749   7.849  0.0043  0.2509 -0.2325
 2841Sol     OW14313   1.109   2.198   2.491  0.4271  0.4174  0.2285
 2841Sol     HW14314   1.026   2.165   2.526  1.3937 -0.7624  1.4734
 2841Sol     HW14315   1.091   2.289   2.468 -1.0989  0.2970  0.8803
 2841Sol     MW14316   1.100   2.203   2.492  0.4404 -0.2254  0.6278
 2842Sol     OW14317   0.894   0.341   7.481 -0.1893 -0.0545  0.8428
 2842Sol     HW14318   0.881   0.312   7.571  1.2544 -0.1792  1.0174
 2842Sol     HW14319   0.969   0.290   7.450 -0.3735  0.3429 -0.2732
 2842Sol     MW14320   0.899   0.334   7.486 -0.1037 -0.4428  0.0035
 2843Sol     OW14321   2.213   3.105   9.365  0.1099 -0.0315  0.2607
 2843Sol     HW14322   2.261   3.110   9.449  1.9562 -0.8534 -0.7093
 2843Sol     HW14323   2.239   3.186   9.319  0.0952 -0.1891 -0.0231
 2843Sol     MW14324   2.220   3.113   9.369 -0.0632  1.2594  0.6715
 2844Sol     OW14325   1.274   2.424   7.115  0.3572 -0.0122 -0.3197
 2844Sol     HW14326   1.218   2.456   7.186 -1.0511  0.7767 -1.7529
 2844Sol     HW14327   1.316   2.503   7.080  1.6785 -0.4961  0.1693
 2844Sol     MW14328   1.273   2.434   7.118  0.0997  0.2025 -0.2590
 2845Sol     OW14329   2.203   2.217   4.948 -0.6581 -0.3845  0.0217
 2845Sol     HW14330   2.224   2.194   5.039  2.2745 -0.5773 -0.6553
 2845Sol     HW14331   2.206   2.313   4.946 -2.8952 -0.2754  0.5826
 2845Sol     MW14332   2.206   2.223   4.956 -0.5230  0.3207  0.7321
 2846Sol     OW14333   3.019   1.994   1.722 -0.4905  0.2517  0.2807
 2846Sol     HW14334   3.073   2.073   1.719 -0.6562  0.3460 -0.3107
 2846Sol     HW14335   2.948   2.012   1.661 -0.1088 -0.6635 -0.4504
 2846Sol     MW14336   3.018   2.003   1.716 -0.8877 -0.3484  0.5673
 2847Sol     OW14337   0.405   3.061   7.818  0.2556 -0.2193 -0.1160
 2847Sol     HW14338   0.494   3.034   7.795  0.6490  0.5047  0.5312
 2847Sol     HW14339   0.362   2.980   7.846  1.2602 -0.2880  1.2703
 2847Sol     MW14340   0.409   3.051   7.819 -0.6726 -0.5166  0.0320
 2848Sol     OW14341   2.285   2.171   9.165  0.0272  0.1455  0.1018
 2848Sol     HW14342   2.344   2.244   9.184 -0.3197  0.0812  1.5184
 2848Sol     HW14343   2.262   2.182   9.073  0.6891  1.3096  0.0605
 2848Sol     MW14344   2.288   2.179   9.159 -0.6940 -0.7074  0.0851
 2849Sol     OW14345   1.302   0.125   9.492  0.2068 -0.5701 -0.5178
 2849Sol     HW14346   1.346   0.197   9.538  0.1951 -0.7021 -0.2996
 2849Sol     HW14347   1.297   0.155   9.401  0.2185 -0.3026 -0.4316
 2849Sol     MW14348   1.306   0.134   9.488  0.2703 -0.5478 -0.7567
 2850Sol     OW14349   2.876   1.195   9.529  0.0165 -0.5589 -0.5916
 2850Sol     HW14350   2.810   1.226   9.467  0.7101  1.1626 -0.5209
 2850Sol     HW14351   2.829   1.135   9.586 -1.1373 -0.5149 -1.4720
 2850Sol     MW14352   2.866   1.193   9.529  0.2753  0.0589 -0.4696
 2851Sol     OW14353   1.230   1.746   4.647  0.3612  0.0089  0.8283
 2851Sol     HW14354   1.137   1.722   4.652  0.9689 -3.0367 -1.4451
 2851Sol     HW14355   1.236   1.801   4.568  0.4610  0.5259  1.1892
 2851Sol     MW14356   1.222   1.749   4.640 -0.0929 -0.0290 -0.0309
 2852Sol     OW14357   0.716   2.238   5.140 -0.1559  0.3927  0.5719
 2852Sol     HW14358   0.804   2.204   5.122 -0.8332 -0.8967 -0.4136
 2852Sol     HW14359   0.679   2.177   5.204 -0.2733  1.0478  1.1363
 2852Sol     MW14360   0.721   2.229   5.144  0.4044  0.2852 -0.1734
 2853Sol     OW14361   2.966   0.751   6.649 -0.1541 -0.0912  0.1179
 2853Sol     HW14362   3.023   0.827   6.664  1.0187 -1.1702  1.2584
 2853Sol     HW14363   2.899   0.758   6.717 -0.3371  0.1908 -0.0906
 2853Sol     MW14364   2.965   0.759   6.657 -0.4829  0.4594  0.6002
 2854Sol     OW14365   0.235   0.697   9.222 -0.0445  0.0747  0.0287
 2854Sol     HW14366   0.325   0.665   9.214  0.1623  0.2589  1.5998
 2854Sol     HW14367   0.210   0.676   9.311 -0.9945  1.5081  0.1098
 2854Sol     MW14368   0.241   0.692   9.229 -0.8282 -0.4438 -0.5088
 2855Sol     OW14369   3.264   2.284   8.312  0.6289  0.3202  0.1005
 2855Sol     HW14370   3.322   2.356   8.334  1.2866  0.0090 -0.5950
 2855Sol     HW14371   3.284   2.216   8.377  1.6951 -0.1295 -0.6748
 2855Sol     MW14372   3.271   2.284   8.320 -0.4924  0.6093 -0.8816
 2856Sol     OW14373   2.726   0.250   3.172 -0.2698  0.7321  0.5286
 2856Sol     HW14374   2.742   0.194   3.248 -0.4882 -0.2924 -0.1605
 2856Sol     HW14375   2.640   0.223   3.139  0.1554  0.6277 -0.5255
 2856Sol     MW14376   2.720   0.243   3.176 -0.4150  0.7301  0.3456
 2857Sol     OW14377   3.040   2.185   3.569  0.1352  0.1211  0.2117
 2857Sol     HW14378   3.028   2.191   3.664  0.3193 -0.5858  0.2793
 2857Sol     HW14379   3.015   2.272   3.537 -1.3148 -0.0730  0.7631
 2857Sol     MW14380   3.036   2.194   3.575  0.6991  0.1800  0.2779
 2858Sol     OW14381   1.415   1.159   1.867 -0.2886 -0.1527  0.0151
 2858Sol     HW14382   1.352   1.099   1.907  0.7415 -1.9681 -1.0104
 2858Sol     HW14383   1.404   1.145   1.773 -0.9780  2.2899 -0.3093
 2858Sol     MW14384   1.408   1.153   1.862  0.5591  0.0095  0.2674
 2859Sol     OW14385   1.657   0.606   5.250  0.4877  0.2347 -0.6591
 2859Sol     HW14386   1.624   0.690   5.220 -2.2839 -0.5243  0.1862
 2859Sol     HW14387   1.582   0.548   5.248  2.1261 -1.9757 -0.2024
 2859Sol     MW14388   1.648   0.608   5.247  0.2105  0.3873  0.1339
 2860Sol     OW14389   2.644   0.015   7.308  0.4688 -0.2003 -0.2510
 2860Sol     HW14390   2.554   0.049   7.306 -0.2400 -2.1148 -1.5134
 2860Sol     HW14391   2.640  -0.068   7.261  2.6980 -0.8357  0.6219
 2860Sol     MW14392   2.636   0.011   7.304 -0.2102  0.1557 -0.3567
 2861Sol     OW14393   1.398   2.955   4.101  0.4996 -0.0259 -1.2273
 2861Sol     HW14394   1.417   2.861   4.097 -1.3828 -0.4103 -1.6608
 2861Sol     HW14395   1.440   2.985   4.182 -1.1540 -1.7965  0.3275
 2861Sol     MW14396   1.404   2.949   4.108 -0.1865  0.0205 -0.0919
 2862Sol     OW14397   2.596   2.038   2.469  0.0207  0.5632 -0.1830
 2862Sol     HW14398   2.541   1.994   2.534  1.4118 -1.8361 -0.5845
 2862Sol     HW14399   2.564   2.005   2.385  0.2974  1.2554 -0.5696
 2862Sol     MW14400   2.588   2.031   2.467  0.5991 -0.0391 -0.0812
 2863Sol     OW14401   0.167   2.574   3.148  0.1785  0.9339 -0.2290
 2863Sol     HW14402   0.218   2.618   3.216 -0.4702 -0.1452  0.9946
 2863Sol     HW14403   0.214   2.492   3.131 -0.9369  0.0796  0.6862
 2863Sol     MW14404   0.175   2.571   3.153 -0.0868  0.5563 -0.4013
 2864Sol     OW14405   2.543   2.409   5.539 -0.2764  0.1402 -0.0765
 2864Sol     HW14406   2.451   2.404   5.513 -0.5363  0.3979  0.7702
 2864Sol     HW14407   2.579   2.481   5.487 -0.4600 -0.1866 -0.6656
 2864Sol     MW14408   2.538   2.415   5.532 -0.1946  0.3753  0.4205
 2865Sol     OW14409   0.438   0.376   9.193 -0.1824 -0.0068 -0.0780
 2865Sol     HW14410   0.483   0.310   9.246 -1.7775 -0.7463  0.3800
 2865Sol     HW14411   0.482   0.458   9.216  1.4142 -0.8044 -0.1940
 2865Sol     MW14412   0.446   0.378   9.200 -0.0846 -0.6269 -0.5726
 2866Sol     OW14413   2.056   2.928   8.113 -0.6587 -0.0868  0.4379
 2866Sol     HW14414   2.139   2.880   8.106  0.5117  1.9195  0.0433
 2866Sol     HW14415   2.059   2.968   8.200 -0.0157  2.0380 -0.5119
 2866Sol     MW14416   2.064   2.928   8.120 -0.3351  0.0055 -0.3351
 2867Sol     OW14417   2.783   1.595   5.338 -0.0413 -0.0380 -0.0352
 2867Sol     HW14418   2.838   1.612   5.414 -1.9764  2.0868  0.9349
 2867Sol     HW14419   2.742   1.511   5.356  2.6850 -1.5731 -0.6974
 2867Sol     MW14420   2.785   1.589   5.346 -0.1756  0.0825 -0.0557
 2868Sol     OW14421   2.422   0.249   7.000 -0.3553 -0.5819  0.1671
 2868Sol     HW14422   2.418   0.156   6.978 -0.8247 -0.4313 -0.4005
 2868Sol     HW14423   2.488   0.255   7.069  0.3891 -1.2023 -0.4835
 2868Sol     MW14424   2.427   0.242   7.004 -0.2990  0.0255 -1.0544
 2869Sol     OW14425   1.773   0.402   1.497  0.0858  0.0140 -0.4357
 2869Sol     HW14426   1.754   0.331   1.436 -2.0562  0.8180 -0.7277
 2869Sol     HW14427   1.730   0.479   1.460 -2.0105  0.3408  2.4876
 2869Sol     MW14428   1.768   0.403   1.488 -0.1967  0.1235 -0.1660
 2870Sol     OW14429   0.620   2.065   4.190 -0.2079 -0.2541  0.1326
 2870Sol     HW14430   0.584   2.112   4.115 -1.9575 -0.3689  0.8927
 2870Sol     HW14431   0.629   2.132   4.258  2.0399 -0.0011 -0.3805
 2870Sol     MW14432   0.618   2.075   4.189 -0.2969 -0.3439 -0.0492
 2871Sol     OW14433   0.865   2.687   8.997  0.5882  0.1208  0.6742
 2871Sol     HW14434   0.866   2.783   8.993  3.3741  0.0589 -1.2269
 2871Sol     HW14435   0.814   2.661   8.920 -0.5170  0.0536  1.4153
 2871Sol     MW14436   0.861   2.694   8.990 -0.3083 -0.7035  0.3626
 2872Sol     OW14437   3.063   0.808   3.072  0.2652 -0.0334  0.3323
 2872Sol     HW14438   3.004   0.848   3.008  1.8065 -0.0801 -1.1260
 2872Sol     HW14439   3.020   0.825   3.156 -1.5171  0.4900 -0.6438
 2872Sol     MW14440   3.054   0.813   3.074 -0.6641 -0.0747  0.5310
 2873Sol     OW14441   0.164   1.968   8.145  0.2389  0.2554 -0.2958
 2873Sol     HW14442   0.234   2.028   8.118 -0.1305  1.1318  0.6520
 2873Sol     HW14443   0.085   2.004   8.105 -0.1245  0.9124  0.9835
 2873Sol     MW14444   0.163   1.977   8.139  0.2779 -0.7353 -0.5395
 2874Sol     OW14445   3.094   0.289   8.675 -0.3021  0.1730 -0.8689
 2874Sol     HW14446   3.130   0.373   8.645  0.9156 -0.5475 -1.4567
 2874Sol     HW14447   3.160   0.225   8.651 -0.0474 -0.6470  1.8409
 2874Sol     MW14448   3.103   0.291   8.670  0.3155 -1.3775  0.6035
 2875Sol     OW14449   2.777   2.802   6.398  0.0869 -0.0651  0.6275
 2875Sol     HW14450   2.780   2.725   6.455 -0.5032  0.4337  1.3469
 2875Sol     HW14451   2.744   2.769   6.314  0.1463 -0.6513  0.8318
 2875Sol     MW14452   2.774   2.792   6.396 -0.0078 -0.2005  0.2049
 2876Sol     OW14453   3.271   2.990   5.587 -0.3876  0.0516 -0.3962
 2876Sol     HW14454   3.230   2.987   5.500 -1.3570 -1.7627  0.1173
 2876Sol     HW14455   3.342   3.053   5.577 -0.9408  0.4086 -2.3149
 2876Sol     MW14456   3.273   2.996   5.578  0.5583 -0.1170  0.0273
 2877Sol     OW14457   2.505   2.441   1.832  0.2911  0.2230 -0.0812
 2877Sol     HW14458   2.487   2.365   1.776 -0.1830  1.1802 -1.2609
 2877Sol     HW14459   2.599   2.436   1.848  0.0550 -1.3349  0.9462
 2877Sol     MW14460   2.512   2.434   1.828 -0.0811 -0.1760  0.1819
 2878Sol     OW14461   0.643   0.581   1.785  0.5480  0.4696 -0.0382
 2878Sol     HW14462   0.599   0.529   1.717  1.1837 -0.4056  0.2173
 2878Sol     HW14463   0.571   0.612   1.841  0.2667 -1.3038  0.6216
 2878Sol     MW14464   0.632   0.579   1.784  0.2199 -0.1825 -0.2749
 2879Sol     OW14465   0.479   3.009   3.937  0.0488 -0.0139  0.5782
 2879Sol     HW14466   0.502   2.971   4.022  0.5285  0.0077  0.4578
 2879Sol     HW14467   0.552   3.067   3.916  0.4121 -0.7789 -0.3181
 2879Sol     MW14468   0.487   3.010   3.943  0.1203  0.3762 -0.7176
 2880Sol     OW14469   1.339   2.970   7.505 -0.2841 -0.0131 -0.0222
 2880Sol     HW14470   1.280   3.046   7.509 -0.3607 -0.0144 -1.0126
 2880Sol     HW14471   1.307   2.920   7.431  1.1342  0.1126 -0.7283
 2880Sol     MW14472   1.331   2.973   7.499 -0.1885  0.4137  0.1738
 2881Sol     OW14473   1.180   1.581   5.918  0.1275 -0.2085  0.1983
 2881Sol     HW14474   1.206   1.566   5.827 -0.1035 -2.2486  0.4285
 2881Sol     HW14475   1.262   1.584   5.967  0.2021 -0.5697  0.1016
 2881Sol     MW14476   1.190   1.580   5.915  0.2784 -0.7182 -0.9126
 2882Sol     OW14477   0.901   0.059   8.628  0.1201  0.4949 -0.1461
 2882Sol     HW14478   0.954   0.100   8.560 -0.4434  1.3137 -0.1047
 2882Sol     HW14479   0.962   0.046   8.701 -0.0832  2.9885  0.5192
 2882Sol     MW14480   0.911   0.062   8.629  0.3593  0.2383  0.2653
 2883Sol     OW14481   2.826   2.923   4.035  0.4960  0.1661  0.0453
 2883Sol     HW14482   2.861   2.863   4.100  0.8862  0.6713  0.3121
 2883Sol     HW14483   2.742   2.886   4.009  0.8872 -0.6591 -0.0341
 2883Sol     MW14484   2.822   2.915   4.038  0.0815  0.4387  0.3093
 2884Sol     OW14485   0.755   2.905   4.893 -0.1611 -0.6173 -0.4614
 2884Sol     HW14486   0.750   2.864   4.979 -0.0544  0.9228  0.2968
 2884Sol     HW14487   0.842   2.881   4.860 -0.6006 -2.0662 -0.5963
 2884Sol     MW14488   0.762   2.899   4.898 -0.5826 -0.0015 -0.6498
 2885Sol     OW14489   1.336   1.752   7.251  0.4463  0.0338  0.2269
 2885Sol     HW14490   1.352   1.734   7.344  0.1753  1.1482  0.4978
 2885Sol     HW14491   1.254   1.707   7.231  1.6300 -2.0800 -0.0609
 2885Sol     MW14492   1.330   1.747   7.257 -0.3228  0.0679 -0.3336
 2886Sol     OW14493   1.137   2.779   5.376  0.3431  0.2995  0.5245
 2886Sol     HW14494   1.132   2.695   5.331 -0.1000  1.1155 -0.9862
 2886Sol     HW14495   1.214   2.772   5.432  0.6942 -0.8762 -0.0988
 2886Sol     MW14496   1.144   2.771   5.377  0.2374  0.0272 -1.1194
 2887Sol     OW14497   0.060   2.130   2.234 -0.6180 -0.8094  0.1895
 2887Sol     HW14498   0.018   2.045   2.253 -0.0671 -0.7422  1.8303
 2887Sol     HW14499  -0.012   2.193   2.236 -0.8184 -1.0430  0.4121
 2887Sol     MW14500   0.050   2.128   2.236 -0.0991 -0.0930  0.0018
 2888Sol     OW14501   3.220   2.033   7.529  0.1680  0.1653  0.2312
 2888Sol     HW14502   3.223   2.112   7.582  0.5084 -0.1436  0.6775
 2888Sol     HW14503   3.180   1.967   7.586  1.6368 -0.4879  0.5249
 2888Sol     MW14504   3.217   2.034   7.539 -0.2095  0.1503 -0.4846
 2889Sol     OW14505   1.179   1.343   5.414  0.2837 -0.5627 -0.3907
 2889Sol     HW14506   1.245   1.275   5.427  1.6683  0.6145 -1.1305
 2889Sol     HW14507   1.150   1.365   5.503  1.8298 -0.1917  0.0409
 2889Sol     MW14508   1.182   1.339   5.423  0.6176 -0.0187  0.2259
 2890Sol     OW14509   0.616   1.450   2.668  0.2818 -0.4263  0.6367
 2890Sol     HW14510   0.546   1.480   2.726  0.7586 -0.6350  1.3241
 2890Sol     HW14511   0.615   1.355   2.676  1.3691 -0.3665  1.5003
 2890Sol     MW14512   0.609   1.444   2.674 -0.2268  0.4992 -0.1465
 2891Sol     OW14513   1.183   2.132   6.938  0.9791  0.1110 -0.6933
 2891Sol     HW14514   1.207   2.207   6.884  0.3003 -0.7570 -2.2236
 2891Sol     HW14515   1.117   2.085   6.887  2.1735 -2.1291 -0.2562
 2891Sol     MW14516   1.179   2.135   6.929 -0.1244 -0.1120  0.0140
 2892Sol     OW14517   0.169   1.121   9.879  0.6706 -0.3384 -0.1512
 2892Sol     HW14518   0.204   1.078   9.801  1.7865 -0.2628  0.3058
 2892Sol     HW14519   0.101   1.062   9.911 -0.1588 -0.1211 -1.4844
 2892Sol     MW14520   0.166   1.112   9.875  0.6582 -0.5557 -0.0131
 2893Sol     OW14521   0.584   2.107   3.707  0.1820 -0.3045  0.3017
 2893Sol     HW14522   0.540   2.034   3.663 -0.1869 -0.4088  0.8364
 2893Sol     HW14523   0.659   2.067   3.751 -0.6191 -0.5606  1.4879
 2893Sol     MW14524   0.586   2.097   3.707  0.0098  0.2326 -0.3322
 2894Sol     OW14525   0.689   2.720   7.584 -0.3286 -0.2253  0.2369
 2894Sol     HW14526   0.693   2.771   7.503 -3.5798 -1.3780 -0.7450
 2894Sol     HW14527   0.776   2.680   7.591  0.1230  0.1712 -2.5125
 2894Sol     MW14528   0.697   2.721   7.577 -0.7220 -0.0194 -0.0133
 2895Sol     OW14529   2.199   1.665   8.095 -0.6427 -0.2550  0.4778
 2895Sol     HW14530   2.204   1.633   8.185  2.0806  0.1992  0.5314
 2895Sol     HW14531   2.278   1.719   8.084 -1.2861  0.2637 -1.9628
 2895Sol     MW14532   2.206   1.667   8.102  0.8163 -0.4905 -0.1047
 2896Sol     OW14533   2.620   1.518   7.694  0.6082 -0.8155 -0.2918
 2896Sol     HW14534   2.565   1.440   7.707 -1.2409  0.5953  0.5361
 2896Sol     HW14535   2.574   1.568   7.626  1.5420 -0.2050 -0.4809
 2896Sol     MW14536   2.611   1.515   7.689  0.2212 -0.0857  0.0012
 2897Sol     OW14537   1.076   0.371   6.919 -0.1427 -0.4818 -0.5853
 2897Sol     HW14538   1.150   0.311   6.910 -0.2348 -0.5438 -0.9533
 2897Sol     HW14539   1.050   0.389   6.829  0.1481  0.4373 -0.4935
 2897Sol     MW14540   1.081   0.367   6.910  0.2201 -0.5589  0.4420
 2898Sol     OW14541   0.968   2.832   7.432  0.0849 -0.1668 -0.6810
 2898Sol     HW14542   0.958   2.918   7.391 -2.2389  0.4165  1.0103
 2898Sol     HW14543   0.907   2.775   7.384  0.8404 -0.6345 -1.1031
 2898Sol     MW14544   0.961   2.834   7.424 -0.5590  0.1402 -0.5474
 2899Sol     OW14545   0.594   0.547   6.047  0.0932  0.5782  0.0837
 2899Sol     HW14546   0.548   0.463   6.042  0.4119  0.3909  0.2753
 2899Sol     HW14547   0.654   0.537   6.120  0.6014  0.7430 -0.3068
 2899Sol     MW14548   0.595   0.539   6.053  0.0244  0.3562 -0.5159
 2900Sol     OW14549   0.510   0.742   6.700 -0.0471  0.3257  0.5670
 2900Sol     HW14550   0.534   0.833   6.716 -0.0805  0.7898 -1.8440
 2900Sol     HW14551   0.589   0.692   6.721  1.1442  1.2725 -1.4903
 2900Sol     MW14552   0.519   0.745   6.703 -0.3297 -0.2754  0.3442
 2901Sol     OW14553   2.171   0.354   6.967 -0.5361 -0.2091 -0.1635
 2901Sol     HW14554   2.136   0.272   6.934  0.4177 -0.6799 -0.0341
 2901Sol     HW14555   2.258   0.331   7.000  0.4475  1.1748 -1.6918
 2901Sol     MW14556   2.176   0.345   6.967 -0.5190 -0.1655  0.3444
 2902Sol     OW14557   0.078   1.600   4.969 -0.1324 -0.5462  0.2026
 2902Sol     HW14558   0.048   1.513   4.942  1.1750 -0.4484 -1.6692
 2902Sol     HW14559   0.162   1.584   5.012 -0.5742 -0.3445  1.1507
 2902Sol     MW14560   0.083   1.590   4.970  0.3828 -0.9965  0.6341
 2903Sol     OW14561   2.647   0.406   1.631  0.2036 -0.0474  0.0866
 2903Sol     HW14562   2.683   0.494   1.641 -3.0052  1.0680  2.9554
 2903Sol     HW14563   2.689   0.354   1.699 -0.6092  0.2574  0.8385
 2903Sol     MW14564   2.654   0.409   1.638  0.7925  0.1884 -0.4072
 2904Sol     OW14565   0.022   0.258   6.055 -0.3897 -0.0125  0.1089
 2904Sol     HW14566   0.085   0.299   6.114 -0.0472 -1.0129  0.4553
 2904Sol     HW14567   0.007   0.323   5.987  1.0108  0.2578  0.0287
 2904Sol     MW14568   0.027   0.267   6.054 -0.1512 -0.7819  0.1235
 2905Sol     OW14569   3.110   2.039   7.778  0.2750 -0.4721  0.3267
 2905Sol     HW14570   3.083   1.947   7.771  0.9791 -0.6201 -0.5465
 2905Sol     HW14571   3.034   2.089   7.750 -0.9855 -0.6844  3.1517
 2905Sol     MW14572   3.101   2.035   7.775  0.4204  0.2273 -0.2277
 2906Sol     OW14573   0.532   0.440   7.763 -0.1821 -0.1406  0.1321
 2906Sol     HW14574   0.464   0.407   7.822 -0.5560 -0.0299 -0.2381
 2906Sol     HW14575   0.540   0.373   7.696 -0.4432  0.1825 -0.2284
 2906Sol     MW14576   0.526   0.431   7.763 -0.0226  0.4589 -0.0020
 2907Sol     OW14577   0.153   0.616   5.858 -0.0132  0.2175  0.0817
 2907Sol     HW14578   0.231   0.640   5.909 -0.7834  1.7980  0.5792
 2907Sol     HW14579   0.081   0.626   5.921 -0.7691  0.3210 -0.8007
 2907Sol     MW14580   0.153   0.619   5.868  0.0944 -0.0308  0.5136
 2908Sol     OW14581   2.366   2.234   1.719 -0.0382 -0.1327  0.1052
 2908Sol     HW14582   2.328   2.174   1.784 -1.1728 -1.7119 -1.9626
 2908Sol     HW14583   2.374   2.181   1.640  1.2993  1.7829 -1.0688
 2908Sol     MW14584   2.364   2.224   1.718 -1.2450  0.3403 -0.5796
 2909Sol     OW14585   0.847   1.561   2.792  0.3126  0.0671 -0.1332
 2909Sol     HW14586   0.862   1.547   2.886 -1.9252  1.6028  0.4871
 2909Sol     HW14587   0.765   1.514   2.774  0.5388  0.0927 -1.2595
 2909Sol     MW14588   0.841   1.555   2.799  0.0580  0.1792  0.5381
 2910Sol     OW14589   1.532   2.891   5.636 -0.3904  0.1012  0.2988
 2910Sol     HW14590   1.519   2.980   5.604 -0.4082  0.1361  0.4036
 2910Sol     HW14591   1.458   2.841   5.600 -0.5912  0.2118  0.5578
 2910Sol     MW14592   1.524   2.894   5.630  0.3204 -0.1328  0.6586
 2911Sol     OW14593   0.680   2.115   7.468  0.2496  0.0524  0.6052
 2911Sol     HW14594   0.761   2.167   7.472  0.4842 -0.3335  0.9462
 2911Sol     HW14595   0.612   2.179   7.449  0.3379  0.7102  2.3929
 2911Sol     MW14596   0.681   2.125   7.467  0.0216  0.6032 -0.9246
 2912Sol     OW14597   0.854   0.616   2.031 -0.9343  0.9924  0.4145
 2912Sol     HW14598   0.812   0.694   1.995 -0.9073 -0.1885 -2.2455
 2912Sol     HW14599   0.933   0.605   1.980  0.4335  0.7032  2.5295
 2912Sol     MW14600   0.857   0.622   2.023 -0.8943 -0.3429  0.2211
 2913Sol     OW14601   0.526   2.512   1.855 -0.5193  0.6291 -0.0190
 2913Sol     HW14602   0.557   2.576   1.919  2.4002  2.3221 -2.9915
 2913Sol     HW14603   0.561   2.428   1.885 -0.5697  1.1172  1.4363
 2913Sol     MW14604   0.532   2.510   1.863 -0.2924 -1.2839  0.5140
 2914Sol     OW14605   0.797   2.866   3.452 -0.0877 -0.2089  0.0375
 2914Sol     HW14606   0.709   2.832   3.471  0.3998 -1.1664  0.6767
 2914Sol     HW14607   0.782   2.955   3.421 -1.3368 -0.6118 -0.5842
 2914Sol     MW14608   0.787   2.871   3.451  0.1297  0.3840 -0.5862
 2915Sol     OW14609   2.948   1.921   3.198 -0.3031  0.2393  0.2707
 2915Sol     HW14610   2.971   1.828   3.202 -0.7920  0.0752 -0.4525
 2915Sol     HW14611   2.944   1.940   3.104 -3.5180  0.1364  0.3324
 2915Sol     MW14612   2.950   1.914   3.190  0.1087  0.2320  0.4613
 2916Sol     OW14613   1.025   2.983   6.911  0.2627 -0.1395  0.2372
 2916Sol     HW14614   0.979   2.899   6.911  0.3585 -0.1908 -0.3324
 2916Sol     HW14615   0.985   3.033   6.841  1.5751 -0.4545 -0.7586
 2916Sol     MW14616   1.017   2.980   6.905 -0.1435 -0.6826  0.2470
 2917Sol     OW14617   2.461   2.886   2.031 -0.2145  0.5561 -0.1033
 2917Sol     HW14618   2.488   2.843   1.950  0.8468  1.8886 -0.4901
 2917Sol     HW14619   2.388   2.941   2.005  0.4267  1.3413 -0.2677
 2917Sol     MW14620   2.457   2.887   2.021  0.3122 -0.0949  0.5998
 2918Sol     OW14621   1.344   2.579   2.345  0.0645  0.0606 -0.2011
 2918Sol     HW14622   1.352   2.637   2.421 -2.2396  0.0164  0.0975
 2918Sol     HW14623   1.416   2.516   2.356  0.0414  0.3283  1.7033
 2918Sol     MW14624   1.351   2.578   2.353  0.3705  0.1706  0.0936
 2919Sol     OW14625   1.578   2.375   4.914 -0.1219 -0.1307  0.2790
 2919Sol     HW14626   1.501   2.392   4.968  0.4595 -0.3789  1.1999
 2919Sol     HW14627   1.579   2.279   4.902 -1.5475  0.1019 -2.1425
 2919Sol     MW14628   1.571   2.368   4.917  0.8712  0.2494  0.2678
 2920Sol     OW14629   1.608   0.983   3.053  0.2565  0.4402  0.1946
 2920Sol     HW14630   1.658   0.922   3.108  2.2105  0.1369 -1.8773
 2920Sol     HW14631   1.599   0.939   2.969 -1.0761  1.6967 -0.3513
 2920Sol     MW14632   1.612   0.974   3.051  0.3015  0.2573  0.1845
 2921Sol     OW14633   1.845   2.883   4.936 -0.0085 -0.5098 -0.1781
 2921Sol     HW14634   1.768   2.934   4.909  0.4369 -0.3090 -1.0794
 2921Sol     HW14635   1.908   2.948   4.966 -0.0013 -0.6403  0.0947
 2921Sol     MW14636   1.843   2.893   4.936 -0.0550  0.7488 -0.1140
 2922Sol     OW14637   0.887   3.225   8.172 -0.0675 -0.1435 -0.2415
 2922Sol     HW14638   0.795   3.203   8.159  0.1305 -2.2447  1.6513
 2922Sol     HW14639   0.917   3.163   8.239  2.5834  0.8499 -0.4728
 2922Sol     MW14640   0.881   3.218   8.177 -0.0407  0.4979 -0.5931
 2923Sol     OW14641   0.031   2.050   9.221 -0.0951 -0.4514  0.0334
 2923Sol     HW14642   0.047   1.959   9.197 -1.3135 -0.2334 -1.7664
 2923Sol     HW14643   0.011   2.093   9.138  1.3613  1.6686  0.7465
 2923Sol     MW14644   0.030   2.046   9.212  0.2304 -0.0996 -0.2760
 2924Sol     OW14645   0.465   1.224   7.769  0.4015  0.4068  0.1364
 2924Sol     HW14646   0.553   1.190   7.752 -0.6022 -2.2743 -0.0296
 2924Sol     HW14647   0.446   1.280   7.694  0.4819 -2.1662 -1.8934
 2924Sol     MW14648   0.471   1.226   7.761 -0.2786  0.0578 -0.9282
 2925Sol     OW14649   1.540   1.396   1.842  0.6456  0.2724  0.4045
 2925Sol     HW14650   1.554   1.430   1.930 -0.5694  0.4836  0.5285
 2925Sol     HW14651   1.470   1.332   1.852  1.9098 -1.2046 -0.0727
 2925Sol     MW14652   1.535   1.393   1.851  0.1432 -0.7861 -0.7515
 2926Sol     OW14653   0.530   1.298   7.138  0.7198  0.2363  0.5725
 2926Sol     HW14654   0.476   1.220   7.152  1.3025 -0.0768  1.1129
 2926Sol     HW14655   0.555   1.327   7.226  2.5401 -0.4283  0.2967
 2926Sol     MW14656   0.528   1.293   7.147  0.4054  0.1436  0.0442
 2927Sol     OW14657   2.101   1.352   5.737 -0.5586 -0.5611 -0.2539
 2927Sol     HW14658   2.070   1.262   5.727 -0.7359 -0.5157 -0.1055
 2927Sol     HW14659   2.160   1.348   5.812 -2.0762 -0.1629  0.9742
 2927Sol     MW14660   2.104   1.343   5.743 -0.0474  0.1813 -0.3782
 2928Sol     OW14661   0.305   1.480   2.289 -0.0947 -0.2829 -0.0729
 2928Sol     HW14662   0.231   1.422   2.270 -0.3160  0.0226 -0.1583
 2928Sol     HW14663   0.352   1.486   2.206  1.1020 -1.9733  0.4536
 2928Sol     MW14664   0.303   1.475   2.280 -0.6009 -0.7286 -0.3816
 2929Sol     OW14665   0.508   2.366   4.659 -0.5933 -0.0653  0.2425
 2929Sol     HW14666   0.454   2.287   4.658  1.8800 -1.8053 -0.6058
 2929Sol     HW14667   0.546   2.369   4.747 -0.5235  0.0826  0.2082
 2929Sol     MW14668   0.507   2.360   4.667  0.2178 -0.3012 -0.5272
 2930Sol     OW14669   0.761   2.445   5.328  0.3183  0.2284  0.2788
 2930Sol     HW14670   0.763   2.410   5.239  1.1708 -2.1570  1.1975
 2930Sol     HW14671   0.668   2.466   5.343 -0.0167 -0.4613 -0.7513
 2930Sol     MW14672   0.753   2.444   5.321  0.3643 -0.0849  0.1497
 2931Sol     OW14673   1.156   2.521   5.686  0.7101  0.0092  0.4365
 2931Sol     HW14674   1.155   2.458   5.758 -0.3045  0.7154  1.0649
 2931Sol     HW14675   1.073   2.505   5.640  0.9550  0.1461 -0.0493
 2931Sol     MW14676   1.148   2.514   5.689 -0.0581 -0.8502 -0.3242
 2932Sol     OW14677   2.202   3.188   5.631 -0.4502  0.5110 -0.5566
 2932Sol     HW14678   2.215   3.213   5.723  3.6729  1.0245 -1.2016
 2932Sol     HW14679   2.203   3.272   5.584 -0.4003  0.0875 -1.3088
 2932Sol     MW14680   2.203   3.198   5.635  0.3648  0.0347 -0.0607
 2933Sol     OW14681   3.093   3.247   3.776  0.0507  0.0364  0.1807
 2933Sol     HW14682   3.176   3.198   3.778  0.7842  1.2942  1.2266
 2933Sol     HW14683   3.047   3.213   3.699  2.1058  0.2696 -1.1715
 2933Sol     MW14684   3.096   3.239   3.770  0.2966  0.3611  0.3383
 2934Sol     OW14685   0.527   2.691   6.801  0.3001 -0.0859 -0.1848
 2934Sol     HW14686   0.494   2.653   6.720  0.4923 -0.4681 -0.0842
 2934Sol     HW14687   0.601   2.746   6.773 -0.8055  1.2624 -0.4808
 2934Sol     MW14688   0.531   2.693   6.791  0.1888  0.4317 -0.2851
 2935Sol     OW14689   0.150   1.827   7.160 -0.3332 -0.1573 -0.0563
 2935Sol     HW14690   0.080   1.802   7.220  0.0074 -0.1958  0.3334
 2935Sol     HW14691   0.142   1.767   7.086 -1.8705  1.0358 -0.8869
 2935Sol     MW14692   0.143   1.820   7.159  0.1928 -0.0422  0.4077
 2936Sol     OW14693   0.268   0.418   2.684 -0.0912  0.3904  0.1539
 2936Sol     HW14694   0.215   0.448   2.758 -0.3765 -1.0947  0.5506
 2936Sol     HW14695   0.224   0.453   2.607 -0.8519  0.3471  0.5688
 2936Sol     MW14696   0.260   0.424   2.684 -0.1420 -0.4089 -0.2586
 2937Sol     OW14697   2.402   2.356   7.414 -0.1101  0.6069 -0.4498
 2937Sol     HW14698   2.352   2.366   7.495  0.7595 -2.3551  0.5189
 2937Sol     HW14699   2.346   2.394   7.346 -0.9310  2.9457  1.4850
 2937Sol     MW14700   2.392   2.360   7.415 -0.1974 -0.4696 -0.3187
 2938Sol     OW14701   1.360   1.682   7.517  0.1858  0.3044 -0.3769
 2938Sol     HW14702   1.385   1.724   7.599  1.9078  0.9216 -1.1987
 2938Sol     HW14703   1.418   1.606   7.510  0.5929  0.6978 -1.3962
 2938Sol     MW14704   1.367   1.679   7.524  0.3464 -0.3555 -0.3888
 2939Sol     OW14705   1.398   1.811   9.233 -0.7315  0.1680  0.1134
 2939Sol     HW14706   1.366   1.862   9.308  1.9098  0.1237  1.3459
 2939Sol     HW14707   1.439   1.734   9.273 -0.9880 -0.8452 -1.5236
 2939Sol     MW14708   1.399   1.809   9.244 -0.1368  0.2225  0.0566
 2940Sol     OW14709   2.375   2.375   2.420 -0.3018  0.8532 -0.2544
 2940Sol     HW14710   2.343   2.449   2.472 -1.4801  0.1441  0.0481
 2940Sol     HW14711   2.376   2.407   2.330 -2.1540  0.8159 -0.3128
 2940Sol     MW14712   2.372   2.384   2.417 -0.3519  0.1820  0.8418
 2941Sol     OW14713   0.857   3.108   8.429 -0.3417 -0.3591  0.0057
 2941Sol     HW14714   0.930   3.061   8.470  2.4772  0.2118 -3.9987
 2941Sol     HW14715   0.816   3.044   8.371  0.3318  0.6662 -1.6641
 2941Sol     MW14716   0.860   3.098   8.427 -0.0428 -0.2548 -0.1524
 2942Sol     OW14717   2.192   0.957   7.533 -0.1979  0.4708 -0.3782
 2942Sol     HW14718   2.248   0.950   7.610 -1.6578  0.4798  0.7008
 2942Sol     HW14719   2.151   0.871   7.525  0.1913  0.3661 -1.3504
 2942Sol     MW14720   2.194   0.949   7.539 -0.4602  0.2645  0.4699
 2943Sol     OW14721   1.016   0.681   8.856  0.2114  0.1211 -0.3622
 2943Sol     HW14722   1.041   0.696   8.765 -0.8606  0.3510 -0.6214
 2943Sol     HW14723   1.099   0.661   8.901  0.5515 -1.5038 -1.6811
 2943Sol     MW14724   1.026   0.680   8.852  0.0905 -0.1569  0.4091
 2944Sol     OW14725   0.416   0.871   1.991  0.2408  0.1176 -0.4710
 2944Sol     HW14726   0.354   0.882   1.918  1.2833  2.0703 -1.1009
 2944Sol     HW14727   0.378   0.921   2.063  0.2781 -0.0216 -0.3548
 2944Sol     MW14728   0.407   0.877   1.991 -0.7298  1.5503  0.2364
 2945Sol     OW14729   1.502   2.412   8.055  0.1497 -0.5187  0.0924
 2945Sol     HW14730   1.469   2.484   8.109  1.6583  0.2304  0.0388
 2945Sol     HW14731   1.572   2.373   8.107  0.5886 -0.7528 -0.6587
 2945Sol     MW14732   1.505   2.415   8.064  0.1850 -0.1718  0.6391
 2946Sol     OW14733   1.506   1.035   7.859  0.2077 -0.4198 -0.0157
 2946Sol     HW14734   1.502   0.986   7.941  0.9385  1.8775  1.4106
 2946Sol     HW14735   1.578   0.995   7.811 -0.1573 -1.7015  0.4697
 2946Sol     MW14736   1.512   1.027   7.862 -0.3215  0.7942 -0.9028
 2947Sol     OW14737   2.442   2.457   1.440 -0.1801  0.9681 -0.5116
 2947Sol     HW14738   2.407   2.497   1.361 -0.8181  1.8043  0.1841
 2947Sol     HW14739   2.366   2.418   1.483  0.1656  0.5051 -0.3223
 2947Sol     MW14740   2.432   2.457   1.437  0.2657 -0.3467  0.2699
 2948Sol     OW14741   2.446   1.894   2.667 -0.0394 -0.2443  0.2433
 2948Sol     HW14742   2.373   1.834   2.652 -0.5779 -0.0999  2.0596
 2948Sol     HW14743   2.407   1.981   2.658 -0.1239 -0.1664  1.2837
 2948Sol     MW14744   2.436   1.896   2.665 -0.2471  0.3395  0.1494
 2949Sol     OW14745   0.143   0.990   5.157  0.3674  0.1583  0.3685
 2949Sol     HW14746   0.058   0.973   5.117  0.6775  0.2190 -0.3280
 2949Sol     HW14747   0.158   0.916   5.216 -0.3542  0.3611  0.8120
 2949Sol     MW14748   0.137   0.982   5.159  0.6462  0.1164  0.3371
 2950Sol     OW14749   1.484   3.218   2.716  0.6709 -0.3403 -0.7685
 2950Sol     HW14750   1.464   3.185   2.804  0.3509 -1.1894 -1.1605
 2950Sol     HW14751   1.574   3.250   2.723 -0.1221  1.6959  0.4721
 2950Sol     MW14752   1.490   3.218   2.725  0.3115  0.3030 -0.4552
 2951Sol     OW14753   2.244   1.979   4.817  0.3714  0.1034 -1.0849
 2951Sol     HW14754   2.230   2.058   4.869  1.9668 -0.0626 -0.3699
 2951Sol     HW14755   2.287   2.010   4.737  2.7618 -0.2148  0.0255
 2951Sol     MW14756   2.246   1.989   4.814  0.2453  0.0039 -0.9648
 2952Sol     OW14757   0.012   0.719   6.615 -0.5120 -0.7183 -0.7915
 2952Sol     HW14758  -0.038   0.639   6.630  0.1908 -1.1626 -0.7904
 2952Sol     HW14759   0.080   0.718   6.683  0.8406 -1.2239 -2.1245
 2952Sol     MW14760   0.014   0.712   6.623 -0.7981 -0.3234  0.1771
 2953Sol     OW14761   0.070   2.324   7.341 -0.2985 -0.0104  0.4389
 2953Sol     HW14762   0.137   2.272   7.297 -1.6349 -0.9846 -0.4897
 2953Sol     HW14763   0.064   2.287   7.429 -0.6473 -0.8914  0.0512
 2953Sol     MW14764   0.075   2.316   7.345 -0.2536 -0.0528  0.0502
 2954Sol     OW14765   3.007   0.023   1.945 -0.5125 -0.0616 -0.0028
 2954Sol     HW14766   2.915   0.025   1.970 -0.7842 -2.0737 -0.7558
 2954Sol     HW14767   3.009  -0.030   1.865  1.5340 -1.6096  1.0231
 2954Sol     MW14768   2.999   0.019   1.940 -0.2312 -0.2141 -0.5220
 2955Sol     OW14769   3.010   2.949   5.667  0.0658 -0.2815  0.5643
 2955Sol     HW14770   3.098   2.975   5.637  0.0001 -0.0871  0.5378
 2955Sol     HW14771   2.962   3.032   5.675  0.0507 -0.3415  1.1113
 2955Sol     MW14772   3.014   2.959   5.665  0.3044  0.3472  1.0801
 2956Sol     OW14773   0.503   2.368   7.383  0.3518 -0.2835  0.1885
 2956Sol     HW14774   0.527   2.361   7.290  0.0017 -1.4014  0.1689
 2956Sol     HW14775   0.421   2.417   7.383  0.5572  0.0633 -0.0592
 2956Sol     MW14776   0.498   2.371   7.374  0.2583  0.3581  0.2624
 2957Sol     OW14777   1.577   0.797   3.435 -0.2792  0.9167  0.7728
 2957Sol     HW14778   1.576   0.778   3.341 -0.5695  0.8714  0.7847
 2957Sol     HW14779   1.558   0.891   3.442  1.0827  1.2073  0.7195
 2957Sol     MW14780   1.575   0.804   3.428  0.4526  0.5803 -0.2086
 2958Sol     OW14781   0.878   3.022   4.083 -0.4477 -0.2029  0.5747
 2958Sol     HW14782   0.925   2.958   4.029  1.6780 -0.1133  2.2289
 2958Sol     HW14783   0.911   3.107   4.053 -1.3277 -0.0108  0.1466
 2958Sol     MW14784   0.885   3.024   4.076 -0.3565  0.4980 -0.6178
 2959Sol     OW14785   1.140   1.726   3.604 -0.1145  0.3457 -0.0342
 2959Sol     HW14786   1.138   1.701   3.696  0.0079 -0.0418 -0.1369
 2959Sol     HW14787   1.052   1.761   3.587 -0.2272  0.1597  0.1602
 2959Sol     MW14788   1.132   1.727   3.611 -1.0205  1.1187  0.0035
 2960Sol     OW14789   1.427   1.773   2.812  0.0495  0.1843  0.3387
 2960Sol     HW14790   1.350   1.830   2.821  0.3446  0.4768  1.1034
 2960Sol     HW14791   1.465   1.797   2.728 -1.4942 -0.9601 -0.6948
 2960Sol     MW14792   1.423   1.780   2.806  0.9373  0.5685 -0.4528
 2961Sol     OW14793   2.996   1.702   5.941  0.1087 -0.0793 -0.0985
 2961Sol     HW14794   2.990   1.752   6.022  1.2396  1.8986 -1.1759
 2961Sol     HW14795   2.905   1.691   5.913 -0.1595  2.2725 -0.3154
 2961Sol     MW14796   2.987   1.706   5.945 -0.1474  0.5427  0.0029
 2962Sol     OW14797   0.721   2.013   1.847 -0.0097 -0.8566 -0.5092
 2962Sol     HW14798   0.724   1.927   1.891 -0.4663 -0.1453  0.9414
 2962Sol     HW14799   0.803   2.017   1.798  1.5731 -0.7517  2.0535
 2962Sol     MW14800   0.729   2.005   1.847 -0.1441  0.0225  0.1454
 2963Sol     OW14801   2.622   0.658   5.526 -0.1941  0.3075  0.9031
 2963Sol     HW14802   2.663   0.638   5.610  0.4646  0.0227  0.5251
 2963Sol     HW14803   2.675   0.729   5.490  0.4136 -0.5201  0.1048
 2963Sol     MW14804   2.630   0.662   5.530  0.1071 -0.3816  0.2445
 2964Sol     OW14805   2.478   0.292   6.727 -0.7581 -0.5268 -0.0959
 2964Sol     HW14806   2.452   0.283   6.819 -0.7766  2.6769  0.2820
 2964Sol     HW14807   2.443   0.378   6.701  2.3387  0.2348 -1.9791
 2964Sol     MW14808   2.473   0.299   6.733 -0.0421 -0.2335  0.5899
 2965Sol     OW14809   2.031   3.333   4.852 -0.2672  0.4251 -0.0222
 2965Sol     HW14810   1.976   3.408   4.875  0.5363  1.1293 -0.3685
 2965Sol     HW14811   2.118   3.371   4.840  0.1418 -0.5706 -0.1862
 2965Sol     MW14812   2.034   3.343   4.853 -0.1609 -0.9663 -0.3314
 2966Sol     OW14813   1.593   2.909   6.328  0.9781 -0.7075  0.6696
 2966Sol     HW14814   1.656   2.894   6.257  1.8048 -1.0753  1.4769
 2966Sol     HW14815   1.640   2.884   6.407 -0.0293 -0.5243  1.3262
 2966Sol     MW14816   1.603   2.905   6.329 -0.1108 -0.2656 -0.4038
 2967Sol     OW14817   2.387   2.915   9.125  0.1148 -0.0654 -0.1743
 2967Sol     HW14818   2.296   2.888   9.140 -0.0165  0.1833 -0.5228
 2967Sol     HW14819   2.384   3.011   9.129  0.4663 -0.0774  0.4125
 2967Sol     MW14820   2.378   2.921   9.127 -0.2860  0.4750 -0.7392
 2968Sol     OW14821   0.810   1.454   6.089 -0.1242  0.2993  0.1024
 2968Sol     HW14822   0.733   1.508   6.107 -0.2413  0.7018 -1.5753
 2968Sol     HW14823   0.780   1.364   6.103 -0.0714  0.5896  2.3718
 2968Sol     MW14824   0.800   1.450   6.092  0.0181  0.2049  0.4402
 2969Sol     OW14825   3.138   0.925   5.977 -0.2752 -0.1601  0.4494
 2969Sol     HW14826   3.112   0.858   5.913  0.3999 -0.1732  0.1822
 2969Sol     HW14827   3.232   0.910   5.990 -0.2321  0.4062  0.7782
 2969Sol     MW14828   3.144   0.918   5.972 -0.2968 -0.1701 -0.6009
 2970Sol     OW14829   0.522   2.514   3.431  0.3966  0.2254  0.2013
 2970Sol     HW14830   0.484   2.437   3.474  0.5130  0.4629  0.7370
 2970Sol     HW14831   0.552   2.569   3.503 -2.0002  1.9666 -0.0848
 2970Sol     MW14832   0.521   2.512   3.441  1.0542 -0.5327  1.1033
 2971Sol     OW14833   0.102   1.163   6.458 -0.1300  0.0535  0.1534
 2971Sol     HW14834   0.151   1.192   6.381 -0.4006  2.2182  0.7626
 2971Sol     HW14835   0.109   1.067   6.456  0.3694  0.1063 -2.2089
 2971Sol     MW14836   0.107   1.157   6.451 -0.0597 -0.1805  0.0555
 2972Sol     OW14837   0.376   2.849   5.732  0.0747  0.0668 -0.2477
 2972Sol     HW14838   0.383   2.882   5.643 -1.9519  0.4332 -0.2934
 2972Sol     HW14839   0.326   2.916   5.779  0.4350 -0.4953  0.9660
 2972Sol     MW14840   0.372   2.858   5.728  0.8205 -0.2845  0.6960
 2973Sol     OW14841   1.045   0.951   6.413 -0.2069 -0.4467  0.4703
 2973Sol     HW14842   1.005   1.020   6.466 -0.8673 -0.4547 -0.0127
 2973Sol     HW14843   0.983   0.937   6.342  0.3189 -0.9655  0.1135
 2973Sol     MW14844   1.036   0.956   6.412  0.2394 -0.0995 -0.8297
 2974Sol     OW14845   1.370   1.064   5.988  0.2151  0.2233 -0.9513
 2974Sol     HW14846   1.418   1.136   5.947  0.3391 -0.6346 -2.3588
 2974Sol     HW14847   1.308   1.108   6.047  0.8816  1.4465 -1.1392
 2974Sol     MW14848   1.368   1.075   5.989 -0.2796  0.3917  0.0112
 2975Sol     OW14849   2.619   2.044   3.765  0.2584  0.1978 -0.0729
 2975Sol     HW14850   2.642   2.042   3.672  0.9794 -2.1154  0.1491
 2975Sol     HW14851   2.700   2.069   3.809  0.9839 -2.6009  0.2456
 2975Sol     MW14852   2.628   2.046   3.761  0.4429 -0.2926 -0.1663
 2976Sol     OW14853   2.228   1.685   3.858  0.2901  0.1021 -0.1192
 2976Sol     HW14854   2.259   1.640   3.780 -0.2887  0.3686 -0.5072
 2976Sol     HW14855   2.291   1.661   3.926  1.0280  0.1836 -0.7553
 2976Sol     MW14856   2.237   1.679   3.857 -0.0324 -0.2939  0.1346
 2977Sol     OW14857   1.460   0.206   5.405 -0.1084  0.3700  0.5190
 2977Sol     HW14858   1.443   0.231   5.496 -1.4993 -1.6500  0.8458
 2977Sol     HW14859   1.544   0.160   5.407 -1.7164 -2.6582  1.3959
 2977Sol     MW14860   1.466   0.204   5.413 -0.2985 -0.4603 -0.7527
 2978Sol     OW14861   3.159   1.354   5.197  0.0622  0.1914  0.0445
 2978Sol     HW14862   3.190   1.396   5.277  1.2392  1.1518 -0.8961
 2978Sol     HW14863   3.097   1.416   5.160  2.2853  1.4748 -1.6850
 2978Sol     MW14864   3.156   1.363   5.201 -0.3283  0.5108 -0.5239
 2979Sol     OW14865   3.041   0.645   9.734  0.0188 -0.0947  0.1977
 2979Sol     HW14866   2.973   0.662   9.799  0.8845  0.5771  0.9509
 2979Sol     HW14867   3.028   0.711   9.667 -1.7794 -1.6841 -1.0716
 2979Sol     MW14868   3.034   0.652   9.734  0.7375 -0.2293  0.5226
 2980Sol     OW14869   0.444   0.229   4.833 -0.1832 -0.4279 -0.0387
 2980Sol     HW14870   0.502   0.250   4.760  1.5677  0.8216  1.6413
 2980Sol     HW14871   0.390   0.308   4.845 -0.4863 -0.6382 -0.0060
 2980Sol     MW14872   0.444   0.238   4.828  0.0948 -0.3734  0.6218
 2981Sol     OW14873   2.975   3.267   4.557 -0.5534 -0.0359  0.1831
 2981Sol     HW14874   3.030   3.345   4.566 -0.7105 -0.1704  2.5549
 2981Sol     HW14875   3.037   3.196   4.538 -0.4411  0.6755 -2.3103
 2981Sol     MW14876   2.986   3.268   4.556 -0.0297  0.3397  0.7762
 2982Sol     OW14877   1.949   0.637   2.306  0.1818 -0.5684  0.5486
 2982Sol     HW14878   2.041   0.639   2.278 -0.0938 -0.7426 -0.4082
 2982Sol     HW14879   1.908   0.707   2.256  0.0244  0.2802  1.8548
 2982Sol     MW14880   1.954   0.643   2.299  0.3157  0.2661 -0.2433
 2983Sol     OW14881   1.006   1.051   9.186 -0.4750  0.3148  0.4356
 2983Sol     HW14882   1.041   1.090   9.266  0.0522  0.1690  0.2837
 2983Sol     HW14883   0.923   1.096   9.170 -1.8429 -1.4135  2.4723
 2983Sol     MW14884   1.002   1.058   9.191  0.4253  0.0918  0.0909
 2984Sol     OW14885   2.218   1.887   7.661  0.6132  0.4176  0.1480
 2984Sol     HW14886   2.254   1.897   7.573 -0.4645 -0.7367 -0.4482
 2984Sol     HW14887   2.136   1.937   7.659  1.2140  1.4242  0.8839
 2984Sol     MW14888   2.214   1.892   7.653 -0.6326 -0.3027  0.1413
 2985Sol     OW14889   0.902   1.396   6.452 -0.8435  0.0406 -0.3047
 2985Sol     HW14890   0.976   1.449   6.419 -0.8146  0.4605  0.4274
 2985Sol     HW14891   0.829   1.458   6.456 -0.4687  0.3614  1.8506
 2985Sol     MW14892   0.902   1.407   6.449  0.3123  0.2424  0.6351
 2986Sol     OW14893   1.592   0.031   1.407 -0.8873 -0.1755 -0.4262
 2986Sol     HW14894   1.538  -0.010   1.474  0.3899 -1.1174  0.0576
 2986Sol     HW14895   1.662   0.075   1.455 -1.6778  1.7567 -0.9990
 2986Sol     MW14896   1.594   0.031   1.417 -0.4069  0.2881  0.3511
 2987Sol     OW14897   0.231   0.744   4.543  0.0148  0.1422  0.4509
 2987Sol     HW14898   0.150   0.737   4.492 -0.1957  0.1577  0.7804
 2987Sol     HW14899   0.289   0.679   4.504 -1.0394 -1.6715  1.8549
 2987Sol     MW14900   0.229   0.738   4.535  0.4977  0.5745  0.0557
 2988Sol     OW14901   2.391   2.908   6.254 -0.0422 -0.1281 -0.0322
 2988Sol     HW14902   2.363   2.942   6.169 -0.7036  0.0082  0.2441
 2988Sol     HW14903   2.329   2.839   6.275  0.7123 -0.8500 -0.1222
 2988Sol     MW14904   2.383   2.905   6.248  0.3670 -0.5072  0.1297
 2989Sol     OW14905   3.316   0.118   8.924  0.3618 -0.3837  0.3519
 2989Sol     HW14906   3.381   0.171   8.970  0.9266 -0.1157 -0.7476
 2989Sol     HW14907   3.332   0.135   8.832 -2.0373  0.6403  0.0728
 2989Sol     MW14908   3.323   0.124   8.920 -0.8409  0.5742  0.2212
 2990Sol     OW14909   2.296   0.912   9.769 -0.9364 -0.2676  0.8122
 2990Sol     HW14910   2.363   0.920   9.701 -2.0147 -0.0418 -0.2388
 2990Sol     HW14911   2.246   0.835   9.744 -1.6617  0.1215  1.0701
 2990Sol     MW14912   2.298   0.906   9.761  0.3778  0.9054 -0.0523
 2991Sol     OW14913   2.459   1.596   2.878  0.8637  0.1295  0.0301
 2991Sol     HW14914   2.512   1.675   2.866  2.1882 -0.9733 -1.7192
 2991Sol     HW14915   2.421   1.580   2.791  0.8580 -1.3332  0.2923
 2991Sol     MW14916   2.460   1.602   2.869 -0.1730 -0.0274 -0.6262
 2992Sol     OW14917   0.045   2.881   4.626  0.0578 -1.1237 -0.3866
 2992Sol     HW14918   0.032   2.841   4.540  0.0803 -0.5644 -0.6494
 2992Sol     HW14919   0.115   2.945   4.614  0.7000 -1.6974  0.2605
 2992Sol     MW14920   0.050   2.883   4.618  0.3549 -0.1403 -1.1824
 2993Sol     OW14921   1.955   1.943   4.862 -0.0698  0.3098  0.2594
 2993Sol     HW14922   1.944   1.849   4.848  0.1245  0.3231  0.0132
 2993Sol     HW14923   2.050   1.956   4.861 -0.1031  0.5347  0.1232
 2993Sol     MW14924   1.962   1.935   4.861 -0.4744 -0.1883 -0.4278
 2994Sol     OW14925   2.975   0.163   4.271 -0.8672 -0.3421  0.1238
 2994Sol     HW14926   3.014   0.165   4.359 -1.2987  1.5721  0.3019
 2994Sol     HW14927   2.950   0.072   4.257  4.1005 -1.8245 -0.1772
 2994Sol     MW14928   2.977   0.155   4.278  0.0869  0.0748 -0.0836
 2995Sol     OW14929   1.351   1.787   4.982  0.5015  0.1272  0.3390
 2995Sol     HW14930   1.425   1.809   4.925  2.2439 -2.2121  1.6144
 2995Sol     HW14931   1.368   1.836   5.063  1.1726 -1.1324  0.9723
 2995Sol     MW14932   1.359   1.794   4.984  0.4188  0.7039  0.3046
 2996Sol     OW14933   0.859   0.572   4.400 -0.8886 -0.5461 -0.0529
 2996Sol     HW14934   0.886   0.645   4.456 -3.4135 -0.6601  1.3804
 2996Sol     HW14935   0.888   0.597   4.312  0.6666  0.9119  0.8415
 2996Sol     MW14936   0.864   0.581   4.397  0.3711  0.2895  0.2119
 2997Sol     OW14937   1.916   0.023   2.060  0.3613  0.4896  0.3126
 2997Sol     HW14938   1.878   0.008   1.974 -0.1738  1.8215  0.3040
 2997Sol     HW14939   1.993   0.078   2.043  0.4500  0.4683  0.6421
 2997Sol     MW14940   1.920   0.027   2.051 -0.0655  0.1660 -0.0821
 2998Sol     OW14941   0.524   2.357   7.686  0.0333 -0.0198  0.4597
 2998Sol     HW14942   0.506   2.380   7.595 -2.3399  1.2058  1.2041
 2998Sol     HW14943   0.467   2.283   7.705  0.5971 -0.3436  0.9349
 2998Sol     MW14944   0.518   2.353   7.680  0.5999 -0.4542  0.5260
 2999Sol     OW14945   0.107   1.709   7.472  0.4152 -0.4675 -0.0423
 2999Sol     HW14946   0.022   1.718   7.428 -0.3065 -1.0174  1.1993
 2999Sol     HW14947   0.105   1.775   7.542  1.5821  0.4606 -0.8669
 2999Sol     MW14948   0.099   1.715   7.475  0.7191 -0.5729  0.1403
 3000Sol     OW14949   3.277   0.865   8.926 -0.0350  0.2564  0.0351
 3000Sol     HW14950   3.354   0.896   8.974 -0.0142  0.5538 -0.1911
 3000Sol     HW14951   3.210   0.852   8.993 -0.0270  0.7374  0.1376
 3000Sol     MW14952   3.278   0.866   8.936 -0.2513  0.2564  0.3382
 3001Sol     OW14953   1.833   1.544   2.930 -0.6780  0.7636 -0.4882
 3001Sol     HW14954   1.799   1.471   2.880  0.8445  2.0781 -3.5747
 3001Sol     HW14955   1.804   1.622   2.882  0.7950  2.0733  0.6733
 3001Sol     MW14956   1.828   1.545   2.921 -0.0371  0.0552  0.1912
   3.31920   3.44790  11.27710
