[ moleculetype ]
; Name   nrexcl
Sil     2

[ atoms ]
;  nr  type  resnr  resid  atom  cgnr  charge    mass
1	Ob	1	Sil	Ob	1	-0.550000011920929	15.999
2	Ob	1	Sil	Ob	2	-0.550000011920929	15.999
3	Ob	1	Sil	Ob	3	-0.550000011920929	15.999
4	Ob	1	Sil	Ob	4	-0.550000011920929	15.999
5	Ob	1	Sil	Ob	5	-0.550000011920929	15.999
6	Ob	1	Sil	Ob	6	-0.550000011920929	15.999
7	Ob	1	Sil	Ob	7	-0.550000011920929	15.999
8	Ob	1	Sil	Ob	8	-0.550000011920929	15.999
9	Ob	1	Sil	Ob	9	-0.550000011920929	15.999
10	Ob	1	Sil	Ob	10	-0.550000011920929	15.999
11	Ob	1	Sil	Ob	11	-0.550000011920929	15.999
12	Ob	1	Sil	Ob	12	-0.550000011920929	15.999
13	Ob	1	Sil	Ob	13	-0.550000011920929	15.999
14	Ob	1	Sil	Ob	14	-0.550000011920929	15.999
15	Ob	1	Sil	Ob	15	-0.550000011920929	15.999
16	Ob	1	Sil	Ob	16	-0.550000011920929	15.999
17	Ob	1	Sil	Ob	17	-0.550000011920929	15.999
18	Ob	1	Sil	Ob	18	-0.550000011920929	15.999
19	Ob	1	Sil	Ob	19	-0.550000011920929	15.999
20	Ob	1	Sil	Ob	20	-0.550000011920929	15.999
21	Ob	1	Sil	Ob	21	-0.550000011920929	15.999
22	Ob	1	Sil	Ob	22	-0.550000011920929	15.999
23	Ob	1	Sil	Ob	23	-0.550000011920929	15.999
24	Ob	1	Sil	Ob	24	-0.550000011920929	15.999
25	Ob	1	Sil	Ob	25	-0.550000011920929	15.999
26	Ob	1	Sil	Ob	26	-0.550000011920929	15.999
27	Ob	1	Sil	Ob	27	-0.550000011920929	15.999
28	Ob	1	Sil	Ob	28	-0.550000011920929	15.999
29	Ob	1	Sil	Ob	29	-0.550000011920929	15.999
30	Ob	1	Sil	Ob	30	-0.550000011920929	15.999
31	Ob	1	Sil	Ob	31	-0.550000011920929	15.999
32	Ob	1	Sil	Ob	32	-0.550000011920929	15.999
33	Ob	1	Sil	Ob	33	-0.550000011920929	15.999
34	Ob	1	Sil	Ob	34	-0.550000011920929	15.999
35	Ob	1	Sil	Ob	35	-0.550000011920929	15.999
36	Ob	1	Sil	Ob	36	-0.550000011920929	15.999
37	Ob	1	Sil	Ob	37	-0.550000011920929	15.999
38	Ob	1	Sil	Ob	38	-0.550000011920929	15.999
39	Ob	1	Sil	Ob	39	-0.550000011920929	15.999
40	Ob	1	Sil	Ob	40	-0.550000011920929	15.999
41	Ob	1	Sil	Ob	41	-0.550000011920929	15.999
42	Ob	1	Sil	Ob	42	-0.550000011920929	15.999
43	Ob	1	Sil	Ob	43	-0.550000011920929	15.999
44	Ob	1	Sil	Ob	44	-0.550000011920929	15.999
45	Ob	1	Sil	Ob	45	-0.550000011920929	15.999
46	Ob	1	Sil	Ob	46	-0.550000011920929	15.999
47	Ob	1	Sil	Ob	47	-0.550000011920929	15.999
48	Ob	1	Sil	Ob	48	-0.550000011920929	15.999
49	Ob	1	Sil	Ob	49	-0.550000011920929	15.999
50	Ob	1	Sil	Ob	50	-0.550000011920929	15.999
51	Ob	1	Sil	Ob	51	-0.550000011920929	15.999
52	Ob	1	Sil	Ob	52	-0.550000011920929	15.999
53	Ob	1	Sil	Ob	53	-0.550000011920929	15.999
54	Ob	1	Sil	Ob	54	-0.550000011920929	15.999
55	Ob	1	Sil	Ob	55	-0.550000011920929	15.999
56	Ob	1	Sil	Ob	56	-0.550000011920929	15.999
57	Ob	1	Sil	Ob	57	-0.550000011920929	15.999
58	Ob	1	Sil	Ob	58	-0.550000011920929	15.999
59	Ob	1	Sil	Ob	59	-0.550000011920929	15.999
60	Ob	1	Sil	Ob	60	-0.550000011920929	15.999
61	Ob	1	Sil	Ob	61	-0.550000011920929	15.999
62	Ob	1	Sil	Ob	62	-0.550000011920929	15.999
63	Ob	1	Sil	Ob	63	-0.550000011920929	15.999
64	Ob	1	Sil	Ob	64	-0.550000011920929	15.999
65	Ob	1	Sil	Ob	65	-0.550000011920929	15.999
66	Ob	1	Sil	Ob	66	-0.550000011920929	15.999
67	Ob	1	Sil	Ob	67	-0.550000011920929	15.999
68	Ob	1	Sil	Ob	68	-0.550000011920929	15.999
69	Ob	1	Sil	Ob	69	-0.550000011920929	15.999
70	Ob	1	Sil	Ob	70	-0.550000011920929	15.999
71	Ob	1	Sil	Ob	71	-0.550000011920929	15.999
72	Ob	1	Sil	Ob	72	-0.550000011920929	15.999
73	Ob	1	Sil	Ob	73	-0.550000011920929	15.999
74	Ob	1	Sil	Ob	74	-0.550000011920929	15.999
75	Ob	1	Sil	Ob	75	-0.550000011920929	15.999
76	Ob	1	Sil	Ob	76	-0.550000011920929	15.999
77	Ob	1	Sil	Ob	77	-0.550000011920929	15.999
78	Ob	1	Sil	Ob	78	-0.550000011920929	15.999
79	Ob	1	Sil	Ob	79	-0.550000011920929	15.999
80	Ob	1	Sil	Ob	80	-0.550000011920929	15.999
81	Ob	1	Sil	Ob	81	-0.550000011920929	15.999
82	Ob	1	Sil	Ob	82	-0.550000011920929	15.999
83	Ob	1	Sil	Ob	83	-0.550000011920929	15.999
84	Ob	1	Sil	Ob	84	-0.550000011920929	15.999
85	Ob	1	Sil	Ob	85	-0.550000011920929	15.999
86	Ob	1	Sil	Ob	86	-0.550000011920929	15.999
87	Ob	1	Sil	Ob	87	-0.550000011920929	15.999
88	Ob	1	Sil	Ob	88	-0.550000011920929	15.999
89	Ob	1	Sil	Ob	89	-0.550000011920929	15.999
90	Ob	1	Sil	Ob	90	-0.550000011920929	15.999
91	Ob	1	Sil	Ob	91	-0.550000011920929	15.999
92	Ob	1	Sil	Ob	92	-0.550000011920929	15.999
93	Ob	1	Sil	Ob	93	-0.550000011920929	15.999
94	Ob	1	Sil	Ob	94	-0.550000011920929	15.999
95	Ob	1	Sil	Ob	95	-0.550000011920929	15.999
96	Ob	1	Sil	Ob	96	-0.550000011920929	15.999
97	Ob	1	Sil	Ob	97	-0.550000011920929	15.999
98	Ob	1	Sil	Ob	98	-0.550000011920929	15.999
99	Ob	1	Sil	Ob	99	-0.550000011920929	15.999
100	Ob	1	Sil	Ob	100	-0.550000011920929	15.999
101	Ob	1	Sil	Ob	101	-0.550000011920929	15.999
102	Ob	1	Sil	Ob	102	-0.550000011920929	15.999
103	Ob	1	Sil	Ob	103	-0.550000011920929	15.999
104	Ob	1	Sil	Ob	104	-0.550000011920929	15.999
105	Ob	1	Sil	Ob	105	-0.550000011920929	15.999
106	Ob	1	Sil	Ob	106	-0.550000011920929	15.999
107	Ob	1	Sil	Ob	107	-0.550000011920929	15.999
108	Ob	1	Sil	Ob	108	-0.550000011920929	15.999
109	Ob	1	Sil	Ob	109	-0.550000011920929	15.999
110	Ob	1	Sil	Ob	110	-0.550000011920929	15.999
111	Ob	1	Sil	Ob	111	-0.550000011920929	15.999
112	Ob	1	Sil	Ob	112	-0.550000011920929	15.999
113	Ob	1	Sil	Ob	113	-0.550000011920929	15.999
114	Ob	1	Sil	Ob	114	-0.550000011920929	15.999
115	Ob	1	Sil	Ob	115	-0.550000011920929	15.999
116	Ob	1	Sil	Ob	116	-0.550000011920929	15.999
117	Ob	1	Sil	Ob	117	-0.550000011920929	15.999
118	Ob	1	Sil	Ob	118	-0.550000011920929	15.999
119	Ob	1	Sil	Ob	119	-0.550000011920929	15.999
120	Ob	1	Sil	Ob	120	-0.550000011920929	15.999
121	Ob	1	Sil	Ob	121	-0.550000011920929	15.999
122	Ob	1	Sil	Ob	122	-0.550000011920929	15.999
123	Ob	1	Sil	Ob	123	-0.550000011920929	15.999
124	Ob	1	Sil	Ob	124	-0.550000011920929	15.999
125	Ob	1	Sil	Ob	125	-0.550000011920929	15.999
126	Ob	1	Sil	Ob	126	-0.550000011920929	15.999
127	Ob	1	Sil	Ob	127	-0.550000011920929	15.999
128	Ob	1	Sil	Ob	128	-0.550000011920929	15.999
129	Ob	1	Sil	Ob	129	-0.550000011920929	15.999
130	Ob	1	Sil	Ob	130	-0.550000011920929	15.999
131	Ob	1	Sil	Ob	131	-0.550000011920929	15.999
132	Ob	1	Sil	Ob	132	-0.550000011920929	15.999
133	Ob	1	Sil	Ob	133	-0.550000011920929	15.999
134	Ob	1	Sil	Ob	134	-0.550000011920929	15.999
135	Ob	1	Sil	Ob	135	-0.550000011920929	15.999
136	Ob	1	Sil	Ob	136	-0.550000011920929	15.999
137	Ob	1	Sil	Ob	137	-0.550000011920929	15.999
138	Ob	1	Sil	Ob	138	-0.550000011920929	15.999
139	Ob	1	Sil	Ob	139	-0.550000011920929	15.999
140	Ob	1	Sil	Ob	140	-0.550000011920929	15.999
141	Ob	1	Sil	Ob	141	-0.550000011920929	15.999
142	Ob	1	Sil	Ob	142	-0.550000011920929	15.999
143	Ob	1	Sil	Ob	143	-0.550000011920929	15.999
144	Ob	1	Sil	Ob	144	-0.550000011920929	15.999
145	Ob	1	Sil	Ob	145	-0.550000011920929	15.999
146	Ob	1	Sil	Ob	146	-0.550000011920929	15.999
147	Ob	1	Sil	Ob	147	-0.550000011920929	15.999
148	Ob	1	Sil	Ob	148	-0.550000011920929	15.999
149	Ob	1	Sil	Ob	149	-0.550000011920929	15.999
150	Ob	1	Sil	Ob	150	-0.550000011920929	15.999
151	Ob	1	Sil	Ob	151	-0.550000011920929	15.999
152	Ob	1	Sil	Ob	152	-0.550000011920929	15.999
153	Ob	1	Sil	Ob	153	-0.550000011920929	15.999
154	Ob	1	Sil	Ob	154	-0.550000011920929	15.999
155	Ob	1	Sil	Ob	155	-0.550000011920929	15.999
156	Ob	1	Sil	Ob	156	-0.550000011920929	15.999
157	Ob	1	Sil	Ob	157	-0.550000011920929	15.999
158	Ob	1	Sil	Ob	158	-0.550000011920929	15.999
159	Ob	1	Sil	Ob	159	-0.550000011920929	15.999
160	Ob	1	Sil	Ob	160	-0.550000011920929	15.999
161	Ob	1	Sil	Ob	161	-0.550000011920929	15.999
162	Ob	1	Sil	Ob	162	-0.550000011920929	15.999
163	Ob	1	Sil	Ob	163	-0.550000011920929	15.999
164	Ob	1	Sil	Ob	164	-0.550000011920929	15.999
165	Ob	1	Sil	Ob	165	-0.550000011920929	15.999
166	Ob	1	Sil	Ob	166	-0.550000011920929	15.999
167	Ob	1	Sil	Ob	167	-0.550000011920929	15.999
168	Ob	1	Sil	Ob	168	-0.550000011920929	15.999
169	Ob	1	Sil	Ob	169	-0.550000011920929	15.999
170	Ob	1	Sil	Ob	170	-0.550000011920929	15.999
171	Ob	1	Sil	Ob	171	-0.550000011920929	15.999
172	Ob	1	Sil	Ob	172	-0.550000011920929	15.999
173	Ob	1	Sil	Ob	173	-0.550000011920929	15.999
174	Ob	1	Sil	Ob	174	-0.550000011920929	15.999
175	Ob	1	Sil	Ob	175	-0.550000011920929	15.999
176	Ob	1	Sil	Ob	176	-0.550000011920929	15.999
177	Ob	1	Sil	Ob	177	-0.550000011920929	15.999
178	Ob	1	Sil	Ob	178	-0.550000011920929	15.999
179	Ob	1	Sil	Ob	179	-0.550000011920929	15.999
180	Ob	1	Sil	Ob	180	-0.550000011920929	15.999
181	Ob	1	Sil	Ob	181	-0.550000011920929	15.999
182	Ob	1	Sil	Ob	182	-0.550000011920929	15.999
183	Ob	1	Sil	Ob	183	-0.550000011920929	15.999
184	Ob	1	Sil	Ob	184	-0.550000011920929	15.999
185	Ob	1	Sil	Ob	185	-0.550000011920929	15.999
186	Ob	1	Sil	Ob	186	-0.550000011920929	15.999
187	Ob	1	Sil	Ob	187	-0.550000011920929	15.999
188	Ob	1	Sil	Ob	188	-0.550000011920929	15.999
189	Ob	1	Sil	Ob	189	-0.550000011920929	15.999
190	Ob	1	Sil	Ob	190	-0.550000011920929	15.999
191	Ob	1	Sil	Ob	191	-0.550000011920929	15.999
192	Ob	1	Sil	Ob	192	-0.550000011920929	15.999
193	Ob	1	Sil	Ob	193	-0.550000011920929	15.999
194	Ob	1	Sil	Ob	194	-0.550000011920929	15.999
195	Ob	1	Sil	Ob	195	-0.550000011920929	15.999
196	Ob	1	Sil	Ob	196	-0.550000011920929	15.999
197	Ob	1	Sil	Ob	197	-0.550000011920929	15.999
198	Ob	1	Sil	Ob	198	-0.550000011920929	15.999
199	Ob	1	Sil	Ob	199	-0.550000011920929	15.999
200	Ob	1	Sil	Ob	200	-0.550000011920929	15.999
201	Ob	1	Sil	Ob	201	-0.550000011920929	15.999
202	Ob	1	Sil	Ob	202	-0.550000011920929	15.999
203	Ob	1	Sil	Ob	203	-0.550000011920929	15.999
204	Ob	1	Sil	Ob	204	-0.550000011920929	15.999
205	Ob	1	Sil	Ob	205	-0.550000011920929	15.999
206	Ob	1	Sil	Ob	206	-0.550000011920929	15.999
207	Ob	1	Sil	Ob	207	-0.550000011920929	15.999
208	Ob	1	Sil	Ob	208	-0.550000011920929	15.999
209	Ob	1	Sil	Ob	209	-0.550000011920929	15.999
210	Ob	1	Sil	Ob	210	-0.550000011920929	15.999
211	Ob	1	Sil	Ob	211	-0.550000011920929	15.999
212	Ob	1	Sil	Ob	212	-0.550000011920929	15.999
213	Ob	1	Sil	Ob	213	-0.550000011920929	15.999
214	Ob	1	Sil	Ob	214	-0.550000011920929	15.999
215	Ob	1	Sil	Ob	215	-0.550000011920929	15.999
216	Ob	1	Sil	Ob	216	-0.550000011920929	15.999
217	Ob	1	Sil	Ob	217	-0.550000011920929	15.999
218	Ob	1	Sil	Ob	218	-0.550000011920929	15.999
219	Ob	1	Sil	Ob	219	-0.550000011920929	15.999
220	Ob	1	Sil	Ob	220	-0.550000011920929	15.999
221	Ob	1	Sil	Ob	221	-0.550000011920929	15.999
222	Ob	1	Sil	Ob	222	-0.550000011920929	15.999
223	Ob	1	Sil	Ob	223	-0.550000011920929	15.999
224	Ob	1	Sil	Ob	224	-0.550000011920929	15.999
225	Ob	1	Sil	Ob	225	-0.550000011920929	15.999
226	Ob	1	Sil	Ob	226	-0.550000011920929	15.999
227	Ob	1	Sil	Ob	227	-0.550000011920929	15.999
228	Ob	1	Sil	Ob	228	-0.550000011920929	15.999
229	Ob	1	Sil	Ob	229	-0.550000011920929	15.999
230	Ob	1	Sil	Ob	230	-0.550000011920929	15.999
231	Ob	1	Sil	Ob	231	-0.550000011920929	15.999
232	Ob	1	Sil	Ob	232	-0.550000011920929	15.999
233	Ob	1	Sil	Ob	233	-0.550000011920929	15.999
234	Ob	1	Sil	Ob	234	-0.550000011920929	15.999
235	Ob	1	Sil	Ob	235	-0.550000011920929	15.999
236	Ob	1	Sil	Ob	236	-0.550000011920929	15.999
237	Ob	1	Sil	Ob	237	-0.550000011920929	15.999
238	Ob	1	Sil	Ob	238	-0.550000011920929	15.999
239	Ob	1	Sil	Ob	239	-0.550000011920929	15.999
240	Ob	1	Sil	Ob	240	-0.550000011920929	15.999
241	Ob	1	Sil	Ob	241	-0.550000011920929	15.999
242	Ob	1	Sil	Ob	242	-0.550000011920929	15.999
243	Ob	1	Sil	Ob	243	-0.550000011920929	15.999
244	Ob	1	Sil	Ob	244	-0.550000011920929	15.999
245	Ob	1	Sil	Ob	245	-0.550000011920929	15.999
246	Ob	1	Sil	Ob	246	-0.550000011920929	15.999
247	Ob	1	Sil	Ob	247	-0.550000011920929	15.999
248	Ob	1	Sil	Ob	248	-0.550000011920929	15.999
249	Ob	1	Sil	Ob	249	-0.550000011920929	15.999
250	Ob	1	Sil	Ob	250	-0.550000011920929	15.999
251	Ob	1	Sil	Ob	251	-0.550000011920929	15.999
252	Ob	1	Sil	Ob	252	-0.550000011920929	15.999
253	Ob	1	Sil	Ob	253	-0.550000011920929	15.999
254	Ob	1	Sil	Ob	254	-0.550000011920929	15.999
255	Ob	1	Sil	Ob	255	-0.550000011920929	15.999
256	Ob	1	Sil	Ob	256	-0.550000011920929	15.999
257	Ob	1	Sil	Ob	257	-0.550000011920929	15.999
258	Ob	1	Sil	Ob	258	-0.550000011920929	15.999
259	Ob	1	Sil	Ob	259	-0.550000011920929	15.999
260	Ob	1	Sil	Ob	260	-0.550000011920929	15.999
261	Ob	1	Sil	Ob	261	-0.550000011920929	15.999
262	Ob	1	Sil	Ob	262	-0.550000011920929	15.999
263	Ob	1	Sil	Ob	263	-0.550000011920929	15.999
264	Ob	1	Sil	Ob	264	-0.550000011920929	15.999
265	Ob	1	Sil	Ob	265	-0.550000011920929	15.999
266	Ob	1	Sil	Ob	266	-0.550000011920929	15.999
267	Ob	1	Sil	Ob	267	-0.550000011920929	15.999
268	Ob	1	Sil	Ob	268	-0.550000011920929	15.999
269	Ob	1	Sil	Ob	269	-0.550000011920929	15.999
270	Ob	1	Sil	Ob	270	-0.550000011920929	15.999
271	Ob	1	Sil	Ob	271	-0.550000011920929	15.999
272	Ob	1	Sil	Ob	272	-0.550000011920929	15.999
273	Ob	1	Sil	Ob	273	-0.550000011920929	15.999
274	Ob	1	Sil	Ob	274	-0.550000011920929	15.999
275	Ob	1	Sil	Ob	275	-0.550000011920929	15.999
276	Ob	1	Sil	Ob	276	-0.550000011920929	15.999
277	Ob	1	Sil	Ob	277	-0.550000011920929	15.999
278	Ob	1	Sil	Ob	278	-0.550000011920929	15.999
279	Ob	1	Sil	Ob	279	-0.550000011920929	15.999
280	Ob	1	Sil	Ob	280	-0.550000011920929	15.999
281	Ob	1	Sil	Ob	281	-0.550000011920929	15.999
282	Ob	1	Sil	Ob	282	-0.550000011920929	15.999
283	Ob	1	Sil	Ob	283	-0.550000011920929	15.999
284	Ob	1	Sil	Ob	284	-0.550000011920929	15.999
285	Ob	1	Sil	Ob	285	-0.550000011920929	15.999
286	Ob	1	Sil	Ob	286	-0.550000011920929	15.999
287	Ob	1	Sil	Ob	287	-0.550000011920929	15.999
288	Ob	1	Sil	Ob	288	-0.550000011920929	15.999
289	Ob	1	Sil	Ob	289	-0.550000011920929	15.999
290	Ob	1	Sil	Ob	290	-0.550000011920929	15.999
291	Ob	1	Sil	Ob	291	-0.550000011920929	15.999
292	Ob	1	Sil	Ob	292	-0.550000011920929	15.999
293	Ob	1	Sil	Ob	293	-0.550000011920929	15.999
294	Ob	1	Sil	Ob	294	-0.550000011920929	15.999
295	Ob	1	Sil	Ob	295	-0.550000011920929	15.999
296	Ob	1	Sil	Ob	296	-0.550000011920929	15.999
297	Ob	1	Sil	Ob	297	-0.550000011920929	15.999
298	Ob	1	Sil	Ob	298	-0.550000011920929	15.999
299	Ob	1	Sil	Ob	299	-0.550000011920929	15.999
300	Ob	1	Sil	Ob	300	-0.550000011920929	15.999
301	Ob	1	Sil	Ob	301	-0.550000011920929	15.999
302	Ob	1	Sil	Ob	302	-0.550000011920929	15.999
303	Ob	1	Sil	Ob	303	-0.550000011920929	15.999
304	Ob	1	Sil	Ob	304	-0.550000011920929	15.999
305	Ob	1	Sil	Ob	305	-0.550000011920929	15.999
306	Ob	1	Sil	Ob	306	-0.550000011920929	15.999
307	Ob	1	Sil	Ob	307	-0.550000011920929	15.999
308	Ob	1	Sil	Ob	308	-0.550000011920929	15.999
309	Ob	1	Sil	Ob	309	-0.550000011920929	15.999
310	Ob	1	Sil	Ob	310	-0.550000011920929	15.999
311	Ob	1	Sil	Ob	311	-0.550000011920929	15.999
312	Ob	1	Sil	Ob	312	-0.550000011920929	15.999
313	Ob	1	Sil	Ob	313	-0.550000011920929	15.999
314	Ob	1	Sil	Ob	314	-0.550000011920929	15.999
315	Ob	1	Sil	Ob	315	-0.550000011920929	15.999
316	Ob	1	Sil	Ob	316	-0.550000011920929	15.999
317	Ob	1	Sil	Ob	317	-0.550000011920929	15.999
318	Ob	1	Sil	Ob	318	-0.550000011920929	15.999
319	Ob	1	Sil	Ob	319	-0.550000011920929	15.999
320	Ob	1	Sil	Ob	320	-0.550000011920929	15.999
321	Ob	1	Sil	Ob	321	-0.550000011920929	15.999
322	Ob	1	Sil	Ob	322	-0.550000011920929	15.999
323	Ob	1	Sil	Ob	323	-0.550000011920929	15.999
324	Ob	1	Sil	Ob	324	-0.550000011920929	15.999
325	Ob	1	Sil	Ob	325	-0.550000011920929	15.999
326	Ob	1	Sil	Ob	326	-0.550000011920929	15.999
327	Ob	1	Sil	Ob	327	-0.550000011920929	15.999
328	Ob	1	Sil	Ob	328	-0.550000011920929	15.999
329	Ob	1	Sil	Ob	329	-0.550000011920929	15.999
330	Ob	1	Sil	Ob	330	-0.550000011920929	15.999
331	Ob	1	Sil	Ob	331	-0.550000011920929	15.999
332	Ob	1	Sil	Ob	332	-0.550000011920929	15.999
333	Ob	1	Sil	Ob	333	-0.550000011920929	15.999
334	Ob	1	Sil	Ob	334	-0.550000011920929	15.999
335	Ob	1	Sil	Ob	335	-0.550000011920929	15.999
336	Ob	1	Sil	Ob	336	-0.550000011920929	15.999
337	Ob	1	Sil	Ob	337	-0.550000011920929	15.999
338	Ob	1	Sil	Ob	338	-0.550000011920929	15.999
339	Ob	1	Sil	Ob	339	-0.550000011920929	15.999
340	Ob	1	Sil	Ob	340	-0.550000011920929	15.999
341	Ob	1	Sil	Ob	341	-0.550000011920929	15.999
342	Ob	1	Sil	Ob	342	-0.550000011920929	15.999
343	Ob	1	Sil	Ob	343	-0.550000011920929	15.999
344	Ob	1	Sil	Ob	344	-0.550000011920929	15.999
345	Ob	1	Sil	Ob	345	-0.550000011920929	15.999
346	Ob	1	Sil	Ob	346	-0.550000011920929	15.999
347	Ob	1	Sil	Ob	347	-0.550000011920929	15.999
348	Ob	1	Sil	Ob	348	-0.550000011920929	15.999
349	Ob	1	Sil	Ob	349	-0.550000011920929	15.999
350	Ob	1	Sil	Ob	350	-0.550000011920929	15.999
351	Ob	1	Sil	Ob	351	-0.550000011920929	15.999
352	Ob	1	Sil	Ob	352	-0.550000011920929	15.999
353	Ob	1	Sil	Ob	353	-0.550000011920929	15.999
354	Ob	1	Sil	Ob	354	-0.550000011920929	15.999
355	Ob	1	Sil	Ob	355	-0.550000011920929	15.999
356	Ob	1	Sil	Ob	356	-0.550000011920929	15.999
357	Ob	1	Sil	Ob	357	-0.550000011920929	15.999
358	Ob	1	Sil	Ob	358	-0.550000011920929	15.999
359	Ob	1	Sil	Ob	359	-0.550000011920929	15.999
360	Ob	1	Sil	Ob	360	-0.550000011920929	15.999
361	Ob	1	Sil	Ob	361	-0.550000011920929	15.999
362	Ob	1	Sil	Ob	362	-0.550000011920929	15.999
363	Ob	1	Sil	Ob	363	-0.550000011920929	15.999
364	Ob	1	Sil	Ob	364	-0.550000011920929	15.999
365	Ob	1	Sil	Ob	365	-0.550000011920929	15.999
366	Ob	1	Sil	Ob	366	-0.550000011920929	15.999
367	Ob	1	Sil	Ob	367	-0.550000011920929	15.999
368	Ob	1	Sil	Ob	368	-0.550000011920929	15.999
369	Ob	1	Sil	Ob	369	-0.550000011920929	15.999
370	Ob	1	Sil	Ob	370	-0.550000011920929	15.999
371	Ob	1	Sil	Ob	371	-0.550000011920929	15.999
372	Ob	1	Sil	Ob	372	-0.550000011920929	15.999
373	Ob	1	Sil	Ob	373	-0.550000011920929	15.999
374	Ob	1	Sil	Ob	374	-0.550000011920929	15.999
375	Ob	1	Sil	Ob	375	-0.550000011920929	15.999
376	Ob	1	Sil	Ob	376	-0.550000011920929	15.999
377	Ob	1	Sil	Ob	377	-0.550000011920929	15.999
378	Ob	1	Sil	Ob	378	-0.550000011920929	15.999
379	Ob	1	Sil	Ob	379	-0.550000011920929	15.999
380	Ob	1	Sil	Ob	380	-0.550000011920929	15.999
381	Ob	1	Sil	Ob	381	-0.550000011920929	15.999
382	Ob	1	Sil	Ob	382	-0.550000011920929	15.999
383	Ob	1	Sil	Ob	383	-0.550000011920929	15.999
384	Ob	1	Sil	Ob	384	-0.550000011920929	15.999
385	Ob	1	Sil	Ob	385	-0.550000011920929	15.999
386	Ob	1	Sil	Ob	386	-0.550000011920929	15.999
387	Ob	1	Sil	Ob	387	-0.550000011920929	15.999
388	Ob	1	Sil	Ob	388	-0.550000011920929	15.999
389	Ob	1	Sil	Ob	389	-0.550000011920929	15.999
390	Ob	1	Sil	Ob	390	-0.550000011920929	15.999
391	Ob	1	Sil	Ob	391	-0.550000011920929	15.999
392	Ob	1	Sil	Ob	392	-0.550000011920929	15.999
393	Ob	1	Sil	Ob	393	-0.550000011920929	15.999
394	Ob	1	Sil	Ob	394	-0.550000011920929	15.999
395	Ob	1	Sil	Ob	395	-0.550000011920929	15.999
396	Ob	1	Sil	Ob	396	-0.550000011920929	15.999
397	Ob	1	Sil	Ob	397	-0.550000011920929	15.999
398	Ob	1	Sil	Ob	398	-0.550000011920929	15.999
399	Ob	1	Sil	Ob	399	-0.550000011920929	15.999
400	Ob	1	Sil	Ob	400	-0.550000011920929	15.999
401	Ob	1	Sil	Ob	401	-0.550000011920929	15.999
402	Ob	1	Sil	Ob	402	-0.550000011920929	15.999
403	Ob	1	Sil	Ob	403	-0.550000011920929	15.999
404	Ob	1	Sil	Ob	404	-0.550000011920929	15.999
405	Ob	1	Sil	Ob	405	-0.550000011920929	15.999
406	Ob	1	Sil	Ob	406	-0.550000011920929	15.999
407	Ob	1	Sil	Ob	407	-0.550000011920929	15.999
408	Ob	1	Sil	Ob	408	-0.550000011920929	15.999
409	Ob	1	Sil	Ob	409	-0.550000011920929	15.999
410	Ob	1	Sil	Ob	410	-0.550000011920929	15.999
411	Ob	1	Sil	Ob	411	-0.550000011920929	15.999
412	Ob	1	Sil	Ob	412	-0.550000011920929	15.999
413	Ob	1	Sil	Ob	413	-0.550000011920929	15.999
414	Ob	1	Sil	Ob	414	-0.550000011920929	15.999
415	Ob	1	Sil	Ob	415	-0.550000011920929	15.999
416	Ob	1	Sil	Ob	416	-0.550000011920929	15.999
417	Ob	1	Sil	Ob	417	-0.550000011920929	15.999
418	Ob	1	Sil	Ob	418	-0.550000011920929	15.999
419	Ob	1	Sil	Ob	419	-0.550000011920929	15.999
420	Ob	1	Sil	Ob	420	-0.550000011920929	15.999
421	Ob	1	Sil	Ob	421	-0.550000011920929	15.999
422	Ob	1	Sil	Ob	422	-0.550000011920929	15.999
423	Ob	1	Sil	Ob	423	-0.550000011920929	15.999
424	Ob	1	Sil	Ob	424	-0.550000011920929	15.999
425	Ob	1	Sil	Ob	425	-0.550000011920929	15.999
426	Ob	1	Sil	Ob	426	-0.550000011920929	15.999
427	Ob	1	Sil	Ob	427	-0.550000011920929	15.999
428	Ob	1	Sil	Ob	428	-0.550000011920929	15.999
429	Ob	1	Sil	Ob	429	-0.550000011920929	15.999
430	Ob	1	Sil	Ob	430	-0.550000011920929	15.999
431	Ob	1	Sil	Ob	431	-0.550000011920929	15.999
432	Ob	1	Sil	Ob	432	-0.550000011920929	15.999
433	Ob	1	Sil	Ob	433	-0.550000011920929	15.999
434	Ob	1	Sil	Ob	434	-0.550000011920929	15.999
435	Ob	1	Sil	Ob	435	-0.550000011920929	15.999
436	Ob	1	Sil	Ob	436	-0.550000011920929	15.999
437	Ob	1	Sil	Ob	437	-0.550000011920929	15.999
438	Ob	1	Sil	Ob	438	-0.550000011920929	15.999
439	Ob	1	Sil	Ob	439	-0.550000011920929	15.999
440	Ob	1	Sil	Ob	440	-0.550000011920929	15.999
441	Ob	1	Sil	Ob	441	-0.550000011920929	15.999
442	Ob	1	Sil	Ob	442	-0.550000011920929	15.999
443	Ob	1	Sil	Ob	443	-0.550000011920929	15.999
444	Ob	1	Sil	Ob	444	-0.550000011920929	15.999
445	Ob	1	Sil	Ob	445	-0.550000011920929	15.999
446	Ob	1	Sil	Ob	446	-0.550000011920929	15.999
447	Ob	1	Sil	Ob	447	-0.550000011920929	15.999
448	Ob	1	Sil	Ob	448	-0.550000011920929	15.999
449	Ob	1	Sil	Ob	449	-0.550000011920929	15.999
450	Ob	1	Sil	Ob	450	-0.550000011920929	15.999
451	Ob	1	Sil	Ob	451	-0.550000011920929	15.999
452	Ob	1	Sil	Ob	452	-0.550000011920929	15.999
453	Ob	1	Sil	Ob	453	-0.550000011920929	15.999
454	Ob	1	Sil	Ob	454	-0.550000011920929	15.999
455	Ob	1	Sil	Ob	455	-0.550000011920929	15.999
456	Ob	1	Sil	Ob	456	-0.550000011920929	15.999
457	Ob	1	Sil	Ob	457	-0.550000011920929	15.999
458	Ob	1	Sil	Ob	458	-0.550000011920929	15.999
459	Ob	1	Sil	Ob	459	-0.550000011920929	15.999
460	Ob	1	Sil	Ob	460	-0.550000011920929	15.999
461	Ob	1	Sil	Ob	461	-0.550000011920929	15.999
462	Ob	1	Sil	Ob	462	-0.550000011920929	15.999
463	Ob	1	Sil	Ob	463	-0.550000011920929	15.999
464	Ob	1	Sil	Ob	464	-0.550000011920929	15.999
465	Ob	1	Sil	Ob	465	-0.550000011920929	15.999
466	Ob	1	Sil	Ob	466	-0.550000011920929	15.999
467	Ob	1	Sil	Ob	467	-0.550000011920929	15.999
468	Ob	1	Sil	Ob	468	-0.550000011920929	15.999
469	Ob	1	Sil	Ob	469	-0.550000011920929	15.999
470	Ob	1	Sil	Ob	470	-0.550000011920929	15.999
471	Ob	1	Sil	Ob	471	-0.550000011920929	15.999
472	Ob	1	Sil	Ob	472	-0.550000011920929	15.999
473	Ob	1	Sil	Ob	473	-0.550000011920929	15.999
474	Ob	1	Sil	Ob	474	-0.550000011920929	15.999
475	Ob	1	Sil	Ob	475	-0.550000011920929	15.999
476	Ob	1	Sil	Ob	476	-0.550000011920929	15.999
477	Ob	1	Sil	Ob	477	-0.550000011920929	15.999
478	Ob	1	Sil	Ob	478	-0.550000011920929	15.999
479	Ob	1	Sil	Ob	479	-0.550000011920929	15.999
480	Ob	1	Sil	Ob	480	-0.550000011920929	15.999
481	Ob	1	Sil	Ob	481	-0.550000011920929	15.999
482	Ob	1	Sil	Ob	482	-0.550000011920929	15.999
483	Ob	1	Sil	Ob	483	-0.550000011920929	15.999
484	Ob	1	Sil	Ob	484	-0.550000011920929	15.999
485	Ob	1	Sil	Ob	485	-0.550000011920929	15.999
486	Ob	1	Sil	Ob	486	-0.550000011920929	15.999
487	Ob	1	Sil	Ob	487	-0.550000011920929	15.999
488	Ob	1	Sil	Ob	488	-0.550000011920929	15.999
489	Ob	1	Sil	Ob	489	-0.550000011920929	15.999
490	Ob	1	Sil	Ob	490	-0.550000011920929	15.999
491	Ob	1	Sil	Ob	491	-0.550000011920929	15.999
492	Ob	1	Sil	Ob	492	-0.550000011920929	15.999
493	Ob	1	Sil	Ob	493	-0.550000011920929	15.999
494	Ob	1	Sil	Ob	494	-0.550000011920929	15.999
495	Ob	1	Sil	Ob	495	-0.550000011920929	15.999
496	Ob	1	Sil	Ob	496	-0.550000011920929	15.999
497	Ob	1	Sil	Ob	497	-0.550000011920929	15.999
498	Ob	1	Sil	Ob	498	-0.550000011920929	15.999
499	Ob	1	Sil	Ob	499	-0.550000011920929	15.999
500	Ob	1	Sil	Ob	500	-0.550000011920929	15.999
501	Ob	1	Sil	Ob	501	-0.550000011920929	15.999
502	Ob	1	Sil	Ob	502	-0.550000011920929	15.999
503	Ob	1	Sil	Ob	503	-0.550000011920929	15.999
504	Ob	1	Sil	Ob	504	-0.550000011920929	15.999
505	Ob	1	Sil	Ob	505	-0.550000011920929	15.999
506	Ob	1	Sil	Ob	506	-0.550000011920929	15.999
507	Ob	1	Sil	Ob	507	-0.550000011920929	15.999
508	Ob	1	Sil	Ob	508	-0.550000011920929	15.999
509	Ob	1	Sil	Ob	509	-0.550000011920929	15.999
510	Ob	1	Sil	Ob	510	-0.550000011920929	15.999
511	Ob	1	Sil	Ob	511	-0.550000011920929	15.999
512	Ob	1	Sil	Ob	512	-0.550000011920929	15.999
513	Ob	1	Sil	Ob	513	-0.550000011920929	15.999
514	Ob	1	Sil	Ob	514	-0.550000011920929	15.999
515	Ob	1	Sil	Ob	515	-0.550000011920929	15.999
516	Ob	1	Sil	Ob	516	-0.550000011920929	15.999
517	Ob	1	Sil	Ob	517	-0.550000011920929	15.999
518	Ob	1	Sil	Ob	518	-0.550000011920929	15.999
519	Ob	1	Sil	Ob	519	-0.550000011920929	15.999
520	Ob	1	Sil	Ob	520	-0.550000011920929	15.999
521	Ob	1	Sil	Ob	521	-0.550000011920929	15.999
522	Ob	1	Sil	Ob	522	-0.550000011920929	15.999
523	Ob	1	Sil	Ob	523	-0.550000011920929	15.999
524	Ob	1	Sil	Ob	524	-0.550000011920929	15.999
525	Ob	1	Sil	Ob	525	-0.550000011920929	15.999
526	Ob	1	Sil	Ob	526	-0.550000011920929	15.999
527	Ob	1	Sil	Ob	527	-0.550000011920929	15.999
528	Ob	1	Sil	Ob	528	-0.550000011920929	15.999
529	Ob	1	Sil	Ob	529	-0.550000011920929	15.999
530	Ob	1	Sil	Ob	530	-0.550000011920929	15.999
531	Ob	1	Sil	Ob	531	-0.550000011920929	15.999
532	Ob	1	Sil	Ob	532	-0.550000011920929	15.999
533	Ob	1	Sil	Ob	533	-0.550000011920929	15.999
534	Ob	1	Sil	Ob	534	-0.550000011920929	15.999
535	Ob	1	Sil	Ob	535	-0.550000011920929	15.999
536	Ob	1	Sil	Ob	536	-0.550000011920929	15.999
537	Ob	1	Sil	Ob	537	-0.550000011920929	15.999
538	Ob	1	Sil	Ob	538	-0.550000011920929	15.999
539	Ob	1	Sil	Ob	539	-0.550000011920929	15.999
540	Ob	1	Sil	Ob	540	-0.550000011920929	15.999
541	Ob	1	Sil	Ob	541	-0.550000011920929	15.999
542	Ob	1	Sil	Ob	542	-0.550000011920929	15.999
543	Ob	1	Sil	Ob	543	-0.550000011920929	15.999
544	Ob	1	Sil	Ob	544	-0.550000011920929	15.999
545	Ob	1	Sil	Ob	545	-0.550000011920929	15.999
546	Ob	1	Sil	Ob	546	-0.550000011920929	15.999
547	Ob	1	Sil	Ob	547	-0.550000011920929	15.999
548	Ob	1	Sil	Ob	548	-0.550000011920929	15.999
549	Ob	1	Sil	Ob	549	-0.550000011920929	15.999
550	Ob	1	Sil	Ob	550	-0.550000011920929	15.999
551	Ob	1	Sil	Ob	551	-0.550000011920929	15.999
552	Ob	1	Sil	Ob	552	-0.550000011920929	15.999
553	Ob	1	Sil	Ob	553	-0.550000011920929	15.999
554	Ob	1	Sil	Ob	554	-0.550000011920929	15.999
555	Ob	1	Sil	Ob	555	-0.550000011920929	15.999
556	Ob	1	Sil	Ob	556	-0.550000011920929	15.999
557	Ob	1	Sil	Ob	557	-0.550000011920929	15.999
558	Ob	1	Sil	Ob	558	-0.550000011920929	15.999
559	Ob	1	Sil	Ob	559	-0.550000011920929	15.999
560	Ob	1	Sil	Ob	560	-0.550000011920929	15.999
561	Ob	1	Sil	Ob	561	-0.550000011920929	15.999
562	Ob	1	Sil	Ob	562	-0.550000011920929	15.999
563	Ob	1	Sil	Ob	563	-0.550000011920929	15.999
564	Ob	1	Sil	Ob	564	-0.550000011920929	15.999
565	Ob	1	Sil	Ob	565	-0.550000011920929	15.999
566	Ob	1	Sil	Ob	566	-0.550000011920929	15.999
567	Ob	1	Sil	Ob	567	-0.550000011920929	15.999
568	Ob	1	Sil	Ob	568	-0.550000011920929	15.999
569	Ob	1	Sil	Ob	569	-0.550000011920929	15.999
570	Ob	1	Sil	Ob	570	-0.550000011920929	15.999
571	Ob	1	Sil	Ob	571	-0.550000011920929	15.999
572	Ob	1	Sil	Ob	572	-0.550000011920929	15.999
573	Ob	1	Sil	Ob	573	-0.550000011920929	15.999
574	Ob	1	Sil	Ob	574	-0.550000011920929	15.999
575	Ob	1	Sil	Ob	575	-0.550000011920929	15.999
576	Ob	1	Sil	Ob	576	-0.550000011920929	15.999
577	Ob	1	Sil	Ob	577	-0.550000011920929	15.999
578	Ob	1	Sil	Ob	578	-0.550000011920929	15.999
579	Ob	1	Sil	Ob	579	-0.550000011920929	15.999
580	Ob	1	Sil	Ob	580	-0.550000011920929	15.999
581	Ob	1	Sil	Ob	581	-0.550000011920929	15.999
582	Ob	1	Sil	Ob	582	-0.550000011920929	15.999
583	Ob	1	Sil	Ob	583	-0.550000011920929	15.999
584	Ob	1	Sil	Ob	584	-0.550000011920929	15.999
585	Ob	1	Sil	Ob	585	-0.550000011920929	15.999
586	Ob	1	Sil	Ob	586	-0.550000011920929	15.999
587	Ob	1	Sil	Ob	587	-0.550000011920929	15.999
588	Ob	1	Sil	Ob	588	-0.550000011920929	15.999
589	Ob	1	Sil	Ob	589	-0.550000011920929	15.999
590	Ob	1	Sil	Ob	590	-0.550000011920929	15.999
591	Ob	1	Sil	Ob	591	-0.550000011920929	15.999
592	Ob	1	Sil	Ob	592	-0.550000011920929	15.999
593	Ob	1	Sil	Ob	593	-0.550000011920929	15.999
594	Ob	1	Sil	Ob	594	-0.550000011920929	15.999
595	Ob	1	Sil	Ob	595	-0.550000011920929	15.999
596	Ob	1	Sil	Ob	596	-0.550000011920929	15.999
597	Ob	1	Sil	Ob	597	-0.550000011920929	15.999
598	Ob	1	Sil	Ob	598	-0.550000011920929	15.999
599	Ob	1	Sil	Ob	599	-0.550000011920929	15.999
600	Ob	1	Sil	Ob	600	-0.550000011920929	15.999
601	Ob	1	Sil	Ob	601	-0.550000011920929	15.999
602	Ob	1	Sil	Ob	602	-0.550000011920929	15.999
603	Ob	1	Sil	Ob	603	-0.550000011920929	15.999
604	Ob	1	Sil	Ob	604	-0.550000011920929	15.999
605	Ob	1	Sil	Ob	605	-0.550000011920929	15.999
606	Ob	1	Sil	Ob	606	-0.550000011920929	15.999
607	Ob	1	Sil	Ob	607	-0.550000011920929	15.999
608	Ob	1	Sil	Ob	608	-0.550000011920929	15.999
609	Ob	1	Sil	Ob	609	-0.550000011920929	15.999
610	Ob	1	Sil	Ob	610	-0.550000011920929	15.999
611	Ob	1	Sil	Ob	611	-0.550000011920929	15.999
612	Ob	1	Sil	Ob	612	-0.550000011920929	15.999
613	Ob	1	Sil	Ob	613	-0.550000011920929	15.999
614	Ob	1	Sil	Ob	614	-0.550000011920929	15.999
615	Ob	1	Sil	Ob	615	-0.550000011920929	15.999
616	Ob	1	Sil	Ob	616	-0.550000011920929	15.999
617	Ob	1	Sil	Ob	617	-0.550000011920929	15.999
618	Ob	1	Sil	Ob	618	-0.550000011920929	15.999
619	Ob	1	Sil	Ob	619	-0.550000011920929	15.999
620	Ob	1	Sil	Ob	620	-0.550000011920929	15.999
621	Ob	1	Sil	Ob	621	-0.550000011920929	15.999
622	Ob	1	Sil	Ob	622	-0.550000011920929	15.999
623	Ob	1	Sil	Ob	623	-0.550000011920929	15.999
624	Ob	1	Sil	Ob	624	-0.550000011920929	15.999
625	Ob	1	Sil	Ob	625	-0.550000011920929	15.999
626	Ob	1	Sil	Ob	626	-0.550000011920929	15.999
627	Ob	1	Sil	Ob	627	-0.550000011920929	15.999
628	Ob	1	Sil	Ob	628	-0.550000011920929	15.999
629	Ob	1	Sil	Ob	629	-0.550000011920929	15.999
630	Ob	1	Sil	Ob	630	-0.550000011920929	15.999
631	Ob	1	Sil	Ob	631	-0.550000011920929	15.999
632	Ob	1	Sil	Ob	632	-0.550000011920929	15.999
633	Ob	1	Sil	Ob	633	-0.550000011920929	15.999
634	Ob	1	Sil	Ob	634	-0.550000011920929	15.999
635	Ob	1	Sil	Ob	635	-0.550000011920929	15.999
636	Ob	1	Sil	Ob	636	-0.550000011920929	15.999
637	Ob	1	Sil	Ob	637	-0.550000011920929	15.999
638	Ob	1	Sil	Ob	638	-0.550000011920929	15.999
639	Ob	1	Sil	Ob	639	-0.550000011920929	15.999
640	Ob	1	Sil	Ob	640	-0.550000011920929	15.999
641	Ob	1	Sil	Ob	641	-0.550000011920929	15.999
642	Ob	1	Sil	Ob	642	-0.550000011920929	15.999
643	Ob	1	Sil	Ob	643	-0.550000011920929	15.999
644	Ob	1	Sil	Ob	644	-0.550000011920929	15.999
645	Ob	1	Sil	Ob	645	-0.550000011920929	15.999
646	Ob	1	Sil	Ob	646	-0.550000011920929	15.999
647	Ob	1	Sil	Ob	647	-0.550000011920929	15.999
648	Ob	1	Sil	Ob	648	-0.550000011920929	15.999
649	Ob	1	Sil	Ob	649	-0.550000011920929	15.999
650	Ob	1	Sil	Ob	650	-0.550000011920929	15.999
651	Ob	1	Sil	Ob	651	-0.550000011920929	15.999
652	Ob	1	Sil	Ob	652	-0.550000011920929	15.999
653	Ob	1	Sil	Ob	653	-0.550000011920929	15.999
654	Ob	1	Sil	Ob	654	-0.550000011920929	15.999
655	Ob	1	Sil	Ob	655	-0.550000011920929	15.999
656	Ob	1	Sil	Ob	656	-0.550000011920929	15.999
657	Ob	1	Sil	Ob	657	-0.550000011920929	15.999
658	Ob	1	Sil	Ob	658	-0.550000011920929	15.999
659	Ob	1	Sil	Ob	659	-0.550000011920929	15.999
660	Ob	1	Sil	Ob	660	-0.550000011920929	15.999
661	Ob	1	Sil	Ob	661	-0.550000011920929	15.999
662	Ob	1	Sil	Ob	662	-0.550000011920929	15.999
663	Ob	1	Sil	Ob	663	-0.550000011920929	15.999
664	Ob	1	Sil	Ob	664	-0.550000011920929	15.999
665	Ob	1	Sil	Ob	665	-0.550000011920929	15.999
666	Ob	1	Sil	Ob	666	-0.550000011920929	15.999
667	Ob	1	Sil	Ob	667	-0.550000011920929	15.999
668	Ob	1	Sil	Ob	668	-0.550000011920929	15.999
669	Ob	1	Sil	Ob	669	-0.550000011920929	15.999
670	Ob	1	Sil	Ob	670	-0.550000011920929	15.999
671	Ob	1	Sil	Ob	671	-0.550000011920929	15.999
672	Ob	1	Sil	Ob	672	-0.550000011920929	15.999
673	Ob	1	Sil	Ob	673	-0.550000011920929	15.999
674	Ob	1	Sil	Ob	674	-0.550000011920929	15.999
675	Ob	1	Sil	Ob	675	-0.550000011920929	15.999
676	Ob	1	Sil	Ob	676	-0.550000011920929	15.999
677	Ob	1	Sil	Ob	677	-0.550000011920929	15.999
678	Ob	1	Sil	Ob	678	-0.550000011920929	15.999
679	Ob	1	Sil	Ob	679	-0.550000011920929	15.999
680	Ob	1	Sil	Ob	680	-0.550000011920929	15.999
681	Ob	1	Sil	Ob	681	-0.550000011920929	15.999
682	Ob	1	Sil	Ob	682	-0.550000011920929	15.999
683	Ob	1	Sil	Ob	683	-0.550000011920929	15.999
684	Ob	1	Sil	Ob	684	-0.550000011920929	15.999
685	Ob	1	Sil	Ob	685	-0.550000011920929	15.999
686	Ob	1	Sil	Ob	686	-0.550000011920929	15.999
687	Ob	1	Sil	Ob	687	-0.550000011920929	15.999
688	Ob	1	Sil	Ob	688	-0.550000011920929	15.999
689	Ob	1	Sil	Ob	689	-0.550000011920929	15.999
690	Ob	1	Sil	Ob	690	-0.550000011920929	15.999
691	Ob	1	Sil	Ob	691	-0.550000011920929	15.999
692	Ob	1	Sil	Ob	692	-0.550000011920929	15.999
693	Ob	1	Sil	Ob	693	-0.550000011920929	15.999
694	Ob	1	Sil	Ob	694	-0.550000011920929	15.999
695	Ob	1	Sil	Ob	695	-0.550000011920929	15.999
696	Ob	1	Sil	Ob	696	-0.550000011920929	15.999
697	Ob	1	Sil	Ob	697	-0.550000011920929	15.999
698	Ob	1	Sil	Ob	698	-0.550000011920929	15.999
699	Ob	1	Sil	Ob	699	-0.550000011920929	15.999
700	Ob	1	Sil	Ob	700	-0.550000011920929	15.999
701	Ob	1	Sil	Ob	701	-0.550000011920929	15.999
702	Ob	1	Sil	Ob	702	-0.550000011920929	15.999
703	Ob	1	Sil	Ob	703	-0.550000011920929	15.999
704	Ob	1	Sil	Ob	704	-0.550000011920929	15.999
705	Ob	1	Sil	Ob	705	-0.550000011920929	15.999
706	Ob	1	Sil	Ob	706	-0.550000011920929	15.999
707	Ob	1	Sil	Ob	707	-0.550000011920929	15.999
708	Ob	1	Sil	Ob	708	-0.550000011920929	15.999
709	Ob	1	Sil	Ob	709	-0.550000011920929	15.999
710	Ob	1	Sil	Ob	710	-0.550000011920929	15.999
711	Ob	1	Sil	Ob	711	-0.550000011920929	15.999
712	Ob	1	Sil	Ob	712	-0.550000011920929	15.999
713	Ob	1	Sil	Ob	713	-0.550000011920929	15.999
714	Ob	1	Sil	Ob	714	-0.550000011920929	15.999
715	Ob	1	Sil	Ob	715	-0.550000011920929	15.999
716	Ob	1	Sil	Ob	716	-0.550000011920929	15.999
717	Ob	1	Sil	Ob	717	-0.550000011920929	15.999
718	Ob	1	Sil	Ob	718	-0.550000011920929	15.999
719	Ob	1	Sil	Ob	719	-0.550000011920929	15.999
720	Ob	1	Sil	Ob	720	-0.550000011920929	15.999
721	Ob	1	Sil	Ob	721	-0.550000011920929	15.999
722	Ob	1	Sil	Ob	722	-0.550000011920929	15.999
723	Ob	1	Sil	Ob	723	-0.550000011920929	15.999
724	Ob	1	Sil	Ob	724	-0.550000011920929	15.999
725	Ob	1	Sil	Ob	725	-0.550000011920929	15.999
726	Ob	1	Sil	Ob	726	-0.550000011920929	15.999
727	Ob	1	Sil	Ob	727	-0.550000011920929	15.999
728	Ob	1	Sil	Ob	728	-0.550000011920929	15.999
729	Ob	1	Sil	Ob	729	-0.550000011920929	15.999
730	Ob	1	Sil	Ob	730	-0.550000011920929	15.999
731	Ob	1	Sil	Ob	731	-0.550000011920929	15.999
732	Ob	1	Sil	Ob	732	-0.550000011920929	15.999
733	Ob	1	Sil	Ob	733	-0.550000011920929	15.999
734	Ob	1	Sil	Ob	734	-0.550000011920929	15.999
735	Ob	1	Sil	Ob	735	-0.550000011920929	15.999
736	Ob	1	Sil	Ob	736	-0.550000011920929	15.999
737	Ob	1	Sil	Ob	737	-0.550000011920929	15.999
738	Ob	1	Sil	Ob	738	-0.550000011920929	15.999
739	Ob	1	Sil	Ob	739	-0.550000011920929	15.999
740	Ob	1	Sil	Ob	740	-0.550000011920929	15.999
741	Ob	1	Sil	Ob	741	-0.550000011920929	15.999
742	Ob	1	Sil	Ob	742	-0.550000011920929	15.999
743	Ob	1	Sil	Ob	743	-0.550000011920929	15.999
744	Ob	1	Sil	Ob	744	-0.550000011920929	15.999
745	Ob	1	Sil	Ob	745	-0.550000011920929	15.999
746	Ob	1	Sil	Ob	746	-0.550000011920929	15.999
747	Ob	1	Sil	Ob	747	-0.550000011920929	15.999
748	Ob	1	Sil	Ob	748	-0.550000011920929	15.999
749	Ob	1	Sil	Ob	749	-0.550000011920929	15.999
750	Ob	1	Sil	Ob	750	-0.550000011920929	15.999
751	Ob	1	Sil	Ob	751	-0.550000011920929	15.999
752	Ob	1	Sil	Ob	752	-0.550000011920929	15.999
753	Ob	1	Sil	Ob	753	-0.550000011920929	15.999
754	Ob	1	Sil	Ob	754	-0.550000011920929	15.999
755	Ob	1	Sil	Ob	755	-0.550000011920929	15.999
756	Ob	1	Sil	Ob	756	-0.550000011920929	15.999
757	Ob	1	Sil	Ob	757	-0.550000011920929	15.999
758	Ob	1	Sil	Ob	758	-0.550000011920929	15.999
759	Ob	1	Sil	Ob	759	-0.550000011920929	15.999
760	Ob	1	Sil	Ob	760	-0.550000011920929	15.999
761	Ob	1	Sil	Ob	761	-0.550000011920929	15.999
762	Ob	1	Sil	Ob	762	-0.550000011920929	15.999
763	Ob	1	Sil	Ob	763	-0.550000011920929	15.999
764	Ob	1	Sil	Ob	764	-0.550000011920929	15.999
765	Ob	1	Sil	Ob	765	-0.550000011920929	15.999
766	Ob	1	Sil	Ob	766	-0.550000011920929	15.999
767	Ob	1	Sil	Ob	767	-0.550000011920929	15.999
768	Ob	1	Sil	Ob	768	-0.550000011920929	15.999
769	Ob	1	Sil	Ob	769	-0.550000011920929	15.999
770	Ob	1	Sil	Ob	770	-0.550000011920929	15.999
771	Ob	1	Sil	Ob	771	-0.550000011920929	15.999
772	Ob	1	Sil	Ob	772	-0.550000011920929	15.999
773	Ob	1	Sil	Ob	773	-0.550000011920929	15.999
774	Ob	1	Sil	Ob	774	-0.550000011920929	15.999
775	Ob	1	Sil	Ob	775	-0.550000011920929	15.999
776	Ob	1	Sil	Ob	776	-0.550000011920929	15.999
777	Ob	1	Sil	Ob	777	-0.550000011920929	15.999
778	Ob	1	Sil	Ob	778	-0.550000011920929	15.999
779	Ob	1	Sil	Ob	779	-0.550000011920929	15.999
780	Ob	1	Sil	Ob	780	-0.550000011920929	15.999
781	Ob	1	Sil	Ob	781	-0.550000011920929	15.999
782	Ob	1	Sil	Ob	782	-0.550000011920929	15.999
783	Ob	1	Sil	Ob	783	-0.550000011920929	15.999
784	Ob	1	Sil	Ob	784	-0.550000011920929	15.999
785	Ob	1	Sil	Ob	785	-0.550000011920929	15.999
786	Ob	1	Sil	Ob	786	-0.550000011920929	15.999
787	Ob	1	Sil	Ob	787	-0.550000011920929	15.999
788	Ob	1	Sil	Ob	788	-0.550000011920929	15.999
789	Ob	1	Sil	Ob	789	-0.550000011920929	15.999
790	Ob	1	Sil	Ob	790	-0.550000011920929	15.999
791	Ob	1	Sil	Ob	791	-0.550000011920929	15.999
792	Ob	1	Sil	Ob	792	-0.550000011920929	15.999
793	Ob	1	Sil	Ob	793	-0.550000011920929	15.999
794	Ob	1	Sil	Ob	794	-0.550000011920929	15.999
795	Ob	1	Sil	Ob	795	-0.550000011920929	15.999
796	Ob	1	Sil	Ob	796	-0.550000011920929	15.999
797	Ob	1	Sil	Ob	797	-0.550000011920929	15.999
798	Ob	1	Sil	Ob	798	-0.550000011920929	15.999
799	Ob	1	Sil	Ob	799	-0.550000011920929	15.999
800	Ob	1	Sil	Ob	800	-0.550000011920929	15.999
801	Ob	1	Sil	Ob	801	-0.550000011920929	15.999
802	Ob	1	Sil	Ob	802	-0.550000011920929	15.999
803	Ob	1	Sil	Ob	803	-0.550000011920929	15.999
804	Ob	1	Sil	Ob	804	-0.550000011920929	15.999
805	Ob	1	Sil	Ob	805	-0.550000011920929	15.999
806	Ob	1	Sil	Ob	806	-0.550000011920929	15.999
807	Ob	1	Sil	Ob	807	-0.550000011920929	15.999
808	Ob	1	Sil	Ob	808	-0.550000011920929	15.999
809	Ob	1	Sil	Ob	809	-0.550000011920929	15.999
810	Ob	1	Sil	Ob	810	-0.550000011920929	15.999
811	Ob	1	Sil	Ob	811	-0.550000011920929	15.999
812	Ob	1	Sil	Ob	812	-0.550000011920929	15.999
813	Ob	1	Sil	Ob	813	-0.550000011920929	15.999
814	Ob	1	Sil	Ob	814	-0.550000011920929	15.999
815	Ob	1	Sil	Ob	815	-0.550000011920929	15.999
816	Ob	1	Sil	Ob	816	-0.550000011920929	15.999
817	Ob	1	Sil	Ob	817	-0.550000011920929	15.999
818	Ob	1	Sil	Ob	818	-0.550000011920929	15.999
819	Ob	1	Sil	Ob	819	-0.550000011920929	15.999
820	Ob	1	Sil	Ob	820	-0.550000011920929	15.999
821	Ob	1	Sil	Ob	821	-0.550000011920929	15.999
822	Ob	1	Sil	Ob	822	-0.550000011920929	15.999
823	Ob	1	Sil	Ob	823	-0.550000011920929	15.999
824	Ob	1	Sil	Ob	824	-0.550000011920929	15.999
825	Ob	1	Sil	Ob	825	-0.550000011920929	15.999
826	Ob	1	Sil	Ob	826	-0.550000011920929	15.999
827	Ob	1	Sil	Ob	827	-0.550000011920929	15.999
828	Ob	1	Sil	Ob	828	-0.550000011920929	15.999
829	Ob	1	Sil	Ob	829	-0.550000011920929	15.999
830	Ob	1	Sil	Ob	830	-0.550000011920929	15.999
831	Ob	1	Sil	Ob	831	-0.550000011920929	15.999
832	Ob	1	Sil	Ob	832	-0.550000011920929	15.999
833	Ob	1	Sil	Ob	833	-0.550000011920929	15.999
834	Ob	1	Sil	Ob	834	-0.550000011920929	15.999
835	Ob	1	Sil	Ob	835	-0.550000011920929	15.999
836	Ob	1	Sil	Ob	836	-0.550000011920929	15.999
837	Ob	1	Sil	Ob	837	-0.550000011920929	15.999
838	Ob	1	Sil	Ob	838	-0.550000011920929	15.999
839	Ob	1	Sil	Ob	839	-0.550000011920929	15.999
840	Ob	1	Sil	Ob	840	-0.550000011920929	15.999
841	Ob	1	Sil	Ob	841	-0.550000011920929	15.999
842	Ob	1	Sil	Ob	842	-0.550000011920929	15.999
843	Ob	1	Sil	Ob	843	-0.550000011920929	15.999
844	Ob	1	Sil	Ob	844	-0.550000011920929	15.999
845	Ob	1	Sil	Ob	845	-0.550000011920929	15.999
846	Ob	1	Sil	Ob	846	-0.550000011920929	15.999
847	Ob	1	Sil	Ob	847	-0.550000011920929	15.999
848	Ob	1	Sil	Ob	848	-0.550000011920929	15.999
849	Ob	1	Sil	Ob	849	-0.550000011920929	15.999
850	Ob	1	Sil	Ob	850	-0.550000011920929	15.999
851	Ob	1	Sil	Ob	851	-0.550000011920929	15.999
852	Ob	1	Sil	Ob	852	-0.550000011920929	15.999
853	Ob	1	Sil	Ob	853	-0.550000011920929	15.999
854	Ob	1	Sil	Ob	854	-0.550000011920929	15.999
855	Ob	1	Sil	Ob	855	-0.550000011920929	15.999
856	Ob	1	Sil	Ob	856	-0.550000011920929	15.999
857	Ob	1	Sil	Ob	857	-0.550000011920929	15.999
858	Ob	1	Sil	Ob	858	-0.550000011920929	15.999
859	Ob	1	Sil	Ob	859	-0.550000011920929	15.999
860	Ob	1	Sil	Ob	860	-0.550000011920929	15.999
861	Ob	1	Sil	Ob	861	-0.550000011920929	15.999
862	Ob	1	Sil	Ob	862	-0.550000011920929	15.999
863	Ob	1	Sil	Ob	863	-0.550000011920929	15.999
864	Ob	1	Sil	Ob	864	-0.550000011920929	15.999
865	Ob	1	Sil	Ob	865	-0.550000011920929	15.999
866	Ob	1	Sil	Ob	866	-0.550000011920929	15.999
867	Ob	1	Sil	Ob	867	-0.550000011920929	15.999
868	Ob	1	Sil	Ob	868	-0.550000011920929	15.999
869	Ob	1	Sil	Ob	869	-0.550000011920929	15.999
870	Ob	1	Sil	Ob	870	-0.550000011920929	15.999
871	Ob	1	Sil	Ob	871	-0.550000011920929	15.999
872	Ob	1	Sil	Ob	872	-0.550000011920929	15.999
873	Ob	1	Sil	Ob	873	-0.550000011920929	15.999
874	Ob	1	Sil	Ob	874	-0.550000011920929	15.999
875	Ob	1	Sil	Ob	875	-0.550000011920929	15.999
876	Ob	1	Sil	Ob	876	-0.550000011920929	15.999
877	Ob	1	Sil	Ob	877	-0.550000011920929	15.999
878	Ob	1	Sil	Ob	878	-0.550000011920929	15.999
879	Ob	1	Sil	Ob	879	-0.550000011920929	15.999
880	Ob	1	Sil	Ob	880	-0.550000011920929	15.999
881	Ob	1	Sil	Ob	881	-0.550000011920929	15.999
882	Ob	1	Sil	Ob	882	-0.550000011920929	15.999
883	Ob	1	Sil	Ob	883	-0.550000011920929	15.999
884	Ob	1	Sil	Ob	884	-0.550000011920929	15.999
885	Ob	1	Sil	Ob	885	-0.550000011920929	15.999
886	Ob	1	Sil	Ob	886	-0.550000011920929	15.999
887	Ob	1	Sil	Ob	887	-0.550000011920929	15.999
888	Ob	1	Sil	Ob	888	-0.550000011920929	15.999
889	Ob	1	Sil	Ob	889	-0.550000011920929	15.999
890	Ob	1	Sil	Ob	890	-0.550000011920929	15.999
891	Ob	1	Sil	Ob	891	-0.550000011920929	15.999
892	Ob	1	Sil	Ob	892	-0.550000011920929	15.999
893	Ob	1	Sil	Ob	893	-0.550000011920929	15.999
894	Ob	1	Sil	Ob	894	-0.550000011920929	15.999
895	Ob	1	Sil	Ob	895	-0.550000011920929	15.999
896	Ob	1	Sil	Ob	896	-0.550000011920929	15.999
897	Ob	1	Sil	Ob	897	-0.550000011920929	15.999
898	Ob	1	Sil	Ob	898	-0.550000011920929	15.999
899	Ob	1	Sil	Ob	899	-0.550000011920929	15.999
900	Ob	1	Sil	Ob	900	-0.550000011920929	15.999
901	Ob	1	Sil	Ob	901	-0.550000011920929	15.999
902	Ob	1	Sil	Ob	902	-0.550000011920929	15.999
903	Ob	1	Sil	Ob	903	-0.550000011920929	15.999
904	Ob	1	Sil	Ob	904	-0.550000011920929	15.999
905	Ob	1	Sil	Ob	905	-0.550000011920929	15.999
906	Ob	1	Sil	Ob	906	-0.550000011920929	15.999
907	Ob	1	Sil	Ob	907	-0.550000011920929	15.999
908	Ob	1	Sil	Ob	908	-0.550000011920929	15.999
909	Ob	1	Sil	Ob	909	-0.550000011920929	15.999
910	Ob	1	Sil	Ob	910	-0.550000011920929	15.999
911	Ob	1	Sil	Ob	911	-0.550000011920929	15.999
912	Ob	1	Sil	Ob	912	-0.550000011920929	15.999
913	Ob	1	Sil	Ob	913	-0.550000011920929	15.999
914	Ob	1	Sil	Ob	914	-0.550000011920929	15.999
915	Ob	1	Sil	Ob	915	-0.550000011920929	15.999
916	Ob	1	Sil	Ob	916	-0.550000011920929	15.999
917	Ob	1	Sil	Ob	917	-0.550000011920929	15.999
918	Ob	1	Sil	Ob	918	-0.550000011920929	15.999
919	Ob	1	Sil	Ob	919	-0.550000011920929	15.999
920	Ob	1	Sil	Ob	920	-0.550000011920929	15.999
921	Ob	1	Sil	Ob	921	-0.550000011920929	15.999
922	Ob	1	Sil	Ob	922	-0.550000011920929	15.999
923	Ob	1	Sil	Ob	923	-0.550000011920929	15.999
924	Ob	1	Sil	Ob	924	-0.550000011920929	15.999
925	Ob	1	Sil	Ob	925	-0.550000011920929	15.999
926	Ob	1	Sil	Ob	926	-0.550000011920929	15.999
927	Ob	1	Sil	Ob	927	-0.550000011920929	15.999
928	Ob	1	Sil	Ob	928	-0.550000011920929	15.999
929	Ob	1	Sil	Ob	929	-0.550000011920929	15.999
930	Ob	1	Sil	Ob	930	-0.550000011920929	15.999
931	Ob	1	Sil	Ob	931	-0.550000011920929	15.999
932	Ob	1	Sil	Ob	932	-0.550000011920929	15.999
933	Ob	1	Sil	Ob	933	-0.550000011920929	15.999
934	Ob	1	Sil	Ob	934	-0.550000011920929	15.999
935	Ob	1	Sil	Ob	935	-0.550000011920929	15.999
936	Ob	1	Sil	Ob	936	-0.550000011920929	15.999
937	Ob	1	Sil	Ob	937	-0.550000011920929	15.999
938	Ob	1	Sil	Ob	938	-0.550000011920929	15.999
939	Ob	1	Sil	Ob	939	-0.550000011920929	15.999
940	Ob	1	Sil	Ob	940	-0.550000011920929	15.999
941	Ob	1	Sil	Ob	941	-0.550000011920929	15.999
942	Ob	1	Sil	Ob	942	-0.550000011920929	15.999
943	Ob	1	Sil	Ob	943	-0.550000011920929	15.999
944	Ob	1	Sil	Ob	944	-0.550000011920929	15.999
945	Ob	1	Sil	Ob	945	-0.550000011920929	15.999
946	Ob	1	Sil	Ob	946	-0.550000011920929	15.999
947	Ob	1	Sil	Ob	947	-0.550000011920929	15.999
948	Ob	1	Sil	Ob	948	-0.550000011920929	15.999
949	Ob	1	Sil	Ob	949	-0.550000011920929	15.999
950	Ob	1	Sil	Ob	950	-0.550000011920929	15.999
951	Ob	1	Sil	Ob	951	-0.550000011920929	15.999
952	Ob	1	Sil	Ob	952	-0.550000011920929	15.999
953	Ob	1	Sil	Ob	953	-0.550000011920929	15.999
954	Ob	1	Sil	Ob	954	-0.550000011920929	15.999
955	Ob	1	Sil	Ob	955	-0.550000011920929	15.999
956	Ob	1	Sil	Ob	956	-0.550000011920929	15.999
957	Ob	1	Sil	Ob	957	-0.550000011920929	15.999
958	Ob	1	Sil	Ob	958	-0.550000011920929	15.999
959	Ob	1	Sil	Ob	959	-0.550000011920929	15.999
960	Ob	1	Sil	Ob	960	-0.550000011920929	15.999
961	Ob	1	Sil	Ob	961	-0.550000011920929	15.999
962	Ob	1	Sil	Ob	962	-0.550000011920929	15.999
963	Ob	1	Sil	Ob	963	-0.550000011920929	15.999
964	Ob	1	Sil	Ob	964	-0.550000011920929	15.999
965	Ob	1	Sil	Ob	965	-0.550000011920929	15.999
966	Ob	1	Sil	Ob	966	-0.550000011920929	15.999
967	Ob	1	Sil	Ob	967	-0.550000011920929	15.999
968	Ob	1	Sil	Ob	968	-0.550000011920929	15.999
969	Ob	1	Sil	Ob	969	-0.550000011920929	15.999
970	Ob	1	Sil	Ob	970	-0.550000011920929	15.999
971	Ob	1	Sil	Ob	971	-0.550000011920929	15.999
972	Ob	1	Sil	Ob	972	-0.550000011920929	15.999
973	Ob	1	Sil	Ob	973	-0.550000011920929	15.999
974	Ob	1	Sil	Ob	974	-0.550000011920929	15.999
975	Ob	1	Sil	Ob	975	-0.550000011920929	15.999
976	Ob	1	Sil	Ob	976	-0.550000011920929	15.999
977	Ob	1	Sil	Ob	977	-0.550000011920929	15.999
978	Ob	1	Sil	Ob	978	-0.550000011920929	15.999
979	Ob	1	Sil	Ob	979	-0.550000011920929	15.999
980	Ob	1	Sil	Ob	980	-0.550000011920929	15.999
981	Ob	1	Sil	Ob	981	-0.550000011920929	15.999
982	Ob	1	Sil	Ob	982	-0.550000011920929	15.999
983	Ob	1	Sil	Ob	983	-0.550000011920929	15.999
984	Ob	1	Sil	Ob	984	-0.550000011920929	15.999
985	Ob	1	Sil	Ob	985	-0.550000011920929	15.999
986	Ob	1	Sil	Ob	986	-0.550000011920929	15.999
987	Ob	1	Sil	Ob	987	-0.550000011920929	15.999
988	Ob	1	Sil	Ob	988	-0.550000011920929	15.999
989	Ob	1	Sil	Ob	989	-0.550000011920929	15.999
990	Ob	1	Sil	Ob	990	-0.550000011920929	15.999
991	Ob	1	Sil	Ob	991	-0.550000011920929	15.999
992	Ob	1	Sil	Ob	992	-0.550000011920929	15.999
993	Ob	1	Sil	Ob	993	-0.550000011920929	15.999
994	Ob	1	Sil	Ob	994	-0.550000011920929	15.999
995	Ob	1	Sil	Ob	995	-0.550000011920929	15.999
996	Ob	1	Sil	Ob	996	-0.550000011920929	15.999
997	Ob	1	Sil	Ob	997	-0.550000011920929	15.999
998	Ob	1	Sil	Ob	998	-0.550000011920929	15.999
999	Ob	1	Sil	Ob	999	-0.550000011920929	15.999
1000	Ob	1	Sil	Ob	1000	-0.550000011920929	15.999
1001	Ob	1	Sil	Ob	1001	-0.550000011920929	15.999
1002	Ob	1	Sil	Ob	1002	-0.550000011920929	15.999
1003	Ob	1	Sil	Ob	1003	-0.550000011920929	15.999
1004	Ob	1	Sil	Ob	1004	-0.550000011920929	15.999
1005	Ob	1	Sil	Ob	1005	-0.550000011920929	15.999
1006	Ob	1	Sil	Ob	1006	-0.550000011920929	15.999
1007	Ob	1	Sil	Ob	1007	-0.550000011920929	15.999
1008	Ob	1	Sil	Ob	1008	-0.550000011920929	15.999
1009	Ob	1	Sil	Ob	1009	-0.550000011920929	15.999
1010	Ob	1	Sil	Ob	1010	-0.550000011920929	15.999
1011	Ob	1	Sil	Ob	1011	-0.550000011920929	15.999
1012	Ob	1	Sil	Ob	1012	-0.550000011920929	15.999
1013	Ob	1	Sil	Ob	1013	-0.550000011920929	15.999
1014	Ob	1	Sil	Ob	1014	-0.550000011920929	15.999
1015	Ob	1	Sil	Ob	1015	-0.550000011920929	15.999
1016	Ob	1	Sil	Ob	1016	-0.550000011920929	15.999
1017	Ob	1	Sil	Ob	1017	-0.550000011920929	15.999
1018	Ob	1	Sil	Ob	1018	-0.550000011920929	15.999
1019	Ob	1	Sil	Ob	1019	-0.550000011920929	15.999
1020	Ob	1	Sil	Ob	1020	-0.550000011920929	15.999
1021	Ob	1	Sil	Ob	1021	-0.550000011920929	15.999
1022	Ob	1	Sil	Ob	1022	-0.550000011920929	15.999
1023	Ob	1	Sil	Ob	1023	-0.550000011920929	15.999
1024	Ob	1	Sil	Ob	1024	-0.550000011920929	15.999
1025	Ob	1	Sil	Ob	1025	-0.550000011920929	15.999
1026	Ob	1	Sil	Ob	1026	-0.550000011920929	15.999
1027	Ob	1	Sil	Ob	1027	-0.550000011920929	15.999
1028	Ob	1	Sil	Ob	1028	-0.550000011920929	15.999
1029	Ob	1	Sil	Ob	1029	-0.550000011920929	15.999
1030	Ob	1	Sil	Ob	1030	-0.550000011920929	15.999
1031	Ob	1	Sil	Ob	1031	-0.550000011920929	15.999
1032	Ob	1	Sil	Ob	1032	-0.550000011920929	15.999
1033	Ob	1	Sil	Ob	1033	-0.550000011920929	15.999
1034	Ob	1	Sil	Ob	1034	-0.550000011920929	15.999
1035	Ob	1	Sil	Ob	1035	-0.550000011920929	15.999
1036	Ob	1	Sil	Ob	1036	-0.550000011920929	15.999
1037	Ob	1	Sil	Ob	1037	-0.550000011920929	15.999
1038	Ob	1	Sil	Ob	1038	-0.550000011920929	15.999
1039	Ob	1	Sil	Ob	1039	-0.550000011920929	15.999
1040	Ob	1	Sil	Ob	1040	-0.550000011920929	15.999
1041	Ob	1	Sil	Ob	1041	-0.550000011920929	15.999
1042	Ob	1	Sil	Ob	1042	-0.550000011920929	15.999
1043	Ob	1	Sil	Ob	1043	-0.550000011920929	15.999
1044	Ob	1	Sil	Ob	1044	-0.550000011920929	15.999
1045	Ob	1	Sil	Ob	1045	-0.550000011920929	15.999
1046	Ob	1	Sil	Ob	1046	-0.550000011920929	15.999
1047	Ob	1	Sil	Ob	1047	-0.550000011920929	15.999
1048	Ob	1	Sil	Ob	1048	-0.550000011920929	15.999
1049	Ob	1	Sil	Ob	1049	-0.550000011920929	15.999
1050	Ob	1	Sil	Ob	1050	-0.550000011920929	15.999
1051	Ob	1	Sil	Ob	1051	-0.550000011920929	15.999
1052	Ob	1	Sil	Ob	1052	-0.550000011920929	15.999
1053	Ob	1	Sil	Ob	1053	-0.550000011920929	15.999
1054	Ob	1	Sil	Ob	1054	-0.550000011920929	15.999
1055	Ob	1	Sil	Ob	1055	-0.550000011920929	15.999
1056	Ob	1	Sil	Ob	1056	-0.550000011920929	15.999
1057	Ob	1	Sil	Ob	1057	-0.550000011920929	15.999
1058	Ob	1	Sil	Ob	1058	-0.550000011920929	15.999
1059	Ob	1	Sil	Ob	1059	-0.550000011920929	15.999
1060	Ob	1	Sil	Ob	1060	-0.550000011920929	15.999
1061	Ob	1	Sil	Ob	1061	-0.550000011920929	15.999
1062	Ob	1	Sil	Ob	1062	-0.550000011920929	15.999
1063	Ob	1	Sil	Ob	1063	-0.550000011920929	15.999
1064	Ob	1	Sil	Ob	1064	-0.550000011920929	15.999
1065	Ob	1	Sil	Ob	1065	-0.550000011920929	15.999
1066	Ob	1	Sil	Ob	1066	-0.550000011920929	15.999
1067	Ob	1	Sil	Ob	1067	-0.550000011920929	15.999
1068	Ob	1	Sil	Ob	1068	-0.550000011920929	15.999
1069	Ob	1	Sil	Ob	1069	-0.550000011920929	15.999
1070	Ob	1	Sil	Ob	1070	-0.550000011920929	15.999
1071	Ob	1	Sil	Ob	1071	-0.550000011920929	15.999
1072	Ob	1	Sil	Ob	1072	-0.550000011920929	15.999
1073	Ob	1	Sil	Ob	1073	-0.550000011920929	15.999
1074	Ob	1	Sil	Ob	1074	-0.550000011920929	15.999
1075	Ob	1	Sil	Ob	1075	-0.550000011920929	15.999
1076	Ob	1	Sil	Ob	1076	-0.550000011920929	15.999
1077	Ob	1	Sil	Ob	1077	-0.550000011920929	15.999
1078	Ob	1	Sil	Ob	1078	-0.550000011920929	15.999
1079	Ob	1	Sil	Ob	1079	-0.550000011920929	15.999
1080	Ob	1	Sil	Ob	1080	-0.550000011920929	15.999
1081	Ob	1	Sil	Ob	1081	-0.550000011920929	15.999
1082	Ob	1	Sil	Ob	1082	-0.550000011920929	15.999
1083	Ob	1	Sil	Ob	1083	-0.550000011920929	15.999
1084	Ob	1	Sil	Ob	1084	-0.550000011920929	15.999
1085	Ob	1	Sil	Ob	1085	-0.550000011920929	15.999
1086	Ob	1	Sil	Ob	1086	-0.550000011920929	15.999
1087	Ob	1	Sil	Ob	1087	-0.550000011920929	15.999
1088	Ob	1	Sil	Ob	1088	-0.550000011920929	15.999
1089	Ob	1	Sil	Ob	1089	-0.550000011920929	15.999
1090	Ob	1	Sil	Ob	1090	-0.550000011920929	15.999
1091	Ob	1	Sil	Ob	1091	-0.550000011920929	15.999
1092	Ob	1	Sil	Ob	1092	-0.550000011920929	15.999
1093	Ob	1	Sil	Ob	1093	-0.550000011920929	15.999
1094	Ob	1	Sil	Ob	1094	-0.550000011920929	15.999
1095	Ob	1	Sil	Ob	1095	-0.550000011920929	15.999
1096	Ob	1	Sil	Ob	1096	-0.550000011920929	15.999
1097	Ob	1	Sil	Ob	1097	-0.550000011920929	15.999
1098	Ob	1	Sil	Ob	1098	-0.550000011920929	15.999
1099	Ob	1	Sil	Ob	1099	-0.550000011920929	15.999
1100	Ob	1	Sil	Ob	1100	-0.550000011920929	15.999
1101	Ob	1	Sil	Ob	1101	-0.550000011920929	15.999
1102	Ob	1	Sil	Ob	1102	-0.550000011920929	15.999
1103	Ob	1	Sil	Ob	1103	-0.550000011920929	15.999
1104	Ob	1	Sil	Ob	1104	-0.550000011920929	15.999
1105	Ob	1	Sil	Ob	1105	-0.550000011920929	15.999
1106	Ob	1	Sil	Ob	1106	-0.550000011920929	15.999
1107	Ob	1	Sil	Ob	1107	-0.550000011920929	15.999
1108	Ob	1	Sil	Ob	1108	-0.550000011920929	15.999
1109	Ob	1	Sil	Ob	1109	-0.550000011920929	15.999
1110	Ob	1	Sil	Ob	1110	-0.550000011920929	15.999
1111	Ob	1	Sil	Ob	1111	-0.550000011920929	15.999
1112	Ob	1	Sil	Ob	1112	-0.550000011920929	15.999
1113	Ob	1	Sil	Ob	1113	-0.550000011920929	15.999
1114	Ob	1	Sil	Ob	1114	-0.550000011920929	15.999
1115	Ob	1	Sil	Ob	1115	-0.550000011920929	15.999
1116	Ob	1	Sil	Ob	1116	-0.550000011920929	15.999
1117	Ob	1	Sil	Ob	1117	-0.550000011920929	15.999
1118	Ob	1	Sil	Ob	1118	-0.550000011920929	15.999
1119	Ob	1	Sil	Ob	1119	-0.550000011920929	15.999
1120	Ob	1	Sil	Ob	1120	-0.550000011920929	15.999
1121	Ob	1	Sil	Ob	1121	-0.550000011920929	15.999
1122	Ob	1	Sil	Ob	1122	-0.550000011920929	15.999
1123	Ob	1	Sil	Ob	1123	-0.550000011920929	15.999
1124	Ob	1	Sil	Ob	1124	-0.550000011920929	15.999
1125	Ob	1	Sil	Ob	1125	-0.550000011920929	15.999
1126	Ob	1	Sil	Ob	1126	-0.550000011920929	15.999
1127	Ob	1	Sil	Ob	1127	-0.550000011920929	15.999
1128	Ob	1	Sil	Ob	1128	-0.550000011920929	15.999
1129	Ob	1	Sil	Ob	1129	-0.550000011920929	15.999
1130	Ob	1	Sil	Ob	1130	-0.550000011920929	15.999
1131	Ob	1	Sil	Ob	1131	-0.550000011920929	15.999
1132	Ob	1	Sil	Ob	1132	-0.550000011920929	15.999
1133	Ob	1	Sil	Ob	1133	-0.550000011920929	15.999
1134	Ob	1	Sil	Ob	1134	-0.550000011920929	15.999
1135	Ob	1	Sil	Ob	1135	-0.550000011920929	15.999
1136	Ob	1	Sil	Ob	1136	-0.550000011920929	15.999
1137	Ob	1	Sil	Ob	1137	-0.550000011920929	15.999
1138	Ob	1	Sil	Ob	1138	-0.550000011920929	15.999
1139	Ob	1	Sil	Ob	1139	-0.550000011920929	15.999
1140	Ob	1	Sil	Ob	1140	-0.550000011920929	15.999
1141	Ob	1	Sil	Ob	1141	-0.550000011920929	15.999
1142	Ob	1	Sil	Ob	1142	-0.550000011920929	15.999
1143	Ob	1	Sil	Ob	1143	-0.550000011920929	15.999
1144	Ob	1	Sil	Ob	1144	-0.550000011920929	15.999
1145	Ob	1	Sil	Ob	1145	-0.550000011920929	15.999
1146	Ob	1	Sil	Ob	1146	-0.550000011920929	15.999
1147	Ob	1	Sil	Ob	1147	-0.550000011920929	15.999
1148	Ob	1	Sil	Ob	1148	-0.550000011920929	15.999
1149	Ob	1	Sil	Ob	1149	-0.550000011920929	15.999
1150	Ob	1	Sil	Ob	1150	-0.550000011920929	15.999
1151	Ob	1	Sil	Ob	1151	-0.550000011920929	15.999
1152	Ob	1	Sil	Ob	1152	-0.550000011920929	15.999
1153	Ob	1	Sil	Ob	1153	-0.550000011920929	15.999
1154	Ob	1	Sil	Ob	1154	-0.550000011920929	15.999
1155	Ob	1	Sil	Ob	1155	-0.550000011920929	15.999
1156	Ob	1	Sil	Ob	1156	-0.550000011920929	15.999
1157	Ob	1	Sil	Ob	1157	-0.550000011920929	15.999
1158	Ob	1	Sil	Ob	1158	-0.550000011920929	15.999
1159	Ob	1	Sil	Ob	1159	-0.550000011920929	15.999
1160	Ob	1	Sil	Ob	1160	-0.550000011920929	15.999
1161	Ob	1	Sil	Ob	1161	-0.550000011920929	15.999
1162	Ob	1	Sil	Ob	1162	-0.550000011920929	15.999
1163	Ob	1	Sil	Ob	1163	-0.550000011920929	15.999
1164	Ob	1	Sil	Ob	1164	-0.550000011920929	15.999
1165	Ob	1	Sil	Ob	1165	-0.550000011920929	15.999
1166	Ob	1	Sil	Ob	1166	-0.550000011920929	15.999
1167	Ob	1	Sil	Ob	1167	-0.550000011920929	15.999
1168	Ob	1	Sil	Ob	1168	-0.550000011920929	15.999
1169	Ob	1	Sil	Ob	1169	-0.550000011920929	15.999
1170	Ob	1	Sil	Ob	1170	-0.550000011920929	15.999
1171	Ob	1	Sil	Ob	1171	-0.550000011920929	15.999
1172	Ob	1	Sil	Ob	1172	-0.550000011920929	15.999
1173	Ob	1	Sil	Ob	1173	-0.550000011920929	15.999
1174	Ob	1	Sil	Ob	1174	-0.550000011920929	15.999
1175	Ob	1	Sil	Ob	1175	-0.550000011920929	15.999
1176	Ob	1	Sil	Ob	1176	-0.550000011920929	15.999
1177	Ob	1	Sil	Ob	1177	-0.550000011920929	15.999
1178	Ob	1	Sil	Ob	1178	-0.550000011920929	15.999
1179	Ob	1	Sil	Ob	1179	-0.550000011920929	15.999
1180	Ob	1	Sil	Ob	1180	-0.550000011920929	15.999
1181	Ob	1	Sil	Ob	1181	-0.550000011920929	15.999
1182	Ob	1	Sil	Ob	1182	-0.550000011920929	15.999
1183	Ob	1	Sil	Ob	1183	-0.550000011920929	15.999
1184	Ob	1	Sil	Ob	1184	-0.550000011920929	15.999
1185	Ob	1	Sil	Ob	1185	-0.550000011920929	15.999
1186	Ob	1	Sil	Ob	1186	-0.550000011920929	15.999
1187	Ob	1	Sil	Ob	1187	-0.550000011920929	15.999
1188	Ob	1	Sil	Ob	1188	-0.550000011920929	15.999
1189	Ob	1	Sil	Ob	1189	-0.550000011920929	15.999
1190	Ob	1	Sil	Ob	1190	-0.550000011920929	15.999
1191	Ob	1	Sil	Ob	1191	-0.550000011920929	15.999
1192	Ob	1	Sil	Ob	1192	-0.550000011920929	15.999
1193	Ob	1	Sil	Ob	1193	-0.550000011920929	15.999
1194	Ob	1	Sil	Ob	1194	-0.550000011920929	15.999
1195	Ob	1	Sil	Ob	1195	-0.550000011920929	15.999
1196	Ob	1	Sil	Ob	1196	-0.550000011920929	15.999
1197	Ob	1	Sil	Ob	1197	-0.550000011920929	15.999
1198	Ob	1	Sil	Ob	1198	-0.550000011920929	15.999
1199	Ob	1	Sil	Ob	1199	-0.550000011920929	15.999
1200	Ob	1	Sil	Ob	1200	-0.550000011920929	15.999
1201	Ob	1	Sil	Ob	1201	-0.550000011920929	15.999
1202	Ob	1	Sil	Ob	1202	-0.550000011920929	15.999
1203	Ob	1	Sil	Ob	1203	-0.550000011920929	15.999
1204	Ob	1	Sil	Ob	1204	-0.550000011920929	15.999
1205	Ob	1	Sil	Ob	1205	-0.550000011920929	15.999
1206	Ob	1	Sil	Ob	1206	-0.550000011920929	15.999
1207	Ob	1	Sil	Ob	1207	-0.550000011920929	15.999
1208	Ob	1	Sil	Ob	1208	-0.550000011920929	15.999
1209	Ob	1	Sil	Ob	1209	-0.550000011920929	15.999
1210	Ob	1	Sil	Ob	1210	-0.550000011920929	15.999
1211	Ob	1	Sil	Ob	1211	-0.550000011920929	15.999
1212	Ob	1	Sil	Ob	1212	-0.550000011920929	15.999
1213	Ob	1	Sil	Ob	1213	-0.550000011920929	15.999
1214	Ob	1	Sil	Ob	1214	-0.550000011920929	15.999
1215	Ob	1	Sil	Ob	1215	-0.550000011920929	15.999
1216	Ob	1	Sil	Ob	1216	-0.550000011920929	15.999
1217	Ob	1	Sil	Ob	1217	-0.550000011920929	15.999
1218	Ob	1	Sil	Ob	1218	-0.550000011920929	15.999
1219	Ob	1	Sil	Ob	1219	-0.550000011920929	15.999
1220	Ob	1	Sil	Ob	1220	-0.550000011920929	15.999
1221	Ob	1	Sil	Ob	1221	-0.550000011920929	15.999
1222	Ob	1	Sil	Ob	1222	-0.550000011920929	15.999
1223	Ob	1	Sil	Ob	1223	-0.550000011920929	15.999
1224	Ob	1	Sil	Ob	1224	-0.550000011920929	15.999
1225	Ob	1	Sil	Ob	1225	-0.550000011920929	15.999
1226	Ob	1	Sil	Ob	1226	-0.550000011920929	15.999
1227	Ob	1	Sil	Ob	1227	-0.550000011920929	15.999
1228	Ob	1	Sil	Ob	1228	-0.550000011920929	15.999
1229	Ob	1	Sil	Ob	1229	-0.550000011920929	15.999
1230	Ob	1	Sil	Ob	1230	-0.550000011920929	15.999
1231	Ob	1	Sil	Ob	1231	-0.550000011920929	15.999
1232	Ob	1	Sil	Ob	1232	-0.550000011920929	15.999
1233	Ob	1	Sil	Ob	1233	-0.550000011920929	15.999
1234	Ob	1	Sil	Ob	1234	-0.550000011920929	15.999
1235	Ob	1	Sil	Ob	1235	-0.550000011920929	15.999
1236	Ob	1	Sil	Ob	1236	-0.550000011920929	15.999
1237	Ob	1	Sil	Ob	1237	-0.550000011920929	15.999
1238	Ob	1	Sil	Ob	1238	-0.550000011920929	15.999
1239	Ob	1	Sil	Ob	1239	-0.550000011920929	15.999
1240	Ob	1	Sil	Ob	1240	-0.550000011920929	15.999
1241	Ob	1	Sil	Ob	1241	-0.550000011920929	15.999
1242	Ob	1	Sil	Ob	1242	-0.550000011920929	15.999
1243	Ob	1	Sil	Ob	1243	-0.550000011920929	15.999
1244	Ob	1	Sil	Ob	1244	-0.550000011920929	15.999
1245	Ob	1	Sil	Ob	1245	-0.550000011920929	15.999
1246	Ob	1	Sil	Ob	1246	-0.550000011920929	15.999
1247	Ob	1	Sil	Ob	1247	-0.550000011920929	15.999
1248	Ob	1	Sil	Ob	1248	-0.550000011920929	15.999
1249	Ob	1	Sil	Ob	1249	-0.550000011920929	15.999
1250	Ob	1	Sil	Ob	1250	-0.550000011920929	15.999
1251	Ob	1	Sil	Ob	1251	-0.550000011920929	15.999
1252	Ob	1	Sil	Ob	1252	-0.550000011920929	15.999
1253	Ob	1	Sil	Ob	1253	-0.550000011920929	15.999
1254	Ob	1	Sil	Ob	1254	-0.550000011920929	15.999
1255	Ob	1	Sil	Ob	1255	-0.550000011920929	15.999
1256	Ob	1	Sil	Ob	1256	-0.550000011920929	15.999
1257	Ob	1	Sil	Ob	1257	-0.550000011920929	15.999
1258	Ob	1	Sil	Ob	1258	-0.550000011920929	15.999
1259	Ob	1	Sil	Ob	1259	-0.550000011920929	15.999
1260	Ob	1	Sil	Ob	1260	-0.550000011920929	15.999
1261	Ob	1	Sil	Ob	1261	-0.550000011920929	15.999
1262	Ob	1	Sil	Ob	1262	-0.550000011920929	15.999
1263	Ob	1	Sil	Ob	1263	-0.550000011920929	15.999
1264	Ob	1	Sil	Ob	1264	-0.550000011920929	15.999
1265	Ob	1	Sil	Ob	1265	-0.550000011920929	15.999
1266	Ob	1	Sil	Ob	1266	-0.550000011920929	15.999
1267	Ob	1	Sil	Ob	1267	-0.550000011920929	15.999
1268	Ob	1	Sil	Ob	1268	-0.550000011920929	15.999
1269	Ob	1	Sil	Ob	1269	-0.550000011920929	15.999
1270	Ob	1	Sil	Ob	1270	-0.550000011920929	15.999
1271	Ob	1	Sil	Ob	1271	-0.550000011920929	15.999
1272	Ob	1	Sil	Ob	1272	-0.550000011920929	15.999
1273	Ob	1	Sil	Ob	1273	-0.550000011920929	15.999
1274	Ob	1	Sil	Ob	1274	-0.550000011920929	15.999
1275	Ob	1	Sil	Ob	1275	-0.550000011920929	15.999
1276	Ob	1	Sil	Ob	1276	-0.550000011920929	15.999
1277	Ob	1	Sil	Ob	1277	-0.550000011920929	15.999
1278	Ob	1	Sil	Ob	1278	-0.550000011920929	15.999
1279	Ob	1	Sil	Ob	1279	-0.550000011920929	15.999
1280	Ob	1	Sil	Ob	1280	-0.550000011920929	15.999
1281	Ob	1	Sil	Ob	1281	-0.550000011920929	15.999
1282	Ob	1	Sil	Ob	1282	-0.550000011920929	15.999
1283	Ob	1	Sil	Ob	1283	-0.550000011920929	15.999
1284	Ob	1	Sil	Ob	1284	-0.550000011920929	15.999
1285	Ob	1	Sil	Ob	1285	-0.550000011920929	15.999
1286	Ob	1	Sil	Ob	1286	-0.550000011920929	15.999
1287	Ob	1	Sil	Ob	1287	-0.550000011920929	15.999
1288	Ob	1	Sil	Ob	1288	-0.550000011920929	15.999
1289	Ob	1	Sil	Ob	1289	-0.550000011920929	15.999
1290	Ob	1	Sil	Ob	1290	-0.550000011920929	15.999
1291	Ob	1	Sil	Ob	1291	-0.550000011920929	15.999
1292	Ob	1	Sil	Ob	1292	-0.550000011920929	15.999
1293	Ob	1	Sil	Ob	1293	-0.550000011920929	15.999
1294	Ob	1	Sil	Ob	1294	-0.550000011920929	15.999
1295	Ob	1	Sil	Ob	1295	-0.550000011920929	15.999
1296	Ob	1	Sil	Ob	1296	-0.550000011920929	15.999
1297	Ob	1	Sil	Ob	1297	-0.550000011920929	15.999
1298	Ob	1	Sil	Ob	1298	-0.550000011920929	15.999
1299	Ob	1	Sil	Ob	1299	-0.550000011920929	15.999
1300	Ob	1	Sil	Ob	1300	-0.550000011920929	15.999
1301	Ob	1	Sil	Ob	1301	-0.550000011920929	15.999
1302	Ob	1	Sil	Ob	1302	-0.550000011920929	15.999
1303	Ob	1	Sil	Ob	1303	-0.550000011920929	15.999
1304	Ob	1	Sil	Ob	1304	-0.550000011920929	15.999
1305	Ob	1	Sil	Ob	1305	-0.550000011920929	15.999
1306	Ob	1	Sil	Ob	1306	-0.550000011920929	15.999
1307	Ob	1	Sil	Ob	1307	-0.550000011920929	15.999
1308	Ob	1	Sil	Ob	1308	-0.550000011920929	15.999
1309	Ob	1	Sil	Ob	1309	-0.550000011920929	15.999
1310	Ob	1	Sil	Ob	1310	-0.550000011920929	15.999
1311	Ob	1	Sil	Ob	1311	-0.550000011920929	15.999
1312	Ob	1	Sil	Ob	1312	-0.550000011920929	15.999
1313	Ob	1	Sil	Ob	1313	-0.550000011920929	15.999
1314	Ob	1	Sil	Ob	1314	-0.550000011920929	15.999
1315	Ob	1	Sil	Ob	1315	-0.550000011920929	15.999
1316	Ob	1	Sil	Ob	1316	-0.550000011920929	15.999
1317	Ob	1	Sil	Ob	1317	-0.550000011920929	15.999
1318	Ob	1	Sil	Ob	1318	-0.550000011920929	15.999
1319	Ob	1	Sil	Ob	1319	-0.550000011920929	15.999
1320	Ob	1	Sil	Ob	1320	-0.550000011920929	15.999
1321	Ob	1	Sil	Ob	1321	-0.550000011920929	15.999
1322	Ob	1	Sil	Ob	1322	-0.550000011920929	15.999
1323	Ob	1	Sil	Ob	1323	-0.550000011920929	15.999
1324	Ob	1	Sil	Ob	1324	-0.550000011920929	15.999
1325	Ob	1	Sil	Ob	1325	-0.550000011920929	15.999
1326	Ob	1	Sil	Ob	1326	-0.550000011920929	15.999
1327	Ob	1	Sil	Ob	1327	-0.550000011920929	15.999
1328	Ob	1	Sil	Ob	1328	-0.550000011920929	15.999
1329	Ob	1	Sil	Ob	1329	-0.550000011920929	15.999
1330	Ob	1	Sil	Ob	1330	-0.550000011920929	15.999
1331	Ob	1	Sil	Ob	1331	-0.550000011920929	15.999
1332	Ob	1	Sil	Ob	1332	-0.550000011920929	15.999
1333	Ob	1	Sil	Ob	1333	-0.550000011920929	15.999
1334	Ob	1	Sil	Ob	1334	-0.550000011920929	15.999
1335	Ob	1	Sil	Ob	1335	-0.550000011920929	15.999
1336	Ob	1	Sil	Ob	1336	-0.550000011920929	15.999
1337	Ob	1	Sil	Ob	1337	-0.550000011920929	15.999
1338	Ob	1	Sil	Ob	1338	-0.550000011920929	15.999
1339	Ob	1	Sil	Ob	1339	-0.550000011920929	15.999
1340	Ob	1	Sil	Ob	1340	-0.550000011920929	15.999
1341	Ob	1	Sil	Ob	1341	-0.550000011920929	15.999
1342	Ob	1	Sil	Ob	1342	-0.550000011920929	15.999
1343	Ob	1	Sil	Ob	1343	-0.550000011920929	15.999
1344	Ob	1	Sil	Ob	1344	-0.550000011920929	15.999
1345	Sib	1	Sil	Sib	1345	1.100000023841858	28.0855
1346	Sib	1	Sil	Sib	1346	1.100000023841858	28.0855
1347	Sib	1	Sil	Sib	1347	1.100000023841858	28.0855
1348	Sib	1	Sil	Sib	1348	1.100000023841858	28.0855
1349	Sib	1	Sil	Sib	1349	1.100000023841858	28.0855
1350	Sib	1	Sil	Sib	1350	1.100000023841858	28.0855
1351	Sib	1	Sil	Sib	1351	1.100000023841858	28.0855
1352	Sib	1	Sil	Sib	1352	1.100000023841858	28.0855
1353	Sib	1	Sil	Sib	1353	1.100000023841858	28.0855
1354	Sib	1	Sil	Sib	1354	1.100000023841858	28.0855
1355	Sib	1	Sil	Sib	1355	1.100000023841858	28.0855
1356	Sib	1	Sil	Sib	1356	1.100000023841858	28.0855
1357	Sib	1	Sil	Sib	1357	1.100000023841858	28.0855
1358	Sib	1	Sil	Sib	1358	1.100000023841858	28.0855
1359	Sib	1	Sil	Sib	1359	1.100000023841858	28.0855
1360	Sib	1	Sil	Sib	1360	1.100000023841858	28.0855
1361	Sib	1	Sil	Sib	1361	1.100000023841858	28.0855
1362	Sib	1	Sil	Sib	1362	1.100000023841858	28.0855
1363	Sib	1	Sil	Sib	1363	1.100000023841858	28.0855
1364	Sib	1	Sil	Sib	1364	1.100000023841858	28.0855
1365	Sib	1	Sil	Sib	1365	1.100000023841858	28.0855
1366	Sib	1	Sil	Sib	1366	1.100000023841858	28.0855
1367	Sib	1	Sil	Sib	1367	1.100000023841858	28.0855
1368	Sib	1	Sil	Sib	1368	1.100000023841858	28.0855
1369	Sib	1	Sil	Sib	1369	1.100000023841858	28.0855
1370	Sib	1	Sil	Sib	1370	1.100000023841858	28.0855
1371	Sib	1	Sil	Sib	1371	1.100000023841858	28.0855
1372	Sib	1	Sil	Sib	1372	1.100000023841858	28.0855
1373	Sib	1	Sil	Sib	1373	1.100000023841858	28.0855
1374	Sib	1	Sil	Sib	1374	1.100000023841858	28.0855
1375	Sib	1	Sil	Sib	1375	1.100000023841858	28.0855
1376	Sib	1	Sil	Sib	1376	1.100000023841858	28.0855
1377	Sib	1	Sil	Sib	1377	1.100000023841858	28.0855
1378	Sib	1	Sil	Sib	1378	1.100000023841858	28.0855
1379	Sib	1	Sil	Sib	1379	1.100000023841858	28.0855
1380	Sib	1	Sil	Sib	1380	1.100000023841858	28.0855
1381	Sib	1	Sil	Sib	1381	1.100000023841858	28.0855
1382	Sib	1	Sil	Sib	1382	1.100000023841858	28.0855
1383	Sib	1	Sil	Sib	1383	1.100000023841858	28.0855
1384	Sib	1	Sil	Sib	1384	1.100000023841858	28.0855
1385	Sib	1	Sil	Sib	1385	1.100000023841858	28.0855
1386	Sib	1	Sil	Sib	1386	1.100000023841858	28.0855
1387	Sib	1	Sil	Sib	1387	1.100000023841858	28.0855
1388	Sib	1	Sil	Sib	1388	1.100000023841858	28.0855
1389	Sib	1	Sil	Sib	1389	1.100000023841858	28.0855
1390	Sib	1	Sil	Sib	1390	1.100000023841858	28.0855
1391	Sib	1	Sil	Sib	1391	1.100000023841858	28.0855
1392	Sib	1	Sil	Sib	1392	1.100000023841858	28.0855
1393	Sib	1	Sil	Sib	1393	1.100000023841858	28.0855
1394	Sib	1	Sil	Sib	1394	1.100000023841858	28.0855
1395	Sib	1	Sil	Sib	1395	1.100000023841858	28.0855
1396	Sib	1	Sil	Sib	1396	1.100000023841858	28.0855
1397	Sib	1	Sil	Sib	1397	1.100000023841858	28.0855
1398	Sib	1	Sil	Sib	1398	1.100000023841858	28.0855
1399	Sib	1	Sil	Sib	1399	1.100000023841858	28.0855
1400	Sib	1	Sil	Sib	1400	1.100000023841858	28.0855
1401	Sib	1	Sil	Sib	1401	1.100000023841858	28.0855
1402	Sib	1	Sil	Sib	1402	1.100000023841858	28.0855
1403	Sib	1	Sil	Sib	1403	1.100000023841858	28.0855
1404	Sib	1	Sil	Sib	1404	1.100000023841858	28.0855
1405	Sib	1	Sil	Sib	1405	1.100000023841858	28.0855
1406	Sib	1	Sil	Sib	1406	1.100000023841858	28.0855
1407	Sib	1	Sil	Sib	1407	1.100000023841858	28.0855
1408	Sib	1	Sil	Sib	1408	1.100000023841858	28.0855
1409	Sib	1	Sil	Sib	1409	1.100000023841858	28.0855
1410	Sib	1	Sil	Sib	1410	1.100000023841858	28.0855
1411	Sib	1	Sil	Sib	1411	1.100000023841858	28.0855
1412	Sib	1	Sil	Sib	1412	1.100000023841858	28.0855
1413	Sib	1	Sil	Sib	1413	1.100000023841858	28.0855
1414	Sib	1	Sil	Sib	1414	1.100000023841858	28.0855
1415	Sib	1	Sil	Sib	1415	1.100000023841858	28.0855
1416	Sib	1	Sil	Sib	1416	1.100000023841858	28.0855
1417	Sib	1	Sil	Sib	1417	1.100000023841858	28.0855
1418	Sib	1	Sil	Sib	1418	1.100000023841858	28.0855
1419	Sib	1	Sil	Sib	1419	1.100000023841858	28.0855
1420	Sib	1	Sil	Sib	1420	1.100000023841858	28.0855
1421	Sib	1	Sil	Sib	1421	1.100000023841858	28.0855
1422	Sib	1	Sil	Sib	1422	1.100000023841858	28.0855
1423	Sib	1	Sil	Sib	1423	1.100000023841858	28.0855
1424	Sib	1	Sil	Sib	1424	1.100000023841858	28.0855
1425	Sib	1	Sil	Sib	1425	1.100000023841858	28.0855
1426	Sib	1	Sil	Sib	1426	1.100000023841858	28.0855
1427	Sib	1	Sil	Sib	1427	1.100000023841858	28.0855
1428	Sib	1	Sil	Sib	1428	1.100000023841858	28.0855
1429	Sib	1	Sil	Sib	1429	1.100000023841858	28.0855
1430	Sib	1	Sil	Sib	1430	1.100000023841858	28.0855
1431	Sib	1	Sil	Sib	1431	1.100000023841858	28.0855
1432	Sib	1	Sil	Sib	1432	1.100000023841858	28.0855
1433	Sib	1	Sil	Sib	1433	1.100000023841858	28.0855
1434	Sib	1	Sil	Sib	1434	1.100000023841858	28.0855
1435	Sib	1	Sil	Sib	1435	1.100000023841858	28.0855
1436	Sib	1	Sil	Sib	1436	1.100000023841858	28.0855
1437	Sib	1	Sil	Sib	1437	1.100000023841858	28.0855
1438	Sib	1	Sil	Sib	1438	1.100000023841858	28.0855
1439	Sib	1	Sil	Sib	1439	1.100000023841858	28.0855
1440	Sib	1	Sil	Sib	1440	1.100000023841858	28.0855
1441	Sib	1	Sil	Sib	1441	1.100000023841858	28.0855
1442	Sib	1	Sil	Sib	1442	1.100000023841858	28.0855
1443	Sib	1	Sil	Sib	1443	1.100000023841858	28.0855
1444	Sib	1	Sil	Sib	1444	1.100000023841858	28.0855
1445	Sib	1	Sil	Sib	1445	1.100000023841858	28.0855
1446	Sib	1	Sil	Sib	1446	1.100000023841858	28.0855
1447	Sib	1	Sil	Sib	1447	1.100000023841858	28.0855
1448	Sib	1	Sil	Sib	1448	1.100000023841858	28.0855
1449	Sib	1	Sil	Sib	1449	1.100000023841858	28.0855
1450	Sib	1	Sil	Sib	1450	1.100000023841858	28.0855
1451	Sib	1	Sil	Sib	1451	1.100000023841858	28.0855
1452	Sib	1	Sil	Sib	1452	1.100000023841858	28.0855
1453	Sib	1	Sil	Sib	1453	1.100000023841858	28.0855
1454	Sib	1	Sil	Sib	1454	1.100000023841858	28.0855
1455	Sib	1	Sil	Sib	1455	1.100000023841858	28.0855
1456	Sib	1	Sil	Sib	1456	1.100000023841858	28.0855
1457	Sib	1	Sil	Sib	1457	1.100000023841858	28.0855
1458	Sib	1	Sil	Sib	1458	1.100000023841858	28.0855
1459	Sib	1	Sil	Sib	1459	1.100000023841858	28.0855
1460	Sib	1	Sil	Sib	1460	1.100000023841858	28.0855
1461	Sib	1	Sil	Sib	1461	1.100000023841858	28.0855
1462	Sib	1	Sil	Sib	1462	1.100000023841858	28.0855
1463	Sib	1	Sil	Sib	1463	1.100000023841858	28.0855
1464	Sib	1	Sil	Sib	1464	1.100000023841858	28.0855
1465	Sib	1	Sil	Sib	1465	1.100000023841858	28.0855
1466	Sib	1	Sil	Sib	1466	1.100000023841858	28.0855
1467	Sib	1	Sil	Sib	1467	1.100000023841858	28.0855
1468	Sib	1	Sil	Sib	1468	1.100000023841858	28.0855
1469	Sib	1	Sil	Sib	1469	1.100000023841858	28.0855
1470	Sib	1	Sil	Sib	1470	1.100000023841858	28.0855
1471	Sib	1	Sil	Sib	1471	1.100000023841858	28.0855
1472	Sib	1	Sil	Sib	1472	1.100000023841858	28.0855
1473	Sib	1	Sil	Sib	1473	1.100000023841858	28.0855
1474	Sib	1	Sil	Sib	1474	1.100000023841858	28.0855
1475	Sib	1	Sil	Sib	1475	1.100000023841858	28.0855
1476	Sib	1	Sil	Sib	1476	1.100000023841858	28.0855
1477	Sib	1	Sil	Sib	1477	1.100000023841858	28.0855
1478	Sib	1	Sil	Sib	1478	1.100000023841858	28.0855
1479	Sib	1	Sil	Sib	1479	1.100000023841858	28.0855
1480	Sib	1	Sil	Sib	1480	1.100000023841858	28.0855
1481	Sib	1	Sil	Sib	1481	1.100000023841858	28.0855
1482	Sib	1	Sil	Sib	1482	1.100000023841858	28.0855
1483	Sib	1	Sil	Sib	1483	1.100000023841858	28.0855
1484	Sib	1	Sil	Sib	1484	1.100000023841858	28.0855
1485	Sib	1	Sil	Sib	1485	1.100000023841858	28.0855
1486	Sib	1	Sil	Sib	1486	1.100000023841858	28.0855
1487	Sib	1	Sil	Sib	1487	1.100000023841858	28.0855
1488	Sib	1	Sil	Sib	1488	1.100000023841858	28.0855
1489	Sib	1	Sil	Sib	1489	1.100000023841858	28.0855
1490	Sib	1	Sil	Sib	1490	1.100000023841858	28.0855
1491	Sib	1	Sil	Sib	1491	1.100000023841858	28.0855
1492	Sib	1	Sil	Sib	1492	1.100000023841858	28.0855
1493	Sib	1	Sil	Sib	1493	1.100000023841858	28.0855
1494	Sib	1	Sil	Sib	1494	1.100000023841858	28.0855
1495	Sib	1	Sil	Sib	1495	1.100000023841858	28.0855
1496	Sib	1	Sil	Sib	1496	1.100000023841858	28.0855
1497	Sib	1	Sil	Sib	1497	1.100000023841858	28.0855
1498	Sib	1	Sil	Sib	1498	1.100000023841858	28.0855
1499	Sib	1	Sil	Sib	1499	1.100000023841858	28.0855
1500	Sib	1	Sil	Sib	1500	1.100000023841858	28.0855
1501	Sib	1	Sil	Sib	1501	1.100000023841858	28.0855
1502	Sib	1	Sil	Sib	1502	1.100000023841858	28.0855
1503	Sib	1	Sil	Sib	1503	1.100000023841858	28.0855
1504	Sib	1	Sil	Sib	1504	1.100000023841858	28.0855
1505	Sib	1	Sil	Sib	1505	1.100000023841858	28.0855
1506	Sib	1	Sil	Sib	1506	1.100000023841858	28.0855
1507	Sib	1	Sil	Sib	1507	1.100000023841858	28.0855
1508	Sib	1	Sil	Sib	1508	1.100000023841858	28.0855
1509	Sib	1	Sil	Sib	1509	1.100000023841858	28.0855
1510	Sib	1	Sil	Sib	1510	1.100000023841858	28.0855
1511	Sib	1	Sil	Sib	1511	1.100000023841858	28.0855
1512	Sib	1	Sil	Sib	1512	1.100000023841858	28.0855
1513	Sib	1	Sil	Sib	1513	1.100000023841858	28.0855
1514	Sib	1	Sil	Sib	1514	1.100000023841858	28.0855
1515	Sib	1	Sil	Sib	1515	1.100000023841858	28.0855
1516	Sib	1	Sil	Sib	1516	1.100000023841858	28.0855
1517	Sib	1	Sil	Sib	1517	1.100000023841858	28.0855
1518	Sib	1	Sil	Sib	1518	1.100000023841858	28.0855
1519	Sib	1	Sil	Sib	1519	1.100000023841858	28.0855
1520	Sib	1	Sil	Sib	1520	1.100000023841858	28.0855
1521	Sib	1	Sil	Sib	1521	1.100000023841858	28.0855
1522	Sib	1	Sil	Sib	1522	1.100000023841858	28.0855
1523	Sib	1	Sil	Sib	1523	1.100000023841858	28.0855
1524	Sib	1	Sil	Sib	1524	1.100000023841858	28.0855
1525	Sib	1	Sil	Sib	1525	1.100000023841858	28.0855
1526	Sib	1	Sil	Sib	1526	1.100000023841858	28.0855
1527	Sib	1	Sil	Sib	1527	1.100000023841858	28.0855
1528	Sib	1	Sil	Sib	1528	1.100000023841858	28.0855
1529	Sib	1	Sil	Sib	1529	1.100000023841858	28.0855
1530	Sib	1	Sil	Sib	1530	1.100000023841858	28.0855
1531	Sib	1	Sil	Sib	1531	1.100000023841858	28.0855
1532	Sib	1	Sil	Sib	1532	1.100000023841858	28.0855
1533	Sib	1	Sil	Sib	1533	1.100000023841858	28.0855
1534	Sib	1	Sil	Sib	1534	1.100000023841858	28.0855
1535	Sib	1	Sil	Sib	1535	1.100000023841858	28.0855
1536	Sib	1	Sil	Sib	1536	1.100000023841858	28.0855
1537	Sib	1	Sil	Sib	1537	1.100000023841858	28.0855
1538	Sib	1	Sil	Sib	1538	1.100000023841858	28.0855
1539	Sib	1	Sil	Sib	1539	1.100000023841858	28.0855
1540	Sib	1	Sil	Sib	1540	1.100000023841858	28.0855
1541	Sib	1	Sil	Sib	1541	1.100000023841858	28.0855
1542	Sib	1	Sil	Sib	1542	1.100000023841858	28.0855
1543	Sib	1	Sil	Sib	1543	1.100000023841858	28.0855
1544	Sib	1	Sil	Sib	1544	1.100000023841858	28.0855
1545	Sib	1	Sil	Sib	1545	1.100000023841858	28.0855
1546	Sib	1	Sil	Sib	1546	1.100000023841858	28.0855
1547	Sib	1	Sil	Sib	1547	1.100000023841858	28.0855
1548	Sib	1	Sil	Sib	1548	1.100000023841858	28.0855
1549	Sib	1	Sil	Sib	1549	1.100000023841858	28.0855
1550	Sib	1	Sil	Sib	1550	1.100000023841858	28.0855
1551	Sib	1	Sil	Sib	1551	1.100000023841858	28.0855
1552	Sib	1	Sil	Sib	1552	1.100000023841858	28.0855
1553	Sib	1	Sil	Sib	1553	1.100000023841858	28.0855
1554	Sib	1	Sil	Sib	1554	1.100000023841858	28.0855
1555	Sib	1	Sil	Sib	1555	1.100000023841858	28.0855
1556	Sib	1	Sil	Sib	1556	1.100000023841858	28.0855
1557	Sib	1	Sil	Sib	1557	1.100000023841858	28.0855
1558	Sib	1	Sil	Sib	1558	1.100000023841858	28.0855
1559	Sib	1	Sil	Sib	1559	1.100000023841858	28.0855
1560	Sib	1	Sil	Sib	1560	1.100000023841858	28.0855
1561	Sib	1	Sil	Sib	1561	1.100000023841858	28.0855
1562	Sib	1	Sil	Sib	1562	1.100000023841858	28.0855
1563	Sib	1	Sil	Sib	1563	1.100000023841858	28.0855
1564	Sib	1	Sil	Sib	1564	1.100000023841858	28.0855
1565	Sib	1	Sil	Sib	1565	1.100000023841858	28.0855
1566	Sib	1	Sil	Sib	1566	1.100000023841858	28.0855
1567	Sib	1	Sil	Sib	1567	1.100000023841858	28.0855
1568	Sib	1	Sil	Sib	1568	1.100000023841858	28.0855
1569	Sib	1	Sil	Sib	1569	1.100000023841858	28.0855
1570	Sib	1	Sil	Sib	1570	1.100000023841858	28.0855
1571	Sib	1	Sil	Sib	1571	1.100000023841858	28.0855
1572	Sib	1	Sil	Sib	1572	1.100000023841858	28.0855
1573	Sib	1	Sil	Sib	1573	1.100000023841858	28.0855
1574	Sib	1	Sil	Sib	1574	1.100000023841858	28.0855
1575	Sib	1	Sil	Sib	1575	1.100000023841858	28.0855
1576	Sib	1	Sil	Sib	1576	1.100000023841858	28.0855
1577	Sib	1	Sil	Sib	1577	1.100000023841858	28.0855
1578	Sib	1	Sil	Sib	1578	1.100000023841858	28.0855
1579	Sib	1	Sil	Sib	1579	1.100000023841858	28.0855
1580	Sib	1	Sil	Sib	1580	1.100000023841858	28.0855
1581	Sib	1	Sil	Sib	1581	1.100000023841858	28.0855
1582	Sib	1	Sil	Sib	1582	1.100000023841858	28.0855
1583	Sib	1	Sil	Sib	1583	1.100000023841858	28.0855
1584	Sib	1	Sil	Sib	1584	1.100000023841858	28.0855
1585	Sib	1	Sil	Sib	1585	1.100000023841858	28.0855
1586	Sib	1	Sil	Sib	1586	1.100000023841858	28.0855
1587	Sib	1	Sil	Sib	1587	1.100000023841858	28.0855
1588	Sib	1	Sil	Sib	1588	1.100000023841858	28.0855
1589	Sib	1	Sil	Sib	1589	1.100000023841858	28.0855
1590	Sib	1	Sil	Sib	1590	1.100000023841858	28.0855
1591	Sib	1	Sil	Sib	1591	1.100000023841858	28.0855
1592	Sib	1	Sil	Sib	1592	1.100000023841858	28.0855
1593	Sib	1	Sil	Sib	1593	1.100000023841858	28.0855
1594	Sib	1	Sil	Sib	1594	1.100000023841858	28.0855
1595	Sib	1	Sil	Sib	1595	1.100000023841858	28.0855
1596	Sib	1	Sil	Sib	1596	1.100000023841858	28.0855
1597	Sib	1	Sil	Sib	1597	1.100000023841858	28.0855
1598	Sib	1	Sil	Sib	1598	1.100000023841858	28.0855
1599	Sib	1	Sil	Sib	1599	1.100000023841858	28.0855
1600	Sib	1	Sil	Sib	1600	1.100000023841858	28.0855
1601	Sib	1	Sil	Sib	1601	1.100000023841858	28.0855
1602	Sib	1	Sil	Sib	1602	1.100000023841858	28.0855
1603	Sib	1	Sil	Sib	1603	1.100000023841858	28.0855
1604	Sib	1	Sil	Sib	1604	1.100000023841858	28.0855
1605	Sib	1	Sil	Sib	1605	1.100000023841858	28.0855
1606	Sib	1	Sil	Sib	1606	1.100000023841858	28.0855
1607	Sib	1	Sil	Sib	1607	1.100000023841858	28.0855
1608	Sib	1	Sil	Sib	1608	1.100000023841858	28.0855
1609	Sib	1	Sil	Sib	1609	1.100000023841858	28.0855
1610	Sib	1	Sil	Sib	1610	1.100000023841858	28.0855
1611	Sib	1	Sil	Sib	1611	1.100000023841858	28.0855
1612	Sib	1	Sil	Sib	1612	1.100000023841858	28.0855
1613	Sib	1	Sil	Sib	1613	1.100000023841858	28.0855
1614	Sib	1	Sil	Sib	1614	1.100000023841858	28.0855
1615	Sib	1	Sil	Sib	1615	1.100000023841858	28.0855
1616	Sib	1	Sil	Sib	1616	1.100000023841858	28.0855
1617	Sib	1	Sil	Sib	1617	1.100000023841858	28.0855
1618	Sib	1	Sil	Sib	1618	1.100000023841858	28.0855
1619	Sib	1	Sil	Sib	1619	1.100000023841858	28.0855
1620	Sib	1	Sil	Sib	1620	1.100000023841858	28.0855
1621	Sib	1	Sil	Sib	1621	1.100000023841858	28.0855
1622	Sib	1	Sil	Sib	1622	1.100000023841858	28.0855
1623	Sib	1	Sil	Sib	1623	1.100000023841858	28.0855
1624	Sib	1	Sil	Sib	1624	1.100000023841858	28.0855
1625	Sib	1	Sil	Sib	1625	1.100000023841858	28.0855
1626	Sib	1	Sil	Sib	1626	1.100000023841858	28.0855
1627	Sib	1	Sil	Sib	1627	1.100000023841858	28.0855
1628	Sib	1	Sil	Sib	1628	1.100000023841858	28.0855
1629	Sib	1	Sil	Sib	1629	1.100000023841858	28.0855
1630	Sib	1	Sil	Sib	1630	1.100000023841858	28.0855
1631	Sib	1	Sil	Sib	1631	1.100000023841858	28.0855
1632	Sib	1	Sil	Sib	1632	1.100000023841858	28.0855
1633	Sib	1	Sil	Sib	1633	1.100000023841858	28.0855
1634	Sib	1	Sil	Sib	1634	1.100000023841858	28.0855
1635	Sib	1	Sil	Sib	1635	1.100000023841858	28.0855
1636	Sib	1	Sil	Sib	1636	1.100000023841858	28.0855
1637	Sib	1	Sil	Sib	1637	1.100000023841858	28.0855
1638	Sib	1	Sil	Sib	1638	1.100000023841858	28.0855
1639	Sib	1	Sil	Sib	1639	1.100000023841858	28.0855
1640	Sib	1	Sil	Sib	1640	1.100000023841858	28.0855
1641	Sib	1	Sil	Sib	1641	1.100000023841858	28.0855
1642	Sib	1	Sil	Sib	1642	1.100000023841858	28.0855
1643	Sib	1	Sil	Sib	1643	1.100000023841858	28.0855
1644	Sib	1	Sil	Sib	1644	1.100000023841858	28.0855
1645	Sib	1	Sil	Sib	1645	1.100000023841858	28.0855
1646	Sib	1	Sil	Sib	1646	1.100000023841858	28.0855
1647	Sib	1	Sil	Sib	1647	1.100000023841858	28.0855
1648	Sib	1	Sil	Sib	1648	1.100000023841858	28.0855
1649	Sib	1	Sil	Sib	1649	1.100000023841858	28.0855
1650	Sib	1	Sil	Sib	1650	1.100000023841858	28.0855
1651	Sib	1	Sil	Sib	1651	1.100000023841858	28.0855
1652	Sib	1	Sil	Sib	1652	1.100000023841858	28.0855
1653	Sib	1	Sil	Sib	1653	1.100000023841858	28.0855
1654	Sib	1	Sil	Sib	1654	1.100000023841858	28.0855
1655	Sib	1	Sil	Sib	1655	1.100000023841858	28.0855
1656	Sib	1	Sil	Sib	1656	1.100000023841858	28.0855
1657	Sib	1	Sil	Sib	1657	1.100000023841858	28.0855
1658	Sib	1	Sil	Sib	1658	1.100000023841858	28.0855
1659	Sib	1	Sil	Sib	1659	1.100000023841858	28.0855
1660	Sib	1	Sil	Sib	1660	1.100000023841858	28.0855
1661	Sib	1	Sil	Sib	1661	1.100000023841858	28.0855
1662	Sib	1	Sil	Sib	1662	1.100000023841858	28.0855
1663	Sib	1	Sil	Sib	1663	1.100000023841858	28.0855
1664	Sib	1	Sil	Sib	1664	1.100000023841858	28.0855
1665	Sib	1	Sil	Sib	1665	1.100000023841858	28.0855
1666	Sib	1	Sil	Sib	1666	1.100000023841858	28.0855
1667	Sib	1	Sil	Sib	1667	1.100000023841858	28.0855
1668	Sib	1	Sil	Sib	1668	1.100000023841858	28.0855
1669	Sib	1	Sil	Sib	1669	1.100000023841858	28.0855
1670	Sib	1	Sil	Sib	1670	1.100000023841858	28.0855
1671	Sib	1	Sil	Sib	1671	1.100000023841858	28.0855
1672	Sib	1	Sil	Sib	1672	1.100000023841858	28.0855
1673	Sib	1	Sil	Sib	1673	1.100000023841858	28.0855
1674	Sib	1	Sil	Sib	1674	1.100000023841858	28.0855
1675	Sib	1	Sil	Sib	1675	1.100000023841858	28.0855
1676	Sib	1	Sil	Sib	1676	1.100000023841858	28.0855
1677	Sib	1	Sil	Sib	1677	1.100000023841858	28.0855
1678	Sib	1	Sil	Sib	1678	1.100000023841858	28.0855
1679	Sib	1	Sil	Sib	1679	1.100000023841858	28.0855
1680	Sib	1	Sil	Sib	1680	1.100000023841858	28.0855
1681	Sib	1	Sil	Sib	1681	1.100000023841858	28.0855
1682	Sib	1	Sil	Sib	1682	1.100000023841858	28.0855
1683	Sib	1	Sil	Sib	1683	1.100000023841858	28.0855
1684	Sib	1	Sil	Sib	1684	1.100000023841858	28.0855
1685	Sib	1	Sil	Sib	1685	1.100000023841858	28.0855
1686	Sib	1	Sil	Sib	1686	1.100000023841858	28.0855
1687	Sib	1	Sil	Sib	1687	1.100000023841858	28.0855
1688	Sib	1	Sil	Sib	1688	1.100000023841858	28.0855
1689	Sib	1	Sil	Sib	1689	1.100000023841858	28.0855
1690	Sib	1	Sil	Sib	1690	1.100000023841858	28.0855
1691	Sib	1	Sil	Sib	1691	1.100000023841858	28.0855
1692	Sib	1	Sil	Sib	1692	1.100000023841858	28.0855
1693	Sib	1	Sil	Sib	1693	1.100000023841858	28.0855
1694	Sib	1	Sil	Sib	1694	1.100000023841858	28.0855
1695	Sib	1	Sil	Sib	1695	1.100000023841858	28.0855
1696	Sib	1	Sil	Sib	1696	1.100000023841858	28.0855
1697	Sib	1	Sil	Sib	1697	1.100000023841858	28.0855
1698	Sib	1	Sil	Sib	1698	1.100000023841858	28.0855
1699	Sib	1	Sil	Sib	1699	1.100000023841858	28.0855
1700	Sib	1	Sil	Sib	1700	1.100000023841858	28.0855
1701	Sib	1	Sil	Sib	1701	1.100000023841858	28.0855
1702	Sib	1	Sil	Sib	1702	1.100000023841858	28.0855
1703	Sib	1	Sil	Sib	1703	1.100000023841858	28.0855
1704	Sib	1	Sil	Sib	1704	1.100000023841858	28.0855
1705	Sib	1	Sil	Sib	1705	1.100000023841858	28.0855
1706	Sib	1	Sil	Sib	1706	1.100000023841858	28.0855
1707	Sib	1	Sil	Sib	1707	1.100000023841858	28.0855
1708	Sib	1	Sil	Sib	1708	1.100000023841858	28.0855
1709	Sib	1	Sil	Sib	1709	1.100000023841858	28.0855
1710	Sib	1	Sil	Sib	1710	1.100000023841858	28.0855
1711	Sib	1	Sil	Sib	1711	1.100000023841858	28.0855
1712	Sib	1	Sil	Sib	1712	1.100000023841858	28.0855
1713	Sib	1	Sil	Sib	1713	1.100000023841858	28.0855
1714	Sib	1	Sil	Sib	1714	1.100000023841858	28.0855
1715	Sib	1	Sil	Sib	1715	1.100000023841858	28.0855
1716	Sib	1	Sil	Sib	1716	1.100000023841858	28.0855
1717	Sib	1	Sil	Sib	1717	1.100000023841858	28.0855
1718	Sib	1	Sil	Sib	1718	1.100000023841858	28.0855
1719	Sib	1	Sil	Sib	1719	1.100000023841858	28.0855
1720	Sib	1	Sil	Sib	1720	1.100000023841858	28.0855
1721	Sib	1	Sil	Sib	1721	1.100000023841858	28.0855
1722	Sib	1	Sil	Sib	1722	1.100000023841858	28.0855
1723	Sib	1	Sil	Sib	1723	1.100000023841858	28.0855
1724	Sib	1	Sil	Sib	1724	1.100000023841858	28.0855
1725	Sib	1	Sil	Sib	1725	1.100000023841858	28.0855
1726	Sib	1	Sil	Sib	1726	1.100000023841858	28.0855
1727	Sib	1	Sil	Sib	1727	1.100000023841858	28.0855
1728	Sib	1	Sil	Sib	1728	1.100000023841858	28.0855
1729	Sib	1	Sil	Sib	1729	1.100000023841858	28.0855
1730	Sib	1	Sil	Sib	1730	1.100000023841858	28.0855
1731	Sib	1	Sil	Sib	1731	1.100000023841858	28.0855
1732	Sib	1	Sil	Sib	1732	1.100000023841858	28.0855
1733	Sib	1	Sil	Sib	1733	1.100000023841858	28.0855
1734	Sib	1	Sil	Sib	1734	1.100000023841858	28.0855
1735	Sib	1	Sil	Sib	1735	1.100000023841858	28.0855
1736	Sib	1	Sil	Sib	1736	1.100000023841858	28.0855
1737	Sib	1	Sil	Sib	1737	1.100000023841858	28.0855
1738	Sib	1	Sil	Sib	1738	1.100000023841858	28.0855
1739	Sib	1	Sil	Sib	1739	1.100000023841858	28.0855
1740	Sib	1	Sil	Sib	1740	1.100000023841858	28.0855
1741	Sib	1	Sil	Sib	1741	1.100000023841858	28.0855
1742	Sib	1	Sil	Sib	1742	1.100000023841858	28.0855
1743	Sib	1	Sil	Sib	1743	1.100000023841858	28.0855
1744	Sib	1	Sil	Sib	1744	1.100000023841858	28.0855
1745	Sib	1	Sil	Sib	1745	1.100000023841858	28.0855
1746	Sib	1	Sil	Sib	1746	1.100000023841858	28.0855
1747	Sib	1	Sil	Sib	1747	1.100000023841858	28.0855
1748	Sib	1	Sil	Sib	1748	1.100000023841858	28.0855
1749	Sib	1	Sil	Sib	1749	1.100000023841858	28.0855
1750	Sib	1	Sil	Sib	1750	1.100000023841858	28.0855
1751	Sib	1	Sil	Sib	1751	1.100000023841858	28.0855
1752	Sib	1	Sil	Sib	1752	1.100000023841858	28.0855
1753	Sib	1	Sil	Sib	1753	1.100000023841858	28.0855
1754	Sib	1	Sil	Sib	1754	1.100000023841858	28.0855
1755	Sib	1	Sil	Sib	1755	1.100000023841858	28.0855
1756	Sib	1	Sil	Sib	1756	1.100000023841858	28.0855
1757	Sib	1	Sil	Sib	1757	1.100000023841858	28.0855
1758	Sib	1	Sil	Sib	1758	1.100000023841858	28.0855
1759	Sib	1	Sil	Sib	1759	1.100000023841858	28.0855
1760	Sib	1	Sil	Sib	1760	1.100000023841858	28.0855
1761	Sib	1	Sil	Sib	1761	1.100000023841858	28.0855
1762	Sib	1	Sil	Sib	1762	1.100000023841858	28.0855
1763	Sib	1	Sil	Sib	1763	1.100000023841858	28.0855
1764	Sib	1	Sil	Sib	1764	1.100000023841858	28.0855
1765	Sib	1	Sil	Sib	1765	1.100000023841858	28.0855
1766	Sib	1	Sil	Sib	1766	1.100000023841858	28.0855
1767	Sib	1	Sil	Sib	1767	1.100000023841858	28.0855
1768	Sib	1	Sil	Sib	1768	1.100000023841858	28.0855
1769	Sib	1	Sil	Sib	1769	1.100000023841858	28.0855
1770	Sib	1	Sil	Sib	1770	1.100000023841858	28.0855
1771	Sib	1	Sil	Sib	1771	1.100000023841858	28.0855
1772	Sib	1	Sil	Sib	1772	1.100000023841858	28.0855
1773	Sib	1	Sil	Sib	1773	1.100000023841858	28.0855
1774	Sib	1	Sil	Sib	1774	1.100000023841858	28.0855
1775	Sib	1	Sil	Sib	1775	1.100000023841858	28.0855
1776	Sib	1	Sil	Sib	1776	1.100000023841858	28.0855
1777	Sib	1	Sil	Sib	1777	1.100000023841858	28.0855
1778	Sib	1	Sil	Sib	1778	1.100000023841858	28.0855
1779	Sib	1	Sil	Sib	1779	1.100000023841858	28.0855
1780	Sib	1	Sil	Sib	1780	1.100000023841858	28.0855
1781	Sib	1	Sil	Sib	1781	1.100000023841858	28.0855
1782	Sib	1	Sil	Sib	1782	1.100000023841858	28.0855
1783	Sib	1	Sil	Sib	1783	1.100000023841858	28.0855
1784	Sib	1	Sil	Sib	1784	1.100000023841858	28.0855
1785	Sib	1	Sil	Sib	1785	1.100000023841858	28.0855
1786	Sib	1	Sil	Sib	1786	1.100000023841858	28.0855
1787	Sib	1	Sil	Sib	1787	1.100000023841858	28.0855
1788	Sib	1	Sil	Sib	1788	1.100000023841858	28.0855
1789	Sib	1	Sil	Sib	1789	1.100000023841858	28.0855
1790	Sib	1	Sil	Sib	1790	1.100000023841858	28.0855
1791	Sib	1	Sil	Sib	1791	1.100000023841858	28.0855
1792	Sib	1	Sil	Sib	1792	1.100000023841858	28.0855
1793	Sib	1	Sil	Sib	1793	1.100000023841858	28.0855
1794	Sib	1	Sil	Sib	1794	1.100000023841858	28.0855
1795	Sib	1	Sil	Sib	1795	1.100000023841858	28.0855
1796	Sib	1	Sil	Sib	1796	1.100000023841858	28.0855
1797	Sib	1	Sil	Sib	1797	1.100000023841858	28.0855
1798	Sib	1	Sil	Sib	1798	1.100000023841858	28.0855
1799	Sib	1	Sil	Sib	1799	1.100000023841858	28.0855
1800	Sib	1	Sil	Sib	1800	1.100000023841858	28.0855
1801	Sib	1	Sil	Sib	1801	1.100000023841858	28.0855
1802	Sib	1	Sil	Sib	1802	1.100000023841858	28.0855
1803	Sib	1	Sil	Sib	1803	1.100000023841858	28.0855
1804	Sib	1	Sil	Sib	1804	1.100000023841858	28.0855
1805	Sib	1	Sil	Sib	1805	1.100000023841858	28.0855
1806	Sib	1	Sil	Sib	1806	1.100000023841858	28.0855
1807	Sib	1	Sil	Sib	1807	1.100000023841858	28.0855
1808	Sib	1	Sil	Sib	1808	1.100000023841858	28.0855
1809	Sib	1	Sil	Sib	1809	1.100000023841858	28.0855
1810	Sib	1	Sil	Sib	1810	1.100000023841858	28.0855
1811	Sib	1	Sil	Sib	1811	1.100000023841858	28.0855
1812	Sib	1	Sil	Sib	1812	1.100000023841858	28.0855
1813	Sib	1	Sil	Sib	1813	1.100000023841858	28.0855
1814	Sib	1	Sil	Sib	1814	1.100000023841858	28.0855
1815	Sib	1	Sil	Sib	1815	1.100000023841858	28.0855
1816	Sib	1	Sil	Sib	1816	1.100000023841858	28.0855
1817	Sib	1	Sil	Sib	1817	1.100000023841858	28.0855
1818	Sib	1	Sil	Sib	1818	1.100000023841858	28.0855
1819	Sib	1	Sil	Sib	1819	1.100000023841858	28.0855
1820	Sib	1	Sil	Sib	1820	1.100000023841858	28.0855
1821	Sib	1	Sil	Sib	1821	1.100000023841858	28.0855
1822	Sib	1	Sil	Sib	1822	1.100000023841858	28.0855
1823	Sib	1	Sil	Sib	1823	1.100000023841858	28.0855
1824	Sib	1	Sil	Sib	1824	1.100000023841858	28.0855
1825	Sib	1	Sil	Sib	1825	1.100000023841858	28.0855
1826	Sib	1	Sil	Sib	1826	1.100000023841858	28.0855
1827	Sib	1	Sil	Sib	1827	1.100000023841858	28.0855
1828	Sib	1	Sil	Sib	1828	1.100000023841858	28.0855
1829	Sib	1	Sil	Sib	1829	1.100000023841858	28.0855
1830	Sib	1	Sil	Sib	1830	1.100000023841858	28.0855
1831	Sib	1	Sil	Sib	1831	1.100000023841858	28.0855
1832	Sib	1	Sil	Sib	1832	1.100000023841858	28.0855
1833	Sib	1	Sil	Sib	1833	1.100000023841858	28.0855
1834	Sib	1	Sil	Sib	1834	1.100000023841858	28.0855
1835	Sib	1	Sil	Sib	1835	1.100000023841858	28.0855
1836	Sib	1	Sil	Sib	1836	1.100000023841858	28.0855
1837	Sib	1	Sil	Sib	1837	1.100000023841858	28.0855
1838	Sib	1	Sil	Sib	1838	1.100000023841858	28.0855
1839	Sib	1	Sil	Sib	1839	1.100000023841858	28.0855
1840	Sib	1	Sil	Sib	1840	1.100000023841858	28.0855
1841	Sib	1	Sil	Sib	1841	1.100000023841858	28.0855
1842	Sib	1	Sil	Sib	1842	1.100000023841858	28.0855
1843	Sib	1	Sil	Sib	1843	1.100000023841858	28.0855
1844	Sib	1	Sil	Sib	1844	1.100000023841858	28.0855
1845	Sib	1	Sil	Sib	1845	1.100000023841858	28.0855
1846	Sib	1	Sil	Sib	1846	1.100000023841858	28.0855
1847	Sib	1	Sil	Sib	1847	1.100000023841858	28.0855
1848	Sib	1	Sil	Sib	1848	1.100000023841858	28.0855
1849	Sib	1	Sil	Sib	1849	1.100000023841858	28.0855
1850	Sib	1	Sil	Sib	1850	1.100000023841858	28.0855
1851	Sib	1	Sil	Sib	1851	1.100000023841858	28.0855
1852	Sib	1	Sil	Sib	1852	1.100000023841858	28.0855
1853	Sib	1	Sil	Sib	1853	1.100000023841858	28.0855
1854	Sib	1	Sil	Sib	1854	1.100000023841858	28.0855
1855	Sib	1	Sil	Sib	1855	1.100000023841858	28.0855
1856	Sib	1	Sil	Sib	1856	1.100000023841858	28.0855
1857	Sib	1	Sil	Sib	1857	1.100000023841858	28.0855
1858	Sib	1	Sil	Sib	1858	1.100000023841858	28.0855
1859	Sib	1	Sil	Sib	1859	1.100000023841858	28.0855
1860	Sib	1	Sil	Sib	1860	1.100000023841858	28.0855
1861	Sib	1	Sil	Sib	1861	1.100000023841858	28.0855
1862	Sib	1	Sil	Sib	1862	1.100000023841858	28.0855
1863	Sib	1	Sil	Sib	1863	1.100000023841858	28.0855
1864	Sib	1	Sil	Sib	1864	1.100000023841858	28.0855
1865	Sib	1	Sil	Sib	1865	1.100000023841858	28.0855
1866	Sib	1	Sil	Sib	1866	1.100000023841858	28.0855
1867	Sib	1	Sil	Sib	1867	1.100000023841858	28.0855
1868	Sib	1	Sil	Sib	1868	1.100000023841858	28.0855
1869	Sib	1	Sil	Sib	1869	1.100000023841858	28.0855
1870	Sib	1	Sil	Sib	1870	1.100000023841858	28.0855
1871	Sib	1	Sil	Sib	1871	1.100000023841858	28.0855
1872	Sib	1	Sil	Sib	1872	1.100000023841858	28.0855
1873	Sib	1	Sil	Sib	1873	1.100000023841858	28.0855
1874	Sib	1	Sil	Sib	1874	1.100000023841858	28.0855
1875	Sib	1	Sil	Sib	1875	1.100000023841858	28.0855
1876	Sib	1	Sil	Sib	1876	1.100000023841858	28.0855
1877	Sib	1	Sil	Sib	1877	1.100000023841858	28.0855
1878	Sib	1	Sil	Sib	1878	1.100000023841858	28.0855
1879	Sib	1	Sil	Sib	1879	1.100000023841858	28.0855
1880	Sib	1	Sil	Sib	1880	1.100000023841858	28.0855
1881	Sib	1	Sil	Sib	1881	1.100000023841858	28.0855
1882	Sib	1	Sil	Sib	1882	1.100000023841858	28.0855
1883	Sib	1	Sil	Sib	1883	1.100000023841858	28.0855
1884	Sib	1	Sil	Sib	1884	1.100000023841858	28.0855
1885	Sib	1	Sil	Sib	1885	1.100000023841858	28.0855
1886	Sib	1	Sil	Sib	1886	1.100000023841858	28.0855
1887	Sib	1	Sil	Sib	1887	1.100000023841858	28.0855
1888	Sib	1	Sil	Sib	1888	1.100000023841858	28.0855
1889	Sib	1	Sil	Sib	1889	1.100000023841858	28.0855
1890	Sib	1	Sil	Sib	1890	1.100000023841858	28.0855
1891	Sib	1	Sil	Sib	1891	1.100000023841858	28.0855
1892	Sib	1	Sil	Sib	1892	1.100000023841858	28.0855
1893	Sib	1	Sil	Sib	1893	1.100000023841858	28.0855
1894	Sib	1	Sil	Sib	1894	1.100000023841858	28.0855
1895	Sib	1	Sil	Sib	1895	1.100000023841858	28.0855
1896	Sib	1	Sil	Sib	1896	1.100000023841858	28.0855
1897	Sib	1	Sil	Sib	1897	1.100000023841858	28.0855
1898	Sib	1	Sil	Sib	1898	1.100000023841858	28.0855
1899	Sib	1	Sil	Sib	1899	1.100000023841858	28.0855
1900	Sib	1	Sil	Sib	1900	1.100000023841858	28.0855
1901	Sib	1	Sil	Sib	1901	1.100000023841858	28.0855
1902	Sib	1	Sil	Sib	1902	1.100000023841858	28.0855
1903	Sib	1	Sil	Sib	1903	1.100000023841858	28.0855
1904	Sib	1	Sil	Sib	1904	1.100000023841858	28.0855
1905	Sib	1	Sil	Sib	1905	1.100000023841858	28.0855
1906	Sib	1	Sil	Sib	1906	1.100000023841858	28.0855
1907	Sib	1	Sil	Sib	1907	1.100000023841858	28.0855
1908	Sib	1	Sil	Sib	1908	1.100000023841858	28.0855
1909	Sib	1	Sil	Sib	1909	1.100000023841858	28.0855
1910	Sib	1	Sil	Sib	1910	1.100000023841858	28.0855
1911	Sib	1	Sil	Sib	1911	1.100000023841858	28.0855
1912	Sib	1	Sil	Sib	1912	1.100000023841858	28.0855
1913	Sib	1	Sil	Sib	1913	1.100000023841858	28.0855
1914	Sib	1	Sil	Sib	1914	1.100000023841858	28.0855
1915	Sib	1	Sil	Sib	1915	1.100000023841858	28.0855
1916	Sib	1	Sil	Sib	1916	1.100000023841858	28.0855
1917	Sib	1	Sil	Sib	1917	1.100000023841858	28.0855
1918	Sib	1	Sil	Sib	1918	1.100000023841858	28.0855
1919	Sib	1	Sil	Sib	1919	1.100000023841858	28.0855
1920	Sib	1	Sil	Sib	1920	1.100000023841858	28.0855
1921	Sib	1	Sil	Sib	1921	1.100000023841858	28.0855
1922	Sib	1	Sil	Sib	1922	1.100000023841858	28.0855
1923	Sib	1	Sil	Sib	1923	1.100000023841858	28.0855
1924	Sib	1	Sil	Sib	1924	1.100000023841858	28.0855
1925	Sib	1	Sil	Sib	1925	1.100000023841858	28.0855
1926	Sib	1	Sil	Sib	1926	1.100000023841858	28.0855
1927	Sib	1	Sil	Sib	1927	1.100000023841858	28.0855
1928	Sib	1	Sil	Sib	1928	1.100000023841858	28.0855
1929	Sib	1	Sil	Sib	1929	1.100000023841858	28.0855
1930	Sib	1	Sil	Sib	1930	1.100000023841858	28.0855
1931	Sib	1	Sil	Sib	1931	1.100000023841858	28.0855
1932	Sib	1	Sil	Sib	1932	1.100000023841858	28.0855
1933	Sib	1	Sil	Sib	1933	1.100000023841858	28.0855
1934	Sib	1	Sil	Sib	1934	1.100000023841858	28.0855
1935	Sib	1	Sil	Sib	1935	1.100000023841858	28.0855
1936	Sib	1	Sil	Sib	1936	1.100000023841858	28.0855
1937	Sib	1	Sil	Sib	1937	1.100000023841858	28.0855
1938	Sib	1	Sil	Sib	1938	1.100000023841858	28.0855
1939	Sib	1	Sil	Sib	1939	1.100000023841858	28.0855
1940	Sib	1	Sil	Sib	1940	1.100000023841858	28.0855
1941	Sib	1	Sil	Sib	1941	1.100000023841858	28.0855
1942	Sib	1	Sil	Sib	1942	1.100000023841858	28.0855
1943	Sib	1	Sil	Sib	1943	1.100000023841858	28.0855
1944	Sib	1	Sil	Sib	1944	1.100000023841858	28.0855
1945	Sib	1	Sil	Sib	1945	1.100000023841858	28.0855
1946	Sib	1	Sil	Sib	1946	1.100000023841858	28.0855
1947	Sib	1	Sil	Sib	1947	1.100000023841858	28.0855
1948	Sib	1	Sil	Sib	1948	1.100000023841858	28.0855
1949	Sib	1	Sil	Sib	1949	1.100000023841858	28.0855
1950	Sib	1	Sil	Sib	1950	1.100000023841858	28.0855
1951	Sib	1	Sil	Sib	1951	1.100000023841858	28.0855
1952	Sib	1	Sil	Sib	1952	1.100000023841858	28.0855
1953	Sib	1	Sil	Sib	1953	1.100000023841858	28.0855
1954	Sib	1	Sil	Sib	1954	1.100000023841858	28.0855
1955	Sib	1	Sil	Sib	1955	1.100000023841858	28.0855
1956	Sib	1	Sil	Sib	1956	1.100000023841858	28.0855
1957	Sib	1	Sil	Sib	1957	1.100000023841858	28.0855
1958	Sib	1	Sil	Sib	1958	1.100000023841858	28.0855
1959	Sib	1	Sil	Sib	1959	1.100000023841858	28.0855
1960	Sib	1	Sil	Sib	1960	1.100000023841858	28.0855
1961	Sib	1	Sil	Sib	1961	1.100000023841858	28.0855
1962	Sib	1	Sil	Sib	1962	1.100000023841858	28.0855
1963	Sib	1	Sil	Sib	1963	1.100000023841858	28.0855
1964	Sib	1	Sil	Sib	1964	1.100000023841858	28.0855
1965	Sib	1	Sil	Sib	1965	1.100000023841858	28.0855
1966	Sib	1	Sil	Sib	1966	1.100000023841858	28.0855
1967	Sib	1	Sil	Sib	1967	1.100000023841858	28.0855
1968	Sib	1	Sil	Sib	1968	1.100000023841858	28.0855
1969	Sib	1	Sil	Sib	1969	1.100000023841858	28.0855
1970	Sib	1	Sil	Sib	1970	1.100000023841858	28.0855
1971	Sib	1	Sil	Sib	1971	1.100000023841858	28.0855
1972	Sib	1	Sil	Sib	1972	1.100000023841858	28.0855
1973	Sib	1	Sil	Sib	1973	1.100000023841858	28.0855
1974	Sib	1	Sil	Sib	1974	1.100000023841858	28.0855
1975	Sib	1	Sil	Sib	1975	1.100000023841858	28.0855
1976	Sib	1	Sil	Sib	1976	1.100000023841858	28.0855
1977	Sib	1	Sil	Sib	1977	1.100000023841858	28.0855
1978	Sib	1	Sil	Sib	1978	1.100000023841858	28.0855
1979	Sib	1	Sil	Sib	1979	1.100000023841858	28.0855
1980	Sib	1	Sil	Sib	1980	1.100000023841858	28.0855
1981	Sib	1	Sil	Sib	1981	1.100000023841858	28.0855
1982	Sib	1	Sil	Sib	1982	1.100000023841858	28.0855
1983	Sib	1	Sil	Sib	1983	1.100000023841858	28.0855
1984	Sib	1	Sil	Sib	1984	1.100000023841858	28.0855
1985	Sib	1	Sil	Sib	1985	1.100000023841858	28.0855
1986	Sib	1	Sil	Sib	1986	1.100000023841858	28.0855
1987	Sib	1	Sil	Sib	1987	1.100000023841858	28.0855
1988	Sib	1	Sil	Sib	1988	1.100000023841858	28.0855
1989	Sib	1	Sil	Sib	1989	1.100000023841858	28.0855
1990	Sib	1	Sil	Sib	1990	1.100000023841858	28.0855
1991	Sib	1	Sil	Sib	1991	1.100000023841858	28.0855
1992	Sib	1	Sil	Sib	1992	1.100000023841858	28.0855
1993	Sib	1	Sil	Sib	1993	1.100000023841858	28.0855
1994	Sib	1	Sil	Sib	1994	1.100000023841858	28.0855
1995	Sib	1	Sil	Sib	1995	1.100000023841858	28.0855
1996	Sib	1	Sil	Sib	1996	1.100000023841858	28.0855
1997	Sib	1	Sil	Sib	1997	1.100000023841858	28.0855
1998	Sib	1	Sil	Sib	1998	1.100000023841858	28.0855
1999	Sib	1	Sil	Sib	1999	1.100000023841858	28.0855
2000	Sib	1	Sil	Sib	2000	1.100000023841858	28.0855
2001	Sib	1	Sil	Sib	2001	1.100000023841858	28.0855
2002	Sib	1	Sil	Sib	2002	1.100000023841858	28.0855
2003	Sib	1	Sil	Sib	2003	1.100000023841858	28.0855
2004	Sib	1	Sil	Sib	2004	1.100000023841858	28.0855
2005	Sib	1	Sil	Sib	2005	1.100000023841858	28.0855
2006	Sib	1	Sil	Sib	2006	1.100000023841858	28.0855
2007	Sib	1	Sil	Sib	2007	1.100000023841858	28.0855
2008	Sib	1	Sil	Sib	2008	1.100000023841858	28.0855
2009	Sib	1	Sil	Sib	2009	1.100000023841858	28.0855
2010	Sib	1	Sil	Sib	2010	1.100000023841858	28.0855
2011	Sib	1	Sil	Sib	2011	1.100000023841858	28.0855
2012	Sib	1	Sil	Sib	2012	1.100000023841858	28.0855
2013	Sib	1	Sil	Sib	2013	1.100000023841858	28.0855
2014	Sib	1	Sil	Sib	2014	1.100000023841858	28.0855
2015	Sib	1	Sil	Sib	2015	1.100000023841858	28.0855
2016	Sib	1	Sil	Sib	2016	1.100000023841858	28.0855

[ bonds ]
;  ai   aj  funct   c0         c1
1	1346	1	0.165	238488.0
1	1495	1	0.165	238488.0
2	1345	1	0.165	238488.0
2	1664	1	0.165	238488.0
3	1347	1	0.165	238488.0
3	1497	1	0.165	238488.0
4	1348	1	0.165	238488.0
4	1378	1	0.165	238488.0
5	1349	1	0.165	238488.0
5	1379	1	0.165	238488.0
6	1350	1	0.165	238488.0
6	1380	1	0.165	238488.0
7	1349	1	0.165	238488.0
7	1351	1	0.165	238488.0
8	1350	1	0.165	238488.0
8	1352	1	0.165	238488.0
9	1353	1	0.165	238488.0
9	1516	1	0.165	238488.0
10	1346	1	0.165	238488.0
10	1354	1	0.165	238488.0
11	1347	1	0.165	238488.0
11	1356	1	0.165	238488.0
12	1346	1	0.165	238488.0
12	1351	1	0.165	238488.0
13	1347	1	0.165	238488.0
13	1353	1	0.165	238488.0
14	1348	1	0.165	238488.0
14	1354	1	0.165	238488.0
15	1349	1	0.165	238488.0
15	1355	1	0.165	238488.0
16	1350	1	0.165	238488.0
16	1356	1	0.165	238488.0
17	1345	1	0.165	238488.0
17	1356	1	0.165	238488.0
18	1346	1	0.165	238488.0
18	1859	1	0.165	238488.0
19	1347	1	0.165	238488.0
19	1354	1	0.165	238488.0
20	1348	1	0.165	238488.0
20	1352	1	0.165	238488.0
21	1349	1	0.165	238488.0
21	1353	1	0.165	238488.0
22	1350	1	0.165	238488.0
22	1849	1	0.165	238488.0
23	1358	1	0.165	238488.0
23	1507	1	0.165	238488.0
24	1357	1	0.165	238488.0
24	1676	1	0.165	238488.0
25	1359	1	0.165	238488.0
25	1509	1	0.165	238488.0
26	1360	1	0.165	238488.0
26	1390	1	0.165	238488.0
27	1361	1	0.165	238488.0
27	1391	1	0.165	238488.0
28	1362	1	0.165	238488.0
28	1392	1	0.165	238488.0
29	1361	1	0.165	238488.0
29	1363	1	0.165	238488.0
30	1362	1	0.165	238488.0
30	1364	1	0.165	238488.0
31	1365	1	0.165	238488.0
31	1528	1	0.165	238488.0
32	1358	1	0.165	238488.0
32	1366	1	0.165	238488.0
33	1355	1	0.165	238488.0
33	1357	1	0.165	238488.0
34	1359	1	0.165	238488.0
34	1368	1	0.165	238488.0
35	1358	1	0.165	238488.0
35	1363	1	0.165	238488.0
36	1359	1	0.165	238488.0
36	1365	1	0.165	238488.0
37	1360	1	0.165	238488.0
37	1366	1	0.165	238488.0
38	1361	1	0.165	238488.0
38	1367	1	0.165	238488.0
39	1362	1	0.165	238488.0
39	1368	1	0.165	238488.0
40	1357	1	0.165	238488.0
40	1368	1	0.165	238488.0
41	1358	1	0.165	238488.0
41	1871	1	0.165	238488.0
42	1359	1	0.165	238488.0
42	1366	1	0.165	238488.0
43	1360	1	0.165	238488.0
43	1364	1	0.165	238488.0
44	1361	1	0.165	238488.0
44	1365	1	0.165	238488.0
45	1351	1	0.165	238488.0
45	1362	1	0.165	238488.0
46	1363	1	0.165	238488.0
46	1895	1	0.165	238488.0
47	1387	1	0.165	238488.0
47	1919	1	0.165	238488.0
48	1411	1	0.165	238488.0
48	1943	1	0.165	238488.0
49	1435	1	0.165	238488.0
49	1967	1	0.165	238488.0
50	1459	1	0.165	238488.0
50	1991	1	0.165	238488.0
51	1483	1	0.165	238488.0
51	2015	1	0.165	238488.0
52	1507	1	0.165	238488.0
52	1871	1	0.165	238488.0
53	1391	1	0.165	238488.0
53	1531	1	0.165	238488.0
54	1415	1	0.165	238488.0
54	1555	1	0.165	238488.0
55	1439	1	0.165	238488.0
55	1579	1	0.165	238488.0
56	1463	1	0.165	238488.0
56	1603	1	0.165	238488.0
57	1487	1	0.165	238488.0
57	1627	1	0.165	238488.0
58	1511	1	0.165	238488.0
58	1651	1	0.165	238488.0
59	1367	1	0.165	238488.0
59	1675	1	0.165	238488.0
60	1559	1	0.165	238488.0
60	1699	1	0.165	238488.0
61	1583	1	0.165	238488.0
61	1723	1	0.165	238488.0
62	1607	1	0.165	238488.0
62	1747	1	0.165	238488.0
63	1631	1	0.165	238488.0
63	1771	1	0.165	238488.0
64	1655	1	0.165	238488.0
64	1795	1	0.165	238488.0
65	1679	1	0.165	238488.0
65	1819	1	0.165	238488.0
66	1535	1	0.165	238488.0
66	1843	1	0.165	238488.0
67	1727	1	0.165	238488.0
67	1867	1	0.165	238488.0
68	1751	1	0.165	238488.0
68	1891	1	0.165	238488.0
69	1775	1	0.165	238488.0
69	1915	1	0.165	238488.0
70	1799	1	0.165	238488.0
70	1939	1	0.165	238488.0
71	1823	1	0.165	238488.0
71	1963	1	0.165	238488.0
72	1847	1	0.165	238488.0
72	1987	1	0.165	238488.0
73	1703	1	0.165	238488.0
73	2011	1	0.165	238488.0
74	1351	1	0.165	238488.0
74	1370	1	0.165	238488.0
75	1369	1	0.165	238488.0
75	1520	1	0.165	238488.0
76	1353	1	0.165	238488.0
76	1371	1	0.165	238488.0
77	1372	1	0.165	238488.0
77	1402	1	0.165	238488.0
78	1373	1	0.165	238488.0
78	1403	1	0.165	238488.0
79	1374	1	0.165	238488.0
79	1404	1	0.165	238488.0
80	1373	1	0.165	238488.0
80	1375	1	0.165	238488.0
81	1374	1	0.165	238488.0
81	1376	1	0.165	238488.0
82	1377	1	0.165	238488.0
82	1540	1	0.165	238488.0
83	1370	1	0.165	238488.0
83	1378	1	0.165	238488.0
84	1371	1	0.165	238488.0
84	1380	1	0.165	238488.0
85	1370	1	0.165	238488.0
85	1375	1	0.165	238488.0
86	1371	1	0.165	238488.0
86	1377	1	0.165	238488.0
87	1372	1	0.165	238488.0
87	1378	1	0.165	238488.0
88	1373	1	0.165	238488.0
88	1379	1	0.165	238488.0
89	1374	1	0.165	238488.0
89	1380	1	0.165	238488.0
90	1369	1	0.165	238488.0
90	1380	1	0.165	238488.0
91	1370	1	0.165	238488.0
91	1883	1	0.165	238488.0
92	1371	1	0.165	238488.0
92	1378	1	0.165	238488.0
93	1372	1	0.165	238488.0
93	1376	1	0.165	238488.0
94	1373	1	0.165	238488.0
94	1377	1	0.165	238488.0
95	1374	1	0.165	238488.0
95	1873	1	0.165	238488.0
96	1363	1	0.165	238488.0
96	1382	1	0.165	238488.0
97	1381	1	0.165	238488.0
97	1532	1	0.165	238488.0
98	1365	1	0.165	238488.0
98	1383	1	0.165	238488.0
99	1384	1	0.165	238488.0
99	1414	1	0.165	238488.0
100	1385	1	0.165	238488.0
100	1415	1	0.165	238488.0
101	1386	1	0.165	238488.0
101	1416	1	0.165	238488.0
102	1385	1	0.165	238488.0
102	1387	1	0.165	238488.0
103	1386	1	0.165	238488.0
103	1388	1	0.165	238488.0
104	1389	1	0.165	238488.0
104	1552	1	0.165	238488.0
105	1382	1	0.165	238488.0
105	1390	1	0.165	238488.0
106	1379	1	0.165	238488.0
106	1381	1	0.165	238488.0
107	1383	1	0.165	238488.0
107	1392	1	0.165	238488.0
108	1382	1	0.165	238488.0
108	1387	1	0.165	238488.0
109	1383	1	0.165	238488.0
109	1389	1	0.165	238488.0
110	1384	1	0.165	238488.0
110	1390	1	0.165	238488.0
111	1385	1	0.165	238488.0
111	1391	1	0.165	238488.0
112	1386	1	0.165	238488.0
112	1392	1	0.165	238488.0
113	1381	1	0.165	238488.0
113	1392	1	0.165	238488.0
114	1382	1	0.165	238488.0
114	1895	1	0.165	238488.0
115	1383	1	0.165	238488.0
115	1390	1	0.165	238488.0
116	1384	1	0.165	238488.0
116	1388	1	0.165	238488.0
117	1385	1	0.165	238488.0
117	1389	1	0.165	238488.0
118	1375	1	0.165	238488.0
118	1386	1	0.165	238488.0
119	1375	1	0.165	238488.0
119	1394	1	0.165	238488.0
120	1393	1	0.165	238488.0
120	1544	1	0.165	238488.0
121	1377	1	0.165	238488.0
121	1395	1	0.165	238488.0
122	1396	1	0.165	238488.0
122	1426	1	0.165	238488.0
123	1397	1	0.165	238488.0
123	1427	1	0.165	238488.0
124	1398	1	0.165	238488.0
124	1428	1	0.165	238488.0
125	1397	1	0.165	238488.0
125	1399	1	0.165	238488.0
126	1398	1	0.165	238488.0
126	1400	1	0.165	238488.0
127	1401	1	0.165	238488.0
127	1564	1	0.165	238488.0
128	1394	1	0.165	238488.0
128	1402	1	0.165	238488.0
129	1395	1	0.165	238488.0
129	1404	1	0.165	238488.0
130	1394	1	0.165	238488.0
130	1399	1	0.165	238488.0
131	1395	1	0.165	238488.0
131	1401	1	0.165	238488.0
132	1396	1	0.165	238488.0
132	1402	1	0.165	238488.0
133	1397	1	0.165	238488.0
133	1403	1	0.165	238488.0
134	1398	1	0.165	238488.0
134	1404	1	0.165	238488.0
135	1393	1	0.165	238488.0
135	1404	1	0.165	238488.0
136	1394	1	0.165	238488.0
136	1907	1	0.165	238488.0
137	1395	1	0.165	238488.0
137	1402	1	0.165	238488.0
138	1396	1	0.165	238488.0
138	1400	1	0.165	238488.0
139	1397	1	0.165	238488.0
139	1401	1	0.165	238488.0
140	1398	1	0.165	238488.0
140	1897	1	0.165	238488.0
141	1387	1	0.165	238488.0
141	1406	1	0.165	238488.0
142	1405	1	0.165	238488.0
142	1556	1	0.165	238488.0
143	1389	1	0.165	238488.0
143	1407	1	0.165	238488.0
144	1408	1	0.165	238488.0
144	1438	1	0.165	238488.0
145	1409	1	0.165	238488.0
145	1439	1	0.165	238488.0
146	1410	1	0.165	238488.0
146	1440	1	0.165	238488.0
147	1409	1	0.165	238488.0
147	1411	1	0.165	238488.0
148	1410	1	0.165	238488.0
148	1412	1	0.165	238488.0
149	1413	1	0.165	238488.0
149	1576	1	0.165	238488.0
150	1406	1	0.165	238488.0
150	1414	1	0.165	238488.0
151	1403	1	0.165	238488.0
151	1405	1	0.165	238488.0
152	1407	1	0.165	238488.0
152	1416	1	0.165	238488.0
153	1406	1	0.165	238488.0
153	1411	1	0.165	238488.0
154	1407	1	0.165	238488.0
154	1413	1	0.165	238488.0
155	1408	1	0.165	238488.0
155	1414	1	0.165	238488.0
156	1409	1	0.165	238488.0
156	1415	1	0.165	238488.0
157	1410	1	0.165	238488.0
157	1416	1	0.165	238488.0
158	1405	1	0.165	238488.0
158	1416	1	0.165	238488.0
159	1406	1	0.165	238488.0
159	1919	1	0.165	238488.0
160	1407	1	0.165	238488.0
160	1414	1	0.165	238488.0
161	1408	1	0.165	238488.0
161	1412	1	0.165	238488.0
162	1409	1	0.165	238488.0
162	1413	1	0.165	238488.0
163	1399	1	0.165	238488.0
163	1410	1	0.165	238488.0
164	1399	1	0.165	238488.0
164	1418	1	0.165	238488.0
165	1417	1	0.165	238488.0
165	1568	1	0.165	238488.0
166	1401	1	0.165	238488.0
166	1419	1	0.165	238488.0
167	1420	1	0.165	238488.0
167	1450	1	0.165	238488.0
168	1421	1	0.165	238488.0
168	1451	1	0.165	238488.0
169	1422	1	0.165	238488.0
169	1452	1	0.165	238488.0
170	1421	1	0.165	238488.0
170	1423	1	0.165	238488.0
171	1422	1	0.165	238488.0
171	1424	1	0.165	238488.0
172	1425	1	0.165	238488.0
172	1588	1	0.165	238488.0
173	1418	1	0.165	238488.0
173	1426	1	0.165	238488.0
174	1419	1	0.165	238488.0
174	1428	1	0.165	238488.0
175	1418	1	0.165	238488.0
175	1423	1	0.165	238488.0
176	1419	1	0.165	238488.0
176	1425	1	0.165	238488.0
177	1420	1	0.165	238488.0
177	1426	1	0.165	238488.0
178	1421	1	0.165	238488.0
178	1427	1	0.165	238488.0
179	1422	1	0.165	238488.0
179	1428	1	0.165	238488.0
180	1417	1	0.165	238488.0
180	1428	1	0.165	238488.0
181	1418	1	0.165	238488.0
181	1931	1	0.165	238488.0
182	1419	1	0.165	238488.0
182	1426	1	0.165	238488.0
183	1420	1	0.165	238488.0
183	1424	1	0.165	238488.0
184	1421	1	0.165	238488.0
184	1425	1	0.165	238488.0
185	1422	1	0.165	238488.0
185	1921	1	0.165	238488.0
186	1411	1	0.165	238488.0
186	1430	1	0.165	238488.0
187	1429	1	0.165	238488.0
187	1580	1	0.165	238488.0
188	1413	1	0.165	238488.0
188	1431	1	0.165	238488.0
189	1432	1	0.165	238488.0
189	1462	1	0.165	238488.0
190	1433	1	0.165	238488.0
190	1463	1	0.165	238488.0
191	1434	1	0.165	238488.0
191	1464	1	0.165	238488.0
192	1433	1	0.165	238488.0
192	1435	1	0.165	238488.0
193	1434	1	0.165	238488.0
193	1436	1	0.165	238488.0
194	1437	1	0.165	238488.0
194	1600	1	0.165	238488.0
195	1430	1	0.165	238488.0
195	1438	1	0.165	238488.0
196	1427	1	0.165	238488.0
196	1429	1	0.165	238488.0
197	1431	1	0.165	238488.0
197	1440	1	0.165	238488.0
198	1430	1	0.165	238488.0
198	1435	1	0.165	238488.0
199	1431	1	0.165	238488.0
199	1437	1	0.165	238488.0
200	1432	1	0.165	238488.0
200	1438	1	0.165	238488.0
201	1433	1	0.165	238488.0
201	1439	1	0.165	238488.0
202	1434	1	0.165	238488.0
202	1440	1	0.165	238488.0
203	1429	1	0.165	238488.0
203	1440	1	0.165	238488.0
204	1430	1	0.165	238488.0
204	1943	1	0.165	238488.0
205	1431	1	0.165	238488.0
205	1438	1	0.165	238488.0
206	1432	1	0.165	238488.0
206	1436	1	0.165	238488.0
207	1433	1	0.165	238488.0
207	1437	1	0.165	238488.0
208	1423	1	0.165	238488.0
208	1434	1	0.165	238488.0
209	1423	1	0.165	238488.0
209	1442	1	0.165	238488.0
210	1441	1	0.165	238488.0
210	1592	1	0.165	238488.0
211	1425	1	0.165	238488.0
211	1443	1	0.165	238488.0
212	1444	1	0.165	238488.0
212	1474	1	0.165	238488.0
213	1445	1	0.165	238488.0
213	1475	1	0.165	238488.0
214	1446	1	0.165	238488.0
214	1476	1	0.165	238488.0
215	1445	1	0.165	238488.0
215	1447	1	0.165	238488.0
216	1446	1	0.165	238488.0
216	1448	1	0.165	238488.0
217	1449	1	0.165	238488.0
217	1612	1	0.165	238488.0
218	1442	1	0.165	238488.0
218	1450	1	0.165	238488.0
219	1443	1	0.165	238488.0
219	1452	1	0.165	238488.0
220	1442	1	0.165	238488.0
220	1447	1	0.165	238488.0
221	1443	1	0.165	238488.0
221	1449	1	0.165	238488.0
222	1444	1	0.165	238488.0
222	1450	1	0.165	238488.0
223	1445	1	0.165	238488.0
223	1451	1	0.165	238488.0
224	1446	1	0.165	238488.0
224	1452	1	0.165	238488.0
225	1441	1	0.165	238488.0
225	1452	1	0.165	238488.0
226	1442	1	0.165	238488.0
226	1955	1	0.165	238488.0
227	1443	1	0.165	238488.0
227	1450	1	0.165	238488.0
228	1444	1	0.165	238488.0
228	1448	1	0.165	238488.0
229	1445	1	0.165	238488.0
229	1449	1	0.165	238488.0
230	1446	1	0.165	238488.0
230	1945	1	0.165	238488.0
231	1435	1	0.165	238488.0
231	1454	1	0.165	238488.0
232	1453	1	0.165	238488.0
232	1604	1	0.165	238488.0
233	1437	1	0.165	238488.0
233	1455	1	0.165	238488.0
234	1456	1	0.165	238488.0
234	1486	1	0.165	238488.0
235	1457	1	0.165	238488.0
235	1487	1	0.165	238488.0
236	1458	1	0.165	238488.0
236	1488	1	0.165	238488.0
237	1457	1	0.165	238488.0
237	1459	1	0.165	238488.0
238	1458	1	0.165	238488.0
238	1460	1	0.165	238488.0
239	1461	1	0.165	238488.0
239	1624	1	0.165	238488.0
240	1454	1	0.165	238488.0
240	1462	1	0.165	238488.0
241	1451	1	0.165	238488.0
241	1453	1	0.165	238488.0
242	1455	1	0.165	238488.0
242	1464	1	0.165	238488.0
243	1454	1	0.165	238488.0
243	1459	1	0.165	238488.0
244	1455	1	0.165	238488.0
244	1461	1	0.165	238488.0
245	1456	1	0.165	238488.0
245	1462	1	0.165	238488.0
246	1457	1	0.165	238488.0
246	1463	1	0.165	238488.0
247	1458	1	0.165	238488.0
247	1464	1	0.165	238488.0
248	1453	1	0.165	238488.0
248	1464	1	0.165	238488.0
249	1454	1	0.165	238488.0
249	1967	1	0.165	238488.0
250	1455	1	0.165	238488.0
250	1462	1	0.165	238488.0
251	1456	1	0.165	238488.0
251	1460	1	0.165	238488.0
252	1457	1	0.165	238488.0
252	1461	1	0.165	238488.0
253	1447	1	0.165	238488.0
253	1458	1	0.165	238488.0
254	1447	1	0.165	238488.0
254	1466	1	0.165	238488.0
255	1465	1	0.165	238488.0
255	1616	1	0.165	238488.0
256	1449	1	0.165	238488.0
256	1467	1	0.165	238488.0
257	1468	1	0.165	238488.0
257	1498	1	0.165	238488.0
258	1469	1	0.165	238488.0
258	1499	1	0.165	238488.0
259	1470	1	0.165	238488.0
259	1500	1	0.165	238488.0
260	1469	1	0.165	238488.0
260	1471	1	0.165	238488.0
261	1470	1	0.165	238488.0
261	1472	1	0.165	238488.0
262	1473	1	0.165	238488.0
262	1636	1	0.165	238488.0
263	1466	1	0.165	238488.0
263	1474	1	0.165	238488.0
264	1467	1	0.165	238488.0
264	1476	1	0.165	238488.0
265	1466	1	0.165	238488.0
265	1471	1	0.165	238488.0
266	1467	1	0.165	238488.0
266	1473	1	0.165	238488.0
267	1468	1	0.165	238488.0
267	1474	1	0.165	238488.0
268	1469	1	0.165	238488.0
268	1475	1	0.165	238488.0
269	1470	1	0.165	238488.0
269	1476	1	0.165	238488.0
270	1465	1	0.165	238488.0
270	1476	1	0.165	238488.0
271	1466	1	0.165	238488.0
271	1979	1	0.165	238488.0
272	1467	1	0.165	238488.0
272	1474	1	0.165	238488.0
273	1468	1	0.165	238488.0
273	1472	1	0.165	238488.0
274	1469	1	0.165	238488.0
274	1473	1	0.165	238488.0
275	1470	1	0.165	238488.0
275	1969	1	0.165	238488.0
276	1459	1	0.165	238488.0
276	1478	1	0.165	238488.0
277	1477	1	0.165	238488.0
277	1628	1	0.165	238488.0
278	1461	1	0.165	238488.0
278	1479	1	0.165	238488.0
279	1480	1	0.165	238488.0
279	1510	1	0.165	238488.0
280	1481	1	0.165	238488.0
280	1511	1	0.165	238488.0
281	1482	1	0.165	238488.0
281	1512	1	0.165	238488.0
282	1481	1	0.165	238488.0
282	1483	1	0.165	238488.0
283	1482	1	0.165	238488.0
283	1484	1	0.165	238488.0
284	1485	1	0.165	238488.0
284	1648	1	0.165	238488.0
285	1478	1	0.165	238488.0
285	1486	1	0.165	238488.0
286	1475	1	0.165	238488.0
286	1477	1	0.165	238488.0
287	1479	1	0.165	238488.0
287	1488	1	0.165	238488.0
288	1478	1	0.165	238488.0
288	1483	1	0.165	238488.0
289	1479	1	0.165	238488.0
289	1485	1	0.165	238488.0
290	1480	1	0.165	238488.0
290	1486	1	0.165	238488.0
291	1481	1	0.165	238488.0
291	1487	1	0.165	238488.0
292	1482	1	0.165	238488.0
292	1488	1	0.165	238488.0
293	1477	1	0.165	238488.0
293	1488	1	0.165	238488.0
294	1478	1	0.165	238488.0
294	1991	1	0.165	238488.0
295	1479	1	0.165	238488.0
295	1486	1	0.165	238488.0
296	1480	1	0.165	238488.0
296	1484	1	0.165	238488.0
297	1481	1	0.165	238488.0
297	1485	1	0.165	238488.0
298	1471	1	0.165	238488.0
298	1482	1	0.165	238488.0
299	1471	1	0.165	238488.0
299	1490	1	0.165	238488.0
300	1489	1	0.165	238488.0
300	1640	1	0.165	238488.0
301	1473	1	0.165	238488.0
301	1491	1	0.165	238488.0
302	1354	1	0.165	238488.0
302	1492	1	0.165	238488.0
303	1355	1	0.165	238488.0
303	1493	1	0.165	238488.0
304	1356	1	0.165	238488.0
304	1494	1	0.165	238488.0
305	1493	1	0.165	238488.0
305	1495	1	0.165	238488.0
306	1494	1	0.165	238488.0
306	1496	1	0.165	238488.0
307	1497	1	0.165	238488.0
307	1660	1	0.165	238488.0
308	1490	1	0.165	238488.0
308	1498	1	0.165	238488.0
309	1491	1	0.165	238488.0
309	1500	1	0.165	238488.0
310	1490	1	0.165	238488.0
310	1495	1	0.165	238488.0
311	1491	1	0.165	238488.0
311	1497	1	0.165	238488.0
312	1492	1	0.165	238488.0
312	1498	1	0.165	238488.0
313	1493	1	0.165	238488.0
313	1499	1	0.165	238488.0
314	1494	1	0.165	238488.0
314	1500	1	0.165	238488.0
315	1489	1	0.165	238488.0
315	1500	1	0.165	238488.0
316	1490	1	0.165	238488.0
316	2003	1	0.165	238488.0
317	1491	1	0.165	238488.0
317	1498	1	0.165	238488.0
318	1492	1	0.165	238488.0
318	1496	1	0.165	238488.0
319	1493	1	0.165	238488.0
319	1497	1	0.165	238488.0
320	1494	1	0.165	238488.0
320	1993	1	0.165	238488.0
321	1483	1	0.165	238488.0
321	1502	1	0.165	238488.0
322	1501	1	0.165	238488.0
322	1652	1	0.165	238488.0
323	1485	1	0.165	238488.0
323	1503	1	0.165	238488.0
324	1366	1	0.165	238488.0
324	1504	1	0.165	238488.0
325	1367	1	0.165	238488.0
325	1505	1	0.165	238488.0
326	1368	1	0.165	238488.0
326	1506	1	0.165	238488.0
327	1505	1	0.165	238488.0
327	1507	1	0.165	238488.0
328	1506	1	0.165	238488.0
328	1508	1	0.165	238488.0
329	1509	1	0.165	238488.0
329	1672	1	0.165	238488.0
330	1502	1	0.165	238488.0
330	1510	1	0.165	238488.0
331	1499	1	0.165	238488.0
331	1501	1	0.165	238488.0
332	1503	1	0.165	238488.0
332	1512	1	0.165	238488.0
333	1502	1	0.165	238488.0
333	1507	1	0.165	238488.0
334	1503	1	0.165	238488.0
334	1509	1	0.165	238488.0
335	1504	1	0.165	238488.0
335	1510	1	0.165	238488.0
336	1505	1	0.165	238488.0
336	1511	1	0.165	238488.0
337	1506	1	0.165	238488.0
337	1512	1	0.165	238488.0
338	1501	1	0.165	238488.0
338	1512	1	0.165	238488.0
339	1502	1	0.165	238488.0
339	2015	1	0.165	238488.0
340	1503	1	0.165	238488.0
340	1510	1	0.165	238488.0
341	1504	1	0.165	238488.0
341	1508	1	0.165	238488.0
342	1505	1	0.165	238488.0
342	1509	1	0.165	238488.0
343	1495	1	0.165	238488.0
343	1506	1	0.165	238488.0
344	1514	1	0.165	238488.0
344	1663	1	0.165	238488.0
345	1513	1	0.165	238488.0
345	1832	1	0.165	238488.0
346	1515	1	0.165	238488.0
346	1665	1	0.165	238488.0
347	1516	1	0.165	238488.0
347	1546	1	0.165	238488.0
348	1517	1	0.165	238488.0
348	1547	1	0.165	238488.0
349	1518	1	0.165	238488.0
349	1548	1	0.165	238488.0
350	1517	1	0.165	238488.0
350	1519	1	0.165	238488.0
351	1518	1	0.165	238488.0
351	1520	1	0.165	238488.0
352	1521	1	0.165	238488.0
352	1684	1	0.165	238488.0
353	1514	1	0.165	238488.0
353	1522	1	0.165	238488.0
354	1515	1	0.165	238488.0
354	1524	1	0.165	238488.0
355	1514	1	0.165	238488.0
355	1519	1	0.165	238488.0
356	1345	1	0.165	238488.0
356	1520	1	0.165	238488.0
357	1515	1	0.165	238488.0
357	1521	1	0.165	238488.0
358	1516	1	0.165	238488.0
358	1522	1	0.165	238488.0
359	1517	1	0.165	238488.0
359	1523	1	0.165	238488.0
360	1518	1	0.165	238488.0
360	1524	1	0.165	238488.0
361	1513	1	0.165	238488.0
361	1524	1	0.165	238488.0
362	1355	1	0.165	238488.0
362	1514	1	0.165	238488.0
363	1515	1	0.165	238488.0
363	1522	1	0.165	238488.0
364	1516	1	0.165	238488.0
364	1520	1	0.165	238488.0
365	1517	1	0.165	238488.0
365	1521	1	0.165	238488.0
366	1345	1	0.165	238488.0
366	1518	1	0.165	238488.0
367	1526	1	0.165	238488.0
367	1675	1	0.165	238488.0
368	1525	1	0.165	238488.0
368	1844	1	0.165	238488.0
369	1527	1	0.165	238488.0
369	1677	1	0.165	238488.0
370	1528	1	0.165	238488.0
370	1558	1	0.165	238488.0
371	1529	1	0.165	238488.0
371	1559	1	0.165	238488.0
372	1530	1	0.165	238488.0
372	1560	1	0.165	238488.0
373	1529	1	0.165	238488.0
373	1531	1	0.165	238488.0
374	1530	1	0.165	238488.0
374	1532	1	0.165	238488.0
375	1533	1	0.165	238488.0
375	1696	1	0.165	238488.0
376	1526	1	0.165	238488.0
376	1534	1	0.165	238488.0
377	1523	1	0.165	238488.0
377	1525	1	0.165	238488.0
378	1527	1	0.165	238488.0
378	1536	1	0.165	238488.0
379	1526	1	0.165	238488.0
379	1531	1	0.165	238488.0
380	1357	1	0.165	238488.0
380	1532	1	0.165	238488.0
381	1527	1	0.165	238488.0
381	1533	1	0.165	238488.0
382	1528	1	0.165	238488.0
382	1534	1	0.165	238488.0
383	1529	1	0.165	238488.0
383	1535	1	0.165	238488.0
384	1530	1	0.165	238488.0
384	1536	1	0.165	238488.0
385	1525	1	0.165	238488.0
385	1536	1	0.165	238488.0
386	1367	1	0.165	238488.0
386	1526	1	0.165	238488.0
387	1527	1	0.165	238488.0
387	1534	1	0.165	238488.0
388	1528	1	0.165	238488.0
388	1532	1	0.165	238488.0
389	1529	1	0.165	238488.0
389	1533	1	0.165	238488.0
390	1519	1	0.165	238488.0
390	1530	1	0.165	238488.0
391	1519	1	0.165	238488.0
391	1538	1	0.165	238488.0
392	1537	1	0.165	238488.0
392	1688	1	0.165	238488.0
393	1521	1	0.165	238488.0
393	1539	1	0.165	238488.0
394	1540	1	0.165	238488.0
394	1570	1	0.165	238488.0
395	1541	1	0.165	238488.0
395	1571	1	0.165	238488.0
396	1542	1	0.165	238488.0
396	1572	1	0.165	238488.0
397	1541	1	0.165	238488.0
397	1543	1	0.165	238488.0
398	1542	1	0.165	238488.0
398	1544	1	0.165	238488.0
399	1545	1	0.165	238488.0
399	1708	1	0.165	238488.0
400	1538	1	0.165	238488.0
400	1546	1	0.165	238488.0
401	1539	1	0.165	238488.0
401	1548	1	0.165	238488.0
402	1538	1	0.165	238488.0
402	1543	1	0.165	238488.0
403	1369	1	0.165	238488.0
403	1544	1	0.165	238488.0
404	1539	1	0.165	238488.0
404	1545	1	0.165	238488.0
405	1540	1	0.165	238488.0
405	1546	1	0.165	238488.0
406	1541	1	0.165	238488.0
406	1547	1	0.165	238488.0
407	1542	1	0.165	238488.0
407	1548	1	0.165	238488.0
408	1537	1	0.165	238488.0
408	1548	1	0.165	238488.0
409	1379	1	0.165	238488.0
409	1538	1	0.165	238488.0
410	1539	1	0.165	238488.0
410	1546	1	0.165	238488.0
411	1540	1	0.165	238488.0
411	1544	1	0.165	238488.0
412	1541	1	0.165	238488.0
412	1545	1	0.165	238488.0
413	1369	1	0.165	238488.0
413	1542	1	0.165	238488.0
414	1531	1	0.165	238488.0
414	1550	1	0.165	238488.0
415	1549	1	0.165	238488.0
415	1700	1	0.165	238488.0
416	1533	1	0.165	238488.0
416	1551	1	0.165	238488.0
417	1552	1	0.165	238488.0
417	1582	1	0.165	238488.0
418	1553	1	0.165	238488.0
418	1583	1	0.165	238488.0
419	1554	1	0.165	238488.0
419	1584	1	0.165	238488.0
420	1553	1	0.165	238488.0
420	1555	1	0.165	238488.0
421	1554	1	0.165	238488.0
421	1556	1	0.165	238488.0
422	1557	1	0.165	238488.0
422	1720	1	0.165	238488.0
423	1550	1	0.165	238488.0
423	1558	1	0.165	238488.0
424	1547	1	0.165	238488.0
424	1549	1	0.165	238488.0
425	1551	1	0.165	238488.0
425	1560	1	0.165	238488.0
426	1550	1	0.165	238488.0
426	1555	1	0.165	238488.0
427	1381	1	0.165	238488.0
427	1556	1	0.165	238488.0
428	1551	1	0.165	238488.0
428	1557	1	0.165	238488.0
429	1552	1	0.165	238488.0
429	1558	1	0.165	238488.0
430	1553	1	0.165	238488.0
430	1559	1	0.165	238488.0
431	1554	1	0.165	238488.0
431	1560	1	0.165	238488.0
432	1549	1	0.165	238488.0
432	1560	1	0.165	238488.0
433	1391	1	0.165	238488.0
433	1550	1	0.165	238488.0
434	1551	1	0.165	238488.0
434	1558	1	0.165	238488.0
435	1552	1	0.165	238488.0
435	1556	1	0.165	238488.0
436	1553	1	0.165	238488.0
436	1557	1	0.165	238488.0
437	1543	1	0.165	238488.0
437	1554	1	0.165	238488.0
438	1543	1	0.165	238488.0
438	1562	1	0.165	238488.0
439	1561	1	0.165	238488.0
439	1712	1	0.165	238488.0
440	1545	1	0.165	238488.0
440	1563	1	0.165	238488.0
441	1564	1	0.165	238488.0
441	1594	1	0.165	238488.0
442	1565	1	0.165	238488.0
442	1595	1	0.165	238488.0
443	1566	1	0.165	238488.0
443	1596	1	0.165	238488.0
444	1565	1	0.165	238488.0
444	1567	1	0.165	238488.0
445	1566	1	0.165	238488.0
445	1568	1	0.165	238488.0
446	1569	1	0.165	238488.0
446	1732	1	0.165	238488.0
447	1562	1	0.165	238488.0
447	1570	1	0.165	238488.0
448	1563	1	0.165	238488.0
448	1572	1	0.165	238488.0
449	1562	1	0.165	238488.0
449	1567	1	0.165	238488.0
450	1393	1	0.165	238488.0
450	1568	1	0.165	238488.0
451	1563	1	0.165	238488.0
451	1569	1	0.165	238488.0
452	1564	1	0.165	238488.0
452	1570	1	0.165	238488.0
453	1565	1	0.165	238488.0
453	1571	1	0.165	238488.0
454	1566	1	0.165	238488.0
454	1572	1	0.165	238488.0
455	1561	1	0.165	238488.0
455	1572	1	0.165	238488.0
456	1403	1	0.165	238488.0
456	1562	1	0.165	238488.0
457	1563	1	0.165	238488.0
457	1570	1	0.165	238488.0
458	1564	1	0.165	238488.0
458	1568	1	0.165	238488.0
459	1565	1	0.165	238488.0
459	1569	1	0.165	238488.0
460	1393	1	0.165	238488.0
460	1566	1	0.165	238488.0
461	1555	1	0.165	238488.0
461	1574	1	0.165	238488.0
462	1573	1	0.165	238488.0
462	1724	1	0.165	238488.0
463	1557	1	0.165	238488.0
463	1575	1	0.165	238488.0
464	1576	1	0.165	238488.0
464	1606	1	0.165	238488.0
465	1577	1	0.165	238488.0
465	1607	1	0.165	238488.0
466	1578	1	0.165	238488.0
466	1608	1	0.165	238488.0
467	1577	1	0.165	238488.0
467	1579	1	0.165	238488.0
468	1578	1	0.165	238488.0
468	1580	1	0.165	238488.0
469	1581	1	0.165	238488.0
469	1744	1	0.165	238488.0
470	1574	1	0.165	238488.0
470	1582	1	0.165	238488.0
471	1571	1	0.165	238488.0
471	1573	1	0.165	238488.0
472	1575	1	0.165	238488.0
472	1584	1	0.165	238488.0
473	1574	1	0.165	238488.0
473	1579	1	0.165	238488.0
474	1405	1	0.165	238488.0
474	1580	1	0.165	238488.0
475	1575	1	0.165	238488.0
475	1581	1	0.165	238488.0
476	1576	1	0.165	238488.0
476	1582	1	0.165	238488.0
477	1577	1	0.165	238488.0
477	1583	1	0.165	238488.0
478	1578	1	0.165	238488.0
478	1584	1	0.165	238488.0
479	1573	1	0.165	238488.0
479	1584	1	0.165	238488.0
480	1415	1	0.165	238488.0
480	1574	1	0.165	238488.0
481	1575	1	0.165	238488.0
481	1582	1	0.165	238488.0
482	1576	1	0.165	238488.0
482	1580	1	0.165	238488.0
483	1577	1	0.165	238488.0
483	1581	1	0.165	238488.0
484	1567	1	0.165	238488.0
484	1578	1	0.165	238488.0
485	1567	1	0.165	238488.0
485	1586	1	0.165	238488.0
486	1585	1	0.165	238488.0
486	1736	1	0.165	238488.0
487	1569	1	0.165	238488.0
487	1587	1	0.165	238488.0
488	1588	1	0.165	238488.0
488	1618	1	0.165	238488.0
489	1589	1	0.165	238488.0
489	1619	1	0.165	238488.0
490	1590	1	0.165	238488.0
490	1620	1	0.165	238488.0
491	1589	1	0.165	238488.0
491	1591	1	0.165	238488.0
492	1590	1	0.165	238488.0
492	1592	1	0.165	238488.0
493	1593	1	0.165	238488.0
493	1756	1	0.165	238488.0
494	1586	1	0.165	238488.0
494	1594	1	0.165	238488.0
495	1587	1	0.165	238488.0
495	1596	1	0.165	238488.0
496	1586	1	0.165	238488.0
496	1591	1	0.165	238488.0
497	1417	1	0.165	238488.0
497	1592	1	0.165	238488.0
498	1587	1	0.165	238488.0
498	1593	1	0.165	238488.0
499	1588	1	0.165	238488.0
499	1594	1	0.165	238488.0
500	1589	1	0.165	238488.0
500	1595	1	0.165	238488.0
501	1590	1	0.165	238488.0
501	1596	1	0.165	238488.0
502	1585	1	0.165	238488.0
502	1596	1	0.165	238488.0
503	1427	1	0.165	238488.0
503	1586	1	0.165	238488.0
504	1587	1	0.165	238488.0
504	1594	1	0.165	238488.0
505	1588	1	0.165	238488.0
505	1592	1	0.165	238488.0
506	1589	1	0.165	238488.0
506	1593	1	0.165	238488.0
507	1417	1	0.165	238488.0
507	1590	1	0.165	238488.0
508	1579	1	0.165	238488.0
508	1598	1	0.165	238488.0
509	1597	1	0.165	238488.0
509	1748	1	0.165	238488.0
510	1581	1	0.165	238488.0
510	1599	1	0.165	238488.0
511	1600	1	0.165	238488.0
511	1630	1	0.165	238488.0
512	1601	1	0.165	238488.0
512	1631	1	0.165	238488.0
513	1602	1	0.165	238488.0
513	1632	1	0.165	238488.0
514	1601	1	0.165	238488.0
514	1603	1	0.165	238488.0
515	1602	1	0.165	238488.0
515	1604	1	0.165	238488.0
516	1605	1	0.165	238488.0
516	1768	1	0.165	238488.0
517	1598	1	0.165	238488.0
517	1606	1	0.165	238488.0
518	1595	1	0.165	238488.0
518	1597	1	0.165	238488.0
519	1599	1	0.165	238488.0
519	1608	1	0.165	238488.0
520	1598	1	0.165	238488.0
520	1603	1	0.165	238488.0
521	1429	1	0.165	238488.0
521	1604	1	0.165	238488.0
522	1599	1	0.165	238488.0
522	1605	1	0.165	238488.0
523	1600	1	0.165	238488.0
523	1606	1	0.165	238488.0
524	1601	1	0.165	238488.0
524	1607	1	0.165	238488.0
525	1602	1	0.165	238488.0
525	1608	1	0.165	238488.0
526	1597	1	0.165	238488.0
526	1608	1	0.165	238488.0
527	1439	1	0.165	238488.0
527	1598	1	0.165	238488.0
528	1599	1	0.165	238488.0
528	1606	1	0.165	238488.0
529	1600	1	0.165	238488.0
529	1604	1	0.165	238488.0
530	1601	1	0.165	238488.0
530	1605	1	0.165	238488.0
531	1591	1	0.165	238488.0
531	1602	1	0.165	238488.0
532	1591	1	0.165	238488.0
532	1610	1	0.165	238488.0
533	1609	1	0.165	238488.0
533	1760	1	0.165	238488.0
534	1593	1	0.165	238488.0
534	1611	1	0.165	238488.0
535	1612	1	0.165	238488.0
535	1642	1	0.165	238488.0
536	1613	1	0.165	238488.0
536	1643	1	0.165	238488.0
537	1614	1	0.165	238488.0
537	1644	1	0.165	238488.0
538	1613	1	0.165	238488.0
538	1615	1	0.165	238488.0
539	1614	1	0.165	238488.0
539	1616	1	0.165	238488.0
540	1617	1	0.165	238488.0
540	1780	1	0.165	238488.0
541	1610	1	0.165	238488.0
541	1618	1	0.165	238488.0
542	1611	1	0.165	238488.0
542	1620	1	0.165	238488.0
543	1610	1	0.165	238488.0
543	1615	1	0.165	238488.0
544	1441	1	0.165	238488.0
544	1616	1	0.165	238488.0
545	1611	1	0.165	238488.0
545	1617	1	0.165	238488.0
546	1612	1	0.165	238488.0
546	1618	1	0.165	238488.0
547	1613	1	0.165	238488.0
547	1619	1	0.165	238488.0
548	1614	1	0.165	238488.0
548	1620	1	0.165	238488.0
549	1609	1	0.165	238488.0
549	1620	1	0.165	238488.0
550	1451	1	0.165	238488.0
550	1610	1	0.165	238488.0
551	1611	1	0.165	238488.0
551	1618	1	0.165	238488.0
552	1612	1	0.165	238488.0
552	1616	1	0.165	238488.0
553	1613	1	0.165	238488.0
553	1617	1	0.165	238488.0
554	1441	1	0.165	238488.0
554	1614	1	0.165	238488.0
555	1603	1	0.165	238488.0
555	1622	1	0.165	238488.0
556	1621	1	0.165	238488.0
556	1772	1	0.165	238488.0
557	1605	1	0.165	238488.0
557	1623	1	0.165	238488.0
558	1624	1	0.165	238488.0
558	1654	1	0.165	238488.0
559	1625	1	0.165	238488.0
559	1655	1	0.165	238488.0
560	1626	1	0.165	238488.0
560	1656	1	0.165	238488.0
561	1625	1	0.165	238488.0
561	1627	1	0.165	238488.0
562	1626	1	0.165	238488.0
562	1628	1	0.165	238488.0
563	1629	1	0.165	238488.0
563	1792	1	0.165	238488.0
564	1622	1	0.165	238488.0
564	1630	1	0.165	238488.0
565	1619	1	0.165	238488.0
565	1621	1	0.165	238488.0
566	1623	1	0.165	238488.0
566	1632	1	0.165	238488.0
567	1622	1	0.165	238488.0
567	1627	1	0.165	238488.0
568	1453	1	0.165	238488.0
568	1628	1	0.165	238488.0
569	1623	1	0.165	238488.0
569	1629	1	0.165	238488.0
570	1624	1	0.165	238488.0
570	1630	1	0.165	238488.0
571	1625	1	0.165	238488.0
571	1631	1	0.165	238488.0
572	1626	1	0.165	238488.0
572	1632	1	0.165	238488.0
573	1621	1	0.165	238488.0
573	1632	1	0.165	238488.0
574	1463	1	0.165	238488.0
574	1622	1	0.165	238488.0
575	1623	1	0.165	238488.0
575	1630	1	0.165	238488.0
576	1624	1	0.165	238488.0
576	1628	1	0.165	238488.0
577	1625	1	0.165	238488.0
577	1629	1	0.165	238488.0
578	1615	1	0.165	238488.0
578	1626	1	0.165	238488.0
579	1615	1	0.165	238488.0
579	1634	1	0.165	238488.0
580	1633	1	0.165	238488.0
580	1784	1	0.165	238488.0
581	1617	1	0.165	238488.0
581	1635	1	0.165	238488.0
582	1636	1	0.165	238488.0
582	1666	1	0.165	238488.0
583	1637	1	0.165	238488.0
583	1667	1	0.165	238488.0
584	1638	1	0.165	238488.0
584	1668	1	0.165	238488.0
585	1637	1	0.165	238488.0
585	1639	1	0.165	238488.0
586	1638	1	0.165	238488.0
586	1640	1	0.165	238488.0
587	1641	1	0.165	238488.0
587	1804	1	0.165	238488.0
588	1634	1	0.165	238488.0
588	1642	1	0.165	238488.0
589	1635	1	0.165	238488.0
589	1644	1	0.165	238488.0
590	1634	1	0.165	238488.0
590	1639	1	0.165	238488.0
591	1465	1	0.165	238488.0
591	1640	1	0.165	238488.0
592	1635	1	0.165	238488.0
592	1641	1	0.165	238488.0
593	1636	1	0.165	238488.0
593	1642	1	0.165	238488.0
594	1637	1	0.165	238488.0
594	1643	1	0.165	238488.0
595	1638	1	0.165	238488.0
595	1644	1	0.165	238488.0
596	1633	1	0.165	238488.0
596	1644	1	0.165	238488.0
597	1475	1	0.165	238488.0
597	1634	1	0.165	238488.0
598	1635	1	0.165	238488.0
598	1642	1	0.165	238488.0
599	1636	1	0.165	238488.0
599	1640	1	0.165	238488.0
600	1637	1	0.165	238488.0
600	1641	1	0.165	238488.0
601	1465	1	0.165	238488.0
601	1638	1	0.165	238488.0
602	1627	1	0.165	238488.0
602	1646	1	0.165	238488.0
603	1645	1	0.165	238488.0
603	1796	1	0.165	238488.0
604	1629	1	0.165	238488.0
604	1647	1	0.165	238488.0
605	1648	1	0.165	238488.0
605	1678	1	0.165	238488.0
606	1649	1	0.165	238488.0
606	1679	1	0.165	238488.0
607	1650	1	0.165	238488.0
607	1680	1	0.165	238488.0
608	1649	1	0.165	238488.0
608	1651	1	0.165	238488.0
609	1650	1	0.165	238488.0
609	1652	1	0.165	238488.0
610	1653	1	0.165	238488.0
610	1816	1	0.165	238488.0
611	1646	1	0.165	238488.0
611	1654	1	0.165	238488.0
612	1643	1	0.165	238488.0
612	1645	1	0.165	238488.0
613	1647	1	0.165	238488.0
613	1656	1	0.165	238488.0
614	1646	1	0.165	238488.0
614	1651	1	0.165	238488.0
615	1477	1	0.165	238488.0
615	1652	1	0.165	238488.0
616	1647	1	0.165	238488.0
616	1653	1	0.165	238488.0
617	1648	1	0.165	238488.0
617	1654	1	0.165	238488.0
618	1649	1	0.165	238488.0
618	1655	1	0.165	238488.0
619	1650	1	0.165	238488.0
619	1656	1	0.165	238488.0
620	1645	1	0.165	238488.0
620	1656	1	0.165	238488.0
621	1487	1	0.165	238488.0
621	1646	1	0.165	238488.0
622	1647	1	0.165	238488.0
622	1654	1	0.165	238488.0
623	1648	1	0.165	238488.0
623	1652	1	0.165	238488.0
624	1649	1	0.165	238488.0
624	1653	1	0.165	238488.0
625	1639	1	0.165	238488.0
625	1650	1	0.165	238488.0
626	1639	1	0.165	238488.0
626	1658	1	0.165	238488.0
627	1657	1	0.165	238488.0
627	1808	1	0.165	238488.0
628	1641	1	0.165	238488.0
628	1659	1	0.165	238488.0
629	1522	1	0.165	238488.0
629	1660	1	0.165	238488.0
630	1523	1	0.165	238488.0
630	1661	1	0.165	238488.0
631	1524	1	0.165	238488.0
631	1662	1	0.165	238488.0
632	1661	1	0.165	238488.0
632	1663	1	0.165	238488.0
633	1662	1	0.165	238488.0
633	1664	1	0.165	238488.0
634	1665	1	0.165	238488.0
634	1828	1	0.165	238488.0
635	1658	1	0.165	238488.0
635	1666	1	0.165	238488.0
636	1659	1	0.165	238488.0
636	1668	1	0.165	238488.0
637	1658	1	0.165	238488.0
637	1663	1	0.165	238488.0
638	1489	1	0.165	238488.0
638	1664	1	0.165	238488.0
639	1659	1	0.165	238488.0
639	1665	1	0.165	238488.0
640	1660	1	0.165	238488.0
640	1666	1	0.165	238488.0
641	1661	1	0.165	238488.0
641	1667	1	0.165	238488.0
642	1662	1	0.165	238488.0
642	1668	1	0.165	238488.0
643	1657	1	0.165	238488.0
643	1668	1	0.165	238488.0
644	1499	1	0.165	238488.0
644	1658	1	0.165	238488.0
645	1659	1	0.165	238488.0
645	1666	1	0.165	238488.0
646	1660	1	0.165	238488.0
646	1664	1	0.165	238488.0
647	1661	1	0.165	238488.0
647	1665	1	0.165	238488.0
648	1489	1	0.165	238488.0
648	1662	1	0.165	238488.0
649	1651	1	0.165	238488.0
649	1670	1	0.165	238488.0
650	1669	1	0.165	238488.0
650	1820	1	0.165	238488.0
651	1653	1	0.165	238488.0
651	1671	1	0.165	238488.0
652	1534	1	0.165	238488.0
652	1672	1	0.165	238488.0
653	1535	1	0.165	238488.0
653	1673	1	0.165	238488.0
654	1536	1	0.165	238488.0
654	1674	1	0.165	238488.0
655	1673	1	0.165	238488.0
655	1675	1	0.165	238488.0
656	1674	1	0.165	238488.0
656	1676	1	0.165	238488.0
657	1677	1	0.165	238488.0
657	1840	1	0.165	238488.0
658	1670	1	0.165	238488.0
658	1678	1	0.165	238488.0
659	1667	1	0.165	238488.0
659	1669	1	0.165	238488.0
660	1671	1	0.165	238488.0
660	1680	1	0.165	238488.0
661	1670	1	0.165	238488.0
661	1675	1	0.165	238488.0
662	1501	1	0.165	238488.0
662	1676	1	0.165	238488.0
663	1671	1	0.165	238488.0
663	1677	1	0.165	238488.0
664	1672	1	0.165	238488.0
664	1678	1	0.165	238488.0
665	1673	1	0.165	238488.0
665	1679	1	0.165	238488.0
666	1674	1	0.165	238488.0
666	1680	1	0.165	238488.0
667	1669	1	0.165	238488.0
667	1680	1	0.165	238488.0
668	1511	1	0.165	238488.0
668	1670	1	0.165	238488.0
669	1671	1	0.165	238488.0
669	1678	1	0.165	238488.0
670	1672	1	0.165	238488.0
670	1676	1	0.165	238488.0
671	1673	1	0.165	238488.0
671	1677	1	0.165	238488.0
672	1663	1	0.165	238488.0
672	1674	1	0.165	238488.0
673	1682	1	0.165	238488.0
673	1831	1	0.165	238488.0
674	1681	1	0.165	238488.0
674	2000	1	0.165	238488.0
675	1683	1	0.165	238488.0
675	1833	1	0.165	238488.0
676	1684	1	0.165	238488.0
676	1714	1	0.165	238488.0
677	1685	1	0.165	238488.0
677	1715	1	0.165	238488.0
678	1686	1	0.165	238488.0
678	1716	1	0.165	238488.0
679	1685	1	0.165	238488.0
679	1687	1	0.165	238488.0
680	1686	1	0.165	238488.0
680	1688	1	0.165	238488.0
681	1689	1	0.165	238488.0
681	1852	1	0.165	238488.0
682	1682	1	0.165	238488.0
682	1690	1	0.165	238488.0
683	1683	1	0.165	238488.0
683	1692	1	0.165	238488.0
684	1682	1	0.165	238488.0
684	1687	1	0.165	238488.0
685	1513	1	0.165	238488.0
685	1688	1	0.165	238488.0
686	1683	1	0.165	238488.0
686	1689	1	0.165	238488.0
687	1684	1	0.165	238488.0
687	1690	1	0.165	238488.0
688	1685	1	0.165	238488.0
688	1691	1	0.165	238488.0
689	1686	1	0.165	238488.0
689	1692	1	0.165	238488.0
690	1681	1	0.165	238488.0
690	1692	1	0.165	238488.0
691	1523	1	0.165	238488.0
691	1682	1	0.165	238488.0
692	1683	1	0.165	238488.0
692	1690	1	0.165	238488.0
693	1684	1	0.165	238488.0
693	1688	1	0.165	238488.0
694	1685	1	0.165	238488.0
694	1689	1	0.165	238488.0
695	1513	1	0.165	238488.0
695	1686	1	0.165	238488.0
696	1694	1	0.165	238488.0
696	1843	1	0.165	238488.0
697	1693	1	0.165	238488.0
697	2012	1	0.165	238488.0
698	1695	1	0.165	238488.0
698	1845	1	0.165	238488.0
699	1696	1	0.165	238488.0
699	1726	1	0.165	238488.0
700	1697	1	0.165	238488.0
700	1727	1	0.165	238488.0
701	1698	1	0.165	238488.0
701	1728	1	0.165	238488.0
702	1697	1	0.165	238488.0
702	1699	1	0.165	238488.0
703	1698	1	0.165	238488.0
703	1700	1	0.165	238488.0
704	1701	1	0.165	238488.0
704	1864	1	0.165	238488.0
705	1694	1	0.165	238488.0
705	1702	1	0.165	238488.0
706	1691	1	0.165	238488.0
706	1693	1	0.165	238488.0
707	1695	1	0.165	238488.0
707	1704	1	0.165	238488.0
708	1694	1	0.165	238488.0
708	1699	1	0.165	238488.0
709	1525	1	0.165	238488.0
709	1700	1	0.165	238488.0
710	1695	1	0.165	238488.0
710	1701	1	0.165	238488.0
711	1696	1	0.165	238488.0
711	1702	1	0.165	238488.0
712	1697	1	0.165	238488.0
712	1703	1	0.165	238488.0
713	1698	1	0.165	238488.0
713	1704	1	0.165	238488.0
714	1693	1	0.165	238488.0
714	1704	1	0.165	238488.0
715	1535	1	0.165	238488.0
715	1694	1	0.165	238488.0
716	1695	1	0.165	238488.0
716	1702	1	0.165	238488.0
717	1696	1	0.165	238488.0
717	1700	1	0.165	238488.0
718	1697	1	0.165	238488.0
718	1701	1	0.165	238488.0
719	1687	1	0.165	238488.0
719	1698	1	0.165	238488.0
720	1687	1	0.165	238488.0
720	1706	1	0.165	238488.0
721	1705	1	0.165	238488.0
721	1856	1	0.165	238488.0
722	1689	1	0.165	238488.0
722	1707	1	0.165	238488.0
723	1708	1	0.165	238488.0
723	1738	1	0.165	238488.0
724	1709	1	0.165	238488.0
724	1739	1	0.165	238488.0
725	1710	1	0.165	238488.0
725	1740	1	0.165	238488.0
726	1709	1	0.165	238488.0
726	1711	1	0.165	238488.0
727	1710	1	0.165	238488.0
727	1712	1	0.165	238488.0
728	1713	1	0.165	238488.0
728	1876	1	0.165	238488.0
729	1706	1	0.165	238488.0
729	1714	1	0.165	238488.0
730	1707	1	0.165	238488.0
730	1716	1	0.165	238488.0
731	1706	1	0.165	238488.0
731	1711	1	0.165	238488.0
732	1537	1	0.165	238488.0
732	1712	1	0.165	238488.0
733	1707	1	0.165	238488.0
733	1713	1	0.165	238488.0
734	1708	1	0.165	238488.0
734	1714	1	0.165	238488.0
735	1709	1	0.165	238488.0
735	1715	1	0.165	238488.0
736	1710	1	0.165	238488.0
736	1716	1	0.165	238488.0
737	1705	1	0.165	238488.0
737	1716	1	0.165	238488.0
738	1547	1	0.165	238488.0
738	1706	1	0.165	238488.0
739	1707	1	0.165	238488.0
739	1714	1	0.165	238488.0
740	1708	1	0.165	238488.0
740	1712	1	0.165	238488.0
741	1709	1	0.165	238488.0
741	1713	1	0.165	238488.0
742	1537	1	0.165	238488.0
742	1710	1	0.165	238488.0
743	1699	1	0.165	238488.0
743	1718	1	0.165	238488.0
744	1717	1	0.165	238488.0
744	1868	1	0.165	238488.0
745	1701	1	0.165	238488.0
745	1719	1	0.165	238488.0
746	1720	1	0.165	238488.0
746	1750	1	0.165	238488.0
747	1721	1	0.165	238488.0
747	1751	1	0.165	238488.0
748	1722	1	0.165	238488.0
748	1752	1	0.165	238488.0
749	1721	1	0.165	238488.0
749	1723	1	0.165	238488.0
750	1722	1	0.165	238488.0
750	1724	1	0.165	238488.0
751	1725	1	0.165	238488.0
751	1888	1	0.165	238488.0
752	1718	1	0.165	238488.0
752	1726	1	0.165	238488.0
753	1715	1	0.165	238488.0
753	1717	1	0.165	238488.0
754	1719	1	0.165	238488.0
754	1728	1	0.165	238488.0
755	1718	1	0.165	238488.0
755	1723	1	0.165	238488.0
756	1549	1	0.165	238488.0
756	1724	1	0.165	238488.0
757	1719	1	0.165	238488.0
757	1725	1	0.165	238488.0
758	1720	1	0.165	238488.0
758	1726	1	0.165	238488.0
759	1721	1	0.165	238488.0
759	1727	1	0.165	238488.0
760	1722	1	0.165	238488.0
760	1728	1	0.165	238488.0
761	1717	1	0.165	238488.0
761	1728	1	0.165	238488.0
762	1559	1	0.165	238488.0
762	1718	1	0.165	238488.0
763	1719	1	0.165	238488.0
763	1726	1	0.165	238488.0
764	1720	1	0.165	238488.0
764	1724	1	0.165	238488.0
765	1721	1	0.165	238488.0
765	1725	1	0.165	238488.0
766	1711	1	0.165	238488.0
766	1722	1	0.165	238488.0
767	1711	1	0.165	238488.0
767	1730	1	0.165	238488.0
768	1729	1	0.165	238488.0
768	1880	1	0.165	238488.0
769	1713	1	0.165	238488.0
769	1731	1	0.165	238488.0
770	1732	1	0.165	238488.0
770	1762	1	0.165	238488.0
771	1733	1	0.165	238488.0
771	1763	1	0.165	238488.0
772	1734	1	0.165	238488.0
772	1764	1	0.165	238488.0
773	1733	1	0.165	238488.0
773	1735	1	0.165	238488.0
774	1734	1	0.165	238488.0
774	1736	1	0.165	238488.0
775	1737	1	0.165	238488.0
775	1900	1	0.165	238488.0
776	1730	1	0.165	238488.0
776	1738	1	0.165	238488.0
777	1731	1	0.165	238488.0
777	1740	1	0.165	238488.0
778	1730	1	0.165	238488.0
778	1735	1	0.165	238488.0
779	1561	1	0.165	238488.0
779	1736	1	0.165	238488.0
780	1731	1	0.165	238488.0
780	1737	1	0.165	238488.0
781	1732	1	0.165	238488.0
781	1738	1	0.165	238488.0
782	1733	1	0.165	238488.0
782	1739	1	0.165	238488.0
783	1734	1	0.165	238488.0
783	1740	1	0.165	238488.0
784	1729	1	0.165	238488.0
784	1740	1	0.165	238488.0
785	1571	1	0.165	238488.0
785	1730	1	0.165	238488.0
786	1731	1	0.165	238488.0
786	1738	1	0.165	238488.0
787	1732	1	0.165	238488.0
787	1736	1	0.165	238488.0
788	1733	1	0.165	238488.0
788	1737	1	0.165	238488.0
789	1561	1	0.165	238488.0
789	1734	1	0.165	238488.0
790	1723	1	0.165	238488.0
790	1742	1	0.165	238488.0
791	1741	1	0.165	238488.0
791	1892	1	0.165	238488.0
792	1725	1	0.165	238488.0
792	1743	1	0.165	238488.0
793	1744	1	0.165	238488.0
793	1774	1	0.165	238488.0
794	1745	1	0.165	238488.0
794	1775	1	0.165	238488.0
795	1746	1	0.165	238488.0
795	1776	1	0.165	238488.0
796	1745	1	0.165	238488.0
796	1747	1	0.165	238488.0
797	1746	1	0.165	238488.0
797	1748	1	0.165	238488.0
798	1749	1	0.165	238488.0
798	1912	1	0.165	238488.0
799	1742	1	0.165	238488.0
799	1750	1	0.165	238488.0
800	1739	1	0.165	238488.0
800	1741	1	0.165	238488.0
801	1743	1	0.165	238488.0
801	1752	1	0.165	238488.0
802	1742	1	0.165	238488.0
802	1747	1	0.165	238488.0
803	1573	1	0.165	238488.0
803	1748	1	0.165	238488.0
804	1743	1	0.165	238488.0
804	1749	1	0.165	238488.0
805	1744	1	0.165	238488.0
805	1750	1	0.165	238488.0
806	1745	1	0.165	238488.0
806	1751	1	0.165	238488.0
807	1746	1	0.165	238488.0
807	1752	1	0.165	238488.0
808	1741	1	0.165	238488.0
808	1752	1	0.165	238488.0
809	1583	1	0.165	238488.0
809	1742	1	0.165	238488.0
810	1743	1	0.165	238488.0
810	1750	1	0.165	238488.0
811	1744	1	0.165	238488.0
811	1748	1	0.165	238488.0
812	1745	1	0.165	238488.0
812	1749	1	0.165	238488.0
813	1735	1	0.165	238488.0
813	1746	1	0.165	238488.0
814	1735	1	0.165	238488.0
814	1754	1	0.165	238488.0
815	1753	1	0.165	238488.0
815	1904	1	0.165	238488.0
816	1737	1	0.165	238488.0
816	1755	1	0.165	238488.0
817	1756	1	0.165	238488.0
817	1786	1	0.165	238488.0
818	1757	1	0.165	238488.0
818	1787	1	0.165	238488.0
819	1758	1	0.165	238488.0
819	1788	1	0.165	238488.0
820	1757	1	0.165	238488.0
820	1759	1	0.165	238488.0
821	1758	1	0.165	238488.0
821	1760	1	0.165	238488.0
822	1761	1	0.165	238488.0
822	1924	1	0.165	238488.0
823	1754	1	0.165	238488.0
823	1762	1	0.165	238488.0
824	1755	1	0.165	238488.0
824	1764	1	0.165	238488.0
825	1754	1	0.165	238488.0
825	1759	1	0.165	238488.0
826	1585	1	0.165	238488.0
826	1760	1	0.165	238488.0
827	1755	1	0.165	238488.0
827	1761	1	0.165	238488.0
828	1756	1	0.165	238488.0
828	1762	1	0.165	238488.0
829	1757	1	0.165	238488.0
829	1763	1	0.165	238488.0
830	1758	1	0.165	238488.0
830	1764	1	0.165	238488.0
831	1753	1	0.165	238488.0
831	1764	1	0.165	238488.0
832	1595	1	0.165	238488.0
832	1754	1	0.165	238488.0
833	1755	1	0.165	238488.0
833	1762	1	0.165	238488.0
834	1756	1	0.165	238488.0
834	1760	1	0.165	238488.0
835	1757	1	0.165	238488.0
835	1761	1	0.165	238488.0
836	1585	1	0.165	238488.0
836	1758	1	0.165	238488.0
837	1747	1	0.165	238488.0
837	1766	1	0.165	238488.0
838	1765	1	0.165	238488.0
838	1916	1	0.165	238488.0
839	1749	1	0.165	238488.0
839	1767	1	0.165	238488.0
840	1768	1	0.165	238488.0
840	1798	1	0.165	238488.0
841	1769	1	0.165	238488.0
841	1799	1	0.165	238488.0
842	1770	1	0.165	238488.0
842	1800	1	0.165	238488.0
843	1769	1	0.165	238488.0
843	1771	1	0.165	238488.0
844	1770	1	0.165	238488.0
844	1772	1	0.165	238488.0
845	1773	1	0.165	238488.0
845	1936	1	0.165	238488.0
846	1766	1	0.165	238488.0
846	1774	1	0.165	238488.0
847	1763	1	0.165	238488.0
847	1765	1	0.165	238488.0
848	1767	1	0.165	238488.0
848	1776	1	0.165	238488.0
849	1766	1	0.165	238488.0
849	1771	1	0.165	238488.0
850	1597	1	0.165	238488.0
850	1772	1	0.165	238488.0
851	1767	1	0.165	238488.0
851	1773	1	0.165	238488.0
852	1768	1	0.165	238488.0
852	1774	1	0.165	238488.0
853	1769	1	0.165	238488.0
853	1775	1	0.165	238488.0
854	1770	1	0.165	238488.0
854	1776	1	0.165	238488.0
855	1765	1	0.165	238488.0
855	1776	1	0.165	238488.0
856	1607	1	0.165	238488.0
856	1766	1	0.165	238488.0
857	1767	1	0.165	238488.0
857	1774	1	0.165	238488.0
858	1768	1	0.165	238488.0
858	1772	1	0.165	238488.0
859	1769	1	0.165	238488.0
859	1773	1	0.165	238488.0
860	1759	1	0.165	238488.0
860	1770	1	0.165	238488.0
861	1759	1	0.165	238488.0
861	1778	1	0.165	238488.0
862	1777	1	0.165	238488.0
862	1928	1	0.165	238488.0
863	1761	1	0.165	238488.0
863	1779	1	0.165	238488.0
864	1780	1	0.165	238488.0
864	1810	1	0.165	238488.0
865	1781	1	0.165	238488.0
865	1811	1	0.165	238488.0
866	1782	1	0.165	238488.0
866	1812	1	0.165	238488.0
867	1781	1	0.165	238488.0
867	1783	1	0.165	238488.0
868	1782	1	0.165	238488.0
868	1784	1	0.165	238488.0
869	1785	1	0.165	238488.0
869	1948	1	0.165	238488.0
870	1778	1	0.165	238488.0
870	1786	1	0.165	238488.0
871	1779	1	0.165	238488.0
871	1788	1	0.165	238488.0
872	1778	1	0.165	238488.0
872	1783	1	0.165	238488.0
873	1609	1	0.165	238488.0
873	1784	1	0.165	238488.0
874	1779	1	0.165	238488.0
874	1785	1	0.165	238488.0
875	1780	1	0.165	238488.0
875	1786	1	0.165	238488.0
876	1781	1	0.165	238488.0
876	1787	1	0.165	238488.0
877	1782	1	0.165	238488.0
877	1788	1	0.165	238488.0
878	1777	1	0.165	238488.0
878	1788	1	0.165	238488.0
879	1619	1	0.165	238488.0
879	1778	1	0.165	238488.0
880	1779	1	0.165	238488.0
880	1786	1	0.165	238488.0
881	1780	1	0.165	238488.0
881	1784	1	0.165	238488.0
882	1781	1	0.165	238488.0
882	1785	1	0.165	238488.0
883	1609	1	0.165	238488.0
883	1782	1	0.165	238488.0
884	1771	1	0.165	238488.0
884	1790	1	0.165	238488.0
885	1789	1	0.165	238488.0
885	1940	1	0.165	238488.0
886	1773	1	0.165	238488.0
886	1791	1	0.165	238488.0
887	1792	1	0.165	238488.0
887	1822	1	0.165	238488.0
888	1793	1	0.165	238488.0
888	1823	1	0.165	238488.0
889	1794	1	0.165	238488.0
889	1824	1	0.165	238488.0
890	1793	1	0.165	238488.0
890	1795	1	0.165	238488.0
891	1794	1	0.165	238488.0
891	1796	1	0.165	238488.0
892	1797	1	0.165	238488.0
892	1960	1	0.165	238488.0
893	1790	1	0.165	238488.0
893	1798	1	0.165	238488.0
894	1787	1	0.165	238488.0
894	1789	1	0.165	238488.0
895	1791	1	0.165	238488.0
895	1800	1	0.165	238488.0
896	1790	1	0.165	238488.0
896	1795	1	0.165	238488.0
897	1621	1	0.165	238488.0
897	1796	1	0.165	238488.0
898	1791	1	0.165	238488.0
898	1797	1	0.165	238488.0
899	1792	1	0.165	238488.0
899	1798	1	0.165	238488.0
900	1793	1	0.165	238488.0
900	1799	1	0.165	238488.0
901	1794	1	0.165	238488.0
901	1800	1	0.165	238488.0
902	1789	1	0.165	238488.0
902	1800	1	0.165	238488.0
903	1631	1	0.165	238488.0
903	1790	1	0.165	238488.0
904	1791	1	0.165	238488.0
904	1798	1	0.165	238488.0
905	1792	1	0.165	238488.0
905	1796	1	0.165	238488.0
906	1793	1	0.165	238488.0
906	1797	1	0.165	238488.0
907	1783	1	0.165	238488.0
907	1794	1	0.165	238488.0
908	1783	1	0.165	238488.0
908	1802	1	0.165	238488.0
909	1801	1	0.165	238488.0
909	1952	1	0.165	238488.0
910	1785	1	0.165	238488.0
910	1803	1	0.165	238488.0
911	1804	1	0.165	238488.0
911	1834	1	0.165	238488.0
912	1805	1	0.165	238488.0
912	1835	1	0.165	238488.0
913	1806	1	0.165	238488.0
913	1836	1	0.165	238488.0
914	1805	1	0.165	238488.0
914	1807	1	0.165	238488.0
915	1806	1	0.165	238488.0
915	1808	1	0.165	238488.0
916	1809	1	0.165	238488.0
916	1972	1	0.165	238488.0
917	1802	1	0.165	238488.0
917	1810	1	0.165	238488.0
918	1803	1	0.165	238488.0
918	1812	1	0.165	238488.0
919	1802	1	0.165	238488.0
919	1807	1	0.165	238488.0
920	1633	1	0.165	238488.0
920	1808	1	0.165	238488.0
921	1803	1	0.165	238488.0
921	1809	1	0.165	238488.0
922	1804	1	0.165	238488.0
922	1810	1	0.165	238488.0
923	1805	1	0.165	238488.0
923	1811	1	0.165	238488.0
924	1806	1	0.165	238488.0
924	1812	1	0.165	238488.0
925	1801	1	0.165	238488.0
925	1812	1	0.165	238488.0
926	1643	1	0.165	238488.0
926	1802	1	0.165	238488.0
927	1803	1	0.165	238488.0
927	1810	1	0.165	238488.0
928	1804	1	0.165	238488.0
928	1808	1	0.165	238488.0
929	1805	1	0.165	238488.0
929	1809	1	0.165	238488.0
930	1633	1	0.165	238488.0
930	1806	1	0.165	238488.0
931	1795	1	0.165	238488.0
931	1814	1	0.165	238488.0
932	1813	1	0.165	238488.0
932	1964	1	0.165	238488.0
933	1797	1	0.165	238488.0
933	1815	1	0.165	238488.0
934	1816	1	0.165	238488.0
934	1846	1	0.165	238488.0
935	1817	1	0.165	238488.0
935	1847	1	0.165	238488.0
936	1818	1	0.165	238488.0
936	1848	1	0.165	238488.0
937	1817	1	0.165	238488.0
937	1819	1	0.165	238488.0
938	1818	1	0.165	238488.0
938	1820	1	0.165	238488.0
939	1821	1	0.165	238488.0
939	1984	1	0.165	238488.0
940	1814	1	0.165	238488.0
940	1822	1	0.165	238488.0
941	1811	1	0.165	238488.0
941	1813	1	0.165	238488.0
942	1815	1	0.165	238488.0
942	1824	1	0.165	238488.0
943	1814	1	0.165	238488.0
943	1819	1	0.165	238488.0
944	1645	1	0.165	238488.0
944	1820	1	0.165	238488.0
945	1815	1	0.165	238488.0
945	1821	1	0.165	238488.0
946	1816	1	0.165	238488.0
946	1822	1	0.165	238488.0
947	1817	1	0.165	238488.0
947	1823	1	0.165	238488.0
948	1818	1	0.165	238488.0
948	1824	1	0.165	238488.0
949	1813	1	0.165	238488.0
949	1824	1	0.165	238488.0
950	1655	1	0.165	238488.0
950	1814	1	0.165	238488.0
951	1815	1	0.165	238488.0
951	1822	1	0.165	238488.0
952	1816	1	0.165	238488.0
952	1820	1	0.165	238488.0
953	1817	1	0.165	238488.0
953	1821	1	0.165	238488.0
954	1807	1	0.165	238488.0
954	1818	1	0.165	238488.0
955	1807	1	0.165	238488.0
955	1826	1	0.165	238488.0
956	1825	1	0.165	238488.0
956	1976	1	0.165	238488.0
957	1809	1	0.165	238488.0
957	1827	1	0.165	238488.0
958	1690	1	0.165	238488.0
958	1828	1	0.165	238488.0
959	1691	1	0.165	238488.0
959	1829	1	0.165	238488.0
960	1692	1	0.165	238488.0
960	1830	1	0.165	238488.0
961	1829	1	0.165	238488.0
961	1831	1	0.165	238488.0
962	1830	1	0.165	238488.0
962	1832	1	0.165	238488.0
963	1833	1	0.165	238488.0
963	1996	1	0.165	238488.0
964	1826	1	0.165	238488.0
964	1834	1	0.165	238488.0
965	1827	1	0.165	238488.0
965	1836	1	0.165	238488.0
966	1826	1	0.165	238488.0
966	1831	1	0.165	238488.0
967	1657	1	0.165	238488.0
967	1832	1	0.165	238488.0
968	1827	1	0.165	238488.0
968	1833	1	0.165	238488.0
969	1828	1	0.165	238488.0
969	1834	1	0.165	238488.0
970	1829	1	0.165	238488.0
970	1835	1	0.165	238488.0
971	1830	1	0.165	238488.0
971	1836	1	0.165	238488.0
972	1825	1	0.165	238488.0
972	1836	1	0.165	238488.0
973	1667	1	0.165	238488.0
973	1826	1	0.165	238488.0
974	1827	1	0.165	238488.0
974	1834	1	0.165	238488.0
975	1828	1	0.165	238488.0
975	1832	1	0.165	238488.0
976	1829	1	0.165	238488.0
976	1833	1	0.165	238488.0
977	1657	1	0.165	238488.0
977	1830	1	0.165	238488.0
978	1819	1	0.165	238488.0
978	1838	1	0.165	238488.0
979	1837	1	0.165	238488.0
979	1988	1	0.165	238488.0
980	1821	1	0.165	238488.0
980	1839	1	0.165	238488.0
981	1702	1	0.165	238488.0
981	1840	1	0.165	238488.0
982	1703	1	0.165	238488.0
982	1841	1	0.165	238488.0
983	1704	1	0.165	238488.0
983	1842	1	0.165	238488.0
984	1841	1	0.165	238488.0
984	1843	1	0.165	238488.0
985	1842	1	0.165	238488.0
985	1844	1	0.165	238488.0
986	1845	1	0.165	238488.0
986	2008	1	0.165	238488.0
987	1838	1	0.165	238488.0
987	1846	1	0.165	238488.0
988	1835	1	0.165	238488.0
988	1837	1	0.165	238488.0
989	1839	1	0.165	238488.0
989	1848	1	0.165	238488.0
990	1838	1	0.165	238488.0
990	1843	1	0.165	238488.0
991	1669	1	0.165	238488.0
991	1844	1	0.165	238488.0
992	1839	1	0.165	238488.0
992	1845	1	0.165	238488.0
993	1840	1	0.165	238488.0
993	1846	1	0.165	238488.0
994	1841	1	0.165	238488.0
994	1847	1	0.165	238488.0
995	1842	1	0.165	238488.0
995	1848	1	0.165	238488.0
996	1837	1	0.165	238488.0
996	1848	1	0.165	238488.0
997	1679	1	0.165	238488.0
997	1838	1	0.165	238488.0
998	1839	1	0.165	238488.0
998	1846	1	0.165	238488.0
999	1840	1	0.165	238488.0
999	1844	1	0.165	238488.0
1000	1841	1	0.165	238488.0
1000	1845	1	0.165	238488.0
1001	1831	1	0.165	238488.0
1001	1842	1	0.165	238488.0
1002	1850	1	0.165	238488.0
1002	1999	1	0.165	238488.0
1003	1851	1	0.165	238488.0
1003	2001	1	0.165	238488.0
1004	1852	1	0.165	238488.0
1004	1882	1	0.165	238488.0
1005	1853	1	0.165	238488.0
1005	1883	1	0.165	238488.0
1006	1854	1	0.165	238488.0
1006	1884	1	0.165	238488.0
1007	1853	1	0.165	238488.0
1007	1855	1	0.165	238488.0
1008	1854	1	0.165	238488.0
1008	1856	1	0.165	238488.0
1009	1348	1	0.165	238488.0
1009	1857	1	0.165	238488.0
1010	1850	1	0.165	238488.0
1010	1858	1	0.165	238488.0
1011	1851	1	0.165	238488.0
1011	1860	1	0.165	238488.0
1012	1850	1	0.165	238488.0
1012	1855	1	0.165	238488.0
1013	1681	1	0.165	238488.0
1013	1856	1	0.165	238488.0
1014	1851	1	0.165	238488.0
1014	1857	1	0.165	238488.0
1015	1852	1	0.165	238488.0
1015	1858	1	0.165	238488.0
1016	1853	1	0.165	238488.0
1016	1859	1	0.165	238488.0
1017	1854	1	0.165	238488.0
1017	1860	1	0.165	238488.0
1018	1849	1	0.165	238488.0
1018	1860	1	0.165	238488.0
1019	1691	1	0.165	238488.0
1019	1850	1	0.165	238488.0
1020	1851	1	0.165	238488.0
1020	1858	1	0.165	238488.0
1021	1852	1	0.165	238488.0
1021	1856	1	0.165	238488.0
1022	1853	1	0.165	238488.0
1022	1857	1	0.165	238488.0
1023	1681	1	0.165	238488.0
1023	1854	1	0.165	238488.0
1024	1862	1	0.165	238488.0
1024	2011	1	0.165	238488.0
1025	1863	1	0.165	238488.0
1025	2013	1	0.165	238488.0
1026	1864	1	0.165	238488.0
1026	1894	1	0.165	238488.0
1027	1865	1	0.165	238488.0
1027	1895	1	0.165	238488.0
1028	1866	1	0.165	238488.0
1028	1896	1	0.165	238488.0
1029	1865	1	0.165	238488.0
1029	1867	1	0.165	238488.0
1030	1866	1	0.165	238488.0
1030	1868	1	0.165	238488.0
1031	1360	1	0.165	238488.0
1031	1869	1	0.165	238488.0
1032	1862	1	0.165	238488.0
1032	1870	1	0.165	238488.0
1033	1863	1	0.165	238488.0
1033	1872	1	0.165	238488.0
1034	1862	1	0.165	238488.0
1034	1867	1	0.165	238488.0
1035	1693	1	0.165	238488.0
1035	1868	1	0.165	238488.0
1036	1863	1	0.165	238488.0
1036	1869	1	0.165	238488.0
1037	1864	1	0.165	238488.0
1037	1870	1	0.165	238488.0
1038	1865	1	0.165	238488.0
1038	1871	1	0.165	238488.0
1039	1866	1	0.165	238488.0
1039	1872	1	0.165	238488.0
1040	1861	1	0.165	238488.0
1040	1872	1	0.165	238488.0
1041	1703	1	0.165	238488.0
1041	1862	1	0.165	238488.0
1042	1863	1	0.165	238488.0
1042	1870	1	0.165	238488.0
1043	1864	1	0.165	238488.0
1043	1868	1	0.165	238488.0
1044	1865	1	0.165	238488.0
1044	1869	1	0.165	238488.0
1045	1855	1	0.165	238488.0
1045	1866	1	0.165	238488.0
1046	1855	1	0.165	238488.0
1046	1874	1	0.165	238488.0
1047	1857	1	0.165	238488.0
1047	1875	1	0.165	238488.0
1048	1876	1	0.165	238488.0
1048	1906	1	0.165	238488.0
1049	1877	1	0.165	238488.0
1049	1907	1	0.165	238488.0
1050	1878	1	0.165	238488.0
1050	1908	1	0.165	238488.0
1051	1877	1	0.165	238488.0
1051	1879	1	0.165	238488.0
1052	1878	1	0.165	238488.0
1052	1880	1	0.165	238488.0
1053	1372	1	0.165	238488.0
1053	1881	1	0.165	238488.0
1054	1874	1	0.165	238488.0
1054	1882	1	0.165	238488.0
1055	1875	1	0.165	238488.0
1055	1884	1	0.165	238488.0
1056	1874	1	0.165	238488.0
1056	1879	1	0.165	238488.0
1057	1705	1	0.165	238488.0
1057	1880	1	0.165	238488.0
1058	1875	1	0.165	238488.0
1058	1881	1	0.165	238488.0
1059	1876	1	0.165	238488.0
1059	1882	1	0.165	238488.0
1060	1877	1	0.165	238488.0
1060	1883	1	0.165	238488.0
1061	1878	1	0.165	238488.0
1061	1884	1	0.165	238488.0
1062	1873	1	0.165	238488.0
1062	1884	1	0.165	238488.0
1063	1715	1	0.165	238488.0
1063	1874	1	0.165	238488.0
1064	1875	1	0.165	238488.0
1064	1882	1	0.165	238488.0
1065	1876	1	0.165	238488.0
1065	1880	1	0.165	238488.0
1066	1877	1	0.165	238488.0
1066	1881	1	0.165	238488.0
1067	1705	1	0.165	238488.0
1067	1878	1	0.165	238488.0
1068	1867	1	0.165	238488.0
1068	1886	1	0.165	238488.0
1069	1869	1	0.165	238488.0
1069	1887	1	0.165	238488.0
1070	1888	1	0.165	238488.0
1070	1918	1	0.165	238488.0
1071	1889	1	0.165	238488.0
1071	1919	1	0.165	238488.0
1072	1890	1	0.165	238488.0
1072	1920	1	0.165	238488.0
1073	1889	1	0.165	238488.0
1073	1891	1	0.165	238488.0
1074	1890	1	0.165	238488.0
1074	1892	1	0.165	238488.0
1075	1384	1	0.165	238488.0
1075	1893	1	0.165	238488.0
1076	1886	1	0.165	238488.0
1076	1894	1	0.165	238488.0
1077	1887	1	0.165	238488.0
1077	1896	1	0.165	238488.0
1078	1886	1	0.165	238488.0
1078	1891	1	0.165	238488.0
1079	1717	1	0.165	238488.0
1079	1892	1	0.165	238488.0
1080	1887	1	0.165	238488.0
1080	1893	1	0.165	238488.0
1081	1888	1	0.165	238488.0
1081	1894	1	0.165	238488.0
1082	1889	1	0.165	238488.0
1082	1895	1	0.165	238488.0
1083	1890	1	0.165	238488.0
1083	1896	1	0.165	238488.0
1084	1885	1	0.165	238488.0
1084	1896	1	0.165	238488.0
1085	1727	1	0.165	238488.0
1085	1886	1	0.165	238488.0
1086	1887	1	0.165	238488.0
1086	1894	1	0.165	238488.0
1087	1888	1	0.165	238488.0
1087	1892	1	0.165	238488.0
1088	1889	1	0.165	238488.0
1088	1893	1	0.165	238488.0
1089	1879	1	0.165	238488.0
1089	1890	1	0.165	238488.0
1090	1879	1	0.165	238488.0
1090	1898	1	0.165	238488.0
1091	1881	1	0.165	238488.0
1091	1899	1	0.165	238488.0
1092	1900	1	0.165	238488.0
1092	1930	1	0.165	238488.0
1093	1901	1	0.165	238488.0
1093	1931	1	0.165	238488.0
1094	1902	1	0.165	238488.0
1094	1932	1	0.165	238488.0
1095	1901	1	0.165	238488.0
1095	1903	1	0.165	238488.0
1096	1902	1	0.165	238488.0
1096	1904	1	0.165	238488.0
1097	1396	1	0.165	238488.0
1097	1905	1	0.165	238488.0
1098	1898	1	0.165	238488.0
1098	1906	1	0.165	238488.0
1099	1899	1	0.165	238488.0
1099	1908	1	0.165	238488.0
1100	1898	1	0.165	238488.0
1100	1903	1	0.165	238488.0
1101	1729	1	0.165	238488.0
1101	1904	1	0.165	238488.0
1102	1899	1	0.165	238488.0
1102	1905	1	0.165	238488.0
1103	1900	1	0.165	238488.0
1103	1906	1	0.165	238488.0
1104	1901	1	0.165	238488.0
1104	1907	1	0.165	238488.0
1105	1902	1	0.165	238488.0
1105	1908	1	0.165	238488.0
1106	1897	1	0.165	238488.0
1106	1908	1	0.165	238488.0
1107	1739	1	0.165	238488.0
1107	1898	1	0.165	238488.0
1108	1899	1	0.165	238488.0
1108	1906	1	0.165	238488.0
1109	1900	1	0.165	238488.0
1109	1904	1	0.165	238488.0
1110	1901	1	0.165	238488.0
1110	1905	1	0.165	238488.0
1111	1729	1	0.165	238488.0
1111	1902	1	0.165	238488.0
1112	1891	1	0.165	238488.0
1112	1910	1	0.165	238488.0
1113	1893	1	0.165	238488.0
1113	1911	1	0.165	238488.0
1114	1912	1	0.165	238488.0
1114	1942	1	0.165	238488.0
1115	1913	1	0.165	238488.0
1115	1943	1	0.165	238488.0
1116	1914	1	0.165	238488.0
1116	1944	1	0.165	238488.0
1117	1913	1	0.165	238488.0
1117	1915	1	0.165	238488.0
1118	1914	1	0.165	238488.0
1118	1916	1	0.165	238488.0
1119	1408	1	0.165	238488.0
1119	1917	1	0.165	238488.0
1120	1910	1	0.165	238488.0
1120	1918	1	0.165	238488.0
1121	1911	1	0.165	238488.0
1121	1920	1	0.165	238488.0
1122	1910	1	0.165	238488.0
1122	1915	1	0.165	238488.0
1123	1741	1	0.165	238488.0
1123	1916	1	0.165	238488.0
1124	1911	1	0.165	238488.0
1124	1917	1	0.165	238488.0
1125	1912	1	0.165	238488.0
1125	1918	1	0.165	238488.0
1126	1913	1	0.165	238488.0
1126	1919	1	0.165	238488.0
1127	1914	1	0.165	238488.0
1127	1920	1	0.165	238488.0
1128	1909	1	0.165	238488.0
1128	1920	1	0.165	238488.0
1129	1751	1	0.165	238488.0
1129	1910	1	0.165	238488.0
1130	1911	1	0.165	238488.0
1130	1918	1	0.165	238488.0
1131	1912	1	0.165	238488.0
1131	1916	1	0.165	238488.0
1132	1913	1	0.165	238488.0
1132	1917	1	0.165	238488.0
1133	1903	1	0.165	238488.0
1133	1914	1	0.165	238488.0
1134	1903	1	0.165	238488.0
1134	1922	1	0.165	238488.0
1135	1905	1	0.165	238488.0
1135	1923	1	0.165	238488.0
1136	1924	1	0.165	238488.0
1136	1954	1	0.165	238488.0
1137	1925	1	0.165	238488.0
1137	1955	1	0.165	238488.0
1138	1926	1	0.165	238488.0
1138	1956	1	0.165	238488.0
1139	1925	1	0.165	238488.0
1139	1927	1	0.165	238488.0
1140	1926	1	0.165	238488.0
1140	1928	1	0.165	238488.0
1141	1420	1	0.165	238488.0
1141	1929	1	0.165	238488.0
1142	1922	1	0.165	238488.0
1142	1930	1	0.165	238488.0
1143	1923	1	0.165	238488.0
1143	1932	1	0.165	238488.0
1144	1922	1	0.165	238488.0
1144	1927	1	0.165	238488.0
1145	1753	1	0.165	238488.0
1145	1928	1	0.165	238488.0
1146	1923	1	0.165	238488.0
1146	1929	1	0.165	238488.0
1147	1924	1	0.165	238488.0
1147	1930	1	0.165	238488.0
1148	1925	1	0.165	238488.0
1148	1931	1	0.165	238488.0
1149	1926	1	0.165	238488.0
1149	1932	1	0.165	238488.0
1150	1921	1	0.165	238488.0
1150	1932	1	0.165	238488.0
1151	1763	1	0.165	238488.0
1151	1922	1	0.165	238488.0
1152	1923	1	0.165	238488.0
1152	1930	1	0.165	238488.0
1153	1924	1	0.165	238488.0
1153	1928	1	0.165	238488.0
1154	1925	1	0.165	238488.0
1154	1929	1	0.165	238488.0
1155	1753	1	0.165	238488.0
1155	1926	1	0.165	238488.0
1156	1915	1	0.165	238488.0
1156	1934	1	0.165	238488.0
1157	1917	1	0.165	238488.0
1157	1935	1	0.165	238488.0
1158	1936	1	0.165	238488.0
1158	1966	1	0.165	238488.0
1159	1937	1	0.165	238488.0
1159	1967	1	0.165	238488.0
1160	1938	1	0.165	238488.0
1160	1968	1	0.165	238488.0
1161	1937	1	0.165	238488.0
1161	1939	1	0.165	238488.0
1162	1938	1	0.165	238488.0
1162	1940	1	0.165	238488.0
1163	1432	1	0.165	238488.0
1163	1941	1	0.165	238488.0
1164	1934	1	0.165	238488.0
1164	1942	1	0.165	238488.0
1165	1935	1	0.165	238488.0
1165	1944	1	0.165	238488.0
1166	1934	1	0.165	238488.0
1166	1939	1	0.165	238488.0
1167	1765	1	0.165	238488.0
1167	1940	1	0.165	238488.0
1168	1935	1	0.165	238488.0
1168	1941	1	0.165	238488.0
1169	1936	1	0.165	238488.0
1169	1942	1	0.165	238488.0
1170	1937	1	0.165	238488.0
1170	1943	1	0.165	238488.0
1171	1938	1	0.165	238488.0
1171	1944	1	0.165	238488.0
1172	1933	1	0.165	238488.0
1172	1944	1	0.165	238488.0
1173	1775	1	0.165	238488.0
1173	1934	1	0.165	238488.0
1174	1935	1	0.165	238488.0
1174	1942	1	0.165	238488.0
1175	1936	1	0.165	238488.0
1175	1940	1	0.165	238488.0
1176	1937	1	0.165	238488.0
1176	1941	1	0.165	238488.0
1177	1927	1	0.165	238488.0
1177	1938	1	0.165	238488.0
1178	1927	1	0.165	238488.0
1178	1946	1	0.165	238488.0
1179	1929	1	0.165	238488.0
1179	1947	1	0.165	238488.0
1180	1948	1	0.165	238488.0
1180	1978	1	0.165	238488.0
1181	1949	1	0.165	238488.0
1181	1979	1	0.165	238488.0
1182	1950	1	0.165	238488.0
1182	1980	1	0.165	238488.0
1183	1949	1	0.165	238488.0
1183	1951	1	0.165	238488.0
1184	1950	1	0.165	238488.0
1184	1952	1	0.165	238488.0
1185	1444	1	0.165	238488.0
1185	1953	1	0.165	238488.0
1186	1946	1	0.165	238488.0
1186	1954	1	0.165	238488.0
1187	1947	1	0.165	238488.0
1187	1956	1	0.165	238488.0
1188	1946	1	0.165	238488.0
1188	1951	1	0.165	238488.0
1189	1777	1	0.165	238488.0
1189	1952	1	0.165	238488.0
1190	1947	1	0.165	238488.0
1190	1953	1	0.165	238488.0
1191	1948	1	0.165	238488.0
1191	1954	1	0.165	238488.0
1192	1949	1	0.165	238488.0
1192	1955	1	0.165	238488.0
1193	1950	1	0.165	238488.0
1193	1956	1	0.165	238488.0
1194	1945	1	0.165	238488.0
1194	1956	1	0.165	238488.0
1195	1787	1	0.165	238488.0
1195	1946	1	0.165	238488.0
1196	1947	1	0.165	238488.0
1196	1954	1	0.165	238488.0
1197	1948	1	0.165	238488.0
1197	1952	1	0.165	238488.0
1198	1949	1	0.165	238488.0
1198	1953	1	0.165	238488.0
1199	1777	1	0.165	238488.0
1199	1950	1	0.165	238488.0
1200	1939	1	0.165	238488.0
1200	1958	1	0.165	238488.0
1201	1941	1	0.165	238488.0
1201	1959	1	0.165	238488.0
1202	1960	1	0.165	238488.0
1202	1990	1	0.165	238488.0
1203	1961	1	0.165	238488.0
1203	1991	1	0.165	238488.0
1204	1962	1	0.165	238488.0
1204	1992	1	0.165	238488.0
1205	1961	1	0.165	238488.0
1205	1963	1	0.165	238488.0
1206	1962	1	0.165	238488.0
1206	1964	1	0.165	238488.0
1207	1456	1	0.165	238488.0
1207	1965	1	0.165	238488.0
1208	1958	1	0.165	238488.0
1208	1966	1	0.165	238488.0
1209	1959	1	0.165	238488.0
1209	1968	1	0.165	238488.0
1210	1958	1	0.165	238488.0
1210	1963	1	0.165	238488.0
1211	1789	1	0.165	238488.0
1211	1964	1	0.165	238488.0
1212	1959	1	0.165	238488.0
1212	1965	1	0.165	238488.0
1213	1960	1	0.165	238488.0
1213	1966	1	0.165	238488.0
1214	1961	1	0.165	238488.0
1214	1967	1	0.165	238488.0
1215	1962	1	0.165	238488.0
1215	1968	1	0.165	238488.0
1216	1957	1	0.165	238488.0
1216	1968	1	0.165	238488.0
1217	1799	1	0.165	238488.0
1217	1958	1	0.165	238488.0
1218	1959	1	0.165	238488.0
1218	1966	1	0.165	238488.0
1219	1960	1	0.165	238488.0
1219	1964	1	0.165	238488.0
1220	1961	1	0.165	238488.0
1220	1965	1	0.165	238488.0
1221	1951	1	0.165	238488.0
1221	1962	1	0.165	238488.0
1222	1951	1	0.165	238488.0
1222	1970	1	0.165	238488.0
1223	1953	1	0.165	238488.0
1223	1971	1	0.165	238488.0
1224	1972	1	0.165	238488.0
1224	2002	1	0.165	238488.0
1225	1973	1	0.165	238488.0
1225	2003	1	0.165	238488.0
1226	1974	1	0.165	238488.0
1226	2004	1	0.165	238488.0
1227	1973	1	0.165	238488.0
1227	1975	1	0.165	238488.0
1228	1974	1	0.165	238488.0
1228	1976	1	0.165	238488.0
1229	1468	1	0.165	238488.0
1229	1977	1	0.165	238488.0
1230	1970	1	0.165	238488.0
1230	1978	1	0.165	238488.0
1231	1971	1	0.165	238488.0
1231	1980	1	0.165	238488.0
1232	1970	1	0.165	238488.0
1232	1975	1	0.165	238488.0
1233	1801	1	0.165	238488.0
1233	1976	1	0.165	238488.0
1234	1971	1	0.165	238488.0
1234	1977	1	0.165	238488.0
1235	1972	1	0.165	238488.0
1235	1978	1	0.165	238488.0
1236	1973	1	0.165	238488.0
1236	1979	1	0.165	238488.0
1237	1974	1	0.165	238488.0
1237	1980	1	0.165	238488.0
1238	1969	1	0.165	238488.0
1238	1980	1	0.165	238488.0
1239	1811	1	0.165	238488.0
1239	1970	1	0.165	238488.0
1240	1971	1	0.165	238488.0
1240	1978	1	0.165	238488.0
1241	1972	1	0.165	238488.0
1241	1976	1	0.165	238488.0
1242	1973	1	0.165	238488.0
1242	1977	1	0.165	238488.0
1243	1801	1	0.165	238488.0
1243	1974	1	0.165	238488.0
1244	1963	1	0.165	238488.0
1244	1982	1	0.165	238488.0
1245	1965	1	0.165	238488.0
1245	1983	1	0.165	238488.0
1246	1984	1	0.165	238488.0
1246	2014	1	0.165	238488.0
1247	1985	1	0.165	238488.0
1247	2015	1	0.165	238488.0
1248	1986	1	0.165	238488.0
1248	2016	1	0.165	238488.0
1249	1985	1	0.165	238488.0
1249	1987	1	0.165	238488.0
1250	1986	1	0.165	238488.0
1250	1988	1	0.165	238488.0
1251	1480	1	0.165	238488.0
1251	1989	1	0.165	238488.0
1252	1982	1	0.165	238488.0
1252	1990	1	0.165	238488.0
1253	1983	1	0.165	238488.0
1253	1992	1	0.165	238488.0
1254	1982	1	0.165	238488.0
1254	1987	1	0.165	238488.0
1255	1813	1	0.165	238488.0
1255	1988	1	0.165	238488.0
1256	1983	1	0.165	238488.0
1256	1989	1	0.165	238488.0
1257	1984	1	0.165	238488.0
1257	1990	1	0.165	238488.0
1258	1985	1	0.165	238488.0
1258	1991	1	0.165	238488.0
1259	1986	1	0.165	238488.0
1259	1992	1	0.165	238488.0
1260	1981	1	0.165	238488.0
1260	1992	1	0.165	238488.0
1261	1823	1	0.165	238488.0
1261	1982	1	0.165	238488.0
1262	1983	1	0.165	238488.0
1262	1990	1	0.165	238488.0
1263	1984	1	0.165	238488.0
1263	1988	1	0.165	238488.0
1264	1985	1	0.165	238488.0
1264	1989	1	0.165	238488.0
1265	1975	1	0.165	238488.0
1265	1986	1	0.165	238488.0
1266	1975	1	0.165	238488.0
1266	1994	1	0.165	238488.0
1267	1977	1	0.165	238488.0
1267	1995	1	0.165	238488.0
1268	1858	1	0.165	238488.0
1268	1996	1	0.165	238488.0
1269	1859	1	0.165	238488.0
1269	1997	1	0.165	238488.0
1270	1860	1	0.165	238488.0
1270	1998	1	0.165	238488.0
1271	1997	1	0.165	238488.0
1271	1999	1	0.165	238488.0
1272	1998	1	0.165	238488.0
1272	2000	1	0.165	238488.0
1273	1492	1	0.165	238488.0
1273	2001	1	0.165	238488.0
1274	1994	1	0.165	238488.0
1274	2002	1	0.165	238488.0
1275	1995	1	0.165	238488.0
1275	2004	1	0.165	238488.0
1276	1994	1	0.165	238488.0
1276	1999	1	0.165	238488.0
1277	1825	1	0.165	238488.0
1277	2000	1	0.165	238488.0
1278	1995	1	0.165	238488.0
1278	2001	1	0.165	238488.0
1279	1996	1	0.165	238488.0
1279	2002	1	0.165	238488.0
1280	1997	1	0.165	238488.0
1280	2003	1	0.165	238488.0
1281	1998	1	0.165	238488.0
1281	2004	1	0.165	238488.0
1282	1993	1	0.165	238488.0
1282	2004	1	0.165	238488.0
1283	1835	1	0.165	238488.0
1283	1994	1	0.165	238488.0
1284	1995	1	0.165	238488.0
1284	2002	1	0.165	238488.0
1285	1996	1	0.165	238488.0
1285	2000	1	0.165	238488.0
1286	1997	1	0.165	238488.0
1286	2001	1	0.165	238488.0
1287	1825	1	0.165	238488.0
1287	1998	1	0.165	238488.0
1288	1987	1	0.165	238488.0
1288	2006	1	0.165	238488.0
1289	1989	1	0.165	238488.0
1289	2007	1	0.165	238488.0
1290	1870	1	0.165	238488.0
1290	2008	1	0.165	238488.0
1291	1871	1	0.165	238488.0
1291	2009	1	0.165	238488.0
1292	1872	1	0.165	238488.0
1292	2010	1	0.165	238488.0
1293	2009	1	0.165	238488.0
1293	2011	1	0.165	238488.0
1294	2010	1	0.165	238488.0
1294	2012	1	0.165	238488.0
1295	1504	1	0.165	238488.0
1295	2013	1	0.165	238488.0
1296	2006	1	0.165	238488.0
1296	2014	1	0.165	238488.0
1297	2007	1	0.165	238488.0
1297	2016	1	0.165	238488.0
1298	2006	1	0.165	238488.0
1298	2011	1	0.165	238488.0
1299	1837	1	0.165	238488.0
1299	2012	1	0.165	238488.0
1300	2007	1	0.165	238488.0
1300	2013	1	0.165	238488.0
1301	2008	1	0.165	238488.0
1301	2014	1	0.165	238488.0
1302	2009	1	0.165	238488.0
1302	2015	1	0.165	238488.0
1303	2010	1	0.165	238488.0
1303	2016	1	0.165	238488.0
1304	2005	1	0.165	238488.0
1304	2016	1	0.165	238488.0
1305	1847	1	0.165	238488.0
1305	2006	1	0.165	238488.0
1306	2007	1	0.165	238488.0
1306	2014	1	0.165	238488.0
1307	2008	1	0.165	238488.0
1307	2012	1	0.165	238488.0
1308	2009	1	0.165	238488.0
1308	2013	1	0.165	238488.0
1309	1999	1	0.165	238488.0
1309	2010	1	0.165	238488.0
1310	1496	1	0.165	238488.0
1310	1849	1	0.165	238488.0
1311	1508	1	0.165	238488.0
1311	1861	1	0.165	238488.0
1312	1859	1	0.165	238488.0
1312	1861	1	0.165	238488.0
1313	1352	1	0.165	238488.0
1313	1873	1	0.165	238488.0
1314	1364	1	0.165	238488.0
1314	1885	1	0.165	238488.0
1315	1883	1	0.165	238488.0
1315	1885	1	0.165	238488.0
1316	1376	1	0.165	238488.0
1316	1897	1	0.165	238488.0
1317	1388	1	0.165	238488.0
1317	1909	1	0.165	238488.0
1318	1907	1	0.165	238488.0
1318	1909	1	0.165	238488.0
1319	1400	1	0.165	238488.0
1319	1921	1	0.165	238488.0
1320	1412	1	0.165	238488.0
1320	1933	1	0.165	238488.0
1321	1931	1	0.165	238488.0
1321	1933	1	0.165	238488.0
1322	1424	1	0.165	238488.0
1322	1945	1	0.165	238488.0
1323	1436	1	0.165	238488.0
1323	1957	1	0.165	238488.0
1324	1955	1	0.165	238488.0
1324	1957	1	0.165	238488.0
1325	1448	1	0.165	238488.0
1325	1969	1	0.165	238488.0
1326	1460	1	0.165	238488.0
1326	1981	1	0.165	238488.0
1327	1979	1	0.165	238488.0
1327	1981	1	0.165	238488.0
1328	1472	1	0.165	238488.0
1328	1993	1	0.165	238488.0
1329	1484	1	0.165	238488.0
1329	2005	1	0.165	238488.0
1330	2003	1	0.165	238488.0
1330	2005	1	0.165	238488.0
1331	1352	1	0.165	238488.0
1331	1849	1	0.165	238488.0
1332	1364	1	0.165	238488.0
1332	1861	1	0.165	238488.0
1333	1376	1	0.165	238488.0
1333	1873	1	0.165	238488.0
1334	1388	1	0.165	238488.0
1334	1885	1	0.165	238488.0
1335	1400	1	0.165	238488.0
1335	1897	1	0.165	238488.0
1336	1412	1	0.165	238488.0
1336	1909	1	0.165	238488.0
1337	1424	1	0.165	238488.0
1337	1921	1	0.165	238488.0
1338	1436	1	0.165	238488.0
1338	1933	1	0.165	238488.0
1339	1448	1	0.165	238488.0
1339	1945	1	0.165	238488.0
1340	1460	1	0.165	238488.0
1340	1957	1	0.165	238488.0
1341	1472	1	0.165	238488.0
1341	1969	1	0.165	238488.0
1342	1484	1	0.165	238488.0
1342	1981	1	0.165	238488.0
1343	1496	1	0.165	238488.0
1343	1993	1	0.165	238488.0
1344	1508	1	0.165	238488.0
1344	2005	1	0.165	238488.0

[ angles ]
;  ai   aj   ak  funct   angle     fc
1	1346	10	1	109.5	836.8
1	1346	12	1	109.5	836.8
1	1346	18	1	109.5	836.8
1	1495	305	1	109.5	836.8
1	1495	310	1	109.5	836.8
1	1495	343	1	109.5	836.8
2	1345	17	1	109.5	836.8
2	1345	356	1	109.5	836.8
2	1345	366	1	109.5	836.8
2	1664	633	1	109.5	836.8
2	1664	638	1	109.5	836.8
2	1664	646	1	109.5	836.8
3	1347	11	1	109.5	836.8
3	1347	13	1	109.5	836.8
3	1347	19	1	109.5	836.8
3	1497	307	1	109.5	836.8
3	1497	311	1	109.5	836.8
3	1497	319	1	109.5	836.8
4	1348	14	1	109.5	836.8
4	1348	20	1	109.5	836.8
4	1348	1009	1	109.5	836.8
4	1378	83	1	109.5	836.8
4	1378	87	1	109.5	836.8
4	1378	92	1	109.5	836.8
5	1349	7	1	109.5	836.8
5	1349	15	1	109.5	836.8
5	1349	21	1	109.5	836.8
5	1379	88	1	109.5	836.8
5	1379	106	1	109.5	836.8
5	1379	409	1	109.5	836.8
6	1350	8	1	109.5	836.8
6	1350	16	1	109.5	836.8
6	1350	22	1	109.5	836.8
6	1380	84	1	109.5	836.8
6	1380	89	1	109.5	836.8
6	1380	90	1	109.5	836.8
7	1349	15	1	109.5	836.8
7	1349	21	1	109.5	836.8
7	1351	12	1	109.5	836.8
7	1351	45	1	109.5	836.8
7	1351	74	1	109.5	836.8
8	1350	16	1	109.5	836.8
8	1350	22	1	109.5	836.8
8	1352	20	1	109.5	836.8
8	1352	1313	1	109.5	836.8
8	1352	1331	1	109.5	836.8
9	1353	13	1	109.5	836.8
9	1353	21	1	109.5	836.8
9	1353	76	1	109.5	836.8
9	1516	347	1	109.5	836.8
9	1516	358	1	109.5	836.8
9	1516	364	1	109.5	836.8
10	1346	12	1	109.5	836.8
10	1346	18	1	109.5	836.8
10	1354	14	1	109.5	836.8
10	1354	19	1	109.5	836.8
10	1354	302	1	109.5	836.8
11	1347	13	1	109.5	836.8
11	1347	19	1	109.5	836.8
11	1356	16	1	109.5	836.8
11	1356	17	1	109.5	836.8
11	1356	304	1	109.5	836.8
12	1346	18	1	109.5	836.8
12	1351	45	1	109.5	836.8
12	1351	74	1	109.5	836.8
13	1347	19	1	109.5	836.8
13	1353	21	1	109.5	836.8
13	1353	76	1	109.5	836.8
14	1348	20	1	109.5	836.8
14	1348	1009	1	109.5	836.8
14	1354	19	1	109.5	836.8
14	1354	302	1	109.5	836.8
15	1349	21	1	109.5	836.8
15	1355	33	1	109.5	836.8
15	1355	303	1	109.5	836.8
15	1355	362	1	109.5	836.8
16	1350	22	1	109.5	836.8
16	1356	17	1	109.5	836.8
16	1356	304	1	109.5	836.8
17	1345	356	1	109.5	836.8
17	1345	366	1	109.5	836.8
17	1356	304	1	109.5	836.8
18	1859	1016	1	109.5	836.8
18	1859	1269	1	109.5	836.8
18	1859	1312	1	109.5	836.8
19	1354	302	1	109.5	836.8
20	1348	1009	1	109.5	836.8
20	1352	1313	1	109.5	836.8
20	1352	1331	1	109.5	836.8
21	1353	76	1	109.5	836.8
22	1849	1018	1	109.5	836.8
22	1849	1310	1	109.5	836.8
22	1849	1331	1	109.5	836.8
23	1358	32	1	109.5	836.8
23	1358	35	1	109.5	836.8
23	1358	41	1	109.5	836.8
23	1507	52	1	109.5	836.8
23	1507	327	1	109.5	836.8
23	1507	333	1	109.5	836.8
24	1357	33	1	109.5	836.8
24	1357	40	1	109.5	836.8
24	1357	380	1	109.5	836.8
24	1676	656	1	109.5	836.8
24	1676	662	1	109.5	836.8
24	1676	670	1	109.5	836.8
25	1359	34	1	109.5	836.8
25	1359	36	1	109.5	836.8
25	1359	42	1	109.5	836.8
25	1509	329	1	109.5	836.8
25	1509	334	1	109.5	836.8
25	1509	342	1	109.5	836.8
26	1360	37	1	109.5	836.8
26	1360	43	1	109.5	836.8
26	1360	1031	1	109.5	836.8
26	1390	105	1	109.5	836.8
26	1390	110	1	109.5	836.8
26	1390	115	1	109.5	836.8
27	1361	29	1	109.5	836.8
27	1361	38	1	109.5	836.8
27	1361	44	1	109.5	836.8
27	1391	53	1	109.5	836.8
27	1391	111	1	109.5	836.8
27	1391	433	1	109.5	836.8
28	1362	30	1	109.5	836.8
28	1362	39	1	109.5	836.8
28	1362	45	1	109.5	836.8
28	1392	107	1	109.5	836.8
28	1392	112	1	109.5	836.8
28	1392	113	1	109.5	836.8
29	1361	38	1	109.5	836.8
29	1361	44	1	109.5	836.8
29	1363	35	1	109.5	836.8
29	1363	46	1	109.5	836.8
29	1363	96	1	109.5	836.8
30	1362	39	1	109.5	836.8
30	1362	45	1	109.5	836.8
30	1364	43	1	109.5	836.8
30	1364	1314	1	109.5	836.8
30	1364	1332	1	109.5	836.8
31	1365	36	1	109.5	836.8
31	1365	44	1	109.5	836.8
31	1365	98	1	109.5	836.8
31	1528	370	1	109.5	836.8
31	1528	382	1	109.5	836.8
31	1528	388	1	109.5	836.8
32	1358	35	1	109.5	836.8
32	1358	41	1	109.5	836.8
32	1366	37	1	109.5	836.8
32	1366	42	1	109.5	836.8
32	1366	324	1	109.5	836.8
33	1355	303	1	109.5	836.8
33	1355	362	1	109.5	836.8
33	1357	40	1	109.5	836.8
33	1357	380	1	109.5	836.8
34	1359	36	1	109.5	836.8
34	1359	42	1	109.5	836.8
34	1368	39	1	109.5	836.8
34	1368	40	1	109.5	836.8
34	1368	326	1	109.5	836.8
35	1358	41	1	109.5	836.8
35	1363	46	1	109.5	836.8
35	1363	96	1	109.5	836.8
36	1359	42	1	109.5	836.8
36	1365	44	1	109.5	836.8
36	1365	98	1	109.5	836.8
37	1360	43	1	109.5	836.8
37	1360	1031	1	109.5	836.8
37	1366	42	1	109.5	836.8
37	1366	324	1	109.5	836.8
38	1361	44	1	109.5	836.8
38	1367	59	1	109.5	836.8
38	1367	325	1	109.5	836.8
38	1367	386	1	109.5	836.8
39	1362	45	1	109.5	836.8
39	1368	40	1	109.5	836.8
39	1368	326	1	109.5	836.8
40	1357	380	1	109.5	836.8
40	1368	326	1	109.5	836.8
41	1871	52	1	109.5	836.8
41	1871	1038	1	109.5	836.8
41	1871	1291	1	109.5	836.8
42	1366	324	1	109.5	836.8
43	1360	1031	1	109.5	836.8
43	1364	1314	1	109.5	836.8
43	1364	1332	1	109.5	836.8
44	1365	98	1	109.5	836.8
45	1351	74	1	109.5	836.8
46	1363	96	1	109.5	836.8
46	1895	114	1	109.5	836.8
46	1895	1027	1	109.5	836.8
46	1895	1082	1	109.5	836.8
47	1387	102	1	109.5	836.8
47	1387	108	1	109.5	836.8
47	1387	141	1	109.5	836.8
47	1919	159	1	109.5	836.8
47	1919	1071	1	109.5	836.8
47	1919	1126	1	109.5	836.8
48	1411	147	1	109.5	836.8
48	1411	153	1	109.5	836.8
48	1411	186	1	109.5	836.8
48	1943	204	1	109.5	836.8
48	1943	1115	1	109.5	836.8
48	1943	1170	1	109.5	836.8
49	1435	192	1	109.5	836.8
49	1435	198	1	109.5	836.8
49	1435	231	1	109.5	836.8
49	1967	249	1	109.5	836.8
49	1967	1159	1	109.5	836.8
49	1967	1214	1	109.5	836.8
50	1459	237	1	109.5	836.8
50	1459	243	1	109.5	836.8
50	1459	276	1	109.5	836.8
50	1991	294	1	109.5	836.8
50	1991	1203	1	109.5	836.8
50	1991	1258	1	109.5	836.8
51	1483	282	1	109.5	836.8
51	1483	288	1	109.5	836.8
51	1483	321	1	109.5	836.8
51	2015	339	1	109.5	836.8
51	2015	1247	1	109.5	836.8
51	2015	1302	1	109.5	836.8
52	1507	327	1	109.5	836.8
52	1507	333	1	109.5	836.8
52	1871	1038	1	109.5	836.8
52	1871	1291	1	109.5	836.8
53	1391	111	1	109.5	836.8
53	1391	433	1	109.5	836.8
53	1531	373	1	109.5	836.8
53	1531	379	1	109.5	836.8
53	1531	414	1	109.5	836.8
54	1415	100	1	109.5	836.8
54	1415	156	1	109.5	836.8
54	1415	480	1	109.5	836.8
54	1555	420	1	109.5	836.8
54	1555	426	1	109.5	836.8
54	1555	461	1	109.5	836.8
55	1439	145	1	109.5	836.8
55	1439	201	1	109.5	836.8
55	1439	527	1	109.5	836.8
55	1579	467	1	109.5	836.8
55	1579	473	1	109.5	836.8
55	1579	508	1	109.5	836.8
56	1463	190	1	109.5	836.8
56	1463	246	1	109.5	836.8
56	1463	574	1	109.5	836.8
56	1603	514	1	109.5	836.8
56	1603	520	1	109.5	836.8
56	1603	555	1	109.5	836.8
57	1487	235	1	109.5	836.8
57	1487	291	1	109.5	836.8
57	1487	621	1	109.5	836.8
57	1627	561	1	109.5	836.8
57	1627	567	1	109.5	836.8
57	1627	602	1	109.5	836.8
58	1511	280	1	109.5	836.8
58	1511	336	1	109.5	836.8
58	1511	668	1	109.5	836.8
58	1651	608	1	109.5	836.8
58	1651	614	1	109.5	836.8
58	1651	649	1	109.5	836.8
59	1367	325	1	109.5	836.8
59	1367	386	1	109.5	836.8
59	1675	367	1	109.5	836.8
59	1675	655	1	109.5	836.8
59	1675	661	1	109.5	836.8
60	1559	371	1	109.5	836.8
60	1559	430	1	109.5	836.8
60	1559	762	1	109.5	836.8
60	1699	702	1	109.5	836.8
60	1699	708	1	109.5	836.8
60	1699	743	1	109.5	836.8
61	1583	418	1	109.5	836.8
61	1583	477	1	109.5	836.8
61	1583	809	1	109.5	836.8
61	1723	749	1	109.5	836.8
61	1723	755	1	109.5	836.8
61	1723	790	1	109.5	836.8
62	1607	465	1	109.5	836.8
62	1607	524	1	109.5	836.8
62	1607	856	1	109.5	836.8
62	1747	796	1	109.5	836.8
62	1747	802	1	109.5	836.8
62	1747	837	1	109.5	836.8
63	1631	512	1	109.5	836.8
63	1631	571	1	109.5	836.8
63	1631	903	1	109.5	836.8
63	1771	843	1	109.5	836.8
63	1771	849	1	109.5	836.8
63	1771	884	1	109.5	836.8
64	1655	559	1	109.5	836.8
64	1655	618	1	109.5	836.8
64	1655	950	1	109.5	836.8
64	1795	890	1	109.5	836.8
64	1795	896	1	109.5	836.8
64	1795	931	1	109.5	836.8
65	1679	606	1	109.5	836.8
65	1679	665	1	109.5	836.8
65	1679	997	1	109.5	836.8
65	1819	937	1	109.5	836.8
65	1819	943	1	109.5	836.8
65	1819	978	1	109.5	836.8
66	1535	383	1	109.5	836.8
66	1535	653	1	109.5	836.8
66	1535	715	1	109.5	836.8
66	1843	696	1	109.5	836.8
66	1843	984	1	109.5	836.8
66	1843	990	1	109.5	836.8
67	1727	700	1	109.5	836.8
67	1727	759	1	109.5	836.8
67	1727	1085	1	109.5	836.8
67	1867	1029	1	109.5	836.8
67	1867	1034	1	109.5	836.8
67	1867	1068	1	109.5	836.8
68	1751	747	1	109.5	836.8
68	1751	806	1	109.5	836.8
68	1751	1129	1	109.5	836.8
68	1891	1073	1	109.5	836.8
68	1891	1078	1	109.5	836.8
68	1891	1112	1	109.5	836.8
69	1775	794	1	109.5	836.8
69	1775	853	1	109.5	836.8
69	1775	1173	1	109.5	836.8
69	1915	1117	1	109.5	836.8
69	1915	1122	1	109.5	836.8
69	1915	1156	1	109.5	836.8
70	1799	841	1	109.5	836.8
70	1799	900	1	109.5	836.8
70	1799	1217	1	109.5	836.8
70	1939	1161	1	109.5	836.8
70	1939	1166	1	109.5	836.8
70	1939	1200	1	109.5	836.8
71	1823	888	1	109.5	836.8
71	1823	947	1	109.5	836.8
71	1823	1261	1	109.5	836.8
71	1963	1205	1	109.5	836.8
71	1963	1210	1	109.5	836.8
71	1963	1244	1	109.5	836.8
72	1847	935	1	109.5	836.8
72	1847	994	1	109.5	836.8
72	1847	1305	1	109.5	836.8
72	1987	1249	1	109.5	836.8
72	1987	1254	1	109.5	836.8
72	1987	1288	1	109.5	836.8
73	1703	712	1	109.5	836.8
73	1703	982	1	109.5	836.8
73	1703	1041	1	109.5	836.8
73	2011	1024	1	109.5	836.8
73	2011	1293	1	109.5	836.8
73	2011	1298	1	109.5	836.8
74	1370	83	1	109.5	836.8
74	1370	85	1	109.5	836.8
74	1370	91	1	109.5	836.8
75	1369	90	1	109.5	836.8
75	1369	403	1	109.5	836.8
75	1369	413	1	109.5	836.8
75	1520	351	1	109.5	836.8
75	1520	356	1	109.5	836.8
75	1520	364	1	109.5	836.8
76	1371	84	1	109.5	836.8
76	1371	86	1	109.5	836.8
76	1371	92	1	109.5	836.8
77	1372	87	1	109.5	836.8
77	1372	93	1	109.5	836.8
77	1372	1053	1	109.5	836.8
77	1402	128	1	109.5	836.8
77	1402	132	1	109.5	836.8
77	1402	137	1	109.5	836.8
78	1373	80	1	109.5	836.8
78	1373	88	1	109.5	836.8
78	1373	94	1	109.5	836.8
78	1403	133	1	109.5	836.8
78	1403	151	1	109.5	836.8
78	1403	456	1	109.5	836.8
79	1374	81	1	109.5	836.8
79	1374	89	1	109.5	836.8
79	1374	95	1	109.5	836.8
79	1404	129	1	109.5	836.8
79	1404	134	1	109.5	836.8
79	1404	135	1	109.5	836.8
80	1373	88	1	109.5	836.8
80	1373	94	1	109.5	836.8
80	1375	85	1	109.5	836.8
80	1375	118	1	109.5	836.8
80	1375	119	1	109.5	836.8
81	1374	89	1	109.5	836.8
81	1374	95	1	109.5	836.8
81	1376	93	1	109.5	836.8
81	1376	1316	1	109.5	836.8
81	1376	1333	1	109.5	836.8
82	1377	86	1	109.5	836.8
82	1377	94	1	109.5	836.8
82	1377	121	1	109.5	836.8
82	1540	394	1	109.5	836.8
82	1540	405	1	109.5	836.8
82	1540	411	1	109.5	836.8
83	1370	85	1	109.5	836.8
83	1370	91	1	109.5	836.8
83	1378	87	1	109.5	836.8
83	1378	92	1	109.5	836.8
84	1371	86	1	109.5	836.8
84	1371	92	1	109.5	836.8
84	1380	89	1	109.5	836.8
84	1380	90	1	109.5	836.8
85	1370	91	1	109.5	836.8
85	1375	118	1	109.5	836.8
85	1375	119	1	109.5	836.8
86	1371	92	1	109.5	836.8
86	1377	94	1	109.5	836.8
86	1377	121	1	109.5	836.8
87	1372	93	1	109.5	836.8
87	1372	1053	1	109.5	836.8
87	1378	92	1	109.5	836.8
88	1373	94	1	109.5	836.8
88	1379	106	1	109.5	836.8
88	1379	409	1	109.5	836.8
89	1374	95	1	109.5	836.8
89	1380	90	1	109.5	836.8
90	1369	403	1	109.5	836.8
90	1369	413	1	109.5	836.8
91	1883	1005	1	109.5	836.8
91	1883	1060	1	109.5	836.8
91	1883	1315	1	109.5	836.8
93	1372	1053	1	109.5	836.8
93	1376	1316	1	109.5	836.8
93	1376	1333	1	109.5	836.8
94	1377	121	1	109.5	836.8
95	1873	1062	1	109.5	836.8
95	1873	1313	1	109.5	836.8
95	1873	1333	1	109.5	836.8
96	1382	105	1	109.5	836.8
96	1382	108	1	109.5	836.8
96	1382	114	1	109.5	836.8
97	1381	106	1	109.5	836.8
97	1381	113	1	109.5	836.8
97	1381	427	1	109.5	836.8
97	1532	374	1	109.5	836.8
97	1532	380	1	109.5	836.8
97	1532	388	1	109.5	836.8
98	1383	107	1	109.5	836.8
98	1383	109	1	109.5	836.8
98	1383	115	1	109.5	836.8
99	1384	110	1	109.5	836.8
99	1384	116	1	109.5	836.8
99	1384	1075	1	109.5	836.8
99	1414	150	1	109.5	836.8
99	1414	155	1	109.5	836.8
99	1414	160	1	109.5	836.8
100	1385	102	1	109.5	836.8
100	1385	111	1	109.5	836.8
100	1385	117	1	109.5	836.8
100	1415	156	1	109.5	836.8
100	1415	480	1	109.5	836.8
101	1386	103	1	109.5	836.8
101	1386	112	1	109.5	836.8
101	1386	118	1	109.5	836.8
101	1416	152	1	109.5	836.8
101	1416	157	1	109.5	836.8
101	1416	158	1	109.5	836.8
102	1385	111	1	109.5	836.8
102	1385	117	1	109.5	836.8
102	1387	108	1	109.5	836.8
102	1387	141	1	109.5	836.8
103	1386	112	1	109.5	836.8
103	1386	118	1	109.5	836.8
103	1388	116	1	109.5	836.8
103	1388	1317	1	109.5	836.8
103	1388	1334	1	109.5	836.8
104	1389	109	1	109.5	836.8
104	1389	117	1	109.5	836.8
104	1389	143	1	109.5	836.8
104	1552	417	1	109.5	836.8
104	1552	429	1	109.5	836.8
104	1552	435	1	109.5	836.8
105	1382	108	1	109.5	836.8
105	1382	114	1	109.5	836.8
105	1390	110	1	109.5	836.8
105	1390	115	1	109.5	836.8
106	1379	409	1	109.5	836.8
106	1381	113	1	109.5	836.8
106	1381	427	1	109.5	836.8
107	1383	109	1	109.5	836.8
107	1383	115	1	109.5	836.8
107	1392	112	1	109.5	836.8
107	1392	113	1	109.5	836.8
108	1382	114	1	109.5	836.8
108	1387	141	1	109.5	836.8
109	1383	115	1	109.5	836.8
109	1389	117	1	109.5	836.8
109	1389	143	1	109.5	836.8
110	1384	116	1	109.5	836.8
110	1384	1075	1	109.5	836.8
110	1390	115	1	109.5	836.8
111	1385	117	1	109.5	836.8
111	1391	433	1	109.5	836.8
112	1386	118	1	109.5	836.8
112	1392	113	1	109.5	836.8
113	1381	427	1	109.5	836.8
114	1895	1027	1	109.5	836.8
114	1895	1082	1	109.5	836.8
116	1384	1075	1	109.5	836.8
116	1388	1317	1	109.5	836.8
116	1388	1334	1	109.5	836.8
117	1389	143	1	109.5	836.8
118	1375	119	1	109.5	836.8
119	1394	128	1	109.5	836.8
119	1394	130	1	109.5	836.8
119	1394	136	1	109.5	836.8
120	1393	135	1	109.5	836.8
120	1393	450	1	109.5	836.8
120	1393	460	1	109.5	836.8
120	1544	398	1	109.5	836.8
120	1544	403	1	109.5	836.8
120	1544	411	1	109.5	836.8
121	1395	129	1	109.5	836.8
121	1395	131	1	109.5	836.8
121	1395	137	1	109.5	836.8
122	1396	132	1	109.5	836.8
122	1396	138	1	109.5	836.8
122	1396	1097	1	109.5	836.8
122	1426	173	1	109.5	836.8
122	1426	177	1	109.5	836.8
122	1426	182	1	109.5	836.8
123	1397	125	1	109.5	836.8
123	1397	133	1	109.5	836.8
123	1397	139	1	109.5	836.8
123	1427	178	1	109.5	836.8
123	1427	196	1	109.5	836.8
123	1427	503	1	109.5	836.8
124	1398	126	1	109.5	836.8
124	1398	134	1	109.5	836.8
124	1398	140	1	109.5	836.8
124	1428	174	1	109.5	836.8
124	1428	179	1	109.5	836.8
124	1428	180	1	109.5	836.8
125	1397	133	1	109.5	836.8
125	1397	139	1	109.5	836.8
125	1399	130	1	109.5	836.8
125	1399	163	1	109.5	836.8
125	1399	164	1	109.5	836.8
126	1398	134	1	109.5	836.8
126	1398	140	1	109.5	836.8
126	1400	138	1	109.5	836.8
126	1400	1319	1	109.5	836.8
126	1400	1335	1	109.5	836.8
127	1401	131	1	109.5	836.8
127	1401	139	1	109.5	836.8
127	1401	166	1	109.5	836.8
127	1564	441	1	109.5	836.8
127	1564	452	1	109.5	836.8
127	1564	458	1	109.5	836.8
128	1394	130	1	109.5	836.8
128	1394	136	1	109.5	836.8
128	1402	132	1	109.5	836.8
128	1402	137	1	109.5	836.8
129	1395	131	1	109.5	836.8
129	1395	137	1	109.5	836.8
129	1404	134	1	109.5	836.8
129	1404	135	1	109.5	836.8
130	1394	136	1	109.5	836.8
130	1399	163	1	109.5	836.8
130	1399	164	1	109.5	836.8
131	1395	137	1	109.5	836.8
131	1401	139	1	109.5	836.8
131	1401	166	1	109.5	836.8
132	1396	138	1	109.5	836.8
132	1396	1097	1	109.5	836.8
132	1402	137	1	109.5	836.8
133	1397	139	1	109.5	836.8
133	1403	151	1	109.5	836.8
133	1403	456	1	109.5	836.8
134	1398	140	1	109.5	836.8
134	1404	135	1	109.5	836.8
135	1393	450	1	109.5	836.8
135	1393	460	1	109.5	836.8
136	1907	1049	1	109.5	836.8
136	1907	1104	1	109.5	836.8
136	1907	1318	1	109.5	836.8
138	1396	1097	1	109.5	836.8
138	1400	1319	1	109.5	836.8
138	1400	1335	1	109.5	836.8
139	1401	166	1	109.5	836.8
140	1897	1106	1	109.5	836.8
140	1897	1316	1	109.5	836.8
140	1897	1335	1	109.5	836.8
141	1406	150	1	109.5	836.8
141	1406	153	1	109.5	836.8
141	1406	159	1	109.5	836.8
142	1405	151	1	109.5	836.8
142	1405	158	1	109.5	836.8
142	1405	474	1	109.5	836.8
142	1556	421	1	109.5	836.8
142	1556	427	1	109.5	836.8
142	1556	435	1	109.5	836.8
143	1407	152	1	109.5	836.8
143	1407	154	1	109.5	836.8
143	1407	160	1	109.5	836.8
144	1408	155	1	109.5	836.8
144	1408	161	1	109.5	836.8
144	1408	1119	1	109.5	836.8
144	1438	195	1	109.5	836.8
144	1438	200	1	109.5	836.8
144	1438	205	1	109.5	836.8
145	1409	147	1	109.5	836.8
145	1409	156	1	109.5	836.8
145	1409	162	1	109.5	836.8
145	1439	201	1	109.5	836.8
145	1439	527	1	109.5	836.8
146	1410	148	1	109.5	836.8
146	1410	157	1	109.5	836.8
146	1410	163	1	109.5	836.8
146	1440	197	1	109.5	836.8
146	1440	202	1	109.5	836.8
146	1440	203	1	109.5	836.8
147	1409	156	1	109.5	836.8
147	1409	162	1	109.5	836.8
147	1411	153	1	109.5	836.8
147	1411	186	1	109.5	836.8
148	1410	157	1	109.5	836.8
148	1410	163	1	109.5	836.8
148	1412	161	1	109.5	836.8
148	1412	1320	1	109.5	836.8
148	1412	1336	1	109.5	836.8
149	1413	154	1	109.5	836.8
149	1413	162	1	109.5	836.8
149	1413	188	1	109.5	836.8
149	1576	464	1	109.5	836.8
149	1576	476	1	109.5	836.8
149	1576	482	1	109.5	836.8
150	1406	153	1	109.5	836.8
150	1406	159	1	109.5	836.8
150	1414	155	1	109.5	836.8
150	1414	160	1	109.5	836.8
151	1403	456	1	109.5	836.8
151	1405	158	1	109.5	836.8
151	1405	474	1	109.5	836.8
152	1407	154	1	109.5	836.8
152	1407	160	1	109.5	836.8
152	1416	157	1	109.5	836.8
152	1416	158	1	109.5	836.8
153	1406	159	1	109.5	836.8
153	1411	186	1	109.5	836.8
154	1407	160	1	109.5	836.8
154	1413	162	1	109.5	836.8
154	1413	188	1	109.5	836.8
155	1408	161	1	109.5	836.8
155	1408	1119	1	109.5	836.8
155	1414	160	1	109.5	836.8
156	1409	162	1	109.5	836.8
156	1415	480	1	109.5	836.8
157	1410	163	1	109.5	836.8
157	1416	158	1	109.5	836.8
158	1405	474	1	109.5	836.8
159	1919	1071	1	109.5	836.8
159	1919	1126	1	109.5	836.8
161	1408	1119	1	109.5	836.8
161	1412	1320	1	109.5	836.8
161	1412	1336	1	109.5	836.8
162	1413	188	1	109.5	836.8
163	1399	164	1	109.5	836.8
164	1418	173	1	109.5	836.8
164	1418	175	1	109.5	836.8
164	1418	181	1	109.5	836.8
165	1417	180	1	109.5	836.8
165	1417	497	1	109.5	836.8
165	1417	507	1	109.5	836.8
165	1568	445	1	109.5	836.8
165	1568	450	1	109.5	836.8
165	1568	458	1	109.5	836.8
166	1419	174	1	109.5	836.8
166	1419	176	1	109.5	836.8
166	1419	182	1	109.5	836.8
167	1420	177	1	109.5	836.8
167	1420	183	1	109.5	836.8
167	1420	1141	1	109.5	836.8
167	1450	218	1	109.5	836.8
167	1450	222	1	109.5	836.8
167	1450	227	1	109.5	836.8
168	1421	170	1	109.5	836.8
168	1421	178	1	109.5	836.8
168	1421	184	1	109.5	836.8
168	1451	223	1	109.5	836.8
168	1451	241	1	109.5	836.8
168	1451	550	1	109.5	836.8
169	1422	171	1	109.5	836.8
169	1422	179	1	109.5	836.8
169	1422	185	1	109.5	836.8
169	1452	219	1	109.5	836.8
169	1452	224	1	109.5	836.8
169	1452	225	1	109.5	836.8
170	1421	178	1	109.5	836.8
170	1421	184	1	109.5	836.8
170	1423	175	1	109.5	836.8
170	1423	208	1	109.5	836.8
170	1423	209	1	109.5	836.8
171	1422	179	1	109.5	836.8
171	1422	185	1	109.5	836.8
171	1424	183	1	109.5	836.8
171	1424	1322	1	109.5	836.8
171	1424	1337	1	109.5	836.8
172	1425	176	1	109.5	836.8
172	1425	184	1	109.5	836.8
172	1425	211	1	109.5	836.8
172	1588	488	1	109.5	836.8
172	1588	499	1	109.5	836.8
172	1588	505	1	109.5	836.8
173	1418	175	1	109.5	836.8
173	1418	181	1	109.5	836.8
173	1426	177	1	109.5	836.8
173	1426	182	1	109.5	836.8
174	1419	176	1	109.5	836.8
174	1419	182	1	109.5	836.8
174	1428	179	1	109.5	836.8
174	1428	180	1	109.5	836.8
175	1418	181	1	109.5	836.8
175	1423	208	1	109.5	836.8
175	1423	209	1	109.5	836.8
176	1419	182	1	109.5	836.8
176	1425	184	1	109.5	836.8
176	1425	211	1	109.5	836.8
177	1420	183	1	109.5	836.8
177	1420	1141	1	109.5	836.8
177	1426	182	1	109.5	836.8
178	1421	184	1	109.5	836.8
178	1427	196	1	109.5	836.8
178	1427	503	1	109.5	836.8
179	1422	185	1	109.5	836.8
179	1428	180	1	109.5	836.8
180	1417	497	1	109.5	836.8
180	1417	507	1	109.5	836.8
181	1931	1093	1	109.5	836.8
181	1931	1148	1	109.5	836.8
181	1931	1321	1	109.5	836.8
183	1420	1141	1	109.5	836.8
183	1424	1322	1	109.5	836.8
183	1424	1337	1	109.5	836.8
184	1425	211	1	109.5	836.8
185	1921	1150	1	109.5	836.8
185	1921	1319	1	109.5	836.8
185	1921	1337	1	109.5	836.8
186	1430	195	1	109.5	836.8
186	1430	198	1	109.5	836.8
186	1430	204	1	109.5	836.8
187	1429	196	1	109.5	836.8
187	1429	203	1	109.5	836.8
187	1429	521	1	109.5	836.8
187	1580	468	1	109.5	836.8
187	1580	474	1	109.5	836.8
187	1580	482	1	109.5	836.8
188	1431	197	1	109.5	836.8
188	1431	199	1	109.5	836.8
188	1431	205	1	109.5	836.8
189	1432	200	1	109.5	836.8
189	1432	206	1	109.5	836.8
189	1432	1163	1	109.5	836.8
189	1462	240	1	109.5	836.8
189	1462	245	1	109.5	836.8
189	1462	250	1	109.5	836.8
190	1433	192	1	109.5	836.8
190	1433	201	1	109.5	836.8
190	1433	207	1	109.5	836.8
190	1463	246	1	109.5	836.8
190	1463	574	1	109.5	836.8
191	1434	193	1	109.5	836.8
191	1434	202	1	109.5	836.8
191	1434	208	1	109.5	836.8
191	1464	242	1	109.5	836.8
191	1464	247	1	109.5	836.8
191	1464	248	1	109.5	836.8
192	1433	201	1	109.5	836.8
192	1433	207	1	109.5	836.8
192	1435	198	1	109.5	836.8
192	1435	231	1	109.5	836.8
193	1434	202	1	109.5	836.8
193	1434	208	1	109.5	836.8
193	1436	206	1	109.5	836.8
193	1436	1323	1	109.5	836.8
193	1436	1338	1	109.5	836.8
194	1437	199	1	109.5	836.8
194	1437	207	1	109.5	836.8
194	1437	233	1	109.5	836.8
194	1600	511	1	109.5	836.8
194	1600	523	1	109.5	836.8
194	1600	529	1	109.5	836.8
195	1430	198	1	109.5	836.8
195	1430	204	1	109.5	836.8
195	1438	200	1	109.5	836.8
195	1438	205	1	109.5	836.8
196	1427	503	1	109.5	836.8
196	1429	203	1	109.5	836.8
196	1429	521	1	109.5	836.8
197	1431	199	1	109.5	836.8
197	1431	205	1	109.5	836.8
197	1440	202	1	109.5	836.8
197	1440	203	1	109.5	836.8
198	1430	204	1	109.5	836.8
198	1435	231	1	109.5	836.8
199	1431	205	1	109.5	836.8
199	1437	207	1	109.5	836.8
199	1437	233	1	109.5	836.8
200	1432	206	1	109.5	836.8
200	1432	1163	1	109.5	836.8
200	1438	205	1	109.5	836.8
201	1433	207	1	109.5	836.8
201	1439	527	1	109.5	836.8
202	1434	208	1	109.5	836.8
202	1440	203	1	109.5	836.8
203	1429	521	1	109.5	836.8
204	1943	1115	1	109.5	836.8
204	1943	1170	1	109.5	836.8
206	1432	1163	1	109.5	836.8
206	1436	1323	1	109.5	836.8
206	1436	1338	1	109.5	836.8
207	1437	233	1	109.5	836.8
208	1423	209	1	109.5	836.8
209	1442	218	1	109.5	836.8
209	1442	220	1	109.5	836.8
209	1442	226	1	109.5	836.8
210	1441	225	1	109.5	836.8
210	1441	544	1	109.5	836.8
210	1441	554	1	109.5	836.8
210	1592	492	1	109.5	836.8
210	1592	497	1	109.5	836.8
210	1592	505	1	109.5	836.8
211	1443	219	1	109.5	836.8
211	1443	221	1	109.5	836.8
211	1443	227	1	109.5	836.8
212	1444	222	1	109.5	836.8
212	1444	228	1	109.5	836.8
212	1444	1185	1	109.5	836.8
212	1474	263	1	109.5	836.8
212	1474	267	1	109.5	836.8
212	1474	272	1	109.5	836.8
213	1445	215	1	109.5	836.8
213	1445	223	1	109.5	836.8
213	1445	229	1	109.5	836.8
213	1475	268	1	109.5	836.8
213	1475	286	1	109.5	836.8
213	1475	597	1	109.5	836.8
214	1446	216	1	109.5	836.8
214	1446	224	1	109.5	836.8
214	1446	230	1	109.5	836.8
214	1476	264	1	109.5	836.8
214	1476	269	1	109.5	836.8
214	1476	270	1	109.5	836.8
215	1445	223	1	109.5	836.8
215	1445	229	1	109.5	836.8
215	1447	220	1	109.5	836.8
215	1447	253	1	109.5	836.8
215	1447	254	1	109.5	836.8
216	1446	224	1	109.5	836.8
216	1446	230	1	109.5	836.8
216	1448	228	1	109.5	836.8
216	1448	1325	1	109.5	836.8
216	1448	1339	1	109.5	836.8
217	1449	221	1	109.5	836.8
217	1449	229	1	109.5	836.8
217	1449	256	1	109.5	836.8
217	1612	535	1	109.5	836.8
217	1612	546	1	109.5	836.8
217	1612	552	1	109.5	836.8
218	1442	220	1	109.5	836.8
218	1442	226	1	109.5	836.8
218	1450	222	1	109.5	836.8
218	1450	227	1	109.5	836.8
219	1443	221	1	109.5	836.8
219	1443	227	1	109.5	836.8
219	1452	224	1	109.5	836.8
219	1452	225	1	109.5	836.8
220	1442	226	1	109.5	836.8
220	1447	253	1	109.5	836.8
220	1447	254	1	109.5	836.8
221	1443	227	1	109.5	836.8
221	1449	229	1	109.5	836.8
221	1449	256	1	109.5	836.8
222	1444	228	1	109.5	836.8
222	1444	1185	1	109.5	836.8
222	1450	227	1	109.5	836.8
223	1445	229	1	109.5	836.8
223	1451	241	1	109.5	836.8
223	1451	550	1	109.5	836.8
224	1446	230	1	109.5	836.8
224	1452	225	1	109.5	836.8
225	1441	544	1	109.5	836.8
225	1441	554	1	109.5	836.8
226	1955	1137	1	109.5	836.8
226	1955	1192	1	109.5	836.8
226	1955	1324	1	109.5	836.8
228	1444	1185	1	109.5	836.8
228	1448	1325	1	109.5	836.8
228	1448	1339	1	109.5	836.8
229	1449	256	1	109.5	836.8
230	1945	1194	1	109.5	836.8
230	1945	1322	1	109.5	836.8
230	1945	1339	1	109.5	836.8
231	1454	240	1	109.5	836.8
231	1454	243	1	109.5	836.8
231	1454	249	1	109.5	836.8
232	1453	241	1	109.5	836.8
232	1453	248	1	109.5	836.8
232	1453	568	1	109.5	836.8
232	1604	515	1	109.5	836.8
232	1604	521	1	109.5	836.8
232	1604	529	1	109.5	836.8
233	1455	242	1	109.5	836.8
233	1455	244	1	109.5	836.8
233	1455	250	1	109.5	836.8
234	1456	245	1	109.5	836.8
234	1456	251	1	109.5	836.8
234	1456	1207	1	109.5	836.8
234	1486	285	1	109.5	836.8
234	1486	290	1	109.5	836.8
234	1486	295	1	109.5	836.8
235	1457	237	1	109.5	836.8
235	1457	246	1	109.5	836.8
235	1457	252	1	109.5	836.8
235	1487	291	1	109.5	836.8
235	1487	621	1	109.5	836.8
236	1458	238	1	109.5	836.8
236	1458	247	1	109.5	836.8
236	1458	253	1	109.5	836.8
236	1488	287	1	109.5	836.8
236	1488	292	1	109.5	836.8
236	1488	293	1	109.5	836.8
237	1457	246	1	109.5	836.8
237	1457	252	1	109.5	836.8
237	1459	243	1	109.5	836.8
237	1459	276	1	109.5	836.8
238	1458	247	1	109.5	836.8
238	1458	253	1	109.5	836.8
238	1460	251	1	109.5	836.8
238	1460	1326	1	109.5	836.8
238	1460	1340	1	109.5	836.8
239	1461	244	1	109.5	836.8
239	1461	252	1	109.5	836.8
239	1461	278	1	109.5	836.8
239	1624	558	1	109.5	836.8
239	1624	570	1	109.5	836.8
239	1624	576	1	109.5	836.8
240	1454	243	1	109.5	836.8
240	1454	249	1	109.5	836.8
240	1462	245	1	109.5	836.8
240	1462	250	1	109.5	836.8
241	1451	550	1	109.5	836.8
241	1453	248	1	109.5	836.8
241	1453	568	1	109.5	836.8
242	1455	244	1	109.5	836.8
242	1455	250	1	109.5	836.8
242	1464	247	1	109.5	836.8
242	1464	248	1	109.5	836.8
243	1454	249	1	109.5	836.8
243	1459	276	1	109.5	836.8
244	1455	250	1	109.5	836.8
244	1461	252	1	109.5	836.8
244	1461	278	1	109.5	836.8
245	1456	251	1	109.5	836.8
245	1456	1207	1	109.5	836.8
245	1462	250	1	109.5	836.8
246	1457	252	1	109.5	836.8
246	1463	574	1	109.5	836.8
247	1458	253	1	109.5	836.8
247	1464	248	1	109.5	836.8
248	1453	568	1	109.5	836.8
249	1967	1159	1	109.5	836.8
249	1967	1214	1	109.5	836.8
251	1456	1207	1	109.5	836.8
251	1460	1326	1	109.5	836.8
251	1460	1340	1	109.5	836.8
252	1461	278	1	109.5	836.8
253	1447	254	1	109.5	836.8
254	1466	263	1	109.5	836.8
254	1466	265	1	109.5	836.8
254	1466	271	1	109.5	836.8
255	1465	270	1	109.5	836.8
255	1465	591	1	109.5	836.8
255	1465	601	1	109.5	836.8
255	1616	539	1	109.5	836.8
255	1616	544	1	109.5	836.8
255	1616	552	1	109.5	836.8
256	1467	264	1	109.5	836.8
256	1467	266	1	109.5	836.8
256	1467	272	1	109.5	836.8
257	1468	267	1	109.5	836.8
257	1468	273	1	109.5	836.8
257	1468	1229	1	109.5	836.8
257	1498	308	1	109.5	836.8
257	1498	312	1	109.5	836.8
257	1498	317	1	109.5	836.8
258	1469	260	1	109.5	836.8
258	1469	268	1	109.5	836.8
258	1469	274	1	109.5	836.8
258	1499	313	1	109.5	836.8
258	1499	331	1	109.5	836.8
258	1499	644	1	109.5	836.8
259	1470	261	1	109.5	836.8
259	1470	269	1	109.5	836.8
259	1470	275	1	109.5	836.8
259	1500	309	1	109.5	836.8
259	1500	314	1	109.5	836.8
259	1500	315	1	109.5	836.8
260	1469	268	1	109.5	836.8
260	1469	274	1	109.5	836.8
260	1471	265	1	109.5	836.8
260	1471	298	1	109.5	836.8
260	1471	299	1	109.5	836.8
261	1470	269	1	109.5	836.8
261	1470	275	1	109.5	836.8
261	1472	273	1	109.5	836.8
261	1472	1328	1	109.5	836.8
261	1472	1341	1	109.5	836.8
262	1473	266	1	109.5	836.8
262	1473	274	1	109.5	836.8
262	1473	301	1	109.5	836.8
262	1636	582	1	109.5	836.8
262	1636	593	1	109.5	836.8
262	1636	599	1	109.5	836.8
263	1466	265	1	109.5	836.8
263	1466	271	1	109.5	836.8
263	1474	267	1	109.5	836.8
263	1474	272	1	109.5	836.8
264	1467	266	1	109.5	836.8
264	1467	272	1	109.5	836.8
264	1476	269	1	109.5	836.8
264	1476	270	1	109.5	836.8
265	1466	271	1	109.5	836.8
265	1471	298	1	109.5	836.8
265	1471	299	1	109.5	836.8
266	1467	272	1	109.5	836.8
266	1473	274	1	109.5	836.8
266	1473	301	1	109.5	836.8
267	1468	273	1	109.5	836.8
267	1468	1229	1	109.5	836.8
267	1474	272	1	109.5	836.8
268	1469	274	1	109.5	836.8
268	1475	286	1	109.5	836.8
268	1475	597	1	109.5	836.8
269	1470	275	1	109.5	836.8
269	1476	270	1	109.5	836.8
270	1465	591	1	109.5	836.8
270	1465	601	1	109.5	836.8
271	1979	1181	1	109.5	836.8
271	1979	1236	1	109.5	836.8
271	1979	1327	1	109.5	836.8
273	1468	1229	1	109.5	836.8
273	1472	1328	1	109.5	836.8
273	1472	1341	1	109.5	836.8
274	1473	301	1	109.5	836.8
275	1969	1238	1	109.5	836.8
275	1969	1325	1	109.5	836.8
275	1969	1341	1	109.5	836.8
276	1478	285	1	109.5	836.8
276	1478	288	1	109.5	836.8
276	1478	294	1	109.5	836.8
277	1477	286	1	109.5	836.8
277	1477	293	1	109.5	836.8
277	1477	615	1	109.5	836.8
277	1628	562	1	109.5	836.8
277	1628	568	1	109.5	836.8
277	1628	576	1	109.5	836.8
278	1479	287	1	109.5	836.8
278	1479	289	1	109.5	836.8
278	1479	295	1	109.5	836.8
279	1480	290	1	109.5	836.8
279	1480	296	1	109.5	836.8
279	1480	1251	1	109.5	836.8
279	1510	330	1	109.5	836.8
279	1510	335	1	109.5	836.8
279	1510	340	1	109.5	836.8
280	1481	282	1	109.5	836.8
280	1481	291	1	109.5	836.8
280	1481	297	1	109.5	836.8
280	1511	336	1	109.5	836.8
280	1511	668	1	109.5	836.8
281	1482	283	1	109.5	836.8
281	1482	292	1	109.5	836.8
281	1482	298	1	109.5	836.8
281	1512	332	1	109.5	836.8
281	1512	337	1	109.5	836.8
281	1512	338	1	109.5	836.8
282	1481	291	1	109.5	836.8
282	1481	297	1	109.5	836.8
282	1483	288	1	109.5	836.8
282	1483	321	1	109.5	836.8
283	1482	292	1	109.5	836.8
283	1482	298	1	109.5	836.8
283	1484	296	1	109.5	836.8
283	1484	1329	1	109.5	836.8
283	1484	1342	1	109.5	836.8
284	1485	289	1	109.5	836.8
284	1485	297	1	109.5	836.8
284	1485	323	1	109.5	836.8
284	1648	605	1	109.5	836.8
284	1648	617	1	109.5	836.8
284	1648	623	1	109.5	836.8
285	1478	288	1	109.5	836.8
285	1478	294	1	109.5	836.8
285	1486	290	1	109.5	836.8
285	1486	295	1	109.5	836.8
286	1475	597	1	109.5	836.8
286	1477	293	1	109.5	836.8
286	1477	615	1	109.5	836.8
287	1479	289	1	109.5	836.8
287	1479	295	1	109.5	836.8
287	1488	292	1	109.5	836.8
287	1488	293	1	109.5	836.8
288	1478	294	1	109.5	836.8
288	1483	321	1	109.5	836.8
289	1479	295	1	109.5	836.8
289	1485	297	1	109.5	836.8
289	1485	323	1	109.5	836.8
290	1480	296	1	109.5	836.8
290	1480	1251	1	109.5	836.8
290	1486	295	1	109.5	836.8
291	1481	297	1	109.5	836.8
291	1487	621	1	109.5	836.8
292	1482	298	1	109.5	836.8
292	1488	293	1	109.5	836.8
293	1477	615	1	109.5	836.8
294	1991	1203	1	109.5	836.8
294	1991	1258	1	109.5	836.8
296	1480	1251	1	109.5	836.8
296	1484	1329	1	109.5	836.8
296	1484	1342	1	109.5	836.8
297	1485	323	1	109.5	836.8
298	1471	299	1	109.5	836.8
299	1490	308	1	109.5	836.8
299	1490	310	1	109.5	836.8
299	1490	316	1	109.5	836.8
300	1489	315	1	109.5	836.8
300	1489	638	1	109.5	836.8
300	1489	648	1	109.5	836.8
300	1640	586	1	109.5	836.8
300	1640	591	1	109.5	836.8
300	1640	599	1	109.5	836.8
301	1491	309	1	109.5	836.8
301	1491	311	1	109.5	836.8
301	1491	317	1	109.5	836.8
302	1492	312	1	109.5	836.8
302	1492	318	1	109.5	836.8
302	1492	1273	1	109.5	836.8
303	1355	362	1	109.5	836.8
303	1493	305	1	109.5	836.8
303	1493	313	1	109.5	836.8
303	1493	319	1	109.5	836.8
304	1494	306	1	109.5	836.8
304	1494	314	1	109.5	836.8
304	1494	320	1	109.5	836.8
305	1493	313	1	109.5	836.8
305	1493	319	1	109.5	836.8
305	1495	310	1	109.5	836.8
305	1495	343	1	109.5	836.8
306	1494	314	1	109.5	836.8
306	1494	320	1	109.5	836.8
306	1496	318	1	109.5	836.8
306	1496	1310	1	109.5	836.8
306	1496	1343	1	109.5	836.8
307	1497	311	1	109.5	836.8
307	1497	319	1	109.5	836.8
307	1660	629	1	109.5	836.8
307	1660	640	1	109.5	836.8
307	1660	646	1	109.5	836.8
308	1490	310	1	109.5	836.8
308	1490	316	1	109.5	836.8
308	1498	312	1	109.5	836.8
308	1498	317	1	109.5	836.8
309	1491	311	1	109.5	836.8
309	1491	317	1	109.5	836.8
309	1500	314	1	109.5	836.8
309	1500	315	1	109.5	836.8
310	1490	316	1	109.5	836.8
310	1495	343	1	109.5	836.8
311	1491	317	1	109.5	836.8
311	1497	319	1	109.5	836.8
312	1492	318	1	109.5	836.8
312	1492	1273	1	109.5	836.8
312	1498	317	1	109.5	836.8
313	1493	319	1	109.5	836.8
313	1499	331	1	109.5	836.8
313	1499	644	1	109.5	836.8
314	1494	320	1	109.5	836.8
314	1500	315	1	109.5	836.8
315	1489	638	1	109.5	836.8
315	1489	648	1	109.5	836.8
316	2003	1225	1	109.5	836.8
316	2003	1280	1	109.5	836.8
316	2003	1330	1	109.5	836.8
318	1492	1273	1	109.5	836.8
318	1496	1310	1	109.5	836.8
318	1496	1343	1	109.5	836.8
320	1993	1282	1	109.5	836.8
320	1993	1328	1	109.5	836.8
320	1993	1343	1	109.5	836.8
321	1502	330	1	109.5	836.8
321	1502	333	1	109.5	836.8
321	1502	339	1	109.5	836.8
322	1501	331	1	109.5	836.8
322	1501	338	1	109.5	836.8
322	1501	662	1	109.5	836.8
322	1652	609	1	109.5	836.8
322	1652	615	1	109.5	836.8
322	1652	623	1	109.5	836.8
323	1503	332	1	109.5	836.8
323	1503	334	1	109.5	836.8
323	1503	340	1	109.5	836.8
324	1504	335	1	109.5	836.8
324	1504	341	1	109.5	836.8
324	1504	1295	1	109.5	836.8
325	1367	386	1	109.5	836.8
325	1505	327	1	109.5	836.8
325	1505	336	1	109.5	836.8
325	1505	342	1	109.5	836.8
326	1506	328	1	109.5	836.8
326	1506	337	1	109.5	836.8
326	1506	343	1	109.5	836.8
327	1505	336	1	109.5	836.8
327	1505	342	1	109.5	836.8
327	1507	333	1	109.5	836.8
328	1506	337	1	109.5	836.8
328	1506	343	1	109.5	836.8
328	1508	341	1	109.5	836.8
328	1508	1311	1	109.5	836.8
328	1508	1344	1	109.5	836.8
329	1509	334	1	109.5	836.8
329	1509	342	1	109.5	836.8
329	1672	652	1	109.5	836.8
329	1672	664	1	109.5	836.8
329	1672	670	1	109.5	836.8
330	1502	333	1	109.5	836.8
330	1502	339	1	109.5	836.8
330	1510	335	1	109.5	836.8
330	1510	340	1	109.5	836.8
331	1499	644	1	109.5	836.8
331	1501	338	1	109.5	836.8
331	1501	662	1	109.5	836.8
332	1503	334	1	109.5	836.8
332	1503	340	1	109.5	836.8
332	1512	337	1	109.5	836.8
332	1512	338	1	109.5	836.8
333	1502	339	1	109.5	836.8
334	1503	340	1	109.5	836.8
334	1509	342	1	109.5	836.8
335	1504	341	1	109.5	836.8
335	1504	1295	1	109.5	836.8
335	1510	340	1	109.5	836.8
336	1505	342	1	109.5	836.8
336	1511	668	1	109.5	836.8
337	1506	343	1	109.5	836.8
337	1512	338	1	109.5	836.8
338	1501	662	1	109.5	836.8
339	2015	1247	1	109.5	836.8
339	2015	1302	1	109.5	836.8
341	1504	1295	1	109.5	836.8
341	1508	1311	1	109.5	836.8
341	1508	1344	1	109.5	836.8
344	1514	353	1	109.5	836.8
344	1514	355	1	109.5	836.8
344	1514	362	1	109.5	836.8
344	1663	632	1	109.5	836.8
344	1663	637	1	109.5	836.8
344	1663	672	1	109.5	836.8
345	1513	361	1	109.5	836.8
345	1513	685	1	109.5	836.8
345	1513	695	1	109.5	836.8
345	1832	962	1	109.5	836.8
345	1832	967	1	109.5	836.8
345	1832	975	1	109.5	836.8
346	1515	354	1	109.5	836.8
346	1515	357	1	109.5	836.8
346	1515	363	1	109.5	836.8
346	1665	634	1	109.5	836.8
346	1665	639	1	109.5	836.8
346	1665	647	1	109.5	836.8
347	1516	358	1	109.5	836.8
347	1516	364	1	109.5	836.8
347	1546	400	1	109.5	836.8
347	1546	405	1	109.5	836.8
347	1546	410	1	109.5	836.8
348	1517	350	1	109.5	836.8
348	1517	359	1	109.5	836.8
348	1517	365	1	109.5	836.8
348	1547	406	1	109.5	836.8
348	1547	424	1	109.5	836.8
348	1547	738	1	109.5	836.8
349	1518	351	1	109.5	836.8
349	1518	360	1	109.5	836.8
349	1518	366	1	109.5	836.8
349	1548	401	1	109.5	836.8
349	1548	407	1	109.5	836.8
349	1548	408	1	109.5	836.8
350	1517	359	1	109.5	836.8
350	1517	365	1	109.5	836.8
350	1519	355	1	109.5	836.8
350	1519	390	1	109.5	836.8
350	1519	391	1	109.5	836.8
351	1518	360	1	109.5	836.8
351	1518	366	1	109.5	836.8
351	1520	356	1	109.5	836.8
351	1520	364	1	109.5	836.8
352	1521	357	1	109.5	836.8
352	1521	365	1	109.5	836.8
352	1521	393	1	109.5	836.8
352	1684	676	1	109.5	836.8
352	1684	687	1	109.5	836.8
352	1684	693	1	109.5	836.8
353	1514	355	1	109.5	836.8
353	1514	362	1	109.5	836.8
353	1522	358	1	109.5	836.8
353	1522	363	1	109.5	836.8
353	1522	629	1	109.5	836.8
354	1515	357	1	109.5	836.8
354	1515	363	1	109.5	836.8
354	1524	360	1	109.5	836.8
354	1524	361	1	109.5	836.8
354	1524	631	1	109.5	836.8
355	1514	362	1	109.5	836.8
355	1519	390	1	109.5	836.8
355	1519	391	1	109.5	836.8
356	1345	366	1	109.5	836.8
356	1520	364	1	109.5	836.8
357	1515	363	1	109.5	836.8
357	1521	365	1	109.5	836.8
357	1521	393	1	109.5	836.8
358	1516	364	1	109.5	836.8
358	1522	363	1	109.5	836.8
358	1522	629	1	109.5	836.8
359	1517	365	1	109.5	836.8
359	1523	377	1	109.5	836.8
359	1523	630	1	109.5	836.8
359	1523	691	1	109.5	836.8
360	1518	366	1	109.5	836.8
360	1524	361	1	109.5	836.8
360	1524	631	1	109.5	836.8
361	1513	685	1	109.5	836.8
361	1513	695	1	109.5	836.8
361	1524	631	1	109.5	836.8
363	1522	629	1	109.5	836.8
365	1521	393	1	109.5	836.8
367	1526	376	1	109.5	836.8
367	1526	379	1	109.5	836.8
367	1526	386	1	109.5	836.8
367	1675	655	1	109.5	836.8
367	1675	661	1	109.5	836.8
368	1525	377	1	109.5	836.8
368	1525	385	1	109.5	836.8
368	1525	709	1	109.5	836.8
368	1844	985	1	109.5	836.8
368	1844	991	1	109.5	836.8
368	1844	999	1	109.5	836.8
369	1527	378	1	109.5	836.8
369	1527	381	1	109.5	836.8
369	1527	387	1	109.5	836.8
369	1677	657	1	109.5	836.8
369	1677	663	1	109.5	836.8
369	1677	671	1	109.5	836.8
370	1528	382	1	109.5	836.8
370	1528	388	1	109.5	836.8
370	1558	423	1	109.5	836.8
370	1558	429	1	109.5	836.8
370	1558	434	1	109.5	836.8
371	1529	373	1	109.5	836.8
371	1529	383	1	109.5	836.8
371	1529	389	1	109.5	836.8
371	1559	430	1	109.5	836.8
371	1559	762	1	109.5	836.8
372	1530	374	1	109.5	836.8
372	1530	384	1	109.5	836.8
372	1530	390	1	109.5	836.8
372	1560	425	1	109.5	836.8
372	1560	431	1	109.5	836.8
372	1560	432	1	109.5	836.8
373	1529	383	1	109.5	836.8
373	1529	389	1	109.5	836.8
373	1531	379	1	109.5	836.8
373	1531	414	1	109.5	836.8
374	1530	384	1	109.5	836.8
374	1530	390	1	109.5	836.8
374	1532	380	1	109.5	836.8
374	1532	388	1	109.5	836.8
375	1533	381	1	109.5	836.8
375	1533	389	1	109.5	836.8
375	1533	416	1	109.5	836.8
375	1696	699	1	109.5	836.8
375	1696	711	1	109.5	836.8
375	1696	717	1	109.5	836.8
376	1526	379	1	109.5	836.8
376	1526	386	1	109.5	836.8
376	1534	382	1	109.5	836.8
376	1534	387	1	109.5	836.8
376	1534	652	1	109.5	836.8
377	1523	630	1	109.5	836.8
377	1523	691	1	109.5	836.8
377	1525	385	1	109.5	836.8
377	1525	709	1	109.5	836.8
378	1527	381	1	109.5	836.8
378	1527	387	1	109.5	836.8
378	1536	384	1	109.5	836.8
378	1536	385	1	109.5	836.8
378	1536	654	1	109.5	836.8
379	1526	386	1	109.5	836.8
379	1531	414	1	109.5	836.8
380	1532	388	1	109.5	836.8
381	1527	387	1	109.5	836.8
381	1533	389	1	109.5	836.8
381	1533	416	1	109.5	836.8
382	1528	388	1	109.5	836.8
382	1534	387	1	109.5	836.8
382	1534	652	1	109.5	836.8
383	1529	389	1	109.5	836.8
383	1535	653	1	109.5	836.8
383	1535	715	1	109.5	836.8
384	1530	390	1	109.5	836.8
384	1536	385	1	109.5	836.8
384	1536	654	1	109.5	836.8
385	1525	709	1	109.5	836.8
385	1536	654	1	109.5	836.8
387	1534	652	1	109.5	836.8
389	1533	416	1	109.5	836.8
390	1519	391	1	109.5	836.8
391	1538	400	1	109.5	836.8
391	1538	402	1	109.5	836.8
391	1538	409	1	109.5	836.8
392	1537	408	1	109.5	836.8
392	1537	732	1	109.5	836.8
392	1537	742	1	109.5	836.8
392	1688	680	1	109.5	836.8
392	1688	685	1	109.5	836.8
392	1688	693	1	109.5	836.8
393	1539	401	1	109.5	836.8
393	1539	404	1	109.5	836.8
393	1539	410	1	109.5	836.8
394	1540	405	1	109.5	836.8
394	1540	411	1	109.5	836.8
394	1570	447	1	109.5	836.8
394	1570	452	1	109.5	836.8
394	1570	457	1	109.5	836.8
395	1541	397	1	109.5	836.8
395	1541	406	1	109.5	836.8
395	1541	412	1	109.5	836.8
395	1571	453	1	109.5	836.8
395	1571	471	1	109.5	836.8
395	1571	785	1	109.5	836.8
396	1542	398	1	109.5	836.8
396	1542	407	1	109.5	836.8
396	1542	413	1	109.5	836.8
396	1572	448	1	109.5	836.8
396	1572	454	1	109.5	836.8
396	1572	455	1	109.5	836.8
397	1541	406	1	109.5	836.8
397	1541	412	1	109.5	836.8
397	1543	402	1	109.5	836.8
397	1543	437	1	109.5	836.8
397	1543	438	1	109.5	836.8
398	1542	407	1	109.5	836.8
398	1542	413	1	109.5	836.8
398	1544	403	1	109.5	836.8
398	1544	411	1	109.5	836.8
399	1545	404	1	109.5	836.8
399	1545	412	1	109.5	836.8
399	1545	440	1	109.5	836.8
399	1708	723	1	109.5	836.8
399	1708	734	1	109.5	836.8
399	1708	740	1	109.5	836.8
400	1538	402	1	109.5	836.8
400	1538	409	1	109.5	836.8
400	1546	405	1	109.5	836.8
400	1546	410	1	109.5	836.8
401	1539	404	1	109.5	836.8
401	1539	410	1	109.5	836.8
401	1548	407	1	109.5	836.8
401	1548	408	1	109.5	836.8
402	1538	409	1	109.5	836.8
402	1543	437	1	109.5	836.8
402	1543	438	1	109.5	836.8
403	1369	413	1	109.5	836.8
403	1544	411	1	109.5	836.8
404	1539	410	1	109.5	836.8
404	1545	412	1	109.5	836.8
404	1545	440	1	109.5	836.8
405	1540	411	1	109.5	836.8
405	1546	410	1	109.5	836.8
406	1541	412	1	109.5	836.8
406	1547	424	1	109.5	836.8
406	1547	738	1	109.5	836.8
407	1542	413	1	109.5	836.8
407	1548	408	1	109.5	836.8
408	1537	732	1	109.5	836.8
408	1537	742	1	109.5	836.8
412	1545	440	1	109.5	836.8
414	1550	423	1	109.5	836.8
414	1550	426	1	109.5	836.8
414	1550	433	1	109.5	836.8
415	1549	424	1	109.5	836.8
415	1549	432	1	109.5	836.8
415	1549	756	1	109.5	836.8
415	1700	703	1	109.5	836.8
415	1700	709	1	109.5	836.8
415	1700	717	1	109.5	836.8
416	1551	425	1	109.5	836.8
416	1551	428	1	109.5	836.8
416	1551	434	1	109.5	836.8
417	1552	429	1	109.5	836.8
417	1552	435	1	109.5	836.8
417	1582	470	1	109.5	836.8
417	1582	476	1	109.5	836.8
417	1582	481	1	109.5	836.8
418	1553	420	1	109.5	836.8
418	1553	430	1	109.5	836.8
418	1553	436	1	109.5	836.8
418	1583	477	1	109.5	836.8
418	1583	809	1	109.5	836.8
419	1554	421	1	109.5	836.8
419	1554	431	1	109.5	836.8
419	1554	437	1	109.5	836.8
419	1584	472	1	109.5	836.8
419	1584	478	1	109.5	836.8
419	1584	479	1	109.5	836.8
420	1553	430	1	109.5	836.8
420	1553	436	1	109.5	836.8
420	1555	426	1	109.5	836.8
420	1555	461	1	109.5	836.8
421	1554	431	1	109.5	836.8
421	1554	437	1	109.5	836.8
421	1556	427	1	109.5	836.8
421	1556	435	1	109.5	836.8
422	1557	428	1	109.5	836.8
422	1557	436	1	109.5	836.8
422	1557	463	1	109.5	836.8
422	1720	746	1	109.5	836.8
422	1720	758	1	109.5	836.8
422	1720	764	1	109.5	836.8
423	1550	426	1	109.5	836.8
423	1550	433	1	109.5	836.8
423	1558	429	1	109.5	836.8
423	1558	434	1	109.5	836.8
424	1547	738	1	109.5	836.8
424	1549	432	1	109.5	836.8
424	1549	756	1	109.5	836.8
425	1551	428	1	109.5	836.8
425	1551	434	1	109.5	836.8
425	1560	431	1	109.5	836.8
425	1560	432	1	109.5	836.8
426	1550	433	1	109.5	836.8
426	1555	461	1	109.5	836.8
427	1556	435	1	109.5	836.8
428	1551	434	1	109.5	836.8
428	1557	436	1	109.5	836.8
428	1557	463	1	109.5	836.8
429	1552	435	1	109.5	836.8
429	1558	434	1	109.5	836.8
430	1553	436	1	109.5	836.8
430	1559	762	1	109.5	836.8
431	1554	437	1	109.5	836.8
431	1560	432	1	109.5	836.8
432	1549	756	1	109.5	836.8
436	1557	463	1	109.5	836.8
437	1543	438	1	109.5	836.8
438	1562	447	1	109.5	836.8
438	1562	449	1	109.5	836.8
438	1562	456	1	109.5	836.8
439	1561	455	1	109.5	836.8
439	1561	779	1	109.5	836.8
439	1561	789	1	109.5	836.8
439	1712	727	1	109.5	836.8
439	1712	732	1	109.5	836.8
439	1712	740	1	109.5	836.8
440	1563	448	1	109.5	836.8
440	1563	451	1	109.5	836.8
440	1563	457	1	109.5	836.8
441	1564	452	1	109.5	836.8
441	1564	458	1	109.5	836.8
441	1594	494	1	109.5	836.8
441	1594	499	1	109.5	836.8
441	1594	504	1	109.5	836.8
442	1565	444	1	109.5	836.8
442	1565	453	1	109.5	836.8
442	1565	459	1	109.5	836.8
442	1595	500	1	109.5	836.8
442	1595	518	1	109.5	836.8
442	1595	832	1	109.5	836.8
443	1566	445	1	109.5	836.8
443	1566	454	1	109.5	836.8
443	1566	460	1	109.5	836.8
443	1596	495	1	109.5	836.8
443	1596	501	1	109.5	836.8
443	1596	502	1	109.5	836.8
444	1565	453	1	109.5	836.8
444	1565	459	1	109.5	836.8
444	1567	449	1	109.5	836.8
444	1567	484	1	109.5	836.8
444	1567	485	1	109.5	836.8
445	1566	454	1	109.5	836.8
445	1566	460	1	109.5	836.8
445	1568	450	1	109.5	836.8
445	1568	458	1	109.5	836.8
446	1569	451	1	109.5	836.8
446	1569	459	1	109.5	836.8
446	1569	487	1	109.5	836.8
446	1732	770	1	109.5	836.8
446	1732	781	1	109.5	836.8
446	1732	787	1	109.5	836.8
447	1562	449	1	109.5	836.8
447	1562	456	1	109.5	836.8
447	1570	452	1	109.5	836.8
447	1570	457	1	109.5	836.8
448	1563	451	1	109.5	836.8
448	1563	457	1	109.5	836.8
448	1572	454	1	109.5	836.8
448	1572	455	1	109.5	836.8
449	1562	456	1	109.5	836.8
449	1567	484	1	109.5	836.8
449	1567	485	1	109.5	836.8
450	1393	460	1	109.5	836.8
450	1568	458	1	109.5	836.8
451	1563	457	1	109.5	836.8
451	1569	459	1	109.5	836.8
451	1569	487	1	109.5	836.8
452	1564	458	1	109.5	836.8
452	1570	457	1	109.5	836.8
453	1565	459	1	109.5	836.8
453	1571	471	1	109.5	836.8
453	1571	785	1	109.5	836.8
454	1566	460	1	109.5	836.8
454	1572	455	1	109.5	836.8
455	1561	779	1	109.5	836.8
455	1561	789	1	109.5	836.8
459	1569	487	1	109.5	836.8
461	1574	470	1	109.5	836.8
461	1574	473	1	109.5	836.8
461	1574	480	1	109.5	836.8
462	1573	471	1	109.5	836.8
462	1573	479	1	109.5	836.8
462	1573	803	1	109.5	836.8
462	1724	750	1	109.5	836.8
462	1724	756	1	109.5	836.8
462	1724	764	1	109.5	836.8
463	1575	472	1	109.5	836.8
463	1575	475	1	109.5	836.8
463	1575	481	1	109.5	836.8
464	1576	476	1	109.5	836.8
464	1576	482	1	109.5	836.8
464	1606	517	1	109.5	836.8
464	1606	523	1	109.5	836.8
464	1606	528	1	109.5	836.8
465	1577	467	1	109.5	836.8
465	1577	477	1	109.5	836.8
465	1577	483	1	109.5	836.8
465	1607	524	1	109.5	836.8
465	1607	856	1	109.5	836.8
466	1578	468	1	109.5	836.8
466	1578	478	1	109.5	836.8
466	1578	484	1	109.5	836.8
466	1608	519	1	109.5	836.8
466	1608	525	1	109.5	836.8
466	1608	526	1	109.5	836.8
467	1577	477	1	109.5	836.8
467	1577	483	1	109.5	836.8
467	1579	473	1	109.5	836.8
467	1579	508	1	109.5	836.8
468	1578	478	1	109.5	836.8
468	1578	484	1	109.5	836.8
468	1580	474	1	109.5	836.8
468	1580	482	1	109.5	836.8
469	1581	475	1	109.5	836.8
469	1581	483	1	109.5	836.8
469	1581	510	1	109.5	836.8
469	1744	793	1	109.5	836.8
469	1744	805	1	109.5	836.8
469	1744	811	1	109.5	836.8
470	1574	473	1	109.5	836.8
470	1574	480	1	109.5	836.8
470	1582	476	1	109.5	836.8
470	1582	481	1	109.5	836.8
471	1571	785	1	109.5	836.8
471	1573	479	1	109.5	836.8
471	1573	803	1	109.5	836.8
472	1575	475	1	109.5	836.8
472	1575	481	1	109.5	836.8
472	1584	478	1	109.5	836.8
472	1584	479	1	109.5	836.8
473	1574	480	1	109.5	836.8
473	1579	508	1	109.5	836.8
474	1580	482	1	109.5	836.8
475	1575	481	1	109.5	836.8
475	1581	483	1	109.5	836.8
475	1581	510	1	109.5	836.8
476	1576	482	1	109.5	836.8
476	1582	481	1	109.5	836.8
477	1577	483	1	109.5	836.8
477	1583	809	1	109.5	836.8
478	1578	484	1	109.5	836.8
478	1584	479	1	109.5	836.8
479	1573	803	1	109.5	836.8
483	1581	510	1	109.5	836.8
484	1567	485	1	109.5	836.8
485	1586	494	1	109.5	836.8
485	1586	496	1	109.5	836.8
485	1586	503	1	109.5	836.8
486	1585	502	1	109.5	836.8
486	1585	826	1	109.5	836.8
486	1585	836	1	109.5	836.8
486	1736	774	1	109.5	836.8
486	1736	779	1	109.5	836.8
486	1736	787	1	109.5	836.8
487	1587	495	1	109.5	836.8
487	1587	498	1	109.5	836.8
487	1587	504	1	109.5	836.8
488	1588	499	1	109.5	836.8
488	1588	505	1	109.5	836.8
488	1618	541	1	109.5	836.8
488	1618	546	1	109.5	836.8
488	1618	551	1	109.5	836.8
489	1589	491	1	109.5	836.8
489	1589	500	1	109.5	836.8
489	1589	506	1	109.5	836.8
489	1619	547	1	109.5	836.8
489	1619	565	1	109.5	836.8
489	1619	879	1	109.5	836.8
490	1590	492	1	109.5	836.8
490	1590	501	1	109.5	836.8
490	1590	507	1	109.5	836.8
490	1620	542	1	109.5	836.8
490	1620	548	1	109.5	836.8
490	1620	549	1	109.5	836.8
491	1589	500	1	109.5	836.8
491	1589	506	1	109.5	836.8
491	1591	496	1	109.5	836.8
491	1591	531	1	109.5	836.8
491	1591	532	1	109.5	836.8
492	1590	501	1	109.5	836.8
492	1590	507	1	109.5	836.8
492	1592	497	1	109.5	836.8
492	1592	505	1	109.5	836.8
493	1593	498	1	109.5	836.8
493	1593	506	1	109.5	836.8
493	1593	534	1	109.5	836.8
493	1756	817	1	109.5	836.8
493	1756	828	1	109.5	836.8
493	1756	834	1	109.5	836.8
494	1586	496	1	109.5	836.8
494	1586	503	1	109.5	836.8
494	1594	499	1	109.5	836.8
494	1594	504	1	109.5	836.8
495	1587	498	1	109.5	836.8
495	1587	504	1	109.5	836.8
495	1596	501	1	109.5	836.8
495	1596	502	1	109.5	836.8
496	1586	503	1	109.5	836.8
496	1591	531	1	109.5	836.8
496	1591	532	1	109.5	836.8
497	1417	507	1	109.5	836.8
497	1592	505	1	109.5	836.8
498	1587	504	1	109.5	836.8
498	1593	506	1	109.5	836.8
498	1593	534	1	109.5	836.8
499	1588	505	1	109.5	836.8
499	1594	504	1	109.5	836.8
500	1589	506	1	109.5	836.8
500	1595	518	1	109.5	836.8
500	1595	832	1	109.5	836.8
501	1590	507	1	109.5	836.8
501	1596	502	1	109.5	836.8
502	1585	826	1	109.5	836.8
502	1585	836	1	109.5	836.8
506	1593	534	1	109.5	836.8
508	1598	517	1	109.5	836.8
508	1598	520	1	109.5	836.8
508	1598	527	1	109.5	836.8
509	1597	518	1	109.5	836.8
509	1597	526	1	109.5	836.8
509	1597	850	1	109.5	836.8
509	1748	797	1	109.5	836.8
509	1748	803	1	109.5	836.8
509	1748	811	1	109.5	836.8
510	1599	519	1	109.5	836.8
510	1599	522	1	109.5	836.8
510	1599	528	1	109.5	836.8
511	1600	523	1	109.5	836.8
511	1600	529	1	109.5	836.8
511	1630	564	1	109.5	836.8
511	1630	570	1	109.5	836.8
511	1630	575	1	109.5	836.8
512	1601	514	1	109.5	836.8
512	1601	524	1	109.5	836.8
512	1601	530	1	109.5	836.8
512	1631	571	1	109.5	836.8
512	1631	903	1	109.5	836.8
513	1602	515	1	109.5	836.8
513	1602	525	1	109.5	836.8
513	1602	531	1	109.5	836.8
513	1632	566	1	109.5	836.8
513	1632	572	1	109.5	836.8
513	1632	573	1	109.5	836.8
514	1601	524	1	109.5	836.8
514	1601	530	1	109.5	836.8
514	1603	520	1	109.5	836.8
514	1603	555	1	109.5	836.8
515	1602	525	1	109.5	836.8
515	1602	531	1	109.5	836.8
515	1604	521	1	109.5	836.8
515	1604	529	1	109.5	836.8
516	1605	522	1	109.5	836.8
516	1605	530	1	109.5	836.8
516	1605	557	1	109.5	836.8
516	1768	840	1	109.5	836.8
516	1768	852	1	109.5	836.8
516	1768	858	1	109.5	836.8
517	1598	520	1	109.5	836.8
517	1598	527	1	109.5	836.8
517	1606	523	1	109.5	836.8
517	1606	528	1	109.5	836.8
518	1595	832	1	109.5	836.8
518	1597	526	1	109.5	836.8
518	1597	850	1	109.5	836.8
519	1599	522	1	109.5	836.8
519	1599	528	1	109.5	836.8
519	1608	525	1	109.5	836.8
519	1608	526	1	109.5	836.8
520	1598	527	1	109.5	836.8
520	1603	555	1	109.5	836.8
521	1604	529	1	109.5	836.8
522	1599	528	1	109.5	836.8
522	1605	530	1	109.5	836.8
522	1605	557	1	109.5	836.8
523	1600	529	1	109.5	836.8
523	1606	528	1	109.5	836.8
524	1601	530	1	109.5	836.8
524	1607	856	1	109.5	836.8
525	1602	531	1	109.5	836.8
525	1608	526	1	109.5	836.8
526	1597	850	1	109.5	836.8
530	1605	557	1	109.5	836.8
531	1591	532	1	109.5	836.8
532	1610	541	1	109.5	836.8
532	1610	543	1	109.5	836.8
532	1610	550	1	109.5	836.8
533	1609	549	1	109.5	836.8
533	1609	873	1	109.5	836.8
533	1609	883	1	109.5	836.8
533	1760	821	1	109.5	836.8
533	1760	826	1	109.5	836.8
533	1760	834	1	109.5	836.8
534	1611	542	1	109.5	836.8
534	1611	545	1	109.5	836.8
534	1611	551	1	109.5	836.8
535	1612	546	1	109.5	836.8
535	1612	552	1	109.5	836.8
535	1642	588	1	109.5	836.8
535	1642	593	1	109.5	836.8
535	1642	598	1	109.5	836.8
536	1613	538	1	109.5	836.8
536	1613	547	1	109.5	836.8
536	1613	553	1	109.5	836.8
536	1643	594	1	109.5	836.8
536	1643	612	1	109.5	836.8
536	1643	926	1	109.5	836.8
537	1614	539	1	109.5	836.8
537	1614	548	1	109.5	836.8
537	1614	554	1	109.5	836.8
537	1644	589	1	109.5	836.8
537	1644	595	1	109.5	836.8
537	1644	596	1	109.5	836.8
538	1613	547	1	109.5	836.8
538	1613	553	1	109.5	836.8
538	1615	543	1	109.5	836.8
538	1615	578	1	109.5	836.8
538	1615	579	1	109.5	836.8
539	1614	548	1	109.5	836.8
539	1614	554	1	109.5	836.8
539	1616	544	1	109.5	836.8
539	1616	552	1	109.5	836.8
540	1617	545	1	109.5	836.8
540	1617	553	1	109.5	836.8
540	1617	581	1	109.5	836.8
540	1780	864	1	109.5	836.8
540	1780	875	1	109.5	836.8
540	1780	881	1	109.5	836.8
541	1610	543	1	109.5	836.8
541	1610	550	1	109.5	836.8
541	1618	546	1	109.5	836.8
541	1618	551	1	109.5	836.8
542	1611	545	1	109.5	836.8
542	1611	551	1	109.5	836.8
542	1620	548	1	109.5	836.8
542	1620	549	1	109.5	836.8
543	1610	550	1	109.5	836.8
543	1615	578	1	109.5	836.8
543	1615	579	1	109.5	836.8
544	1441	554	1	109.5	836.8
544	1616	552	1	109.5	836.8
545	1611	551	1	109.5	836.8
545	1617	553	1	109.5	836.8
545	1617	581	1	109.5	836.8
546	1612	552	1	109.5	836.8
546	1618	551	1	109.5	836.8
547	1613	553	1	109.5	836.8
547	1619	565	1	109.5	836.8
547	1619	879	1	109.5	836.8
548	1614	554	1	109.5	836.8
548	1620	549	1	109.5	836.8
549	1609	873	1	109.5	836.8
549	1609	883	1	109.5	836.8
553	1617	581	1	109.5	836.8
555	1622	564	1	109.5	836.8
555	1622	567	1	109.5	836.8
555	1622	574	1	109.5	836.8
556	1621	565	1	109.5	836.8
556	1621	573	1	109.5	836.8
556	1621	897	1	109.5	836.8
556	1772	844	1	109.5	836.8
556	1772	850	1	109.5	836.8
556	1772	858	1	109.5	836.8
557	1623	566	1	109.5	836.8
557	1623	569	1	109.5	836.8
557	1623	575	1	109.5	836.8
558	1624	570	1	109.5	836.8
558	1624	576	1	109.5	836.8
558	1654	611	1	109.5	836.8
558	1654	617	1	109.5	836.8
558	1654	622	1	109.5	836.8
559	1625	561	1	109.5	836.8
559	1625	571	1	109.5	836.8
559	1625	577	1	109.5	836.8
559	1655	618	1	109.5	836.8
559	1655	950	1	109.5	836.8
560	1626	562	1	109.5	836.8
560	1626	572	1	109.5	836.8
560	1626	578	1	109.5	836.8
560	1656	613	1	109.5	836.8
560	1656	619	1	109.5	836.8
560	1656	620	1	109.5	836.8
561	1625	571	1	109.5	836.8
561	1625	577	1	109.5	836.8
561	1627	567	1	109.5	836.8
561	1627	602	1	109.5	836.8
562	1626	572	1	109.5	836.8
562	1626	578	1	109.5	836.8
562	1628	568	1	109.5	836.8
562	1628	576	1	109.5	836.8
563	1629	569	1	109.5	836.8
563	1629	577	1	109.5	836.8
563	1629	604	1	109.5	836.8
563	1792	887	1	109.5	836.8
563	1792	899	1	109.5	836.8
563	1792	905	1	109.5	836.8
564	1622	567	1	109.5	836.8
564	1622	574	1	109.5	836.8
564	1630	570	1	109.5	836.8
564	1630	575	1	109.5	836.8
565	1619	879	1	109.5	836.8
565	1621	573	1	109.5	836.8
565	1621	897	1	109.5	836.8
566	1623	569	1	109.5	836.8
566	1623	575	1	109.5	836.8
566	1632	572	1	109.5	836.8
566	1632	573	1	109.5	836.8
567	1622	574	1	109.5	836.8
567	1627	602	1	109.5	836.8
568	1628	576	1	109.5	836.8
569	1623	575	1	109.5	836.8
569	1629	577	1	109.5	836.8
569	1629	604	1	109.5	836.8
570	1624	576	1	109.5	836.8
570	1630	575	1	109.5	836.8
571	1625	577	1	109.5	836.8
571	1631	903	1	109.5	836.8
572	1626	578	1	109.5	836.8
572	1632	573	1	109.5	836.8
573	1621	897	1	109.5	836.8
577	1629	604	1	109.5	836.8
578	1615	579	1	109.5	836.8
579	1634	588	1	109.5	836.8
579	1634	590	1	109.5	836.8
579	1634	597	1	109.5	836.8
580	1633	596	1	109.5	836.8
580	1633	920	1	109.5	836.8
580	1633	930	1	109.5	836.8
580	1784	868	1	109.5	836.8
580	1784	873	1	109.5	836.8
580	1784	881	1	109.5	836.8
581	1635	589	1	109.5	836.8
581	1635	592	1	109.5	836.8
581	1635	598	1	109.5	836.8
582	1636	593	1	109.5	836.8
582	1636	599	1	109.5	836.8
582	1666	635	1	109.5	836.8
582	1666	640	1	109.5	836.8
582	1666	645	1	109.5	836.8
583	1637	585	1	109.5	836.8
583	1637	594	1	109.5	836.8
583	1637	600	1	109.5	836.8
583	1667	641	1	109.5	836.8
583	1667	659	1	109.5	836.8
583	1667	973	1	109.5	836.8
584	1638	586	1	109.5	836.8
584	1638	595	1	109.5	836.8
584	1638	601	1	109.5	836.8
584	1668	636	1	109.5	836.8
584	1668	642	1	109.5	836.8
584	1668	643	1	109.5	836.8
585	1637	594	1	109.5	836.8
585	1637	600	1	109.5	836.8
585	1639	590	1	109.5	836.8
585	1639	625	1	109.5	836.8
585	1639	626	1	109.5	836.8
586	1638	595	1	109.5	836.8
586	1638	601	1	109.5	836.8
586	1640	591	1	109.5	836.8
586	1640	599	1	109.5	836.8
587	1641	592	1	109.5	836.8
587	1641	600	1	109.5	836.8
587	1641	628	1	109.5	836.8
587	1804	911	1	109.5	836.8
587	1804	922	1	109.5	836.8
587	1804	928	1	109.5	836.8
588	1634	590	1	109.5	836.8
588	1634	597	1	109.5	836.8
588	1642	593	1	109.5	836.8
588	1642	598	1	109.5	836.8
589	1635	592	1	109.5	836.8
589	1635	598	1	109.5	836.8
589	1644	595	1	109.5	836.8
589	1644	596	1	109.5	836.8
590	1634	597	1	109.5	836.8
590	1639	625	1	109.5	836.8
590	1639	626	1	109.5	836.8
591	1465	601	1	109.5	836.8
591	1640	599	1	109.5	836.8
592	1635	598	1	109.5	836.8
592	1641	600	1	109.5	836.8
592	1641	628	1	109.5	836.8
593	1636	599	1	109.5	836.8
593	1642	598	1	109.5	836.8
594	1637	600	1	109.5	836.8
594	1643	612	1	109.5	836.8
594	1643	926	1	109.5	836.8
595	1638	601	1	109.5	836.8
595	1644	596	1	109.5	836.8
596	1633	920	1	109.5	836.8
596	1633	930	1	109.5	836.8
600	1641	628	1	109.5	836.8
602	1646	611	1	109.5	836.8
602	1646	614	1	109.5	836.8
602	1646	621	1	109.5	836.8
603	1645	612	1	109.5	836.8
603	1645	620	1	109.5	836.8
603	1645	944	1	109.5	836.8
603	1796	891	1	109.5	836.8
603	1796	897	1	109.5	836.8
603	1796	905	1	109.5	836.8
604	1647	613	1	109.5	836.8
604	1647	616	1	109.5	836.8
604	1647	622	1	109.5	836.8
605	1648	617	1	109.5	836.8
605	1648	623	1	109.5	836.8
605	1678	658	1	109.5	836.8
605	1678	664	1	109.5	836.8
605	1678	669	1	109.5	836.8
606	1649	608	1	109.5	836.8
606	1649	618	1	109.5	836.8
606	1649	624	1	109.5	836.8
606	1679	665	1	109.5	836.8
606	1679	997	1	109.5	836.8
607	1650	609	1	109.5	836.8
607	1650	619	1	109.5	836.8
607	1650	625	1	109.5	836.8
607	1680	660	1	109.5	836.8
607	1680	666	1	109.5	836.8
607	1680	667	1	109.5	836.8
608	1649	618	1	109.5	836.8
608	1649	624	1	109.5	836.8
608	1651	614	1	109.5	836.8
608	1651	649	1	109.5	836.8
609	1650	619	1	109.5	836.8
609	1650	625	1	109.5	836.8
609	1652	615	1	109.5	836.8
609	1652	623	1	109.5	836.8
610	1653	616	1	109.5	836.8
610	1653	624	1	109.5	836.8
610	1653	651	1	109.5	836.8
610	1816	934	1	109.5	836.8
610	1816	946	1	109.5	836.8
610	1816	952	1	109.5	836.8
611	1646	614	1	109.5	836.8
611	1646	621	1	109.5	836.8
611	1654	617	1	109.5	836.8
611	1654	622	1	109.5	836.8
612	1643	926	1	109.5	836.8
612	1645	620	1	109.5	836.8
612	1645	944	1	109.5	836.8
613	1647	616	1	109.5	836.8
613	1647	622	1	109.5	836.8
613	1656	619	1	109.5	836.8
613	1656	620	1	109.5	836.8
614	1646	621	1	109.5	836.8
614	1651	649	1	109.5	836.8
615	1652	623	1	109.5	836.8
616	1647	622	1	109.5	836.8
616	1653	624	1	109.5	836.8
616	1653	651	1	109.5	836.8
617	1648	623	1	109.5	836.8
617	1654	622	1	109.5	836.8
618	1649	624	1	109.5	836.8
618	1655	950	1	109.5	836.8
619	1650	625	1	109.5	836.8
619	1656	620	1	109.5	836.8
620	1645	944	1	109.5	836.8
624	1653	651	1	109.5	836.8
625	1639	626	1	109.5	836.8
626	1658	635	1	109.5	836.8
626	1658	637	1	109.5	836.8
626	1658	644	1	109.5	836.8
627	1657	643	1	109.5	836.8
627	1657	967	1	109.5	836.8
627	1657	977	1	109.5	836.8
627	1808	915	1	109.5	836.8
627	1808	920	1	109.5	836.8
627	1808	928	1	109.5	836.8
628	1659	636	1	109.5	836.8
628	1659	639	1	109.5	836.8
628	1659	645	1	109.5	836.8
629	1660	640	1	109.5	836.8
629	1660	646	1	109.5	836.8
630	1523	691	1	109.5	836.8
630	1661	632	1	109.5	836.8
630	1661	641	1	109.5	836.8
630	1661	647	1	109.5	836.8
631	1662	633	1	109.5	836.8
631	1662	642	1	109.5	836.8
631	1662	648	1	109.5	836.8
632	1661	641	1	109.5	836.8
632	1661	647	1	109.5	836.8
632	1663	637	1	109.5	836.8
632	1663	672	1	109.5	836.8
633	1662	642	1	109.5	836.8
633	1662	648	1	109.5	836.8
633	1664	638	1	109.5	836.8
633	1664	646	1	109.5	836.8
634	1665	639	1	109.5	836.8
634	1665	647	1	109.5	836.8
634	1828	958	1	109.5	836.8
634	1828	969	1	109.5	836.8
634	1828	975	1	109.5	836.8
635	1658	637	1	109.5	836.8
635	1658	644	1	109.5	836.8
635	1666	640	1	109.5	836.8
635	1666	645	1	109.5	836.8
636	1659	639	1	109.5	836.8
636	1659	645	1	109.5	836.8
636	1668	642	1	109.5	836.8
636	1668	643	1	109.5	836.8
637	1658	644	1	109.5	836.8
637	1663	672	1	109.5	836.8
638	1489	648	1	109.5	836.8
638	1664	646	1	109.5	836.8
639	1659	645	1	109.5	836.8
639	1665	647	1	109.5	836.8
640	1660	646	1	109.5	836.8
640	1666	645	1	109.5	836.8
641	1661	647	1	109.5	836.8
641	1667	659	1	109.5	836.8
641	1667	973	1	109.5	836.8
642	1662	648	1	109.5	836.8
642	1668	643	1	109.5	836.8
643	1657	967	1	109.5	836.8
643	1657	977	1	109.5	836.8
649	1670	658	1	109.5	836.8
649	1670	661	1	109.5	836.8
649	1670	668	1	109.5	836.8
650	1669	659	1	109.5	836.8
650	1669	667	1	109.5	836.8
650	1669	991	1	109.5	836.8
650	1820	938	1	109.5	836.8
650	1820	944	1	109.5	836.8
650	1820	952	1	109.5	836.8
651	1671	660	1	109.5	836.8
651	1671	663	1	109.5	836.8
651	1671	669	1	109.5	836.8
652	1672	664	1	109.5	836.8
652	1672	670	1	109.5	836.8
653	1535	715	1	109.5	836.8
653	1673	655	1	109.5	836.8
653	1673	665	1	109.5	836.8
653	1673	671	1	109.5	836.8
654	1674	656	1	109.5	836.8
654	1674	666	1	109.5	836.8
654	1674	672	1	109.5	836.8
655	1673	665	1	109.5	836.8
655	1673	671	1	109.5	836.8
655	1675	661	1	109.5	836.8
656	1674	666	1	109.5	836.8
656	1674	672	1	109.5	836.8
656	1676	662	1	109.5	836.8
656	1676	670	1	109.5	836.8
657	1677	663	1	109.5	836.8
657	1677	671	1	109.5	836.8
657	1840	981	1	109.5	836.8
657	1840	993	1	109.5	836.8
657	1840	999	1	109.5	836.8
658	1670	661	1	109.5	836.8
658	1670	668	1	109.5	836.8
658	1678	664	1	109.5	836.8
658	1678	669	1	109.5	836.8
659	1667	973	1	109.5	836.8
659	1669	667	1	109.5	836.8
659	1669	991	1	109.5	836.8
660	1671	663	1	109.5	836.8
660	1671	669	1	109.5	836.8
660	1680	666	1	109.5	836.8
660	1680	667	1	109.5	836.8
661	1670	668	1	109.5	836.8
662	1676	670	1	109.5	836.8
663	1671	669	1	109.5	836.8
663	1677	671	1	109.5	836.8
664	1672	670	1	109.5	836.8
664	1678	669	1	109.5	836.8
665	1673	671	1	109.5	836.8
665	1679	997	1	109.5	836.8
666	1674	672	1	109.5	836.8
666	1680	667	1	109.5	836.8
667	1669	991	1	109.5	836.8
673	1682	682	1	109.5	836.8
673	1682	684	1	109.5	836.8
673	1682	691	1	109.5	836.8
673	1831	961	1	109.5	836.8
673	1831	966	1	109.5	836.8
673	1831	1001	1	109.5	836.8
674	1681	690	1	109.5	836.8
674	1681	1013	1	109.5	836.8
674	1681	1023	1	109.5	836.8
674	2000	1272	1	109.5	836.8
674	2000	1277	1	109.5	836.8
674	2000	1285	1	109.5	836.8
675	1683	683	1	109.5	836.8
675	1683	686	1	109.5	836.8
675	1683	692	1	109.5	836.8
675	1833	963	1	109.5	836.8
675	1833	968	1	109.5	836.8
675	1833	976	1	109.5	836.8
676	1684	687	1	109.5	836.8
676	1684	693	1	109.5	836.8
676	1714	729	1	109.5	836.8
676	1714	734	1	109.5	836.8
676	1714	739	1	109.5	836.8
677	1685	679	1	109.5	836.8
677	1685	688	1	109.5	836.8
677	1685	694	1	109.5	836.8
677	1715	735	1	109.5	836.8
677	1715	753	1	109.5	836.8
677	1715	1063	1	109.5	836.8
678	1686	680	1	109.5	836.8
678	1686	689	1	109.5	836.8
678	1686	695	1	109.5	836.8
678	1716	730	1	109.5	836.8
678	1716	736	1	109.5	836.8
678	1716	737	1	109.5	836.8
679	1685	688	1	109.5	836.8
679	1685	694	1	109.5	836.8
679	1687	684	1	109.5	836.8
679	1687	719	1	109.5	836.8
679	1687	720	1	109.5	836.8
680	1686	689	1	109.5	836.8
680	1686	695	1	109.5	836.8
680	1688	685	1	109.5	836.8
680	1688	693	1	109.5	836.8
681	1689	686	1	109.5	836.8
681	1689	694	1	109.5	836.8
681	1689	722	1	109.5	836.8
681	1852	1004	1	109.5	836.8
681	1852	1015	1	109.5	836.8
681	1852	1021	1	109.5	836.8
682	1682	684	1	109.5	836.8
682	1682	691	1	109.5	836.8
682	1690	687	1	109.5	836.8
682	1690	692	1	109.5	836.8
682	1690	958	1	109.5	836.8
683	1683	686	1	109.5	836.8
683	1683	692	1	109.5	836.8
683	1692	689	1	109.5	836.8
683	1692	690	1	109.5	836.8
683	1692	960	1	109.5	836.8
684	1682	691	1	109.5	836.8
684	1687	719	1	109.5	836.8
684	1687	720	1	109.5	836.8
685	1513	695	1	109.5	836.8
685	1688	693	1	109.5	836.8
686	1683	692	1	109.5	836.8
686	1689	694	1	109.5	836.8
686	1689	722	1	109.5	836.8
687	1684	693	1	109.5	836.8
687	1690	692	1	109.5	836.8
687	1690	958	1	109.5	836.8
688	1685	694	1	109.5	836.8
688	1691	706	1	109.5	836.8
688	1691	959	1	109.5	836.8
688	1691	1019	1	109.5	836.8
689	1686	695	1	109.5	836.8
689	1692	690	1	109.5	836.8
689	1692	960	1	109.5	836.8
690	1681	1013	1	109.5	836.8
690	1681	1023	1	109.5	836.8
690	1692	960	1	109.5	836.8
692	1690	958	1	109.5	836.8
694	1689	722	1	109.5	836.8
696	1694	705	1	109.5	836.8
696	1694	708	1	109.5	836.8
696	1694	715	1	109.5	836.8
696	1843	984	1	109.5	836.8
696	1843	990	1	109.5	836.8
697	1693	706	1	109.5	836.8
697	1693	714	1	109.5	836.8
697	1693	1035	1	109.5	836.8
697	2012	1294	1	109.5	836.8
697	2012	1299	1	109.5	836.8
697	2012	1307	1	109.5	836.8
698	1695	707	1	109.5	836.8
698	1695	710	1	109.5	836.8
698	1695	716	1	109.5	836.8
698	1845	986	1	109.5	836.8
698	1845	992	1	109.5	836.8
698	1845	1000	1	109.5	836.8
699	1696	711	1	109.5	836.8
699	1696	717	1	109.5	836.8
699	1726	752	1	109.5	836.8
699	1726	758	1	109.5	836.8
699	1726	763	1	109.5	836.8
700	1697	702	1	109.5	836.8
700	1697	712	1	109.5	836.8
700	1697	718	1	109.5	836.8
700	1727	759	1	109.5	836.8
700	1727	1085	1	109.5	836.8
701	1698	703	1	109.5	836.8
701	1698	713	1	109.5	836.8
701	1698	719	1	109.5	836.8
701	1728	754	1	109.5	836.8
701	1728	760	1	109.5	836.8
701	1728	761	1	109.5	836.8
702	1697	712	1	109.5	836.8
702	1697	718	1	109.5	836.8
702	1699	708	1	109.5	836.8
702	1699	743	1	109.5	836.8
703	1698	713	1	109.5	836.8
703	1698	719	1	109.5	836.8
703	1700	709	1	109.5	836.8
703	1700	717	1	109.5	836.8
704	1701	710	1	109.5	836.8
704	1701	718	1	109.5	836.8
704	1701	745	1	109.5	836.8
704	1864	1026	1	109.5	836.8
704	1864	1037	1	109.5	836.8
704	1864	1043	1	109.5	836.8
705	1694	708	1	109.5	836.8
705	1694	715	1	109.5	836.8
705	1702	711	1	109.5	836.8
705	1702	716	1	109.5	836.8
705	1702	981	1	109.5	836.8
706	1691	959	1	109.5	836.8
706	1691	1019	1	109.5	836.8
706	1693	714	1	109.5	836.8
706	1693	1035	1	109.5	836.8
707	1695	710	1	109.5	836.8
707	1695	716	1	109.5	836.8
707	1704	713	1	109.5	836.8
707	1704	714	1	109.5	836.8
707	1704	983	1	109.5	836.8
708	1694	715	1	109.5	836.8
708	1699	743	1	109.5	836.8
709	1700	717	1	109.5	836.8
710	1695	716	1	109.5	836.8
710	1701	718	1	109.5	836.8
710	1701	745	1	109.5	836.8
711	1696	717	1	109.5	836.8
711	1702	716	1	109.5	836.8
711	1702	981	1	109.5	836.8
712	1697	718	1	109.5	836.8
712	1703	982	1	109.5	836.8
712	1703	1041	1	109.5	836.8
713	1698	719	1	109.5	836.8
713	1704	714	1	109.5	836.8
713	1704	983	1	109.5	836.8
714	1693	1035	1	109.5	836.8
714	1704	983	1	109.5	836.8
716	1702	981	1	109.5	836.8
718	1701	745	1	109.5	836.8
719	1687	720	1	109.5	836.8
720	1706	729	1	109.5	836.8
720	1706	731	1	109.5	836.8
720	1706	738	1	109.5	836.8
721	1705	737	1	109.5	836.8
721	1705	1057	1	109.5	836.8
721	1705	1067	1	109.5	836.8
721	1856	1008	1	109.5	836.8
721	1856	1013	1	109.5	836.8
721	1856	1021	1	109.5	836.8
722	1707	730	1	109.5	836.8
722	1707	733	1	109.5	836.8
722	1707	739	1	109.5	836.8
723	1708	734	1	109.5	836.8
723	1708	740	1	109.5	836.8
723	1738	776	1	109.5	836.8
723	1738	781	1	109.5	836.8
723	1738	786	1	109.5	836.8
724	1709	726	1	109.5	836.8
724	1709	735	1	109.5	836.8
724	1709	741	1	109.5	836.8
724	1739	782	1	109.5	836.8
724	1739	800	1	109.5	836.8
724	1739	1107	1	109.5	836.8
725	1710	727	1	109.5	836.8
725	1710	736	1	109.5	836.8
725	1710	742	1	109.5	836.8
725	1740	777	1	109.5	836.8
725	1740	783	1	109.5	836.8
725	1740	784	1	109.5	836.8
726	1709	735	1	109.5	836.8
726	1709	741	1	109.5	836.8
726	1711	731	1	109.5	836.8
726	1711	766	1	109.5	836.8
726	1711	767	1	109.5	836.8
727	1710	736	1	109.5	836.8
727	1710	742	1	109.5	836.8
727	1712	732	1	109.5	836.8
727	1712	740	1	109.5	836.8
728	1713	733	1	109.5	836.8
728	1713	741	1	109.5	836.8
728	1713	769	1	109.5	836.8
728	1876	1048	1	109.5	836.8
728	1876	1059	1	109.5	836.8
728	1876	1065	1	109.5	836.8
729	1706	731	1	109.5	836.8
729	1706	738	1	109.5	836.8
729	1714	734	1	109.5	836.8
729	1714	739	1	109.5	836.8
730	1707	733	1	109.5	836.8
730	1707	739	1	109.5	836.8
730	1716	736	1	109.5	836.8
730	1716	737	1	109.5	836.8
731	1706	738	1	109.5	836.8
731	1711	766	1	109.5	836.8
731	1711	767	1	109.5	836.8
732	1537	742	1	109.5	836.8
732	1712	740	1	109.5	836.8
733	1707	739	1	109.5	836.8
733	1713	741	1	109.5	836.8
733	1713	769	1	109.5	836.8
734	1708	740	1	109.5	836.8
734	1714	739	1	109.5	836.8
735	1709	741	1	109.5	836.8
735	1715	753	1	109.5	836.8
735	1715	1063	1	109.5	836.8
736	1710	742	1	109.5	836.8
736	1716	737	1	109.5	836.8
737	1705	1057	1	109.5	836.8
737	1705	1067	1	109.5	836.8
741	1713	769	1	109.5	836.8
743	1718	752	1	109.5	836.8
743	1718	755	1	109.5	836.8
743	1718	762	1	109.5	836.8
744	1717	753	1	109.5	836.8
744	1717	761	1	109.5	836.8
744	1717	1079	1	109.5	836.8
744	1868	1030	1	109.5	836.8
744	1868	1035	1	109.5	836.8
744	1868	1043	1	109.5	836.8
745	1719	754	1	109.5	836.8
745	1719	757	1	109.5	836.8
745	1719	763	1	109.5	836.8
746	1720	758	1	109.5	836.8
746	1720	764	1	109.5	836.8
746	1750	799	1	109.5	836.8
746	1750	805	1	109.5	836.8
746	1750	810	1	109.5	836.8
747	1721	749	1	109.5	836.8
747	1721	759	1	109.5	836.8
747	1721	765	1	109.5	836.8
747	1751	806	1	109.5	836.8
747	1751	1129	1	109.5	836.8
748	1722	750	1	109.5	836.8
748	1722	760	1	109.5	836.8
748	1722	766	1	109.5	836.8
748	1752	801	1	109.5	836.8
748	1752	807	1	109.5	836.8
748	1752	808	1	109.5	836.8
749	1721	759	1	109.5	836.8
749	1721	765	1	109.5	836.8
749	1723	755	1	109.5	836.8
749	1723	790	1	109.5	836.8
750	1722	760	1	109.5	836.8
750	1722	766	1	109.5	836.8
750	1724	756	1	109.5	836.8
750	1724	764	1	109.5	836.8
751	1725	757	1	109.5	836.8
751	1725	765	1	109.5	836.8
751	1725	792	1	109.5	836.8
751	1888	1070	1	109.5	836.8
751	1888	1081	1	109.5	836.8
751	1888	1087	1	109.5	836.8
752	1718	755	1	109.5	836.8
752	1718	762	1	109.5	836.8
752	1726	758	1	109.5	836.8
752	1726	763	1	109.5	836.8
753	1715	1063	1	109.5	836.8
753	1717	761	1	109.5	836.8
753	1717	1079	1	109.5	836.8
754	1719	757	1	109.5	836.8
754	1719	763	1	109.5	836.8
754	1728	760	1	109.5	836.8
754	1728	761	1	109.5	836.8
755	1718	762	1	109.5	836.8
755	1723	790	1	109.5	836.8
756	1724	764	1	109.5	836.8
757	1719	763	1	109.5	836.8
757	1725	765	1	109.5	836.8
757	1725	792	1	109.5	836.8
758	1720	764	1	109.5	836.8
758	1726	763	1	109.5	836.8
759	1721	765	1	109.5	836.8
759	1727	1085	1	109.5	836.8
760	1722	766	1	109.5	836.8
760	1728	761	1	109.5	836.8
761	1717	1079	1	109.5	836.8
765	1725	792	1	109.5	836.8
766	1711	767	1	109.5	836.8
767	1730	776	1	109.5	836.8
767	1730	778	1	109.5	836.8
767	1730	785	1	109.5	836.8
768	1729	784	1	109.5	836.8
768	1729	1101	1	109.5	836.8
768	1729	1111	1	109.5	836.8
768	1880	1052	1	109.5	836.8
768	1880	1057	1	109.5	836.8
768	1880	1065	1	109.5	836.8
769	1731	777	1	109.5	836.8
769	1731	780	1	109.5	836.8
769	1731	786	1	109.5	836.8
770	1732	781	1	109.5	836.8
770	1732	787	1	109.5	836.8
770	1762	823	1	109.5	836.8
770	1762	828	1	109.5	836.8
770	1762	833	1	109.5	836.8
771	1733	773	1	109.5	836.8
771	1733	782	1	109.5	836.8
771	1733	788	1	109.5	836.8
771	1763	829	1	109.5	836.8
771	1763	847	1	109.5	836.8
771	1763	1151	1	109.5	836.8
772	1734	774	1	109.5	836.8
772	1734	783	1	109.5	836.8
772	1734	789	1	109.5	836.8
772	1764	824	1	109.5	836.8
772	1764	830	1	109.5	836.8
772	1764	831	1	109.5	836.8
773	1733	782	1	109.5	836.8
773	1733	788	1	109.5	836.8
773	1735	778	1	109.5	836.8
773	1735	813	1	109.5	836.8
773	1735	814	1	109.5	836.8
774	1734	783	1	109.5	836.8
774	1734	789	1	109.5	836.8
774	1736	779	1	109.5	836.8
774	1736	787	1	109.5	836.8
775	1737	780	1	109.5	836.8
775	1737	788	1	109.5	836.8
775	1737	816	1	109.5	836.8
775	1900	1092	1	109.5	836.8
775	1900	1103	1	109.5	836.8
775	1900	1109	1	109.5	836.8
776	1730	778	1	109.5	836.8
776	1730	785	1	109.5	836.8
776	1738	781	1	109.5	836.8
776	1738	786	1	109.5	836.8
777	1731	780	1	109.5	836.8
777	1731	786	1	109.5	836.8
777	1740	783	1	109.5	836.8
777	1740	784	1	109.5	836.8
778	1730	785	1	109.5	836.8
778	1735	813	1	109.5	836.8
778	1735	814	1	109.5	836.8
779	1561	789	1	109.5	836.8
779	1736	787	1	109.5	836.8
780	1731	786	1	109.5	836.8
780	1737	788	1	109.5	836.8
780	1737	816	1	109.5	836.8
781	1732	787	1	109.5	836.8
781	1738	786	1	109.5	836.8
782	1733	788	1	109.5	836.8
782	1739	800	1	109.5	836.8
782	1739	1107	1	109.5	836.8
783	1734	789	1	109.5	836.8
783	1740	784	1	109.5	836.8
784	1729	1101	1	109.5	836.8
784	1729	1111	1	109.5	836.8
788	1737	816	1	109.5	836.8
790	1742	799	1	109.5	836.8
790	1742	802	1	109.5	836.8
790	1742	809	1	109.5	836.8
791	1741	800	1	109.5	836.8
791	1741	808	1	109.5	836.8
791	1741	1123	1	109.5	836.8
791	1892	1074	1	109.5	836.8
791	1892	1079	1	109.5	836.8
791	1892	1087	1	109.5	836.8
792	1743	801	1	109.5	836.8
792	1743	804	1	109.5	836.8
792	1743	810	1	109.5	836.8
793	1744	805	1	109.5	836.8
793	1744	811	1	109.5	836.8
793	1774	846	1	109.5	836.8
793	1774	852	1	109.5	836.8
793	1774	857	1	109.5	836.8
794	1745	796	1	109.5	836.8
794	1745	806	1	109.5	836.8
794	1745	812	1	109.5	836.8
794	1775	853	1	109.5	836.8
794	1775	1173	1	109.5	836.8
795	1746	797	1	109.5	836.8
795	1746	807	1	109.5	836.8
795	1746	813	1	109.5	836.8
795	1776	848	1	109.5	836.8
795	1776	854	1	109.5	836.8
795	1776	855	1	109.5	836.8
796	1745	806	1	109.5	836.8
796	1745	812	1	109.5	836.8
796	1747	802	1	109.5	836.8
796	1747	837	1	109.5	836.8
797	1746	807	1	109.5	836.8
797	1746	813	1	109.5	836.8
797	1748	803	1	109.5	836.8
797	1748	811	1	109.5	836.8
798	1749	804	1	109.5	836.8
798	1749	812	1	109.5	836.8
798	1749	839	1	109.5	836.8
798	1912	1114	1	109.5	836.8
798	1912	1125	1	109.5	836.8
798	1912	1131	1	109.5	836.8
799	1742	802	1	109.5	836.8
799	1742	809	1	109.5	836.8
799	1750	805	1	109.5	836.8
799	1750	810	1	109.5	836.8
800	1739	1107	1	109.5	836.8
800	1741	808	1	109.5	836.8
800	1741	1123	1	109.5	836.8
801	1743	804	1	109.5	836.8
801	1743	810	1	109.5	836.8
801	1752	807	1	109.5	836.8
801	1752	808	1	109.5	836.8
802	1742	809	1	109.5	836.8
802	1747	837	1	109.5	836.8
803	1748	811	1	109.5	836.8
804	1743	810	1	109.5	836.8
804	1749	812	1	109.5	836.8
804	1749	839	1	109.5	836.8
805	1744	811	1	109.5	836.8
805	1750	810	1	109.5	836.8
806	1745	812	1	109.5	836.8
806	1751	1129	1	109.5	836.8
807	1746	813	1	109.5	836.8
807	1752	808	1	109.5	836.8
808	1741	1123	1	109.5	836.8
812	1749	839	1	109.5	836.8
813	1735	814	1	109.5	836.8
814	1754	823	1	109.5	836.8
814	1754	825	1	109.5	836.8
814	1754	832	1	109.5	836.8
815	1753	831	1	109.5	836.8
815	1753	1145	1	109.5	836.8
815	1753	1155	1	109.5	836.8
815	1904	1096	1	109.5	836.8
815	1904	1101	1	109.5	836.8
815	1904	1109	1	109.5	836.8
816	1755	824	1	109.5	836.8
816	1755	827	1	109.5	836.8
816	1755	833	1	109.5	836.8
817	1756	828	1	109.5	836.8
817	1756	834	1	109.5	836.8
817	1786	870	1	109.5	836.8
817	1786	875	1	109.5	836.8
817	1786	880	1	109.5	836.8
818	1757	820	1	109.5	836.8
818	1757	829	1	109.5	836.8
818	1757	835	1	109.5	836.8
818	1787	876	1	109.5	836.8
818	1787	894	1	109.5	836.8
818	1787	1195	1	109.5	836.8
819	1758	821	1	109.5	836.8
819	1758	830	1	109.5	836.8
819	1758	836	1	109.5	836.8
819	1788	871	1	109.5	836.8
819	1788	877	1	109.5	836.8
819	1788	878	1	109.5	836.8
820	1757	829	1	109.5	836.8
820	1757	835	1	109.5	836.8
820	1759	825	1	109.5	836.8
820	1759	860	1	109.5	836.8
820	1759	861	1	109.5	836.8
821	1758	830	1	109.5	836.8
821	1758	836	1	109.5	836.8
821	1760	826	1	109.5	836.8
821	1760	834	1	109.5	836.8
822	1761	827	1	109.5	836.8
822	1761	835	1	109.5	836.8
822	1761	863	1	109.5	836.8
822	1924	1136	1	109.5	836.8
822	1924	1147	1	109.5	836.8
822	1924	1153	1	109.5	836.8
823	1754	825	1	109.5	836.8
823	1754	832	1	109.5	836.8
823	1762	828	1	109.5	836.8
823	1762	833	1	109.5	836.8
824	1755	827	1	109.5	836.8
824	1755	833	1	109.5	836.8
824	1764	830	1	109.5	836.8
824	1764	831	1	109.5	836.8
825	1754	832	1	109.5	836.8
825	1759	860	1	109.5	836.8
825	1759	861	1	109.5	836.8
826	1585	836	1	109.5	836.8
826	1760	834	1	109.5	836.8
827	1755	833	1	109.5	836.8
827	1761	835	1	109.5	836.8
827	1761	863	1	109.5	836.8
828	1756	834	1	109.5	836.8
828	1762	833	1	109.5	836.8
829	1757	835	1	109.5	836.8
829	1763	847	1	109.5	836.8
829	1763	1151	1	109.5	836.8
830	1758	836	1	109.5	836.8
830	1764	831	1	109.5	836.8
831	1753	1145	1	109.5	836.8
831	1753	1155	1	109.5	836.8
835	1761	863	1	109.5	836.8
837	1766	846	1	109.5	836.8
837	1766	849	1	109.5	836.8
837	1766	856	1	109.5	836.8
838	1765	847	1	109.5	836.8
838	1765	855	1	109.5	836.8
838	1765	1167	1	109.5	836.8
838	1916	1118	1	109.5	836.8
838	1916	1123	1	109.5	836.8
838	1916	1131	1	109.5	836.8
839	1767	848	1	109.5	836.8
839	1767	851	1	109.5	836.8
839	1767	857	1	109.5	836.8
840	1768	852	1	109.5	836.8
840	1768	858	1	109.5	836.8
840	1798	893	1	109.5	836.8
840	1798	899	1	109.5	836.8
840	1798	904	1	109.5	836.8
841	1769	843	1	109.5	836.8
841	1769	853	1	109.5	836.8
841	1769	859	1	109.5	836.8
841	1799	900	1	109.5	836.8
841	1799	1217	1	109.5	836.8
842	1770	844	1	109.5	836.8
842	1770	854	1	109.5	836.8
842	1770	860	1	109.5	836.8
842	1800	895	1	109.5	836.8
842	1800	901	1	109.5	836.8
842	1800	902	1	109.5	836.8
843	1769	853	1	109.5	836.8
843	1769	859	1	109.5	836.8
843	1771	849	1	109.5	836.8
843	1771	884	1	109.5	836.8
844	1770	854	1	109.5	836.8
844	1770	860	1	109.5	836.8
844	1772	850	1	109.5	836.8
844	1772	858	1	109.5	836.8
845	1773	851	1	109.5	836.8
845	1773	859	1	109.5	836.8
845	1773	886	1	109.5	836.8
845	1936	1158	1	109.5	836.8
845	1936	1169	1	109.5	836.8
845	1936	1175	1	109.5	836.8
846	1766	849	1	109.5	836.8
846	1766	856	1	109.5	836.8
846	1774	852	1	109.5	836.8
846	1774	857	1	109.5	836.8
847	1763	1151	1	109.5	836.8
847	1765	855	1	109.5	836.8
847	1765	1167	1	109.5	836.8
848	1767	851	1	109.5	836.8
848	1767	857	1	109.5	836.8
848	1776	854	1	109.5	836.8
848	1776	855	1	109.5	836.8
849	1766	856	1	109.5	836.8
849	1771	884	1	109.5	836.8
850	1772	858	1	109.5	836.8
851	1767	857	1	109.5	836.8
851	1773	859	1	109.5	836.8
851	1773	886	1	109.5	836.8
852	1768	858	1	109.5	836.8
852	1774	857	1	109.5	836.8
853	1769	859	1	109.5	836.8
853	1775	1173	1	109.5	836.8
854	1770	860	1	109.5	836.8
854	1776	855	1	109.5	836.8
855	1765	1167	1	109.5	836.8
859	1773	886	1	109.5	836.8
860	1759	861	1	109.5	836.8
861	1778	870	1	109.5	836.8
861	1778	872	1	109.5	836.8
861	1778	879	1	109.5	836.8
862	1777	878	1	109.5	836.8
862	1777	1189	1	109.5	836.8
862	1777	1199	1	109.5	836.8
862	1928	1140	1	109.5	836.8
862	1928	1145	1	109.5	836.8
862	1928	1153	1	109.5	836.8
863	1779	871	1	109.5	836.8
863	1779	874	1	109.5	836.8
863	1779	880	1	109.5	836.8
864	1780	875	1	109.5	836.8
864	1780	881	1	109.5	836.8
864	1810	917	1	109.5	836.8
864	1810	922	1	109.5	836.8
864	1810	927	1	109.5	836.8
865	1781	867	1	109.5	836.8
865	1781	876	1	109.5	836.8
865	1781	882	1	109.5	836.8
865	1811	923	1	109.5	836.8
865	1811	941	1	109.5	836.8
865	1811	1239	1	109.5	836.8
866	1782	868	1	109.5	836.8
866	1782	877	1	109.5	836.8
866	1782	883	1	109.5	836.8
866	1812	918	1	109.5	836.8
866	1812	924	1	109.5	836.8
866	1812	925	1	109.5	836.8
867	1781	876	1	109.5	836.8
867	1781	882	1	109.5	836.8
867	1783	872	1	109.5	836.8
867	1783	907	1	109.5	836.8
867	1783	908	1	109.5	836.8
868	1782	877	1	109.5	836.8
868	1782	883	1	109.5	836.8
868	1784	873	1	109.5	836.8
868	1784	881	1	109.5	836.8
869	1785	874	1	109.5	836.8
869	1785	882	1	109.5	836.8
869	1785	910	1	109.5	836.8
869	1948	1180	1	109.5	836.8
869	1948	1191	1	109.5	836.8
869	1948	1197	1	109.5	836.8
870	1778	872	1	109.5	836.8
870	1778	879	1	109.5	836.8
870	1786	875	1	109.5	836.8
870	1786	880	1	109.5	836.8
871	1779	874	1	109.5	836.8
871	1779	880	1	109.5	836.8
871	1788	877	1	109.5	836.8
871	1788	878	1	109.5	836.8
872	1778	879	1	109.5	836.8
872	1783	907	1	109.5	836.8
872	1783	908	1	109.5	836.8
873	1609	883	1	109.5	836.8
873	1784	881	1	109.5	836.8
874	1779	880	1	109.5	836.8
874	1785	882	1	109.5	836.8
874	1785	910	1	109.5	836.8
875	1780	881	1	109.5	836.8
875	1786	880	1	109.5	836.8
876	1781	882	1	109.5	836.8
876	1787	894	1	109.5	836.8
876	1787	1195	1	109.5	836.8
877	1782	883	1	109.5	836.8
877	1788	878	1	109.5	836.8
878	1777	1189	1	109.5	836.8
878	1777	1199	1	109.5	836.8
882	1785	910	1	109.5	836.8
884	1790	893	1	109.5	836.8
884	1790	896	1	109.5	836.8
884	1790	903	1	109.5	836.8
885	1789	894	1	109.5	836.8
885	1789	902	1	109.5	836.8
885	1789	1211	1	109.5	836.8
885	1940	1162	1	109.5	836.8
885	1940	1167	1	109.5	836.8
885	1940	1175	1	109.5	836.8
886	1791	895	1	109.5	836.8
886	1791	898	1	109.5	836.8
886	1791	904	1	109.5	836.8
887	1792	899	1	109.5	836.8
887	1792	905	1	109.5	836.8
887	1822	940	1	109.5	836.8
887	1822	946	1	109.5	836.8
887	1822	951	1	109.5	836.8
888	1793	890	1	109.5	836.8
888	1793	900	1	109.5	836.8
888	1793	906	1	109.5	836.8
888	1823	947	1	109.5	836.8
888	1823	1261	1	109.5	836.8
889	1794	891	1	109.5	836.8
889	1794	901	1	109.5	836.8
889	1794	907	1	109.5	836.8
889	1824	942	1	109.5	836.8
889	1824	948	1	109.5	836.8
889	1824	949	1	109.5	836.8
890	1793	900	1	109.5	836.8
890	1793	906	1	109.5	836.8
890	1795	896	1	109.5	836.8
890	1795	931	1	109.5	836.8
891	1794	901	1	109.5	836.8
891	1794	907	1	109.5	836.8
891	1796	897	1	109.5	836.8
891	1796	905	1	109.5	836.8
892	1797	898	1	109.5	836.8
892	1797	906	1	109.5	836.8
892	1797	933	1	109.5	836.8
892	1960	1202	1	109.5	836.8
892	1960	1213	1	109.5	836.8
892	1960	1219	1	109.5	836.8
893	1790	896	1	109.5	836.8
893	1790	903	1	109.5	836.8
893	1798	899	1	109.5	836.8
893	1798	904	1	109.5	836.8
894	1787	1195	1	109.5	836.8
894	1789	902	1	109.5	836.8
894	1789	1211	1	109.5	836.8
895	1791	898	1	109.5	836.8
895	1791	904	1	109.5	836.8
895	1800	901	1	109.5	836.8
895	1800	902	1	109.5	836.8
896	1790	903	1	109.5	836.8
896	1795	931	1	109.5	836.8
897	1796	905	1	109.5	836.8
898	1791	904	1	109.5	836.8
898	1797	906	1	109.5	836.8
898	1797	933	1	109.5	836.8
899	1792	905	1	109.5	836.8
899	1798	904	1	109.5	836.8
900	1793	906	1	109.5	836.8
900	1799	1217	1	109.5	836.8
901	1794	907	1	109.5	836.8
901	1800	902	1	109.5	836.8
902	1789	1211	1	109.5	836.8
906	1797	933	1	109.5	836.8
907	1783	908	1	109.5	836.8
908	1802	917	1	109.5	836.8
908	1802	919	1	109.5	836.8
908	1802	926	1	109.5	836.8
909	1801	925	1	109.5	836.8
909	1801	1233	1	109.5	836.8
909	1801	1243	1	109.5	836.8
909	1952	1184	1	109.5	836.8
909	1952	1189	1	109.5	836.8
909	1952	1197	1	109.5	836.8
910	1803	918	1	109.5	836.8
910	1803	921	1	109.5	836.8
910	1803	927	1	109.5	836.8
911	1804	922	1	109.5	836.8
911	1804	928	1	109.5	836.8
911	1834	964	1	109.5	836.8
911	1834	969	1	109.5	836.8
911	1834	974	1	109.5	836.8
912	1805	914	1	109.5	836.8
912	1805	923	1	109.5	836.8
912	1805	929	1	109.5	836.8
912	1835	970	1	109.5	836.8
912	1835	988	1	109.5	836.8
912	1835	1283	1	109.5	836.8
913	1806	915	1	109.5	836.8
913	1806	924	1	109.5	836.8
913	1806	930	1	109.5	836.8
913	1836	965	1	109.5	836.8
913	1836	971	1	109.5	836.8
913	1836	972	1	109.5	836.8
914	1805	923	1	109.5	836.8
914	1805	929	1	109.5	836.8
914	1807	919	1	109.5	836.8
914	1807	954	1	109.5	836.8
914	1807	955	1	109.5	836.8
915	1806	924	1	109.5	836.8
915	1806	930	1	109.5	836.8
915	1808	920	1	109.5	836.8
915	1808	928	1	109.5	836.8
916	1809	921	1	109.5	836.8
916	1809	929	1	109.5	836.8
916	1809	957	1	109.5	836.8
916	1972	1224	1	109.5	836.8
916	1972	1235	1	109.5	836.8
916	1972	1241	1	109.5	836.8
917	1802	919	1	109.5	836.8
917	1802	926	1	109.5	836.8
917	1810	922	1	109.5	836.8
917	1810	927	1	109.5	836.8
918	1803	921	1	109.5	836.8
918	1803	927	1	109.5	836.8
918	1812	924	1	109.5	836.8
918	1812	925	1	109.5	836.8
919	1802	926	1	109.5	836.8
919	1807	954	1	109.5	836.8
919	1807	955	1	109.5	836.8
920	1633	930	1	109.5	836.8
920	1808	928	1	109.5	836.8
921	1803	927	1	109.5	836.8
921	1809	929	1	109.5	836.8
921	1809	957	1	109.5	836.8
922	1804	928	1	109.5	836.8
922	1810	927	1	109.5	836.8
923	1805	929	1	109.5	836.8
923	1811	941	1	109.5	836.8
923	1811	1239	1	109.5	836.8
924	1806	930	1	109.5	836.8
924	1812	925	1	109.5	836.8
925	1801	1233	1	109.5	836.8
925	1801	1243	1	109.5	836.8
929	1809	957	1	109.5	836.8
931	1814	940	1	109.5	836.8
931	1814	943	1	109.5	836.8
931	1814	950	1	109.5	836.8
932	1813	941	1	109.5	836.8
932	1813	949	1	109.5	836.8
932	1813	1255	1	109.5	836.8
932	1964	1206	1	109.5	836.8
932	1964	1211	1	109.5	836.8
932	1964	1219	1	109.5	836.8
933	1815	942	1	109.5	836.8
933	1815	945	1	109.5	836.8
933	1815	951	1	109.5	836.8
934	1816	946	1	109.5	836.8
934	1816	952	1	109.5	836.8
934	1846	987	1	109.5	836.8
934	1846	993	1	109.5	836.8
934	1846	998	1	109.5	836.8
935	1817	937	1	109.5	836.8
935	1817	947	1	109.5	836.8
935	1817	953	1	109.5	836.8
935	1847	994	1	109.5	836.8
935	1847	1305	1	109.5	836.8
936	1818	938	1	109.5	836.8
936	1818	948	1	109.5	836.8
936	1818	954	1	109.5	836.8
936	1848	989	1	109.5	836.8
936	1848	995	1	109.5	836.8
936	1848	996	1	109.5	836.8
937	1817	947	1	109.5	836.8
937	1817	953	1	109.5	836.8
937	1819	943	1	109.5	836.8
937	1819	978	1	109.5	836.8
938	1818	948	1	109.5	836.8
938	1818	954	1	109.5	836.8
938	1820	944	1	109.5	836.8
938	1820	952	1	109.5	836.8
939	1821	945	1	109.5	836.8
939	1821	953	1	109.5	836.8
939	1821	980	1	109.5	836.8
939	1984	1246	1	109.5	836.8
939	1984	1257	1	109.5	836.8
939	1984	1263	1	109.5	836.8
940	1814	943	1	109.5	836.8
940	1814	950	1	109.5	836.8
940	1822	946	1	109.5	836.8
940	1822	951	1	109.5	836.8
941	1811	1239	1	109.5	836.8
941	1813	949	1	109.5	836.8
941	1813	1255	1	109.5	836.8
942	1815	945	1	109.5	836.8
942	1815	951	1	109.5	836.8
942	1824	948	1	109.5	836.8
942	1824	949	1	109.5	836.8
943	1814	950	1	109.5	836.8
943	1819	978	1	109.5	836.8
944	1820	952	1	109.5	836.8
945	1815	951	1	109.5	836.8
945	1821	953	1	109.5	836.8
945	1821	980	1	109.5	836.8
946	1816	952	1	109.5	836.8
946	1822	951	1	109.5	836.8
947	1817	953	1	109.5	836.8
947	1823	1261	1	109.5	836.8
948	1818	954	1	109.5	836.8
948	1824	949	1	109.5	836.8
949	1813	1255	1	109.5	836.8
953	1821	980	1	109.5	836.8
954	1807	955	1	109.5	836.8
955	1826	964	1	109.5	836.8
955	1826	966	1	109.5	836.8
955	1826	973	1	109.5	836.8
956	1825	972	1	109.5	836.8
956	1825	1277	1	109.5	836.8
956	1825	1287	1	109.5	836.8
956	1976	1228	1	109.5	836.8
956	1976	1233	1	109.5	836.8
956	1976	1241	1	109.5	836.8
957	1827	965	1	109.5	836.8
957	1827	968	1	109.5	836.8
957	1827	974	1	109.5	836.8
958	1828	969	1	109.5	836.8
958	1828	975	1	109.5	836.8
959	1691	1019	1	109.5	836.8
959	1829	961	1	109.5	836.8
959	1829	970	1	109.5	836.8
959	1829	976	1	109.5	836.8
960	1830	962	1	109.5	836.8
960	1830	971	1	109.5	836.8
960	1830	977	1	109.5	836.8
961	1829	970	1	109.5	836.8
961	1829	976	1	109.5	836.8
961	1831	966	1	109.5	836.8
961	1831	1001	1	109.5	836.8
962	1830	971	1	109.5	836.8
962	1830	977	1	109.5	836.8
962	1832	967	1	109.5	836.8
962	1832	975	1	109.5	836.8
963	1833	968	1	109.5	836.8
963	1833	976	1	109.5	836.8
963	1996	1268	1	109.5	836.8
963	1996	1279	1	109.5	836.8
963	1996	1285	1	109.5	836.8
964	1826	966	1	109.5	836.8
964	1826	973	1	109.5	836.8
964	1834	969	1	109.5	836.8
964	1834	974	1	109.5	836.8
965	1827	968	1	109.5	836.8
965	1827	974	1	109.5	836.8
965	1836	971	1	109.5	836.8
965	1836	972	1	109.5	836.8
966	1826	973	1	109.5	836.8
966	1831	1001	1	109.5	836.8
967	1657	977	1	109.5	836.8
967	1832	975	1	109.5	836.8
968	1827	974	1	109.5	836.8
968	1833	976	1	109.5	836.8
969	1828	975	1	109.5	836.8
969	1834	974	1	109.5	836.8
970	1829	976	1	109.5	836.8
970	1835	988	1	109.5	836.8
970	1835	1283	1	109.5	836.8
971	1830	977	1	109.5	836.8
971	1836	972	1	109.5	836.8
972	1825	1277	1	109.5	836.8
972	1825	1287	1	109.5	836.8
978	1838	987	1	109.5	836.8
978	1838	990	1	109.5	836.8
978	1838	997	1	109.5	836.8
979	1837	988	1	109.5	836.8
979	1837	996	1	109.5	836.8
979	1837	1299	1	109.5	836.8
979	1988	1250	1	109.5	836.8
979	1988	1255	1	109.5	836.8
979	1988	1263	1	109.5	836.8
980	1839	989	1	109.5	836.8
980	1839	992	1	109.5	836.8
980	1839	998	1	109.5	836.8
981	1840	993	1	109.5	836.8
981	1840	999	1	109.5	836.8
982	1703	1041	1	109.5	836.8
982	1841	984	1	109.5	836.8
982	1841	994	1	109.5	836.8
982	1841	1000	1	109.5	836.8
983	1842	985	1	109.5	836.8
983	1842	995	1	109.5	836.8
983	1842	1001	1	109.5	836.8
984	1841	994	1	109.5	836.8
984	1841	1000	1	109.5	836.8
984	1843	990	1	109.5	836.8
985	1842	995	1	109.5	836.8
985	1842	1001	1	109.5	836.8
985	1844	991	1	109.5	836.8
985	1844	999	1	109.5	836.8
986	1845	992	1	109.5	836.8
986	1845	1000	1	109.5	836.8
986	2008	1290	1	109.5	836.8
986	2008	1301	1	109.5	836.8
986	2008	1307	1	109.5	836.8
987	1838	990	1	109.5	836.8
987	1838	997	1	109.5	836.8
987	1846	993	1	109.5	836.8
987	1846	998	1	109.5	836.8
988	1835	1283	1	109.5	836.8
988	1837	996	1	109.5	836.8
988	1837	1299	1	109.5	836.8
989	1839	992	1	109.5	836.8
989	1839	998	1	109.5	836.8
989	1848	995	1	109.5	836.8
989	1848	996	1	109.5	836.8
990	1838	997	1	109.5	836.8
991	1844	999	1	109.5	836.8
992	1839	998	1	109.5	836.8
992	1845	1000	1	109.5	836.8
993	1840	999	1	109.5	836.8
993	1846	998	1	109.5	836.8
994	1841	1000	1	109.5	836.8
994	1847	1305	1	109.5	836.8
995	1842	1001	1	109.5	836.8
995	1848	996	1	109.5	836.8
996	1837	1299	1	109.5	836.8
1002	1850	1010	1	109.5	836.8
1002	1850	1012	1	109.5	836.8
1002	1850	1019	1	109.5	836.8
1002	1999	1271	1	109.5	836.8
1002	1999	1276	1	109.5	836.8
1002	1999	1309	1	109.5	836.8
1003	1851	1011	1	109.5	836.8
1003	1851	1014	1	109.5	836.8
1003	1851	1020	1	109.5	836.8
1003	2001	1273	1	109.5	836.8
1003	2001	1278	1	109.5	836.8
1003	2001	1286	1	109.5	836.8
1004	1852	1015	1	109.5	836.8
1004	1852	1021	1	109.5	836.8
1004	1882	1054	1	109.5	836.8
1004	1882	1059	1	109.5	836.8
1004	1882	1064	1	109.5	836.8
1005	1853	1007	1	109.5	836.8
1005	1853	1016	1	109.5	836.8
1005	1853	1022	1	109.5	836.8
1005	1883	1060	1	109.5	836.8
1005	1883	1315	1	109.5	836.8
1006	1854	1008	1	109.5	836.8
1006	1854	1017	1	109.5	836.8
1006	1854	1023	1	109.5	836.8
1006	1884	1055	1	109.5	836.8
1006	1884	1061	1	109.5	836.8
1006	1884	1062	1	109.5	836.8
1007	1853	1016	1	109.5	836.8
1007	1853	1022	1	109.5	836.8
1007	1855	1012	1	109.5	836.8
1007	1855	1045	1	109.5	836.8
1007	1855	1046	1	109.5	836.8
1008	1854	1017	1	109.5	836.8
1008	1854	1023	1	109.5	836.8
1008	1856	1013	1	109.5	836.8
1008	1856	1021	1	109.5	836.8
1009	1857	1014	1	109.5	836.8
1009	1857	1022	1	109.5	836.8
1009	1857	1047	1	109.5	836.8
1010	1850	1012	1	109.5	836.8
1010	1850	1019	1	109.5	836.8
1010	1858	1015	1	109.5	836.8
1010	1858	1020	1	109.5	836.8
1010	1858	1268	1	109.5	836.8
1011	1851	1014	1	109.5	836.8
1011	1851	1020	1	109.5	836.8
1011	1860	1017	1	109.5	836.8
1011	1860	1018	1	109.5	836.8
1011	1860	1270	1	109.5	836.8
1012	1850	1019	1	109.5	836.8
1012	1855	1045	1	109.5	836.8
1012	1855	1046	1	109.5	836.8
1013	1681	1023	1	109.5	836.8
1013	1856	1021	1	109.5	836.8
1014	1851	1020	1	109.5	836.8
1014	1857	1022	1	109.5	836.8
1014	1857	1047	1	109.5	836.8
1015	1852	1021	1	109.5	836.8
1015	1858	1020	1	109.5	836.8
1015	1858	1268	1	109.5	836.8
1016	1853	1022	1	109.5	836.8
1016	1859	1269	1	109.5	836.8
1016	1859	1312	1	109.5	836.8
1017	1854	1023	1	109.5	836.8
1017	1860	1018	1	109.5	836.8
1017	1860	1270	1	109.5	836.8
1018	1849	1310	1	109.5	836.8
1018	1849	1331	1	109.5	836.8
1018	1860	1270	1	109.5	836.8
1020	1858	1268	1	109.5	836.8
1022	1857	1047	1	109.5	836.8
1024	1862	1032	1	109.5	836.8
1024	1862	1034	1	109.5	836.8
1024	1862	1041	1	109.5	836.8
1024	2011	1293	1	109.5	836.8
1024	2011	1298	1	109.5	836.8
1025	1863	1033	1	109.5	836.8
1025	1863	1036	1	109.5	836.8
1025	1863	1042	1	109.5	836.8
1025	2013	1295	1	109.5	836.8
1025	2013	1300	1	109.5	836.8
1025	2013	1308	1	109.5	836.8
1026	1864	1037	1	109.5	836.8
1026	1864	1043	1	109.5	836.8
1026	1894	1076	1	109.5	836.8
1026	1894	1081	1	109.5	836.8
1026	1894	1086	1	109.5	836.8
1027	1865	1029	1	109.5	836.8
1027	1865	1038	1	109.5	836.8
1027	1865	1044	1	109.5	836.8
1027	1895	1082	1	109.5	836.8
1028	1866	1030	1	109.5	836.8
1028	1866	1039	1	109.5	836.8
1028	1866	1045	1	109.5	836.8
1028	1896	1077	1	109.5	836.8
1028	1896	1083	1	109.5	836.8
1028	1896	1084	1	109.5	836.8
1029	1865	1038	1	109.5	836.8
1029	1865	1044	1	109.5	836.8
1029	1867	1034	1	109.5	836.8
1029	1867	1068	1	109.5	836.8
1030	1866	1039	1	109.5	836.8
1030	1866	1045	1	109.5	836.8
1030	1868	1035	1	109.5	836.8
1030	1868	1043	1	109.5	836.8
1031	1869	1036	1	109.5	836.8
1031	1869	1044	1	109.5	836.8
1031	1869	1069	1	109.5	836.8
1032	1862	1034	1	109.5	836.8
1032	1862	1041	1	109.5	836.8
1032	1870	1037	1	109.5	836.8
1032	1870	1042	1	109.5	836.8
1032	1870	1290	1	109.5	836.8
1033	1863	1036	1	109.5	836.8
1033	1863	1042	1	109.5	836.8
1033	1872	1039	1	109.5	836.8
1033	1872	1040	1	109.5	836.8
1033	1872	1292	1	109.5	836.8
1034	1862	1041	1	109.5	836.8
1034	1867	1068	1	109.5	836.8
1035	1868	1043	1	109.5	836.8
1036	1863	1042	1	109.5	836.8
1036	1869	1044	1	109.5	836.8
1036	1869	1069	1	109.5	836.8
1037	1864	1043	1	109.5	836.8
1037	1870	1042	1	109.5	836.8
1037	1870	1290	1	109.5	836.8
1038	1865	1044	1	109.5	836.8
1038	1871	1291	1	109.5	836.8
1039	1866	1045	1	109.5	836.8
1039	1872	1040	1	109.5	836.8
1039	1872	1292	1	109.5	836.8
1040	1861	1311	1	109.5	836.8
1040	1861	1312	1	109.5	836.8
1040	1861	1332	1	109.5	836.8
1040	1872	1292	1	109.5	836.8
1042	1870	1290	1	109.5	836.8
1044	1869	1069	1	109.5	836.8
1045	1855	1046	1	109.5	836.8
1046	1874	1054	1	109.5	836.8
1046	1874	1056	1	109.5	836.8
1046	1874	1063	1	109.5	836.8
1047	1875	1055	1	109.5	836.8
1047	1875	1058	1	109.5	836.8
1047	1875	1064	1	109.5	836.8
1048	1876	1059	1	109.5	836.8
1048	1876	1065	1	109.5	836.8
1048	1906	1098	1	109.5	836.8
1048	1906	1103	1	109.5	836.8
1048	1906	1108	1	109.5	836.8
1049	1877	1051	1	109.5	836.8
1049	1877	1060	1	109.5	836.8
1049	1877	1066	1	109.5	836.8
1049	1907	1104	1	109.5	836.8
1049	1907	1318	1	109.5	836.8
1050	1878	1052	1	109.5	836.8
1050	1878	1061	1	109.5	836.8
1050	1878	1067	1	109.5	836.8
1050	1908	1099	1	109.5	836.8
1050	1908	1105	1	109.5	836.8
1050	1908	1106	1	109.5	836.8
1051	1877	1060	1	109.5	836.8
1051	1877	1066	1	109.5	836.8
1051	1879	1056	1	109.5	836.8
1051	1879	1089	1	109.5	836.8
1051	1879	1090	1	109.5	836.8
1052	1878	1061	1	109.5	836.8
1052	1878	1067	1	109.5	836.8
1052	1880	1057	1	109.5	836.8
1052	1880	1065	1	109.5	836.8
1053	1881	1058	1	109.5	836.8
1053	1881	1066	1	109.5	836.8
1053	1881	1091	1	109.5	836.8
1054	1874	1056	1	109.5	836.8
1054	1874	1063	1	109.5	836.8
1054	1882	1059	1	109.5	836.8
1054	1882	1064	1	109.5	836.8
1055	1875	1058	1	109.5	836.8
1055	1875	1064	1	109.5	836.8
1055	1884	1061	1	109.5	836.8
1055	1884	1062	1	109.5	836.8
1056	1874	1063	1	109.5	836.8
1056	1879	1089	1	109.5	836.8
1056	1879	1090	1	109.5	836.8
1057	1705	1067	1	109.5	836.8
1057	1880	1065	1	109.5	836.8
1058	1875	1064	1	109.5	836.8
1058	1881	1066	1	109.5	836.8
1058	1881	1091	1	109.5	836.8
1059	1876	1065	1	109.5	836.8
1059	1882	1064	1	109.5	836.8
1060	1877	1066	1	109.5	836.8
1060	1883	1315	1	109.5	836.8
1061	1878	1067	1	109.5	836.8
1061	1884	1062	1	109.5	836.8
1062	1873	1313	1	109.5	836.8
1062	1873	1333	1	109.5	836.8
1066	1881	1091	1	109.5	836.8
1068	1886	1076	1	109.5	836.8
1068	1886	1078	1	109.5	836.8
1068	1886	1085	1	109.5	836.8
1069	1887	1077	1	109.5	836.8
1069	1887	1080	1	109.5	836.8
1069	1887	1086	1	109.5	836.8
1070	1888	1081	1	109.5	836.8
1070	1888	1087	1	109.5	836.8
1070	1918	1120	1	109.5	836.8
1070	1918	1125	1	109.5	836.8
1070	1918	1130	1	109.5	836.8
1071	1889	1073	1	109.5	836.8
1071	1889	1082	1	109.5	836.8
1071	1889	1088	1	109.5	836.8
1071	1919	1126	1	109.5	836.8
1072	1890	1074	1	109.5	836.8
1072	1890	1083	1	109.5	836.8
1072	1890	1089	1	109.5	836.8
1072	1920	1121	1	109.5	836.8
1072	1920	1127	1	109.5	836.8
1072	1920	1128	1	109.5	836.8
1073	1889	1082	1	109.5	836.8
1073	1889	1088	1	109.5	836.8
1073	1891	1078	1	109.5	836.8
1073	1891	1112	1	109.5	836.8
1074	1890	1083	1	109.5	836.8
1074	1890	1089	1	109.5	836.8
1074	1892	1079	1	109.5	836.8
1074	1892	1087	1	109.5	836.8
1075	1893	1080	1	109.5	836.8
1075	1893	1088	1	109.5	836.8
1075	1893	1113	1	109.5	836.8
1076	1886	1078	1	109.5	836.8
1076	1886	1085	1	109.5	836.8
1076	1894	1081	1	109.5	836.8
1076	1894	1086	1	109.5	836.8
1077	1887	1080	1	109.5	836.8
1077	1887	1086	1	109.5	836.8
1077	1896	1083	1	109.5	836.8
1077	1896	1084	1	109.5	836.8
1078	1886	1085	1	109.5	836.8
1078	1891	1112	1	109.5	836.8
1079	1892	1087	1	109.5	836.8
1080	1887	1086	1	109.5	836.8
1080	1893	1088	1	109.5	836.8
1080	1893	1113	1	109.5	836.8
1081	1888	1087	1	109.5	836.8
1081	1894	1086	1	109.5	836.8
1082	1889	1088	1	109.5	836.8
1083	1890	1089	1	109.5	836.8
1083	1896	1084	1	109.5	836.8
1084	1885	1314	1	109.5	836.8
1084	1885	1315	1	109.5	836.8
1084	1885	1334	1	109.5	836.8
1088	1893	1113	1	109.5	836.8
1089	1879	1090	1	109.5	836.8
1090	1898	1098	1	109.5	836.8
1090	1898	1100	1	109.5	836.8
1090	1898	1107	1	109.5	836.8
1091	1899	1099	1	109.5	836.8
1091	1899	1102	1	109.5	836.8
1091	1899	1108	1	109.5	836.8
1092	1900	1103	1	109.5	836.8
1092	1900	1109	1	109.5	836.8
1092	1930	1142	1	109.5	836.8
1092	1930	1147	1	109.5	836.8
1092	1930	1152	1	109.5	836.8
1093	1901	1095	1	109.5	836.8
1093	1901	1104	1	109.5	836.8
1093	1901	1110	1	109.5	836.8
1093	1931	1148	1	109.5	836.8
1093	1931	1321	1	109.5	836.8
1094	1902	1096	1	109.5	836.8
1094	1902	1105	1	109.5	836.8
1094	1902	1111	1	109.5	836.8
1094	1932	1143	1	109.5	836.8
1094	1932	1149	1	109.5	836.8
1094	1932	1150	1	109.5	836.8
1095	1901	1104	1	109.5	836.8
1095	1901	1110	1	109.5	836.8
1095	1903	1100	1	109.5	836.8
1095	1903	1133	1	109.5	836.8
1095	1903	1134	1	109.5	836.8
1096	1902	1105	1	109.5	836.8
1096	1902	1111	1	109.5	836.8
1096	1904	1101	1	109.5	836.8
1096	1904	1109	1	109.5	836.8
1097	1905	1102	1	109.5	836.8
1097	1905	1110	1	109.5	836.8
1097	1905	1135	1	109.5	836.8
1098	1898	1100	1	109.5	836.8
1098	1898	1107	1	109.5	836.8
1098	1906	1103	1	109.5	836.8
1098	1906	1108	1	109.5	836.8
1099	1899	1102	1	109.5	836.8
1099	1899	1108	1	109.5	836.8
1099	1908	1105	1	109.5	836.8
1099	1908	1106	1	109.5	836.8
1100	1898	1107	1	109.5	836.8
1100	1903	1133	1	109.5	836.8
1100	1903	1134	1	109.5	836.8
1101	1729	1111	1	109.5	836.8
1101	1904	1109	1	109.5	836.8
1102	1899	1108	1	109.5	836.8
1102	1905	1110	1	109.5	836.8
1102	1905	1135	1	109.5	836.8
1103	1900	1109	1	109.5	836.8
1103	1906	1108	1	109.5	836.8
1104	1901	1110	1	109.5	836.8
1104	1907	1318	1	109.5	836.8
1105	1902	1111	1	109.5	836.8
1105	1908	1106	1	109.5	836.8
1106	1897	1316	1	109.5	836.8
1106	1897	1335	1	109.5	836.8
1110	1905	1135	1	109.5	836.8
1112	1910	1120	1	109.5	836.8
1112	1910	1122	1	109.5	836.8
1112	1910	1129	1	109.5	836.8
1113	1911	1121	1	109.5	836.8
1113	1911	1124	1	109.5	836.8
1113	1911	1130	1	109.5	836.8
1114	1912	1125	1	109.5	836.8
1114	1912	1131	1	109.5	836.8
1114	1942	1164	1	109.5	836.8
1114	1942	1169	1	109.5	836.8
1114	1942	1174	1	109.5	836.8
1115	1913	1117	1	109.5	836.8
1115	1913	1126	1	109.5	836.8
1115	1913	1132	1	109.5	836.8
1115	1943	1170	1	109.5	836.8
1116	1914	1118	1	109.5	836.8
1116	1914	1127	1	109.5	836.8
1116	1914	1133	1	109.5	836.8
1116	1944	1165	1	109.5	836.8
1116	1944	1171	1	109.5	836.8
1116	1944	1172	1	109.5	836.8
1117	1913	1126	1	109.5	836.8
1117	1913	1132	1	109.5	836.8
1117	1915	1122	1	109.5	836.8
1117	1915	1156	1	109.5	836.8
1118	1914	1127	1	109.5	836.8
1118	1914	1133	1	109.5	836.8
1118	1916	1123	1	109.5	836.8
1118	1916	1131	1	109.5	836.8
1119	1917	1124	1	109.5	836.8
1119	1917	1132	1	109.5	836.8
1119	1917	1157	1	109.5	836.8
1120	1910	1122	1	109.5	836.8
1120	1910	1129	1	109.5	836.8
1120	1918	1125	1	109.5	836.8
1120	1918	1130	1	109.5	836.8
1121	1911	1124	1	109.5	836.8
1121	1911	1130	1	109.5	836.8
1121	1920	1127	1	109.5	836.8
1121	1920	1128	1	109.5	836.8
1122	1910	1129	1	109.5	836.8
1122	1915	1156	1	109.5	836.8
1123	1916	1131	1	109.5	836.8
1124	1911	1130	1	109.5	836.8
1124	1917	1132	1	109.5	836.8
1124	1917	1157	1	109.5	836.8
1125	1912	1131	1	109.5	836.8
1125	1918	1130	1	109.5	836.8
1126	1913	1132	1	109.5	836.8
1127	1914	1133	1	109.5	836.8
1127	1920	1128	1	109.5	836.8
1128	1909	1317	1	109.5	836.8
1128	1909	1318	1	109.5	836.8
1128	1909	1336	1	109.5	836.8
1132	1917	1157	1	109.5	836.8
1133	1903	1134	1	109.5	836.8
1134	1922	1142	1	109.5	836.8
1134	1922	1144	1	109.5	836.8
1134	1922	1151	1	109.5	836.8
1135	1923	1143	1	109.5	836.8
1135	1923	1146	1	109.5	836.8
1135	1923	1152	1	109.5	836.8
1136	1924	1147	1	109.5	836.8
1136	1924	1153	1	109.5	836.8
1136	1954	1186	1	109.5	836.8
1136	1954	1191	1	109.5	836.8
1136	1954	1196	1	109.5	836.8
1137	1925	1139	1	109.5	836.8
1137	1925	1148	1	109.5	836.8
1137	1925	1154	1	109.5	836.8
1137	1955	1192	1	109.5	836.8
1137	1955	1324	1	109.5	836.8
1138	1926	1140	1	109.5	836.8
1138	1926	1149	1	109.5	836.8
1138	1926	1155	1	109.5	836.8
1138	1956	1187	1	109.5	836.8
1138	1956	1193	1	109.5	836.8
1138	1956	1194	1	109.5	836.8
1139	1925	1148	1	109.5	836.8
1139	1925	1154	1	109.5	836.8
1139	1927	1144	1	109.5	836.8
1139	1927	1177	1	109.5	836.8
1139	1927	1178	1	109.5	836.8
1140	1926	1149	1	109.5	836.8
1140	1926	1155	1	109.5	836.8
1140	1928	1145	1	109.5	836.8
1140	1928	1153	1	109.5	836.8
1141	1929	1146	1	109.5	836.8
1141	1929	1154	1	109.5	836.8
1141	1929	1179	1	109.5	836.8
1142	1922	1144	1	109.5	836.8
1142	1922	1151	1	109.5	836.8
1142	1930	1147	1	109.5	836.8
1142	1930	1152	1	109.5	836.8
1143	1923	1146	1	109.5	836.8
1143	1923	1152	1	109.5	836.8
1143	1932	1149	1	109.5	836.8
1143	1932	1150	1	109.5	836.8
1144	1922	1151	1	109.5	836.8
1144	1927	1177	1	109.5	836.8
1144	1927	1178	1	109.5	836.8
1145	1753	1155	1	109.5	836.8
1145	1928	1153	1	109.5	836.8
1146	1923	1152	1	109.5	836.8
1146	1929	1154	1	109.5	836.8
1146	1929	1179	1	109.5	836.8
1147	1924	1153	1	109.5	836.8
1147	1930	1152	1	109.5	836.8
1148	1925	1154	1	109.5	836.8
1148	1931	1321	1	109.5	836.8
1149	1926	1155	1	109.5	836.8
1149	1932	1150	1	109.5	836.8
1150	1921	1319	1	109.5	836.8
1150	1921	1337	1	109.5	836.8
1154	1929	1179	1	109.5	836.8
1156	1934	1164	1	109.5	836.8
1156	1934	1166	1	109.5	836.8
1156	1934	1173	1	109.5	836.8
1157	1935	1165	1	109.5	836.8
1157	1935	1168	1	109.5	836.8
1157	1935	1174	1	109.5	836.8
1158	1936	1169	1	109.5	836.8
1158	1936	1175	1	109.5	836.8
1158	1966	1208	1	109.5	836.8
1158	1966	1213	1	109.5	836.8
1158	1966	1218	1	109.5	836.8
1159	1937	1161	1	109.5	836.8
1159	1937	1170	1	109.5	836.8
1159	1937	1176	1	109.5	836.8
1159	1967	1214	1	109.5	836.8
1160	1938	1162	1	109.5	836.8
1160	1938	1171	1	109.5	836.8
1160	1938	1177	1	109.5	836.8
1160	1968	1209	1	109.5	836.8
1160	1968	1215	1	109.5	836.8
1160	1968	1216	1	109.5	836.8
1161	1937	1170	1	109.5	836.8
1161	1937	1176	1	109.5	836.8
1161	1939	1166	1	109.5	836.8
1161	1939	1200	1	109.5	836.8
1162	1938	1171	1	109.5	836.8
1162	1938	1177	1	109.5	836.8
1162	1940	1167	1	109.5	836.8
1162	1940	1175	1	109.5	836.8
1163	1941	1168	1	109.5	836.8
1163	1941	1176	1	109.5	836.8
1163	1941	1201	1	109.5	836.8
1164	1934	1166	1	109.5	836.8
1164	1934	1173	1	109.5	836.8
1164	1942	1169	1	109.5	836.8
1164	1942	1174	1	109.5	836.8
1165	1935	1168	1	109.5	836.8
1165	1935	1174	1	109.5	836.8
1165	1944	1171	1	109.5	836.8
1165	1944	1172	1	109.5	836.8
1166	1934	1173	1	109.5	836.8
1166	1939	1200	1	109.5	836.8
1167	1940	1175	1	109.5	836.8
1168	1935	1174	1	109.5	836.8
1168	1941	1176	1	109.5	836.8
1168	1941	1201	1	109.5	836.8
1169	1936	1175	1	109.5	836.8
1169	1942	1174	1	109.5	836.8
1170	1937	1176	1	109.5	836.8
1171	1938	1177	1	109.5	836.8
1171	1944	1172	1	109.5	836.8
1172	1933	1320	1	109.5	836.8
1172	1933	1321	1	109.5	836.8
1172	1933	1338	1	109.5	836.8
1176	1941	1201	1	109.5	836.8
1177	1927	1178	1	109.5	836.8
1178	1946	1186	1	109.5	836.8
1178	1946	1188	1	109.5	836.8
1178	1946	1195	1	109.5	836.8
1179	1947	1187	1	109.5	836.8
1179	1947	1190	1	109.5	836.8
1179	1947	1196	1	109.5	836.8
1180	1948	1191	1	109.5	836.8
1180	1948	1197	1	109.5	836.8
1180	1978	1230	1	109.5	836.8
1180	1978	1235	1	109.5	836.8
1180	1978	1240	1	109.5	836.8
1181	1949	1183	1	109.5	836.8
1181	1949	1192	1	109.5	836.8
1181	1949	1198	1	109.5	836.8
1181	1979	1236	1	109.5	836.8
1181	1979	1327	1	109.5	836.8
1182	1950	1184	1	109.5	836.8
1182	1950	1193	1	109.5	836.8
1182	1950	1199	1	109.5	836.8
1182	1980	1231	1	109.5	836.8
1182	1980	1237	1	109.5	836.8
1182	1980	1238	1	109.5	836.8
1183	1949	1192	1	109.5	836.8
1183	1949	1198	1	109.5	836.8
1183	1951	1188	1	109.5	836.8
1183	1951	1221	1	109.5	836.8
1183	1951	1222	1	109.5	836.8
1184	1950	1193	1	109.5	836.8
1184	1950	1199	1	109.5	836.8
1184	1952	1189	1	109.5	836.8
1184	1952	1197	1	109.5	836.8
1185	1953	1190	1	109.5	836.8
1185	1953	1198	1	109.5	836.8
1185	1953	1223	1	109.5	836.8
1186	1946	1188	1	109.5	836.8
1186	1946	1195	1	109.5	836.8
1186	1954	1191	1	109.5	836.8
1186	1954	1196	1	109.5	836.8
1187	1947	1190	1	109.5	836.8
1187	1947	1196	1	109.5	836.8
1187	1956	1193	1	109.5	836.8
1187	1956	1194	1	109.5	836.8
1188	1946	1195	1	109.5	836.8
1188	1951	1221	1	109.5	836.8
1188	1951	1222	1	109.5	836.8
1189	1777	1199	1	109.5	836.8
1189	1952	1197	1	109.5	836.8
1190	1947	1196	1	109.5	836.8
1190	1953	1198	1	109.5	836.8
1190	1953	1223	1	109.5	836.8
1191	1948	1197	1	109.5	836.8
1191	1954	1196	1	109.5	836.8
1192	1949	1198	1	109.5	836.8
1192	1955	1324	1	109.5	836.8
1193	1950	1199	1	109.5	836.8
1193	1956	1194	1	109.5	836.8
1194	1945	1322	1	109.5	836.8
1194	1945	1339	1	109.5	836.8
1198	1953	1223	1	109.5	836.8
1200	1958	1208	1	109.5	836.8
1200	1958	1210	1	109.5	836.8
1200	1958	1217	1	109.5	836.8
1201	1959	1209	1	109.5	836.8
1201	1959	1212	1	109.5	836.8
1201	1959	1218	1	109.5	836.8
1202	1960	1213	1	109.5	836.8
1202	1960	1219	1	109.5	836.8
1202	1990	1252	1	109.5	836.8
1202	1990	1257	1	109.5	836.8
1202	1990	1262	1	109.5	836.8
1203	1961	1205	1	109.5	836.8
1203	1961	1214	1	109.5	836.8
1203	1961	1220	1	109.5	836.8
1203	1991	1258	1	109.5	836.8
1204	1962	1206	1	109.5	836.8
1204	1962	1215	1	109.5	836.8
1204	1962	1221	1	109.5	836.8
1204	1992	1253	1	109.5	836.8
1204	1992	1259	1	109.5	836.8
1204	1992	1260	1	109.5	836.8
1205	1961	1214	1	109.5	836.8
1205	1961	1220	1	109.5	836.8
1205	1963	1210	1	109.5	836.8
1205	1963	1244	1	109.5	836.8
1206	1962	1215	1	109.5	836.8
1206	1962	1221	1	109.5	836.8
1206	1964	1211	1	109.5	836.8
1206	1964	1219	1	109.5	836.8
1207	1965	1212	1	109.5	836.8
1207	1965	1220	1	109.5	836.8
1207	1965	1245	1	109.5	836.8
1208	1958	1210	1	109.5	836.8
1208	1958	1217	1	109.5	836.8
1208	1966	1213	1	109.5	836.8
1208	1966	1218	1	109.5	836.8
1209	1959	1212	1	109.5	836.8
1209	1959	1218	1	109.5	836.8
1209	1968	1215	1	109.5	836.8
1209	1968	1216	1	109.5	836.8
1210	1958	1217	1	109.5	836.8
1210	1963	1244	1	109.5	836.8
1211	1964	1219	1	109.5	836.8
1212	1959	1218	1	109.5	836.8
1212	1965	1220	1	109.5	836.8
1212	1965	1245	1	109.5	836.8
1213	1960	1219	1	109.5	836.8
1213	1966	1218	1	109.5	836.8
1214	1961	1220	1	109.5	836.8
1215	1962	1221	1	109.5	836.8
1215	1968	1216	1	109.5	836.8
1216	1957	1323	1	109.5	836.8
1216	1957	1324	1	109.5	836.8
1216	1957	1340	1	109.5	836.8
1220	1965	1245	1	109.5	836.8
1221	1951	1222	1	109.5	836.8
1222	1970	1230	1	109.5	836.8
1222	1970	1232	1	109.5	836.8
1222	1970	1239	1	109.5	836.8
1223	1971	1231	1	109.5	836.8
1223	1971	1234	1	109.5	836.8
1223	1971	1240	1	109.5	836.8
1224	1972	1235	1	109.5	836.8
1224	1972	1241	1	109.5	836.8
1224	2002	1274	1	109.5	836.8
1224	2002	1279	1	109.5	836.8
1224	2002	1284	1	109.5	836.8
1225	1973	1227	1	109.5	836.8
1225	1973	1236	1	109.5	836.8
1225	1973	1242	1	109.5	836.8
1225	2003	1280	1	109.5	836.8
1225	2003	1330	1	109.5	836.8
1226	1974	1228	1	109.5	836.8
1226	1974	1237	1	109.5	836.8
1226	1974	1243	1	109.5	836.8
1226	2004	1275	1	109.5	836.8
1226	2004	1281	1	109.5	836.8
1226	2004	1282	1	109.5	836.8
1227	1973	1236	1	109.5	836.8
1227	1973	1242	1	109.5	836.8
1227	1975	1232	1	109.5	836.8
1227	1975	1265	1	109.5	836.8
1227	1975	1266	1	109.5	836.8
1228	1974	1237	1	109.5	836.8
1228	1974	1243	1	109.5	836.8
1228	1976	1233	1	109.5	836.8
1228	1976	1241	1	109.5	836.8
1229	1977	1234	1	109.5	836.8
1229	1977	1242	1	109.5	836.8
1229	1977	1267	1	109.5	836.8
1230	1970	1232	1	109.5	836.8
1230	1970	1239	1	109.5	836.8
1230	1978	1235	1	109.5	836.8
1230	1978	1240	1	109.5	836.8
1231	1971	1234	1	109.5	836.8
1231	1971	1240	1	109.5	836.8
1231	1980	1237	1	109.5	836.8
1231	1980	1238	1	109.5	836.8
1232	1970	1239	1	109.5	836.8
1232	1975	1265	1	109.5	836.8
1232	1975	1266	1	109.5	836.8
1233	1801	1243	1	109.5	836.8
1233	1976	1241	1	109.5	836.8
1234	1971	1240	1	109.5	836.8
1234	1977	1242	1	109.5	836.8
1234	1977	1267	1	109.5	836.8
1235	1972	1241	1	109.5	836.8
1235	1978	1240	1	109.5	836.8
1236	1973	1242	1	109.5	836.8
1236	1979	1327	1	109.5	836.8
1237	1974	1243	1	109.5	836.8
1237	1980	1238	1	109.5	836.8
1238	1969	1325	1	109.5	836.8
1238	1969	1341	1	109.5	836.8
1242	1977	1267	1	109.5	836.8
1244	1982	1252	1	109.5	836.8
1244	1982	1254	1	109.5	836.8
1244	1982	1261	1	109.5	836.8
1245	1983	1253	1	109.5	836.8
1245	1983	1256	1	109.5	836.8
1245	1983	1262	1	109.5	836.8
1246	1984	1257	1	109.5	836.8
1246	1984	1263	1	109.5	836.8
1246	2014	1296	1	109.5	836.8
1246	2014	1301	1	109.5	836.8
1246	2014	1306	1	109.5	836.8
1247	1985	1249	1	109.5	836.8
1247	1985	1258	1	109.5	836.8
1247	1985	1264	1	109.5	836.8
1247	2015	1302	1	109.5	836.8
1248	1986	1250	1	109.5	836.8
1248	1986	1259	1	109.5	836.8
1248	1986	1265	1	109.5	836.8
1248	2016	1297	1	109.5	836.8
1248	2016	1303	1	109.5	836.8
1248	2016	1304	1	109.5	836.8
1249	1985	1258	1	109.5	836.8
1249	1985	1264	1	109.5	836.8
1249	1987	1254	1	109.5	836.8
1249	1987	1288	1	109.5	836.8
1250	1986	1259	1	109.5	836.8
1250	1986	1265	1	109.5	836.8
1250	1988	1255	1	109.5	836.8
1250	1988	1263	1	109.5	836.8
1251	1989	1256	1	109.5	836.8
1251	1989	1264	1	109.5	836.8
1251	1989	1289	1	109.5	836.8
1252	1982	1254	1	109.5	836.8
1252	1982	1261	1	109.5	836.8
1252	1990	1257	1	109.5	836.8
1252	1990	1262	1	109.5	836.8
1253	1983	1256	1	109.5	836.8
1253	1983	1262	1	109.5	836.8
1253	1992	1259	1	109.5	836.8
1253	1992	1260	1	109.5	836.8
1254	1982	1261	1	109.5	836.8
1254	1987	1288	1	109.5	836.8
1255	1988	1263	1	109.5	836.8
1256	1983	1262	1	109.5	836.8
1256	1989	1264	1	109.5	836.8
1256	1989	1289	1	109.5	836.8
1257	1984	1263	1	109.5	836.8
1257	1990	1262	1	109.5	836.8
1258	1985	1264	1	109.5	836.8
1259	1986	1265	1	109.5	836.8
1259	1992	1260	1	109.5	836.8
1260	1981	1326	1	109.5	836.8
1260	1981	1327	1	109.5	836.8
1260	1981	1342	1	109.5	836.8
1264	1989	1289	1	109.5	836.8
1265	1975	1266	1	109.5	836.8
1266	1994	1274	1	109.5	836.8
1266	1994	1276	1	109.5	836.8
1266	1994	1283	1	109.5	836.8
1267	1995	1275	1	109.5	836.8
1267	1995	1278	1	109.5	836.8
1267	1995	1284	1	109.5	836.8
1268	1996	1279	1	109.5	836.8
1268	1996	1285	1	109.5	836.8
1269	1859	1312	1	109.5	836.8
1269	1997	1271	1	109.5	836.8
1269	1997	1280	1	109.5	836.8
1269	1997	1286	1	109.5	836.8
1270	1998	1272	1	109.5	836.8
1270	1998	1281	1	109.5	836.8
1270	1998	1287	1	109.5	836.8
1271	1997	1280	1	109.5	836.8
1271	1997	1286	1	109.5	836.8
1271	1999	1276	1	109.5	836.8
1271	1999	1309	1	109.5	836.8
1272	1998	1281	1	109.5	836.8
1272	1998	1287	1	109.5	836.8
1272	2000	1277	1	109.5	836.8
1272	2000	1285	1	109.5	836.8
1273	2001	1278	1	109.5	836.8
1273	2001	1286	1	109.5	836.8
1274	1994	1276	1	109.5	836.8
1274	1994	1283	1	109.5	836.8
1274	2002	1279	1	109.5	836.8
1274	2002	1284	1	109.5	836.8
1275	1995	1278	1	109.5	836.8
1275	1995	1284	1	109.5	836.8
1275	2004	1281	1	109.5	836.8
1275	2004	1282	1	109.5	836.8
1276	1994	1283	1	109.5	836.8
1276	1999	1309	1	109.5	836.8
1277	1825	1287	1	109.5	836.8
1277	2000	1285	1	109.5	836.8
1278	1995	1284	1	109.5	836.8
1278	2001	1286	1	109.5	836.8
1279	1996	1285	1	109.5	836.8
1279	2002	1284	1	109.5	836.8
1280	1997	1286	1	109.5	836.8
1280	2003	1330	1	109.5	836.8
1281	1998	1287	1	109.5	836.8
1281	2004	1282	1	109.5	836.8
1282	1993	1328	1	109.5	836.8
1282	1993	1343	1	109.5	836.8
1288	2006	1296	1	109.5	836.8
1288	2006	1298	1	109.5	836.8
1288	2006	1305	1	109.5	836.8
1289	2007	1297	1	109.5	836.8
1289	2007	1300	1	109.5	836.8
1289	2007	1306	1	109.5	836.8
1290	2008	1301	1	109.5	836.8
1290	2008	1307	1	109.5	836.8
1291	2009	1293	1	109.5	836.8
1291	2009	1302	1	109.5	836.8
1291	2009	1308	1	109.5	836.8
1292	2010	1294	1	109.5	836.8
1292	2010	1303	1	109.5	836.8
1292	2010	1309	1	109.5	836.8
1293	2009	1302	1	109.5	836.8
1293	2009	1308	1	109.5	836.8
1293	2011	1298	1	109.5	836.8
1294	2010	1303	1	109.5	836.8
1294	2010	1309	1	109.5	836.8
1294	2012	1299	1	109.5	836.8
1294	2012	1307	1	109.5	836.8
1295	2013	1300	1	109.5	836.8
1295	2013	1308	1	109.5	836.8
1296	2006	1298	1	109.5	836.8
1296	2006	1305	1	109.5	836.8
1296	2014	1301	1	109.5	836.8
1296	2014	1306	1	109.5	836.8
1297	2007	1300	1	109.5	836.8
1297	2007	1306	1	109.5	836.8
1297	2016	1303	1	109.5	836.8
1297	2016	1304	1	109.5	836.8
1298	2006	1305	1	109.5	836.8
1299	2012	1307	1	109.5	836.8
1300	2007	1306	1	109.5	836.8
1300	2013	1308	1	109.5	836.8
1301	2008	1307	1	109.5	836.8
1301	2014	1306	1	109.5	836.8
1302	2009	1308	1	109.5	836.8
1303	2010	1309	1	109.5	836.8
1303	2016	1304	1	109.5	836.8
1304	2005	1329	1	109.5	836.8
1304	2005	1330	1	109.5	836.8
1304	2005	1344	1	109.5	836.8
1310	1496	1343	1	109.5	836.8
1310	1849	1331	1	109.5	836.8
1311	1508	1344	1	109.5	836.8
1311	1861	1312	1	109.5	836.8
1311	1861	1332	1	109.5	836.8
1312	1861	1332	1	109.5	836.8
1313	1352	1331	1	109.5	836.8
1313	1873	1333	1	109.5	836.8
1314	1364	1332	1	109.5	836.8
1314	1885	1315	1	109.5	836.8
1314	1885	1334	1	109.5	836.8
1315	1885	1334	1	109.5	836.8
1316	1376	1333	1	109.5	836.8
1316	1897	1335	1	109.5	836.8
1317	1388	1334	1	109.5	836.8
1317	1909	1318	1	109.5	836.8
1317	1909	1336	1	109.5	836.8
1318	1909	1336	1	109.5	836.8
1319	1400	1335	1	109.5	836.8
1319	1921	1337	1	109.5	836.8
1320	1412	1336	1	109.5	836.8
1320	1933	1321	1	109.5	836.8
1320	1933	1338	1	109.5	836.8
1321	1933	1338	1	109.5	836.8
1322	1424	1337	1	109.5	836.8
1322	1945	1339	1	109.5	836.8
1323	1436	1338	1	109.5	836.8
1323	1957	1324	1	109.5	836.8
1323	1957	1340	1	109.5	836.8
1324	1957	1340	1	109.5	836.8
1325	1448	1339	1	109.5	836.8
1325	1969	1341	1	109.5	836.8
1326	1460	1340	1	109.5	836.8
1326	1981	1327	1	109.5	836.8
1326	1981	1342	1	109.5	836.8
1327	1981	1342	1	109.5	836.8
1328	1472	1341	1	109.5	836.8
1328	1993	1343	1	109.5	836.8
1329	1484	1342	1	109.5	836.8
1329	2005	1330	1	109.5	836.8
1329	2005	1344	1	109.5	836.8
1330	2005	1344	1	109.5	836.8
1345	2	1664	1	149.0	836.8
1345	17	1356	1	149.0	836.8
1345	356	1520	1	149.0	836.8
1345	366	1518	1	149.0	836.8
1346	1	1495	1	149.0	836.8
1346	10	1354	1	149.0	836.8
1346	12	1351	1	149.0	836.8
1346	18	1859	1	149.0	836.8
1347	3	1497	1	149.0	836.8
1347	11	1356	1	149.0	836.8
1347	13	1353	1	149.0	836.8
1347	19	1354	1	149.0	836.8
1348	4	1378	1	149.0	836.8
1348	14	1354	1	149.0	836.8
1348	20	1352	1	149.0	836.8
1348	1009	1857	1	149.0	836.8
1349	5	1379	1	149.0	836.8
1349	7	1351	1	149.0	836.8
1349	15	1355	1	149.0	836.8
1349	21	1353	1	149.0	836.8
1350	6	1380	1	149.0	836.8
1350	8	1352	1	149.0	836.8
1350	16	1356	1	149.0	836.8
1350	22	1849	1	149.0	836.8
1351	45	1362	1	149.0	836.8
1351	74	1370	1	149.0	836.8
1352	1313	1873	1	149.0	836.8
1352	1331	1849	1	149.0	836.8
1353	9	1516	1	149.0	836.8
1353	76	1371	1	149.0	836.8
1354	302	1492	1	149.0	836.8
1355	33	1357	1	149.0	836.8
1355	303	1493	1	149.0	836.8
1355	362	1514	1	149.0	836.8
1356	304	1494	1	149.0	836.8
1357	24	1676	1	149.0	836.8
1357	40	1368	1	149.0	836.8
1357	380	1532	1	149.0	836.8
1358	23	1507	1	149.0	836.8
1358	32	1366	1	149.0	836.8
1358	35	1363	1	149.0	836.8
1358	41	1871	1	149.0	836.8
1359	25	1509	1	149.0	836.8
1359	34	1368	1	149.0	836.8
1359	36	1365	1	149.0	836.8
1359	42	1366	1	149.0	836.8
1360	26	1390	1	149.0	836.8
1360	37	1366	1	149.0	836.8
1360	43	1364	1	149.0	836.8
1360	1031	1869	1	149.0	836.8
1361	27	1391	1	149.0	836.8
1361	29	1363	1	149.0	836.8
1361	38	1367	1	149.0	836.8
1361	44	1365	1	149.0	836.8
1362	28	1392	1	149.0	836.8
1362	30	1364	1	149.0	836.8
1362	39	1368	1	149.0	836.8
1363	46	1895	1	149.0	836.8
1363	96	1382	1	149.0	836.8
1364	1314	1885	1	149.0	836.8
1364	1332	1861	1	149.0	836.8
1365	31	1528	1	149.0	836.8
1365	98	1383	1	149.0	836.8
1366	324	1504	1	149.0	836.8
1367	59	1675	1	149.0	836.8
1367	325	1505	1	149.0	836.8
1367	386	1526	1	149.0	836.8
1368	326	1506	1	149.0	836.8
1369	75	1520	1	149.0	836.8
1369	90	1380	1	149.0	836.8
1369	403	1544	1	149.0	836.8
1369	413	1542	1	149.0	836.8
1370	83	1378	1	149.0	836.8
1370	85	1375	1	149.0	836.8
1370	91	1883	1	149.0	836.8
1371	84	1380	1	149.0	836.8
1371	86	1377	1	149.0	836.8
1371	92	1378	1	149.0	836.8
1372	77	1402	1	149.0	836.8
1372	87	1378	1	149.0	836.8
1372	93	1376	1	149.0	836.8
1372	1053	1881	1	149.0	836.8
1373	78	1403	1	149.0	836.8
1373	80	1375	1	149.0	836.8
1373	88	1379	1	149.0	836.8
1373	94	1377	1	149.0	836.8
1374	79	1404	1	149.0	836.8
1374	81	1376	1	149.0	836.8
1374	89	1380	1	149.0	836.8
1374	95	1873	1	149.0	836.8
1375	118	1386	1	149.0	836.8
1375	119	1394	1	149.0	836.8
1376	1316	1897	1	149.0	836.8
1376	1333	1873	1	149.0	836.8
1377	82	1540	1	149.0	836.8
1377	121	1395	1	149.0	836.8
1379	106	1381	1	149.0	836.8
1379	409	1538	1	149.0	836.8
1381	97	1532	1	149.0	836.8
1381	113	1392	1	149.0	836.8
1381	427	1556	1	149.0	836.8
1382	105	1390	1	149.0	836.8
1382	108	1387	1	149.0	836.8
1382	114	1895	1	149.0	836.8
1383	107	1392	1	149.0	836.8
1383	109	1389	1	149.0	836.8
1383	115	1390	1	149.0	836.8
1384	99	1414	1	149.0	836.8
1384	110	1390	1	149.0	836.8
1384	116	1388	1	149.0	836.8
1384	1075	1893	1	149.0	836.8
1385	100	1415	1	149.0	836.8
1385	102	1387	1	149.0	836.8
1385	111	1391	1	149.0	836.8
1385	117	1389	1	149.0	836.8
1386	101	1416	1	149.0	836.8
1386	103	1388	1	149.0	836.8
1386	112	1392	1	149.0	836.8
1387	47	1919	1	149.0	836.8
1387	141	1406	1	149.0	836.8
1388	1317	1909	1	149.0	836.8
1388	1334	1885	1	149.0	836.8
1389	104	1552	1	149.0	836.8
1389	143	1407	1	149.0	836.8
1391	53	1531	1	149.0	836.8
1391	433	1550	1	149.0	836.8
1393	120	1544	1	149.0	836.8
1393	135	1404	1	149.0	836.8
1393	450	1568	1	149.0	836.8
1393	460	1566	1	149.0	836.8
1394	128	1402	1	149.0	836.8
1394	130	1399	1	149.0	836.8
1394	136	1907	1	149.0	836.8
1395	129	1404	1	149.0	836.8
1395	131	1401	1	149.0	836.8
1395	137	1402	1	149.0	836.8
1396	122	1426	1	149.0	836.8
1396	132	1402	1	149.0	836.8
1396	138	1400	1	149.0	836.8
1396	1097	1905	1	149.0	836.8
1397	123	1427	1	149.0	836.8
1397	125	1399	1	149.0	836.8
1397	133	1403	1	149.0	836.8
1397	139	1401	1	149.0	836.8
1398	124	1428	1	149.0	836.8
1398	126	1400	1	149.0	836.8
1398	134	1404	1	149.0	836.8
1398	140	1897	1	149.0	836.8
1399	163	1410	1	149.0	836.8
1399	164	1418	1	149.0	836.8
1400	1319	1921	1	149.0	836.8
1400	1335	1897	1	149.0	836.8
1401	127	1564	1	149.0	836.8
1401	166	1419	1	149.0	836.8
1403	151	1405	1	149.0	836.8
1403	456	1562	1	149.0	836.8
1405	142	1556	1	149.0	836.8
1405	158	1416	1	149.0	836.8
1405	474	1580	1	149.0	836.8
1406	150	1414	1	149.0	836.8
1406	153	1411	1	149.0	836.8
1406	159	1919	1	149.0	836.8
1407	152	1416	1	149.0	836.8
1407	154	1413	1	149.0	836.8
1407	160	1414	1	149.0	836.8
1408	144	1438	1	149.0	836.8
1408	155	1414	1	149.0	836.8
1408	161	1412	1	149.0	836.8
1408	1119	1917	1	149.0	836.8
1409	145	1439	1	149.0	836.8
1409	147	1411	1	149.0	836.8
1409	156	1415	1	149.0	836.8
1409	162	1413	1	149.0	836.8
1410	146	1440	1	149.0	836.8
1410	148	1412	1	149.0	836.8
1410	157	1416	1	149.0	836.8
1411	48	1943	1	149.0	836.8
1411	186	1430	1	149.0	836.8
1412	1320	1933	1	149.0	836.8
1412	1336	1909	1	149.0	836.8
1413	149	1576	1	149.0	836.8
1413	188	1431	1	149.0	836.8
1415	54	1555	1	149.0	836.8
1415	480	1574	1	149.0	836.8
1417	165	1568	1	149.0	836.8
1417	180	1428	1	149.0	836.8
1417	497	1592	1	149.0	836.8
1417	507	1590	1	149.0	836.8
1418	173	1426	1	149.0	836.8
1418	175	1423	1	149.0	836.8
1418	181	1931	1	149.0	836.8
1419	174	1428	1	149.0	836.8
1419	176	1425	1	149.0	836.8
1419	182	1426	1	149.0	836.8
1420	167	1450	1	149.0	836.8
1420	177	1426	1	149.0	836.8
1420	183	1424	1	149.0	836.8
1420	1141	1929	1	149.0	836.8
1421	168	1451	1	149.0	836.8
1421	170	1423	1	149.0	836.8
1421	178	1427	1	149.0	836.8
1421	184	1425	1	149.0	836.8
1422	169	1452	1	149.0	836.8
1422	171	1424	1	149.0	836.8
1422	179	1428	1	149.0	836.8
1422	185	1921	1	149.0	836.8
1423	208	1434	1	149.0	836.8
1423	209	1442	1	149.0	836.8
1424	1322	1945	1	149.0	836.8
1424	1337	1921	1	149.0	836.8
1425	172	1588	1	149.0	836.8
1425	211	1443	1	149.0	836.8
1427	196	1429	1	149.0	836.8
1427	503	1586	1	149.0	836.8
1429	187	1580	1	149.0	836.8
1429	203	1440	1	149.0	836.8
1429	521	1604	1	149.0	836.8
1430	195	1438	1	149.0	836.8
1430	198	1435	1	149.0	836.8
1430	204	1943	1	149.0	836.8
1431	197	1440	1	149.0	836.8
1431	199	1437	1	149.0	836.8
1431	205	1438	1	149.0	836.8
1432	189	1462	1	149.0	836.8
1432	200	1438	1	149.0	836.8
1432	206	1436	1	149.0	836.8
1432	1163	1941	1	149.0	836.8
1433	190	1463	1	149.0	836.8
1433	192	1435	1	149.0	836.8
1433	201	1439	1	149.0	836.8
1433	207	1437	1	149.0	836.8
1434	191	1464	1	149.0	836.8
1434	193	1436	1	149.0	836.8
1434	202	1440	1	149.0	836.8
1435	49	1967	1	149.0	836.8
1435	231	1454	1	149.0	836.8
1436	1323	1957	1	149.0	836.8
1436	1338	1933	1	149.0	836.8
1437	194	1600	1	149.0	836.8
1437	233	1455	1	149.0	836.8
1439	55	1579	1	149.0	836.8
1439	527	1598	1	149.0	836.8
1441	210	1592	1	149.0	836.8
1441	225	1452	1	149.0	836.8
1441	544	1616	1	149.0	836.8
1441	554	1614	1	149.0	836.8
1442	218	1450	1	149.0	836.8
1442	220	1447	1	149.0	836.8
1442	226	1955	1	149.0	836.8
1443	219	1452	1	149.0	836.8
1443	221	1449	1	149.0	836.8
1443	227	1450	1	149.0	836.8
1444	212	1474	1	149.0	836.8
1444	222	1450	1	149.0	836.8
1444	228	1448	1	149.0	836.8
1444	1185	1953	1	149.0	836.8
1445	213	1475	1	149.0	836.8
1445	215	1447	1	149.0	836.8
1445	223	1451	1	149.0	836.8
1445	229	1449	1	149.0	836.8
1446	214	1476	1	149.0	836.8
1446	216	1448	1	149.0	836.8
1446	224	1452	1	149.0	836.8
1446	230	1945	1	149.0	836.8
1447	253	1458	1	149.0	836.8
1447	254	1466	1	149.0	836.8
1448	1325	1969	1	149.0	836.8
1448	1339	1945	1	149.0	836.8
1449	217	1612	1	149.0	836.8
1449	256	1467	1	149.0	836.8
1451	241	1453	1	149.0	836.8
1451	550	1610	1	149.0	836.8
1453	232	1604	1	149.0	836.8
1453	248	1464	1	149.0	836.8
1453	568	1628	1	149.0	836.8
1454	240	1462	1	149.0	836.8
1454	243	1459	1	149.0	836.8
1454	249	1967	1	149.0	836.8
1455	242	1464	1	149.0	836.8
1455	244	1461	1	149.0	836.8
1455	250	1462	1	149.0	836.8
1456	234	1486	1	149.0	836.8
1456	245	1462	1	149.0	836.8
1456	251	1460	1	149.0	836.8
1456	1207	1965	1	149.0	836.8
1457	235	1487	1	149.0	836.8
1457	237	1459	1	149.0	836.8
1457	246	1463	1	149.0	836.8
1457	252	1461	1	149.0	836.8
1458	236	1488	1	149.0	836.8
1458	238	1460	1	149.0	836.8
1458	247	1464	1	149.0	836.8
1459	50	1991	1	149.0	836.8
1459	276	1478	1	149.0	836.8
1460	1326	1981	1	149.0	836.8
1460	1340	1957	1	149.0	836.8
1461	239	1624	1	149.0	836.8
1461	278	1479	1	149.0	836.8
1463	56	1603	1	149.0	836.8
1463	574	1622	1	149.0	836.8
1465	255	1616	1	149.0	836.8
1465	270	1476	1	149.0	836.8
1465	591	1640	1	149.0	836.8
1465	601	1638	1	149.0	836.8
1466	263	1474	1	149.0	836.8
1466	265	1471	1	149.0	836.8
1466	271	1979	1	149.0	836.8
1467	264	1476	1	149.0	836.8
1467	266	1473	1	149.0	836.8
1467	272	1474	1	149.0	836.8
1468	257	1498	1	149.0	836.8
1468	267	1474	1	149.0	836.8
1468	273	1472	1	149.0	836.8
1468	1229	1977	1	149.0	836.8
1469	258	1499	1	149.0	836.8
1469	260	1471	1	149.0	836.8
1469	268	1475	1	149.0	836.8
1469	274	1473	1	149.0	836.8
1470	259	1500	1	149.0	836.8
1470	261	1472	1	149.0	836.8
1470	269	1476	1	149.0	836.8
1470	275	1969	1	149.0	836.8
1471	298	1482	1	149.0	836.8
1471	299	1490	1	149.0	836.8
1472	1328	1993	1	149.0	836.8
1472	1341	1969	1	149.0	836.8
1473	262	1636	1	149.0	836.8
1473	301	1491	1	149.0	836.8
1475	286	1477	1	149.0	836.8
1475	597	1634	1	149.0	836.8
1477	277	1628	1	149.0	836.8
1477	293	1488	1	149.0	836.8
1477	615	1652	1	149.0	836.8
1478	285	1486	1	149.0	836.8
1478	288	1483	1	149.0	836.8
1478	294	1991	1	149.0	836.8
1479	287	1488	1	149.0	836.8
1479	289	1485	1	149.0	836.8
1479	295	1486	1	149.0	836.8
1480	279	1510	1	149.0	836.8
1480	290	1486	1	149.0	836.8
1480	296	1484	1	149.0	836.8
1480	1251	1989	1	149.0	836.8
1481	280	1511	1	149.0	836.8
1481	282	1483	1	149.0	836.8
1481	291	1487	1	149.0	836.8
1481	297	1485	1	149.0	836.8
1482	281	1512	1	149.0	836.8
1482	283	1484	1	149.0	836.8
1482	292	1488	1	149.0	836.8
1483	51	2015	1	149.0	836.8
1483	321	1502	1	149.0	836.8
1484	1329	2005	1	149.0	836.8
1484	1342	1981	1	149.0	836.8
1485	284	1648	1	149.0	836.8
1485	323	1503	1	149.0	836.8
1487	57	1627	1	149.0	836.8
1487	621	1646	1	149.0	836.8
1489	300	1640	1	149.0	836.8
1489	315	1500	1	149.0	836.8
1489	638	1664	1	149.0	836.8
1489	648	1662	1	149.0	836.8
1490	308	1498	1	149.0	836.8
1490	310	1495	1	149.0	836.8
1490	316	2003	1	149.0	836.8
1491	309	1500	1	149.0	836.8
1491	311	1497	1	149.0	836.8
1491	317	1498	1	149.0	836.8
1492	312	1498	1	149.0	836.8
1492	318	1496	1	149.0	836.8
1492	1273	2001	1	149.0	836.8
1493	305	1495	1	149.0	836.8
1493	313	1499	1	149.0	836.8
1493	319	1497	1	149.0	836.8
1494	306	1496	1	149.0	836.8
1494	314	1500	1	149.0	836.8
1494	320	1993	1	149.0	836.8
1495	343	1506	1	149.0	836.8
1496	1310	1849	1	149.0	836.8
1496	1343	1993	1	149.0	836.8
1497	307	1660	1	149.0	836.8
1499	331	1501	1	149.0	836.8
1499	644	1658	1	149.0	836.8
1501	322	1652	1	149.0	836.8
1501	338	1512	1	149.0	836.8
1501	662	1676	1	149.0	836.8
1502	330	1510	1	149.0	836.8
1502	333	1507	1	149.0	836.8
1502	339	2015	1	149.0	836.8
1503	332	1512	1	149.0	836.8
1503	334	1509	1	149.0	836.8
1503	340	1510	1	149.0	836.8
1504	335	1510	1	149.0	836.8
1504	341	1508	1	149.0	836.8
1504	1295	2013	1	149.0	836.8
1505	327	1507	1	149.0	836.8
1505	336	1511	1	149.0	836.8
1505	342	1509	1	149.0	836.8
1506	328	1508	1	149.0	836.8
1506	337	1512	1	149.0	836.8
1507	52	1871	1	149.0	836.8
1508	1311	1861	1	149.0	836.8
1508	1344	2005	1	149.0	836.8
1509	329	1672	1	149.0	836.8
1511	58	1651	1	149.0	836.8
1511	668	1670	1	149.0	836.8
1513	345	1832	1	149.0	836.8
1513	361	1524	1	149.0	836.8
1513	685	1688	1	149.0	836.8
1513	695	1686	1	149.0	836.8
1514	344	1663	1	149.0	836.8
1514	353	1522	1	149.0	836.8
1514	355	1519	1	149.0	836.8
1515	346	1665	1	149.0	836.8
1515	354	1524	1	149.0	836.8
1515	357	1521	1	149.0	836.8
1515	363	1522	1	149.0	836.8
1516	347	1546	1	149.0	836.8
1516	358	1522	1	149.0	836.8
1516	364	1520	1	149.0	836.8
1517	348	1547	1	149.0	836.8
1517	350	1519	1	149.0	836.8
1517	359	1523	1	149.0	836.8
1517	365	1521	1	149.0	836.8
1518	349	1548	1	149.0	836.8
1518	351	1520	1	149.0	836.8
1518	360	1524	1	149.0	836.8
1519	390	1530	1	149.0	836.8
1519	391	1538	1	149.0	836.8
1521	352	1684	1	149.0	836.8
1521	393	1539	1	149.0	836.8
1522	629	1660	1	149.0	836.8
1523	377	1525	1	149.0	836.8
1523	630	1661	1	149.0	836.8
1523	691	1682	1	149.0	836.8
1524	631	1662	1	149.0	836.8
1525	368	1844	1	149.0	836.8
1525	385	1536	1	149.0	836.8
1525	709	1700	1	149.0	836.8
1526	367	1675	1	149.0	836.8
1526	376	1534	1	149.0	836.8
1526	379	1531	1	149.0	836.8
1527	369	1677	1	149.0	836.8
1527	378	1536	1	149.0	836.8
1527	381	1533	1	149.0	836.8
1527	387	1534	1	149.0	836.8
1528	370	1558	1	149.0	836.8
1528	382	1534	1	149.0	836.8
1528	388	1532	1	149.0	836.8
1529	371	1559	1	149.0	836.8
1529	373	1531	1	149.0	836.8
1529	383	1535	1	149.0	836.8
1529	389	1533	1	149.0	836.8
1530	372	1560	1	149.0	836.8
1530	374	1532	1	149.0	836.8
1530	384	1536	1	149.0	836.8
1531	414	1550	1	149.0	836.8
1533	375	1696	1	149.0	836.8
1533	416	1551	1	149.0	836.8
1534	652	1672	1	149.0	836.8
1535	66	1843	1	149.0	836.8
1535	653	1673	1	149.0	836.8
1535	715	1694	1	149.0	836.8
1536	654	1674	1	149.0	836.8
1537	392	1688	1	149.0	836.8
1537	408	1548	1	149.0	836.8
1537	732	1712	1	149.0	836.8
1537	742	1710	1	149.0	836.8
1538	400	1546	1	149.0	836.8
1538	402	1543	1	149.0	836.8
1539	401	1548	1	149.0	836.8
1539	404	1545	1	149.0	836.8
1539	410	1546	1	149.0	836.8
1540	394	1570	1	149.0	836.8
1540	405	1546	1	149.0	836.8
1540	411	1544	1	149.0	836.8
1541	395	1571	1	149.0	836.8
1541	397	1543	1	149.0	836.8
1541	406	1547	1	149.0	836.8
1541	412	1545	1	149.0	836.8
1542	396	1572	1	149.0	836.8
1542	398	1544	1	149.0	836.8
1542	407	1548	1	149.0	836.8
1543	437	1554	1	149.0	836.8
1543	438	1562	1	149.0	836.8
1545	399	1708	1	149.0	836.8
1545	440	1563	1	149.0	836.8
1547	424	1549	1	149.0	836.8
1547	738	1706	1	149.0	836.8
1549	415	1700	1	149.0	836.8
1549	432	1560	1	149.0	836.8
1549	756	1724	1	149.0	836.8
1550	423	1558	1	149.0	836.8
1550	426	1555	1	149.0	836.8
1551	425	1560	1	149.0	836.8
1551	428	1557	1	149.0	836.8
1551	434	1558	1	149.0	836.8
1552	417	1582	1	149.0	836.8
1552	429	1558	1	149.0	836.8
1552	435	1556	1	149.0	836.8
1553	418	1583	1	149.0	836.8
1553	420	1555	1	149.0	836.8
1553	430	1559	1	149.0	836.8
1553	436	1557	1	149.0	836.8
1554	419	1584	1	149.0	836.8
1554	421	1556	1	149.0	836.8
1554	431	1560	1	149.0	836.8
1555	461	1574	1	149.0	836.8
1557	422	1720	1	149.0	836.8
1557	463	1575	1	149.0	836.8
1559	60	1699	1	149.0	836.8
1559	762	1718	1	149.0	836.8
1561	439	1712	1	149.0	836.8
1561	455	1572	1	149.0	836.8
1561	779	1736	1	149.0	836.8
1561	789	1734	1	149.0	836.8
1562	447	1570	1	149.0	836.8
1562	449	1567	1	149.0	836.8
1563	448	1572	1	149.0	836.8
1563	451	1569	1	149.0	836.8
1563	457	1570	1	149.0	836.8
1564	441	1594	1	149.0	836.8
1564	452	1570	1	149.0	836.8
1564	458	1568	1	149.0	836.8
1565	442	1595	1	149.0	836.8
1565	444	1567	1	149.0	836.8
1565	453	1571	1	149.0	836.8
1565	459	1569	1	149.0	836.8
1566	443	1596	1	149.0	836.8
1566	445	1568	1	149.0	836.8
1566	454	1572	1	149.0	836.8
1567	484	1578	1	149.0	836.8
1567	485	1586	1	149.0	836.8
1569	446	1732	1	149.0	836.8
1569	487	1587	1	149.0	836.8
1571	471	1573	1	149.0	836.8
1571	785	1730	1	149.0	836.8
1573	462	1724	1	149.0	836.8
1573	479	1584	1	149.0	836.8
1573	803	1748	1	149.0	836.8
1574	470	1582	1	149.0	836.8
1574	473	1579	1	149.0	836.8
1575	472	1584	1	149.0	836.8
1575	475	1581	1	149.0	836.8
1575	481	1582	1	149.0	836.8
1576	464	1606	1	149.0	836.8
1576	476	1582	1	149.0	836.8
1576	482	1580	1	149.0	836.8
1577	465	1607	1	149.0	836.8
1577	467	1579	1	149.0	836.8
1577	477	1583	1	149.0	836.8
1577	483	1581	1	149.0	836.8
1578	466	1608	1	149.0	836.8
1578	468	1580	1	149.0	836.8
1578	478	1584	1	149.0	836.8
1579	508	1598	1	149.0	836.8
1581	469	1744	1	149.0	836.8
1581	510	1599	1	149.0	836.8
1583	61	1723	1	149.0	836.8
1583	809	1742	1	149.0	836.8
1585	486	1736	1	149.0	836.8
1585	502	1596	1	149.0	836.8
1585	826	1760	1	149.0	836.8
1585	836	1758	1	149.0	836.8
1586	494	1594	1	149.0	836.8
1586	496	1591	1	149.0	836.8
1587	495	1596	1	149.0	836.8
1587	498	1593	1	149.0	836.8
1587	504	1594	1	149.0	836.8
1588	488	1618	1	149.0	836.8
1588	499	1594	1	149.0	836.8
1588	505	1592	1	149.0	836.8
1589	489	1619	1	149.0	836.8
1589	491	1591	1	149.0	836.8
1589	500	1595	1	149.0	836.8
1589	506	1593	1	149.0	836.8
1590	490	1620	1	149.0	836.8
1590	492	1592	1	149.0	836.8
1590	501	1596	1	149.0	836.8
1591	531	1602	1	149.0	836.8
1591	532	1610	1	149.0	836.8
1593	493	1756	1	149.0	836.8
1593	534	1611	1	149.0	836.8
1595	518	1597	1	149.0	836.8
1595	832	1754	1	149.0	836.8
1597	509	1748	1	149.0	836.8
1597	526	1608	1	149.0	836.8
1597	850	1772	1	149.0	836.8
1598	517	1606	1	149.0	836.8
1598	520	1603	1	149.0	836.8
1599	519	1608	1	149.0	836.8
1599	522	1605	1	149.0	836.8
1599	528	1606	1	149.0	836.8
1600	511	1630	1	149.0	836.8
1600	523	1606	1	149.0	836.8
1600	529	1604	1	149.0	836.8
1601	512	1631	1	149.0	836.8
1601	514	1603	1	149.0	836.8
1601	524	1607	1	149.0	836.8
1601	530	1605	1	149.0	836.8
1602	513	1632	1	149.0	836.8
1602	515	1604	1	149.0	836.8
1602	525	1608	1	149.0	836.8
1603	555	1622	1	149.0	836.8
1605	516	1768	1	149.0	836.8
1605	557	1623	1	149.0	836.8
1607	62	1747	1	149.0	836.8
1607	856	1766	1	149.0	836.8
1609	533	1760	1	149.0	836.8
1609	549	1620	1	149.0	836.8
1609	873	1784	1	149.0	836.8
1609	883	1782	1	149.0	836.8
1610	541	1618	1	149.0	836.8
1610	543	1615	1	149.0	836.8
1611	542	1620	1	149.0	836.8
1611	545	1617	1	149.0	836.8
1611	551	1618	1	149.0	836.8
1612	535	1642	1	149.0	836.8
1612	546	1618	1	149.0	836.8
1612	552	1616	1	149.0	836.8
1613	536	1643	1	149.0	836.8
1613	538	1615	1	149.0	836.8
1613	547	1619	1	149.0	836.8
1613	553	1617	1	149.0	836.8
1614	537	1644	1	149.0	836.8
1614	539	1616	1	149.0	836.8
1614	548	1620	1	149.0	836.8
1615	578	1626	1	149.0	836.8
1615	579	1634	1	149.0	836.8
1617	540	1780	1	149.0	836.8
1617	581	1635	1	149.0	836.8
1619	565	1621	1	149.0	836.8
1619	879	1778	1	149.0	836.8
1621	556	1772	1	149.0	836.8
1621	573	1632	1	149.0	836.8
1621	897	1796	1	149.0	836.8
1622	564	1630	1	149.0	836.8
1622	567	1627	1	149.0	836.8
1623	566	1632	1	149.0	836.8
1623	569	1629	1	149.0	836.8
1623	575	1630	1	149.0	836.8
1624	558	1654	1	149.0	836.8
1624	570	1630	1	149.0	836.8
1624	576	1628	1	149.0	836.8
1625	559	1655	1	149.0	836.8
1625	561	1627	1	149.0	836.8
1625	571	1631	1	149.0	836.8
1625	577	1629	1	149.0	836.8
1626	560	1656	1	149.0	836.8
1626	562	1628	1	149.0	836.8
1626	572	1632	1	149.0	836.8
1627	602	1646	1	149.0	836.8
1629	563	1792	1	149.0	836.8
1629	604	1647	1	149.0	836.8
1631	63	1771	1	149.0	836.8
1631	903	1790	1	149.0	836.8
1633	580	1784	1	149.0	836.8
1633	596	1644	1	149.0	836.8
1633	920	1808	1	149.0	836.8
1633	930	1806	1	149.0	836.8
1634	588	1642	1	149.0	836.8
1634	590	1639	1	149.0	836.8
1635	589	1644	1	149.0	836.8
1635	592	1641	1	149.0	836.8
1635	598	1642	1	149.0	836.8
1636	582	1666	1	149.0	836.8
1636	593	1642	1	149.0	836.8
1636	599	1640	1	149.0	836.8
1637	583	1667	1	149.0	836.8
1637	585	1639	1	149.0	836.8
1637	594	1643	1	149.0	836.8
1637	600	1641	1	149.0	836.8
1638	584	1668	1	149.0	836.8
1638	586	1640	1	149.0	836.8
1638	595	1644	1	149.0	836.8
1639	625	1650	1	149.0	836.8
1639	626	1658	1	149.0	836.8
1641	587	1804	1	149.0	836.8
1641	628	1659	1	149.0	836.8
1643	612	1645	1	149.0	836.8
1643	926	1802	1	149.0	836.8
1645	603	1796	1	149.0	836.8
1645	620	1656	1	149.0	836.8
1645	944	1820	1	149.0	836.8
1646	611	1654	1	149.0	836.8
1646	614	1651	1	149.0	836.8
1647	613	1656	1	149.0	836.8
1647	616	1653	1	149.0	836.8
1647	622	1654	1	149.0	836.8
1648	605	1678	1	149.0	836.8
1648	617	1654	1	149.0	836.8
1648	623	1652	1	149.0	836.8
1649	606	1679	1	149.0	836.8
1649	608	1651	1	149.0	836.8
1649	618	1655	1	149.0	836.8
1649	624	1653	1	149.0	836.8
1650	607	1680	1	149.0	836.8
1650	609	1652	1	149.0	836.8
1650	619	1656	1	149.0	836.8
1651	649	1670	1	149.0	836.8
1653	610	1816	1	149.0	836.8
1653	651	1671	1	149.0	836.8
1655	64	1795	1	149.0	836.8
1655	950	1814	1	149.0	836.8
1657	627	1808	1	149.0	836.8
1657	643	1668	1	149.0	836.8
1657	967	1832	1	149.0	836.8
1657	977	1830	1	149.0	836.8
1658	635	1666	1	149.0	836.8
1658	637	1663	1	149.0	836.8
1659	636	1668	1	149.0	836.8
1659	639	1665	1	149.0	836.8
1659	645	1666	1	149.0	836.8
1660	640	1666	1	149.0	836.8
1660	646	1664	1	149.0	836.8
1661	632	1663	1	149.0	836.8
1661	641	1667	1	149.0	836.8
1661	647	1665	1	149.0	836.8
1662	633	1664	1	149.0	836.8
1662	642	1668	1	149.0	836.8
1663	672	1674	1	149.0	836.8
1665	634	1828	1	149.0	836.8
1667	659	1669	1	149.0	836.8
1667	973	1826	1	149.0	836.8
1669	650	1820	1	149.0	836.8
1669	667	1680	1	149.0	836.8
1669	991	1844	1	149.0	836.8
1670	658	1678	1	149.0	836.8
1670	661	1675	1	149.0	836.8
1671	660	1680	1	149.0	836.8
1671	663	1677	1	149.0	836.8
1671	669	1678	1	149.0	836.8
1672	664	1678	1	149.0	836.8
1672	670	1676	1	149.0	836.8
1673	655	1675	1	149.0	836.8
1673	665	1679	1	149.0	836.8
1673	671	1677	1	149.0	836.8
1674	656	1676	1	149.0	836.8
1674	666	1680	1	149.0	836.8
1677	657	1840	1	149.0	836.8
1679	65	1819	1	149.0	836.8
1679	997	1838	1	149.0	836.8
1681	674	2000	1	149.0	836.8
1681	690	1692	1	149.0	836.8
1681	1013	1856	1	149.0	836.8
1681	1023	1854	1	149.0	836.8
1682	673	1831	1	149.0	836.8
1682	682	1690	1	149.0	836.8
1682	684	1687	1	149.0	836.8
1683	675	1833	1	149.0	836.8
1683	683	1692	1	149.0	836.8
1683	686	1689	1	149.0	836.8
1683	692	1690	1	149.0	836.8
1684	676	1714	1	149.0	836.8
1684	687	1690	1	149.0	836.8
1684	693	1688	1	149.0	836.8
1685	677	1715	1	149.0	836.8
1685	679	1687	1	149.0	836.8
1685	688	1691	1	149.0	836.8
1685	694	1689	1	149.0	836.8
1686	678	1716	1	149.0	836.8
1686	680	1688	1	149.0	836.8
1686	689	1692	1	149.0	836.8
1687	719	1698	1	149.0	836.8
1687	720	1706	1	149.0	836.8
1689	681	1852	1	149.0	836.8
1689	722	1707	1	149.0	836.8
1690	958	1828	1	149.0	836.8
1691	706	1693	1	149.0	836.8
1691	959	1829	1	149.0	836.8
1691	1019	1850	1	149.0	836.8
1692	960	1830	1	149.0	836.8
1693	697	2012	1	149.0	836.8
1693	714	1704	1	149.0	836.8
1693	1035	1868	1	149.0	836.8
1694	696	1843	1	149.0	836.8
1694	705	1702	1	149.0	836.8
1694	708	1699	1	149.0	836.8
1695	698	1845	1	149.0	836.8
1695	707	1704	1	149.0	836.8
1695	710	1701	1	149.0	836.8
1695	716	1702	1	149.0	836.8
1696	699	1726	1	149.0	836.8
1696	711	1702	1	149.0	836.8
1696	717	1700	1	149.0	836.8
1697	700	1727	1	149.0	836.8
1697	702	1699	1	149.0	836.8
1697	712	1703	1	149.0	836.8
1697	718	1701	1	149.0	836.8
1698	701	1728	1	149.0	836.8
1698	703	1700	1	149.0	836.8
1698	713	1704	1	149.0	836.8
1699	743	1718	1	149.0	836.8
1701	704	1864	1	149.0	836.8
1701	745	1719	1	149.0	836.8
1702	981	1840	1	149.0	836.8
1703	73	2011	1	149.0	836.8
1703	982	1841	1	149.0	836.8
1703	1041	1862	1	149.0	836.8
1704	983	1842	1	149.0	836.8
1705	721	1856	1	149.0	836.8
1705	737	1716	1	149.0	836.8
1705	1057	1880	1	149.0	836.8
1705	1067	1878	1	149.0	836.8
1706	729	1714	1	149.0	836.8
1706	731	1711	1	149.0	836.8
1707	730	1716	1	149.0	836.8
1707	733	1713	1	149.0	836.8
1707	739	1714	1	149.0	836.8
1708	723	1738	1	149.0	836.8
1708	734	1714	1	149.0	836.8
1708	740	1712	1	149.0	836.8
1709	724	1739	1	149.0	836.8
1709	726	1711	1	149.0	836.8
1709	735	1715	1	149.0	836.8
1709	741	1713	1	149.0	836.8
1710	725	1740	1	149.0	836.8
1710	727	1712	1	149.0	836.8
1710	736	1716	1	149.0	836.8
1711	766	1722	1	149.0	836.8
1711	767	1730	1	149.0	836.8
1713	728	1876	1	149.0	836.8
1713	769	1731	1	149.0	836.8
1715	753	1717	1	149.0	836.8
1715	1063	1874	1	149.0	836.8
1717	744	1868	1	149.0	836.8
1717	761	1728	1	149.0	836.8
1717	1079	1892	1	149.0	836.8
1718	752	1726	1	149.0	836.8
1718	755	1723	1	149.0	836.8
1719	754	1728	1	149.0	836.8
1719	757	1725	1	149.0	836.8
1719	763	1726	1	149.0	836.8
1720	746	1750	1	149.0	836.8
1720	758	1726	1	149.0	836.8
1720	764	1724	1	149.0	836.8
1721	747	1751	1	149.0	836.8
1721	749	1723	1	149.0	836.8
1721	759	1727	1	149.0	836.8
1721	765	1725	1	149.0	836.8
1722	748	1752	1	149.0	836.8
1722	750	1724	1	149.0	836.8
1722	760	1728	1	149.0	836.8
1723	790	1742	1	149.0	836.8
1725	751	1888	1	149.0	836.8
1725	792	1743	1	149.0	836.8
1727	67	1867	1	149.0	836.8
1727	1085	1886	1	149.0	836.8
1729	768	1880	1	149.0	836.8
1729	784	1740	1	149.0	836.8
1729	1101	1904	1	149.0	836.8
1729	1111	1902	1	149.0	836.8
1730	776	1738	1	149.0	836.8
1730	778	1735	1	149.0	836.8
1731	777	1740	1	149.0	836.8
1731	780	1737	1	149.0	836.8
1731	786	1738	1	149.0	836.8
1732	770	1762	1	149.0	836.8
1732	781	1738	1	149.0	836.8
1732	787	1736	1	149.0	836.8
1733	771	1763	1	149.0	836.8
1733	773	1735	1	149.0	836.8
1733	782	1739	1	149.0	836.8
1733	788	1737	1	149.0	836.8
1734	772	1764	1	149.0	836.8
1734	774	1736	1	149.0	836.8
1734	783	1740	1	149.0	836.8
1735	813	1746	1	149.0	836.8
1735	814	1754	1	149.0	836.8
1737	775	1900	1	149.0	836.8
1737	816	1755	1	149.0	836.8
1739	800	1741	1	149.0	836.8
1739	1107	1898	1	149.0	836.8
1741	791	1892	1	149.0	836.8
1741	808	1752	1	149.0	836.8
1741	1123	1916	1	149.0	836.8
1742	799	1750	1	149.0	836.8
1742	802	1747	1	149.0	836.8
1743	801	1752	1	149.0	836.8
1743	804	1749	1	149.0	836.8
1743	810	1750	1	149.0	836.8
1744	793	1774	1	149.0	836.8
1744	805	1750	1	149.0	836.8
1744	811	1748	1	149.0	836.8
1745	794	1775	1	149.0	836.8
1745	796	1747	1	149.0	836.8
1745	806	1751	1	149.0	836.8
1745	812	1749	1	149.0	836.8
1746	795	1776	1	149.0	836.8
1746	797	1748	1	149.0	836.8
1746	807	1752	1	149.0	836.8
1747	837	1766	1	149.0	836.8
1749	798	1912	1	149.0	836.8
1749	839	1767	1	149.0	836.8
1751	68	1891	1	149.0	836.8
1751	1129	1910	1	149.0	836.8
1753	815	1904	1	149.0	836.8
1753	831	1764	1	149.0	836.8
1753	1145	1928	1	149.0	836.8
1753	1155	1926	1	149.0	836.8
1754	823	1762	1	149.0	836.8
1754	825	1759	1	149.0	836.8
1755	824	1764	1	149.0	836.8
1755	827	1761	1	149.0	836.8
1755	833	1762	1	149.0	836.8
1756	817	1786	1	149.0	836.8
1756	828	1762	1	149.0	836.8
1756	834	1760	1	149.0	836.8
1757	818	1787	1	149.0	836.8
1757	820	1759	1	149.0	836.8
1757	829	1763	1	149.0	836.8
1757	835	1761	1	149.0	836.8
1758	819	1788	1	149.0	836.8
1758	821	1760	1	149.0	836.8
1758	830	1764	1	149.0	836.8
1759	860	1770	1	149.0	836.8
1759	861	1778	1	149.0	836.8
1761	822	1924	1	149.0	836.8
1761	863	1779	1	149.0	836.8
1763	847	1765	1	149.0	836.8
1763	1151	1922	1	149.0	836.8
1765	838	1916	1	149.0	836.8
1765	855	1776	1	149.0	836.8
1765	1167	1940	1	149.0	836.8
1766	846	1774	1	149.0	836.8
1766	849	1771	1	149.0	836.8
1767	848	1776	1	149.0	836.8
1767	851	1773	1	149.0	836.8
1767	857	1774	1	149.0	836.8
1768	840	1798	1	149.0	836.8
1768	852	1774	1	149.0	836.8
1768	858	1772	1	149.0	836.8
1769	841	1799	1	149.0	836.8
1769	843	1771	1	149.0	836.8
1769	853	1775	1	149.0	836.8
1769	859	1773	1	149.0	836.8
1770	842	1800	1	149.0	836.8
1770	844	1772	1	149.0	836.8
1770	854	1776	1	149.0	836.8
1771	884	1790	1	149.0	836.8
1773	845	1936	1	149.0	836.8
1773	886	1791	1	149.0	836.8
1775	69	1915	1	149.0	836.8
1775	1173	1934	1	149.0	836.8
1777	862	1928	1	149.0	836.8
1777	878	1788	1	149.0	836.8
1777	1189	1952	1	149.0	836.8
1777	1199	1950	1	149.0	836.8
1778	870	1786	1	149.0	836.8
1778	872	1783	1	149.0	836.8
1779	871	1788	1	149.0	836.8
1779	874	1785	1	149.0	836.8
1779	880	1786	1	149.0	836.8
1780	864	1810	1	149.0	836.8
1780	875	1786	1	149.0	836.8
1780	881	1784	1	149.0	836.8
1781	865	1811	1	149.0	836.8
1781	867	1783	1	149.0	836.8
1781	876	1787	1	149.0	836.8
1781	882	1785	1	149.0	836.8
1782	866	1812	1	149.0	836.8
1782	868	1784	1	149.0	836.8
1782	877	1788	1	149.0	836.8
1783	907	1794	1	149.0	836.8
1783	908	1802	1	149.0	836.8
1785	869	1948	1	149.0	836.8
1785	910	1803	1	149.0	836.8
1787	894	1789	1	149.0	836.8
1787	1195	1946	1	149.0	836.8
1789	885	1940	1	149.0	836.8
1789	902	1800	1	149.0	836.8
1789	1211	1964	1	149.0	836.8
1790	893	1798	1	149.0	836.8
1790	896	1795	1	149.0	836.8
1791	895	1800	1	149.0	836.8
1791	898	1797	1	149.0	836.8
1791	904	1798	1	149.0	836.8
1792	887	1822	1	149.0	836.8
1792	899	1798	1	149.0	836.8
1792	905	1796	1	149.0	836.8
1793	888	1823	1	149.0	836.8
1793	890	1795	1	149.0	836.8
1793	900	1799	1	149.0	836.8
1793	906	1797	1	149.0	836.8
1794	889	1824	1	149.0	836.8
1794	891	1796	1	149.0	836.8
1794	901	1800	1	149.0	836.8
1795	931	1814	1	149.0	836.8
1797	892	1960	1	149.0	836.8
1797	933	1815	1	149.0	836.8
1799	70	1939	1	149.0	836.8
1799	1217	1958	1	149.0	836.8
1801	909	1952	1	149.0	836.8
1801	925	1812	1	149.0	836.8
1801	1233	1976	1	149.0	836.8
1801	1243	1974	1	149.0	836.8
1802	917	1810	1	149.0	836.8
1802	919	1807	1	149.0	836.8
1803	918	1812	1	149.0	836.8
1803	921	1809	1	149.0	836.8
1803	927	1810	1	149.0	836.8
1804	911	1834	1	149.0	836.8
1804	922	1810	1	149.0	836.8
1804	928	1808	1	149.0	836.8
1805	912	1835	1	149.0	836.8
1805	914	1807	1	149.0	836.8
1805	923	1811	1	149.0	836.8
1805	929	1809	1	149.0	836.8
1806	913	1836	1	149.0	836.8
1806	915	1808	1	149.0	836.8
1806	924	1812	1	149.0	836.8
1807	954	1818	1	149.0	836.8
1807	955	1826	1	149.0	836.8
1809	916	1972	1	149.0	836.8
1809	957	1827	1	149.0	836.8
1811	941	1813	1	149.0	836.8
1811	1239	1970	1	149.0	836.8
1813	932	1964	1	149.0	836.8
1813	949	1824	1	149.0	836.8
1813	1255	1988	1	149.0	836.8
1814	940	1822	1	149.0	836.8
1814	943	1819	1	149.0	836.8
1815	942	1824	1	149.0	836.8
1815	945	1821	1	149.0	836.8
1815	951	1822	1	149.0	836.8
1816	934	1846	1	149.0	836.8
1816	946	1822	1	149.0	836.8
1816	952	1820	1	149.0	836.8
1817	935	1847	1	149.0	836.8
1817	937	1819	1	149.0	836.8
1817	947	1823	1	149.0	836.8
1817	953	1821	1	149.0	836.8
1818	936	1848	1	149.0	836.8
1818	938	1820	1	149.0	836.8
1818	948	1824	1	149.0	836.8
1819	978	1838	1	149.0	836.8
1821	939	1984	1	149.0	836.8
1821	980	1839	1	149.0	836.8
1823	71	1963	1	149.0	836.8
1823	1261	1982	1	149.0	836.8
1825	956	1976	1	149.0	836.8
1825	972	1836	1	149.0	836.8
1825	1277	2000	1	149.0	836.8
1825	1287	1998	1	149.0	836.8
1826	964	1834	1	149.0	836.8
1826	966	1831	1	149.0	836.8
1827	965	1836	1	149.0	836.8
1827	968	1833	1	149.0	836.8
1827	974	1834	1	149.0	836.8
1828	969	1834	1	149.0	836.8
1828	975	1832	1	149.0	836.8
1829	961	1831	1	149.0	836.8
1829	970	1835	1	149.0	836.8
1829	976	1833	1	149.0	836.8
1830	962	1832	1	149.0	836.8
1830	971	1836	1	149.0	836.8
1831	1001	1842	1	149.0	836.8
1833	963	1996	1	149.0	836.8
1835	988	1837	1	149.0	836.8
1835	1283	1994	1	149.0	836.8
1837	979	1988	1	149.0	836.8
1837	996	1848	1	149.0	836.8
1837	1299	2012	1	149.0	836.8
1838	987	1846	1	149.0	836.8
1838	990	1843	1	149.0	836.8
1839	989	1848	1	149.0	836.8
1839	992	1845	1	149.0	836.8
1839	998	1846	1	149.0	836.8
1840	993	1846	1	149.0	836.8
1840	999	1844	1	149.0	836.8
1841	984	1843	1	149.0	836.8
1841	994	1847	1	149.0	836.8
1841	1000	1845	1	149.0	836.8
1842	985	1844	1	149.0	836.8
1842	995	1848	1	149.0	836.8
1845	986	2008	1	149.0	836.8
1847	72	1987	1	149.0	836.8
1847	1305	2006	1	149.0	836.8
1849	1018	1860	1	149.0	836.8
1850	1002	1999	1	149.0	836.8
1850	1010	1858	1	149.0	836.8
1850	1012	1855	1	149.0	836.8
1851	1003	2001	1	149.0	836.8
1851	1011	1860	1	149.0	836.8
1851	1014	1857	1	149.0	836.8
1851	1020	1858	1	149.0	836.8
1852	1004	1882	1	149.0	836.8
1852	1015	1858	1	149.0	836.8
1852	1021	1856	1	149.0	836.8
1853	1005	1883	1	149.0	836.8
1853	1007	1855	1	149.0	836.8
1853	1016	1859	1	149.0	836.8
1853	1022	1857	1	149.0	836.8
1854	1006	1884	1	149.0	836.8
1854	1008	1856	1	149.0	836.8
1854	1017	1860	1	149.0	836.8
1855	1045	1866	1	149.0	836.8
1855	1046	1874	1	149.0	836.8
1857	1047	1875	1	149.0	836.8
1858	1268	1996	1	149.0	836.8
1859	1269	1997	1	149.0	836.8
1859	1312	1861	1	149.0	836.8
1860	1270	1998	1	149.0	836.8
1861	1040	1872	1	149.0	836.8
1862	1024	2011	1	149.0	836.8
1862	1032	1870	1	149.0	836.8
1862	1034	1867	1	149.0	836.8
1863	1025	2013	1	149.0	836.8
1863	1033	1872	1	149.0	836.8
1863	1036	1869	1	149.0	836.8
1863	1042	1870	1	149.0	836.8
1864	1026	1894	1	149.0	836.8
1864	1037	1870	1	149.0	836.8
1864	1043	1868	1	149.0	836.8
1865	1027	1895	1	149.0	836.8
1865	1029	1867	1	149.0	836.8
1865	1038	1871	1	149.0	836.8
1865	1044	1869	1	149.0	836.8
1866	1028	1896	1	149.0	836.8
1866	1030	1868	1	149.0	836.8
1866	1039	1872	1	149.0	836.8
1867	1068	1886	1	149.0	836.8
1869	1069	1887	1	149.0	836.8
1870	1290	2008	1	149.0	836.8
1871	1291	2009	1	149.0	836.8
1872	1292	2010	1	149.0	836.8
1873	1062	1884	1	149.0	836.8
1874	1054	1882	1	149.0	836.8
1874	1056	1879	1	149.0	836.8
1875	1055	1884	1	149.0	836.8
1875	1058	1881	1	149.0	836.8
1875	1064	1882	1	149.0	836.8
1876	1048	1906	1	149.0	836.8
1876	1059	1882	1	149.0	836.8
1876	1065	1880	1	149.0	836.8
1877	1049	1907	1	149.0	836.8
1877	1051	1879	1	149.0	836.8
1877	1060	1883	1	149.0	836.8
1877	1066	1881	1	149.0	836.8
1878	1050	1908	1	149.0	836.8
1878	1052	1880	1	149.0	836.8
1878	1061	1884	1	149.0	836.8
1879	1089	1890	1	149.0	836.8
1879	1090	1898	1	149.0	836.8
1881	1091	1899	1	149.0	836.8
1883	1315	1885	1	149.0	836.8
1885	1084	1896	1	149.0	836.8
1886	1076	1894	1	149.0	836.8
1886	1078	1891	1	149.0	836.8
1887	1077	1896	1	149.0	836.8
1887	1080	1893	1	149.0	836.8
1887	1086	1894	1	149.0	836.8
1888	1070	1918	1	149.0	836.8
1888	1081	1894	1	149.0	836.8
1888	1087	1892	1	149.0	836.8
1889	1071	1919	1	149.0	836.8
1889	1073	1891	1	149.0	836.8
1889	1082	1895	1	149.0	836.8
1889	1088	1893	1	149.0	836.8
1890	1072	1920	1	149.0	836.8
1890	1074	1892	1	149.0	836.8
1890	1083	1896	1	149.0	836.8
1891	1112	1910	1	149.0	836.8
1893	1113	1911	1	149.0	836.8
1897	1106	1908	1	149.0	836.8
1898	1098	1906	1	149.0	836.8
1898	1100	1903	1	149.0	836.8
1899	1099	1908	1	149.0	836.8
1899	1102	1905	1	149.0	836.8
1899	1108	1906	1	149.0	836.8
1900	1092	1930	1	149.0	836.8
1900	1103	1906	1	149.0	836.8
1900	1109	1904	1	149.0	836.8
1901	1093	1931	1	149.0	836.8
1901	1095	1903	1	149.0	836.8
1901	1104	1907	1	149.0	836.8
1901	1110	1905	1	149.0	836.8
1902	1094	1932	1	149.0	836.8
1902	1096	1904	1	149.0	836.8
1902	1105	1908	1	149.0	836.8
1903	1133	1914	1	149.0	836.8
1903	1134	1922	1	149.0	836.8
1905	1135	1923	1	149.0	836.8
1907	1318	1909	1	149.0	836.8
1909	1128	1920	1	149.0	836.8
1910	1120	1918	1	149.0	836.8
1910	1122	1915	1	149.0	836.8
1911	1121	1920	1	149.0	836.8
1911	1124	1917	1	149.0	836.8
1911	1130	1918	1	149.0	836.8
1912	1114	1942	1	149.0	836.8
1912	1125	1918	1	149.0	836.8
1912	1131	1916	1	149.0	836.8
1913	1115	1943	1	149.0	836.8
1913	1117	1915	1	149.0	836.8
1913	1126	1919	1	149.0	836.8
1913	1132	1917	1	149.0	836.8
1914	1116	1944	1	149.0	836.8
1914	1118	1916	1	149.0	836.8
1914	1127	1920	1	149.0	836.8
1915	1156	1934	1	149.0	836.8
1917	1157	1935	1	149.0	836.8
1921	1150	1932	1	149.0	836.8
1922	1142	1930	1	149.0	836.8
1922	1144	1927	1	149.0	836.8
1923	1143	1932	1	149.0	836.8
1923	1146	1929	1	149.0	836.8
1923	1152	1930	1	149.0	836.8
1924	1136	1954	1	149.0	836.8
1924	1147	1930	1	149.0	836.8
1924	1153	1928	1	149.0	836.8
1925	1137	1955	1	149.0	836.8
1925	1139	1927	1	149.0	836.8
1925	1148	1931	1	149.0	836.8
1925	1154	1929	1	149.0	836.8
1926	1138	1956	1	149.0	836.8
1926	1140	1928	1	149.0	836.8
1926	1149	1932	1	149.0	836.8
1927	1177	1938	1	149.0	836.8
1927	1178	1946	1	149.0	836.8
1929	1179	1947	1	149.0	836.8
1931	1321	1933	1	149.0	836.8
1933	1172	1944	1	149.0	836.8
1934	1164	1942	1	149.0	836.8
1934	1166	1939	1	149.0	836.8
1935	1165	1944	1	149.0	836.8
1935	1168	1941	1	149.0	836.8
1935	1174	1942	1	149.0	836.8
1936	1158	1966	1	149.0	836.8
1936	1169	1942	1	149.0	836.8
1936	1175	1940	1	149.0	836.8
1937	1159	1967	1	149.0	836.8
1937	1161	1939	1	149.0	836.8
1937	1170	1943	1	149.0	836.8
1937	1176	1941	1	149.0	836.8
1938	1160	1968	1	149.0	836.8
1938	1162	1940	1	149.0	836.8
1938	1171	1944	1	149.0	836.8
1939	1200	1958	1	149.0	836.8
1941	1201	1959	1	149.0	836.8
1945	1194	1956	1	149.0	836.8
1946	1186	1954	1	149.0	836.8
1946	1188	1951	1	149.0	836.8
1947	1187	1956	1	149.0	836.8
1947	1190	1953	1	149.0	836.8
1947	1196	1954	1	149.0	836.8
1948	1180	1978	1	149.0	836.8
1948	1191	1954	1	149.0	836.8
1948	1197	1952	1	149.0	836.8
1949	1181	1979	1	149.0	836.8
1949	1183	1951	1	149.0	836.8
1949	1192	1955	1	149.0	836.8
1949	1198	1953	1	149.0	836.8
1950	1182	1980	1	149.0	836.8
1950	1184	1952	1	149.0	836.8
1950	1193	1956	1	149.0	836.8
1951	1221	1962	1	149.0	836.8
1951	1222	1970	1	149.0	836.8
1953	1223	1971	1	149.0	836.8
1955	1324	1957	1	149.0	836.8
1957	1216	1968	1	149.0	836.8
1958	1208	1966	1	149.0	836.8
1958	1210	1963	1	149.0	836.8
1959	1209	1968	1	149.0	836.8
1959	1212	1965	1	149.0	836.8
1959	1218	1966	1	149.0	836.8
1960	1202	1990	1	149.0	836.8
1960	1213	1966	1	149.0	836.8
1960	1219	1964	1	149.0	836.8
1961	1203	1991	1	149.0	836.8
1961	1205	1963	1	149.0	836.8
1961	1214	1967	1	149.0	836.8
1961	1220	1965	1	149.0	836.8
1962	1204	1992	1	149.0	836.8
1962	1206	1964	1	149.0	836.8
1962	1215	1968	1	149.0	836.8
1963	1244	1982	1	149.0	836.8
1965	1245	1983	1	149.0	836.8
1969	1238	1980	1	149.0	836.8
1970	1230	1978	1	149.0	836.8
1970	1232	1975	1	149.0	836.8
1971	1231	1980	1	149.0	836.8
1971	1234	1977	1	149.0	836.8
1971	1240	1978	1	149.0	836.8
1972	1224	2002	1	149.0	836.8
1972	1235	1978	1	149.0	836.8
1972	1241	1976	1	149.0	836.8
1973	1225	2003	1	149.0	836.8
1973	1227	1975	1	149.0	836.8
1973	1236	1979	1	149.0	836.8
1973	1242	1977	1	149.0	836.8
1974	1226	2004	1	149.0	836.8
1974	1228	1976	1	149.0	836.8
1974	1237	1980	1	149.0	836.8
1975	1265	1986	1	149.0	836.8
1975	1266	1994	1	149.0	836.8
1977	1267	1995	1	149.0	836.8
1979	1327	1981	1	149.0	836.8
1981	1260	1992	1	149.0	836.8
1982	1252	1990	1	149.0	836.8
1982	1254	1987	1	149.0	836.8
1983	1253	1992	1	149.0	836.8
1983	1256	1989	1	149.0	836.8
1983	1262	1990	1	149.0	836.8
1984	1246	2014	1	149.0	836.8
1984	1257	1990	1	149.0	836.8
1984	1263	1988	1	149.0	836.8
1985	1247	2015	1	149.0	836.8
1985	1249	1987	1	149.0	836.8
1985	1258	1991	1	149.0	836.8
1985	1264	1989	1	149.0	836.8
1986	1248	2016	1	149.0	836.8
1986	1250	1988	1	149.0	836.8
1986	1259	1992	1	149.0	836.8
1987	1288	2006	1	149.0	836.8
1989	1289	2007	1	149.0	836.8
1993	1282	2004	1	149.0	836.8
1994	1274	2002	1	149.0	836.8
1994	1276	1999	1	149.0	836.8
1995	1275	2004	1	149.0	836.8
1995	1278	2001	1	149.0	836.8
1995	1284	2002	1	149.0	836.8
1996	1279	2002	1	149.0	836.8
1996	1285	2000	1	149.0	836.8
1997	1271	1999	1	149.0	836.8
1997	1280	2003	1	149.0	836.8
1997	1286	2001	1	149.0	836.8
1998	1272	2000	1	149.0	836.8
1998	1281	2004	1	149.0	836.8
1999	1309	2010	1	149.0	836.8
2003	1330	2005	1	149.0	836.8
2005	1304	2016	1	149.0	836.8
2006	1296	2014	1	149.0	836.8
2006	1298	2011	1	149.0	836.8
2007	1297	2016	1	149.0	836.8
2007	1300	2013	1	149.0	836.8
2007	1306	2014	1	149.0	836.8
2008	1301	2014	1	149.0	836.8
2008	1307	2012	1	149.0	836.8
2009	1293	2011	1	149.0	836.8
2009	1302	2015	1	149.0	836.8
2009	1308	2013	1	149.0	836.8
2010	1294	2012	1	149.0	836.8
2010	1303	2016	1	149.0	836.8
