Water-ethanol mixture in organosilica
15140
    1Sil     Ob    1   0.880   1.111  11.229 -0.0077  0.1863 -0.0067
    1Sil     Ob    2   1.461   1.102  10.426 -0.0755  0.0971  0.2763
    1Sil     Ob    3   0.697   1.605  10.790  0.2722 -0.5102  0.1423
    1Sil     Ob    4   1.231   1.610  11.196 -0.9218  1.1719  0.2258
    1Sil     Ob    5   1.061   1.500  10.425 -0.3386 -0.5069  0.0100
    1Sil     Ob    6   1.057   1.438  11.255 -0.4990 -0.7994 -0.2583
    1Sil     Ob    7   0.810   1.421  10.480  0.6259 -0.0982 -0.1929
    1Sil     Ob    8   1.360   1.424  10.875 -0.2981 -0.2885  0.3833
    1Sil     Ob    9   0.851   1.190  10.985  0.0734 -0.0223  0.5932
    1Sil     Ob   10   1.154   1.175  10.580 -0.0344 -0.1008 -0.7883
    1Sil     Ob   11   0.820   1.350  11.170 -0.7439  0.7646  0.4290
    1Sil     Ob   12   0.570   1.356  10.390  0.1557  0.3492 -0.2900
    1Sil     Ob   13   1.173   1.242  10.834  0.3286  0.0513  0.2083
    1Sil     Ob   14   0.766   1.366  10.822  0.2255  0.3727 -0.4057
    1Sil     Ob   15   1.297   1.364  11.218 -0.2979  0.5267  0.2412
    1Sil     Ob   16   0.986   1.253  10.401  0.2297 -0.4651  0.3188
    1Sil     Ob   17   1.237   1.176  10.340  0.3078 -0.0646  0.0877
    1Sil     Ob   18   0.648   1.175  11.139 -0.8977  0.4666  0.0361
    1Sil     Ob   19   0.941   1.181  10.735  0.6491  0.1068  0.2800
    1Sil     Ob   20   0.603   1.430  10.639 -0.1445 -0.0565  0.7625
    1Sil     Ob   21   1.144   1.429  11.017  0.0170 -0.8392  0.0104
    1Sil     Ob   22   0.823   1.113  12.437  0.0344  0.7487 -0.5707
    1Sil     Ob   23   1.421   1.115  11.644 -0.0240 -0.5006  0.9203
    1Sil     Ob   24   0.640   1.594  11.980 -0.1224  0.0426  0.2824
    1Sil     Ob   25   1.185   1.606  12.363  0.1514 -0.1502  0.1009
    1Sil     Ob   26   1.007   1.489  11.617 -0.4582 -0.5399  0.1150
    1Sil     Ob   27   1.012   1.448  12.449  0.4928  0.0709 -1.0653
    1Sil     Ob   28   0.760   1.422  11.650  0.3700 -0.5908  0.3954
    1Sil     Ob   29   1.295   1.421  12.071  0.1590  0.5094  0.6407
    1Sil     Ob   30   0.796   1.174  12.190  0.8100  0.0056  0.0193
    1Sil     Ob   31   1.383   1.190  11.402 -0.2952 -0.2695  0.7160
    1Sil     Ob   32   1.075   1.180  11.781 -0.5101 -0.3937 -0.3653
    1Sil     Ob   33   0.786   1.356  12.372  0.3952 -0.6073  0.2617
    1Sil     Ob   34   0.521   1.349  11.562 -0.8888 -0.2879  0.1139
    1Sil     Ob   35   1.112   1.243  12.032  0.6693  0.0120  0.5761
    1Sil     Ob   36   0.712   1.351  12.011  0.3905  0.0081 -0.2317
    1Sil     Ob   37   1.251   1.358  12.392 -0.5476  0.2091  0.0421
    1Sil     Ob   38   0.938   1.247  11.576 -0.1529 -0.0772 -0.2735
    1Sil     Ob   39   1.181   1.157  11.544  0.2842 -0.8593 -0.7561
    1Sil     Ob   40   0.597   1.190  12.335  0.2728 -0.7727  0.0920
    1Sil     Ob   41   0.872   1.163  11.944  0.0170  0.1859  0.6850
    1Sil     Ob   42   0.560   1.414  11.813  0.0540 -0.2425  0.5307
    1Sil     Ob   43   1.082   1.429  12.209  0.7757  0.4191  0.3407
    1Sil     Ob   44   0.845   1.432  11.411  0.3855 -0.0552 -0.8540
    1Sil     Ob   45   0.865   1.599  11.232  0.5310  0.5656  0.0167
    1Sil     Ob   46   1.459   1.600  10.451  0.2756 -0.2470 -0.1139
    1Sil     Ob   47   1.140   1.497  10.772 -0.4476 -0.0433 -0.1489
    1Sil     Ob   48   0.696   2.086  10.789 -0.4761 -0.3433  0.6075
    1Sil     Ob   49   1.244   2.094  11.194  0.2736  0.5246  0.1665
    1Sil     Ob   50   1.063   1.988  10.421 -0.2442 -0.0703  0.6006
    1Sil     Ob   51   1.072   1.922  11.274  0.0501  0.1069 -0.4819
    1Sil     Ob   52   0.808   1.927  10.471 -0.1233 -0.1119  1.0308
    1Sil     Ob   53   1.353   1.926  10.878 -0.1018  0.3357 -0.0706
    1Sil     Ob   54   0.849   1.675  10.987  0.6600 -0.0303  0.2717
    1Sil     Ob   55   1.138   1.680  10.598 -0.0216  0.5054 -0.0697
    1Sil     Ob   56   0.839   1.848  11.178  0.4685 -0.5064  0.0130
    1Sil     Ob   57   0.583   1.849  10.379  0.2004  0.0964 -0.0436
    1Sil     Ob   58   1.160   1.745  10.842 -0.2451  0.1319  0.2105
    1Sil     Ob   59   0.778   1.839  10.809  1.0516  0.2263  0.5618
    1Sil     Ob   60   1.316   1.848  11.233  0.5901 -0.0380  0.0331
    1Sil     Ob   61   0.982   1.749  10.393 -1.0909 -0.1038 -0.1872
    1Sil     Ob   62   1.228   1.682  10.357  0.1566  0.7772 -0.0329
    1Sil     Ob   63   0.639   1.686  11.142 -0.0462  0.3336  0.0935
    1Sil     Ob   64   0.939   1.662  10.747  0.2910  0.3505  0.3037
    1Sil     Ob   65   0.609   1.921  10.624  0.4704 -0.7714 -0.8208
    1Sil     Ob   66   1.156   1.903  11.034  0.0986  0.5076 -0.2289
    1Sil     Ob   67   0.805   1.601  12.435  0.4109 -0.2772  0.0342
    1Sil     Ob   68   1.403   1.596  11.652  0.6795  0.1533  0.1150
    1Sil     Ob   69   1.072   1.499  11.956 -0.2164  0.8095  0.2827
    1Sil     Ob   70   0.646   2.088  12.008 -0.0513  0.0677 -0.2628
    1Sil     Ob   71   1.185   2.101  12.380 -0.6678  0.3960  1.0328
    1Sil     Ob   72   1.004   1.988  11.623 -0.0464 -0.0926 -0.1747
    1Sil     Ob   73   1.016   1.915  12.458  0.3973  0.2437 -0.1313
    1Sil     Ob   74   0.775   1.905  11.670 -0.1484  0.5424  0.5178
    1Sil     Ob   75   1.303   1.885  12.062 -0.4601  0.1590 -0.8885
    1Sil     Ob   76   0.791   1.665  12.183 -0.0565  0.0204  0.4456
    1Sil     Ob   77   1.387   1.671  11.399 -0.6544  0.3282 -0.1819
    1Sil     Ob   78   1.088   1.682  11.783  0.4791 -0.0177  0.5425
    1Sil     Ob   79   0.782   1.855  12.375 -0.2258 -0.0861  0.3863
    1Sil     Ob   80   0.536   1.854  11.573  0.2488  0.5423 -0.2201
    1Sil     Ob   81   1.107   1.731  12.043 -0.1644  0.4244  0.2383
    1Sil     Ob   82   0.712   1.846  12.017 -0.2263  0.1576  0.2649
    1Sil     Ob   83   1.250   1.855  12.412  0.2807 -0.2740 -0.1486
    1Sil     Ob   84   0.954   1.741  11.585  0.1981 -0.0481 -0.2203
    1Sil     Ob   85   1.185   1.678  11.551 -0.3705  0.2205  0.0220
    1Sil     Ob   86   0.591   1.681  12.342 -0.7765  0.9169 -0.6965
    1Sil     Ob   87   0.884   1.674  11.934 -0.0738 -0.2052 -0.4599
    1Sil     Ob   88   0.566   1.923  11.825 -0.0565 -0.0048 -0.4448
    1Sil     Ob   89   1.097   1.922  12.217 -0.3511  0.2470 -0.1104
    1Sil     Ob   90   0.859   1.915  11.429 -0.2386  0.3145  0.4602
    1Sil     Ob   91   0.881   2.100  11.241 -0.4169  0.3110 -0.6404
    1Sil     Ob   92   1.460   2.090  10.447  0.6203 -0.0589 -0.5900
    1Sil     Ob   93   1.120   2.000  10.800  0.4155  0.2252  0.0238
    1Sil     Ob   94   0.696   2.586  10.787 -0.2933  0.1440  0.5241
    1Sil     Ob   95   1.219   2.585  11.201  0.1152 -0.4524 -0.2681
    1Sil     Ob   96   1.058   2.487  10.417 -0.5011 -0.1517  0.4687
    1Sil     Ob   97   1.056   2.404  11.270 -0.0323 -0.0635  0.0676
    1Sil     Ob   98   0.820   2.431  10.458 -0.1335  0.5549 -0.0712
    1Sil     Ob   99   1.364   2.419  10.873 -0.0805 -0.2706  0.3305
    1Sil     Ob  100   0.844   2.155  11.000  0.2456 -0.6977  0.3093
    1Sil     Ob  101   1.151   2.156  10.612  0.7154 -0.8510  0.5193
    1Sil     Ob  102   0.825   2.342  11.180  0.0567  0.0549  0.6217
    1Sil     Ob  103   0.593   2.341  10.367 -0.0653  0.1984  0.3209
    1Sil     Ob  104   1.177   2.248  10.853  0.0567 -0.5328  0.0913
    1Sil     Ob  105   0.759   2.340  10.835 -0.1091  1.0333  0.0100
    1Sil     Ob  106   1.304   2.339  11.231 -0.3677 -0.5011  0.2618
    1Sil     Ob  107   0.981   2.240  10.421 -0.0854  0.2780  0.2423
    1Sil     Ob  108   1.224   2.182  10.359  0.6761 -0.3574  0.4210
    1Sil     Ob  109   0.650   2.160  11.158 -0.2070 -0.7500 -0.1161
    1Sil     Ob  110   0.946   2.186  10.757  0.2118  0.4665 -0.0643
    1Sil     Ob  111   0.616   2.397  10.622 -0.2088 -0.1315 -0.7319
    1Sil     Ob  112   1.156   2.427  11.029 -0.0616  0.1809  0.2415
    1Sil     Ob  113   0.844   2.100  12.432 -0.3904  0.4584 -0.5515
    1Sil     Ob  114   1.405   2.092  11.646  0.0068 -0.3999  0.4754
    1Sil     Ob  115   1.071   1.979  11.971 -0.2302 -0.5328 -0.1010
    1Sil     Ob  116   0.645   2.581  12.009 -0.1902 -0.6281 -0.0547
    1Sil     Ob  117   1.172   2.601  12.378  0.2909  0.3759 -0.0458
    1Sil     Ob  118   1.009   2.488  11.620  0.1524 -0.2363 -0.5312
    1Sil     Ob  119   1.013   2.425  12.453 -0.2000  0.7464 -0.0733
    1Sil     Ob  120   0.763   2.423  11.667 -0.1019  0.1884 -0.0101
    1Sil     Ob  121   1.312   2.408  12.065 -0.0919 -0.2422 -0.0411
    1Sil     Ob  122   0.802   2.175  12.193 -0.3471  0.0240  0.0736
    1Sil     Ob  123   1.383   2.166  11.394 -0.2317  0.2989  0.4959
    1Sil     Ob  124   1.094   2.162  11.792 -0.4405 -0.0765 -0.0572
    1Sil     Ob  125   0.779   2.357  12.376  0.0739 -0.3059 -0.3000
    1Sil     Ob  126   0.531   2.339  11.579 -0.1045 -0.5785 -0.2334
    1Sil     Ob  127   1.118   2.233  12.043 -0.0308 -0.2375 -0.0189
    1Sil     Ob  128   0.722   2.340  12.008 -0.4777  0.1593 -0.4645
    1Sil     Ob  129   1.254   2.352  12.402 -0.1359  0.2212  0.3310
    1Sil     Ob  130   0.933   2.234  11.607 -0.1088 -0.7120  0.1219
    1Sil     Ob  131   1.174   2.159  11.545 -0.7714 -0.7261 -0.2352
    1Sil     Ob  132   0.599   2.167  12.354  0.1594  0.0448 -0.1758
    1Sil     Ob  133   0.890   2.157  11.943 -0.1215  0.0760 -0.0866
    1Sil     Ob  134   0.552   2.417  11.821  0.1819  0.2174  0.5084
    1Sil     Ob  135   1.098   2.425  12.213  0.4135 -0.3314  0.6194
    1Sil     Ob  136   0.850   2.408  11.429  0.3296  0.5683  0.1131
    1Sil     Ob  137   0.862   2.590  11.250 -0.4766  0.5700  0.2181
    1Sil     Ob  138   1.446   2.599  10.447  0.4525 -0.4713 -0.1189
    1Sil     Ob  139   1.124   2.491  10.784  0.0406 -0.1931  0.1815
    1Sil     Ob  140   0.693   3.093  10.792 -0.1452 -0.5767  0.2651
    1Sil     Ob  141   1.235   3.088  11.188  0.5272 -0.3370  0.4023
    1Sil     Ob  142   1.046   2.975  10.437 -0.4162 -0.2349  0.1385
    1Sil     Ob  143   1.054   2.900  11.266 -0.1284  0.0248 -0.3688
    1Sil     Ob  144   0.804   2.915  10.472 -0.6737  0.2798 -0.2051
    1Sil     Ob  145   1.363   2.936  10.873 -0.2660 -0.1223 -0.4081
    1Sil     Ob  146   0.838   2.662  10.998  0.0301  1.0122  0.0666
    1Sil     Ob  147   1.134   2.659  10.598 -0.6223 -0.2293 -0.4347
    1Sil     Ob  148   0.817   2.840  11.189  0.0347  0.4060  0.2509
    1Sil     Ob  149   0.588   2.833  10.371  0.4380  0.2212  0.2606
    1Sil     Ob  150   1.175   2.745  10.844 -0.3924 -0.9181  0.4309
    1Sil     Ob  151   0.754   2.841  10.824  0.8197  0.2078  0.0803
    1Sil     Ob  152   1.293   2.836  11.222 -0.6596 -0.4842 -0.2740
    1Sil     Ob  153   0.965   2.731  10.411 -0.0478 -0.8823 -0.2314
    1Sil     Ob  154   1.213   2.694  10.356  0.0672  0.2506 -0.1754
    1Sil     Ob  155   0.636   2.664  11.145 -1.0921  0.6494 -0.4546
    1Sil     Ob  156   0.937   2.676  10.760  0.9632  0.4726  0.7504
    1Sil     Ob  157   0.595   2.913  10.624 -0.2628  0.0607  0.0127
    1Sil     Ob  158   1.150   2.920  11.021 -0.0397  0.0069  0.0023
    1Sil     Ob  159   0.834   2.599  12.440  0.7308 -0.4134 -0.2968
    1Sil     Ob  160   1.404   2.589  11.633 -0.7118  0.5295 -0.0510
    1Sil     Ob  161   1.106   2.482  11.963  0.6727 -0.1998 -0.3843
    1Sil     Ob  162   0.636   3.071  11.989  0.3204 -0.3179  0.3140
    1Sil     Ob  163   1.174   3.091  12.408  0.6966  0.2887  0.3423
    1Sil     Ob  164   1.001   2.979  11.624  0.0560  0.4104 -0.5517
    1Sil     Ob  165   1.004   2.914  12.454 -0.2930 -0.1419 -0.4062
    1Sil     Ob  166   0.753   2.901  11.670 -0.5284  0.5224 -0.5133
    1Sil     Ob  167   1.292   2.898  12.062 -0.1969  0.8587  0.0642
    1Sil     Ob  168   0.801   2.649  12.195 -0.2318 -0.3699  0.1571
    1Sil     Ob  169   1.381   2.663  11.390 -0.0818  0.4383 -1.1012
    1Sil     Ob  170   1.074   2.665  11.784 -0.0067  0.0228  0.2677
    1Sil     Ob  171   0.781   2.844  12.371 -0.2762  0.2476  0.6964
    1Sil     Ob  172   0.526   2.828  11.570  0.2679  0.4146  0.0558
    1Sil     Ob  173   1.098   2.732  12.037  0.1122  0.3803  0.3637
    1Sil     Ob  174   0.728   2.823  12.016  0.6881 -0.2144 -0.0641
    1Sil     Ob  175   1.246   2.843  12.413 -0.5668  0.0548 -0.3367
    1Sil     Ob  176   0.932   2.732  11.587  0.0597 -0.5094  0.4659
    1Sil     Ob  177   1.178   2.672  11.546  0.5110  0.3409  0.1288
    1Sil     Ob  178   0.594   2.669  12.354  0.2527 -0.1608 -0.2068
    1Sil     Ob  179   0.889   2.619  11.958 -0.3345 -0.3619  0.1997
    1Sil     Ob  180   0.562   2.892  11.823  0.0908  0.1649  0.3182
    1Sil     Ob  181   1.094   2.925  12.222  0.0647  0.3805  0.5116
    1Sil     Ob  182   0.847   2.921  11.424 -0.1328  0.0202 -0.3804
    1Sil     Ob  183   0.877   3.082  11.220  0.3171 -0.3557  0.4894
    1Sil     Ob  184   1.467   3.094  10.424 -0.1676  0.4116  0.0317
    1Sil     Ob  185   1.129   2.987  10.776  0.2794  0.0198 -0.1723
    1Sil     Ob  186   0.696   3.586  10.795 -0.1522 -0.3578  0.2177
    1Sil     Ob  187   1.239   3.582  11.192 -0.2231  0.8365 -0.4452
    1Sil     Ob  188   1.056   3.457  10.435  0.4846  0.2295 -0.1842
    1Sil     Ob  189   1.057   3.407  11.270  0.0750 -0.5134  0.0883
    1Sil     Ob  190   0.813   3.397  10.478  0.0009  0.0732 -0.9382
    1Sil     Ob  191   1.355   3.413  10.865 -0.5699  0.1542  0.4679
    1Sil     Ob  192   0.838   3.152  10.983  0.0984 -0.0342 -0.1985
    1Sil     Ob  193   1.133   3.157  10.581  0.4625  0.1115  0.7738
    1Sil     Ob  194   0.830   3.329  11.172  0.5798 -0.1825  0.0356
    1Sil     Ob  195   0.594   3.331  10.386 -0.2136  0.0331  0.2403
    1Sil     Ob  196   1.167   3.235  10.838  0.3925  0.2033 -0.1270
    1Sil     Ob  197   0.773   3.333  10.819 -0.3782 -0.2057 -0.6695
    1Sil     Ob  198   1.303   3.336  11.234 -0.5344 -0.3516 -0.1995
    1Sil     Ob  199   0.977   3.216  10.389 -0.6221 -0.1288  0.4902
    1Sil     Ob  200   1.219   3.139  10.338 -0.1442 -0.2351 -0.6236
    1Sil     Ob  201   0.643   3.164  11.154  0.4981 -0.1691 -0.1783
    1Sil     Ob  202   0.941   3.164  10.743 -0.6523  0.1266  0.1809
    1Sil     Ob  203   0.607   3.401  10.636 -0.2548  0.4042  0.3803
    1Sil     Ob  204   1.149   3.392  11.035  0.3796  0.1339 -0.3037
    1Sil     Ob  205   0.815   3.096  12.430  0.0561 -0.1513 -1.0641
    1Sil     Ob  206   1.428   3.090  11.632 -0.1120  0.0976 -0.0122
    1Sil     Ob  207   1.073   2.980  11.965 -0.0870  0.4639 -0.0424
    1Sil     Ob  208   0.648   3.570  11.994  0.2511 -0.0195 -0.3912
    1Sil     Ob  209   1.171   3.577  12.371  0.0535  0.7024 -0.0472
    1Sil     Ob  210   0.998   3.481  11.615 -0.3150  0.0052  0.3413
    1Sil     Ob  211   0.993   3.408  12.454 -0.1446  0.5788 -0.3783
    1Sil     Ob  212   0.758   3.395  11.669 -0.6922  0.7269 -0.0265
    1Sil     Ob  213   1.293   3.409  12.063 -0.7306 -0.4038 -0.4953
    1Sil     Ob  214   0.793   3.145  12.183 -0.0862  0.4561  0.2706
    1Sil     Ob  215   1.387   3.159  11.391 -0.4542  0.1328  0.3438
    1Sil     Ob  216   1.090   3.156  11.785 -0.5731  0.1203  0.2630
    1Sil     Ob  217   0.770   3.338  12.349  0.3357 -0.1871 -0.0475
    1Sil     Ob  218   0.522   3.325  11.584  0.0790  0.2722  0.1632
    1Sil     Ob  219   1.117   3.224  12.030 -0.8251  0.5565  0.6146
    1Sil     Ob  220   0.702   3.318  12.018  0.6863 -0.2576  0.3800
    1Sil     Ob  221   1.232   3.334  12.413 -0.0684  0.0207 -0.0299
    1Sil     Ob  222   0.936   3.224  11.589 -0.4147  0.0385  0.7469
    1Sil     Ob  223   1.186   3.144  11.541 -0.5664  0.4655  0.0905
    1Sil     Ob  224   0.586   3.159  12.337 -0.2352 -0.0533  0.1148
    1Sil     Ob  225   0.883   3.152  11.933  0.1511  0.6068  0.3103
    1Sil     Ob  226   0.554   3.398  11.824  0.8626  0.6980 -0.2308
    1Sil     Ob  227   1.089   3.396  12.214  0.0918 -0.0566 -0.1909
    1Sil     Ob  228   0.847   3.391  11.418  0.4203  0.2752 -0.4434
    1Sil     Ob  229   0.873   3.576  11.237  0.2816 -0.2047 -0.3708
    1Sil     Ob  230   1.453   3.572  10.428 -0.5907 -0.2168  0.0690
    1Sil     Ob  231   1.113   3.478  10.792 -0.0193  0.3901  0.5058
    1Sil     Ob  232   0.703   4.080  10.810  0.0433  0.3856 -0.4441
    1Sil     Ob  233   1.237   4.068  11.193 -0.1002  0.3041 -0.4539
    1Sil     Ob  234   1.061   3.968  10.422 -0.2191 -0.2440  0.3123
    1Sil     Ob  235   1.053   3.897  11.265 -0.0372  0.4974  0.0875
    1Sil     Ob  236   0.814   3.888  10.472 -0.3863  0.3312 -0.7722
    1Sil     Ob  237   1.368   3.897  10.868  1.0663  0.0789  0.0110
    1Sil     Ob  238   0.846   3.646  10.987  0.0078 -0.2302  0.0711
    1Sil     Ob  239   1.149   3.631  10.599  0.6848 -0.4694  0.4924
    1Sil     Ob  240   0.834   3.828  11.164  0.8590  0.1705  0.2664
    1Sil     Ob  241   0.583   3.828  10.375 -0.3408 -0.6021  0.1270
    1Sil     Ob  242   1.182   3.723  10.831  0.7606 -0.7261 -0.3537
    1Sil     Ob  243   0.770   3.830  10.827  0.4062  0.6531  0.3613
    1Sil     Ob  244   1.307   3.827  11.222  0.0463  0.4265 -0.0165
    1Sil     Ob  245   0.988   3.713  10.406  0.3228  0.3891  0.2771
    1Sil     Ob  246   1.226   3.650  10.353  0.0687 -0.4223  0.5715
    1Sil     Ob  247   0.644   3.657  11.146 -0.3942  0.4270  0.0093
    1Sil     Ob  248   0.938   3.659  10.748 -0.1779 -0.2865  0.1419
    1Sil     Ob  249   0.605   3.913  10.629  0.1283  0.6065 -0.4857
    1Sil     Ob  250   1.158   3.892  11.020  0.3856  0.6793  0.6531
    1Sil     Ob  251   0.817   3.580  12.432  0.0315  0.2635 -0.0279
    1Sil     Ob  252   1.410   3.586  11.639  0.7107  0.0298 -0.0711
    1Sil     Ob  253   1.063   3.468  11.968 -0.4400 -0.1797  0.7070
    1Sil     Ob  254   0.632   4.060  12.015 -0.7064  0.2764 -0.4374
    1Sil     Ob  255   1.188   4.059  12.383  0.3936  0.0425  0.2949
    1Sil     Ob  256   0.999   3.971  11.616 -0.3529 -0.0476 -0.1517
    1Sil     Ob  257   1.011   3.872  12.439 -0.0241 -0.3177  0.1597
    1Sil     Ob  258   0.756   3.897  11.660  0.1941 -0.3705 -0.0910
    1Sil     Ob  259   1.315   3.885  12.062 -0.9012 -0.3266 -0.1181
    1Sil     Ob  260   0.798   3.656  12.191 -0.2692  0.6544 -0.2107
    1Sil     Ob  261   1.378   3.649  11.391  0.0974 -0.5201  0.5412
    1Sil     Ob  262   1.086   3.644  11.780  0.3917 -0.1251 -0.0741
    1Sil     Ob  263   0.770   3.827  12.389  0.6907  0.5158  0.4108
    1Sil     Ob  264   0.522   3.818  11.578  0.4251  0.1309  0.4587
    1Sil     Ob  265   1.120   3.715  12.022 -0.2099 -0.1709 -0.1628
    1Sil     Ob  266   0.712   3.821  12.009  0.2261 -0.3404 -0.2444
    1Sil     Ob  267   1.259   3.816  12.394 -0.3251 -0.1206 -0.0370
    1Sil     Ob  268   0.929   3.721  11.591  0.7424  0.2074  0.2335
    1Sil     Ob  269   1.169   3.655  11.540 -0.4083  0.0670  0.4046
    1Sil     Ob  270   0.595   3.650  12.354 -0.7123  0.2720 -0.1910
    1Sil     Ob  271   0.881   3.649  11.942 -0.6275  0.0167 -0.4549
    1Sil     Ob  272   0.558   3.896  11.820 -0.2055  0.3982  0.1000
    1Sil     Ob  273   1.109   3.888  12.203 -0.5055  0.0381 -0.3871
    1Sil     Ob  274   0.849   3.897  11.418  0.1748  0.1354  0.4831
    1Sil     Ob  275   0.873   4.074  11.229 -0.1233 -0.7269  0.3158
    1Sil     Ob  276   1.458   4.073  10.444 -0.3840  0.0819  0.1310
    1Sil     Ob  277   1.135   3.969  10.781 -0.1724 -0.0826 -0.2204
    1Sil     Ob  278   1.053   0.929  11.266 -0.3457  0.4220  0.0589
    1Sil     Ob  279   0.809   0.937  10.467 -0.5077 -0.0374 -0.3640
    1Sil     Ob  280   1.366   0.939  10.875 -0.0067  0.5578 -0.0774
    1Sil     Ob  281   0.853   4.165  10.987 -0.0292  0.0675 -0.1459
    1Sil     Ob  282   1.147   4.146  10.592 -0.7022  0.1678  0.1895
    1Sil     Ob  283   0.815   4.319  11.189 -0.3373 -0.4877  0.3699
    1Sil     Ob  284   0.579   0.867  10.367  0.2595 -0.1874  0.6585
    1Sil     Ob  285   1.168   4.220  10.853  0.1639 -0.1412 -0.1769
    1Sil     Ob  286   0.765   0.867  10.807 -0.0584  0.2371 -0.6056
    1Sil     Ob  287   1.304   0.867  11.215 -0.0873  0.2662 -0.1469
    1Sil     Ob  288   0.989   0.762  10.382  0.6532 -0.3398 -0.0367
    1Sil     Ob  289   1.234   4.138  10.337 -0.1757  0.1470  0.1812
    1Sil     Ob  290   0.644   4.142  11.142 -0.2421 -0.2392 -0.6393
    1Sil     Ob  291   0.944   4.138  10.750  0.1389  0.4038 -0.5197
    1Sil     Ob  292   0.605   0.950  10.628  0.1492  1.0376 -0.5125
    1Sil     Ob  293   1.150   0.958  11.023  0.0038 -0.1341 -0.3939
    1Sil     Ob  294   0.838   4.072  12.434 -0.5527 -0.2651 -0.3904
    1Sil     Ob  295   1.415   4.072  11.624  0.2410  0.3997 -0.6202
    1Sil     Ob  296   1.094   3.967  11.956 -0.1744  0.2815  0.4206
    1Sil     Ob  297   1.011   0.936  12.458  0.1378 -0.1750  0.0041
    1Sil     Ob  298   0.758   0.920  11.667  1.1734  0.1017 -0.2387
    1Sil     Ob  299   1.291   0.897  12.056 -0.9416 -0.2485  0.3197
    1Sil     Ob  300   0.795   4.157  12.191 -0.5678  0.1892  0.3069
    1Sil     Ob  301   1.381   4.151  11.391  0.3807 -0.6576  0.2223
    1Sil     Ob  302   1.066   4.162  11.789 -0.2352  0.3462 -0.2685
    1Sil     Ob  303   0.768   4.317  12.384 -0.3663  0.1564 -0.1444
    1Sil     Ob  304   0.521   0.862  11.580  0.0419 -0.0676  0.5102
    1Sil     Ob  305   1.079   4.215  12.043 -0.0888  0.3113 -0.7130
    1Sil     Ob  306   0.704   0.858  11.996  0.0891  0.1129 -1.0590
    1Sil     Ob  307   1.252   0.861  12.415  0.4692 -0.0660  0.3041
    1Sil     Ob  308   0.938   0.761  11.576  0.3647  0.0098  0.1147
    1Sil     Ob  309   1.172   4.147  11.547  0.3376  0.6198  0.1766
    1Sil     Ob  310   0.597   4.134  12.354 -0.3019 -0.1361  0.3283
    1Sil     Ob  311   0.868   4.107  11.946 -0.4654  0.0415 -0.4325
    1Sil     Ob  312   0.554   0.943  11.819  0.0991  0.3035  0.7612
    1Sil     Ob  313   1.096   0.946  12.220 -0.0061  0.0309 -0.7979
    1Sil     Ob  314   0.846   0.943  11.422 -0.1470  0.5701 -0.0418
    1Sil     Ob  315   1.701   1.122  11.250 -0.2740 -0.0513  0.7331
    1Sil     Ob  316   2.301   1.120  10.439 -0.3249  0.4158 -0.8626
    1Sil     Ob  317   1.528   1.596  10.812  0.3176 -0.0590  0.0243
    1Sil     Ob  318   2.060   1.612  11.181  0.2647 -0.2909 -0.8126
    1Sil     Ob  319   1.902   1.490  10.422 -0.5281 -0.3071  0.6253
    1Sil     Ob  320   1.889   1.434  11.268  0.1972  0.6930  0.2839
    1Sil     Ob  321   1.655   1.430  10.477  0.1878  0.1810  0.3926
    1Sil     Ob  322   2.194   1.427  10.871  0.8498 -0.2260 -0.6944
    1Sil     Ob  323   1.685   1.182  10.998 -0.0785 -0.2501  0.3416
    1Sil     Ob  324   1.975   1.172  10.596  0.7326  0.1673 -0.7005
    1Sil     Ob  325   1.655   1.373  11.183 -0.0580 -0.4303 -0.7595
    1Sil     Ob  326   1.429   1.354  10.378 -0.9827 -0.6390 -0.3274
    1Sil     Ob  327   2.012   1.247  10.837 -0.0626 -0.2218 -0.4235
    1Sil     Ob  328   1.604   1.360  10.838  0.8717 -0.5742  0.6238
    1Sil     Ob  329   2.136   1.374  11.225 -0.1312  0.3251  0.2591
    1Sil     Ob  330   1.821   1.239  10.399  0.2307  0.0076  0.0707
    1Sil     Ob  331   2.069   1.186  10.348  0.2658  0.1660 -0.0646
    1Sil     Ob  332   1.475   1.189  11.156 -0.3605  0.4892 -0.1945
    1Sil     Ob  333   1.774   1.181  10.754 -0.0432 -0.2277  0.4472
    1Sil     Ob  334   1.457   1.418  10.634  0.5305 -0.1079 -0.2571
    1Sil     Ob  335   1.979   1.431  11.020 -0.0743 -0.1477  0.2888
    1Sil     Ob  336   1.658   1.112  12.443  0.5738 -0.8865  0.1100
    1Sil     Ob  337   2.249   1.106  11.622 -0.3780 -0.1127 -0.5707
    1Sil     Ob  338   1.474   1.593  12.006 -0.1529  0.4945 -0.0578
    1Sil     Ob  339   2.015   1.606  12.375 -0.1149  0.3399 -0.0288
    1Sil     Ob  340   1.837   1.506  11.620 -0.2225  0.1921 -0.5247
    1Sil     Ob  341   1.851   1.440  12.455  0.2688 -0.2124  0.3338
    1Sil     Ob  342   1.591   1.419  11.668 -0.0954  0.3184 -0.3822
    1Sil     Ob  343   2.141   1.422  12.060 -0.2237  0.3433  0.1972
    1Sil     Ob  344   1.621   1.174  12.197  0.1039  0.0762 -0.1063
    1Sil     Ob  345   2.215   1.183  11.384 -0.4658  0.1422  0.1710
    1Sil     Ob  346   1.911   1.185  11.787 -0.3272  0.2491  0.2394
    1Sil     Ob  347   1.611   1.355  12.378  0.2044 -0.1726  0.0081
    1Sil     Ob  348   1.356   1.355  11.585  0.0180 -0.1224  0.1112
    1Sil     Ob  349   1.945   1.253  12.032 -0.0933  0.1612 -1.2063
    1Sil     Ob  350   1.539   1.347  12.035  0.1752 -0.0716  0.0863
    1Sil     Ob  351   2.088   1.354  12.387 -0.1998 -0.1073 -0.2123
    1Sil     Ob  352   1.767   1.247  11.584  0.0741  0.2078  0.0399
    1Sil     Ob  353   2.013   1.186  11.544  0.0328  0.7846  0.4538
    1Sil     Ob  354   1.421   1.176  12.354  0.1667 -0.4660  0.3843
    1Sil     Ob  355   1.706   1.171  11.942  0.0708  0.4195 -0.0634
    1Sil     Ob  356   1.395   1.415  11.836 -0.2701  0.1303  1.0306
    1Sil     Ob  357   1.938   1.435  12.205  0.5024  0.2109  0.1610
    1Sil     Ob  358   1.683   1.436  11.427  0.1496 -0.0656  0.4293
    1Sil     Ob  359   1.712   1.614  11.243  0.0183  0.2611 -0.1355
    1Sil     Ob  360   2.293   1.602  10.443  0.5299  0.8093 -0.0705
    1Sil     Ob  361   1.954   1.499  10.780 -0.0965  0.3479  0.1576
    1Sil     Ob  362   1.528   2.102  10.792  0.2166 -0.1254 -0.2286
    1Sil     Ob  363   2.062   2.097  11.211 -0.4587 -0.1482  0.2712
    1Sil     Ob  364   1.882   1.988  10.440 -0.7462  0.1592  0.2680
    1Sil     Ob  365   1.891   1.921  11.266  0.8229  0.1398 -0.6829
    1Sil     Ob  366   1.644   1.905  10.481  0.1637 -0.0797 -0.0576
    1Sil     Ob  367   2.199   1.918  10.864  0.1210  0.0028  0.0348
    1Sil     Ob  368   1.681   1.677  10.997 -0.0965 -0.6373  0.9185
    1Sil     Ob  369   1.982   1.672  10.594  0.2105 -0.6313  0.0828
    1Sil     Ob  370   1.662   1.860  11.181 -0.3137  0.3545 -0.0504
    1Sil     Ob  371   1.408   1.846  10.390  0.3110 -0.2836 -0.8600
    1Sil     Ob  372   1.999   1.755  10.847 -0.3908  0.6795  0.0913
    1Sil     Ob  373   1.595   1.851  10.822 -1.0558 -0.2978 -0.0898
    1Sil     Ob  374   2.140   1.853  11.225  0.1328  0.3312  0.6254
    1Sil     Ob  375   1.820   1.733  10.406 -0.1569 -0.1709  0.3854
    1Sil     Ob  376   2.066   1.683  10.346 -0.0799  0.0257 -0.2788
    1Sil     Ob  377   1.489   1.667  11.155 -0.3332  0.1832  0.5549
    1Sil     Ob  378   1.762   1.674  10.752 -0.7729 -0.0381  0.9434
    1Sil     Ob  379   1.441   1.914  10.635  0.9156  0.1250 -0.0349
    1Sil     Ob  380   1.987   1.935  11.031  0.1594 -0.1427  0.1545
    1Sil     Ob  381   1.655   1.599  12.430 -0.1754 -0.0600 -0.1175
    1Sil     Ob  382   2.251   1.606  11.626 -0.3968 -0.0291  0.0979
    1Sil     Ob  383   1.917   1.495  11.966  0.0293 -0.6353  0.4444
    1Sil     Ob  384   1.459   2.088  12.002  0.0100 -0.5187 -0.3455
    1Sil     Ob  385   2.003   2.103  12.372  0.4185 -0.0804 -0.2757
    1Sil     Ob  386   1.842   1.992  11.613  0.0887 -0.0703  0.1310
    1Sil     Ob  387   1.838   1.930  12.446 -0.0636  0.4312  0.5036
    1Sil     Ob  388   1.607   1.921  11.678 -0.5338 -0.0354  0.6040
    1Sil     Ob  389   2.133   1.911  12.067  0.0460 -0.0831 -0.2490
    1Sil     Ob  390   1.634   1.680  12.186  0.6971 -0.6822  0.3757
    1Sil     Ob  391   2.214   1.673  11.378 -0.1150  0.0444 -0.0179
    1Sil     Ob  392   1.923   1.686  11.785  0.1651 -0.7855  0.5067
    1Sil     Ob  393   1.605   1.849  12.369  0.0209 -0.4926 -0.6006
    1Sil     Ob  394   1.370   1.845  11.583  0.6104  0.0066  0.5238
    1Sil     Ob  395   1.947   1.743  12.022 -0.0220 -0.0312 -0.3691
    1Sil     Ob  396   1.548   1.842  12.021 -0.4083  0.2975  0.0051
    1Sil     Ob  397   2.075   1.849  12.416  0.4718 -0.2730 -0.4302
    1Sil     Ob  398   1.774   1.746  11.592  0.1069 -0.5509  0.2524
    1Sil     Ob  399   2.011   1.678  11.538  0.4354 -0.0462  0.8292
    1Sil     Ob  400   1.426   1.667  12.334  0.0491 -0.1948  0.5086
    1Sil     Ob  401   1.720   1.666  11.939 -0.0144  0.1676  0.4593
    1Sil     Ob  402   1.402   1.900  11.827 -0.4600 -0.4261 -0.5473
    1Sil     Ob  403   1.921   1.917  12.207  0.3377 -0.1252 -0.3326
    1Sil     Ob  404   1.682   1.921  11.429  0.4730  0.0318 -0.2200
    1Sil     Ob  405   1.713   2.103  11.253 -0.0015 -0.5307  0.2074
    1Sil     Ob  406   2.304   2.098  10.429  0.3527  0.4141 -0.2114
    1Sil     Ob  407   1.960   1.997  10.783 -0.0666  0.2211  0.4573
    1Sil     Ob  408   1.532   2.591  10.800 -0.3011  0.3144 -0.2115
    1Sil     Ob  409   2.059   2.587  11.188 -0.5738  0.6391 -0.0615
    1Sil     Ob  410   1.900   2.481  10.419  0.4649 -0.4126  0.1489
    1Sil     Ob  411   1.891   2.416  11.267 -0.3110 -0.8202 -0.0989
    1Sil     Ob  412   1.652   2.421  10.470  0.2885  0.1501 -0.2823
    1Sil     Ob  413   2.199   2.430  10.880 -0.0929 -0.7264 -0.1313
    1Sil     Ob  414   1.673   2.161  11.001  0.0094 -0.3753 -0.1123
    1Sil     Ob  415   1.973   2.179  10.591 -0.4317 -0.5517 -0.2517
    1Sil     Ob  416   1.662   2.353  11.189  0.0040 -0.3386  0.4431
    1Sil     Ob  417   1.425   2.346  10.382  0.1591 -0.3533 -0.6813
    1Sil     Ob  418   2.018   2.240  10.833 -0.3737  0.3579  0.4773
    1Sil     Ob  419   1.604   2.344  10.831  0.0718 -0.7584  0.1532
    1Sil     Ob  420   2.131   2.344  11.237  0.1498 -0.1559  0.0665
    1Sil     Ob  421   1.819   2.237  10.390 -0.6384  0.3799 -0.1270
    1Sil     Ob  422   2.059   2.151  10.345 -0.2075 -0.0798  0.2074
    1Sil     Ob  423   1.482   2.173  11.159 -0.0164 -0.6290 -0.4556
    1Sil     Ob  424   1.781   2.167  10.752  0.1656 -0.0805 -0.0952
    1Sil     Ob  425   1.449   2.416  10.632 -0.3692  0.4874 -0.1914
    1Sil     Ob  426   1.990   2.396  11.029  0.3714  0.0441 -0.7696
    1Sil     Ob  427   1.648   2.100  12.449  0.3084  0.1913 -0.1525
    1Sil     Ob  428   2.241   2.093  11.631 -0.0057 -0.2221 -0.3015
    1Sil     Ob  429   1.921   1.995  11.965 -0.2697 -0.3304 -0.6406
    1Sil     Ob  430   1.477   2.587  11.984  0.1729  0.3972  0.2354
    1Sil     Ob  431   2.004   2.600  12.394  0.1966 -0.3199  0.4167
    1Sil     Ob  432   1.835   2.492  11.612  0.1936 -0.1310 -0.5546
    1Sil     Ob  433   1.827   2.427  12.460 -0.0126  0.3158  0.2018
    1Sil     Ob  434   1.588   2.399  11.662 -0.3178  0.0453 -0.4069
    1Sil     Ob  435   2.131   2.403  12.067  0.2282 -0.5712 -0.5253
    1Sil     Ob  436   1.618   2.164  12.202  0.0473  0.0626  0.1147
    1Sil     Ob  437   2.213   2.167  11.399 -0.0490 -0.6639 -0.5471
    1Sil     Ob  438   1.895   2.186  11.797  0.4015  0.0001  0.4067
    1Sil     Ob  439   1.600   2.344  12.383  0.5537 -0.5552  0.2252
    1Sil     Ob  440   1.356   2.336  11.579  0.1529 -0.1883 -0.2925
    1Sil     Ob  441   1.927   2.234  12.052  0.0192 -0.1193  0.9048
    1Sil     Ob  442   1.552   2.335  12.017 -0.2569  0.3103  0.2937
    1Sil     Ob  443   2.070   2.350  12.416  0.0063 -0.4159 -0.2923
    1Sil     Ob  444   1.762   2.240  11.573  0.9921  0.4430  0.5940
    1Sil     Ob  445   2.010   2.173  11.552 -0.2602  0.1065 -0.3301
    1Sil     Ob  446   1.421   2.165  12.370 -0.1199  0.0217 -0.0860
    1Sil     Ob  447   1.704   2.146  11.964 -0.0844 -0.5006  0.5144
    1Sil     Ob  448   1.391   2.408  11.826  0.2393  0.4205  0.0206
    1Sil     Ob  449   1.914   2.430  12.218  0.4460 -0.3549  0.6849
    1Sil     Ob  450   1.680   2.431  11.417  0.8180 -0.5947 -0.7026
    1Sil     Ob  451   1.717   2.599  11.226  0.5012 -0.2281 -0.1756
    1Sil     Ob  452   2.303   2.587  10.446  0.5402  0.3025  0.8083
    1Sil     Ob  453   1.953   2.493  10.794  0.3755  0.3518 -0.1246
    1Sil     Ob  454   1.545   3.095  10.779  0.0959 -0.3923  0.3386
    1Sil     Ob  455   2.057   3.081  11.196  0.1582  0.7301  0.6306
    1Sil     Ob  456   1.900   2.977  10.409  0.3610 -0.2782  0.0098
    1Sil     Ob  457   1.881   2.914  11.260  0.1631 -0.1667 -0.3514
    1Sil     Ob  458   1.651   2.918  10.458  0.3255 -0.1531 -0.1416
    1Sil     Ob  459   2.189   2.917  10.872 -0.9021 -0.1237  0.5954
    1Sil     Ob  460   1.678   2.660  10.992  0.4266  0.0126 -0.0774
    1Sil     Ob  461   1.980   2.652  10.600 -0.3334  0.3588  0.6153
    1Sil     Ob  462   1.653   2.841  11.171  0.2802 -0.2150 -0.1749
    1Sil     Ob  463   1.422   2.837  10.366 -0.2397  0.4040  0.0466
    1Sil     Ob  464   2.010   2.738  10.831 -0.1563  0.6911  0.0583
    1Sil     Ob  465   1.606   2.840  10.828 -0.2589  0.2133 -1.0045
    1Sil     Ob  466   2.130   2.834  11.211 -0.1739 -0.0089  0.0247
    1Sil     Ob  467   1.816   2.729  10.409  0.0165 -0.3382 -0.0623
    1Sil     Ob  468   2.071   2.661  10.349 -0.2442 -0.1678  0.3895
    1Sil     Ob  469   1.472   2.656  11.154 -0.7531  0.4638  0.3575
    1Sil     Ob  470   1.773   2.675  10.752 -0.1922  0.4432  0.0944
    1Sil     Ob  471   1.446   2.918  10.620 -0.7670  0.5592 -0.4035
    1Sil     Ob  472   1.984   2.917  11.020  0.4137  1.1608 -0.3544
    1Sil     Ob  473   1.631   2.595  12.437  0.2434  0.2071  0.3598
    1Sil     Ob  474   2.253   2.582  11.632  0.2317 -0.3010  0.1159
    1Sil     Ob  475   1.903   2.485  11.968 -0.0441  0.3045 -0.0375
    1Sil     Ob  476   1.460   3.088  11.995  0.0662 -0.5865 -0.7994
    1Sil     Ob  477   2.014   3.087  12.373  0.2381 -0.7496  0.4926
    1Sil     Ob  478   1.840   2.967  11.610  0.1660 -0.5253  0.1978
    1Sil     Ob  479   1.837   2.938  12.463  0.6380  0.5825 -0.6761
    1Sil     Ob  480   1.603   2.888  11.664  0.2326  0.0409 -0.6607
    1Sil     Ob  481   2.123   2.925  12.065 -0.1633 -0.4524 -0.1616
    1Sil     Ob  482   1.625   2.669  12.186  0.1593 -0.1390 -0.1200
    1Sil     Ob  483   2.213   2.650  11.383  0.4216 -0.6071  0.4698
    1Sil     Ob  484   1.920   2.663  11.777 -0.0102 -0.1616 -0.3749
    1Sil     Ob  485   1.605   2.844  12.380 -0.3055  0.4891 -0.2074
    1Sil     Ob  486   1.369   2.839  11.574  0.0103  0.2670 -0.0646
    1Sil     Ob  487   1.961   2.734  12.022  0.3048  0.0312 -0.6211
    1Sil     Ob  488   1.537   2.839  12.018 -0.6044 -0.1397  0.2812
    1Sil     Ob  489   2.083   2.842  12.414 -0.5335  0.3047  0.0434
    1Sil     Ob  490   1.777   2.727  11.576 -0.3856  0.4185  0.8404
    1Sil     Ob  491   2.021   2.640  11.545  0.3640  0.0306 -0.1243
    1Sil     Ob  492   1.418   2.674  12.338 -0.0426  0.0450  0.8731
    1Sil     Ob  493   1.721   2.669  11.931 -0.1131  0.4987 -0.0191
    1Sil     Ob  494   1.387   2.915  11.827  0.2526 -0.8363 -0.0000
    1Sil     Ob  495   1.915   2.900  12.221 -0.5571  0.1958 -0.1908
    1Sil     Ob  496   1.679   2.904  11.417  0.4622  0.2914 -0.1005
    1Sil     Ob  497   1.693   3.093  11.236  0.5000  0.4820  0.7887
    1Sil     Ob  498   2.305   3.083  10.440  0.0239 -0.6020  0.6978
    1Sil     Ob  499   1.963   2.986  10.769  0.5491  0.5883  0.4631
    1Sil     Ob  500   1.526   3.593  10.801  0.1822  0.4721  0.3286
    1Sil     Ob  501   2.070   3.574  11.190 -0.0657 -0.3454 -0.4744
    1Sil     Ob  502   1.889   3.470  10.418 -0.5581 -0.2956 -0.1194
    1Sil     Ob  503   1.897   3.401  11.262 -0.3157 -0.3070  0.0444
    1Sil     Ob  504   1.648   3.410  10.463 -0.3366  0.0664  0.1157
    1Sil     Ob  505   2.194   3.416  10.856 -0.4019  0.1816 -0.3995
    1Sil     Ob  506   1.684   3.176  10.985 -0.1589  0.0885 -0.2390
    1Sil     Ob  507   1.983   3.155  10.585  0.0453  0.0252 -0.6947
    1Sil     Ob  508   1.667   3.343  11.169 -0.1864  0.5840 -0.1781
    1Sil     Ob  509   1.398   3.332  10.385  0.5056 -0.0251 -0.7892
    1Sil     Ob  510   2.014   3.238  10.826 -0.2202  0.0838 -0.1586
    1Sil     Ob  511   1.602   3.342  10.801  0.0131  0.7643 -0.3144
    1Sil     Ob  512   2.141   3.326  11.216 -0.2796 -0.2073 -0.2009
    1Sil     Ob  513   1.820   3.225  10.399 -0.0345  0.5877 -0.2696
    1Sil     Ob  514   2.070   3.171  10.340  0.3989  0.6744  0.7831
    1Sil     Ob  515   1.472   3.175  11.149  0.4565  1.0811 -0.1007
    1Sil     Ob  516   1.781   3.169  10.732  0.7764 -0.1253 -0.5185
    1Sil     Ob  517   1.435   3.426  10.623  0.0286  0.1256  0.4175
    1Sil     Ob  518   1.992   3.410  11.019  0.2023  0.6532  0.6112
    1Sil     Ob  519   1.631   3.084  12.455 -0.2998 -0.5144 -0.1683
    1Sil     Ob  520   2.246   3.080  11.629 -0.5660  0.1569  0.0049
    1Sil     Ob  521   1.882   2.977  11.984  0.2253 -0.2913 -0.2686
    1Sil     Ob  522   1.469   3.579  12.012  0.1845 -0.0642 -0.4259
    1Sil     Ob  523   2.010   3.582  12.395 -0.1146 -0.0806 -1.1519
    1Sil     Ob  524   1.830   3.468  11.616  0.2183 -0.7012 -0.2096
    1Sil     Ob  525   1.839   3.406  12.463  0.1824 -0.1600  0.1692
    1Sil     Ob  526   1.597   3.399  11.666  0.1771  0.1065 -0.1490
    1Sil     Ob  527   2.142   3.398  12.067 -0.2892 -0.8181  0.5143
    1Sil     Ob  528   1.626   3.146  12.190 -0.4411  0.1401  0.2464
    1Sil     Ob  529   2.210   3.159  11.382 -0.1008  0.8200  0.3032
    1Sil     Ob  530   1.915   3.144  11.792  0.5192 -0.6044 -0.0735
    1Sil     Ob  531   1.598   3.329  12.378 -0.4131  0.3775  0.3619
    1Sil     Ob  532   1.362   3.331  11.580  1.5196  0.0328  0.6682
    1Sil     Ob  533   1.959   3.229  12.020 -0.1061 -0.3461  0.2923
    1Sil     Ob  534   1.541   3.332  12.020  0.1332  0.0858  0.2722
    1Sil     Ob  535   2.078   3.329  12.410 -0.3408 -0.2581 -0.0155
    1Sil     Ob  536   1.767   3.222  11.588 -0.6534  0.0764  0.0337
    1Sil     Ob  537   2.013   3.142  11.547 -0.3560 -0.1824 -0.1749
    1Sil     Ob  538   1.415   3.160  12.359  1.1546 -0.0610  0.2387
    1Sil     Ob  539   1.705   3.155  11.937 -0.5862 -0.3250  0.3219
    1Sil     Ob  540   1.388   3.417  11.827 -0.8685 -0.3729  0.3235
    1Sil     Ob  541   1.930   3.408  12.210 -0.4582  0.0471  0.4225
    1Sil     Ob  542   1.686   3.399  11.424 -0.7406  0.2789  0.2545
    1Sil     Ob  543   1.715   3.587  11.238 -0.3331  0.0679 -0.4087
    1Sil     Ob  544   2.299   3.588  10.412 -0.0928  0.0273 -0.3244
    1Sil     Ob  545   1.960   3.478  10.774 -0.1941 -0.5444 -0.6248
    1Sil     Ob  546   1.530   4.083  10.790  0.5294  0.0265 -0.3828
    1Sil     Ob  547   2.073   4.069  11.171 -0.3342  0.2418  0.0092
    1Sil     Ob  548   1.893   3.966  10.425 -0.2480  0.3545 -0.3886
    1Sil     Ob  549   1.887   3.902  11.262  0.3826  0.0098  0.4474
    1Sil     Ob  550   1.648   3.891  10.481 -0.8251 -0.1362 -0.0204
    1Sil     Ob  551   2.186   3.908  10.868  0.2365 -0.1028  0.2220
    1Sil     Ob  552   1.681   3.654  10.985  0.2764  0.6405 -0.0591
    1Sil     Ob  553   1.975   3.650  10.589  0.1108  0.1427 -0.6628
    1Sil     Ob  554   1.673   3.829  11.167  0.4781 -0.8189  0.6670
    1Sil     Ob  555   1.415   3.825  10.374 -0.0196 -0.0877  0.3501
    1Sil     Ob  556   1.997   3.716  10.835 -0.1588 -0.1320 -0.0456
    1Sil     Ob  557   1.609   3.838  10.817  0.4560  0.0116 -0.9784
    1Sil     Ob  558   2.133   3.822  11.220 -0.4423  0.3458  0.1781
    1Sil     Ob  559   1.818   3.720  10.404 -0.1039  0.4719 -0.0537
    1Sil     Ob  560   2.060   3.651  10.336  0.1402 -0.9605 -0.8150
    1Sil     Ob  561   1.476   3.657  11.153  0.4464  0.4052 -0.2954
    1Sil     Ob  562   1.770   3.655  10.739  0.1717 -0.2769  0.6578
    1Sil     Ob  563   1.450   3.896  10.626 -0.0918 -0.2280  0.1892
    1Sil     Ob  564   1.979   3.868  11.029  0.4139  0.3598 -0.2684
    1Sil     Ob  565   1.658   3.577  12.434 -0.3369 -0.0694 -0.3579
    1Sil     Ob  566   2.227   3.572  11.641  0.0173  0.1009  0.0937
    1Sil     Ob  567   1.926   3.474  11.957  0.4550  0.2704 -0.4780
    1Sil     Ob  568   1.492   4.068  11.996  0.0750 -0.1846 -0.4413
    1Sil     Ob  569   2.010   4.071  12.377 -0.5839  0.4756  0.4497
    1Sil     Ob  570   1.839   3.973  11.598  0.3666 -0.4591  0.8552
    1Sil     Ob  571   1.844   3.899  12.469 -0.2144 -0.0237  0.5967
    1Sil     Ob  572   1.598   3.908  11.669 -0.0438  0.2603  0.2758
    1Sil     Ob  573   2.123   3.896  12.064  0.1646  0.5892  0.3574
    1Sil     Ob  574   1.630   3.666  12.191 -0.6478  0.0688 -0.8300
    1Sil     Ob  575   2.210   3.647  11.393 -0.3000  0.0085  0.4798
    1Sil     Ob  576   1.903   3.654  11.786  0.1259 -0.2178 -0.2748
    1Sil     Ob  577   1.595   3.829  12.398  0.4296  0.6365 -0.0568
    1Sil     Ob  578   1.364   3.832  11.571 -0.1679 -0.5002 -0.2869
    1Sil     Ob  579   1.947   3.710  12.031 -0.1628  0.3724  0.2280
    1Sil     Ob  580   1.566   3.816  11.988  0.2678  0.0441  0.3268
    1Sil     Ob  581   2.077   3.820  12.429 -0.1444 -0.4197  0.3480
    1Sil     Ob  582   1.754   3.730  11.591  0.3247  0.9387  1.1097
    1Sil     Ob  583   1.999   3.645  11.544  0.0995 -0.3101  0.4877
    1Sil     Ob  584   1.427   3.636  12.355  0.0998 -0.2913 -0.3919
    1Sil     Ob  585   1.718   3.613  11.958  0.6136  0.1206  0.2036
    1Sil     Ob  586   1.395   3.912  11.822  0.2227  0.2796  0.5490
    1Sil     Ob  587   1.920   3.891  12.217  0.1827  0.5039 -0.3038
    1Sil     Ob  588   1.673   3.899  11.416  0.6403 -0.4051  0.5369
    1Sil     Ob  589   1.708   4.077  11.239  0.1400  0.0197  0.2911
    1Sil     Ob  590   2.282   4.077  10.448 -0.2369 -0.1720  0.0907
    1Sil     Ob  591   1.941   3.971  10.791 -0.0328  0.0946  0.1014
    1Sil     Ob  592   1.895   0.951  11.277 -0.3221 -0.1034 -0.2496
    1Sil     Ob  593   1.640   0.939  10.475 -0.0767  0.1916 -0.1561
    1Sil     Ob  594   2.189   0.947  10.883 -0.1022  0.1930  0.3230
    1Sil     Ob  595   1.672   4.146  10.989  0.1678  0.4095  0.1394
    1Sil     Ob  596   1.970   4.135  10.599  0.0459  0.8564 -0.5678
    1Sil     Ob  597   1.658   4.327  11.185  0.0708  0.0831  0.5855
    1Sil     Ob  598   1.413   4.311  10.382  0.0078 -0.6876  0.0526
    1Sil     Ob  599   2.013   4.219  10.841  0.3563 -0.1005  0.0119
    1Sil     Ob  600   1.593   0.877  10.824 -0.0362  0.6480  0.1496
    1Sil     Ob  601   2.143   0.872  11.228 -0.2851 -0.1686  0.5502
    1Sil     Ob  602   1.805   0.752  10.417  0.4922 -0.2439 -0.6067
    1Sil     Ob  603   2.051   4.158  10.354  0.2526  0.1392  0.0103
    1Sil     Ob  604   1.477   4.144  11.156 -0.6556  0.3627 -0.6325
    1Sil     Ob  605   1.765   4.168  10.755 -0.4645 -0.5156  0.6711
    1Sil     Ob  606   1.440   0.951  10.627  0.2672  0.1665 -0.3267
    1Sil     Ob  607   1.987   0.924  11.035 -0.0029 -0.0945 -0.8879
    1Sil     Ob  608   1.653   4.074  12.444  0.5160 -0.3465 -0.2474
    1Sil     Ob  609   2.243   4.065  11.630  0.0739  0.5361  0.9652
    1Sil     Ob  610   1.899   3.964  11.973 -0.3477  0.6689  0.2231
    1Sil     Ob  611   1.847   0.949  12.455  0.1157 -0.5703  0.0397
    1Sil     Ob  612   1.606   0.931  11.674  0.3837 -0.0640 -0.0876
    1Sil     Ob  613   2.143   0.946  12.063 -0.0291 -0.1889  0.0926
    1Sil     Ob  614   1.640   4.143  12.194  0.3485 -0.4955  0.6687
    1Sil     Ob  615   2.222   4.129  11.378  0.0202 -0.1579  0.4461
    1Sil     Ob  616   1.935   4.131  11.777 -0.3219  0.2832  0.0114
    1Sil     Ob  617   1.608   4.321  12.380  0.0173  0.1875 -0.2240
    1Sil     Ob  618   1.375   4.323  11.575  0.1798  0.2437  1.3925
    1Sil     Ob  619   1.964   4.216  12.017  0.8453 -0.5942 -0.3515
    1Sil     Ob  620   1.551   0.862  12.013  0.2162  0.1048  0.2791
    1Sil     Ob  621   2.082   0.859  12.404  0.6216 -0.0365  0.1918
    1Sil     Ob  622   1.778   0.756  11.591 -0.5137  0.0447  0.3074
    1Sil     Ob  623   2.011   4.138  11.531  0.3553  0.0295  0.5683
    1Sil     Ob  624   1.430   4.143  12.344 -0.5709 -0.7393  0.4842
    1Sil     Ob  625   1.730   4.142  11.935 -1.0069  0.1305 -0.1081
    1Sil     Ob  626   1.392   0.933  11.818 -0.2478  0.3064  0.1734
    1Sil     Ob  627   1.931   0.914  12.205 -0.1175  0.3352 -0.5113
    1Sil     Ob  628   1.692   0.932  11.431 -0.4021 -0.4640 -0.0535
    1Sil     Ob  629   2.539   1.114  11.240  0.0949 -0.0836 -0.0333
    1Sil     Ob  630   3.131   1.108  10.427  0.2737 -0.5189 -0.1952
    1Sil     Ob  631   2.363   1.603  10.792 -0.3197 -0.1923  0.2619
    1Sil     Ob  632   2.893   1.615  11.198  0.0613 -0.1000 -0.1234
    1Sil     Ob  633   2.740   1.493  10.416  0.2821 -0.7274 -0.0292
    1Sil     Ob  634   2.726   1.438  11.268  0.3647 -0.4965  0.6635
    1Sil     Ob  635   2.493   1.434  10.472  0.8628  0.5851  0.0249
    1Sil     Ob  636   3.021   1.429  10.881  0.0075  0.0791  0.4334
    1Sil     Ob  637   2.511   1.195  10.996  0.0492 -0.5044  0.0978
    1Sil     Ob  638   2.822   1.178  10.599  0.7665  0.0767  0.0649
    1Sil     Ob  639   2.494   1.361  11.182 -0.0065 -0.1212  0.0974
    1Sil     Ob  640   2.255   1.362  10.375  0.2482  0.2679  0.1703
    1Sil     Ob  641   2.829   1.268  10.855  0.0588  0.1333  0.4493
    1Sil     Ob  642   2.437   1.361  10.826  0.4118  0.2279  0.0253
    1Sil     Ob  643   2.967   1.365  11.207 -0.2590 -0.8819 -0.2901
    1Sil     Ob  644   2.661   1.249  10.403 -0.0232 -0.1456 -0.0760
    1Sil     Ob  645   2.893   1.175  10.346 -0.2323  0.2796  0.0640
    1Sil     Ob  646   2.300   1.194  11.146  0.0306 -0.1050 -0.5401
    1Sil     Ob  647   2.603   1.199  10.741 -0.0777 -0.0077 -0.2058
    1Sil     Ob  648   2.284   1.425  10.629 -0.2379 -0.3858  0.3248
    1Sil     Ob  649   2.812   1.442  11.029 -0.4877  0.1466  0.2414
    1Sil     Ob  650   2.490   1.113  12.429  0.2213 -0.3895  0.2690
    1Sil     Ob  651   3.081   1.109  11.617  0.0122  0.3335  0.4065
    1Sil     Ob  652   2.306   1.600  12.001  0.4508 -0.5942  0.2336
    1Sil     Ob  653   2.834   1.606  12.362  0.3836  0.4724  0.4745
    1Sil     Ob  654   2.673   1.487  11.628 -0.3118 -0.1873  0.2056
    1Sil     Ob  655   2.658   1.429  12.451  0.2346 -0.1772 -0.6016
    1Sil     Ob  656   2.429   1.416  11.667 -0.0839 -0.5103 -0.2992
    1Sil     Ob  657   2.968   1.417  12.066 -0.1937 -0.3843  0.6192
    1Sil     Ob  658   2.476   1.191  12.174  0.9957 -0.3219  0.5773
    1Sil     Ob  659   3.061   1.201  11.381  0.0980  0.6780 -0.3900
    1Sil     Ob  660   2.766   1.170  11.777  0.6012  0.3770 -0.2024
    1Sil     Ob  661   2.429   1.362  12.366  0.2906 -0.3156  0.2825
    1Sil     Ob  662   2.199   1.355  11.571  0.1923 -0.2455 -0.7513
    1Sil     Ob  663   2.795   1.251  12.016  0.0852  0.5480  0.1279
    1Sil     Ob  664   2.385   1.356  11.997  0.1379 -0.3042  0.1194
    1Sil     Ob  665   2.915   1.362  12.393  0.1704  0.2279 -0.3491
    1Sil     Ob  666   2.604   1.241  11.588 -0.2482  0.6728 -0.2736
    1Sil     Ob  667   2.841   1.191  11.531 -0.5255  0.6147  0.2920
    1Sil     Ob  668   2.266   1.178  12.329  0.2169 -0.2037 -0.3008
    1Sil     Ob  669   2.568   1.190  11.926 -0.0679 -0.2897  0.3506
    1Sil     Ob  670   2.226   1.435  11.821  0.0731 -0.7207 -0.4811
    1Sil     Ob  671   2.749   1.420  12.211 -0.5881  0.5316  0.1620
    1Sil     Ob  672   2.515   1.422  11.427 -0.0486 -0.1314  0.4939
    1Sil     Ob  673   2.542   1.609  11.237  0.0684 -0.3379  0.6365
    1Sil     Ob  674   3.145   1.598  10.433  0.4675  0.8080  0.3970
    1Sil     Ob  675   2.802   1.510  10.779 -0.3336 -0.0653  0.4126
    1Sil     Ob  676   2.367   2.099  10.804  0.1123 -0.1016  0.1669
    1Sil     Ob  677   2.897   2.111  11.195  0.0173  0.9225  0.2606
    1Sil     Ob  678   2.739   1.990  10.420  0.8795  0.1923 -0.2668
    1Sil     Ob  679   2.724   1.924  11.264 -0.4920  0.1688  0.0622
    1Sil     Ob  680   2.501   1.927  10.467 -0.0384  0.3475  0.3243
    1Sil     Ob  681   3.020   1.936  10.868 -0.2086  0.7556 -0.6171
    1Sil     Ob  682   2.515   1.676  10.987 -0.2082  0.1244 -0.2796
    1Sil     Ob  683   2.822   1.678  10.590  0.0148  0.4198  0.2260
    1Sil     Ob  684   2.493   1.857  11.166  0.5252 -0.1186  0.5857
    1Sil     Ob  685   2.264   1.848  10.365 -0.2116 -0.0461 -0.4255
    1Sil     Ob  686   2.835   1.749  10.841  0.2897 -0.6045  0.7257
    1Sil     Ob  687   2.441   1.850  10.819 -0.2965  0.0580 -0.3679
    1Sil     Ob  688   2.974   1.857  11.232  0.6443 -0.3320  0.5328
    1Sil     Ob  689   2.674   1.740  10.377  0.1748  0.2717 -0.6594
    1Sil     Ob  690   2.908   1.658  10.338 -0.5033  0.1214 -0.2993
    1Sil     Ob  691   2.304   1.676  11.140 -0.3405 -0.1560 -0.0611
    1Sil     Ob  692   2.617   1.666  10.733 -0.0780  0.9103  0.7855
    1Sil     Ob  693   2.284   1.922  10.620 -0.4215  0.4121 -0.8498
    1Sil     Ob  694   2.823   1.926  11.038  0.5431  0.2705 -0.0748
    1Sil     Ob  695   2.484   1.612  12.429  0.6291 -0.5132  0.3299
    1Sil     Ob  696   3.088   1.592  11.624  0.5236  0.3222  0.7689
    1Sil     Ob  697   2.741   1.502  11.962 -0.2635 -0.4804  0.7337
    1Sil     Ob  698   2.299   2.098  12.009  0.3167 -0.3741  0.0438
    1Sil     Ob  699   2.848   2.100  12.390 -0.2912 -0.0260 -0.5983
    1Sil     Ob  700   2.669   1.980  11.620  0.1414 -0.1732  0.4764
    1Sil     Ob  701   2.675   1.930  12.458  0.1623  0.0674  0.1732
    1Sil     Ob  702   2.421   1.921  11.661 -0.7184  0.6228  0.7521
    1Sil     Ob  703   2.969   1.900  12.064 -0.6933  0.0081 -0.2336
    1Sil     Ob  704   2.473   1.683  12.179 -0.0897  0.6268  0.1379
    1Sil     Ob  705   3.051   1.675  11.392 -0.3970  1.0586 -0.3247
    1Sil     Ob  706   2.750   1.679  11.783  0.0127 -0.8813 -0.4519
    1Sil     Ob  707   2.441   1.854  12.368  0.3358  0.3553  0.2421
    1Sil     Ob  708   2.195   1.850  11.571  0.1964  0.2635 -0.1521
    1Sil     Ob  709   2.768   1.751  12.036  0.2145  0.6427  0.4811
    1Sil     Ob  710   2.376   1.850  12.002 -0.0298 -0.6371  0.1851
    1Sil     Ob  711   2.911   1.853  12.399  0.8365 -0.3225 -0.2910
    1Sil     Ob  712   2.597   1.732  11.579  0.7697  0.2257 -0.1730
    1Sil     Ob  713   2.851   1.645  11.546 -0.2271  0.3553 -0.2275
    1Sil     Ob  714   2.264   1.686  12.331 -0.2821  1.0453 -0.8892
    1Sil     Ob  715   2.545   1.661  11.928  0.0513  0.0503 -0.2029
    1Sil     Ob  716   2.213   1.927  11.817  0.0159  0.3217  0.3004
    1Sil     Ob  717   2.759   1.930  12.213  0.2805  0.3066 -0.4274
    1Sil     Ob  718   2.513   1.925  11.417  0.1320 -0.2364  0.4320
    1Sil     Ob  719   2.538   2.098  11.229 -0.3637 -0.4594  0.3473
    1Sil     Ob  720   3.148   2.101  10.423 -0.1887  0.0588  0.0721
    1Sil     Ob  721   2.775   1.996  10.794  0.3656 -0.0315 -0.2632
    1Sil     Ob  722   2.370   2.601  10.791  0.2346 -0.0090 -0.2457
    1Sil     Ob  723   2.905   2.604  11.197  0.1366  0.6813  0.5403
    1Sil     Ob  724   2.722   2.481  10.437 -0.6015  0.2457  0.0911
    1Sil     Ob  725   2.733   2.411  11.266 -0.3501 -0.0366  0.0204
    1Sil     Ob  726   2.478   2.387  10.473 -0.4978  0.4138 -0.0158
    1Sil     Ob  727   3.024   2.413  10.878 -0.6966  0.5056  0.2396
    1Sil     Ob  728   2.512   2.167  10.989  0.1314 -0.0806  0.1198
    1Sil     Ob  729   2.811   2.158  10.607 -0.0597  0.7449 -0.0033
    1Sil     Ob  730   2.502   2.343  11.173  0.2326  0.5193 -0.4932
    1Sil     Ob  731   2.240   2.342  10.386 -0.0706 -0.2160 -0.4255
    1Sil     Ob  732   2.839   2.239  10.850  0.1484 -0.5703  0.3248
    1Sil     Ob  733   2.437   2.352  10.823 -0.2018 -0.0293 -0.2428
    1Sil     Ob  734   2.978   2.353  11.210 -0.1194 -0.1229  0.6890
    1Sil     Ob  735   2.668   2.236  10.393  0.1072  0.7120 -0.3994
    1Sil     Ob  736   2.905   2.169  10.353  0.4311 -0.5265 -0.1463
    1Sil     Ob  737   2.304   2.181  11.146 -0.4672  0.0936 -0.5636
    1Sil     Ob  738   2.606   2.173  10.758 -0.2725 -0.3307 -0.6034
    1Sil     Ob  739   2.276   2.410  10.634 -0.2137  0.1562 -0.1089
    1Sil     Ob  740   2.812   2.422  11.026  0.1056  0.1756  0.2953
    1Sil     Ob  741   2.480   2.094  12.442 -0.3137 -0.7505 -0.0216
    1Sil     Ob  742   3.062   2.093  11.647  0.1571 -0.6787  0.6528
    1Sil     Ob  743   2.751   2.003  11.967 -0.2935  0.1580  0.5140
    1Sil     Ob  744   2.302   2.588  12.000 -0.7072 -0.1890 -0.4420
    1Sil     Ob  745   2.853   2.599  12.392  0.1955 -0.6877 -0.3586
    1Sil     Ob  746   2.674   2.482  11.618 -0.2188  0.0390 -0.5301
    1Sil     Ob  747   2.687   2.417  12.459  0.1656  0.1260 -0.0051
    1Sil     Ob  748   2.426   2.404  11.670 -0.5274 -0.7126  0.3736
    1Sil     Ob  749   2.976   2.406  12.069  0.0266  0.0460  0.5943
    1Sil     Ob  750   2.451   2.175  12.207 -0.6827  0.2950  0.0685
    1Sil     Ob  751   3.052   2.178  11.392 -0.2409  0.4518  0.4235
    1Sil     Ob  752   2.743   2.177  11.786  0.3218 -0.1853  0.4344
    1Sil     Ob  753   2.438   2.346  12.396  0.2201 -0.3551  0.5731
    1Sil     Ob  754   2.195   2.340  11.574 -0.2416  0.0776  0.4553
    1Sil     Ob  755   2.775   2.240  12.042 -0.1816  0.0431 -0.2881
    1Sil     Ob  756   2.376   2.342  12.021  0.3893 -0.0884 -0.0719
    1Sil     Ob  757   2.926   2.357  12.419  0.6484 -0.2436 -0.1383
    1Sil     Ob  758   2.600   2.226  11.578 -0.0614 -0.3392 -0.1431
    1Sil     Ob  759   2.842   2.153  11.542  0.4193  0.1464  0.1749
    1Sil     Ob  760   2.250   2.165  12.358  0.1238  0.8302  0.4317
    1Sil     Ob  761   2.546   2.149  11.961  0.0211  0.9041 -0.4083
    1Sil     Ob  762   2.222   2.409  11.823 -0.0548 -0.6195 -0.1179
    1Sil     Ob  763   2.766   2.436  12.211 -0.2381  0.1409 -0.7762
    1Sil     Ob  764   2.517   2.412  11.424 -1.1855 -0.7968 -0.2834
    1Sil     Ob  765   2.543   2.583  11.241  0.2676 -0.2135 -0.3891
    1Sil     Ob  766   3.145   2.599  10.427 -0.2311 -0.2563  0.2578
    1Sil     Ob  767   2.785   2.491  10.791 -0.2124  0.3600 -0.4622
    1Sil     Ob  768   2.357   3.104  10.794 -0.1803  0.1875 -0.3741
    1Sil     Ob  769   2.897   3.088  11.186 -0.6734  0.1144 -0.8101
    1Sil     Ob  770   2.730   2.982  10.433  0.4626 -0.2223 -0.4751
    1Sil     Ob  771   2.721   2.908  11.257  0.2355 -0.3177  0.1485
    1Sil     Ob  772   2.486   2.900  10.482  0.3624  0.0823 -0.0042
    1Sil     Ob  773   3.028   2.918  10.873 -0.3503  0.0997  0.1639
    1Sil     Ob  774   2.509   2.663  10.994 -0.0874 -0.8423  0.7246
    1Sil     Ob  775   2.808   2.671  10.606  0.4351 -0.4276 -0.5159
    1Sil     Ob  776   2.491   2.839  11.179  0.7509  0.4075 -0.6074
    1Sil     Ob  777   2.254   2.841  10.381  0.1088  0.0349 -0.5234
    1Sil     Ob  778   2.839   2.736  10.856  0.7595 -0.0166  0.3604
    1Sil     Ob  779   2.437   2.852  10.828  0.4237 -0.1495 -0.3146
    1Sil     Ob  780   2.961   2.850  11.226 -0.1324 -0.2127  0.1015
    1Sil     Ob  781   2.659   2.730  10.411 -0.5146  0.2434  0.0232
    1Sil     Ob  782   2.893   2.660  10.358 -0.3545  0.0983 -1.0943
    1Sil     Ob  783   2.308   2.657  11.150 -0.6582 -0.0427 -0.4599
    1Sil     Ob  784   2.613   2.673  10.762 -0.3449 -0.9337 -0.6718
    1Sil     Ob  785   2.281   2.912  10.633  0.0732  0.0371  0.3719
    1Sil     Ob  786   2.819   2.910  11.022  0.4555  0.2836 -0.4994
    1Sil     Ob  787   2.494   2.591  12.444  0.3184 -0.1199 -0.7375
    1Sil     Ob  788   3.082   2.590  11.638 -0.8098 -0.2079 -0.2894
    1Sil     Ob  789   2.741   2.490  11.965 -0.3519 -0.1340 -0.4316
    1Sil     Ob  790   2.308   3.080  11.979 -0.5301 -0.3257 -0.5139
    1Sil     Ob  791   2.839   3.096  12.398 -0.0478 -0.5005  0.1556
    1Sil     Ob  792   2.674   2.979  11.614 -0.2631  0.5205  0.0295
    1Sil     Ob  793   2.676   2.914  12.448  0.2491  0.0496 -0.2291
    1Sil     Ob  794   2.434   2.908  11.663  0.3915 -0.3775  0.2615
    1Sil     Ob  795   2.968   2.892  12.069  0.6160  0.2733 -0.0242
    1Sil     Ob  796   2.458   2.667  12.187  0.1572 -0.0637  0.5403
    1Sil     Ob  797   3.047   2.674  11.398  0.2653 -0.1168  0.2731
    1Sil     Ob  798   2.754   2.672  11.794 -0.0942 -0.5337 -0.2246
    1Sil     Ob  799   2.432   2.836  12.376  0.6272  0.0530 -0.0266
    1Sil     Ob  800   2.195   2.833  11.566 -0.7525  0.2537 -0.7988
    1Sil     Ob  801   2.762   2.741  12.044  0.9388 -0.1620 -0.3870
    1Sil     Ob  802   2.366   2.837  12.015 -0.3648 -0.1684  0.2823
    1Sil     Ob  803   2.921   2.850  12.417  0.1050 -0.1785  0.5885
    1Sil     Ob  804   2.611   2.728  11.575  0.3950 -0.5005 -0.2618
    1Sil     Ob  805   2.852   2.648  11.552 -0.1463  0.1047  0.1091
    1Sil     Ob  806   2.254   2.653  12.348 -0.2809 -0.3588 -0.4256
    1Sil     Ob  807   2.544   2.658  11.944 -1.0233  0.0644  0.4366
    1Sil     Ob  808   2.222   2.905  11.820 -0.5684  0.2412  0.5478
    1Sil     Ob  809   2.768   2.946  12.216  0.4927  0.1900 -0.5728
    1Sil     Ob  810   2.523   2.916  11.421 -0.0557 -0.2211 -0.7228
    1Sil     Ob  811   2.536   3.086  11.240  0.3879 -0.1470  0.3426
    1Sil     Ob  812   3.131   3.089  10.432 -0.1601  0.2280 -0.0793
    1Sil     Ob  813   2.797   2.983  10.776 -0.6359 -0.7768 -0.0889
    1Sil     Ob  814   2.359   3.591  10.790  0.5128 -0.6277 -0.9468
    1Sil     Ob  815   2.903   3.580  11.182  0.4863  0.2846  0.5978
    1Sil     Ob  816   2.733   3.475  10.397 -0.3030 -0.3393 -0.4303
    1Sil     Ob  817   2.727   3.406  11.259  0.1407  0.2614  0.3299
    1Sil     Ob  818   2.490   3.411  10.455  0.3268  0.4635 -0.4249
    1Sil     Ob  819   3.017   3.391  10.875 -0.3056  0.1342 -0.4296
    1Sil     Ob  820   2.510   3.154  10.991 -0.4153  0.1081 -0.2808
    1Sil     Ob  821   2.807   3.164  10.592 -0.2956  0.1032 -0.0307
    1Sil     Ob  822   2.498   3.338  11.167  0.4496  0.0519  0.0900
    1Sil     Ob  823   2.271   3.330  10.362  0.3312  0.4896  0.3283
    1Sil     Ob  824   2.830   3.228  10.842  0.7398  0.5969  0.5678
    1Sil     Ob  825   2.435   3.346  10.818 -0.5253 -0.4547  0.8708
    1Sil     Ob  826   2.975   3.336  11.214  0.7710 -0.2734 -0.5554
    1Sil     Ob  827   2.656   3.221  10.397  0.1912  0.0453 -0.4291
    1Sil     Ob  828   2.894   3.152  10.347 -0.3480 -0.2813  0.0005
    1Sil     Ob  829   2.307   3.156  11.142 -0.1137  0.1243  0.0254
    1Sil     Ob  830   2.607   3.162  10.738  0.3496 -0.0580  0.1127
    1Sil     Ob  831   2.281   3.416  10.614  0.1096 -0.3181  0.3572
    1Sil     Ob  832   2.809   3.410  11.024  0.1525  0.3931  0.4707
    1Sil     Ob  833   2.491   3.082  12.424  0.0499  0.1699  0.3303
    1Sil     Ob  834   3.081   3.089  11.619  0.1083 -0.5684 -0.1714
    1Sil     Ob  835   2.754   2.986  11.966 -0.9384  0.3754  0.1738
    1Sil     Ob  836   2.300   3.568  11.986  0.0610 -0.5061 -0.5753
    1Sil     Ob  837   2.837   3.586  12.390 -0.3440  0.4409 -0.3978
    1Sil     Ob  838   2.674   3.467  11.623  0.2849 -0.6575  0.2153
    1Sil     Ob  839   2.672   3.398  12.456 -0.2219 -0.0493 -0.0794
    1Sil     Ob  840   2.425   3.403  11.664 -0.5880  0.5850 -0.1491
    1Sil     Ob  841   2.969   3.389  12.061 -0.1623 -0.0563  0.1757
    1Sil     Ob  842   2.464   3.145  12.176 -0.4708  0.2995 -0.4619
    1Sil     Ob  843   3.048   3.160  11.386 -0.0966 -0.2351 -0.2577
    1Sil     Ob  844   2.763   3.153  11.779  0.3145 -0.9582 -0.2683
    1Sil     Ob  845   2.448   3.321  12.361  0.0855 -0.3652  0.2663
    1Sil     Ob  846   2.190   3.328  11.568  0.8397 -0.1326  0.3987
    1Sil     Ob  847   2.770   3.234  12.037 -0.3139 -0.8735  0.0403
    1Sil     Ob  848   2.378   3.319  12.016  0.0697  0.2558  0.4982
    1Sil     Ob  849   2.921   3.340  12.407 -0.3594  0.4105  0.0394
    1Sil     Ob  850   2.596   3.223  11.583 -0.5130  0.0711 -0.4667
    1Sil     Ob  851   2.853   3.154  11.533  0.1541  0.3583  0.3272
    1Sil     Ob  852   2.259   3.145  12.341 -0.3248  0.3442  0.5516
    1Sil     Ob  853   2.548   3.147  11.933 -0.3047 -0.3371  0.1695
    1Sil     Ob  854   2.226   3.385  11.816  0.2625 -0.0189 -0.3403
    1Sil     Ob  855   2.762   3.418  12.215  0.0415  0.8794  0.2350
    1Sil     Ob  856   2.521   3.418  11.421  0.3677  0.2501  0.0213
    1Sil     Ob  857   2.547   3.589  11.233 -0.3855 -0.0653 -0.8001
    1Sil     Ob  858   3.133   3.594  10.446  0.4993 -0.5361 -0.5010
    1Sil     Ob  859   2.783   3.472  10.771 -0.0871 -0.1292 -0.5051
    1Sil     Ob  860   2.365   4.080  10.782  0.8130 -0.1890 -0.7786
    1Sil     Ob  861   2.902   4.079  11.176  0.1011  0.0309 -0.2343
    1Sil     Ob  862   2.733   3.968  10.411  0.4119 -0.1602  0.2826
    1Sil     Ob  863   2.727   3.912  11.265 -0.4513 -0.1750 -0.1463
    1Sil     Ob  864   2.489   3.901  10.466 -0.5180 -0.2489 -0.0084
    1Sil     Ob  865   3.017   3.901  10.877  0.3668  0.4206  0.0137
    1Sil     Ob  866   2.509   3.656  10.988 -0.9391  0.0787  0.3096
    1Sil     Ob  867   2.796   3.650  10.587 -0.2261  0.4960  0.7947
    1Sil     Ob  868   2.499   3.830  11.175  0.3388 -0.0197  0.6678
    1Sil     Ob  869   2.242   3.831  10.372  0.1832 -0.1851 -0.0495
    1Sil     Ob  870   2.838   3.724  10.834 -0.1330  0.5718  0.0738
    1Sil     Ob  871   2.433   3.834  10.819  0.1841  0.1331 -0.1585
    1Sil     Ob  872   2.972   3.830  11.216 -0.1241 -0.2804 -0.1597
    1Sil     Ob  873   2.661   3.729  10.376  0.2010  0.1078 -0.0952
    1Sil     Ob  874   2.903   3.649  10.346 -0.5897  0.1530 -0.2453
    1Sil     Ob  875   2.312   3.645  11.155  0.1086  0.1267  0.3389
    1Sil     Ob  876   2.604   3.662  10.742  0.3001  0.1668 -0.4139
    1Sil     Ob  877   2.277   3.894  10.621 -0.1622 -0.5039 -0.2061
    1Sil     Ob  878   2.805   3.901  11.020  0.2889 -0.5227  0.7122
    1Sil     Ob  879   2.480   3.573  12.439 -0.1913  0.6899 -0.3278
    1Sil     Ob  880   3.082   3.585  11.632 -0.1652 -0.4015  0.6652
    1Sil     Ob  881   2.745   3.471  11.962  0.0012 -0.3072  0.4196
    1Sil     Ob  882   2.301   4.071  11.988  0.1823  1.0409  0.5237
    1Sil     Ob  883   2.840   4.077  12.378 -0.2756  0.3330 -0.3974
    1Sil     Ob  884   2.669   3.967  11.627 -0.2081  0.0888  0.4997
    1Sil     Ob  885   2.669   3.894  12.450  0.2724 -0.7278 -0.0294
    1Sil     Ob  886   2.424   3.890  11.669 -0.6950  0.0732 -0.0107
    1Sil     Ob  887   2.962   3.879  12.058  0.5655 -0.6098  0.0916
    1Sil     Ob  888   2.445   3.637  12.185 -0.0691  0.1402 -0.1023
    1Sil     Ob  889   3.048   3.644  11.382  0.0910  0.7856 -0.5706
    1Sil     Ob  890   2.754   3.664  11.776 -0.3122 -0.3498  0.5638
    1Sil     Ob  891   2.425   3.818  12.386  0.0419 -0.4740  0.1712
    1Sil     Ob  892   2.193   3.816  11.570 -0.8667  0.2065 -0.2989
    1Sil     Ob  893   2.776   3.720  12.022 -0.1149  0.4434 -0.0338
    1Sil     Ob  894   2.363   3.819  12.014 -0.5984  0.0206  0.1179
    1Sil     Ob  895   2.920   3.827  12.397 -0.3413 -0.5771 -0.0850
    1Sil     Ob  896   2.608   3.720  11.583  0.2028 -0.2871 -0.1667
    1Sil     Ob  897   2.851   3.645  11.537  0.2017 -0.5190  0.3935
    1Sil     Ob  898   2.246   3.636  12.362 -0.2627  0.3081 -0.4313
    1Sil     Ob  899   2.544   3.641  11.935 -0.1823 -0.2361  0.4350
    1Sil     Ob  900   2.211   3.889  11.817  0.2402  0.3156 -0.1385
    1Sil     Ob  901   2.755   3.904  12.203  0.4606  0.3298 -0.1425
    1Sil     Ob  902   2.521   3.886  11.420 -0.3036  0.6517 -0.3077
    1Sil     Ob  903   2.539   4.076  11.246 -0.1642 -0.6114 -0.1551
    1Sil     Ob  904   3.127   4.076  10.438 -0.0383  0.1763  0.9455
    1Sil     Ob  905   2.769   3.971  10.780  0.0083 -0.2742  0.2434
    1Sil     Ob  906   2.718   0.937  11.263  0.0081 -0.2890  0.0971
    1Sil     Ob  907   2.482   0.936  10.475 -0.2668 -0.1615 -0.3333
    1Sil     Ob  908   3.019   0.957  10.863 -0.2398 -0.0217  0.6717
    1Sil     Ob  909   2.525   4.151  10.997 -0.1718  0.5788 -0.1090
    1Sil     Ob  910   2.809   4.134  10.584 -0.2679  0.1549  0.2882
    1Sil     Ob  911   2.501   4.318  11.177  0.1313  0.1008  0.2985
    1Sil     Ob  912   2.247   4.327  10.383  0.3161  0.2715 -0.0292
    1Sil     Ob  913   2.840   4.218  10.832  0.2592 -0.0095  0.3941
    1Sil     Ob  914   2.434   0.872  10.837  0.4659  0.2622  0.3670
    1Sil     Ob  915   2.973   0.872  11.212  0.8891 -0.1377 -0.1353
    1Sil     Ob  916   2.654   0.758  10.397 -0.0772 -0.1697  0.0469
    1Sil     Ob  917   2.893   4.139  10.338 -0.0396  0.1977  0.1529
    1Sil     Ob  918   2.315   4.150  11.143 -0.2496 -0.0470  0.3759
    1Sil     Ob  919   2.600   4.164  10.737 -0.3033  0.1476 -0.5059
    1Sil     Ob  920   2.273   0.944  10.637  0.1137  0.2125  0.2815
    1Sil     Ob  921   2.811   0.939  11.030 -0.4846 -0.9447 -0.2197
    1Sil     Ob  922   2.482   4.075  12.435 -0.4151  0.2460  0.1264
    1Sil     Ob  923   3.085   4.066  11.624 -0.5474  0.5999 -0.2661
    1Sil     Ob  924   2.744   3.973  11.948 -0.8903 -0.3464 -0.5864
    1Sil     Ob  925   2.673   0.952  12.448 -0.2822  0.0652  0.6405
    1Sil     Ob  926   2.430   0.934  11.664 -0.1931  0.0344 -0.1222
    1Sil     Ob  927   2.974   0.917  12.053  0.3435 -0.0500  0.5794
    1Sil     Ob  928   2.460   4.136  12.184 -0.3089 -0.7326  0.1965
    1Sil     Ob  929   3.046   4.143  11.388  0.1412  0.1780  0.1043
    1Sil     Ob  930   2.736   4.153  11.781 -0.3957  0.4358  0.3603
    1Sil     Ob  931   2.440   4.324  12.374 -0.3025 -0.6809  0.0528
    1Sil     Ob  932   2.193   4.313  11.570 -0.5514 -0.1956  0.5846
    1Sil     Ob  933   2.771   4.214  12.027 -0.0807  1.0263  0.2155
    1Sil     Ob  934   2.383   0.862  12.010 -0.1422  0.1436 -0.8405
    1Sil     Ob  935   2.903   0.868  12.417 -0.5220  0.5359  0.4048
    1Sil     Ob  936   2.598   0.752  11.586  0.1635  0.1045 -0.3110
    1Sil     Ob  937   2.846   4.119  11.544 -0.1296  0.4375  0.1966
    1Sil     Ob  938   2.259   4.140  12.349  0.5349  0.0795 -0.0942
    1Sil     Ob  939   2.545   4.139  11.933 -0.4333 -0.1717 -0.2874
    1Sil     Ob  940   2.221   0.940  11.815 -0.7177  0.3397 -0.3754
    1Sil     Ob  941   2.762   0.925  12.212  0.4074  0.7317  0.6539
    1Sil     Ob  942   2.519   0.931  11.423 -0.1834  0.0418  0.3465
    1Sil     Ob  943   3.360   1.113  11.238  0.2026  0.7680 -0.2622
    1Sil     Ob  944   3.191   1.609  10.784  0.5471  0.0433  0.4580
    1Sil     Ob  945   3.734   1.605  11.185  0.8866 -0.5480  0.1011
    1Sil     Ob  946   3.561   1.488  10.434 -0.5041  0.4341  0.4307
    1Sil     Ob  947   3.562   1.433  11.260 -0.7521  0.1351 -0.8787
    1Sil     Ob  948   3.323   1.424  10.475  0.1682  0.0933  0.0009
    1Sil     Ob  949   0.520   1.445  10.874 -0.2334 -0.7068  0.3388
    1Sil     Ob  950   3.346   1.182  10.984 -0.0356  0.3491  0.5384
    1Sil     Ob  951   0.309   1.185  10.589 -0.2566  0.5781  0.5360
    1Sil     Ob  952   3.337   1.357  11.162 -0.0882  0.2430  0.1805
    1Sil     Ob  953   3.081   1.359  10.379  0.0399 -0.1989  0.2625
    1Sil     Ob  954   0.346   1.254  10.845 -0.2150 -0.2087 -0.2389
    1Sil     Ob  955   3.275   1.364  10.816 -0.7963  0.1365  0.0474
    1Sil     Ob  956   3.806   1.352  11.217  0.3993  0.2137  0.3745
    1Sil     Ob  957   3.495   1.248  10.382 -0.2764 -0.6092 -0.0799
    1Sil     Ob  958   0.406   1.174  10.345  0.4424  0.0568  0.7002
    1Sil     Ob  959   3.139   1.200  11.136 -0.2010 -0.6243 -0.1775
    1Sil     Ob  960   0.117   1.203  10.743 -0.3480  0.1405  0.4590
    1Sil     Ob  961   3.107   1.434  10.628 -0.2825 -0.0112  0.5105
    1Sil     Ob  962   3.648   1.421  11.023  0.0600 -0.6729 -0.1171
    1Sil     Ob  963   3.335   1.119  12.429 -0.0012  0.5919  0.2426
    1Sil     Ob  964   3.141   1.597  12.009  0.7535 -0.1865  0.2672
    1Sil     Ob  965   3.685   1.604  12.376 -0.0533 -0.1633 -0.5882
    1Sil     Ob  966   3.513   1.499  11.610 -0.0290  0.2651 -0.1409
    1Sil     Ob  967   3.514   1.431  12.462 -0.4254 -1.0508 -0.5026
    1Sil     Ob  968   3.265   1.414  11.660  0.3742  0.7046  0.1617
    1Sil     Ob  969   0.464   1.435  12.052 -0.2581  0.1352  0.0081
    1Sil     Ob  970   3.297   1.199  12.182 -0.3486  0.4903  0.6568
    1Sil     Ob  971   0.549   1.167  11.380  0.1557  0.2966 -0.3837
    1Sil     Ob  972   0.258   1.179  11.777  0.4739  1.1663 -0.5836
    1Sil     Ob  973   3.281   1.365  12.370 -1.3693 -0.0993  0.2622
    1Sil     Ob  974   3.038   1.358  11.579  0.1589  0.1884 -0.5203
    1Sil     Ob  975   0.294   1.251  12.017 -0.3695  0.0387 -0.1076
    1Sil     Ob  976   3.214   1.358  12.007 -0.6955 -0.0464  0.7810
    1Sil     Ob  977   3.759   1.363  12.395  0.1554 -0.2396 -0.5240
    1Sil     Ob  978   3.440   1.260  11.579 -0.0458  0.2322 -0.1344
    1Sil     Ob  979   0.343   1.164  11.534 -0.1019  0.8465  0.0592
    1Sil     Ob  980   3.095   1.194  12.335 -0.3195 -0.0141  0.3146
    1Sil     Ob  981   0.061   1.179  11.939  0.8063 -0.5103  0.1931
    1Sil     Ob  982   3.056   1.436  11.818 -0.3830  0.2738 -0.0480
    1Sil     Ob  983   3.594   1.417  12.215 -0.0655  0.6005  0.4047
    1Sil     Ob  984   3.357   1.435  11.413 -0.0627  0.2340  0.6326
    1Sil     Ob  985   3.374   1.607  11.216  0.4538 -0.2766 -0.0778
    1Sil     Ob  986   0.281   1.507  10.790 -0.6131  0.5093  0.8408
    1Sil     Ob  987   3.201   2.104  10.783 -0.2239  0.2462 -0.1363
    1Sil     Ob  988   3.734   2.098  11.204  0.1190  0.3920  0.1553
    1Sil     Ob  989   3.565   1.986  10.405 -0.2010  0.1830  0.2447
    1Sil     Ob  990   3.552   1.930  11.262 -0.1785 -0.3144  0.5743
    1Sil     Ob  991   3.321   1.916  10.462 -0.3327  0.3904 -0.0730
    1Sil     Ob  992   0.537   1.913  10.867  0.3120  0.1079 -0.9155
    1Sil     Ob  993   3.337   1.679  10.974 -0.0286  0.2242  0.1108
    1Sil     Ob  994   0.297   1.678  10.595 -0.2521  0.4683  0.0373
    1Sil     Ob  995   3.333   1.854  11.159 -0.3926  0.3810 -0.2068
    1Sil     Ob  996   3.076   1.853  10.377  0.1769  0.0682  0.4481
    1Sil     Ob  997   0.336   1.749  10.839  0.0387 -0.1639  0.4006
    1Sil     Ob  998   3.262   1.855  10.806  0.1869  0.0233  0.2162
    1Sil     Ob  999   3.794   1.859  11.221 -0.2299 -0.0083  0.7180
    1Sil     Ob 1000   3.487   1.736  10.390 -0.3032 -0.5531  0.2436
    1Sil     Ob 1001   0.403   1.664  10.354 -0.2814  0.2101 -0.0808
    1Sil     Ob 1002   3.145   1.673  11.143 -0.3673  0.6375  0.2649
    1Sil     Ob 1003   0.096   1.686  10.748  0.4066 -0.2546 -0.1958
    1Sil     Ob 1004   3.107   1.931  10.614  0.4846  0.3287  0.3443
    1Sil     Ob 1005   3.653   1.933  11.019  0.1075 -0.1354  0.6830
    1Sil     Ob 1006   3.330   1.608  12.429 -0.7029 -0.3626  0.3417
    1Sil     Ob 1007   0.226   1.495  11.967 -0.2266 -0.0023  0.4498
    1Sil     Ob 1008   3.134   2.088  12.003 -0.1548  0.2995 -0.0792
    1Sil     Ob 1009   3.683   2.104  12.395  0.1220  0.4171 -0.3541
    1Sil     Ob 1010   3.503   1.982  11.621  0.0233  0.7865 -0.4032
    1Sil     Ob 1011   3.508   1.929  12.466  0.3823 -0.4852  1.3408
    1Sil     Ob 1012   3.257   1.914  11.664 -0.1018 -0.2570 -0.1668
    1Sil     Ob 1013   0.477   1.921  12.071 -0.0996 -0.1666 -1.1982
    1Sil     Ob 1014   3.302   1.686  12.189 -0.0391  0.6857 -0.1873
    1Sil     Ob 1015   0.549   1.679  11.382  0.1257 -0.3489  0.1081
    1Sil     Ob 1016   0.247   1.668  11.780  0.9070 -0.4869  0.1115
    1Sil     Ob 1017   3.270   1.853  12.383  0.3833 -0.0026  0.3674
    1Sil     Ob 1018   3.009   1.836  11.584 -1.0751  0.1667  0.0434
    1Sil     Ob 1019   0.288   1.740  12.027  0.3493  0.0232 -0.0802
    1Sil     Ob 1020   3.214   1.842  12.005  0.3527 -0.2421 -0.0672
    1Sil     Ob 1021   3.750   1.859  12.410 -0.3143  0.2866 -0.2413
    1Sil     Ob 1022   3.430   1.748  11.587  0.1513  0.7657 -0.9336
    1Sil     Ob 1023   0.343   1.680  11.544 -0.5510 -0.0640 -0.6966
    1Sil     Ob 1024   3.088   1.681  12.345  0.5336 -0.2579 -0.0554
    1Sil     Ob 1025   0.052   1.674  11.938 -0.3650 -0.0097 -0.2633
    1Sil     Ob 1026   3.052   1.919  11.824  0.3655  0.2131 -0.7618
    1Sil     Ob 1027   3.600   1.922  12.222 -0.4705 -0.5004  0.4305
    1Sil     Ob 1028   3.349   1.921  11.414  0.3488 -0.1612  0.0003
    1Sil     Ob 1029   3.371   2.104  11.226  0.0566  0.0685  0.6331
    1Sil     Ob 1030   0.302   1.993  10.773  0.1623  0.0072 -0.0446
    1Sil     Ob 1031   3.195   2.600  10.812  0.1463  0.2485  0.0594
    1Sil     Ob 1032   3.728   2.586  11.191  0.1921  0.5573  0.4316
    1Sil     Ob 1033   3.547   2.476  10.446 -0.0533 -0.2573 -0.4164
    1Sil     Ob 1034   3.555   2.413  11.261 -0.1534  0.1231 -0.4298
    1Sil     Ob 1035   3.308   2.394  10.486  0.4579  0.0540 -0.0725
    1Sil     Ob 1036   0.522   2.421  10.865  0.7929  0.1405 -0.5993
    1Sil     Ob 1037   3.343   2.178  10.981 -0.0281  0.1261 -0.2779
    1Sil     Ob 1038   0.321   2.161  10.586 -0.0352  0.9345 -0.4973
    1Sil     Ob 1039   3.334   2.354  11.162 -0.4031 -0.7414  0.0617
    1Sil     Ob 1040   3.088   2.349  10.398  0.3940 -0.0576 -0.0140
    1Sil     Ob 1041   0.356   2.231  10.822 -0.2976  0.3792  0.2867
    1Sil     Ob 1042   3.269   2.349  10.804 -0.8597  0.4798 -0.0631
    1Sil     Ob 1043   3.806   2.341  11.229 -0.3537 -0.0802  0.0751
    1Sil     Ob 1044   3.492   2.228  10.392 -0.4576 -0.4100  0.3325
    1Sil     Ob 1045   0.393   2.155  10.344 -0.3278  0.1758  0.2278
    1Sil     Ob 1046   3.141   2.163  11.147  0.4756 -0.1877 -0.3705
    1Sil     Ob 1047   0.121   2.173  10.747 -0.5099  1.1805 -0.3419
    1Sil     Ob 1048   3.100   2.443  10.634  0.3033  0.1013 -0.0825
    1Sil     Ob 1049   3.648   2.407  11.029 -0.4247 -0.3436 -0.0906
    1Sil     Ob 1050   3.324   2.097  12.451 -0.1747 -0.6997 -0.1972
    1Sil     Ob 1051   0.242   1.981  11.971 -0.2038 -0.1386 -0.4448
    1Sil     Ob 1052   3.143   2.593  11.995  0.6095 -0.3875  0.1073
    1Sil     Ob 1053   3.688   2.589  12.389 -0.1929  0.2050 -0.2284
    1Sil     Ob 1054   3.495   2.478  11.629 -0.2108  0.3019 -0.3408
    1Sil     Ob 1055   3.512   2.405  12.455  0.5748 -0.3572 -0.1048
    1Sil     Ob 1056   3.253   2.392  11.667 -0.1230  0.3018 -0.1429
    1Sil     Ob 1057   0.472   2.407  12.066 -0.2396 -0.0399  0.3306
    1Sil     Ob 1058   3.298   2.157  12.193 -0.6137  0.5329  0.2907
    1Sil     Ob 1059   0.562   2.165  11.394  0.2990  0.0320  0.2382
    1Sil     Ob 1060   0.251   2.165  11.785  0.2769  0.6107  0.5361
    1Sil     Ob 1061   3.277   2.340  12.383  0.6713  0.2889 -0.4479
    1Sil     Ob 1062   3.009   2.345  11.593 -0.1682  0.0267  0.2562
    1Sil     Ob 1063   0.276   2.229  12.042  0.9545  0.2968 -0.3412
    1Sil     Ob 1064   3.214   2.338  12.021  0.2613  0.4419  0.8188
    1Sil     Ob 1065   3.763   2.341  12.423  0.0253  0.1539 -0.1070
    1Sil     Ob 1066   3.440   2.228  11.586  0.0022 -0.1079 -0.2391
    1Sil     Ob 1067   0.354   2.152  11.550  0.2549  0.0797 -0.0882
    1Sil     Ob 1068   3.094   2.166  12.360 -0.0968 -0.2019 -0.1599
    1Sil     Ob 1069   0.044   2.147  11.946 -0.7058  0.0727 -0.7795
    1Sil     Ob 1070   3.054   2.422  11.822 -0.0518 -0.0799  0.4994
    1Sil     Ob 1071   3.597   2.408  12.215 -0.0020 -0.2111  0.1282
    1Sil     Ob 1072   3.342   2.398  11.422  0.2219 -0.0969  0.5347
    1Sil     Ob 1073   3.364   2.594  11.251  0.6159 -0.6387 -1.1630
    1Sil     Ob 1074   0.297   2.482  10.780  0.0588  0.4864 -0.7838
    1Sil     Ob 1075   3.210   3.089  10.782  0.0195 -0.1213 -0.4344
    1Sil     Ob 1076   3.733   3.087  11.213 -0.6708  0.4753  0.0118
    1Sil     Ob 1077   3.571   2.967  10.413  0.3351 -0.2472  0.4126
    1Sil     Ob 1078   3.553   2.922  11.277 -0.2296  0.2742 -1.3360
    1Sil     Ob 1079   3.313   2.921  10.466 -0.6272 -0.5485  0.0925
    1Sil     Ob 1080   0.517   2.925  10.866 -0.8030  0.1621 -0.1862
    1Sil     Ob 1081   3.345   2.660  11.003  0.0433  0.1343  0.5536
    1Sil     Ob 1082   0.305   2.667  10.600 -0.2639 -0.7208 -0.0166
    1Sil     Ob 1083   3.343   2.840  11.179  0.0792 -0.4545  0.1519
    1Sil     Ob 1084   3.080   2.845  10.381  0.3387  0.8355  0.2245
    1Sil     Ob 1085   0.344   2.734  10.845 -0.3129 -0.4617 -0.1247
    1Sil     Ob 1086   3.281   2.842  10.824  0.1566  0.4849  0.6596
    1Sil     Ob 1087   3.791   2.828  11.216 -0.3966  0.1925 -0.3958
    1Sil     Ob 1088   3.472   2.728  10.416 -0.5743 -0.2068  0.0323
    1Sil     Ob 1089   0.382   2.667  10.358 -0.2042  0.0047  0.4406
    1Sil     Ob 1090   3.148   2.684  11.162 -0.1177  0.7464  0.3557
    1Sil     Ob 1091   0.107   2.653  10.764  0.5469  0.1436 -0.0344
    1Sil     Ob 1092   3.112   2.914  10.625 -0.4745  0.3537 -0.2911
    1Sil     Ob 1093   3.640   2.927  11.030  0.1320  0.2188 -0.4118
    1Sil     Ob 1094   3.341   2.586  12.412  0.2877  0.0803  0.3014
    1Sil     Ob 1095   0.238   2.487  11.975 -0.3787  0.2276 -0.2453
    1Sil     Ob 1096   3.136   3.090  12.012  0.1280  0.3639  0.0061
    1Sil     Ob 1097   3.669   3.087  12.390 -0.1151 -0.4801 -0.1299
    1Sil     Ob 1098   3.496   2.957  11.626  0.0973  0.3822  0.0021
    1Sil     Ob 1099   3.511   2.907  12.464  0.1170  0.0164  0.1293
    1Sil     Ob 1100   3.247   2.889  11.672 -0.4061  0.5446  1.1761
    1Sil     Ob 1101   0.477   2.880  12.071 -0.4306 -0.0599 -0.6418
    1Sil     Ob 1102   3.299   2.692  12.180  0.1943  0.9623  0.4119
    1Sil     Ob 1103   0.541   2.649  11.385 -0.2736  0.1587 -0.0935
    1Sil     Ob 1104   0.252   2.660  11.782 -0.3010  0.3331  0.1047
    1Sil     Ob 1105   3.265   2.837  12.383  0.0615 -0.3951  0.6357
    1Sil     Ob 1106   3.013   2.840  11.592 -0.0129  0.0263  0.7889
    1Sil     Ob 1107   0.292   2.733  12.027  0.8050  0.2103  0.0517
    1Sil     Ob 1108   3.215   2.850  11.995  0.6563 -0.0382 -0.5087
    1Sil     Ob 1109   3.749   2.838  12.429  0.0065  0.2832  0.0135
    1Sil     Ob 1110   3.420   2.723  11.582 -0.0893  0.5312  0.1046
    1Sil     Ob 1111   0.337   2.652  11.534  0.4045 -0.2740 -0.4881
    1Sil     Ob 1112   3.098   2.658  12.351  0.3897  0.2234  0.2453
    1Sil     Ob 1113   0.052   2.663  11.937 -0.1631  0.7488 -0.0384
    1Sil     Ob 1114   3.048   2.931  11.824  0.2467 -0.0843  0.2265
    1Sil     Ob 1115   3.608   2.903  12.220 -1.0468  0.4859 -0.4549
    1Sil     Ob 1116   3.336   2.905  11.427 -0.2618  0.5177  0.1179
    1Sil     Ob 1117   3.365   3.086  11.249 -0.1194 -0.2307 -0.4062
    1Sil     Ob 1118   0.295   2.971  10.782 -0.0081  0.0472  0.2206
    1Sil     Ob 1119   3.192   3.579  10.812  0.1453  0.4449  0.3396
    1Sil     Ob 1120   3.744   3.574  11.181 -0.0575  0.8819 -0.6227
    1Sil     Ob 1121   3.560   3.468  10.404  0.2560  0.0184 -0.4418
    1Sil     Ob 1122   3.564   3.404  11.269  0.2312 -0.1254 -0.4875
    1Sil     Ob 1123   3.315   3.411  10.475 -0.0384 -0.1637 -0.7718
    1Sil     Ob 1124   0.529   3.406  10.876  0.0581 -0.3563 -0.6166
    1Sil     Ob 1125   3.350   3.144  10.991  0.1440 -0.1755  0.5961
    1Sil     Ob 1126   0.317   3.141  10.591 -0.6117 -0.2312 -0.2288
    1Sil     Ob 1127   3.339   3.333  11.173 -0.1339 -0.1816  0.4473
    1Sil     Ob 1128   3.076   3.345  10.384 -0.4675 -0.0957 -0.0141
    1Sil     Ob 1129   0.361   3.221  10.831 -0.2559 -0.2539 -0.2410
    1Sil     Ob 1130   3.260   3.331  10.831  0.1789 -0.7553 -0.5950
    1Sil     Ob 1131   3.805   3.324  11.222 -0.3180  0.0237  0.0157
    1Sil     Ob 1132   3.490   3.217  10.402 -0.7306 -0.2916 -0.6348
    1Sil     Ob 1133   0.395   3.159  10.343 -0.1510 -0.1181  0.1006
    1Sil     Ob 1134   3.149   3.149  11.148  0.0956  0.2752 -0.3022
    1Sil     Ob 1135   0.118   3.173  10.751  0.2963 -0.1200  0.6278
    1Sil     Ob 1136   3.110   3.395  10.630  1.1815  0.6741 -0.1777
    1Sil     Ob 1137   3.650   3.392  11.033 -0.6873 -0.2748 -0.0736
    1Sil     Ob 1138   3.321   3.087  12.451 -0.3994 -0.0464 -0.2547
    1Sil     Ob 1139   0.253   2.973  11.967  0.3535  0.2574  0.2217
    1Sil     Ob 1140   3.139   3.574  12.010  0.2406 -0.1542 -0.7007
    1Sil     Ob 1141   3.684   3.582  12.376  0.1173 -0.1913  0.2715
    1Sil     Ob 1142   3.512   3.468  11.625 -0.5605 -0.0476  0.6317
    1Sil     Ob 1143   3.508   3.428  12.475  0.0772  0.0992  0.5206
    1Sil     Ob 1144   3.270   3.398  11.661 -0.0436  0.3039  0.3718
    1Sil     Ob 1145   0.460   3.406  12.078 -0.5217  0.1407  0.2423
    1Sil     Ob 1146   3.292   3.157  12.201  0.0821 -0.2061  0.2595
    1Sil     Ob 1147   0.554   3.151  11.400  0.0837  0.0683 -0.1250
    1Sil     Ob 1148   0.246   3.150  11.788 -0.2884 -0.1921  0.6428
    1Sil     Ob 1149   3.272   3.338  12.390 -0.6923 -0.2847  0.2909
    1Sil     Ob 1150   3.029   3.337  11.575 -0.3648 -0.4987  0.8826
    1Sil     Ob 1151   0.289   3.219  12.045 -0.4124 -0.4429  0.3327
    1Sil     Ob 1152   3.209   3.332  12.014 -0.0149  0.3956 -0.0247
    1Sil     Ob 1153   3.738   3.333  12.421 -0.1597  0.2794 -0.2903
    1Sil     Ob 1154   3.432   3.213  11.586 -0.3399 -0.2337  0.4716
    1Sil     Ob 1155   0.346   3.139  11.542  0.0447  0.6420  0.2393
    1Sil     Ob 1156   3.092   3.149  12.371 -0.2629 -0.1636  0.1731
    1Sil     Ob 1157   0.058   3.134  11.956 -0.3337  0.1753 -0.3265
    1Sil     Ob 1158   3.059   3.416  11.815  0.7303 -0.0204  0.2054
    1Sil     Ob 1159   3.583   3.397  12.220  0.4157 -0.3686 -0.2749
    1Sil     Ob 1160   3.365   3.409  11.420 -0.1111 -0.1704  0.6475
    1Sil     Ob 1161   3.379   3.577  11.242  0.1575 -0.0737  0.0093
    1Sil     Ob 1162   0.294   3.472  10.788 -0.0531  0.2801  0.3907
    1Sil     Ob 1163   3.192   4.085  10.807 -0.4316 -0.7290  0.3697
    1Sil     Ob 1164   3.725   4.073  11.183 -0.3086 -0.3485  0.1335
    1Sil     Ob 1165   3.550   3.966  10.405 -0.2889  0.1811  0.2480
    1Sil     Ob 1166   3.549   3.898  11.264 -0.0231 -0.0367 -0.0761
    1Sil     Ob 1167   3.308   3.886  10.478 -0.0497  0.1818  0.1877
    1Sil     Ob 1168   0.517   3.895  10.865 -0.1657 -0.3231 -0.9993
    1Sil     Ob 1169   3.357   3.656  10.995 -0.0390 -0.3950 -0.4158
    1Sil     Ob 1170   0.297   3.637  10.586  0.0792 -0.2204 -0.0381
    1Sil     Ob 1171   3.324   3.823  11.180  1.0735  0.3717 -0.1580
    1Sil     Ob 1172   3.072   3.841  10.390 -0.3290 -0.3149  0.4264
    1Sil     Ob 1173   0.331   3.719  10.825 -0.6882  0.6578  0.3336
    1Sil     Ob 1174   3.267   3.832  10.820  0.5626 -0.0129 -0.3167
    1Sil     Ob 1175   3.788   3.825  11.225  0.1143 -0.3411 -0.0767
    1Sil     Ob 1176   3.485   3.714  10.387  0.2096 -0.0647 -0.0560
    1Sil     Ob 1177   0.394   3.649  10.346 -0.0512 -0.1130 -0.2226
    1Sil     Ob 1178   3.150   3.651  11.145  0.2278  0.5556  0.3009
    1Sil     Ob 1179   0.108   3.639  10.747  0.0603  0.0658 -0.2665
    1Sil     Ob 1180   3.106   3.910  10.638  0.3037 -0.1886 -0.0828
    1Sil     Ob 1181   3.640   3.890  11.015  0.5418 -0.4621  0.6528
    1Sil     Ob 1182   3.326   3.589  12.442  0.2710 -0.3378  0.5098
    1Sil     Ob 1183   0.235   3.467  11.979  0.4241 -0.0565  0.4093
    1Sil     Ob 1184   3.135   4.066  12.007  0.5606  0.2438 -0.2534
    1Sil     Ob 1185   3.681   4.071  12.376 -0.7625  0.3125 -0.2874
    1Sil     Ob 1186   3.501   3.960  11.623 -0.3483 -0.0720  0.8871
    1Sil     Ob 1187   3.504   3.897  12.449 -0.5559  0.2320 -0.3862
    1Sil     Ob 1188   3.256   3.883  11.664 -0.0690  0.0967 -0.3156
    1Sil     Ob 1189   0.469   3.878  12.062  0.0889  0.0495 -0.0413
    1Sil     Ob 1190   3.293   3.658  12.197 -0.1113 -0.3832  0.4490
    1Sil     Ob 1191   0.551   3.650  11.389 -0.2725  0.1900  0.0715
    1Sil     Ob 1192   0.254   3.647  11.791 -0.3631 -0.0049 -0.1157
    1Sil     Ob 1193   3.266   3.836  12.388  0.4664 -0.5180  0.1722
    1Sil     Ob 1194   3.027   3.824  11.571 -0.1112  0.4230 -0.0343
    1Sil     Ob 1195   0.287   3.714  12.031 -0.2132  0.6834 -0.4318
    1Sil     Ob 1196   3.219   3.821  12.012  0.4825  0.0428 -0.0681
    1Sil     Ob 1197   3.748   3.824  12.414 -0.0255  0.2467  0.7562
    1Sil     Ob 1198   3.431   3.718  11.588  0.7939  0.0230 -0.3034
    1Sil     Ob 1199   0.344   3.634  11.550  0.3166  0.3814 -0.5314
    1Sil     Ob 1200   3.097   3.646  12.370  0.0410 -0.6225 -0.2552
    1Sil     Ob 1201   0.049   3.645  11.954  0.4398  0.3009  0.0961
    1Sil     Ob 1202   3.046   3.901  11.820  0.3629  0.2092  0.3636
    1Sil     Ob 1203   3.592   3.893  12.211  0.1179  0.4635 -0.3332
    1Sil     Ob 1204   3.345   3.907  11.425  0.5258 -0.1175  0.3392
    1Sil     Ob 1205   3.376   4.077  11.224 -0.2603  0.1090  0.8954
    1Sil     Ob 1206   0.285   3.966  10.772  0.7076  0.1184  0.0219
    1Sil     Ob 1207   0.220   0.935  11.273  0.4186  0.2353 -0.4768
    1Sil     Ob 1208  -0.018   0.925  10.457  0.0921  0.6190 -0.2690
    1Sil     Ob 1209   0.521   0.942  10.872 -0.0800 -0.7008  0.0393
    1Sil     Ob 1210   3.346   4.158  10.989 -0.3052  0.0561 -1.0270
    1Sil     Ob 1211   0.305   4.132  10.584 -0.2205 -0.2657 -0.8322
    1Sil     Ob 1212   3.324   4.325  11.181  0.5203 -0.5653  0.6187
    1Sil     Ob 1213   3.085   4.315  10.373  0.8028 -0.5820 -0.0037
    1Sil     Ob 1214   0.340   4.205  10.830  0.0466  0.2031  0.3226
    1Sil     Ob 1215   3.263   0.872  10.821 -0.4970 -0.3715 -0.6822
    1Sil     Ob 1216   0.467   0.865  11.219  0.1843  0.3428  0.3394
    1Sil     Ob 1217   0.163   0.756  10.379  1.0074 -0.0234 -0.1198
    1Sil     Ob 1218   0.398   4.138  10.340 -0.0487 -0.5510  0.2097
    1Sil     Ob 1219   3.139   4.145  11.148 -0.0990  0.6099 -0.3484
    1Sil     Ob 1220   0.106   4.143  10.742  0.0587 -0.0209 -0.0423
    1Sil     Ob 1221   3.110   0.941  10.621  0.4132  0.0113  0.2873
    1Sil     Ob 1222   0.316   0.910  11.029  0.5641 -0.9127  0.1252
    1Sil     Ob 1223   3.329   4.093  12.424 -0.5662  0.0118  0.3505
    1Sil     Ob 1224   0.251   3.956  11.962 -0.5027 -0.1188 -0.0895
    1Sil     Ob 1225   0.180   0.938  12.455 -0.7865 -0.7935  0.0797
    1Sil     Ob 1226  -0.079   0.924  11.663  0.4688  0.1403  0.2623
    1Sil     Ob 1227   0.465   0.922  12.057 -0.2000 -0.3205  0.5017
    1Sil     Ob 1228   3.301   4.155  12.179 -0.0131  0.3445 -0.3714
    1Sil     Ob 1229   0.545   4.136  11.385 -0.5125 -0.4211 -0.3763
    1Sil     Ob 1230   0.252   4.142  11.782  0.1028 -0.5699  0.1702
    1Sil     Ob 1231   3.269   4.329  12.368 -0.4244 -0.5015  0.4728
    1Sil     Ob 1232   3.009   4.315  11.583 -0.1730  0.4526 -0.6363
    1Sil     Ob 1233   0.275   4.197  12.027  0.1111  0.1463  0.1465
    1Sil     Ob 1234   3.214   0.849  11.988  0.2136  0.8398 -0.3680
    1Sil     Ob 1235   0.416   0.861  12.402  0.9394  0.3615  0.2633
    1Sil     Ob 1236   0.102   0.756  11.580 -0.2094  0.0870 -0.0157
    1Sil     Ob 1237   0.337   4.128  11.534 -0.7084 -0.2364 -0.1029
    1Sil     Ob 1238   3.078   4.152  12.344  0.2163  0.2648  0.5662
    1Sil     Ob 1239   0.050   4.101  11.942  0.3221 -0.4396 -0.3739
    1Sil     Ob 1240   3.053   0.947  11.810 -0.0955 -0.1405 -0.1237
    1Sil     Ob 1241   0.260   0.920  12.213  0.4052 -0.5811  0.2420
    1Sil     Ob 1242   3.345   0.939  11.433  0.3884  0.4971 -0.1149
    1Sil     Ob 1243   0.636   1.107  10.423 -0.3057 -0.2518 -0.0330
    1Sil     Ob 1244   0.579   1.104  11.618 -0.1733 -0.2211 -0.0661
    1Sil     Ob 1245   0.635   1.601  10.443 -0.5318  0.1417  0.1566
    1Sil     Ob 1246   0.565   1.598  11.636  0.3662 -0.5424  0.1937
    1Sil     Ob 1247   0.620   2.091  10.429 -0.3824 -0.8712  0.6264
    1Sil     Ob 1248   0.592   2.099  11.635  0.2394 -0.3812 -0.1761
    1Sil     Ob 1249   0.611   2.582  10.442 -0.0024 -0.0785 -0.1348
    1Sil     Ob 1250   0.570   2.583  11.628  0.3899  1.4114  0.6684
    1Sil     Ob 1251   0.618   3.080  10.437  0.3447 -0.1923  0.0648
    1Sil     Ob 1252   0.576   3.073  11.641  0.1607  0.6826  0.1556
    1Sil     Ob 1253   0.625   3.581  10.455  0.0092  0.5158  0.3151
    1Sil     Ob 1254   0.581   3.572  11.639  0.3433  0.6697  0.2428
    1Sil     Ob 1255   0.642   4.072  10.421  0.4209 -0.3523  0.5056
    1Sil     Ob 1256   0.569   4.065  11.625 -0.0732 -0.2248 -0.3118
    1Sil     Ob 1257   1.127   1.012  10.775  0.4421 -0.0862 -0.4883
    1Sil     Ob 1258   1.082   1.007  11.958 -0.3174  0.3827  0.2587
    1Sil     Ob 1259   1.954   1.003  10.789 -0.2605  0.3637  0.0329
    1Sil     Ob 1260   1.910   1.004  11.968  0.0728 -0.4699 -0.1696
    1Sil     Ob 1261   2.780   1.022  10.785  0.1722  0.5933  0.3423
    1Sil     Ob 1262   2.736   1.006  11.968 -0.1658 -0.1067 -0.2790
    1Sil     Ob 1263   0.290   1.005  10.795  0.0359  0.1172  0.0118
    1Sil     Ob 1264   0.234   0.997  11.969 -0.3769  0.0233  0.5077
    1Sil     Ob 1265   0.694   1.110  10.798 -0.2361  0.6781  0.2837
    1Sil     Ob 1266   1.231   1.116  11.214  0.3027  0.0899 -0.0361
    1Sil     Ob 1267   1.052   1.011  10.414 -0.6938  0.2216 -0.1578
    1Sil     Ob 1268   0.635   1.105  11.997  0.1045  0.1596  0.1079
    1Sil     Ob 1269   1.180   1.113  12.404  0.0202  0.3525  0.6714
    1Sil     Ob 1270   0.993   1.000  11.617  0.1331 -0.4542 -0.0124
    1Sil     Ob 1271   1.525   1.119  10.815 -0.0640 -0.3865  0.1913
    1Sil     Ob 1272   2.059   1.124  11.190 -0.0681  0.0935 -0.6233
    1Sil     Ob 1273   1.897   0.995  10.415 -0.1630  0.2815 -0.1186
    1Sil     Ob 1274   1.458   1.102  12.011  0.3052  0.6353 -0.4764
    1Sil     Ob 1275   2.023   1.107  12.348 -0.2774 -0.1915  0.3027
    1Sil     Ob 1276   1.852   1.001  11.623  0.1818  0.3519  0.0723
    1Sil     Ob 1277   2.360   1.127  10.802 -0.3471  0.2452  0.0358
    1Sil     Ob 1278   2.896   1.119  11.197 -0.1370 -0.0723 -0.4536
    1Sil     Ob 1279   2.731   0.998  10.421 -0.0218  0.2284  0.0423
    1Sil     Ob 1280   2.320   1.115  11.974  0.2530 -0.2397  0.4903
    1Sil     Ob 1281   2.853   1.109  12.355  0.1039 -0.0728 -0.2974
    1Sil     Ob 1282   2.685   1.002  11.604  0.2727 -0.1263  0.1575
    1Sil     Ob 1283   3.207   1.115  10.770 -0.0010 -0.1179  0.1295
    1Sil     Ob 1284   0.402   1.111  11.182 -0.0997  0.0519 -0.2340
    1Sil     Ob 1285   0.228   1.002  10.424  0.2650  0.8880 -0.2286
    1Sil     Ob 1286   3.146   1.109  12.002  0.4966 -0.1198  0.2486
    1Sil     Ob 1287   0.356   1.112  12.372  0.2837 -0.4268  0.3267
    1Sil     Ob 1288   0.161   1.013  11.621 -0.1710  0.4217  0.4504
    1Sil     Cm 1289   1.447   1.185  10.161 -0.6540  0.5774 -0.6460
    1Sil     Cm 1290   0.916   1.423  10.236  0.7868 -0.5406 -0.4041
    1Sil     Oy 1291   0.836   1.411  12.623 -0.0183 -0.0400  0.0174
    1Sil     Oy 1292   1.328   1.208  12.587  0.0020 -0.0459 -0.3691
    1Sil     Cm 1293   1.423   1.669  10.198  0.7721 -0.9997  0.0924
    1Sil     Cm 1294   0.893   1.930  10.198  0.2146  0.1943 -0.5060
    1Sil     Cm 1295   0.821   1.922  12.633 -0.1292 -0.5351  0.1318
    1Sil     Cm 1296   1.312   1.666  12.606 -0.2544  0.3927 -0.2124
    1Sil     Cm 1297   1.429   2.169  10.195 -0.0596  0.1836 -0.0541
    1Sil     Cm 1298   0.920   2.393  10.200 -0.3073 -0.5938 -0.2082
    1Sil     Cm 1299   0.821   2.413  12.647  0.5986  0.7153  0.5343
    1Sil     Cm 1300   1.306   2.186  12.598 -0.2680  0.4331 -0.2866
    1Sil     Cm 1301   1.411   2.653  10.185  0.0492  0.0145 -0.5384
    1Sil     Cm 1302   0.909   2.901  10.219 -0.1766  0.5258  0.0314
    1Sil     Oy 1303   0.805   2.900  12.613  0.5881 -0.0294 -0.1842
    1Sil     Oy 1304   1.321   2.672  12.575 -0.2727  0.3784 -0.3721
    1Sil     Cm 1305   1.436   3.167  10.171  0.0797  0.6659  0.0099
    1Sil     Oy 1306   0.910   3.407  10.228  0.2435 -0.0644  0.2056
    1Sil     Oy 1307   0.784   3.392  12.597 -0.2590 -0.1327 -0.7278
    1Sil     Cm 1308   1.323   3.166  12.600  0.0612  0.3440 -0.2730
    1Sil     Oy 1309   1.417   3.643  10.181  0.1809 -0.4236  0.4062
    1Sil     Cm 1310   0.902   3.900  10.212 -0.4536 -0.2302  0.3263
    1Sil     Cm 1311   0.839   3.884  12.655 -0.3707 -0.0896 -0.2328
    1Sil     Cm 1312   1.311   3.643  12.606 -0.2191 -0.1817  1.0351
    1Sil     Cm 1313   1.446   4.146  10.193  0.2035 -0.0829  0.0045
    1Sil     Cm 1314   0.895   0.954  10.207 -0.0361  0.1240 -0.0066
    1Sil     Cm 1315   0.806   0.940  12.639  0.8189 -1.0670 -0.1713
    1Sil     Cm 1316   1.341   4.152  12.601 -0.0236 -0.8603 -0.1266
    1Sil     Cm 1317   2.260   1.181  10.171 -0.3446  0.1789 -0.0613
    1Sil     Cm 1318   1.737   1.422  10.207  0.6659  0.1993  0.9905
    1Sil     Cm 1319   1.666   1.430  12.634 -0.1067  0.0999  0.6569
    1Sil     Cm 1320   2.157   1.173  12.579  0.2740  0.7823  0.0005
    1Sil     Cm 1321   2.297   1.645  10.170 -0.0505  0.1372 -0.2033
    1Sil     Cm 1322   1.740   1.910  10.232  0.0166  0.4026  0.6096
    1Sil     Cm 1323   1.656   1.911  12.634 -0.6633 -1.0182 -0.0279
    1Sil     Cm 1324   2.169   1.677  12.582 -0.0926 -0.1403 -0.6027
    1Sil     Cm 1325   2.284   2.160  10.167 -0.1437 -0.1745 -0.7274
    1Sil     Cm 1326   1.750   2.420  10.217 -0.1926 -0.3284 -0.6845
    1Sil     Cm 1327   1.622   2.405  12.639 -0.3071  0.4819  0.3803
    1Sil     Cm 1328   2.133   2.173  12.596  1.2477  0.0132  0.1009
    1Sil     Cm 1329   2.270   2.666  10.189  0.5940  0.5634 -0.2322
    1Sil     Cm 1330   1.743   2.889  10.204  0.3859  0.0157 -0.0163
    1Sil     Cm 1331   1.641   2.893  12.631 -0.0307  0.2566  0.2669
    1Sil     Cm 1332   2.157   2.657  12.599 -0.0229 -0.2698 -1.0306
    1Sil     Cm 1333   2.271   3.144  10.189 -0.9531 -0.3760  0.5086
    1Sil     Cm 1334   1.725   3.387  10.196 -0.3305  1.2614 -0.0727
    1Sil     Cm 1335   1.645   3.393  12.648 -0.1130  0.4139 -0.0272
    1Sil     Cm 1336   2.151   3.147  12.605  0.2815  0.6941  0.3398
    1Sil     Cm 1337   2.261   3.670  10.157  0.6663 -0.9075  0.1656
    1Sil     Cm 1338   1.726   3.894  10.229 -0.7992  0.5683 -0.4722
    1Sil     Cm 1339   1.627   3.902  12.636 -1.3453 -0.5309 -0.1478
    1Sil     Cm 1340   2.158   3.630  12.626 -0.5645  0.0633  0.5902
    1Sil     Cm 1341   2.263   4.144  10.185 -0.4836 -0.7072 -0.7287
    1Sil     Oy 1342   1.748   0.923  10.228  0.0001  0.6762 -0.6883
    1Sil     Cm 1343   1.638   0.927  12.640 -0.5598  0.1265 -0.0204
    1Sil     Cm 1344   2.142   4.144  12.583  0.3123 -0.4084 -0.4383
    1Sil     Cm 1345   3.108   1.194  10.169 -0.3503  0.1869  0.2947
    1Sil     Cm 1346   2.571   1.426  10.215 -0.1027 -0.2323 -0.4714
    1Sil     Cm 1347   2.460   1.419  12.623  0.2030 -0.6502  0.4531
    1Sil     Cm 1348   2.981   1.172  12.571 -0.0782 -0.6320 -0.1148
    1Sil     Cm 1349   3.113   1.685  10.171  0.5796 -0.7148  0.7951
    1Sil     Cm 1350   2.583   1.919  10.206 -0.3560  0.3739  0.5204
    1Sil     Cm 1351   2.466   1.912  12.632  0.1393 -0.0931  0.6856
    1Sil     Cm 1352   2.974   1.685  12.591  0.0270 -0.4856  0.1715
    1Sil     Cm 1353   3.099   2.201  10.175 -0.1956 -0.4467 -0.7008
    1Sil     Cm 1354   2.590   2.420  10.229  0.5646  0.1071  0.1703
    1Sil     Cm 1355   2.499   2.412  12.644 -0.3728  0.6369  0.5356
    1Sil     Cm 1356   2.985   2.180  12.595 -0.3125  0.0669 -1.0476
    1Sil     Cm 1357   3.073   2.664  10.180  0.1791  0.4929 -0.9276
    1Sil     Cm 1358   2.575   2.910  10.236 -0.4528 -0.5544  0.4216
    1Sil     Cm 1359   2.468   2.904  12.624  0.3790  0.4818  0.7486
    1Sil     Cm 1360   2.997   2.658  12.610 -0.4485  0.3739  0.0480
    1Sil     Cm 1361   3.114   3.165  10.178  0.4457  0.7535 -0.3100
    1Sil     Cm 1362   2.574   3.391  10.199 -0.3593  0.4025  0.5118
    1Sil     Cm 1363   2.460   3.380  12.638 -0.1262  0.3627  0.1017
    1Sil     Cm 1364   2.978   3.190  12.598 -0.2502 -0.3470 -0.5135
    1Sil     Cm 1365   3.132   3.656  10.178  0.2588  0.9795  0.3286
    1Sil     Cm 1366   2.559   3.929  10.201 -0.0937 -0.0266 -0.1789
    1Sil     Cm 1367   2.483   3.882  12.643  0.0947 -0.5528  0.4145
    1Sil     Cm 1368   2.976   3.669  12.601 -0.6421  0.1540  0.0020
    1Sil     Cm 1369   3.112   4.130  10.185 -0.2101 -0.4318 -0.0552
    1Sil     Cm 1370   2.572   0.943  10.221  0.4459 -0.2938  0.7471
    1Sil     Cm 1371   2.464   0.920  12.620  0.6433  0.3559 -0.1932
    1Sil     Cm 1372   2.983   4.140  12.583  0.0858 -0.3026  0.1565
    1Sil     Cm 1373   0.610   1.199  10.175  0.0644 -0.0511  0.4003
    1Sil     Cm 1374   3.400   1.443  10.220 -0.2414  0.2061 -0.9880
    1Sil     Cm 1375   3.316   1.424  12.632 -0.2078  0.1195 -0.0057
    1Sil     Cm 1376   0.504   1.189  12.591 -0.0125 -0.3663  0.2407
    1Sil     Cm 1377   0.600   1.656  10.191  0.1163  0.6578 -0.3292
    1Sil     Cm 1378   3.406   1.906  10.202  0.4329  0.3958  1.0246
    1Sil     Cm 1379   3.303   1.906  12.647 -0.6844  0.4577 -0.1307
    1Sil     Cm 1380   0.498   1.671  12.591  0.7173  0.0893 -0.2672
    1Sil     Cm 1381   0.588   2.153  10.174 -0.2328  0.0583  0.5259
    1Sil     Cm 1382   3.403   2.426  10.224  0.1132  0.4231  0.7588
    1Sil     Cm 1383   3.299   2.442  12.639  0.2708  0.2859  0.5608
    1Sil     Cm 1384   0.517   2.156  12.606  0.3557  0.0030  0.1817
    1Sil     Cm 1385   0.596   2.638  10.189  0.8737 -1.0033  0.2619
    1Sil     Cm 1386   3.401   2.879  10.225 -0.0175  0.3858  0.0304
    1Sil     Cm 1387   3.321   2.908  12.644 -0.2597 -0.3033 -0.1259
    1Sil     Cm 1388   0.512   2.655  12.617 -0.2817 -0.0682 -0.5127
    1Sil     Cm 1389   0.598   3.140  10.190 -0.2308 -0.3059  0.7117
    1Sil     Cm 1390   3.387   3.379  10.201  0.3159 -0.0731 -1.3900
    1Sil     Cm 1391   3.310   3.425  12.644  0.2629 -0.0878 -0.3523
    1Sil     Cm 1392   0.486   3.148  12.579 -0.1391  0.9246  0.1656
    1Sil     Cm 1393   0.607   3.638  10.186 -0.4265 -0.2263 -0.0232
    1Sil     Oy 1394   3.391   3.897  10.235 -0.1069  0.2357  0.6501
    1Sil     Cm 1395   3.317   3.932  12.642 -0.5115  0.4946 -0.9264
    1Sil     Cm 1396   0.480   3.647  12.590  0.8870  0.0486 -0.5206
    1Sil     Cm 1397   0.604   4.151  10.174 -0.1268 -0.1943 -0.1071
    1Sil     Cm 1398   0.085   0.947  10.210 -0.8190 -0.3895  0.3938
    1Sil     Cm 1399   3.299   0.947  12.621  0.0632 -0.5240  0.8366
    1Sil     Cm 1400   0.479   4.147  12.603 -0.4016 -0.2059 -0.5335
    1Sil    Sim 1401   1.394   1.206  10.336  0.1108 -0.1974  0.0161
    1Sil    Sib 1402   0.801   1.205  11.130  0.1206  0.0877  0.2382
    1Sil    Sib 1403   1.098   1.151  10.727  0.1250  0.0401 -0.1684
    1Sil    Sib 1404   0.644   1.460  10.784 -0.3928  0.3711 -0.2702
    1Sil    Sib 1405   1.181   1.463  11.166 -0.0177 -0.1209 -0.1393
    1Sil    Sim 1406   0.939   1.399  10.392 -0.3677 -0.1028  0.1520
    1Sil    Sib 1407   0.896   1.452  11.261 -0.3029 -0.0521  0.1345
    1Sil    Sib 1408   0.656   1.449  10.489  0.1809  0.0769 -0.2035
    1Sil    Sib 1409   1.203   1.397  10.876  0.0381 -0.0037  0.1799
    1Sil    Sib 1410   0.815   1.215  10.831  0.4919  0.0357 -0.2373
    1Sil    Sib 1411   1.347   1.215  11.247 -0.3220 -0.0280  0.1119
    1Sil    Sib 1412   1.109   1.158  10.432 -0.2556  0.0845 -0.4346
    1Sil    Sib 1413   1.334   1.203  11.543  0.1215  0.0155 -0.1100
    1Sil    Sib 1414   0.756   1.209  12.336 -0.1475 -0.0413 -0.2936
    1Sil    Sib 1415   1.033   1.150  11.931  0.1775  0.1149 -0.2106
    1Sil    Sib 1416   0.591   1.444  11.964  0.1589  0.3571 -0.0260
    1Sil    Sib 1417   1.139   1.456  12.355 -0.3254  0.1755 -0.2838
    1Sil    Sib 1418   0.884   1.397  11.563  0.2053  0.0658 -0.4310
    1Sil    Sib 1419   0.858   1.454  12.471 -0.2093  0.1774 -0.3833
    1Sil    Sib 1420   0.601   1.444  11.664 -0.0142  0.3741  0.0088
    1Sil    Sib 1421   1.141   1.398  12.064 -0.6044  0.0335 -0.3398
    1Sil    Sib 1422   0.751   1.201  12.035  0.3233  0.3227 -0.1412
    1Sil    Sib 1423   1.293   1.214  12.427 -0.1246 -0.1721 -0.3521
    1Sil    Sib 1424   1.045   1.147  11.628  0.1101 -0.1108 -0.0482
    1Sil    Sim 1425   1.385   1.698  10.349 -0.2062 -0.0694 -0.1444
    1Sil    Sib 1426   0.799   1.702  11.137  0.0577 -0.2528  0.1165
    1Sil    Sib 1427   1.097   1.645  10.743  0.0556  0.0863 -0.2567
    1Sil    Sib 1428   0.652   1.936  10.774 -0.1078  0.2186 -0.0601
    1Sil    Sib 1429   1.199   1.945  11.186 -0.2757  0.4882  0.2287
    1Sil    Sim 1430   0.939   1.897  10.378 -0.0036  0.1904 -0.0221
    1Sil    Sib 1431   0.913   1.949  11.284 -0.0931 -0.0743 -0.1732
    1Sil    Sib 1432   0.653   1.944  10.475  0.4523 -0.4458 -0.0633
    1Sil    Sib 1433   1.199   1.892  10.882  0.1483  0.5522  0.1499
    1Sil    Sib 1434   0.814   1.694  10.833 -0.1234 -0.2566 -0.4905
    1Sil    Sib 1435   1.355   1.697  11.247 -0.2309  0.2574  0.6489
    1Sil    Sib 1436   1.103   1.654  10.446  0.2683  0.1209 -0.1674
    1Sil    Sib 1437   1.338   1.697  11.548 -0.3322  0.0850 -0.0942
    1Sil    Sib 1438   0.743   1.700  12.332  0.3736  0.1202  0.6949
    1Sil    Sib 1439   1.037   1.649  11.934  0.3901  0.1032 -0.1922
    1Sil    Sib 1440   0.599   1.940  11.980  0.1885  0.0058 -0.3275
    1Sil    Sib 1441   1.137   1.948  12.366 -0.2242 -0.1642  0.0441
    1Sil    Sib 1442   0.895   1.889  11.577  0.1372 -0.0985  0.5213
    1Sil    Sim 1443   0.863   1.948  12.474 -0.7670  0.5122  0.0019
    1Sil    Sib 1444   0.619   1.946  11.678  0.1554 -0.2049  0.0341
    1Sil    Sib 1445   1.145   1.883  12.073  0.0288 -0.2241 -0.5714
    1Sil    Sib 1446   0.758   1.694  12.028 -0.1861 -0.1471  0.5974
    1Sil    Sim 1447   1.295   1.702  12.421  0.1757 -0.2658  0.2652
    1Sil    Sib 1448   1.062   1.643  11.633 -0.1628  0.1560  0.2328
    1Sil    Sim 1449   1.387   2.193  10.347 -0.1429  0.2675 -0.1894
    1Sil    Sib 1450   0.798   2.193  11.145  0.4655 -0.2092  0.1187
    1Sil    Sib 1451   1.100   2.147  10.756  0.1546  0.1720 -0.3336
    1Sil    Sib 1452   0.645   2.435  10.777  0.2071  0.4440  0.1274
    1Sil    Sib 1453   1.185   2.439  11.185  0.5533  0.0349 -0.0032
    1Sil    Sim 1454   0.944   2.387  10.374 -0.1341  0.2876 -0.0185
    1Sil    Sib 1455   0.900   2.435  11.281 -0.4046  0.3703 -0.2547
    1Sil    Sib 1456   0.659   2.437  10.477  0.1907  0.1018 -0.2055
    1Sil    Sib 1457   1.208   2.397  10.883 -0.3439  0.7238  0.2766
    1Sil    Sib 1458   0.807   2.190  10.847 -0.4790  0.6270 -0.0362
    1Sil    Sib 1459   1.353   2.190  11.239  0.8168  0.3690 -0.4453
    1Sil    Sib 1460   1.107   2.142  10.458  0.0727  0.1916  0.0724
    1Sil    Sib 1461   1.333   2.187  11.540 -0.3860  0.0999  0.0806
    1Sil    Sib 1462   0.755   2.200  12.341 -0.5923  0.3959 -0.3625
    1Sil    Sib 1463   1.044   2.133  11.940 -0.1338  0.2325  0.1241
    1Sil    Sib 1464   0.596   2.437  11.972 -0.0593  0.4272 -0.0416
    1Sil    Sib 1465   1.134   2.452  12.359  0.1135 -0.4356 -0.1104
    1Sil    Sib 1466   0.893   2.387  11.579  0.4052  0.4311  0.0171
    1Sil    Sim 1467   0.862   2.449  12.473 -0.0188 -0.2067 -0.1946
    1Sil    Sib 1468   0.603   2.439  11.673 -0.0661  0.5298  0.0341
    1Sil    Sib 1469   1.158   2.388  12.074 -0.2887  0.2121 -0.2194
    1Sil    Sib 1470   0.767   2.188  12.036 -0.3023  0.4034 -0.1476
    1Sil    Sim 1471   1.296   2.203  12.441 -0.0414 -0.0316 -0.1446
    1Sil    Sib 1472   1.053   2.137  11.643 -0.3355  0.2493  0.5295
    1Sil    Sim 1473   1.370   2.694  10.340 -0.2586  0.1395 -0.2454
    1Sil    Sib 1474   0.794   2.688  11.147  0.6207 -0.4943  0.0360
    1Sil    Sib 1475   1.093   2.643  10.747  0.0871 -0.2140 -0.1322
    1Sil    Sib 1476   0.636   2.938  10.770 -0.1458 -0.0006 -0.0655
    1Sil    Sib 1477   1.184   2.934  11.174 -0.2331  0.1921 -0.0454
    1Sil    Sim 1478   0.931   2.880  10.388 -0.0114  0.1596  0.5702
    1Sil    Sib 1479   0.900   2.936  11.275 -0.2035 -0.1711  0.1678
    1Sil    Sib 1480   0.647   2.931  10.478 -0.5537 -0.1287 -0.0541
    1Sil    Sib 1481   1.207   2.896  10.876 -0.3758 -0.3278 -0.0978
    1Sil    Sib 1482   0.803   2.689  10.847  0.1036 -0.1752 -0.1141
    1Sil    Sib 1483   1.347   2.686  11.242  0.2804 -0.3734 -0.5527
    1Sil    Sib 1484   1.091   2.641  10.447 -0.1790 -0.0966 -0.5173
    1Sil    Sib 1485   1.330   2.686  11.536  0.0554  0.0428 -0.1660
    1Sil    Sib 1486   0.749   2.688  12.338  0.0405  0.0568 -0.0570
    1Sil    Sib 1487   1.045   2.625  11.935  0.4886  0.0341 -0.1000
    1Sil    Sib 1488   0.605   2.915  11.975 -0.4286 -0.0063  0.4658
    1Sil    Sib 1489   1.132   2.948  12.375 -0.3220  0.3842 -0.0991
    1Sil    Sib 1490   0.886   2.887  11.578 -0.4230 -0.1095  0.0412
    1Sil    Sib 1491   0.851   2.942  12.465 -0.1361  0.3081  0.5113
    1Sil    Sib 1492   0.599   2.920  11.672  0.2973 -0.2581 -0.0256
    1Sil    Sib 1493   1.140   2.883  12.074 -0.1173 -0.4276  0.1048
    1Sil    Sib 1494   0.771   2.669  12.048  0.2876  0.7188  0.3232
    1Sil    Sib 1495   1.289   2.697  12.425 -0.0126 -0.5764 -0.0512
    1Sil    Sib 1496   1.051   2.638  11.634  0.5172 -0.4088 -0.3388
    1Sil    Sim 1497   1.377   3.185  10.330 -0.2617  0.1070  0.2166
    1Sil    Sib 1498   0.797   3.182  11.130  0.1565  0.2551 -0.0124
    1Sil    Sib 1499   1.093   3.139  10.733 -0.0947  0.4366 -0.4910
    1Sil    Sib 1500   0.649   3.431  10.786  0.2084  0.1401  0.2084
    1Sil    Sib 1501   1.187   3.431  11.183 -0.3824 -0.1169  0.2808
    1Sil    Sib 1502   0.940   3.367  10.386 -0.3407 -0.2688  0.1046
    1Sil    Sib 1503   0.902   3.429  11.279  0.2512  0.0841 -0.3887
    1Sil    Sib 1504   0.657   3.430  10.489 -0.1524  0.1973  0.4087
    1Sil    Sib 1505   1.196   3.385  10.883 -0.5576  0.2714 -0.0992
    1Sil    Sib 1506   0.815   3.182  10.835 -0.1590 -0.5644 -0.2395
    1Sil    Sib 1507   1.348   3.188  11.242 -0.0091  0.2927 -0.0210
    1Sil    Sib 1508   1.093   3.122  10.435 -0.2000 -0.3316 -0.3310
    1Sil    Sib 1509   1.341   3.180  11.537 -0.1753 -0.0095 -0.3942
    1Sil    Sib 1510   0.741   3.187  12.322 -0.0347 -0.3136  0.3179
    1Sil    Sib 1511   1.040   3.125  11.926  0.2318 -0.1557 -0.3152
    1Sil    Sib 1512   0.590   3.427  11.980  0.3040 -0.3551  0.3310
    1Sil    Sib 1513   1.119   3.427  12.362 -0.1208 -0.0328  0.0684
    1Sil    Sib 1514   0.885   3.373  11.569 -0.2461 -0.0466 -0.2463
    1Sil    Sib 1515   0.847   3.429  12.454 -0.2234  0.3018  0.2570
    1Sil    Sib 1516   0.603   3.424  11.680 -0.2384  0.1516  0.3167
    1Sil    Sib 1517   1.141   3.374  12.068  0.0078  0.0706 -0.0441
    1Sil    Sib 1518   0.758   3.171  12.029  0.0798 -0.0305  0.0040
    1Sil    Sim 1519   1.286   3.187  12.451 -0.0155 -0.4907  0.1066
    1Sil    Sib 1520   1.056   3.130  11.636  0.3876 -0.2444 -0.2592
    1Sil    Sib 1521   1.383   3.675  10.332  0.2349  0.2490  0.2589
    1Sil    Sib 1522   0.806   3.673  11.136  0.1282  0.1594  0.4597
    1Sil    Sib 1523   1.096   3.627  10.745 -0.2016  0.3390 -0.1339
    1Sil    Sib 1524   0.648   3.931  10.783  0.1931  0.3533 -0.3404
    1Sil    Sib 1525   1.186   3.920  11.176 -0.1566  0.2028 -0.2438
    1Sil    Sim 1526   0.943   3.866  10.377 -0.4781 -0.0234 -0.1506
    1Sil    Sib 1527   0.900   3.924  11.264  0.5412  0.1167 -0.6314
    1Sil    Sib 1528   0.660   3.928  10.475  0.4106  0.2619  0.0817
    1Sil    Sib 1529   1.214   3.868  10.875 -0.1179  0.3360 -0.0240
    1Sil    Sib 1530   0.813   3.683  10.836 -0.0511  0.6463 -0.1238
    1Sil    Sib 1531   1.351   3.678  11.236 -0.1708 -0.4136  0.0414
    1Sil    Sib 1532   1.103   3.612  10.444 -0.3129 -0.0788 -0.1769
    1Sil    Sib 1533   1.328   3.679  11.534 -0.1265  0.2364 -0.0755
    1Sil    Sib 1534   0.746   3.682  12.340 -0.1978 -0.3864  0.1691
    1Sil    Sib 1535   1.039   3.621  11.931  0.0071 -0.4318 -0.1769
    1Sil    Sib 1536   0.593   3.915  11.975  0.0848 -0.1756  0.5071
    1Sil    Sib 1537   1.145   3.908  12.353 -0.1834 -0.3148 -0.4023
    1Sil    Sib 1538   0.885   3.873  11.569 -0.1311 -0.5582  0.2948
    1Sil    Sim 1539   0.862   3.920  12.476 -0.1962  0.3957  0.0684
    1Sil    Sib 1540   0.601   3.916  11.669  0.1084 -0.0785  0.2822
    1Sil    Sib 1541   1.159   3.864  12.058  0.0278  0.0715 -0.2557
    1Sil    Sib 1542   0.761   3.672  12.035 -0.1074 -0.0509  0.0819
    1Sil    Sim 1543   1.287   3.669  12.423  0.0282 -0.4317 -0.2893
    1Sil    Sib 1544   1.044   3.627  11.630 -0.6013 -0.1789 -0.5244
    1Sil    Sim 1545   1.390   4.166  10.335  0.0471 -0.1949  0.1739
    1Sil    Sib 1546   0.796   4.172  11.133  0.2922 -0.0442 -0.2416
    1Sil    Sib 1547   1.105   4.121  10.745  0.3553 -0.0770  0.5861
    1Sil    Sib 1548   0.641   0.967  10.778  0.2185 -0.2555  0.0716
    1Sil    Sib 1549   1.184   0.968  11.182  0.0263  0.3411 -0.3551
    1Sil    Sim 1550   0.936   0.912  10.368  0.1635  0.2830  0.2765
    1Sil    Sib 1551   0.902   0.958  11.276  0.4368 -0.0505 -0.0356
    1Sil    Sib 1552   0.651   0.967  10.473  0.3139  0.4482 -0.3720
    1Sil    Sib 1553   1.209   0.921  10.880  0.0375 -0.4714 -0.5042
    1Sil    Sib 1554   0.819   4.177  10.839 -0.5673  0.5785 -0.0900
    1Sil    Sib 1555   1.346   4.169  11.242  0.3904 -0.0792  0.5652
    1Sil    Sib 1556   1.110   4.121  10.437  0.4083  0.2671 -0.2047
    1Sil    Sib 1557   1.328   4.175  11.539 -0.4313  0.0594 -0.4258
    1Sil    Sib 1558   0.758   4.169  12.339  0.3435  0.1881 -0.2633
    1Sil    Sib 1559   1.026   4.113  11.934  0.1944 -0.3843  0.2205
    1Sil    Sib 1560   0.588   0.957  11.965  0.1883  0.0791 -0.8963
    1Sil    Sib 1561   1.140   0.958  12.371 -0.3742  0.1095 -0.2159
    1Sil    Sib 1562   0.883   0.902  11.568  0.5520 -0.0111  0.8059
    1Sil    Sim 1563   0.856   0.968  12.476  0.2433  0.1744 -0.0466
    1Sil    Sib 1564   0.602   0.957  11.669  0.1533  0.2298 -0.1128
    1Sil    Sib 1565   1.137   0.904  12.070  0.2120 -0.1747  0.6706
    1Sil    Sib 1566   0.747   4.166  12.036 -0.2145  0.6123  0.4262
    1Sil    Sim 1567   1.297   4.164  12.430 -0.3534 -0.3933  0.5002
    1Sil    Sib 1568   1.048   4.124  11.632  0.0200  0.1727  0.4313
    1Sil    Sim 1569   2.221   1.215  10.338 -0.0222  0.4085  0.0400
    1Sil    Sib 1570   1.627   1.216  11.144  0.3962  0.2886  0.5065
    1Sil    Sib 1571   1.926   1.153  10.741  0.0755 -0.3412 -0.0996
    1Sil    Sib 1572   1.485   1.452  10.789 -0.4435 -0.2459 -0.0068
    1Sil    Sib 1573   2.014   1.464  11.174 -0.1532 -0.1931 -0.2462
    1Sil    Sim 1574   1.777   1.390  10.385 -0.0489  0.1622 -0.1372
    1Sil    Sib 1575   1.735   1.465  11.282 -0.4527  0.0297 -0.2400
    1Sil    Sib 1576   1.499   1.452  10.486  0.1892  0.3146  0.0950
    1Sil    Sib 1577   2.035   1.399  10.877 -0.0434 -0.1192 -0.1255
    1Sil    Sib 1578   1.646   1.214  10.849  0.0714 -0.0347 -0.0156
    1Sil    Sib 1579   2.177   1.225  11.236  0.2399 -0.2351 -0.3188
    1Sil    Sib 1580   1.943   1.148  10.443  0.2546 -0.3281 -0.0866
    1Sil    Sib 1581   2.170   1.205  11.528 -0.5392  0.1575  0.1004
    1Sil    Sib 1582   1.576   1.209  12.344 -0.3412  0.6097  0.1747
    1Sil    Sib 1583   1.871   1.157  11.934  0.0942 -0.0395 -0.5799
    1Sil    Sib 1584   1.422   1.443  11.988 -0.0212  0.0889  0.2621
    1Sil    Sib 1585   1.972   1.457  12.355 -0.4251  0.1171 -0.2002
    1Sil    Sib 1586   1.723   1.400  11.577  0.0843 -0.1599  0.4013
    1Sil    Sim 1587   1.697   1.451  12.473  0.6534  0.4610 -0.1026
    1Sil    Sib 1588   1.439   1.448  11.679 -0.1396 -0.1243  0.1309
    1Sil    Sib 1589   1.987   1.399  12.067 -0.2822 -0.2230 -0.1072
    1Sil    Sib 1590   1.581   1.197  12.046 -0.1848 -0.0563 -0.3563
    1Sil    Sim 1591   2.135   1.205  12.412 -0.1669 -0.0682  0.1803
    1Sil    Sib 1592   1.888   1.151  11.635 -0.1134  0.0522  0.2653
    1Sil    Sim 1593   2.229   1.695  10.335 -0.0238 -0.0094 -0.3312
    1Sil    Sib 1594   1.637   1.703  11.147 -0.1126 -0.4477 -0.0766
    1Sil    Sib 1595   1.924   1.653  10.743 -0.3239 -0.1839  0.2650
    1Sil    Sib 1596   1.480   1.951  10.787 -0.1780  0.1877  0.1411
    1Sil    Sib 1597   2.018   1.948  11.184  0.0879  0.3717  0.0316
    1Sil    Sim 1598   1.774   1.883  10.390 -0.0455 -0.1444  0.3148
    1Sil    Sib 1599   1.736   1.953  11.287  0.1616 -0.0442  0.2151
    1Sil    Sib 1600   1.486   1.937  10.485 -0.2436 -0.4905  0.2107
    1Sil    Sib 1601   2.041   1.905  10.880  0.2981 -0.3759  0.2593
    1Sil    Sib 1602   1.638   1.702  10.847  0.1540 -0.4420  0.3147
    1Sil    Sib 1603   2.180   1.702  11.233 -0.4092 -0.3259 -0.2850
    1Sil    Sib 1604   1.946   1.645  10.443  0.4793 -0.3296 -0.3002
    1Sil    Sib 1605   2.168   1.703  11.529  0.2582  0.2472 -0.4305
    1Sil    Sib 1606   1.582   1.699  12.328  0.2635 -0.1384  0.4731
    1Sil    Sib 1607   1.876   1.647  11.926  0.0466 -0.4423 -0.0911
    1Sil    Sib 1608   1.426   1.935  11.974 -0.3170  0.0670 -0.2495
    1Sil    Sib 1609   1.959   1.951  12.354 -0.9155  0.1662 -0.0672
    1Sil    Sib 1610   1.725   1.898  11.579  0.1847  0.1848 -0.0961
    1Sil    Sim 1611   1.688   1.947  12.467  0.5684 -0.1614  0.0007
    1Sil    Sib 1612   1.447   1.941  11.681 -0.0570 -0.2881  0.0130
    1Sil    Sib 1613   1.980   1.889  12.066 -0.2524  0.5181  0.2941
    1Sil    Sib 1614   1.592   1.692  12.034 -0.3872 -0.0761 -0.0654
    1Sil    Sim 1615   2.134   1.707  12.424  0.0956 -0.0837  0.3799
    1Sil    Sib 1616   1.894   1.651  11.632 -0.0640 -0.2269 -0.1893
    1Sil    Sim 1617   2.218   2.190  10.340 -0.1072 -0.5520 -0.0644
    1Sil    Sib 1618   1.636   2.197  11.151  0.4202  0.2362  0.0695
    1Sil    Sib 1619   1.935   2.146  10.742 -0.3207  0.3630 -0.2763
    1Sil    Sib 1620   1.491   2.439  10.782  0.0295 -0.2148  0.5213
    1Sil    Sib 1621   2.021   2.435  11.176 -0.1249 -0.1452  0.3152
    1Sil    Sim 1622   1.776   2.386  10.375 -0.0104  0.3046  0.1797
    1Sil    Sib 1623   1.741   2.452  11.273  0.1340  0.1012 -0.0476
    1Sil    Sib 1624   1.494   2.447  10.483 -0.1247 -0.2037 -0.3904
    1Sil    Sib 1625   2.041   2.395  10.882 -0.0815  0.0912  0.1729
    1Sil    Sib 1626   1.649   2.189  10.844 -0.1773  0.5893 -0.0248
    1Sil    Sib 1627   2.182   2.192  11.245  0.3201 -0.2013 -0.6702
    1Sil    Sib 1628   1.935   2.139  10.437  0.0014  0.3492 -0.6319
    1Sil    Sib 1629   2.164   2.190  11.541 -0.0063 -0.0030  0.2998
    1Sil    Sib 1630   1.572   2.194  12.353 -0.3251 -0.1875 -0.0042
    1Sil    Sib 1631   1.857   2.140  11.941  0.4385  0.6035 -0.0840
    1Sil    Sib 1632   1.438   2.437  11.974  0.3566  0.2235  0.2227
    1Sil    Sib 1633   1.956   2.450  12.371 -0.0735  1.0157  0.1323
    1Sil    Sib 1634   1.716   2.393  11.562  0.2867  0.3538 -0.0186
    1Sil    Sim 1635   1.671   2.445  12.481  0.1652  0.0619  0.0277
    1Sil    Sib 1636   1.435   2.435  11.673  0.4009  0.1600 -0.0120
    1Sil    Sib 1637   1.967   2.391  12.076  0.3762 -0.1351  0.5522
    1Sil    Sib 1638   1.584   2.182  12.046 -0.2123  0.2261  0.2460
    1Sil    Sim 1639   2.114   2.199  12.433  0.3923 -0.3051 -0.4498
    1Sil    Sib 1640   1.878   2.148  11.637 -0.3960 -0.4776  0.0760
    1Sil    Sim 1641   2.227   2.686  10.343  0.0563  0.0604 -0.2630
    1Sil    Sib 1642   1.627   2.692  11.138 -0.3945 -0.4098  0.5665
    1Sil    Sib 1643   1.924   2.639  10.743  0.0821  0.0677 -0.3303
    1Sil    Sib 1644   1.493   2.938  10.775  0.3384  0.2748 -0.4795
    1Sil    Sib 1645   2.012   2.933  11.172  0.0900  0.0746 -0.2399
    1Sil    Sim 1646   1.778   2.878  10.373 -0.4043 -0.0561 -0.0973
    1Sil    Sib 1647   1.725   2.939  11.270  0.0646  0.4681 -0.0710
    1Sil    Sib 1648   1.493   2.940  10.471 -0.0807 -0.7167 -0.2017
    1Sil    Sib 1649   2.034   2.894  10.872 -0.1630  0.3470 -0.3033
    1Sil    Sib 1650   1.648   2.689  10.846 -0.7230  0.4324 -0.1813
    1Sil    Sib 1651   2.177   2.683  11.233 -0.0589  0.1698 -0.1031
    1Sil    Sib 1652   1.942   2.632  10.445  0.1153  0.4912  0.1490
    1Sil    Sib 1653   2.173   2.680  11.536 -0.0080 -0.1093 -0.0241
    1Sil    Sib 1654   1.574   2.692  12.334  0.1254 -0.3273  0.1903
    1Sil    Sib 1655   1.880   2.638  11.929  0.4835 -0.6932 -0.1268
    1Sil    Sib 1656   1.420   2.936  11.977  0.3979  0.2320 -0.1868
    1Sil    Sib 1657   1.962   2.939  12.367  0.3347  0.0710 -0.0541
    1Sil    Sib 1658   1.726   2.871  11.564 -0.1883  0.0562  0.2871
    1Sil    Sim 1659   1.675   2.937  12.480  0.0905  0.2644 -0.0460
    1Sil    Sib 1660   1.452   2.939  11.675  0.0567  0.6012 -0.0231
    1Sil    Sib 1661   1.970   2.882  12.071  0.2491 -0.2649  0.3451
    1Sil    Sib 1662   1.592   2.687  12.028 -0.0719  0.0664  0.0072
    1Sil    Sim 1663   2.125   2.690  12.435 -0.2894  0.3220 -0.1569
    1Sil    Sib 1664   1.896   2.630  11.625  0.2305 -0.5424  0.0845
    1Sil    Sim 1665   2.229   3.178  10.332 -0.0388 -0.5782  0.0479
    1Sil    Sib 1666   1.629   3.196  11.137 -0.2789 -0.4627  0.3244
    1Sil    Sib 1667   1.934   3.136  10.735 -0.1684 -0.2767  0.0039
    1Sil    Sib 1668   1.478   3.442  10.771 -0.2905  0.2742 -0.6589
    1Sil    Sib 1669   2.027   3.429  11.169 -0.2043  0.7734  0.3945
    1Sil    Sim 1670   1.772   3.374  10.370  0.1597 -0.0679  0.4113
    1Sil    Sib 1671   1.742   3.434  11.271  0.0103 -0.1999  0.2786
    1Sil    Sib 1672   1.488   3.431  10.479 -0.3803  0.0414  0.4272
    1Sil    Sib 1673   2.046   3.384  10.867  0.1549 -0.6171 -0.2935
    1Sil    Sib 1674   1.654   3.196  10.830  0.0550 -0.1190 -0.8272
    1Sil    Sib 1675   2.180   3.177  11.234  0.2958  0.0398 -0.0130
    1Sil    Sib 1676   1.946   3.130  10.435  0.1779 -0.1645 -0.6937
    1Sil    Sib 1677   2.164   3.178  11.529 -0.2686  0.0262 -0.1862
    1Sil    Sib 1678   1.572   3.177  12.346 -0.0519 -0.6162  0.2443
    1Sil    Sib 1679   1.863   3.124  11.936  0.3019  0.5525 -0.1769
    1Sil    Sib 1680   1.423   3.432  11.979  0.0614  0.1621 -0.1163
    1Sil    Sib 1681   1.964   3.430  12.363  0.0035  0.0856 -0.0845
    1Sil    Sib 1682   1.720   3.373  11.571  0.0705  0.0009 -0.4434
    1Sil    Sim 1683   1.683   3.428  12.476 -0.2468  0.1569 -0.0863
    1Sil    Sib 1684   1.442   3.431  11.675  0.2098 -0.0663  0.3147
    1Sil    Sib 1685   1.990   3.375  12.068  0.2337  0.0372 -0.1251
    1Sil    Sib 1686   1.579   3.179  12.037  0.1380 -0.0476  0.2037
    1Sil    Sim 1687   2.124   3.175  12.427 -0.7251  0.0536  0.3062
    1Sil    Sib 1688   1.883   3.126  11.637 -0.1997  0.1907  0.0024
    1Sil    Sim 1689   2.216   3.683  10.316 -0.2817 -0.2697 -0.5073
    1Sil    Sib 1690   1.633   3.679  11.132  0.0265  0.0446 -0.0161
    1Sil    Sib 1691   1.925   3.624  10.732 -0.0151 -0.0568  0.1596
    1Sil    Sib 1692   1.488   3.928  10.773 -0.0018  0.1711 -0.2567
    1Sil    Sib 1693   2.018   3.918  11.172  0.3246 -0.1932 -0.2783
    1Sil    Sim 1694   1.776   3.871  10.388 -0.1074  0.4964  0.0573
    1Sil    Sib 1695   1.731   3.929  11.271 -0.1235  0.0095  0.1939
    1Sil    Sib 1696   1.491   3.922  10.480  0.0413 -0.2305 -0.4571
    1Sil    Sib 1697   2.024   3.869  10.878 -0.3118 -0.3853  0.3335
    1Sil    Sib 1698   1.648   3.685  10.835 -0.2496 -0.0572 -0.2396
    1Sil    Sib 1699   2.182   3.670  11.238  0.3298 -0.1411  0.1270
    1Sil    Sib 1700   1.938   3.622  10.439  0.1715 -0.4119  0.0227
    1Sil    Sib 1701   2.156   3.664  11.537  0.1444  0.1234  0.4051
    1Sil    Sib 1702   1.577   3.674  12.342 -0.4616  0.0368  0.5499
    1Sil    Sib 1703   1.875   3.613  11.936 -0.3237  0.0574 -0.3074
    1Sil    Sib 1704   1.446   3.924  11.970  0.3013  0.5169  0.2356
    1Sil    Sib 1705   1.963   3.923  12.367  0.1678  0.4460  0.2094
    1Sil    Sib 1706   1.719   3.881  11.569 -0.0857 -0.6348  0.1849
    1Sil    Sim 1707   1.688   3.927  12.481  0.3044  0.0952 -0.1748
    1Sil    Sib 1708   1.441   3.926  11.669  0.1460  0.4585 -0.5229
    1Sil    Sib 1709   1.970   3.861  12.070 -0.4160 -0.4274  0.2234
    1Sil    Sib 1710   1.596   3.670  12.035  0.1268 -0.0997  0.7155
    1Sil    Sim 1711   2.127   3.668  12.450 -0.0087  0.5834  0.3387
    1Sil    Sib 1712   1.870   3.622  11.630  0.0852  0.3831 -0.1476
    1Sil    Sim 1713   2.212   4.179  10.341 -0.1747  0.0714 -0.2946
    1Sil    Sib 1714   1.628   4.175  11.142 -0.3101  0.5469 -0.0953
    1Sil    Sib 1715   1.920   4.125  10.748 -0.1852 -0.4822 -0.0750
    1Sil    Sib 1716   1.480   0.974  10.782  0.0565  0.0743  0.0532
    1Sil    Sib 1717   2.023   0.968  11.188  0.2490  0.4342  0.7239
    1Sil    Sib 1718   1.767   0.899  10.390 -0.6132  0.0301 -0.0982
    1Sil    Sib 1719   1.734   0.970  11.286 -0.1096 -0.3272 -0.2350
    1Sil    Sib 1720   1.488   0.957  10.478  0.1600 -0.5164  0.1734
    1Sil    Sib 1721   2.038   0.911  10.887  0.5426 -0.1000 -0.0024
    1Sil    Sib 1722   1.637   4.182  10.842 -0.5034 -0.1192  0.0181
    1Sil    Sib 1723   2.190   4.174  11.230  0.5771 -0.3221 -0.0426
    1Sil    Sib 1724   1.932   4.115  10.445  0.2640  0.0077  0.6703
    1Sil    Sib 1725   2.166   4.161  11.527  0.0736  0.1395  0.0963
    1Sil    Sib 1726   1.586   4.171  12.339 -0.3798 -0.0029 -0.1505
    1Sil    Sib 1727   1.883   4.113  11.925 -0.5281  0.1393  0.7058
    1Sil    Sib 1728   1.423   0.949  11.974  0.1981 -0.0827 -0.7287
    1Sil    Sib 1729   1.970   0.963  12.352 -0.4895 -0.0765 -0.1542
    1Sil    Sib 1730   1.734   0.903  11.585 -0.0012 -0.2583  0.1757
    1Sil    Sim 1731   1.690   0.967  12.474 -0.1677 -0.1377  0.6271
    1Sil    Sib 1732   1.454   0.961  11.677  0.3658 -0.1146  0.2388
    1Sil    Sib 1733   1.988   0.909  12.061 -0.3974 -0.3824  0.2352
    1Sil    Sib 1734   1.610   4.170  12.034  0.5988 -0.0896 -0.2276
    1Sil    Sim 1735   2.127   4.167  12.426  0.3325 -0.0018 -0.1616
    1Sil    Sib 1736   1.890   4.113  11.625 -0.4032  0.0641  0.7335
    1Sil    Sim 1737   3.051   1.210  10.333 -0.2405 -0.2360  0.3030
    1Sil    Sib 1738   2.463   1.215  11.146  0.0205  0.1699  0.4228
    1Sil    Sib 1739   2.760   1.170  10.745  0.4818  0.5227 -0.3844
    1Sil    Sib 1740   2.318   1.455  10.779 -0.0774 -0.1093  0.3886
    1Sil    Sib 1741   2.849   1.465  11.174 -0.2678 -0.0332  0.0766
    1Sil    Sim 1742   2.621   1.401  10.376  0.2818 -0.1738 -0.1042
    1Sil    Sib 1743   2.571   1.459  11.280 -0.2086 -0.2217 -0.6670
    1Sil    Sib 1744   2.331   1.451  10.477  0.2876 -0.0536 -0.3382
    1Sil    Sib 1745   2.867   1.416  10.887  0.7110 -0.1230 -0.0928
    1Sil    Sib 1746   2.481   1.219  10.840 -0.0833  0.1931  0.0014
    1Sil    Sib 1747   3.020   1.222  11.232 -0.3354 -0.1453  0.0145
    1Sil    Sib 1748   2.779   1.150  10.444  0.1583 -0.1019 -0.2545
    1Sil    Sib 1749   3.005   1.215  11.529 -0.1365  0.0633  0.1064
    1Sil    Sib 1750   2.418   1.213  12.321 -0.4318 -0.2007  0.1812
    1Sil    Sib 1751   2.716   1.156  11.924  0.2423 -0.1762  0.3518
    1Sil    Sib 1752   2.261   1.450  11.965  0.3010  0.2754 -0.4978
    1Sil    Sib 1753   2.787   1.454  12.357  0.0798 -0.0445  0.0662
    1Sil    Sib 1754   2.554   1.393  11.580  0.4419  0.0397  0.1601
    1Sil    Sim 1755   2.507   1.458  12.466 -0.0626 -0.5302 -0.3218
    1Sil    Sib 1756   2.278   1.454  11.671 -0.4827  0.2622  0.1619
    1Sil    Sib 1757   2.811   1.399  12.064  0.0593  0.0369 -0.4211
    1Sil    Sib 1758   2.438   1.209  12.018 -0.1047 -0.1328  0.2509
    1Sil    Sim 1759   2.965   1.213  12.417 -0.1556  0.6671  0.1982
    1Sil    Sib 1760   2.724   1.148  11.628 -0.5234  0.0216 -0.2367
    1Sil    Sim 1761   3.059   1.698  10.335 -0.2264  0.1301 -0.3912
    1Sil    Sib 1762   2.462   1.707  11.133  0.1568  0.4709  0.2162
    1Sil    Sib 1763   2.772   1.653  10.734 -0.2733 -0.6762  0.2372
    1Sil    Sib 1764   2.329   1.953  10.774  0.1979 -0.1036 -0.0962
    1Sil    Sib 1765   2.859   1.957  11.185 -0.0304 -0.0589  0.0026
    1Sil    Sim 1766   2.624   1.891  10.373 -0.0904  0.1418 -0.0953
    1Sil    Sib 1767   2.573   1.950  11.269  0.1818  0.1705  0.5226
    1Sil    Sib 1768   2.335   1.946  10.470 -0.4416 -0.0737 -0.0718
    1Sil    Sib 1769   2.866   1.900  10.880 -0.4558 -0.0111 -0.0452
    1Sil    Sib 1770   2.489   1.697  10.831  0.1228 -0.0565  0.2439
    1Sil    Sib 1771   3.017   1.705  11.243 -0.0217 -0.1094  0.4438
    1Sil    Sib 1772   2.782   1.645  10.435  0.4681  0.6965  0.3031
    1Sil    Sib 1773   3.000   1.693  11.537  0.0495 -0.0007  0.1509
    1Sil    Sib 1774   2.416   1.710  12.326  0.3895 -0.2123  0.4060
    1Sil    Sib 1775   2.701   1.651  11.929  0.5829 -0.1543 -0.2073
    1Sil    Sib 1776   2.256   1.945  11.970  0.0905 -0.0888 -0.0975
    1Sil    Sib 1777   2.801   1.949  12.370  0.3209 -0.0976 -0.1637
    1Sil    Sib 1778   2.551   1.890  11.570  0.1957  0.4614 -0.1462
    1Sil    Sim 1779   2.519   1.947  12.474 -0.0703  0.3313  0.3452
    1Sil    Sib 1780   2.269   1.945  11.669 -0.3496  0.0735 -0.5542
    1Sil    Sib 1781   2.814   1.895  12.070 -0.1427 -0.2617 -0.0004
    1Sil    Sib 1782   2.425   1.697  12.024 -0.1088 -0.5977 -0.1317
    1Sil    Sim 1783   2.951   1.703  12.422 -0.0796 -0.2003  0.1705
    1Sil    Sib 1784   2.718   1.643  11.635 -0.1244 -0.2163  0.4942
    1Sil    Sim 1785   3.062   2.203  10.343 -0.3596  0.2387  0.2723
    1Sil    Sib 1786   2.460   2.195  11.134  0.0470 -0.1287 -0.1277
    1Sil    Sib 1787   2.756   2.141  10.756 -0.0651  0.1930  0.4639
    1Sil    Sib 1788   2.324   2.448  10.781 -0.4655 -0.3178  0.1195
    1Sil    Sib 1789   2.854   2.450  11.176  0.3345 -0.0301 -0.7455
    1Sil    Sim 1790   2.614   2.384  10.382 -0.1751 -0.3566  0.1936
    1Sil    Sib 1791   2.574   2.435  11.275  0.0077  0.3348 -0.3568
    1Sil    Sib 1792   2.323   2.432  10.488 -0.4128  0.0552  0.0387
    1Sil    Sib 1793   2.869   2.392  10.885  0.4222 -0.1056  0.3005
    1Sil    Sib 1794   2.478   2.196  10.843 -0.3100 -0.5369 -0.6661
    1Sil    Sib 1795   3.018   2.204  11.234 -0.3413  0.0667  0.0827
    1Sil    Sib 1796   2.784   2.139  10.448  0.0611  0.1586  0.2850
    1Sil    Sib 1797   2.992   2.191  11.544 -0.6334 -0.1269 -0.3412
    1Sil    Sib 1798   2.405   2.196  12.352  0.1380  0.2744 -0.1419
    1Sil    Sib 1799   2.702   2.146  11.938 -0.0205  0.3170 -0.0193
    1Sil    Sib 1800   2.260   2.442  11.978  0.0655 -0.0697  0.0930
    1Sil    Sib 1801   2.809   2.451  12.369 -0.1734  0.2350  0.1381
    1Sil    Sib 1802   2.554   2.380  11.575 -0.3514  0.1570  0.1510
    1Sil    Sim 1803   2.533   2.440  12.478 -0.2110 -0.1184  0.1195
    1Sil    Sib 1804   2.267   2.432  11.674  0.4939  0.3504  0.1619
    1Sil    Sib 1805   2.818   2.392  12.071  0.0758 -0.0257 -0.4483
    1Sil    Sib 1806   2.415   2.192  12.052 -0.5532  0.2354  0.4845
    1Sil    Sim 1807   2.961   2.199  12.438 -0.1986 -0.2656  0.2444
    1Sil    Sib 1808   2.717   2.132  11.631  0.1572  0.0724 -0.1821
    1Sil    Sim 1809   3.048   2.694  10.337  0.3315  0.3801  0.2358
    1Sil    Sib 1810   2.463   2.684  11.144 -0.1762 -0.0912 -0.0862
    1Sil    Sib 1811   2.762   2.644  10.754 -0.0791 -0.3942  0.3510
    1Sil    Sib 1812   2.316   2.949  10.779  0.0429  0.0638  0.6905
    1Sil    Sib 1813   2.850   2.942  11.175  0.2130 -0.5298  0.4313
    1Sil    Sim 1814   2.613   2.878  10.393 -0.5574  0.2117  0.2555
    1Sil    Sib 1815   2.565   2.937  11.273 -0.3673 -0.4474 -0.2353
    1Sil    Sib 1816   2.331   2.931  10.489  0.0350  0.4073  0.0061
    1Sil    Sib 1817   2.875   2.890  10.877  0.3504  0.0580 -0.1597
    1Sil    Sib 1818   2.479   2.700  10.845  0.4568 -0.2775  0.3106
    1Sil    Sib 1819   3.016   2.705  11.250  0.4395  0.5271  0.0193
    1Sil    Sib 1820   2.771   2.639  10.456 -0.5111 -0.1605 -0.4142
    1Sil    Sib 1821   3.001   2.689  11.544  0.1793 -0.5238  0.0942
    1Sil    Sib 1822   2.410   2.684  12.336  0.3239 -0.0843  0.4107
    1Sil    Sib 1823   2.699   2.639  11.940  0.2731 -0.2795 -0.2712
    1Sil    Sib 1824   2.255   2.937  11.968  0.0357  0.4281 -0.2564
    1Sil    Sib 1825   2.801   2.948  12.365 -0.2186 -0.4668  0.2843
    1Sil    Sib 1826   2.562   2.877  11.566 -0.0477 -0.3480 -0.2852
    1Sil    Sim 1827   2.521   2.931  12.463  0.5734  0.1986  0.3552
    1Sil    Sib 1828   2.272   2.930  11.667  0.1956  0.3646 -0.4612
    1Sil    Sib 1829   2.814   2.891  12.074 -0.0243  0.0263  0.1637
    1Sil    Sib 1830   2.421   2.690  12.033 -0.3189 -0.2286 -0.2041
    1Sil    Sim 1831   2.968   2.694  12.432  0.1325 -0.1335 -0.1904
    1Sil    Sib 1832   2.721   2.635  11.637 -0.0842 -0.5525 -0.0297
    1Sil    Sim 1833   3.051   3.187  10.337 -0.4664  0.0106  0.2482
    1Sil    Sib 1834   2.461   3.180  11.139 -0.6076 -0.4010 -0.2715
    1Sil    Sib 1835   2.763   3.133  10.739 -0.1793 -0.3858 -0.0061
    1Sil    Sib 1836   2.313   3.442  10.766  0.0899 -0.1332  0.6381
    1Sil    Sib 1837   2.854   3.428  11.170 -0.2198  0.0690  0.1097
    1Sil    Sim 1838   2.611   3.367  10.365 -0.6825 -0.1607  0.5084
    1Sil    Sib 1839   2.569   3.435  11.270 -0.0959 -0.1417  0.1762
    1Sil    Sib 1840   2.335   3.438  10.464  0.5970 -0.4133 -0.1362
    1Sil    Sib 1841   2.862   3.376  10.878  0.8729  0.4295  0.1611
    1Sil    Sib 1842   2.481   3.192  10.833 -0.1334  0.4152 -0.0639
    1Sil    Sib 1843   3.015   3.183  11.230 -0.0053  0.2966 -0.4620
    1Sil    Sib 1844   2.775   3.132  10.442  0.0677  0.2523 -0.3244
    1Sil    Sib 1845   3.006   3.187  11.530  0.5703  0.2162  0.4459
    1Sil    Sib 1846   2.414   3.177  12.321 -0.2693 -0.2456  0.0078
    1Sil    Sib 1847   2.714   3.131  11.930  0.7102  0.6626 -0.0002
    1Sil    Sib 1848   2.260   3.418  11.968 -0.1026  0.0204 -0.4929
    1Sil    Sib 1849   2.799   3.433  12.368  0.2501 -0.2650  0.1862
    1Sil    Sib 1850   2.550   3.377  11.571  0.5421  0.3029  0.3139
    1Sil    Sim 1851   2.514   3.418  12.474 -0.3575 -0.1761  0.0462
    1Sil    Sib 1852   2.266   3.423  11.672  0.2543  0.3241  0.2338
    1Sil    Sib 1853   2.811   3.379  12.074  0.3243  0.4330 -0.0020
    1Sil    Sib 1854   2.424   3.171  12.027  0.3378 -0.1311 -0.1345
    1Sil    Sim 1855   2.960   3.191  12.436 -0.0766  0.1859  0.0480
    1Sil    Sib 1856   2.727   3.130  11.629  0.4980  0.2691  0.1041
    1Sil    Sim 1857   3.057   3.688  10.346 -0.0730  0.0754 -0.0881
    1Sil    Sib 1858   2.466   3.681  11.138 -0.1642 -0.2501  0.1035
    1Sil    Sib 1859   2.757   3.630  10.740 -0.0008  0.0557 -0.4154
    1Sil    Sib 1860   2.311   3.928  10.775  0.0563  0.1591 -0.2256
    1Sil    Sib 1861   2.855   3.931  11.170 -0.1164  0.1262 -0.3083
    1Sil    Sim 1862   2.610   3.877  10.368  0.4170 -0.1713  0.2566
    1Sil    Sib 1863   2.572   3.927  11.276  0.1903 -0.1191  0.6174
    1Sil    Sib 1864   2.323   3.925  10.471 -0.1951  0.5148  0.0365
    1Sil    Sib 1865   2.860   3.877  10.876  0.1922 -0.0222  0.0693
    1Sil    Sib 1866   2.477   3.683  10.832  0.0347  0.0274 -0.0231
    1Sil    Sib 1867   3.018   3.677  11.230 -0.0595  0.0057 -0.2099
    1Sil    Sib 1868   2.769   3.625  10.430  0.1411  0.4662  0.2317
    1Sil    Sib 1869   3.004   3.674  11.533 -0.2190  0.2829 -0.2254
    1Sil    Sib 1870   2.400   3.664  12.339 -0.2697 -0.5321 -0.1215
    1Sil    Sib 1871   2.704   3.622  11.925 -0.0733  0.5041  0.4834
    1Sil    Sib 1872   2.249   3.920  11.970 -0.1179  0.4632 -0.1244
    1Sil    Sib 1873   2.798   3.926  12.358 -0.3742 -0.0832  0.3727
    1Sil    Sib 1874   2.554   3.870  11.575 -0.0933  0.2816  0.2526
    1Sil    Sim 1875   2.518   3.923  12.470  0.1030  0.0411  0.3523
    1Sil    Sib 1876   2.268   3.914  11.674  0.1048 -0.1673 -0.1402
    1Sil    Sib 1877   2.806   3.870  12.056 -0.3035 -0.3078 -0.1415
    1Sil    Sib 1878   2.414   3.668  12.029 -0.4241  0.3108  0.0031
    1Sil    Sim 1879   2.957   3.677  12.431 -0.0001  0.1258 -0.0106
    1Sil    Sib 1880   2.721   3.623  11.629 -0.1338  0.2096  0.2366
    1Sil    Sim 1881   3.053   4.164  10.331 -0.1866 -0.0025  0.8075
    1Sil    Sib 1882   2.469   4.169  11.141  0.4588  0.2677 -0.0549
    1Sil    Sib 1883   2.755   4.125  10.727  0.1155 -0.4757 -0.8219
    1Sil    Sib 1884   2.318   0.974  10.794  0.1461  0.2986  0.2109
    1Sil    Sib 1885   2.850   0.972  11.180  0.0155  0.1879  0.2097
    1Sil    Sim 1886   2.606   0.907  10.386 -0.1753  0.2604  0.0087
    1Sil    Sib 1887   2.568   0.967  11.276 -0.1974  0.0381 -0.1342
    1Sil    Sib 1888   2.325   0.971  10.484 -0.1392 -0.0036  0.2168
    1Sil    Sib 1889   2.865   0.920  10.881 -0.0372  0.8681  0.1121
    1Sil    Sib 1890   2.480   4.175  10.840  0.1970 -0.1607  0.0590
    1Sil    Sib 1891   3.013   4.178  11.233  0.3560 -0.0610  0.0271
    1Sil    Sib 1892   2.773   4.116  10.438  0.5374 -0.1618 -0.9053
    1Sil    Sib 1893   2.996   4.168  11.536  0.3520  0.0216 -0.1782
    1Sil    Sib 1894   2.414   4.170  12.333 -0.0150  0.5568 -0.4235
    1Sil    Sib 1895   2.699   4.120  11.924 -0.0757 -0.2358  0.0726
    1Sil    Sib 1896   2.269   0.961  11.966  0.0064  0.5764 -0.1002
    1Sil    Sib 1897   2.797   0.962  12.356 -0.0313 -0.5279 -0.0442
    1Sil    Sib 1898   2.557   0.908  11.569 -0.0044  0.1344  0.3048
    1Sil    Sim 1899   2.516   0.966  12.468  0.4533  0.0812  0.7220
    1Sil    Sib 1900   2.275   0.958  11.665  0.3205  0.7873 -0.1896
    1Sil    Sib 1901   2.813   0.909  12.063  0.5068  0.2707  0.6801
    1Sil    Sib 1902   2.421   4.163  12.034 -0.2165  0.3448  0.0909
    1Sil    Sim 1903   2.948   4.174  12.432 -0.2919  0.3637 -0.0500
    1Sil    Sib 1904   2.717   4.110  11.633 -0.1089 -0.3868 -0.2160
    1Sil    Sim 1905   0.556   1.210  10.337 -0.4188  0.1304 -0.0032
    1Sil    Sib 1906   3.294   1.211  11.131 -0.2091 -0.5031  0.3976
    1Sil    Sib 1907   0.268   1.159  10.743 -0.0341 -0.1549 -0.4408
    1Sil    Sib 1908   3.148   1.460  10.780 -0.1719  0.2464 -0.1986
    1Sil    Sib 1909   3.688   1.456  11.175  0.6730  0.0659  0.3510
    1Sil    Sim 1910   3.442   1.399  10.381 -0.0278  0.3421  0.0078
    1Sil    Sib 1911   3.404   1.458  11.261  1.0965  0.1106 -0.5810
    1Sil    Sib 1912   3.163   1.451  10.481 -0.1442  0.2802  0.1250
    1Sil    Sib 1913   0.367   1.408  10.875 -0.3616  0.3393  0.1969
    1Sil    Sib 1914   3.321   1.210  10.827 -0.0946 -0.2378  0.4509
    1Sil    Sib 1915   0.520   1.204  11.229  0.0578  0.0020 -0.7524
    1Sil    Sib 1916   0.275   1.149  10.438 -0.1860 -0.1679  0.1190
    1Sil    Sib 1917   0.498   1.198  11.523  0.2242  0.1106  0.5861
    1Sil    Sib 1918   3.254   1.220  12.327 -0.6678  0.0939  0.8771
    1Sil    Sib 1919   0.212   1.148  11.929 -0.1605  0.1875 -0.0696
    1Sil    Sib 1920   3.096   1.454  11.974 -0.5530 -0.6744 -0.2516
    1Sil    Sib 1921   3.632   1.450  12.361  0.0130 -0.6384  0.3992
    1Sil    Sib 1922   3.390   1.406  11.564  0.3054  0.3941 -0.2275
    1Sil    Sim 1923   3.359   1.456  12.474  0.0169  0.2977  0.1483
    1Sil    Sib 1924   3.112   1.454  11.670 -0.5387  0.1945  0.1324
    1Sil    Sib 1925   0.314   1.397  12.063  0.4328 -0.1378 -0.4845
    1Sil    Sib 1926   3.266   1.213  12.029  0.0193  0.4575  0.1199
    1Sil    Sim 1927   0.471   1.215  12.421 -0.0821 -0.1696  0.0450
    1Sil    Sib 1928   0.216   1.157  11.627  0.0368  0.5040  0.2974
    1Sil    Sim 1929   0.555   1.692  10.340 -0.0358 -0.2900 -0.2571
    1Sil    Sib 1930   3.296   1.705  11.123 -0.1051  0.1836  0.1254
    1Sil    Sib 1931   0.256   1.648  10.744 -0.5167  0.3881 -0.0073
    1Sil    Sib 1932   3.148   1.958  10.770  0.6753 -0.2788 -0.3266
    1Sil    Sib 1933   3.681   1.956  11.175 -0.5237  0.2678 -0.3124
    1Sil    Sim 1934   3.447   1.888  10.368  0.0785  0.0010 -0.0698
    1Sil    Sib 1935   3.398   1.950  11.265 -0.0984  0.6533 -0.0219
    1Sil    Sib 1936   3.164   1.952  10.465 -0.2870  0.0825  0.2605
    1Sil    Sib 1937   0.375   1.899  10.873  0.0290 -0.1070 -0.0526
    1Sil    Sib 1938   3.300   1.707  10.827 -0.2939  0.4984  0.2367
    1Sil    Sib 1939   0.511   1.708  11.232  0.3778 -0.4192 -0.2831
    1Sil    Sib 1940   3.606   1.643  10.449 -0.7056  0.3036  0.1410
    1Sil    Sib 1941   0.503   1.701  11.530  0.4893  0.1222 -0.6359
    1Sil    Sib 1942   3.248   1.705  12.337 -0.0557  0.3218 -0.0607
    1Sil    Sib 1943   0.201   1.644  11.932  0.1019  0.0286  0.1364
    1Sil    Sib 1944   3.093   1.941  11.972 -0.4951 -0.8640 -0.0983
    1Sil    Sib 1945   3.632   1.953  12.373 -0.1500 -0.3155  0.2043
    1Sil    Sib 1946   3.380   1.894  11.566  0.1717  1.0373  0.2004
    1Sil    Sim 1947   3.348   1.948  12.484 -0.0973 -0.1751  0.0678
    1Sil    Sib 1948   3.096   1.939  11.675  0.4791 -0.0188 -0.3700
    1Sil    Sib 1949   0.322   1.890  12.070 -0.0339  0.1022  0.4373
    1Sil    Sib 1950   3.260   1.694  12.036  0.3751 -0.2711 -0.7602
    1Sil    Sim 1951   0.465   1.706  12.427  0.4407  0.1342 -0.0965
    1Sil    Sib 1952   3.547   1.651  11.628  0.1861 -0.4493  0.5276
    1Sil    Sim 1953   0.546   2.190  10.330  0.2084 -0.1623 -0.3201
    1Sil    Sib 1954   3.293   2.202  11.129 -0.4776 -0.2869  0.1266
    1Sil    Sib 1955   0.275   2.141  10.730 -0.0255 -0.1796 -0.2128
    1Sil    Sib 1956   3.142   2.451  10.783  0.0098 -0.5067  0.0540
    1Sil    Sib 1957   3.683   2.438  11.181  0.5531 -0.2866  0.4162
    1Sil    Sim 1958   3.437   2.374  10.390  0.0701 -0.1842  0.3322
    1Sil    Sib 1959   3.400   2.441  11.271  0.2365 -0.2549 -0.2904
    1Sil    Sib 1960   3.159   2.449  10.490  0.0343  0.4110  0.3944
    1Sil    Sib 1961   0.374   2.383  10.875  0.1493  0.0220 -0.0186
    1Sil    Sib 1962   3.322   2.203  10.831  0.1841  0.1145  0.3898
    1Sil    Sib 1963   0.523   2.187  11.246 -0.0777  0.0335 -0.2423
    1Sil    Sib 1964   3.605   2.131  10.435  0.1530  0.3468  0.3549
    1Sil    Sib 1965   0.506   2.190  11.544 -0.3966  0.5387  0.2314
    1Sil    Sib 1966   3.249   2.191  12.345 -0.1832 -0.2913  0.0445
    1Sil    Sib 1967   0.203   2.131  11.939  0.5716  0.4018  0.5434
    1Sil    Sib 1968   3.098   2.440  11.973  0.0910  0.5227  0.1208
    1Sil    Sib 1969   3.639   2.435  12.370 -0.4387 -0.4275 -0.1653
    1Sil    Sib 1970   3.378   2.375  11.578  0.4142 -0.0879 -0.3806
    1Sil    Sim 1971   3.357   2.443  12.467  0.4156  0.2220 -0.5505
    1Sil    Sib 1972   3.101   2.443  11.676 -0.5486  0.3195  0.2516
    1Sil    Sib 1973   0.315   2.383  12.073 -0.5486  0.0931  0.3281
    1Sil    Sib 1974   3.255   2.184  12.042 -0.1771 -0.0585 -0.1421
    1Sil    Sim 1975   0.474   2.192  12.447  0.4493  0.2114  0.1678
    1Sil    Sib 1976   3.553   2.131  11.635  0.4563  0.2023 -0.1715
    1Sil    Sim 1977   0.539   2.680  10.344  0.0986  0.1545  0.0344
    1Sil    Sib 1978   3.303   2.693  11.149 -0.4054  0.0003  0.4712
    1Sil    Sib 1979   0.265   2.632  10.747  0.4925  0.0762 -0.3226
    1Sil    Sib 1980   3.154   2.935  10.779 -0.4308  0.4786  0.2415
    1Sil    Sib 1981   3.679   2.939  11.188  0.2969 -0.0911 -0.5763
    1Sil    Sim 1982   3.439   2.872  10.380 -0.7000  0.0061 -0.4082
    1Sil    Sib 1983   3.401   2.938  11.284  0.3007  0.4042  0.2549
    1Sil    Sib 1984   3.161   2.941  10.478  0.2335 -0.3286  0.0241
    1Sil    Sib 1985   0.366   2.884  10.885  0.8692 -0.0705 -0.2706
    1Sil    Sib 1986   3.315   2.691  10.855 -0.1590  0.0121 -0.0489
    1Sil    Sib 1987   0.509   2.682  11.230  0.1576  0.1851  0.0402
    1Sil    Sib 1988   3.594   2.631  10.455 -0.3916  0.5646 -0.0958
    1Sil    Sib 1989   0.494   2.678  11.531  0.1908 -0.3484 -0.1184
    1Sil    Sib 1990   3.247   2.689  12.329  0.4228 -0.4723 -0.4057
    1Sil    Sib 1991   0.209   2.634  11.933  0.0479 -0.3478 -0.1852
    1Sil    Sib 1992   3.092   2.941  11.977 -0.7748  0.5911 -0.2637
    1Sil    Sib 1993   3.633   2.934  12.374 -0.5146  0.0087  0.0467
    1Sil    Sib 1994   3.370   2.871  11.578 -0.1400  0.5118 -0.0421
    1Sil    Sim 1995   3.353   2.935  12.483  0.3275  0.3057 -0.2074
    1Sil    Sib 1996   3.096   2.941  11.675 -0.3998 -0.0249 -0.2520
    1Sil    Sib 1997   0.325   2.880  12.069 -0.1750  0.2680  0.2222
    1Sil    Sib 1998   3.261   2.693  12.029  0.5161  0.1003  0.1688
    1Sil    Sim 1999   0.466   2.692  12.447  0.1647  0.1549  0.1507
    1Sil    Sib 2000   3.540   2.630  11.629  0.1580 -0.4458  0.4739
    1Sil    Sim 2001   0.554   3.185  10.337 -0.0991  0.3357  0.4705
    1Sil    Sib 2002   3.302   3.184  11.138 -0.1010 -0.3204 -0.2010
    1Sil    Sib 2003   0.270   3.126  10.740  0.3008 -0.2520  0.0468
    1Sil    Sib 2004   3.142   3.426  10.786  0.3892 -0.0632  0.4654
    1Sil    Sib 2005   3.693   3.427  11.177  0.0300  0.0520 -0.0132
    1Sil    Sim 2006   3.442   3.369  10.384 -0.3982  0.6376 -0.1045
    1Sil    Sib 2007   3.413   3.425  11.274  0.4144  0.6549  0.4770
    1Sil    Sib 2008   3.158   3.439  10.483 -0.2795  0.0591  0.1420
    1Sil    Sib 2009   0.377   3.379  10.880  0.3228  0.4484 -0.2904
    1Sil    Sib 2010   3.319   3.184  10.837  0.2838  0.4834  0.2867
    1Sil    Sib 2011   0.523   3.181  11.252 -0.2759 -0.7050 -0.1023
    1Sil    Sib 2012   3.611   3.121  10.436  0.3287 -0.0076 -0.0579
    1Sil    Sib 2013   0.503   3.169  11.547 -0.0717  0.0266 -0.2552
    1Sil    Sib 2014   3.246   3.185  12.351  0.2090 -0.4372  0.3158
    1Sil    Sib 2015   0.210   3.119  11.938 -0.4281 -0.5565  0.1330
    1Sil    Sib 2016   3.093   3.424  11.971  0.4407  0.0434  0.0909
    1Sil    Sib 2017   3.627   3.434  12.371 -0.3998  0.2847  0.3830
    1Sil    Sib 2018   3.398   3.370  11.572 -0.2679  0.0504  0.3935
    1Sil    Sim 2019   3.353   3.441  12.485 -0.5484  0.4576 -0.2457
    1Sil    Sib 2020   3.116   3.432  11.665 -0.6965  0.3236 -0.3079
    1Sil    Sib 2021   0.308   3.372  12.080 -0.1410  0.0458 -0.3467
    1Sil    Sib 2022   3.263   3.178  12.045  0.0501 -0.0500 -0.0768
    1Sil    Sim 2023   0.450   3.182  12.429  0.0098 -0.0972  0.1782
    1Sil    Sib 2024   3.550   3.112  11.636  0.0492  0.6874 -0.3356
    1Sil    Sim 2025   0.559   3.675  10.343  0.0546  0.0134 -0.0286
    1Sil    Sib 2026   3.304   3.674  11.143  0.6023  0.0137  0.1238
    1Sil    Sib 2027   0.261   3.619  10.734  0.0867  0.1683  0.2417
    1Sil    Sib 2028   3.146   3.931  10.786 -0.1426  0.3318 -0.4649
    1Sil    Sib 2029   3.678   3.921  11.169 -0.1271 -0.2967  0.5902
    1Sil    Sib 2030   3.432   3.866  10.383 -0.2402 -0.2924  0.1939
    1Sil    Sib 2031   3.395   3.927  11.276 -0.1322 -0.5246  0.0335
    1Sil    Sib 2032   3.154   3.930  10.486  0.1602 -0.2457 -0.4415
    1Sil    Sib 2033   0.358   3.864  10.870  0.1314 -0.0668  0.3647
    1Sil    Sib 2034   3.314   3.678  10.841 -0.0590 -0.0173  0.1863
    1Sil    Sib 2035   0.517   3.675  11.237  0.0436 -0.0760  0.0438
    1Sil    Sib 2036   3.597   3.617  10.433 -0.2976 -0.0142  0.1637
    1Sil    Sib 2037   0.496   3.665  11.538  0.0605 -0.5957 -0.3607
    1Sil    Sib 2038   3.249   3.682  12.348  0.0115 -0.0521  0.0900
    1Sil    Sib 2039   0.207   3.620  11.943  0.4727  0.1172  0.5075
    1Sil    Sib 2040   3.092   3.917  11.970 -0.2824 -0.1619  0.3156
    1Sil    Sib 2041   3.630   3.920  12.360  0.0878  0.0759  0.4391
    1Sil    Sib 2042   3.378   3.866  11.573  0.0459 -0.2311  0.0080
    1Sil    Sim 2043   3.352   3.940  12.472 -0.1428  0.2725 -0.0032
    1Sil    Sib 2044   3.099   3.915  11.671 -0.0434  0.1708  0.2563
    1Sil    Sib 2045   0.317   3.865  12.070  0.5391 -0.0756  0.0640
    1Sil    Sib 2046   3.257   3.674  12.044  0.3195 -0.3152 -0.4765
    1Sil    Sim 2047   0.460   3.676  12.435 -0.3326 -0.7866 -0.3449
    1Sil    Sib 2048   3.547   3.620  11.644  0.3201 -0.1111 -0.0599
    1Sil    Sim 2049   0.556   4.168  10.326 -0.1180 -0.2882 -0.0386
    1Sil    Sib 2050   3.294   4.179  11.132 -0.2218 -0.0045  0.1570
    1Sil    Sib 2051   0.257   4.117  10.733 -0.4711  0.5382  0.3914
    1Sil    Sib 2052   3.148   0.972  10.771 -0.3146  0.2217 -0.0944
    1Sil    Sib 2053   0.347   0.961  11.175  0.1826  0.5410 -0.1078
    1Sil    Sim 2054   0.112   0.905  10.365  0.0320  0.0504  0.1574
    1Sil    Sib 2055   3.395   0.966  11.282  0.2063 -0.1221 -0.4144
    1Sil    Sib 2056   3.156   0.956  10.473 -0.4614 -0.1828  0.2196
    1Sil    Sib 2057   0.366   0.897  10.879  0.1990 -0.0951  0.5623
    1Sil    Sib 2058   3.314   4.178  10.838 -0.4577  0.3880 -0.2610
    1Sil    Sib 2059   0.512   4.167  11.230 -0.1752  0.2745  0.0923
    1Sil    Sib 2060   3.603   4.108  10.435 -0.1981 -0.1037  0.0593
    1Sil    Sib 2061   0.493   4.160  11.530  0.1731 -0.1051  0.0282
    1Sil    Sib 2062   3.243   4.178  12.323  0.3554  0.3005  0.0908
    1Sil    Sib 2063   0.201   4.103  11.924 -0.0419  0.2632 -0.1057
    1Sil    Sib 2064   3.099   0.956  11.960  0.2134  0.1459  0.0205
    1Sil    Sib 2065   0.301   0.957  12.359  0.3797 -0.0126  0.0597
    1Sil    Sib 2066   0.052   0.907  11.577 -0.0701 -0.1751 -0.2315
    1Sil    Sim 2067   3.354   0.969  12.465  0.0873  0.1152  0.2882
    1Sil    Sib 2068   3.102   0.961  11.663  0.2366 -0.2242  0.3822
    1Sil    Sib 2069   0.307   0.894  12.061  0.0112  0.0434  0.0274
    1Sil    Sib 2070   3.257   4.157  12.027  0.1504 -0.1997 -0.2189
    1Sil    Sim 2071   0.461   4.168  12.428  0.2345 -0.0148 -0.0283
    1Sil    Sib 2072   3.547   4.112  11.631  0.0548 -0.0943  0.3450
    1Sil     Hm 2073   1.526   1.111  10.149 -1.8568 -0.8680  0.0351
    1Sil     Hm 2074   1.358   1.150  10.107 -0.4132 -0.1728 -0.5687
    1Sil     Hm 2075   1.477   1.276  10.110  0.3711  1.1451  0.9593
    1Sil     Hm 2076   0.810   1.404  10.216  0.5033 -0.2321  0.7376
    1Sil     Hm 2077   0.934   1.528  10.215  0.7863 -1.0214 -3.0169
    1Sil     Hm 2078   0.987   1.367  10.176  0.6921 -2.4367  1.1996
    1Sil     Hy 2079   0.912   1.448  12.663  0.4853 -1.0430  0.0063
    1Sil     Hy 2080   1.292   1.130  12.624  1.8440  0.1403  1.9954
    1Sil     Hm 2081   1.375   1.748  10.140 -2.1447 -1.6100  1.6004
    1Sil     Hm 2082   1.378   1.574  10.169 -2.1124  0.7010 -1.2088
    1Sil     Hm 2083   1.530   1.670  10.175  0.8320 -0.4854  0.3948
    1Sil     Hm 2084   0.961   1.872  10.135  0.7949  0.2014  0.1076
    1Sil     Hm 2085   0.789   1.903  10.177 -0.1480 -0.4119  1.8867
    1Sil     Hm 2086   0.917   2.035  10.180  1.5206  0.8020  4.2078
    1Sil     Hm 2087   0.871   1.832  12.668  0.2896  0.3702  1.9531
    1Sil     Hm 2088   0.851   2.009  12.692  0.0154  0.6903 -1.7172
    1Sil     Hm 2089   0.713   1.907  12.634 -0.3731  0.8858 -1.4945
    1Sil     Hm 2090   1.224   1.694  12.662  0.1479  0.3877  0.4268
    1Sil     Hm 2091   1.337   1.562  12.629 -0.4811  0.4390  0.2279
    1Sil     Hm 2092   1.385   1.735  12.649 -2.0354  2.2064 -0.0455
    1Sil     Hm 2093   1.407   2.067  10.163  0.1183  0.1076  0.0641
    1Sil     Hm 2094   1.371   2.243  10.141 -0.7028 -0.7257 -0.6320
    1Sil     Hm 2095   1.537   2.170  10.185  0.1165  2.2260  1.6440
    1Sil     Hm 2096   0.890   2.494  10.172 -0.5944 -0.8754 -0.9352
    1Sil     Hm 2097   1.013   2.378  10.144 -0.7075  1.3390 -1.4100
    1Sil     Hm 2098   0.845   2.322  10.165  1.1398 -0.7189 -3.2042
    1Sil     Hm 2099   0.712   2.404  12.656  0.4004  1.4564 -0.9212
    1Sil     Hm 2100   0.861   2.315  12.669 -2.2525 -0.5158  0.4314
    1Sil     Hm 2101   0.854   2.491  12.715 -2.3681  3.0877 -0.5946
    1Sil     Hm 2102   1.381   2.252  12.642  0.4246 -1.3649  1.2695
    1Sil     Hm 2103   1.216   2.233  12.638  0.0403  0.1563  0.7603
    1Sil     Hm 2104   1.325   2.083  12.628  1.0514  0.3239 -1.4585
    1Sil     Hm 2105   1.516   2.625  10.180  0.5963  1.1431  2.9420
    1Sil     Hm 2106   1.355   2.567  10.150  1.2924 -0.2628 -1.8630
    1Sil     Hm 2107   1.389   2.739  10.123 -1.6589 -0.7829 -1.0656
    1Sil     Hm 2108   1.009   2.920  10.179  0.3810  3.0745  2.5180
    1Sil     Hm 2109   0.879   2.805  10.176  0.1162  0.2862  0.3564
    1Sil     Hm 2110   0.835   2.975  10.190  1.2653  1.4005 -1.5412
    1Sil     Hy 2111   0.853   2.822  12.637 -0.3019  0.2551  2.5583
    1Sil     Hy 2112   1.332   2.750  12.626 -0.9129  0.5715 -0.5315
    1Sil     Hm 2113   1.530   3.111  10.169  0.1634  0.8584 -2.5035
    1Sil     Hm 2114   1.368   3.101  10.117  0.8065 -0.7081  0.7437
    1Sil     Hm 2115   1.443   3.265  10.124 -1.5602  0.6872 -0.1958
    1Sil     Hy 2116   0.852   3.346  10.186 -1.4186  0.9917  0.9322
    1Sil     Hy 2117   0.807   3.304  12.621 -3.0346 -0.7220 -0.0383
    1Sil     Hm 2118   1.353   3.257  12.651 -2.1509  1.0638 -0.1989
    1Sil     Hm 2119   1.236   3.139  12.661  0.0512 -0.6392 -0.7129
    1Sil     Hm 2120   1.399   3.089  12.604  3.0814  3.1651 -1.5059
    1Sil     Hy 2121   1.345   3.601  10.136 -0.7715  0.6935  0.8764
    1Sil     Hm 2122   0.795   3.908  10.195 -0.3114  0.9703 -0.0896
    1Sil     Hm 2123   0.948   3.992  10.176  0.4390 -1.3018 -1.3376
    1Sil     Hm 2124   0.947   3.820  10.153 -0.0216 -0.6519  1.2220
    1Sil     Hm 2125   0.913   3.936  12.717 -0.2452 -0.4937 -0.0425
    1Sil     Hm 2126   0.858   3.779  12.676 -0.7958 -0.0588  0.3171
    1Sil     Hm 2127   0.740   3.909  12.693  0.1612  1.5605  0.1166
    1Sil     Hm 2128   1.410   3.601  12.626  0.7219  2.2758  1.6802
    1Sil     Hm 2129   1.307   3.737  12.661 -2.1590  0.7738 -0.7171
    1Sil     Hm 2130   1.236   3.573  12.643 -1.3644  1.1569  1.2566
    1Sil     Hm 2131   1.409   4.049  10.160  0.4616  0.1951 -1.0948
    1Sil     Hm 2132   1.413   4.221  10.122 -0.0171 -0.5675 -0.4066
    1Sil     Hm 2133   1.553   4.158  10.209  0.3040 -1.8917  0.9295
    1Sil     Hm 2134   0.958   0.903  10.134  1.4611 -0.8411  1.8892
    1Sil     Hm 2135   0.792   0.934  10.180 -0.5516  1.7135  0.7671
    1Sil     Hm 2136   0.916   1.059  10.189 -0.2958 -0.0099 -1.1156
    1Sil     Hm 2137   0.701   0.910  12.642  0.5078 -0.0162 -0.3302
    1Sil     Hm 2138   0.862   0.854  12.677 -0.2362 -1.8171 -0.3047
    1Sil     Hm 2139   0.830   1.020  12.710  0.1048 -0.2531 -0.8391
    1Sil     Hm 2140   1.273   4.217  12.655  2.1516  1.9962 -0.6856
    1Sil     Hm 2141   1.338   4.047  12.630  3.1187 -1.3450 -1.3426
    1Sil     Hm 2142   1.440   4.192  12.621  0.1225 -0.7967 -0.9284
    1Sil     Hm 2143   2.215   1.256  10.106 -1.3375  3.2437  3.9941
    1Sil     Hm 2144   2.369   1.188  10.165 -0.2678 -0.3936  0.5596
    1Sil     Hm 2145   2.229   1.079  10.149  0.8207 -0.3342  0.5853
    1Sil     Hm 2146   1.818   1.476  10.158 -0.5701  1.2490  0.0806
    1Sil     Hm 2147   1.719   1.329  10.153  1.4439  0.1488  0.8070
    1Sil     Hm 2148   1.652   1.489  10.206  1.3023  1.0022  0.3152
    1Sil     Hm 2149   1.674   1.324  12.661 -0.7191 -0.2365 -0.4205
    1Sil     Hm 2150   1.737   1.485  12.695  0.6387 -1.8982  1.6580
    1Sil     Hm 2151   1.564   1.458  12.657 -0.2199  1.2597 -1.1589
    1Sil     Hm 2152   2.183   1.267  12.628  1.3586  0.2551  0.4663
    1Sil     Hm 2153   2.075   1.123  12.630  1.6074 -0.5466  0.9192
    1Sil     Hm 2154   2.245   1.110  12.594 -1.2024 -0.9140  1.7940
    1Sil     Hm 2155   2.283   1.538  10.160 -2.3393  0.2565  1.2680
    1Sil     Hm 2156   2.250   1.691  10.083  2.0744  2.0719 -0.3768
    1Sil     Hm 2157   2.401   1.672  10.154 -0.2964  0.6639 -0.9204
    1Sil     Hm 2158   1.633   1.917  10.209  0.0610 -0.4793  0.1255
    1Sil     Hm 2159   1.785   2.004  10.198  1.2331 -0.7509 -1.0378
    1Sil     Hm 2160   1.785   1.834  10.169 -2.6759  0.6520 -1.7105
    1Sil     Hm 2161   1.735   1.959  12.691 -1.2526 -2.3431  1.9318
    1Sil     Hm 2162   1.560   1.939  12.678 -0.0484 -0.5615  1.0392
    1Sil     Hm 2163   1.677   1.806  12.652  0.2657 -0.4215  2.6049
    1Sil     Hm 2164   2.078   1.636  12.624 -1.2075  0.4001 -2.4376
    1Sil     Hm 2165   2.260   1.618  12.592  0.7448  1.3303  0.7775
    1Sil     Hm 2166   2.188   1.767  12.641  2.0443 -0.9934  0.0668
    1Sil     Hm 2167   2.249   2.063  10.130 -0.5166 -0.1334 -0.4928
    1Sil     Hm 2168   2.247   2.234  10.097  1.4509  1.3492  0.0053
    1Sil     Hm 2169   2.392   2.167  10.155 -0.3870  2.0134 -1.8878
    1Sil     Hm 2170   1.811   2.508  10.193  0.7928  0.2484  3.5984
    1Sil     Hm 2171   1.785   2.346  10.144  0.7633  0.0544 -0.6254
    1Sil     Hm 2172   1.645   2.441  10.196  0.0197  1.5255  0.0577
    1Sil     Hm 2173   1.625   2.297  12.649 -1.0704  0.5444  1.3509
    1Sil     Hm 2174   1.676   2.455  12.720  0.2279  1.1275 -0.3573
    1Sil     Hm 2175   1.519   2.441  12.642 -0.3700  0.4955 -1.6134
    1Sil     Hm 2176   2.203   2.242  12.641  0.6906  0.0503  0.9200
    1Sil     Hm 2177   2.038   2.187  12.648  1.3011 -0.0762  0.2228
    1Sil     Hm 2178   2.171   2.073  12.614 -2.7763 -2.1006 -2.4036
    1Sil     Hm 2179   2.290   2.758  10.134  2.3129 -0.1978 -0.9472
    1Sil     Hm 2180   2.354   2.597  10.181 -0.3634 -0.6139 -0.1644
    1Sil     Hm 2181   2.186   2.613  10.143 -0.0160  0.9700  0.4128
    1Sil     Hm 2182   1.838   2.906  10.153  1.2125 -0.1441  1.4358
    1Sil     Hm 2183   1.713   2.794  10.160  1.7147  0.0740 -1.0875
    1Sil     Hm 2184   1.671   2.968  10.179 -0.1660 -0.4940 -0.0397
    1Sil     Hm 2185   1.620   2.982  12.691  1.9873  1.1659 -0.3146
    1Sil     Hm 2186   1.560   2.820  12.634 -0.4749  0.8067  2.4267
    1Sil     Hm 2187   1.723   2.838  12.677 -2.0707 -2.3211  0.9305
    1Sil     Hm 2188   2.066   2.664  12.658  0.5864 -0.5647 -0.0449
    1Sil     Hm 2189   2.183   2.552  12.607 -1.4446 -0.4903  1.0560
    1Sil     Hm 2190   2.237   2.724  12.631 -1.8738  1.2372  0.5537
    1Sil     Hm 2191   2.260   3.041  10.157 -2.6456 -0.5402  1.5332
    1Sil     Hm 2192   2.377   3.167  10.181 -0.7640 -1.3535  0.1391
    1Sil     Hm 2193   2.210   3.216  10.134 -0.5899 -0.6706 -0.2785
    1Sil     Hm 2194   1.743   3.290  10.150 -2.2948  0.6025  0.4815
    1Sil     Hm 2195   1.620   3.417  10.184 -0.6460  0.4688  0.6887
    1Sil     Hm 2196   1.786   3.467  10.153  1.6985  0.0660  0.5555
    1Sil     Hm 2197   1.573   3.311  12.655 -1.4570  1.6075  0.2175
    1Sil     Hm 2198   1.608   3.488  12.685 -2.0831 -0.8342  1.3286
    1Sil     Hm 2199   1.740   3.355  12.686  0.4665 -0.6365 -2.4647
    1Sil     Hm 2200   2.054   3.143  12.655 -0.8665 -0.2502 -1.9075
    1Sil     Hm 2201   2.211   3.221  12.657  0.4371  1.7336 -1.3020
    1Sil     Hm 2202   2.200   3.050  12.618  0.4117  0.5699 -1.0346
    1Sil     Hm 2203   2.217   3.758  10.111 -1.0249 -2.2456 -0.8371
    1Sil     Hm 2204   2.217   3.587  10.102  0.6130 -0.5552 -0.3259
    1Sil     Hm 2205   2.370   3.668  10.149  0.8564  0.3119  2.2499
    1Sil     Hm 2206   1.792   3.855  10.152 -0.1188  0.8306 -0.0176
    1Sil     Hm 2207   1.624   3.856  10.215 -1.3097  1.5959  0.3853
    1Sil     Hm 2208   1.709   4.000  10.210 -4.2807  0.2737  0.6349
    1Sil     Hm 2209   1.518   3.896  12.634 -1.4797  0.7668  1.5713
    1Sil     Hm 2210   1.665   3.807  12.674 -0.4494 -0.3174 -0.4930
    1Sil     Hm 2211   1.652   3.981  12.707 -1.2897 -1.1375  0.5118
    1Sil     Hm 2212   2.228   3.548  12.642 -1.3687 -0.1310  3.3153
    1Sil     Hm 2213   2.204   3.715  12.677 -0.3059 -0.7339  1.6954
    1Sil     Hm 2214   2.067   3.592  12.671 -1.8425  1.0615 -1.0876
    1Sil     Hm 2215   2.181   4.111  10.122  0.3169  1.2376 -2.8944
    1Sil     Hm 2216   2.308   4.235  10.145  1.9820 -0.6963  1.9271
    1Sil     Hm 2217   2.340   4.069  10.171  0.5120  0.3963 -1.3171
    1Sil     Hy 2218   1.835   0.954  10.212  1.1104 -1.9401 -0.0333
    1Sil     Hm 2219   1.701   0.966  12.720 -0.6782  0.6813 -0.1938
    1Sil     Hm 2220   1.640   0.819  12.657 -1.6532  0.1097  0.0123
    1Sil     Hm 2221   1.537   0.965  12.657  0.2364  1.7211  1.3088
    1Sil     Hm 2222   2.229   4.083  12.609  1.8718  1.8491 -0.1698
    1Sil     Hm 2223   2.051   4.100  12.624  1.6191 -0.8250  2.1664
    1Sil     Hm 2224   2.162   4.240  12.633 -1.0257 -1.0224  1.3448
    1Sil     Hm 2225   3.024   1.158  10.110  0.9297 -0.4831 -1.1390
    1Sil     Hm 2226   3.137   1.291  10.128 -1.4055  0.7398  0.8224
    1Sil     Hm 2227   3.192   1.125  10.168 -0.4671  0.0252  1.1759
    1Sil     Hm 2228   2.598   1.527  10.184 -1.2007  0.2751  0.1951
    1Sil     Hm 2229   2.464   1.405  10.210  0.0855 -1.3174 -0.1998
    1Sil     Hm 2230   2.621   1.357  10.146 -2.9532 -0.1971 -2.6462
    1Sil     Hm 2231   2.479   1.503  12.689  1.6634  0.2574 -1.0744
    1Sil     Hm 2232   2.355   1.392  12.628  0.2547 -0.8113  0.6529
    1Sil     Hm 2233   2.523   1.340  12.664  1.8594  0.5446  0.2245
    1Sil     Hm 2234   3.041   1.253  12.614  0.8198 -2.1401  1.5191
    1Sil     Hm 2235   2.886   1.164  12.625  0.0961 -1.6077  0.0560
    1Sil     Hm 2236   3.036   1.079  12.582  0.3443 -0.3303  0.4029
    1Sil     Hm 2237   3.064   1.600  10.122 -0.9822  0.4537  0.2692
    1Sil     Hm 2238   3.221   1.681  10.161  0.5452 -1.1816  0.5796
    1Sil     Hm 2239   3.065   1.766  10.115  0.4126 -0.0140  1.9464
    1Sil     Hm 2240   2.629   1.853  10.132  1.0075  1.5492  0.3097
    1Sil     Hm 2241   2.475   1.907  10.203 -0.1817 -1.1518  0.0074
    1Sil     Hm 2242   2.608   2.021  10.180 -0.0901 -0.4309 -2.5100
    1Sil     Hm 2243   2.439   1.806  12.630 -1.2655  0.2562 -1.5689
    1Sil     Hm 2244   2.386   1.979  12.663  0.7086  1.3222 -0.8287
    1Sil     Hm 2245   2.549   1.911  12.702  0.9650 -1.2427 -0.2933
    1Sil     Hm 2246   2.904   1.612  12.633 -0.2851  0.6138  1.5677
    1Sil     Hm 2247   3.071   1.642  12.613 -0.4171 -1.1047  0.9739
    1Sil     Hm 2248   2.971   1.787  12.627  2.4076  0.5406 -2.3571
    1Sil     Hm 2249   3.019   2.151  10.120 -0.0132 -2.3611  0.7312
    1Sil     Hm 2250   3.120   2.305  10.148  0.6302 -0.3095  0.4484
    1Sil     Hm 2251   3.178   2.131  10.152 -0.2491 -0.5604 -0.5383
    1Sil     Hm 2252   2.498   2.370  10.199  0.2730  1.9948 -2.2805
    1Sil     Hm 2253   2.572   2.527  10.217 -1.4988 -0.3345 -0.9099
    1Sil     Hm 2254   2.671   2.388  10.163 -0.7012  1.8852 -2.3213
    1Sil     Hm 2255   2.399   2.444  12.674  0.8832  3.1106  2.2290
    1Sil     Hm 2256   2.516   2.308  12.671 -0.2352  0.5206  0.0126
    1Sil     Hm 2257   2.558   2.473  12.713 -0.3809  1.4004 -0.1188
    1Sil     Hm 2258   3.091   2.179  12.622 -0.5559  0.2591 -0.0695
    1Sil     Hm 2259   2.950   2.268  12.649  0.3203 -0.0760 -0.4008
    1Sil     Hm 2260   2.949   2.086  12.638  0.7966  0.0505 -0.1153
    1Sil     Hm 2261   3.024   2.572  10.148  2.3318 -1.7474  1.8523
    1Sil     Hm 2262   3.031   2.742  10.117 -0.5312 -1.2038 -2.6178
    1Sil     Hm 2263   3.180   2.656  10.160  0.5374  0.2266  0.9808
    1Sil     Hm 2264   2.644   2.984  10.196  0.6244 -0.5466  2.2184
    1Sil     Hm 2265   2.576   2.827  10.165 -0.9005 -1.5673  1.5734
    1Sil     Hm 2266   2.475   2.953  10.240 -0.7241 -1.1029 -0.2808
    1Sil     Hm 2267   2.473   2.998  12.679 -0.9983  1.5556 -0.9185
    1Sil     Hm 2268   2.361   2.884  12.631  0.1673  2.1283  2.8454
    1Sil     Hm 2269   2.521   2.820  12.671 -0.0290  0.7167  1.6467
    1Sil     Hm 2270   3.087   2.698  12.656  0.1803 -0.8006 -0.1419
    1Sil     Hm 2271   2.917   2.696  12.673  0.8693  0.7702  1.4967
    1Sil     Hm 2272   2.999   2.551  12.627 -0.6063  0.3620 -0.0110
    1Sil     Hm 2273   3.096   3.249  10.111  1.9014  0.9951 -0.4220
    1Sil     Hm 2274   3.219   3.136  10.178 -0.2528 -1.9188 -1.0488
    1Sil     Hm 2275   3.053   3.086  10.135 -0.6000  1.0836  0.5481
    1Sil     Hm 2276   2.465   3.390  10.193 -0.4445  2.8677  1.2346
    1Sil     Hm 2277   2.598   3.491  10.163 -0.5743  0.3838  0.3159
    1Sil     Hm 2278   2.620   3.316  10.134  0.8392  0.9196  0.7450
    1Sil     Hm 2279   2.391   3.452  12.681 -0.3595 -0.0817  0.4814
    1Sil     Hm 2280   2.417   3.280  12.634  0.0207  0.2557  0.9499
    1Sil     Hm 2281   2.545   3.366  12.705  0.4086  1.4368 -0.3372
    1Sil     Hm 2282   2.882   3.228  12.635 -0.9277 -0.5184 -2.0774
    1Sil     Hm 2283   3.006   3.089  12.630 -0.4176  0.6107  2.8111
    1Sil     Hm 2284   3.054   3.258  12.635  0.9500 -0.7629 -2.2012
    1Sil     Hm 2285   3.103   3.729  10.102 -0.3322  0.5635  0.1460
    1Sil     Hm 2286   3.104   3.557  10.141  1.6226  0.2096  1.3131
    1Sil     Hm 2287   3.240   3.652  10.182  0.2753  0.5770 -0.3666
    1Sil     Hm 2288   2.635   3.886  10.135 -1.2565 -0.1144 -1.4979
    1Sil     Hm 2289   2.467   3.882  10.165  0.0206 -1.5187  1.4412
    1Sil     Hm 2290   2.570   4.037  10.187 -0.8547  0.0676 -0.0600
    1Sil     Hm 2291   2.503   3.775  12.654  0.4903 -0.4275  0.9081
    1Sil     Hm 2292   2.382   3.903  12.679  0.2717  0.4539  0.3260
    1Sil     Hm 2293   2.558   3.933  12.703 -0.7888  1.9005 -0.5412
    1Sil     Hm 2294   2.883   3.628  12.641 -0.4155  1.7242  2.2472
    1Sil     Hm 2295   3.064   3.608  12.622 -0.9300 -0.4729 -0.6027
    1Sil     Hm 2296   2.988   3.769  12.642  0.8986 -0.5047  1.2050
    1Sil     Hm 2297   3.062   4.179  10.102  0.7127  1.0015  0.2200
    1Sil     Hm 2298   3.213   4.172  10.183 -0.2846 -0.3335 -2.2413
    1Sil     Hm 2299   3.111   4.023  10.163  0.7221 -0.2823 -0.8716
    1Sil     Hm 2300   2.541   1.047  10.211  0.1425 -0.3697  0.8909
    1Sil     Hm 2301   2.659   0.929  10.158 -0.3635 -1.1095 -0.2040
    1Sil     Hm 2302   2.494   0.875  10.187 -0.4001  1.0391 -0.0135
    1Sil     Hm 2303   2.360   0.886  12.616  0.5499  0.6154  0.0078
    1Sil     Hm 2304   2.527   0.836  12.649  0.1602  0.2908  0.6697
    1Sil     Hm 2305   2.478   1.003  12.689 -0.2864 -0.2514  0.7438
    1Sil     Hm 2306   3.068   4.202  12.614 -1.3121  1.6439  0.1554
    1Sil     Hm 2307   2.896   4.158  12.647 -0.9456  1.8568 -1.8020
    1Sil     Hm 2308   3.016   4.036  12.594  0.8203 -0.1049 -0.1171
    1Sil     Hm 2309   0.622   1.095  10.146 -0.3006 -0.0488  0.2418
    1Sil     Hm 2310   0.707   1.247  10.166 -0.1607  0.3883  0.2640
    1Sil     Hm 2311   0.538   1.246  10.108 -1.5036 -2.6382  0.1776
    1Sil     Hm 2312   3.404   1.552  10.218  3.4385  0.1959  0.8846
    1Sil     Hm 2313   3.467   1.406  10.142  1.3700  0.9457  0.0235
    1Sil     Hm 2314   3.299   1.415  10.192 -0.4536 -1.5137  1.3638
    1Sil     Hm 2315   3.375   1.341  12.671 -0.1619  0.4472  0.6283
    1Sil     Hm 2316   3.345   1.512  12.688 -0.5645 -1.0635  2.0825
    1Sil     Hm 2317   3.209   1.404  12.644 -0.4537  1.3743 -0.0028
    1Sil     Hm 2318   0.610   1.189  12.613  0.3364  0.8606 -1.3482
    1Sil     Hm 2319   0.467   1.265  12.660  2.3807  0.1732  0.9734
    1Sil     Hm 2320   0.471   1.091  12.627 -2.3817  1.2356  2.5963
    1Sil     Hm 2321   0.589   1.548  10.178  2.5243  0.1159  1.5230
    1Sil     Hm 2322   0.527   1.705  10.128  0.7962  0.6855 -1.1041
    1Sil     Hm 2323   0.699   1.694  10.165  0.0277  1.3788  0.3442
    1Sil     Hm 2324   3.424   1.818  10.140  0.5852  1.1600 -0.0224
    1Sil     Hm 2325   3.306   1.949  10.192  1.9215  4.2722  2.0370
    1Sil     Hm 2326   3.468   1.982  10.155  0.6718  0.8592  2.0730
    1Sil     Hm 2327   3.295   1.799  12.665 -0.4956  0.5210  0.3498
    1Sil     Hm 2328   3.385   1.931  12.715  0.4406  1.4746 -1.8236
    1Sil     Hm 2329   3.213   1.960  12.677 -0.9022 -1.1092  2.1507
    1Sil     Hm 2330   0.573   1.736  12.635  1.7507 -0.4870 -1.1657
    1Sil     Hm 2331   0.414   1.684  12.660  1.6984  1.9871  0.5810
    1Sil     Hm 2332   0.522   1.567  12.613 -0.3927 -0.2869 -0.7521
    1Sil     Hm 2333   0.533   2.067  10.136  2.2882 -1.5043  0.3501
    1Sil     Hm 2334   0.559   2.240  10.116  2.5711  0.1256 -0.8608
    1Sil     Hm 2335   0.693   2.126  10.163 -0.3737 -0.1565 -0.2772
    1Sil     Hm 2336   3.444   2.357  10.150 -0.5048  1.8325 -0.9352
    1Sil     Hm 2337   3.297   2.434  10.201 -0.4799 -1.1109  2.8386
    1Sil     Hm 2338   3.446   2.525  10.210 -1.3091  0.6805 -2.1206
    1Sil     Hm 2339   3.280   2.543  12.676 -1.0823 -0.3488  1.5955
    1Sil     Hm 2340   3.208   2.386  12.657  0.5371 -1.1048 -2.1449
    1Sil     Hm 2341   3.372   2.393  12.703  0.5830 -2.1432 -1.5722
    1Sil     Hm 2342   0.626   2.149  12.609  0.3076 -0.7694  0.2604
    1Sil     Hm 2343   0.476   2.234  12.670  3.7854 -0.9026  3.7182
    1Sil     Hm 2344   0.471   2.061  12.631 -2.1865 -0.0731 -4.3018
    1Sil     Hm 2345   0.680   2.704  10.167 -0.0448 -0.2786 -1.1598
    1Sil     Hm 2346   0.625   2.533  10.190 -1.1316 -1.5794  0.5347
    1Sil     Hm 2347   0.517   2.643  10.114  0.6157 -0.5531  0.5590
    1Sil     Hm 2348   3.482   2.845  10.160 -0.1859  0.7549 -0.3721
    1Sil     Hm 2349   3.310   2.822  10.207 -0.0243  0.7118 -0.9870
    1Sil     Hm 2350   3.379   2.980  10.191  0.6743 -0.0777 -1.8486
    1Sil     Hm 2351   3.323   3.002  12.700  0.6286 -0.4710  0.1283
    1Sil     Hm 2352   3.219   2.868  12.650 -0.8536  1.3393  1.2012
    1Sil     Hm 2353   3.390   2.832  12.680  0.8384  0.7826  0.0812
    1Sil     Hm 2354   0.585   2.574  12.617  0.6819  0.7882  0.5143
    1Sil     Hm 2355   0.560   2.743  12.659 -1.5105  0.9364 -1.1913
    1Sil     Hm 2356   0.437   2.615  12.686 -0.0603  0.2442 -0.0911
    1Sil     Hm 2357   0.563   3.212  10.117 -1.6944 -0.9449  0.7655
    1Sil     Hm 2358   0.705   3.121  10.182 -0.4593 -1.1449 -0.4917
    1Sil     Hm 2359   0.557   3.042  10.165 -1.1724 -0.2628  2.0328
    1Sil     Hm 2360   3.454   3.441  10.141  1.2378 -0.5257 -0.8340
    1Sil     Hm 2361   3.373   3.280  10.159 -1.9812 -0.3577 -0.0489
    1Sil     Hm 2362   3.288   3.424  10.205  0.5914  0.4261  1.0781
    1Sil     Hm 2363   3.246   3.509  12.671 -1.4069 -1.5971  0.4708
    1Sil     Hm 2364   3.256   3.332  12.661  1.6188 -0.5632  1.5472
    1Sil     Hm 2365   3.396   3.418  12.710  0.3807  0.8032 -0.4043
    1Sil     Hm 2366   0.524   3.240  12.623  0.8386  0.8813 -0.5710
    1Sil     Hm 2367   0.569   3.078  12.575 -2.1575 -1.4385 -1.8419
    1Sil     Hm 2368   0.404   3.110  12.641  0.2278 -0.7852 -0.3639
    1Sil     Hm 2369   0.545   3.701  10.122  0.5943  1.2300  0.3819
    1Sil     Hm 2370   0.709   3.675  10.170 -0.4864 -1.1377 -2.7603
    1Sil     Hm 2371   0.593   3.532  10.165  1.1127 -0.4576  0.0271
    1Sil     Hy 2372   3.372   3.988  10.222 -1.0256  0.2098  1.7772
    1Sil     Hm 2373   3.366   3.845  12.686 -0.0033  1.1171 -0.2580
    1Sil     Hm 2374   3.346   4.026  12.688  0.1418 -0.5763  0.9026
    1Sil     Hm 2375   3.210   3.913  12.656 -0.3948 -0.0126 -0.6765
    1Sil     Hm 2376   0.545   3.722  12.635 -0.2715  0.1009  1.1194
    1Sil     Hm 2377   0.384   3.644  12.642  0.2510 -0.5013 -1.7171
    1Sil     Hm 2378   0.525   3.548  12.602 -0.4782 -0.3774  1.3287
    1Sil     Hm 2379   0.543   4.220  10.115 -0.6743 -2.2855 -2.0854
    1Sil     Hm 2380   0.577   4.050  10.142 -3.3897  0.2487  1.0935
    1Sil     Hm 2381   0.711   4.170  10.165 -0.1900  0.6554  0.8267
    1Sil     Hm 2382   0.042   1.046  10.197  1.4455  0.8500  1.8003
    1Sil     Hm 2383   0.177   0.949  10.152 -0.6562  0.8290  0.6644
    1Sil     Hm 2384   0.019   0.873  10.166  0.9667 -1.2070 -1.0140
    1Sil     Hm 2385   3.263   1.037  12.671 -1.6416 -0.7954  0.1342
    1Sil     Hm 2386   3.209   0.885  12.621 -1.3488  1.4638  0.7421
    1Sil     Hm 2387   3.375   0.913  12.691  1.9464 -1.8599 -1.7704
    1Sil     Hm 2388   0.501   4.239  12.657 -3.6697  0.0246  0.5283
    1Sil     Hm 2389   0.391   4.098  12.645  2.1884 -2.5882  2.3890
    1Sil     Hm 2390   0.562   4.078  12.618 -2.0997 -1.6798  2.7375
    2Eth     Ho 2391   0.074   3.243   6.624  0.7147 -0.9556  2.4259
    2Eth     Oh 2392   0.127   3.320   6.632 -0.1370 -0.0124 -0.2559
    2Eth     Co 2393   0.082   3.389   6.748  0.3131  0.1766  0.3777
    2Eth    Hco 2394   0.094   3.339   6.844  0.6331 -1.8924 -0.7206
    2Eth    Hco 2395  -0.026   3.402   6.749  0.4680  1.5628  0.3608
    2Eth     Ch 2396   0.144   3.529   6.747  0.4718  0.4550  0.4624
    2Eth    Hcc 2397   0.166   3.574   6.844  0.4523  2.3519 -0.4059
    2Eth    Hcc 2398   0.066   3.599   6.716  0.5489  1.4553  2.4343
    2Eth    Hcc 2399   0.233   3.545   6.687  0.6655  3.8498  1.5722
    3Eth     Ho 2400   2.696   2.273   3.019  0.1268  0.9009 -1.2787
    3Eth     Oh 2401   2.720   2.355   3.057 -0.2994  0.2965  0.3355
    3Eth     Co 2402   2.847   2.386   3.003  0.5040 -0.4149  0.9667
    3Eth    Hco 2403   2.828   2.403   2.897 -1.0398 -0.2864  1.2522
    3Eth    Hco 2404   2.907   2.295   3.001  1.5709  0.3019  0.1360
    3Eth     Ch 2405   2.903   2.493   3.086 -0.1875  0.0774  0.2580
    3Eth    Hcc 2406   2.893   2.465   3.191 -1.5962  1.0957  0.4157
    3Eth    Hcc 2407   2.857   2.592   3.081  0.1099  0.3400  2.2082
    3Eth    Hcc 2408   3.010   2.508   3.075 -0.2246  2.4147  2.4174
    4Eth     Ho 2409   1.524   0.444   1.746  0.5504 -0.2344  0.2819
    4Eth     Oh 2410   1.500   0.357   1.721 -0.1180  0.0454 -0.0710
    4Eth     Co 2411   1.479   0.380   1.583 -0.0003 -0.9414 -0.5244
    4Eth    Hco 2412   1.556   0.446   1.544  0.2267 -1.8467 -1.6428
    4Eth    Hco 2413   1.386   0.437   1.581  1.4446  1.4907  0.6207
    4Eth     Ch 2414   1.477   0.242   1.513  0.6931 -0.1371  0.1291
    4Eth    Hcc 2415   1.527   0.248   1.417  3.0404 -1.1926  1.2328
    4Eth    Hcc 2416   1.373   0.211   1.508  0.1227  1.9602 -1.4072
    4Eth    Hcc 2417   1.527   0.171   1.580 -0.4977 -0.0828  1.1045
    5Eth     Ho 2418   1.272   2.524   4.130 -0.4790  1.9811  0.4210
    5Eth     Oh 2419   1.184   2.515   4.098 -0.0912 -0.2675 -0.0810
    5Eth     Co 2420   1.102   2.608   4.179 -0.6955 -0.3465  0.5316
    5Eth    Hco 2421   1.108   2.712   4.147  1.4254 -0.1894  1.3634
    5Eth    Hco 2422   1.146   2.613   4.278  0.8375 -0.7366 -0.1222
    5Eth     Ch 2423   0.960   2.561   4.175  0.3179  0.2087  0.4460
    5Eth    Hcc 2424   0.933   2.473   4.233  1.6639  0.0110  0.8009
    5Eth    Hcc 2425   0.923   2.522   4.080  0.6285 -0.1243  0.4545
    5Eth    Hcc 2426   0.890   2.637   4.206 -1.0080 -0.2761 -1.3111
    6Eth     Ho 2427   0.380   2.753   1.676  0.7116  0.4827  1.7189
    6Eth     Oh 2428   0.354   2.840   1.652 -0.1378 -0.1824  0.2068
    6Eth     Co 2429   0.306   2.828   1.516 -0.1519 -0.5348  0.0843
    6Eth    Hco 2430   0.204   2.790   1.515  0.4129 -2.0894 -2.0600
    6Eth    Hco 2431   0.371   2.754   1.470 -2.5148 -2.1969 -0.6826
    6Eth     Ch 2432   0.327   2.954   1.437 -0.1397 -0.4806  0.3976
    6Eth    Hcc 2433   0.412   3.018   1.463 -0.1730 -0.0105 -0.6523
    6Eth    Hcc 2434   0.239   3.016   1.425 -1.3050 -2.2872 -0.5872
    6Eth    Hcc 2435   0.351   2.928   1.334 -1.0897  1.6944 -0.3796
    7Eth     Ho 2436   2.374   3.415   3.376  0.8085 -0.6271 -0.1328
    7Eth     Oh 2437   2.370   3.473   3.450  0.0112 -0.3184 -0.4106
    7Eth     Co 2438   2.471   3.434   3.544  0.0325  0.6964 -0.2819
    7Eth    Hco 2439   2.570   3.451   3.503  1.3918 -0.8704  2.2211
    7Eth    Hco 2440   2.469   3.329   3.571  2.2043  0.5608 -0.6159
    7Eth     Ch 2441   2.466   3.518   3.670  0.6394 -0.4300  0.2751
    7Eth    Hcc 2442   2.483   3.622   3.645 -2.6585 -0.2166 -1.3111
    7Eth    Hcc 2443   2.552   3.490   3.731  0.3202  1.2476  1.5053
    7Eth    Hcc 2444   2.373   3.513   3.726  0.3617  1.7282  0.0375
    8Eth     Ho 2445   2.661   1.672   9.646 -0.9197  0.9619  1.3109
    8Eth     Oh 2446   2.692   1.612   9.711 -0.1153  0.2468  0.2880
    8Eth     Co 2447   2.675   1.679   9.832 -0.2560  0.0981 -0.4320
    8Eth    Hco 2448   2.573   1.715   9.846  0.0506  0.9078 -0.2570
    8Eth    Hco 2449   2.744   1.763   9.828 -0.2764  0.0771 -1.1707
    8Eth     Ch 2450   2.725   1.585   9.946  0.0442 -0.4329  0.2957
    8Eth    Hcc 2451   2.668   1.492   9.954  1.5214 -1.2838  1.2389
    8Eth    Hcc 2452   2.737   1.638  10.040 -3.8400 -0.2428  0.7368
    8Eth    Hcc 2453   2.826   1.560   9.914 -0.4201 -2.7586  0.5524
    9Eth     Ho 2454   0.062   1.059   5.373  1.2699  2.4895  2.6188
    9Eth     Oh 2455   0.053   1.120   5.303  0.3927 -0.3142  0.1989
    9Eth     Co 2456   0.001   1.044   5.194 -0.4165  0.6184 -0.3026
    9Eth    Hco 2457  -0.107   1.060   5.205  0.2914  4.5075  2.0624
    9Eth    Hco 2458   0.022   0.940   5.218 -2.7859 -0.3053 -2.0420
    9Eth     Ch 2459   0.030   1.080   5.050 -0.9034 -0.5551  0.5023
    9Eth    Hcc 2460  -0.011   1.174   5.013 -0.2810 -0.5853 -0.2807
    9Eth    Hcc 2461   0.004   0.992   4.990 -1.8878  1.3998 -2.0098
    9Eth    Hcc 2462   0.135   1.084   5.022 -1.3627  1.1182 -1.1023
   10Eth     Ho 2463   0.919   0.670   9.691 -2.4855 -0.5919 -0.5812
   10Eth     Oh 2464   0.876   0.717   9.760 -0.5363  0.0792  0.2028
   10Eth     Co 2465   0.977   0.781   9.838 -1.1013  0.0251 -1.0860
   10Eth    Hco 2466   0.931   0.861   9.896 -0.1594  0.5683 -1.0702
   10Eth    Hco 2467   1.054   0.815   9.769 -0.1444 -2.6089 -1.3906
   10Eth     Ch 2468   1.032   0.687   9.949 -0.2732  0.6852 -0.0105
   10Eth    Hcc 2469   1.075   0.593   9.913 -0.3054  0.1189  1.4273
   10Eth    Hcc 2470   0.955   0.686  10.026 -0.7854  0.9705 -0.5168
   10Eth    Hcc 2471   1.121   0.726   9.998 -2.4635  0.6271  4.2181
   11Eth     Ho 2472   3.330   3.105   6.954  0.1563  0.4267  0.1478
   11Eth     Oh 2473   3.346   3.173   7.017 -0.2238  0.5069  0.1552
   11Eth     Co 2474   3.484   3.162   7.044  0.5995  0.3177 -0.3454
   11Eth    Hco 2475   3.539   3.168   6.950  0.4871 -1.7367 -0.5589
   11Eth    Hco 2476   3.502   3.064   7.089 -0.3503 -0.8018 -2.3229
   11Eth     Ch 2477   3.525   3.286   7.127  0.2491 -0.3335 -0.3675
   11Eth    Hcc 2478   3.476   3.379   7.096  1.1696  0.1579 -0.3585
   11Eth    Hcc 2479   3.632   3.306   7.120  0.2729 -0.0591  0.7988
   11Eth    Hcc 2480   3.509   3.270   7.233  1.5521  0.9949  0.0401
   12Eth     Ho 2481   2.511   2.135   9.776  1.0514 -2.4743  0.8603
   12Eth     Oh 2482   2.599   2.166   9.768  0.3400 -0.4688  0.4499
   12Eth     Co 2483   2.653   2.167   9.895 -0.3498  0.0827 -0.0697
   12Eth    Hco 2484   2.630   2.075   9.949 -1.0361  0.1180 -0.2914
   12Eth    Hco 2485   2.626   2.258   9.949  2.2255  0.4290  0.7078
   12Eth     Ch 2486   2.806   2.159   9.882 -1.1129 -0.3498  0.0236
   12Eth    Hcc 2487   2.832   2.091   9.801  3.2858 -4.0390  4.1904
   12Eth    Hcc 2488   2.860   2.127   9.972  2.2712 -2.4521 -2.6385
   12Eth    Hcc 2489   2.849   2.252   9.845 -0.2777  0.4434  2.8304
   13Eth     Ho 2490   1.188   1.011   1.566 -1.4529  0.6129  0.4878
   13Eth     Oh 2491   1.138   0.932   1.561  0.3360 -0.4955 -0.5609
   13Eth     Co 2492   1.115   0.909   1.428  0.9892 -0.1794  0.3025
   13Eth    Hco 2493   1.182   0.942   1.348  2.0771  0.1931  1.3605
   13Eth    Hco 2494   1.030   0.975   1.408 -0.7031 -1.3031  3.4341
   13Eth     Ch 2495   1.073   0.766   1.403 -0.0725  0.0059  0.0300
   13Eth    Hcc 2496   1.060   0.758   1.295  1.0165  1.9081 -0.2614
   13Eth    Hcc 2497   0.979   0.744   1.453 -2.0128  0.8900 -3.0881
   13Eth    Hcc 2498   1.147   0.690   1.429 -1.9297 -1.9224 -0.1667
   14Eth     Ho 2499   2.038   0.877   9.847 -1.8967 -0.6070 -0.5375
   14Eth     Oh 2500   2.011   0.967   9.854 -0.0033 -0.0601  0.0451
   14Eth     Co 2501   2.003   0.985   9.994  0.9670  0.6995 -0.6426
   14Eth    Hco 2502   2.103   0.969  10.034  0.0039  0.6034  1.8650
   14Eth    Hco 2503   1.936   0.904  10.022  0.7246  1.0211 -0.2793
   14Eth     Ch 2504   1.950   1.126  10.020  0.1178  0.6023  0.0206
   14Eth    Hcc 2505   1.914   1.169   9.927 -0.1023  0.6727  0.1372
   14Eth    Hcc 2506   2.026   1.191  10.063  0.5461  0.1818 -0.0895
   14Eth    Hcc 2507   1.870   1.137  10.092 -1.3065  2.7558 -1.8284
   15Eth     Ho 2508   1.873   0.154   3.704 -1.9522  0.9285  1.6433
   15Eth     Oh 2509   1.884   0.240   3.667 -0.1989  0.1200  0.2309
   15Eth     Co 2510   1.754   0.298   3.660  0.1908 -0.0201  1.5129
   15Eth    Hco 2511   1.699   0.295   3.754 -0.3906  0.7686  1.2031
   15Eth    Hco 2512   1.694   0.239   3.591 -0.2514 -0.4854  2.2868
   15Eth     Ch 2513   1.771   0.444   3.610  0.1628  0.0821  0.5757
   15Eth    Hcc 2514   1.843   0.496   3.673 -2.6433  2.3378  2.0593
   15Eth    Hcc 2515   1.682   0.507   3.619 -0.4063 -0.5653 -0.3879
   15Eth    Hcc 2516   1.807   0.462   3.509 -0.2894 -0.5417  0.2922
   16Eth     Ho 2517   2.956   0.632   3.986 -0.1685  2.5175  0.6648
   16Eth     Oh 2518   3.035   0.644   3.935 -0.1131 -0.6002 -0.0582
   16Eth     Co 2519   3.048   0.782   3.910 -0.2249 -0.6466 -1.0934
   16Eth    Hco 2520   3.096   0.830   3.995 -0.3155 -2.8078  0.1947
   16Eth    Hco 2521   2.952   0.831   3.893 -0.2462  0.2870  1.4138
   16Eth     Ch 2522   3.126   0.798   3.781 -0.1967 -0.7620  0.2891
   16Eth    Hcc 2523   3.139   0.904   3.760  2.7343 -1.2236 -0.4407
   16Eth    Hcc 2524   3.072   0.757   3.696  1.9315 -0.9071 -1.0319
   16Eth    Hcc 2525   3.231   0.771   3.778  0.2458  0.9443 -0.2072
   17Eth     Ho 2526   2.311   0.645   9.787 -0.4841  0.6521 -0.2819
   17Eth     Oh 2527   2.301   0.551   9.785  0.5104  0.5229  0.3848
   17Eth     Co 2528   2.429   0.507   9.785  0.1285 -0.2120  0.0440
   17Eth    Hco 2529   2.474   0.538   9.879  0.5442 -1.5844  0.3105
   17Eth    Hco 2530   2.487   0.551   9.704 -0.5370 -0.0043 -0.3250
   17Eth     Ch 2531   2.418   0.352   9.791  0.0215  0.5323 -0.2850
   17Eth    Hcc 2532   2.386   0.310   9.696  3.6237 -0.3057 -1.1966
   17Eth    Hcc 2533   2.353   0.311   9.868  2.3999 -4.0682 -0.5431
   17Eth    Hcc 2534   2.514   0.307   9.820  0.0580  0.7656 -0.0346
   18Eth     Ho 2535   1.799   1.009   3.271  0.3888 -0.2547 -1.2315
   18Eth     Oh 2536   1.720   1.058   3.256  0.4128  0.1859  0.0553
   18Eth     Co 2537   1.608   0.972   3.300 -0.0784 -0.3038 -0.6300
   18Eth    Hco 2538   1.614   0.962   3.409 -1.6288  2.1391 -0.2910
   18Eth    Hco 2539   1.617   0.873   3.255  0.7389  0.3598 -1.9588
   18Eth     Ch 2540   1.478   1.044   3.261  0.3971  0.1938  0.4801
   18Eth    Hcc 2541   1.392   1.009   3.318  0.1801  0.7310  0.4811
   18Eth    Hcc 2542   1.451   1.011   3.160 -1.6166 -0.0419  1.0744
   18Eth    Hcc 2543   1.495   1.150   3.278  0.1646  0.0525  1.6545
   19Eth     Ho 2544   1.259   1.063   9.788 -1.0160 -0.3072  0.0954
   19Eth     Oh 2545   1.217   1.132   9.837 -0.3383 -0.0472  0.3230
   19Eth     Co 2546   1.072   1.137   9.820 -0.2138 -0.4296  0.1663
   19Eth    Hco 2547   1.022   1.042   9.802  0.2324 -0.7190  0.4419
   19Eth    Hco 2548   1.045   1.186   9.726 -2.2283 -1.5424  0.1481
   19Eth     Ch 2549   1.013   1.221   9.931 -0.0402  0.1022  0.0830
   19Eth    Hcc 2550   1.045   1.192  10.031 -0.8250  2.2673  0.9799
   19Eth    Hcc 2551   0.904   1.218   9.924  0.0550  0.7288 -2.1227
   19Eth    Hcc 2552   1.028   1.328   9.918  0.7652  0.4155  3.2398
   20Eth     Ho 2553   2.427   3.442   5.272  0.6005 -0.7276  0.5949
   20Eth     Oh 2554   2.439   3.523   5.225 -0.6144 -0.5476  0.5821
   20Eth     Co 2555   2.467   3.480   5.092  0.1801  0.9477  0.7072
   20Eth    Hco 2556   2.384   3.423   5.050  0.5311  1.0225 -0.0996
   20Eth    Hco 2557   2.548   3.408   5.097  0.3936  0.9986 -1.5908
   20Eth     Ch 2558   2.505   3.598   5.008 -0.9086  0.6585  0.6410
   20Eth    Hcc 2559   2.425   3.669   4.989 -0.6807  1.1242  1.4089
   20Eth    Hcc 2560   2.549   3.566   4.913 -3.3546  0.4998 -0.4698
   20Eth    Hcc 2561   2.586   3.646   5.063  0.9578 -1.4640 -0.1681
   21Eth     Ho 2562   1.681   1.302   4.066 -0.3130  2.0508  0.3212
   21Eth     Oh 2563   1.626   1.321   4.139  0.0596  0.5804  1.0029
   21Eth     Co 2564   1.493   1.308   4.097  0.2557  0.5060  0.1533
   21Eth    Hco 2565   1.490   1.373   4.010 -0.7913  0.3737  0.0897
   21Eth    Hco 2566   1.416   1.336   4.168  0.6544 -0.7387  1.0944
   21Eth     Ch 2567   1.467   1.160   4.068 -0.6275 -0.2816  0.1784
   21Eth    Hcc 2568   1.497   1.098   4.152  0.2121 -0.8448 -0.5246
   21Eth    Hcc 2569   1.520   1.135   3.976 -0.5277 -2.3709  0.7926
   21Eth    Hcc 2570   1.360   1.140   4.057 -0.7756 -0.6252  2.1445
   22Eth     Ho 2571   0.768   1.366   1.436  0.6938 -0.6034 -1.9148
   22Eth     Oh 2572   0.714   1.307   1.485  0.2135  0.5169 -1.0733
   22Eth     Co 2573   0.586   1.363   1.481  0.1780 -0.1024  0.3460
   22Eth    Hco 2574   0.570   1.408   1.383  0.7293 -0.6795 -0.0194
   22Eth    Hco 2575   0.579   1.451   1.544  0.2254  0.1443  0.0050
   22Eth     Ch 2576   0.469   1.251   1.512 -0.1231  0.3392  0.2849
   22Eth    Hcc 2577   0.467   1.241   1.621  0.5262  0.3122  0.2967
   22Eth    Hcc 2578   0.494   1.155   1.467 -0.0158  0.7189 -0.4686
   22Eth    Hcc 2579   0.367   1.285   1.493 -0.0976  1.3222  1.7659
   23Eth     Ho 2580   2.535   0.597   5.603  0.9211 -0.2127 -3.0841
   23Eth     Oh 2581   2.520   0.505   5.596 -0.7340 -0.2188 -0.2301
   23Eth     Co 2582   2.646   0.439   5.616  0.3042 -0.0314 -0.2241
   23Eth    Hco 2583   2.664   0.436   5.724 -0.4401  1.5598 -0.0389
   23Eth    Hco 2584   2.717   0.508   5.570 -0.9644  0.0832 -2.0392
   23Eth     Ch 2585   2.646   0.289   5.569 -0.7488  0.2270  0.3423
   23Eth    Hcc 2586   2.628   0.281   5.462  2.5073  1.7138 -0.3694
   23Eth    Hcc 2587   2.581   0.226   5.630 -0.3535 -0.3930  0.1316
   23Eth    Hcc 2588   2.743   0.243   5.586 -1.9484 -2.1392  1.1159
   24Eth     Ho 2589   0.980   1.594   2.203 -0.1248  1.1051 -3.1988
   24Eth     Oh 2590   1.064   1.636   2.207  0.0732  0.5132 -0.2825
   24Eth     Co 2591   1.100   1.652   2.336  0.3634 -0.6596  0.2483
   24Eth    Hco 2592   1.123   1.558   2.387  1.3460 -0.0289  0.9843
   24Eth    Hco 2593   1.027   1.706   2.396  0.4768 -0.0243 -0.1840
   24Eth     Ch 2594   1.218   1.745   2.331  0.2904 -0.2245  0.5410
   24Eth    Hcc 2595   1.180   1.845   2.308 -1.5632 -1.2414 -0.9552
   24Eth    Hcc 2596   1.291   1.712   2.257  0.6205  1.2088  0.2201
   24Eth    Hcc 2597   1.259   1.767   2.430 -1.1763 -1.2646  1.3930
   25Eth     Ho 2598   0.498   2.429   9.846  0.5086 -1.1404 -1.6048
   25Eth     Oh 2599   0.423   2.377   9.866  0.2709 -0.1223  0.3252
   25Eth     Co 2600   0.334   2.440   9.958 -0.1036  0.3609  0.5218
   25Eth    Hco 2601   0.388   2.493  10.036  2.0263  1.3417 -1.5553
   25Eth    Hco 2602   0.261   2.371   9.998 -1.6612  1.4021 -0.4640
   25Eth     Ch 2603   0.241   2.532   9.880  0.0325  0.0788  0.4732
   25Eth    Hcc 2604   0.193   2.472   9.802 -0.1440 -0.9508  1.3689
   25Eth    Hcc 2605   0.306   2.607   9.836 -1.6103  1.4060  0.2505
   25Eth    Hcc 2606   0.159   2.574   9.938  1.9459  2.8008  1.2655
   26Eth     Ho 2607   1.662   0.946   9.589 -1.3027  0.3387 -1.6477
   26Eth     Oh 2608   1.603   0.942   9.663  0.0721 -0.4319 -0.5750
   26Eth     Co 2609   1.678   0.940   9.785 -0.3026  1.3105 -0.4233
   26Eth    Hco 2610   1.723   1.031   9.823 -0.9855  0.5313  2.3658
   26Eth    Hco 2611   1.764   0.875   9.769 -1.2028  0.2853 -1.2229
   26Eth     Ch 2612   1.594   0.882   9.897  0.1328  0.1316  0.3647
   26Eth    Hcc 2613   1.625   0.927   9.991 -4.0409  2.7757  0.6101
   26Eth    Hcc 2614   1.579   0.775   9.909 -1.7699  0.2373 -0.7087
   26Eth    Hcc 2615   1.492   0.922   9.893 -0.1493 -0.7561 -2.5384
   27Eth     Ho 2616   1.305   3.395   2.239 -0.5709 -1.9150  3.2356
   27Eth     Oh 2617   1.320   3.465   2.300  0.0658  0.6516  0.2501
   27Eth     Co 2618   1.461   3.500   2.294 -0.2092  0.1226 -0.3107
   27Eth    Hco 2619   1.483   3.529   2.192 -2.0206 -1.3765 -1.1683
   27Eth    Hco 2620   1.520   3.417   2.333  2.1315  1.7708 -0.2845
   27Eth     Ch 2621   1.484   3.619   2.381 -0.1331 -0.4058  0.7321
   27Eth    Hcc 2622   1.481   3.588   2.486  1.8276 -0.3235  0.8241
   27Eth    Hcc 2623   1.411   3.700   2.375  0.2583 -0.1853 -1.1723
   27Eth    Hcc 2624   1.577   3.668   2.355 -1.2348  0.7768 -1.1097
   28Eth     Ho 2625   0.759   0.032   7.983 -0.4665 -0.6371 -0.7399
   28Eth     Oh 2626   0.762   0.123   7.960  0.5793 -0.4732 -0.0052
   28Eth     Co 2627   0.662   0.187   8.033  0.0929  0.6898 -0.5529
   28Eth    Hco 2628   0.684   0.165   8.137  0.2055  0.5388 -0.6073
   28Eth    Hco 2629   0.573   0.128   8.017 -0.8051  1.0692  2.7110
   28Eth     Ch 2630   0.648   0.338   8.016 -0.4945 -0.3099  0.8926
   28Eth    Hcc 2631   0.660   0.363   7.911  0.8063  1.4624  1.4372
   28Eth    Hcc 2632   0.727   0.395   8.065 -0.4592  1.3273 -1.0012
   28Eth    Hcc 2633   0.551   0.376   8.052 -0.4548  0.3292  0.3377
   29Eth     Ho 2634   1.830   0.415   2.172 -0.3796 -0.3047  2.8669
   29Eth     Oh 2635   1.755   0.472   2.166 -0.2008 -0.3129 -0.1965
   29Eth     Co 2636   1.670   0.398   2.081 -0.1981 -0.5519 -0.6922
   29Eth    Hco 2637   1.684   0.293   2.108  0.1021 -0.4456 -0.4282
   29Eth    Hco 2638   1.693   0.408   1.976  1.3814 -0.7138 -0.3642
   29Eth     Ch 2639   1.527   0.436   2.118 -0.1552  0.7596 -0.0555
   29Eth    Hcc 2640   1.467   0.358   2.071 -2.9598  2.3555  0.7669
   29Eth    Hcc 2641   1.501   0.540   2.097 -0.3333  0.7351  0.0408
   29Eth    Hcc 2642   1.514   0.417   2.224 -2.7276 -1.1805 -0.6721
   30Eth     Ho 2643   1.388   0.369   9.617 -0.7602  0.3256 -0.5208
   30Eth     Oh 2644   1.427   0.386   9.700 -0.5871 -0.1046 -0.5144
   30Eth     Co 2645   1.458   0.519   9.729 -0.3833 -0.5276  0.2611
   30Eth    Hco 2646   1.463   0.578   9.637  0.1095  0.1167  0.6895
   30Eth    Hco 2647   1.553   0.520   9.783 -0.7545 -1.0909  0.9169
   30Eth     Ch 2648   1.341   0.572   9.808 -0.2386 -0.3224 -0.2151
   30Eth    Hcc 2649   1.361   0.677   9.832  3.3645 -0.6964 -1.3608
   30Eth    Hcc 2650   1.324   0.519   9.902  2.9020 -1.8173 -0.4414
   30Eth    Hcc 2651   1.244   0.571   9.758  0.0979  1.6701 -0.9650
   31Eth     Ho 2652   0.957   2.152   1.857 -0.3188  0.5898  1.0417
   31Eth     Oh 2653   0.884   2.194   1.817  0.2495  0.9009  0.3186
   31Eth     Co 2654   0.784   2.096   1.827  0.3893 -0.3667 -0.7280
   31Eth    Hco 2655   0.691   2.147   1.852  1.1943  1.1023 -0.6157
   31Eth    Hco 2656   0.818   2.016   1.893  1.2224  0.9889  0.5515
   31Eth     Ch 2657   0.780   2.052   1.677  0.0059  0.0117  0.1911
   31Eth    Hcc 2658   0.766   2.137   1.610 -0.5960 -0.3142 -0.1048
   31Eth    Hcc 2659   0.691   1.991   1.658 -0.1568  0.1691  0.4364
   31Eth    Hcc 2660   0.865   1.990   1.650 -0.8326 -0.5860 -1.1585
   32Eth     Ho 2661   1.783   1.597   9.713  1.4700  1.7690 -0.2671
   32Eth     Oh 2662   1.856   1.539   9.701 -0.0005 -0.2379  0.2571
   32Eth     Co 2663   1.921   1.560   9.824 -0.0694  0.0347  0.0114
   32Eth    Hco 2664   1.986   1.474   9.841  2.6634  2.1545  0.7142
   32Eth    Hco 2665   1.839   1.569   9.896 -0.6422 -1.4639 -0.4396
   32Eth     Ch 2666   2.006   1.680   9.821  0.2972 -0.4542  0.0651
   32Eth    Hcc 2667   2.080   1.669   9.742  2.5878 -1.0558  2.2673
   32Eth    Hcc 2668   2.051   1.695   9.919  1.0553 -1.1222 -0.1841
   32Eth    Hcc 2669   1.943   1.765   9.793 -1.4193 -1.3899  0.9999
   33Eth     Ho 2670   2.906   0.616   2.989  0.5012 -0.6156  0.3419
   33Eth     Oh 2671   2.943   0.643   2.907 -0.6011 -0.6455 -0.1671
   33Eth     Co 2672   2.904   0.780   2.863 -0.2529  0.7741  0.1595
   33Eth    Hco 2673   2.920   0.854   2.942 -1.0328  0.8048  0.2983
   33Eth    Hco 2674   2.796   0.780   2.849 -0.3936 -0.3444  1.1514
   33Eth     Ch 2675   2.967   0.806   2.730  0.0370 -0.0718 -0.4304
   33Eth    Hcc 2676   2.919   0.898   2.695 -0.7569 -0.2717  0.0973
   33Eth    Hcc 2677   2.927   0.735   2.658 -1.0601  0.0346  0.0482
   33Eth    Hcc 2678   3.075   0.818   2.725  0.3347 -1.2980  2.1776
   34Eth     Ho 2679   0.225   2.494   1.686  0.9907 -1.3146 -3.3437
   34Eth     Oh 2680   0.144   2.446   1.680 -0.1135 -0.0458  0.0872
   34Eth     Co 2681   0.060   2.524   1.602 -0.0259 -0.4706  0.5252
   34Eth    Hco 2682  -0.036   2.476   1.584 -0.2710  0.6319 -1.1972
   34Eth    Hco 2683   0.098   2.562   1.508 -0.6000 -0.8249  0.1455
   34Eth     Ch 2684   0.009   2.649   1.691 -0.3791  0.3388  0.1292
   34Eth    Hcc 2685  -0.047   2.599   1.770 -2.2778 -0.5885 -1.7514
   34Eth    Hcc 2686  -0.056   2.724   1.646 -2.5850 -0.2243  2.2810
   34Eth    Hcc 2687   0.090   2.698   1.745  1.2956  0.6777 -2.5869
   35Eth     Ho 2688   0.032   2.146   9.197  1.7881 -0.2225  1.2003
   35Eth     Oh 2689  -0.018   2.088   9.251  0.1228  0.0310 -0.0125
   35Eth     Co 2690   0.063   2.040   9.360 -0.8790 -0.3912  0.2885
   35Eth    Hco 2691   0.003   1.992   9.437 -0.7534 -0.3865  0.3882
   35Eth    Hco 2692   0.109   2.131   9.398 -0.1397 -1.1587  1.2558
   35Eth     Ch 2693   0.171   1.945   9.309 -0.1056 -0.1278  0.0064
   35Eth    Hcc 2694   0.242   1.926   9.389  0.4797  1.6497 -0.0664
   35Eth    Hcc 2695   0.231   1.996   9.234  0.9772 -0.4699  0.6294
   35Eth    Hcc 2696   0.125   1.853   9.272 -1.2069 -0.0938  1.2645
   36Eth     Ho 2697   2.121   0.669   9.772  0.2796 -1.7111  1.1454
   36Eth     Oh 2698   2.052   0.704   9.824  0.1244  0.0115 -0.1787
   36Eth     Co 2699   1.950   0.612   9.796 -0.4194 -0.8117 -0.0011
   36Eth    Hco 2700   1.993   0.517   9.763 -0.7219 -1.3782  1.2018
   36Eth    Hco 2701   1.886   0.650   9.716  2.8190  1.6878 -1.5208
   36Eth     Ch 2702   1.874   0.604   9.927 -0.1585  0.3243  0.1942
   36Eth    Hcc 2703   1.779   0.560   9.894  1.8296 -2.2890 -2.2911
   36Eth    Hcc 2704   1.836   0.697   9.969  1.1868 -0.0059  2.2096
   36Eth    Hcc 2705   1.910   0.534  10.003 -0.3522 -0.1686 -0.1624
   37Eth     Ho 2706   2.863   3.284   9.680  1.4192  1.5252 -0.4194
   37Eth     Oh 2707   2.811   3.362   9.684 -0.1865  0.4341  0.4881
   37Eth     Co 2708   2.843   3.430   9.806 -0.8181 -0.2058 -0.3141
   37Eth    Hco 2709   2.950   3.421   9.828 -0.8649 -0.8085 -0.3405
   37Eth    Hco 2710   2.792   3.385   9.891  1.7084 -1.1318  0.7621
   37Eth     Ch 2711   2.792   3.574   9.805  0.2218 -0.2616 -0.4355
   37Eth    Hcc 2712   2.779   3.622   9.708  3.7395 -0.8132 -1.2248
   37Eth    Hcc 2713   2.856   3.639   9.864 -3.2169  1.7806  1.1929
   37Eth    Hcc 2714   2.694   3.578   9.852 -0.7482  0.0578 -2.4192
   38Eth     Ho 2715   0.300   2.926   8.994 -0.5383  0.6391 -1.8097
   38Eth     Oh 2716   0.239   2.980   9.042  0.2788 -0.2629  0.2983
   38Eth     Co 2717   0.302   3.022   9.159 -0.1239 -0.2522  0.0746
   38Eth    Hco 2718   0.398   2.977   9.183 -0.3829 -0.3760  0.9318
   38Eth    Hco 2719   0.237   3.026   9.247  3.7109  1.0089  2.9966
   38Eth     Ch 2720   0.345   3.168   9.145 -0.1283 -0.1545 -0.2427
   38Eth    Hcc 2721   0.412   3.192   9.228  0.6514  0.6160 -1.0876
   38Eth    Hcc 2722   0.264   3.241   9.141  1.5236  1.8069  1.1665
   38Eth    Hcc 2723   0.399   3.183   9.052  0.2391 -0.8117 -0.1376
   39Eth     Ho 2724   1.453   2.272   3.142 -0.7532  3.7414  0.1015
   39Eth     Oh 2725   1.511   2.261   3.215 -0.2769  0.9676 -0.6445
   39Eth     Co 2726   1.435   2.191   3.313  0.3877  0.3632  0.4687
   39Eth    Hco 2727   1.388   2.104   3.268  1.3666 -0.3425  0.8066
   39Eth    Hco 2728   1.357   2.258   3.350 -0.5195 -0.5333  0.1889
   39Eth     Ch 2729   1.548   2.157   3.414 -0.2338  0.2934 -0.6502
   39Eth    Hcc 2730   1.585   2.247   3.462  0.3321 -0.3014  0.0338
   39Eth    Hcc 2731   1.624   2.101   3.360  0.0816  1.5698 -1.5567
   39Eth    Hcc 2732   1.496   2.088   3.481 -0.4312  2.3808  1.3839
   40Eth     Ho 2733   2.357   0.861   9.672 -2.6442  2.2517  1.0328
   40Eth     Oh 2734   2.369   0.820   9.755  0.3311  0.3428 -0.2445
   40Eth     Co 2735   2.418   0.915   9.850  0.4397 -0.1944 -0.0985
   40Eth    Hco 2736   2.367   0.923   9.946  1.0137  0.9622  0.1234
   40Eth    Hco 2737   2.401   1.012   9.805  2.0577 -0.0497 -0.4395
   40Eth     Ch 2738   2.566   0.892   9.874  0.8465 -0.5091  0.1597
   40Eth    Hcc 2739   2.617   0.923   9.783 -0.3096  3.4632  0.7423
   40Eth    Hcc 2740   2.598   0.789   9.889 -0.3573 -0.4508  3.6411
   40Eth    Hcc 2741   2.602   0.961   9.951  1.9053 -2.3114  1.3098
   41Eth     Ho 2742   1.239   1.257   9.497 -0.2600  0.7175 -0.9379
   41Eth     Oh 2743   1.214   1.334   9.545  0.1362  0.4869 -0.3564
   41Eth     Co 2744   1.133   1.408   9.462  0.1537  0.3242  0.6698
   41Eth    Hco 2745   1.044   1.350   9.435 -0.5585  1.3817  0.7160
   41Eth    Hco 2746   1.175   1.431   9.365 -0.9481 -0.3808  0.0188
   41Eth     Ch 2747   1.085   1.542   9.523  0.7846 -0.2171 -0.5077
   41Eth    Hcc 2748   1.164   1.607   9.563  0.5976 -1.1914  1.5175
   41Eth    Hcc 2749   1.027   1.512   9.610  1.0385 -1.6729 -0.8222
   41Eth    Hcc 2750   1.019   1.602   9.461  0.6100  0.6065  0.4662
   42Eth     Ho 2751   1.191   1.867   1.663 -1.2728 -1.2989 -0.7546
   42Eth     Oh 2752   1.142   1.921   1.604 -0.6594  0.0272 -0.0767
   42Eth     Co 2753   1.195   2.052   1.600 -0.3412  0.1186  0.1976
   42Eth    Hco 2754   1.299   2.056   1.567  0.2727 -0.5084  1.9931
   42Eth    Hco 2755   1.184   2.091   1.701 -0.3598 -1.0641  0.6580
   42Eth     Ch 2756   1.105   2.125   1.508 -0.5924  0.3195 -0.3308
   42Eth    Hcc 2757   0.998   2.105   1.521 -0.7986  1.8584  0.4310
   42Eth    Hcc 2758   1.119   2.080   1.409  0.6505 -1.1861  0.5074
   42Eth    Hcc 2759   1.119   2.233   1.505  1.4469  0.1090  0.8731
   43Eth     Ho 2760   3.109   0.147   1.686 -0.4540  0.7105 -0.1276
   43Eth     Oh 2761   3.096   0.115   1.599 -0.4310  0.1923  0.0627
   43Eth     Co 2762   2.955   0.090   1.587  0.5599 -0.6385  0.0914
   43Eth    Hco 2763   2.921   0.073   1.485 -0.9409  0.8027  0.3169
   43Eth    Hco 2764   2.899   0.176   1.625  0.2318  0.3876 -2.5723
   43Eth     Ch 2765   2.920  -0.031   1.676 -0.1040  0.1630 -0.7161
   43Eth    Hcc 2766   2.813  -0.031   1.656  0.0390  0.9425 -1.4816
   43Eth    Hcc 2767   2.924  -0.022   1.785 -2.4495 -1.4451 -0.4577
   43Eth    Hcc 2768   2.968  -0.121   1.637  1.7365  0.1345  1.4687
   44Eth     Ho 2769   2.085   0.795   6.730  0.1427 -0.2479 -0.1924
   44Eth     Oh 2770   2.075   0.745   6.651 -0.4012  0.5205 -0.6137
   44Eth     Co 2771   2.037   0.620   6.703 -0.1986  0.6886 -0.0017
   44Eth    Hco 2772   1.955   0.610   6.774  1.2232  0.7168  1.6693
   44Eth    Hco 2773   2.126   0.578   6.750 -0.0479 -0.0306 -0.9247
   44Eth     Ch 2774   2.009   0.527   6.591 -0.1469  0.2700  0.0446
   44Eth    Hcc 2775   2.094   0.466   6.559 -1.8375 -1.7068 -0.8474
   44Eth    Hcc 2776   1.967   0.576   6.503  0.3735  1.1207  0.2615
   44Eth    Hcc 2777   1.942   0.450   6.630 -1.2420  2.1314  1.9050
   45Eth     Ho 2778   1.383   2.223   7.373  1.3549  1.2132  0.7242
   45Eth     Oh 2779   1.449   2.173   7.328  0.3577 -0.0621  0.6550
   45Eth     Co 2780   1.556   2.151   7.421  0.4885  0.5856  0.6176
   45Eth    Hco 2781   1.530   2.088   7.506 -0.6140  1.0577  0.6417
   45Eth    Hco 2782   1.578   2.248   7.465  1.2489  0.4987  0.4388
   45Eth     Ch 2783   1.677   2.101   7.355 -0.0753  0.1526  0.1784
   45Eth    Hcc 2784   1.765   2.095   7.420 -0.4501 -3.2612  0.4495
   45Eth    Hcc 2785   1.700   2.151   7.261 -0.1861 -0.2067 -0.0378
   45Eth    Hcc 2786   1.655   1.999   7.326 -1.4696  0.3909  0.3400
   46Eth     Ho 2787   1.825   1.435   1.541 -1.2578  0.1083 -2.8665
   46Eth     Oh 2788   1.902   1.486   1.524  0.1144 -0.5887  0.6613
   46Eth     Co 2789   1.991   1.398   1.452  0.3665 -0.2541 -0.6284
   46Eth    Hco 2790   1.960   1.395   1.348 -1.6332  3.2805 -0.2310
   46Eth    Hco 2791   2.005   1.302   1.502  0.4657  1.7312  3.3821
   46Eth     Ch 2792   2.140   1.448   1.465  0.7182  0.6902 -0.0548
   46Eth    Hcc 2793   2.153   1.540   1.409  1.4148 -0.2583 -1.4595
   46Eth    Hcc 2794   2.208   1.371   1.429 -1.4072 -1.2095 -0.1322
   46Eth    Hcc 2795   2.166   1.455   1.571  3.0435  0.4098 -0.5693
   47Eth     Ho 2796   0.580   0.551   1.591 -0.0542  0.3780  1.3905
   47Eth     Oh 2797   0.492   0.523   1.610 -0.3956  0.2868 -0.2401
   47Eth     Co 2798   0.474   0.405   1.523  0.2075 -0.1158  0.8061
   47Eth    Hco 2799   0.542   0.331   1.563  0.8040 -0.3574 -0.6117
   47Eth    Hco 2800   0.518   0.420   1.424 -0.5781  0.3067  0.5140
   47Eth     Ch 2801   0.321   0.376   1.520 -0.1287  0.0730 -0.6152
   47Eth    Hcc 2802   0.291   0.330   1.614  2.5394 -0.3818  0.0360
   47Eth    Hcc 2803   0.304   0.309   1.435 -2.1402 -1.4105  0.9173
   47Eth    Hcc 2804   0.263   0.466   1.499 -0.1910  1.0914  3.5822
   48Eth     Ho 2805   2.117   0.773   5.085  1.2104  2.8199  0.6328
   48Eth     Oh 2806   2.182   0.721   5.128 -0.6766 -0.2878 -0.0850
   48Eth     Co 2807   2.201   0.787   5.254  0.1809 -0.0594 -0.2201
   48Eth    Hco 2808   2.111   0.798   5.314  0.9813 -0.0982  1.0127
   48Eth    Hco 2809   2.251   0.883   5.237 -0.4361  0.3387  0.1922
   48Eth     Ch 2810   2.286   0.681   5.332  0.4006 -0.4032 -0.0669
   48Eth    Hcc 2811   2.236   0.586   5.350 -0.8713 -0.1703 -2.2152
   48Eth    Hcc 2812   2.321   0.733   5.422  0.7820  2.8192 -1.9930
   48Eth    Hcc 2813   2.374   0.654   5.274 -0.3071 -1.2570 -0.7451
   49Eth     Ho 2814   0.014   2.299   1.707 -0.5206 -0.1410 -0.7739
   49Eth     Oh 2815  -0.049   2.229   1.703  0.1400 -0.8126  0.3483
   49Eth     Co 2816   0.012   2.131   1.627  0.1979 -0.4563 -0.2469
   49Eth    Hco 2817   0.077   2.072   1.692 -0.2492  0.6695  1.2587
   49Eth    Hco 2818   0.081   2.186   1.564  1.2668 -0.9461  0.4699
   49Eth     Ch 2819  -0.097   2.058   1.543 -0.4532 -0.1306  0.8787
   49Eth    Hcc 2820  -0.185   2.025   1.599 -1.1517 -1.0542 -0.7191
   49Eth    Hcc 2821  -0.052   1.968   1.500  1.1807  1.0773  0.0062
   49Eth    Hcc 2822  -0.130   2.106   1.450 -0.0143 -0.3475  0.6115
   50Eth     Ho 2823   2.857   2.805   9.758  1.3322  0.6133 -2.2947
   50Eth     Oh 2824   2.866   2.893   9.788 -0.2652  0.1171 -0.2628
   50Eth     Co 2825   2.735   2.922   9.833 -0.7003  0.1203 -0.3953
   50Eth    Hco 2826   2.705   2.847   9.907  0.1115 -2.0015 -2.1444
   50Eth    Hco 2827   2.666   2.894   9.753  0.1004  0.5174 -1.2307
   50Eth     Ch 2828   2.725   3.062   9.887 -0.1181  0.1764 -0.1136
   50Eth    Hcc 2829   2.629   3.096   9.924 -0.5303  2.7411 -3.2487
   50Eth    Hcc 2830   2.744   3.135   9.808 -1.2228  0.4000 -0.1831
   50Eth    Hcc 2831   2.801   3.070   9.964 -0.1391  0.0016 -0.0758
   51Eth     Ho 2832   2.099   2.300   6.926 -1.9743 -0.0022 -0.7045
   51Eth     Oh 2833   2.063   2.350   6.997 -0.1993 -0.2001  0.3625
   51Eth     Co 2834   2.030   2.251   7.090 -0.7248  0.6022  0.0998
   51Eth    Hco 2835   2.127   2.223   7.131 -0.4973 -0.7260 -1.3041
   51Eth    Hco 2836   2.000   2.161   7.037  2.6186  1.0286 -2.7145
   51Eth     Ch 2837   1.923   2.300   7.184  0.2682  0.1748  0.4146
   51Eth    Hcc 2838   1.952   2.392   7.235  2.7711 -0.0386 -0.5591
   51Eth    Hcc 2839   1.894   2.230   7.262 -1.8448  1.0365  0.4555
   51Eth    Hcc 2840   1.833   2.319   7.125  0.0091 -2.2825 -0.0371
   52Eth     Ho 2841   0.317   1.545   9.831  0.5971  0.3156 -3.0180
   52Eth     Oh 2842   0.389   1.490   9.856 -0.0630  0.5805 -0.3283
   52Eth     Co 2843   0.511   1.559   9.841  0.4392 -0.7920 -0.0216
   52Eth    Hco 2844   0.538   1.620   9.927  0.7954 -0.3201 -0.4697
   52Eth    Hco 2845   0.498   1.626   9.757 -1.0383 -1.6008 -0.4633
   52Eth     Ch 2846   0.621   1.458   9.803  0.7758  0.1178 -0.4057
   52Eth    Hcc 2847   0.719   1.496   9.773  0.6174 -0.2874 -1.4775
   52Eth    Hcc 2848   0.583   1.397   9.721  0.1824  0.1077 -0.1213
   52Eth    Hcc 2849   0.635   1.387   9.884 -0.9230  0.4680  0.2197
   53Eth     Ho 2850   3.176   0.689   9.807  1.0663 -0.2275  0.1711
   53Eth     Oh 2851   3.194   0.757   9.870  0.2769  0.5154 -0.4002
   53Eth     Co 2852   3.112   0.874   9.851  0.6689  0.3626  0.5346
   53Eth    Hco 2853   3.008   0.859   9.880  0.7676  0.8382  1.1522
   53Eth    Hco 2854   3.113   0.903   9.746 -2.1728  0.1652  0.4094
   53Eth     Ch 2855   3.176   0.982   9.926  0.1425 -0.3353 -0.5437
   53Eth    Hcc 2856   3.127   1.079   9.912 -1.1843 -1.0360 -0.8034
   53Eth    Hcc 2857   3.278   0.997   9.890 -0.7572  1.4429 -2.4307
   53Eth    Hcc 2858   3.169   0.961  10.033  0.5362 -1.4897 -0.7441
   54Eth     Ho 2859   1.551   1.437   1.609  1.3446  0.8447  2.2830
   54Eth     Oh 2860   1.493   1.511   1.616  0.2866  0.2930 -0.3352
   54Eth     Co 2861   1.566   1.611   1.686 -0.0057 -0.1648 -0.4135
   54Eth    Hco 2862   1.658   1.565   1.722  0.6104 -0.4277 -2.2648
   54Eth    Hco 2863   1.516   1.647   1.775  0.0930  1.1723 -0.8844
   54Eth     Ch 2864   1.605   1.731   1.601  0.9832  0.1726  0.2705
   54Eth    Hcc 2865   1.513   1.780   1.571  1.0453  0.4815  0.5829
   54Eth    Hcc 2866   1.647   1.695   1.506 -1.5910  0.9347 -1.2038
   54Eth    Hcc 2867   1.674   1.803   1.646  0.2281  0.5305  0.8450
   55Eth     Ho 2868   0.186   0.658   2.553 -0.6278 -1.0547 -0.2848
   55Eth     Oh 2869   0.154   0.741   2.583 -0.4587 -0.9017 -0.5241
   55Eth     Co 2870   0.066   0.720   2.688  0.0207 -0.2625  0.4095
   55Eth    Hco 2871   0.127   0.680   2.769  2.9723 -0.3604 -1.7656
   55Eth    Hco 2872  -0.017   0.654   2.660  0.9663 -0.3680 -2.3493
   55Eth     Ch 2873  -0.000   0.860   2.719  0.1053 -0.1404  0.2826
   55Eth    Hcc 2874  -0.061   0.895   2.636  0.4147 -1.8959 -0.7115
   55Eth    Hcc 2875   0.072   0.941   2.731 -0.1159 -0.2082  2.3494
   55Eth    Hcc 2876  -0.063   0.854   2.808  0.1331 -1.9965  0.1870
   56Eth     Ho 2877   2.879   0.516   1.777 -0.2404 -1.9883  0.5554
   56Eth     Oh 2878   2.936   0.483   1.710  0.3749 -0.3053  0.2399
   56Eth     Co 2879   2.899   0.560   1.601  0.3012  0.4019 -0.0921
   56Eth    Hco 2880   2.862   0.653   1.643 -0.6706  0.2709 -0.6274
   56Eth    Hco 2881   2.824   0.509   1.540 -0.0676 -0.8027  1.3344
   56Eth     Ch 2882   3.032   0.584   1.519  0.3555  0.7250  0.0542
   56Eth    Hcc 2883   3.111   0.629   1.580  2.3399 -2.5837  0.0563
   56Eth    Hcc 2884   3.003   0.656   1.442 -0.9809  2.4782  2.1455
   56Eth    Hcc 2885   3.070   0.493   1.473  1.5979  0.2678  1.9039
   57Eth     Ho 2886   1.377   0.703   8.439 -2.2461 -1.5780 -0.5339
   57Eth     Oh 2887   1.332   0.777   8.474  0.1158  0.0116 -0.8029
   57Eth     Co 2888   1.218   0.797   8.396 -0.2374  0.2603  0.0633
   57Eth    Hco 2889   1.144   0.716   8.401  1.6920 -1.5849 -0.7632
   57Eth    Hco 2890   1.238   0.812   8.290 -1.2886 -0.6463 -0.2789
   57Eth     Ch 2891   1.139   0.912   8.462 -0.3251  0.4728  0.1241
   57Eth    Hcc 2892   1.058   0.933   8.392 -0.0358 -0.2222 -0.4286
   57Eth    Hcc 2893   1.211   0.993   8.460  2.2423 -1.7407  0.2988
   57Eth    Hcc 2894   1.101   0.889   8.561 -2.1255  1.5584 -0.2791
   58Eth     Ho 2895   0.598   2.203   2.591 -1.3910 -0.0876  0.0517
   58Eth     Oh 2896   0.567   2.245   2.513  0.0216  0.3645 -0.2756
   58Eth     Co 2897   0.453   2.181   2.463  0.6532  0.3205  0.0420
   58Eth    Hco 2898   0.362   2.201   2.520 -0.1829 -0.3451 -1.0330
   58Eth    Hco 2899   0.470   2.074   2.461 -2.2806 -0.1744 -1.5942
   58Eth     Ch 2900   0.425   2.209   2.322 -0.1602  1.0697 -0.1949
   58Eth    Hcc 2901   0.337   2.149   2.300 -0.3119 -1.2009  5.8138
   58Eth    Hcc 2902   0.517   2.184   2.268 -0.2406  0.9360 -0.2705
   58Eth    Hcc 2903   0.410   2.313   2.293 -1.3587  0.7248 -0.8591
   59Eth     Ho 2904   2.909   2.239   4.983  1.5297 -0.7680  2.7981
   59Eth     Oh 2905   2.899   2.148   4.963  0.3793 -0.0521 -0.1018
   59Eth     Co 2906   2.772   2.147   4.913 -0.2009 -0.4477  0.1464
   59Eth    Hco 2907   2.738   2.245   4.882 -0.2106 -0.4820  0.0480
   59Eth    Hco 2908   2.700   2.123   4.992 -1.3031  0.9483 -0.4268
   59Eth     Ch 2909   2.766   2.046   4.801 -0.4792  0.3324 -0.1985
   59Eth    Hcc 2910   2.668   2.020   4.760 -1.0662  0.0064  1.4063
   59Eth    Hcc 2911   2.825   1.963   4.838  0.4414  1.4115  0.8021
   59Eth    Hcc 2912   2.830   2.076   4.717  0.6925 -1.6996 -0.0760
   60Eth     Ho 2913   1.125   1.471   2.213 -1.0191 -1.0826  3.5175
   60Eth     Oh 2914   1.169   1.391   2.189  0.0768  0.3184  0.6118
   60Eth     Co 2915   1.231   1.421   2.066 -0.1704  0.2722  0.4352
   60Eth    Hco 2916   1.304   1.500   2.087  0.8053 -0.4454 -0.2262
   60Eth    Hco 2917   1.153   1.454   1.997  1.8381 -0.3629 -2.2440
   60Eth     Ch 2918   1.293   1.291   2.026  0.3760 -0.2614  0.1496
   60Eth    Hcc 2919   1.232   1.201   2.029 -2.3942  1.4813 -1.6001
   60Eth    Hcc 2920   1.388   1.276   2.078  0.0936  0.1746  0.7994
   60Eth    Hcc 2921   1.328   1.288   1.923 -0.4398 -0.9401 -0.1170
   61Eth     Ho 2922   3.060   3.084   3.519  0.5237 -0.3693 -0.5310
   61Eth     Oh 2923   2.977   3.109   3.483  0.3752 -0.3049 -0.1422
   61Eth     Co 2924   2.895   3.145   3.591 -0.4346 -0.0463  0.2743
   61Eth    Hco 2925   2.946   3.230   3.636 -0.4216  0.9142 -1.4720
   61Eth    Hco 2926   2.883   3.061   3.660  0.2560  0.0170  0.4716
   61Eth     Ch 2927   2.744   3.188   3.562  0.3479  0.5743  0.3203
   61Eth    Hcc 2928   2.700   3.103   3.510  0.4195 -0.4426  1.8890
   61Eth    Hcc 2929   2.733   3.268   3.489 -0.4535 -0.8956 -1.2097
   61Eth    Hcc 2930   2.704   3.214   3.660 -1.8919  0.8377 -0.6450
   62Eth     Ho 2931   2.680   0.425   5.211 -0.2008 -1.2813 -0.5892
   62Eth     Oh 2932   2.756   0.375   5.237  0.0470 -0.6367 -0.0455
   62Eth     Co 2933   2.862   0.464   5.215  0.0459 -0.4381 -0.0125
   62Eth    Hco 2934   2.885   0.505   5.314  0.8502 -0.6829 -0.0955
   62Eth    Hco 2935   2.844   0.547   5.147 -1.7152 -1.0756 -0.3512
   62Eth     Ch 2936   2.988   0.381   5.183  0.3714 -0.8287  0.6041
   62Eth    Hcc 2937   3.069   0.449   5.208 -0.7566  0.8482 -0.1951
   62Eth    Hcc 2938   2.996   0.365   5.075 -0.9426  2.0038  0.0415
   62Eth    Hcc 2939   2.997   0.284   5.233 -2.9003 -0.3944  2.1381
   63Eth     Ho 2940   0.960   1.571   8.839 -0.5917 -0.9064 -1.4572
   63Eth     Oh 2941   0.920   1.487   8.850 -0.4450 -0.8217 -0.2015
   63Eth     Co 2942   0.782   1.513   8.845  0.3542 -0.0993 -0.1841
   63Eth    Hco 2943   0.765   1.597   8.778 -0.3886  0.9059  1.2384
   63Eth    Hco 2944   0.747   1.549   8.941 -0.1209  1.7833 -1.0408
   63Eth     Ch 2945   0.702   1.393   8.801 -0.2285 -0.8231  0.2997
   63Eth    Hcc 2946   0.723   1.378   8.695  1.1031  2.7643 -0.0165
   63Eth    Hcc 2947   0.598   1.423   8.816  1.0125  3.7176  0.4962
   63Eth    Hcc 2948   0.725   1.306   8.863  0.2638  0.6624  2.2536
   64Eth     Ho 2949   3.072   0.922   1.593  0.6072 -0.7709  2.4476
   64Eth     Oh 2950   2.978   0.918   1.590  0.6212 -0.0364  0.1427
   64Eth     Co 2951   2.926   0.955   1.467  0.4096  0.0063 -0.7621
   64Eth    Hco 2952   2.980   0.901   1.390  1.2280  1.1216 -0.9765
   64Eth    Hco 2953   2.942   1.062   1.455  0.5269  0.0690 -0.0547
   64Eth     Ch 2954   2.774   0.925   1.450 -0.3313 -0.2798  0.0428
   64Eth    Hcc 2955   2.735   0.833   1.493  1.0471 -0.3697  1.1337
   64Eth    Hcc 2956   2.745   0.932   1.345  1.5672  0.0315 -0.4813
   64Eth    Hcc 2957   2.732   1.001   1.516  1.7795 -1.2423  2.5696
   65Eth     Ho 2958   0.960   0.845   9.371  0.0104  1.2704  0.5403
   65Eth     Oh 2959   0.891   0.892   9.328 -0.0499  0.5368 -0.1624
   65Eth     Co 2960   0.785   0.914   9.425 -0.4304 -0.3586 -0.3310
   65Eth    Hco 2961   0.782   0.830   9.495  1.8995 -0.9265 -0.8817
   65Eth    Hco 2962   0.693   0.909   9.366 -0.2976  0.2771 -0.5905
   65Eth     Ch 2963   0.797   1.050   9.496  0.1384 -0.3387  0.6384
   65Eth    Hcc 2964   0.897   1.058   9.538  0.8713 -1.1674 -0.8918
   65Eth    Hcc 2965   0.720   1.062   9.573 -0.8355  0.6445 -0.4654
   65Eth    Hcc 2966   0.783   1.130   9.423  0.1968 -0.1720  0.8116
   66Eth     Ho 2967   0.505   1.748   1.528  0.1488  1.1817  1.0873
   66Eth     Oh 2968   0.414   1.768   1.516  0.0946  0.2475 -0.0164
   66Eth     Co 2969   0.424   1.906   1.480  0.0884 -0.6778 -0.3082
   66Eth    Hco 2970   0.501   1.917   1.404 -0.6354 -1.9101 -1.2455
   66Eth    Hco 2971   0.442   1.980   1.558 -2.9766  2.4748 -2.4135
   66Eth     Ch 2972   0.279   1.939   1.431 -0.3130  0.1652  0.5768
   66Eth    Hcc 2973   0.204   1.920   1.507  0.4112 -0.6576  1.1051
   66Eth    Hcc 2974   0.256   1.883   1.341 -1.9553 -0.0087  1.0921
   66Eth    Hcc 2975   0.268   2.044   1.404  1.1268 -0.2667 -1.8578
   67Eth     Ho 2976   1.198   3.161   9.558 -0.4631 -0.9260 -1.3570
   67Eth     Oh 2977   1.231   3.210   9.485  0.2375  0.0588 -0.3942
   67Eth     Co 2978   1.121   3.286   9.460  0.2637  0.7808  0.4284
   67Eth    Hco 2979   1.072   3.316   9.552  0.5699  1.2794  0.4302
   67Eth    Hco 2980   1.046   3.224   9.411  0.4819  2.7240 -2.4871
   67Eth     Ch 2981   1.162   3.399   9.365 -0.4154 -0.0125  0.8895
   67Eth    Hcc 2982   1.226   3.474   9.411  1.9691 -0.8645 -0.9074
   67Eth    Hcc 2983   1.066   3.441   9.333 -0.8598 -1.1346  0.7370
   67Eth    Hcc 2984   1.212   3.363   9.275 -2.2846  0.7562 -0.4901
   68Eth     Ho 2985   3.258   2.374   2.459 -1.7300  1.7029  0.7347
   68Eth     Oh 2986   3.203   2.298   2.464  0.7916 -0.2734 -0.5081
   68Eth     Co 2987   3.271   2.178   2.476  0.3000  0.1525 -0.4597
   68Eth    Hco 2988   3.199   2.097   2.467  1.7013 -1.0942 -0.6886
   68Eth    Hco 2989   3.318   2.170   2.575  1.6259 -0.0031 -1.0929
   68Eth     Ch 2990   3.373   2.140   2.357  0.3370  0.4630 -0.2327
   68Eth    Hcc 2991   3.420   2.046   2.388 -2.0537 -0.2342  1.4885
   68Eth    Hcc 2992   3.461   2.202   2.342  0.9645 -0.2378  0.4754
   68Eth    Hcc 2993   3.328   2.117   2.261 -0.1129  0.9581 -0.1439
   69Eth     Ho 2994   2.652   1.372   4.710 -1.0700  2.0042 -0.5272
   69Eth     Oh 2995   2.685   1.395   4.625 -0.3257  0.2066 -0.7325
   69Eth     Co 2996   2.754   1.512   4.643 -0.5196 -0.2827 -0.2692
   69Eth    Hco 2997   2.804   1.523   4.739 -1.5091  1.1927  0.0933
   69Eth    Hco 2998   2.672   1.582   4.656 -0.3595  0.2105 -1.8866
   69Eth     Ch 2999   2.829   1.546   4.510  0.0909  0.4739  0.4197
   69Eth    Hcc 3000   2.880   1.457   4.476  0.0034 -0.0216  1.5692
   69Eth    Hcc 3001   2.896   1.630   4.527 -0.8769  1.3243  0.1152
   69Eth    Hcc 3002   2.754   1.558   4.431 -1.0575 -3.2501  0.8712
   70Eth     Ho 3003   2.286   0.353   1.584  0.3378  2.0180  0.5048
   70Eth     Oh 3004   2.354   0.315   1.637 -0.3428  0.0703  0.0137
   70Eth     Co 3005   2.388   0.194   1.578 -0.5952 -0.0012 -0.0012
   70Eth    Hco 3006   2.400   0.214   1.471 -0.6407 -0.2667 -0.0565
   70Eth    Hco 3007   2.319   0.111   1.588  1.2795 -1.7407 -0.9687
   70Eth     Ch 3008   2.530   0.154   1.626  0.5528  0.2919  0.2125
   70Eth    Hcc 3009   2.527   0.118   1.728  0.4405 -0.1006  0.0719
   70Eth    Hcc 3010   2.591   0.244   1.620  0.3321  0.5662  1.8955
   70Eth    Hcc 3011   2.568   0.078   1.557  0.6736  0.8747 -0.3666
   71Eth     Ho 3012   0.741   1.529   8.172 -0.1902 -1.3972  0.4843
   71Eth     Oh 3013   0.802   1.553   8.239 -0.3176  0.8180 -0.1519
   71Eth     Co 3014   0.716   1.596   8.341  0.4917  0.7349  0.0562
   71Eth    Hco 3015   0.645   1.517   8.364 -1.1372  1.8039 -1.1663
   71Eth    Hco 3016   0.659   1.682   8.308 -0.8024 -1.3391 -3.2911
   71Eth     Ch 3017   0.801   1.632   8.468 -0.4935  0.3415 -0.2510
   71Eth    Hcc 3018   0.727   1.659   8.543  0.0398  0.0290  0.3970
   71Eth    Hcc 3019   0.855   1.721   8.435 -2.5583  1.4506 -0.7360
   71Eth    Hcc 3020   0.867   1.551   8.499  0.7294  1.1301 -0.7470
   72Eth     Ho 3021   2.351   1.003   1.941 -0.9217  0.5850  0.2836
   72Eth     Oh 3022   2.414   1.059   1.900 -0.3588 -0.1830  0.1039
   72Eth     Co 3023   2.370   1.186   1.839  0.3405 -0.5958  0.1859
   72Eth    Hco 3024   2.315   1.242   1.914  0.0906 -0.8895  0.2229
   72Eth    Hco 3025   2.304   1.161   1.757  1.3663  1.7786 -1.3929
   72Eth     Ch 3026   2.500   1.243   1.766 -0.1410  0.5148 -0.5007
   72Eth    Hcc 3027   2.491   1.309   1.679  0.2668  0.9809 -0.1907
   72Eth    Hcc 3028   2.545   1.157   1.718 -0.9050 -0.3243  0.2775
   72Eth    Hcc 3029   2.573   1.285   1.836  1.0287  0.3772 -1.6121
   73Eth     Ho 3030   2.147   2.032   8.318  0.3658 -0.2815 -1.0298
   73Eth     Oh 3031   2.063   2.074   8.327  0.4811 -0.3280  0.4409
   73Eth     Co 3032   2.064   2.205   8.285 -0.9867  0.0366 -1.2870
   73Eth    Hco 3033   2.128   2.209   8.197  1.2861  1.5279  0.3562
   73Eth    Hco 3034   2.100   2.257   8.374 -3.0049 -2.7903  1.2855
   73Eth     Ch 3035   1.918   2.241   8.252  0.0850 -0.5951 -0.0020
   73Eth    Hcc 3036   1.859   2.225   8.342 -0.2594  0.9149  0.0477
   73Eth    Hcc 3037   1.887   2.184   8.164 -0.5074  1.0883 -0.9079
   73Eth    Hcc 3038   1.913   2.347   8.228 -0.4292 -0.7864 -0.7603
   74Eth     Ho 3039   1.073   0.098   9.056  1.7261  2.1289 -1.5500
   74Eth     Oh 3040   1.031   0.165   9.108  0.5098  0.2746 -0.0832
   74Eth     Co 3041   1.097   0.291   9.083 -0.2509  0.1423  0.2563
   74Eth    Hco 3042   1.106   0.291   8.974  2.1371 -1.4557  0.4248
   74Eth    Hco 3043   1.197   0.301   9.125 -0.7763 -3.3994  2.4964
   74Eth     Ch 3044   1.018   0.409   9.139  0.5889  0.5780 -0.1259
   74Eth    Hcc 3045   1.048   0.507   9.105  1.2249  0.1959 -0.6677
   74Eth    Hcc 3046   1.019   0.417   9.248  0.2634  0.6600 -0.1278
   74Eth    Hcc 3047   0.914   0.395   9.107  0.3211  1.9570  0.1351
   75Eth     Ho 3048   2.059   2.584   9.517 -2.6369 -1.4075 -0.8991
   75Eth     Oh 3049   2.054   2.641   9.442 -0.1903  0.0437 -0.0411
   75Eth     Co 3050   2.051   2.547   9.334 -0.8194 -0.8306  0.1338
   75Eth    Hco 3051   1.982   2.463   9.337  0.3914 -1.8235  0.5682
   75Eth    Hco 3052   2.147   2.497   9.318 -0.9547 -0.4187 -2.2467
   75Eth     Ch 3053   2.013   2.633   9.214 -0.3932 -0.0493 -0.4476
   75Eth    Hcc 3054   2.086   2.713   9.196  0.9127 -0.7694  1.4176
   75Eth    Hcc 3055   1.923   2.686   9.244 -0.9857 -1.7909  0.9249
   75Eth    Hcc 3056   1.991   2.576   9.124  0.2634  2.1439 -2.0387
   76Eth     Ho 3057   2.731   2.746   9.554 -0.4225 -1.5647 -0.5162
   76Eth     Oh 3058   2.772   2.683   9.610  0.1738 -0.7172  0.0112
   76Eth     Co 3059   2.773   2.558   9.543 -0.4843  0.4968 -0.2345
   76Eth    Hco 3060   2.827   2.579   9.451 -2.3961  0.5416 -1.3775
   76Eth    Hco 3061   2.674   2.525   9.513 -0.2034 -1.9778  1.3349
   76Eth     Ch 3062   2.830   2.449   9.629  0.3422 -0.5402  0.0838
   76Eth    Hcc 3063   2.933   2.481   9.641  1.1963 -1.2429 -4.5874
   76Eth    Hcc 3064   2.827   2.355   9.574 -0.8228 -0.6762  0.3667
   76Eth    Hcc 3065   2.786   2.436   9.728 -1.7705 -1.7428 -0.9718
   77Eth     Ho 3066   3.272   0.920   1.650 -0.5593 -0.1780  0.8973
   77Eth     Oh 3067   3.242   1.007   1.630 -0.1444 -0.2237  0.0662
   77Eth     Co 3068   3.350   1.074   1.574 -0.5039  0.5075  0.2798
   77Eth    Hco 3069   3.399   1.012   1.498  1.6414  2.2741  0.2123
   77Eth    Hco 3070   3.413   1.090   1.661 -1.7609 -1.3202  1.5598
   77Eth     Ch 3071   3.310   1.210   1.513  0.1913  0.1661 -0.9663
   77Eth    Hcc 3072   3.243   1.204   1.427 -0.7113 -0.2650 -0.2402
   77Eth    Hcc 3073   3.404   1.257   1.482 -0.1081  2.7009  1.6978
   77Eth    Hcc 3074   3.265   1.278   1.585 -1.3164 -3.0678  1.2415
   78Eth     Ho 3075   2.677   0.685   3.501 -1.2875  0.8716 -0.1405
   78Eth     Oh 3076   2.731   0.757   3.528 -0.2221 -0.0086  0.1100
   78Eth     Co 3077   2.731   0.764   3.671 -0.6756  0.5002 -0.9034
   78Eth    Hco 3078   2.803   0.696   3.718 -3.7036 -1.9470  0.4037
   78Eth    Hco 3079   2.637   0.716   3.699 -0.3022 -0.4049 -1.1769
   78Eth     Ch 3080   2.743   0.902   3.732 -0.6693 -0.1325  0.0799
   78Eth    Hcc 3081   2.653   0.952   3.695 -0.7504 -2.2611 -2.8069
   78Eth    Hcc 3082   2.827   0.963   3.698 -0.3147 -0.0018  1.1893
   78Eth    Hcc 3083   2.740   0.887   3.840  0.5268  1.3578  0.3409
   79Eth     Ho 3084   0.114   0.803   6.322  0.6389 -0.6792 -1.0498
   79Eth     Oh 3085   0.058   0.737   6.358  0.0904  0.2218 -0.2067
   79Eth     Co 3086   0.060   0.770   6.497  0.0643 -0.4536 -0.2863
   79Eth    Hco 3087   0.023   0.872   6.488 -0.4633 -0.7429 -1.4521
   79Eth    Hco 3088   0.158   0.764   6.544  0.2632  0.0098 -0.6347
   79Eth     Ch 3089  -0.043   0.687   6.577 -0.2038  0.3064 -0.7955
   79Eth    Hcc 3090  -0.141   0.733   6.567  0.3213  1.2588 -1.6428
   79Eth    Hcc 3091  -0.028   0.687   6.685  2.7493 -0.1629 -1.1712
   79Eth    Hcc 3092  -0.033   0.579   6.562  1.2015  0.5637 -1.8162
   80Eth     Ho 3093   2.331   2.582   9.665 -1.2799  1.2602 -0.3317
   80Eth     Oh 3094   2.317   2.547   9.751  0.0829  0.2809 -0.4969
   80Eth     Co 3095   2.443   2.539   9.817 -0.5726 -0.1032 -0.3315
   80Eth    Hco 3096   2.535   2.528   9.759 -0.3965 -1.3075  0.1613
   80Eth    Hco 3097   2.456   2.453   9.883  1.8349  0.0548 -0.5693
   80Eth     Ch 3098   2.479   2.671   9.894 -0.3897 -0.3256 -0.4465
   80Eth    Hcc 3099   2.390   2.704   9.947 -0.4165 -1.3819  0.1637
   80Eth    Hcc 3100   2.504   2.753   9.826  0.5018 -3.1096 -3.6008
   80Eth    Hcc 3101   2.564   2.654   9.960 -0.5296  3.2543  0.7635
   81Eth     Ho 3102   0.999   0.445   7.448 -0.3191 -0.1137 -4.6002
   81Eth     Oh 3103   1.083   0.403   7.444  0.3941  0.5867 -0.3481
   81Eth     Co 3104   1.164   0.506   7.387 -0.0222 -0.4337  0.2658
   81Eth    Hco 3105   1.194   0.576   7.465  2.1361 -2.0681  0.9467
   81Eth    Hco 3106   1.102   0.555   7.311  0.7598  0.6970  0.3416
   81Eth     Ch 3107   1.275   0.428   7.327  0.2121  0.3079  0.0187
   81Eth    Hcc 3108   1.238   0.338   7.279  1.5467  0.2998 -1.0109
   81Eth    Hcc 3109   1.348   0.399   7.403 -1.4945 -2.1716  0.7825
   81Eth    Hcc 3110   1.324   0.494   7.255 -2.0334  1.4405 -0.5333
   82Eth     Ho 3111   2.572   2.120   1.652  1.3417  2.2723 -0.0784
   82Eth     Oh 3112   2.493   2.131   1.700  0.7135 -0.2211 -0.4511
   82Eth     Co 3113   2.401   2.034   1.642  0.0091  0.0105 -0.4726
   82Eth    Hco 3114   2.440   2.030   1.540 -0.6005  0.7565 -0.7381
   82Eth    Hco 3115   2.299   2.074   1.639  0.1983  0.4114 -2.4598
   82Eth     Ch 3116   2.421   1.892   1.709  0.0460 -0.2218 -0.0411
   82Eth    Hcc 3117   2.526   1.865   1.717  0.0058 -0.6540 -0.8940
   82Eth    Hcc 3118   2.374   1.817   1.645  1.3695 -0.1506 -1.0985
   82Eth    Hcc 3119   2.372   1.874   1.805 -2.2800  0.1550 -1.1034
   83Eth     Ho 3120   1.862   3.183   3.975  1.8088  0.1828  0.3087
   83Eth     Oh 3121   1.883   3.271   3.998  0.1154  0.5202  0.6235
   83Eth     Co 3122   1.839   3.279   4.132 -0.6275 -0.7544 -0.6447
   83Eth    Hco 3123   1.924   3.261   4.199 -0.2335  3.8589  0.2624
   83Eth    Hco 3124   1.763   3.202   4.141 -0.4480 -1.0999 -2.0406
   83Eth     Ch 3125   1.760   3.411   4.167 -0.7051  0.0183  0.1369
   83Eth    Hcc 3126   1.680   3.439   4.098 -0.2449  0.9386 -0.0250
   83Eth    Hcc 3127   1.829   3.493   4.186  0.3034 -0.7246 -0.3147
   83Eth    Hcc 3128   1.705   3.406   4.261  1.0120  1.6966  1.2698
   84Eth     Ho 3129   1.107   0.433   1.848 -0.6532  0.3567 -1.0206
   84Eth     Oh 3130   1.087   0.341   1.843  0.1010  0.1173  0.1676
   84Eth     Co 3131   1.150   0.312   1.722  1.1627 -0.2295  0.5363
   84Eth    Hco 3132   1.258   0.316   1.738  1.1548 -3.2900  1.8209
   84Eth    Hco 3133   1.117   0.385   1.649  2.1637 -0.8721 -0.5914
   84Eth     Ch 3134   1.114   0.167   1.676 -0.0155 -0.4919  0.3908
   84Eth    Hcc 3135   1.005   0.162   1.675  0.0430 -1.9412 -0.8685
   84Eth    Hcc 3136   1.148   0.091   1.746  0.9971 -1.1328 -0.7745
   84Eth    Hcc 3137   1.146   0.147   1.573 -0.7244 -0.7897  0.2245
   85Eth     Ho 3138   0.960   1.069   1.974  1.9818  0.1352  1.2435
   85Eth     Oh 3139   0.956   0.992   2.028 -0.1489 -0.1935  0.6925
   85Eth     Co 3140   0.959   1.046   2.157 -0.2438  0.8475  0.1775
   85Eth    Hco 3141   0.890   1.130   2.165 -0.7158  0.4905 -0.1076
   85Eth    Hco 3142   1.060   1.086   2.159  0.4337 -0.8491  2.4973
   85Eth     Ch 3143   0.929   0.945   2.267  0.3135  0.0545 -1.0918
   85Eth    Hcc 3144   1.012   0.874   2.265 -0.9004 -1.3690 -1.0326
   85Eth    Hcc 3145   0.827   0.917   2.243 -0.4325  0.4182  1.5062
   85Eth    Hcc 3146   0.928   0.999   2.362 -0.3925 -0.6050 -0.7152
   86Eth     Ho 3147   0.664   2.536   4.596  0.6479 -2.1625  0.6992
   86Eth     Oh 3148   0.581   2.492   4.586 -0.3570 -0.2154  0.2000
   86Eth     Co 3149   0.619   2.364   4.538 -0.0492 -0.1406  0.0534
   86Eth    Hco 3150   0.679   2.321   4.618  1.0102 -0.4528 -0.9034
   86Eth    Hco 3151   0.687   2.389   4.457  1.4984  2.0872  1.9430
   86Eth     Ch 3152   0.503   2.271   4.511  0.1425 -0.4083 -0.7159
   86Eth    Hcc 3153   0.445   2.246   4.600  3.0525  1.4356  1.7869
   86Eth    Hcc 3154   0.552   2.180   4.475  0.1308 -0.5711 -0.3170
   86Eth    Hcc 3155   0.435   2.313   4.436 -0.7335 -0.2367  0.1732
   87Eth     Ho 3156   3.124   1.511   1.788 -1.9970  0.4982 -0.5768
   87Eth     Oh 3157   3.110   1.418   1.790  0.4182  0.1125  0.1291
   87Eth     Co 3158   2.987   1.390   1.732 -0.1386 -0.3193  0.0620
   87Eth    Hco 3159   2.992   1.442   1.636 -0.6422  2.3097  1.4147
   87Eth    Hco 3160   2.910   1.441   1.789  0.9983  3.2881 -1.5113
   87Eth     Ch 3161   2.948   1.244   1.700  0.0187  0.2455  0.3379
   87Eth    Hcc 3162   3.006   1.195   1.622  0.7124 -1.3528  1.8185
   87Eth    Hcc 3163   2.847   1.253   1.661  1.7503  1.4679 -4.2205
   87Eth    Hcc 3164   2.942   1.177   1.786 -2.3569  0.3429  0.2747
   88Eth     Ho 3165   2.603   2.569   4.277 -0.0593 -0.4097  0.8698
   88Eth     Oh 3166   2.617   2.478   4.299  0.9932 -0.4449  0.0970
   88Eth     Co 3167   2.752   2.450   4.262  0.0362  0.3584 -0.3190
   88Eth    Hco 3168   2.810   2.528   4.311  0.6893 -0.2358 -0.1474
   88Eth    Hco 3169   2.767   2.441   4.154 -0.1270  0.0880 -0.3202
   88Eth     Ch 3170   2.788   2.310   4.318  0.2085  0.4214  0.1730
   88Eth    Hcc 3171   2.894   2.290   4.330  0.6087  2.3255  0.0415
   88Eth    Hcc 3172   2.749   2.247   4.238 -0.0892 -1.5316  1.8178
   88Eth    Hcc 3173   2.741   2.288   4.414  2.9893 -2.6007  0.9276
   89Eth     Ho 3174   2.820   1.888   1.652  1.9416 -0.7119 -1.3973
   89Eth     Oh 3175   2.796   1.799   1.634  0.1050 -0.4125 -0.5305
   89Eth     Co 3176   2.738   1.802   1.504 -0.8333 -0.6406  0.4477
   89Eth    Hco 3177   2.810   1.845   1.434 -0.3804  0.3002  1.4626
   89Eth    Hco 3178   2.655   1.871   1.521 -1.2789 -1.3281  1.1037
   89Eth     Ch 3179   2.680   1.671   1.452  0.1030 -0.7052 -0.2240
   89Eth    Hcc 3180   2.587   1.645   1.501  0.1145  1.4145  0.9869
   89Eth    Hcc 3181   2.746   1.585   1.466 -0.6281 -1.0948  0.8881
   89Eth    Hcc 3182   2.642   1.681   1.350  1.0268  1.4546 -0.3884
   90Eth     Ho 3183   2.265   2.623   5.238  0.4906  2.8481 -0.3591
   90Eth     Oh 3184   2.262   2.632   5.145 -0.0932  0.1818 -0.6554
   90Eth     Co 3185   2.222   2.497   5.108 -0.5344 -0.3405 -0.2723
   90Eth    Hco 3186   2.135   2.450   5.153 -1.3597  1.7075  0.3421
   90Eth    Hco 3187   2.308   2.436   5.134 -2.6750 -3.1702  0.3829
   90Eth     Ch 3188   2.189   2.501   4.956  0.6216 -0.3764  0.3888
   90Eth    Hcc 3189   2.116   2.576   4.927  2.4310  1.2943  0.0355
   90Eth    Hcc 3190   2.166   2.408   4.905  0.4471  0.0733 -0.3694
   90Eth    Hcc 3191   2.272   2.540   4.896 -0.0144  1.8847  0.9086
   91Eth     Ho 3192   2.648   1.907   5.605 -2.3859 -3.4550  2.2660
   91Eth     Oh 3193   2.656   1.852   5.529  0.1726 -0.2715  0.0873
   91Eth     Co 3194   2.656   1.718   5.577 -0.1492  0.0942  0.1170
   91Eth    Hco 3195   2.592   1.713   5.666  0.7673 -1.6378  0.7110
   91Eth    Hco 3196   2.749   1.683   5.624 -2.1908 -4.9245  0.7802
   91Eth     Ch 3197   2.612   1.621   5.473  0.4485  0.1114  0.4095
   91Eth    Hcc 3198   2.512   1.652   5.442  1.4221  0.8661 -2.0967
   91Eth    Hcc 3199   2.613   1.518   5.509  0.1095  0.1684  0.5811
   91Eth    Hcc 3200   2.674   1.634   5.384  0.4200 -0.4926  0.3015
   92Eth     Ho 3201   2.607   3.324   2.238  1.5164 -0.4319  1.2667
   92Eth     Oh 3202   2.540   3.290   2.293 -0.0069 -0.0082 -0.2840
   92Eth     Co 3203   2.571   3.335   2.425  0.3513 -0.1959 -0.1288
   92Eth    Hco 3204   2.608   3.436   2.411 -0.0594 -0.0351 -0.0600
   92Eth    Hco 3205   2.652   3.277   2.469 -0.6661  0.5478  2.7886
   92Eth     Ch 3206   2.447   3.327   2.522  0.4203 -0.3453  0.2525
   92Eth    Hcc 3207   2.373   3.392   2.477  0.0740  0.3816  1.8485
   92Eth    Hcc 3208   2.481   3.360   2.620  0.9903  1.3152 -0.4942
   92Eth    Hcc 3209   2.416   3.222   2.530  1.3980 -0.7574 -1.0638
   93Eth     Ho 3210   2.107   2.680   4.400  0.1890  1.2872  0.0717
   93Eth     Oh 3211   2.118   2.664   4.308  0.3321 -0.0682  0.3085
   93Eth     Co 3212   2.204   2.553   4.290 -0.2785  0.1555 -0.3679
   93Eth    Hco 3213   2.148   2.460   4.301  0.4252 -0.2712 -0.4405
   93Eth    Hco 3214   2.280   2.550   4.368 -1.6215  1.3246  1.0256
   93Eth     Ch 3215   2.285   2.570   4.163  0.3360 -0.3708  0.2233
   93Eth    Hcc 3216   2.321   2.672   4.152  1.7952 -0.6179  2.2479
   93Eth    Hcc 3217   2.226   2.542   4.076  0.7308 -0.7554  0.0754
   93Eth    Hcc 3218   2.364   2.495   4.167 -0.7482 -1.5053  0.6203
   94Eth     Ho 3219   0.660   0.166   7.097  1.4193 -0.8339 -2.1732
   94Eth     Oh 3220   0.600   0.212   7.041  0.1343  0.8150  0.4641
   94Eth     Co 3221   0.469   0.170   7.074 -0.6723  0.1839 -0.0410
   94Eth    Hco 3222   0.439   0.164   7.179 -0.0074 -1.8135  0.0648
   94Eth    Hco 3223   0.463   0.068   7.036 -0.3553  0.8075 -1.7920
   94Eth     Ch 3224   0.368   0.264   6.993  0.0597 -0.7479  0.0291
   94Eth    Hcc 3225   0.368   0.369   7.023  1.5466 -1.1577  1.6012
   94Eth    Hcc 3226   0.266   0.230   7.012 -0.1537  0.5142  1.2546
   94Eth    Hcc 3227   0.378   0.264   6.885  0.6751  1.8598  0.0506
   95Eth     Ho 3228   0.980   3.114   1.432 -0.6837 -1.6705  1.5824
   95Eth     Oh 3229   1.067   3.126   1.465 -0.3645 -0.2559  0.3017
   95Eth     Co 3230   1.087   3.269   1.470  0.0127  0.1790  0.2252
   95Eth    Hco 3231   1.003   3.313   1.523 -1.6218 -0.2949 -1.8803
   95Eth    Hco 3232   1.096   3.319   1.373 -1.2042 -0.7065 -0.3502
   95Eth     Ch 3233   1.209   3.305   1.552  0.4967  0.1701  0.5294
   95Eth    Hcc 3234   1.300   3.250   1.525 -0.9206 -3.3776  2.6751
   95Eth    Hcc 3235   1.194   3.306   1.660 -0.9593 -1.9458  0.3908
   95Eth    Hcc 3236   1.240   3.407   1.528 -0.7555  0.3495 -0.3470
   96Eth     Ho 3237   3.200   3.249   1.419  0.9681  0.2218 -1.4103
   96Eth     Oh 3238   3.200   3.158   1.442 -0.6751  0.5096 -0.1165
   96Eth     Co 3239   3.242   3.146   1.583 -0.7141  0.0532 -0.1728
   96Eth    Hco 3240   3.169   3.197   1.646  0.1106  2.4851 -1.1434
   96Eth    Hco 3241   3.334   3.203   1.578 -0.7877  0.1043 -1.1669
   96Eth     Ch 3242   3.277   3.000   1.638 -0.2118 -0.0139  0.3519
   96Eth    Hcc 3243   3.188   2.946   1.669  1.0528 -2.0722  0.5508
   96Eth    Hcc 3244   3.337   3.006   1.729  1.3233  0.1402 -0.6414
   96Eth    Hcc 3245   3.325   2.927   1.571 -0.5191 -0.8011  0.9794
   97Eth     Ho 3246   1.771   2.243   9.916  3.3777  1.1578  0.5793
   97Eth     Oh 3247   1.800   2.156   9.937 -0.1647 -0.1595  0.3419
   97Eth     Co 3248   1.935   2.176   9.944 -0.2897 -0.4126  0.1104
   97Eth    Hco 3249   1.964   2.192  10.047 -2.4737  0.2799  0.6562
   97Eth    Hco 3250   1.958   2.261   9.879 -0.6571  0.0146  0.5297
   97Eth     Ch 3251   2.009   2.046   9.912  0.0969  0.2571 -0.3086
   97Eth    Hcc 3252   2.112   2.069   9.940  0.1613 -1.6001  1.0800
   97Eth    Hcc 3253   1.997   2.004   9.812 -0.3355  0.5511 -0.3774
   97Eth    Hcc 3254   1.971   1.983   9.993 -2.7384  0.6883 -1.2624
   98Eth     Ho 3255   0.082   1.978   9.784 -0.2502 -0.5004 -0.2102
   98Eth     Oh 3256  -0.011   1.983   9.771 -0.2565 -0.6281 -0.2154
   98Eth     Co 3257  -0.043   2.098   9.853  0.2808 -0.3526 -0.7952
   98Eth    Hco 3258   0.044   2.151   9.891 -0.8659  0.3039  0.9665
   98Eth    Hco 3259  -0.098   2.061   9.939  0.1186  1.7379  0.0208
   98Eth     Ch 3260  -0.136   2.184   9.772  0.3057 -0.4095 -0.0573
   98Eth    Hcc 3261  -0.150   2.268   9.840  2.0790  0.4311 -0.6924
   98Eth    Hcc 3262  -0.229   2.130   9.759  0.2049  0.2662 -2.2545
   98Eth    Hcc 3263  -0.088   2.211   9.678  0.4827  0.7442  0.3445
   99Eth     Ho 3264   2.886   0.933   6.018  0.0534 -0.2823  1.7148
   99Eth     Oh 3265   2.875   1.020   6.052  0.0476  0.0492  0.8830
   99Eth     Co 3266   2.767   1.077   5.982 -0.1025 -0.8825 -0.0956
   99Eth    Hco 3267   2.791   1.116   5.883 -0.5340  0.8425  0.4564
   99Eth    Hco 3268   2.732   1.163   6.039 -2.4101 -0.2797 -2.3208
   99Eth     Ch 3269   2.639   1.001   6.000  0.9620  0.3599  0.7309
   99Eth    Hcc 3270   2.619   0.986   6.106 -1.7385 -0.3747  0.1445
   99Eth    Hcc 3271   2.631   0.913   5.936 -1.9310  0.5252  0.8228
   99Eth    Hcc 3272   2.560   1.066   5.962  0.8834  0.3863  0.9401
  100Eth     Ho 3273   1.803   1.900   2.236 -0.9414 -0.7999 -0.2549
  100Eth     Oh 3274   1.766   1.858   2.312 -0.2131 -0.5736  0.2278
  100Eth     Co 3275   1.875   1.795   2.378  0.5088  0.2159  0.2481
  100Eth    Hco 3276   1.944   1.866   2.422 -0.0699 -1.6393  4.3996
  100Eth    Hco 3277   1.925   1.737   2.300 -1.7792  0.6229 -1.5766
  100Eth     Ch 3278   1.819   1.685   2.474 -0.6085 -0.6783  0.0409
  100Eth    Hcc 3279   1.758   1.733   2.550 -1.5268  0.8897 -1.6376
  100Eth    Hcc 3280   1.905   1.640   2.523  1.2892  2.0007 -0.7108
  100Eth    Hcc 3281   1.771   1.602   2.420  0.1798 -0.5286 -0.9113
  101Eth     Ho 3282   3.088   1.765   1.803 -0.0367 -1.0355  2.3278
  101Eth     Oh 3283   3.135   1.687   1.781  0.7289  0.0295  0.0508
  101Eth     Co 3284   3.215   1.705   1.666  0.6226  0.1688  0.7527
  101Eth    Hco 3285   3.294   1.633   1.646  0.7179  0.4455  0.1194
  101Eth    Hco 3286   3.272   1.798   1.675 -0.3285  0.7418  0.9607
  101Eth     Ch 3287   3.120   1.736   1.548 -0.7730 -0.0582 -0.2015
  101Eth    Hcc 3288   3.061   1.649   1.517  1.9833 -1.5895 -1.3255
  101Eth    Hcc 3289   3.180   1.756   1.460 -0.1231 -1.5545 -0.1156
  101Eth    Hcc 3290   3.051   1.817   1.569  0.2487  0.8290 -0.2742
  102Eth     Ho 3291   0.085   2.240   2.011  2.8335  2.5534 -0.9002
  102Eth     Oh 3292   0.148   2.173   1.993  0.2227 -0.1883 -0.2008
  102Eth     Co 3293   0.275   2.236   1.974  0.2919 -0.3099 -0.4502
  102Eth    Hco 3294   0.284   2.296   2.064  1.3761 -0.1689 -0.6505
  102Eth    Hco 3295   0.287   2.300   1.887 -2.3876  0.7814 -0.0712
  102Eth     Ch 3296   0.391   2.133   1.966  0.5183  0.1658 -0.2195
  102Eth    Hcc 3297   0.389   2.080   2.061 -0.1256  0.6560  0.0472
  102Eth    Hcc 3298   0.484   2.189   1.956  0.5781  0.0850 -0.1127
  102Eth    Hcc 3299   0.367   2.068   1.882 -2.7119  1.6496 -0.5226
  103Eth     Ho 3300   2.788   0.972   2.170  0.2137 -2.0340  1.4906
  103Eth     Oh 3301   2.874   0.998   2.198  0.1564  0.4312 -0.4545
  103Eth     Co 3302   2.848   1.057   2.323 -0.2921  0.5942  0.2828
  103Eth    Hco 3303   2.777   1.000   2.384 -1.2244  1.7408  0.2871
  103Eth    Hco 3304   2.814   1.159   2.308  1.5330  1.1484 -0.1210
  103Eth     Ch 3305   2.985   1.064   2.391 -0.4940  0.1698 -0.4596
  103Eth    Hcc 3306   3.057   1.125   2.336  0.5519  0.2475  0.9753
  103Eth    Hcc 3307   3.015   0.961   2.379 -2.0007 -0.2604 -0.7104
  103Eth    Hcc 3308   2.988   1.094   2.496  2.2184 -0.0100 -0.4627
  104Eth     Ho 3309   2.877   0.718   9.663  2.1199  0.9191 -1.1686
  104Eth     Oh 3310   2.917   0.651   9.716 -0.7169  0.0198 -0.1126
  104Eth     Co 3311   2.827   0.602   9.812 -0.2482 -0.6386 -0.7742
  104Eth    Hco 3312   2.743   0.563   9.755 -0.7684  0.5833 -0.8554
  104Eth    Hco 3313   2.784   0.672   9.883  0.1165 -1.3894  0.2020
  104Eth     Ch 3314   2.904   0.488   9.895 -0.2450  0.1775 -0.6297
  104Eth    Hcc 3315   2.993   0.533   9.940 -1.0483  1.3300 -0.1593
  104Eth    Hcc 3316   2.929   0.412   9.821 -3.0928  1.1673 -2.7022
  104Eth    Hcc 3317   2.850   0.437   9.975  0.0794  0.5285 -0.1788
  105Eth     Ho 3318   2.520   1.207   8.500  1.8460 -0.7157 -0.5034
  105Eth     Oh 3319   2.491   1.119   8.509 -0.2548  0.0154  0.0426
  105Eth     Co 3320   2.434   1.071   8.382 -0.3982 -0.2458 -0.1036
  105Eth    Hco 3321   2.514   1.053   8.310 -0.0830 -1.8312  0.6238
  105Eth    Hco 3322   2.372   1.147   8.336  1.2813  0.6481 -0.9302
  105Eth     Ch 3323   2.365   0.938   8.425 -0.8240 -0.5292  0.0594
  105Eth    Hcc 3324   2.273   0.961   8.479  0.2157  1.5101  1.0037
  105Eth    Hcc 3325   2.428   0.877   8.491  0.9172 -2.4150 -3.2129
  105Eth    Hcc 3326   2.364   0.872   8.338  0.9555  0.8510 -1.0332
  106Eth     Ho 3327   1.778   2.281   1.744 -1.6775  1.8709  1.2562
  106Eth     Oh 3328   1.709   2.227   1.710  0.5289 -0.1460 -0.1717
  106Eth     Co 3329   1.770   2.106   1.675  0.8724 -0.6929  0.4218
  106Eth    Hco 3330   1.717   2.016   1.705 -2.6160  1.3330  0.5526
  106Eth    Hco 3331   1.865   2.111   1.728  0.9431  0.2146  0.2159
  106Eth     Ch 3332   1.802   2.102   1.523  0.1157 -0.1328  0.0764
  106Eth    Hcc 3333   1.844   2.006   1.494 -0.6463 -1.0193  1.8129
  106Eth    Hcc 3334   1.876   2.179   1.498  0.0025 -0.0750 -0.0849
  106Eth    Hcc 3335   1.722   2.122   1.451  0.7542  1.0390 -0.3287
  107Eth     Ho 3336   1.369   1.747   7.128  2.3315  1.9053 -1.3596
  107Eth     Oh 3337   1.390   1.681   7.065 -0.1649  0.0034 -0.3205
  107Eth     Co 3338   1.281   1.595   7.074 -0.5013 -0.8635 -0.1987
  107Eth    Hco 3339   1.190   1.656   7.068 -0.2004 -0.4143 -0.2734
  107Eth    Hco 3340   1.271   1.566   7.178 -1.6438  1.0418  0.2436
  107Eth     Ch 3341   1.291   1.477   6.973 -0.1210 -0.8834  0.4122
  107Eth    Hcc 3342   1.388   1.433   6.952 -1.0420 -2.8175  0.0479
  107Eth    Hcc 3343   1.259   1.493   6.870 -1.2961 -0.6836  0.7966
  107Eth    Hcc 3344   1.221   1.404   7.013 -1.5558  0.6958  0.8699
  108Eth     Ho 3345   1.190   1.602  10.019  0.9914 -0.7781 -2.2735
  108Eth     Oh 3346   1.147   1.671   9.973  0.1228 -0.0846 -0.4905
  108Eth     Co 3347   1.023   1.627   9.931  0.3569  0.4135 -0.3030
  108Eth    Hco 3348   0.972   1.588  10.019 -1.6241 -2.3931 -2.6124
  108Eth    Hco 3349   1.035   1.545   9.860 -2.7033 -0.0032 -0.4086
  108Eth     Ch 3350   0.935   1.729   9.867 -0.2675  0.3537  0.8527
  108Eth    Hcc 3351   0.999   1.773   9.791  0.4496  2.1197  2.4310
  108Eth    Hcc 3352   0.900   1.808   9.934 -1.6683  0.6474 -0.1876
  108Eth    Hcc 3353   0.855   1.674   9.817  0.2922  0.1391  0.1886
  109Eth     Ho 3354   2.124   0.533   1.520  0.4854 -0.1373  0.4049
  109Eth     Oh 3355   2.103   0.448   1.486  0.1609  0.1310 -0.0651
  109Eth     Co 3356   1.979   0.431   1.542  0.3695 -0.1860 -0.5911
  109Eth    Hco 3357   1.908   0.513   1.540 -1.5916 -1.6788  2.4676
  109Eth    Hco 3358   1.971   0.403   1.647  1.2935 -1.0010 -0.7310
  109Eth     Ch 3359   1.903   0.319   1.468  0.1256 -0.2076  0.0850
  109Eth    Hcc 3360   1.943   0.219   1.481  0.3334 -0.3923 -1.7576
  109Eth    Hcc 3361   1.890   0.334   1.360  0.4735  1.0408  0.2048
  109Eth    Hcc 3362   1.805   0.317   1.516 -0.4587 -3.3393 -1.1381
  110Eth     Ho 3363   2.148   0.745   8.252  0.5403 -2.0587 -1.0884
  110Eth     Oh 3364   2.162   0.789   8.170  0.0384  0.0989 -0.0546
  110Eth     Co 3365   2.040   0.753   8.104 -0.0662  0.0885  0.2882
  110Eth    Hco 3366   1.980   0.844   8.094  0.4131  0.1979 -2.0284
  110Eth    Hco 3367   1.991   0.692   8.179 -1.6521  1.1137  0.0999
  110Eth     Ch 3368   2.070   0.683   7.978 -0.0272  0.4086 -0.5818
  110Eth    Hcc 3369   2.121   0.747   7.906 -1.7335 -0.7291 -2.8465
  110Eth    Hcc 3370   1.976   0.676   7.923  0.6189 -0.6359 -1.5557
  110Eth    Hcc 3371   2.114   0.584   7.979  0.2600  0.5101  2.7083
  111Eth     Ho 3372   1.506   3.008   1.515  0.3774 -0.2481 -2.7020
  111Eth     Oh 3373   1.593   2.986   1.545 -0.3101  0.1273 -0.4008
  111Eth     Co 3374   1.587   2.844   1.561  0.2513 -0.6667  0.1250
  111Eth    Hco 3375   1.567   2.797   1.464  0.0147  0.3740 -0.3368
  111Eth    Hco 3376   1.501   2.819   1.622  0.7176 -1.9825  0.2592
  111Eth     Ch 3377   1.712   2.779   1.617  0.1075 -0.1377 -0.4987
  111Eth    Hcc 3378   1.694   2.672   1.615  1.8020 -0.4806  1.3883
  111Eth    Hcc 3379   1.734   2.820   1.716 -1.6777  0.2414 -0.2370
  111Eth    Hcc 3380   1.797   2.797   1.551  0.3600 -0.5299 -0.2816
  112Eth     Ho 3381   1.633   2.890   2.882  1.0837 -2.8307 -0.2620
  112Eth     Oh 3382   1.545   2.859   2.870 -0.0707  0.2087 -0.0858
  112Eth     Co 3383   1.535   2.715   2.886  0.1379  0.1910  0.0226
  112Eth    Hco 3384   1.536   2.675   2.987  2.2100 -3.3117 -1.3257
  112Eth    Hco 3385   1.622   2.668   2.839 -0.9212 -1.5712 -0.2060
  112Eth     Ch 3386   1.402   2.659   2.834  0.4198 -0.4659  0.4287
  112Eth    Hcc 3387   1.398   2.633   2.728 -2.2541 -1.3389  0.6902
  112Eth    Hcc 3388   1.322   2.727   2.864 -0.2234 -1.3128  0.6805
  112Eth    Hcc 3389   1.381   2.563   2.881  0.8654 -0.0707  1.4639
  113Eth     Ho 3390   2.733   0.084   2.129 -1.6513 -0.6025 -0.2284
  113Eth     Oh 3391   2.724  -0.008   2.147  0.1966 -0.8522 -0.3955
  113Eth     Co 3392   2.805  -0.077   2.063 -0.6438 -0.0985  0.1365
  113Eth    Hco 3393   2.903  -0.030   2.063 -0.9557  0.5542 -0.5357
  113Eth    Hco 3394   2.764  -0.077   1.962  0.1588  2.0020 -0.1993
  113Eth     Ch 3395   2.820  -0.222   2.107 -0.9622  0.4395 -0.1361
  113Eth    Hcc 3396   2.896  -0.280   2.054  0.1049 -1.1332  2.9869
  113Eth    Hcc 3397   2.720  -0.266   2.102 -0.4652 -0.6290 -1.0151
  113Eth    Hcc 3398   2.845  -0.229   2.212 -0.6354 -0.2390 -0.2522
  114Eth     Ho 3399   0.849   1.939   9.692 -4.6477  0.6825  1.0539
  114Eth     Oh 3400   0.869   2.017   9.740 -0.0806 -0.0127  0.5077
  114Eth     Co 3401   0.753   2.046   9.815  0.0873  0.5816 -0.2201
  114Eth    Hco 3402   0.764   2.000   9.913 -0.1650  0.2406 -0.3516
  114Eth    Hco 3403   0.662   2.019   9.762  1.1948 -1.0214 -1.3433
  114Eth     Ch 3404   0.750   2.198   9.839 -0.2490  0.0459  0.3214
  114Eth    Hcc 3405   0.656   2.216   9.891 -0.5680  0.7886 -0.5102
  114Eth    Hcc 3406   0.744   2.246   9.741  0.1717 -1.7711 -0.6380
  114Eth    Hcc 3407   0.835   2.237   9.894 -1.8008  1.5828  1.6813
  115Eth     Ho 3408   0.151   3.438   1.666 -0.4207  0.7741 -0.1785
  115Eth     Oh 3409   0.176   3.463   1.579 -0.0235  0.0831 -0.2613
  115Eth     Co 3410   0.306   3.411   1.553  0.0116 -0.7630 -0.8688
  115Eth    Hco 3411   0.356   3.385   1.646  0.5869  1.9319 -0.3760
  115Eth    Hco 3412   0.374   3.485   1.511 -0.0799  0.0799  0.4415
  115Eth     Ch 3413   0.294   3.284   1.475  0.8287  0.2095  0.0254
  115Eth    Hcc 3414   0.393   3.248   1.450  0.5875  1.1736 -2.4609
  115Eth    Hcc 3415   0.230   3.287   1.387 -2.4013 -2.9421  2.1081
  115Eth    Hcc 3416   0.254   3.208   1.543  3.5242 -2.1748 -0.9576
  116Eth     Ho 3417   2.145   1.013   6.825  0.1699  0.6276  0.3435
  116Eth     Oh 3418   2.170   0.936   6.874 -0.6193 -0.0360 -0.2888
  116Eth     Co 3419   2.101   0.956   7.004 -0.2787 -0.3051 -0.7324
  116Eth    Hco 3420   2.009   1.006   6.973  0.0212  0.2889 -0.6633
  116Eth    Hco 3421   2.142   1.034   7.068 -1.2409  0.5961 -1.1775
  116Eth     Ch 3422   2.088   0.832   7.089  0.1948  0.0976  0.3620
  116Eth    Hcc 3423   2.189   0.813   7.124  0.2213  0.1546  0.3171
  116Eth    Hcc 3424   2.046   0.745   7.039 -0.7481 -0.5980  2.3017
  116Eth    Hcc 3425   2.033   0.856   7.180  2.0818  2.1768  0.9999
  117Eth     Ho 3426   2.728   1.100   5.328  1.0631 -0.8908  1.9241
  117Eth     Oh 3427   2.744   1.010   5.311 -0.2474 -0.9708  1.0092
  117Eth     Co 3428   2.618   0.945   5.283 -0.6809 -0.1347  0.1752
  117Eth    Hco 3429   2.560   0.989   5.202 -1.5550 -2.3716 -0.4252
  117Eth    Hco 3430   2.563   0.936   5.377 -0.8154  0.1075  0.1214
  117Eth     Ch 3431   2.642   0.794   5.246 -0.6490 -0.0419  0.7401
  117Eth    Hcc 3432   2.709   0.785   5.160  0.0474  0.7738  1.1848
  117Eth    Hcc 3433   2.558   0.738   5.204  0.3281  0.5792 -2.2100
  117Eth    Hcc 3434   2.686   0.740   5.330  1.2501 -0.7519 -0.6651
  118Eth     Ho 3435   2.214   2.446   1.546  0.2175 -0.0727 -1.0976
  118Eth     Oh 3436   2.139   2.501   1.538  0.0483 -0.0654  0.3667
  118Eth     Co 3437   2.029   2.422   1.514 -0.0676 -0.8026  0.0054
  118Eth    Hco 3438   2.006   2.356   1.597 -0.8683 -0.3773  0.1280
  118Eth    Hco 3439   2.043   2.350   1.433 -0.2472 -2.4408  1.4207
  118Eth     Ch 3440   1.914   2.507   1.493  0.7728  0.0392  0.1438
  118Eth    Hcc 3441   1.825   2.447   1.473  0.2243  0.5932  0.8774
  118Eth    Hcc 3442   1.921   2.571   1.405  0.0801 -0.1779 -0.0713
  118Eth    Hcc 3443   1.889   2.562   1.584 -0.7826 -0.5744  0.1082
  119Eth     Ho 3444   0.597   0.917   2.964 -0.4374  1.1849 -0.6458
  119Eth     Oh 3445   0.503   0.909   2.963 -0.3100 -0.4488 -0.7553
  119Eth     Co 3446   0.456   1.015   2.880 -0.1203 -0.0619  0.3116
  119Eth    Hco 3447   0.523   1.016   2.793  2.3966 -1.3398  2.1616
  119Eth    Hco 3448   0.469   1.118   2.914 -0.1818 -0.4509  1.5314
  119Eth     Ch 3449   0.308   0.989   2.852  0.2226 -0.1003  0.3603
  119Eth    Hcc 3450   0.288   0.918   2.772 -0.5518 -1.8020  1.9981
  119Eth    Hcc 3451   0.264   1.085   2.824  0.5239  0.1320  0.6796
  119Eth    Hcc 3452   0.246   0.957   2.936 -0.2094  1.0083  0.4701
  120Eth     Ho 3453   0.061   0.427   5.509  0.2956 -0.5096 -1.2888
  120Eth     Oh 3454   0.012   0.349   5.529  0.2973 -0.1860  0.0001
  120Eth     Co 3455  -0.090   0.404   5.607 -0.1723  0.2470  0.1263
  120Eth    Hco 3456  -0.117   0.502   5.566  1.9749  0.5128 -0.7097
  120Eth    Hco 3457  -0.052   0.409   5.710 -2.4425  0.9714  0.9674
  120Eth     Ch 3458  -0.218   0.316   5.609  0.0003  0.5184  0.5514
  120Eth    Hcc 3459  -0.193   0.219   5.653  2.1650  1.4388  1.4236
  120Eth    Hcc 3460  -0.257   0.302   5.509 -1.0795 -1.1811  1.1910
  120Eth    Hcc 3461  -0.300   0.353   5.671  0.6673  0.7328  1.3257
  121Eth     Ho 3462   1.662   1.143   6.510 -0.3996  0.4965 -0.7255
  121Eth     Oh 3463   1.653   1.218   6.566  0.3816 -0.1393  0.2679
  121Eth     Co 3464   1.591   1.159   6.691  0.5761 -0.1634 -0.4952
  121Eth    Hco 3465   1.649   1.074   6.725  1.2130  0.6845  0.5792
  121Eth    Hco 3466   1.494   1.115   6.669  0.8163 -0.7556 -0.3509
  121Eth     Ch 3467   1.561   1.272   6.784 -0.0825  0.4939 -0.3042
  121Eth    Hcc 3468   1.515   1.238   6.877 -0.2250 -1.2125 -0.9903
  121Eth    Hcc 3469   1.492   1.347   6.746  0.6865  1.3259 -0.0732
  121Eth    Hcc 3470   1.652   1.326   6.812  0.3111  0.2544 -1.1044
  122Eth     Ho 3471   3.290   2.602   9.510 -2.5568  1.5428 -0.6565
  122Eth     Oh 3472   3.333   2.659   9.570 -0.0630 -0.3615 -0.5301
  122Eth     Co 3473   3.266   2.638   9.692 -0.2924  0.1787 -0.3709
  122Eth    Hco 3474   3.309   2.551   9.743 -0.5435  0.6571  0.6747
  122Eth    Hco 3475   3.162   2.613   9.671 -0.2287  0.2571 -0.7661
  122Eth     Ch 3476   3.277   2.765   9.772  0.3767  0.3809  0.7674
  122Eth    Hcc 3477   3.196   2.837   9.754 -1.0509 -1.6304 -1.1089
  122Eth    Hcc 3478   3.375   2.812   9.758  0.3201  0.2011 -0.2908
  122Eth    Hcc 3479   3.260   2.735   9.875  0.7177  0.9848  1.0058
  123Eth     Ho 3480   2.899   1.196   9.565 -0.8245 -2.6373 -1.0029
  123Eth     Oh 3481   2.838   1.193   9.636  0.5174  0.1141  0.3479
  123Eth     Co 3482   2.907   1.256   9.746 -0.0507  0.5078 -0.5441
  123Eth    Hco 3483   2.909   1.359   9.710 -0.9604  0.5860 -0.3766
  123Eth    Hco 3484   3.004   1.208   9.749  0.8718  2.3227 -0.2543
  123Eth     Ch 3485   2.834   1.228   9.874 -0.4350  0.2537 -0.3593
  123Eth    Hcc 3486   2.872   1.140   9.926 -0.8546  1.6946  2.5488
  123Eth    Hcc 3487   2.725   1.230   9.863 -0.6244 -1.0653  0.9984
  123Eth    Hcc 3488   2.851   1.304   9.951 -3.5500 -1.1683  1.8886
  124Eth     Ho 3489   1.021   2.866   9.929 -0.4152  0.5592  1.1943
  124Eth     Oh 3490   1.088   2.930   9.912 -0.1906 -0.0320 -0.2583
  124Eth     Co 3491   1.209   2.864   9.956  0.4999 -0.3485  0.6266
  124Eth    Hco 3492   1.176   2.797  10.035 -0.6677 -0.0212  0.4384
  124Eth    Hco 3493   1.276   2.941   9.996  1.5156 -1.9897  2.1528
  124Eth     Ch 3494   1.289   2.783   9.860 -0.2983 -0.0101 -0.4420
  124Eth    Hcc 3495   1.322   2.832   9.768 -0.2301  2.6543  0.9399
  124Eth    Hcc 3496   1.233   2.696   9.826  0.3125 -0.4431 -0.3477
  124Eth    Hcc 3497   1.378   2.747   9.912  0.3157  2.6159  0.4062
  125Eth     Ho 3498   0.952   2.134   2.511  0.3040  0.6158 -0.6951
  125Eth     Oh 3499   0.947   2.094   2.425 -0.0588  0.2115 -0.4920
  125Eth     Co 3500   0.869   1.975   2.429 -0.4391 -0.3299  0.3140
  125Eth    Hco 3501   0.780   1.992   2.490  0.3266 -1.2514  1.7279
  125Eth    Hco 3502   0.914   1.881   2.462  0.9689 -0.8964 -3.0595
  125Eth     Ch 3503   0.826   1.961   2.276  0.8457  0.0512 -1.2830
  125Eth    Hcc 3504   0.788   1.861   2.253 -1.2487 -0.5548  4.1496
  125Eth    Hcc 3505   0.913   1.995   2.218  1.4559  1.5433  0.4684
  125Eth    Hcc 3506   0.752   2.037   2.249  0.0147 -0.7486 -1.2784
  126Eth     Ho 3507   3.087   3.337   9.546  0.9795  0.9201  1.5478
  126Eth     Oh 3508   3.091   3.263   9.603  0.0266 -0.1365  0.2676
  126Eth     Co 3509   3.227   3.250   9.636 -0.6839 -0.3604 -0.2231
  126Eth    Hco 3510   3.281   3.345   9.632  0.8148 -1.1999 -0.1637
  126Eth    Hco 3511   3.275   3.191   9.558  1.3752 -0.8160  1.3498
  126Eth     Ch 3512   3.220   3.166   9.772  0.1343  0.0232 -0.1629
  126Eth    Hcc 3513   3.176   3.228   9.849  0.1787  0.7919 -0.7456
  126Eth    Hcc 3514   3.325   3.173   9.801  0.3792  0.6845 -1.1747
  126Eth    Hcc 3515   3.181   3.065   9.759  2.4202 -0.8154 -0.8361
  127Eth     Ho 3516   1.492   2.276   7.180 -1.6303  0.0477 -0.2381
  127Eth     Oh 3517   1.529   2.321   7.106 -0.1868 -0.7421 -0.0210
  127Eth     Co 3518   1.516   2.455   7.141 -0.3593 -0.1111  0.0820
  127Eth    Hco 3519   1.613   2.504   7.148 -0.6182  0.2582  1.1650
  127Eth    Hco 3520   1.458   2.475   7.231  2.7373  1.1978  1.8480
  127Eth     Ch 3521   1.450   2.522   7.019 -0.4280  0.1205  0.4087
  127Eth    Hcc 3522   1.439   2.627   7.044  0.0362 -0.0640  1.4148
  127Eth    Hcc 3523   1.351   2.480   6.999 -0.3323 -1.3308  2.7826
  127Eth    Hcc 3524   1.506   2.517   6.926  0.6755  4.8060  0.7422
  128Eth     Ho 3525   1.720   3.438   2.024 -0.0060  0.6551  0.3998
  128Eth     Oh 3526   1.741   3.516   1.976  0.7279  0.1508 -0.1178
  128Eth     Co 3527   1.805   3.474   1.858 -0.3114 -0.2950 -0.2388
  128Eth    Hco 3528   1.757   3.393   1.802 -1.8088 -0.9543  1.9205
  128Eth    Hco 3529   1.903   3.432   1.878  0.4883  1.8627  0.5063
  128Eth     Ch 3530   1.825   3.596   1.775 -0.1438 -0.2299 -0.0544
  128Eth    Hcc 3531   1.727   3.630   1.743 -0.6878 -1.7845 -0.0663
  128Eth    Hcc 3532   1.871   3.551   1.687  1.9908  0.5087  0.6625
  128Eth    Hcc 3533   1.882   3.672   1.829 -0.4692  1.0169 -1.4188
  129Eth     Ho 3534   0.305   3.289   9.878  1.9427  0.4632 -1.6572
  129Eth     Oh 3535   0.305   3.198   9.851  0.2147  0.0616 -0.4361
  129Eth     Co 3536   0.308   3.116   9.963 -0.3829  0.1160 -0.5086
  129Eth    Hco 3537   0.212   3.107  10.014 -0.0197 -0.6360  0.0573
  129Eth    Hco 3538   0.363   3.162  10.045 -2.5105 -1.2638  1.7714
  129Eth     Ch 3539   0.351   2.964   9.943 -0.2496  0.3035  0.2515
  129Eth    Hcc 3540   0.281   2.900   9.889  1.1469 -0.8176 -0.2858
  129Eth    Hcc 3541   0.377   2.924  10.041  0.5568  1.4091  0.4934
  129Eth    Hcc 3542   0.452   2.963   9.900 -0.3008 -0.7964  0.1361
  130Eth     Ho 3543   1.347   1.390   9.631  0.3795 -0.8498 -1.8366
  130Eth     Oh 3544   1.437   1.374   9.654  0.0553  0.5195  0.5408
  130Eth     Co 3545   1.446   1.397   9.791 -0.5356 -0.0506 -0.1166
  130Eth    Hco 3546   1.367   1.342   9.841  0.0101  0.7131  1.6096
  130Eth    Hco 3547   1.418   1.500   9.814  0.2741  0.1631 -0.0665
  130Eth     Ch 3548   1.583   1.346   9.829 -0.3060  0.6183 -0.0671
  130Eth    Hcc 3549   1.661   1.387   9.765  2.0458 -0.0391  2.2845
  130Eth    Hcc 3550   1.582   1.238   9.839  0.6087  0.2409 -3.5575
  130Eth    Hcc 3551   1.608   1.382   9.930 -0.0825 -2.4836  1.0223
  131Eth     Ho 3552   2.677   0.741   1.681 -1.7563  2.9136 -0.2460
  131Eth     Oh 3553   2.592   0.710   1.654 -0.7959  0.3630 -0.4607
  131Eth     Co 3554   2.496   0.801   1.707  0.5598 -0.1862  0.0977
  131Eth    Hco 3555   2.524   0.903   1.680 -0.7349  0.0978 -0.2079
  131Eth    Hco 3556   2.499   0.789   1.815  0.4160 -2.9544 -0.1746
  131Eth     Ch 3557   2.356   0.780   1.646  0.2795  0.2029  0.3743
  131Eth    Hcc 3558   2.362   0.788   1.538  0.6267  0.3270  0.4041
  131Eth    Hcc 3559   2.288   0.855   1.688 -0.4872 -0.8981  1.1386
  131Eth    Hcc 3560   2.321   0.679   1.670 -2.2732  1.1765  0.9685
  132Eth     Ho 3561   0.315   2.043   9.713 -2.5426  0.8470 -0.7123
  132Eth     Oh 3562   0.286   1.984   9.779 -0.2361 -0.3965 -0.7498
  132Eth     Co 3563   0.344   2.018   9.903  0.1129 -0.3489 -0.7649
  132Eth    Hco 3564   0.274   2.087   9.950  1.9299  2.6014 -2.2016
  132Eth    Hco 3565   0.436   2.071   9.877  0.2867 -0.9335 -1.3568
  132Eth     Ch 3566   0.376   1.901   9.981 -0.0851 -0.0254  0.5600
  132Eth    Hcc 3567   0.455   1.840   9.937 -0.4400 -0.3308  0.3532
  132Eth    Hcc 3568   0.290   1.836   9.997 -0.6261  0.9870  1.8316
  132Eth    Hcc 3569   0.411   1.933  10.079 -1.2741  0.9849  0.6659
  133Eth     Ho 3570   1.796   0.796   1.673  2.7503  0.1312  1.8390
  133Eth     Oh 3571   1.802   0.878   1.628  0.0909 -0.3953  0.3848
  133Eth     Co 3572   1.868   0.859   1.508 -0.3775 -0.3748  0.2227
  133Eth    Hco 3573   1.800   0.811   1.438  0.9209  0.0105 -1.3317
  133Eth    Hco 3574   1.955   0.795   1.518  1.7940  1.8556 -3.0820
  133Eth     Ch 3575   1.927   0.992   1.452  0.4089  0.1981 -0.0369
  133Eth    Hcc 3576   2.008   1.032   1.512  0.1513  2.3094 -1.0633
  133Eth    Hcc 3577   1.858   1.075   1.458  0.6907  0.4784 -0.6026
  133Eth    Hcc 3578   1.965   0.971   1.352  2.1183 -0.6607  0.7653
  134Eth     Ho 3579   2.006   1.618   1.625 -1.8144 -0.1411  1.3931
  134Eth     Oh 3580   2.037   1.684   1.684 -0.8307  0.6427  0.0327
  134Eth     Co 3581   2.015   1.818   1.653  0.0405 -0.2353  0.6631
  134Eth    Hco 3582   2.039   1.875   1.743 -2.6905  1.3768  0.4130
  134Eth    Hco 3583   1.907   1.820   1.641  0.2333  1.1851 -0.8761
  134Eth     Ch 3584   2.100   1.862   1.533  0.4527 -0.1573  0.0808
  134Eth    Hcc 3585   2.105   1.784   1.456 -1.5344 -0.4495  0.2016
  134Eth    Hcc 3586   2.196   1.893   1.574  1.5733 -4.3327  0.8496
  134Eth    Hcc 3587   2.054   1.948   1.485 -0.7579 -1.0766 -0.4512
  135Eth     Ho 3588   2.837   2.127   1.729 -1.2790 -1.8896  1.9854
  135Eth     Oh 3589   2.783   2.114   1.653 -0.0143  0.4149  0.6118
  135Eth     Co 3590   2.813   2.206   1.546 -0.2729  0.2817 -0.4143
  135Eth    Hco 3591   2.919   2.189   1.524 -0.2705 -3.3476  1.8741
  135Eth    Hco 3592   2.811   2.310   1.578  0.0271  1.3490 -3.6291
  135Eth     Ch 3593   2.716   2.200   1.423  0.4685  1.4073 -0.7241
  135Eth    Hcc 3594   2.616   2.228   1.458  0.2600  2.1346 -1.9023
  135Eth    Hcc 3595   2.696   2.099   1.387 -0.2941  0.9596  0.8712
  135Eth    Hcc 3596   2.738   2.270   1.343  2.3003  0.7492 -0.8094
  136Eth     Ho 3597   0.839   3.129   3.954 -0.3234 -1.3159 -0.1691
  136Eth     Oh 3598   0.774   3.169   4.009  0.0059 -0.5833 -0.3073
  136Eth     Co 3599   0.665   3.195   3.930 -0.3878  0.4979 -1.2010
  136Eth    Hco 3600   0.642   3.114   3.861  0.2540  2.4751 -3.8307
  136Eth    Hco 3601   0.684   3.287   3.875 -2.7451  1.8646  0.2073
  136Eth     Ch 3602   0.538   3.208   4.008  0.3953 -0.4921 -0.0130
  136Eth    Hcc 3603   0.535   3.302   4.063 -0.1318  0.3309 -1.4319
  136Eth    Hcc 3604   0.534   3.121   4.074  0.2033 -0.3835  0.1231
  136Eth    Hcc 3605   0.460   3.201   3.932  0.0376 -0.6656  0.3665
  137Eth     Ho 3606   3.316   2.157   8.920 -1.1788 -2.1333  0.6196
  137Eth     Oh 3607   3.396   2.113   8.898  0.0759  0.4026 -0.1136
  137Eth     Co 3608   3.506   2.166   8.957 -0.3159  0.3699  0.4297
  137Eth    Hco 3609   3.509   2.157   9.066  0.9073  1.1102  0.4612
  137Eth    Hco 3610   3.516   2.268   8.920  1.9068  0.4667  1.2331
  137Eth     Ch 3611   3.633   2.091   8.907  0.3761  0.6243  0.6652
  137Eth    Hcc 3612   3.655   2.108   8.801 -2.3220 -2.0131 -0.3705
  137Eth    Hcc 3613   3.635   1.984   8.928 -2.4150 -0.0262 -2.0125
  137Eth    Hcc 3614   3.725   2.125   8.955  1.0819 -2.0389  1.2872
  138Eth     Ho 3615   2.805   0.479   4.716 -2.7299 -0.2520 -0.5500
  138Eth     Oh 3616   2.808   0.531   4.794  0.6106 -0.1845 -0.6575
  138Eth     Co 3617   2.858   0.660   4.761 -0.1370 -0.1786 -0.8516
  138Eth    Hco 3618   2.778   0.725   4.726  1.1072  1.4501 -0.7176
  138Eth    Hco 3619   2.930   0.652   4.680 -0.7173 -3.2928 -1.1093
  138Eth     Ch 3620   2.917   0.716   4.890 -0.7611  0.2125 -0.3818
  138Eth    Hcc 3621   2.999   0.786   4.872 -3.3012  3.4193  0.1963
  138Eth    Hcc 3622   2.952   0.633   4.952 -1.6497 -0.4040 -0.6863
  138Eth    Hcc 3623   2.836   0.756   4.950 -1.4659  0.7317 -1.6614
  139Eth     Ho 3624   1.915   0.867   9.137  1.1584 -2.5827 -0.3672
  139Eth     Oh 3625   1.892   0.836   9.223 -0.2760 -0.3625  0.0825
  139Eth     Co 3626   1.988   0.738   9.263 -0.4955  1.1825 -1.0008
  139Eth    Hco 3627   2.086   0.769   9.226  1.0418 -0.6141  1.4474
  139Eth    Hco 3628   1.959   0.650   9.206 -2.3209  1.9401 -1.2789
  139Eth     Ch 3629   1.986   0.729   9.412 -0.5653 -0.2919  0.5538
  139Eth    Hcc 3630   2.039   0.810   9.462 -0.9861 -1.0093  2.1748
  139Eth    Hcc 3631   2.051   0.645   9.438  3.3234  2.6300  0.8161
  139Eth    Hcc 3632   1.888   0.722   9.458 -0.4124  0.1154  0.9455
  140Eth     Ho 3633   0.440   2.944   7.839 -0.1837  0.4048  2.0683
  140Eth     Oh 3634   0.395   3.025   7.823 -0.5393 -0.1297  0.2988
  140Eth     Co 3635   0.258   3.009   7.846  0.4658  0.4110  1.3610
  140Eth    Hco 3636   0.225   3.111   7.865  1.7905  0.7412  1.9213
  140Eth    Hco 3637   0.236   2.954   7.938  0.9321  1.2555  1.9785
  140Eth     Ch 3638   0.185   2.948   7.721  0.0341 -0.5461 -0.3151
  140Eth    Hcc 3639   0.235   2.854   7.697  2.2497  0.7644 -0.8927
  140Eth    Hcc 3640   0.195   3.009   7.631  2.9403 -0.0806  0.2957
  140Eth    Hcc 3641   0.080   2.925   7.741 -1.1479  2.6651 -2.3876
  141Eth     Ho 3642   0.429   2.550   1.819  0.4095  2.0166 -0.5476
  141Eth     Oh 3643   0.402   2.552   1.729  0.2853 -0.3333 -0.5871
  141Eth     Co 3644   0.514   2.492   1.665  0.2416 -0.5912  0.3471
  141Eth    Hco 3645   0.552   2.421   1.739 -0.7291  0.1623  1.5976
  141Eth    Hco 3646   0.590   2.569   1.654 -1.3704  0.7785 -1.3223
  141Eth     Ch 3647   0.481   2.421   1.533  0.0084 -0.2540 -0.5155
  141Eth    Hcc 3648   0.411   2.340   1.555 -0.5168  0.4305  0.3622
  141Eth    Hcc 3649   0.572   2.372   1.498 -0.5979 -0.6986 -1.4821
  141Eth    Hcc 3650   0.438   2.483   1.455 -0.8509  0.3550  0.4289
  142Eth     Ho 3651   3.271   0.818   4.321  2.6938 -1.0145 -1.3425
  142Eth     Oh 3652   3.215   0.744   4.306  0.0676  0.4582  0.7529
  142Eth     Co 3653   3.185   0.692   4.435 -0.1343  0.1700  0.7051
  142Eth    Hco 3654   3.140   0.766   4.502 -1.7458 -0.4918  0.3576
  142Eth    Hco 3655   3.271   0.662   4.495  0.9834  3.0157  0.6100
  142Eth     Ch 3656   3.080   0.581   4.417 -0.6192  0.0195 -0.4555
  142Eth    Hcc 3657   3.082   0.521   4.508 -0.1706 -2.2889 -1.9487
  142Eth    Hcc 3658   3.110   0.514   4.337  1.3204  0.2337  0.0666
  142Eth    Hcc 3659   2.981   0.619   4.394 -0.4650  0.1477 -0.9096
  143Eth     Ho 3660   0.407   1.521   1.879  0.6308  1.5010 -2.2579
  143Eth     Oh 3661   0.314   1.529   1.869  0.3142 -0.1000 -0.8677
  143Eth     Co 3662   0.262   1.410   1.820 -0.3314 -0.2784  0.2299
  143Eth    Hco 3663   0.318   1.338   1.880  0.6491  0.8083  0.6390
  143Eth    Hco 3664   0.282   1.381   1.717 -2.9884 -0.4030 -0.2798
  143Eth     Ch 3665   0.112   1.411   1.837  0.4232 -0.3608  0.5484
  143Eth    Hcc 3666   0.076   1.493   1.776 -0.3558 -0.7909  0.4301
  143Eth    Hcc 3667   0.087   1.424   1.942  0.7598 -0.6377  0.6627
  143Eth    Hcc 3668   0.065   1.320   1.800  1.1312 -0.2458 -0.6720
  144Eth     Ho 3669   1.876   0.024   9.155  2.1442 -3.3649 -1.7942
  144Eth     Oh 3670   1.917   0.084   9.096  0.0931 -0.1276 -0.0506
  144Eth     Co 3671   1.997   0.001   9.008  0.1586 -0.1760  0.0544
  144Eth    Hco 3672   1.938  -0.042   8.926  0.8521  2.8109 -2.0790
  144Eth    Hco 3673   2.036  -0.077   9.073  1.1136  0.5934  0.4085
  144Eth     Ch 3674   2.104   0.092   8.955  0.5802  0.2861  0.8435
  144Eth    Hcc 3675   2.050   0.171   8.902 -1.4336 -1.4620  0.2346
  144Eth    Hcc 3676   2.153   0.041   8.872 -1.0125 -0.2255  0.1858
  144Eth    Hcc 3677   2.186   0.128   9.017  1.8107 -0.6028 -0.2567
  145Eth     Ho 3678   1.140   2.210   7.260 -0.0733  0.4388 -0.5437
  145Eth     Oh 3679   1.184   2.260   7.327 -0.0163 -0.4993  0.1146
  145Eth     Co 3680   1.155   2.196   7.452 -0.0425  0.0272  0.4138
  145Eth    Hco 3681   1.176   2.090   7.443  0.2264  0.3135 -3.0359
  145Eth    Hco 3682   1.047   2.206   7.463 -0.5356 -2.2472 -1.8564
  145Eth     Ch 3683   1.228   2.254   7.577  0.1841  0.3498 -0.1050
  145Eth    Hcc 3684   1.333   2.225   7.578  0.0995  0.0356 -0.3789
  145Eth    Hcc 3685   1.189   2.208   7.668 -0.9688  3.1105  0.8667
  145Eth    Hcc 3686   1.207   2.361   7.586  1.1264  0.3620  2.2564
  146Eth     Ho 3687   2.215   3.296   1.745  0.0032 -2.2827 -1.1118
  146Eth     Oh 3688   2.138   3.321   1.696  0.1821 -0.1066 -0.3281
  146Eth     Co 3689   2.157   3.310   1.557  0.3393 -0.2088 -0.0145
  146Eth    Hco 3690   2.114   3.218   1.519 -1.0037  0.0074  0.9137
  146Eth    Hco 3691   2.263   3.311   1.535  0.2201  0.1817 -0.5855
  146Eth     Ch 3692   2.080   3.418   1.484 -0.3862 -0.1532  0.1746
  146Eth    Hcc 3693   1.980   3.422   1.528  0.9663  1.3884  3.2481
  146Eth    Hcc 3694   2.067   3.397   1.378 -0.6972  0.1800  0.1476
  146Eth    Hcc 3695   2.115   3.521   1.490 -1.3737  0.0916  2.0509
  147Eth     Ho 3696   1.120   0.881   3.315  0.6621 -0.1918  0.9459
  147Eth     Oh 3697   1.041   0.915   3.352  0.3843  0.4324 -0.2067
  147Eth     Co 3698   0.985   0.980   3.239  0.2873  0.1393 -0.3356
  147Eth    Hco 3699   0.998   0.921   3.148 -0.7983  0.5052 -0.7381
  147Eth    Hco 3700   1.046   1.071   3.234  0.2169  0.0800 -3.3036
  147Eth     Ch 3701   0.839   1.001   3.264  0.1258 -0.2340 -0.6356
  147Eth    Hcc 3702   0.792   1.063   3.188  1.8645  2.7333  0.6497
  147Eth    Hcc 3703   0.837   1.067   3.350 -0.7903  0.5509 -1.2572
  147Eth    Hcc 3704   0.772   0.916   3.279 -0.9290  0.6682 -0.2007
  148Eth     Ho 3705   1.180   1.291   3.093 -1.5826  2.5703 -2.3105
  148Eth     Oh 3706   1.227   1.357   3.140 -0.2530 -0.0310  0.1540
  148Eth     Co 3707   1.200   1.342   3.279  0.2056 -0.1772 -0.3218
  148Eth    Hco 3708   1.207   1.240   3.316  3.0445 -0.1121 -0.5236
  148Eth    Hco 3709   1.100   1.381   3.299  1.4360  3.0603 -0.1063
  148Eth     Ch 3710   1.295   1.437   3.360  0.1283  0.5671 -0.9820
  148Eth    Hcc 3711   1.386   1.376   3.364 -1.2751 -1.5047  2.0784
  148Eth    Hcc 3712   1.259   1.461   3.461  1.7725  0.6005 -0.3915
  148Eth    Hcc 3713   1.298   1.535   3.313 -0.3291  1.6288  1.1315
  149Eth     Ho 3714   2.474   2.063   9.281  0.4550 -0.2371  0.0875
  149Eth     Oh 3715   2.501   2.138   9.331 -0.3749 -0.0384  0.2515
  149Eth     Co 3716   2.397   2.234   9.362  0.0384  0.1522  0.1175
  149Eth    Hco 3717   2.317   2.189   9.420 -1.6923  0.1503 -2.1757
  149Eth    Hco 3718   2.362   2.269   9.265 -0.3186 -2.2519 -0.6645
  149Eth     Ch 3719   2.454   2.348   9.447  0.8715  0.5066 -0.7067
  149Eth    Hcc 3720   2.373   2.412   9.483 -0.6428 -0.3855 -2.4477
  149Eth    Hcc 3721   2.516   2.403   9.376  2.1132  0.4821  0.3410
  149Eth    Hcc 3722   2.508   2.311   9.534 -1.9822 -2.5853 -0.1507
  150Eth     Ho 3723   1.657   2.953   9.794  0.1259 -0.4838 -0.8654
  150Eth     Oh 3724   1.733   2.910   9.829 -0.0349  0.6230  0.8573
  150Eth     Co 3725   1.835   3.011   9.831  0.1192 -0.1647 -0.6256
  150Eth    Hco 3726   1.805   3.090   9.900  2.1972 -0.1816  0.3291
  150Eth    Hco 3727   1.843   3.054   9.731 -0.0945 -0.2532 -0.6795
  150Eth     Ch 3728   1.981   2.951   9.851 -0.5647  0.3619  0.0547
  150Eth    Hcc 3729   1.999   2.889   9.763 -1.4780  0.7364 -0.4054
  150Eth    Hcc 3730   1.991   2.898   9.945 -0.9123  0.1600 -0.0230
  150Eth    Hcc 3731   2.052   3.034   9.850 -2.0215  1.6592  1.0114
  151Eth     Ho 3732   1.916   0.123   9.830 -0.0267 -0.5541  0.7505
  151Eth     Oh 3733   2.007   0.115   9.806 -0.2057 -0.0758 -0.1285
  151Eth     Co 3734   2.034  -0.017   9.858 -1.2363  0.0539  0.6010
  151Eth    Hco 3735   1.976  -0.091   9.803  0.3280 -0.2677 -0.6353
  151Eth    Hco 3736   2.012  -0.014   9.965  1.0856 -1.4503  1.1525
  151Eth     Ch 3737   2.181  -0.040   9.844 -0.1747 -0.0741  0.1972
  151Eth    Hcc 3738   2.243   0.041   9.883  2.8449 -1.3380 -1.7607
  151Eth    Hcc 3739   2.206  -0.040   9.738 -0.8691 -1.0561  0.0272
  151Eth    Hcc 3740   2.214  -0.131   9.894  0.7883  0.9241  1.4172
  152Sol     OW 3741   2.472   2.227   2.708 -0.5521  0.3727 -0.3836
  152Sol     HW 3742   2.439   2.137   2.708  1.0256 -0.2239 -0.4314
  152Sol     HW 3743   2.487   2.246   2.616 -0.2898  0.4555 -0.3230
  152Sol     MW 3744   2.471   2.220   2.700  0.3556  0.4728 -0.1210
  153Sol     OW 3745   2.332   3.174   3.838  0.2066 -0.0559 -0.5590
  153Sol     HW 3746   2.310   3.250   3.892 -1.0075 -1.3735  0.8253
  153Sol     HW 3747   2.277   3.184   3.760  1.3367  1.3968 -1.1886
  153Sol     MW 3748   2.325   3.182   3.836  0.0133  0.2663 -0.5719
  154Sol     OW 3749   2.670   1.438   3.080 -0.7076 -0.4508  0.4302
  154Sol     HW 3750   2.745   1.476   3.126  0.4515 -1.5090 -0.5554
  154Sol     HW 3751   2.629   1.513   3.037 -0.0413  0.0975  0.7329
  154Sol     MW 3752   2.673   1.448   3.080  0.1125  0.3436 -0.1656
  155Sol     OW 3753   1.559   1.943   2.461 -0.1603 -0.3410  0.1022
  155Sol     HW 3754   1.511   2.003   2.404  1.9789  1.6960  0.4073
  155Sol     HW 3755   1.633   1.913   2.408  1.0075  0.4157  1.2716
  155Sol     MW 3756   1.561   1.946   2.451  0.0724 -0.1120  0.0682
  156Sol     OW 3757   2.306   0.741   8.691 -0.3866  0.0074  0.3755
  156Sol     HW 3758   2.335   0.831   8.703  1.4807 -0.5475  0.1821
  156Sol     HW 3759   2.290   0.709   8.780 -0.3296  0.3060  0.4927
  156Sol     MW 3760   2.307   0.746   8.700 -0.0786  0.9264  0.0415
  157Sol     OW 3761   2.836   1.299   7.345 -0.6398 -0.3083 -0.0739
  157Sol     HW 3762   2.913   1.355   7.358 -1.3091  0.8839 -1.1692
  157Sol     HW 3763   2.858   1.245   7.269 -0.2916 -1.0469  0.5370
  157Sol     MW 3764   2.845   1.299   7.339  0.3802  0.6328 -0.6051
  158Sol     OW 3765   3.262   0.142   5.270 -0.4628 -0.2254  0.3306
  158Sol     HW 3766   3.308   0.181   5.343 -0.1409  0.8288 -0.4226
  158Sol     HW 3767   3.297   0.053   5.264  1.1398  0.4152  0.0567
  158Sol     MW 3768   3.269   0.137   5.276 -0.0558  0.1376  0.5308
  159Sol     OW 3769   2.525   0.889   2.259 -0.7246  0.2548 -0.8348
  159Sol     HW 3770   2.520   0.984   2.260  2.5348  0.4905  0.7399
  159Sol     HW 3771   2.550   0.866   2.170 -1.1290  0.9100 -1.1130
  159Sol     MW 3772   2.527   0.895   2.251  0.4702 -0.1632 -0.1486
  160Sol     OW 3773   2.155   0.507   2.285 -0.0928 -0.0273 -0.3379
  160Sol     HW 3774   2.138   0.457   2.206  1.7972 -1.5274  0.1722
  160Sol     HW 3775   2.243   0.542   2.274  0.4567 -0.8072  1.3884
  160Sol     MW 3776   2.161   0.506   2.277  0.6555  0.5365 -0.5227
  161Sol     OW 3777   0.140   0.421   8.347 -0.1602  0.0341  0.4592
  161Sol     HW 3778   0.220   0.368   8.351  0.3993  0.8892  0.9990
  161Sol     HW 3779   0.168   0.508   8.377 -1.4023  0.2198  1.1281
  161Sol     MW 3780   0.150   0.424   8.350  0.0127 -0.6540  0.2342
  162Sol     OW 3781   3.153   3.060   7.191 -0.5852 -0.5677  0.2899
  162Sol     HW 3782   3.224   3.079   7.130 -0.3218 -1.1402  0.4062
  162Sol     HW 3783   3.197   3.049   7.276 -0.7685 -1.2327  0.3042
  162Sol     MW 3784   3.163   3.061   7.193 -0.6393  0.3113  0.0268
  163Sol     OW 3785   2.874   0.137   6.870 -0.7024  0.1171  0.0559
  163Sol     HW 3786   2.927   0.112   6.794 -1.4726 -0.0512 -0.4192
  163Sol     HW 3787   2.930   0.197   6.919  0.2030 -0.5857 -0.0971
  163Sol     MW 3788   2.884   0.140   6.868  0.0276 -0.2226 -0.2570
  164Sol     OW 3789   2.135   0.316   4.818 -0.0937 -0.2616 -0.0423
  164Sol     HW 3790   2.153   0.374   4.893  0.6301 -1.3025  0.6062
  164Sol     HW 3791   2.045   0.336   4.794  0.1041  1.0490  0.2445
  164Sol     MW 3792   2.129   0.323   4.823 -0.0597  0.7701 -0.3974
  165Sol     OW 3793   0.764   0.132   9.037  0.0299 -0.0138  0.6541
  165Sol     HW 3794   0.736   0.213   9.080  0.0077 -0.2802  1.1462
  165Sol     HW 3795   0.859   0.128   9.053  0.3199  0.7652 -0.7990
  165Sol     MW 3796   0.770   0.139   9.042  0.2108  0.6843  0.0668
  166Sol     OW 3797   2.091   1.842   7.504  0.2499  0.1547  0.3507
  166Sol     HW 3798   2.038   1.824   7.426 -0.0190  0.8171  0.3831
  166Sol     HW 3799   2.176   1.803   7.484 -0.0614 -0.3834  0.0544
  166Sol     MW 3800   2.094   1.837   7.495 -0.5008  0.3566  0.1925
  167Sol     OW 3801   2.035   2.654   4.578  0.0783  0.2011 -0.2104
  167Sol     HW 3802   1.963   2.685   4.633 -0.7767 -0.3742 -0.9850
  167Sol     HW 3803   2.026   2.558   4.579  0.8770  0.1239 -0.2587
  167Sol     MW 3804   2.027   2.648   4.583  0.5402 -0.1599  0.0348
  168Sol     OW 3805   2.163   0.433   8.306  0.1729  0.3168 -0.2257
  168Sol     HW 3806   2.238   0.395   8.352 -0.3655  0.9366  1.1803
  168Sol     HW 3807   2.170   0.527   8.322 -0.7326  0.4085 -0.3459
  168Sol     MW 3808   2.170   0.438   8.311  0.0869  0.5943 -0.0341
  169Sol     OW 3809   3.047   1.309   6.567  0.2075 -0.0992  0.1060
  169Sol     HW 3810   3.067   1.301   6.473  0.5392  1.3974  0.0275
  169Sol     HW 3811   3.102   1.382   6.596 -1.0261  0.4411  1.1236
  169Sol     MW 3812   3.054   1.315   6.561 -0.3265 -0.3284 -0.4481
  170Sol     OW 3813   2.477   0.545   8.529  0.0566 -0.3444 -0.2938
  170Sol     HW 3814   2.526   0.523   8.608 -0.0841 -1.3427 -0.4741
  170Sol     HW 3815   2.417   0.614   8.557  2.1126  1.4774 -0.2666
  170Sol     MW 3816   2.476   0.549   8.539  0.1609  0.3271 -0.4343
  171Sol     OW 3817   2.881   3.436   3.276 -0.0375  0.3561  0.5800
  171Sol     HW 3818   2.859   3.486   3.355  0.4858 -0.2690  1.1296
  171Sol     HW 3819   2.918   3.501   3.216  0.8205  0.6099  1.3608
  171Sol     MW 3820   2.883   3.446   3.278  0.6888  0.0872 -0.5082
  172Sol     OW 3821   0.452   3.136   6.168 -0.7631 -0.0318 -0.1864
  172Sol     HW 3822   0.378   3.188   6.136  0.2135  0.5508 -1.5694
  172Sol     HW 3823   0.527   3.195   6.163 -0.3112 -0.4019  1.8573
  172Sol     MW 3824   0.452   3.146   6.165 -0.9175  0.1777  0.5771
  173Sol     OW 3825   1.789   0.771   3.006 -0.0999  0.4669 -0.0261
  173Sol     HW 3826   1.708   0.767   2.955 -0.2427  0.5133  0.1952
  173Sol     HW 3827   1.852   0.718   2.957  0.1472  1.5747 -0.9373
  173Sol     MW 3828   1.788   0.766   2.997 -1.0462 -0.6210 -0.6067
  174Sol     OW 3829   1.799   1.594   6.541 -0.5092 -0.2078  0.0696
  174Sol     HW 3830   1.703   1.599   6.542 -0.4430  1.0465  0.3670
  174Sol     HW 3831   1.828   1.674   6.585  0.6428 -1.4693  1.7047
  174Sol     MW 3832   1.793   1.601   6.545 -0.1343 -0.0572  0.1565
  175Sol     OW 3833   2.768   1.048   8.506  0.0976 -0.1395  0.3301
  175Sol     HW 3834   2.792   0.985   8.439  0.0998 -0.5257  0.6964
  175Sol     HW 3835   2.672   1.053   8.501 -0.0155 -1.2113  1.2380
  175Sol     MW 3836   2.761   1.043   8.500  0.1767  0.0374 -0.2905
  176Sol     OW 3837   1.321   2.167   2.585 -0.2262  0.0304  0.1304
  176Sol     HW 3838   1.253   2.230   2.560  0.9572  0.6611 -1.6392
  176Sol     HW 3839   1.387   2.220   2.631 -0.7952 -0.5321  1.6171
  176Sol     MW 3840   1.321   2.178   2.587 -0.7965 -0.0579 -0.0480
  177Sol     OW 3841   0.580   1.256   6.048 -0.0266 -0.3731 -0.1028
  177Sol     HW 3842   0.532   1.314   6.108 -1.2335 -1.2301 -0.2220
  177Sol     HW 3843   0.573   1.299   5.963 -0.1856 -0.2573 -0.0330
  177Sol     MW 3844   0.575   1.265   6.046  0.3213 -0.3327 -0.3744
  178Sol     OW 3845   0.302   3.310   8.669  0.0934  0.2136 -0.5012
  178Sol     HW 3846   0.374   3.262   8.711 -1.1382 -1.0108  0.2514
  178Sol     HW 3847   0.231   3.306   8.732 -1.0672  0.2597 -1.7885
  178Sol     MW 3848   0.302   3.305   8.679  0.1187 -0.0103 -0.2284
  179Sol     OW 3849   2.540   1.999   3.345  0.5881 -0.2273 -0.1365
  179Sol     HW 3850   2.517   2.037   3.430  2.3878  0.4634  0.0637
  179Sol     HW 3851   2.483   1.922   3.337 -1.4751  1.1913  0.4858
  179Sol     MW 3852   2.533   1.995   3.352 -0.2149 -0.1404  0.5978
  180Sol     OW 3853   2.423   3.083   4.898 -0.1477 -0.3095  0.2824
  180Sol     HW 3854   2.376   3.001   4.916  0.0688 -0.5786 -0.3880
  180Sol     HW 3855   2.446   3.078   4.806  0.4384  0.2210  0.4005
  180Sol     MW 3856   2.421   3.075   4.892 -0.4069 -0.0692  0.3964
  181Sol     OW 3857   0.520   2.691   8.527  0.0261  0.0874  0.0806
  181Sol     HW 3858   0.530   2.627   8.597  0.9259  1.4994  1.2916
  181Sol     HW 3859   0.444   2.743   8.553 -1.5259 -1.3188 -1.5793
  181Sol     MW 3860   0.514   2.690   8.536  0.6362 -0.1317  0.3258
  182Sol     OW 3861   0.312   2.701   6.433 -0.6155  0.5541  0.1309
  182Sol     HW 3862   0.240   2.745   6.478 -0.1740  1.0146  0.3889
  182Sol     HW 3863   0.309   2.735   6.344 -0.5266  0.8047  0.2234
  182Sol     MW 3864   0.305   2.708   6.429 -0.1488  0.5469  0.0765
  183Sol     OW 3865   2.905   2.392   7.766 -0.5394 -0.2115  0.2471
  183Sol     HW 3866   2.943   2.468   7.721 -0.1255 -0.6229 -0.1114
  183Sol     HW 3867   2.888   2.329   7.696 -0.0095 -0.8097  0.6457
  183Sol     MW 3868   2.907   2.393   7.756  0.1804 -0.6311  0.2824
  184Sol     OW 3869   1.505   1.024   1.952  0.6025 -0.3141  0.1486
  184Sol     HW 3870   1.577   1.077   1.985 -1.3155  2.4010  0.1063
  184Sol     HW 3871   1.498   1.047   1.860  0.3747 -1.3931 -0.1154
  184Sol     MW 3872   1.511   1.031   1.947 -0.3961 -0.2720 -0.1214
  185Sol     OW 3873   2.806   2.881   6.073  0.1247 -0.0180 -0.0750
  185Sol     HW 3874   2.714   2.894   6.095  0.5481  0.9669  1.1937
  185Sol     HW 3875   2.850   2.960   6.104  2.0972 -2.4039  3.6038
  185Sol     MW 3876   2.802   2.889   6.078  0.2280 -0.2524  0.6111
  186Sol     OW 3877   1.115   2.826   3.512 -0.1903 -0.1434  0.3365
  186Sol     HW 3878   1.101   2.884   3.437  0.2621  0.9329  1.0744
  186Sol     HW 3879   1.191   2.863   3.557  0.3724 -1.5597  0.5783
  186Sol     MW 3880   1.121   2.834   3.509  0.1694  0.0444  0.0073
  187Sol     OW 3881   2.152   0.072   3.857  0.3234  0.2499 -0.3310
  187Sol     HW 3882   2.059   0.083   3.836  0.4823 -0.6538 -1.6107
  187Sol     HW 3883   2.153   0.014   3.933 -0.1498  0.0438 -0.4822
  187Sol     MW 3884   2.143   0.068   3.862 -0.3158 -0.4870 -0.1784
  188Sol     OW 3885   1.153   3.315   4.594 -0.3909  0.1100  0.0830
  188Sol     HW 3886   1.156   3.229   4.635 -1.4335  0.4589  0.9137
  188Sol     HW 3887   1.077   3.312   4.535 -1.1042  0.8248  0.9569
  188Sol     MW 3888   1.146   3.307   4.592 -0.1640  0.1388 -0.7028
  189Sol     OW 3889   2.589   1.326   8.185  0.2037 -0.6720  0.1676
  189Sol     HW 3890   2.621   1.237   8.194  0.2733 -0.7593 -0.8918
  189Sol     HW 3891   2.652   1.369   8.128 -0.4143 -0.2600 -0.2179
  189Sol     MW 3892   2.597   1.322   8.181  0.4374 -0.3657 -0.7660
  190Sol     OW 3893   0.077   0.472   8.845  0.1729 -0.2692 -0.0580
  190Sol     HW 3894   0.095   0.428   8.762  0.4747 -2.1673  0.9783
  190Sol     HW 3895   0.164   0.495   8.879  0.1999 -1.5119  0.7651
  190Sol     MW 3896   0.087   0.470   8.841  0.5198  0.1196 -0.1817
  191Sol     OW 3897   3.139   2.586   7.565 -0.6838  0.0348 -0.4265
  191Sol     HW 3898   3.201   2.597   7.637 -1.3407  0.8970  0.0152
  191Sol     HW 3899   3.184   2.527   7.504  1.1692  1.7423 -0.7742
  191Sol     MW 3900   3.148   2.582   7.566 -0.2263 -0.1570  0.2053
  192Sol     OW 3901   0.119   1.055   6.671 -0.3397 -0.4596  0.2271
  192Sol     HW 3902   0.107   1.049   6.766 -1.1619 -1.1058  0.0873
  192Sol     HW 3903   0.207   1.019   6.657 -0.3267 -0.6356  0.7196
  192Sol     MW 3904   0.126   1.051   6.679 -0.3852 -0.5558  0.4053
  193Sol     OW 3905   1.634   2.572   8.406  0.3008  0.3412  0.0301
  193Sol     HW 3906   1.669   2.605   8.489 -1.0817  2.4616 -0.2056
  193Sol     HW 3907   1.701   2.595   8.341  1.3659 -1.2862  0.5017
  193Sol     MW 3908   1.644   2.577   8.407 -0.3801  0.4082 -0.1123
  194Sol     OW 3909   2.209   3.322   6.698 -0.3107 -0.2444 -0.6411
  194Sol     HW 3910   2.147   3.261   6.739 -1.0544  1.3307  0.6266
  194Sol     HW 3911   2.157   3.401   6.683  0.9176  0.4408 -1.3001
  194Sol     MW 3912   2.199   3.324   6.700  0.0394  0.1827  0.0793
  195Sol     OW 3913   3.325   0.312   9.276 -0.2611 -0.0927  0.8640
  195Sol     HW 3914   3.319   0.275   9.188 -1.1638  0.0896  0.8434
  195Sol     HW 3915   3.336   0.406   9.261  0.7793 -0.1997  0.9332
  195Sol     MW 3916   3.325   0.317   9.267 -0.2434 -0.4063 -0.2914
  196Sol     OW 3917   2.961   2.254   9.152 -0.1770  0.4681  0.5926
  196Sol     HW 3918   2.867   2.243   9.165 -0.3396 -0.4931 -1.1102
  196Sol     HW 3919   2.972   2.345   9.125 -0.6376  0.5602  0.7255
  196Sol     MW 3920   2.954   2.261   9.151  0.3134 -0.6131  0.4147
  197Sol     OW 3921   1.452   3.216   3.956 -0.3254 -0.5453 -0.1127
  197Sol     HW 3922   1.362   3.205   3.924 -0.8150  1.6781  0.4108
  197Sol     HW 3923   1.442   3.251   4.045  1.0559  0.9531 -0.5264
  197Sol     MW 3924   1.443   3.218   3.961 -0.3016  0.2545 -0.5408
  198Sol     OW 3925   2.622   0.300   3.307  0.3003  0.5602 -0.7552
  198Sol     HW 3926   2.672   0.341   3.237 -0.8357  1.2320 -1.1866
  198Sol     HW 3927   2.535   0.287   3.270 -0.0832  0.1862  0.2641
  198Sol     MW 3928   2.619   0.303   3.298 -0.3980  0.3858  0.2022
  199Sol     OW 3929   2.019   2.654   7.183 -0.4897  0.2998  0.0283
  199Sol     HW 3930   2.090   2.717   7.194 -1.8280  2.0061 -0.8369
  199Sol     HW 3931   2.014   2.639   7.088  0.2148 -1.6337  0.2552
  199Sol     MW 3932   2.025   2.658   7.175 -0.4336 -0.4833 -0.0064
  200Sol     OW 3933   2.577   3.021   7.394 -0.3516  0.5816  0.0760
  200Sol     HW 3934   2.543   3.098   7.440  0.2722 -0.1800  1.8381
  200Sol     HW 3935   2.546   2.946   7.445  1.2822 -0.2340 -0.0849
  200Sol     MW 3936   2.571   3.021   7.403  0.1680  0.3317  0.2992
  201Sol     OW 3937   2.160   2.754   2.799  0.4072  0.0508 -0.3385
  201Sol     HW 3938   2.087   2.765   2.739  0.0038  1.0301  0.3279
  201Sol     HW 3939   2.236   2.786   2.750  0.3232 -0.5436 -0.8647
  201Sol     MW 3940   2.160   2.758   2.789 -0.1791  0.2138 -0.3405
  202Sol     OW 3941   0.889   0.459   8.420  0.3567 -0.0238  0.1759
  202Sol     HW 3942   0.946   0.438   8.347  0.8260  3.0291 -0.4232
  202Sol     HW 3943   0.948   0.477   8.493  0.1674  1.8226 -0.0841
  202Sol     MW 3944   0.899   0.459   8.420  0.1611  0.4258  0.4671
  203Sol     OW 3945   0.052   1.760   3.717  0.6854  0.2882  0.3623
  203Sol     HW 3946   0.120   1.693   3.725  1.2109  0.7801  0.0281
  203Sol     HW 3947   0.092   1.828   3.664 -0.1330  0.5033  0.0214
  203Sol     MW 3948   0.061   1.760   3.713 -0.6185  0.2194 -0.3355
  204Sol     OW 3949   2.851   3.020   7.447  0.0533  0.3407 -0.1469
  204Sol     HW 3950   2.899   2.938   7.445  0.4350  0.5484  0.4252
  204Sol     HW 3951   2.767   3.000   7.406 -0.9011 -1.0099  2.3579
  204Sol     MW 3952   2.848   3.011   7.443  0.1167 -0.0037 -0.0838
  205Sol     OW 3953   2.312   1.872   9.624  0.1109  0.5802  0.0327
  205Sol     HW 3954   2.249   1.857   9.553  0.2600 -0.6364  0.1515
  205Sol     HW 3955   2.393   1.832   9.594  0.0823 -0.2433  1.0245
  205Sol     MW 3956   2.313   1.867   9.615 -0.8239  0.2184 -0.6088
  206Sol     OW 3957   2.582   3.036   3.842 -0.4170  0.5770  0.4175
  206Sol     HW 3958   2.568   2.979   3.767 -1.1636 -1.0937  1.7983
  206Sol     HW 3959   2.508   3.097   3.840 -0.3089  0.6815 -0.3287
  206Sol     MW 3960   2.574   3.037   3.835  0.3274 -0.2891  0.2812
  207Sol     OW 3961   3.296   1.593   2.739 -0.5351 -0.6217  0.2147
  207Sol     HW 3962   3.226   1.639   2.786 -0.8236 -0.7680 -0.0725
  207Sol     HW 3963   3.250   1.528   2.686 -0.3407  0.6906 -1.5778
  207Sol     MW 3964   3.285   1.592   2.739 -0.3228 -0.1577 -0.1343
  208Sol     OW 3965   0.510   0.617   6.378 -0.0812 -0.0131 -0.3542
  208Sol     HW 3966   0.511   0.657   6.291 -0.3952  1.0134  0.1060
  208Sol     HW 3967   0.422   0.579   6.385 -0.4518  0.8586 -0.0770
  208Sol     MW 3968   0.502   0.617   6.371  0.1981 -0.1838  0.2237
  209Sol     OW 3969   1.814   3.327   7.600 -0.4230 -0.0663  0.0989
  209Sol     HW 3970   1.781   3.262   7.539 -0.0219  0.8943 -1.1777
  209Sol     HW 3971   1.910   3.319   7.595 -0.3648  0.6903 -0.1758
  209Sol     MW 3972   1.820   3.321   7.594 -0.1576 -0.2554 -0.8286
  210Sol     OW 3973   3.306   2.052   7.781  0.7409  0.2692 -0.0330
  210Sol     HW 3974   3.392   2.031   7.743  0.2903  0.8107 -1.3822
  210Sol     HW 3975   3.305   2.148   7.785  0.2054  0.2602  0.0382
  210Sol     MW 3976   3.314   2.059   7.778 -0.1614  0.0748 -0.6407
  211Sol     OW 3977   0.915   3.134   3.708  0.7523 -0.4852  0.4011
  211Sol     HW 3978   0.982   3.168   3.767  1.2431 -0.5898 -0.0860
  211Sol     HW 3979   0.952   3.147   3.621 -0.5499  0.9093  0.0533
  211Sol     MW 3980   0.925   3.138   3.706  0.0237  0.5207 -0.3972
  212Sol     OW 3981   1.185   2.173   5.300 -0.1443  0.0191 -0.2824
  212Sol     HW 3982   1.141   2.090   5.278  1.0021 -0.8818  0.7600
  212Sol     HW 3983   1.274   2.147   5.322  0.6527  1.7287 -1.4557
  212Sol     MW 3984   1.189   2.163   5.300  0.3205 -0.5084 -0.2270
  213Sol     OW 3985   2.896   0.385   2.525  0.6090 -0.0548  0.0912
  213Sol     HW 3986   2.947   0.398   2.605  1.5514  0.6609 -0.6220
  213Sol     HW 3987   2.948   0.325   2.472  0.5832  0.4702 -0.5286
  213Sol     MW 3988   2.905   0.381   2.527  0.4365  0.0131 -0.5265
  214Sol     OW 3989   2.496   2.583   5.685  0.3077 -0.3294 -0.3979
  214Sol     HW 3990   2.445   2.606   5.608  1.7894 -1.6992 -1.8219
  214Sol     HW 3991   2.464   2.497   5.711  0.1001 -0.0526  0.2876
  214Sol     MW 3992   2.489   2.577   5.680  0.2554 -0.0441 -0.2456
  215Sol     OW 3993   1.949   0.949   6.513  0.6984  1.1753  0.1600
  215Sol     HW 3994   1.979   1.000   6.588 -1.3110  0.6664  1.3624
  215Sol     HW 3995   1.978   0.860   6.531  1.8156  1.3693 -0.5989
  215Sol     MW 3996   1.954   0.946   6.521 -0.3210  0.0468 -0.0333
  216Sol     OW 3997   0.699   2.492   2.981  0.4101  0.2736  1.3131
  216Sol     HW 3998   0.654   2.421   3.026  0.9873  0.6559  2.5138
  216Sol     HW 3999   0.654   2.571   3.009 -1.6771  0.2491 -1.7651
  216Sol     MW 4000   0.691   2.493   2.987 -0.5756  0.0250  0.0402
  217Sol     OW 4001   0.853   3.182   6.740 -0.3066 -0.2369 -0.1601
  217Sol     HW 4002   0.891   3.190   6.652  1.2536  0.3721  0.5599
  217Sol     HW 4003   0.784   3.249   6.741  0.0653  0.1635 -0.7197
  217Sol     MW 4004   0.850   3.189   6.732  0.1198 -0.1310  0.1993
  218Sol     OW 4005   1.811   3.323   6.881 -0.0837  0.0465 -0.4944
  218Sol     HW 4006   1.888   3.328   6.937  0.2689 -2.1984 -0.7231
  218Sol     HW 4007   1.807   3.408   6.837  1.3260  0.7566  0.7223
  218Sol     MW 4008   1.817   3.331   6.882 -0.5137  0.8084 -0.4238
  219Sol     OW 4009   1.742   1.265   3.868  0.8315  0.3438 -0.2853
  219Sol     HW 4010   1.685   1.228   3.800 -0.3312 -0.4152  1.0658
  219Sol     HW 4011   1.830   1.236   3.844  0.2109 -1.4649 -0.5005
  219Sol     MW 4012   1.745   1.259   3.860  0.2658 -0.4542  0.5090
  220Sol     OW 4013   2.675   0.537   2.185 -0.2357  0.2447 -0.0918
  220Sol     HW 4014   2.654   0.447   2.211 -0.1679  1.2385  3.7436
  220Sol     HW 4015   2.759   0.555   2.227 -0.0930  2.0017 -1.0968
  220Sol     MW 4016   2.680   0.530   2.191  0.8637  0.3857 -0.5961
  221Sol     OW 4017   0.325   0.619   9.228  0.1581 -0.5925 -0.5295
  221Sol     HW 4018   0.231   0.604   9.226  0.3481 -2.0496  0.4772
  221Sol     HW 4019   0.335   0.702   9.274 -0.7098  0.5217 -2.3027
  221Sol     MW 4020   0.318   0.625   9.232 -0.3842 -0.0296 -0.0414
  222Sol     OW 4021   1.661   0.740   5.964 -0.1496 -0.0471 -0.2156
  222Sol     HW 4022   1.730   0.673   5.963 -0.2892 -0.1943  0.0761
  222Sol     HW 4023   1.707   0.821   5.984 -0.0180 -0.0999 -0.3016
  222Sol     MW 4024   1.671   0.741   5.966  0.0960  0.2652 -0.3540
  223Sol     OW 4025   2.252   0.761   4.209 -0.3282 -0.1308  0.7080
  223Sol     HW 4026   2.272   0.800   4.294 -1.8121 -0.3411  1.1722
  223Sol     HW 4027   2.186   0.819   4.170  1.0397  0.4917 -0.7245
  223Sol     MW 4028   2.248   0.770   4.213  0.0731  0.0050  0.2138
  224Sol     OW 4029   2.635   2.046   5.785  0.4720 -0.0137 -0.0867
  224Sol     HW 4030   2.609   2.109   5.718  0.7894 -0.4665 -0.6460
  224Sol     HW 4031   2.729   2.037   5.774  0.6769  0.6745  1.1034
  224Sol     MW 4032   2.641   2.051   5.778 -0.1074 -0.1054  0.3116
  225Sol     OW 4033   3.021   0.212   6.345 -0.1269 -0.2936 -0.9375
  225Sol     HW 4034   3.057   0.263   6.418 -0.3955 -1.1490 -0.1993
  225Sol     HW 4035   3.023   0.272   6.270 -1.3764  1.1334  0.1510
  225Sol     MW 4036   3.025   0.222   6.345 -0.3208 -0.2153 -0.4252
  226Sol     OW 4037   0.318   2.561   2.278 -0.2881  0.7262  0.2998
  226Sol     HW 4038   0.279   2.542   2.363  0.0982 -1.6900 -0.0212
  226Sol     HW 4039   0.402   2.602   2.298  0.2760 -0.7886  1.1208
  226Sol     MW 4040   0.322   2.563   2.287  0.0557 -0.2944 -0.3489
  227Sol     OW 4041   2.264   1.677   9.264 -0.0734  0.7657 -0.9117
  227Sol     HW 4042   2.315   1.758   9.260  1.9501 -0.4667 -0.6077
  227Sol     HW 4043   2.260   1.646   9.173  2.5583 -0.8409 -0.5096
  227Sol     MW 4044   2.268   1.681   9.255  0.1516  0.7488  0.2558
  228Sol     OW 4045   2.066   2.492   9.680 -0.2627  0.2611 -0.0820
  228Sol     HW 4046   2.146   2.495   9.733  0.1199  1.5554 -0.6983
  228Sol     HW 4047   2.000   2.532   9.736 -0.4016 -0.5131  0.3071
  228Sol     MW 4048   2.068   2.496   9.690  0.3236 -0.0305  0.3704
  229Sol     OW 4049   0.652   2.258   6.434  0.3587  0.4807  0.3135
  229Sol     HW 4050   0.739   2.227   6.457  0.1468  0.5169  1.2002
  229Sol     HW 4051   0.598   2.237   6.510 -0.6051 -0.3423 -0.5797
  229Sol     MW 4052   0.655   2.254   6.443 -0.2863  0.6383  0.2907
  230Sol     OW 4053   0.785   1.588   1.799  0.2266  0.2655  0.1214
  230Sol     HW 4054   0.773   1.640   1.879  0.5680  0.3699  0.1075
  230Sol     HW 4055   0.745   1.503   1.819 -0.9088  0.7400 -0.0792
  230Sol     MW 4056   0.780   1.585   1.808 -0.2870  0.7576 -0.4474
  231Sol     OW 4057   3.127   2.283   5.532  0.1775  0.2436 -0.6988
  231Sol     HW 4058   3.218   2.255   5.520  0.2163 -0.7672  1.5115
  231Sol     HW 4059   3.133   2.353   5.597 -0.6373 -0.0638 -0.2887
  231Sol     MW 4060   3.136   2.287   5.537  0.3740 -0.3993 -0.0748
  232Sol     OW 4061   2.707   2.872   9.366 -0.0010  0.1858 -0.5418
  232Sol     HW 4062   2.631   2.895   9.314 -0.9866  0.8203  1.1512
  232Sol     HW 4063   2.759   2.953   9.370 -0.1878  0.2900 -0.1292
  232Sol     MW 4064   2.705   2.882   9.362  0.5072 -0.1451 -0.2198
  233Sol     OW 4065   1.548   1.399   4.622 -0.5802  0.7075 -0.2126
  233Sol     HW 4066   1.599   1.480   4.617  0.1461  0.2602 -0.0340
  233Sol     HW 4067   1.587   1.341   4.557 -0.0034 -0.1106  0.8379
  233Sol     MW 4068   1.556   1.401   4.616 -0.4305 -0.3174 -0.0693
  234Sol     OW 4069   2.745   3.245   7.878 -0.2222 -0.3373  0.7437
  234Sol     HW 4070   2.704   3.330   7.862 -0.0003 -0.6039 -1.4082
  234Sol     HW 4071   2.722   3.192   7.801  0.5348 -1.8754  1.5523
  234Sol     MW 4072   2.739   3.248   7.869  0.4919  0.0249 -0.0797
  235Sol     OW 4073   2.921   0.675   5.546 -0.8208 -0.5116  0.4892
  235Sol     HW 4074   2.889   0.763   5.567 -1.3235 -0.4170 -0.6785
  235Sol     HW 4075   2.946   0.638   5.631  0.0774  1.0212  0.8987
  235Sol     MW 4076   2.920   0.679   5.556  0.1149 -0.3443 -0.5088
  236Sol     OW 4077   1.835   0.767   4.472 -0.1019 -0.5673  0.3013
  236Sol     HW 4078   1.855   0.760   4.379 -0.6916  3.2025 -0.1695
  236Sol     HW 4079   1.745   0.733   4.479 -1.0999  1.6925 -1.0089
  236Sol     MW 4080   1.829   0.763   4.464  0.5763  0.1925 -0.1407
  237Sol     OW 4081   2.929   1.706   4.875  0.0994 -0.4894  0.7424
  237Sol     HW 4082   2.986   1.741   4.944  0.8762 -0.2126 -0.0197
  237Sol     HW 4083   2.958   1.752   4.796  0.5674 -2.2450 -0.1276
  237Sol     MW 4084   2.937   1.714   4.874  0.2057 -0.1289 -0.1751
  238Sol     OW 4085   1.079   1.841   7.936  0.0267 -0.6335  0.5553
  238Sol     HW 4086   1.034   1.796   7.864 -2.4675  1.6631  0.6054
  238Sol     HW 4087   1.065   1.786   8.012 -0.5981 -1.1775  0.0468
  238Sol     MW 4088   1.074   1.832   7.936  0.3389 -0.1628 -0.3933
  239Sol     OW 4089   1.360   2.617   6.323  0.1494  0.4548  0.1718
  239Sol     HW 4090   1.305   2.606   6.245 -1.1743  1.8196  0.9203
  239Sol     HW 4091   1.450   2.614   6.288 -0.2760 -3.3247 -0.8683
  239Sol     MW 4092   1.363   2.615   6.313 -0.0587  0.2813  0.1791
  240Sol     OW 4093   2.670   2.624   3.568  0.3522  0.1630  0.0701
  240Sol     HW 4094   2.724   2.655   3.495  2.0505 -0.8570  0.8636
  240Sol     HW 4095   2.733   2.603   3.637 -1.1837  0.4449  1.5807
  240Sol     MW 4096   2.681   2.625   3.568  0.6289  0.4149 -0.0107
  241Sol     OW 4097   2.150   1.150   4.225 -0.3846  0.1812  0.2277
  241Sol     HW 4098   2.241   1.179   4.230 -0.1133 -0.4073 -1.0596
  241Sol     HW 4099   2.155   1.061   4.191 -1.4516  0.2459 -0.1101
  241Sol     MW 4100   2.158   1.145   4.222 -0.2867  0.3255  0.0021
  242Sol     OW 4101   1.337   2.364   4.435 -0.1247  0.8245  0.0111
  242Sol     HW 4102   1.395   2.288   4.436 -0.2986  0.6434 -1.5544
  242Sol     HW 4103   1.394   2.438   4.455  0.3077  0.4383  0.2121
  242Sol     MW 4104   1.347   2.364   4.437  0.6704  0.6959 -0.4078
  243Sol     OW 4105   1.144   2.404   9.852 -0.3051 -0.3641  0.4359
  243Sol     HW 4106   1.136   2.310   9.839 -0.2767 -0.6445  2.3484
  243Sol     HW 4107   1.237   2.418   9.869 -0.0340  0.2363 -1.3870
  243Sol     MW 4108   1.151   2.397   9.852 -0.0520  0.5635  0.6386
  244Sol     OW 4109   2.859   0.865   1.836  0.2633 -0.2794  0.0283
  244Sol     HW 4110   2.900   0.894   1.754 -0.1314 -1.9336 -0.7710
  244Sol     HW 4111   2.926   0.880   1.903  0.1917  2.1475 -0.3980
  244Sol     MW 4112   2.869   0.869   1.835  0.2171 -0.5385  0.2290
  245Sol     OW 4113   0.370   1.534   5.659 -0.3013 -0.6390 -0.2302
  245Sol     HW 4114   0.380   1.628   5.639  1.0392 -0.5934  0.6243
  245Sol     HW 4115   0.432   1.491   5.600 -0.4309 -0.9342 -0.1495
  245Sol     MW 4116   0.377   1.539   5.652  0.0160  0.2147  0.2317
  246Sol     OW 4117   0.291   2.891   1.929  0.0771 -0.1443 -0.0114
  246Sol     HW 4118   0.330   2.867   1.845  0.8136  0.7668  0.0558
  246Sol     HW 4119   0.252   2.977   1.914 -1.9296 -1.0357 -0.0671
  246Sol     MW 4120   0.291   2.897   1.920  0.6089  0.2582  0.4301
  247Sol     OW 4121   1.334   1.713   4.610  0.0552  0.0411  0.1886
  247Sol     HW 4122   1.269   1.647   4.635 -0.6193  0.4915 -0.3554
  247Sol     HW 4123   1.391   1.721   4.687  1.1691 -2.3726 -0.3204
  247Sol     MW 4124   1.333   1.708   4.619  0.0513  0.4492  0.6158
  248Sol     OW 4125   2.394   1.277   4.088 -0.0444  0.1917  0.1518
  248Sol     HW 4126   2.342   1.302   4.012 -0.5395 -0.2035  0.3591
  248Sol     HW 4127   2.444   1.356   4.110  0.5621  0.1226 -0.9460
  248Sol     MW 4128   2.394   1.286   4.083  0.0296 -0.1861  0.3693
  249Sol     OW 4129   1.405   2.619   5.113  0.5034 -0.1403 -0.8423
  249Sol     HW 4130   1.395   2.680   5.186  1.1567  0.9867 -1.6934
  249Sol     HW 4131   1.396   2.532   5.154  0.2703  0.4859  0.4784
  249Sol     MW 4132   1.403   2.616   5.124  0.1043 -0.2140  0.0668
  250Sol     OW 4133   0.724   2.441   5.057  0.0212 -0.6102  0.6743
  250Sol     HW 4134   0.686   2.516   5.103  1.2338  0.0533  0.5889
  250Sol     HW 4135   0.672   2.433   4.978  1.6087  1.8499 -0.6755
  250Sol     MW 4136   0.716   2.447   5.054  0.1778 -0.4556 -0.6382
  251Sol     OW 4137   1.700   2.848   6.767  0.3858  0.3197 -0.2259
  251Sol     HW 4138   1.649   2.792   6.708  0.8064 -0.4488  0.1313
  251Sol     HW 4139   1.634   2.890   6.822  0.1577 -1.1610  0.6569
  251Sol     MW 4140   1.689   2.847   6.767 -0.1437 -0.2303  0.0767
  252Sol     OW 4141   1.902   1.948   3.301 -0.2152  0.0651 -0.3512
  252Sol     HW 4142   1.824   1.900   3.272  0.3934 -0.5682 -0.9789
  252Sol     HW 4143   1.873   2.039   3.308 -0.6351  0.0765 -2.0500
  252Sol     MW 4144   1.892   1.952   3.299  0.6518 -0.3088 -0.0302
  253Sol     OW 4145   1.705   2.177   3.023 -0.8331 -0.1949  0.1535
  253Sol     HW 4146   1.626   2.224   2.999 -0.3882  1.0509  1.1048
  253Sol     HW 4147   1.708   2.181   3.118  0.2154 -0.5034  0.1453
  253Sol     MW 4148   1.699   2.181   3.029  0.0351  0.2527  0.8419
  254Sol     OW 4149   1.119   3.054   4.334  0.1491  0.8384 -0.0673
  254Sol     HW 4150   1.213   3.068   4.345  0.4137 -0.6142 -0.3272
  254Sol     HW 4151   1.111   3.018   4.246 -0.4182 -0.9737  0.7026
  254Sol     MW 4152   1.127   3.052   4.327 -0.1592 -0.0918  0.0815
  255Sol     OW 4153   2.236   1.054   9.364  0.1252 -0.9411 -0.3539
  255Sol     HW 4154   2.148   1.056   9.400  0.0076 -0.2135 -0.6701
  255Sol     HW 4155   2.283   1.123   9.411  0.9216 -2.2452  0.8037
  255Sol     MW 4156   2.232   1.061   9.371 -0.1111  0.0404  0.3515
  256Sol     OW 4157   1.851   0.555   5.883  0.0620 -0.3093 -0.6813
  256Sol     HW 4158   1.811   0.478   5.842 -1.5028 -0.2134  0.5864
  256Sol     HW 4159   1.921   0.520   5.938 -0.2436 -0.7677 -0.5839
  256Sol     MW 4160   1.853   0.545   5.884  0.4906 -0.2637 -0.0080
  257Sol     OW 4161   0.761   0.384   8.796  0.4801 -0.8299  0.0598
  257Sol     HW 4162   0.830   0.443   8.826 -0.3450  0.2643 -0.1755
  257Sol     HW 4163   0.739   0.415   8.708  0.9587 -2.3107 -0.6059
  257Sol     MW 4164   0.765   0.392   8.791 -0.5259  0.1173  0.3690
  258Sol     OW 4165   0.210   0.382   1.899 -0.4802  0.0216 -0.1114
  258Sol     HW 4166   0.192   0.298   1.942 -0.1201 -0.1144 -0.2220
  258Sol     HW 4167   0.304   0.379   1.880 -1.0244 -0.7775 -2.7733
  258Sol     MW 4168   0.217   0.374   1.902 -0.2333 -0.5591 -0.1143
  259Sol     OW 4169   0.324   2.283   9.621  0.1093  0.8480  0.0937
  259Sol     HW 4170   0.360   2.335   9.693  2.0368 -0.1412 -0.1302
  259Sol     HW 4171   0.347   2.332   9.542  1.3340  0.0280 -0.0741
  259Sol     MW 4172   0.329   2.292   9.620  0.4498 -0.1461  0.0833
  260Sol     OW 4173   1.286   1.929   2.721  0.7416 -0.4967  0.5704
  260Sol     HW 4174   1.280   2.002   2.660 -0.8219 -3.3228 -2.8692
  260Sol     HW 4175   1.377   1.902   2.719  0.5795 -0.9890 -1.1450
  260Sol     MW 4176   1.293   1.933   2.716  0.5455  0.1154  0.5544
  261Sol     OW 4177   2.315   1.463   7.407  0.3214  0.3138 -0.2764
  261Sol     HW 4178   2.320   1.409   7.487 -0.1766 -1.6059 -1.4954
  261Sol     HW 4179   2.405   1.463   7.373  0.6117  1.4554  0.4899
  261Sol     MW 4180   2.324   1.458   7.411 -0.3016 -0.8057  0.1304
  262Sol     OW 4181   2.498   1.645   6.016  0.3406  0.1226  0.0403
  262Sol     HW 4182   2.411   1.685   6.016 -0.0583 -0.6874 -2.3875
  262Sol     HW 4183   2.482   1.552   6.026  0.9802  0.0436  0.3664
  262Sol     MW 4184   2.489   1.641   6.017  0.1223 -0.0644 -0.3162
  263Sol     OW 4185   2.566   1.027   7.120  0.2558  0.0049  0.1652
  263Sol     HW 4186   2.532   0.958   7.062 -0.6392  1.2377 -0.7818
  263Sol     HW 4187   2.530   1.005   7.206 -0.1216 -0.6466 -0.1529
  263Sol     MW 4188   2.560   1.019   7.123 -0.1826  0.1119  0.2132
  264Sol     OW 4189   2.354   2.969   5.962 -0.1198 -0.1486 -0.0784
  264Sol     HW 4190   2.410   2.902   5.925  0.4099  0.4823 -0.4351
  264Sol     HW 4191   2.405   3.007   6.033  0.0563  0.6806 -0.6445
  264Sol     MW 4192   2.363   2.967   5.965 -0.0870  0.3569 -0.0329
  265Sol     OW 4193   2.680   2.252   9.167 -0.0451 -0.0857 -0.0947
  265Sol     HW 4194   2.636   2.200   9.234  0.5476 -0.8288 -0.2672
  265Sol     HW 4195   2.668   2.343   9.194 -0.0900 -0.3684  0.8406
  265Sol     MW 4196   2.675   2.255   9.176  0.1786  0.6115 -0.0505
  266Sol     OW 4197   2.651   2.783   2.359 -0.0112  0.5816 -0.1697
  266Sol     HW 4198   2.592   2.714   2.389  0.4286  1.1356  2.0525
  266Sol     HW 4199   2.596   2.861   2.352  0.5089  1.1975  2.3085
  266Sol     MW 4200   2.641   2.784   2.361  0.2537  0.2142 -0.4292
  267Sol     OW 4201   0.740   0.709   8.630  0.9050 -0.3810 -0.3141
  267Sol     HW 4202   0.716   0.627   8.587 -0.8313  0.1226 -0.3508
  267Sol     HW 4203   0.804   0.684   8.696  1.0870 -1.6323 -0.9499
  267Sol     MW 4204   0.744   0.699   8.632  0.0639 -0.7723 -0.3057
  268Sol     OW 4205   3.213   3.135   3.290 -0.0551  0.3775 -0.0549
  268Sol     HW 4206   3.181   3.218   3.325  0.4970  0.3294  0.5606
  268Sol     HW 4207   3.184   3.135   3.198 -1.5213  0.4872  0.3960
  268Sol     MW 4208   3.207   3.143   3.285  0.3111  0.1263  0.6624
  269Sol     OW 4209   2.308   2.701   9.516 -0.3155 -0.5515 -0.3320
  269Sol     HW 4210   2.217   2.692   9.488 -0.3375  0.1037 -0.4791
  269Sol     HW 4211   2.356   2.721   9.435  0.1108 -1.9132 -0.4194
  269Sol     MW 4212   2.304   2.702   9.506 -0.0617  0.0642 -0.1861
  270Sol     OW 4213   3.185   0.780   5.438  0.0128  0.0533 -0.0979
  270Sol     HW 4214   3.208   0.771   5.346 -0.2122 -0.4251 -0.1085
  270Sol     HW 4215   3.093   0.752   5.442 -0.0101  0.1819  0.2501
  270Sol     MW 4216   3.179   0.777   5.430 -0.2603 -0.3101  0.1677
  271Sol     OW 4217   1.546   2.745   5.571  0.5750 -0.3096 -0.0837
  271Sol     HW 4218   1.511   2.698   5.496 -0.7667 -0.2088  0.4676
  271Sol     HW 4219   1.641   2.741   5.560  0.3818 -0.0103 -1.9406
  271Sol     MW 4220   1.552   2.741   5.563 -0.3714  0.5375 -0.6330
  272Sol     OW 4221   0.235   1.327   3.906 -0.2473  0.2920  0.2673
  272Sol     HW 4222   0.293   1.296   3.975 -1.3786  0.0327  1.1056
  272Sol     HW 4223   0.277   1.298   3.825  0.3120 -0.6986  0.9036
  272Sol     MW 4224   0.244   1.322   3.905  0.3622 -0.7631  0.4707
  273Sol     OW 4225   0.566   1.215   5.024  0.4855 -0.2659  0.1585
  273Sol     HW 4226   0.541   1.184   4.937 -0.6359  1.4950 -0.1769
  273Sol     HW 4227   0.656   1.186   5.034 -0.1275 -2.6011 -0.5765
  273Sol     MW 4228   0.572   1.210   5.017 -0.5284  0.0440 -0.4005
  274Sol     OW 4229   1.902   0.421   4.740  0.3227 -0.0008 -0.1788
  274Sol     HW 4230   1.853   0.500   4.720 -0.1466 -0.5107 -1.0599
  274Sol     HW 4231   1.953   0.403   4.661 -0.3931 -1.1667 -0.4025
  274Sol     MW 4232   1.902   0.426   4.731  0.1971  0.0702 -0.2465
  275Sol     OW 4233   2.256   2.059   7.592 -0.6585 -0.3145 -0.2696
  275Sol     HW 4234   2.191   2.005   7.548 -1.1631  0.7492 -0.8627
  275Sol     HW 4235   2.329   2.000   7.609 -0.1279 -0.6027 -3.2437
  275Sol     MW 4236   2.257   2.049   7.590  0.1252  0.0889 -0.5105
  276Sol     OW 4237   2.939   3.011   4.175 -0.1205 -0.3703 -0.0288
  276Sol     HW 4238   2.916   3.010   4.082  1.4978 -1.3359 -0.4383
  276Sol     HW 4239   3.032   2.989   4.177  0.2669  1.2284  1.7112
  276Sol     MW 4240   2.946   3.009   4.167 -0.7989 -0.1635  0.3790
  277Sol     OW 4241   0.204   3.006   2.380 -0.7599 -0.2214 -0.2925
  277Sol     HW 4242   0.280   2.960   2.417  0.2988  0.8712 -1.0758
  277Sol     HW 4243   0.177   2.952   2.306  0.8379  0.6907 -1.5622
  277Sol     MW 4244   0.208   2.997   2.377  0.2649 -0.2394 -0.0788
  278Sol     OW 4245   0.791   3.160   1.377 -0.0129  0.4447  0.0613
  278Sol     HW 4246   0.744   3.176   1.459 -1.8776  1.7097 -1.2081
  278Sol     HW 4247   0.758   3.076   1.346 -0.9910  1.0275 -0.5039
  278Sol     MW 4248   0.784   3.154   1.382  0.3798  0.0750 -0.1682
  279Sol     OW 4249   0.797   1.600   3.853 -0.3065 -0.1298  0.0037
  279Sol     HW 4250   0.726   1.654   3.820  0.3651 -0.1486 -1.4985
  279Sol     HW 4251   0.799   1.524   3.796  1.0476 -0.0345 -0.1066
  279Sol     MW 4252   0.791   1.598   3.845 -0.0332 -0.2515  0.0700
  280Sol     OW 4253   0.993   2.702   9.626  0.5830  0.1282  0.1727
  280Sol     HW 4254   0.919   2.720   9.569 -0.2684  0.5116  1.3968
  280Sol     HW 4255   1.007   2.607   9.618  0.6848  0.2284 -0.9165
  280Sol     MW 4256   0.988   2.695   9.620 -0.3298  0.1720 -0.1307
  281Sol     OW 4257   2.000   1.297   3.770  0.1592  0.3430  0.0975
  281Sol     HW 4258   2.032   1.370   3.823  0.1745  0.8991 -0.6683
  281Sol     HW 4259   2.044   1.307   3.685  1.8818 -1.8457  0.6914
  281Sol     MW 4260   2.007   1.305   3.767 -0.2836  0.2208 -0.1699
  282Sol     OW 4261   0.645   2.799   2.463  0.2253  0.0994  0.1476
  282Sol     HW 4262   0.642   2.742   2.386 -0.0337  0.4187 -0.0809
  282Sol     HW 4263   0.553   2.819   2.481  0.2106 -0.8076  1.1676
  282Sol     MW 4264   0.636   2.796   2.458  0.1797 -0.1810  0.1879
  283Sol     OW 4265   3.259   3.326   2.781 -0.2136  0.6050 -0.5080
  283Sol     HW 4266   3.203   3.383   2.728  0.4170  1.9258  0.2312
  283Sol     HW 4267   3.200   3.256   2.810 -0.7682  0.3512 -2.2033
  283Sol     MW 4268   3.248   3.325   2.779  0.7544  0.3300 -0.1176
  284Sol     OW 4269   1.195   0.673   3.736  0.1467 -0.5640 -0.0951
  284Sol     HW 4270   1.128   0.741   3.745  1.8448  1.0269  0.8488
  284Sol     HW 4271   1.264   0.714   3.683  1.0796 -1.6161  0.2837
  284Sol     MW 4272   1.195   0.683   3.732  0.3244  0.1996  0.2117
  285Sol     OW 4273   0.986   0.196   3.874  0.2889  0.3354 -0.2089
  285Sol     HW 4274   0.986   0.289   3.897  1.1286  0.2329  0.2230
  285Sol     HW 4275   1.077   0.168   3.889 -0.6153 -1.2875  2.5524
  285Sol     MW 4276   0.994   0.202   3.877 -0.1627 -0.5436 -0.6841
  286Sol     OW 4277   1.088   2.445   8.912  0.0555 -0.0190  0.5905
  286Sol     HW 4278   1.020   2.384   8.941  1.1530 -0.2154  2.8959
  286Sol     HW 4279   1.041   2.524   8.887 -1.2669 -1.2854 -1.0114
  286Sol     MW 4280   1.078   2.446   8.912 -0.1963 -0.0772  0.1025
  287Sol     OW 4281   1.545   2.938   6.957 -0.7416 -0.2044 -0.6250
  287Sol     HW 4282   1.561   2.928   7.051  0.0564 -1.7301 -0.9003
  287Sol     HW 4283   1.450   2.931   6.948 -0.9979  1.9508  0.2788
  287Sol     MW 4284   1.538   2.936   6.965  0.6678  0.0885 -0.2322
  288Sol     OW 4285   1.170   2.253   3.836 -0.8152 -0.4673  0.4887
  288Sol     HW 4286   1.125   2.228   3.917 -1.4017 -0.0002  0.3141
  288Sol     HW 4287   1.128   2.335   3.810  1.2186  0.8350  1.1841
  288Sol     MW 4288   1.162   2.258   3.841  0.8106  0.3460  0.4745
  289Sol     OW 4289   2.452   2.833   8.406  0.1651 -0.1372  0.2720
  289Sol     HW 4290   2.373   2.885   8.395 -0.5742 -1.1460  0.7344
  289Sol     HW 4291   2.441   2.790   8.491  0.8114 -0.9661 -0.0530
  289Sol     MW 4292   2.444   2.833   8.413 -0.0245 -0.7420 -0.1955
  290Sol     OW 4293   3.270   2.404   7.401 -0.4305 -0.5433  0.5264
  290Sol     HW 4294   3.309   2.334   7.453  0.8767 -0.6783 -0.5882
  290Sol     HW 4295   3.338   2.426   7.337 -0.8230  1.7449  0.8667
  290Sol     MW 4296   3.280   2.400   7.400 -0.1042  0.8419 -0.1332
  291Sol     OW 4297   0.741   2.029   7.110  0.0215 -0.0925 -0.2877
  291Sol     HW 4298   0.712   1.953   7.059 -1.5576 -0.1334  0.6389
  291Sol     HW 4299   0.723   2.104   7.054 -1.1087 -0.1861 -0.0517
  291Sol     MW 4300   0.737   2.029   7.101 -0.4716  0.0452  0.1473
  292Sol     OW 4301   2.326   0.628   3.805  0.3565 -0.0857 -0.0679
  292Sol     HW 4302   2.342   0.722   3.813  0.3221 -0.0982  0.1420
  292Sol     HW 4303   2.239   0.622   3.766 -0.6181 -0.0417  2.0071
  292Sol     MW 4304   2.319   0.636   3.802  0.3750  0.3062  0.0739
  293Sol     OW 4305   2.029   2.632   3.665 -0.4371 -0.0708  0.2996
  293Sol     HW 4306   1.980   2.573   3.609  1.0167 -1.4470  0.4403
  293Sol     HW 4307   2.061   2.701   3.606  1.6423 -1.8603 -0.7494
  293Sol     MW 4308   2.028   2.633   3.655 -0.9069  0.2467  0.1231
  294Sol     OW 4309   2.574   1.180   3.524 -0.3588 -0.5296  0.5243
  294Sol     HW 4310   2.631   1.116   3.480  0.0450 -0.3377  0.7645
  294Sol     HW 4311   2.556   1.245   3.457  0.2967 -0.2119  0.6481
  294Sol     MW 4312   2.578   1.180   3.514 -0.2192  0.5399  0.4320
  295Sol     OW 4313   3.194   1.837   5.960 -0.3444  0.1250  0.1426
  295Sol     HW 4314   3.154   1.908   5.911 -0.6584 -0.8081 -0.9870
  295Sol     HW 4315   3.126   1.770   5.965 -0.4818  0.3899  2.2849
  295Sol     MW 4316   3.184   1.837   5.956 -0.2423  0.4690 -0.2552
  296Sol     OW 4317   2.541   2.747   4.514  0.3176  0.1208  0.1900
  296Sol     HW 4318   2.485   2.671   4.526 -1.9784  1.9753  1.5724
  296Sol     HW 4319   2.580   2.735   4.427 -1.6881 -1.5565 -0.5054
  296Sol     MW 4320   2.540   2.739   4.507  0.5911  0.4405 -0.6765
  297Sol     OW 4321   1.287   1.879   3.000 -0.3835 -0.3438 -0.3248
  297Sol     HW 4322   1.358   1.819   3.022 -0.7197 -0.8452 -0.5865
  297Sol     HW 4323   1.291   1.886   2.904 -0.4607 -0.0925 -0.3098
  297Sol     MW 4324   1.294   1.874   2.993 -0.2561 -0.3198  0.0970
  298Sol     OW 4325   2.541   3.451   7.197 -0.5274 -0.3641 -0.6865
  298Sol     HW 4326   2.554   3.535   7.154 -0.8123 -0.7064 -1.4617
  298Sol     HW 4327   2.554   3.386   7.128  0.2901 -0.9842  0.0410
  298Sol     MW 4328   2.543   3.452   7.187  0.3448 -0.3626  0.5733
  299Sol     OW 4329   0.260   0.664   4.608  0.0739  0.7494  0.3737
  299Sol     HW 4330   0.337   0.718   4.628  1.2001 -0.7610  0.2180
  299Sol     HW 4331   0.264   0.650   4.514  1.1148 -1.5244  0.7190
  299Sol     MW 4332   0.267   0.668   4.602 -0.0615  0.4185  0.1376
  300Sol     OW 4333   1.769   0.029   6.168  0.1920  0.6750 -0.3802
  300Sol     HW 4334   1.795   0.051   6.078  0.3468  0.0966 -0.4833
  300Sol     HW 4335   1.675   0.018   6.164  0.5770 -2.7792 -1.2458
  300Sol     MW 4336   1.763   0.030   6.159  0.0332 -0.0847 -0.4423
  301Sol     OW 4337   0.113   1.995   5.216 -0.2505  0.4420 -0.1367
  301Sol     HW 4338   0.130   1.957   5.303  0.3929 -0.2880 -0.5698
  301Sol     HW 4339   0.188   2.052   5.200  0.2540 -0.3750 -0.7299
  301Sol     MW 4340   0.121   1.997   5.222 -0.1372 -0.0970  0.6759
  302Sol     OW 4341   1.318   1.759   9.756 -0.6213  0.6375  0.1861
  302Sol     HW 4342   1.245   1.792   9.703  0.2401  2.1451 -0.1047
  302Sol     HW 4343   1.276   1.715   9.829 -1.8297 -0.3215 -1.0568
  302Sol     MW 4344   1.307   1.758   9.758 -0.0300  1.0043  0.4748
  303Sol     OW 4345   1.231   1.024   7.771 -0.1364  0.1800 -0.1297
  303Sol     HW 4346   1.197   1.111   7.792  0.0454  0.5671 -1.3487
  303Sol     HW 4347   1.195   0.967   7.838 -0.1966  1.2136  0.7317
  303Sol     MW 4348   1.225   1.027   7.779  0.0248 -0.6451 -0.7971
  304Sol     OW 4349   0.489   0.349   5.677  0.0936  0.3175 -0.2721
  304Sol     HW 4350   0.430   0.285   5.635  0.3165 -1.2560  1.7529
  304Sol     HW 4351   0.577   0.320   5.651  0.2016 -0.2813  0.7564
  304Sol     MW 4352   0.492   0.340   5.671  0.7893 -0.4135 -0.1336
  305Sol     OW 4353   2.172   2.001   5.544  0.3688  0.5279 -0.4770
  305Sol     HW 4354   2.242   1.999   5.609  0.7476 -0.2758 -0.9068
  305Sol     HW 4355   2.196   1.935   5.479 -0.4958  0.6402 -0.9319
  305Sol     MW 4356   2.180   1.995   5.544 -0.1309  0.5034  0.2451
  306Sol     OW 4357   1.289   2.169   8.460 -0.1381 -0.1400  0.3278
  306Sol     HW 4358   1.291   2.074   8.473  0.5087 -0.1053  0.5128
  306Sol     HW 4359   1.224   2.183   8.392 -0.8197 -0.6504  0.8734
  306Sol     MW 4360   1.284   2.162   8.455  0.1386  0.5386  0.7546
  307Sol     OW 4361   0.306   1.957   8.253  0.0371 -0.8665 -0.3236
  307Sol     HW 4362   0.357   1.877   8.264  0.8111  0.0047  3.2306
  307Sol     HW 4363   0.225   1.941   8.301 -0.4500 -0.0713 -0.8762
  307Sol     MW 4364   0.304   1.949   8.258 -0.4279  0.3854  0.0134
  308Sol     OW 4365   1.007   3.393   4.972 -0.6344  0.3425 -0.2232
  308Sol     HW 4366   1.025   3.337   4.897  0.5435 -1.7898  1.5581
  308Sol     HW 4367   1.088   3.442   4.986  0.0589 -1.1164  1.1145
  308Sol     MW 4368   1.016   3.392   4.967  0.0148  0.2974 -0.2891
  309Sol     OW 4369   3.206   1.383   9.877  0.3256 -0.1777 -0.1520
  309Sol     HW 4370   3.228   1.321   9.947 -1.4659  0.7870  1.3020
  309Sol     HW 4371   3.280   1.378   9.817  1.1849 -2.1729  1.0215
  309Sol     MW 4372   3.215   1.377   9.878 -0.3592  0.3757  0.2299
  310Sol     OW 4373   2.629   2.714   7.218 -0.3578  0.1240 -0.5329
  310Sol     HW 4374   2.695   2.781   7.234  1.1720 -1.5517  0.3690
  310Sol     HW 4375   2.678   2.642   7.178 -1.7624 -0.8849 -0.4590
  310Sol     MW 4376   2.640   2.714   7.216 -0.4431  0.6084  0.3043
  311Sol     OW 4377   1.796   0.538   3.186 -0.3748 -0.0620 -0.2435
  311Sol     HW 4378   1.808   0.617   3.133  0.2721 -0.5777 -0.8784
  311Sol     HW 4379   1.884   0.517   3.217 -0.5515 -0.5123 -0.0431
  311Sol     MW 4380   1.805   0.543   3.184 -0.3872  0.5186 -0.1061
  312Sol     OW 4381   1.938   1.836   2.935 -0.0024 -0.2814  0.1592
  312Sol     HW 4382   1.975   1.755   2.971  0.1184 -0.3314 -0.0807
  312Sol     HW 4383   1.844   1.818   2.928  0.2600 -1.0265 -1.5524
  312Sol     MW 4384   1.933   1.827   2.938  0.3511  0.0555 -0.8913
  313Sol     OW 4385   1.775   3.081   6.311  0.1475  0.3397  0.2772
  313Sol     HW 4386   1.825   3.161   6.325 -1.4751  1.7030 -1.5345
  313Sol     HW 4387   1.697   3.091   6.365  1.1699 -1.2340  2.1197
  313Sol     MW 4388   1.773   3.089   6.317  0.4013  0.4488 -0.2183
  314Sol     OW 4389   0.070   1.975   3.419 -0.0869  0.1036 -0.3901
  314Sol     HW 4390   0.159   1.941   3.433 -0.5868 -0.7079  0.9116
  314Sol     HW 4391   0.083   2.058   3.372  1.3187 -0.2994 -0.7443
  314Sol     MW 4392   0.079   1.979   3.416  0.0057 -0.2571  0.4186
  315Sol     OW 4393   1.495   2.940   2.482 -0.1995 -0.1955  0.0578
  315Sol     HW 4394   1.494   3.001   2.408 -1.4635  0.2892  0.4609
  315Sol     HW 4395   1.543   2.864   2.450  0.1723  0.4457 -0.9139
  315Sol     MW 4396   1.499   2.939   2.473  0.0758 -0.1043 -0.0439
  316Sol     OW 4397   3.192   2.513   3.793  0.9795 -0.0514  0.2755
  316Sol     HW 4398   3.213   2.434   3.843  2.3036 -0.0515 -0.2505
  316Sol     HW 4399   3.104   2.536   3.820 -0.2080 -2.8427 -0.9765
  316Sol     MW 4400   3.186   2.508   3.800 -0.3926  0.4175 -0.0255
  317Sol     OW 4401   2.008   2.146   4.491 -0.0803 -0.1553  0.3508
  317Sol     HW 4402   2.098   2.168   4.466 -0.2423 -0.5702 -0.5891
  317Sol     HW 4403   1.995   2.057   4.459 -0.8722 -0.0587  0.3943
  317Sol     MW 4404   2.015   2.140   4.486 -0.3062  0.1686 -0.5876
  318Sol     OW 4405   0.876   2.772   4.839 -0.4309 -0.5807 -0.2363
  318Sol     HW 4406   0.896   2.861   4.866 -2.5283  0.3240 -1.4940
  318Sol     HW 4407   0.951   2.720   4.868  1.2783  1.7469 -0.3589
  318Sol     MW 4408   0.884   2.775   4.844 -0.5328  0.0743 -0.0509
  319Sol     OW 4409   0.236   1.286   3.454 -0.2895 -0.0608 -0.9449
  319Sol     HW 4410   0.249   1.260   3.364 -2.0960  0.5681 -1.4212
  319Sol     HW 4411   0.255   1.208   3.506 -1.8035 -1.2025 -2.0598
  319Sol     MW 4412   0.239   1.277   3.451  0.1157 -0.2947  0.2811
  320Sol     OW 4413   0.251   1.206   2.404  0.3426 -0.3148  0.7728
  320Sol     HW 4414   0.331   1.154   2.416  1.5604  1.4730  0.6858
  320Sol     HW 4415   0.269   1.260   2.327 -1.6912 -1.1979 -0.3443
  320Sol     MW 4416   0.260   1.206   2.398 -0.2178  0.4358  0.3581
  321Sol     OW 4417   3.197   0.666   3.497  0.2904  0.1932  0.1597
  321Sol     HW 4418   3.267   0.730   3.500 -1.2329  1.9019  0.3701
  321Sol     HW 4419   3.136   0.700   3.431  0.7181 -2.3906 -1.6563
  321Sol     MW 4420   3.198   0.675   3.491 -0.6073 -0.6147 -0.4036
  322Sol     OW 4421   0.978   1.879   9.353 -1.0789  0.2025  0.6593
  322Sol     HW 4422   1.050   1.919   9.403 -0.6589 -2.1009  1.9786
  322Sol     HW 4423   0.969   1.934   9.275  1.7822  0.8568  0.7309
  322Sol     MW 4424   0.984   1.887   9.350  0.7571 -0.5110 -0.0951
  323Sol     OW 4425   2.867   2.409   3.931  0.2450 -0.1401  0.3833
  323Sol     HW 4426   2.846   2.413   3.838 -0.9803  0.4810  0.6639
  323Sol     HW 4427   2.801   2.465   3.972  0.4876 -0.7813  1.6700
  323Sol     MW 4428   2.859   2.415   3.926 -0.2926 -0.3030 -0.0951
  324Sol     OW 4429   0.537   3.040   7.030  0.7863 -0.2812 -0.1306
  324Sol     HW 4430   0.499   3.038   6.942 -0.2450  0.1975  0.2954
  324Sol     HW 4431   0.574   2.953   7.042 -1.1406 -1.1221 -0.1425
  324Sol     MW 4432   0.537   3.032   7.023  0.0526 -0.0049  0.4221
  325Sol     OW 4433   3.109   2.875   5.426 -0.2348  0.2038 -0.2532
  325Sol     HW 4434   3.056   2.893   5.348  0.8561 -0.6751 -1.2267
  325Sol     HW 4435   3.047   2.844   5.491 -1.2831  1.7351 -0.5062
  325Sol     MW 4436   3.099   2.874   5.425  0.6639 -0.2580  0.0081
  326Sol     OW 4437   1.648   2.994   4.298  0.5437  0.8189 -0.5751
  326Sol     HW 4438   1.589   2.923   4.319 -0.1825  0.9428 -2.1053
  326Sol     HW 4439   1.735   2.961   4.320  0.1607 -0.3420 -0.7806
  326Sol     MW 4440   1.650   2.985   4.302 -0.7652  0.0719 -0.0392
  327Sol     OW 4441   2.257   1.738   3.513  0.2789 -0.5509  0.2334
  327Sol     HW 4442   2.264   1.743   3.609 -0.4491  1.3364  0.2179
  327Sol     HW 4443   2.164   1.754   3.495  0.7309  0.9837 -0.8700
  327Sol     MW 4444   2.249   1.740   3.520  0.6768 -0.4163 -0.2642
  328Sol     OW 4445   3.179   0.031   6.113  0.3568  0.1028 -0.3872
  328Sol     HW 4446   3.235   0.069   6.180 -0.2556  0.8202 -0.2773
  328Sol     HW 4447   3.209  -0.060   6.106  0.7415  0.1520  0.5102
  328Sol     MW 4448   3.187   0.026   6.119 -0.1073  0.2427 -0.6818
  329Sol     OW 4449   0.859   3.050   1.943  0.0591  0.2960 -0.0719
  329Sol     HW 4450   0.793   3.105   1.986 -0.1597 -0.3423  0.4235
  329Sol     HW 4451   0.918   3.024   2.013  1.8541  2.2542 -0.8082
  329Sol     MW 4452   0.858   3.052   1.953  0.1354 -0.0402 -0.1529
  330Sol     OW 4453   2.162   1.486   6.983 -0.2217 -0.6013 -0.7970
  330Sol     HW 4454   2.145   1.410   6.928  1.3738 -1.0531 -0.7042
  330Sol     HW 4455   2.159   1.451   7.073 -0.9178 -0.2560 -0.6823
  330Sol     MW 4456   2.160   1.476   6.986  0.7673 -0.4636 -0.1231
  331Sol     OW 4457   1.594   2.989   8.420  0.7163 -0.2755 -0.0040
  331Sol     HW 4458   1.508   2.985   8.379  2.1139 -2.1208 -2.8730
  331Sol     HW 4459   1.599   2.910   8.474  0.9983 -0.6665 -0.6056
  331Sol     MW 4460   1.587   2.982   8.422  0.4829 -0.1813  0.0204
  332Sol     OW 4461   3.276   1.979   4.654  0.1266  0.0766 -0.0686
  332Sol     HW 4462   3.349   2.030   4.619  0.2164 -1.1572 -1.7392
  332Sol     HW 4463   3.235   2.036   4.718  2.9148  0.6018  1.3382
  332Sol     MW 4464   3.279   1.988   4.657 -0.8548 -0.1300  0.0065
  333Sol     OW 4465   0.172   2.859   7.343  0.1547  0.5351 -0.9872
  333Sol     HW 4466   0.256   2.894   7.314 -0.2923  0.8580 -1.9227
  333Sol     HW 4467   0.139   2.811   7.267  1.5169 -3.4001  0.7633
  333Sol     MW 4468   0.176   2.858   7.333 -0.3642 -0.1406 -0.4456
  334Sol     OW 4469   1.490   2.430   6.677  0.0973  0.0793  0.8151
  334Sol     HW 4470   1.547   2.384   6.740 -0.6925 -1.1561  0.6516
  334Sol     HW 4471   1.405   2.388   6.687  0.2425 -0.9785 -1.9427
  334Sol     MW 4472   1.488   2.422   6.684 -0.1179 -0.2624 -0.0282
  335Sol     OW 4473   1.262   0.751   3.344 -0.0553  0.0278  0.1843
  335Sol     HW 4474   1.305   0.778   3.425  0.3854 -0.7339  0.2084
  335Sol     HW 4475   1.334   0.728   3.285 -0.4120 -1.0931  0.1691
  335Sol     MW 4476   1.273   0.751   3.346 -0.7273  0.0013  0.1737
  336Sol     OW 4477   0.755   2.230   7.281  0.2081  0.8920  0.0732
  336Sol     HW 4478   0.714   2.154   7.240  0.7567  0.5128  0.2240
  336Sol     HW 4479   0.692   2.258   7.348  1.1442 -1.0171  1.7972
  336Sol     MW 4480   0.746   2.226   7.283 -0.5415 -0.4280 -0.5951
  337Sol     OW 4481   1.487   2.748   7.335  0.2471  0.2156  0.6130
  337Sol     HW 4482   1.399   2.781   7.318  0.4705  0.9741  0.9117
  337Sol     HW 4483   1.543   2.798   7.276  0.2480 -1.6197 -0.9629
  337Sol     MW 4484   1.484   2.755   7.328 -0.1215 -0.2596 -0.0239
  338Sol     OW 4485   1.898   2.965   4.404  0.0382  0.2896 -0.6156
  338Sol     HW 4486   1.872   2.940   4.492 -0.8901  0.0675 -0.9482
  338Sol     HW 4487   1.988   2.933   4.396 -0.3918 -1.0283 -0.2692
  338Sol     MW 4488   1.904   2.960   4.411 -0.0491 -0.2901 -0.2964
  339Sol     OW 4489   1.928   2.086   8.869  0.4489  0.1684  0.4419
  339Sol     HW 4490   1.862   2.039   8.919  0.8130  0.2910  1.0382
  339Sol     HW 4491   1.947   2.029   8.794 -1.4101  0.7966 -0.5463
  339Sol     MW 4492   1.924   2.076   8.867 -0.6562  0.4528  0.1429
  340Sol     OW 4493   2.984   1.184   3.390 -0.1629  0.4158 -0.3474
  340Sol     HW 4494   2.915   1.121   3.407  0.1994  0.4591  1.3423
  340Sol     HW 4495   2.953   1.266   3.429  1.5263  0.0285  1.8748
  340Sol     MW 4496   2.975   1.186   3.395  0.4864  0.2153  0.0909
  341Sol     OW 4497   1.845   1.736   8.201  0.4664  0.4212  0.0974
  341Sol     HW 4498   1.824   1.796   8.272  1.9788  1.1497 -0.0609
  341Sol     HW 4499   1.880   1.792   8.132  1.9320 -0.6192 -0.0358
  341Sol     MW 4500   1.846   1.747   8.201  0.1203 -0.2936 -0.2427
  342Sol     OW 4501   3.124   0.583   8.607  0.3239 -0.1080  0.3026
  342Sol     HW 4502   3.034   0.610   8.585 -0.0765  0.2816  2.3458
  342Sol     HW 4503   3.129   0.590   8.702  2.9427  1.1406  0.1130
  342Sol     MW 4504   3.116   0.586   8.614  0.3027  0.0432  0.6488
  343Sol     OW 4505   0.808   0.248   4.858  0.1791 -0.1675 -0.3899
  343Sol     HW 4506   0.831   0.188   4.787 -1.5816 -1.6657  0.2838
  343Sol     HW 4507   0.828   0.200   4.938 -0.7459  0.3307  0.1516
  343Sol     MW 4508   0.812   0.239   4.859 -0.0110  0.0900  0.0168
  344Sol     OW 4509   1.879   1.156   8.074  0.1529 -0.1397 -0.1310
  344Sol     HW 4510   1.849   1.110   8.153  0.5346 -1.4463 -0.7371
  344Sol     HW 4511   1.828   1.238   8.073 -1.1801 -0.9376  0.4879
  344Sol     MW 4512   1.871   1.159   8.081  0.0687 -0.3498 -0.1372
  345Sol     OW 4513   1.840   0.309   7.309 -0.2794  0.3934 -0.4971
  345Sol     HW 4514   1.907   0.341   7.369  0.4416 -1.0554 -0.5099
  345Sol     HW 4515   1.757   0.335   7.350  0.2611  1.3077  0.0211
  345Sol     MW 4516   1.838   0.314   7.318 -0.2320 -0.1742  0.0258
  346Sol     OW 4517   3.025   1.958   1.809 -0.1466  0.0502 -0.0539
  346Sol     HW 4518   3.062   1.957   1.897 -1.6059 -0.2528  0.5734
  346Sol     HW 4519   3.004   2.050   1.793 -1.2094 -0.0961  0.4883
  346Sol     MW 4520   3.027   1.966   1.816 -0.0899  0.3071 -0.2082
  347Sol     OW 4521   2.701   2.454   2.431  0.2347  0.5701 -0.3932
  347Sol     HW 4522   2.752   2.416   2.502 -0.0763  0.3898 -0.2659
  347Sol     HW 4523   2.630   2.501   2.475 -1.7926 -2.1444 -0.6685
  347Sol     MW 4524   2.699   2.455   2.441 -0.6658 -0.3694 -0.4070
  348Sol     OW 4525   1.866   0.705   6.210 -0.2519 -0.1961 -0.3125
  348Sol     HW 4526   1.776   0.695   6.179 -0.4636  0.9556 -0.0799
  348Sol     HW 4527   1.892   0.792   6.181  0.7843 -0.5030 -0.3422
  348Sol     MW 4528   1.861   0.712   6.205  0.2934 -0.2663  0.3431
  349Sol     OW 4529   1.190   2.094   2.206  0.0053 -0.0309  0.3743
  349Sol     HW 4530   1.140   2.058   2.279 -0.0413  0.2021  0.4605
  349Sol     HW 4531   1.213   2.183   2.234  2.1123 -0.7962  1.1227
  349Sol     MW 4532   1.187   2.099   2.215 -0.5034  0.0799 -0.2339
  350Sol     OW 4533   0.962   2.675   2.717 -0.0412  0.1096 -0.4018
  350Sol     HW 4534   0.909   2.605   2.679 -1.5835  1.0796 -0.1247
  350Sol     HW 4535   0.907   2.753   2.708  0.0431  0.5953  2.6965
  350Sol     MW 4536   0.952   2.676   2.713  0.1159 -0.1552 -0.5505
  351Sol     OW 4537   2.708   2.230   7.064 -0.1528 -0.2259 -0.1850
  351Sol     HW 4538   2.685   2.204   6.975  1.7385 -2.4736 -0.0741
  351Sol     HW 4539   2.763   2.159   7.096  1.5805  1.9104  1.7738
  351Sol     MW 4540   2.711   2.221   7.059 -0.0294 -0.4533 -0.1416
  352Sol     OW 4541   2.333   1.071   2.932  0.2744 -0.5592  0.3262
  352Sol     HW 4542   2.329   1.114   2.846  0.5626 -0.9237  0.1311
  352Sol     HW 4543   2.268   1.118   2.985 -0.3791 -0.7623 -0.2858
  352Sol     MW 4544   2.327   1.079   2.929  0.5193  0.0837 -0.2129
  353Sol     OW 4545   0.698   0.627   2.322 -0.0422 -0.4475  0.1747
  353Sol     HW 4546   0.673   0.692   2.388 -1.5023  2.2707 -2.9132
  353Sol     HW 4547   0.632   0.558   2.329 -1.0555  0.5523  0.5471
  353Sol     MW 4548   0.690   0.627   2.328 -0.3657 -0.3908 -0.0951
  354Sol     OW 4549   3.269   3.205   4.673 -0.4925 -0.6314 -0.5356
  354Sol     HW 4550   3.328   3.211   4.598  1.0271 -0.5227  0.6312
  354Sol     HW 4551   3.204   3.274   4.659 -0.9782 -1.4557 -2.3800
  354Sol     MW 4552   3.269   3.212   4.665 -0.2673 -0.2239 -0.0243
  355Sol     OW 4553   0.598   0.234   4.489 -0.3262 -0.3145 -0.3090
  355Sol     HW 4554   0.569   0.149   4.457 -0.6729 -0.8713  1.4207
  355Sol     HW 4555   0.541   0.252   4.564 -0.1463  1.3627 -0.5520
  355Sol     MW 4556   0.590   0.228   4.493 -0.0220 -0.1578  0.2361
  356Sol     OW 4557   2.915   2.077   2.414  0.2795 -0.5280 -0.4219
  356Sol     HW 4558   2.886   2.134   2.486  1.3765  0.7414 -0.9576
  356Sol     HW 4559   2.946   2.138   2.347  0.0268 -1.7321 -1.6408
  356Sol     MW 4560   2.915   2.088   2.415 -0.0109  0.2196 -0.0319
  357Sol     OW 4561   2.841   0.840   8.318  0.1827  0.1930  0.5531
  357Sol     HW 4562   2.842   0.780   8.392  0.3310  0.5667  0.8563
  357Sol     HW 4563   2.866   0.786   8.243  0.9290  0.0076  0.9272
  357Sol     MW 4564   2.843   0.830   8.317 -0.4660  0.0642 -0.5443
  358Sol     OW 4565   3.038   1.835   4.623  0.0355  0.1242  1.0448
  358Sol     HW 4566   3.124   1.879   4.622  0.8362 -1.3820  1.7365
  358Sol     HW 4567   2.987   1.881   4.557  1.0424  1.7138  1.3422
  358Sol     MW 4568   3.041   1.843   4.617  0.0163  0.1787 -0.0284
  359Sol     OW 4569   2.274   3.026   3.324  0.2306  0.3535  0.2794
  359Sol     HW 4570   2.256   2.976   3.244 -0.1753 -1.0579  1.2400
  359Sol     HW 4571   2.368   3.012   3.340 -0.0195 -0.5847  0.8882
  359Sol     MW 4572   2.281   3.021   3.318 -0.2212 -0.2280  0.1313
  360Sol     OW 4573   3.263   0.338   2.665 -0.2453 -0.1810 -0.5629
  360Sol     HW 4574   3.274   0.368   2.574  0.2040  0.8301 -0.1810
  360Sol     HW 4575   3.189   0.389   2.698  0.2717  0.2320 -0.0335
  360Sol     MW 4576   3.258   0.346   2.660 -0.0050 -0.0921  0.1713
  361Sol     OW 4577   2.602   2.559   3.192  0.2440 -0.3653 -0.2406
  361Sol     HW 4578   2.664   2.492   3.163 -0.3505 -1.2159  0.4082
  361Sol     HW 4579   2.528   2.509   3.226  1.0017  0.5646  2.9643
  361Sol     MW 4580   2.601   2.548   3.193  0.1881 -0.0118  0.5678
  362Sol     OW 4581   0.478   1.419   9.456 -0.1900  0.2784 -0.3060
  362Sol     HW 4582   0.409   1.485   9.464  0.4484  0.8938  0.2815
  362Sol     HW 4583   0.559   1.470   9.457  0.2533 -0.3665 -1.7917
  362Sol     MW 4584   0.479   1.430   9.457  0.5642  0.1939 -0.3180
  363Sol     OW 4585   0.745   2.348   7.648  0.0417 -0.5409  0.0988
  363Sol     HW 4586   0.709   2.410   7.711 -0.4531 -0.4658 -0.2556
  363Sol     HW 4587   0.804   2.400   7.593  1.1337 -0.7739  1.0329
  363Sol     MW 4588   0.747   2.358   7.649 -0.3748 -0.8747  0.0439
  364Sol     OW 4589   2.311   2.126   9.736 -0.3571  0.2822  0.1601
  364Sol     HW 4590   2.245   2.171   9.683 -1.8600 -1.3738  0.5877
  364Sol     HW 4591   2.306   2.034   9.708 -1.7542 -0.7913  3.6861
  364Sol     MW 4592   2.305   2.122   9.729 -0.9678 -0.0775  0.7012
  365Sol     OW 4593   0.235   1.698   2.093 -0.3362 -1.2578  0.4750
  365Sol     HW 4594   0.271   1.642   2.025  1.1245 -0.7312  0.8125
  365Sol     HW 4595   0.187   1.766   2.046  2.1043  0.1070 -0.1199
  365Sol     MW 4596   0.234   1.699   2.083  0.6745  0.4243  0.2514
  366Sol     OW 4597   1.690   1.293   3.392 -0.3959 -0.0050 -0.1036
  366Sol     HW 4598   1.669   1.204   3.362 -1.2244 -0.3880  1.5484
  366Sol     HW 4599   1.776   1.312   3.355  1.0993 -2.6239  1.9447
  366Sol     MW 4600   1.695   1.287   3.386 -0.4874 -0.7715 -0.0608
  367Sol     OW 4601   0.278   1.651   9.463  0.2383 -0.0537  0.7349
  367Sol     HW 4602   0.210   1.590   9.435 -1.6771  2.1938  0.2730
  367Sol     HW 4603   0.259   1.666   9.556  1.2513 -0.8498  1.0715
  367Sol     MW 4604   0.270   1.647   9.469 -0.1393  0.1961 -0.3241
  368Sol     OW 4605   2.335   0.340   5.243 -0.5025  0.4824 -0.0616
  368Sol     HW 4606   2.340   0.360   5.337 -2.6917 -2.6781  0.7854
  368Sol     HW 4607   2.376   0.254   5.235 -0.7220  0.5429 -1.9432
  368Sol     MW 4608   2.339   0.334   5.251  0.6277 -0.2901 -0.1888
  369Sol     OW 4609   1.312   1.380   1.435  0.0329 -0.3024  0.4152
  369Sol     HW 4610   1.372   1.444   1.473  0.9219 -0.6914 -0.2999
  369Sol     HW 4611   1.364   1.337   1.367 -1.7157  0.8644 -1.7214
  369Sol     MW 4612   1.322   1.382   1.432 -0.4320 -0.2128 -0.2819
  370Sol     OW 4613   3.059   0.399   3.317  0.0432 -0.0430  0.3395
  370Sol     HW 4614   2.987   0.425   3.375 -0.7151  0.0371 -0.6236
  370Sol     HW 4615   3.108   0.480   3.303  0.6626 -0.2139  1.4527
  370Sol     MW 4616   3.057   0.409   3.321  0.2925  0.1024  0.0329
  371Sol     OW 4617   1.821   2.861   4.663  0.2386  0.2233 -0.0500
  371Sol     HW 4618   1.802   2.953   4.679 -0.6613  0.3443 -1.7254
  371Sol     HW 4619   1.836   2.824   4.750  0.2601  1.8662  0.6585
  371Sol     MW 4620   1.821   2.866   4.672 -0.3995  0.0927  0.0964
  372Sol     OW 4621   2.407   0.976   8.750 -0.0732  0.4099  0.0488
  372Sol     HW 4622   2.442   1.033   8.682  0.5755  1.0117  0.8752
  372Sol     HW 4623   2.395   1.033   8.826  0.9733 -0.6144  1.0205
  372Sol     MW 4624   2.409   0.986   8.751 -0.0848 -0.1117 -0.5918
  373Sol     OW 4625   1.831   3.340   4.868 -0.3756  0.0621  0.3731
  373Sol     HW 4626   1.775   3.264   4.884  0.7602 -1.1108 -1.1109
  373Sol     HW 4627   1.772   3.407   4.836 -1.2635 -0.4656  0.8696
  373Sol     MW 4628   1.821   3.339   4.867 -0.1883  0.0111  0.4451
  374Sol     OW 4629   3.294   3.343   9.299  0.6463  0.3070  0.3026
  374Sol     HW 4630   3.331   3.396   9.229 -2.1350  1.3516 -0.4292
  374Sol     HW 4631   3.220   3.394   9.333  0.6449 -1.1150  2.5960
  374Sol     MW 4632   3.291   3.352   9.296 -0.2681 -0.1346  0.1428
  375Sol     OW 4633   2.994   3.014   9.552  0.2744 -0.0660 -0.1704
  375Sol     HW 4634   2.971   2.976   9.637 -2.3834 -0.4511 -1.0093
  375Sol     HW 4635   3.025   3.102   9.572  1.0593 -0.6747  1.3193
  375Sol     MW 4636   2.994   3.018   9.561  0.0480  1.0600 -0.0396
  376Sol     OW 4637   2.737   1.780   3.492 -0.4407 -0.0265 -0.8079
  376Sol     HW 4638   2.741   1.863   3.445 -1.7654  0.9274  0.6690
  376Sol     HW 4639   2.824   1.768   3.529 -0.7253  1.6207  0.4347
  376Sol     MW 4640   2.745   1.786   3.491 -0.2463  0.1745  0.0543
  377Sol     OW 4641   3.160   2.092   3.036  0.0394 -0.0196 -0.6806
  377Sol     HW 4642   3.234   2.041   3.004  1.7133  1.1121  1.2707
  377Sol     HW 4643   3.122   2.131   2.957  1.7845 -0.2810 -1.6819
  377Sol     MW 4644   3.163   2.091   3.026  0.6307 -0.0836  0.0812
  378Sol     OW 4645   2.707   2.707   5.475 -0.0943 -0.1462 -0.0548
  378Sol     HW 4646   2.698   2.718   5.381 -1.9136 -0.6621  0.0327
  378Sol     HW 4647   2.711   2.612   5.487 -1.2586 -0.1461  0.4691
  378Sol     MW 4648   2.706   2.699   5.468 -0.2797  0.4179 -0.5195
  379Sol     OW 4649   0.194   3.119   5.770  0.1465  0.6468  0.3439
  379Sol     HW 4650   0.128   3.064   5.728  0.4170 -0.3920  1.2251
  379Sol     HW 4651   0.257   3.137   5.701  0.3741 -0.6838  0.1788
  379Sol     MW 4652   0.194   3.115   5.760  0.6357  0.2337  0.0966
  380Sol     OW 4653   0.606   1.268   8.472 -0.1566  0.6924  0.1717
  380Sol     HW 4654   0.653   1.226   8.544  1.6003  1.1539 -0.6781
  380Sol     HW 4655   0.544   1.201   8.441 -0.4274  0.2514  1.6271
  380Sol     MW 4656   0.604   1.258   8.475  0.2425  0.0269  0.1962
  381Sol     OW 4657   2.014   2.294   5.688 -0.1480  0.0252  0.4260
  381Sol     HW 4658   2.055   2.254   5.612  0.4397 -0.7131  1.1207
  381Sol     HW 4659   1.924   2.260   5.688  0.2346 -0.9945  0.7946
  381Sol     MW 4660   2.009   2.287   5.682 -0.3395 -0.4367 -0.2893
  382Sol     OW 4661   1.123   2.696   7.143 -0.0179 -0.1482  0.1935
  382Sol     HW 4662   1.183   2.727   7.076 -0.4340 -1.0880 -0.6235
  382Sol     HW 4663   1.055   2.762   7.148 -0.1663 -0.2427 -0.5567
  382Sol     MW 4664   1.122   2.704   7.138 -0.1025  0.1082 -0.2386
  383Sol     OW 4665   2.595   0.899   7.481 -0.5004 -0.2840  0.1848
  383Sol     HW 4666   2.563   0.956   7.551 -0.9590 -0.2754 -0.0287
  383Sol     HW 4667   2.589   0.811   7.518  0.3016 -0.1904  0.5485
  383Sol     MW 4668   2.591   0.896   7.491 -0.3895  0.4313 -0.2169
  384Sol     OW 4669   0.778   2.105   7.779  0.3215  0.5454  0.2248
  384Sol     HW 4670   0.770   2.195   7.747  0.0249  0.2024 -0.6834
  384Sol     HW 4671   0.817   2.114   7.866  0.9621  1.5125 -0.1505
  384Sol     MW 4672   0.781   2.114   7.784  0.3294  0.0909  0.4741
  385Sol     OW 4673   1.934   2.557   7.995  0.1835  0.1238  0.6388
  385Sol     HW 4674   1.853   2.525   7.954 -0.3585 -0.0509  1.8156
  385Sol     HW 4675   1.925   2.652   7.995  0.9727  0.2030 -1.2173
  385Sol     MW 4676   1.926   2.562   7.992 -0.0269  0.2315  0.4539
  386Sol     OW 4677   0.569   1.419   3.577  0.1681 -0.1817 -0.3650
  386Sol     HW 4678   0.601   1.495   3.529  2.4853 -0.5435  0.5321
  386Sol     HW 4679   0.598   1.344   3.526 -0.7519 -0.5104 -0.4240
  386Sol     MW 4680   0.574   1.419   3.568  0.0006 -0.8472  0.3467
  387Sol     OW 4681   1.537   1.712   2.264 -0.5573  0.0324  0.6760
  387Sol     HW 4682   1.619   1.761   2.258 -1.5110  1.3380 -2.4104
  387Sol     HW 4683   1.559   1.624   2.232  0.3793 -0.6362  3.0608
  387Sol     MW 4684   1.546   1.708   2.261 -0.0155 -0.2018  0.1066
  388Sol     OW 4685   2.970   2.305   8.443  0.3045  0.1574 -0.5464
  388Sol     HW 4686   2.894   2.279   8.390  1.4861 -2.7196 -0.9063
  388Sol     HW 4687   3.022   2.361   8.385 -1.5565  2.2771 -0.2505
  388Sol     MW 4688   2.967   2.308   8.433 -0.4814  0.3295  0.6468
  389Sol     OW 4689   3.060   0.108   6.675  0.5051  0.8203  0.2545
  389Sol     HW 4690   3.131   0.171   6.663 -0.0724  1.6260  1.0211
  389Sol     HW 4691   3.067   0.050   6.599  2.4412  0.4291  0.7190
  389Sol     MW 4692   3.067   0.108   6.667  0.5976 -0.0222 -0.3709
  390Sol     OW 4693   0.555   2.312   4.187  0.4824 -0.3302  0.7884
  390Sol     HW 4694   0.533   2.221   4.168 -0.3364  0.1635 -0.7381
  390Sol     HW 4695   0.641   2.324   4.147 -0.4045  0.1759 -1.0289
  390Sol     MW 4696   0.561   2.305   4.182  0.0788 -0.4528  0.5212
  391Sol     OW 4697   1.935   3.213   8.621 -0.2791 -0.0672 -0.0656
  391Sol     HW 4698   2.003   3.204   8.688  1.0596 -1.6732 -1.5633
  391Sol     HW 4699   1.898   3.300   8.635  0.5457 -0.0513  2.1994
  391Sol     MW 4700   1.938   3.220   8.628  0.0832 -0.3945  0.1106
  392Sol     OW 4701   2.824   1.610   7.002  0.5691 -0.2422  0.2949
  392Sol     HW 4702   2.756   1.543   6.994 -0.6188  0.9808 -0.1139
  392Sol     HW 4703   2.777   1.693   6.993  1.9085  0.6786  1.4960
  392Sol     MW 4704   2.814   1.612   7.001  0.7674  0.2503  0.1411
  393Sol     OW 4705   0.116   3.401   2.504  0.1866 -0.1425  0.1896
  393Sol     HW 4706   0.127   3.308   2.485 -0.7865 -0.4835  1.2516
  393Sol     HW 4707   0.135   3.409   2.598  1.8780  0.9976 -0.2293
  393Sol     MW 4708   0.119   3.394   2.511 -0.4508  0.0529  0.2427
  394Sol     OW 4709   3.217   3.370   7.216  0.3039  0.0699  0.2221
  394Sol     HW 4710   3.285   3.318   7.173  0.5719  1.2361 -0.8123
  394Sol     HW 4711   3.142   3.367   7.156  0.0609  0.2511  0.5137
  394Sol     MW 4712   3.216   3.365   7.207  0.1965 -0.2076  0.7586
  395Sol     OW 4713   2.650   1.776   8.891  0.3364  0.2526 -0.0302
  395Sol     HW 4714   2.643   1.867   8.919 -0.9411 -0.1479  0.9450
  395Sol     HW 4715   2.636   1.725   8.970 -2.0263 -0.8628 -1.1296
  395Sol     MW 4716   2.648   1.780   8.900 -0.3568 -0.1217 -0.3955
  396Sol     OW 4717   0.827   1.790   4.566 -0.4057  0.1826 -0.8202
  396Sol     HW 4718   0.875   1.873   4.567  0.4260 -0.2813 -1.2996
  396Sol     HW 4719   0.875   1.734   4.627 -1.0291  0.0867 -0.4164
  396Sol     MW 4720   0.835   1.792   4.572 -0.2196 -0.5457 -0.7785
  397Sol     OW 4721   0.637   0.787   3.787  0.2919  0.0089  0.5120
  397Sol     HW 4722   0.556   0.755   3.749  0.4608 -0.7531  0.7828
  397Sol     HW 4723   0.620   0.789   3.882 -0.1055  1.8228  0.4303
  397Sol     MW 4724   0.629   0.784   3.792 -0.2653  0.2092  0.0130
  398Sol     OW 4725   1.299   0.518   7.762  0.1575  0.4164  0.3221
  398Sol     HW 4726   1.342   0.487   7.842 -0.2385 -0.7638  0.0774
  398Sol     HW 4727   1.275   0.439   7.715 -0.8726  1.0956 -0.3055
  398Sol     MW 4728   1.301   0.508   7.765  0.3584 -0.5538  0.5451
  399Sol     OW 4729   3.253   2.624   7.845 -0.5389  0.0705  0.1138
  399Sol     HW 4730   3.265   2.590   7.934  0.7268  2.2470  0.8164
  399Sol     HW 4731   3.198   2.701   7.857 -3.5086 -1.7196 -1.4627
  399Sol     MW 4732   3.249   2.628   7.854  0.4766  0.1976  0.1972
  400Sol     OW 4733   2.981   0.189   3.924  0.5329 -0.7079 -0.2033
  400Sol     HW 4734   2.940   0.103   3.923 -0.6941 -0.1784  1.6723
  400Sol     HW 4735   2.916   0.248   3.886  1.1988 -0.5384 -1.0915
  400Sol     MW 4736   2.972   0.187   3.921 -0.3074 -0.5827  0.4401
  401Sol     OW 4737   1.817   0.085   5.143  0.4236 -0.4445  0.4769
  401Sol     HW 4738   1.812   0.140   5.065  0.7172  1.4239  1.7132
  401Sol     HW 4739   1.909   0.089   5.169 -0.1773  1.3050  2.4986
  401Sol     MW 4740   1.825   0.090   5.139 -0.5097 -0.3373  0.2686
  402Sol     OW 4741   0.438   3.376   8.110 -0.0634  0.2586 -0.5869
  402Sol     HW 4742   0.437   3.346   8.201 -1.5698  0.3930 -0.5494
  402Sol     HW 4743   0.406   3.466   8.114 -0.6066  0.0998 -1.3048
  402Sol     MW 4744   0.435   3.381   8.118 -0.1131 -0.1182 -0.0755
  403Sol     OW 4745   0.908   1.772   3.416 -0.0691 -0.1008 -0.1729
  403Sol     HW 4746   0.881   1.860   3.391 -0.3217 -0.0278  0.3461
  403Sol     HW 4747   1.002   1.769   3.395  0.1217  0.5638  0.5425
  403Sol     MW 4748   0.914   1.780   3.412  0.1392 -0.1407  0.2515
  404Sol     OW 4749   0.854   1.129   6.065 -0.0518 -0.4310 -0.3951
  404Sol     HW 4750   0.898   1.204   6.025 -1.1324 -0.4890 -1.7582
  404Sol     HW 4751   0.761   1.154   6.066 -0.0105 -0.2936  2.4329
  404Sol     MW 4752   0.849   1.138   6.061  0.0288  0.2511  0.2666
  405Sol     OW 4753   2.134   3.307   2.333 -0.6007 -0.3570 -0.1699
  405Sol     HW 4754   2.177   3.356   2.263  1.0150 -0.8705  0.4317
  405Sol     HW 4755   2.104   3.226   2.291  0.4252 -0.6952 -0.2695
  405Sol     MW 4756   2.135   3.304   2.323  0.5873  0.1627  0.5401
  406Sol     OW 4757   0.099   2.281   4.232 -0.1084 -0.2655  0.4024
  406Sol     HW 4758   0.117   2.189   4.253  0.5395 -0.3328 -0.4251
  406Sol     HW 4759   0.016   2.300   4.276  0.2465 -0.9599  1.3851
  406Sol     MW 4760   0.093   2.274   4.238 -0.3148  0.4202  0.0818
  407Sol     OW 4761   0.906   1.984   8.233  0.3453 -0.1680  0.1039
  407Sol     HW 4762   0.962   1.909   8.212  0.0117 -0.2868 -0.3683
  407Sol     HW 4763   0.818   1.948   8.237  0.3329 -0.0299  1.1182
  407Sol     MW 4764   0.903   1.974   8.232 -0.0153  0.4613  0.0232
  408Sol     OW 4765   3.184   3.364   8.800 -0.0934 -0.4943  0.6625
  408Sol     HW 4766   3.270   3.324   8.786  0.5808  0.3068  2.3350
  408Sol     HW 4767   3.155   3.392   8.713  1.2958 -0.8621  0.0784
  408Sol     MW 4768   3.189   3.363   8.791 -0.0851  0.4962  0.5186
  409Sol     OW 4769   2.290   1.750   3.776 -0.0032  0.2212  0.1343
  409Sol     HW 4770   2.215   1.782   3.826  0.7201  0.6415  0.9702
  409Sol     HW 4771   2.360   1.741   3.841  0.9484  0.7845 -0.8036
  409Sol     MW 4772   2.290   1.752   3.786 -0.0565  0.2509  0.2852
  410Sol     OW 4773   0.178   0.259   3.382  0.1470 -0.1553  0.0019
  410Sol     HW 4774   0.085   0.256   3.361 -0.3037 -0.7020  1.9398
  410Sol     HW 4775   0.192   0.183   3.439  1.2427  1.2690  1.7040
  410Sol     MW 4776   0.171   0.252   3.385  0.8009  0.0197 -0.1325
  411Sol     OW 4777   2.953   3.128   6.917  0.2183 -0.3586 -0.3912
  411Sol     HW 4778   2.925   3.171   6.836  4.7495 -1.4263 -2.7265
  411Sol     HW 4779   2.952   3.197   6.983 -3.5931  0.5319 -1.2529
  411Sol     MW 4780   2.951   3.138   6.916  1.0169  0.1812 -0.0220
  412Sol     OW 4781   0.704   2.493   7.047  0.0269 -0.4954  0.0116
  412Sol     HW 4782   0.693   2.406   7.010  0.5606  0.2385 -1.9560
  412Sol     HW 4783   0.712   2.551   6.971  1.3850  1.0538  1.2741
  412Sol     MW 4784   0.704   2.491   7.037  0.2564  0.1179  0.1462
  413Sol     OW 4785   3.022   3.439   5.173 -0.2057 -0.2632  0.4241
  413Sol     HW 4786   2.939   3.454   5.217 -1.0357 -0.7330 -0.9404
  413Sol     HW 4787   3.079   3.509   5.205 -0.7353 -0.6876  2.3304
  413Sol     MW 4788   3.020   3.447   5.180  0.0395 -0.3525  0.1489
  414Sol     OW 4789   1.835   0.274   4.004 -0.4257  0.0898  0.1009
  414Sol     HW 4790   1.818   0.229   3.921 -0.1460  1.0295 -0.4694
  414Sol     HW 4791   1.923   0.309   3.995 -1.0817  1.7842  0.0575
  414Sol     MW 4792   1.841   0.273   3.995  0.5622 -0.3017 -0.1709
  415Sol     OW 4793   1.668   0.638   4.277 -0.2392 -0.0588 -0.0808
  415Sol     HW 4794   1.646   0.592   4.358  2.3205  0.1822  0.8026
  415Sol     HW 4795   1.664   0.570   4.209  0.2965 -0.8699  0.6895
  415Sol     MW 4796   1.666   0.628   4.278  0.1781 -0.4698  0.6224
  416Sol     OW 4797   0.750   0.909   4.969  0.4657  0.1998 -0.3211
  416Sol     HW 4798   0.774   0.993   5.010  0.4567 -0.4062  0.9434
  416Sol     HW 4799   0.822   0.890   4.909  0.3652  1.2194 -0.7732
  416Sol     MW 4800   0.759   0.915   4.967 -0.1320 -0.5626 -0.0225
  417Sol     OW 4801   1.841   2.953   8.684  0.0944 -0.4843  0.0034
  417Sol     HW 4802   1.862   3.045   8.668 -0.6889 -0.2983  0.0033
  417Sol     HW 4803   1.810   2.951   8.774 -0.8485 -0.5626 -0.3096
  417Sol     MW 4804   1.840   2.961   8.690  0.5516 -0.6835  0.4970
  418Sol     OW 4805   0.821   1.135   9.154  0.4371  0.4070 -0.1483
  418Sol     HW 4806   0.726   1.131   9.148  0.3695  0.8140  0.6144
  418Sol     HW 4807   0.843   1.070   9.221  0.5888  1.2762  0.6499
  418Sol     MW 4808   0.814   1.129   9.159  0.5099  0.6567 -0.3831
  419Sol     OW 4809   1.163   3.368  10.036 -0.2085  0.3928 -0.0947
  419Sol     HW 4810   1.104   3.294  10.048 -0.1898  0.4038  0.0645
  419Sol     HW 4811   1.106   3.443  10.020 -0.2092  0.2297 -0.8472
  419Sol     MW 4812   1.153   3.368  10.036  0.7865 -0.4374 -0.0761
  420Sol     OW 4813   2.440   0.664   7.183  0.6801 -0.1030  0.2900
  420Sol     HW 4814   2.528   0.636   7.207  0.4039 -0.4528  0.9006
  420Sol     HW 4815   2.420   0.615   7.103  0.7694 -0.5511  0.5406
  420Sol     MW 4816   2.446   0.657   7.178  0.1795 -0.1544  0.2008
  421Sol     OW 4817   0.391   0.830   8.891  0.0412 -0.0422 -0.2171
  421Sol     HW 4818   0.306   0.856   8.857 -0.8452  1.9263  3.2432
  421Sol     HW 4819   0.373   0.752   8.944  0.2913  0.6657  0.9206
  421Sol     MW 4820   0.382   0.825   8.893 -0.5142  0.0005  0.4797
  422Sol     OW 4821   2.296   0.038   8.067  0.7227 -0.6938  0.4946
  422Sol     HW 4822   2.380   0.083   8.066  0.4938 -0.2806 -1.2728
  422Sol     HW 4823   2.311  -0.044   8.020 -0.1011 -0.1301 -0.7915
  422Sol     MW 4824   2.305   0.035   8.063  0.2373 -0.0574 -0.2440
  423Sol     OW 4825   2.312   2.327   5.403 -0.5521 -0.1087 -0.0950
  423Sol     HW 4826   2.318   2.421   5.424  0.4495  0.1136 -1.3784
  423Sol     HW 4827   2.381   2.312   5.339 -0.1463 -1.9280  0.7706
  423Sol     MW 4828   2.318   2.334   5.399 -0.1330  0.2530 -0.4132
  424Sol     OW 4829   3.076   1.421   7.440  0.1220  0.6498  0.1739
  424Sol     HW 4830   3.128   1.433   7.519  0.8861 -1.5836  0.0464
  424Sol     HW 4831   3.116   1.479   7.376  1.0578  0.6167  0.7274
  424Sol     MW 4832   3.084   1.427   7.441 -0.0055  0.1881 -0.3208
  425Sol     OW 4833   2.341   1.474   6.608  0.2940 -0.0320 -0.4483
  425Sol     HW 4834   2.426   1.476   6.653 -0.7608  0.0116  1.5669
  425Sol     HW 4835   2.339   1.555   6.558  1.4648 -0.0655 -0.5764
  425Sol     MW 4836   2.349   1.481   6.607  0.5691  0.2350  0.1175
  426Sol     OW 4837   2.172   0.828   2.873 -0.3689 -0.6978  0.1664
  426Sol     HW 4838   2.230   0.893   2.911  1.8245 -1.6164 -1.4842
  426Sol     HW 4839   2.092   0.876   2.851  0.8878  1.2356 -0.2554
  426Sol     MW 4840   2.170   0.838   2.874  0.0020 -0.4769  0.0064
  427Sol     OW 4841   1.270   1.967   4.600  0.3920 -0.2484  0.0661
  427Sol     HW 4842   1.244   1.977   4.692 -2.9697  2.1139 -1.0454
  427Sol     HW 4843   1.299   1.876   4.593 -3.0148 -1.6346  2.6078
  427Sol     MW 4844   1.270   1.960   4.608 -0.6221  0.0418 -0.0376
  428Sol     OW 4845   1.350   2.937   2.703 -0.1525  0.4785 -0.1658
  428Sol     HW 4846   1.407   2.940   2.626 -0.9384  1.6655 -0.7169
  428Sol     HW 4847   1.403   2.894   2.770  1.0450  0.6902 -0.9567
  428Sol     MW 4848   1.360   2.933   2.702  0.0281 -0.2900  0.2466
  429Sol     OW 4849   1.081   2.334   7.897  0.0513 -0.7181  0.2928
  429Sol     HW 4850   1.072   2.400   7.966  0.0479  1.3749 -1.6369
  429Sol     HW 4851   1.020   2.265   7.921 -2.9038  1.8221  0.3376
  429Sol     MW 4852   1.075   2.334   7.905  0.0453  0.2949 -0.0067
  430Sol     OW 4853   2.955   0.807   7.640  0.1392  0.5743  0.8688
  430Sol     HW 4854   2.925   0.864   7.569 -0.8927  0.6132  1.3255
  430Sol     HW 4855   2.893   0.734   7.640  0.1958  0.5216  1.6567
  430Sol     MW 4856   2.947   0.806   7.634 -0.0824  0.1042  0.3638
  431Sol     OW 4857   1.487   3.029   2.189 -0.5369 -0.6869 -0.1175
  431Sol     HW 4858   1.400   3.065   2.170  1.2828  3.4257 -1.2571
  431Sol     HW 4859   1.503   2.968   2.117 -1.6365  0.1671 -1.1227
  431Sol     MW 4860   1.480   3.027   2.181 -0.4569 -0.0065  0.2149
  432Sol     OW 4861   2.027   0.709   1.944  0.2610 -0.1698 -0.5306
  432Sol     HW 4862   1.966   0.735   2.012  0.4448 -1.1069  0.0114
  432Sol     HW 4863   2.061   0.624   1.974  0.1972 -0.6875 -1.8692
  432Sol     MW 4864   2.025   0.703   1.953  0.0670  0.0987 -0.7326
  433Sol     OW 4865   0.111   1.032   5.921  0.4555 -0.6594  0.1559
  433Sol     HW 4866   0.118   1.108   5.978 -1.5769 -0.4681  0.1599
  433Sol     HW 4867   0.189   1.037   5.866  0.9074  0.7982  0.9011
  433Sol     MW 4868   0.119   1.039   5.921  0.1651  0.2716 -0.2521
  434Sol     OW 4869   1.387   3.188   6.029 -0.3242 -0.1715 -0.2312
  434Sol     HW 4870   1.443   3.185   5.951 -0.1190 -0.6513 -0.0653
  434Sol     HW 4871   1.298   3.195   5.994 -0.2543 -0.6917 -0.5145
  434Sol     MW 4872   1.384   3.188   6.019  0.0876 -1.0480 -0.0622
  435Sol     OW 4873   0.184   0.886   3.720 -0.0086 -0.3483 -0.2260
  435Sol     HW 4874   0.245   0.957   3.701 -1.5658  1.1270  0.1906
  435Sol     HW 4875   0.157   0.900   3.810  0.5964 -2.1920  0.2589
  435Sol     MW 4876   0.187   0.894   3.726  0.2701  0.4365 -0.0969
  436Sol     OW 4877   0.132   2.205   7.509  0.0440 -0.2927 -0.2647
  436Sol     HW 4878   0.220   2.191   7.544  0.4699  0.4305 -1.0264
  436Sol     HW 4879   0.082   2.127   7.536  0.6452 -0.2400  1.0137
  436Sol     MW 4880   0.135   2.197   7.514 -0.3287  0.3098 -0.3436
  437Sol     OW 4881   1.368   1.754   7.489  0.1953 -0.0070 -0.6124
  437Sol     HW 4882   1.290   1.704   7.464 -0.5654  1.0013 -0.2480
  437Sol     HW 4883   1.375   1.823   7.424  0.6620  0.0398 -0.5178
  437Sol     MW 4884   1.362   1.755   7.481 -0.2284  0.2636 -0.5338
  438Sol     OW 4885   0.447   2.220   7.995  0.5591 -0.9196  0.3108
  438Sol     HW 4886   0.443   2.307   7.957  0.9233 -0.2088  1.8653
  438Sol     HW 4887   0.359   2.204   8.029  0.3262 -1.4186 -0.5005
  438Sol     MW 4888   0.438   2.226   7.994 -0.0252  0.3839 -0.0040
  439Sol     OW 4889   0.975   1.652   9.127 -0.1257  0.4205 -0.5174
  439Sol     HW 4890   0.907   1.686   9.069 -0.9991  0.4368  0.5018
  439Sol     HW 4891   0.981   1.717   9.197  1.1432  0.5613 -0.7527
  439Sol     MW 4892   0.969   1.661   9.128 -0.1477 -0.6149  0.2660
  440Sol     OW 4893   1.430   3.077   7.482  0.5439  0.0639 -0.4967
  440Sol     HW 4894   1.465   3.126   7.408  0.6308 -0.8005 -1.0354
  440Sol     HW 4895   1.370   3.014   7.443 -0.3489  0.4164  0.2794
  440Sol     MW 4896   1.428   3.076   7.472  0.1980 -0.4311  0.4628
  441Sol     OW 4897   1.237   0.762   6.531  0.0230 -0.3329  0.2688
  441Sol     HW 4898   1.252   0.674   6.497 -0.8789 -0.4957  0.2718
  441Sol     HW 4899   1.291   0.766   6.610  2.0147  0.0079 -1.0731
  441Sol     MW 4900   1.243   0.755   6.535 -0.2783 -0.0546 -0.1385
  442Sol     OW 4901   2.180   0.228   3.020 -0.4857  0.3030  0.7958
  442Sol     HW 4902   2.105   0.176   3.050  0.4643 -1.6888 -0.1586
  442Sol     HW 4903   2.143   0.295   2.964 -1.3998 -1.9676 -1.3931
  442Sol     MW 4904   2.170   0.229   3.018 -0.1316 -0.7762  0.2343
  443Sol     OW 4905   2.648   0.759   4.485 -0.1568  0.1068  0.2658
  443Sol     HW 4906   2.557   0.734   4.473  0.1201 -0.7316 -0.1531
  443Sol     HW 4907   2.685   0.759   4.397  0.2873  0.2779  0.4511
  443Sol     MW 4908   2.643   0.756   4.476 -0.0679  0.0444 -0.1582
  444Sol     OW 4909   2.711   2.733   8.797 -0.2579  0.0841 -0.2337
  444Sol     HW 4910   2.722   2.823   8.765  1.1868 -0.1865 -0.5375
  444Sol     HW 4911   2.721   2.678   8.719 -0.8820 -0.3607 -0.0062
  444Sol     MW 4912   2.713   2.736   8.787 -0.3739 -0.2540 -0.2219
  445Sol     OW 4913   0.333   0.382   6.044 -0.2602 -0.1309 -0.3479
  445Sol     HW 4914   0.285   0.348   5.969 -0.3796 -1.1456  0.1892
  445Sol     HW 4915   0.425   0.364   6.025 -0.4063 -1.8422  0.4691
  445Sol     MW 4916   0.337   0.378   6.036  0.6675  0.0059 -0.1951
  446Sol     OW 4917   1.179   1.145   2.601 -0.1150  0.3612 -0.2689
  446Sol     HW 4918   1.230   1.168   2.523  0.0971  0.7875 -0.0061
  446Sol     HW 4919   1.199   1.053   2.616  1.6123  0.8638  0.6075
  446Sol     MW 4920   1.186   1.139   2.595  0.1023 -0.9464 -1.2079
  447Sol     OW 4921   0.631   1.136   6.771 -0.3953 -0.3127 -0.2314
  447Sol     HW 4922   0.692   1.072   6.808  0.7436  2.2547  2.6163
  447Sol     HW 4923   0.545   1.101   6.791  0.2123 -1.1274  1.0233
  447Sol     MW 4924   0.629   1.127   6.776  0.4703  0.5335 -0.0766
  448Sol     OW 4925   1.124   2.565   6.175 -0.5350  0.0388  0.4921
  448Sol     HW 4926   1.064   2.500   6.212  0.0155 -0.8588 -0.1626
  448Sol     HW 4927   1.175   2.516   6.111  1.5561  0.5643  1.7080
  448Sol     MW 4928   1.123   2.554   6.173  0.6276  0.7453  0.2682
  449Sol     OW 4929   3.019   1.605   6.026 -0.4717  0.3970 -0.0951
  449Sol     HW 4930   3.064   1.545   5.966  1.4696  0.8403  0.9041
  449Sol     HW 4931   2.930   1.610   5.991 -0.2747 -1.9259 -1.0391
  449Sol     MW 4932   3.015   1.600   6.017 -0.5426  0.3613 -0.1999
  450Sol     OW 4933   0.236   0.290  10.009  0.1316 -0.0021  0.3232
  450Sol     HW 4934   0.203   0.286  10.099 -1.2868 -1.2565 -0.2358
  450Sol     HW 4935   0.254   0.383   9.994  1.2622  0.1009  2.2054
  450Sol     MW 4936   0.234   0.298  10.015  0.2253  0.0912 -0.1819
  451Sol     OW 4937   2.574   0.687   6.111  0.4041 -0.5376  0.3217
  451Sol     HW 4938   2.526   0.691   6.028  0.5352  0.1974  0.2738
  451Sol     HW 4939   2.554   0.601   6.147 -1.2646 -0.0850  0.4939
  451Sol     MW 4940   2.568   0.680   6.107 -0.5859 -0.0481 -0.0195
  452Sol     OW 4941   1.760   2.115   9.651 -0.1467 -0.1537  0.4913
  452Sol     HW 4942   1.753   2.020   9.639  0.0376 -0.0377 -0.6560
  452Sol     HW 4943   1.822   2.127   9.723  0.3930 -0.8974  0.1555
  452Sol     MW 4944   1.765   2.108   9.656 -0.3476 -0.1003  0.2360
  453Sol     OW 4945   1.351   1.574   8.945 -0.6041  0.3901  0.4482
  453Sol     HW 4946   1.324   1.665   8.942  0.4978  0.7205  0.3556
  453Sol     HW 4947   1.271   1.525   8.965 -1.3658  1.2921 -0.3472
  453Sol     MW 4948   1.341   1.577   8.946  0.1841  0.0280 -0.2552
  454Sol     OW 4949   0.364   0.829   7.839 -0.1594 -0.4205  0.1398
  454Sol     HW 4950   0.442   0.777   7.855  0.5870  0.3370 -0.9413
  454Sol     HW 4951   0.330   0.850   7.926  1.3319 -0.0150  0.6375
  454Sol     MW 4952   0.368   0.826   7.848  0.1572 -0.2621  0.5180
  455Sol     OW 4953   2.526   2.816   5.805 -0.5890  0.2715  0.4295
  455Sol     HW 4954   2.509   2.725   5.778 -1.2136  0.3784  0.4474
  455Sol     HW 4955   2.559   2.859   5.726  1.5355 -0.4353  0.8976
  455Sol     MW 4956   2.527   2.811   5.795 -0.2604  0.6724  0.1272
  456Sol     OW 4957   2.934   0.915   7.910 -0.4165  0.4641 -0.3809
  456Sol     HW 4958   2.943   1.002   7.948  0.8021 -0.0326  0.5022
  456Sol     HW 4959   2.908   0.931   7.819  2.0869  1.8303 -0.8983
  456Sol     MW 4960   2.933   0.924   7.905 -0.3170  0.4226  0.1365
  457Sol     OW 4961   0.376   0.307   8.372 -0.8178 -0.5445  0.0760
  457Sol     HW 4962   0.372   0.226   8.423 -1.2014 -0.9504 -0.5872
  457Sol     HW 4963   0.398   0.278   8.284  1.8909  0.3474  0.4366
  457Sol     MW 4964   0.377   0.297   8.369 -0.1560 -0.2024 -0.0095
  458Sol     OW 4965   2.467   0.887   6.285  0.1478  0.5069 -0.3932
  458Sol     HW 4966   2.523   0.820   6.246  0.2730  0.1229  0.4328
  458Sol     HW 4967   2.466   0.866   6.378 -1.0585  0.7551 -0.3446
  458Sol     MW 4968   2.472   0.879   6.290 -0.3558  0.6072 -0.0448
  459Sol     OW 4969   1.122   0.320   6.416  0.0379 -0.0401 -0.2338
  459Sol     HW 4970   1.067   0.358   6.348 -2.4990 -0.0203  1.7393
  459Sol     HW 4971   1.153   0.237   6.379 -2.7477 -0.8743 -0.8047
  459Sol     MW 4972   1.120   0.316   6.407 -0.3628 -0.1562  0.3515
  460Sol     OW 4973   2.139   2.214   3.075 -0.1528  0.1427 -0.3790
  460Sol     HW 4974   2.066   2.189   3.018  0.6809  0.0108 -1.4090
  460Sol     HW 4975   2.210   2.235   3.014  0.8955 -0.4356  0.6284
  460Sol     MW 4976   2.139   2.214   3.064 -0.0366  0.0561  0.5518
  461Sol     OW 4977   1.453   3.055   5.415 -0.9811  0.6214  0.1897
  461Sol     HW 4978   1.548   3.051   5.410 -1.0606 -1.1002 -0.3685
  461Sol     HW 4979   1.432   3.024   5.503 -1.0790 -0.2410 -0.1340
  461Sol     MW 4980   1.460   3.052   5.423  0.2315  0.1403  0.2207
  462Sol     OW 4981   0.557   1.565   6.800  0.1002  0.8969  0.3747
  462Sol     HW 4982   0.643   1.597   6.826  0.6037 -0.2909  0.2411
  462Sol     HW 4983   0.528   1.626   6.732  2.1790 -0.3762 -1.7340
  462Sol     MW 4984   0.562   1.573   6.796 -0.0316 -0.1158  0.0462
  463Sol     OW 4985   0.179   1.748   1.777 -0.0961  0.3133 -0.6717
  463Sol     HW 4986   0.216   1.668   1.815  0.0141 -0.4275 -2.3116
  463Sol     HW 4987   0.229   1.762   1.697 -1.3917  0.9565 -1.3838
  463Sol     MW 4988   0.187   1.742   1.774 -0.1999 -0.1998  0.0325
  464Sol     OW 4989   0.442   2.126   6.284 -0.1702 -0.9070 -0.1525
  464Sol     HW 4990   0.383   2.070   6.335  0.4111 -1.9554 -0.6192
  464Sol     HW 4991   0.507   2.156   6.348  0.0130 -1.4579 -0.0798
  464Sol     MW 4992   0.442   2.124   6.294  0.0921  0.0249  0.4686
  465Sol     OW 4993   1.967   2.482   5.371 -0.5097  0.9570 -0.0281
  465Sol     HW 4994   2.003   2.503   5.457  1.6905  1.6914 -1.0931
  465Sol     HW 4995   1.995   2.393   5.354 -0.0594  1.1714 -0.4205
  465Sol     MW 4996   1.973   2.476   5.377 -0.4443 -0.3206 -0.0970
  466Sol     OW 4997   0.951   3.271   7.056 -0.5797 -0.2411  0.3165
  466Sol     HW 4998   0.857   3.258   7.044 -0.3792 -0.2959 -1.3622
  466Sol     HW 4999   0.972   3.228   7.138 -2.0410 -0.1614  0.7340
  466Sol     MW 5000   0.945   3.266   7.062  0.1089 -0.3355  0.4675
  467Sol     OW 5001   1.191   1.964  10.035 -0.4581  0.1098 -0.4411
  467Sol     HW 5002   1.160   1.874  10.044 -1.3883  0.2984 -1.7015
  467Sol     HW 5003   1.175   2.004  10.121  1.0404 -1.2276  0.5012
  467Sol     MW 5004   1.187   1.960  10.043  0.0843 -0.1945 -0.2255
  468Sol     OW 5005   3.290   1.130   3.409  0.1582  0.1634  0.0416
  468Sol     HW 5006   3.198   1.141   3.386  0.0676  1.1750  0.8377
  468Sol     HW 5007   3.304   1.191   3.481  1.4217 -0.0744  0.0119
  468Sol     MW 5008   3.283   1.136   3.413 -0.4480  0.2543  0.2565
  469Sol     OW 5009   0.213   0.562   6.718 -0.6829  0.1200 -0.1178
  469Sol     HW 5010   0.267   0.638   6.742  0.5286 -1.1229  1.1502
  469Sol     HW 5011   0.167   0.539   6.798 -1.1651 -0.4070 -0.5428
  469Sol     MW 5012   0.214   0.567   6.727 -0.5586 -0.4784 -0.5827
  470Sol     OW 5013   2.078   0.380   3.967  0.0185 -0.0782  0.4113
  470Sol     HW 5014   2.086   0.475   3.977  0.7088  0.0491 -1.1449
  470Sol     HW 5015   2.140   0.358   3.898 -0.2700 -1.6433  0.6304
  470Sol     MW 5016   2.084   0.387   3.962 -0.6939  0.3103 -0.1062
  471Sol     OW 5017   1.069   2.527   3.527 -0.1618 -0.1504  0.7792
  471Sol     HW 5018   1.053   2.504   3.619 -2.4336  0.6329  0.5974
  471Sol     HW 5019   1.123   2.606   3.532 -0.6559  0.1497  1.4381
  471Sol     MW 5020   1.073   2.532   3.536 -0.0151 -0.0279  0.6216
  472Sol     OW 5021   2.552   1.068   7.935 -0.0008  0.3166  0.1413
  472Sol     HW 5022   2.483   1.073   8.002  1.5963 -2.2275  2.0844
  472Sol     HW 5023   2.633   1.062   7.985  1.5802  2.3553 -2.1115
  472Sol     MW 5024   2.553   1.068   7.946 -0.0037  0.0646  0.5527
  473Sol     OW 5025   1.105   0.019   5.768  0.3276 -0.4937 -0.1324
  473Sol     HW 5026   1.156  -0.050   5.727 -0.3218 -0.9505 -0.1669
  473Sol     HW 5027   1.057   0.060   5.696  1.0298  0.2823 -0.1814
  473Sol     MW 5028   1.106   0.017   5.758  0.5026 -0.0098 -0.1080
  474Sol     OW 5029   2.551   1.748   8.047 -0.3254  0.2577 -0.2572
  474Sol     HW 5030   2.579   1.833   8.013  1.4750 -0.4415 -0.5966
  474Sol     HW 5031   2.522   1.699   7.970 -3.0496  1.1494  0.1539
  474Sol     MW 5032   2.551   1.751   8.037  0.2489  0.3317 -0.0386
  475Sol     OW 5033   2.930   3.431   7.334 -0.0914  0.6077  0.0062
  475Sol     HW 5034   2.923   3.337   7.314  0.0216  1.3107 -3.6884
  475Sol     HW 5035   2.840   3.456   7.357 -1.0106  0.3833 -3.0754
  475Sol     MW 5036   2.921   3.425   7.334  0.6434  0.8255 -0.7054
  476Sol     OW 5037   2.325   0.836   4.452 -0.5729  0.0842 -0.4760
  476Sol     HW 5038   2.257   0.777   4.485  0.4964 -0.0465  1.5699
  476Sol     HW 5039   2.382   0.852   4.527 -0.2387  2.8966 -1.2605
  476Sol     MW 5040   2.324   0.832   4.462 -0.0666 -0.1080  0.1336
  477Sol     OW 5041   3.277   1.474   7.645  0.0302  0.2038  0.3545
  477Sol     HW 5042   3.349   1.433   7.596 -0.6169 -2.1971  1.3564
  477Sol     HW 5043   3.282   1.567   7.620  1.1529 -0.5366 -2.4611
  477Sol     MW 5044   3.284   1.479   7.638  0.1047 -0.0079 -0.0805
  478Sol     OW 5045   0.462   0.033   4.346 -0.2019  0.1751  0.3996
  478Sol     HW 5046   0.372   0.050   4.375  0.2019 -1.4452  2.7897
  478Sol     HW 5047   0.466  -0.062   4.337  0.8867  0.3476 -1.0996
  478Sol     MW 5048   0.454   0.026   4.348 -0.1022  0.5287 -0.0159
  479Sol     OW 5049   1.553   0.642   4.988  0.7180 -0.0614 -0.3540
  479Sol     HW 5050   1.520   0.562   5.029  1.3455  0.2964  0.8748
  479Sol     HW 5051   1.484   0.668   4.927 -0.2186 -0.6279  0.4492
  479Sol     MW 5052   1.544   0.637   4.986 -0.1284 -0.2896 -0.3818
  480Sol     OW 5053   2.762   0.282   7.591 -0.2973 -0.0440  0.0043
  480Sol     HW 5054   2.781   0.365   7.634  0.1954 -0.1336 -0.0419
  480Sol     HW 5055   2.846   0.253   7.556 -0.2205 -1.1803  1.1008
  480Sol     MW 5056   2.771   0.287   7.592  0.4113 -0.0038  0.3070
  481Sol     OW 5057   0.389   2.299   7.039  0.4794  0.3723 -0.3982
  481Sol     HW 5058   0.330   2.282   6.966 -0.2729  0.2236  0.2417
  481Sol     HW 5059   0.345   2.366   7.091 -0.1032 -1.1926  1.1905
  481Sol     MW 5060   0.380   2.303   7.037 -0.1548 -0.6866  0.1852
  482Sol     OW 5061   0.860   0.449   6.280  0.0386 -0.2307  0.0789
  482Sol     HW 5062   0.780   0.396   6.288 -0.9298  0.6888 -3.0251
  482Sol     HW 5063   0.831   0.539   6.295  0.4798  0.1251 -1.1960
  482Sol     MW 5064   0.850   0.452   6.282  0.6522  0.0912 -0.0630
  483Sol     OW 5065   0.688   0.211   7.386  0.3523 -0.4696  0.1059
  483Sol     HW 5066   0.688   0.147   7.457  1.5002 -0.6249 -0.0245
  483Sol     HW 5067   0.734   0.167   7.314 -0.6096 -0.2418 -0.6726
  483Sol     MW 5068   0.692   0.201   7.386  0.8166 -0.2504  0.2049
  484Sol     OW 5069   1.061   2.837   7.532  0.7778  0.3775 -0.2533
  484Sol     HW 5070   1.034   2.903   7.597  1.3609  2.2733 -1.8881
  484Sol     HW 5071   1.150   2.815   7.557  0.9421  0.9773 -0.2979
  484Sol     MW 5072   1.066   2.841   7.540 -0.3095  0.1603 -0.0688
  485Sol     OW 5073   1.745   2.020   6.903  0.0662 -0.5174 -0.1788
  485Sol     HW 5074   1.746   2.107   6.864 -1.6349 -0.3861  0.0449
  485Sol     HW 5075   1.655   2.007   6.933  1.0018 -1.0873  2.6145
  485Sol     MW 5076   1.737   2.026   6.902  0.4074 -0.3533 -0.2979
  486Sol     OW 5077   0.288   2.176   7.770  0.1393 -0.2231  0.5308
  486Sol     HW 5078   0.279   2.202   7.862  0.5541 -1.4414  0.9257
  486Sol     HW 5079   0.383   2.177   7.754 -0.0070  1.3662 -0.2993
  486Sol     MW 5080   0.296   2.178   7.777  0.1632 -0.0465  0.2383
  487Sol     OW 5081   0.326   1.405   6.803 -0.1353 -0.1040  0.6261
  487Sol     HW 5082   0.399   1.464   6.822  0.2081 -0.9986  2.1209
  487Sol     HW 5083   0.311   1.415   6.709  0.8646  1.2784  0.6021
  487Sol     MW 5084   0.331   1.411   6.796 -0.1111  0.1590  0.1127
  488Sol     OW 5085   1.510   2.414   9.140 -0.3009  0.2452  0.3461
  488Sol     HW 5086   1.478   2.346   9.199  2.0336  0.3350  1.7780
  488Sol     HW 5087   1.540   2.367   9.062  0.7063 -0.2963  1.0609
  488Sol     MW 5088   1.510   2.404   9.138 -0.1557 -0.1015  0.8437
  489Sol     OW 5089   2.299   1.624   4.907 -0.4091  0.2310  0.4286
  489Sol     HW 5090   2.343   1.631   4.992 -0.7370 -2.9905  0.9251
  489Sol     HW 5091   2.206   1.621   4.928 -0.4263 -2.2574  0.1221
  489Sol     MW 5092   2.295   1.624   4.916 -0.3137 -0.0368 -0.3613
  490Sol     OW 5093   1.442   1.958   9.905 -0.1535 -0.3170 -0.5027
  490Sol     HW 5094   1.393   1.907   9.840 -1.5997  0.6181 -0.1760
  490Sol     HW 5095   1.380   1.973   9.976  0.8166  0.3414  0.2236
  490Sol     MW 5096   1.432   1.955   9.905 -0.1092 -0.4736 -0.1691
  491Sol     OW 5097   0.094   2.367   4.918  0.0816 -0.0128 -0.0903
  491Sol     HW 5098   0.036   2.303   4.959  0.0613  0.7856  1.1724
  491Sol     HW 5099   0.181   2.345   4.951  0.4705 -1.0448 -1.7737
  491Sol     MW 5100   0.096   2.359   4.925 -0.0670 -0.1394  0.9428
  492Sol     OW 5101   1.715   3.287   9.634 -0.1630 -0.6704  0.3959
  492Sol     HW 5102   1.635   3.331   9.604  0.6512  0.5696 -0.0026
  492Sol     HW 5103   1.692   3.195   9.638 -2.1698 -0.1390  2.0201
  492Sol     MW 5104   1.706   3.283   9.632 -0.1052  0.5958  0.3334
  493Sol     OW 5105   3.048   2.710   3.935 -0.2611 -0.3866 -0.2217
  493Sol     HW 5106   3.102   2.777   3.894 -0.1238  0.8664  1.9010
  493Sol     HW 5107   2.958   2.739   3.921 -0.2377 -0.2636 -0.1100
  493Sol     MW 5108   3.045   2.718   3.930  0.5112  0.1759  0.1040
  494Sol     OW 5109   0.823   1.656   3.163 -0.2438  0.0779  0.4090
  494Sol     HW 5110   0.829   1.659   3.258 -0.7737 -0.1125  0.4502
  494Sol     HW 5111   0.733   1.629   3.145  0.0654 -0.6005 -0.1393
  494Sol     MW 5112   0.816   1.654   3.170 -0.4773 -0.1156 -0.2726
  495Sol     OW 5113   1.798   2.614   5.170 -0.3429  0.0116 -0.1996
  495Sol     HW 5114   1.800   2.710   5.175 -1.1372  0.0320 -0.1330
  495Sol     HW 5115   1.866   2.585   5.230 -1.0326  0.5191  0.8383
  495Sol     MW 5116   1.804   2.620   5.176  0.0980  0.4233 -0.2443
  496Sol     OW 5117   0.403   2.723   6.175 -0.5574 -0.2573 -0.0266
  496Sol     HW 5118   0.488   2.764   6.189  0.1096 -1.4107 -0.5481
  496Sol     HW 5119   0.341   2.795   6.172  0.3963  0.5915  0.4511
  496Sol     MW 5120   0.405   2.733   6.176  0.8251  0.3003  0.8873
  497Sol     OW 5121   0.923   1.088   5.306  0.6331  0.3516 -0.3142
  497Sol     HW 5122   0.936   1.008   5.359  1.5658  1.2599  0.8648
  497Sol     HW 5123   1.010   1.127   5.302 -0.1229  2.1267  0.4254
  497Sol     MW 5124   0.932   1.084   5.311  0.0369  0.4148 -0.5962
  498Sol     OW 5125   2.469   2.614   2.513 -0.6561  1.0242 -0.1691
  498Sol     HW 5126   2.425   2.684   2.561 -0.3250  1.0985  0.0234
  498Sol     HW 5127   2.403   2.583   2.451 -0.8205  1.4715 -0.2199
  498Sol     MW 5128   2.459   2.618   2.512 -0.3441  0.1178  0.0499
  499Sol     OW 5129   2.216   1.353   9.109  0.0694 -0.5593 -0.2142
  499Sol     HW 5130   2.217   1.432   9.055  2.1771 -0.7254 -0.4898
  499Sol     HW 5131   2.216   1.384   9.199  2.6029 -0.1749 -0.3037
  499Sol     MW 5132   2.216   1.363   9.112 -0.5393  0.2930  0.1943
  500Sol     OW 5133   2.550   1.763   9.524 -0.1963  0.6758 -0.1055
  500Sol     HW 5134   2.549   1.690   9.462 -1.1423  0.9881 -0.4634
  500Sol     HW 5135   2.585   1.837   9.474 -1.5884  1.0984 -0.4691
  500Sol     MW 5136   2.553   1.763   9.514  0.2552 -0.0329 -0.2920
  501Sol     OW 5137   0.282   2.044   5.976  0.4011 -0.0258  0.1378
  501Sol     HW 5138   0.194   2.070   6.004  0.1059 -1.0281  0.1745
  501Sol     HW 5139   0.338   2.118   6.000 -0.3602  0.4379  0.5150
  501Sol     MW 5140   0.279   2.053   5.981  0.4281 -0.4412 -0.3162
  502Sol     OW 5141   0.684   2.171   8.777 -0.5140  0.4744  0.1068
  502Sol     HW 5142   0.692   2.194   8.684  2.5975 -1.7541 -0.2803
  502Sol     HW 5143   0.702   2.077   8.780 -0.5588  0.5051  2.9816
  502Sol     MW 5144   0.687   2.164   8.769 -0.0805 -0.0101  0.4801
  503Sol     OW 5145   1.548   1.704   6.549 -0.1065 -0.2836  0.2044
  503Sol     HW 5146   1.537   1.687   6.455 -1.0761 -4.8888  1.0515
  503Sol     HW 5147   1.465   1.744   6.576  0.3624  1.5357 -0.9245
  503Sol     MW 5148   1.539   1.706   6.543  0.1092  0.3872  0.6560
  504Sol     OW 5149   2.191   1.377   7.837  0.4395  1.1437  0.7589
  504Sol     HW 5150   2.135   1.307   7.871  1.5508  0.8296  1.9745
  504Sol     HW 5151   2.267   1.377   7.895  2.3318  0.6848 -1.6454
  504Sol     MW 5152   2.193   1.371   7.845  0.3323 -1.0239  0.3108
  505Sol     OW 5153   0.013   0.237   1.551  0.3242  0.2097 -0.8140
  505Sol     HW 5154   0.074   0.164   1.543  0.9843  0.7527 -0.7228
  505Sol     HW 5155  -0.074   0.195   1.549  0.6564 -0.4431 -2.1627
  505Sol     MW 5156   0.011   0.226   1.550 -0.2927 -0.1627  0.5019
  506Sol     OW 5157   0.492   1.068   4.446  0.1744  0.7159 -0.0563
  506Sol     HW 5158   0.548   1.014   4.390  0.2938 -0.1508  0.8650
  506Sol     HW 5159   0.540   1.150   4.456  0.6096  0.5131 -0.4305
  506Sol     MW 5160   0.502   1.070   4.442 -0.3361 -0.1880  1.0226
  507Sol     OW 5161   3.311   1.443   3.843  0.2033  0.6271 -0.2341
  507Sol     HW 5162   3.331   1.533   3.867 -0.5319  0.6411  0.3469
  507Sol     HW 5163   3.367   1.390   3.899 -0.1422  0.7044  0.1895
  507Sol     MW 5164   3.318   1.446   3.851 -0.3381 -0.4103  0.0600
  508Sol     OW 5165   1.073   3.011   8.031  0.1957 -0.5879  0.0695
  508Sol     HW 5166   1.056   3.029   8.123  0.1398 -0.5456  0.0510
  508Sol     HW 5167   1.150   3.063   8.010 -0.4211  0.2342 -0.1876
  508Sol     MW 5168   1.078   3.017   8.037  0.3702  0.3428 -0.3194
  509Sol     OW 5169   3.058   1.806   8.195 -0.2202 -0.4950 -0.0424
  509Sol     HW 5170   2.983   1.764   8.154 -0.1139 -0.0863 -0.6583
  509Sol     HW 5171   3.132   1.749   8.174 -0.6280 -1.8388  2.0470
  509Sol     MW 5172   3.058   1.797   8.189 -0.0372  0.1658  0.3443
  510Sol     OW 5173   2.901   3.445   6.115  0.2574 -0.0888 -0.1748
  510Sol     HW 5174   2.872   3.406   6.197  0.0116  1.5586  0.5244
  510Sol     HW 5175   2.997   3.438   6.118  0.3300  1.2027  0.8841
  510Sol     MW 5176   2.907   3.441   6.123  0.4287  0.0371  0.0806
  511Sol     OW 5177   0.980   2.480   7.038  0.4902  0.2968 -0.5613
  511Sol     HW 5178   1.013   2.547   7.097  2.4963 -0.0827 -1.2271
  511Sol     HW 5179   0.886   2.479   7.054  0.8176  1.1701  1.6032
  511Sol     MW 5180   0.974   2.486   7.045 -0.5884 -0.2374  0.6151
  512Sol     OW 5181   2.370   3.240   4.216 -0.3170  0.6200 -0.3487
  512Sol     HW 5182   2.428   3.278   4.150 -0.6771 -0.2079 -1.1416
  512Sol     HW 5183   2.399   3.280   4.298  0.6779  1.0301 -0.8845
  512Sol     MW 5184   2.378   3.247   4.217  0.7041  0.0401  0.0792
  513Sol     OW 5185   2.717   2.351   5.535 -0.4207  0.0649  0.4906
  513Sol     HW 5186   2.632   2.325   5.570 -1.2536 -0.3970 -1.8391
  513Sol     HW 5187   2.772   2.273   5.545 -1.0998 -0.5673 -0.6471
  513Sol     MW 5188   2.714   2.342   5.539 -0.4172 -0.8128  0.0162
  514Sol     OW 5189   0.071   1.200   6.290 -0.3475 -0.1082 -0.1287
  514Sol     HW 5190   0.124   1.234   6.218  0.6090 -0.7199  0.2754
  514Sol     HW 5191   0.106   1.112   6.306 -0.5261  0.0400  1.1143
  514Sol     MW 5192   0.079   1.195   6.285 -0.2295 -0.0911  0.5212
  515Sol     OW 5193   1.721   2.344   7.878  0.2492  0.0014 -0.1917
  515Sol     HW 5194   1.777   2.285   7.827  0.1018 -2.0923  1.9953
  515Sol     HW 5195   1.643   2.356   7.823  0.6428 -1.1576 -1.0229
  515Sol     MW 5196   1.719   2.340   7.868  0.0440 -0.1679  0.5019
  516Sol     OW 5197   3.165   2.531   6.910  0.8436 -0.3727 -0.4891
  516Sol     HW 5198   3.193   2.522   6.819  2.3853  0.4197 -0.1190
  516Sol     HW 5199   3.221   2.471   6.958 -0.4657 -1.3349 -0.1300
  516Sol     MW 5200   3.173   2.525   6.906 -0.4685  0.6962  0.3183
  517Sol     OW 5201   1.249   0.202   2.655 -0.2333 -0.4204 -0.5062
  517Sol     HW 5202   1.308   0.135   2.690 -0.1781  0.9202  2.0611
  517Sol     HW 5203   1.161   0.165   2.667 -0.1632 -0.3521  0.2815
  517Sol     MW 5204   1.246   0.193   2.659  0.5991 -0.4976 -0.1153
  518Sol     OW 5205   3.119   0.879   6.304 -0.0459 -0.2713 -0.3948
  518Sol     HW 5206   3.156   0.927   6.378  1.1906 -0.7493 -0.6767
  518Sol     HW 5207   3.173   0.906   6.229  1.3351 -2.8171 -0.3831
  518Sol     MW 5208   3.127   0.885   6.304  0.2980 -0.8350  0.0948
  519Sol     OW 5209   1.344   3.199   3.515  0.1051  0.4397  0.1886
  519Sol     HW 5210   1.409   3.247   3.566 -0.8138  1.1319  0.7301
  519Sol     HW 5211   1.261   3.245   3.533 -0.8087 -1.3891  0.7891
  519Sol     MW 5212   1.342   3.207   3.521  0.1204  0.1567 -0.0090
  520Sol     OW 5213   0.132   0.421   2.171 -0.4561 -0.1505 -0.4768
  520Sol     HW 5214   0.123   0.418   2.075 -1.6695 -1.2232 -0.3238
  520Sol     HW 5215   0.224   0.444   2.185 -0.5786  1.3482 -1.9110
  520Sol     MW 5216   0.140   0.423   2.163  0.0540 -0.8685  0.8125
  521Sol     OW 5217   0.980   2.699   8.909 -0.4466  0.3184 -0.7942
  521Sol     HW 5218   1.024   2.781   8.888 -1.1880  1.1741  0.9805
  521Sol     HW 5219   0.888   2.714   8.885 -0.7379  0.2818  0.3061
  521Sol     MW 5220   0.975   2.708   8.905 -0.6581  0.0677 -0.4514
  522Sol     OW 5221   2.220   1.115   2.218  0.4661  0.0406 -0.2337
  522Sol     HW 5222   2.310   1.122   2.186  1.1737  3.0044  2.1264
  522Sol     HW 5223   2.221   1.040   2.277  0.8897 -1.0415 -1.5668
  522Sol     MW 5224   2.228   1.109   2.220  0.3023 -0.1141  0.2923
  523Sol     OW 5225   2.937   0.345   7.898  0.1395  0.3303 -0.3306
  523Sol     HW 5226   2.859   0.290   7.898 -0.1317  0.6852  0.9844
  523Sol     HW 5227   2.968   0.343   7.989  1.2077  0.8241 -0.6697
  523Sol     MW 5228   2.933   0.340   7.906 -0.1800 -0.1404  0.2823
  524Sol     OW 5229   3.201   3.056   2.130  0.1712 -0.6435  0.6878
  524Sol     HW 5230   3.273   3.018   2.180  0.4773  0.9542  1.4833
  524Sol     HW 5231   3.210   3.150   2.143 -1.9446 -0.4115  0.6453
  524Sol     MW 5232   3.208   3.061   2.136 -0.6657  0.2132  0.0020
  525Sol     OW 5233   2.445   2.242   8.493  0.3707  0.1217 -0.0338
  525Sol     HW 5234   2.380   2.209   8.556 -0.2784 -2.5770 -2.0234
  525Sol     HW 5235   2.400   2.313   8.448 -1.3605 -1.8605 -1.5425
  525Sol     MW 5236   2.435   2.245   8.495 -0.0209  0.4064 -0.3770
  526Sol     OW 5237   1.436   1.592   5.683  0.2807  0.8399  0.0813
  526Sol     HW 5238   1.385   1.517   5.654  0.7208  1.1286 -1.4615
  526Sol     HW 5239   1.383   1.631   5.753  0.5005 -1.4260  1.5437
  526Sol     MW 5240   1.427   1.589   5.687 -0.1810 -0.2073  0.1977
  527Sol     OW 5241   2.553   1.111   6.532  0.3899 -0.1314  0.0718
  527Sol     HW 5242   2.611   1.187   6.535  0.5792 -0.1722 -2.0714
  527Sol     HW 5243   2.592   1.053   6.467 -1.5730 -0.5604 -0.7629
  527Sol     MW 5244   2.562   1.113   6.526 -0.0867 -0.0618 -0.3403
  528Sol     OW 5245   3.274   3.260   3.575  0.1526  0.4760 -0.4255
  528Sol     HW 5246   3.214   3.322   3.535 -0.4047  0.3664  0.2263
  528Sol     HW 5247   3.352   3.263   3.520 -0.3977  0.7135 -1.2041
  528Sol     MW 5248   3.276   3.266   3.567 -0.1871 -0.7437  0.0504
  529Sol     OW 5249   2.096   2.593   8.409  0.0513 -0.6373 -0.2071
  529Sol     HW 5250   2.075   2.664   8.470  0.3783  0.3915 -1.2697
  529Sol     HW 5251   2.016   2.580   8.359 -0.0654 -1.1533  0.1100
  529Sol     MW 5252   2.087   2.598   8.410 -0.0587  0.1081 -0.4499
  530Sol     OW 5253   3.230   1.388   3.574  0.4850  0.2691 -0.7120
  530Sol     HW 5254   3.269   1.407   3.659 -0.3889  1.8649 -0.6491
  530Sol     HW 5255   3.276   1.445   3.512  0.1602  0.1409 -1.0777
  530Sol     MW 5256   3.238   1.395   3.576  0.8892  0.2514 -0.1236
  531Sol     OW 5257   1.787   2.999   8.954 -0.0495 -0.0914 -0.0869
  531Sol     HW 5258   1.752   2.955   9.031  1.0031 -1.1754 -0.2185
  531Sol     HW 5259   1.742   3.084   8.952  1.0544  0.5964  2.6058
  531Sol     MW 5260   1.780   3.003   8.961  0.0513 -0.1389  0.0727
  532Sol     OW 5261   1.548   2.008   5.884  0.6293  0.9422 -0.0488
  532Sol     HW 5262   1.540   2.035   5.975  1.4465  2.5590 -0.4434
  532Sol     HW 5263   1.638   2.029   5.860  0.5487  0.1472 -1.1119
  532Sol     MW 5264   1.555   2.012   5.890  0.3534 -0.2455 -0.2771
  533Sol     OW 5265   1.481   1.092   4.944 -1.0122  0.0465 -0.2081
  533Sol     HW 5266   1.575   1.075   4.946 -0.8888  0.4194 -2.1817
  533Sol     HW 5267   1.473   1.186   4.960 -1.1702 -0.2825  1.7445
  533Sol     MW 5268   1.488   1.099   4.946 -0.1967 -0.4737 -0.2978
  534Sol     OW 5269   0.208   3.409   5.200 -0.5208 -0.1134  0.2607
  534Sol     HW 5270   0.188   3.350   5.126  0.6145 -1.2363  0.8218
  534Sol     HW 5271   0.243   3.488   5.159  2.6623 -1.7615 -0.3581
  534Sol     MW 5272   0.209   3.411   5.189 -0.4972  0.1572 -0.0488
  535Sol     OW 5273   0.831   0.382   1.810  0.2714  0.0276 -0.5204
  535Sol     HW 5274   0.793   0.318   1.749 -1.3112  0.8204 -0.4053
  535Sol     HW 5275   0.922   0.354   1.821 -0.0969 -1.5591 -1.3271
  535Sol     MW 5276   0.835   0.374   1.806  0.4715 -0.1823 -0.6419
  536Sol     OW 5277   0.807   3.370   1.822  0.0038 -0.0289 -0.1026
  536Sol     HW 5278   0.789   3.307   1.753  0.8989  0.2127 -0.5735
  536Sol     HW 5279   0.897   3.350   1.849 -0.4418 -0.2978  1.1808
  536Sol     MW 5280   0.814   3.363   1.818  0.1183  0.0440 -0.5687
  537Sol     OW 5281   2.620   2.767   7.853 -0.0984 -0.3248 -0.3046
  537Sol     HW 5282   2.712   2.756   7.830  0.0445  2.4756 -1.1355
  537Sol     HW 5283   2.584   2.824   7.786 -2.0194  0.0756  1.0103
  537Sol     MW 5284   2.625   2.771   7.845 -0.1620  0.3570 -0.3034
  538Sol     OW 5285   2.650   0.791   6.755 -0.2642 -0.2040 -0.1007
  538Sol     HW 5286   2.639   0.697   6.770  0.3653 -0.1000  1.0735
  538Sol     HW 5287   2.582   0.832   6.809 -1.5683 -0.0437 -1.8422
  538Sol     MW 5288   2.643   0.786   6.762  0.3761 -0.5679  0.4120
  539Sol     OW 5289   2.492   0.427   3.739 -0.1799  0.4268  0.3138
  539Sol     HW 5290   2.428   0.482   3.785 -0.4183 -0.7908  1.4750
  539Sol     HW 5291   2.517   0.479   3.663 -3.1920  0.5901 -0.6423
  539Sol     MW 5292   2.488   0.437   3.737  0.0789  0.4889 -0.5776
  540Sol     OW 5293   2.962   1.602   9.572 -0.8627 -0.1376  0.3372
  540Sol     HW 5294   2.988   1.676   9.627 -0.2898 -1.2565  1.6254
  540Sol     HW 5295   2.872   1.582   9.598 -0.6689 -0.5262  0.7179
  540Sol     MW 5296   2.957   1.607   9.579 -0.2142 -0.6573 -0.3692
  541Sol     OW 5297   0.026   1.922   2.955 -0.0057 -0.4155  0.4736
  541Sol     HW 5298   0.111   1.877   2.953  0.7232  0.9452 -0.6140
  541Sol     HW 5299  -0.039   1.852   2.959  1.1076 -1.5605 -0.8643
  541Sol     MW 5300   0.028   1.912   2.955  0.0931 -0.0464 -0.4964
  542Sol     OW 5301   0.183   2.949   4.031  0.0165 -0.5013  0.7566
  542Sol     HW 5302   0.175   2.854   4.043 -0.1451 -0.8562 -1.8811
  542Sol     HW 5303   0.096   2.976   4.003  0.7066  0.0232 -0.9199
  542Sol     MW 5304   0.174   2.943   4.030  0.5290  0.5831  0.6344
  543Sol     OW 5305   2.658   1.798   4.186 -0.0313 -0.0562 -0.0195
  543Sol     HW 5306   2.748   1.778   4.160  0.1346  0.8029 -0.1249
  543Sol     HW 5307   2.665   1.878   4.237 -0.5930 -0.6822  1.0732
  543Sol     MW 5308   2.667   1.803   4.188 -0.1381 -0.3118 -0.0214
  544Sol     OW 5309   0.637   2.245   6.960 -0.3667 -0.0373  0.1023
  544Sol     HW 5310   0.618   2.247   6.867 -0.0120  1.5343  0.0357
  544Sol     HW 5311   0.552   2.259   7.002 -0.3295  0.6148 -0.0305
  544Sol     MW 5312   0.628   2.247   6.956  0.2056  0.1487  0.4133
  545Sol     OW 5313   1.672   0.763   7.805 -0.1634 -0.2121 -0.2225
  545Sol     HW 5314   1.672   0.844   7.857 -0.3472 -1.0378  1.0771
  545Sol     HW 5315   1.756   0.765   7.758  0.7666 -0.2633  1.4008
  545Sol     MW 5316   1.680   0.771   7.805 -0.3797  0.2840  0.3263
  546Sol     OW 5317   2.306   1.054   6.650 -0.3159 -0.3346  0.1381
  546Sol     HW 5318   2.389   1.065   6.604 -0.2238  0.1603  0.4272
  546Sol     HW 5319   2.241   1.094   6.592 -0.5417 -1.8366 -0.6883
  546Sol     MW 5320   2.307   1.058   6.641 -0.9854 -0.9046  0.1608
  547Sol     OW 5321   2.427   2.603   7.448 -0.0161  0.3106 -0.6312
  547Sol     HW 5322   2.445   2.516   7.483  1.5510  0.6787 -0.4771
  547Sol     HW 5323   2.379   2.587   7.367 -2.7973 -0.5814  1.1273
  547Sol     MW 5324   2.424   2.594   7.444 -0.0595  0.2145 -0.0816
  548Sol     OW 5325   0.396   2.977   7.275  0.4789 -0.3796 -0.2640
  548Sol     HW 5326   0.450   3.013   7.205  0.1921  0.1907 -0.1916
  548Sol     HW 5327   0.376   3.051   7.332 -0.1915 -0.6291 -0.1673
  548Sol     MW 5328   0.399   2.987   7.274  0.1689  0.3086 -0.5384
  549Sol     OW 5329   2.706   3.204   4.255  0.3808  1.1766 -0.1992
  549Sol     HW 5330   2.737   3.123   4.296 -0.9418 -0.4163 -2.2781
  549Sol     HW 5331   2.660   3.250   4.326 -0.7429 -0.9135  0.4685
  549Sol     MW 5332   2.705   3.201   4.265  0.1030 -0.3175  0.0792
  550Sol     OW 5333   2.338   2.923   8.762  0.4678 -0.1909  0.0468
  550Sol     HW 5334   2.358   2.992   8.698 -0.2063 -0.7200 -0.7480
  550Sol     HW 5335   2.326   2.844   8.709  0.3739 -0.7351  0.8771
  550Sol     MW 5336   2.338   2.922   8.751  0.0229  0.1066  0.6997
  551Sol     OW 5337   1.357   0.639   5.408 -0.1063  0.4145 -0.2024
  551Sol     HW 5338   1.417   0.714   5.416  0.5168 -0.1433  0.4205
  551Sol     HW 5339   1.407   0.565   5.441 -0.3620 -0.4802 -1.7925
  551Sol     MW 5340   1.367   0.639   5.412 -0.5212  0.1773 -0.4153
  552Sol     OW 5341   1.462   0.387   6.231 -0.0814  0.0364  0.5832
  552Sol     HW 5342   1.461   0.405   6.137 -1.1344 -0.7636  0.4266
  552Sol     HW 5343   1.380   0.426   6.264  0.6001  0.9019  1.2906
  552Sol     MW 5344   1.454   0.392   6.226  0.0812 -0.5033  0.2477
  553Sol     OW 5345   0.768   0.744   6.752 -0.0286  0.0643 -0.0565
  553Sol     HW 5346   0.714   0.778   6.680 -1.4707 -3.6545 -0.8327
  553Sol     HW 5347   0.843   0.703   6.708  0.0042 -0.6408  0.6566
  553Sol     MW 5348   0.770   0.744   6.741  0.3353 -0.0070  0.2391
  554Sol     OW 5349   1.537   0.318   9.241  0.1738 -0.3985 -0.3625
  554Sol     HW 5350   1.469   0.342   9.303  2.6156  0.0760  2.2693
  554Sol     HW 5351   1.578   0.241   9.281 -0.0131 -1.8238 -2.8370
  554Sol     MW 5352   1.535   0.313   9.250 -0.0561  0.5995 -0.1461
  555Sol     OW 5353   0.411   0.652   4.971 -0.1944  0.5621  1.2107
  555Sol     HW 5354   0.348   0.718   4.944 -0.1811 -0.4879 -1.6096
  555Sol     HW 5355   0.476   0.700   5.022 -0.5927  2.6002 -0.1322
  555Sol     MW 5356   0.411   0.662   4.973 -0.1040  0.0796 -0.2207
  556Sol     OW 5357   1.409   3.367   5.160  0.0057 -0.1323 -0.3540
  556Sol     HW 5358   1.379   3.278   5.145 -0.9620  0.0737  0.2656
  556Sol     HW 5359   1.367   3.419   5.092 -1.1078  0.1642  0.5400
  556Sol     MW 5360   1.403   3.364   5.153 -0.0361 -0.4707 -0.0173
  557Sol     OW 5361   0.303   2.450   5.562  0.2574 -0.7065 -0.0912
  557Sol     HW 5362   0.356   2.505   5.505 -0.1311  0.0811  0.3031
  557Sol     HW 5363   0.361   2.377   5.586  1.1654  0.1660  0.3797
  557Sol     MW 5364   0.313   2.448   5.559 -0.1944 -0.4285 -0.4440
  558Sol     OW 5365   1.438   0.810   2.665  0.2419 -0.1721  0.1930
  558Sol     HW 5366   1.442   0.751   2.589 -0.0739 -0.1209  0.1369
  558Sol     HW 5367   1.503   0.877   2.646  0.6595 -0.5444  0.2912
  558Sol     MW 5368   1.444   0.811   2.656  0.4997 -0.0522 -0.1106
  559Sol     OW 5369   0.047   1.750   4.787  0.1717  0.5868  0.6239
  559Sol     HW 5370   0.035   1.839   4.752 -0.8098  0.4081  0.5017
  559Sol     HW 5371   0.052   1.763   4.882 -3.2439  0.4575  0.8672
  559Sol     MW 5372   0.046   1.759   4.793  0.0105  0.0011 -0.1264
  560Sol     OW 5373   0.452   1.731   8.186  0.2949 -0.9544 -0.0206
  560Sol     HW 5374   0.421   1.656   8.235  0.8720 -1.4425 -0.3868
  560Sol     HW 5375   0.437   1.708   8.094  0.8888 -0.8256 -0.1587
  560Sol     MW 5376   0.448   1.722   8.182 -0.3890  0.3965 -0.2476
  561Sol     OW 5377   0.429   1.032   6.098 -0.6507  0.3567  0.4509
  561Sol     HW 5378   0.383   1.042   6.014 -2.2119  1.0643  1.3798
  561Sol     HW 5379   0.490   1.106   6.100 -1.7415  1.2664  0.6450
  561Sol     MW 5380   0.431   1.039   6.090  0.0628 -0.4738 -0.0017
  562Sol     OW 5381   2.266   2.953   3.952 -0.0813 -0.7425 -0.7226
  562Sol     HW 5382   2.283   3.037   3.912  4.3142 -0.1190  2.1401
  562Sol     HW 5383   2.289   2.888   3.885 -0.1156  0.2860 -1.7339
  562Sol     MW 5384   2.269   2.954   3.943 -0.3119  0.0470  0.0217
  563Sol     OW 5385   0.942   3.408   5.313 -0.1602  0.0735  0.0894
  563Sol     HW 5386   0.860   3.417   5.264 -0.6584 -0.9120  0.7373
  563Sol     HW 5387   0.932   3.326   5.361  1.4654 -0.3557 -0.2995
  563Sol     MW 5388   0.934   3.402   5.313  0.6170 -0.4557 -0.0849
  564Sol     OW 5389   2.138   0.947   4.823 -0.1764 -0.0632 -0.3737
  564Sol     HW 5390   2.122   0.930   4.915 -0.8817 -1.2054 -0.6929
  564Sol     HW 5391   2.075   0.892   4.777 -0.2303  0.9244 -1.5277
  564Sol     MW 5392   2.131   0.941   4.827 -0.0971  0.2157  0.9048
  565Sol     OW 5393   1.889   0.725   7.656 -0.2062  0.3481  0.5245
  565Sol     HW 5394   1.907   0.632   7.671 -1.5260  0.2812  1.8280
  565Sol     HW 5395   1.860   0.730   7.565  0.6568 -0.3954  0.2029
  565Sol     MW 5396   1.888   0.717   7.649 -0.1355  0.0762 -0.9665
  566Sol     OW 5397   2.403   2.725   9.255  0.0513 -0.4752  0.3572
  566Sol     HW 5398   2.373   2.683   9.175  0.0811 -0.7733  0.4999
  566Sol     HW 5399   2.396   2.819   9.238  0.0037 -0.5392  0.0282
  566Sol     MW 5400   2.400   2.729   9.247  0.4086  0.3363 -0.0138
  567Sol     OW 5401   0.105   3.413   8.002  0.1393  0.0874 -0.5560
  567Sol     HW 5402   0.139   3.419   7.913  1.9662 -0.5764  0.0681
  567Sol     HW 5403   0.142   3.332   8.036 -0.2237  0.5285  0.9189
  567Sol     MW 5404   0.112   3.407   7.997 -0.2241 -0.0752  0.0877
  568Sol     OW 5405   2.556   0.016   9.139  0.0294 -0.6591  0.5237
  568Sol     HW 5406   2.512  -0.045   9.080  2.2488 -0.8754 -0.9482
  568Sol     HW 5407   2.576  -0.036   9.217 -0.9447 -0.9418  0.5986
  568Sol     MW 5408   2.554   0.006   9.141  0.3712 -0.5071  0.2277
  569Sol     OW 5409   1.462   1.987   8.866 -0.0924  0.2320  0.5448
  569Sol     HW 5410   1.420   1.976   8.780 -0.1004 -1.4801  0.7406
  569Sol     HW 5411   1.488   2.079   8.869 -0.3924  0.3871 -1.1565
  569Sol     MW 5412   1.460   1.994   8.858  0.2782  0.0130 -0.0960
  570Sol     OW 5413   3.130   0.211   2.043  0.2832 -0.1499  0.4079
  570Sol     HW 5414   3.119   0.259   1.961 -0.2092 -1.0525 -0.0700
  570Sol     HW 5415   3.224   0.195   2.049  0.3493  0.1324  0.1393
  570Sol     MW 5416   3.138   0.213   2.036  0.0011 -0.4180 -0.2148
  571Sol     OW 5417   3.305   0.455   2.400 -0.8844  0.4769 -0.0888
  571Sol     HW 5418   3.260   0.537   2.382  0.6990  1.4425  0.2983
  571Sol     HW 5419   3.343   0.430   2.316  0.5860  1.3511  0.3046
  571Sol     MW 5420   3.304   0.460   2.391  0.1572 -0.1916 -0.8677
  572Sol     OW 5421   2.858   1.102   4.072  0.3112  0.2052  0.1557
  572Sol     HW 5422   2.859   1.189   4.113 -0.9883 -0.3382  1.3634
  572Sol     HW 5423   2.780   1.060   4.107  1.3876 -1.7713  0.2408
  572Sol     MW 5424   2.851   1.106   4.079 -0.4671 -0.2229 -0.3404
  573Sol     OW 5425   0.367   1.528   8.010  0.5447  0.1736 -0.0449
  573Sol     HW 5426   0.444   1.474   8.026  0.2704 -0.7201 -1.5629
  573Sol     HW 5427   0.361   1.533   7.914 -0.0016  2.1039  0.0717
  573Sol     MW 5428   0.373   1.523   8.003  0.5307  0.0164  0.1138
  574Sol     OW 5429   0.236   3.330   9.392  0.3154 -0.4138  0.0215
  574Sol     HW 5430   0.153   3.331   9.345  0.6078 -1.4291 -0.5161
  574Sol     HW 5431   0.277   3.414   9.369  0.6238 -1.0616 -1.8575
  574Sol     MW 5432   0.232   3.338   9.386 -0.4770  1.0555 -0.4907
  575Sol     OW 5433   0.825   1.237   2.914  0.3781  0.6596 -0.4945
  575Sol     HW 5434   0.821   1.254   3.008 -2.1641 -0.7133 -0.2957
  575Sol     HW 5435   0.815   1.142   2.906  1.0392  0.7061 -2.1378
  575Sol     MW 5436   0.823   1.230   2.922  0.2202  0.0940  0.3286
  576Sol     OW 5437   2.336   1.185   3.301 -0.4830 -0.0211 -0.3093
  576Sol     HW 5438   2.265   1.200   3.239  0.1714  1.4355 -0.7218
  576Sol     HW 5439   2.386   1.266   3.301  0.2672 -0.4542  1.1770
  576Sol     MW 5440   2.334   1.193   3.296  0.7419 -0.3064  0.4556
  577Sol     OW 5441   2.611   0.106   6.841  0.1288 -0.5875  0.2546
  577Sol     HW 5442   2.575   0.137   6.924 -0.9924  2.2319 -1.2278
  577Sol     HW 5443   2.705   0.097   6.858  0.3705  2.7307  1.0715
  577Sol     MW 5444   2.616   0.108   6.850  0.5498 -0.0742  0.5059
  578Sol     OW 5445   0.347   0.313   3.170 -0.4467 -0.4181  0.1384
  578Sol     HW 5446   0.284   0.294   3.240  2.4636 -0.9821  2.7372
  578Sol     HW 5447   0.430   0.275   3.202  1.6757  2.0467 -2.2200
  578Sol     MW 5448   0.349   0.308   3.179 -0.0650  0.3249 -0.2877
  579Sol     OW 5449   0.258   0.986   6.292 -0.4294 -0.0350  0.0832
  579Sol     HW 5450   0.306   0.999   6.211 -0.9352  1.3647 -0.0055
  579Sol     HW 5451   0.325   0.993   6.361 -0.0780 -0.7791 -0.1721
  579Sol     MW 5452   0.269   0.988   6.291 -0.1386 -0.2615  0.2682
  580Sol     OW 5453   0.629   1.669   3.472  0.0623  0.0841  0.5447
  580Sol     HW 5454   0.689   1.742   3.455  1.5212 -0.7581  1.9794
  580Sol     HW 5455   0.604   1.680   3.564 -1.1547 -0.2065  0.2661
  580Sol     MW 5456   0.632   1.677   3.479 -0.3301 -0.0213  0.2169
  581Sol     OW 5457   0.197   1.385   2.202  0.0033  0.3451  0.8575
  581Sol     HW 5458   0.109   1.348   2.205  0.5349 -1.0524 -0.1868
  581Sol     HW 5459   0.184   1.479   2.213 -1.6810  0.2416 -0.0498
  581Sol     MW 5460   0.188   1.390   2.203  0.9589 -0.1299 -0.2704
  582Sol     OW 5461   1.813   1.917   5.087  0.2244 -0.3268  0.4136
  582Sol     HW 5462   1.731   1.960   5.061 -1.1288 -1.8553  2.0526
  582Sol     HW 5463   1.800   1.825   5.064  1.1169 -0.7452  1.5646
  582Sol     MW 5464   1.804   1.913   5.082  0.2755 -0.7031 -0.4185
  583Sol     OW 5465   1.724   2.980   5.801  0.4762 -0.0925 -0.3810
  583Sol     HW 5466   1.731   3.045   5.871  0.9249 -2.7852  2.1494
  583Sol     HW 5467   1.630   2.972   5.785  0.3549  0.2657  0.1417
  583Sol     MW 5468   1.717   2.985   5.806  0.0381 -0.0245  0.1494
  584Sol     OW 5469   0.126   1.866   7.978  0.2903  0.7080  0.1044
  584Sol     HW 5470   0.214   1.840   7.952  0.1409 -0.3044  0.6040
  584Sol     HW 5471   0.101   1.934   7.915  1.3037  0.7824 -0.2172
  584Sol     MW 5472   0.132   1.870   7.970  0.6221  0.0074 -0.0180
  585Sol     OW 5473   2.704   2.666   3.990  0.2191  0.2428  0.0440
  585Sol     HW 5474   2.627   2.610   3.991  0.7608 -0.5532 -1.4960
  585Sol     HW 5475   2.700   2.714   4.073 -2.3006  0.7541 -0.3473
  585Sol     MW 5476   2.697   2.665   3.998  0.2327 -0.7777  0.0607
  586Sol     OW 5477   0.187   1.341   4.470 -0.1335 -0.6300  0.0705
  586Sol     HW 5478   0.092   1.343   4.478 -0.2611  1.5651 -1.3912
  586Sol     HW 5479   0.219   1.339   4.560 -1.5571  0.5176  0.6235
  586Sol     MW 5480   0.181   1.341   4.479 -0.2289  0.1997 -0.1943
  587Sol     OW 5481   3.303   0.500   6.274 -0.7425  0.4632 -0.2875
  587Sol     HW 5482   3.320   0.574   6.332 -0.4959 -0.7198  1.1858
  587Sol     HW 5483   3.380   0.444   6.282 -1.2883 -0.3720 -0.7341
  587Sol     MW 5484   3.312   0.501   6.280  0.0680 -0.2089  0.2835
  588Sol     OW 5485   1.771   0.016   3.337 -0.3145  0.1884  0.2461
  588Sol     HW 5486   1.836   0.071   3.293  0.7175  0.3593  1.9542
  588Sol     HW 5487   1.744  -0.047   3.269 -0.0709  1.5524 -1.1388
  588Sol     MW 5488   1.774   0.015   3.327  0.3136  0.3616  0.2770
  589Sol     OW 5489   0.472   2.230   5.583 -0.6894  0.4260  0.1030
  589Sol     HW 5490   0.501   2.256   5.496 -1.5491  1.2088  0.0413
  589Sol     HW 5491   0.550   2.195   5.625 -0.3381 -0.2509 -1.0934
  589Sol     MW 5492   0.481   2.229   5.579 -0.1756 -0.0171 -0.4302
  590Sol     OW 5493   1.644   3.410   8.502 -0.3397 -0.1455  0.3495
  590Sol     HW 5494   1.711   3.432   8.566  0.3674 -0.7706 -0.1721
  590Sol     HW 5495   1.655   3.475   8.433 -0.6893  0.1451  0.5691
  590Sol     MW 5496   1.651   3.418   8.502 -0.6661  0.3914 -0.3200
  591Sol     OW 5497   2.847   0.730   6.013 -0.5693 -0.4704 -0.3281
  591Sol     HW 5498   2.879   0.718   6.103  0.4836  2.5131 -0.2532
  591Sol     HW 5499   2.753   0.737   6.022 -0.2615  2.5494  0.9154
  591Sol     MW 5500   2.842   0.729   6.022 -0.2268  0.1127 -0.3956
  592Sol     OW 5501   2.527   1.903   7.655 -0.5034  0.2552  0.1524
  592Sol     HW 5502   2.576   1.950   7.723 -0.9050  0.7637  0.0994
  592Sol     HW 5503   2.578   1.917   7.575 -0.7798  0.8579  0.0802
  592Sol     MW 5504   2.536   1.909   7.654  0.4742 -0.4779 -0.1639
  593Sol     OW 5505   1.040   1.309   4.113 -0.0502  0.4889  0.2540
  593Sol     HW 5506   0.955   1.336   4.078  0.3835  0.8270 -0.5484
  593Sol     HW 5507   1.081   1.391   4.142 -0.5483  0.1743  1.8951
  593Sol     MW 5508   1.036   1.319   4.112  0.6047  0.1382 -0.1675
  594Sol     OW 5509   1.403   2.631   3.344  0.5389 -0.1608  0.1332
  594Sol     HW 5510   1.334   2.626   3.278 -2.7130  0.4732  3.3204
  594Sol     HW 5511   1.394   2.719   3.381  1.2405 -1.0538  2.5074
  594Sol     MW 5512   1.396   2.639   3.341  0.5203 -0.2715  0.3761
  595Sol     OW 5513   0.864   3.146   9.663 -0.8967  0.1558 -0.5773
  595Sol     HW 5514   0.846   3.234   9.630 -2.6819 -0.0579 -0.2041
  595Sol     HW 5515   0.799   3.090   9.619 -0.1574 -0.8868 -0.3680
  595Sol     MW 5516   0.857   3.149   9.656 -0.6318  0.1045  0.5301
  596Sol     OW 5517   0.444   2.138   8.365 -0.5233  0.4003  0.0038
  596Sol     HW 5518   0.380   2.195   8.408 -0.4572 -0.5365  1.4032
  596Sol     HW 5519   0.391   2.071   8.322 -0.4771 -1.5079  2.8019
  596Sol     MW 5520   0.434   2.137   8.365 -0.2141  0.0156  0.8236
  597Sol     OW 5521   2.576   2.624   6.598 -0.3198 -0.2519 -0.1994
  597Sol     HW 5522   2.561   2.683   6.525 -1.6231  0.2692  0.4634
  597Sol     HW 5523   2.595   2.682   6.672  0.1112 -0.7282  0.0599
  597Sol     MW 5524   2.576   2.634   6.598 -0.5625 -0.0721  0.5145
  598Sol     OW 5525   2.079   0.181   5.218 -0.5273  0.2970  0.0346
  598Sol     HW 5526   2.149   0.240   5.247  0.1679 -1.0060  1.0740
  598Sol     HW 5527   2.121   0.124   5.154 -0.6423 -0.4663  0.6352
  598Sol     MW 5528   2.089   0.181   5.215  0.2641  0.0675  0.2747
  599Sol     OW 5529   0.528   1.772   8.786  0.3135  0.0742  0.4491
  599Sol     HW 5530   0.499   1.745   8.873  0.1830 -3.0492 -0.4836
  599Sol     HW 5531   0.447   1.781   8.736  0.4877 -0.2403  0.1074
  599Sol     MW 5532   0.518   1.770   8.789  0.1087 -0.1907 -0.3337
  600Sol     OW 5533   0.618   2.903   9.066  0.4452  0.1075 -0.6741
  600Sol     HW 5534   0.638   2.977   9.008 -1.0459  0.2307 -1.0474
  600Sol     HW 5535   0.623   2.940   9.154 -0.4792  0.7047 -0.8700
  600Sol     MW 5536   0.620   2.913   9.069  0.1950  0.3810 -0.6106
  601Sol     OW 5537   3.112   0.175   7.773  0.3912 -0.2501  0.0087
  601Sol     HW 5538   3.110   0.096   7.826 -0.4252 -0.3756 -0.2046
  601Sol     HW 5539   3.046   0.232   7.811 -0.6169 -0.5729 -1.2140
  601Sol     MW 5540   3.106   0.173   7.781 -0.6236 -0.0712 -0.1312
  602Sol     OW 5541   2.855   2.661   8.109  0.1213  0.7504  0.7528
  602Sol     HW 5542   2.827   2.606   8.036  0.8295  0.2286  0.8769
  602Sol     HW 5543   2.782   2.657   8.171  0.1756 -0.0366  0.7619
  602Sol     MW 5544   2.846   2.656   8.108  0.3512  0.0955  0.2346
  603Sol     OW 5545   3.259   0.833   9.215  0.1549 -0.1806  0.1057
  603Sol     HW 5546   3.294   0.912   9.256  0.7535 -0.5843  0.3961
  603Sol     HW 5547   3.287   0.839   9.124  3.3980 -1.7784  0.8781
  603Sol     MW 5548   3.265   0.840   9.211 -0.4064 -0.0120 -0.5054
  604Sol     OW 5549   2.279   3.218   9.258 -0.3482  0.0929 -0.1795
  604Sol     HW 5550   2.205   3.158   9.253  0.1851 -0.7482  1.5941
  604Sol     HW 5551   2.252   3.285   9.321 -0.0380  0.3988 -0.3730
  604Sol     MW 5552   2.270   3.219   9.263 -0.2684  0.3326 -0.8181
  605Sol     OW 5553   1.648   2.273   6.866  0.0864 -0.6450  0.0144
  605Sol     HW 5554   1.711   2.345   6.862  0.3484 -0.7678  1.6600
  605Sol     HW 5555   1.602   2.285   6.949 -0.5429 -1.8110 -0.1568
  605Sol     MW 5556   1.650   2.280   6.873  0.6041 -0.8978 -0.4161
  606Sol     OW 5557   1.689   1.060   5.903 -0.4027 -0.1468 -0.0875
  606Sol     HW 5558   1.765   1.090   5.853  0.6529 -0.6119  1.2145
  606Sol     HW 5559   1.641   1.004   5.842 -0.0326  0.6420 -1.1170
  606Sol     MW 5560   1.692   1.058   5.893 -0.7122 -0.3382  0.1288
  607Sol     OW 5561   0.219   3.048   4.684 -0.2946  0.2150 -0.3120
  607Sol     HW 5562   0.214   3.120   4.621 -1.4492 -0.1126 -0.6129
  607Sol     HW 5563   0.195   2.970   4.633  0.3537 -0.3000  0.1512
  607Sol     MW 5564   0.217   3.047   4.674 -0.3541 -0.5478 -0.0291
  608Sol     OW 5565   0.512   0.428   4.306  0.7792 -0.4029  0.2709
  608Sol     HW 5566   0.533   0.369   4.378 -2.0455 -0.7471  0.8687
  608Sol     HW 5567   0.512   0.373   4.228 -0.5182 -0.9732  0.6481
  608Sol     MW 5568   0.513   0.418   4.305  0.2090 -0.0756 -0.2953
  609Sol     OW 5569   1.566   1.404   7.605  0.5114 -0.0118  0.1272
  609Sol     HW 5570   1.546   1.341   7.675  2.8804 -0.5226  0.3780
  609Sol     HW 5571   1.647   1.371   7.566  0.1482  1.2492 -1.7195
  609Sol     MW 5572   1.572   1.395   7.608 -0.0017  0.4575 -0.6542
  610Sol     OW 5573   2.561   1.492   9.416  0.2366 -0.1828  0.1731
  610Sol     HW 5574   2.551   1.436   9.493  1.8429 -1.3215 -0.3920
  610Sol     HW 5575   2.520   1.442   9.345 -0.2791  0.3589  0.0941
  610Sol     MW 5576   2.557   1.482   9.416 -0.2132 -0.2335  0.3414
  611Sol     OW 5577   0.406   3.225   7.405 -0.0172 -0.6405 -0.5542
  611Sol     HW 5578   0.321   3.252   7.442  0.6008 -0.8503  1.0641
  611Sol     HW 5579   0.470   3.250   7.472  1.1875 -0.6236 -1.7037
  611Sol     MW 5580   0.404   3.230   7.414  0.3996 -0.0346  0.3867
  612Sol     OW 5581   1.462   3.426   8.730 -0.6251  0.4729  0.3192
  612Sol     HW 5582   1.503   3.474   8.658 -1.3239 -1.3587 -1.3714
  612Sol     HW 5583   1.489   3.335   8.716 -2.7581 -0.2937  0.9323
  612Sol     MW 5584   1.468   3.422   8.722 -0.1571 -0.2334  0.1496
  613Sol     OW 5585   0.999   2.710   1.324  0.0948 -0.1485  0.1889
  613Sol     HW 5586   1.075   2.708   1.382  0.5899  0.7929 -0.4197
  613Sol     HW 5587   1.029   2.668   1.244 -0.0998  0.0053  0.0356
  613Sol     MW 5588   1.009   2.706   1.322 -0.3273  0.2224 -0.1041
  614Sol     OW 5589   0.742   2.400   8.430  0.2650 -0.3260  0.2268
  614Sol     HW 5590   0.671   2.440   8.380  0.5292 -1.1078 -0.7969
  614Sol     HW 5591   0.822   2.433   8.389  0.4927 -2.1528 -0.8900
  614Sol     MW 5592   0.743   2.406   8.422  0.1539 -0.0551  0.1678
  615Sol     OW 5593   0.406   0.420   5.117 -0.1738 -0.2576 -0.6236
  615Sol     HW 5594   0.343   0.475   5.163 -0.0249 -0.2186 -0.4654
  615Sol     HW 5595   0.424   0.467   5.036 -1.2039 -0.8242 -1.1838
  615Sol     MW 5596   0.402   0.429   5.114 -0.1873 -0.3340  0.0074
  616Sol     OW 5597   1.441   0.992   8.032  0.2529 -0.2558 -0.0373
  616Sol     HW 5598   1.424   1.048   8.108  0.6301  0.3260 -0.3796
  616Sol     HW 5599   1.355   0.954   8.012 -0.5519  2.1249 -1.3231
  616Sol     MW 5600   1.432   0.994   8.037  0.3379  0.2235  0.7287
  617Sol     OW 5601   1.763   2.608   1.944 -0.0284  0.5725 -0.2730
  617Sol     HW 5602   1.722   2.542   2.000 -0.6292  1.0365 -0.1664
  617Sol     HW 5603   1.835   2.561   1.901 -0.8319 -0.3161 -0.6714
  617Sol     MW 5604   1.766   2.598   1.945  0.2910  0.3976 -0.1272
  618Sol     OW 5605   2.480   3.065   4.618  0.0123  0.2397 -0.1875
  618Sol     HW 5606   2.385   3.066   4.607 -0.0582 -1.5960  0.0782
  618Sol     HW 5607   2.508   2.981   4.581  1.5832  0.9362 -0.6387
  618Sol     MW 5608   2.474   3.057   4.614 -0.2711  0.7443  0.4483
  619Sol     OW 5609   2.484   3.015   2.342 -0.2820 -0.1747  0.0026
  619Sol     HW 5610   2.391   3.018   2.367 -0.3875 -1.2822 -0.2353
  619Sol     HW 5611   2.499   3.099   2.298 -1.2757 -0.1404 -0.2993
  619Sol     MW 5612   2.477   3.023   2.340 -0.2674  0.4317  0.2717
  620Sol     OW 5613   1.989   1.200   2.691  0.0707  0.2472 -0.7200
  620Sol     HW 5614   1.960   1.276   2.742 -0.1651 -0.2755 -0.0768
  620Sol     HW 5615   2.072   1.229   2.651  0.1413  0.7323 -0.2285
  620Sol     MW 5616   1.994   1.210   2.692  0.4689 -0.1222  0.0706
  621Sol     OW 5617   0.140   0.425   3.807  0.0638  0.1004 -0.4761
  621Sol     HW 5618   0.060   0.378   3.785 -2.2989  3.7117  0.0443
  621Sol     HW 5619   0.176   0.453   3.723  1.7739 -2.9040 -0.8311
  621Sol     MW 5620   0.136   0.424   3.798 -0.2257 -0.2431  0.5956
  622Sol     OW 5621   1.027   0.181   7.096 -0.1015 -0.1901 -0.5142
  622Sol     HW 5622   1.013   0.233   7.017  2.0833  0.7202 -0.3326
  622Sol     HW 5623   1.104   0.128   7.075 -1.3936 -2.2772 -0.1381
  622Sol     MW 5624   1.033   0.181   7.087 -0.0410 -0.1008 -0.5110
  623Sol     OW 5625   2.767   0.498   1.931 -0.1270 -0.0539 -0.0529
  623Sol     HW 5626   2.696   0.466   1.875 -0.1150  0.1293 -0.1751
  623Sol     HW 5627   2.727   0.508   2.017 -0.1433 -0.3483 -0.0271
  623Sol     MW 5628   2.757   0.496   1.934 -0.6404  0.3254 -0.6070
  624Sol     OW 5629   1.603   2.934   5.066 -0.4865  0.4953  0.8801
  624Sol     HW 5630   1.585   2.860   5.007 -0.2851  1.2013 -0.0810
  624Sol     HW 5631   1.697   2.931   5.081 -0.1952  1.6033 -0.6000
  624Sol     MW 5632   1.610   2.927   5.062  0.0016 -0.2414 -0.3057
  625Sol     OW 5633   2.273   0.839   2.062 -0.5090  0.1613  0.0579
  625Sol     HW 5634   2.327   0.790   2.124  1.7699  0.9040 -1.2794
  625Sol     HW 5635   2.232   0.772   2.008  1.4407 -0.3465 -0.8277
  625Sol     MW 5636   2.274   0.829   2.063 -0.0353 -0.3360  0.2400
  626Sol     OW 5637   1.887   2.771   5.776 -0.2292 -0.3277 -0.0609
  626Sol     HW 5638   1.830   2.847   5.789 -0.6607 -0.7394  0.4776
  626Sol     HW 5639   1.975   2.807   5.780 -0.4183  0.0463  0.8893
  626Sol     MW 5640   1.890   2.781   5.777  0.2504  0.1881  0.4462
  627Sol     OW 5641   2.886   1.406   5.821 -0.3002  0.1509  0.0733
  627Sol     HW 5642   2.980   1.396   5.808 -0.4053  0.5084 -0.9853
  627Sol     HW 5643   2.870   1.500   5.813 -0.7526  0.0891  0.2281
  627Sol     MW 5644   2.893   1.414   5.819 -0.1695  0.0524 -0.4638
  628Sol     OW 5645   0.671   3.013   7.685  0.1844  0.6564  0.6876
  628Sol     HW 5646   0.622   3.095   7.683  0.7570  0.9604 -1.4220
  628Sol     HW 5647   0.679   2.986   7.594  1.1559 -1.0713  1.2428
  628Sol     MW 5648   0.668   3.018   7.677  0.2400  0.2916  0.0430
  629Sol     OW 5649   3.172   2.306   4.337  0.0097 -0.4514 -0.2284
  629Sol     HW 5650   3.145   2.383   4.286  1.4631  0.1133 -0.1590
  629Sol     HW 5651   3.098   2.246   4.330 -0.0012 -0.2032 -2.6282
  629Sol     MW 5652   3.163   2.307   4.332  0.4505 -0.3679  0.2782
  630Sol     OW 5653   1.509   0.158   3.281 -0.1999  0.4202 -0.1664
  630Sol     HW 5654   1.494   0.201   3.365  2.0232  1.7224 -0.4129
  630Sol     HW 5655   1.594   0.116   3.290 -0.5711 -0.6193 -1.2995
  630Sol     MW 5656   1.515   0.158   3.289  0.0205 -0.1989 -0.2008
  631Sol     OW 5657   0.544   1.163   4.758 -0.5068  0.3873 -0.1157
  631Sol     HW 5658   0.619   1.105   4.741 -0.2242  0.8258 -0.3601
  631Sol     HW 5659   0.549   1.230   4.690  0.7557  2.2538  1.7493
  631Sol     MW 5660   0.551   1.164   4.751  0.2018  0.2445  0.5265
  632Sol     OW 5661   1.413   1.236   8.451  0.0117  0.1814  0.5497
  632Sol     HW 5662   1.470   1.161   8.465 -0.6060 -0.1413  1.3637
  632Sol     HW 5663   1.382   1.225   8.361  1.9497  0.8717 -0.2284
  632Sol     MW 5664   1.415   1.228   8.444 -0.2538  0.3092 -0.5822
  633Sol     OW 5665   1.439   2.311   3.773 -0.0778  0.0221 -0.3995
  633Sol     HW 5666   1.355   2.322   3.819  0.1819 -0.4144  0.1688
  633Sol     HW 5667   1.425   2.236   3.716 -0.1674  0.1298 -0.5204
  633Sol     MW 5668   1.430   2.305   3.772  0.5998 -0.1578 -0.3896
  634Sol     OW 5669   0.475   1.284   2.711  0.0355  0.1455 -0.0935
  634Sol     HW 5670   0.394   1.236   2.691 -0.5601  0.5165  1.3437
  634Sol     HW 5671   0.545   1.228   2.678 -0.8104 -0.2487 -1.2259
  634Sol     MW 5672   0.474   1.274   2.707 -0.2289 -0.1789 -0.1745
  635Sol     OW 5673   2.478   2.846   7.588  0.2424  0.1918  0.0075
  635Sol     HW 5674   2.397   2.865   7.635  0.4160  2.4116 -0.5202
  635Sol     HW 5675   2.462   2.761   7.546 -1.2429 -0.0913  1.1141
  635Sol     MW 5676   2.469   2.840   7.588 -0.0222 -0.1331 -0.2113
  636Sol     OW 5677   2.272   1.852   5.322 -0.4618 -0.0525 -0.0907
  636Sol     HW 5678   2.312   1.777   5.278 -1.1354  0.2184 -1.1620
  636Sol     HW 5679   2.200   1.878   5.265  0.4493  2.1161 -0.3159
  636Sol     MW 5680   2.269   1.848   5.313  0.7424  0.2395  0.0244
  637Sol     OW 5681   1.534   2.725   4.912 -0.0133  0.1054  0.1002
  637Sol     HW 5682   1.495   2.677   4.986  0.3457 -0.2055  0.0895
  637Sol     HW 5683   1.551   2.658   4.847 -0.4599  0.4039 -0.3279
  637Sol     MW 5684   1.532   2.715   4.913 -0.1489  0.0300 -0.1350
  638Sol     OW 5685   2.773   2.491   7.105  0.8602  0.9334  0.1263
  638Sol     HW 5686   2.850   2.487   7.162  1.2307  1.2602 -0.3479
  638Sol     HW 5687   2.758   2.400   7.078 -0.6385  0.4437  2.4786
  638Sol     MW 5688   2.779   2.482   7.108 -0.2237 -0.0014 -0.1037
  639Sol     OW 5689   2.524   1.095   3.912  0.4536  0.1443 -0.4977
  639Sol     HW 5690   2.486   1.172   3.955 -0.9220  0.0914 -1.5890
  639Sol     HW 5691   2.595   1.130   3.858  0.1089  0.5885 -0.6630
  639Sol     MW 5692   2.527   1.105   3.911 -0.5369  0.0254  0.1185
  640Sol     OW 5693   1.758   1.634   5.117 -0.3177 -0.4365  0.5686
  640Sol     HW 5694   1.675   1.587   5.123 -0.8943  0.4833  0.0030
  640Sol     HW 5695   1.800   1.619   5.201 -0.3694 -2.1626  0.3062
  640Sol     MW 5696   1.754   1.628   5.125  0.1443 -0.6049  0.3647
  641Sol     OW 5697   0.328   2.770   2.954 -0.3000 -0.1804 -0.4021
  641Sol     HW 5698   0.322   2.797   3.045  1.6392  0.8412 -0.5484
  641Sol     HW 5699   0.342   2.676   2.957 -0.6025 -0.1974  0.3515
  641Sol     MW 5700   0.329   2.764   2.962  0.1656  0.1814 -0.5198
  642Sol     OW 5701   2.839   2.728   1.685  0.2626  0.3933 -0.2570
  642Sol     HW 5702   2.897   2.779   1.628  0.7149  0.2592  0.0872
  642Sol     HW 5703   2.793   2.794   1.737  0.9833  0.4438  0.3189
  642Sol     MW 5704   2.840   2.739   1.684 -0.2121 -0.0829  0.2242
  643Sol     OW 5705   1.634   2.761   6.134 -0.2878 -0.4768  0.1755
  643Sol     HW 5706   1.653   2.730   6.045  0.0756  2.0170 -0.6443
  643Sol     HW 5707   1.719   2.790   6.168 -0.2425 -2.3405  1.7390
  643Sol     MW 5708   1.644   2.761   6.129  0.0825 -0.0572 -0.7523
  644Sol     OW 5709   2.975   0.908   4.286 -1.1837 -0.5085  0.2748
  644Sol     HW 5710   3.058   0.862   4.277 -0.3897  0.4421  2.2646
  644Sol     HW 5711   2.977   0.976   4.219 -1.0580 -1.4512 -0.6933
  644Sol     MW 5712   2.982   0.910   4.279  0.1995  0.2390  0.2635
  645Sol     OW 5713   2.118   0.423   2.016  0.1446 -0.1500  0.1701
  645Sol     HW 5714   2.054   0.353   2.029 -0.4149  0.3925  0.3433
  645Sol     HW 5715   2.195   0.378   1.981 -0.5850 -0.7112 -0.7475
  645Sol     MW 5716   2.119   0.413   2.014  0.1166 -0.5916  0.4116
  646Sol     OW 5717   2.521   2.226   2.434 -0.3261  0.4702  0.5088
  646Sol     HW 5718   2.556   2.139   2.413  1.3829  1.2005  0.1641
  646Sol     HW 5719   2.591   2.286   2.406 -1.7280  1.9822  0.1936
  646Sol     MW 5720   2.531   2.223   2.429  0.3219  0.1855 -0.1827
  647Sol     OW 5721   2.420   3.412   6.506 -0.7268 -0.1656 -0.6665
  647Sol     HW 5722   2.362   3.379   6.574 -0.4177  1.7806  0.5799
  647Sol     HW 5723   2.371   3.482   6.464  0.1751  0.5757 -0.5173
  647Sol     MW 5724   2.411   3.415   6.508 -0.3388  0.1457  0.0204
  648Sol     OW 5725   0.717   1.490   2.888  0.5495  0.3010  0.1200
  648Sol     HW 5726   0.623   1.470   2.881  0.2958  1.1647  0.8148
  648Sol     HW 5727   0.761   1.412   2.856 -0.3980 -1.4113  2.7690
  648Sol     MW 5728   0.712   1.481   2.885 -0.3670 -0.0688  0.2924
  649Sol     OW 5729   0.603   3.004   2.243 -0.0319  0.2999 -0.5086
  649Sol     HW 5730   0.522   2.969   2.206  0.0454 -0.2162 -0.2084
  649Sol     HW 5731   0.626   2.941   2.312  0.0245  1.0414  0.1565
  649Sol     MW 5732   0.598   2.995   2.246  0.0040 -0.7580  0.1530
  650Sol     OW 5733   1.326   2.122   4.265  0.8167 -0.2793 -0.3415
  650Sol     HW 5734   1.390   2.135   4.196  0.5375 -0.8595 -0.7139
  650Sol     HW 5735   1.377   2.119   4.345  1.3338 -1.4786 -0.7066
  650Sol     MW 5736   1.336   2.123   4.266  0.3042  0.0110 -0.4070
  651Sol     OW 5737   1.708   1.866   9.279 -0.1664 -0.3781 -0.0975
  651Sol     HW 5738   1.784   1.923   9.279 -0.5338  0.1177 -0.1312
  651Sol     HW 5739   1.742   1.780   9.306  0.0601  0.2918  1.8287
  651Sol     MW 5740   1.718   1.863   9.281  0.8417  0.3006 -0.8966
  652Sol     OW 5741   3.051   1.495   8.888  0.5332  0.2027 -0.0890
  652Sol     HW 5742   2.988   1.520   8.820 -0.9456  0.5170  1.3618
  652Sol     HW 5743   3.082   1.408   8.862 -0.2517  0.1908 -1.0046
  652Sol     MW 5744   3.048   1.489   8.880 -0.3915 -0.1865  0.4978
  653Sol     OW 5745   0.976   1.248   7.151 -0.7874  0.5882 -0.1600
  653Sol     HW 5746   1.030   1.304   7.206 -0.2928 -0.8932  0.9000
  653Sol     HW 5747   0.941   1.182   7.210 -0.6975 -0.7140 -1.5103
  653Sol     MW 5748   0.977   1.247   7.161  0.0410  0.5805  0.1166
  654Sol     OW 5749   3.026   0.822   7.282  0.0696 -0.0111 -0.1109
  654Sol     HW 5750   3.087   0.779   7.343  1.1979 -0.9110 -1.8148
  654Sol     HW 5751   2.965   0.869   7.338  2.1565  0.6699  1.6758
  654Sol     MW 5752   3.026   0.822   7.292  0.0381  0.5752  0.1134
  655Sol     OW 5753   2.663   0.123   2.804  0.4958  0.3618 -0.3908
  655Sol     HW 5754   2.573   0.091   2.814  0.3045  1.2190  0.7901
  655Sol     HW 5755   2.717   0.043   2.803 -0.1169 -0.0901  0.8780
  655Sol     MW 5756   2.660   0.113   2.805  0.7263 -0.5218  0.6285
  656Sol     OW 5757   2.662   0.059   6.562 -0.1667  0.0195  0.1555
  656Sol     HW 5758   2.613  -0.013   6.522 -1.7016  0.7386  0.6993
  656Sol     HW 5759   2.634   0.060   6.653 -1.3325  2.2542 -0.1838
  656Sol     MW 5760   2.655   0.053   6.567  0.4780 -0.3890  0.0283
  657Sol     OW 5761   0.191   0.316   6.303  0.1316  0.0851  0.1793
  657Sol     HW 5762   0.248   0.297   6.229 -0.9427 -0.6742 -0.4775
  657Sol     HW 5763   0.250   0.335   6.375  1.2189 -1.5691 -0.2561
  657Sol     MW 5764   0.201   0.316   6.303 -0.2573 -0.6696 -0.3629
  658Sol     OW 5765   1.628   0.497   8.751 -0.4960  0.3338  0.1333
  658Sol     HW 5766   1.547   0.454   8.724 -0.8285  1.0148  0.0373
  658Sol     HW 5767   1.667   0.528   8.669 -1.0633  1.6258  0.3306
  658Sol     MW 5768   1.625   0.496   8.741 -0.4477 -0.7009  0.4377
  659Sol     OW 5769   2.808   3.349   2.789  0.4409  0.0186  0.1956
  659Sol     HW 5770   2.833   3.331   2.880  2.9923 -0.9231 -0.6425
  659Sol     HW 5771   2.882   3.316   2.738 -0.8562  0.7894 -2.2077
  659Sol     MW 5772   2.817   3.344   2.793 -0.3377  0.1288 -0.1747
  660Sol     OW 5773   3.020   2.141   3.607  0.2522  0.0478  0.1596
  660Sol     HW 5774   3.059   2.216   3.562 -1.2005  0.2581 -0.7946
  660Sol     HW 5775   3.094   2.083   3.625  0.9396  0.1006 -2.2645
  660Sol     MW 5776   3.030   2.142   3.605  0.1104  0.0468  0.2997
  661Sol     OW 5777   2.180   2.446   1.845  0.3569 -0.3134 -0.2666
  661Sol     HW 5778   2.135   2.529   1.853 -0.4503 -0.6831 -0.8651
  661Sol     HW 5779   2.238   2.457   1.769  1.1702  0.1065  0.4036
  661Sol     MW 5780   2.182   2.454   1.839  0.4541  0.6472 -0.2050
  662Sol     OW 5781   0.119   0.937   8.279  0.2875 -0.4197 -0.5551
  662Sol     HW 5782   0.090   1.012   8.228 -2.2589 -0.5305  0.6250
  662Sol     HW 5783   0.152   0.975   8.361  3.2651 -0.3197 -1.7553
  662Sol     MW 5784   0.119   0.947   8.282 -0.5737  0.1856 -0.3300
  663Sol     OW 5785   3.164   2.357   3.551 -0.0578 -0.1892 -0.4098
  663Sol     HW 5786   3.174   2.380   3.459  0.3235 -1.0699 -0.6026
  663Sol     HW 5787   3.230   2.409   3.596 -1.8372  2.0491 -0.3079
  663Sol     MW 5788   3.171   2.363   3.547  0.0528 -0.0222  0.1437
  664Sol     OW 5789   3.125   0.089   2.703  0.0048  0.3901 -1.0207
  664Sol     HW 5790   3.145   0.169   2.655  2.9763 -0.3918 -1.1537
  664Sol     HW 5791   3.078   0.034   2.640  0.9456  0.6856 -1.9900
  664Sol     MW 5792   3.123   0.091   2.693  0.0465 -0.1102  0.8107
  665Sol     OW 5793   0.993   0.587   9.531  0.0189 -0.4891 -0.0430
  665Sol     HW 5794   1.040   0.506   9.554  1.3868  0.0713 -0.7906
  665Sol     HW 5795   1.063   0.649   9.508 -1.0717  0.5706 -0.5266
  665Sol     MW 5796   1.004   0.585   9.531 -0.2111 -0.3831 -0.3068
  666Sol     OW 5797   2.914   0.578   2.315 -0.0013 -0.0953 -0.2382
  666Sol     HW 5798   3.007   0.599   2.311 -0.0567  0.0616 -0.8482
  666Sol     HW 5799   2.907   0.509   2.380  0.4741  0.2663  0.1963
  666Sol     MW 5800   2.922   0.574   2.320 -0.1936  0.5022 -0.1828
  667Sol     OW 5801   2.533   3.329   3.066  0.6010  0.3922  0.3299
  667Sol     HW 5802   2.485   3.309   2.986 -2.4015  0.2406  2.0792
  667Sol     HW 5803   2.539   3.424   3.068  0.1845  0.4233  0.1790
  667Sol     MW 5804   2.529   3.335   3.059 -0.1820 -0.4383 -0.3665
  668Sol     OW 5805   1.036   0.423   8.187  1.2222 -0.5940  0.3607
  668Sol     HW 5806   1.036   0.352   8.122 -0.3011  0.6702 -1.0672
  668Sol     HW 5807   1.106   0.481   8.157 -0.1823  0.5254 -0.7589
  668Sol     MW 5808   1.042   0.422   8.178  0.1147  0.1526 -0.0743
  669Sol     OW 5809   0.971   2.775   5.560 -0.4114  0.6101  0.7231
  669Sol     HW 5810   0.927   2.699   5.600 -0.0584  0.7779  1.4281
  669Sol     HW 5811   1.038   2.736   5.503 -0.5112  0.3843  0.7584
  669Sol     MW 5812   0.973   2.765   5.559  0.1756  0.3599 -0.5531
  670Sol     OW 5813   1.698   1.841   1.932 -0.3729 -0.0659  0.0126
  670Sol     HW 5814   1.623   1.894   1.906 -1.2277 -0.5220  1.4610
  670Sol     HW 5815   1.741   1.893   2.001 -0.0436 -0.3379  0.0141
  670Sol     MW 5816   1.696   1.851   1.936  0.2931 -0.1334 -0.5536
  671Sol     OW 5817   1.394   2.210   4.896  0.0085  0.3014  0.0221
  671Sol     HW 5818   1.466   2.235   4.838  0.4354  0.8597  0.7806
  671Sol     HW 5819   1.379   2.287   4.951 -1.5608  0.3913 -0.5094
  671Sol     MW 5820   1.399   2.219   4.896  0.2752  0.2487 -0.2939
  672Sol     OW 5821   0.588   0.243   3.254 -0.4158  0.5219 -0.3655
  672Sol     HW 5822   0.576   0.312   3.319 -1.6965  2.3210 -2.4282
  672Sol     HW 5823   0.666   0.269   3.205  0.6046 -0.8815  0.4561
  672Sol     MW 5824   0.594   0.252   3.256  0.1146  0.0057 -0.4640
  673Sol     OW 5825   1.725   3.029   7.601  0.0892  0.2487 -0.2285
  673Sol     HW 5826   1.751   3.025   7.693 -1.6977 -0.7720  0.2727
  673Sol     HW 5827   1.635   3.062   7.603 -0.9904 -2.4293 -1.3481
  673Sol     MW 5828   1.719   3.031   7.610 -0.1516  0.5468 -0.1807
  674Sol     OW 5829   1.591   3.000   4.019  0.6327  0.2112 -0.4216
  674Sol     HW 5830   1.545   3.081   3.996 -0.7091 -0.4062  0.0367
  674Sol     HW 5831   1.598   3.002   4.114 -1.4971 -1.2892 -0.1951
  674Sol     MW 5832   1.587   3.007   4.025 -0.1490  0.2909  0.1601
  675Sol     OW 5833   0.624   0.223   2.815 -0.4581  0.3545 -0.3939
  675Sol     HW 5834   0.544   0.190   2.774 -0.3206  0.3251 -0.6369
  675Sol     HW 5835   0.663   0.146   2.855  0.9488 -0.1981 -2.7398
  675Sol     MW 5836   0.620   0.213   2.815 -0.1125  0.5727 -0.1538
  676Sol     OW 5837   3.175   1.726   4.199 -0.3520 -0.0743 -0.2748
  676Sol     HW 5838   3.084   1.750   4.185 -0.2404  0.6293  0.2082
  676Sol     HW 5839   3.180   1.702   4.291 -0.2334 -0.9449 -0.5033
  676Sol     MW 5840   3.168   1.726   4.206  0.1163 -0.5567 -0.1771
  677Sol     OW 5841   0.500   0.820   4.590 -0.4811 -0.2390  0.5999
  677Sol     HW 5842   0.591   0.803   4.615  0.3251  1.6488 -0.9576
  677Sol     HW 5843   0.498   0.912   4.566 -2.5750 -0.5229 -0.4477
  677Sol     MW 5844   0.508   0.827   4.591  0.4499 -0.4764  0.6709
  678Sol     OW 5845   1.909   1.178   7.145 -0.1690  0.0752  0.1562
  678Sol     HW 5846   1.990   1.218   7.177  0.0639  0.0483 -0.3953
  678Sol     HW 5847   1.839   1.228   7.187  0.1291  0.1243  0.6032
  678Sol     MW 5848   1.910   1.186   7.152  0.3254 -0.1695  0.4424
  679Sol     OW 5849   3.028   3.147   7.881  0.1660 -0.2681  0.3494
  679Sol     HW 5850   3.069   3.230   7.907  0.6585 -1.0287  2.1145
  679Sol     HW 5851   2.935   3.161   7.898  0.0719  0.3947 -0.6824
  679Sol     MW 5852   3.023   3.156   7.885  0.4400 -0.4121 -0.0779
  680Sol     OW 5853   0.262   3.248   2.240  0.2042 -0.1277 -0.4380
  680Sol     HW 5854   0.231   3.168   2.282 -0.0491  0.6132  0.8358
  680Sol     HW 5855   0.357   3.248   2.257  0.2169 -0.2093 -0.5116
  680Sol     MW 5856   0.268   3.241   2.245 -0.1950  0.4457  0.3371
  681Sol     OW 5857   2.777   1.668   5.862  0.5440  0.2278  0.2788
  681Sol     HW 5858   2.683   1.654   5.876  0.3337 -0.4827 -1.6403
  681Sol     HW 5859   2.793   1.758   5.890 -0.9794  0.7896 -0.5887
  681Sol     MW 5860   2.770   1.675   5.865  0.3354  0.7893 -0.2819
  682Sol     OW 5861   0.100   1.487   7.958  0.0159 -0.1515  0.0587
  682Sol     HW 5862   0.054   1.560   8.000  0.5187 -0.7744  1.7175
  682Sol     HW 5863   0.191   1.499   7.983  0.6525  0.5072 -2.3931
  682Sol     MW 5864   0.104   1.495   7.964 -0.4499 -0.0869  0.3104
  683Sol     OW 5865   2.816   0.810   9.509  0.2471 -0.2066 -0.2250
  683Sol     HW 5866   2.891   0.779   9.458  0.2195 -1.9624  0.7457
  683Sol     HW 5867   2.751   0.740   9.500 -1.2638  1.2474 -0.9776
  683Sol     MW 5868   2.817   0.801   9.504  0.4481 -0.0867 -0.1641
  684Sol     OW 5869   2.146   2.888   5.730  0.0653  0.6077  0.3335
  684Sol     HW 5870   2.131   2.971   5.685  1.2330  0.8855  0.4486
  684Sol     HW 5871   2.142   2.910   5.823 -0.8420  0.3036  0.3761
  684Sol     MW 5872   2.144   2.897   5.734  0.0026  0.1394 -0.2212
  685Sol     OW 5873   1.106   2.273   4.882 -0.2276  0.1744 -0.0111
  685Sol     HW 5874   1.104   2.326   4.802 -2.1696 -0.0950 -0.1452
  685Sol     HW 5875   1.152   2.193   4.855  0.6978  0.8255 -0.3930
  685Sol     MW 5876   1.110   2.270   4.872  0.2098  0.2276 -0.0355
  686Sol     OW 5877   1.246   3.177   7.169  0.0027  0.1400  0.2064
  686Sol     HW 5878   1.235   3.241   7.239 -1.5127  0.5917 -0.4256
  686Sol     HW 5879   1.269   3.229   7.092 -0.2301 -0.1650 -0.0698
  686Sol     MW 5880   1.247   3.187   7.169  0.4014  0.2075  0.2291
  687Sol     OW 5881   1.565   2.539   4.725 -0.0292 -0.2713  0.0375
  687Sol     HW 5882   1.586   2.445   4.728 -0.2688 -0.3384 -0.3644
  687Sol     HW 5883   1.480   2.542   4.681 -0.2799  0.0899  0.5448
  687Sol     MW 5884   1.559   2.531   4.722  0.6598  0.1631  0.2790
  688Sol     OW 5885   0.163   0.569   2.987  0.4414  0.0938 -0.2380
  688Sol     HW 5886   0.077   0.562   2.946  1.0680  1.7024 -1.9122
  688Sol     HW 5887   0.224   0.536   2.921  1.2680  0.5856  0.2697
  688Sol     MW 5888   0.161   0.566   2.977 -0.3672  0.8074  0.2656
  689Sol     OW 5889   0.699   0.088   6.323 -0.1269 -0.2029  0.0599
  689Sol     HW 5890   0.669   0.177   6.342 -1.1001 -0.2867 -1.0525
  689Sol     HW 5891   0.783   0.081   6.369  1.2097  2.1369 -1.9155
  689Sol     MW 5892   0.704   0.096   6.329  0.1961 -0.0174  0.5291
  690Sol     OW 5893   0.171   0.554   7.181 -0.2178  0.0905 -0.2091
  690Sol     HW 5894   0.113   0.554   7.258  0.3017 -1.2339  0.2131
  690Sol     HW 5895   0.258   0.539   7.218 -0.0695 -1.3700 -1.1194
  690Sol     MW 5896   0.174   0.552   7.192 -0.1511 -0.0499  0.3365
  691Sol     OW 5897   2.650   2.774   4.242  0.3333 -0.6636 -0.1197
  691Sol     HW 5898   2.574   2.817   4.203 -0.7222 -0.3391  2.2187
  691Sol     HW 5899   2.702   2.846   4.280 -0.5469 -1.2301  2.2659
  691Sol     MW 5900   2.648   2.784   4.242  0.0337  0.6918 -0.5962
  692Sol     OW 5901   0.719   0.025   7.679 -0.5706 -0.3461 -0.2612
  692Sol     HW 5902   0.743   0.071   7.759 -1.7125 -0.5442  0.2056
  692Sol     HW 5903   0.802   0.013   7.632 -0.3187  2.8281 -0.7472
  692Sol     MW 5904   0.728   0.028   7.682  0.1600  0.2256  0.6498
  693Sol     OW 5905   0.152   1.761   8.995  0.4229  0.1128  0.0537
  693Sol     HW 5906   0.092   1.824   9.036  0.1469 -0.3935  0.4368
  693Sol     HW 5907   0.107   1.677   9.003  1.0887 -0.2392  0.1460
  693Sol     MW 5908   0.142   1.759   9.000  0.1338  0.0573  0.0665
  694Sol     OW 5909   1.948   0.885   3.294  0.2415 -0.0316  0.0166
  694Sol     HW 5910   1.933   0.820   3.363 -0.0004 -0.7147 -0.6712
  694Sol     HW 5911   2.001   0.953   3.336 -0.1054 -0.3256  0.9392
  694Sol     MW 5912   1.952   0.885   3.304  0.3421 -0.2035 -0.2243
  695Sol     OW 5913   2.988   2.573   8.754  0.2086  0.8181  0.7207
  695Sol     HW 5914   2.995   2.478   8.753  1.3724  0.9036  0.6959
  695Sol     HW 5915   2.902   2.591   8.714  1.1000 -0.1203 -1.7165
  695Sol     MW 5916   2.981   2.566   8.750 -0.0522  0.2031 -0.1408
  696Sol     OW 5917   1.944   2.193   5.149  0.5771 -0.7358  0.0593
  696Sol     HW 5918   1.868   2.135   5.153 -2.1486  2.7551  2.3907
  696Sol     HW 5919   1.985   2.185   5.235  0.6302  0.1879  0.1226
  696Sol     MW 5920   1.941   2.187   5.157  0.2323  0.5419  0.2758
  697Sol     OW 5921   0.429   2.470   7.872  0.2088 -0.0891  0.0732
  697Sol     HW 5922   0.493   2.534   7.841 -0.6179  1.2138  0.9966
  697Sol     HW 5923   0.345   2.504   7.840 -0.1946 -0.9128  0.2623
  697Sol     MW 5924   0.427   2.479   7.866 -0.6443  0.8440  0.3466
  698Sol     OW 5925   0.007   2.316   3.105 -0.0187  0.3851 -0.0999
  698Sol     HW 5926  -0.019   2.387   3.164  1.0557  0.0587  0.7762
  698Sol     HW 5927  -0.064   2.252   3.112  0.0154  0.4257  0.7156
  698Sol     MW 5928  -0.002   2.317   3.111  0.7366  0.3135 -0.3162
  699Sol     OW 5929   2.150   1.883   3.203  0.1521 -0.4734 -0.1766
  699Sol     HW 5930   2.066   1.919   3.231 -0.4141 -0.8868 -1.2916
  699Sol     HW 5931   2.127   1.821   3.133  1.3858 -0.5525 -0.5212
  699Sol     MW 5932   2.140   1.881   3.199 -0.1133 -0.6417  0.2805
  700Sol     OW 5933   2.494   1.988   7.295  0.1223  0.5536 -0.0006
  700Sol     HW 5934   2.442   2.051   7.245 -0.5238 -0.1169 -0.1822
  700Sol     HW 5935   2.432   1.917   7.315  1.6027 -1.5031 -2.4538
  700Sol     MW 5936   2.484   1.987   7.292 -0.4198 -0.4360 -0.0400
  701Sol     OW 5937   2.300   0.369   5.511  0.0763  0.2360  0.3955
  701Sol     HW 5938   2.313   0.284   5.554 -0.4201 -0.2087 -0.3341
  701Sol     HW 5939   2.370   0.424   5.547  0.8307 -0.6779  0.3564
  701Sol     MW 5940   2.308   0.366   5.519 -0.4292 -0.0384  0.2629
  702Sol     OW 5941   1.908   2.765   4.925  0.0665 -0.0821 -0.2634
  702Sol     HW 5942   1.858   2.710   4.986 -0.7873  0.8506 -0.1149
  702Sol     HW 5943   1.915   2.849   4.970  0.0550  0.3937 -1.1550
  702Sol     MW 5944   1.904   2.768   4.935  0.1718 -0.2106 -0.4921
  703Sol     OW 5945   1.720   3.112   4.684 -0.4101  0.4260  0.1624
  703Sol     HW 5946   1.629   3.136   4.672 -0.9234 -1.3909  0.2945
  703Sol     HW 5947   1.739   3.131   4.776 -0.4864  1.3370 -0.0112
  703Sol     MW 5948   1.714   3.115   4.691  0.0887  0.2733 -0.4270
  704Sol     OW 5949   2.118   1.042   9.106 -0.2622 -0.2477  0.0489
  704Sol     HW 5950   2.050   1.110   9.099 -0.5364 -0.5215  0.0213
  704Sol     HW 5951   2.156   1.056   9.193  0.1780  0.3967 -0.2405
  704Sol     MW 5952   2.115   1.049   9.113 -0.2750  0.5328  0.5238
  705Sol     OW 5953   0.256   2.214   6.823 -0.1918 -0.1744  0.3820
  705Sol     HW 5954   0.234   2.275   6.752 -0.6548  0.2163  0.8585
  705Sol     HW 5955   0.177   2.161   6.835 -0.3787  0.2634  1.1146
  705Sol     MW 5956   0.247   2.215   6.817 -0.3329  0.1097  0.4052
  706Sol     OW 5957   2.382   2.258   7.789  0.8801 -0.6693  0.2391
  706Sol     HW 5958   2.347   2.181   7.745  0.9862 -1.0996  0.8893
  706Sol     HW 5959   2.334   2.331   7.751 -0.7377 -1.2466  1.1057
  706Sol     MW 5960   2.375   2.257   7.782  0.0181  0.2884  0.3736
  707Sol     OW 5961   2.948   1.326   8.577 -0.2016  0.1836  0.5966
  707Sol     HW 5962   2.858   1.349   8.552 -0.6029  0.1666  1.9704
  707Sol     HW 5963   2.976   1.263   8.510 -1.1001  0.4283 -0.0200
  707Sol     MW 5964   2.942   1.322   8.568 -0.2423 -0.0475  0.0673
  708Sol     OW 5965   0.172   2.269   3.706  0.1542  0.7903  0.8655
  708Sol     HW 5966   0.177   2.298   3.798 -1.0437  3.2225  0.2060
  708Sol     HW 5967   0.084   2.235   3.696  0.0041  1.3101  0.4007
  708Sol     MW 5968   0.165   2.269   3.714  0.4164 -0.6289  0.2919
  709Sol     OW 5969   1.239   2.303   6.714 -0.2961  0.8699 -0.1770
  709Sol     HW 5970   1.235   2.318   6.620  1.3071  1.8042 -0.1217
  709Sol     HW 5971   1.192   2.377   6.752 -0.5537  0.7319 -0.2253
  709Sol     MW 5972   1.235   2.311   6.709  0.2302 -0.2285  0.2394
  710Sol     OW 5973   2.007   3.012   1.944 -0.9653 -0.3030 -0.1433
  710Sol     HW 5974   1.972   3.067   1.874 -1.3723  1.6080  1.5203
  710Sol     HW 5975   2.101   3.011   1.929 -0.9171  1.1302 -0.0064
  710Sol     MW 5976   2.012   3.017   1.937 -0.0766  0.1891  0.8224
  711Sol     OW 5977   1.219   1.916   6.132  0.4275 -0.0630 -0.1641
  711Sol     HW 5978   1.163   1.866   6.191  1.0749 -2.6129 -1.6456
  711Sol     HW 5979   1.161   1.941   6.060  0.8436 -1.4907 -1.0071
  711Sol     MW 5980   1.209   1.914   6.131 -0.1320 -0.0442  0.1833
  712Sol     OW 5981   0.666   2.822   7.079 -0.2188  0.6861 -0.0327
  712Sol     HW 5982   0.757   2.822   7.108  0.0583  2.8825 -0.8183
  712Sol     HW 5983   0.662   2.755   7.011  0.7080  0.2957  0.2999
  712Sol     MW 5984   0.673   2.816   7.075 -0.2779 -0.2340 -0.2522
  713Sol     OW 5985   0.620   1.107   5.315 -0.8110 -0.1562 -0.0269
  713Sol     HW 5986   0.714   1.090   5.316 -0.1252  3.1618 -1.3028
  713Sol     HW 5987   0.596   1.102   5.223 -1.9773 -1.3123  0.3265
  713Sol     MW 5988   0.626   1.105   5.307 -0.6640  0.1878 -0.6649
  714Sol     OW 5989   0.032   3.344   4.898  0.0635  0.6092 -0.2700
  714Sol     HW 5990   0.063   3.270   4.951  0.9028  0.0052 -1.5939
  714Sol     HW 5991   0.017   3.306   4.811 -0.9675  1.6742 -0.5713
  714Sol     MW 5992   0.033   3.334   4.895  0.5398  0.1432  0.2645
  715Sol     OW 5993   0.773   0.929   8.459  0.1519  0.3576 -0.1031
  715Sol     HW 5994   0.780   0.854   8.517 -0.6006  0.1422 -0.2877
  715Sol     HW 5995   0.714   0.900   8.389 -0.1458  1.1167 -0.1717
  715Sol     MW 5996   0.769   0.920   8.458 -0.2387  0.2356 -0.8616
  716Sol     OW 5997   2.858   2.685   7.739 -0.5558 -0.2774 -0.3737
  716Sol     HW 5998   2.861   2.677   7.644 -0.0045 -2.4444 -0.2028
  716Sol     HW 5999   2.940   2.730   7.762 -0.6707  0.2079 -0.8989
  716Sol     MW 6000   2.866   2.688   7.733  0.1708  0.1817 -0.1689
  717Sol     OW 6001   1.440   2.922   5.763 -0.1912 -0.5148 -0.5094
  717Sol     HW 6002   1.397   2.904   5.846  1.5075 -0.5567  0.3858
  717Sol     HW 6003   1.458   2.836   5.726  1.0875 -0.5594  0.1742
  717Sol     MW 6004   1.438   2.913   5.767  0.7459  0.0362 -0.3489
  718Sol     OW 6005   2.670   2.677   4.985  0.3108 -0.3140  0.2142
  718Sol     HW 6006   2.689   2.744   4.919 -2.7504  0.8401  0.4440
  718Sol     HW 6007   2.627   2.607   4.937 -1.4093  0.2816  0.8259
  718Sol     MW 6008   2.668   2.677   4.975  0.2068  0.1297  0.6449
  719Sol     OW 6009   0.994   0.974   9.010  0.3103 -0.2005 -0.3840
  719Sol     HW 6010   0.940   1.020   9.074 -1.5081  0.2751 -2.2138
  719Sol     HW 6011   0.989   1.027   8.931  2.7083 -0.6697 -0.8945
  719Sol     MW 6012   0.989   0.982   9.009 -0.0863 -0.0272  0.2433
  720Sol     OW 6013   2.575   1.611   2.659  0.3359 -0.1034  0.5615
  720Sol     HW 6014   2.669   1.614   2.639  0.8823  1.6948  3.1620
  720Sol     HW 6015   2.537   1.680   2.604  0.6532 -0.2690  0.1283
  720Sol     MW 6016   2.580   1.617   2.652  0.2954  0.2446  0.4638
  721Sol     OW 6017   0.522   2.897   6.512 -0.7195 -0.3317 -0.0357
  721Sol     HW 6018   0.550   2.924   6.425 -2.3488  0.6436 -0.2804
  721Sol     HW 6019   0.479   2.813   6.498  0.5718 -1.0262  0.0982
  721Sol     MW 6020   0.520   2.892   6.503  0.3419 -0.7725 -0.4963
  722Sol     OW 6021   2.082   0.607   3.694  0.1868 -0.0138 -0.1198
  722Sol     HW 6022   2.092   0.512   3.684 -2.0663 -0.0946 -1.8092
  722Sol     HW 6023   2.029   0.618   3.773  1.8350 -0.0669  1.0243
  722Sol     MW 6024   2.078   0.599   3.700  0.2583  0.1322  0.0092
  723Sol     OW 6025   0.527   0.782   2.535  0.4428  0.2078  0.4657
  723Sol     HW 6026   0.506   0.735   2.616 -1.8390  1.0844  0.4345
  723Sol     HW 6027   0.446   0.779   2.484  1.1950  1.5048 -0.8530
  723Sol     MW 6028   0.518   0.778   2.538 -0.2460  0.0496  0.2599
  724Sol     OW 6029   2.671   2.959   5.584 -0.0380  0.1687 -0.5191
  724Sol     HW 6030   2.701   2.875   5.551  2.2858  1.0534 -0.7250
  724Sol     HW 6031   2.723   3.024   5.537 -1.9455  1.7449 -0.5226
  724Sol     MW 6032   2.678   2.957   5.577  0.2155 -0.1066 -0.2209
  725Sol     OW 6033   0.995   0.139  10.011 -0.0928 -0.6375 -0.8858
  725Sol     HW 6034   0.980   0.128  10.105 -0.1817  1.0598 -0.6894
  725Sol     HW 6035   0.907   0.142   9.973 -0.1465  1.9097 -0.6197
  725Sol     MW 6036   0.985   0.138  10.016 -0.6087 -0.1150 -0.0329
  726Sol     OW 6037   0.875   3.066   4.915  0.2203 -0.0854  0.4438
  726Sol     HW 6038   0.892   3.075   5.009 -2.2637 -0.7888  0.9897
  726Sol     HW 6039   0.807   3.132   4.897  0.2676 -0.3504 -0.7380
  726Sol     MW 6040   0.870   3.073   4.922 -0.6709 -0.3912 -0.8171
  727Sol     OW 6041   0.880   3.290   8.316  0.0946  0.2099  0.2464
  727Sol     HW 6042   0.870   3.298   8.221 -0.4681 -1.3704  0.1614
  727Sol     HW 6043   0.971   3.262   8.328  0.1729  0.4332  0.1748
  727Sol     MW 6044   0.887   3.288   8.309  0.1409  0.1289  0.9751
  728Sol     OW 6045   0.514   2.589   5.365 -0.0471 -0.4336  0.1469
  728Sol     HW 6046   0.565   2.626   5.293 -1.1683  0.4684 -0.2010
  728Sol     HW 6047   0.519   2.656   5.434  0.9865 -1.2748  0.8937
  728Sol     MW 6048   0.519   2.599   5.365  0.0285  0.0638 -0.2925
  729Sol     OW 6049   0.216   3.111   3.061  0.5415 -0.2759  0.4475
  729Sol     HW 6050   0.186   3.138   2.974  1.4058  1.1573  0.5789
  729Sol     HW 6051   0.151   3.149   3.121  0.9062  0.2068  0.5365
  729Sol     MW 6052   0.207   3.117   3.059  0.2335  0.3412 -0.2838
  730Sol     OW 6053   2.537   1.394   5.225  0.1942 -0.2922  0.0867
  730Sol     HW 6054   2.620   1.353   5.251  1.5464  1.5747 -1.0752
  730Sol     HW 6055   2.486   1.324   5.185  2.0361 -1.0797 -0.9548
  730Sol     MW 6056   2.540   1.384   5.224 -0.5778  0.4741  0.1932
  731Sol     OW 6057   3.240   0.934   6.070 -0.2936  0.1330  0.0427
  731Sol     HW 6058   3.214   0.863   6.013  1.7712 -0.3035 -0.3870
  731Sol     HW 6059   3.326   0.962   6.038  1.3840 -0.7706  3.4680
  731Sol     MW 6060   3.246   0.930   6.062  0.1822 -0.2525 -0.1641
  732Sol     OW 6061   2.941   3.105   1.782 -0.0090 -0.0204  0.3504
  732Sol     HW 6062   2.849   3.131   1.778  0.1800  1.0787  2.4818
  732Sol     HW 6063   2.987   3.184   1.812  1.5516 -0.7162 -0.1829
  732Sol     MW 6064   2.937   3.114   1.784  0.5229  0.1394 -0.0172
  733Sol     OW 6065   1.353   2.674   2.298 -0.4645  0.0803 -0.4240
  733Sol     HW 6066   1.331   2.693   2.207 -1.7879 -1.5686 -0.4655
  733Sol     HW 6067   1.310   2.743   2.348  0.7213  1.3073 -1.0780
  733Sol     MW 6068   1.347   2.682   2.295  0.4007 -0.3772  0.1040
  734Sol     OW 6069   2.849   0.617   8.505 -0.3332  0.2130 -0.3133
  734Sol     HW 6070   2.789   0.605   8.579  0.5106  0.2807  0.3887
  734Sol     HW 6071   2.870   0.529   8.477  0.5294  0.1612  0.4930
  734Sol     MW 6072   2.845   0.608   8.509 -0.1131  0.1781  0.3182
  735Sol     OW 6073   1.832   1.535   6.831 -0.1990  0.5767  0.1699
  735Sol     HW 6074   1.758   1.557   6.888 -0.1774  1.5781 -0.1850
  735Sol     HW 6075   1.793   1.480   6.763  0.0411 -1.8427  1.9321
  735Sol     MW 6076   1.822   1.532   6.830  0.1762 -0.1479  0.3792
  736Sol     OW 6077   1.544   2.263   8.877 -0.3238  0.3296 -0.6667
  736Sol     HW 6078   1.613   2.264   8.811 -1.4709 -1.2332 -1.9334
  736Sol     HW 6079   1.488   2.338   8.855 -0.3538  0.1817 -1.0883
  736Sol     MW 6080   1.545   2.270   8.869  0.3494 -0.3286 -0.0164
  737Sol     OW 6081   1.402   1.013   2.203  0.1145  0.0502 -0.7174
  737Sol     HW 6082   1.388   0.924   2.234  2.1537  0.0981  0.4329
  737Sol     HW 6083   1.444   1.002   2.117  2.8946 -0.1524  0.6181
  737Sol     MW 6084   1.405   1.004   2.198 -0.7008 -0.5440 -0.0489
  738Sol     OW 6085   1.661   2.787   3.216 -0.3102 -0.1422 -0.1132
  738Sol     HW 6086   1.677   2.693   3.221 -0.2651 -0.2434 -1.8331
  738Sol     HW 6087   1.671   2.818   3.306 -0.2530 -1.7637  0.4567
  738Sol     MW 6088   1.663   2.781   3.224 -0.4291 -0.1993  0.2200
  739Sol     OW 6089   2.300   3.142   6.497 -0.0678 -0.2166 -0.2506
  739Sol     HW 6090   2.246   3.187   6.562 -0.6006 -0.4398 -0.5343
  739Sol     HW 6091   2.387   3.139   6.536 -0.4696 -0.6895  0.6276
  739Sol     MW 6092   2.303   3.146   6.507 -0.2365 -0.3436 -0.2555
  740Sol     OW 6093   2.934   0.496   8.946  0.3655 -0.4694  0.0213
  740Sol     HW 6094   2.862   0.465   8.891 -1.2016  0.9085  1.2267
  740Sol     HW 6095   2.960   0.420   8.998  0.9026 -1.4076 -1.5853
  740Sol     MW 6096   2.930   0.487   8.945  0.2423 -0.4245  0.5739
  741Sol     OW 6097   0.946   2.552   1.915  0.5079  0.2811  0.2337
  741Sol     HW 6098   0.892   2.630   1.913  0.9421  0.5878  0.4145
  741Sol     HW 6099   1.026   2.575   1.868 -0.1734 -0.6751 -1.4177
  741Sol     MW 6100   0.949   2.561   1.911  0.2205  0.1545  0.8024
  742Sol     OW 6101   1.506   1.211   7.837 -0.3237  0.2752 -0.3307
  742Sol     HW 6102   1.411   1.217   7.842 -0.3805 -1.4601  1.1308
  742Sol     HW 6103   1.522   1.122   7.806  0.8444 -0.1643  1.4573
  742Sol     MW 6104   1.499   1.203   7.835  0.0740  0.1682  0.4387
  743Sol     OW 6105   2.986   2.889   5.188 -0.6244  0.4633  0.2214
  743Sol     HW 6106   2.921   2.951   5.154  1.2198  0.8507 -2.7122
  743Sol     HW 6107   2.976   2.811   5.133 -0.3560 -0.4586  1.4595
  743Sol     MW 6108   2.979   2.888   5.180 -0.2078 -0.5153 -0.4664
  744Sol     OW 6109   2.309   0.324   5.921  0.0929  0.0280 -0.6856
  744Sol     HW 6110   2.310   0.400   5.863  0.5028 -0.6530 -1.5856
  744Sol     HW 6111   2.235   0.340   5.981 -0.6984  0.4699 -1.7649
  744Sol     MW 6112   2.302   0.332   5.921  0.2291  0.5564 -0.4465
  745Sol     OW 6113   2.846   1.995   4.460 -0.0169 -0.2273 -0.2028
  745Sol     HW 6114   2.874   2.057   4.527  1.3340 -2.4581  1.3212
  745Sol     HW 6115   2.752   1.983   4.477  0.0749  0.0986  0.5583
  745Sol     MW 6116   2.840   1.999   4.467 -0.0107  0.1306  0.3465
  746Sol     OW 6117   0.523   1.435   2.242 -0.6872 -0.1293  0.2601
  746Sol     HW 6118   0.529   1.521   2.200  0.3973 -0.2920  0.0611
  746Sol     HW 6119   0.479   1.451   2.325 -3.9492  0.0208 -1.4314
  746Sol     MW 6120   0.520   1.444   2.245  0.2376  0.7504 -0.7563
  747Sol     OW 6121   2.562   2.437   8.654 -0.3549  0.0598  0.0224
  747Sol     HW 6122   2.650   2.447   8.617 -0.4035  1.6714  0.2883
  747Sol     HW 6123   2.522   2.367   8.603  0.5105  0.4472 -1.2036
  747Sol     MW 6124   2.567   2.432   8.646  0.1557 -0.3732  0.0673
  748Sol     OW 6125   3.039   2.533   5.250 -0.2033 -0.3806 -0.0904
  748Sol     HW 6126   2.960   2.553   5.300  0.3441  1.4582  0.0376
  748Sol     HW 6127   3.033   2.588   5.172  1.0731 -0.0463  0.0366
  748Sol     MW 6128   3.031   2.539   5.247  0.0457 -0.2038 -0.3387
  749Sol     OW 6129   1.330   0.636   3.974 -0.1452  0.6155  0.0690
  749Sol     HW 6130   1.329   0.709   4.036  0.7760  0.6331  0.0614
  749Sol     HW 6131   1.288   0.671   3.896  2.5294  1.9555 -0.8335
  749Sol     MW 6132   1.326   0.646   3.973 -0.0870  0.2270 -0.0676
  750Sol     OW 6133   2.612   0.634   7.563 -0.0979  0.2351  0.0293
  750Sol     HW 6134   2.642   0.615   7.474 -1.0564  0.8349 -0.4293
  750Sol     HW 6135   2.682   0.601   7.619 -0.0223 -1.2396 -0.8960
  750Sol     MW 6136   2.621   0.629   7.560  0.4049 -1.0306 -0.3329
  751Sol     OW 6137   2.226   3.422   6.967  0.1426 -0.4153 -0.1243
  751Sol     HW 6138   2.138   3.459   6.976  1.6246  2.6873  2.7197
  751Sol     HW 6139   2.254   3.448   6.879 -0.3925  1.8562  0.3533
  751Sol     MW 6140   2.221   3.428   6.960 -0.0849  0.8445  0.3665
  752Sol     OW 6141   1.714   1.887   9.930 -0.4472 -0.5929  0.1017
  752Sol     HW 6142   1.619   1.892   9.927 -0.4110 -0.7482 -1.9074
  752Sol     HW 6143   1.741   1.970   9.969 -1.3059  0.4103 -1.4097
  752Sol     MW 6144   1.708   1.895   9.934  0.5140 -0.8929 -0.6341
  753Sol     OW 6145   2.527   2.594   2.807 -0.3152 -0.4006 -0.5361
  753Sol     HW 6146   2.615   2.622   2.782  0.0174  1.2475  2.3038
  753Sol     HW 6147   2.485   2.571   2.724  1.6505  2.0549 -2.2976
  753Sol     MW 6148   2.531   2.594   2.797 -0.5457 -0.4112  0.3228
  754Sol     OW 6149   0.671   2.854   4.165  0.4571 -0.2986  0.6981
  754Sol     HW 6150   0.644   2.767   4.194  0.4885  0.0723  1.8605
  754Sol     HW 6151   0.666   2.908   4.243  0.4559  0.7483 -0.0168
  754Sol     MW 6152   0.668   2.851   4.174 -0.2059 -0.1577 -0.6957
  755Sol     OW 6153   3.142   0.401   9.453  0.6823 -0.2256 -0.4150
  755Sol     HW 6154   3.060   0.352   9.453  0.7847 -0.4233  0.9534
  755Sol     HW 6155   3.186   0.374   9.373  0.8500 -2.6172  0.4401
  755Sol     MW 6156   3.139   0.394   9.446  0.0256  0.0274 -0.3644
  756Sol     OW 6157   1.575   0.372   3.089  0.2196  0.1177  0.8010
  756Sol     HW 6158   1.643   0.416   3.141  0.8634 -0.6354  0.6131
  756Sol     HW 6159   1.549   0.297   3.143  1.3901 -1.0694 -0.2430
  756Sol     MW 6160   1.579   0.369   3.098  0.7842  0.3701  0.0280
  757Sol     OW 6161   1.941   2.829   8.048  0.1180 -0.5572  0.0900
  757Sol     HW 6162   1.866   2.873   8.089 -1.1172 -0.2135 -2.4093
  757Sol     HW 6163   2.018   2.874   8.084 -0.9477  0.4462  1.1559
  757Sol     MW 6164   1.941   2.837   8.055 -0.3592  0.2275  0.0071
  758Sol     OW 6165   1.764   0.594   8.516  0.3897  0.3559 -0.8094
  758Sol     HW 6166   1.744   0.542   8.438  0.7983 -0.5899 -0.2840
  758Sol     HW 6167   1.816   0.667   8.483 -0.8622  0.8941 -1.6687
  758Sol     MW 6168   1.767   0.596   8.506  0.1185  0.2130  0.3661
  759Sol     OW 6169   2.520   0.452   7.763  0.3986  0.0629 -0.0690
  759Sol     HW 6170   2.461   0.490   7.698  1.2267  0.7871 -0.4116
  759Sol     HW 6171   2.521   0.516   7.834  0.5585 -0.0736  0.0510
  759Sol     MW 6172   2.515   0.461   7.763 -0.0142 -0.5155  0.1853
  760Sol     OW 6173   2.033   2.795   6.403  0.1959 -0.4620  0.1148
  760Sol     HW 6174   2.100   2.827   6.464 -1.3555  0.7810  1.2274
  760Sol     HW 6175   1.991   2.723   6.449 -0.6321  0.1435  0.3221
  760Sol     MW 6176   2.035   2.792   6.413  0.4865  0.5416 -0.4131
  761Sol     OW 6177   2.472   0.623   4.021 -0.1368 -0.4833  0.0245
  761Sol     HW 6178   2.428   0.689   4.075  1.8917  0.4102  0.6218
  761Sol     HW 6179   2.421   0.620   3.940 -0.0351  2.1044 -0.1669
  761Sol     MW 6180   2.463   0.629   4.019  0.7981 -0.9326  0.2627
  762Sol     OW 6181   3.229   2.708   8.707  0.1081  0.1679 -0.2929
  762Sol     HW 6182   3.151   2.654   8.719 -0.6123  1.4648  1.0810
  762Sol     HW 6183   3.302   2.651   8.729 -0.5455 -0.6369 -0.2016
  762Sol     MW 6184   3.228   2.698   8.710  0.9425  1.0149 -0.1810
  763Sol     OW 6185   0.914   2.929   8.687  0.5146 -0.0742 -0.2390
  763Sol     HW 6186   0.889   3.021   8.691  1.8788  0.3322 -0.7990
  763Sol     HW 6187   0.855   2.885   8.748 -0.2441  1.1480 -0.0843
  763Sol     MW 6188   0.907   2.933   8.693 -0.1905 -0.0895  0.5433
  764Sol     OW 6189   0.754   0.453   5.850  0.1824 -0.4364  0.0811
  764Sol     HW 6190   0.767   0.538   5.892  1.5423 -0.3803 -0.4070
  764Sol     HW 6191   0.832   0.442   5.796 -0.4224 -1.5846 -0.5675
  764Sol     MW 6192   0.763   0.460   5.849  0.1888  0.3135  0.0278
  765Sol     OW 6193   2.870   0.197   4.615  0.3734 -0.5153 -0.2966
  765Sol     HW 6194   2.940   0.211   4.679  1.0629  1.5839 -1.4579
  765Sol     HW 6195   2.849   0.285   4.584 -0.6272 -1.4173 -2.2474
  765Sol     MW 6196   2.874   0.206   4.618 -0.5373  0.1903 -0.4233
  766Sol     OW 6197   1.307   0.553   4.537  0.6655  0.2532 -0.1236
  766Sol     HW 6198   1.358   0.473   4.527  0.5691  0.0922  0.6879
  766Sol     HW 6199   1.283   0.556   4.629 -0.1199  0.7432 -0.3359
  766Sol     MW 6200   1.310   0.546   4.544 -0.0867  0.3961 -0.1119
  767Sol     OW 6201   2.855   1.785   2.826  0.3011  0.7269 -1.0653
  767Sol     HW 6202   2.793   1.856   2.814  0.9834  1.1532 -2.2208
  767Sol     HW 6203   2.859   1.742   2.740  2.2210  1.2401 -1.2703
  767Sol     MW 6204   2.850   1.787   2.817 -0.3359 -0.3254 -0.4182
  768Sol     OW 6205   2.893   0.370   8.400 -0.1773 -0.4083  0.1596
  768Sol     HW 6206   2.806   0.343   8.372  0.0146 -1.3922  0.4911
  768Sol     HW 6207   2.943   0.376   8.318 -0.6692  0.5787 -0.0693
  768Sol     MW 6208   2.890   0.368   8.390 -0.2558 -0.1018 -0.1378
  769Sol     OW 6209   2.758   0.497   3.093  0.0731  0.3350  0.4548
  769Sol     HW 6210   2.701   0.552   3.040  2.0498  1.8601 -0.1817
  769Sol     HW 6211   2.801   0.439   3.031  0.1976  0.0948  0.7635
  769Sol     MW 6212   2.757   0.497   3.083 -0.2323  0.6560 -0.2810
  770Sol     OW 6213   2.884   0.310   2.924  0.2686  0.4660  0.3751
  770Sol     HW 6214   2.792   0.283   2.927 -0.2452  2.1992  0.4221
  770Sol     HW 6215   2.933   0.231   2.948 -1.2480 -0.2439  1.1910
  770Sol     MW 6216   2.880   0.300   2.927 -0.3562  0.3167 -0.0912
  771Sol     OW 6217   2.040   0.128   7.633 -0.8265  0.3659  0.4475
  771Sol     HW 6218   1.945   0.127   7.643 -0.6880  1.2063  1.8873
  771Sol     HW 6219   2.072   0.182   7.705  0.6846  0.8324 -0.5485
  771Sol     MW 6220   2.034   0.132   7.640 -0.0224  0.1065 -0.3017
  772Sol     OW 6221   0.275   3.413   7.781 -0.1074  0.0408  0.0892
  772Sol     HW 6222   0.361   3.378   7.804  0.6644  1.5650 -0.4576
  772Sol     HW 6223   0.263   3.390   7.689 -0.4766 -0.5297  0.2744
  772Sol     MW 6224   0.282   3.408   7.775  0.2597 -0.2792 -0.1164
  773Sol     OW 6225   1.490   1.399   2.441 -0.4260  0.0531  0.2135
  773Sol     HW 6226   1.412   1.344   2.428 -0.4510  0.3724 -1.0668
  773Sol     HW 6227   1.534   1.397   2.357  1.1105 -0.3490  1.0200
  773Sol     MW 6228   1.487   1.394   2.432  0.6899 -0.3154  0.5147
  774Sol     OW 6229   1.136   2.936   9.231 -0.0750 -0.3427 -0.2014
  774Sol     HW 6230   1.143   2.918   9.325  0.3904 -0.2949 -0.2265
  774Sol     HW 6231   1.067   2.877   9.201 -1.2252  0.6519  0.4291
  774Sol     MW 6232   1.131   2.929   9.237 -0.4565 -0.0220  0.2277
  775Sol     OW 6233   1.470   1.387   4.896  0.0161 -0.0012 -0.1329
  775Sol     HW 6234   1.502   1.378   4.806 -0.6455 -0.6219 -0.3041
  775Sol     HW 6235   1.412   1.463   4.894  0.3973  0.2905 -0.1211
  775Sol     MW 6236   1.468   1.393   4.888 -0.2185  0.0861 -0.0146
  776Sol     OW 6237   0.780   3.255   9.348 -0.6997 -0.3113  0.0297
  776Sol     HW 6238   0.727   3.311   9.292 -1.1111 -0.7473 -0.0212
  776Sol     HW 6239   0.807   3.312   9.420 -0.6134  0.1085 -0.3325
  776Sol     MW 6240   0.778   3.265   9.350  0.0465  0.3658 -0.3553
  777Sol     OW 6241   0.138   2.600   3.404  0.8690  0.4750 -0.2597
  777Sol     HW 6242   0.207   2.544   3.438  0.7233  0.3426 -0.1785
  777Sol     HW 6243   0.182   2.658   3.343  1.0785  0.4948 -0.0922
  777Sol     MW 6244   0.148   2.600   3.402 -0.2325  0.1031 -0.5378
  778Sol     OW 6245   2.957   0.593   7.132 -0.2363 -0.0361 -0.0788
  778Sol     HW 6246   2.943   0.625   7.043 -2.4237 -1.3538 -0.2554
  778Sol     HW 6247   2.978   0.672   7.183 -1.7469  1.1490 -1.2337
  778Sol     MW 6248   2.957   0.603   7.129 -0.6990 -0.8427  0.3108
  779Sol     OW 6249   0.236   2.335   8.469  0.5996  0.3494 -0.2768
  779Sol     HW 6250   0.199   2.250   8.495  0.6500  0.7182  1.0110
  779Sol     HW 6251   0.310   2.348   8.528  1.4218  0.6786 -1.3604
  779Sol     MW 6252   0.239   2.328   8.477 -0.2061  0.6802 -0.2588
  780Sol     OW 6253   1.084   2.133   8.686 -0.7064 -0.4142  0.3958
  780Sol     HW 6254   1.018   2.076   8.646  0.0906 -2.0364  1.2970
  780Sol     HW 6255   1.167   2.090   8.667  0.1080  1.5360 -0.6012
  780Sol     MW 6256   1.085   2.124   8.681 -0.1065 -0.2143  0.1574
  781Sol     OW 6257   2.609   1.612   8.456 -0.1573 -0.6028  0.1427
  781Sol     HW 6258   2.681   1.675   8.450  1.3192 -2.2700 -0.3579
  781Sol     HW 6259   2.639   1.548   8.521 -1.7048 -0.7019  0.7875
  781Sol     MW 6260   2.618   1.612   8.462  0.4705 -0.4057 -0.2990
  782Sol     OW 6261   2.972   1.977   8.546  0.1451  0.6518  0.5336
  782Sol     HW 6262   2.903   1.939   8.493  0.0188 -1.2801  2.0190
  782Sol     HW 6263   2.927   2.025   8.615  0.2494 -0.5355  1.4515
  782Sol     MW 6264   2.962   1.978   8.548  0.6671  0.0058 -0.7620
  783Sol     OW 6265   0.253   3.182   1.970 -0.4772  0.0871 -0.0678
  783Sol     HW 6266   0.335   3.215   1.932  0.5508  0.4638  2.3659
  783Sol     HW 6267   0.267   3.188   2.065 -1.4536 -4.4005  0.4719
  783Sol     MW 6268   0.262   3.186   1.975  0.1418  0.0599 -0.1026
  784Sol     OW 6269   2.989   2.901   8.127  0.4999 -0.2026  0.1207
  784Sol     HW 6270   2.923   2.966   8.101  0.9328  0.4723  0.7065
  784Sol     HW 6271   2.942   2.818   8.126 -0.2460  0.2175  0.0852
  784Sol     MW 6272   2.979   2.899   8.124  0.1781  0.9116 -0.0738
  785Sol     OW 6273   1.760   0.114   7.686 -0.2453  0.1753 -0.4672
  785Sol     HW 6274   1.774   0.030   7.643  0.1556 -0.5557  1.0514
  785Sol     HW 6275   1.690   0.097   7.749 -0.8688  1.2423 -0.8625
  785Sol     MW 6276   1.755   0.105   7.688 -0.5453  0.1949 -0.3579
  786Sol     OW 6277   1.250   0.542   5.825  0.8613 -0.2484 -0.2802
  786Sol     HW 6278   1.172   0.555   5.771 -0.0745 -1.1249  0.8612
  786Sol     HW 6279   1.319   0.520   5.762  0.0747  0.0138 -1.2394
  786Sol     MW 6280   1.249   0.541   5.814 -0.0031  0.3819 -0.9099
  787Sol     OW 6281   1.141   2.385   2.807 -0.2422  1.0354 -0.0319
  787Sol     HW 6282   1.073   2.400   2.873 -0.2285  0.9409  0.0040
  787Sol     HW 6283   1.217   2.358   2.859  0.1012  2.0525  0.0106
  787Sol     MW 6284   1.142   2.384   2.818  0.4451 -0.2860  0.1013
  788Sol     OW 6285   1.894   3.221   5.450 -0.0747 -0.1496  0.2058
  788Sol     HW 6286   1.921   3.242   5.360  1.6989 -0.1255  0.7367
  788Sol     HW 6287   1.857   3.303   5.483  1.7890  0.6394  0.4068
  788Sol     MW 6288   1.893   3.230   5.445 -0.1425  0.4730  0.8266
  789Sol     OW 6289   2.435   2.281   3.252  0.1696 -0.5798  0.0661
  789Sol     HW 6290   2.365   2.236   3.299 -1.4917 -0.0541 -1.8662
  789Sol     HW 6291   2.490   2.211   3.218 -0.7367 -1.0647 -0.4120
  789Sol     MW 6292   2.434   2.271   3.253 -0.2005 -0.1958  0.4659
  790Sol     OW 6293   1.690   2.462   9.368  0.0910  0.3506  0.1123
  790Sol     HW 6294   1.659   2.537   9.418 -0.0621 -0.3533  1.0877
  790Sol     HW 6295   1.709   2.497   9.281 -0.3151  1.4424  0.4591
  790Sol     MW 6296   1.689   2.472   9.364 -0.1459  0.5696  0.4121
  791Sol     OW 6297   1.309   1.155   8.210  0.5935  0.0512 -0.3908
  791Sol     HW 6298   1.318   1.249   8.194 -0.2915  0.4888  1.5589
  791Sol     HW 6299   1.217   1.136   8.192  0.2233  0.0353  1.3453
  791Sol     MW 6300   1.302   1.162   8.207  0.3357 -0.0846 -0.0505
  792Sol     OW 6301   2.265   0.175   2.450 -0.2253  0.3335 -0.3979
  792Sol     HW 6302   2.330   0.237   2.484 -0.8732  0.3281  0.9084
  792Sol     HW 6303   2.188   0.229   2.431 -0.2786  0.1541 -0.6935
  792Sol     MW 6304   2.263   0.185   2.451 -0.2270  0.4460  0.1538
  793Sol     OW 6305   0.131   0.874   8.766 -0.2162  0.2625 -0.5657
  793Sol     HW 6306   0.119   0.791   8.719  1.2762 -0.8862  1.0122
  793Sol     HW 6307   0.052   0.884   8.819  0.3572 -1.0712  0.5759
  793Sol     MW 6308   0.123   0.867   8.767 -0.0538 -0.0099  0.1019
  794Sol     OW 6309   0.091   1.453   9.431 -0.8244  0.3052  0.2403
  794Sol     HW 6310   0.042   1.499   9.362 -0.6302  0.6187  0.3096
  794Sol     HW 6311   0.151   1.396   9.384 -1.7627 -0.6356  0.1534
  794Sol     MW 6312   0.092   1.452   9.421  0.6688  0.1020  0.0903
  795Sol     OW 6313   1.226   1.290   6.599 -0.4858  0.2757 -0.5178
  795Sol     HW 6314   1.198   1.224   6.535 -0.0427  0.3136 -0.7525
  795Sol     HW 6315   1.181   1.266   6.679  0.7162 -1.1137 -0.2377
  795Sol     MW 6316   1.219   1.282   6.600 -0.3294 -0.0091  0.0057
  796Sol     OW 6317   0.780   2.800   3.663  0.6182 -0.1261 -0.7273
  796Sol     HW 6318   0.826   2.765   3.587 -0.5890 -0.9194 -1.0929
  796Sol     HW 6319   0.726   2.871   3.628 -0.4294 -0.9095 -0.7333
  796Sol     MW 6320   0.779   2.803   3.653  0.1016  0.5450  0.1044
  797Sol     OW 6321   3.308   2.580   2.395 -0.2927  0.0489 -0.5063
  797Sol     HW 6322   3.377   2.624   2.446 -0.1364 -0.9964  0.1891
  797Sol     HW 6323   3.320   2.613   2.306  1.0853 -0.0853 -0.3861
  797Sol     MW 6324   3.316   2.587   2.391  0.1407 -0.0784  0.4305
  798Sol     OW 6325   2.563   3.040   6.102 -0.5472 -0.2134  0.2225
  798Sol     HW 6326   2.584   3.129   6.075 -1.2799 -0.0732  0.0947
  798Sol     HW 6327   2.606   3.029   6.187  0.1858 -0.0084 -0.1227
  798Sol     MW 6328   2.569   3.047   6.107  0.4151 -0.2184 -0.5349
  799Sol     OW 6329   0.344   0.923   1.941 -0.4363 -0.0098 -0.4580
  799Sol     HW 6330   0.432   0.959   1.950 -0.4589  0.2897 -1.3281
  799Sol     HW 6331   0.348   0.872   1.860 -1.4859  1.2960 -1.3561
  799Sol     MW 6332   0.352   0.922   1.934  0.2167  0.0099  0.4400
  800Sol     OW 6333   2.141   0.330   6.998  0.3538  1.5268  0.1531
  800Sol     HW 6334   2.074   0.399   7.009 -0.6823  0.5017  0.3606
  800Sol     HW 6335   2.173   0.313   7.086  1.3583  2.4684 -0.0219
  800Sol     MW 6336   2.138   0.335   7.007  0.4857  0.6131 -0.0075
  801Sol     OW 6337   0.175   2.352   2.642  0.2838 -0.0740 -0.0847
  801Sol     HW 6338   0.134   2.402   2.712 -2.2219 -1.2217 -0.6694
  801Sol     HW 6339   0.178   2.262   2.674  0.2211 -0.4071 -0.9798
  801Sol     MW 6340   0.172   2.349   2.651 -0.1897 -0.9833 -0.0990
  802Sol     OW 6341   1.416   0.855   3.592  0.0113 -0.1646 -0.0390
  802Sol     HW 6342   1.373   0.936   3.619  0.5635  0.5577 -1.2615
  802Sol     HW 6343   1.492   0.847   3.649 -0.6278 -0.3927  0.7898
  802Sol     MW 6344   1.419   0.861   3.599  0.1298  0.3095 -0.1072
  803Sol     OW 6345   0.079   1.067   7.656 -0.5067  0.0253 -0.1397
  803Sol     HW 6346   0.125   0.984   7.641 -0.2828 -0.1691  1.4985
  803Sol     HW 6347  -0.014   1.043   7.655 -0.5592  0.2204 -2.2948
  803Sol     MW 6348   0.075   1.057   7.655 -0.2932 -0.0028  0.2429
  804Sol     OW 6349   3.307   2.713   4.698 -0.0131 -0.2813  0.0911
  804Sol     HW 6350   3.261   2.782   4.746 -2.0756 -1.2065 -0.4766
  804Sol     HW 6351   3.338   2.755   4.618 -0.8628  0.1026 -0.0398
  804Sol     MW 6352   3.305   2.723   4.695 -0.2005 -0.3646 -0.2404
  805Sol     OW 6353   2.605   1.818   4.504 -0.1737  0.6171 -0.0319
  805Sol     HW 6354   2.603   1.799   4.598  0.7414 -0.5136 -0.2276
  805Sol     HW 6355   2.513   1.827   4.480 -0.4240  0.7893  0.9463
  805Sol     MW 6356   2.597   1.817   4.511  0.2911 -0.7099  0.2593
  806Sol     OW 6357   2.844   2.023   8.103 -0.2330 -0.2040  0.0908
  806Sol     HW 6358   2.901   1.963   8.152 -0.4966 -0.9563 -0.5015
  806Sol     HW 6359   2.898   2.054   8.030  0.0892  0.7429  0.7251
  806Sol     MW 6360   2.854   2.020   8.101  0.1960 -0.1427  0.4546
  807Sol     OW 6361   1.938   0.515   6.999  0.4027 -0.0279  0.1266
  807Sol     HW 6362   1.871   0.570   7.041  0.2065 -0.5686  0.5362
  807Sol     HW 6363   1.890   0.463   6.935  0.3019 -0.9465  0.9338
  807Sol     MW 6364   1.928   0.515   6.997  0.6556  0.5658 -0.6373
  808Sol     OW 6365   1.658   3.241   8.932 -0.4381 -0.2346  0.7587
  808Sol     HW 6366   1.656   3.315   8.871 -0.6932 -0.1927  0.8169
  808Sol     HW 6367   1.577   3.250   8.983 -0.7904 -0.9324  0.3179
  808Sol     MW 6368   1.650   3.249   8.932 -0.2401  0.3612  0.3354
  809Sol     OW 6369   0.641   1.662   5.118 -0.0727 -0.5826 -0.1240
  809Sol     HW 6370   0.659   1.577   5.159  0.7766 -1.2464 -1.8469
  809Sol     HW 6371   0.604   1.641   5.033 -0.5200  0.7873 -0.2785
  809Sol     MW 6372   0.640   1.652   5.114  0.5528  0.4586  0.1657
  810Sol     OW 6373   3.292   3.001   2.520  0.2069 -0.4529 -0.0567
  810Sol     HW 6374   3.323   3.002   2.610  0.7281  1.9528 -0.2047
  810Sol     HW 6375   3.371   3.009   2.467 -0.2873  1.0163 -0.6053
  810Sol     MW 6376   3.302   3.002   2.523 -0.3650  0.0694 -0.1463
  811Sol     OW 6377   2.385   0.904   7.307  0.5887  0.0962 -0.3454
  811Sol     HW 6378   2.443   0.903   7.383  1.2888  1.2109 -0.8488
  811Sol     HW 6379   2.383   0.814   7.277  2.3987  0.1119 -0.5738
  811Sol     MW 6380   2.390   0.896   7.312  0.2946  0.0518  0.1223
  812Sol     OW 6381   0.976   0.280   7.955 -0.4845 -0.0768 -0.7127
  812Sol     HW 6382   0.911   0.210   7.946 -0.1599 -0.1637 -2.4222
  812Sol     HW 6383   1.059   0.235   7.965 -0.4573  0.0641 -0.2592
  812Sol     MW 6384   0.977   0.270   7.955  0.1140 -1.0089 -0.0469
  813Sol     OW 6385   0.934   0.671   4.144  0.3052 -0.3537 -0.2769
  813Sol     HW 6386   0.838   0.665   4.143  0.2122  0.9923 -0.1186
  813Sol     HW 6387   0.963   0.586   4.179 -0.8622 -0.3852  0.6501
  813Sol     MW 6388   0.928   0.662   4.147 -0.1075  0.4873  0.4570
  814Sol     OW 6389   2.561   1.575   6.359 -0.2760 -0.4036 -0.3389
  814Sol     HW 6390   2.603   1.601   6.441 -1.3011 -1.4667  0.5410
  814Sol     HW 6391   2.470   1.601   6.369 -0.3338 -0.2179 -1.2952
  814Sol     MW 6392   2.557   1.579   6.368 -0.1007  0.3549  0.0608
  815Sol     OW 6393   2.032   1.374   1.905  0.5222 -0.2419 -0.5038
  815Sol     HW 6394   2.016   1.291   1.950  0.7997  0.9721  1.9292
  815Sol     HW 6395   1.950   1.393   1.858 -0.3841 -0.7117  0.8689
  815Sol     MW 6396   2.023   1.368   1.905 -0.3459  0.9118  0.6010
  816Sol     OW 6397   0.208   2.363   3.985  0.2665 -0.5396 -0.0257
  816Sol     HW 6398   0.180   2.315   4.063 -2.0371 -0.8650 -0.9958
  816Sol     HW 6399   0.291   2.324   3.961  0.0526 -1.7533  1.1483
  816Sol     MW 6400   0.213   2.355   3.990 -0.2655  0.8411  0.2596
  817Sol     OW 6401   1.663   1.748   9.699 -0.0069  0.2681 -0.0453
  817Sol     HW 6402   1.567   1.752   9.702  0.0521  0.9765  1.3202
  817Sol     HW 6403   1.691   1.789   9.781  1.4180 -1.8683  0.5936
  817Sol     MW 6404   1.656   1.752   9.707  0.4132  0.3077  0.5598
  818Sol     OW 6405   0.374   1.117   6.818  0.0483 -0.1715  0.3550
  818Sol     HW 6406   0.372   1.208   6.787  0.2476 -0.2144  0.2136
  818Sol     HW 6407   0.345   1.122   6.909 -2.1924 -0.2501 -0.3231
  818Sol     MW 6408   0.371   1.126   6.823  0.2631 -0.0165  0.3183
  819Sol     OW 6409   1.353   2.251   7.887  0.0288 -0.1464  0.2753
  819Sol     HW 6410   1.345   2.155   7.888 -0.4985 -0.1366 -1.6395
  819Sol     HW 6411   1.267   2.283   7.914  0.1894 -0.2126  0.8648
  819Sol     MW 6412   1.344   2.245   7.890 -0.0325 -0.4816 -0.4245
  820Sol     OW 6413   1.483   1.964   6.973  0.5910  0.3364  0.0213
  820Sol     HW 6414   1.441   2.050   6.970  3.9393  2.0583 -0.3359
  820Sol     HW 6415   1.481   1.932   6.883 -2.1638 -0.8088  0.4271
  820Sol     MW 6416   1.479   1.969   6.965  0.1450  0.1502 -0.0460
  821Sol     OW 6417   3.099   1.763   6.584  0.0914 -0.5996  0.3404
  821Sol     HW 6418   3.060   1.780   6.498  0.3249  1.3066  0.6050
  821Sol     HW 6419   3.193   1.757   6.567  0.1215 -0.4030  0.4427
  821Sol     MW 6420   3.104   1.764   6.575 -0.2121 -0.0621  0.1009
  822Sol     OW 6421   2.891   2.444   3.608 -0.1726  0.5233 -0.6977
  822Sol     HW 6422   2.985   2.428   3.597 -0.1662  1.0801 -1.4956
  822Sol     HW 6423   2.849   2.378   3.553 -0.3112 -1.1852  1.4193
  822Sol     MW 6424   2.895   2.437   3.602  0.0880  0.1070  0.1780
  823Sol     OW 6425   2.374   2.418   3.032 -0.3485  0.1906  0.0493
  823Sol     HW 6426   2.435   2.414   2.958 -1.0856 -0.8963 -0.5187
  823Sol     HW 6427   2.420   2.372   3.103 -0.7111 -1.1377 -0.5483
  823Sol     MW 6428   2.384   2.413   3.032 -0.6515  0.4285 -0.2547
  824Sol     OW 6429   0.262   0.535   4.353  0.7553  0.2379  0.0503
  824Sol     HW 6430   0.227   0.520   4.265 -0.7629 -0.3638  0.7383
  824Sol     HW 6431   0.352   0.504   4.349  0.2738 -1.0748 -0.9297
  824Sol     MW 6432   0.267   0.531   4.345  0.2024  0.3273 -0.0440
  825Sol     OW 6433   1.190   1.731   6.615 -0.6338 -0.4300  0.0077
  825Sol     HW 6434   1.188   1.649   6.566  0.3899  0.2612 -1.2106
  825Sol     HW 6435   1.134   1.790   6.565 -1.0339 -0.2539  0.6588
  825Sol     MW 6436   1.184   1.728   6.606  0.5825  0.2858  0.3869
  826Sol     OW 6437   3.035   1.039   8.940  0.5777  0.1447  0.0820
  826Sol     HW 6438   3.050   1.124   8.900 -0.1196  0.3417  0.2296
  826Sol     HW 6439   2.988   0.989   8.874 -0.0238  0.2603  0.4175
  826Sol     MW 6440   3.032   1.042   8.931  0.4620 -0.3510 -0.3639
  827Sol     OW 6441   1.196   1.873   4.285 -0.0669  0.3896 -0.3513
  827Sol     HW 6442   1.247   1.954   4.286  0.4303  0.1239 -2.5521
  827Sol     HW 6443   1.108   1.900   4.261 -0.3283  0.4914  0.6962
  827Sol     MW 6444   1.193   1.882   4.283 -0.6573 -0.7140  0.5757
  828Sol     OW 6445   1.930   3.325   6.326  0.0883  0.3967 -0.3227
  828Sol     HW 6446   1.871   3.379   6.275 -0.5486  2.2395  2.2653
  828Sol     HW 6447   1.969   3.385   6.390  1.2669 -1.6971  1.0048
  828Sol     MW 6448   1.929   3.335   6.327  0.1082  0.1322  0.3158
  829Sol     OW 6449   1.084   2.744   8.035 -0.2992  0.1270 -0.3254
  829Sol     HW 6450   1.090   2.839   8.032 -1.1128  0.1612 -1.5467
  829Sol     HW 6451   1.064   2.719   7.945 -0.1863 -1.1896  0.0071
  829Sol     MW 6452   1.083   2.750   8.027 -0.4398  0.0289  0.1410
  830Sol     OW 6453   1.858   2.983   6.581  0.0576 -0.3175  0.3892
  830Sol     HW 6454   1.837   2.956   6.491 -0.1239 -1.1257  0.6674
  830Sol     HW 6455   1.801   2.929   6.636  1.2831 -0.9555  1.0538
  830Sol     MW 6456   1.851   2.975   6.578  0.0647  0.0967 -0.3424
  831Sol     OW 6457   1.709   2.403   2.804 -0.3724 -0.1031 -0.1472
  831Sol     HW 6458   1.798   2.401   2.767 -0.2047 -0.8964  0.2858
  831Sol     HW 6459   1.718   2.456   2.883  0.1384 -1.7819  0.9470
  831Sol     MW 6460   1.718   2.408   2.808 -0.2535  0.2713  0.5103
  832Sol     OW 6461   2.077   3.387   4.999 -0.4012  0.0826  0.1080
  832Sol     HW 6462   2.145   3.345   4.946 -0.4403 -1.9560  1.5992
  832Sol     HW 6463   2.004   3.399   4.938  0.7125  0.8563 -1.1151
  832Sol     MW 6464   2.077   3.384   4.989 -0.1878  0.5904 -0.2916
  833Sol     OW 6465   0.384   2.541   5.977 -0.3984 -0.6324  0.2466
  833Sol     HW 6466   0.374   2.598   6.053  1.0889  0.0571 -0.0441
  833Sol     HW 6467   0.298   2.541   5.935 -0.7812  0.2834  1.0196
  833Sol     MW 6468   0.376   2.546   5.980  0.5029 -0.1012  0.5565
  834Sol     OW 6469   2.740   1.089   8.165 -0.2265 -0.1782  1.0290
  834Sol     HW 6470   2.824   1.133   8.176  0.0858 -0.8265  1.2803
  834Sol     HW 6471   2.760   0.996   8.178 -1.0967 -0.2671  1.7428
  834Sol     MW 6472   2.750   1.084   8.167 -0.0888  0.3029 -0.1332
  835Sol     OW 6473   2.151   2.234   6.756  0.1596 -0.1569 -0.2124
  835Sol     HW 6474   2.115   2.285   6.683  1.1448 -1.2666 -1.4971
  835Sol     HW 6475   2.086   2.165   6.770  0.7017 -0.8464 -1.0604
  835Sol     MW 6476   2.142   2.232   6.750 -0.9654  0.0665  0.7488
  836Sol     OW 6477   0.397   1.449   8.362  0.0997 -0.2632 -0.2802
  836Sol     HW 6478   0.341   1.390   8.311 -0.1644  0.8931 -1.3387
  836Sol     HW 6479   0.457   1.390   8.408 -1.9521 -1.5157  0.8570
  836Sol     MW 6480   0.398   1.438   8.362 -0.5270 -0.0851  0.3712
  837Sol     OW 6481   0.653   2.518   8.772 -0.6725 -0.1131  1.2269
  837Sol     HW 6482   0.663   2.515   8.867  1.0690  0.9695  1.0972
  837Sol     HW 6483   0.738   2.490   8.738 -0.4463  1.9901  0.0062
  837Sol     MW 6484   0.661   2.515   8.778 -0.0313 -0.0010 -0.0524
  838Sol     OW 6485   2.616   2.665   8.256  0.2903 -0.0500  0.1606
  838Sol     HW 6486   2.585   2.574   8.245  1.1014 -0.3387  0.2383
  838Sol     HW 6487   2.553   2.704   8.316  0.0332 -0.6126  0.2676
  838Sol     MW 6488   2.608   2.660   8.260  0.0357 -0.4707 -0.4848
  839Sol     OW 6489   0.009   0.976   4.258 -0.4792 -0.5823  0.2543
  839Sol     HW 6490   0.085   1.007   4.308  1.1878 -1.5259 -1.5863
  839Sol     HW 6491  -0.049   1.052   4.254  1.5356  0.9973 -0.4156
  839Sol     MW 6492   0.011   0.986   4.262  0.4665  0.0597 -0.3272
  840Sol     OW 6493   1.048   2.375   3.284  0.8677  0.7449 -0.4839
  840Sol     HW 6494   1.079   2.409   3.368  0.9525 -1.8794  0.5908
  840Sol     HW 6495   0.956   2.352   3.301  0.6401  0.9957 -1.3702
  840Sol     MW 6496   1.042   2.376   3.293  0.3438 -0.3119  0.2377
  841Sol     OW 6497   2.833   2.449   5.045 -0.0032  0.0954  0.6850
  841Sol     HW 6498   2.800   2.535   5.018 -0.0564  0.3725  1.6378
  841Sol     HW 6499   2.794   2.434   5.131 -1.8017 -1.8589 -0.3934
  841Sol     MW 6500   2.826   2.455   5.050 -0.2917 -0.1751  0.1108
  842Sol     OW 6501   2.848   1.415   9.199 -0.0657  0.0915  0.0074
  842Sol     HW 6502   2.906   1.393   9.271  0.8897  0.0417 -0.7759
  842Sol     HW 6503   2.844   1.335   9.146  0.1564  0.5010 -0.6275
  842Sol     MW 6504   2.853   1.406   9.200 -0.4171 -0.0272  0.2130
  843Sol     OW 6505   0.444   0.201   4.716  0.1744 -0.0167  0.7429
  843Sol     HW 6506   0.438   0.288   4.757 -2.2758  0.1533  0.1079
  843Sol     HW 6507   0.362   0.158   4.741 -0.0286 -0.9841 -1.5473
  843Sol     MW 6508   0.436   0.205   4.722  0.2233  0.2195  0.4808
  844Sol     OW 6509   2.869   2.141   4.025 -0.6678 -0.2906 -0.1277
  844Sol     HW 6510   2.879   2.229   3.989 -1.7583  0.2522  0.8687
  844Sol     HW 6511   2.775   2.130   4.035 -0.4394 -0.9053  1.4149
  844Sol     MW 6512   2.862   2.148   4.023  0.4480 -0.5298  1.0247
  845Sol     OW 6513   1.545   1.748   8.520  0.0937 -0.8699  0.1553
  845Sol     HW 6514   1.620   1.690   8.509  0.2584 -0.7720  0.7188
  845Sol     HW 6515   1.476   1.709   8.466  0.0499 -1.8635  0.9109
  845Sol     MW 6516   1.545   1.739   8.514 -0.0455  0.8274 -0.4348
  846Sol     OW 6517   2.070   3.037   9.528 -0.1650 -0.1660 -0.4727
  846Sol     HW 6518   2.110   3.124   9.521 -0.3763 -0.1415 -1.4010
  846Sol     HW 6519   2.070   3.004   9.438 -1.9018 -0.3187 -0.4192
  846Sol     MW 6520   2.074   3.042   9.519  0.1962  0.3151 -0.7539
  847Sol     OW 6521   0.243   2.158   5.729 -0.2620  0.2431 -0.3050
  847Sol     HW 6522   0.322   2.180   5.679  0.0782  1.3950  0.7086
  847Sol     HW 6523   0.275   2.107   5.803 -0.5207  0.2793 -0.1682
  847Sol     MW 6524   0.253   2.156   5.731  0.2607  0.0366 -0.7630
  848Sol     OW 6525   2.048   3.188   4.710  0.4394 -0.0629 -0.1886
  848Sol     HW 6526   1.974   3.246   4.730  0.0964 -0.6545  0.2579
  848Sol     HW 6527   2.121   3.225   4.761  0.7530  1.1939 -1.5233
  848Sol     MW 6528   2.048   3.197   4.716  0.6820  0.4205 -0.1978
  849Sol     OW 6529   0.922   1.927   4.194 -0.1727  0.3075  0.3890
  849Sol     HW 6530   0.836   1.900   4.225 -0.4525 -0.1253 -0.7607
  849Sol     HW 6531   0.908   2.014   4.156 -0.2190  0.0012 -0.3055
  849Sol     MW 6532   0.913   1.932   4.193  0.1227 -0.4054  0.5409
  850Sol     OW 6533   0.781   0.056   7.189  0.9137 -0.1038  0.9884
  850Sol     HW 6534   0.864   0.078   7.146  0.3120 -2.2294 -1.3384
  850Sol     HW 6535   0.753  -0.026   7.148 -1.8244  0.0164  2.4859
  850Sol     MW 6536   0.786   0.050   7.181  0.4305  0.2651 -0.3057
  851Sol     OW 6537   0.814   2.024   3.303  0.0455  0.6726 -0.0182
  851Sol     HW 6538   0.735   2.023   3.249 -0.0110  1.0354  0.0608
  851Sol     HW 6539   0.885   2.006   3.242 -0.2089 -0.8250  0.0874
  851Sol     MW 6540   0.813   2.022   3.293  0.2010 -0.4201  0.5612
  852Sol     OW 6541   0.681   3.223   2.086  0.2076  0.4100  0.6336
  852Sol     HW 6542   0.723   3.288   2.142  0.0173  0.8120  0.3085
  852Sol     HW 6543   0.653   3.154   2.147 -1.7780  1.7760  1.3239
  852Sol     MW 6544   0.682   3.223   2.097  0.1601 -0.2738  0.0774
  853Sol     OW 6545   2.561   2.049   8.966 -0.1090  0.0567 -0.0807
  853Sol     HW 6546   2.617   2.079   9.038 -0.8708 -0.2198  0.6342
  853Sol     HW 6547   2.473   2.077   8.991 -0.3701 -0.0006 -0.9321
  853Sol     MW 6548   2.558   2.054   8.975  0.0274 -0.0689 -0.3161
  854Sol     OW 6549   2.715   0.747   2.439  0.3840  0.3056  0.4353
  854Sol     HW 6550   2.790   0.712   2.391 -0.3082 -0.7897  0.1531
  854Sol     HW 6551   2.657   0.780   2.371  0.7359  1.4306  0.6677
  854Sol     MW 6552   2.717   0.747   2.428  0.9483 -0.1433 -0.2734
  855Sol     OW 6553   0.747   1.455   7.521 -0.2446 -0.3809 -0.2056
  855Sol     HW 6554   0.803   1.512   7.469  0.4566 -0.5027  0.4057
  855Sol     HW 6555   0.682   1.421   7.459  1.0462 -1.1501 -1.1639
  855Sol     MW 6556   0.746   1.457   7.511 -0.2747  0.8394  0.1196
  856Sol     OW 6557   0.717   0.571   3.150 -0.3701 -0.8724  0.1411
  856Sol     HW 6558   0.763   0.487   3.148 -0.1977 -0.7684 -3.4199
  856Sol     HW 6559   0.629   0.551   3.117 -0.2218  0.3841 -1.0460
  856Sol     MW 6560   0.713   0.562   3.147 -0.1377 -0.3912  0.3420
  857Sol     OW 6561   3.152   2.082   6.277  0.7588 -0.2654  0.5082
  857Sol     HW 6562   3.077   2.140   6.268  1.1299 -0.0691 -1.6665
  857Sol     HW 6563   3.115   1.994   6.276  0.2854 -0.1286  2.8237
  857Sol     MW 6564   3.142   2.080   6.276 -0.4834 -0.2043  0.0643
  858Sol     OW 6565   0.695   2.499   9.049 -0.3366  0.6074 -0.2865
  858Sol     HW 6566   0.765   2.505   9.114 -0.9452 -1.5023  0.5806
  858Sol     HW 6567   0.624   2.552   9.085 -0.4606 -0.0813  0.4771
  858Sol     MW 6568   0.695   2.505   9.058 -0.2334 -0.2525  0.2197
  859Sol     OW 6569   3.135   0.993   1.892 -0.5939 -0.1568  0.4114
  859Sol     HW 6570   3.156   1.006   1.800 -2.6527 -2.8720 -0.5019
  859Sol     HW 6571   3.125   1.082   1.927 -0.0220  0.9037 -2.0074
  859Sol     MW 6572   3.136   1.002   1.887  0.2317 -0.5256 -0.7006
  860Sol     OW 6573   2.731   3.015   8.743 -0.7194  0.4064  0.1899
  860Sol     HW 6574   2.678   3.094   8.751 -1.8329 -0.1420 -1.5010
  860Sol     HW 6575   2.781   3.028   8.663 -1.0662 -0.6813 -0.2126
  860Sol     MW 6576   2.731   3.023   8.737  0.2397 -0.2747 -0.2573
  861Sol     OW 6577   3.261   0.313   4.588  0.3210 -0.0510  0.0976
  861Sol     HW 6578   3.203   0.249   4.629  0.3645  0.9231  1.7351
  861Sol     HW 6579   3.285   0.274   4.504  0.8824 -2.4743  1.3377
  861Sol     MW 6580   3.258   0.304   4.584 -0.1171 -0.1284  0.7932
  862Sol     OW 6581   1.582   1.688   4.487  0.0030  0.5377  0.0060
  862Sol     HW 6582   1.587   1.654   4.397 -1.2654 -2.3269  0.9724
  862Sol     HW 6583   1.488   1.699   4.503  0.2176  0.9051  1.0482
  862Sol     MW 6584   1.574   1.686   4.480  0.1048  0.3083  0.4128
  863Sol     OW 6585   1.173   1.975   5.606  0.0488 -0.4263  0.1039
  863Sol     HW 6586   1.247   2.036   5.606 -0.8456  0.6725  1.3217
  863Sol     HW 6587   1.179   1.931   5.521  0.6545  1.4202 -0.8247
  863Sol     MW 6588   1.180   1.976   5.598  0.1820 -0.1417 -0.0591
  864Sol     OW 6589   2.923   1.448   3.496 -0.2135  0.5620  0.2805
  864Sol     HW 6590   2.921   1.482   3.407  1.1013 -0.6306 -0.2182
  864Sol     HW 6591   3.013   1.460   3.525 -0.6672  1.0918  1.5241
  864Sol     MW 6592   2.931   1.452   3.491  0.3460  0.5272 -0.0661
  865Sol     OW 6593   1.910   1.693   5.582  0.2002  0.2701  0.2351
  865Sol     HW 6594   1.930   1.671   5.491 -0.3063 -2.0240  0.6645
  865Sol     HW 6595   1.972   1.641   5.634  0.2408  1.2846  1.2214
  865Sol     MW 6596   1.917   1.687   5.579 -0.2712 -0.0044 -0.7869
  866Sol     OW 6597   0.418   2.547   3.089 -0.5072 -0.1890 -0.3868
  866Sol     HW 6598   0.462   2.625   3.123 -0.7008 -0.0128 -0.5365
  866Sol     HW 6599   0.400   2.493   3.166 -0.5479  0.0047 -0.2619
  866Sol     MW 6600   0.420   2.549   3.099  0.2252 -0.2652  1.1291
  867Sol     OW 6601   0.578   0.048   5.957 -0.6316  0.4320  0.4055
  867Sol     HW 6602   0.484   0.043   5.941 -0.4171  1.0778 -1.1174
  867Sol     HW 6603   0.618   0.012   5.877  0.4192  0.9493  0.6906
  867Sol     MW 6604   0.573   0.044   5.948 -0.5802  0.0311  0.5436
  868Sol     OW 6605   1.712   1.857   6.175  0.5263  0.1438 -0.3328
  868Sol     HW 6606   1.697   1.818   6.088 -1.0297 -1.3659  0.5831
  868Sol     HW 6607   1.750   1.786   6.226 -3.0736 -0.5058  1.5931
  868Sol     MW 6608   1.714   1.847   6.172  0.1157 -0.2699 -0.2542
  869Sol     OW 6609   3.133   2.331   4.619  0.4552  0.1515 -0.0103
  869Sol     HW 6610   3.191   2.322   4.543  0.3087 -1.2851  0.0322
  869Sol     HW 6611   3.148   2.251   4.670 -1.2940 -0.0815  0.1795
  869Sol     MW 6612   3.139   2.323   4.617  0.1568  0.0952 -0.5270
  870Sol     OW 6613   0.165   2.534   5.792  0.0388  0.7680 -0.1994
  870Sol     HW 6614   0.192   2.517   5.701  2.2999  0.3070  0.5018
  870Sol     HW 6615   0.108   2.610   5.787 -0.5821  0.2020 -2.1109
  870Sol     MW 6616   0.163   2.539   5.783 -0.2105 -0.2338  0.0208
  871Sol     OW 6617   1.276   1.751   3.897  0.1561 -0.1843 -0.2011
  871Sol     HW 6618   1.192   1.795   3.899  0.2177 -0.0928  0.4156
  871Sol     HW 6619   1.338   1.818   3.870  0.1226 -0.0960 -0.0608
  871Sol     MW 6620   1.274   1.761   3.895  0.0098 -0.4349  0.0632
  872Sol     OW 6621   0.901   0.865   5.459  0.6120  0.4024  0.0945
  872Sol     HW 6622   0.838   0.875   5.531  1.7774 -1.5681  1.4094
  872Sol     HW 6623   0.862   0.798   5.403  0.7673  0.3380  0.0642
  872Sol     MW 6624   0.892   0.860   5.461 -0.1418  0.4840 -0.3011
  873Sol     OW 6625   0.436   1.742   2.738 -0.2526  0.1428 -0.1720
  873Sol     HW 6626   0.437   1.649   2.759  1.4642  0.1356 -0.1497
  873Sol     HW 6627   0.494   1.750   2.662 -0.4039  1.1856 -0.1973
  873Sol     MW 6628   0.442   1.735   2.733 -0.5817  0.0048  0.1570
  874Sol     OW 6629   2.023   0.619   8.906 -0.3100  0.7968  0.0869
  874Sol     HW 6630   2.000   0.711   8.915 -1.1167  0.3712  2.8429
  874Sol     HW 6631   2.103   0.609   8.958 -0.2116 -0.0456 -0.2164
  874Sol     MW 6632   2.028   0.626   8.912 -0.2161  0.3613  0.0120
  875Sol     OW 6633   2.680   0.261   7.880  0.2067 -0.4094  0.1695
  875Sol     HW 6634   2.624   0.237   7.954 -1.9293 -0.4365 -1.3775
  875Sol     HW 6635   2.631   0.329   7.834  2.4901  1.1427 -0.0398
  875Sol     MW 6636   2.670   0.265   7.882  0.2163  0.2048  0.1440
  876Sol     OW 6637   1.402   0.834   8.755  0.2912 -0.2774  0.4101
  876Sol     HW 6638   1.401   0.827   8.659 -0.9765 -1.3760  0.4864
  876Sol     HW 6639   1.495   0.839   8.777  0.5695  1.0148 -0.9378
  876Sol     MW 6640   1.410   0.834   8.748 -0.2063 -0.4299 -0.1185
  877Sol     OW 6641   1.112   0.613   2.410  0.0962 -0.6168  0.3901
  877Sol     HW 6642   1.060   0.617   2.329 -0.5010  0.1940  0.8138
  877Sol     HW 6643   1.123   0.519   2.426  0.1645 -0.7844 -0.6014
  877Sol     MW 6644   1.108   0.605   2.404 -0.7622 -0.2528  0.6429
  878Sol     OW 6645   0.032   0.337   3.102  0.4780  0.1461 -0.1692
  878Sol     HW 6646   0.115   0.382   3.085  0.2853  1.7737  2.8756
  878Sol     HW 6647  -0.035   0.394   3.065  0.5933 -0.6161 -1.6110
  878Sol     MW 6648   0.034   0.346   3.097 -0.1030  1.2917  0.0384
  879Sol     OW 6649   1.304   0.118   5.941  0.2667  0.2836  0.2723
  879Sol     HW 6650   1.265   0.196   5.980 -0.4776  0.2606 -0.4202
  879Sol     HW 6651   1.234   0.079   5.888  0.7058 -0.7186  0.4124
  879Sol     MW 6652   1.295   0.121   5.940 -0.4920  0.7543 -0.0770
  880Sol     OW 6653   1.402   0.807   1.583 -0.7493  0.2936  0.6654
  880Sol     HW 6654   1.420   0.724   1.627  0.3051  0.7131  1.0283
  880Sol     HW 6655   1.307   0.811   1.577 -0.9131  0.3239  3.0587
  880Sol     MW 6656   1.395   0.800   1.586  0.4276  0.0425 -0.0124
  881Sol     OW 6657   1.816   3.046   9.264  0.5153 -0.4829  0.3162
  881Sol     HW 6658   1.851   2.983   9.327 -0.6147  0.1632  1.6273
  881Sol     HW 6659   1.726   3.016   9.247  0.5664 -0.2293 -0.4192
  881Sol     MW 6660   1.811   3.038   9.268 -0.3400 -0.5256 -0.4126
  882Sol     OW 6661   1.016   0.003   6.030  0.2306  0.1840 -0.1167
  882Sol     HW 6662   0.940   0.061   6.030  0.5221  0.5823  0.9876
  882Sol     HW 6663   1.046   0.001   5.939 -0.7119  0.5343 -0.4357
  882Sol     MW 6664   1.012   0.008   6.022 -0.1794 -0.0762 -0.0016
  883Sol     OW 6665   0.614   2.061   3.155  0.4509  0.3986  0.3675
  883Sol     HW 6666   0.591   2.148   3.122  0.2853 -0.5441 -2.0893
  883Sol     HW 6667   0.610   2.004   3.078  0.1310 -1.8819  2.0252
  883Sol     MW 6668   0.612   2.064   3.145  0.1017 -0.0824 -0.1819
  884Sol     OW 6669   2.241   2.156   8.661 -0.6876  0.1121 -0.0876
  884Sol     HW 6670   2.153   2.169   8.624 -0.5129  0.0926 -0.5164
  884Sol     HW 6671   2.250   2.061   8.667 -0.7199  0.1157  0.0105
  884Sol     MW 6672   2.234   2.149   8.658  0.2936 -0.7134 -0.0058
  885Sol     OW 6673   1.725   2.414   2.144 -0.5629  0.2866  0.7550
  885Sol     HW 6674   1.676   2.447   2.220 -1.7117 -0.0190  0.1622
  885Sol     HW 6675   1.675   2.338   2.115 -0.0297  0.2961 -0.1923
  885Sol     MW 6676   1.716   2.410   2.148 -0.1061 -0.2126  0.0733
  886Sol     OW 6677   2.541   0.539   6.765  0.3518 -0.0040  0.3795
  886Sol     HW 6678   2.503   0.544   6.677  1.7546 -0.6215 -0.2861
  886Sol     HW 6679   2.619   0.483   6.754  0.3321 -0.3949  2.0892
  886Sol     MW 6680   2.545   0.534   6.756 -0.2037 -0.7234  0.2822
  887Sol     OW 6681   0.568   2.180   4.911  0.1806 -0.2549 -0.0473
  887Sol     HW 6682   0.502   2.111   4.899  0.1179 -0.5486  1.7951
  887Sol     HW 6683   0.645   2.147   4.866 -0.4023 -0.7204 -0.7136
  887Sol     MW 6684   0.569   2.171   4.906  0.4532  0.0251 -0.2125
  888Sol     OW 6685   3.212   1.783   2.326 -0.2014  0.3052  0.1333
  888Sol     HW 6686   3.199   1.871   2.288  1.3267  0.4438 -0.0896
  888Sol     HW 6687   3.126   1.759   2.359 -1.2425  0.8209 -2.0974
  888Sol     MW 6688   3.203   1.789   2.326 -0.8922 -0.2384 -0.1847
  889Sol     OW 6689   0.414   0.461   7.790 -0.0571  0.1659  0.2503
  889Sol     HW 6690   0.372   0.469   7.875 -1.9121 -0.3184 -0.5807
  889Sol     HW 6691   0.426   0.367   7.777 -0.3574  0.1920 -0.2697
  889Sol     MW 6692   0.411   0.453   7.796  0.2558 -0.3851 -0.9847
  890Sol     OW 6693   2.076   0.480   6.032 -0.0560 -0.0645 -0.4349
  890Sol     HW 6694   2.087   0.541   6.105 -0.5747 -0.6853  0.1791
  890Sol     HW 6695   2.052   0.397   6.074  2.0722 -1.0844 -1.1628
  890Sol     MW 6696   2.074   0.478   6.043  0.1603  0.2656  0.3760
  891Sol     OW 6697   2.495   1.153   2.228  0.0472 -0.5827 -0.2291
  891Sol     HW 6698   2.515   1.195   2.144 -0.2124 -1.1769 -0.5882
  891Sol     HW 6699   2.509   1.223   2.292  2.3177 -0.7040 -0.5403
  891Sol     MW 6700   2.498   1.163   2.226 -0.4625 -0.1458 -0.4751
  892Sol     OW 6701   2.696   0.085   7.422  0.1916 -0.3432  0.0225
  892Sol     HW 6702   2.639   0.121   7.355  0.3117  0.4425  0.3394
  892Sol     HW 6703   2.705   0.154   7.487  0.1738 -1.0523  0.7965
  892Sol     MW 6704   2.692   0.094   7.422  0.2950 -0.4025 -0.3493
  893Sol     OW 6705   1.122   0.772   8.904 -0.4855  0.4609 -0.3855
  893Sol     HW 6706   1.187   0.815   8.849 -1.0250  0.9030 -0.6795
  893Sol     HW 6707   1.068   0.844   8.938 -2.0003 -0.0333 -1.6483
  893Sol     MW 6708   1.123   0.783   8.902  0.1221  0.1901 -0.2075
  894Sol     OW 6709   2.392   1.369   5.965  0.0857 -0.3947  0.3583
  894Sol     HW 6710   2.446   1.377   5.886  1.5692 -1.0456  1.3069
  894Sol     HW 6711   2.454   1.356   6.036 -1.2350  0.3364  1.6805
  894Sol     MW 6712   2.402   1.369   5.964  0.4533 -0.0016  0.5520
  895Sol     OW 6713   2.766   1.190   4.446  0.0079  0.3902  0.2232
  895Sol     HW 6714   2.737   1.238   4.524  0.7500 -0.1661  0.8505
  895Sol     HW 6715   2.823   1.121   4.480 -2.2997 -1.9438 -0.5301
  895Sol     MW 6716   2.769   1.188   4.456 -0.6902  0.0961 -0.2141
  896Sol     OW 6717   2.622   0.360   9.174  0.4216  0.0182 -0.1186
  896Sol     HW 6718   2.636   0.355   9.269  0.0839 -0.1867 -0.0779
  896Sol     HW 6719   2.540   0.313   9.160  0.3766  0.2112 -0.4909
  896Sol     MW 6720   2.616   0.355   9.182 -0.0157  0.0443  0.0261
  897Sol     OW 6721   2.251   2.231   2.350 -0.2407 -0.8956 -0.1157
  897Sol     HW 6722   2.344   2.223   2.374 -0.7756 -1.2229  1.8820
  897Sol     HW 6723   2.204   2.186   2.420 -2.0993  1.6054  0.2797
  897Sol     MW 6724   2.256   2.226   2.358 -0.7569  0.0762 -0.5266
  898Sol     OW 6725   2.829   2.489   2.196 -0.0771 -0.2451 -0.6008
  898Sol     HW 6726   2.904   2.546   2.212 -0.3454  0.7675 -2.7502
  898Sol     HW 6727   2.780   2.491   2.278  0.9496  1.0703  0.0054
  898Sol     MW 6728   2.831   2.494   2.204  0.2808  0.1452 -0.3406
  899Sol     OW 6729   1.805   2.154   4.029  0.4442  0.4749 -0.3481
  899Sol     HW 6730   1.834   2.127   3.942  0.7607 -0.6990  0.1099
  899Sol     HW 6731   1.830   2.246   4.035  0.7906  0.4552 -1.3357
  899Sol     MW 6732   1.810   2.160   4.022 -0.1306 -0.2802 -0.3831
  900Sol     OW 6733   1.785   1.863   3.687 -0.0496  0.0345 -0.3021
  900Sol     HW 6734   1.752   1.827   3.769 -0.1518  2.4962  0.7975
  900Sol     HW 6735   1.713   1.851   3.625 -1.5770  1.8195  1.0601
  900Sol     MW 6736   1.776   1.859   3.689 -0.1636  0.3421 -0.1052
  901Sol     OW 6737   2.645   0.252   8.323 -0.1997  0.4099 -0.4144
  901Sol     HW 6738   2.666   0.186   8.389  0.2167 -0.8581 -1.7895
  901Sol     HW 6739   2.553   0.273   8.338 -0.3964 -0.6488 -0.0989
  901Sol     MW 6740   2.639   0.248   8.330 -0.5329  1.1812 -0.2309
  902Sol     OW 6741   0.199   1.695   9.739 -0.5847 -0.0649  0.4002
  902Sol     HW 6742   0.107   1.680   9.762 -1.2600  1.3620 -1.2463
  902Sol     HW 6743   0.224   1.771   9.791 -0.9919  0.8639 -0.7482
  902Sol     MW 6744   0.193   1.700   9.746  0.0822  0.0983  0.4988
  903Sol     OW 6745   0.472   0.935   3.435  0.4350  0.5253  0.1552
  903Sol     HW 6746   0.439   0.915   3.348 -1.0532 -1.0321  1.0523
  903Sol     HW 6747   0.549   0.878   3.445 -1.5921 -2.1540  1.2530
  903Sol     MW 6748   0.476   0.928   3.428  0.4735 -0.6320 -0.0270
  904Sol     OW 6749   3.247   0.183   9.602 -0.5525 -0.0306  0.3227
  904Sol     HW 6750   3.234   0.263   9.552  1.3847  0.3782  0.4089
  904Sol     HW 6751   3.220   0.205   9.691 -0.1701  0.4838  0.3127
  904Sol     MW 6752   3.244   0.192   9.605 -0.0183 -0.0916 -0.2410
  905Sol     OW 6753   2.379   2.025   3.902  0.1580  0.1645  0.4020
  905Sol     HW 6754   2.446   2.084   3.936 -1.0332  1.8553 -0.1660
  905Sol     HW 6755   2.398   2.017   3.809 -1.1141  1.5714  0.0134
  905Sol     MW 6756   2.387   2.029   3.897  0.2636 -0.3828 -0.3993
  906Sol     OW 6757   2.391   2.547   4.607  0.2871  0.2020 -0.5555
  906Sol     HW 6758   2.452   2.518   4.676  0.2891 -0.8544 -0.9887
  906Sol     HW 6759   2.332   2.608   4.652 -0.0908 -0.9338  0.5426
  906Sol     MW 6760   2.391   2.550   4.618  0.3280 -0.4042  0.6889
  907Sol     OW 6761   2.064   0.905   4.073  0.4498  0.3736 -0.2480
  907Sol     HW 6762   2.067   0.957   3.992  1.7619  1.6178  0.5634
  907Sol     HW 6763   1.980   0.928   4.113 -0.2097 -0.2608 -1.2567
  907Sol     MW 6764   2.057   0.912   4.070  0.0647  0.9263 -0.0739
  908Sol     OW 6765   3.039   1.583   7.951 -0.2390 -0.5715  0.4314
  908Sol     HW 6766   3.046   1.574   8.046 -0.0001 -1.9195  0.2920
  908Sol     HW 6767   3.123   1.618   7.924 -0.0985 -0.7348  0.6513
  908Sol     MW 6768   3.047   1.585   7.957 -0.1750  0.0793 -0.6822
  909Sol     OW 6769   3.262   0.455   8.154 -0.4138  0.0415 -0.3141
  909Sol     HW 6770   3.244   0.547   8.173  0.7185  0.4875 -1.3292
  909Sol     HW 6771   3.336   0.433   8.211 -0.0788  0.0315 -0.7494
  909Sol     MW 6772   3.267   0.461   8.161 -0.6508 -0.5402  0.5510
  910Sol     OW 6773   0.408   3.030   6.758  0.1777  0.0450 -0.0817
  910Sol     HW 6774   0.391   3.119   6.729  2.8396  0.6590  0.1183
  910Sol     HW 6775   0.433   2.983   6.678 -0.4411 -0.3484 -0.0535
  910Sol     MW 6776   0.409   3.033   6.748  0.0639  0.5943  0.6117
  911Sol     OW 6777   0.106   2.517   4.398 -0.0811  0.5312 -0.1668
  911Sol     HW 6778   0.136   2.454   4.332  0.6867  0.6961  0.0206
  911Sol     HW 6779   0.104   2.468   4.480 -1.8930  0.0852 -0.4540
  911Sol     MW 6780   0.108   2.507   4.399 -0.1161 -0.4000  0.3840
  912Sol     OW 6781   3.081   0.124   4.306  0.1555  0.5384  0.5410
  912Sol     HW 6782   3.056   0.195   4.247 -0.7168  0.2044  0.5056
  912Sol     HW 6783   2.999   0.093   4.343  0.3461 -1.5141 -0.6651
  912Sol     MW 6784   3.071   0.128   4.304 -0.8563 -0.1525 -0.3093
  913Sol     OW 6785   2.049   0.965   1.773  0.0446 -0.2550  0.1683
  913Sol     HW 6786   2.060   0.874   1.803  1.4466 -0.1466  0.0261
  913Sol     HW 6787   1.962   0.966   1.733  0.3263 -1.7533 -0.5511
  913Sol     MW 6788   2.042   0.957   1.772 -0.1846  0.5499 -0.2234
  914Sol     OW 6789   2.074   2.228   5.409  0.0232  0.3955 -0.4202
  914Sol     HW 6790   2.158   2.271   5.398 -0.9026  2.6102  0.8559
  914Sol     HW 6791   2.096   2.140   5.441  1.8928  0.2829 -1.9342
  914Sol     MW 6792   2.083   2.224   5.411  0.3634 -0.1471  0.6580
  915Sol     OW 6793   2.550   1.808   2.480  0.0310  0.2387 -0.4997
  915Sol     HW 6794   2.587   1.878   2.425 -1.1589  1.3464  0.0840
  915Sol     HW 6795   2.523   1.852   2.560 -0.3233 -0.9801  0.0616
  915Sol     MW 6796   2.551   1.818   2.482 -0.4049 -0.5869 -0.5929
  916Sol     OW 6797   1.943   0.888   5.052 -0.0072 -0.3028 -0.2758
  916Sol     HW 6798   1.905   0.801   5.059 -1.3074  0.3259  0.9831
  916Sol     HW 6799   1.879   0.938   5.000 -0.6474  0.6150  1.3562
  916Sol     MW 6800   1.934   0.885   5.048 -0.3964  0.4658  0.4131
  917Sol     OW 6801   2.362   0.496   3.147 -0.0838 -0.4153 -0.0792
  917Sol     HW 6802   2.318   0.561   3.201  0.0105 -0.6348  0.2646
  917Sol     HW 6803   2.322   0.413   3.171 -1.2197 -0.3188 -1.5635
  917Sol     MW 6804   2.355   0.494   3.154  0.2377 -0.4663 -0.5948
  918Sol     OW 6805   0.707   0.476   7.032  0.4188 -0.1691 -0.9124
  918Sol     HW 6806   0.656   0.534   6.976  2.6795 -0.4676 -3.3913
  918Sol     HW 6807   0.657   0.394   7.034 -0.2002  0.1894 -1.6643
  918Sol     MW 6808   0.698   0.474   7.027  0.4384 -0.0589 -0.0443
  919Sol     OW 6809   1.106   3.094   4.774  0.3233  0.0647  0.3645
  919Sol     HW 6810   1.147   3.017   4.811  0.9915 -0.0819 -0.6632
  919Sol     HW 6811   1.016   3.092   4.807  0.1262 -1.5548 -0.2410
  919Sol     MW 6812   1.101   3.087   4.780  0.2887 -0.3189 -0.2988
  920Sol     OW 6813   0.188   2.116   4.598 -0.5478  0.0812 -0.0300
  920Sol     HW 6814   0.254   2.075   4.654 -0.1120 -0.8051 -1.1845
  920Sol     HW 6815   0.201   2.210   4.610  2.0751 -0.0547 -1.5381
  920Sol     MW 6816   0.195   2.121   4.604  0.5102  0.7874 -0.5840
  921Sol     OW 6817   0.053   1.080   9.301 -0.6674  0.0288  0.3373
  921Sol     HW 6818   0.055   1.133   9.221 -0.1169  1.1084  1.0475
  921Sol     HW 6819   0.144   1.054   9.314 -1.0041 -1.5166 -0.2601
  921Sol     MW 6820   0.061   1.082   9.295 -0.4483  0.4042 -0.0076
  922Sol     OW 6821   3.109   2.916   1.919 -0.5528  0.3878  0.1225
  922Sol     HW 6822   3.031   2.963   1.891 -0.3630 -0.0074 -1.0678
  922Sol     HW 6823   3.146   2.970   1.989 -1.5815  0.8541  0.3092
  922Sol     MW 6824   3.105   2.925   1.923 -0.0011  0.4679 -0.8510
  923Sol     OW 6825   2.426   0.289   4.399 -0.1574  0.2168 -0.1788
  923Sol     HW 6826   2.363   0.227   4.435 -1.6827  1.1430 -1.2118
  923Sol     HW 6827   2.374   0.351   4.349  1.7782 -0.3713 -3.0421
  923Sol     MW 6828   2.416   0.289   4.398 -0.6432  0.4332  0.1258
  924Sol     OW 6829   0.130   2.091   8.559  0.4331 -0.4252 -0.1478
  924Sol     HW 6830   0.094   2.032   8.493  0.6819 -1.1219  0.3358
  924Sol     HW 6831   0.113   2.048   8.642  1.5675 -0.3211  0.1479
  924Sol     MW 6832   0.125   2.082   8.561 -0.0370 -0.4775  0.1263
  925Sol     OW 6833   2.653   0.171   4.272 -0.5516  0.3102 -0.2563
  925Sol     HW 6834   2.691   0.259   4.270  0.5350 -0.0869  1.8963
  925Sol     HW 6835   2.574   0.181   4.325 -0.3968 -0.0302  0.0335
  925Sol     MW 6836   2.649   0.180   4.276  0.1754 -0.0520 -0.0296
  926Sol     OW 6837   1.379   0.028   7.018 -0.4011 -0.1336 -0.1721
  926Sol     HW 6838   1.427  -0.054   7.012  0.3748  0.3408 -0.6844
  926Sol     HW 6839   1.298   0.012   6.971 -0.0472 -0.4649 -0.6783
  926Sol     MW 6840   1.376   0.020   7.013  0.1445  0.7625  0.4736
  927Sol     OW 6841   2.207   2.210   6.315 -0.1370  0.0294 -0.0450
  927Sol     HW 6842   2.289   2.218   6.362 -0.7561 -1.5265  1.3158
  927Sol     HW 6843   2.221   2.140   6.251 -0.2329  0.1470 -0.1984
  927Sol     MW 6844   2.215   2.205   6.313  0.2918 -0.3807  0.0703
  928Sol     OW 6845   2.093   0.999   3.801  0.3968  0.6024  0.8748
  928Sol     HW 6846   2.102   1.094   3.805  0.8347  0.6087  0.0039
  928Sol     HW 6847   2.182   0.968   3.782 -0.1407  0.1818 -1.1283
  928Sol     MW 6848   2.102   1.005   3.799 -0.5837  0.2710  0.1599
  929Sol     OW 6849   2.084   2.876   7.786  0.3312  0.4830 -0.2516
  929Sol     HW 6850   2.045   2.841   7.866 -0.6364  1.5144 -0.2611
  929Sol     HW 6851   2.098   2.799   7.731 -0.1786 -0.0882  0.4027
  929Sol     MW 6852   2.081   2.866   7.789 -0.0794 -0.3441  0.5040
  930Sol     OW 6853   2.177   3.329   4.036  0.0323  0.4216  0.6470
  930Sol     HW 6854   2.219   3.289   4.112 -0.6870  1.6451  1.7026
  930Sol     HW 6855   2.083   3.322   4.054 -0.2633 -1.5918 -1.3302
  930Sol     MW 6856   2.172   3.325   4.044  0.1540  0.6644 -0.1392
  931Sol     OW 6857   2.248   2.980   1.615 -0.6354 -0.1939 -0.1639
  931Sol     HW 6858   2.256   2.885   1.611 -0.2814 -0.2918  2.1243
  931Sol     HW 6859   2.329   3.014   1.578  1.0277 -0.8626  2.7605
  931Sol     MW 6860   2.256   2.975   1.611 -0.2979  0.6701  0.3134
  932Sol     OW 6861   1.436   2.909   9.507 -0.2675 -0.1766 -0.4267
  932Sol     HW 6862   1.342   2.889   9.511 -0.3367  0.2346  0.2416
  932Sol     HW 6863   1.444   2.969   9.433 -0.5989  0.0934 -0.2494
  932Sol     MW 6864   1.428   2.913   9.501 -0.1857 -0.1208  0.2088
  933Sol     OW 6865   2.198   1.259   6.499 -0.3515  0.1089 -0.1544
  933Sol     HW 6866   2.105   1.282   6.500 -0.2472  0.5793 -0.7171
  933Sol     HW 6867   2.242   1.334   6.540 -0.0779  0.5995 -1.3191
  933Sol     MW 6868   2.194   1.268   6.502  0.4224  0.2224 -0.5196
  934Sol     OW 6869   2.785   2.587   5.761 -0.0587  0.4111  0.4281
  934Sol     HW 6870   2.716   2.614   5.700  1.1668 -0.5075 -1.4348
  934Sol     HW 6871   2.741   2.578   5.845 -2.2798 -0.4798 -0.7868
  934Sol     MW 6872   2.775   2.589   5.763  0.0299  0.0841  0.2777
  935Sol     OW 6873   0.722   1.599   6.518 -0.2584  0.0877 -0.4006
  935Sol     HW 6874   0.653   1.533   6.521  0.5525 -0.7483 -0.0711
  935Sol     HW 6875   0.779   1.579   6.592  1.7958 -0.8421 -2.1950
  935Sol     MW 6876   0.721   1.592   6.525  0.4581  0.5357 -0.8445
  936Sol     OW 6877   2.498   0.545   6.476 -0.2051  0.1985  0.4289
  936Sol     HW 6878   2.592   0.553   6.458 -0.4004 -0.3665 -0.8985
  936Sol     HW 6879   2.470   0.634   6.495  0.5002  0.4542  0.2869
  936Sol     MW 6880   2.504   0.554   6.476  0.4581  0.1075 -0.1886
  937Sol     OW 6881   2.933   3.110   6.185 -0.0543  0.4093  0.2676
  937Sol     HW 6882   2.898   3.173   6.247 -1.8969  0.7547 -1.0794
  937Sol     HW 6883   2.900   3.140   6.100  0.6433 -1.2717 -0.6116
  937Sol     MW 6884   2.927   3.119   6.183  0.0162 -0.3841 -0.2342
  938Sol     OW 6885   1.239   3.138   5.097 -0.3312  0.0749 -0.4371
  938Sol     HW 6886   1.267   3.047   5.109 -1.4703 -0.6233 -2.7673
  938Sol     HW 6887   1.158   3.144   5.148 -1.4634 -0.8918 -2.0671
  938Sol     MW 6888   1.234   3.130   5.103  0.1119  0.2972 -0.3665
  939Sol     OW 6889   1.759   3.433   5.558 -0.3319  0.5232 -0.6304
  939Sol     HW 6890   1.701   3.459   5.486 -0.1078  3.4549  0.1873
  939Sol     HW 6891   1.823   3.504   5.564  0.8400 -0.6487  1.1820
  939Sol     MW 6892   1.759   3.442   5.552 -0.5293 -0.4956  0.3803
  940Sol     OW 6893   0.471   0.766   6.132  0.4688 -0.7831 -0.2739
  940Sol     HW 6894   0.470   0.859   6.108  1.5019 -0.5201  0.6357
  940Sol     HW 6895   0.386   0.732   6.102  1.3139 -0.2924 -3.4449
  940Sol     MW 6896   0.463   0.771   6.127 -0.2043 -0.2617  0.2513
  941Sol     OW 6897   1.017   3.327   8.824 -0.1646  0.1484 -0.3646
  941Sol     HW 6898   1.078   3.401   8.824 -3.1817  2.7627 -1.1879
  941Sol     HW 6899   0.984   3.324   8.914  0.9643 -1.1056  0.0190
  941Sol     MW 6900   1.020   3.334   8.832 -0.2625  0.6659  0.3766
  942Sol     OW 6901   2.062   2.972   9.009  0.1784  0.2512 -0.3059
  942Sol     HW 6902   1.970   2.981   8.985 -0.2849 -0.0981  1.2540
  942Sol     HW 6903   2.087   2.885   8.977 -0.7641 -0.7041  1.4345
  942Sol     MW 6904   2.056   2.965   9.004 -0.2731  0.0020  0.0114
  943Sol     OW 6905   2.297   1.635   2.739 -0.1992  0.6379  0.4590
  943Sol     HW 6906   2.274   1.543   2.750 -0.4073  0.4987 -1.0404
  943Sol     HW 6907   2.390   1.634   2.717  0.0633  0.8701  1.5188
  943Sol     MW 6908   2.304   1.627   2.738 -0.9488 -0.0222 -0.0957
  944Sol     OW 6909   3.231   2.968   4.175 -0.4950  0.5026  0.2217
  944Sol     HW 6910   3.233   2.981   4.080  2.3009  0.5510  0.2444
  944Sol     HW 6911   3.280   2.887   4.189 -1.4574  0.1463  1.5885
  944Sol     MW 6912   3.236   2.962   4.168 -0.1463 -0.2230 -0.2232
  945Sol     OW 6913   1.648   1.895   3.166 -0.7394 -0.4088  0.1340
  945Sol     HW 6914   1.654   1.887   3.071  0.3199  0.0228  0.1572
  945Sol     HW 6915   1.565   1.940   3.181 -1.4072 -1.3872 -0.5292
  945Sol     MW 6916   1.641   1.898   3.159  0.2673 -0.1551 -0.6966
  946Sol     OW 6917   2.752   0.576   4.045  0.1115  0.6756 -0.5053
  946Sol     HW 6918   2.658   0.571   4.026  0.0257  1.7869 -0.3702
  946Sol     HW 6919   2.759   0.640   4.115  0.9689  0.5192 -0.4509
  946Sol     MW 6920   2.744   0.581   4.049  0.4368 -0.0922  0.1883
  947Sol     OW 6921   3.220   2.498   3.309 -0.4824 -0.2746  0.4405
  947Sol     HW 6922   3.301   2.532   3.345  0.3101  0.1734 -1.7012
  947Sol     HW 6923   3.159   2.572   3.309  0.0948  0.2113 -0.8220
  947Sol     MW 6924   3.221   2.507   3.312 -0.3854 -0.1316 -0.4545
  948Sol     OW 6925   0.537   2.805   2.759  0.9006 -0.8394 -0.6586
  948Sol     HW 6926   0.595   2.732   2.736 -0.7881 -2.3056 -0.3700
  948Sol     HW 6927   0.494   2.778   2.840 -3.0516 -1.5391 -2.8681
  948Sol     MW 6928   0.539   2.796   2.764  0.1153 -0.7512 -0.1348
  949Sol     OW 6929   0.847   0.665   7.209 -0.3399 -0.2734 -0.3420
  949Sol     HW 6930   0.786   0.626   7.146  0.3969 -0.1858 -1.1131
  949Sol     HW 6931   0.925   0.685   7.158  0.0209  0.4094  0.4615
  949Sol     MW 6932   0.848   0.664   7.199 -0.1052  0.4130 -0.0311
  950Sol     OW 6933   2.616   1.811   6.233  0.4864 -0.2645 -0.6432
  950Sol     HW 6934   2.576   1.731   6.198  1.8101 -1.3993  0.3620
  950Sol     HW 6935   2.582   1.817   6.322 -0.3400  0.8239 -1.0234
  950Sol     MW 6936   2.609   1.804   6.238 -0.4017  0.2932 -0.1299
  951Sol     OW 6937   1.837   2.415   6.016  0.1865  0.2853 -0.0971
  951Sol     HW 6938   1.789   2.469   5.953  0.2537  1.5411  0.9048
  951Sol     HW 6939   1.909   2.471   6.045  0.4301 -0.4572  0.7358
  951Sol     MW 6940   1.839   2.425   6.013  0.1166  0.1495 -0.1858
  952Sol     OW 6941   0.710   3.453   2.942  0.0824 -0.3736  0.0131
  952Sol     HW 6942   0.771   3.414   2.880 -1.1738 -2.7024  0.1779
  952Sol     HW 6943   0.759   3.458   3.024  0.1299 -2.1585  0.1235
  952Sol     MW 6944   0.720   3.450   2.944  0.0834  0.2403  0.0812
  953Sol     OW 6945   0.668   2.897   1.651 -0.0061  0.2239 -0.4218
  953Sol     HW 6946   0.722   2.832   1.607 -1.3462 -1.6953  0.6976
  953Sol     HW 6947   0.579   2.879   1.621 -0.4364  1.3271  0.1660
  953Sol     MW 6948   0.665   2.890   1.645 -0.4168  0.4589 -0.3320
  954Sol     OW 6949   0.059   0.395   4.968  0.0104 -0.0785 -0.1856
  954Sol     HW 6950   0.001   0.319   4.969 -0.5091  0.3185  0.7301
  954Sol     HW 6951   0.029   0.446   4.892 -2.7053  1.5101  1.8612
  954Sol     MW 6952   0.051   0.393   4.961  0.4935  0.7128 -0.1704
  955Sol     OW 6953   1.333   2.196   6.967  0.2519 -0.5812  0.3473
  955Sol     HW 6954   1.317   2.246   6.887 -1.0081 -0.2501  0.7910
  955Sol     HW 6955   1.396   2.248   7.016  1.4587 -1.0575 -0.6649
  955Sol     MW 6956   1.337   2.205   6.964  0.3486  0.4672 -0.0128
  956Sol     OW 6957   1.550   0.828   5.494  0.3236  0.5330 -0.0278
  956Sol     HW 6958   1.565   0.847   5.587  0.3214 -1.6586  0.4364
  956Sol     HW 6959   1.638   0.816   5.458  0.2552 -0.0316 -0.0029
  956Sol     MW 6960   1.560   0.829   5.499 -0.8571 -0.3785  0.2610
  957Sol     OW 6961   0.771   1.026   4.680 -0.3457  0.5860  0.2598
  957Sol     HW 6962   0.778   0.931   4.681 -0.0588  0.6057  1.7017
  957Sol     HW 6963   0.861   1.058   4.673 -0.5702  0.7607 -2.2133
  957Sol     MW 6964   0.779   1.020   4.680  0.0480  0.0205 -0.1097
  958Sol     OW 6965   3.139   1.187   8.438 -0.0847  0.7952 -0.3276
  958Sol     HW 6966   3.196   1.260   8.461  2.3811 -0.7420 -1.2843
  958Sol     HW 6967   3.171   1.114   8.490 -1.9621  0.1595 -0.0149
  958Sol     MW 6968   3.147   1.187   8.445 -0.0605  0.0168 -0.1247
  959Sol     OW 6969   1.291   0.951   5.089  0.1247 -0.1700  0.0194
  959Sol     HW 6970   1.307   0.962   5.183  1.3510  2.2234 -0.4304
  959Sol     HW 6971   1.374   0.976   5.048 -0.4638 -1.0066 -1.7347
  959Sol     MW 6972   1.300   0.954   5.094  0.6830 -0.3336  0.1945
  960Sol     OW 6973   2.422   0.770   3.358 -0.5104 -0.4023 -0.1540
  960Sol     HW 6974   2.423   0.829   3.433  0.7683  0.5349 -0.8967
  960Sol     HW 6975   2.448   0.824   3.284  0.5262 -1.8555 -0.8802
  960Sol     MW 6976   2.424   0.780   3.358 -0.1425  0.5386 -0.2130
  961Sol     OW 6977   0.967   2.140   9.502 -0.2197 -0.3091  0.2108
  961Sol     HW 6978   1.007   2.208   9.556 -0.4943  0.3156 -0.3614
  961Sol     HW 6979   0.876   2.134   9.533 -0.1134 -0.6242  0.4615
  961Sol     MW 6980   0.962   2.146   9.509  0.6632 -0.1508 -0.0447
  962Sol     OW 6981   1.079   0.443   5.265  0.1604  0.1401 -0.1366
  962Sol     HW 6982   1.128   0.509   5.216  0.0400 -0.4598 -1.0865
  962Sol     HW 6983   0.990   0.449   5.231 -0.2085  0.5433  0.8780
  962Sol     MW 6984   1.076   0.449   5.258  0.1702 -0.3863 -0.1897
  963Sol     OW 6985   2.694   3.281   8.787  0.2233  0.3202 -0.1984
  963Sol     HW 6986   2.777   3.295   8.834  0.6573  1.5430 -1.3047
  963Sol     HW 6987   2.628   3.323   8.842  0.8700  2.6399 -1.1398
  963Sol     MW 6988   2.696   3.286   8.796  0.8363  0.0979  0.5477
  964Sol     OW 6989   1.987   1.326   3.372  0.1385  0.9079 -0.1769
  964Sol     HW 6990   1.968   1.379   3.294  2.1671  2.4625  0.3407
  964Sol     HW 6991   1.981   1.388   3.445  0.8111  0.0300  0.6334
  964Sol     MW 6992   1.985   1.336   3.372  0.4229  0.1788  0.3935
  965Sol     OW 6993   0.833   3.181   5.436  0.4017 -0.2520  0.1444
  965Sol     HW 6994   0.878   3.199   5.518 -0.5847  1.0870  0.4073
  965Sol     HW 6995   0.789   3.097   5.449 -0.8553  0.5959  1.4677
  965Sol     MW 6996   0.833   3.175   5.444  0.0416 -0.3066  0.6301
  966Sol     OW 6997   1.516   2.416   7.720 -0.4397  0.0094 -0.2240
  966Sol     HW 6998   1.470   2.462   7.650 -1.5959 -2.1062 -0.9096
  966Sol     HW 6999   1.448   2.372   7.769  0.5659 -0.3080  0.9163
  966Sol     MW 7000   1.506   2.416   7.718  0.3608  0.3707 -0.7880
  967Sol     OW 7001   0.372   1.438   4.265 -0.2250 -0.2432 -0.2794
  967Sol     HW 7002   0.378   1.361   4.209 -1.2534 -0.2074 -0.4576
  967Sol     HW 7003   0.306   1.415   4.331 -0.1680  0.2909 -0.0274
  967Sol     MW 7004   0.366   1.429   4.266  0.3352 -0.0697 -0.3367
  968Sol     OW 7005   2.575   2.404   8.133 -0.0859  0.2877  0.4878
  968Sol     HW 7006   2.615   2.442   8.054  0.5855 -1.2934  0.0362
  968Sol     HW 7007   2.501   2.353   8.100 -0.5968  0.6858  1.0156
  968Sol     MW 7008   2.572   2.403   8.123 -0.3132  0.6541 -0.0186
  969Sol     OW 7009   0.424   2.698   4.913  0.4100  0.0617  0.0904
  969Sol     HW 7010   0.486   2.770   4.913  1.3952 -0.7712  0.5807
  969Sol     HW 7011   0.478   2.620   4.901 -0.6749 -0.5696 -0.7993
  969Sol     MW 7012   0.434   2.697   4.912  0.0687 -0.3070  0.7307
  970Sol     OW 7013   3.010   2.127   7.892 -0.1334 -0.5479 -0.3884
  970Sol     HW 7014   2.984   2.055   7.834  0.7980 -1.1407 -0.0793
  970Sol     HW 7015   2.989   2.206   7.843 -1.2121 -1.0255 -0.7180
  970Sol     MW 7016   3.006   2.127   7.883  0.1093 -0.4218  0.0939
  971Sol     OW 7017   2.957   0.278   9.113  0.1101  0.3833  0.4500
  971Sol     HW 7018   2.913   0.206   9.068 -1.8824  1.8757 -0.0743
  971Sol     HW 7019   2.972   0.246   9.202  0.1986 -1.0440 -0.0733
  971Sol     MW 7020   2.954   0.269   9.117  0.4174 -0.5132  0.2648
  972Sol     OW 7021   3.142   0.650   3.233 -0.2323  0.2578  0.8413
  972Sol     HW 7022   3.198   0.726   3.215  0.9277 -0.6734  0.4401
  972Sol     HW 7023   3.053   0.684   3.228  0.2242  1.2520 -1.0417
  972Sol     MW 7024   3.139   0.660   3.231 -0.2266 -0.0521  0.4147
  973Sol     OW 7025   0.867   3.369   7.477  0.6313  0.1719 -0.0126
  973Sol     HW 7026   0.902   3.440   7.424  0.3189  0.9747  0.8509
  973Sol     HW 7027   0.804   3.325   7.420  1.2891  0.1887 -0.7632
  973Sol     MW 7028   0.865   3.371   7.467 -0.6458 -0.0205  0.3872
  974Sol     OW 7029   0.034   0.538   6.934  0.1520 -0.0482 -0.0410
  974Sol     HW 7030   0.072   0.530   7.021 -1.4961 -0.8309  0.6328
  974Sol     HW 7031  -0.006   0.625   6.933  1.4735  0.5582 -0.5564
  974Sol     MW 7032   0.034   0.545   6.942  0.0463 -0.2519  0.0093
  975Sol     OW 7033   0.421   1.498   2.851  0.3099 -0.0606 -0.4119
  975Sol     HW 7034   0.444   1.421   2.799  0.0449  0.8093 -1.8518
  975Sol     HW 7035   0.332   1.481   2.882  1.0532 -1.2902  1.1209
  975Sol     MW 7036   0.415   1.490   2.849 -0.7886  0.2520  0.3601
  976Sol     OW 7037   0.578   2.554   8.275  0.0174  0.0891  0.3066
  976Sol     HW 7038   0.547   2.603   8.351 -0.7784  1.5595 -0.9377
  976Sol     HW 7039   0.511   2.569   8.208  1.4791  0.0792 -1.1863
  976Sol     MW 7040   0.569   2.559   8.276  0.2809 -0.0128  0.2706
  977Sol     OW 7041   2.120   1.207   4.705  0.4138 -0.5712 -0.6381
  977Sol     HW 7042   2.130   1.125   4.754  0.4849 -1.4766 -2.1285
  977Sol     HW 7043   2.202   1.254   4.721 -0.2933 -0.0210  1.5667
  977Sol     MW 7044   2.128   1.204   4.711  0.2379  0.2234  0.0246
  978Sol     OW 7045   2.012   2.491   2.289 -0.1761  1.1510 -0.4361
  978Sol     HW 7046   2.098   2.524   2.314  0.4544 -0.1378 -0.8794
  978Sol     HW 7047   1.961   2.494   2.370  1.8532 -3.0167  1.1088
  978Sol     MW 7048   2.015   2.494   2.298 -0.4069 -0.6621  0.0919
  979Sol     OW 7049   3.060   1.447   8.208  0.2196 -0.3221 -0.2250
  979Sol     HW 7050   3.132   1.384   8.203  1.1440  0.8236 -1.8005
  979Sol     HW 7051   3.062   1.480   8.298  1.5943 -0.3781 -0.2326
  979Sol     MW 7052   3.067   1.444   8.216  0.3097 -0.6264 -0.3907
  980Sol     OW 7053   2.023   0.381   4.478 -0.6627 -0.2017  0.3289
  980Sol     HW 7054   2.049   0.471   4.459 -1.3755 -0.4761 -2.0440
  980Sol     HW 7055   2.098   0.328   4.451 -0.5749 -0.3930  0.9387
  980Sol     MW 7056   2.032   0.384   4.474  0.5573 -0.1485  0.4604
  981Sol     OW 7057   1.848   1.928   5.764 -0.3491 -0.6217 -0.4380
  981Sol     HW 7058   1.866   1.858   5.701  1.2482 -0.0122 -0.6921
  981Sol     HW 7059   1.904   1.908   5.839 -1.9058 -1.0888  0.6211
  981Sol     MW 7060   1.855   1.920   5.765  0.1170  0.0026  0.6741
  982Sol     OW 7061   2.150   0.048   2.689 -0.3082 -0.4118  0.1200
  982Sol     HW 7062   2.165   0.025   2.597 -0.7525 -1.0110  0.1957
  982Sol     HW 7063   2.157   0.144   2.691 -1.1251 -0.3266 -0.6976
  982Sol     MW 7064   2.152   0.055   2.681 -0.2392  0.3184 -0.1994
  983Sol     OW 7065   2.324   3.299   3.237 -0.1975  0.2546 -0.5680
  983Sol     HW 7066   2.286   3.211   3.234 -3.0390  1.4412 -0.9265
  983Sol     HW 7067   2.396   3.297   3.175 -1.8726 -1.1112 -2.5163
  983Sol     MW 7068   2.327   3.291   3.232 -0.1954  0.0101  0.0457
  984Sol     OW 7069   3.146   2.442   8.305  0.4562  0.3022  0.1583
  984Sol     HW 7070   3.181   2.508   8.365  3.1393 -0.5615 -0.3892
  984Sol     HW 7071   3.180   2.467   8.219  0.5523 -1.1272 -0.2345
  984Sol     MW 7072   3.152   2.451   8.303 -0.0580 -0.7321  0.3448
  985Sol     OW 7073   2.449   2.338   4.426 -0.5686  0.1878 -0.0349
  985Sol     HW 7074   2.517   2.396   4.392 -0.9932 -0.7491 -2.6150
  985Sol     HW 7075   2.402   2.390   4.491  0.4189  1.9838 -0.7518
  985Sol     MW 7076   2.451   2.348   4.429 -0.4400 -0.1627 -0.4328
  986Sol     OW 7077   0.732   1.147   1.702 -0.1698  0.1474 -0.1752
  986Sol     HW 7078   0.661   1.088   1.676  0.3053  0.1345 -1.4981
  986Sol     HW 7079   0.754   1.195   1.622 -0.2869  1.8487  0.7988
  986Sol     MW 7080   0.728   1.146   1.693  0.0549  0.1240  0.2255
  987Sol     OW 7081   0.186   1.296   6.046  0.0297 -0.2344  0.2049
  987Sol     HW 7082   0.267   1.335   6.078 -0.5087  1.3935 -0.3709
  987Sol     HW 7083   0.159   1.352   5.973 -2.2708  0.0221  1.2015
  987Sol     MW 7084   0.191   1.305   6.043  0.1976 -0.0800 -0.6221
  988Sol     OW 7085   1.921   0.764   3.540 -0.2697  0.4148 -0.2860
  988Sol     HW 7086   1.892   0.837   3.594  0.1999  0.3504  0.0521
  988Sol     HW 7087   1.953   0.699   3.602 -2.8476 -1.0466 -0.4655
  988Sol     MW 7088   1.921   0.765   3.550  0.1238 -0.2467  0.4409
  989Sol     OW 7089   1.407   3.129   4.336 -0.6281 -0.0151  0.4916
  989Sol     HW 7090   1.483   3.073   4.331 -0.3529  0.4066 -0.1927
  989Sol     HW 7091   1.402   3.156   4.428 -1.3354 -1.9235  1.0193
  989Sol     MW 7092   1.413   3.127   4.344  0.0819 -0.2227  0.0207
  990Sol     OW 7093   0.199   3.362   6.368  0.3241  0.0868  0.3034
  990Sol     HW 7094   0.179   3.357   6.461  0.2228  0.7410  0.3222
  990Sol     HW 7095   0.210   3.271   6.340 -0.9344 -0.1903  0.6774
  990Sol     MW 7096   0.198   3.354   6.374 -0.6043 -0.4659  0.5797
  991Sol     OW 7097   0.602   0.690   9.813 -0.0817  0.3213 -0.3684
  991Sol     HW 7098   0.696   0.708   9.806  0.1156 -0.8464 -0.9859
  991Sol     HW 7099   0.560   0.774   9.793  0.8341  0.9695  0.3819
  991Sol     MW 7100   0.607   0.699   9.810 -0.5469 -0.0112 -0.0428
  992Sol     OW 7101   1.466   1.503   9.385 -0.2441 -0.4386  0.0893
  992Sol     HW 7102   1.440   1.442   9.316  1.9595 -1.9029  0.5033
  992Sol     HW 7103   1.461   1.452   9.466 -0.8271  0.6648  0.7589
  992Sol     MW 7104   1.463   1.493   9.386  0.1435 -0.0243 -0.0108
  993Sol     OW 7105   1.488   2.123   4.483 -0.0251 -0.9706  0.0734
  993Sol     HW 7106   1.549   2.050   4.479 -0.3900 -1.2550 -0.3904
  993Sol     HW 7107   1.408   2.086   4.521 -0.1460 -0.7634  0.0233
  993Sol     MW 7108   1.486   2.113   4.486  0.0282  0.0366  0.0438
  994Sol     OW 7109   3.227   3.229   6.007 -0.0589 -0.5856  0.0875
  994Sol     HW 7110   3.313   3.210   5.971  0.0026  0.6794 -0.4899
  994Sol     HW 7111   3.168   3.171   5.959  0.2758 -0.2946 -0.7000
  994Sol     MW 7112   3.229   3.222   5.999  0.3479 -0.6195 -0.4900
  995Sol     OW 7113   1.080   0.673   1.711  0.0894 -0.0087  0.0387
  995Sol     HW 7114   1.091   0.757   1.667  0.5539 -0.1917 -0.1908
  995Sol     HW 7115   1.040   0.695   1.795 -1.2287  0.3053 -0.6440
  995Sol     MW 7116   1.077   0.683   1.714 -0.4307 -0.9792 -0.5026
  996Sol     OW 7117   1.897   3.101   7.321  0.6603 -0.2628 -0.4505
  996Sol     HW 7118   1.867   3.077   7.409  0.3876 -1.1255 -0.7791
  996Sol     HW 7119   1.884   3.023   7.269 -0.5377  0.6844 -1.6077
  996Sol     MW 7120   1.893   3.092   7.324  0.0263  0.8180 -0.5297
  997Sol     OW 7121   1.631   2.494   3.321 -0.3335  0.6034  0.3053
  997Sol     HW 7122   1.601   2.405   3.305 -2.0329  1.3658 -1.0013
  997Sol     HW 7123   1.550   2.546   3.321  0.4333  1.8922  2.9049
  997Sol     MW 7124   1.621   2.491   3.320 -0.1208  0.3898  0.0304
  998Sol     OW 7125   2.656   0.492   8.743 -0.4017  0.2377  0.2044
  998Sol     HW 7126   2.647   0.398   8.760  0.5657  0.5398  2.5415
  998Sol     HW 7127   2.626   0.534   8.823  1.4378  1.8386  0.0805
  998Sol     MW 7128   2.653   0.487   8.752  0.1722 -0.1015  0.0982
  999Sol     OW 7129   2.925   2.195   6.533  0.1827 -0.2289  0.1493
  999Sol     HW 7130   2.870   2.258   6.580 -0.3604 -0.5752 -0.0165
  999Sol     HW 7131   2.906   2.211   6.440  0.5081 -0.2149  0.0849
  999Sol     MW 7132   2.919   2.202   6.529 -0.2947  0.4344 -0.3656
 1000Sol     OW 7133   2.045   1.807   3.908  0.1229  0.2353 -0.6572
 1000Sol     HW 7134   1.963   1.811   3.859 -0.0322  1.4073 -0.3127
 1000Sol     HW 7135   2.053   1.715   3.933 -2.3901  0.5324  1.4691
 1000Sol     MW 7136   2.038   1.799   3.906 -0.2757  0.4144  0.2027
 1001Sol     OW 7137   3.021   3.221   7.617  0.4487  0.4630  0.3895
 1001Sol     HW 7138   2.938   3.200   7.573  0.6920 -0.2575  0.2575
 1001Sol     HW 7139   3.007   3.196   7.708  0.7164 -0.2440  0.2451
 1001Sol     MW 7140   3.013   3.217   7.621  0.2153  0.5153  0.0326
 1002Sol     OW 7141   1.384   0.121   6.365 -0.1275  0.2729  0.0307
 1002Sol     HW 7142   1.432   0.080   6.292 -0.8671 -1.1245  0.3106
 1002Sol     HW 7143   1.410   0.213   6.362 -1.4397  0.6163 -3.0883
 1002Sol     MW 7144   1.390   0.125   6.358 -0.3782  0.5403 -0.0328
 1003Sol     OW 7145   2.250   1.355   5.562 -0.0882  0.4876  0.2474
 1003Sol     HW 7146   2.338   1.347   5.599 -0.2209  1.5378  0.7956
 1003Sol     HW 7147   2.215   1.266   5.567  1.0357  0.0020 -0.2276
 1003Sol     MW 7148   2.255   1.346   5.566  0.5085  0.0538  0.2475
 1004Sol     OW 7149   0.998   2.005   9.078  0.4926  0.8744  0.3522
 1004Sol     HW 7150   0.968   2.069   9.014  2.6636  1.0825 -0.4854
 1004Sol     HW 7151   1.049   1.942   9.027 -1.3924 -1.3993  1.1975
 1004Sol     MW 7152   1.000   2.005   9.068  0.2304 -0.1948 -0.6366
 1005Sol     OW 7153   3.264   0.263   9.857 -0.1298  0.6910 -0.4065
 1005Sol     HW 7154   3.336   0.302   9.906  1.1768 -0.0399 -1.6850
 1005Sol     HW 7155   3.212   0.338   9.827 -0.2906  1.1879  1.1058
 1005Sol     MW 7156   3.266   0.273   9.858  0.1587  0.0293 -0.1846
 1006Sol     OW 7157   3.145   1.488   5.813  0.0176  0.0009 -0.7313
 1006Sol     HW 7158   3.130   1.539   5.734  0.1470  0.6127 -0.3625
 1006Sol     HW 7159   3.210   1.423   5.788 -0.8128 -0.5612 -1.4473
 1006Sol     MW 7160   3.150   1.487   5.804  0.1136  0.3028 -0.0956
 1007Sol     OW 7161   2.950   1.185   7.675  0.1953 -0.4636  0.0940
 1007Sol     HW 7162   2.954   1.263   7.730 -0.3282 -0.1604 -0.2837
 1007Sol     HW 7163   2.946   1.219   7.586 -1.2029 -0.8792 -0.0211
 1007Sol     MW 7164   2.950   1.195   7.672 -0.1455 -0.0365  0.1209
 1008Sol     OW 7165   0.188   3.122   4.959  0.1751  0.0928 -0.1894
 1008Sol     HW 7166   0.178   3.031   4.987 -0.9455  0.4159  0.4698
 1008Sol     HW 7167   0.208   3.115   4.865 -1.2518 -0.7972 -0.4569
 1008Sol     MW 7168   0.189   3.113   4.953  0.6523 -0.3570 -0.0217
 1009Sol     OW 7169   0.469   0.192   7.754 -0.3166 -0.1801 -0.0664
 1009Sol     HW 7170   0.438   0.181   7.844  0.6943  1.4711  0.4936
 1009Sol     HW 7171   0.530   0.119   7.742  1.3495  0.9483  1.3994
 1009Sol     MW 7172   0.472   0.184   7.761  0.4002 -0.0443 -0.1629
 1010Sol     OW 7173   1.451   2.467   8.219 -0.2041  0.3016 -0.9594
 1010Sol     HW 7174   1.492   2.388   8.186  0.7350  0.8780 -1.1864
 1010Sol     HW 7175   1.488   2.479   8.307 -4.4319 -2.5355  1.4060
 1010Sol     MW 7176   1.458   2.461   8.224 -0.1137 -0.2633  0.2831
 1011Sol     OW 7177   2.020   1.724   8.592 -0.2401 -0.1721 -0.4677
 1011Sol     HW 7178   2.062   1.694   8.512 -0.1198 -0.1552 -0.4108
 1011Sol     HW 7179   1.945   1.666   8.603 -1.7621  1.4074 -1.9883
 1011Sol     MW 7180   2.017   1.716   8.586  0.6050  0.3063 -0.1907
 1012Sol     OW 7181   2.915   0.017   2.354  0.1183 -0.4218  0.2243
 1012Sol     HW 7182   2.845   0.013   2.288 -0.6823  0.2758  1.0151
 1012Sol     HW 7183   2.942   0.109   2.354  1.1490 -0.7159 -0.1800
 1012Sol     MW 7184   2.911   0.025   2.348 -0.2683  0.0389 -0.1524
 1013Sol     OW 7185   0.429   0.509   4.744 -0.0668  0.1397  0.0467
 1013Sol     HW 7186   0.404   0.563   4.819  0.4427 -0.4255  0.6304
 1013Sol     HW 7187   0.374   0.540   4.672 -1.3015 -0.0206  0.9208
 1013Sol     MW 7188   0.422   0.517   4.744 -0.7340 -0.3279 -0.2462
 1014Sol     OW 7189   1.398   0.085   7.448  0.2909 -0.0021  0.0365
 1014Sol     HW 7190   1.476   0.047   7.408  0.0238 -1.0507  0.4977
 1014Sol     HW 7191   1.400   0.055   7.539 -0.1619  0.7160  0.2902
 1014Sol     MW 7192   1.405   0.079   7.452 -0.7792  0.1154  0.6508
 1015Sol     OW 7193   1.390   2.578   5.406 -0.2628  0.1770 -0.2013
 1015Sol     HW 7194   1.369   2.541   5.492 -0.5065  0.0862 -0.2989
 1015Sol     HW 7195   1.306   2.579   5.359 -0.2800  0.9942 -0.1475
 1015Sol     MW 7196   1.380   2.575   5.409  0.3780  0.0529  0.2211
 1016Sol     OW 7197   1.827   2.715   3.873  0.5255  0.6141 -0.9545
 1016Sol     HW 7198   1.752   2.730   3.815  0.7441 -2.8740 -2.2369
 1016Sol     HW 7199   1.900   2.699   3.814  1.5825  0.6690  0.3167
 1016Sol     MW 7200   1.826   2.715   3.862 -0.2008 -0.5899  0.0052
 1017Sol     OW 7201   0.006   2.753   3.828 -0.3274 -0.3272  0.0038
 1017Sol     HW 7202   0.032   2.770   3.737  0.0688 -0.8770  0.0156
 1017Sol     HW 7203  -0.059   2.683   3.821 -1.2495  0.5184  0.0381
 1017Sol     MW 7204   0.003   2.748   3.819  0.3227 -0.0720  0.1185
 1018Sol     OW 7205   1.776   1.560   8.640  0.7849  0.3456 -0.4187
 1018Sol     HW 7206   1.751   1.478   8.597 -2.1378  0.7856  0.3112
 1018Sol     HW 7207   1.767   1.542   8.733  4.4154  0.2242 -0.0452
 1018Sol     MW 7208   1.773   1.551   8.644  0.2996  0.0602 -0.1007
 1019Sol     OW 7209   0.754   0.665   5.315  1.0390 -0.4795 -0.0108
 1019Sol     HW 7210   0.727   0.607   5.386 -0.2470  0.2730  0.1246
 1019Sol     HW 7211   0.794   0.607   5.250  1.7659 -1.2333  1.0957
 1019Sol     MW 7212   0.755   0.655   5.315 -0.4512  0.1965 -0.0050
 1020Sol     OW 7213   0.397   2.856   2.514 -0.0319  0.3803  0.6188
 1020Sol     HW 7214   0.325   2.795   2.499  0.4821 -0.0500 -0.0735
 1020Sol     HW 7215   0.413   2.851   2.609 -1.4738  1.1189  0.9263
 1020Sol     MW 7216   0.392   2.850   2.521 -0.1556  0.4191  0.3392
 1021Sol     OW 7217   1.320   2.241   9.505  0.2090  0.7866  0.1729
 1021Sol     HW 7218   1.372   2.211   9.579  0.6755  0.1434 -0.4096
 1021Sol     HW 7219   1.361   2.200   9.429  0.0751  1.8878 -0.5056
 1021Sol     MW 7220   1.328   2.235   9.505  0.1110  0.2889  0.1775
 1022Sol     OW 7221   1.877   0.744   2.597  0.8842  0.1369  0.0533
 1022Sol     HW 7222   1.958   0.755   2.547  0.5187  0.2963 -0.5157
 1022Sol     HW 7223   1.860   0.650   2.595  0.9883  0.1179  0.0677
 1022Sol     MW 7224   1.883   0.736   2.592  0.7671 -0.6786  0.3655
 1023Sol     OW 7225   1.022   0.474   4.493  0.6194 -0.1677  0.3942
 1023Sol     HW 7226   1.016   0.461   4.398 -0.4051  1.5373  0.1999
 1023Sol     HW 7227   1.114   0.494   4.509  0.3956  1.6952 -0.5520
 1023Sol     MW 7228   1.030   0.474   4.486 -0.2773 -0.5064  0.3951
 1024Sol     OW 7229   2.791   0.694   9.139  0.0035  0.0046  0.0004
 1024Sol     HW 7230   2.836   0.639   9.076  2.2292 -0.3417  1.8097
 1024Sol     HW 7231   2.861   0.746   9.179 -1.5399  1.2626  1.1324
 1024Sol     MW 7232   2.802   0.694   9.137  0.4542 -0.5962 -0.4768
 1025Sol     OW 7233   1.976   1.968   4.141  0.2329 -0.3695  0.4114
 1025Sol     HW 7234   1.981   1.909   4.066 -0.0988  2.2709 -1.7303
 1025Sol     HW 7235   1.897   2.019   4.127  1.0286  1.2784  1.7311
 1025Sol     MW 7236   1.970   1.967   4.133  0.1068 -1.1861  0.4267
 1026Sol     OW 7237   0.587   2.908   6.257  0.0664 -0.2396 -0.3636
 1026Sol     HW 7238   0.547   2.988   6.221 -0.8455 -0.9773 -1.0082
 1026Sol     HW 7239   0.680   2.918   6.238  0.2822  1.6320  1.4019
 1026Sol     MW 7240   0.592   2.916   6.252  0.3281 -0.4425  0.0860
 1027Sol     OW 7241   3.110   2.866   7.887  0.4174  0.3996 -0.0588
 1027Sol     HW 7242   3.092   2.885   7.979  0.8452 -0.4719  0.2127
 1027Sol     HW 7243   3.086   2.946   7.841 -0.6533  0.5364  0.7045
 1027Sol     MW 7244   3.106   2.874   7.891  0.3733 -0.0047  0.7926
 1028Sol     OW 7245   0.261   2.009   6.445 -0.0486 -0.5359 -0.3012
 1028Sol     HW 7246   0.181   2.035   6.399 -0.1645  2.0650  1.2625
 1028Sol     HW 7247   0.232   1.989   6.534  1.3809  3.3345  1.1235
 1028Sol     MW 7248   0.251   2.010   6.449  0.6149  0.7371  0.2093
 1029Sol     OW 7249   2.621   2.272   6.252 -0.0761 -0.9087  0.0522
 1029Sol     HW 7250   2.591   2.203   6.193  0.4474 -1.4513  0.4150
 1029Sol     HW 7251   2.714   2.254   6.266 -0.3343 -1.1897  1.5546
 1029Sol     MW 7252   2.626   2.264   6.248 -0.5922 -0.1562  0.4122
 1030Sol     OW 7253   2.596   2.432   2.026 -0.4250  0.1499 -0.1865
 1030Sol     HW 7254   2.573   2.344   2.057 -2.0918  0.3652 -0.7437
 1030Sol     HW 7255   2.675   2.455   2.075 -0.9104 -0.9984  1.1790
 1030Sol     MW 7256   2.601   2.426   2.033 -0.3163  0.0705 -0.3281
 1031Sol     OW 7257   2.167   2.714   7.553 -0.2947  0.1594  0.0233
 1031Sol     HW 7258   2.083   2.693   7.512 -0.1064 -0.4769 -0.0475
 1031Sol     HW 7259   2.229   2.715   7.480 -0.3767  1.4271 -0.0361
 1031Sol     MW 7260   2.165   2.712   7.542  0.3676  0.3836  0.4026
 1032Sol     OW 7261   2.967   0.378   5.921 -0.0946 -0.1050  0.2714
 1032Sol     HW 7262   2.891   0.321   5.922  0.5757 -1.0113  0.3005
 1032Sol     HW 7263   3.001   0.373   6.011  0.1338  0.1096  0.1960
 1032Sol     MW 7264   2.964   0.373   5.929  0.4362  0.3073 -0.2029
 1033Sol     OW 7265   1.377   2.184   9.248 -0.2785 -0.1094 -0.4283
 1033Sol     HW 7266   1.381   2.090   9.263  0.4588  0.3415  2.5202
 1033Sol     HW 7267   1.285   2.202   9.229 -0.4487 -1.3821 -0.8084
 1033Sol     MW 7268   1.369   2.177   9.247 -0.5913  0.2205  0.0513
 1034Sol     OW 7269   0.680   3.209   7.326  0.1700 -0.1756 -0.6209
 1034Sol     HW 7270   0.596   3.251   7.309  0.2862  1.4384  2.4583
 1034Sol     HW 7271   0.659   3.117   7.342 -1.1683  0.4453  1.2629
 1034Sol     MW 7272   0.671   3.205   7.326 -0.3154  0.4123  0.3802
 1035Sol     OW 7273   1.525   2.120   4.093  0.1947 -0.0488 -0.2708
 1035Sol     HW 7274   1.614   2.118   4.127  0.4800 -0.5694 -1.0389
 1035Sol     HW 7275   1.503   2.213   4.092  1.0754  0.1607 -0.9596
 1035Sol     MW 7276   1.531   2.128   4.096 -0.1476  0.2513  0.4875
 1036Sol     OW 7277   2.315   0.977   5.654 -0.4590 -0.2430 -0.1688
 1036Sol     HW 7278   2.290   1.021   5.735 -1.3656 -2.0749  0.5679
 1036Sol     HW 7279   2.236   0.932   5.626  0.7079 -2.2062 -0.3740
 1036Sol     MW 7280   2.306   0.977   5.659  0.3284  0.2373 -0.3798
 1037Sol     OW 7281   1.039   2.841   6.270 -0.0508  0.3144 -0.0435
 1037Sol     HW 7282   1.080   2.758   6.243  0.7412 -0.2392  2.7284
 1037Sol     HW 7283   1.113   2.901   6.279 -0.2800  0.4204  1.0948
 1037Sol     MW 7284   1.050   2.839   6.268 -0.4147  0.2458  0.6591
 1038Sol     OW 7285   2.820   2.537   8.539 -0.2077  0.3573 -0.0838
 1038Sol     HW 7286   2.849   2.579   8.458 -0.2813  0.7075  0.0747
 1038Sol     HW 7287   2.879   2.462   8.549 -0.2168  0.2968 -0.4764
 1038Sol     MW 7288   2.828   2.534   8.532 -0.7250  1.1513  0.3653
 1039Sol     OW 7289   1.600   2.328   6.427  0.1987 -0.2100  0.5196
 1039Sol     HW 7290   1.526   2.273   6.402  1.2443 -1.1550 -0.5569
 1039Sol     HW 7291   1.562   2.394   6.486 -1.4805 -0.6925  0.0143
 1039Sol     MW 7292   1.590   2.329   6.430  0.3546  0.2056 -0.3828
 1040Sol     OW 7293   2.754   2.009   6.637 -0.4175  0.0377  0.1100
 1040Sol     HW 7294   2.686   1.980   6.577 -0.0784  0.2986 -0.3999
 1040Sol     HW 7295   2.815   2.058   6.583  0.4980 -0.7124  0.4426
 1040Sol     MW 7296   2.754   2.010   6.627 -0.0881  0.0710 -0.2828
 1041Sol     OW 7297   1.534   1.949   3.868 -0.4409 -0.1244 -0.1502
 1041Sol     HW 7298   1.547   2.014   3.799  0.0604 -1.2928 -1.1739
 1041Sol     HW 7299   1.528   2.000   3.948  1.8321  1.0818 -0.7018
 1041Sol     MW 7300   1.535   1.959   3.869 -0.3555  0.1154 -0.7047
 1042Sol     OW 7301   1.984   1.505   3.568 -0.2370  0.1076 -0.0893
 1042Sol     HW 7302   1.908   1.486   3.624  0.6528  0.4998  1.2741
 1042Sol     HW 7303   1.981   1.599   3.556  1.2829  0.4414  1.8434
 1042Sol     MW 7304   1.977   1.511   3.572 -0.5491  0.5653 -0.2469
 1043Sol     OW 7305   3.042   2.264   5.270 -0.2006 -0.8852 -0.2073
 1043Sol     HW 7306   3.021   2.355   5.246  1.5893 -0.9139 -1.9916
 1043Sol     HW 7307   3.066   2.269   5.362  2.2663  0.8884 -0.9029
 1043Sol     MW 7308   3.042   2.273   5.276  0.4037  0.5765 -0.1906
 1044Sol     OW 7309   1.584   0.410   4.542  0.4255  0.2204 -0.1287
 1044Sol     HW 7310   1.558   0.382   4.630  0.5063  0.3300 -0.0687
 1044Sol     HW 7311   1.641   0.339   4.510  0.1592  0.0426 -0.2089
 1044Sol     MW 7312   1.587   0.401   4.547 -0.8086 -0.6563 -0.3462
 1045Sol     OW 7313   0.549   3.080   4.672 -0.1050 -0.8025 -0.1643
 1045Sol     HW 7314   0.597   3.144   4.726 -0.3459 -0.0743 -0.8035
 1045Sol     HW 7315   0.457   3.104   4.683 -0.2838 -1.7830  0.5294
 1045Sol     MW 7316   0.545   3.088   4.678 -0.7961 -0.3135 -0.1322
 1046Sol     OW 7317   1.983   0.673   3.944 -0.2731 -0.1474  0.8875
 1046Sol     HW 7318   2.020   0.743   3.998 -1.3726  1.3716 -0.2778
 1046Sol     HW 7319   1.896   0.658   3.981 -0.7717  0.4350 -0.0416
 1046Sol     MW 7320   1.978   0.678   3.952 -0.4570  0.6242  0.3641
 1047Sol     OW 7321   1.499   1.984   6.695 -0.5840 -0.6820  0.8846
 1047Sol     HW 7322   1.413   1.996   6.653 -0.0515 -1.4354 -0.4286
 1047Sol     HW 7323   1.562   2.006   6.626  0.3038 -2.4921  1.1028
 1047Sol     MW 7324   1.497   1.987   6.685 -0.0909 -0.2510 -0.2089
 1048Sol     OW 7325   1.052   1.117   4.661 -0.5033  0.0599  0.2922
 1048Sol     HW 7326   1.037   1.160   4.576 -1.6425 -1.2723 -0.1956
 1048Sol     HW 7327   1.105   1.040   4.640 -0.1643  0.1308  0.8888
 1048Sol     MW 7328   1.055   1.114   4.651  0.1764 -0.2258  0.0448
 1049Sol     OW 7329   0.414   0.381   9.344  0.3219 -0.8544 -0.4159
 1049Sol     HW 7330   0.408   0.364   9.437 -3.9853 -1.5076 -0.7182
 1049Sol     HW 7331   0.395   0.474   9.335 -0.0314 -0.9498 -0.6859
 1049Sol     MW 7332   0.412   0.388   9.351 -0.7143  0.0674  0.2499
 1050Sol     OW 7333   2.593   2.710   1.506 -0.0243 -0.0238 -0.0213
 1050Sol     HW 7334   2.630   2.682   1.589 -1.1614  1.3384  0.9857
 1050Sol     HW 7335   2.620   2.802   1.498  1.0569 -0.4812 -1.7260
 1050Sol     MW 7336   2.598   2.716   1.513 -0.1638 -0.2646  0.3369
 1051Sol     OW 7337   1.131   1.738   4.993  0.0285 -0.2362  0.0703
 1051Sol     HW 7338   1.041   1.739   5.024  0.0211  1.3687  0.0099
 1051Sol     HW 7339   1.184   1.727   5.072 -0.1240  0.9039  0.3293
 1051Sol     MW 7340   1.128   1.737   5.003  0.0622  0.4158 -0.0843
 1052Sol     OW 7341   0.561   2.298   3.075 -0.0616  0.4737 -0.1330
 1052Sol     HW 7342   0.499   2.282   3.005 -0.2007  1.6667 -0.2787
 1052Sol     HW 7343   0.508   2.333   3.147  0.0030 -1.1523  0.7465
 1052Sol     MW 7344   0.551   2.299   3.075  0.6126 -0.0981  0.0537
 1053Sol     OW 7345   2.118   2.016   2.501  0.3375 -0.3607  0.7633
 1053Sol     HW 7346   2.033   2.060   2.500  0.3126 -0.4137 -0.2006
 1053Sol     HW 7347   2.121   1.973   2.586 -1.1237 -1.3203  0.3631
 1053Sol     MW 7348   2.111   2.016   2.508  0.0052 -0.5175 -0.0812
 1054Sol     OW 7349   0.406   3.275   6.651  0.5581 -0.1842 -0.0524
 1054Sol     HW 7350   0.411   3.262   6.556  0.0442  0.6162 -0.1928
 1054Sol     HW 7351   0.316   3.306   6.665  1.2425  1.5418  0.4869
 1054Sol     MW 7352   0.398   3.276   6.644  0.1456 -0.1147 -0.1986
 1055Sol     OW 7353   1.016   0.530   5.688 -0.1443  0.0759 -0.7753
 1055Sol     HW 7354   1.028   0.620   5.657  2.0302 -0.6718 -2.2303
 1055Sol     HW 7355   1.067   0.477   5.627  0.6971 -1.8906  1.5691
 1055Sol     MW 7356   1.021   0.534   5.680 -0.2470 -0.0399  0.2222
 1056Sol     OW 7357   2.787   0.088   8.976  0.5887 -0.7540  0.0404
 1056Sol     HW 7358   2.739   0.056   9.052  0.7099 -0.4332  0.2552
 1056Sol     HW 7359   2.844   0.016   8.951  0.0140 -1.1279 -0.2023
 1056Sol     MW 7360   2.788   0.079   8.980  0.2870 -0.4449  0.1091
 1057Sol     OW 7361   3.208   2.976   5.051  0.0544  0.0898  0.1767
 1057Sol     HW 7362   3.124   2.956   5.092 -1.4700 -0.1884 -2.9717
 1057Sol     HW 7363   3.268   2.909   5.084 -1.5027 -1.0402  0.7369
 1057Sol     MW 7364   3.206   2.968   5.058 -0.7355  0.6015 -0.1789
 1058Sol     OW 7365   1.275   1.412   8.127 -0.3967 -0.4289  0.3037
 1058Sol     HW 7366   1.191   1.434   8.167 -0.3868 -0.8437  0.5629
 1058Sol     HW 7367   1.300   1.490   8.078  0.6908  0.9575  2.9868
 1058Sol     MW 7368   1.270   1.421   8.126  0.1890  0.0236 -0.2995
 1059Sol     OW 7369   1.924   0.828   5.836 -0.0949  0.2531  0.1469
 1059Sol     HW 7370   1.893   0.738   5.849 -0.9881  0.5877  0.3707
 1059Sol     HW 7371   1.918   0.868   5.923 -2.0804  1.2556 -0.4157
 1059Sol     MW 7372   1.920   0.823   5.845 -0.0794  0.3462  0.1443
 1060Sol     OW 7373   0.739   0.413   2.667 -0.9919 -0.6939  0.1651
 1060Sol     HW 7374   0.784   0.478   2.721  1.1719 -1.2568 -0.9067
 1060Sol     HW 7375   0.699   0.353   2.730 -2.1248  1.0576  1.1540
 1060Sol     MW 7376   0.739   0.413   2.677 -0.2179 -0.2620 -0.1801
 1061Sol     OW 7377   0.889   1.622   7.371  0.5244 -0.1892 -0.3319
 1061Sol     HW 7378   0.866   1.621   7.279  0.4946 -0.1097 -0.3256
 1061Sol     HW 7379   0.862   1.709   7.401 -0.9385 -0.7777  0.1219
 1061Sol     MW 7380   0.884   1.630   7.366 -0.4794 -0.0949  0.5212
 1062Sol     OW 7381   3.213   0.566   2.961 -0.7040 -0.0613  0.3684
 1062Sol     HW 7382   3.133   0.580   2.911 -0.6570  0.4118  0.4178
 1062Sol     HW 7383   3.191   0.597   3.049 -0.1716  0.9945  0.1450
 1062Sol     MW 7384   3.204   0.570   2.965  0.4381 -0.0685  0.0801
 1063Sol     OW 7385   0.253   2.878   8.547 -0.4125 -0.1544 -0.1134
 1063Sol     HW 7386   0.277   2.845   8.461  0.2502 -0.6896  0.2784
 1063Sol     HW 7387   0.215   2.965   8.529 -0.6574 -0.4307 -0.9768
 1063Sol     MW 7388   0.251   2.883   8.538  0.2322  0.1971  0.2956
 1064Sol     OW 7389   0.433   2.060   4.133  0.7622 -0.0333  0.3809
 1064Sol     HW 7390   0.484   1.979   4.139 -0.0330 -0.5555  0.1184
 1064Sol     HW 7391   0.371   2.055   4.206  2.1728  1.3828  1.7278
 1064Sol     MW 7392   0.432   2.053   4.140 -0.8952  0.4806 -0.0880
 1065Sol     OW 7393   0.488   0.066   1.830 -0.2408 -0.3587 -0.4411
 1065Sol     HW 7394   0.566   0.109   1.795  0.3978 -1.0888  0.0727
 1065Sol     HW 7395   0.473   0.109   1.914  1.1387 -1.9781  0.6556
 1065Sol     MW 7396   0.493   0.074   1.834  0.7897 -0.5709  0.3492
 1066Sol     OW 7397   0.733   1.690   2.038  0.1457  0.5009  0.3219
 1066Sol     HW 7398   0.762   1.606   2.072 -1.2512  0.3976  1.2778
 1066Sol     HW 7399   0.646   1.703   2.074 -0.1031  1.8600 -0.6871
 1066Sol     MW 7400   0.728   1.684   2.044 -0.6797  0.1582  0.5942
 1067Sol     OW 7401   1.837   2.552   8.887 -0.3489  0.7377  0.1859
 1067Sol     HW 7402   1.772   2.531   8.819  0.1230 -0.7264  0.1792
 1067Sol     HW 7403   1.897   2.478   8.887  1.0237  1.8289  0.5836
 1067Sol     MW 7404   1.836   2.544   8.881  0.3099  0.4389 -0.5606
 1068Sol     OW 7405   1.915   1.892   4.401  0.4478 -0.3573  0.0825
 1068Sol     HW 7406   1.926   1.902   4.306  2.2202  0.7530  0.3822
 1068Sol     HW 7407   1.825   1.921   4.417 -0.0137 -0.9580 -1.3052
 1068Sol     MW 7408   1.908   1.896   4.394  0.4693  0.1262  0.7012
 1069Sol     OW 7409   0.220   1.300   8.223  0.4030 -0.0666  0.3296
 1069Sol     HW 7410   0.126   1.317   8.211 -0.0591 -1.5294  1.7109
 1069Sol     HW 7411   0.250   1.268   8.138 -0.1052  1.4059 -0.4259
 1069Sol     MW 7412   0.214   1.299   8.214  0.2344  0.1933 -0.4245
 1070Sol     OW 7413   1.042   3.327   7.916  0.2128 -1.2038  0.0763
 1070Sol     HW 7414   1.044   3.374   7.833  0.4359 -1.0037  0.1942
 1070Sol     HW 7415   1.130   3.291   7.926  0.7134  0.2034  1.0369
 1070Sol     MW 7416   1.050   3.328   7.910 -0.3866  0.1436 -0.3027
 1071Sol     OW 7417   2.605   2.534   9.156  0.0116 -0.5526 -0.0019
 1071Sol     HW 7418   2.520   2.560   9.190  1.1598 -1.7545  4.0710
 1071Sol     HW 7419   2.663   2.607   9.179  0.4482 -0.5247 -1.1695
 1071Sol     MW 7420   2.603   2.543   9.161  0.2987 -0.9112 -0.0167
 1072Sol     OW 7421   2.258   2.483   3.315  0.0603 -0.7767  0.5010
 1072Sol     HW 7422   2.308   2.433   3.250 -0.9550 -2.6305  1.0830
 1072Sol     HW 7423   2.313   2.484   3.392  0.2557 -0.6525  0.3595
 1072Sol     MW 7424   2.267   2.478   3.316  0.0012  0.0806 -0.2299
 1073Sol     OW 7425   0.421   1.757   5.296 -0.6768  0.2675 -0.7163
 1073Sol     HW 7426   0.351   1.693   5.281 -0.9971  0.4005  0.2369
 1073Sol     HW 7427   0.496   1.721   5.248 -0.4797 -1.4997  0.8700
 1073Sol     MW 7428   0.422   1.748   5.290 -0.4553  0.1284  0.2250
 1074Sol     OW 7429   1.107   2.257   4.114 -0.0155  0.0879  0.2505
 1074Sol     HW 7430   1.105   2.353   4.110 -0.6891  0.0649 -0.0228
 1074Sol     HW 7431   1.200   2.235   4.124  0.2809  0.7125 -1.0168
 1074Sol     MW 7432   1.115   2.264   4.115 -0.0097 -0.3842 -0.9751
 1075Sol     OW 7433   1.350   2.348   3.014  0.2411 -0.3322 -0.4466
 1075Sol     HW 7434   1.301   2.269   3.037  2.4082 -1.0685  1.9344
 1075Sol     HW 7435   1.309   2.418   3.065  1.2686 -0.8464  1.1267
 1075Sol     MW 7436   1.342   2.347   3.021 -0.2042 -0.0937 -0.1833
 1076Sol     OW 7437   0.649   3.030   3.626  0.3717 -0.6103 -0.0456
 1076Sol     HW 7438   0.630   3.083   3.548 -2.7033  0.9287  1.6655
 1076Sol     HW 7439   0.710   3.083   3.677  1.1018 -0.8989 -0.6067
 1076Sol     MW 7440   0.653   3.040   3.624 -0.1584 -0.3781 -0.1430
 1077Sol     OW 7441   2.454   1.729   8.666  0.1366  0.3297 -0.0446
 1077Sol     HW 7442   2.501   1.692   8.591 -1.0830 -0.4258 -0.4459
 1077Sol     HW 7443   2.523   1.755   8.727  1.1517  0.9976 -1.4422
 1077Sol     MW 7444   2.465   1.728   8.665 -0.1284  0.5341  0.1626
 1078Sol     OW 7445   3.053   1.773   5.112 -0.1390  0.5695  0.3078
 1078Sol     HW 7446   3.143   1.787   5.082  0.3571 -0.4685  1.2556
 1078Sol     HW 7447   3.059   1.695   5.168 -1.4588  1.0427  1.1298
 1078Sol     MW 7448   3.062   1.767   5.115  0.3382  0.2426 -0.4489
 1079Sol     OW 7449   0.216   2.823   5.056 -0.0866 -0.3754 -0.5743
 1079Sol     HW 7450   0.303   2.787   5.038 -0.2503 -0.2950 -1.5710
 1079Sol     HW 7451   0.156   2.766   5.007 -0.7407 -1.2969  1.2415
 1079Sol     MW 7452   0.218   2.815   5.050 -0.1840  0.0257 -0.5129
 1080Sol     OW 7453   1.019   0.963   3.733 -0.2973  0.0533 -0.2122
 1080Sol     HW 7454   1.046   1.026   3.665  2.2625 -0.6234  0.0988
 1080Sol     HW 7455   1.084   0.974   3.802 -1.6035 -0.8195  1.1784
 1080Sol     MW 7456   1.028   0.970   3.733  0.2591  0.0387 -0.3390
 1081Sol     OW 7457   1.833   2.723   4.155  0.0890 -0.3186  0.0425
 1081Sol     HW 7458   1.886   2.793   4.193  0.3874 -1.0555  1.0229
 1081Sol     HW 7459   1.838   2.737   4.061  1.0394  0.3326  0.1823
 1081Sol     MW 7460   1.838   2.730   4.150  0.1630  0.1145 -0.4766
 1082Sol     OW 7461   0.496   0.475   3.004  0.1298  0.0120 -0.4486
 1082Sol     HW 7462   0.533   0.407   2.947  2.7544 -0.1133  1.3164
 1082Sol     HW 7463   0.426   0.430   3.052  1.5670 -1.3623  0.4061
 1082Sol     MW 7464   0.493   0.465   3.003 -0.1017 -0.3103 -0.4519
 1083Sol     OW 7465   0.656   0.203   6.769 -0.1934 -0.5477 -0.2051
 1083Sol     HW 7466   0.642   0.222   6.862  0.4127  0.3641 -0.2892
 1083Sol     HW 7467   0.645   0.288   6.726 -1.0840 -1.0857 -1.0420
 1083Sol     MW 7468   0.654   0.213   6.774 -0.2013  0.2719  0.0206
 1084Sol     OW 7469   0.591   2.233   9.077  0.3241 -0.1173 -0.1684
 1084Sol     HW 7470   0.630   2.320   9.086 -2.9461  1.4429 -0.1716
 1084Sol     HW 7471   0.584   2.220   8.982  0.1239 -0.0526 -0.1620
 1084Sol     MW 7472   0.594   2.240   9.069  0.1350 -0.4863  0.2806
 1085Sol     OW 7473   1.319   2.823   6.540  0.4248  0.0411 -0.2595
 1085Sol     HW 7474   1.257   2.763   6.581  0.7480 -0.1102  0.0162
 1085Sol     HW 7475   1.348   2.777   6.461  0.2373  0.0832 -0.3527
 1085Sol     MW 7476   1.316   2.813   6.537  0.0994  0.1394  0.2846
 1086Sol     OW 7477   3.099   2.246   2.810  0.2887  0.2219  0.1701
 1086Sol     HW 7478   3.155   2.229   2.734 -0.0010  1.4133 -0.3157
 1086Sol     HW 7479   3.097   2.341   2.817 -2.0550  0.2196 -0.1135
 1086Sol     MW 7480   3.104   2.253   2.803  0.1276 -0.0506  0.4892
 1087Sol     OW 7481   3.271   2.982   6.184  0.5129  0.1682  0.1379
 1087Sol     HW 7482   3.263   3.077   6.191  2.2625  0.2535  1.1008
 1087Sol     HW 7483   3.220   2.948   6.258 -0.6263  0.3167 -0.5616
 1087Sol     MW 7484   3.266   2.987   6.191  0.3536  0.5164 -0.2126
 1088Sol     OW 7485   2.387   0.643   8.093 -0.2703  0.0396  0.0185
 1088Sol     HW 7486   2.331   0.720   8.096 -1.3056 -0.7356  0.6477
 1088Sol     HW 7487   2.454   0.660   8.159 -1.3164 -0.2162  1.1622
 1088Sol     MW 7488   2.388   0.652   8.099  0.4925 -0.2236 -0.0873
 1089Sol     OW 7489   2.152   1.805   6.584  0.2299  0.0470 -0.0284
 1089Sol     HW 7490   2.081   1.864   6.560 -1.5221 -1.6861  0.7078
 1089Sol     HW 7491   2.119   1.758   6.660  1.8492 -1.3905 -0.1820
 1089Sol     MW 7492   2.143   1.806   6.588  0.2396  0.0995 -0.0206
 1090Sol     OW 7493   1.773   0.322   4.987 -0.2782  0.1511  0.0628
 1090Sol     HW 7494   1.805   0.356   4.904  0.3948 -1.5966 -0.4068
 1090Sol     HW 7495   1.815   0.377   5.053  0.0996  0.8006 -0.7114
 1090Sol     MW 7496   1.780   0.330   4.986 -0.1706 -0.3744  0.0804
 1091Sol     OW 7497   0.207   2.835   5.426  0.0172 -0.3302 -0.1718
 1091Sol     HW 7498   0.293   2.825   5.467 -0.0606 -2.3100 -0.4240
 1091Sol     HW 7499   0.151   2.868   5.496  0.9916  1.0673 -0.0296
 1091Sol     MW 7500   0.210   2.837   5.436 -0.8114 -0.2001  0.6251
 1092Sol     OW 7501   0.979   2.534   8.326 -0.0214  0.3580  0.4347
 1092Sol     HW 7502   1.014   2.512   8.412  2.3588 -0.7110 -0.7792
 1092Sol     HW 7503   1.049   2.513   8.265 -1.2611  2.1614 -1.6851
 1092Sol     MW 7504   0.988   2.530   8.329 -0.1059  0.0796  0.0397
 1093Sol     OW 7505   3.255   0.132   4.982 -0.1431 -0.2993  0.2799
 1093Sol     HW 7506   3.267   0.140   5.077  2.0721  1.1193 -0.0839
 1093Sol     HW 7507   3.294   0.048   4.960  0.3611 -0.1129  0.4647
 1093Sol     MW 7508   3.259   0.126   4.989  0.2563 -0.1942  0.0727
 1094Sol     OW 7509   1.724   0.012   9.854 -0.1579 -0.1148  0.5631
 1094Sol     HW 7510   1.660   0.083   9.853  1.3192  1.2377 -1.1621
 1094Sol     HW 7511   1.688  -0.054   9.794 -0.8610 -0.2348  1.1072
 1094Sol     MW 7512   1.715   0.012   9.848 -0.4154  0.1670 -0.7479
 1095Sol     OW 7513   0.911   2.236   8.897 -0.2759 -0.3395  0.1859
 1095Sol     HW 7514   0.980   2.240   8.831  0.0758  0.9705  0.6194
 1095Sol     HW 7515   0.843   2.181   8.858  1.5478 -2.7173  0.2459
 1095Sol     MW 7516   0.911   2.231   8.888  0.1531  0.2796 -0.4070
 1096Sol     OW 7517   1.612   2.877   1.955 -0.0555 -0.2110  0.1391
 1096Sol     HW 7518   1.681   2.817   1.926 -0.4368 -1.5445  1.8724
 1096Sol     HW 7519   1.629   2.959   1.908  2.4076 -0.6813  0.1725
 1096Sol     MW 7520   1.620   2.879   1.948 -0.1500 -0.2478  0.1250
 1097Sol     OW 7521   0.171   1.525   2.513 -0.1719 -0.4670 -0.0212
 1097Sol     HW 7522   0.113   1.544   2.586  2.5208  1.0112  1.8078
 1097Sol     HW 7523   0.159   1.599   2.453 -1.2570 -0.9207 -0.3760
 1097Sol     MW 7524   0.165   1.533   2.514  0.2059  0.7462 -0.1487
 1098Sol     OW 7525   1.076   2.976   2.371 -0.4165 -0.1799  0.1205
 1098Sol     HW 7526   1.089   2.914   2.443 -2.9840 -0.5850  0.3134
 1098Sol     HW 7527   1.050   2.922   2.297 -2.8963  0.6170  0.3440
 1098Sol     MW 7528   1.075   2.966   2.371 -0.5843  0.9285  0.0031
 1099Sol     OW 7529   0.651   0.723   3.416 -0.0438 -0.5796  0.1601
 1099Sol     HW 7530   0.673   0.674   3.336 -0.3270 -1.8110  0.8160
 1099Sol     HW 7531   0.735   0.737   3.459  0.1333  0.2787 -0.4617
 1099Sol     MW 7532   0.661   0.720   3.413 -0.2503 -0.6479  0.3957
 1100Sol     OW 7533   2.415   0.050   7.669 -0.5427  0.1730  0.1026
 1100Sol     HW 7534   2.391  -0.016   7.733 -0.2725  1.4248  1.5088
 1100Sol     HW 7535   2.508   0.067   7.685 -0.2038 -0.2498 -1.3112
 1100Sol     MW 7536   2.421   0.046   7.676 -0.1803  0.3434 -0.2819
 1101Sol     OW 7537   2.949   3.314   8.911  0.0636  0.2659 -0.0480
 1101Sol     HW 7538   3.038   3.344   8.891 -0.1502  1.1681  0.3660
 1101Sol     HW 7539   2.961   3.247   8.979  0.4069  0.5640  0.1850
 1101Sol     MW 7540   2.958   3.311   8.915  0.1056 -0.1361 -0.0340
 1102Sol     OW 7541   2.075   2.723   1.886 -0.3827 -0.1503 -0.4535
 1102Sol     HW 7542   2.051   2.744   1.977  0.1190 -0.6140 -0.2172
 1102Sol     HW 7543   2.039   2.796   1.835  0.2098  0.6328  0.2266
 1102Sol     MW 7544   2.069   2.732   1.890  0.3328  0.1056  0.1635
 1103Sol     OW 7545   0.576   0.401   9.798 -0.1789 -0.1447 -0.5172
 1103Sol     HW 7546   0.566   0.495   9.784 -1.2950 -0.1149  0.4283
 1103Sol     HW 7547   0.602   0.394   9.890 -1.6497 -0.8482 -0.1415
 1103Sol     MW 7548   0.578   0.409   9.805 -0.0531 -0.2213 -0.2453
 1104Sol     OW 7549   0.265   1.948   3.867 -0.2546  0.0927  0.6438
 1104Sol     HW 7550   0.311   2.032   3.859  0.3458 -0.3149 -0.1791
 1104Sol     HW 7551   0.194   1.966   3.929  0.9073  0.7630  1.8072
 1104Sol     MW 7552   0.263   1.957   3.872 -0.0856  0.5277  0.2269
 1105Sol     OW 7553   1.859   0.409   5.540 -0.0898  0.2872  0.6302
 1105Sol     HW 7554   1.803   0.377   5.611 -1.2082 -0.0882 -0.3973
 1105Sol     HW 7555   1.911   0.332   5.515 -1.1371 -0.1373 -0.2952
 1105Sol     MW 7556   1.858   0.399   5.544 -0.2842 -0.0133  0.0628
 1106Sol     OW 7557   0.711   1.300   7.067  0.2240  0.0140 -0.5892
 1106Sol     HW 7558   0.671   1.265   6.988 -0.1590 -0.9637  0.0396
 1106Sol     HW 7559   0.798   1.260   7.070 -0.1894 -0.8428  0.0937
 1106Sol     MW 7560   0.716   1.293   7.060 -0.9560  0.0035  0.3001
 1107Sol     OW 7561   0.313   2.559   8.882  0.3071 -0.0760 -0.1699
 1107Sol     HW 7562   0.387   2.571   8.941  0.0223 -1.8038  0.5933
 1107Sol     HW 7563   0.236   2.563   8.940  0.0852 -2.8628 -0.2025
 1107Sol     MW 7564   0.313   2.560   8.893 -0.4106 -0.1109  0.1690
 1108Sol     OW 7565   0.547   0.638   9.501  0.1715  0.1783 -0.8017
 1108Sol     HW 7566   0.464   0.686   9.500  1.1394  1.8982  0.4505
 1108Sol     HW 7567   0.583   0.653   9.588  3.0368  1.5940 -2.1568
 1108Sol     MW 7568   0.543   0.644   9.509  0.1412  0.1609  0.5226
 1109Sol     OW 7569   2.386   1.645   7.041  0.0931 -0.1038  0.0447
 1109Sol     HW 7570   2.343   1.726   7.014  1.2660  0.3347 -0.5462
 1109Sol     HW 7571   2.337   1.576   6.997 -0.2381  0.3569 -0.3187
 1109Sol     MW 7572   2.378   1.646   7.035  0.1321 -0.5873 -0.4834
 1110Sol     OW 7573   2.182   1.760   5.948  0.2528  0.1190  0.2521
 1110Sol     HW 7574   2.140   1.844   5.966  2.1334  1.0322  0.4911
 1110Sol     HW 7575   2.145   1.732   5.864 -1.8859  0.1825  1.1350
 1110Sol     MW 7576   2.175   1.765   5.942  0.0132  0.4893  0.4974
 1111Sol     OW 7577   0.828   2.583   3.421 -0.4456 -0.2149  0.0355
 1111Sol     HW 7578   0.795   2.496   3.399 -0.1190 -0.1942 -0.5362
 1111Sol     HW 7579   0.918   2.567   3.451  0.2378  0.1233 -1.8017
 1111Sol     MW 7580   0.833   2.573   3.422  0.3506 -0.3849 -0.4768
 1112Sol     OW 7581   2.297   2.513   7.216 -0.0975 -0.1054  1.1059
 1112Sol     HW 7582   2.210   2.498   7.179  0.1915 -0.1805  0.4488
 1112Sol     HW 7583   2.349   2.437   7.187  0.9730  1.3681 -0.9866
 1112Sol     MW 7584   2.294   2.505   7.210  0.4647 -0.3189 -0.3497
 1113Sol     OW 7585   0.293   0.554   9.860 -0.2488 -0.0053  0.1319
 1113Sol     HW 7586   0.372   0.601   9.885 -0.8031  0.9726  0.0503
 1113Sol     HW 7587   0.222   0.613   9.882 -1.1689 -2.1129  3.1450
 1113Sol     MW 7588   0.294   0.563   9.865  0.2380 -0.2068 -0.1105
 1114Sol     OW 7589   2.176   0.534   2.898  0.0243 -0.6411 -0.6664
 1114Sol     HW 7590   2.235   0.538   2.973 -0.4650  1.1992 -0.3451
 1114Sol     HW 7591   2.168   0.625   2.869 -4.1860 -0.5124  0.5305
 1114Sol     MW 7592   2.180   0.543   2.902 -0.2639  0.2509  0.6238
 1115Sol     OW 7593   2.115   2.918   5.193 -0.4418  0.3729  0.0674
 1115Sol     HW 7594   2.145   2.906   5.103 -0.9616  1.6324 -0.2875
 1115Sol     HW 7595   2.194   2.905   5.246  0.2197  1.2246 -0.6835
 1115Sol     MW 7596   2.125   2.916   5.190  0.3911  0.1468 -0.1402
 1116Sol     OW 7597   0.963   2.193   5.983  0.2947  0.4785 -0.2152
 1116Sol     HW 7598   0.871   2.185   6.006  0.5173 -0.7595  0.3047
 1116Sol     HW 7599   0.967   2.268   5.923 -1.3181 -0.6018 -1.7230
 1116Sol     MW 7600   0.955   2.199   5.979 -0.7003  0.4917 -0.3578
 1117Sol     OW 7601   3.295   1.571   9.224 -0.1530  0.2737  0.5062
 1117Sol     HW 7602   3.310   1.533   9.137  1.7290  1.0162  0.4693
 1117Sol     HW 7603   3.220   1.629   9.212  0.6968  1.1252 -0.8972
 1117Sol     MW 7604   3.290   1.573   9.215 -0.0860 -0.0578  1.0072
 1118Sol     OW 7605   0.666   2.072   5.727  0.1275  0.1011 -0.5588
 1118Sol     HW 7606   0.755   2.055   5.695  0.3385 -2.9279  1.4241
 1118Sol     HW 7607   0.679   2.111   5.814 -0.4866 -0.0095 -0.4140
 1118Sol     MW 7608   0.675   2.074   5.732 -0.7199 -0.4094 -0.1021
 1119Sol     OW 7609   1.474   2.766   3.926 -0.2206 -0.3096  0.1369
 1119Sol     HW 7610   1.534   2.834   3.960 -0.1241 -0.3505  0.0469
 1119Sol     HW 7611   1.469   2.702   3.997 -0.6611  0.0140  0.3988
 1119Sol     MW 7612   1.479   2.767   3.936  0.3965 -0.6506  0.0017
 1120Sol     OW 7613   2.371   1.612   5.186  0.5125 -0.5088 -0.2795
 1120Sol     HW 7614   2.280   1.584   5.194  0.9530 -2.6335 -2.4216
 1120Sol     HW 7615   2.423   1.536   5.212  1.7069  0.1937 -0.5325
 1120Sol     MW 7616   2.368   1.603   5.189  0.4772 -0.6501  0.3285
 1121Sol     OW 7617   2.810   0.705   8.065  0.5722 -0.1283 -0.0457
 1121Sol     HW 7618   2.873   0.766   8.027 -0.7542  1.1340 -0.2771
 1121Sol     HW 7619   2.729   0.722   8.017 -0.1632 -1.1195  0.8245
 1121Sol     MW 7620   2.808   0.712   8.057 -0.3029  0.8307 -0.0415
 1122Sol     OW 7621   2.267   1.349   8.613  0.3079 -0.2064 -0.7154
 1122Sol     HW 7622   2.287   1.423   8.670  0.9396 -1.9828  1.4505
 1122Sol     HW 7623   2.324   1.361   8.537  1.2900  0.8759  0.1699
 1122Sol     MW 7624   2.274   1.356   8.611  0.0266 -1.1339  0.6677
 1123Sol     OW 7625   3.212   1.799   3.343  0.2596  0.8681 -0.5101
 1123Sol     HW 7626   3.266   1.877   3.351 -1.3502  1.7791  2.3276
 1123Sol     HW 7627   3.261   1.731   3.390 -1.2969  1.8820  2.7184
 1123Sol     MW 7628   3.221   1.800   3.348 -0.7382 -0.1277  0.4214
 1124Sol     OW 7629   0.648   2.305   3.607  0.5984 -0.4554 -0.6368
 1124Sol     HW 7630   0.566   2.344   3.576 -0.2938 -0.5629  1.5194
 1124Sol     HW 7631   0.689   2.374   3.660 -0.0164 -1.7055  1.5373
 1124Sol     MW 7632   0.644   2.315   3.609  0.1312 -0.0902 -0.4920
 1125Sol     OW 7633   0.776   1.407   4.049  0.1314  0.3235 -0.1651
 1125Sol     HW 7634   0.799   1.474   3.985 -2.3665 -0.0632 -1.4864
 1125Sol     HW 7635   0.743   1.456   4.124  0.0202  0.6287 -0.4151
 1125Sol     MW 7636   0.775   1.417   4.050  0.5140 -0.0238 -0.6702
 1126Sol     OW 7637   2.590   2.140   4.542 -0.0224 -0.0639  0.3617
 1126Sol     HW 7638   2.545   2.102   4.617 -0.5888  0.7850  0.4553
 1126Sol     HW 7639   2.536   2.215   4.517  0.7546  0.3113 -0.2041
 1126Sol     MW 7640   2.581   2.143   4.546  0.3018 -0.4138 -0.1030
 1127Sol     OW 7641   2.532   2.349   7.571  0.4418 -0.3284 -0.6310
 1127Sol     HW 7642   2.499   2.312   7.652 -0.0162  0.8767 -0.2587
 1127Sol     HW 7643   2.604   2.290   7.546  0.3281 -0.9370  0.4190
 1127Sol     MW 7644   2.536   2.340   7.576 -0.3852  0.6764  0.0261
 1128Sol     OW 7645   1.451   2.580   4.156  0.3508  0.5414  0.2510
 1128Sol     HW 7646   1.461   2.641   4.229  1.4652  0.5935  0.0619
 1128Sol     HW 7647   1.530   2.527   4.158  0.5199  0.7289 -1.0889
 1128Sol     MW 7648   1.459   2.581   4.163 -0.1723 -0.4129  0.1644
 1129Sol     OW 7649   1.369   3.246   8.388 -0.8200 -0.1358  0.5183
 1129Sol     HW 7650   1.445   3.303   8.390  0.3562 -1.6938  0.9227
 1129Sol     HW 7651   1.358   3.218   8.479 -0.1323 -2.1596  0.0065
 1129Sol     MW 7652   1.375   3.249   8.397  0.4476 -0.2537  0.2450
 1130Sol     OW 7653   2.342   2.210   8.907  0.2246 -1.0523  0.1020
 1130Sol     HW 7654   2.413   2.274   8.894 -0.1113 -0.6692  0.1371
 1130Sol     HW 7655   2.312   2.189   8.819 -0.6454 -0.0461  0.1480
 1130Sol     MW 7656   2.346   2.214   8.898  0.2120 -0.2959  0.4905
 1131Sol     OW 7657   0.092   0.944   6.926 -0.0325  0.4546  0.2990
 1131Sol     HW 7658   0.126   0.974   7.010  0.7664  0.3039  0.0394
 1131Sol     HW 7659   0.017   0.889   6.948  0.8682 -0.5285  0.9833
 1131Sol     MW 7660   0.088   0.942   6.935  0.0567 -0.4754 -0.6903
 1132Sol     OW 7661   2.917   1.907   7.754 -0.2214  0.4177  0.0819
 1132Sol     HW 7662   2.907   1.838   7.819 -1.1934  0.6788  0.2120
 1132Sol     HW 7663   2.901   1.863   7.670  0.6265  0.1723  0.0387
 1132Sol     MW 7664   2.915   1.897   7.752 -0.1192  0.4968 -0.5280
 1133Sol     OW 7665   1.938   2.005   9.310  0.2352  0.1049  0.4380
 1133Sol     HW 7666   1.997   2.031   9.239 -0.4573 -0.2662 -0.2831
 1133Sol     HW 7667   1.890   2.085   9.332 -1.2676 -0.3092 -1.1787
 1133Sol     MW 7668   1.939   2.015   9.305 -0.4886  0.2100 -0.2022
 1134Sol     OW 7669   2.292   2.476   3.777  0.1657 -0.9051  0.1458
 1134Sol     HW 7670   2.280   2.569   3.794  4.4415 -0.4591  1.3821
 1134Sol     HW 7671   2.222   2.432   3.825 -1.0300  1.5778  0.7047
 1134Sol     MW 7672   2.285   2.480   3.782 -0.2252 -0.3947  0.6283
 1135Sol     OW 7673   1.144   1.059   4.241 -0.4380 -0.3632 -1.1323
 1135Sol     HW 7674   1.065   1.055   4.295  0.3015  0.8479  0.0701
 1135Sol     HW 7675   1.132   1.138   4.188 -0.0156 -0.1747 -0.9412
 1135Sol     MW 7676   1.135   1.066   4.241 -0.4711  0.5505  0.3894
 1136Sol     OW 7677   1.185   0.357   6.055 -0.2894  0.4700 -0.1474
 1136Sol     HW 7678   1.102   0.310   6.056 -0.1286  0.0905 -2.4067
 1136Sol     HW 7679   1.180   0.414   5.979  1.7370  0.0568 -0.6402
 1136Sol     MW 7680   1.177   0.358   6.049 -0.0857  0.2398 -0.3109
 1137Sol     OW 7681   0.172   2.383   8.210  0.2411 -0.3567  0.2835
 1137Sol     HW 7682   0.176   2.301   8.160 -0.6297 -1.0729  1.3618
 1137Sol     HW 7683   0.210   2.361   8.295  0.2235  0.4347  0.4981
 1137Sol     MW 7684   0.176   2.373   8.213 -0.3271 -0.2942 -0.1103
 1138Sol     OW 7685   0.596   0.676   7.791 -0.4694 -0.1665 -0.1672
 1138Sol     HW 7686   0.551   0.595   7.768  0.5840 -1.0174  0.7066
 1138Sol     HW 7687   0.672   0.679   7.732  0.6090 -0.8529  1.1748
 1138Sol     MW 7688   0.599   0.669   7.783  0.4548 -0.2541 -0.6906
 1139Sol     OW 7689   0.039   2.070   6.862  0.1810  0.1267 -0.7407
 1139Sol     HW 7690  -0.042   2.068   6.812 -0.2672  0.3599 -0.0266
 1139Sol     HW 7691   0.042   1.986   6.908  0.3994  0.0694 -0.8585
 1139Sol     MW 7692   0.032   2.062   6.862 -0.2645 -0.2032  0.5709
 1140Sol     OW 7693   2.831   2.229   7.504  0.1791 -0.1669 -0.1881
 1140Sol     HW 7694   2.914   2.182   7.511  0.1727 -0.6469 -2.9109
 1140Sol     HW 7695   2.847   2.296   7.438 -1.8799 -0.9696 -1.5605
 1140Sol     MW 7696   2.840   2.231   7.499  0.1750 -0.1353  0.0891
 1141Sol     OW 7697   1.025   1.359   6.033 -0.5502 -0.0959  0.0567
 1141Sol     HW 7698   1.016   1.453   6.048  1.7402  0.3639 -1.3266
 1141Sol     HW 7699   1.115   1.339   6.058 -0.9141 -1.8790  0.0348
 1141Sol     MW 7700   1.032   1.366   6.037  0.1194  0.3131 -0.9056
 1142Sol     OW 7701   0.922   0.310   6.040  0.0346 -0.5917 -0.4398
 1142Sol     HW 7702   0.901   0.346   6.127  1.6354 -1.5900  0.3786
 1142Sol     HW 7703   0.841   0.322   5.990 -0.9032  0.0581  1.1610
 1142Sol     MW 7704   0.913   0.314   6.044 -0.3333  0.3456 -0.3861
 1143Sol     OW 7705   0.415   1.697   9.037 -0.2848  0.3445 -0.1619
 1143Sol     HW 7706   0.429   1.708   9.131 -1.2804 -2.4924  0.3828
 1143Sol     HW 7707   0.322   1.712   9.024 -0.5174 -1.1323 -0.3428
 1143Sol     MW 7708   0.408   1.699   9.044 -0.1117 -0.0242  0.2381
 1144Sol     OW 7709   2.977   1.240   7.968  0.8846  0.3881  0.4221
 1144Sol     HW 7710   2.967   1.289   8.050  0.4158  0.0846  0.5510
 1144Sol     HW 7711   3.053   1.280   7.925  1.1537  0.5291  1.0185
 1144Sol     MW 7712   2.983   1.248   7.972 -0.1063 -0.5203  0.0745
 1145Sol     OW 7713   2.126   1.845   2.745  0.6311 -0.1365 -0.2443
 1145Sol     HW 7714   2.180   1.767   2.748  1.8158  0.7110  0.7011
 1145Sol     HW 7715   2.049   1.823   2.798  0.3814 -1.0743 -0.9790
 1145Sol     MW 7716   2.124   1.836   2.750  0.2036 -0.6932  0.6039
 1146Sol     OW 7717   1.476   1.337   3.031  0.0462 -0.0328 -0.2582
 1146Sol     HW 7718   1.396   1.330   3.083  0.3280 -1.8075 -0.0278
 1146Sol     HW 7719   1.449   1.312   2.942  0.5200 -1.6300  0.0230
 1146Sol     MW 7720   1.466   1.334   3.028  0.4166  0.1857 -0.6242
 1147Sol     OW 7721   2.220   0.442   9.100 -0.1384  0.4592  0.2016
 1147Sol     HW 7722   2.127   0.435   9.119 -0.6492 -0.3962 -2.4416
 1147Sol     HW 7723   2.255   0.355   9.121 -0.5332 -0.1896 -1.6929
 1147Sol     MW 7724   2.215   0.433   9.104  0.1886 -0.0477  0.6393
 1148Sol     OW 7725   1.368   3.348   4.179 -0.3035 -0.5543 -0.7219
 1148Sol     HW 7726   1.380   3.280   4.246 -1.3962  0.7000  0.7705
 1148Sol     HW 7727   1.274   3.356   4.171 -0.1842  1.3207 -0.3417
 1148Sol     MW 7728   1.361   3.342   4.184 -0.3659 -0.6672 -0.2132
 1149Sol     OW 7729   3.221   2.978   3.605  0.3642 -0.3191  0.0184
 1149Sol     HW 7730   3.265   3.060   3.580 -0.4422  0.1182  0.0136
 1149Sol     HW 7731   3.285   2.910   3.585  1.3159  0.3674  0.7062
 1149Sol     MW 7732   3.231   2.979   3.601 -0.0049  0.2923 -0.0356
 1150Sol     OW 7733   2.667   1.408   8.653 -0.7057 -0.2353 -0.0738
 1150Sol     HW 7734   2.735   1.465   8.690  1.3552 -1.4812 -1.7784
 1150Sol     HW 7735   2.617   1.377   8.729  1.0427  0.2146  1.2950
 1150Sol     MW 7736   2.669   1.411   8.663  0.6426  0.2075 -0.2102
 1151Sol     OW 7737   0.663   0.969   7.501  0.8846 -0.0701  0.2454
 1151Sol     HW 7738   0.606   0.987   7.576  0.9964 -0.3514  0.4013
 1151Sol     HW 7739   0.752   0.986   7.533  1.0359 -1.3300  0.5495
 1151Sol     MW 7740   0.666   0.972   7.511 -0.0850 -0.7206  0.0284
 1152Sol     OW 7741   2.385   0.232   9.192 -0.3115 -0.2308  0.2846
 1152Sol     HW 7742   2.353   0.210   9.280  3.0037  0.7516  1.7901
 1152Sol     HW 7743   2.446   0.161   9.171 -1.9322 -1.0728 -1.7710
 1152Sol     MW 7744   2.387   0.223   9.198 -0.7695  0.2031 -0.0541
 1153Sol     OW 7745   1.932   1.048   5.304  0.2947  0.3319 -0.5323
 1153Sol     HW 7746   1.971   0.993   5.236  2.0134 -0.1817  0.8089
 1153Sol     HW 7747   1.866   0.991   5.345  0.8426 -0.1342 -0.2912
 1153Sol     MW 7748   1.930   1.038   5.302  0.0450 -0.0224  0.1219
 1154Sol     OW 7749   0.013   0.840   5.653 -0.0484  0.2367 -0.3807
 1154Sol     HW 7750  -0.042   0.818   5.578 -0.0238 -2.4535  0.3626
 1154Sol     HW 7751  -0.039   0.816   5.730  1.4622 -0.6896  0.3694
 1154Sol     MW 7752   0.003   0.836   5.653  0.4092  0.0466 -0.3522
 1155Sol     OW 7753   0.006   2.052   4.010  0.0583  0.2747  0.5258
 1155Sol     HW 7754  -0.078   2.011   3.989  0.5498 -0.1173 -0.7625
 1155Sol     HW 7755   0.019   2.034   4.103 -0.3480 -1.3789  0.2723
 1155Sol     MW 7756  -0.001   2.047   4.016  0.1078 -0.0952  0.1005
 1156Sol     OW 7757   0.232   3.244   6.047 -0.2760  0.5634 -0.5571
 1156Sol     HW 7758   0.263   3.325   6.006 -1.5721  0.5893 -1.5257
 1156Sol     HW 7759   0.213   3.186   5.973 -0.2854 -0.2902  0.1041
 1156Sol     MW 7760   0.233   3.246   6.036  0.4076  0.1647 -0.0548
 1157Sol     OW 7761   0.038   0.883   3.476  0.2233 -0.1048  0.2606
 1157Sol     HW 7762   0.101   0.908   3.544 -0.4740  0.8838  0.5614
 1157Sol     HW 7763  -0.008   0.964   3.455 -0.4031 -0.6524 -0.5247
 1157Sol     MW 7764   0.039   0.892   3.480  0.1208 -0.3279 -0.2697
 1158Sol     OW 7765   1.633   1.575   7.028  0.0284 -0.0216  0.4095
 1158Sol     HW 7766   1.543   1.609   7.026 -0.5219 -1.4406  0.0238
 1158Sol     HW 7767   1.682   1.640   7.077 -1.0078  1.2701 -0.2173
 1158Sol     MW 7768   1.629   1.584   7.032  0.1241 -0.7239 -0.0698
 1159Sol     OW 7769   1.430   0.093   9.060  0.3066 -0.4833  0.1514
 1159Sol     HW 7770   1.477   0.133   9.133  0.5593 -0.2056 -0.1647
 1159Sol     HW 7771   1.492   0.096   8.987 -0.2843  0.0910 -0.3302
 1159Sol     MW 7772   1.439   0.097   9.060  0.1408  0.6889  0.0506
 1160Sol     OW 7773   1.116   1.277   5.219 -0.1343  0.1291  0.1296
 1160Sol     HW 7774   1.033   1.305   5.256 -0.3618 -0.4564  0.0708
 1160Sol     HW 7775   1.099   1.266   5.125  0.1550  0.5556  0.0261
 1160Sol     MW 7776   1.107   1.278   5.214  0.6449 -0.2165 -0.1825
 1161Sol     OW 7777   0.267   1.804   2.971  0.3030 -0.4036  0.7059
 1161Sol     HW 7778   0.328   1.789   2.899 -1.3148  1.1449 -1.0582
 1161Sol     HW 7779   0.319   1.850   3.037  1.3066  0.0413 -0.3601
 1161Sol     MW 7780   0.277   1.807   2.970  0.3495 -0.1071 -0.9712
 1162Sol     OW 7781   0.310   0.837   2.369 -0.4119  0.3480  0.1859
 1162Sol     HW 7782   0.248   0.820   2.440 -1.0777  3.1883  0.3464
 1162Sol     HW 7783   0.256   0.854   2.292  0.3039 -2.3790 -0.9914
 1162Sol     MW 7784   0.300   0.837   2.368  0.3891  0.1605 -0.2571
 1163Sol     OW 7785   0.324   1.358   4.991  0.3402  0.2877  0.0724
 1163Sol     HW 7786   0.273   1.333   5.068  0.9409  0.1965  0.4462
 1163Sol     HW 7787   0.409   1.317   5.004  0.7732  1.0950 -0.1477
 1163Sol     MW 7788   0.327   1.352   4.999 -0.1457 -0.7103  0.3802
 1164Sol     OW 7789   3.137   3.202   3.004  0.1078 -0.0939  0.9339
 1164Sol     HW 7790   3.050   3.241   3.002 -0.4759 -1.3746  0.9307
 1164Sol     HW 7791   3.197   3.276   2.993 -1.0289  0.5913 -0.7742
 1164Sol     MW 7792   3.134   3.213   3.003  0.2901 -0.4191 -0.5382
 1165Sol     OW 7793   2.187   1.612   9.002  0.2196  0.1217 -0.1156
 1165Sol     HW 7794   2.208   1.702   8.977  0.3773  0.4216  1.0693
 1165Sol     HW 7795   2.093   1.603   8.985 -0.2109  1.1458  1.6463
 1165Sol     MW 7796   2.181   1.619   8.998  0.1419 -0.2077  0.2335
 1166Sol     OW 7797   0.302   0.063   5.986 -0.2244  0.3979  0.6308
 1166Sol     HW 7798   0.246   0.137   5.964 -0.7664  0.0583  0.8647
 1166Sol     HW 7799   0.305   0.062   6.082 -2.3746 -1.4706  0.7167
 1166Sol     MW 7800   0.298   0.069   5.993  0.1407  0.5784  0.8135
 1167Sol     OW 7801   0.716   3.168   4.290  0.1371 -0.5040 -0.4048
 1167Sol     HW 7802   0.715   3.144   4.198 -0.2604  0.1862 -0.5800
 1167Sol     HW 7803   0.627   3.200   4.308  0.8341  1.4322 -0.3264
 1167Sol     MW 7804   0.708   3.169   4.284  0.5515  0.4180 -0.5842
 1168Sol     OW 7805   1.340   1.128   1.502 -0.3100  0.0714  0.1690
 1168Sol     HW 7806   1.328   1.223   1.505 -0.6096  0.0946 -1.1936
 1168Sol     HW 7807   1.413   1.111   1.562 -1.2111  0.9748  1.5529
 1168Sol     MW 7808   1.346   1.135   1.507  0.1457 -0.0387  0.1395
 1169Sol     OW 7809   0.816   1.870   7.660 -0.0021  0.2856  0.2551
 1169Sol     HW 7810   0.840   1.882   7.568 -1.2084  0.4609 -0.0509
 1169Sol     HW 7811   0.800   1.959   7.692 -3.5577  0.0021 -0.5030
 1169Sol     MW 7812   0.816   1.879   7.655  0.0781 -0.1861 -0.2704
 1170Sol     OW 7813   0.511   3.426   3.306  0.0052  0.5271 -0.4790
 1170Sol     HW 7814   0.573   3.499   3.313 -1.6538  1.7995  1.4671
 1170Sol     HW 7815   0.490   3.421   3.213  1.5104  1.3705 -0.8773
 1170Sol     MW 7816   0.515   3.432   3.299  0.0596  0.0523  0.4412
 1171Sol     OW 7817   1.859   2.388   4.981  0.1136 -0.2629  0.2398
 1171Sol     HW 7818   1.854   2.464   5.039 -0.3364  0.1005 -0.2782
 1171Sol     HW 7819   1.888   2.317   5.038  0.6084  0.3128  0.7098
 1171Sol     MW 7820   1.861   2.389   4.992  0.0689 -0.5836 -0.0755
 1172Sol     OW 7821   2.296   2.490   2.341  0.0677 -0.0014 -0.1832
 1172Sol     HW 7822   2.264   2.401   2.327  1.2767 -0.6273  0.8948
 1172Sol     HW 7823   2.324   2.520   2.255 -2.1497  0.0811 -0.9130
 1172Sol     MW 7824   2.295   2.485   2.332 -0.3856  0.1602 -0.0780
 1173Sol     OW 7825   1.030   0.748   1.974 -0.3752  0.0605 -0.2440
 1173Sol     HW 7826   1.024   0.841   1.996  2.5419 -0.0341  1.2653
 1173Sol     HW 7827   1.007   0.703   2.056  0.1256 -0.4862 -0.3972
 1173Sol     MW 7828   1.027   0.752   1.984  0.3409  0.1174  0.4828
 1174Sol     OW 7829   1.425   1.781   7.743 -0.2839 -0.4900  0.9202
 1174Sol     HW 7830   1.518   1.794   7.758 -0.1561 -0.8291  0.4334
 1174Sol     HW 7831   1.412   1.794   7.649 -0.7714 -0.1784  1.0277
 1174Sol     MW 7832   1.432   1.783   7.736  0.6076 -0.5006 -0.8416
 1175Sol     OW 7833   2.774   0.631   6.470 -0.1081 -0.2305  0.0532
 1175Sol     HW 7834   2.841   0.604   6.533 -1.1990 -0.6580  1.0404
 1175Sol     HW 7835   2.754   0.722   6.495  1.3546  0.5113 -1.3535
 1175Sol     MW 7836   2.778   0.637   6.478 -0.5034 -0.6110 -0.1432
 1176Sol     OW 7837   2.242   1.894   7.004  0.1213 -0.2073 -0.3056
 1176Sol     HW 7838   2.296   1.962   6.963  0.6645  0.1580  0.9964
 1176Sol     HW 7839   2.171   1.879   6.941  0.0322  1.5146 -0.6521
 1176Sol     MW 7840   2.240   1.899   6.995  0.0443 -0.3799  0.0223
 1177Sol     OW 7841   1.233   0.142   2.983 -0.4773 -0.2709  0.5146
 1177Sol     HW 7842   1.287   0.151   2.905  0.5685  1.8163  1.4304
 1177Sol     HW 7843   1.282   0.081   3.039 -1.0823 -1.5357 -0.3331
 1177Sol     MW 7844   1.243   0.137   2.981  0.0104  0.4434  0.3262
 1178Sol     OW 7845   0.851   3.397   2.232 -0.3012  0.0729 -0.0012
 1178Sol     HW 7846   0.827   3.379   2.323 -2.1829 -1.2496 -0.7175
 1178Sol     HW 7847   0.919   3.464   2.238  0.6750 -1.0662  2.4353
 1178Sol     MW 7848   0.855   3.401   2.241  0.0548 -0.3716 -0.6518
 1179Sol     OW 7849   1.230   0.128   4.030  0.0194 -0.5887  0.3982
 1179Sol     HW 7850   1.254   0.210   4.073 -0.9907  0.1776 -0.4571
 1179Sol     HW 7851   1.179   0.081   4.095  0.3516 -0.4031  0.7932
 1179Sol     MW 7852   1.227   0.131   4.039 -0.2892 -0.0599 -0.5446
 1180Sol     OW 7853   0.912   2.065   5.598  0.4238 -0.0740  0.2545
 1180Sol     HW 7854   1.000   2.028   5.608 -0.4610 -1.9896  1.2612
 1180Sol     HW 7855   0.869   2.010   5.533 -0.3994  0.1615  0.5875
 1180Sol     MW 7856   0.916   2.057   5.593  0.2180 -0.2234  1.0954
 1181Sol     OW 7857   0.983   0.513   7.788  0.1535 -0.4424 -0.6708
 1181Sol     HW 7858   0.975   0.434   7.841 -0.2747  0.5740  0.8050
 1181Sol     HW 7859   1.073   0.511   7.755  0.8068 -0.5038  1.0679
 1181Sol     MW 7860   0.991   0.506   7.790 -0.3137 -0.2328 -0.3626
 1182Sol     OW 7861   2.162   1.296   6.192  0.5472 -0.2299  0.0399
 1182Sol     HW 7862   2.198   1.384   6.178  2.3172 -1.1495 -1.2727
 1182Sol     HW 7863   2.227   1.251   6.245 -0.6806 -0.5730  1.3081
 1182Sol     MW 7864   2.171   1.300   6.196 -0.2938  0.0584 -0.3413
 1183Sol     OW 7865   2.790   2.030   3.702  0.5111  0.0957  0.1616
 1183Sol     HW 7866   2.872   2.071   3.677 -0.4483  1.0100 -1.5808
 1183Sol     HW 7867   2.726   2.101   3.704 -0.5135 -0.7999  0.2124
 1183Sol     MW 7868   2.792   2.040   3.700  0.2181  0.1119  0.0703
 1184Sol     OW 7869   2.581   0.564   8.995 -0.6322 -0.0670 -0.2619
 1184Sol     HW 7870   2.614   0.638   9.045 -0.9499  0.0488 -0.2211
 1184Sol     HW 7871   2.606   0.487   9.046 -0.5677  0.0285 -0.1506
 1184Sol     MW 7872   2.586   0.563   9.004 -0.2401  0.5090  0.2973
 1185Sol     OW 7873   3.209   0.369   6.761  0.5630 -0.1311 -0.0459
 1185Sol     HW 7874   3.137   0.349   6.821 -0.9851  0.2964 -1.7158
 1185Sol     HW 7875   3.267   0.426   6.812 -1.2226  1.0381  0.7213
 1185Sol     MW 7876   3.208   0.372   6.771  0.2608  0.5422  0.2672
 1186Sol     OW 7877   2.164   3.113   7.115  0.2157 -0.4297 -0.5546
 1186Sol     HW 7878   2.116   3.196   7.107  2.0299  0.6522 -0.6665
 1186Sol     HW 7879   2.134   3.061   7.041 -0.6453  0.3013 -0.7275
 1186Sol     MW 7880   2.157   3.116   7.107  0.2724  0.0013 -0.1064
 1187Sol     OW 7881   1.121   3.319   1.939  0.6026  0.3286 -0.4666
 1187Sol     HW 7882   1.178   3.387   1.977  0.2329  0.3811  0.0023
 1187Sol     HW 7883   1.154   3.237   1.976 -0.1634  0.4404  0.4891
 1187Sol     MW 7884   1.129   3.318   1.946  1.0356 -0.4554  0.4023
 1188Sol     OW 7885   0.910   0.718   3.025  0.0209  0.0633  0.1920
 1188Sol     HW 7886   1.002   0.704   3.047 -0.2738 -0.3662  1.1830
 1188Sol     HW 7887   0.862   0.660   3.085 -0.9852  1.6770  0.9654
 1188Sol     MW 7888   0.914   0.711   3.032  0.3687 -0.2823  0.3054
 1189Sol     OW 7889   2.319   1.001   8.037 -0.1771  0.1893 -0.0047
 1189Sol     HW 7890   2.284   0.922   8.078  0.0081  0.7236  1.2106
 1189Sol     HW 7891   2.242   1.042   7.997 -0.0891 -1.1563 -1.6132
 1189Sol     MW 7892   2.309   0.998   8.037 -0.1775 -0.0817 -0.6313
 1190Sol     OW 7893   0.335   0.399   6.527  0.3918 -0.4291 -0.3385
 1190Sol     HW 7894   0.284   0.461   6.578  1.9728  1.2413 -0.7502
 1190Sol     HW 7895   0.423   0.402   6.565  0.6823 -1.8698 -0.8455
 1190Sol     MW 7896   0.338   0.405   6.535  0.6240 -0.0265  0.1687
 1191Sol     OW 7897   1.609   1.533   8.203  0.1559 -0.4006  0.1686
 1191Sol     HW 7898   1.629   1.473   8.130 -0.8948 -0.0776 -0.3890
 1191Sol     HW 7899   1.678   1.599   8.197  1.2637 -1.4690  0.7222
 1191Sol     MW 7900   1.617   1.533   8.196 -0.2678  0.0451 -0.2628
 1192Sol     OW 7901   2.757   0.926   3.135  0.5721 -0.4573 -0.7324
 1192Sol     HW 7902   2.664   0.939   3.151  0.7654 -1.1109  1.1237
 1192Sol     HW 7903   2.785   1.004   3.087 -1.2575 -1.0573 -2.8379
 1192Sol     MW 7904   2.752   0.934   3.132 -0.7742  0.1467  0.0846
 1193Sol     OW 7905   2.258   1.572   1.818  0.4822  0.2240  0.2488
 1193Sol     HW 7906   2.193   1.625   1.774  0.4609  0.2362  0.2953
 1193Sol     HW 7907   2.218   1.485   1.825 -0.5620  0.8732  2.6002
 1193Sol     MW 7908   2.249   1.569   1.814  0.0479  0.3333 -0.2669
 1194Sol     OW 7909   2.984   2.519   7.277 -0.2429 -0.4290  1.1813
 1194Sol     HW 7910   2.972   2.536   7.371  0.5476  0.6601  1.0893
 1194Sol     HW 7911   3.057   2.458   7.273  0.0420 -0.0945  1.2507
 1194Sol     MW 7912   2.989   2.515   7.285 -0.2614  0.0324  0.4645
 1195Sol     OW 7913   2.417   1.949   2.698  0.3711  0.0570 -0.1323
 1195Sol     HW 7914   2.322   1.952   2.712  0.3879  0.6803 -0.1816
 1195Sol     HW 7915   2.453   1.925   2.783  0.0561 -1.8094 -0.4963
 1195Sol     MW 7916   2.411   1.947   2.707  0.1089 -0.1474 -0.0525
 1196Sol     OW 7917   0.362   0.952   5.126  0.1206  0.6097 -0.4883
 1196Sol     HW 7918   0.447   0.910   5.135 -0.1215  0.1634 -0.2987
 1196Sol     HW 7919   0.311   0.920   5.201  0.3786  2.2834  0.4243
 1196Sol     MW 7920   0.365   0.946   5.134  0.1510  0.5405 -0.0197
 1197Sol     OW 7921   1.636   2.891   3.463 -1.1594 -0.2189  0.6523
 1197Sol     HW 7922   1.637   2.848   3.548  1.9557 -2.8019 -0.5958
 1197Sol     HW 7923   1.699   2.963   3.472 -3.3745  1.6599  1.5151
 1197Sol     MW 7924   1.642   2.894   3.471  0.0526  0.0850  0.1339
 1198Sol     OW 7925   0.045   1.805   6.497 -0.5374 -0.1233 -0.1746
 1198Sol     HW 7926   0.055   1.716   6.532 -0.5892 -0.5935 -1.3220
 1198Sol     HW 7927   0.097   1.804   6.417 -0.7760  0.7967 -0.3388
 1198Sol     MW 7928   0.050   1.797   6.493 -0.1817 -0.2117 -0.0641
 1199Sol     OW 7929   1.414   0.932   6.391  0.1044 -0.3220  0.1438
 1199Sol     HW 7930   1.500   0.916   6.430 -0.0243  0.7538  0.9097
 1199Sol     HW 7931   1.354   0.875   6.440 -0.1685  1.5369  2.0413
 1199Sol     MW 7932   1.416   0.926   6.399 -0.1700  0.6837  0.4888
 1200Sol     OW 7933   2.510   0.461   1.817 -0.0608  0.4545  0.7579
 1200Sol     HW 7934   2.521   0.544   1.771 -2.2488  0.9149  1.0079
 1200Sol     HW 7935   2.470   0.403   1.751 -2.6113  0.9256  1.8209
 1200Sol     MW 7936   2.507   0.463   1.807  0.2763  0.4703  0.1176
 1201Sol     OW 7937   1.297   1.872   3.555  0.6543  0.4844  0.0471
 1201Sol     HW 7938   1.261   1.843   3.471  0.9241  1.1143 -0.2874
 1201Sol     HW 7939   1.241   1.830   3.620 -1.8279  2.8040 -0.4839
 1201Sol     MW 7940   1.288   1.865   3.553  0.4557 -0.2298  0.4186
 1202Sol     OW 7941   2.735   1.772   3.868 -0.1233  0.4641 -0.3180
 1202Sol     HW 7942   2.639   1.770   3.872 -0.0692  1.3426  2.7676
 1202Sol     HW 7943   2.756   1.862   3.843 -0.0677  0.6574  0.4342
 1202Sol     MW 7944   2.728   1.779   3.866  0.0446  0.1605 -0.2364
 1203Sol     OW 7945   2.608   3.012   2.591  0.3888 -0.4345  0.3120
 1203Sol     HW 7946   2.555   3.015   2.511 -2.3522 -0.2449  2.0592
 1203Sol     HW 7947   2.578   3.087   2.641  2.9341  0.1237  1.0269
 1203Sol     MW 7948   2.600   3.019   2.588  0.2237  0.4599 -0.0367
 1204Sol     OW 7949   1.971   1.466   8.212  0.0909  0.0600 -0.1629
 1204Sol     HW 7950   1.914   1.542   8.225  0.0044 -0.0292 -0.0163
 1204Sol     HW 7951   2.058   1.497   8.236  0.2081  0.3719 -0.9693
 1204Sol     MW 7952   1.974   1.476   8.215 -0.4849  0.2804  0.0374
 1205Sol     OW 7953   0.400   1.730   3.937 -0.0988  0.0188  0.1044
 1205Sol     HW 7954   0.356   1.714   4.020  0.2667 -0.8412  0.1370
 1205Sol     HW 7955   0.357   1.809   3.902 -1.3655 -0.5574  0.3340
 1205Sol     MW 7956   0.392   1.736   3.941 -0.0321  0.2562 -0.3901
 1206Sol     OW 7957   1.997   1.127   4.454  0.2973 -0.3185  0.3918
 1206Sol     HW 7958   2.049   1.156   4.528  1.0119 -2.1539  0.6363
 1206Sol     HW 7959   2.049   1.152   4.377  0.4462 -0.1010  0.5610
 1206Sol     MW 7960   2.006   1.132   4.453 -0.0673 -0.1670 -0.1986
 1207Sol     OW 7961   2.104   0.013   3.430  0.2093 -0.0637  0.3315
 1207Sol     HW 7962   2.198   0.027   3.440  0.7128 -0.4076 -3.2422
 1207Sol     HW 7963   2.095  -0.032   3.346 -3.3783  2.9181 -1.0553
 1207Sol     MW 7964   2.112   0.010   3.424  0.1409  0.5659 -0.0888
 1208Sol     OW 7965   2.969   1.880   5.531 -0.1373 -0.9146  0.0118
 1208Sol     HW 7966   3.018   1.892   5.450 -1.6618  0.6433 -0.6926
 1208Sol     HW 7967   2.880   1.857   5.503 -0.8067  0.1087  1.2081
 1208Sol     MW 7968   2.965   1.879   5.521 -0.7762 -0.5050  0.0094
 1209Sol     OW 7969   0.389   3.077   8.239 -0.1607 -0.1663 -0.1550
 1209Sol     HW 7970   0.374   2.983   8.229  0.9202 -0.1849 -1.7750
 1209Sol     HW 7971   0.466   3.084   8.296 -0.5600 -0.2399  0.4014
 1209Sol     MW 7972   0.395   3.069   8.243  0.0465 -0.7414  0.0106
 1210Sol     OW 7973   0.260   0.665   8.444  0.1283  0.0886 -0.0731
 1210Sol     HW 7974   0.179   0.701   8.482 -0.2547 -1.2379  0.3784
 1210Sol     HW 7975   0.328   0.688   8.507 -0.0812  0.2060  0.1131
 1210Sol     MW 7976   0.259   0.670   8.453 -0.6040  0.0633  0.0144
 1211Sol     OW 7977   0.880   1.806   5.085  0.0505  0.5928  0.4979
 1211Sol     HW 7978   0.881   1.887   5.135 -0.5568  1.5758 -1.0552
 1211Sol     HW 7979   0.788   1.780   5.083  0.0541  0.6335 -0.2312
 1211Sol     MW 7980   0.872   1.811   5.089 -0.0897  0.3996 -0.2709
 1212Sol     OW 7981   1.705   0.072   2.791  0.0695 -0.2546  0.2919
 1212Sol     HW 7982   1.711   0.154   2.742 -0.3564 -0.0785  0.5303
 1212Sol     HW 7983   1.795   0.054   2.820  0.8706 -1.8763 -3.0017
 1212Sol     MW 7984   1.714   0.078   2.789 -0.0053  0.2241  0.2905
 1213Sol     OW 7985   1.336   0.950   5.375  0.9455 -0.7181 -0.2091
 1213Sol     HW 7986   1.327   1.044   5.393 -1.6761 -0.8792 -0.4520
 1213Sol     HW 7987   1.399   0.919   5.440 -0.0623  0.7666  1.5323
 1213Sol     MW 7988   1.341   0.955   5.382 -0.1644  0.1322 -0.1551
 1214Sol     OW 7989   1.718   2.771   7.484  0.3937  0.0451  0.0144
 1214Sol     HW 7990   1.630   2.742   7.460 -0.1764  2.1958 -0.5801
 1214Sol     HW 7991   1.705   2.857   7.523  2.0304 -0.4872  1.8443
 1214Sol     MW 7992   1.709   2.776   7.486  0.4625 -0.1799 -0.3571
 1215Sol     OW 7993   3.225   2.434   9.431  0.1334 -0.1321  0.0476
 1215Sol     HW 7994   3.190   2.345   9.431 -1.1157  0.3435  0.3114
 1215Sol     HW 7995   3.148   2.490   9.418  0.7563  0.9553  0.9380
 1215Sol     MW 7996   3.215   2.431   9.430  0.2225 -0.3078  0.3241
 1216Sol     OW 7997   2.648   1.675   6.618  0.4955 -0.3350 -0.3014
 1216Sol     HW 7998   2.732   1.712   6.647  0.2018  1.0804 -1.1511
 1216Sol     HW 7999   2.639   1.593   6.666  1.3284  0.5695  1.4337
 1216Sol     MW 8000   2.655   1.671   6.625  0.1316 -0.1047  0.5564
 1217Sol     OW 8001   0.360   2.264   2.910  0.3438 -1.2502 -0.4057
 1217Sol     HW 8002   0.289   2.218   2.865  0.3030  0.5898 -2.3095
 1217Sol     HW 8003   0.322   2.348   2.936  1.6839 -0.4297 -1.0566
 1217Sol     MW 8004   0.350   2.267   2.908  0.0524  0.3928  0.4496
 1218Sol     OW 8005   1.024   1.729   8.193  0.4725  0.2856 -0.1864
 1218Sol     HW 8006   1.091   1.698   8.255  0.1156 -0.1230 -0.0021
 1218Sol     HW 8007   0.950   1.671   8.208 -0.2086  1.2378  0.1472
 1218Sol     MW 8008   1.024   1.721   8.200 -0.0458  0.4880  0.4056
 1219Sol     OW 8009   3.275   2.669   2.137  0.2386  0.1785 -0.0485
 1219Sol     HW 8010   3.188   2.675   2.100  0.6732 -0.5781 -1.2088
 1219Sol     HW 8011   3.324   2.614   2.076  1.4776  0.4514  0.6752
 1219Sol     MW 8012   3.272   2.665   2.129  0.4710 -0.7672  0.3672
 1220Sol     OW 8013   3.213   0.195   3.446  0.7834  0.1307 -0.4432
 1220Sol     HW 8014   3.174   0.275   3.411  2.0153  0.6331 -0.7118
 1220Sol     HW 8015   3.214   0.208   3.541 -2.9278 -1.4013 -0.1251
 1220Sol     MW 8016   3.210   0.204   3.451  0.2021  0.5637  0.2868
 1221Sol     OW 8017   0.436   0.147   2.417 -0.3611  0.0866 -0.5521
 1221Sol     HW 8018   0.488   0.113   2.344 -1.2306 -0.6822 -0.8151
 1221Sol     HW 8019   0.452   0.241   2.416  1.0917 -0.1509 -0.5842
 1221Sol     MW 8020   0.442   0.152   2.410 -0.1643  0.7497  0.1113
 1222Sol     OW 8021   3.195   0.707   2.397 -0.3203  0.1680  0.2558
 1222Sol     HW 8022   3.196   0.761   2.476 -0.6211  0.4587  0.0620
 1222Sol     HW 8023   3.193   0.770   2.325 -0.4970 -0.0990  0.0264
 1222Sol     MW 8024   3.195   0.718   2.398  0.2053 -0.1755  0.0629
 1223Sol     OW 8025   3.226   0.239   5.943  0.2692 -0.3001  0.0426
 1223Sol     HW 8026   3.208   0.167   6.004 -0.1093  0.7820  1.2362
 1223Sol     HW 8027   3.142   0.284   5.934  0.8671  0.9771  0.6203
 1223Sol     MW 8028   3.217   0.237   5.948  0.2722 -0.4764 -0.0133
 1224Sol     OW 8029   0.749   2.530   6.334  0.5754  0.0357  0.4025
 1224Sol     HW 8030   0.783   2.552   6.247  0.9786  1.2459  0.8410
 1224Sol     HW 8031   0.716   2.441   6.326 -0.3723  0.5214 -1.2697
 1224Sol     MW 8032   0.749   2.524   6.325 -0.3409 -0.1096  0.1946
 1225Sol     OW 8033   1.394   3.090   1.765 -0.2418 -0.4529 -0.0304
 1225Sol     HW 8034   1.379   3.026   1.835 -0.0762 -1.5760 -1.0215
 1225Sol     HW 8035   1.309   3.131   1.751 -0.1039  0.3817  1.3948
 1225Sol     MW 8036   1.385   3.088   1.770  0.5708  0.1723 -0.0815
 1226Sol     OW 8037   0.989   1.648   6.065  0.1758 -0.8901  0.8591
 1226Sol     HW 8038   0.915   1.643   6.006  0.5787  0.4514  0.2328
 1226Sol     HW 8039   1.065   1.664   6.009  0.9755 -2.4068  1.4705
 1226Sol     MW 8040   0.989   1.649   6.055  0.2495 -0.2409 -0.2523
 1227Sol     OW 8041   2.040   0.370   2.697  0.0641 -0.4941  0.4315
 1227Sol     HW 8042   2.082   0.442   2.744  0.0472 -0.2808  0.1229
 1227Sol     HW 8043   1.947   0.377   2.721 -0.1845  0.4864 -0.7314
 1227Sol     MW 8044   2.035   0.377   2.703 -0.7355  0.0581 -0.2258
 1228Sol     OW 8045   3.242   1.150   7.077  0.0008  0.2023  0.4441
 1228Sol     HW 8046   3.318   1.097   7.101  0.9214  1.6242  0.7157
 1228Sol     HW 8047   3.203   1.176   7.161 -1.1084 -0.9553  0.3037
 1228Sol     MW 8048   3.245   1.147   7.087  0.0792  0.2868  0.1926
 1229Sol     OW 8049   2.472   2.733   3.038 -0.2702 -0.7186 -0.3671
 1229Sol     HW 8050   2.520   2.677   3.099 -0.3230  0.0835  0.4409
 1229Sol     HW 8051   2.468   2.684   2.957  2.8539 -0.3889 -0.7739
 1229Sol     MW 8052   2.476   2.724   3.037 -0.0541  0.4609  0.4427
 1230Sol     OW 8053   1.347   2.812   9.119 -0.5287  0.7574 -0.1790
 1230Sol     HW 8054   1.330   2.721   9.144  3.1175  0.6678  2.3396
 1230Sol     HW 8055   1.281   2.862   9.165 -0.6646 -0.3705  0.8688
 1230Sol     MW 8056   1.340   2.808   9.125 -0.3646 -0.1732 -0.0378
 1231Sol     OW 8057   1.675   1.933   4.485 -0.2993 -0.8378 -0.4601
 1231Sol     HW 8058   1.644   1.843   4.479  0.1094 -0.9702 -0.5865
 1231Sol     HW 8059   1.714   1.940   4.572 -0.9871 -0.5699 -0.1638
 1231Sol     MW 8060   1.675   1.926   4.492 -0.0966  0.2829 -0.7001
 1232Sol     OW 8061   1.266   1.112   9.393  0.4510 -0.0076  0.0656
 1232Sol     HW 8062   1.285   1.185   9.333 -0.1905  0.9512  0.9988
 1232Sol     HW 8063   1.217   1.050   9.339  1.2684  0.0963 -0.8270
 1232Sol     MW 8064   1.263   1.113   9.383 -0.1999 -0.5563 -0.3290
 1233Sol     OW 8065   0.462   3.215   4.351  0.0503  0.4277  0.3009
 1233Sol     HW 8066   0.390   3.179   4.299  2.2016 -2.2655 -0.9546
 1233Sol     HW 8067   0.446   3.184   4.440  0.8316 -2.0789 -0.4092
 1233Sol     MW 8068   0.454   3.209   4.354  0.2609 -0.3211  0.0889
 1234Sol     OW 8069   3.145   1.340   6.293  0.1792 -0.4447  0.5227
 1234Sol     HW 8070   3.078   1.316   6.229 -0.0934 -1.0146  1.0107
 1234Sol     HW 8071   3.225   1.302   6.259  0.0798 -0.5422  0.3957
 1234Sol     MW 8072   3.146   1.334   6.285 -0.2766  0.2339 -0.0047
 1235Sol     OW 8073   2.503   3.087   1.519  0.1787  0.3016  0.3123
 1235Sol     HW 8074   2.585   3.048   1.488  2.2901  1.9509  3.6227
 1235Sol     HW 8075   2.529   3.144   1.590 -3.6351  2.6729 -0.0836
 1235Sol     MW 8076   2.513   3.088   1.522 -0.0130  0.4000  0.6100
 1236Sol     OW 8077   1.078   1.138   3.505 -0.2565 -0.1469 -0.6696
 1236Sol     HW 8078   1.064   1.067   3.442  0.6394 -1.3129  0.4121
 1236Sol     HW 8079   1.168   1.124   3.536  0.2185  1.9492 -1.0391
 1236Sol     MW 8080   1.085   1.130   3.502  0.0919  0.5028 -0.2046
 1237Sol     OW 8081   3.101   1.844   3.692  0.0705 -0.0254 -0.2040
 1237Sol     HW 8082   3.040   1.772   3.681 -0.9713  1.0605 -1.8020
 1237Sol     HW 8083   3.187   1.804   3.689 -0.5153 -1.2929 -0.2483
 1237Sol     MW 8084   3.103   1.834   3.691  0.5550 -0.1298 -0.9636
 1238Sol     OW 8085   2.074   3.004   5.995  0.2753 -0.0327 -0.3724
 1238Sol     HW 8086   2.166   3.027   6.010 -0.0880  1.0682  0.2323
 1238Sol     HW 8087   2.045   2.966   6.078 -0.4598  1.8256  0.2669
 1238Sol     MW 8088   2.080   3.003   6.004 -0.1293  0.1658 -0.1601
 1239Sol     OW 8089   1.129   0.803   9.436 -0.1106  0.4545 -0.7605
 1239Sol     HW 8090   1.175   0.845   9.509  2.5321  1.5220 -2.9735
 1239Sol     HW 8091   1.191   0.739   9.402 -1.6540 -0.6498 -1.5647
 1239Sol     MW 8092   1.139   0.801   9.440 -0.4896  0.0655  0.2164
 1240Sol     OW 8093   2.375   1.363   4.779 -0.0460  0.0793  0.3692
 1240Sol     HW 8094   2.447   1.337   4.837 -0.6242  0.3622  1.2237
 1240Sol     HW 8095   2.355   1.453   4.805  0.3697  0.5773 -0.9682
 1240Sol     MW 8096   2.380   1.369   4.786 -0.2830  0.2968 -0.7015
 1241Sol     OW 8097   1.902   1.689   8.951 -0.3537 -0.0492  0.7585
 1241Sol     HW 8098   1.853   1.771   8.942  0.9583  0.3962 -3.9407
 1241Sol     HW 8099   1.840   1.621   8.927  0.6423  0.3718 -3.4432
 1241Sol     MW 8100   1.892   1.691   8.948 -0.4805 -0.5209  0.4020
 1242Sol     OW 8101   3.322   1.067   8.043 -0.0680 -0.7478 -0.1404
 1242Sol     HW 8102   3.296   1.108   7.960 -1.0789  0.0789  0.5788
 1242Sol     HW 8103   3.279   0.982   8.042  1.4038 -1.5178 -1.2783
 1242Sol     MW 8104   3.316   1.063   8.035  0.2157  0.6528 -0.0096
 1243Sol     OW 8105   0.582   0.834   4.069 -0.2235 -0.0326  0.4569
 1243Sol     HW 8106   0.486   0.840   4.072 -0.2459  0.8112 -1.6177
 1243Sol     HW 8107   0.601   0.747   4.104 -1.8230 -0.6721 -0.2240
 1243Sol     MW 8108   0.575   0.827   4.073 -0.5409 -0.0144  0.2003
 1244Sol     OW 8109   0.841   1.157   5.037  0.4949 -0.3288 -0.7974
 1244Sol     HW 8110   0.923   1.147   4.987  0.2645 -0.8123 -1.0773
 1244Sol     HW 8111   0.870   1.162   5.128  0.8880  0.1467 -0.9472
 1244Sol     MW 8112   0.851   1.156   5.041 -0.0012 -0.2688  0.0242
 1245Sol     OW 8113   0.597   0.303   6.004 -0.0503 -0.5576  0.1322
 1245Sol     HW 8114   0.633   0.354   5.932 -2.1620  1.6894  0.6060
 1245Sol     HW 8115   0.607   0.212   5.976 -0.8170  0.2656 -2.9872
 1245Sol     MW 8116   0.601   0.299   5.995  0.1856 -0.7062 -0.3810
 1246Sol     OW 8117   2.808   0.393   4.225  0.3186 -0.0122 -0.0632
 1246Sol     HW 8118   2.775   0.451   4.156  0.3824  0.2973  0.1664
 1246Sol     HW 8119   2.896   0.369   4.195  0.4013  0.2346 -0.0220
 1246Sol     MW 8120   2.813   0.396   4.216 -0.6999  0.0682 -0.1254
 1247Sol     OW 8121   1.211   0.273   7.651 -0.0829 -0.4751  0.0305
 1247Sol     HW 8122   1.255   0.197   7.612  0.1814 -0.2454 -0.1207
 1247Sol     HW 8123   1.166   0.315   7.578  0.0458 -0.2969  0.0539
 1247Sol     MW 8124   1.211   0.270   7.641 -0.2827 -0.2878 -0.6211
 1248Sol     OW 8125   1.017   3.367   3.848 -0.3371 -0.5282 -0.2533
 1248Sol     HW 8126   0.985   3.457   3.851  0.0871 -0.3950  0.7053
 1248Sol     HW 8127   1.057   3.353   3.934 -3.3454 -2.7220  0.8699
 1248Sol     MW 8128   1.018   3.374   3.856  0.3364  0.4985  0.2290
 1249Sol     OW 8129   1.441   2.589   9.656 -0.5106  0.5369  0.1837
 1249Sol     HW 8130   1.379   2.583   9.584 -1.1083  1.2473  0.6334
 1249Sol     HW 8131   1.525   2.606   9.614  0.0932 -3.9555 -0.7050
 1249Sol     MW 8132   1.443   2.590   9.646  0.4065  0.4630 -0.3149
 1250Sol     OW 8133   0.827   1.586   7.108 -0.1117  0.4450 -0.1607
 1250Sol     HW 8134   0.820   1.641   7.030  0.5338  0.1879 -0.4050
 1250Sol     HW 8135   0.771   1.511   7.090  0.3535  0.1892 -0.5503
 1250Sol     MW 8136   0.821   1.585   7.100 -0.1017 -0.5808  0.4670
 1251Sol     OW 8137   1.755   0.869   2.386  0.6500  0.4802 -0.2143
 1251Sol     HW 8138   1.776   0.809   2.457  0.4639 -0.9074 -1.2974
 1251Sol     HW 8139   1.753   0.955   2.426  1.4455 -0.1856  1.2718
 1251Sol     MW 8140   1.757   0.871   2.396 -1.1170  0.3154 -0.0126
 1252Sol     OW 8141   0.075   0.515   7.425 -0.3414  0.5387  0.2146
 1252Sol     HW 8142   0.025   0.458   7.484 -0.8679  0.4236 -0.3307
 1252Sol     HW 8143   0.160   0.525   7.467  0.3088 -1.9185 -0.3961
 1252Sol     MW 8144   0.078   0.511   7.434  0.2839  0.1019  0.6793
 1253Sol     OW 8145   2.892   0.262   9.416 -0.0180 -0.6536  0.3965
 1253Sol     HW 8146   2.805   0.292   9.442 -0.6346  0.2408 -2.4525
 1253Sol     HW 8147   2.874   0.191   9.354  1.3103 -1.2625  0.7072
 1253Sol     MW 8148   2.882   0.258   9.413  0.1019  0.5138 -0.0178
 1254Sol     OW 8149   1.631   1.467   2.193  0.2992 -0.2121 -0.4310
 1254Sol     HW 8150   1.659   1.519   2.117  0.5297 -0.4455 -0.5041
 1254Sol     HW 8151   1.703   1.406   2.208  0.9669  0.8854  0.9606
 1254Sol     MW 8152   1.640   1.466   2.188  0.5197  0.0787 -0.4003
 1255Sol     OW 8153   2.882   3.285   4.042  0.7108  0.0527  0.0795
 1255Sol     HW 8154   2.855   3.248   4.126  0.9654 -0.0598  0.1133
 1255Sol     HW 8155   2.821   3.357   4.027 -1.2012 -1.7815 -1.0776
 1255Sol     MW 8156   2.874   3.288   4.049 -0.4568  0.3132  0.0501
 1256Sol     OW 8157   0.613   2.908   4.904 -0.3541 -0.5773 -0.0899
 1256Sol     HW 8158   0.685   2.849   4.881  0.3411  0.3035 -0.1643
 1256Sol     HW 8159   0.606   2.967   4.829  2.3408  2.7369  2.1641
 1256Sol     MW 8160   0.618   2.908   4.895  0.0405  0.1480  0.0075
 1257Sol     OW 8161   3.210   1.392   2.216  0.8101  0.2371  1.0553
 1257Sol     HW 8162   3.217   1.479   2.177  0.1486 -0.2425 -0.1898
 1257Sol     HW 8163   3.195   1.408   2.309  2.0041  1.4291  1.0546
 1257Sol     MW 8164   3.209   1.401   2.221 -0.6098 -0.7700  0.0802
 1258Sol     OW 8165   2.637   1.165   9.207 -0.5633 -0.5058  0.6784
 1258Sol     HW 8166   2.596   1.249   9.192 -2.6001 -1.4866  0.6128
 1258Sol     HW 8167   2.637   1.155   9.303 -1.2037 -0.8468  0.6460
 1258Sol     MW 8168   2.634   1.171   9.215  0.1180 -0.1618  0.0764
 1259Sol     OW 8169   0.524   1.335   3.157 -0.2370 -0.5196  0.4690
 1259Sol     HW 8170   0.502   1.428   3.160 -0.4498 -0.5211 -0.7209
 1259Sol     HW 8171   0.618   1.333   3.141 -0.6273 -0.4805 -2.0492
 1259Sol     MW 8172   0.530   1.343   3.156  0.5243 -0.3584  0.7181
 1260Sol     OW 8173   2.859   3.321   6.382  0.3045 -0.3012  0.1128
 1260Sol     HW 8174   2.887   3.276   6.461  0.7717  1.3950  0.9169
 1260Sol     HW 8175   2.763   3.317   6.385  0.3276 -0.6489  0.5050
 1260Sol     MW 8176   2.853   3.316   6.389 -0.0978  0.1791  0.1742
 1261Sol     OW 8177   2.586   1.464   3.793  0.8731 -0.4741 -0.5781
 1261Sol     HW 8178   2.628   1.377   3.791  1.2628 -0.3057  0.1536
 1261Sol     HW 8179   2.632   1.513   3.724  0.2197 -1.0358 -1.4327
 1261Sol     MW 8180   2.594   1.460   3.786 -0.1461 -0.0996 -0.7440
 1262Sol     OW 8181   0.513   0.634   5.676  0.5769 -0.0539  0.0384
 1262Sol     HW 8182   0.436   0.677   5.712  1.4573  0.7161  1.0435
 1262Sol     HW 8183   0.488   0.542   5.668 -0.8226  0.3745 -0.7333
 1262Sol     MW 8184   0.504   0.630   5.679 -0.1787  0.1938  0.0140
 1263Sol     OW 8185   0.870   2.772   6.495 -0.0402 -0.0138  0.5288
 1263Sol     HW 8186   0.944   2.798   6.440  0.4463  1.4286  1.8290
 1263Sol     HW 8187   0.816   2.716   6.438  0.7674  0.9279 -1.2065
 1263Sol     MW 8188   0.872   2.769   6.485 -0.9369 -0.6306  0.7732
 1264Sol     OW 8189   2.392   0.397   4.791  0.1136 -0.1891 -0.4031
 1264Sol     HW 8190   2.301   0.369   4.780 -0.0168  0.3498 -0.6787
 1264Sol     HW 8191   2.443   0.316   4.780 -0.3598 -0.5850  0.2669
 1264Sol     MW 8192   2.389   0.387   4.789 -0.4114  0.1769 -0.3483
 1265Sol     OW 8193   1.466   0.559   8.356  0.6599 -0.1360 -0.0977
 1265Sol     HW 8194   1.400   0.491   8.341  1.5063 -0.7507 -1.1266
 1265Sol     HW 8195   1.467   0.610   8.275  1.9975 -0.6135 -0.3870
 1265Sol     MW 8196   1.460   0.558   8.347 -0.0727 -0.3037  0.6772
 1266Sol     OW 8197   2.109   0.647   4.527  0.1176 -0.6806  0.6837
 1266Sol     HW 8198   2.120   0.649   4.623  1.0958  1.4405  0.5578
 1266Sol     HW 8199   2.030   0.699   4.512 -0.6050 -1.8664  0.4118
 1266Sol     MW 8200   2.103   0.652   4.535  0.5790 -0.0634  0.1393
 1267Sol     OW 8201   0.889   0.311   2.241  0.2061 -0.1861 -0.2943
 1267Sol     HW 8202   0.828   0.275   2.176 -2.8637 -0.4940  2.6036
 1267Sol     HW 8203   0.942   0.236   2.268  1.0038 -0.2112 -1.8467
 1267Sol     MW 8204   0.888   0.301   2.237  0.0642  0.1397  0.8134
 1268Sol     OW 8205   2.256   2.165   4.374  0.4776 -0.0703 -0.1429
 1268Sol     HW 8206   2.313   2.239   4.392  0.5637 -0.4270  1.1642
 1268Sol     HW 8207   2.249   2.161   4.279  0.1497  1.8447 -0.2016
 1268Sol     MW 8208   2.261   2.171   4.367  0.9697 -0.6564 -0.2063
 1269Sol     OW 8209   2.066   1.686   6.834  0.1640 -0.0512 -0.0283
 1269Sol     HW 8210   1.979   1.644   6.832  0.0933  0.0794  0.3049
 1269Sol     HW 8211   2.120   1.627   6.887 -0.1979  0.7781  1.2723
 1269Sol     MW 8212   2.063   1.677   6.839 -0.3992  0.0134 -0.1799
 1270Sol     OW 8213   0.632   1.279   4.516  0.5930  0.6376  0.1693
 1270Sol     HW 8214   0.630   1.370   4.489  1.9921 -0.1649 -2.8006
 1270Sol     HW 8215   0.717   1.268   4.559  0.7630  0.5251 -0.1980
 1270Sol     MW 8216   0.639   1.286   4.518  0.0866 -1.0869 -0.5607
 1271Sol     OW 8217   0.260   0.634   6.013 -0.3941  0.0605  0.4240
 1271Sol     HW 8218   0.301   0.548   6.025 -1.3236 -0.2032  1.8009
 1271Sol     HW 8219   0.166   0.617   6.019 -0.6088  1.0855  0.0535
 1271Sol     MW 8220   0.256   0.625   6.014 -0.4463  0.0174 -0.0926
 1272Sol     OW 8221   1.134   2.605   1.755 -0.2253 -0.4800  0.5029
 1272Sol     HW 8222   1.181   2.522   1.751 -0.0850 -0.4435  1.3613
 1272Sol     HW 8223   1.123   2.631   1.663 -2.7792 -2.8235  0.0905
 1272Sol     MW 8224   1.138   2.600   1.747 -0.0059 -0.2664 -0.0750
 1273Sol     OW 8225   0.653   3.314   6.153  0.1364 -0.2255 -0.3182
 1273Sol     HW 8226   0.624   3.371   6.082  1.6570  1.0715  0.0483
 1273Sol     HW 8227   0.685   3.375   6.220 -0.9060 -1.4363  1.3095
 1273Sol     MW 8228   0.653   3.325   6.153 -0.0212  0.0351 -1.0546
 1274Sol     OW 8229   0.981   2.516   2.202 -0.3578 -0.5712  0.3592
 1274Sol     HW 8230   0.903   2.462   2.215  0.0875 -1.2555  0.2003
 1274Sol     HW 8231   0.989   2.524   2.107 -1.3205  1.0934  0.4035
 1274Sol     MW 8232   0.975   2.512   2.195  0.0529  0.1207  0.3857
 1275Sol     OW 8233   0.418   2.580   6.824  0.0632  0.1353 -0.5434
 1275Sol     HW 8234   0.510   2.602   6.840  0.0323 -1.8820  2.8051
 1275Sol     HW 8235   0.371   2.663   6.839  1.2683  1.1316 -2.1027
 1275Sol     MW 8236   0.422   2.590   6.827 -0.3378  0.8274  0.4455
 1276Sol     OW 8237   1.082   1.726   6.301  0.5534  0.7261  0.0703
 1276Sol     HW 8238   1.089   1.638   6.339  1.2351  0.9889  0.5630
 1276Sol     HW 8239   1.043   1.712   6.215  1.1898 -0.1258 -0.0895
 1276Sol     MW 8240   1.079   1.717   6.297  0.2721  0.2847 -0.1182
 1277Sol     OW 8241   0.594   3.355   9.881 -0.2854  0.8322 -0.1974
 1277Sol     HW 8242   0.544   3.335   9.802  1.7611  1.8884 -1.7903
 1277Sol     HW 8243   0.645   3.277   9.898 -2.1559 -0.1290  1.2501
 1277Sol     MW 8244   0.594   3.346   9.875 -0.4651  0.1229 -0.1732
 1278Sol     OW 8245   2.063   2.613   6.079  0.0432 -0.3020 -0.3674
 1278Sol     HW 8246   2.087   2.585   6.168  0.6465 -0.4440 -0.5712
 1278Sol     HW 8247   2.010   2.692   6.092  1.0146  0.2856  0.0712
 1278Sol     MW 8248   2.060   2.617   6.088 -0.0892  0.3639 -0.0459
 1279Sol     OW 8249   3.001   2.875   2.739 -0.5180  0.0913 -0.3707
 1279Sol     HW 8250   3.069   2.819   2.702 -0.3675  1.1824 -1.7683
 1279Sol     HW 8251   3.017   2.872   2.834  1.3873  0.2186 -0.6714
 1279Sol     MW 8252   3.009   2.869   2.744  0.7855  0.4835 -0.5205
 1280Sol     OW 8253   0.050   0.876   3.968  0.1331 -0.1448  0.2366
 1280Sol     HW 8254   0.024   0.787   3.988  1.0796 -0.2014  1.3048
 1280Sol     HW 8255   0.041   0.923   4.051 -0.5651  0.8053 -0.3624
 1280Sol     MW 8256   0.047   0.873   3.977 -0.7425  0.3813 -0.1177
 1281Sol     OW 8257   0.885   1.337   3.457  0.3826  0.1497  0.4887
 1281Sol     HW 8258   0.941   1.260   3.459  1.6195  0.9677 -1.0487
 1281Sol     HW 8259   0.833   1.332   3.537  1.2970 -1.6343  0.9863
 1281Sol     MW 8260   0.885   1.330   3.464  0.4253 -0.3122  0.3288
 1282Sol     OW 8261   0.989   2.483   3.804 -0.2566 -0.6902 -0.1486
 1282Sol     HW 8262   1.002   2.573   3.835  1.2781 -0.8304 -0.3234
 1282Sol     HW 8263   0.895   2.477   3.787 -0.3855  0.8794 -0.1093
 1282Sol     MW 8264   0.982   2.491   3.805  0.5327  0.5522  0.1034
 1283Sol     OW 8265   0.055   0.299   4.120  0.4167 -0.7119 -0.6249
 1283Sol     HW 8266   0.128   0.360   4.106  1.2865 -1.0410  2.2959
 1283Sol     HW 8267   0.088   0.215   4.089  1.3744 -0.9009  0.8765
 1283Sol     MW 8268   0.064   0.297   4.116 -0.4256 -0.4541  0.3527
 1284Sol     OW 8269   3.298   1.637   8.661 -0.1043 -0.0442 -0.7499
 1284Sol     HW 8270   3.211   1.654   8.697  0.0943 -0.9506  0.2080
 1284Sol     HW 8271   3.347   1.718   8.677  0.1448 -0.6075  1.5992
 1284Sol     MW 8272   3.295   1.645   8.666 -0.0031  0.1384  0.0082
 1285Sol     OW 8273   0.854   2.869   6.750  0.6476  0.7154  0.4047
 1285Sol     HW 8274   0.835   2.963   6.752 -0.5294  0.4923 -0.1102
 1285Sol     HW 8275   0.844   2.844   6.659  0.3835 -0.0259  0.6316
 1285Sol     MW 8276   0.851   2.875   6.742  0.2505  0.2574 -0.0092
 1286Sol     OW 8277   2.697   0.205   2.545  0.0082  0.1104 -0.1066
 1286Sol     HW 8278   2.715   0.145   2.617  3.6384 -0.1352 -1.1447
 1286Sol     HW 8279   2.770   0.267   2.546 -1.9547  2.5307 -1.1343
 1286Sol     MW 8280   2.705   0.205   2.552 -0.1424 -0.2781 -0.1252
 1287Sol     OW 8281   1.793   1.560   4.760  0.4426 -0.3412  0.1215
 1287Sol     HW 8282   1.859   1.557   4.691 -0.0881 -0.8859 -0.3778
 1287Sol     HW 8283   1.772   1.468   4.777  1.0729 -0.2336  1.5101
 1287Sol     MW 8284   1.797   1.551   4.755 -0.3162 -0.1015 -0.5133
 1288Sol     OW 8285   0.710   2.472   2.035  0.3584 -0.2519  0.1423
 1288Sol     HW 8286   0.780   2.511   1.983  1.4282  0.7036  2.2405
 1288Sol     HW 8287   0.743   2.386   2.059  0.3081 -0.2756  0.1271
 1288Sol     MW 8288   0.719   2.468   2.032  0.1260  0.5675  0.8703
 1289Sol     OW 8289   3.178   0.640   8.896  0.0139  0.6431 -0.1717
 1289Sol     HW 8290   3.251   0.579   8.894  1.2306  2.0752 -0.1007
 1289Sol     HW 8291   3.102   0.585   8.914  1.2440 -0.7048  1.0880
 1289Sol     MW 8292   3.178   0.630   8.897 -0.5067  0.2192  0.7285
 1290Sol     OW 8293   2.793   2.808   2.096  0.1902 -0.0188  0.3233
 1290Sol     HW 8294   2.759   2.772   2.177 -0.4043  0.6114  0.3543
 1290Sol     HW 8295   2.857   2.874   2.124 -1.2168  1.3921  0.3235
 1290Sol     MW 8296   2.796   2.811   2.106  0.3772  0.0499  0.2882
 1291Sol     OW 8297   0.485   2.547   3.873  0.1000 -0.1149  0.0995
 1291Sol     HW 8298   0.478   2.463   3.919  1.2096 -0.6195 -0.6159
 1291Sol     HW 8299   0.447   2.611   3.933 -1.1243 -1.1878  0.4874
 1291Sol     MW 8300   0.481   2.545   3.883  0.4965  0.3434 -0.0744
 1292Sol     OW 8301   2.730   2.777   3.328  0.0706 -0.0325 -0.3176
 1292Sol     HW 8302   2.815   2.820   3.317  0.2363 -0.4552 -0.7352
 1292Sol     HW 8303   2.729   2.708   3.261 -1.2552  0.9730 -1.3610
 1292Sol     MW 8304   2.738   2.774   3.321 -0.0419 -0.3540  0.2435
 1293Sol     OW 8305   1.285   2.416   6.014  0.0492  0.3233 -0.1157
 1293Sol     HW 8306   1.376   2.388   6.001  0.8632  1.9616  1.7430
 1293Sol     HW 8307   1.241   2.340   6.051  0.3812 -0.8129 -1.9815
 1293Sol     MW 8308   1.289   2.407   6.016 -0.0599 -0.0958 -0.1874
 1294Sol     OW 8309   2.002   2.387   8.567 -0.0644  0.0793  0.6995
 1294Sol     HW 8310   2.007   2.397   8.662  1.3756 -0.3411  0.6655
 1294Sol     HW 8311   2.066   2.449   8.532  0.1324 -0.4876  0.0396
 1294Sol     MW 8312   2.008   2.394   8.572  0.5063  0.7057  0.1817
 1295Sol     OW 8313   1.599   0.602   3.356 -0.6743  0.0560 -0.1101
 1295Sol     HW 8314   1.620   0.688   3.393  0.8170 -0.7384  0.9426
 1295Sol     HW 8315   1.678   0.577   3.309  0.1988 -2.2169  2.4426
 1295Sol     MW 8316   1.608   0.608   3.355  0.7547  0.3539  0.2159
 1296Sol     OW 8317   0.491   1.608   7.062 -0.3685  0.0292  0.1630
 1296Sol     HW 8318   0.497   1.569   6.975 -1.7144  0.1857 -0.0044
 1296Sol     HW 8319   0.401   1.593   7.090  0.1207 -0.2629  1.6540
 1296Sol     MW 8320   0.484   1.603   7.057  0.2071  0.0987 -0.3671
 1297Sol     OW 8321   0.235   0.498   2.503  0.5644  0.0487  0.1783
 1297Sol     HW 8322   0.147   0.479   2.470  1.0866 -1.6754 -0.2678
 1297Sol     HW 8323   0.288   0.511   2.424  0.7153  1.1068  0.4450
 1297Sol     MW 8324   0.232   0.498   2.493 -0.2008  0.2571 -0.4801
 1298Sol     OW 8325   0.748   1.841   9.111  0.0088  0.3418  0.0869
 1298Sol     HW 8326   0.775   1.905   9.045  1.4191  0.0595  0.3696
 1298Sol     HW 8327   0.665   1.875   9.144 -0.1522  1.0826 -1.0316
 1298Sol     MW 8328   0.743   1.850   9.108  0.1123 -0.2701  0.1768
 1299Sol     OW 8329   0.951   1.454   6.647  0.1353  0.4013  0.4125
 1299Sol     HW 8330   1.014   1.408   6.702  1.2348  0.2660 -0.9306
 1299Sol     HW 8331   1.001   1.479   6.569 -1.7406 -0.6771 -1.1829
 1299Sol     MW 8332   0.961   1.452   6.645  0.0943  0.2942 -0.0145
 1300Sol     OW 8333   2.855   0.015   9.283 -0.0019 -0.2603 -0.0044
 1300Sol     HW 8334   2.909  -0.062   9.268 -0.6799 -0.6184 -0.6833
 1300Sol     HW 8335   2.773  -0.021   9.317 -0.3185  0.1554 -0.3268
 1300Sol     MW 8336   2.852   0.005   9.285 -0.1317 -0.4490 -0.2221
 1301Sol     OW 8337   0.179   2.648   4.009 -0.6416 -0.3798  0.5379
 1301Sol     HW 8338   0.188   2.554   3.997 -1.4187 -0.4067  0.1415
 1301Sol     HW 8339   0.111   2.674   3.946 -0.1883  0.4944  0.4040
 1301Sol     MW 8340   0.173   2.642   4.002 -0.0994 -0.3198 -0.3354
 1302Sol     OW 8341   1.643   0.561   7.446  0.6761  0.2608  0.4519
 1302Sol     HW 8342   1.608   0.473   7.437  1.8462 -0.4649  2.6976
 1302Sol     HW 8343   1.592   0.601   7.517  0.3467  1.2965 -0.3498
 1302Sol     MW 8344   1.635   0.557   7.452  0.4614 -0.0427 -0.1140
 1303Sol     OW 8345   1.240   3.079   2.065  0.6256  0.1374 -0.5683
 1303Sol     HW 8346   1.200   3.108   2.147  0.5714 -0.0341 -0.5343
 1303Sol     HW 8347   1.207   2.990   2.052  2.2805 -0.6289  0.3069
 1303Sol     MW 8348   1.234   3.073   2.071 -0.3875 -0.1296  0.2963
 1304Sol     OW 8349   2.509   1.374   8.899 -0.1379 -0.1058  0.6278
 1304Sol     HW 8350   2.463   1.442   8.851  0.2955  0.9175  1.6494
 1304Sol     HW 8351   2.451   1.298   8.894 -1.7935  1.0676  1.6363
 1304Sol     MW 8352   2.500   1.373   8.894 -0.4032 -0.0609 -0.5812
 1305Sol     OW 8353   0.503   1.695   2.173  0.0082  0.2734  0.5215
 1305Sol     HW 8354   0.529   1.724   2.260  0.1670  2.2605 -0.1510
 1305Sol     HW 8355   0.409   1.713   2.168 -0.1610 -0.5885  0.5673
 1305Sol     MW 8356   0.497   1.699   2.180  0.0587  0.5077 -0.1602
 1306Sol     OW 8357   0.149   0.262   5.851  0.0030  0.0416  0.0962
 1306Sol     HW 8358   0.059   0.243   5.880 -0.2781 -0.1520 -0.8950
 1306Sol     HW 8359   0.146   0.254   5.756  1.1548 -0.2773  0.0802
 1306Sol     MW 8360   0.140   0.259   5.845 -0.3806  1.0418 -0.1680
 1307Sol     OW 8361   0.184   2.574   7.790 -0.0587  0.1707  0.1931
 1307Sol     HW 8362   0.193   2.609   7.702  2.1635 -1.5665 -0.3022
 1307Sol     HW 8363   0.095   2.598   7.816 -0.7919  0.6007 -2.5536
 1307Sol     MW 8364   0.177   2.579   7.785  0.4442  0.4082  0.1683
 1308Sol     OW 8365   1.576   0.057   7.893  0.0890  0.1697 -0.1564
 1308Sol     HW 8366   1.618  -0.028   7.904  0.5195  0.5776  1.4354
 1308Sol     HW 8367   1.558   0.088   7.982 -2.2984  0.6631 -0.7635
 1308Sol     MW 8368   1.578   0.052   7.902  0.4072 -0.0034  0.5646
 1309Sol     OW 8369   2.551   2.158   1.986 -0.0313  0.2033 -0.4801
 1309Sol     HW 8370   2.574   2.071   2.020  0.2313  0.6378  0.4600
 1309Sol     HW 8371   2.522   2.141   1.896 -0.0143 -0.8644 -0.2956
 1309Sol     MW 8372   2.550   2.149   1.981 -0.1508  0.3352 -0.3739
 1310Sol     OW 8373   1.636   2.768   8.628 -0.1917  0.0260  0.3686
 1310Sol     HW 8374   1.711   2.823   8.651  1.2577 -2.2701  1.4264
 1310Sol     HW 8375   1.592   2.753   8.712 -1.9200  1.4374 -0.2671
 1310Sol     MW 8376   1.639   2.771   8.638  0.5066 -0.0853  0.2087
 1311Sol     OW 8377   2.373   0.488   6.246  0.1659 -0.4115 -0.0313
 1311Sol     HW 8378   2.288   0.530   6.257 -0.3495 -1.3442 -0.3790
 1311Sol     HW 8379   2.424   0.517   6.322 -0.6092 -0.2020  0.4164
 1311Sol     MW 8380   2.370   0.494   6.254  0.4122 -0.5616  0.4956
 1312Sol     OW 8381   2.730   2.794   2.721  0.4247  0.2435 -0.0991
 1312Sol     HW 8382   2.822   2.819   2.720  1.0016 -1.8319 -1.7864
 1312Sol     HW 8383   2.691   2.844   2.649  0.7700 -0.7385 -0.9806
 1312Sol     MW 8384   2.735   2.801   2.714  0.6412  0.6095  0.0333
 1313Sol     OW 8385   2.146   2.968   8.168 -0.5653 -0.1836 -0.1841
 1313Sol     HW 8386   2.217   3.031   8.156 -1.8476  1.5278  1.1225
 1313Sol     HW 8387   2.189   2.890   8.203  0.9131  0.2305 -1.0517
 1313Sol     MW 8388   2.156   2.966   8.170 -0.0640  0.2031 -0.1667
 1314Sol     OW 8389   1.014   0.075   2.715 -0.2983  0.0954  0.0493
 1314Sol     HW 8390   1.015   0.040   2.805  1.1392  1.8634  0.7520
 1314Sol     HW 8391   0.954   0.017   2.668  0.5051 -2.1172  1.6516
 1314Sol     MW 8392   1.009   0.066   2.719 -0.1325  0.3684  0.1635
 1315Sol     OW 8393   0.839   2.968   6.152 -0.5124  0.1207 -0.1889
 1315Sol     HW 8394   0.904   2.908   6.189  1.4515  1.9339 -0.5718
 1315Sol     HW 8395   0.864   3.054   6.187 -2.8073  0.8431 -0.2555
 1315Sol     MW 8396   0.847   2.971   6.159  0.1279  0.1146  0.2505
 1316Sol     OW 8397   2.885   2.962   5.810 -0.1085 -0.4241 -0.6410
 1316Sol     HW 8398   2.815   2.955   5.745 -0.8850 -0.6667  0.2126
 1316Sol     HW 8399   2.864   2.894   5.875  0.6811 -0.2104 -0.1544
 1316Sol     MW 8400   2.877   2.955   5.810 -0.1783 -0.2408  0.2703
 1317Sol     OW 8401   0.110   3.239   8.843 -0.0099 -0.3127 -0.0543
 1317Sol     HW 8402   0.100   3.298   8.917  4.7334 -0.9391  1.2692
 1317Sol     HW 8403   0.079   3.155   8.874 -1.2174  0.1689  0.0520
 1317Sol     MW 8404   0.106   3.237   8.852  0.3110  0.1571 -0.0971
 1318Sol     OW 8405   1.207   0.302   3.214  0.1946 -0.1755  0.0522
 1318Sol     HW 8406   1.286   0.305   3.268  1.7806  1.2222 -2.2626
 1318Sol     HW 8407   1.227   0.236   3.147 -1.1969 -0.8752  0.3194
 1318Sol     MW 8408   1.216   0.296   3.213  0.1462 -0.2128  0.1260
 1319Sol     OW 8409   3.065   1.417   9.370 -0.3222 -0.1617  0.6155
 1319Sol     HW 8410   3.031   1.487   9.426 -0.6201 -0.3685  0.6992
 1319Sol     HW 8411   3.146   1.452   9.333 -1.6690  1.1355 -1.2037
 1319Sol     MW 8412   3.069   1.426   9.372 -0.7135  0.1265  0.5125
 1320Sol     OW 8413   2.626   1.678   2.249  0.1733 -0.2085  0.4372
 1320Sol     HW 8414   2.601   1.698   2.339 -0.3508  1.1804  0.0056
 1320Sol     HW 8415   2.719   1.656   2.254 -0.7348 -4.1196  1.8663
 1320Sol     MW 8416   2.632   1.678   2.257 -0.4950  0.0369  0.2448
 1321Sol     OW 8417   1.557   2.694   8.021  1.0243  0.3795  0.1547
 1321Sol     HW 8418   1.598   2.662   7.940  0.1240  0.7273 -0.4491
 1321Sol     HW 8419   1.531   2.615   8.068  0.0376  0.1853 -0.6894
 1321Sol     MW 8420   1.558   2.684   8.018 -0.0861 -0.6629 -0.3137
 1322Sol     OW 8421   0.507   0.318   5.364 -0.1014  0.3876 -0.1732
 1322Sol     HW 8422   0.423   0.298   5.406 -0.0053  1.8004  0.7662
 1322Sol     HW 8423   0.484   0.372   5.289  0.0127  1.6144  0.6560
 1322Sol     MW 8424   0.498   0.321   5.361 -0.0668  0.3172 -0.1836
 1323Sol     OW 8425   2.384   1.789   3.276 -0.4747  0.1225  0.4884
 1323Sol     HW 8426   2.359   1.739   3.354 -0.3245 -1.0519 -0.1982
 1323Sol     HW 8427   2.301   1.827   3.245 -0.7806 -0.6314  0.3757
 1323Sol     MW 8428   2.374   1.788   3.280  0.6449 -0.8835 -0.4947
 1324Sol     OW 8429   3.100   2.178   9.382  0.0287 -0.4009  0.1104
 1324Sol     HW 8430   3.035   2.184   9.312  0.2598  1.8098  0.0370
 1324Sol     HW 8431   3.173   2.130   9.343  0.0421  0.5784 -1.0951
 1324Sol     MW 8432   3.101   2.175   9.372 -0.0134 -0.5363 -0.5795
 1325Sol     OW 8433   1.779   2.806   2.387 -0.1292 -0.0835 -0.0718
 1325Sol     HW 8434   1.777   2.898   2.360  1.8866 -0.5271 -1.8495
 1325Sol     HW 8435   1.825   2.761   2.317  0.1362 -2.2488  1.4261
 1325Sol     MW 8436   1.783   2.811   2.379 -0.4738  0.3791 -0.5756
 1326Sol     OW 8437   0.723   0.142   3.640  0.2012  0.0514  0.0165
 1326Sol     HW 8438   0.712   0.234   3.617  0.6681 -0.0477 -0.6155
 1326Sol     HW 8439   0.635   0.111   3.659  0.2942  1.2256  2.5650
 1326Sol     MW 8440   0.714   0.148   3.639 -0.4744  0.4368 -1.2232
 1327Sol     OW 8441   2.740   0.271   6.401 -0.0452  0.4493 -0.0465
 1327Sol     HW 8442   2.698   0.190   6.431  0.6444  0.6693  1.6111
 1327Sol     HW 8443   2.825   0.243   6.368 -0.3089  0.3488 -0.6371
 1327Sol     MW 8444   2.744   0.261   6.401 -0.5215  0.0864 -0.3248
 1328Sol     OW 8445   1.265   1.562   1.779 -0.9899  0.1824 -0.1100
 1328Sol     HW 8446   1.283   1.653   1.802 -0.3809  0.5017 -1.8426
 1328Sol     HW 8447   1.348   1.528   1.746 -1.9483 -0.1305 -2.2734
 1328Sol     MW 8448   1.274   1.567   1.778 -0.0440  0.2148 -0.6445
 1329Sol     OW 8449   1.045   2.985   3.330 -0.3547  0.1647  0.9117
 1329Sol     HW 8450   1.045   2.994   3.235 -0.7751  0.9438  0.9775
 1329Sol     HW 8451   0.996   3.061   3.361 -1.0640 -0.6113  1.7062
 1329Sol     MW 8452   1.041   2.993   3.324 -0.5276 -0.2456  0.0029
 1330Sol     OW 8453   1.273   2.496   9.425  0.4756  0.0952  0.5139
 1330Sol     HW 8454   1.253   2.495   9.331 -0.9864 -2.1160  0.7926
 1330Sol     HW 8455   1.312   2.410   9.441 -0.3357  0.0099  2.1173
 1330Sol     MW 8456   1.275   2.488   9.418  0.2625  0.1908  0.7400
 1331Sol     OW 8457   2.772   0.152   3.502  0.3536 -0.0657  1.2167
 1331Sol     HW 8458   2.821   0.226   3.538 -1.1071  0.0517  3.0253
 1331Sol     HW 8459   2.702   0.193   3.451 -0.4166 -0.1658  2.1652
 1331Sol     MW 8460   2.770   0.162   3.501 -0.1460 -0.2360 -0.1829
 1332Sol     OW 8461   2.156   2.828   3.520  0.1718  0.0232  0.4607
 1332Sol     HW 8462   2.117   2.915   3.517  1.5585  0.6515  0.5155
 1332Sol     HW 8463   2.244   2.839   3.485  0.0138 -1.5584 -0.5266
 1332Sol     MW 8464   2.160   2.836   3.517 -0.2633  0.3075  0.2414
 1333Sol     OW 8465   1.001   1.749   8.844  0.4483  0.0966 -0.3712
 1333Sol     HW 8466   1.042   1.772   8.761  1.0844 -0.9922 -0.3801
 1333Sol     HW 8467   1.072   1.749   8.907  0.0563  0.4367  0.0695
 1333Sol     MW 8468   1.011   1.751   8.842  0.2744  0.8560 -0.2482
 1334Sol     OW 8469   2.496   1.401   9.163  0.8985 -0.5056 -0.5886
 1334Sol     HW 8470   2.519   1.405   9.071  1.6665 -1.7683 -0.4643
 1334Sol     HW 8471   2.412   1.356   9.165  0.6987 -0.1427 -0.6890
 1334Sol     MW 8472   2.490   1.398   9.155  0.1694 -0.1656 -0.4176
 1335Sol     OW 8473   0.468   0.265   9.592  0.0790 -0.1089 -0.2994
 1335Sol     HW 8474   0.504   0.307   9.670  1.4244 -0.8339 -0.5088
 1335Sol     HW 8475   0.380   0.237   9.618  0.7453 -0.9393  1.1921
 1335Sol     MW 8476   0.464   0.266   9.601  0.1190 -0.0128  0.3610
 1336Sol     OW 8477   2.578   2.065   4.273  0.4259  0.4994 -0.1511
 1336Sol     HW 8478   2.601   2.100   4.359  0.1796  1.3320 -0.4243
 1336Sol     HW 8479   2.513   1.997   4.292  2.3878 -1.2570  0.5588
 1336Sol     MW 8480   2.575   2.062   4.283 -0.0186  0.3499  0.1757
 1337Sol     OW 8481   2.480   0.956   9.144 -0.0577  0.4689 -0.3097
 1337Sol     HW 8482   2.523   1.040   9.155  2.1390 -0.4822 -1.2946
 1337Sol     HW 8483   2.471   0.921   9.233  0.1461  1.1856 -0.0067
 1337Sol     MW 8484   2.483   0.960   9.153 -0.9464  0.0604  0.5512
 1338Sol     OW 8485   2.279   3.431   7.266  0.6194 -0.4647  0.1540
 1338Sol     HW 8486   2.374   3.428   7.271  0.7539  1.8977 -0.2554
 1338Sol     HW 8487   2.260   3.433   7.172  0.2334  0.2268  0.2431
 1338Sol     MW 8488   2.286   3.431   7.258 -0.1972  0.3853 -0.1372
 1339Sol     OW 8489   2.878   1.352   6.130 -0.2591 -0.0109  0.1797
 1339Sol     HW 8490   2.871   1.362   6.035 -1.6278 -0.8355  0.1883
 1339Sol     HW 8491   2.798   1.307   6.156  0.7995 -1.1675  1.5386
 1339Sol     MW 8492   2.870   1.349   6.124 -0.2303  0.2176 -0.6767
 1340Sol     OW 8493   3.064   1.791   6.326 -0.6386 -0.6973  0.8470
 1340Sol     HW 8494   3.145   1.741   6.314 -1.2374 -1.4561 -0.0243
 1340Sol     HW 8495   2.994   1.728   6.311 -1.4300  0.9122 -2.8790
 1340Sol     MW 8496   3.065   1.781   6.324  0.0197 -0.0540  0.1907
 1341Sol     OW 8497   1.908   1.281   9.646 -0.4069 -0.2408 -0.0937
 1341Sol     HW 8498   1.890   1.373   9.668 -1.0532 -0.5860  0.8663
 1341Sol     HW 8499   1.994   1.264   9.683  0.4990  0.4897 -1.8470
 1341Sol     MW 8500   1.914   1.288   9.652 -0.1798  0.1790  0.3192
 1342Sol     OW 8501   3.089   0.043   8.534  0.0237  0.2570  0.1339
 1342Sol     HW 8502   3.161   0.094   8.496 -0.1089  1.6519  1.7086
 1342Sol     HW 8503   3.037   0.107   8.583 -1.0830 -1.1129  0.8018
 1342Sol     MW 8504   3.091   0.053   8.535  0.2311 -0.0427  0.0234
 1343Sol     OW 8505   1.030   0.131   7.371  0.4517  0.3272  0.5373
 1343Sol     HW 8506   1.075   0.210   7.402  0.9426  0.2915 -0.0804
 1343Sol     HW 8507   1.023   0.142   7.277  0.1796 -0.1917  0.4947
 1343Sol     MW 8508   1.034   0.139   7.366 -0.3362 -0.5112 -0.2792
 1344Sol     OW 8509   1.098   2.847   5.910  0.1885  0.2071 -0.3293
 1344Sol     HW 8510   1.134   2.759   5.903 -0.6057 -0.2757  1.3286
 1344Sol     HW 8511   1.143   2.885   5.986 -0.6515  0.6396 -0.0473
 1344Sol     MW 8512   1.105   2.843   5.916 -0.1835 -0.3092 -0.2204
 1345Sol     OW 8513   3.150   1.023   7.617 -0.2595 -0.1770  0.1016
 1345Sol     HW 8514   3.134   0.940   7.662 -2.3092 -0.5237 -1.2090
 1345Sol     HW 8515   3.087   1.083   7.657  0.0898  0.3218 -0.1014
 1345Sol     MW 8516   3.143   1.021   7.625  0.1170 -0.4510 -0.1793
 1346Sol     OW 8517   1.141   1.546   8.350  0.0753  0.0551 -0.1752
 1346Sol     HW 8518   1.165   1.468   8.400 -0.8888  0.3476  0.7830
 1346Sol     HW 8519   1.223   1.575   8.309  0.5412 -1.1515 -0.1127
 1346Sol     MW 8520   1.151   1.542   8.351 -0.2088  0.4277 -0.2818
 1347Sol     OW 8521   0.359   2.470   7.403 -0.2377  0.4729 -0.3524
 1347Sol     HW 8522   0.299   2.416   7.352  2.6876 -1.8360 -1.4575
 1347Sol     HW 8523   0.416   2.511   7.338  2.5324 -1.2836  0.8782
 1347Sol     MW 8524   0.358   2.469   7.393  0.2504  0.1724 -0.2198
 1348Sol     OW 8525   2.331   0.637   8.965 -0.2988 -0.5604 -0.4230
 1348Sol     HW 8526   2.297   0.567   9.021  1.5363 -0.3183  1.0537
 1348Sol     HW 8527   2.425   0.618   8.958 -0.0722  0.8578 -1.3389
 1348Sol     MW 8528   2.336   0.629   8.969 -0.4870  0.1479  0.1085
 1349Sol     OW 8529   0.994   2.210   7.129  0.0976  0.7838  0.4126
 1349Sol     HW 8530   0.918   2.187   7.183  0.5419  0.6518  0.9825
 1349Sol     HW 8531   0.996   2.305   7.130 -1.6780  0.8831 -1.8551
 1349Sol     MW 8532   0.987   2.216   7.134  0.2003 -0.5205 -0.7028
 1350Sol     OW 8533   2.006   1.780   4.782  0.1491  0.1396 -0.1772
 1350Sol     HW 8534   1.994   1.721   4.856 -0.4537 -0.6674 -0.9051
 1350Sol     HW 8535   1.995   1.724   4.705 -0.2755  1.1756 -0.8831
 1350Sol     MW 8536   2.004   1.770   4.781 -0.1850 -0.1480 -0.1217
 1351Sol     OW 8537   3.054   1.452   4.916  0.8336 -0.3825 -0.2771
 1351Sol     HW 8538   3.002   1.531   4.899  1.3980 -0.1335 -0.8362
 1351Sol     HW 8539   3.031   1.392   4.845  0.1927 -0.8353  0.3021
 1351Sol     MW 8540   3.047   1.454   4.908 -0.6230  0.1327 -0.2294
 1352Sol     OW 8541   2.878   2.102   5.649 -0.4205 -0.1018  0.2283
 1352Sol     HW 8542   2.949   2.162   5.675 -0.3701 -0.0590 -0.0076
 1352Sol     HW 8543   2.923   2.026   5.613 -0.4792 -0.3980  0.7749
 1352Sol     MW 8544   2.889   2.101   5.648 -1.1732  0.3302 -0.4961
 1353Sol     OW 8545   0.045   1.918   8.346 -0.3308  0.3343  0.4346
 1353Sol     HW 8546  -0.039   1.956   8.324  0.4349  1.6951 -0.1871
 1353Sol     HW 8547   0.026   1.826   8.366 -1.7705  0.3126 -0.9799
 1353Sol     MW 8548   0.036   1.913   8.346 -0.4017 -0.1759 -0.5780
 1354Sol     OW 8549   0.222   2.039   4.338 -0.3515 -0.0053 -0.0903
 1354Sol     HW 8550   0.135   2.001   4.343 -0.3016 -0.2615 -1.1048
 1354Sol     HW 8551   0.235   2.081   4.423 -1.0804 -0.7879  0.4175
 1354Sol     MW 8552   0.216   2.039   4.346  0.3447 -0.0724 -0.0239
 1355Sol     OW 8553   1.545   0.555   3.826 -0.1840  0.2051  0.0619
 1355Sol     HW 8554   1.472   0.583   3.881 -2.1564  1.1411 -2.8608
 1355Sol     HW 8555   1.506   0.488   3.769  1.5876 -0.2025 -0.6894
 1355Sol     MW 8556   1.535   0.551   3.826 -0.4300 -0.3089  0.2718
 1356Sol     OW 8557   0.939   0.276   2.525  0.0353  0.0556  0.1253
 1356Sol     HW 8558   0.951   0.202   2.584 -0.9961  0.4324  0.8130
 1356Sol     HW 8559   0.900   0.345   2.579  0.7700  1.0343 -0.5583
 1356Sol     MW 8560   0.937   0.276   2.535 -0.4086  0.2555  0.0334
 1357Sol     OW 8561   3.328   2.789   5.262  0.1792  0.1382  0.0343
 1357Sol     HW 8562   3.415   2.815   5.292  1.0918 -1.2615 -1.2980
 1357Sol     HW 8563   3.269   2.814   5.333  1.7755  0.3846  1.2931
 1357Sol     MW 8564   3.331   2.793   5.271  0.9081 -0.4755  0.1032
 1358Sol     OW 8565   2.572   1.417   6.739 -0.1114  0.1935 -0.0128
 1358Sol     HW 8566   2.636   1.363   6.692 -0.9857 -1.5707  0.7518
 1358Sol     HW 8567   2.601   1.413   6.830  0.2791  1.7263 -0.0582
 1358Sol     MW 8568   2.581   1.412   6.743  0.1699  0.3406  0.4553
 1359Sol     OW 8569   2.196   3.219   5.245 -0.2659 -0.3456  0.6352
 1359Sol     HW 8570   2.144   3.141   5.264 -0.9113  0.3014  1.5925
 1359Sol     HW 8571   2.140   3.272   5.188 -0.4565  0.1112  1.2384
 1359Sol     MW 8572   2.186   3.217   5.242 -0.2346  0.2614  0.0405
 1360Sol     OW 8573   1.607   0.007   5.309  0.0569 -0.5149  0.3834
 1360Sol     HW 8574   1.683   0.048   5.267  0.0424 -1.8450 -0.9945
 1360Sol     HW 8575   1.553  -0.022   5.236 -0.6339 -1.6625  1.3501
 1360Sol     MW 8576   1.609   0.008   5.298  0.3099 -0.7105 -0.3705
 1361Sol     OW 8577   1.179   2.498   8.152 -0.6654 -0.1325  0.1257
 1361Sol     HW 8578   1.273   2.485   8.162 -0.9999 -2.0222  1.1873
 1361Sol     HW 8579   1.170   2.586   8.116  1.4712  0.2928  0.5636
 1361Sol     MW 8580   1.186   2.504   8.149 -0.3630 -0.0116 -0.2680
 1362Sol     OW 8581   0.921   0.696   3.478 -0.5491  0.6237 -0.3094
 1362Sol     HW 8582   0.957   0.780   3.449  3.0065 -0.4472  0.7790
 1362Sol     HW 8583   0.953   0.632   3.415 -1.1630 -0.2830  0.2744
 1362Sol     MW 8584   0.927   0.698   3.470 -0.1616 -0.1203  0.2720
 1363Sol     OW 8585   3.255   0.262   3.701  0.6549  0.5304 -0.0235
 1363Sol     HW 8586   3.256   0.204   3.777  0.5989 -1.1834 -1.3205
 1363Sol     HW 8587   3.182   0.321   3.717  0.5553  0.0848  1.1878
 1363Sol     MW 8588   3.249   0.262   3.709  0.3998 -0.5751 -0.0423
 1364Sol     OW 8589   1.104   2.280   6.207  0.4611 -0.6168 -0.3173
 1364Sol     HW 8590   1.048   2.255   6.280 -0.8142  1.7049 -0.4364
 1364Sol     HW 8591   1.055   2.256   6.129  0.0774  0.4671 -0.4173
 1364Sol     MW 8592   1.095   2.276   6.206  0.0102  0.0610  0.2222
 1365Sol     OW 8593   0.348   0.449   7.527 -0.1256  0.0800  0.5118
 1365Sol     HW 8594   0.329   0.357   7.546 -0.5641  0.6409  2.9350
 1365Sol     HW 8595   0.384   0.484   7.608 -0.9627  2.3387 -0.0431
 1365Sol     MW 8596   0.350   0.444   7.536  0.5539  0.0952  0.1647
 1366Sol     OW 8597   3.284   0.751   4.880  0.5008 -0.0330  0.1397
 1366Sol     HW 8598   3.376   0.775   4.866  0.5133 -0.2552 -0.1496
 1366Sol     HW 8599   3.274   0.666   4.838 -0.0683  0.4125 -0.6320
 1366Sol     MW 8600   3.292   0.746   4.875  0.2021  0.5315 -0.6165
 1367Sol     OW 8601   1.884   0.086   6.689  0.1575 -0.2970 -0.0742
 1367Sol     HW 8602   1.949   0.095   6.619  0.3861  0.2606  0.2058
 1367Sol     HW 8603   1.817   0.150   6.669  0.0322 -0.4010  0.0074
 1367Sol     MW 8604   1.884   0.092   6.681  0.1993  0.8334  0.1882
 1368Sol     OW 8605   0.685   0.127   3.939  0.3027 -0.2130 -0.2375
 1368Sol     HW 8606   0.754   0.147   3.875 -0.3021 -0.9199 -1.1346
 1368Sol     HW 8607   0.614   0.089   3.886 -0.1317 -0.9927  0.8775
 1368Sol     MW 8608   0.685   0.125   3.928 -0.2177  0.1379  0.7083
 1369Sol     OW 8609   1.661   0.296   4.237  0.2099 -0.4654  0.5639
 1369Sol     HW 8610   1.710   0.298   4.155  0.8430  1.4291  0.9518
 1369Sol     HW 8611   1.728   0.276   4.304  0.2177  0.6870  0.9201
 1369Sol     MW 8612   1.672   0.295   4.236  0.9367 -0.2571  0.1330
 1370Sol     OW 8613   1.680   1.318   7.189 -0.3318  0.4243  0.0758
 1370Sol     HW 8614   1.636   1.367   7.118  1.0039  0.8551 -0.4773
 1370Sol     HW 8615   1.715   1.386   7.246 -1.0472  0.0747  0.9463
 1370Sol     MW 8616   1.679   1.329   7.187  0.3591 -0.4230 -0.7370
 1371Sol     OW 8617   2.182   2.135   4.989 -0.6489 -0.3761  0.2458
 1371Sol     HW 8618   2.102   2.183   5.010 -1.1049 -0.9211 -0.2188
 1371Sol     HW 8619   2.166   2.098   4.902  0.4495  0.2105 -0.2078
 1371Sol     MW 8620   2.173   2.136   4.983 -0.0166  0.5202 -0.2044
 1372Sol     OW 8621   3.161   1.052   6.615  0.0367 -0.2799  0.1390
 1372Sol     HW 8622   3.138   1.137   6.577  0.7734 -0.3484 -0.4843
 1372Sol     HW 8623   3.257   1.054   6.621  0.0196 -0.8491  0.6402
 1372Sol     MW 8624   3.168   1.060   6.612 -0.5256 -0.0110  0.3732
 1373Sol     OW 8625   2.529   0.204   8.090 -0.0867  0.8691  0.3152
 1373Sol     HW 8626   2.584   0.208   8.168 -2.2270 -0.0514  1.8827
 1373Sol     HW 8627   2.462   0.271   8.104 -0.3746  0.8353 -0.8365
 1373Sol     MW 8628   2.528   0.210   8.098 -0.0113 -0.1211 -0.0478
 1374Sol     OW 8629   1.148   1.589   7.464 -0.4395 -0.3210 -0.2572
 1374Sol     HW 8630   1.064   1.597   7.418 -0.8788  2.8013  0.9698
 1374Sol     HW 8631   1.124   1.566   7.554 -0.0168  0.7913  0.1472
 1374Sol     MW 8632   1.138   1.588   7.468 -0.0480 -0.0714 -0.7234
 1375Sol     OW 8633   2.899   3.179   6.637  0.7186  0.0601 -0.0614
 1375Sol     HW 8634   2.811   3.191   6.675  0.9671 -0.5784  0.7273
 1375Sol     HW 8635   2.900   3.088   6.608  2.1070 -0.8185  2.5632
 1375Sol     MW 8636   2.891   3.172   6.638  0.4274  0.2210  0.3067
 1376Sol     OW 8637   2.382   1.206   5.107 -0.4163 -0.4398  0.9247
 1376Sol     HW 8638   2.292   1.196   5.138 -0.4325 -1.7528  0.5219
 1376Sol     HW 8639   2.382   1.163   5.021  0.4803 -0.0455  0.7249
 1376Sol     MW 8640   2.374   1.201   5.102 -0.0824  0.3520 -0.3368
 1377Sol     OW 8641   1.937   0.029   2.364 -0.1067 -0.3698  0.0065
 1377Sol     HW 8642   2.008  -0.004   2.309  0.2961 -0.5598  0.6314
 1377Sol     HW 8643   1.959   0.121   2.380  0.7748 -0.8019  1.3939
 1377Sol     MW 8644   1.945   0.034   2.361 -0.1273 -0.1572  0.0090
 1378Sol     OW 8645   2.936   1.707   7.238 -0.3916  0.3873 -0.3128
 1378Sol     HW 8646   2.879   1.696   7.162  0.7168  1.6704 -1.3811
 1378Sol     HW 8647   3.014   1.655   7.218 -0.8943 -0.8268  0.8317
 1378Sol     MW 8648   2.938   1.702   7.229 -0.3379  0.3163 -0.2485
 1379Sol     OW 8649   1.021   1.591   2.715 -0.0023 -0.3358 -0.8508
 1379Sol     HW 8650   0.975   1.623   2.793 -1.6385 -0.8047 -1.6094
 1379Sol     HW 8651   1.047   1.502   2.738 -1.6294 -0.9336 -1.3130
 1379Sol     MW 8652   1.019   1.586   2.724 -0.0126  0.0414 -0.2786
 1380Sol     OW 8653   2.166   3.207   7.426 -0.5501  0.1488 -0.2523
 1380Sol     HW 8654   2.120   3.168   7.353 -0.2937 -1.4623  0.4297
 1380Sol     HW 8655   2.214   3.281   7.388  1.2207 -1.8953 -2.1132
 1380Sol     MW 8656   2.166   3.210   7.416 -0.0365 -0.0356  0.3882
 1381Sol     OW 8657   1.491   0.286   7.081  0.3863 -0.7903  0.8208
 1381Sol     HW 8658   1.444   0.203   7.087 -0.8007 -0.0319  2.5877
 1381Sol     HW 8659   1.582   0.261   7.065 -0.0315 -2.4189  0.8574
 1381Sol     MW 8660   1.495   0.276   7.080  0.5088  0.0832 -0.1755
 1382Sol     OW 8661   2.340   1.264   6.828  0.8813 -0.0397 -0.4654
 1382Sol     HW 8662   2.313   1.190   6.775 -1.0765  0.5645 -0.3398
 1382Sol     HW 8663   2.348   1.336   6.766 -1.7107  0.7456  0.0446
 1382Sol     MW 8664   2.338   1.264   6.818  0.1121  0.0856 -0.1693
 1383Sol     OW 8665   2.351   3.204   8.630 -0.3263  0.3783 -0.0647
 1383Sol     HW 8666   2.337   3.293   8.599  1.1902  0.9265  0.7613
 1383Sol     HW 8667   2.441   3.183   8.605 -0.4917 -0.7241  0.2088
 1383Sol     MW 8668   2.358   3.210   8.625 -0.4845  0.2514  0.3097
 1384Sol     OW 8669   0.333   1.696   6.667 -0.0589  0.8124  0.3481
 1384Sol     HW 8670   0.243   1.665   6.678  0.6105 -0.9800  1.0720
 1384Sol     HW 8671   0.351   1.684   6.574 -0.2711  0.3101  0.3706
 1384Sol     MW 8672   0.327   1.692   6.660 -0.0275 -0.1076  0.1085
 1385Sol     OW 8673   3.110   0.173   4.761 -0.3974  0.5471  0.1471
 1385Sol     HW 8674   3.084   0.084   4.738  1.7689 -0.1088  0.1145
 1385Sol     HW 8675   3.139   0.166   4.852 -0.1879  1.2251  0.1324
 1385Sol     MW 8676   3.110   0.164   4.767  0.5645 -0.2830  0.4003
 1386Sol     OW 8677   0.850   0.183   9.369  0.0799  0.1041  0.1847
 1386Sol     HW 8678   0.772   0.218   9.326  0.0165  0.9816  1.0129
 1386Sol     HW 8679   0.900   0.142   9.298 -1.2614 -0.7117 -0.3073
 1386Sol     MW 8680   0.848   0.182   9.359  0.2168  0.3390 -0.3806
 1387Sol     OW 8681   0.054   0.899   4.579  0.0097 -0.0693 -0.2545
 1387Sol     HW 8682   0.120   0.967   4.579 -1.1040  1.0363  0.9746
 1387Sol     HW 8683   0.103   0.817   4.581  1.3241  0.7301  0.3124
 1387Sol     MW 8684   0.064   0.898   4.579 -0.3910 -0.4595  0.7236
 1388Sol     OW 8685   0.130   1.040   7.193  0.1502 -0.6186  0.0229
 1388Sol     HW 8686   0.161   0.953   7.217 -1.3248 -1.7785 -2.0748
 1388Sol     HW 8687   0.126   1.088   7.276  1.2695 -2.4276  1.1669
 1388Sol     MW 8688   0.133   1.037   7.203  0.0317  0.4808  0.5632
 1389Sol     OW 8689   2.655   2.554   6.245  0.7126  0.0922 -0.2433
 1389Sol     HW 8690   2.638   2.591   6.158 -0.8819  0.9446  0.4270
 1389Sol     HW 8691   2.627   2.463   6.238  2.2324 -0.3341 -1.1253
 1389Sol     MW 8692   2.651   2.549   6.236 -0.3854  0.2133 -0.1505
 1390Sol     OW 8693   0.293   1.766   7.285 -0.0418  0.2233 -0.0394
 1390Sol     HW 8694   0.338   1.850   7.285 -1.0322  0.7519  0.0486
 1390Sol     HW 8695   0.218   1.778   7.226 -0.8576 -0.2346  0.8926
 1390Sol     MW 8696   0.290   1.774   7.279 -0.6390  0.2619 -0.5398
 1391Sol     OW 8697   1.687   3.236   3.164  0.0311 -0.0776 -0.3438
 1391Sol     HW 8698   1.597   3.224   3.195 -0.1112  2.3312  0.2351
 1391Sol     HW 8699   1.738   3.176   3.219 -1.1726 -1.3805 -0.5918
 1391Sol     MW 8700   1.683   3.229   3.172  0.0353  0.2290 -0.8636
 1392Sol     OW 8701   3.022   0.362   8.166 -0.6283  0.0835 -0.2352
 1392Sol     HW 8702   3.108   0.403   8.169 -0.9908  1.0245 -2.0819
 1392Sol     HW 8703   3.039   0.269   8.182  0.3351  0.6906  2.6541
 1392Sol     MW 8704   3.031   0.357   8.168  0.1013 -0.4643 -0.0967
 1393Sol     OW 8705   0.468   1.769   9.286 -0.0972  0.8254 -0.3815
 1393Sol     HW 8706   0.490   1.863   9.288 -0.6672  0.9461  1.3606
 1393Sol     HW 8707   0.398   1.760   9.351 -1.2595 -0.5199 -1.7897
 1393Sol     MW 8708   0.463   1.777   9.292  0.4399 -0.2734 -0.1410
 1394Sol     OW 8709   0.094   0.636   1.978  0.2419  0.1303  0.0756
 1394Sol     HW 8710   0.110   0.554   1.931  1.9584 -1.0512  2.6228
 1394Sol     HW 8711   0.023   0.615   2.038 -0.1526  0.8889 -0.1182
 1394Sol     MW 8712   0.089   0.627   1.979  0.2548  0.3911 -0.0312
 1395Sol     OW 8713   1.444   1.312   8.849  0.2384 -0.3636  0.4079
 1395Sol     HW 8714   1.500   1.278   8.918 -0.6763  0.6933  1.7109
 1395Sol     HW 8715   1.450   1.407   8.859  1.1286 -0.1499 -1.8234
 1395Sol     MW 8716   1.450   1.318   8.856  0.2264 -0.1232 -0.3720
 1396Sol     OW 8717   0.840   2.152   4.066 -0.7128 -0.0799 -0.2088
 1396Sol     HW 8718   0.933   2.173   4.074 -0.8110  0.8075 -1.2822
 1396Sol     HW 8719   0.832   2.114   3.978 -0.9394 -2.5415  0.8223
 1396Sol     MW 8720   0.848   2.150   4.059 -0.3573  0.5341 -0.2962
 1397Sol     OW 8721   1.326   0.627   9.003 -0.4387 -0.0636  0.2674
 1397Sol     HW 8722   1.365   0.603   8.919  0.7899  1.7149  0.2988
 1397Sol     HW 8723   1.245   0.672   8.979 -0.1127  0.3987  0.0230
 1397Sol     MW 8724   1.322   0.629   8.993 -0.3274  0.0941  0.4338
 1398Sol     OW 8725   0.908   1.364   6.314  0.1537 -0.1734 -0.1198
 1398Sol     HW 8726   0.907   1.357   6.218  0.1262  0.7297 -0.1857
 1398Sol     HW 8727   0.833   1.312   6.343 -1.6194  1.9567 -0.7535
 1398Sol     MW 8728   0.901   1.359   6.308  0.6143 -0.3397 -0.9027
 1399Sol     OW 8729   2.037   0.081   6.457 -0.3020 -0.2055 -0.0339
 1399Sol     HW 8730   1.972   0.143   6.422 -0.8386 -1.6627 -1.7028
 1399Sol     HW 8731   2.117   0.101   6.408 -0.2809 -0.3602 -0.0621
 1399Sol     MW 8732   2.038   0.088   6.449 -0.6062  0.1711  0.0664
 1400Sol     OW 8733   2.391   0.151   9.463 -0.4086 -0.1779 -0.6803
 1400Sol     HW 8734   2.446   0.094   9.517  1.2073  2.6061  0.7091
 1400Sol     HW 8735   2.306   0.150   9.507  0.5945  1.2086  1.3960
 1400Sol     MW 8736   2.388   0.146   9.472 -0.1917  0.1684  0.6664
 1401Sol     OW 8737   0.010   0.717   8.510  0.1021 -0.1086  0.1466
 1401Sol     HW 8738  -0.063   0.668   8.548  0.2808 -0.8643 -0.4768
 1401Sol     HW 8739  -0.023   0.747   8.425  1.0104 -1.7115 -0.7856
 1401Sol     MW 8740   0.001   0.715   8.506  0.0838  0.3775 -0.0316
 1402Sol     OW 8741   1.590   1.991   2.723 -0.1506  0.1668 -0.5119
 1402Sol     HW 8742   1.561   1.984   2.633 -2.0445  0.1322  0.0806
 1402Sol     HW 8743   1.586   2.084   2.743 -0.8331  0.0555 -0.1155
 1402Sol     MW 8744   1.587   1.998   2.717 -0.1112 -0.3544 -0.0426
 1403Sol     OW 8745   2.344   2.628   5.449  0.4443  0.2184 -0.6284
 1403Sol     HW 8746   2.384   2.702   5.403 -1.4323  1.4905 -0.2898
 1403Sol     HW 8747   2.266   2.665   5.491  0.1173 -1.7036  0.5461
 1403Sol     MW 8748   2.341   2.638   5.449  0.1459 -0.1501  1.0283
 1404Sol     OW 8749   0.629   1.795   5.784  0.7040 -0.1209 -0.1150
 1404Sol     HW 8750   0.643   1.885   5.754  1.1604 -0.5510 -1.2243
 1404Sol     HW 8751   0.554   1.800   5.842  0.3563  0.8890 -0.6407
 1404Sol     MW 8752   0.624   1.803   5.786 -0.6237 -0.6111 -0.0202
 1405Sol     OW 8753   0.088   2.734   7.071  0.6870 -0.3738 -0.3863
 1405Sol     HW 8754   0.139   2.728   6.990  1.3417  0.2644 -0.0209
 1405Sol     HW 8755   0.007   2.778   7.044  1.4627  1.0599 -0.4495
 1405Sol     MW 8756   0.085   2.738   7.061  0.2073  0.1609 -0.0707
 1406Sol     OW 8757   2.169   0.668   8.449  0.2220  0.2466  0.2182
 1406Sol     HW 8758   2.085   0.713   8.454  0.3998  0.4804  1.4950
 1406Sol     HW 8759   2.197   0.660   8.541  2.1681  1.3055 -0.2371
 1406Sol     MW 8760   2.164   0.672   8.458  0.8992  0.1006  0.0968
 1407Sol     OW 8761   1.912   2.777   2.648 -0.2767 -0.2092 -0.0607
 1407Sol     HW 8762   1.901   2.689   2.612 -0.1536  0.6348 -2.1929
 1407Sol     HW 8763   1.874   2.835   2.582  0.1626  1.3895  1.0684
 1407Sol     MW 8764   1.908   2.774   2.639 -0.3958 -0.7723  0.5793
 1408Sol     OW 8765   2.966   0.681   6.857  0.1121  0.3036  0.5969
 1408Sol     HW 8766   2.983   0.625   6.781  3.9852  1.6668  0.3375
 1408Sol     HW 8767   2.928   0.761   6.820 -1.2217 -0.3611  0.4977
 1408Sol     MW 8768   2.964   0.683   6.847 -0.1439 -0.6806  0.0963
 1409Sol     OW 8769   0.354   2.021   4.796 -0.1952  0.0952  0.3994
 1409Sol     HW 8770   0.429   1.987   4.747  0.3476 -1.3454  2.1538
 1409Sol     HW 8771   0.335   1.953   4.861 -1.9003  1.2360  1.1325
 1409Sol     MW 8772   0.359   2.012   4.798 -0.8975 -0.7114  1.2081
 1410Sol     OW 8773   1.140   3.152   9.061  0.3436 -0.2405 -0.4310
 1410Sol     HW 8774   1.140   3.087   8.990 -2.4632  0.0644 -0.7610
 1410Sol     HW 8775   1.128   3.101   9.141  1.2316 -0.3842 -0.3849
 1410Sol     MW 8776   1.139   3.141   9.062  0.3576 -0.4628 -0.2560
 1411Sol     OW 8777   1.329   1.017   5.873 -0.0461 -0.1971  0.0535
 1411Sol     HW 8778   1.327   0.986   5.964 -1.0161 -1.0830 -0.2629
 1411Sol     HW 8779   1.323   1.112   5.881 -1.1092 -0.3184  0.9005
 1411Sol     MW 8780   1.328   1.023   5.882  0.4492 -0.2164 -0.0021
 1412Sol     OW 8781   0.352   0.905   8.124  0.5158 -0.1679 -0.3274
 1412Sol     HW 8782   0.390   0.992   8.120  0.1279 -0.0467 -1.6695
 1412Sol     HW 8783   0.277   0.914   8.182  1.7625 -0.1268  1.3201
 1412Sol     MW 8784   0.349   0.913   8.129  0.3315 -0.5873  0.0520
 1413Sol     OW 8785   2.302   3.183   5.766 -0.5400 -0.1020  0.2406
 1413Sol     HW 8786   2.307   3.130   5.845  1.2154 -0.5630 -0.1454
 1413Sol     HW 8787   2.210   3.207   5.758 -0.9839 -1.3146  1.5797
 1413Sol     MW 8788   2.294   3.181   5.772 -0.5402  0.1964 -0.7772
 1414Sol     OW 8789   3.049   0.325   6.994  0.4520 -0.0855  0.8499
 1414Sol     HW 8790   3.007   0.395   7.045 -0.9043 -1.0435  1.0720
 1414Sol     HW 8791   3.083   0.264   7.059 -0.7224 -0.9893  0.6271
 1414Sol     MW 8792   3.048   0.326   7.004  0.3474  0.3769  0.4025
 1415Sol     OW 8793   1.263   1.318   6.168  0.7043 -0.5093  0.0887
 1415Sol     HW 8794   1.232   1.250   6.228  0.1940  0.5567  1.0540
 1415Sol     HW 8795   1.346   1.347   6.206 -0.0384  0.7593  0.7525
 1415Sol     MW 8796   1.268   1.314   6.176  0.4054  0.5520 -0.4689
 1416Sol     OW 8797   0.905   3.234   6.216  0.0086  0.5120 -0.6433
 1416Sol     HW 8798   0.820   3.240   6.172 -0.0713  0.8468 -0.4410
 1416Sol     HW 8799   0.952   3.313   6.189 -0.0687  0.7526 -0.0638
 1416Sol     MW 8800   0.902   3.242   6.210 -0.0070  0.0039  0.1619
 1417Sol     OW 8801   1.035   2.968   3.066  0.1716  0.5512 -0.3871
 1417Sol     HW 8802   1.092   2.891   3.057  0.3204  0.6346 -0.1522
 1417Sol     HW 8803   1.038   3.010   2.980 -1.5040 -0.8181 -1.1478
 1417Sol     MW 8804   1.040   2.965   3.057  0.3834 -0.0803  0.9303
 1418Sol     OW 8805   0.900   1.287   7.660  0.2532  0.0124 -0.4437
 1418Sol     HW 8806   0.835   1.341   7.614  2.0330  2.6377  0.0023
 1418Sol     HW 8807   0.928   1.223   7.595 -2.5850 -1.0229 -0.7068
 1418Sol     MW 8808   0.896   1.286   7.650 -0.1510 -0.2552  0.2622
 1419Sol     OW 8809   0.975   1.807   3.957 -0.2154  0.0903  0.4512
 1419Sol     HW 8810   0.958   1.846   4.043 -1.8049  1.4452 -0.4526
 1419Sol     HW 8811   0.910   1.738   3.949  0.7086 -0.8434  0.8142
 1419Sol     MW 8812   0.968   1.804   3.964  0.2824 -0.6306  0.4133
 1420Sol     OW 8813   3.285   1.945   7.452  0.8363  0.0299  0.1483
 1420Sol     HW 8814   3.322   1.881   7.513  0.8076 -0.2793 -0.1604
 1420Sol     HW 8815   3.277   1.898   7.369  0.7300  0.4056 -0.0565
 1420Sol     MW 8816   3.288   1.935   7.450 -0.7621 -0.0656  0.3778
 1421Sol     OW 8817   1.128   1.144   2.958  0.0660 -0.2590 -0.0861
 1421Sol     HW 8818   1.066   1.180   2.894 -0.7367 -0.8761  0.3318
 1421Sol     HW 8819   1.140   1.053   2.930 -1.2829 -0.9095  1.3673
 1421Sol     MW 8820   1.124   1.139   2.950 -0.3696  0.8220  0.2489
 1422Sol     OW 8821   0.714   3.052   5.798  0.2835  0.0448  0.3844
 1422Sol     HW 8822   0.708   2.982   5.863 -0.9854  0.9391  1.2525
 1422Sol     HW 8823   0.630   3.096   5.802  1.5307  2.4882  0.8248
 1422Sol     MW 8824   0.706   3.050   5.804  0.4719  0.5315  0.9187
 1423Sol     OW 8825   3.226   1.318   7.891  0.3253 -0.1627  0.4283
 1423Sol     HW 8826   3.292   1.343   7.956  1.8301  0.0037 -1.1420
 1423Sol     HW 8827   3.241   1.376   7.817 -0.6982 -1.0501 -0.5008
 1423Sol     MW 8828   3.233   1.326   7.890  0.1659 -0.0591  0.5365
 1424Sol     OW 8829   2.223   1.414   9.385 -0.0010  0.1755 -0.1398
 1424Sol     HW 8830   2.276   1.494   9.382  0.0314  0.1353 -0.6450
 1424Sol     HW 8831   2.136   1.444   9.410 -0.1322  0.4414 -0.9082
 1424Sol     MW 8832   2.220   1.424   9.387  0.5281 -0.3552  0.6274
 1425Sol     OW 8833   3.257   2.999   3.890  0.4537  0.3933  0.1042
 1425Sol     HW 8834   3.215   3.025   3.808  1.3920  0.5371 -0.3337
 1425Sol     HW 8835   3.282   2.907   3.875  4.5574  1.6471 -1.4333
 1425Sol     MW 8836   3.255   2.993   3.881 -0.1077 -0.5916 -0.0868
 1426Sol     OW 8837   3.285   2.741   5.760 -0.1533  0.8026  0.2769
 1426Sol     HW 8838   3.259   2.735   5.852  0.9798  0.3723  0.5723
 1426Sol     HW 8839   3.256   2.828   5.732  0.0246  1.1556  1.1971
 1426Sol     MW 8840   3.280   2.748   5.765  0.3688  0.0337 -0.0785
 1427Sol     OW 8841   0.359   2.604   8.107  0.1164 -0.1956  0.3542
 1427Sol     HW 8842   0.282   2.550   8.123 -0.2650  0.2378 -0.0050
 1427Sol     HW 8843   0.389   2.578   8.020 -0.2351  0.3737  0.0618
 1427Sol     MW 8844   0.355   2.597   8.101  0.0598  0.4268 -0.6603
 1428Sol     OW 8845   0.453   1.907   7.909  0.0681  0.2967  0.2451
 1428Sol     HW 8846   0.514   1.903   7.835 -0.4502 -0.7637 -0.1369
 1428Sol     HW 8847   0.464   1.995   7.945  0.3260  0.8250 -1.1011
 1428Sol     MW 8848   0.459   1.915   7.905 -0.3076  0.1205  0.3332
 1429Sol     OW 8849   1.911   3.413   9.481 -0.0826  0.1643 -0.3020
 1429Sol     HW 8850   1.836   3.385   9.533  0.0389 -0.1610 -0.3041
 1429Sol     HW 8851   1.908   3.509   9.485 -1.5055  0.2111 -1.7131
 1429Sol     MW 8852   1.904   3.419   9.486  0.0019  0.3617 -0.4429
 1430Sol     OW 8853   2.060   0.220   6.118  0.7580  0.2553 -0.0684
 1430Sol     HW 8854   2.052   0.154   6.049 -1.2243 -0.1930  0.5615
 1430Sol     HW 8855   2.097   0.171   6.193 -1.3046 -0.3218  0.6018
 1430Sol     MW 8856   2.063   0.209   6.119  0.0215  0.1016 -0.2660
 1431Sol     OW 8857   3.323   2.327   7.780  0.9471  0.2458  0.3809
 1431Sol     HW 8858   3.402   2.348   7.730 -0.5259  2.4631 -1.0927
 1431Sol     HW 8859   3.289   2.411   7.809 -1.2216 -0.6127  0.4513
 1431Sol     MW 8860   3.327   2.336   7.778  0.2811 -0.0733 -0.6525
 1432Sol     OW 8861   2.931   2.028   6.912  0.4111  0.3222  0.3932
 1432Sol     HW 8862   2.850   2.001   6.869  0.4828  1.3218 -0.3974
 1432Sol     HW 8863   2.919   2.005   7.004 -0.6361  0.1533  0.2178
 1432Sol     MW 8864   2.923   2.024   6.916  0.0692  0.1539 -0.0739
 1433Sol     OW 8865   1.142   0.899   8.016  0.2125 -0.2602 -0.2434
 1433Sol     HW 8866   1.100   0.813   8.012 -0.1908 -0.0159 -1.3890
 1433Sol     HW 8867   1.076   0.958   8.052  0.6312 -0.5014  0.9589
 1433Sol     MW 8868   1.132   0.897   8.019 -0.0974 -0.6617 -0.0637
 1434Sol     OW 8869   2.034   0.379   7.480 -0.6165 -0.4270 -0.3609
 1434Sol     HW 8870   2.080   0.298   7.500  1.3766  1.2710  2.3595
 1434Sol     HW 8871   2.096   0.431   7.430 -0.3785  0.9157  1.2632
 1434Sol     MW 8872   2.043   0.376   7.478  0.3382  0.4277 -0.2193
 1435Sol     OW 8873   1.690   0.666   8.953  0.5212  0.0973 -0.0748
 1435Sol     HW 8874   1.784   0.684   8.950  0.5971 -0.4287 -1.4103
 1435Sol     HW 8875   1.674   0.613   8.875 -0.7259 -0.5857  0.6291
 1435Sol     MW 8876   1.697   0.663   8.946 -0.3536  0.1670 -0.6509
 1436Sol     OW 8877   1.492   0.664   7.634  0.4974 -0.2162  0.0704
 1436Sol     HW 8878   1.543   0.698   7.707 -1.0309  0.8947  0.6527
 1436Sol     HW 8879   1.417   0.621   7.675  0.2452 -0.6368 -0.8158
 1436Sol     MW 8880   1.490   0.663   7.644 -0.2710 -0.7235  0.3775
 1437Sol     OW 8881   2.726   0.069   4.012  0.0801  0.8904  0.3051
 1437Sol     HW 8882   2.680   0.101   4.090 -0.7100  2.1877 -0.6703
 1437Sol     HW 8883   2.721   0.142   3.951  4.1703  1.3648  0.4488
 1437Sol     MW 8884   2.721   0.078   4.014  0.1021  0.2373 -0.1335
 1438Sol     OW 8885   2.457   3.045   7.153  0.4022  0.3150  0.7410
 1438Sol     HW 8886   2.363   3.063   7.158  0.6428  1.5306  1.0448
 1438Sol     HW 8887   2.482   3.026   7.244  0.3157 -0.6735  0.5537
 1438Sol     MW 8888   2.451   3.045   7.162  0.1873 -0.0715 -0.0396
 1439Sol     OW 8889   1.618   2.564   2.325  0.4065 -0.0273  0.5933
 1439Sol     HW 8890   1.674   2.640   2.340  0.2820  0.4689 -1.4215
 1439Sol     HW 8891   1.529   2.598   2.332  0.3528 -0.0209 -0.0759
 1439Sol     MW 8892   1.615   2.574   2.327 -0.1788 -0.2919 -0.0719
 1440Sol     OW 8893   2.215   3.025   4.580  0.0772 -0.2327 -0.1328
 1440Sol     HW 8894   2.154   3.086   4.621  0.8049  1.3046 -1.2685
 1440Sol     HW 8895   2.200   3.037   4.486  0.5626 -1.4579 -0.3707
 1440Sol     MW 8896   2.208   3.032   4.575 -0.3431 -0.4290 -0.3973
 1441Sol     OW 8897   0.690   2.789   8.807  0.2945  0.1475  0.0091
 1441Sol     HW 8898   0.621   2.812   8.868 -0.1064 -0.7306 -0.1075
 1441Sol     HW 8899   0.666   2.703   8.774 -0.5328  1.4408 -2.8969
 1441Sol     MW 8900   0.682   2.783   8.810 -0.2101  0.6864 -0.2871
 1442Sol     OW 8901   1.873   3.231   4.481 -0.6929  0.1229 -0.0298
 1442Sol     HW 8902   1.811   3.207   4.550 -0.3042  2.3561  1.1442
 1442Sol     HW 8903   1.904   3.147   4.447 -1.0191 -1.0368  2.4110
 1442Sol     MW 8904   1.870   3.221   4.484 -0.6131 -0.3595 -0.3841
 1443Sol     OW 8905   1.115   1.487   6.439 -0.6064 -0.3376 -0.3394
 1443Sol     HW 8906   1.054   1.438   6.384 -0.7686 -2.5191  1.6587
 1443Sol     HW 8907   1.180   1.421   6.467 -0.3023  0.7851  1.6950
 1443Sol     MW 8908   1.116   1.476   6.437 -0.7481 -0.1271 -0.2126
 1444Sol     OW 8909   0.114   1.768   6.229 -0.9645 -0.0382 -0.4071
 1444Sol     HW 8910   0.069   1.846   6.198 -0.3368  0.4481 -0.1104
 1444Sol     HW 8911   0.050   1.698   6.220 -1.1069  0.2744 -1.8877
 1444Sol     MW 8912   0.105   1.769   6.226  0.0844  0.4010  0.3816
 1445Sol     OW 8913   1.698   1.155   2.999 -0.2330 -0.6276 -0.4862
 1445Sol     HW 8914   1.715   1.098   3.074  0.3034 -1.8191 -1.4916
 1445Sol     HW 8915   1.624   1.209   3.026  0.8683 -0.0590  1.4230
 1445Sol     MW 8916   1.693   1.154   3.008 -0.2394  0.7937 -0.0740
 1446Sol     OW 8917   1.121   3.139   8.320  0.2209  0.5333 -0.0205
 1446Sol     HW 8918   1.120   3.057   8.369 -0.9214 -0.3912 -1.5270
 1446Sol     HW 8919   1.208   3.177   8.337  1.2269 -1.5811 -0.2521
 1446Sol     MW 8920   1.129   3.135   8.326 -0.5557  0.5049 -0.0283
 1447Sol     OW 8921   2.440   2.938   4.172 -0.0053 -0.0713 -0.7383
 1447Sol     HW 8922   2.448   3.030   4.196 -1.2255 -0.3080  0.5849
 1447Sol     HW 8923   2.403   2.939   4.083  0.6097  0.7183 -0.9840
 1447Sol     MW 8924   2.438   2.946   4.166  0.0776  0.7169 -0.0223
 1448Sol     OW 8925   2.332   1.120   2.640  0.6537  0.1029  0.5665
 1448Sol     HW 8926   2.314   1.037   2.595 -1.0369  0.4231  0.6099
 1448Sol     HW 8927   2.425   1.137   2.624  1.2018 -2.1783  1.1914
 1448Sol     MW 8928   2.339   1.114   2.634  0.3969 -0.2394  0.1608
 1449Sol     OW 8929   2.877   1.918   5.889  0.3127 -0.4092 -0.1091
 1449Sol     HW 8930   2.961   1.946   5.852  0.0317  0.5823 -0.0266
 1449Sol     HW 8931   2.878   1.952   5.978 -1.6510  2.8121 -1.2016
 1449Sol     MW 8932   2.885   1.924   5.893  0.6528  0.3909  0.0898
 1450Sol     OW 8933   0.931   2.601   9.917  0.1690  0.0793 -0.3129
 1450Sol     HW 8934   0.981   2.520   9.916  2.9957  1.7563 -0.4977
 1450Sol     HW 8935   0.964   2.650   9.842  0.0876  2.2986  1.0635
 1450Sol     MW 8936   0.939   2.598   9.910 -0.0837  0.4619  0.4191
 1451Sol     OW 8937   2.493   0.251   7.044 -0.4967  0.2422  0.3351
 1451Sol     HW 8938   2.510   0.345   7.052  0.4905  0.3334 -2.2248
 1451Sol     HW 8939   2.398   0.242   7.057 -0.6043  1.5914  0.5239
 1451Sol     MW 8940   2.486   0.259   7.046  0.4871 -0.4103 -0.0040
 1452Sol     OW 8941   1.755   1.463   8.885  0.3586  0.7238  0.1626
 1452Sol     HW 8942   1.776   1.370   8.894  1.1111  0.9119  0.4094
 1452Sol     HW 8943   1.697   1.483   8.958 -0.2612  0.3110 -0.2211
 1452Sol     MW 8944   1.752   1.456   8.892  0.1140 -0.1593 -0.2929
 1453Sol     OW 8945   3.268   0.101   2.997 -0.2637 -0.1737 -0.2943
 1453Sol     HW 8946   3.292   0.186   3.035 -2.3500  0.5077 -0.4023
 1453Sol     HW 8947   3.251   0.120   2.905  0.6648 -1.0105 -0.6497
 1453Sol     MW 8948   3.269   0.111   2.992  0.7613  0.3775  0.0097
 1454Sol     OW 8949   0.574   3.320   2.595 -0.2704  0.2632 -0.1769
 1454Sol     HW 8950   0.496   3.291   2.642 -1.0441  0.4027 -1.3818
 1454Sol     HW 8951   0.568   3.416   2.595  0.1562  0.2942  0.1485
 1454Sol     MW 8952   0.567   3.326   2.599 -0.3983 -0.2706 -0.1786
 1455Sol     OW 8953   0.528   1.048   5.554 -0.1178  0.2421  0.2993
 1455Sol     HW 8954   0.574   0.968   5.580 -0.7417 -0.3017 -0.2822
 1455Sol     HW 8955   0.561   1.068   5.466 -0.2079  0.4495  0.3112
 1455Sol     MW 8956   0.535   1.043   5.549  0.2886 -0.2621 -0.5064
 1456Sol     OW 8957   3.210   1.348   4.579 -0.2421 -0.0047  0.2304
 1456Sol     HW 8958   3.245   1.385   4.660  0.8345 -1.9070  0.6842
 1456Sol     HW 8959   3.124   1.313   4.604 -1.5127  2.6337 -0.3380
 1456Sol     MW 8960   3.205   1.348   4.589 -0.0022  0.2753 -0.2168
 1457Sol     OW 8961   1.929   0.238   2.087  0.1425 -0.3320  0.4630
 1457Sol     HW 8962   1.865   0.191   2.034  0.4721  0.9158 -1.1160
 1457Sol     HW 8963   1.981   0.169   2.129 -1.0402 -1.3494  0.2780
 1457Sol     MW 8964   1.928   0.228   2.086  0.2146 -0.3810 -0.1773
 1458Sol     OW 8965   2.439   0.808   6.544  0.0733 -0.8679  0.7142
 1458Sol     HW 8966   2.357   0.850   6.569 -1.0178 -1.9440 -0.8736
 1458Sol     HW 8967   2.503   0.838   6.608 -0.6870  3.0228 -0.2546
 1458Sol     MW 8968   2.438   0.814   6.552  0.1220 -0.2522 -0.0274
 1459Sol     OW 8969   2.215   3.032   2.461 -0.5813 -0.4300  0.5960
 1459Sol     HW 8970   2.159   3.082   2.519 -0.1934 -1.2174  1.6549
 1459Sol     HW 8971   2.155   2.992   2.398 -0.8834  1.4338 -0.3288
 1459Sol     MW 8972   2.205   3.033   2.460 -0.4222 -0.1006 -0.5186
 1460Sol     OW 8973   0.975   0.742   2.610 -0.4146  0.3050  0.8119
 1460Sol     HW 8974   0.952   0.676   2.675  2.2263  0.9897  2.5642
 1460Sol     HW 8975   1.017   0.694   2.540  0.0951 -0.0744  1.3691
 1460Sol     MW 8976   0.977   0.732   2.610  0.7930 -0.2086  0.4184
 1461Sol     OW 8977   1.832   3.103   1.486  0.3034 -0.0182 -0.0148
 1461Sol     HW 8978   1.890   3.033   1.455 -0.2245 -0.5719  0.2277
 1461Sol     HW 8979   1.747   3.060   1.496 -0.6108  1.2197 -2.1799
 1461Sol     MW 8980   1.830   3.093   1.484 -0.0812  0.6085  0.4503
 1462Sol     OW 8981   2.872   2.936   6.543 -0.1245  0.0004  0.3954
 1462Sol     HW 8982   2.843   2.889   6.621 -2.1478 -0.8341 -0.8257
 1462Sol     HW 8983   2.956   2.895   6.521  0.3320  0.0473  1.9271
 1462Sol     MW 8984   2.877   2.928   6.548  0.4861  0.3176  0.1216
 1463Sol     OW 8985   3.240   3.046   8.212  0.3164 -0.5221  0.3231
 1463Sol     HW 8986   3.151   3.075   8.191  0.3640 -0.3868  0.3047
 1463Sol     HW 8987   3.247   3.057   8.307  0.5018 -0.0005  0.2509
 1463Sol     MW 8988   3.233   3.050   8.219 -0.3241  0.7738 -0.0704
 1464Sol     OW 8989   1.891   0.419   5.214 -0.0950  0.0997  0.1277
 1464Sol     HW 8990   1.959   0.364   5.176 -0.8776 -0.1329 -0.9412
 1464Sol     HW 8991   1.891   0.395   5.307  0.8798 -0.3177  0.0273
 1464Sol     MW 8992   1.897   0.412   5.219 -0.7059 -0.1635 -0.2550
 1465Sol     OW 8993   1.278   3.170   7.952  0.1800 -0.3991  0.0998
 1465Sol     HW 8994   1.297   3.181   7.859 -0.5549 -0.8068 -0.0982
 1465Sol     HW 8995   1.364   3.169   7.994  0.5017  0.0010 -0.5517
 1465Sol     MW 8996   1.288   3.171   7.948  0.9862 -0.0685  1.0014
 1466Sol     OW 8997   3.182   0.967   4.749  0.1308  0.0348  0.4996
 1466Sol     HW 8998   3.186   0.886   4.800  1.6672 -0.1539  0.0875
 1466Sol     HW 8999   3.250   0.957   4.682 -0.3844  1.2167 -0.2156
 1466Sol     MW 9000   3.188   0.959   4.747 -0.3713  0.2781 -0.1559
 1467Sol     OW 9001   0.602   2.739   3.131  0.1965 -0.0603 -0.8300
 1467Sol     HW 9002   0.562   2.747   3.217  0.7364 -2.8690 -0.2479
 1467Sol     HW 9003   0.695   2.757   3.146 -0.0175  1.3928 -1.2100
 1467Sol     MW 9004   0.607   2.741   3.140 -0.0123 -0.3851 -0.2100
 1468Sol     OW 9005   1.889   3.223   5.177  0.1737 -0.0060  0.3208
 1468Sol     HW 9006   1.873   3.291   5.112  1.1455 -0.8844 -0.8702
 1468Sol     HW 9007   1.806   3.178   5.186  0.0071  0.1696 -0.2766
 1468Sol     MW 9008   1.880   3.225   5.172 -0.4879 -0.3458 -0.0607
 1469Sol     OW 9009   1.694   2.454   3.718 -0.2983 -0.4534 -0.2285
 1469Sol     HW 9010   1.607   2.422   3.742 -0.4548  0.2876  0.1935
 1469Sol     HW 9011   1.753   2.414   3.781 -0.3714 -0.6953 -0.3126
 1469Sol     MW 9012   1.691   2.448   3.726  0.4107 -0.0132 -0.3881
 1470Sol     OW 9013   2.422   0.778   4.978  0.2712  0.5425  0.0922
 1470Sol     HW 9014   2.473   0.698   4.988  1.5766  1.5972  2.5858
 1470Sol     HW 9015   2.347   0.767   5.037 -0.3014  0.5717 -0.6287
 1470Sol     MW 9016   2.420   0.770   4.985 -0.1219 -0.1019  0.1438
 1471Sol     OW 9017   0.194   3.260   4.522 -0.0076 -0.2023  0.2538
 1471Sol     HW 9018   0.208   3.355   4.517 -0.5189 -0.1699 -0.6057
 1471Sol     HW 9019   0.194   3.231   4.431  3.6473 -1.5709  0.6083
 1471Sol     MW 9020   0.195   3.266   4.513  0.1251 -0.2827 -0.2745
 1472Sol     OW 9021   2.798   2.971   4.402  0.4786  0.0300  0.0187
 1472Sol     HW 9022   2.837   2.905   4.459 -0.1872 -1.2869 -1.0294
 1472Sol     HW 9023   2.862   2.984   4.333  0.0745 -0.4199 -0.4398
 1472Sol     MW 9024   2.807   2.967   4.401  0.1744 -0.3069 -0.5085
 1473Sol     OW 9025   1.395   0.624   3.120  0.3718  0.0670  0.0149
 1473Sol     HW 9026   1.446   0.672   3.055 -0.8945  0.8191 -0.4390
 1473Sol     HW 9027   1.451   0.551   3.145  2.5080  1.9982  1.0287
 1473Sol     MW 9028   1.405   0.622   3.116  0.2532  0.3416  0.0958
 1474Sol     OW 9029   3.175   0.556   2.094 -0.3036  0.9724  0.1502
 1474Sol     HW 9030   3.155   0.527   2.005 -0.3146  1.6565 -0.0695
 1474Sol     HW 9031   3.114   0.628   2.111  0.3919  1.5324  0.3242
 1474Sol     MW 9032   3.168   0.560   2.088  0.5443 -0.7374  0.1059
 1475Sol     OW 9033   3.323   2.069   6.489  0.2327 -0.6045  0.1597
 1475Sol     HW 9034   3.315   1.978   6.518 -0.6446 -0.2858  0.9865
 1475Sol     HW 9035   3.255   2.079   6.422 -0.2988 -0.3173  0.7330
 1475Sol     MW 9036   3.316   2.062   6.486  0.8010 -0.2087 -0.5078
 1476Sol     OW 9037   2.991   1.251   4.719 -0.0954  0.0701  0.2407
 1476Sol     HW 9038   2.987   1.186   4.649 -0.9443  1.5042 -1.0782
 1476Sol     HW 9039   2.916   1.231   4.775 -1.2268  0.7983 -0.9830
 1476Sol     MW 9040   2.984   1.244   4.717 -0.0327 -0.4469  0.0678
 1477Sol     OW 9041   2.549   0.213   4.630 -0.0750  0.4872 -0.3409
 1477Sol     HW 9042   2.550   0.254   4.544  0.3524  1.6077  0.1755
 1477Sol     HW 9043   2.642   0.209   4.656 -0.1102 -0.9134 -0.4288
 1477Sol     MW 9044   2.558   0.217   4.625  0.1098 -0.5090  0.2335
 1478Sol     OW 9045   1.706   0.821   1.904  0.6332  0.1756  0.3824
 1478Sol     HW 9046   1.698   0.916   1.909  0.5410  0.3150 -1.8700
 1478Sol     HW 9047   1.724   0.793   1.994 -3.5259  1.9084  1.8472
 1478Sol     MW 9048   1.707   0.827   1.913  0.0357 -0.2168  0.3469
 1479Sol     OW 9049   2.798   1.096   6.307 -0.4099 -0.0385  0.1251
 1479Sol     HW 9050   2.791   1.011   6.350  1.1584  0.3791  1.2535
 1479Sol     HW 9051   2.846   1.078   6.226 -0.8273 -0.3611 -0.0512
 1479Sol     MW 9052   2.802   1.087   6.303 -0.3154 -0.5365 -0.4714
 1480Sol     OW 9053   0.195   2.150   3.250 -0.1034  0.1055 -0.5224
 1480Sol     HW 9054   0.136   2.187   3.185  1.7451  1.7749 -1.2742
 1480Sol     HW 9055   0.240   2.080   3.204 -1.7819 -1.5076  0.1933
 1480Sol     MW 9056   0.193   2.147   3.240 -0.2079 -0.0627  0.2598
 1481Sol     OW 9057   1.739   2.432   9.879 -0.4807  0.0564  0.2336
 1481Sol     HW 9058   1.760   2.506   9.821 -0.6692  1.0304  1.3914
 1481Sol     HW 9059   1.654   2.455   9.917 -0.9020 -1.1257  0.0211
 1481Sol     MW 9060   1.733   2.441   9.877  0.3214 -0.0547  0.3454
 1482Sol     OW 9061   0.284   3.093   6.384  0.3054  0.6688  0.0384
 1482Sol     HW 9062   0.340   3.132   6.317  1.2711 -0.1522  0.3584
 1482Sol     HW 9063   0.340   3.031   6.429 -1.3440 -1.4682 -0.7837
 1482Sol     MW 9064   0.294   3.091   6.382  0.1763  0.1424 -0.6346
 1483Sol     OW 9065   0.944   1.670   5.446 -0.1656 -0.0056 -0.3908
 1483Sol     HW 9066   0.967   1.666   5.538  0.7705  2.6647 -0.4644
 1483Sol     HW 9067   0.868   1.729   5.443 -0.5754 -0.5651 -1.2749
 1483Sol     MW 9068   0.939   1.675   5.454 -0.2178 -0.2135  0.4751
 1484Sol     OW 9069   1.765   3.287   2.668  0.0029 -0.0209 -0.0544
 1484Sol     HW 9070   1.718   3.226   2.724  0.6382  1.9455  2.7527
 1484Sol     HW 9071   1.744   3.373   2.704  3.9740  1.0464 -0.0131
 1484Sol     MW 9072   1.759   3.289   2.677 -0.3189  0.0508 -0.0374
 1485Sol     OW 9073   1.829   0.219   6.352 -0.5144  0.2507  0.1078
 1485Sol     HW 9074   1.805   0.161   6.280 -0.9838  1.0857 -0.4126
 1485Sol     HW 9075   1.755   0.279   6.361 -1.1215 -0.7769  2.2602
 1485Sol     MW 9076   1.820   0.219   6.347  0.0138 -0.1576 -0.5154
 1486Sol     OW 9077   3.003   1.952   3.218 -0.8214 -0.3588 -0.1517
 1486Sol     HW 9078   3.048   2.012   3.159  0.3962  0.7583  1.8868
 1486Sol     HW 9079   3.069   1.887   3.242 -1.2608 -0.7070  0.1345
 1486Sol     MW 9080   3.013   1.951   3.214 -0.0735  0.8384  0.1667
 1487Sol     OW 9081   0.465   1.837   5.985 -0.5716 -0.0760  0.9057
 1487Sol     HW 9082   0.540   1.867   6.037  0.4807  0.7682 -1.0359
 1487Sol     HW 9083   0.400   1.906   5.996  0.1017  0.6980  0.1788
 1487Sol     MW 9084   0.466   1.846   5.991 -0.6097 -0.6353  0.1380
 1488Sol     OW 9085   2.128   3.181   8.815  0.1586 -0.1348 -0.1686
 1488Sol     HW 9086   2.192   3.134   8.761  0.2162  0.0170 -0.2344
 1488Sol     HW 9087   2.123   3.130   8.896  0.1002 -0.3419 -0.3027
 1488Sol     MW 9088   2.134   3.172   8.817  0.1010  0.1923  0.2810
 1489Sol     OW 9089   3.138   3.413   3.366 -0.3462  0.2767 -0.0009
 1489Sol     HW 9090   3.045   3.420   3.346 -0.4869 -1.3339  0.0178
 1489Sol     HW 9091   3.167   3.503   3.380 -1.5084  0.9490 -1.7729
 1489Sol     MW 9092   3.132   3.422   3.365  0.1080  0.1402  0.0310
 1490Sol     OW 9093   2.182   1.568   8.326  0.0647 -0.4688 -0.2377
 1490Sol     HW 9094   2.231   1.646   8.299 -0.8931  1.2172  2.6297
 1490Sol     HW 9095   2.248   1.509   8.362  0.6366 -0.4932 -1.2987
 1490Sol     MW 9096   2.193   1.570   8.327  0.0467  0.0383  0.0202
 1491Sol     OW 9097   3.005   1.071   8.245 -0.1889  0.2633  0.1955
 1491Sol     HW 9098   2.983   0.997   8.302  0.0616 -1.0715 -1.4089
 1491Sol     HW 9099   3.052   1.132   8.302  0.7963 -1.4237  1.2253
 1491Sol     MW 9100   3.007   1.070   8.255 -0.3073 -0.0682 -0.4269
 1492Sol     OW 9101   2.597   1.710   9.180 -0.5030 -0.8610  0.2197
 1492Sol     HW 9102   2.560   1.628   9.212 -0.6009 -0.1615  1.9366
 1492Sol     HW 9103   2.691   1.699   9.190 -0.5969 -0.1701  1.9332
 1492Sol     MW 9104   2.602   1.701   9.184  0.5122 -0.2055  0.0401
 1493Sol     OW 9105   2.142   1.191   9.754  0.1316 -0.1755  0.3546
 1493Sol     HW 9106   2.094   1.109   9.767 -2.0304  0.8468 -0.9069
 1493Sol     HW 9107   2.212   1.168   9.693 -0.5798 -1.0830 -0.1504
 1493Sol     MW 9108   2.144   1.182   9.749 -0.4252 -0.1080  0.1066
 1494Sol     OW 9109   1.729   0.624   7.119  0.2069 -0.4125  0.2665
 1494Sol     HW 9110   1.677   0.687   7.168  0.0639  0.2159 -0.6884
 1494Sol     HW 9111   1.666   0.556   7.094 -0.0109 -0.0215 -0.2592
 1494Sol     MW 9112   1.719   0.623   7.121 -0.2462 -0.3152  0.2150
 1495Sol     OW 9113   1.224   3.167   6.812  0.4725 -0.0445  0.0451
 1495Sol     HW 9114   1.173   3.248   6.812  2.4976  1.2811  1.6227
 1495Sol     HW 9115   1.309   3.192   6.775  1.2786 -1.3180  0.9936
 1495Sol     MW 9116   1.227   3.176   6.809 -0.4288  0.9622  0.2061
 1496Sol     OW 9117   2.373   3.107   8.107  0.1585  0.1653 -0.5356
 1496Sol     HW 9118   2.411   3.169   8.169  0.2133  0.1338 -0.5379
 1496Sol     HW 9119   2.429   3.030   8.113 -2.0283 -1.2979  2.1695
 1496Sol     MW 9120   2.382   3.106   8.113  0.3828  0.6682  0.4431
 1497Sol     OW 9121   0.311   0.784   9.453  0.3575 -0.8060 -0.2823
 1497Sol     HW 9122   0.237   0.808   9.509  1.2627 -1.2709  1.1552
 1497Sol     HW 9123   0.340   0.867   9.415  0.5870 -0.2646  1.0384
 1497Sol     MW 9124   0.307   0.794   9.455 -0.3187 -0.1166 -0.0306
 1498Sol     OW 9125   1.947   2.112   2.923 -0.0842  0.0758 -0.2163
 1498Sol     HW 9126   1.859   2.139   2.947 -0.2550  1.5863 -2.3875
 1498Sol     HW 9127   1.943   2.016   2.924 -0.9326  0.0950  2.4334
 1498Sol     MW 9128   1.939   2.106   2.925  0.2918  0.4200  0.0526
 1499Sol     OW 9129   0.702   1.727   1.565  0.3693  0.4052 -0.4037
 1499Sol     HW 9130   0.729   1.679   1.644  0.2545  1.6317  0.3923
 1499Sol     HW 9131   0.778   1.724   1.507  0.5838 -0.1889 -0.0946
 1499Sol     MW 9132   0.711   1.722   1.567 -0.0152  0.1784  0.1668
 1500Sol     OW 9133   3.328   0.066   3.918  0.3886  0.6040  0.2178
 1500Sol     HW 9134   3.246   0.056   3.966 -0.4777  2.5124 -0.7894
 1500Sol     HW 9135   3.341  -0.017   3.873 -1.1523  0.3898  0.1569
 1500Sol     MW 9136   3.322   0.058   3.918 -0.7820  0.6215 -0.6435
 1501Sol     OW 9137   0.637   1.399   5.219 -0.3931 -0.3641 -0.2895
 1501Sol     HW 9138   0.585   1.399   5.299 -0.2807 -1.3755 -0.2148
 1501Sol     HW 9139   0.594   1.334   5.163  0.2168 -0.4989 -0.5985
 1501Sol     MW 9140   0.628   1.393   5.221  0.1919 -0.7514  0.1807
 1502Sol     OW 9141   2.170   3.326   9.474  0.3133  0.0337  0.0504
 1502Sol     HW 9142   2.218   3.402   9.508  0.5486 -0.0330 -0.1292
 1502Sol     HW 9143   2.079   3.354   9.472  0.7651  1.5070 -3.1356
 1502Sol     MW 9144   2.166   3.336   9.477  0.2813  0.6806  0.2343
 1503Sol     OW 9145   0.926   0.731   7.972  0.2889 -0.0745 -0.2783
 1503Sol     HW 9146   0.909   0.693   8.058 -0.3661 -1.2302 -0.9095
 1503Sol     HW 9147   0.942   0.655   7.915 -1.6582  0.5398 -1.6952
 1503Sol     MW 9148   0.926   0.720   7.974  0.5629  0.4170 -0.5473
 1504Sol     OW 9149   2.417   1.151   6.281  0.0797  0.0853 -0.4685
 1504Sol     HW 9150   2.420   1.056   6.271  1.1778  0.0322  0.2462
 1504Sol     HW 9151   2.381   1.165   6.368  4.1322  0.1876  1.2941
 1504Sol     MW 9152   2.414   1.144   6.288 -0.1279  0.0077  0.5173
 1505Sol     OW 9153   2.462   3.425   4.704  0.5494  0.3320 -0.4728
 1505Sol     HW 9154   2.527   3.377   4.756  0.9414  1.1871 -0.1789
 1505Sol     HW 9155   2.506   3.505   4.678 -0.6321  1.2722  0.3739
 1505Sol     MW 9156   2.471   3.428   4.707  0.0029  0.2185  0.1786
 1506Sol     OW 9157   2.372   1.764   8.235 -0.0660  0.1286  0.2071
 1506Sol     HW 9158   2.450   1.759   8.179  1.2607 -1.2695  2.1223
 1506Sol     HW 9159   2.326   1.843   8.205  1.9515  0.8357 -1.1153
 1506Sol     MW 9160   2.375   1.771   8.227  0.1599  0.5098  0.2558
 1507Sol     OW 9161   2.999   1.197   3.835  0.0941  0.4618  0.7225
 1507Sol     HW 9162   3.083   1.150   3.836  0.4147  1.0229  4.0594
 1507Sol     HW 9163   2.944   1.149   3.897 -1.1522  1.7109  0.6043
 1507Sol     MW 9164   3.002   1.188   3.840  0.2687  0.3256  0.1382
 1508Sol     OW 9165   2.117   2.527   2.952 -0.4483 -0.6953 -0.5215
 1508Sol     HW 9166   2.204   2.500   2.984 -0.2115  0.7799  0.1342
 1508Sol     HW 9167   2.134   2.610   2.906 -1.8929  0.9790  1.9061
 1508Sol     MW 9168   2.127   2.532   2.950 -0.3815 -0.1972 -0.3581
 1509Sol     OW 9169   1.272   2.956   6.983  0.7188  0.1502 -0.2222
 1509Sol     HW 9170   1.227   3.019   6.927 -1.3077 -0.8449  0.2756
 1509Sol     HW 9171   1.296   3.006   7.061 -0.3756  0.4496 -0.0762
 1509Sol     MW 9172   1.270   2.966   6.985  0.2000 -0.3770  0.1917
 1510Sol     OW 9173   0.398   1.184   9.572 -0.0538 -0.2171  0.0708
 1510Sol     HW 9174   0.346   1.217   9.645 -1.1609 -1.0896 -0.2979
 1510Sol     HW 9175   0.439   1.262   9.534 -1.0565  0.4865  0.4034
 1510Sol     MW 9176   0.397   1.194   9.575  0.1719 -0.1185 -0.2457
 1511Sol     OW 9177   1.856   2.452   3.966  0.1240  0.1093 -0.8353
 1511Sol     HW 9178   1.839   2.542   3.939  1.3506  0.3334 -0.8663
 1511Sol     HW 9179   1.951   2.442   3.962  0.0087 -1.1746 -0.7878
 1511Sol     MW 9180   1.863   2.459   3.963  0.4058  0.1696  0.7000
 1512Sol     OW 9181   2.097   1.306   5.899 -0.3348 -0.3917 -0.0290
 1512Sol     HW 9182   2.160   1.251   5.853 -0.3656 -0.6926  0.2878
 1512Sol     HW 9183   2.105   1.281   5.991  1.4273  1.8754  0.4910
 1512Sol     MW 9184   2.103   1.299   5.903 -0.4095 -0.4024  0.3912
 1513Sol     OW 9185   0.538   2.592   7.247 -0.4493  0.4602  0.4511
 1513Sol     HW 9186   0.624   2.561   7.219 -0.9083  1.7953 -2.5997
 1513Sol     HW 9187   0.533   2.681   7.213 -2.7680  0.6458  1.2303
 1513Sol     MW 9188   0.546   2.597   7.242  0.4923 -0.2654 -0.2245
 1514Sol     OW 9189   0.362   0.673   3.690 -0.3032 -0.3508 -0.3009
 1514Sol     HW 9190   0.298   0.744   3.696 -0.8779 -0.9085  0.3074
 1514Sol     HW 9191   0.384   0.668   3.598 -1.5114 -0.4727 -0.5912
 1514Sol     MW 9192   0.358   0.679   3.683 -0.1349  0.1867 -0.3765
 1515Sol     OW 9193   1.658   2.386   4.161 -0.2408  0.0068  0.1593
 1515Sol     HW 9194   1.713   2.409   4.237  0.7064  0.6120 -0.6889
 1515Sol     HW 9195   1.713   2.408   4.085 -1.2945 -0.3145 -0.6995
 1515Sol     MW 9196   1.668   2.390   4.161  0.7590  0.3541 -0.5657
 1516Sol     OW 9197   2.934   2.704   2.365  0.5578 -0.2275  0.4933
 1516Sol     HW 9198   2.956   2.784   2.316 -1.8930  0.4844  0.4712
 1516Sol     HW 9199   2.840   2.713   2.384  0.1723 -3.2383  0.2374
 1516Sol     MW 9200   2.927   2.712   2.362 -0.2094 -0.3236 -0.2065
 1517Sol     OW 9201   3.235   1.606   6.227  0.3564 -0.2725 -0.3489
 1517Sol     HW 9202   3.170   1.607   6.156 -0.9854  0.8957  0.8657
 1517Sol     HW 9203   3.211   1.530   6.280 -1.3199  1.2875  1.2232
 1517Sol     MW 9204   3.227   1.599   6.225 -0.1125 -0.0842 -0.3432
 1518Sol     OW 9205   0.773   0.584   1.632 -0.3491 -0.2292 -0.1777
 1518Sol     HW 9206   0.792   0.529   1.708  1.5909 -1.3163 -1.4017
 1518Sol     HW 9207   0.845   0.646   1.628 -0.5202 -0.0749 -1.0201
 1518Sol     MW 9208   0.781   0.584   1.638  0.6713 -0.2797  0.3631
 1519Sol     OW 9209   1.591   1.494   3.533  0.4606 -0.3932 -0.4959
 1519Sol     HW 9210   1.619   1.430   3.468 -0.2133 -1.0448 -0.1491
 1519Sol     HW 9211   1.655   1.486   3.604  0.6525 -0.3475 -0.6656
 1519Sol     MW 9212   1.599   1.487   3.534  0.0015 -0.1870  0.0383
 1520Sol     OW 9213   2.175   0.279   8.639  0.1457 -0.1594  0.8253
 1520Sol     HW 9214   2.131   0.347   8.690 -0.1950 -0.2143  0.6046
 1520Sol     HW 9215   2.106   0.240   8.585  0.2823 -0.8583  1.1407
 1520Sol     MW 9216   2.165   0.281   8.639  0.0757 -0.6129  0.6519
 1521Sol     OW 9217   2.768   2.766   6.747 -0.2888  0.0683  0.0735
 1521Sol     HW 9218   2.823   2.688   6.757 -0.3622 -0.0942 -0.7056
 1521Sol     HW 9219   2.761   2.803   6.835  1.8852  0.6534  0.0126
 1521Sol     MW 9220   2.772   2.762   6.755 -0.3601 -0.4943  0.3997
 1522Sol     OW 9221   2.772   1.344   4.220 -0.4224 -0.3711 -1.0669
 1522Sol     HW 9222   2.765   1.283   4.293 -1.9732  1.8710  0.7203
 1522Sol     HW 9223   2.861   1.379   4.225 -0.1454 -1.0841 -0.9806
 1522Sol     MW 9224   2.779   1.342   4.227  0.1436 -0.2597 -0.0932
 1523Sol     OW 9225   2.243   2.020   3.528 -0.0618  0.1554  0.3643
 1523Sol     HW 9226   2.226   1.933   3.492  1.1001 -0.0696  0.3601
 1523Sol     HW 9227   2.214   2.080   3.459 -0.1559 -0.2329  0.0643
 1523Sol     MW 9228   2.239   2.018   3.518 -0.2673 -0.7209 -0.3631
 1524Sol     OW 9229   0.793   1.118   7.875  0.1054  0.6025  0.2564
 1524Sol     HW 9230   0.835   1.191   7.829  1.6029 -0.6754 -0.4622
 1524Sol     HW 9231   0.725   1.088   7.815  0.9056  0.0512 -0.3822
 1524Sol     MW 9232   0.791   1.122   7.865  0.2900 -0.2722  0.1346
 1525Sol     OW 9233   2.124   2.485   5.850  0.2454 -0.6690 -0.0657
 1525Sol     HW 9234   2.046   2.445   5.811 -0.5903 -0.9883  1.8641
 1525Sol     HW 9235   2.089   2.543   5.918  1.6234  0.4310 -0.2782
 1525Sol     MW 9236   2.114   2.487   5.853  0.4114  0.5139 -0.0977
 1526Sol     OW 9237   2.235   1.974   8.106  0.3981  0.2470  0.5191
 1526Sol     HW 9238   2.239   1.918   8.028 -1.7818  0.2185  0.4010
 1526Sol     HW 9239   2.141   1.985   8.123  0.8316 -0.1735  3.4426
 1526Sol     MW 9240   2.227   1.970   8.100  0.1456 -0.1729  0.4202
 1527Sol     OW 9241   1.712   1.510   5.662 -0.1627  0.1205 -0.0047
 1527Sol     HW 9242   1.625   1.548   5.650  0.1791  1.0881  0.4531
 1527Sol     HW 9243   1.772   1.578   5.631  0.5094  0.3635  1.7470
 1527Sol     MW 9244   1.710   1.520   5.658  0.7783 -0.0071  0.7271
 1528Sol     OW 9245   0.337   1.043   9.362 -0.7086  0.0301  0.8645
 1528Sol     HW 9246   0.405   1.087   9.310 -0.4574 -1.8036 -0.4035
 1528Sol     HW 9247   0.346   1.081   9.449  1.2035  0.6385  0.4446
 1528Sol     MW 9248   0.344   1.050   9.365  0.3373  0.1219 -0.1073
 1529Sol     OW 9249   2.730   1.798   5.191 -0.1323 -0.5153  0.1917
 1529Sol     HW 9250   2.806   1.846   5.224 -0.9816  1.6693 -0.9348
 1529Sol     HW 9251   2.655   1.846   5.227 -0.9876 -1.2591 -0.5992
 1529Sol     MW 9252   2.730   1.807   5.197  0.6850 -0.5666  0.5714
 1530Sol     OW 9253   0.357   0.105   6.248  0.3769  0.3231 -0.7661
 1530Sol     HW 9254   0.447   0.085   6.272  0.2208  1.0601  0.4545
 1530Sol     HW 9255   0.304   0.049   6.305  0.0474  0.4142 -0.9850
 1530Sol     MW 9256   0.360   0.098   6.255  0.6421  0.7138 -1.0049
 1531Sol     OW 9257   1.009   2.417   5.825 -0.3098 -0.7154  0.1243
 1531Sol     HW 9258   1.098   2.450   5.812 -0.0229 -2.0499 -1.5586
 1531Sol     HW 9259   0.954   2.477   5.774 -0.1897 -0.7824 -0.0862
 1531Sol     MW 9260   1.013   2.426   5.819  0.0296  0.2748 -0.0534
 1532Sol     OW 9261   1.542   0.103   5.768  0.7097  0.3216 -0.1714
 1532Sol     HW 9262   1.512   0.086   5.679 -1.5776 -5.1496  1.4044
 1532Sol     HW 9263   1.462   0.111   5.819  1.9048 -1.2545  2.0387
 1532Sol     MW 9264   1.533   0.102   5.764 -0.0508  0.3385  0.2048
 1533Sol     OW 9265   0.119   2.304   6.585  0.8858  0.0932 -0.4663
 1533Sol     HW 9266   0.116   2.346   6.499 -0.7520  1.1223  0.0615
 1533Sol     HW 9267   0.081   2.217   6.570 -0.9383  0.8749 -0.4787
 1533Sol     MW 9268   0.115   2.300   6.576 -0.2392  0.6520 -0.2538
 1534Sol     OW 9269   1.544   0.895   5.749  0.2003  0.5570  0.4479
 1534Sol     HW 9270   1.577   0.840   5.819  1.0149  2.2698  1.4323
 1534Sol     HW 9271   1.477   0.950   5.790 -0.4420  0.4815 -0.4676
 1534Sol     MW 9272   1.541   0.895   5.759  0.2870 -0.3841  0.2240
 1535Sol     OW 9273   0.867   1.462   2.176 -0.1062  0.7396  0.2122
 1535Sol     HW 9274   0.883   1.380   2.130  1.0184  0.6552  0.7418
 1535Sol     HW 9275   0.838   1.435   2.263 -0.1746  0.8955  0.2366
 1535Sol     MW 9276   0.866   1.452   2.179 -0.2059 -0.4534  0.1535
 1536Sol     OW 9277   2.638   0.341   9.460  0.4201 -0.0708  0.3184
 1536Sol     HW 9278   2.551   0.318   9.492 -0.6534  0.6838 -1.9276
 1536Sol     HW 9279   2.638   0.437   9.458  2.0516  0.0259  2.1603
 1536Sol     MW 9280   2.631   0.348   9.463 -0.7379  0.4933  0.4224
 1537Sol     OW 9281   2.539   0.178   5.994 -0.2187 -0.0564 -0.1127
 1537Sol     HW 9282   2.574   0.235   6.062  3.1770  0.1746 -1.9299
 1537Sol     HW 9283   2.454   0.216   5.971 -0.0961  1.5193  1.9318
 1537Sol     MW 9284   2.535   0.186   5.998  0.1520  0.0126 -0.4551
 1538Sol     OW 9285   1.372   1.146   4.384 -0.4006 -0.1447 -0.7723
 1538Sol     HW 9286   1.309   1.079   4.356 -1.5267  0.4431  0.3116
 1538Sol     HW 9287   1.319   1.224   4.402  0.7750  0.7369 -1.0277
 1538Sol     MW 9288   1.362   1.147   4.383 -0.2080  0.2549  0.0637
 1539Sol     OW 9289   1.833   0.996   4.190 -0.3279  0.1779 -0.3907
 1539Sol     HW 9290   1.742   0.994   4.163 -1.0197 -2.5926  1.8751
 1539Sol     HW 9291   1.834   1.051   4.269  0.3723  2.0520 -1.6840
 1539Sol     MW 9292   1.825   1.001   4.195  0.3334 -0.0733 -0.2675
 1540Sol     OW 9293   0.958   2.724   9.184 -0.5056  0.3026 -0.4760
 1540Sol     HW 9294   0.999   2.642   9.210 -2.2741 -0.0080  1.4818
 1540Sol     HW 9295   0.975   2.731   9.090  2.2791 -0.7564 -0.0777
 1540Sol     MW 9296   0.963   2.717   9.178  0.4488  0.5507  0.0918
 1541Sol     OW 9297   2.330   2.702   7.949  0.3904  0.4181 -0.0156
 1541Sol     HW 9298   2.386   2.770   7.912  0.4662  0.7143  0.6315
 1541Sol     HW 9299   2.296   2.741   8.029 -0.0896 -0.0681  0.0164
 1541Sol     MW 9300   2.332   2.712   7.953  0.3526 -0.5948 -0.1850
 1542Sol     OW 9301   1.240   2.916   7.325  0.1150 -0.1726 -0.3176
 1542Sol     HW 9302   1.165   2.880   7.371 -0.2883  0.0098 -0.8268
 1542Sol     HW 9303   1.203   2.972   7.257  0.7305  1.5011  0.6787
 1542Sol     MW 9304   1.230   2.918   7.323 -0.1085 -0.1720  0.4945
 1543Sol     OW 9305   1.642   0.670   6.501 -0.1667  0.0449  0.0401
 1543Sol     HW 9306   1.635   0.678   6.596 -0.6155  0.9791 -0.0649
 1543Sol     HW 9307   1.653   0.760   6.470  0.3661 -0.2903 -0.7622
 1543Sol     MW 9308   1.643   0.678   6.507  0.0685  0.6282 -0.2840
 1544Sol     OW 9309   3.218   2.321   4.015  0.4330  0.3523 -0.0087
 1544Sol     HW 9310   3.229   2.227   4.007 -1.7611 -0.0390  1.1876
 1544Sol     HW 9311   3.302   2.352   4.049  1.1373 -1.1859 -0.3331
 1544Sol     MW 9312   3.226   2.316   4.018  0.2394  0.0329  0.0614
 1545Sol     OW 9313   0.331   1.675   4.650  0.5482  0.4582 -0.1681
 1545Sol     HW 9314   0.236   1.692   4.652  0.6331  0.7823  1.4800
 1545Sol     HW 9315   0.359   1.714   4.567 -0.9447 -0.6828 -1.2469
 1545Sol     MW 9316   0.325   1.680   4.642 -0.0330 -0.4446  0.2743
 1546Sol     OW 9317   1.202   2.349   2.289  0.3902  0.4793 -0.5222
 1546Sol     HW 9318   1.213   2.352   2.384  0.3132 -1.1783 -0.4409
 1546Sol     HW 9319   1.134   2.413   2.270  1.8847  2.3524  0.2934
 1546Sol     MW 9320   1.197   2.355   2.295  0.2363  0.2134 -0.0482
 1547Sol     OW 9321   2.487   1.671   3.035 -0.3118  0.1521 -0.2461
 1547Sol     HW 9322   2.449   1.707   3.115 -0.4297 -1.9092  0.6504
 1547Sol     HW 9323   2.413   1.665   2.974 -0.8485 -1.0966  0.5120
 1547Sol     MW 9324   2.477   1.673   3.036  0.4838 -0.0344  0.1396
 1548Sol     OW 9325   2.704   0.013   8.507 -0.0441 -0.5856  0.2931
 1548Sol     HW 9326   2.754  -0.021   8.433  0.3697  0.0835  0.2624
 1548Sol     HW 9327   2.725  -0.046   8.579  1.1035 -0.0876  0.3804
 1548Sol     MW 9328   2.710   0.004   8.507  0.0379  0.6249 -0.1808
 1549Sol     OW 9329   1.380   2.138   5.653  0.5278  0.4725 -0.6993
 1549Sol     HW 9330   1.446   2.106   5.592  0.6560  1.4215 -1.0678
 1549Sol     HW 9331   1.414   2.113   5.739  0.9019  0.1128 -0.9494
 1549Sol     MW 9332   1.389   2.133   5.655  0.2759  0.5307 -0.1496
 1550Sol     OW 9333   0.565   2.579   4.263  0.1022  0.1789  0.6666
 1550Sol     HW 9334   0.521   2.580   4.348  1.2224  0.0581  1.2616
 1550Sol     HW 9335   0.542   2.495   4.225 -0.2823  0.1663  0.9270
 1550Sol     MW 9336   0.559   2.572   4.268  0.0570  0.2700 -0.3021
 1551Sol     OW 9337   2.716   2.490   7.933  0.0328  0.1638 -0.2285
 1551Sol     HW 9338   2.694   2.574   7.892 -0.9220 -0.2691 -0.5985
 1551Sol     HW 9339   2.792   2.459   7.884 -0.7216 -0.0526 -1.2739
 1551Sol     MW 9340   2.721   2.495   7.925 -0.1198  0.2312  0.2307
 1552Sol     OW 9341   1.387   1.647   8.300  0.3341 -0.3922 -0.1304
 1552Sol     HW 9342   1.456   1.590   8.267  2.8017  0.3416  3.5070
 1552Sol     HW 9343   1.394   1.726   8.247  1.6013 -0.7251 -0.4812
 1552Sol     MW 9344   1.393   1.649   8.293 -0.0596  0.0053  0.5871
 1553Sol     OW 9345   0.422   2.795   2.151  0.2274 -0.5573 -0.1975
 1553Sol     HW 9346   0.347   2.763   2.200 -0.2867 -1.2880 -1.4466
 1553Sol     HW 9347   0.388   2.814   2.063  1.1738  0.5384 -0.3483
 1553Sol     MW 9348   0.412   2.794   2.147 -0.7537  0.0268 -0.2847
 1554Sol     OW 9349   0.407   2.427   8.655  0.0200 -0.3036 -0.0093
 1554Sol     HW 9350   0.496   2.430   8.690  0.1407  0.3480 -0.3564
 1554Sol     HW 9351   0.353   2.471   8.721 -0.5325 -3.2772  1.5759
 1554Sol     MW 9352   0.410   2.432   8.664 -0.2431  0.1033 -0.4402
 1555Sol     OW 9353   2.737   2.938   1.434 -0.1461 -0.0133  0.1362
 1555Sol     HW 9354   2.736   2.925   1.339 -1.4009  2.0133 -0.1717
 1555Sol     HW 9355   2.829   2.933   1.459  0.0742 -1.8223 -0.9922
 1555Sol     MW 9356   2.745   2.937   1.428  0.1686 -0.1522  0.9689
 1556Sol     OW 9357   0.280   1.343   9.289  0.0047  0.7448 -0.5456
 1556Sol     HW 9358   0.309   1.257   9.257 -0.6654 -0.1972  1.3376
 1556Sol     HW 9359   0.361   1.385   9.320  0.4267  1.0553 -2.0322
 1556Sol     MW 9360   0.290   1.339   9.289 -0.0132  0.2244 -0.1371
 1557Sol     OW 9361   1.035   2.443   4.655  0.0730  0.1822 -0.4158
 1557Sol     HW 9362   1.044   2.397   4.572 -2.3275 -0.3103 -0.4265
 1557Sol     HW 9363   0.964   2.506   4.640 -2.3346 -1.8279  2.0453
 1557Sol     MW 9364   1.030   2.445   4.646  0.1062 -0.7993 -0.1081
 1558Sol     OW 9365   0.895   2.462   7.426  0.0756  0.6886  0.0073
 1558Sol     HW 9366   0.983   2.493   7.407  0.7713 -0.1419  1.7326
 1558Sol     HW 9367   0.887   2.380   7.377  0.5050  0.4465  0.3374
 1558Sol     MW 9368   0.902   2.457   7.420  0.3770  0.1614 -1.4737
 1559Sol     OW 9369   0.443   0.486   7.275 -0.2845  0.6273  0.0495
 1559Sol     HW 9370   0.429   0.466   7.367 -0.8887  0.5765 -0.0558
 1559Sol     HW 9371   0.524   0.440   7.253 -0.8724 -0.4815  0.1897
 1559Sol     MW 9372   0.449   0.480   7.281  0.0414  0.0828 -0.1551
 1560Sol     OW 9373   1.765   3.076   2.288  0.2278  0.3494  0.1469
 1560Sol     HW 9374   1.692   3.068   2.227  1.0567 -1.9991 -0.5876
 1560Sol     HW 9375   1.744   3.154   2.340 -1.4703  1.2220 -1.7847
 1560Sol     MW 9376   1.756   3.082   2.288 -0.2804 -0.2543  0.1641
 1561Sol     OW 9377   1.750   1.859   6.683  0.4466  0.1035 -0.3601
 1561Sol     HW 9378   1.726   1.899   6.767 -0.4787 -3.0061  0.9497
 1561Sol     HW 9379   1.670   1.817   6.653  1.7706 -2.2243 -0.7645
 1561Sol     MW 9380   1.741   1.859   6.688  0.0274  0.5249  0.4683
 1562Sol     OW 9381   0.643   3.012   9.325 -0.5154  0.3568 -0.3561
 1562Sol     HW 9382   0.601   2.997   9.410 -0.1602  0.6772 -0.1236
 1562Sol     HW 9383   0.692   3.093   9.337  0.7415 -0.3944 -0.4092
 1562Sol     MW 9384   0.643   3.018   9.334  0.0700  0.0211 -0.5143
 1563Sol     OW 9385   3.129   2.528   2.804 -0.7447 -0.2057 -0.2846
 1563Sol     HW 9386   3.102   2.596   2.742 -0.3590  2.0041  1.8750
 1563Sol     HW 9387   3.204   2.566   2.850 -1.4535 -1.4635  1.9989
 1563Sol     MW 9388   3.133   2.538   2.803  0.2682  0.4200  0.2336
 1564Sol     OW 9389   0.644   0.317   9.215 -0.2878  0.4006 -0.2828
 1564Sol     HW 9390   0.688   0.385   9.266 -1.6388 -0.7017  2.4824
 1564Sol     HW 9391   0.556   0.313   9.252 -0.9141 -1.3478 -1.8810
 1564Sol     MW 9392   0.640   0.323   9.223  0.2918  0.3920  0.0816
 1565Sol     OW 9393   0.674   2.586   7.812  0.2679  0.0678  0.1940
 1565Sol     HW 9394   0.750   2.567   7.866 -1.0119 -1.9211  1.3676
 1565Sol     HW 9395   0.665   2.681   7.815  2.2251  0.2524  0.6865
 1565Sol     MW 9396   0.680   2.592   7.817  0.4607 -0.7572 -0.0002
 1566Sol     OW 9397   0.700   0.895   7.228  0.5010  0.3866 -0.0322
 1566Sol     HW 9398   0.687   0.928   7.317  0.3843  1.9421 -0.6150
 1566Sol     HW 9399   0.759   0.820   7.239  0.7658  0.7752  1.3221
 1566Sol     MW 9400   0.704   0.891   7.237 -0.2077  0.0502  0.3104
 1567Sol     OW 9401   1.149   1.803   3.332  0.4453  0.7666 -0.2151
 1567Sol     HW 9402   1.156   1.737   3.263  0.7629 -0.1245  0.6705
 1567Sol     HW 9403   1.121   1.882   3.286  0.1851  0.0534 -1.2996
 1567Sol     MW 9404   1.147   1.804   3.322  0.5009 -0.1654 -0.4473
 1568Sol     OW 9405   2.854   3.170   9.367 -0.6139  0.2167  0.0630
 1568Sol     HW 9406   2.899   3.113   9.429  0.4524  2.1075  1.0651
 1568Sol     HW 9407   2.910   3.171   9.290  1.0862  2.5253  1.2890
 1568Sol     MW 9408   2.863   3.165   9.366 -0.0995  0.2405 -0.0257
 1569Sol     OW 9409   2.402   3.060   5.539  0.4585 -0.5381  0.4031
 1569Sol     HW 9410   2.470   3.002   5.573 -0.3565 -1.5996  0.2430
 1569Sol     HW 9411   2.352   3.086   5.616  1.5848  0.9920  0.6528
 1569Sol     MW 9412   2.404   3.058   5.549 -0.8906 -0.0615 -0.4365
 1570Sol     OW 9413   0.573   2.216   6.694 -0.3095  0.5141  0.1212
 1570Sol     HW 9414   0.483   2.227   6.722 -0.5096  0.9891 -0.7240
 1570Sol     HW 9415   0.592   2.124   6.712 -0.5822  0.6958  1.3868
 1570Sol     MW 9416   0.567   2.208   6.698  0.1355 -0.2236 -0.1880
 1571Sol     OW 9417   2.537   3.052   8.988  0.9581 -0.0590  0.5212
 1571Sol     HW 9418   2.492   3.014   8.913 -1.1161 -1.6797  2.5328
 1571Sol     HW 9419   2.504   3.141   8.994 -1.9676 -1.1608  1.8557
 1571Sol     MW 9420   2.530   3.056   8.982  0.2344  0.0152  0.4986
 1572Sol     OW 9421   1.296   1.688   9.306  0.0266 -0.3460  0.0454
 1572Sol     HW 9422   1.368   1.632   9.333  0.9354  1.0784  0.6611
 1572Sol     HW 9423   1.247   1.704   9.386 -0.2238 -0.2517 -0.1254
 1572Sol     MW 9424   1.298   1.685   9.315  0.0391 -0.2696 -0.1933
 1573Sol     OW 9425   2.234   0.266   7.239  0.1817  0.4043  0.4222
 1573Sol     HW 9426   2.269   0.298   7.322  2.2005 -1.1254  0.1846
 1573Sol     HW 9427   2.218   0.173   7.254  0.5752  0.1141 -0.9031
 1573Sol     MW 9428   2.235   0.261   7.247  0.4933  0.2646 -0.1871
 1574Sol     OW 9429   1.570   1.015   1.671 -0.4598  0.3155 -0.1432
 1574Sol     HW 9430   1.501   0.955   1.642 -0.0023  0.3044 -1.2085
 1574Sol     HW 9431   1.649   0.961   1.671 -0.1993  0.7027 -0.2710
 1574Sol     MW 9432   1.571   1.005   1.668  0.2977 -0.1421  0.6324
 1575Sol     OW 9433   0.748   0.535   9.351 -0.1850 -0.5073  0.1042
 1575Sol     HW 9434   0.830   0.536   9.400 -0.4731  2.1412  0.5979
 1575Sol     HW 9435   0.686   0.582   9.407 -1.3156 -0.0861 -1.4614
 1575Sol     MW 9436   0.750   0.539   9.361 -0.5562 -0.5601 -0.3084
 1576Sol     OW 9437   0.102   2.408   6.328  0.0149  0.5226 -0.0511
 1576Sol     HW 9438   0.190   2.416   6.292 -0.6136 -0.9069 -1.9586
 1576Sol     HW 9439   0.044   2.406   6.252 -1.5584  0.0992  1.1191
 1576Sol     MW 9440   0.104   2.409   6.318 -0.2331 -0.1419  0.4695
 1577Sol     OW 9441   3.314   2.518   9.036 -0.6220  0.9438 -0.1331
 1577Sol     HW 9442   3.325   2.470   8.954  1.5135 -0.2800  0.8303
 1577Sol     HW 9443   3.221   2.507   9.058 -0.9886  0.4465 -1.8481
 1577Sol     MW 9444   3.306   2.513   9.030  0.3482 -0.0395 -0.3096
 1578Sol     OW 9445   2.330   1.538   8.790 -0.1958  0.1270  0.5602
 1578Sol     HW 9446   2.363   1.623   8.760 -0.7160  0.4653  0.9565
 1578Sol     HW 9447   2.279   1.557   8.868 -0.4205 -0.5359  0.5842
 1578Sol     MW 9448   2.329   1.547   8.794 -0.3111  0.0118 -0.0736
 1579Sol     OW 9449   2.918   2.989   3.231  0.0852 -0.1119 -0.0647
 1579Sol     HW 9450   2.840   3.024   3.187  0.1490 -0.6914 -0.6398
 1579Sol     HW 9451   2.943   3.057   3.293 -0.4267  0.4070 -0.4243
 1579Sol     MW 9452   2.913   2.998   3.233 -0.3058 -0.7307  0.0638
 1580Sol     OW 9453   1.643   0.240   6.665 -0.7234 -0.1288 -0.5809
 1580Sol     HW 9454   1.641   0.280   6.578 -0.4788 -0.3792 -0.7006
 1580Sol     HW 9455   1.586   0.163   6.657 -1.0992  0.1243 -0.3823
 1580Sol     MW 9456   1.638   0.236   6.656  1.6896 -0.2555 -0.1619
 1581Sol     OW 9457   0.500   1.188   9.192  0.4868 -0.3986  0.4584
 1581Sol     HW 9458   0.510   1.145   9.107  0.0959 -0.4215  0.4253
 1581Sol     HW 9459   0.514   1.281   9.173 -2.1172 -0.0974 -0.0825
 1581Sol     MW 9460   0.502   1.193   9.182  0.0516 -0.1644 -0.6364
 1582Sol     OW 9461   1.487   3.245   5.787 -0.0538  0.0711 -0.8144
 1582Sol     HW 9462   1.398   3.255   5.754 -0.4302  1.2255  0.5203
 1582Sol     HW 9463   1.532   3.325   5.761 -0.3385  0.9778  1.3238
 1582Sol     MW 9464   1.483   3.253   5.782 -0.3694  0.0586  0.0621
 1583Sol     OW 9465   0.608   1.930   6.184 -0.0514  0.1439  0.1495
 1583Sol     HW 9466   0.536   1.985   6.214 -0.2622  1.1297 -2.0756
 1583Sol     HW 9467   0.650   1.899   6.264 -2.7079 -0.1437  1.4763
 1583Sol     MW 9468   0.605   1.932   6.194 -0.3418  0.7997 -0.0240
 1584Sol     OW 9469   1.186   2.978   5.630  0.4590  0.1422  0.0391
 1584Sol     HW 9470   1.120   2.930   5.679 -0.1360  0.5095 -0.3913
 1584Sol     HW 9471   1.265   2.971   5.682 -0.1257  0.3829  0.9607
 1584Sol     MW 9472   1.187   2.973   5.639  0.1664  0.1733 -0.0716
 1585Sol     OW 9473   2.398   1.142   9.587 -0.0866 -0.3752  0.3052
 1585Sol     HW 9474   2.450   1.217   9.617 -0.3542  0.3140 -0.9071
 1585Sol     HW 9475   2.456   1.094   9.528 -0.6028  0.0378 -0.5472
 1585Sol     MW 9476   2.407   1.144   9.584 -0.0135  0.2965  0.2586
 1586Sol     OW 9477   1.445   1.861   8.129  1.0979  0.0415  0.4416
 1586Sol     HW 9478   1.390   1.892   8.056 -0.6436  1.1421  2.1528
 1586Sol     HW 9479   1.530   1.901   8.113  1.1153 -0.7292 -1.6419
 1586Sol     MW 9480   1.447   1.868   8.121 -0.2895  0.0070  0.7443
 1587Sol     OW 9481   1.930   2.859   3.140  0.5197 -0.2768 -0.0158
 1587Sol     HW 9482   1.845   2.845   3.183 -0.4048  1.3923 -1.2534
 1587Sol     HW 9483   1.974   2.774   3.147 -1.5205 -1.3733  0.0617
 1587Sol     MW 9484   1.926   2.850   3.145 -0.2575 -0.0667  0.1387
 1588Sol     OW 9485   1.088   1.960   7.236 -0.3333  0.0609  0.5753
 1588Sol     HW 9486   1.073   2.046   7.196  1.2032  0.3799  0.6217
 1588Sol     HW 9487   1.183   1.950   7.232 -0.3496 -0.7874  2.3428
 1588Sol     MW 9488   1.095   1.967   7.232  0.3152  0.5682 -0.0482
 1589Sol     OW 9489   2.659   3.228   4.770  0.5735  0.1722  0.4694
 1589Sol     HW 9490   2.621   3.152   4.724 -1.2297  1.7787 -0.7552
 1589Sol     HW 9491   2.749   3.231   4.740 -0.5037  1.0302 -2.8095
 1589Sol     MW 9492   2.663   3.221   4.763 -0.0130  0.1855  0.0383
 1590Sol     OW 9493   1.442   2.132   5.331 -0.3305  0.5089 -0.6179
 1590Sol     HW 9494   1.506   2.079   5.380 -0.7551  0.0446 -0.5643
 1590Sol     HW 9495   1.480   2.220   5.330 -0.6933  0.7113  1.2435
 1590Sol     MW 9496   1.451   2.135   5.336  0.1191  0.1969  0.2383
 1591Sol     OW 9497   1.611   0.975   6.153  0.0374  0.1757  0.1175
 1591Sol     HW 9498   1.519   0.950   6.145  0.5131 -1.1595 -1.2825
 1591Sol     HW 9499   1.632   1.019   6.071  1.2525 -1.5810 -0.5525
 1591Sol     MW 9500   1.604   0.977   6.145 -0.0307 -0.5756 -0.7405
 1592Sol     OW 9501   2.889   2.194   6.267 -0.2344  0.0080 -0.1675
 1592Sol     HW 9502   2.873   2.109   6.227  0.0253 -1.0693  1.9375
 1592Sol     HW 9503   2.922   2.248   6.196  0.7001 -1.9871 -1.3089
 1592Sol     MW 9504   2.891   2.191   6.257  0.0845 -0.4605 -0.4225
 1593Sol     OW 9505   0.765   0.935   8.064 -0.4635 -0.1618  0.2898
 1593Sol     HW 9506   0.783   1.006   8.003  0.6836 -1.1163 -0.4988
 1593Sol     HW 9507   0.807   0.858   8.025 -2.4198 -1.4599  0.7010
 1593Sol     MW 9508   0.771   0.934   8.055 -0.6165  0.3811  0.0494
 1594Sol     OW 9509   0.251   0.192   7.583  0.0810 -0.3170  0.5390
 1594Sol     HW 9510   0.307   0.175   7.658  0.5445  2.0138  0.7752
 1594Sol     HW 9511   0.167   0.219   7.620 -0.3286 -1.0850  0.1945
 1594Sol     MW 9512   0.249   0.193   7.593 -0.0529  0.6456  0.2027
 1595Sol     OW 9513   0.220   0.952   9.827 -0.1117  0.5092  0.4955
 1595Sol     HW 9514   0.211   0.953   9.732  2.3176 -1.9266  0.1840
 1595Sol     HW 9515   0.243   1.042   9.851 -2.9368  1.6822 -0.9133
 1595Sol     MW 9516   0.221   0.960   9.821  0.1513 -0.3848 -0.0880
 1596Sol     OW 9517   1.123   2.125   9.796  0.0398  0.3685  0.2652
 1596Sol     HW 9518   1.035   2.094   9.774  0.9475 -0.9040 -1.6769
 1596Sol     HW 9519   1.143   2.082   9.879 -0.4044 -0.9081 -0.2702
 1596Sol     MW 9520   1.117   2.118   9.801  0.0851 -0.4004 -0.0595
 1597Sol     OW 9521   1.436   0.013   2.789  0.0831 -0.0993 -0.3777
 1597Sol     HW 9522   1.530   0.031   2.796  0.1453 -0.9583  1.1894
 1597Sol     HW 9523   1.429  -0.082   2.795 -1.0256  0.0697  1.4066
 1597Sol     MW 9524   1.444   0.006   2.790 -0.1118  0.1296 -0.0770
 1598Sol     OW 9525   1.715   0.490   8.254  0.0121  0.2239  0.1387
 1598Sol     HW 9526   1.623   0.494   8.278  0.1641  0.2362  0.7115
 1598Sol     HW 9527   1.721   0.538   8.171 -0.1842  1.7360  0.9996
 1598Sol     MW 9528   1.708   0.494   8.248 -0.5487 -0.3146 -0.5805
 1599Sol     OW 9529   2.297   0.257   7.549 -0.4059  0.3254  0.1653
 1599Sol     HW 9530   2.274   0.311   7.624  0.0915  0.1564  0.4374
 1599Sol     HW 9531   2.335   0.178   7.586  1.5993  1.0429 -0.2897
 1599Sol     MW 9532   2.299   0.255   7.559  0.1952  0.2459  0.4871
 1600Sol     OW 9533   0.914   3.301   9.096  0.1723  0.5805  0.0467
 1600Sol     HW 9534   0.889   3.292   9.188 -2.8426 -2.1063 -0.9424
 1600Sol     HW 9535   0.989   3.243   9.085 -0.5999 -0.4889  0.4136
 1600Sol     MW 9536   0.918   3.295   9.103 -0.4956 -0.1681 -0.6946
 1601Sol     OW 9537   3.043   1.630   5.585  0.1671 -0.2113  0.5430
 1601Sol     HW 9538   3.026   1.724   5.582 -0.0097 -0.2854 -1.3054
 1601Sol     HW 9539   3.134   1.621   5.556 -0.3822 -0.7380 -1.0726
 1601Sol     MW 9540   3.050   1.637   5.582 -0.3810  0.4869  0.0776
 1602Sol     OW 9541   0.327   0.118   8.576  0.4821  0.3025  0.3811
 1602Sol     HW 9542   0.312   0.043   8.633  2.1363  1.5529  2.5469
 1602Sol     HW 9543   0.274   0.188   8.614  1.9809  1.2834  0.7060
 1602Sol     MW 9544   0.321   0.117   8.584 -0.8037  0.1545 -0.2900
 1603Sol     OW 9545   1.114   2.791   6.728  0.4209  0.0327 -0.3470
 1603Sol     HW 9546   1.023   2.819   6.727 -0.1380 -1.6593  0.7311
 1603Sol     HW 9547   1.153   2.837   6.802  0.5632  1.0409 -1.0298
 1603Sol     MW 9548   1.109   2.798   6.734  0.6088  0.2303 -0.0555
 1604Sol     OW 9549   1.640   1.569   7.816 -0.6831 -0.4222  0.1017
 1604Sol     HW 9550   1.627   1.538   7.727  0.5289  0.5778 -0.4458
 1604Sol     HW 9551   1.724   1.615   7.813  0.4583 -2.2896  2.2770
 1604Sol     MW 9552   1.647   1.570   7.808  0.6647 -0.2098  0.1834
 1605Sol     OW 9553   2.577   2.163   4.033 -0.5546 -0.3707  0.2113
 1605Sol     HW 9554   2.579   2.135   4.124  0.1736  2.0122  0.9735
 1605Sol     HW 9555   2.576   2.259   4.037  2.0878 -0.1413 -2.2930
 1605Sol     MW 9556   2.577   2.170   4.041 -0.0176 -0.0387 -0.4497
 1606Sol     OW 9557   0.783   3.316   8.047  0.0549  0.2780 -0.5098
 1606Sol     HW 9558   0.724   3.256   8.001 -1.2705  0.8254  0.4259
 1606Sol     HW 9559   0.865   3.314   7.997 -1.3502  0.8902 -2.9181
 1606Sol     MW 9560   0.785   3.311   8.039 -0.3733 -0.0135  0.1066
 1607Sol     OW 9561   2.939   1.968   5.276  0.1191  0.3039  0.5197
 1607Sol     HW 9562   2.954   2.060   5.257  2.0132 -0.1574 -0.3258
 1607Sol     HW 9563   2.981   1.921   5.203  0.2053 -1.2464  1.5404
 1607Sol     MW 9564   2.944   1.972   5.267 -0.3653  0.2266 -0.0367
 1608Sol     OW 9565   0.328   1.259   5.295  0.6310  0.2938  1.0914
 1608Sol     HW 9566   0.355   1.167   5.298  0.5612  0.2636  0.8273
 1608Sol     HW 9567   0.236   1.259   5.324  0.2328  0.1173 -0.1667
 1608Sol     MW 9568   0.322   1.251   5.298  0.1776 -0.1429  0.1828
 1609Sol     OW 9569   1.558   1.194   9.069  0.1426 -0.5812 -0.2368
 1609Sol     HW 9570   1.632   1.225   9.121  0.7783 -0.2552 -1.3289
 1609Sol     HW 9571   1.531   1.113   9.113 -0.3358  0.4910  1.5187
 1609Sol     MW 9572   1.562   1.190   9.078 -0.2637  0.5451 -0.0086
 1610Sol     OW 9573   1.889   2.189   2.443  0.0940 -0.3502 -0.1458
 1610Sol     HW 9574   1.917   2.220   2.357  0.0355  0.0237 -0.0303
 1610Sol     HW 9575   1.802   2.227   2.454  0.8674  1.1493  0.8859
 1610Sol     MW 9576   1.884   2.195   2.436  0.5822  0.7053 -0.5333
 1611Sol     OW 9577   0.783   1.899   5.435  0.4024  0.5720  0.1441
 1611Sol     HW 9578   0.688   1.899   5.446  0.5380  1.8954  1.5573
 1611Sol     HW 9579   0.796   1.915   5.342 -0.7677 -1.5848 -0.4081
 1611Sol     MW 9580   0.775   1.901   5.428  0.8610  0.2803 -0.1807
 1612Sol     OW 9581   2.352   1.795   2.145  0.3827  0.1679  0.0032
 1612Sol     HW 9582   2.342   1.798   2.241  1.8948  0.3989  0.1614
 1612Sol     HW 9583   2.416   1.725   2.130 -0.3237 -0.2940 -0.8881
 1612Sol     MW 9584   2.357   1.789   2.152  0.5001  0.2685 -0.2000
 1613Sol     OW 9585   2.025   2.357   8.837 -0.1755 -0.4444 -0.2087
 1613Sol     HW 9586   2.091   2.348   8.906 -1.4622 -2.1045  0.8346
 1613Sol     HW 9587   1.974   2.276   8.841 -0.4148 -0.5034 -2.9822
 1613Sol     MW 9588   2.027   2.349   8.843  0.2439 -0.2303 -0.0100
 1614Sol     OW 9589   0.625   2.645   2.231 -0.0500 -0.0471  0.0902
 1614Sol     HW 9590   0.553   2.694   2.192 -0.4283  0.1318  0.9871
 1614Sol     HW 9591   0.661   2.593   2.159 -0.9528  0.0060 -0.4102
 1614Sol     MW 9592   0.622   2.645   2.221 -0.1328  0.1997  0.8704
 1615Sol     OW 9593   2.210   2.102   4.105  0.4935  0.0830  0.1163
 1615Sol     HW 9594   2.260   2.049   4.043 -0.9365  1.2561 -2.0989
 1615Sol     HW 9595   2.137   2.046   4.130  1.4315 -0.6445  1.3300
 1615Sol     MW 9596   2.208   2.092   4.102 -0.0800  0.0448 -0.7305
 1616Sol     OW 9597   1.936   0.199   3.222  0.1353 -0.4715 -0.1096
 1616Sol     HW 9598   1.990   0.271   3.256 -2.8119  1.4855  0.5968
 1616Sol     HW 9599   1.908   0.229   3.135 -0.1831 -1.2832 -0.2934
 1616Sol     MW 9600   1.938   0.209   3.217  0.3116  0.1668  0.0383
 1617Sol     OW 9601   0.394   0.113   8.980 -0.0496  0.0565  0.4217
 1617Sol     HW 9602   0.428   0.059   8.908 -1.7887  1.1813 -1.3158
 1617Sol     HW 9603   0.441   0.196   8.972 -1.0183  0.5664 -0.1357
 1617Sol     MW 9604   0.401   0.116   8.972  0.5092 -0.0451  0.0966
 1618Sol     OW 9605   2.072   1.140   7.905 -0.3119  0.2612 -0.1365
 1618Sol     HW 9606   2.004   1.148   7.971 -0.6400  2.0169 -0.6732
 1618Sol     HW 9607   2.030   1.094   7.833 -0.3367 -0.4570  0.3288
 1618Sol     MW 9608   2.062   1.136   7.905 -0.0773  0.3328 -0.7432
 1619Sol     OW 9609   1.694   2.983   7.878 -0.0416 -0.5212  0.1739
 1619Sol     HW 9610   1.601   2.964   7.865 -0.2206  1.5714 -2.2052
 1619Sol     HW 9611   1.722   2.924   7.947 -2.9808 -1.6827  0.4363
 1619Sol     MW 9612   1.688   2.976   7.883  0.2282 -0.1263 -0.2729
 1620Sol     OW 9613   3.321   1.247   2.795 -0.4855 -0.4804  0.1110
 1620Sol     HW 9614   3.295   1.235   2.704 -1.5141 -1.4168  0.5178
 1620Sol     HW 9615   3.251   1.300   2.834  0.6990  1.2079 -0.0018
 1620Sol     MW 9616   3.312   1.251   2.791 -0.2577  0.1445  0.1848
 1621Sol     OW 9617   1.609   3.169   4.948  0.4357 -0.0804  0.3610
 1621Sol     HW 9618   1.520   3.196   4.926  0.6782  0.7609  0.4286
 1621Sol     HW 9619   1.599   3.078   4.976 -0.4510  0.1115  0.6923
 1621Sol     MW 9620   1.600   3.163   4.948  0.3712 -0.2378  0.4210
 1622Sol     OW 9621   0.346   1.859   5.017  0.3274 -0.2777  1.0624
 1622Sol     HW 9622   0.353   1.766   4.995  1.6933 -0.0935  0.6942
 1622Sol     HW 9623   0.342   1.861   5.113  1.4868 -0.6449  1.1225
 1622Sol     MW 9624   0.346   1.851   5.024  0.3760 -0.0210  0.5857
 1623Sol     OW 9625   2.194   0.587   7.356  0.2780  0.3971 -0.2799
 1623Sol     HW 9626   2.253   0.604   7.282  0.4028 -1.9580 -0.7688
 1623Sol     HW 9627   2.250   0.592   7.433  0.2782  2.2331 -0.3839
 1623Sol     MW 9628   2.205   0.589   7.356 -0.4736 -0.4307  0.2429
 1624Sol     OW 9629   2.325   0.037   1.960 -0.0307  0.1321  0.0842
 1624Sol     HW 9630   2.360   0.031   2.049  0.9951  0.0367 -0.3202
 1624Sol     HW 9631   2.347   0.126   1.932 -1.1024  0.4491  0.2319
 1624Sol     MW 9632   2.330   0.045   1.966 -0.8148 -0.1082 -0.0999
 1625Sol     OW 9633   0.268   2.794   3.240 -0.2746 -0.6336 -0.7072
 1625Sol     HW 9634   0.180   2.828   3.253  0.1801  0.8873 -1.4912
 1625Sol     HW 9635   0.322   2.842   3.302  0.3699  0.0989 -1.8102
 1625Sol     MW 9636   0.265   2.802   3.246  0.2081 -0.2094  0.2146
 1626Sol     OW 9637   3.200   0.756   5.176 -0.2183 -0.1663  0.0880
 1626Sol     HW 9638   3.110   0.786   5.176 -0.2454 -0.1636  2.9611
 1626Sol     HW 9639   3.220   0.740   5.083 -2.7944  0.8400 -0.6709
 1626Sol     MW 9640   3.194   0.757   5.167 -0.1050  0.5074 -0.3297
 1627Sol     OW 9641   0.727   0.316   5.183 -0.0415 -0.3757 -0.0237
 1627Sol     HW 9642   0.770   0.234   5.158  0.5350  0.6076 -2.3741
 1627Sol     HW 9643   0.666   0.290   5.253  0.1369 -2.7817 -0.6914
 1627Sol     MW 9644   0.726   0.306   5.187  0.5464  0.9738  0.0953
 1628Sol     OW 9645   0.689   3.269   7.013  0.4584 -0.3485  0.1864
 1628Sol     HW 9646   0.638   3.189   7.026  1.4682 -0.7333  1.9650
 1628Sol     HW 9647   0.667   3.297   6.925 -2.5932 -0.6668  0.7871
 1628Sol     MW 9648   0.683   3.264   7.007  0.2637  0.2445  0.2212
 1629Sol     OW 9649   0.463   2.761   3.619 -0.4766 -0.0428  0.3666
 1629Sol     HW 9650   0.476   2.758   3.713  0.5727 -0.4353  0.2197
 1629Sol     HW 9651   0.408   2.838   3.604 -0.4494  0.1521  1.2764
 1629Sol     MW 9652   0.459   2.768   3.626 -0.0933  0.5209 -0.7031
 1630Sol     OW 9653   3.268   0.727   8.186  0.0473  0.5619  0.5442
 1630Sol     HW 9654   3.229   0.749   8.101 -0.5777  0.8333  0.8934
 1630Sol     HW 9655   3.317   0.806   8.211  0.0418  0.5686  0.5333
 1630Sol     MW 9656   3.269   0.736   8.181  0.5258 -0.6827  0.0384
 1631Sol     OW 9657   3.316   2.617   6.463  0.0038 -0.0111  0.1362
 1631Sol     HW 9658   3.262   2.556   6.513 -0.4653 -0.2284 -0.6139
 1631Sol     HW 9659   3.380   2.562   6.418  0.4750  0.1892  0.5572
 1631Sol     MW 9660   3.317   2.607   6.463  0.6456  0.6082  0.3671
 1632Sol     OW 9661   2.566   1.358   6.195 -0.2481 -0.4393 -0.2317
 1632Sol     HW 9662   2.582   1.426   6.260 -1.5331  0.7601 -1.1221
 1632Sol     HW 9663   2.513   1.292   6.240  1.8513 -1.3716  0.9226
 1632Sol     MW 9664   2.563   1.358   6.205  0.2791  0.3467 -0.7187
 1633Sol     OW 9665   1.550   2.679   6.610 -0.0778  0.3424 -0.2800
 1633Sol     HW 9666   1.463   2.718   6.606  0.0970  0.7838  0.1266
 1633Sol     HW 9667   1.535   2.587   6.631 -0.5018  0.1595 -1.3771
 1633Sol     MW 9668   1.541   2.674   6.612 -0.4078  0.6904  0.3267
 1634Sol     OW 9669   1.166   2.543   7.365 -0.0255  0.1105  0.1723
 1634Sol     HW 9670   1.176   2.452   7.338 -0.4695  0.1533 -0.1339
 1634Sol     HW 9671   1.155   2.592   7.283  1.7967  0.6518  0.2217
 1634Sol     MW 9672   1.166   2.539   7.355 -0.4153  0.0098 -0.4126
 1635Sol     OW 9673   3.034   0.166   3.155 -0.4639  0.0153 -0.3611
 1635Sol     HW 9674   3.122   0.144   3.126 -0.1815  0.4706  0.1248
 1635Sol     HW 9675   3.046   0.243   3.211 -1.0579 -0.4704  0.4428
 1635Sol     MW 9676   3.043   0.171   3.158  0.3490  0.1434 -0.2377
 1636Sol     OW 9677   0.580   1.202   3.385 -0.6556 -0.1428 -0.7073
 1636Sol     HW 9678   0.563   1.231   3.295  0.7438 -0.5009 -1.0949
 1636Sol     HW 9679   0.545   1.113   3.387  0.7026 -0.6997 -1.3593
 1636Sol     MW 9680   0.575   1.196   3.377 -0.1926  0.1246  0.1253
 1637Sol     OW 9681   2.898   2.482   1.814 -0.4407  0.2910 -0.0856
 1637Sol     HW 9682   2.957   2.517   1.881 -1.0400  1.2093 -0.0401
 1637Sol     HW 9683   2.865   2.558   1.768  1.1256 -0.4098 -2.4515
 1637Sol     MW 9684   2.900   2.492   1.816 -0.0883  0.1640  0.0660
 1638Sol     OW 9685   0.596   3.401   8.835 -0.3843 -0.1019  0.3816
 1638Sol     HW 9686   0.575   3.307   8.837  0.1646 -0.2110  0.9328
 1638Sol     HW 9687   0.669   3.411   8.895  0.1618  0.5379 -0.3729
 1638Sol     MW 9688   0.600   3.393   8.840 -0.1326  0.1563  0.4301
 1639Sol     OW 9689   1.360   2.211   6.361 -0.2442 -0.1885 -0.0664
 1639Sol     HW 9690   1.322   2.135   6.404 -0.6319 -0.0766 -0.2043
 1639Sol     HW 9691   1.298   2.282   6.379 -0.4487 -0.1603 -0.8673
 1639Sol     MW 9692   1.351   2.211   6.366  0.0490  0.2176  0.1316
 1640Sol     OW 9693   1.307   0.961   9.619  0.4891  0.2570  0.0104
 1640Sol     HW 9694   1.316   1.029   9.553  0.1390  0.7814  0.4971
 1640Sol     HW 9695   1.397   0.944   9.648  0.9580 -1.9590 -2.5440
 1640Sol     MW 9696   1.316   0.965   9.616  0.1816 -0.0774 -0.5511
 1641Sol     OW 9697   2.934   1.779   2.390 -0.1117  0.4092 -0.3862
 1641Sol     HW 9698   2.937   1.874   2.383 -0.5185  0.4555  0.0445
 1641Sol     HW 9699   2.924   1.748   2.300  0.0118  0.7718 -0.5255
 1641Sol     MW 9700   2.934   1.785   2.382 -0.1177 -0.1808 -0.0945
 1642Sol     OW 9701   3.200   1.235   4.308 -0.1814 -0.2041  0.4115
 1642Sol     HW 9702   3.209   1.264   4.398  0.4423  0.3776  0.1687
 1642Sol     HW 9703   3.139   1.297   4.268  1.7024  1.2716 -0.2988
 1642Sol     MW 9704   3.196   1.243   4.312 -0.3127 -0.2982  0.3203
 1643Sol     OW 9705   3.141   1.638   4.445  0.2383  0.1559  0.7882
 1643Sol     HW 9706   3.160   1.559   4.497  1.9699  1.0773  1.6056
 1643Sol     HW 9707   3.136   1.708   4.510 -0.2532  0.8879 -0.0413
 1643Sol     MW 9708   3.142   1.637   4.456 -0.3788 -0.3242 -0.4335
 1644Sol     OW 9709   1.539   0.404   5.134  0.2156  0.1260  0.7024
 1644Sol     HW 9710   1.457   0.354   5.137  0.5338 -0.4241  0.2071
 1644Sol     HW 9711   1.593   0.357   5.071  0.9549  0.4331  1.1098
 1644Sol     MW 9712   1.536   0.395   5.129  0.1302  0.0581 -0.0620
 1645Sol     OW 9713   3.040   0.449   2.750  0.0623 -0.5074  0.2089
 1645Sol     HW 9714   2.993   0.529   2.771 -2.1050 -1.4431 -0.9114
 1645Sol     HW 9715   3.001   0.382   2.806 -0.4855 -1.4417 -1.2453
 1645Sol     MW 9716   3.032   0.450   2.757  0.0154  0.1638  0.2354
 1646Sol     OW 9717   1.091   2.588   7.767  0.1803 -0.3280 -0.5575
 1646Sol     HW 9718   1.079   2.497   7.794 -1.3627  0.7065  2.3914
 1646Sol     HW 9719   1.004   2.616   7.738 -0.3147  1.3650  2.3745
 1646Sol     MW 9720   1.082   2.582   7.766  0.1736 -0.7042  0.1715
 1647Sol     OW 9721   2.925   1.643   3.720  0.9216 -0.4867  0.4097
 1647Sol     HW 9722   2.850   1.672   3.772  0.1661 -0.8399 -0.4590
 1647Sol     HW 9723   2.960   1.567   3.767 -0.4056 -1.4569 -0.1390
 1647Sol     MW 9724   2.922   1.639   3.729 -0.1478  0.4229 -0.5164
 1648Sol     OW 9725   0.219   1.906   7.684 -0.3292  0.0743 -0.2658
 1648Sol     HW 9726   0.259   1.963   7.750  0.1393 -0.7825  0.2040
 1648Sol     HW 9727   0.293   1.871   7.635 -0.4901 -1.3211  0.4408
 1648Sol     MW 9728   0.229   1.908   7.686 -0.0078  0.0456  0.0807
 1649Sol     OW 9729   2.760   0.912   5.604  0.0696  0.5053  0.5310
 1649Sol     HW 9730   2.836   0.948   5.650  0.5932  0.3861 -0.2241
 1649Sol     HW 9731   2.776   0.933   5.512 -0.6270  0.1435  0.3273
 1649Sol     MW 9732   2.768   0.917   5.600 -0.6779 -0.1197  0.3674
 1650Sol     OW 9733   2.873   1.749   7.527 -0.3874 -0.1263 -0.1489
 1650Sol     HW 9734   2.906   1.712   7.445  0.3949 -0.6896  0.4186
 1650Sol     HW 9735   2.818   1.823   7.499  2.0740  1.4111 -1.0891
 1650Sol     MW 9736   2.871   1.753   7.517  0.6088  0.3316 -0.2073
 1651Sol     OW 9737   1.833   0.965   3.689 -0.5135 -1.1075  0.1372
 1651Sol     HW 9738   1.782   0.927   3.760  1.3833 -2.5413  0.7775
 1651Sol     HW 9739   1.921   0.975   3.725 -0.0369  0.2300 -1.3188
 1651Sol     MW 9740   1.836   0.963   3.698 -0.3707 -1.0171 -0.5897
 1652Sol     OW 9741   0.840   0.738   6.285  0.0627 -0.4721 -0.2023
 1652Sol     HW 9742   0.813   0.715   6.196  0.5598 -1.4630 -0.1088
 1652Sol     HW 9743   0.897   0.814   6.274  1.2798 -1.4565 -0.8851
 1652Sol     MW 9744   0.843   0.743   6.276  0.1220 -0.6235  0.1123
 1653Sol     OW 9745   2.616   2.261   3.675 -0.1264 -0.0994  0.1726
 1653Sol     HW 9746   2.527   2.228   3.678  0.1415 -0.8642 -0.2669
 1653Sol     HW 9747   2.632   2.282   3.583  0.8832 -2.0289 -0.1192
 1653Sol     MW 9748   2.610   2.260   3.667 -0.1280 -0.2091  0.2879
 1654Sol     OW 9749   2.008   1.250   8.645  0.8819  0.5514 -0.5965
 1654Sol     HW 9750   2.096   1.286   8.634  1.7668 -1.6953 -0.9290
 1654Sol     HW 9751   1.971   1.251   8.557  1.6948 -1.3573 -0.9659
 1654Sol     MW 9752   2.012   1.254   8.636 -0.4990  0.1825 -0.6439
 1655Sol     OW 9753   0.407   2.511   1.996 -0.1238 -0.2740 -0.7129
 1655Sol     HW 9754   0.360   2.518   2.078 -0.1484 -1.2990 -0.6400
 1655Sol     HW 9755   0.499   2.505   2.021 -0.1115 -0.3249 -0.7688
 1655Sol     MW 9756   0.411   2.511   2.005  0.0874 -0.4808 -0.1875
 1656Sol     OW 9757   2.827   0.247   2.062  0.1297 -0.0442 -0.0616
 1656Sol     HW 9758   2.921   0.240   2.076 -0.0652  0.3146  1.5340
 1656Sol     HW 9759   2.813   0.339   2.037 -0.0721  0.5796  2.2155
 1656Sol     MW 9760   2.834   0.255   2.061  0.5013  0.8618 -1.3367
 1657Sol     OW 9761   1.446   2.395   9.864 -0.2114  0.1381  0.2819
 1657Sol     HW 9762   1.443   2.465   9.797  0.4123 -0.0492  0.0467
 1657Sol     HW 9763   1.462   2.315   9.814 -0.6694 -0.1385  0.5757
 1657Sol     MW 9764   1.447   2.394   9.853  0.1374  0.2707 -0.1176
 1658Sol     OW 9765   2.430   2.233   6.456 -0.0755  0.1377  0.4306
 1658Sol     HW 9766   2.497   2.247   6.389  1.3485 -0.3136  1.7066
 1658Sol     HW 9767   2.434   2.312   6.510  0.3104 -0.4058  1.2227
 1658Sol     MW 9768   2.437   2.241   6.455 -0.3178  0.1760  0.2234
 1659Sol     OW 9769   0.010   1.663   4.012 -0.3755  0.1906  0.4978
 1659Sol     HW 9770   0.024   1.737   3.952 -2.3885  0.7774  0.6866
 1659Sol     HW 9771  -0.055   1.696   4.074  0.2238 -1.0810  1.8128
 1659Sol     MW 9772   0.005   1.673   4.012  0.7512  0.7718  0.7626
 1660Sol     OW 9773   1.122   3.045   2.803 -0.4367  0.6239 -0.0279
 1660Sol     HW 9774   1.090   3.075   2.718 -0.1292 -0.5050 -0.5505
 1660Sol     HW 9775   1.211   3.014   2.785 -0.3914  0.3355  0.6910
 1660Sol     MW 9776   1.127   3.045   2.794 -0.0238  0.0434 -0.3466
 1661Sol     OW 9777   0.479   2.798   5.550 -0.1310 -0.6054  0.5829
 1661Sol     HW 9778   0.496   2.745   5.628 -0.8179  0.3689  1.4134
 1661Sol     HW 9779   0.554   2.857   5.544 -0.6153  0.0819  1.1693
 1661Sol     MW 9780   0.487   2.799   5.557 -0.4413  0.1295  0.5662
 1662Sol     OW 9781   1.366   1.623   7.992 -0.1280 -0.1450 -0.1433
 1662Sol     HW 9782   1.381   1.683   8.065 -1.0906 -2.7106  2.2592
 1662Sol     HW 9783   1.451   1.617   7.947  1.2200 -0.6068  2.4043
 1662Sol     MW 9784   1.375   1.628   7.994 -0.3018  0.3370 -0.0949
 1663Sol     OW 9785   2.978   2.949   1.533 -0.1906 -0.6927  0.6709
 1663Sol     HW 9786   2.971   2.994   1.617 -0.1900 -2.0774  1.4275
 1663Sol     HW 9787   3.061   2.979   1.496  0.4477 -1.0850  1.7752
 1663Sol     MW 9788   2.985   2.956   1.537  0.4951 -0.3799  0.5170
 1664Sol     OW 9789   0.002   0.471   7.887 -0.0848  0.1251  0.5282
 1664Sol     HW 9790  -0.027   0.553   7.848  2.7625  2.1270  2.3923
 1664Sol     HW 9791  -0.036   0.470   7.974  1.0266  0.1767  1.0273
 1664Sol     MW 9792  -0.004   0.478   7.891 -0.5494  0.0879 -0.7010
 1665Sol     OW 9793   0.280   0.060   4.107 -0.1341  1.0084 -0.2499
 1665Sol     HW 9794   0.356   0.096   4.152 -0.3474  1.4708 -0.2568
 1665Sol     HW 9795   0.289   0.090   4.016 -0.4599  1.2852 -0.1932
 1665Sol     MW 9796   0.287   0.066   4.103 -0.2559 -0.2650 -0.2286
 1666Sol     OW 9797   0.605   2.329   5.364  0.6679  0.4668 -0.2345
 1666Sol     HW 9798   0.613   2.289   5.277  1.1732  0.5209 -0.2136
 1666Sol     HW 9799   0.586   2.422   5.346 -0.3645  0.2471 -0.2816
 1666Sol     MW 9800   0.604   2.334   5.354  0.2986 -0.1362 -0.0781
 1667Sol     OW 9801   1.135   1.417   9.034 -0.0294  0.1202 -0.1470
 1667Sol     HW 9802   1.072   1.370   8.981 -0.4874  1.4378 -0.7982
 1667Sol     HW 9803   1.086   1.491   9.071  1.0028  0.8942 -0.2772
 1667Sol     MW 9804   1.125   1.420   9.033 -0.4579 -0.0701 -0.0493
 1668Sol     OW 9805   1.217   2.444   6.483 -0.2137 -0.1723 -0.4015
 1668Sol     HW 9806   1.274   2.513   6.447 -0.5257  0.5262  0.4414
 1668Sol     HW 9807   1.134   2.455   6.436 -0.4930  0.4906  0.2313
 1668Sol     MW 9808   1.215   2.451   6.475 -0.0670  0.0552 -0.4630
 1669Sol     OW 9809   1.738   0.953   9.414 -0.3394 -0.1033  0.2461
 1669Sol     HW 9810   1.661   0.982   9.364  0.5032  0.4130 -0.7896
 1669Sol     HW 9811   1.782   0.891   9.355  0.1016 -0.2976  0.7797
 1669Sol     MW 9812   1.735   0.950   9.404 -0.0149  0.1089 -0.2978
 1670Sol     OW 9813   0.687   2.839   9.899 -0.3846  0.2743  0.0816
 1670Sol     HW 9814   0.636   2.834   9.818  0.2030  0.3450 -0.3004
 1670Sol     HW 9815   0.677   2.753   9.939  1.5954 -0.7266 -1.4803
 1670Sol     MW 9816   0.681   2.831   9.895  0.3863 -0.2524 -0.1883
 1671Sol     OW 9817   2.621   1.906   2.921 -0.5583  0.2117  0.2851
 1671Sol     HW 9818   2.648   1.938   3.007  1.0233  0.1662 -0.1773
 1671Sol     HW 9819   2.597   1.814   2.936  0.3707  0.0110  0.5465
 1671Sol     MW 9820   2.621   1.900   2.930  0.2044 -0.1823 -0.0123
 1672Sol     OW 9821   2.078   1.422   4.150 -0.1060 -0.2564 -0.3160
 1672Sol     HW 9822   2.088   1.328   4.161 -2.3492 -0.5004 -0.2351
 1672Sol     HW 9823   2.113   1.459   4.232 -0.3486 -1.0736  0.1556
 1672Sol     MW 9824   2.082   1.417   4.159  0.2955 -0.1518  0.1505
 1673Sol     OW 9825   1.891   1.477   3.159  0.1345  0.2980  0.5964
 1673Sol     HW 9826   1.817   1.529   3.191 -1.4120 -1.3340 -0.2179
 1673Sol     HW 9827   1.876   1.471   3.064  0.0716 -1.9180  0.7309
 1673Sol     MW 9828   1.883   1.481   3.153 -0.2390  0.1529 -0.0263
 1674Sol     OW 9829   2.038   3.159   7.883  0.0259 -0.6039  0.0857
 1674Sol     HW 9830   2.028   3.081   7.828  0.4805  0.7648 -2.0227
 1674Sol     HW 9831   2.050   3.230   7.820  0.7903  0.9923  2.0013
 1674Sol     MW 9832   2.038   3.158   7.872 -0.6843  0.1336  0.1355
 1675Sol     OW 9833   0.516   3.126   8.782  0.5964 -0.2233 -0.0303
 1675Sol     HW 9834   0.475   3.040   8.775 -2.5204  0.9393  2.6415
 1675Sol     HW 9835   0.594   3.111   8.835 -0.1820 -1.3587  0.8239
 1675Sol     MW 9836   0.519   3.117   8.786  0.3081  0.1089 -0.2442
 1676Sol     OW 9837   0.869   3.181   3.413 -0.1955 -0.1216 -0.5466
 1676Sol     HW 9838   0.776   3.171   3.395 -0.2160  0.1150 -0.5813
 1676Sol     HW 9839   0.882   3.276   3.415  0.0141 -0.1552 -0.3892
 1676Sol     MW 9840   0.862   3.189   3.411  0.0553  0.6363  0.3479
 1677Sol     OW 9841   1.761   1.518   3.749  0.0220 -0.5819 -0.0349
 1677Sol     HW 9842   1.711   1.583   3.798 -0.8738 -1.4248  0.1980
 1677Sol     HW 9843   1.767   1.443   3.808 -2.7341 -2.3328 -1.8638
 1677Sol     MW 9844   1.757   1.517   3.758  0.5433  0.5520  1.3887
 1678Sol     OW 9845   1.088   2.219   9.251 -0.0727  0.4786 -0.1187
 1678Sol     HW 9846   1.053   2.188   9.335  0.6468  0.8190  0.3070
 1678Sol     HW 9847   1.056   2.155   9.187 -2.0990  1.1871  0.1493
 1678Sol     MW 9848   1.082   2.211   9.252 -0.0550 -0.8003  0.1101
 1679Sol     OW 9849   0.804   1.626   2.543 -0.2354  0.3010  0.0075
 1679Sol     HW 9850   0.858   1.592   2.614 -0.8969 -1.7803 -0.4625
 1679Sol     HW 9851   0.761   1.549   2.506  0.8454  1.2236 -3.2948
 1679Sol     MW 9852   0.805   1.616   2.546  0.2482  0.2536  0.2401
 1680Sol     OW 9853   1.445   1.872   5.030 -0.2308 -0.1182 -0.2114
 1680Sol     HW 9854   1.505   1.945   5.044 -0.9087  0.6756 -1.3210
 1680Sol     HW 9855   1.492   1.812   4.971  0.9103 -1.3340  1.8723
 1680Sol     MW 9856   1.455   1.873   5.026  0.1204  0.2588  0.0594
 1681Sol     OW 9857   2.264   1.112   5.893  0.4566 -0.0909  0.1422
 1681Sol     HW 9858   2.317   1.176   5.940 -1.1299  0.8639  0.6651
 1681Sol     HW 9859   2.272   1.032   5.945  2.3999 -0.3464 -0.4857
 1681Sol     MW 9860   2.270   1.110   5.902 -0.0859 -0.4265 -0.3434
 1682Sol     OW 9861   2.079   1.913   5.135  0.9019 -0.0096  0.4308
 1682Sol     HW 9862   2.118   1.986   5.086  0.4328 -0.7695 -1.0998
 1682Sol     HW 9863   1.985   1.926   5.126  0.7821  1.0084  2.9138
 1682Sol     MW 9864   2.074   1.921   5.130 -0.4900 -0.0664  0.5841
 1683Sol     OW 9865   0.525   1.851   9.579 -0.3117 -0.2275  0.0634
 1683Sol     HW 9866   0.620   1.835   9.585 -0.4068 -0.9410 -0.2707
 1683Sol     HW 9867   0.486   1.764   9.584 -0.8920 -0.0314 -1.0214
 1683Sol     MW 9868   0.530   1.842   9.580 -0.3309  0.1008  0.0731
 1684Sol     OW 9869   1.689   0.980   6.425 -0.1328  0.2131 -0.3898
 1684Sol     HW 9870   1.680   0.974   6.330 -1.3988 -1.5555 -0.1848
 1684Sol     HW 9871   1.782   0.965   6.441  0.1492  0.8450 -1.3658
 1684Sol     MW 9872   1.696   0.978   6.418 -0.2564  0.2317 -0.2692
 1685Sol     OW 9873   1.099   2.105   3.631 -0.3092  0.5269  0.0450
 1685Sol     HW 9874   1.126   2.170   3.696  0.8551 -0.2431  0.3513
 1685Sol     HW 9875   1.170   2.040   3.631 -1.9658 -1.3315  0.5496
 1685Sol     MW 9876   1.108   2.105   3.637  0.6156  0.7048  0.4350
 1686Sol     OW 9877   2.743   0.767   4.224  0.2635 -0.2277 -0.2003
 1686Sol     HW 9878   2.823   0.817   4.239  0.5604 -0.9272  0.5866
 1686Sol     HW 9879   2.686   0.826   4.174  0.7435  0.7616  0.4202
 1686Sol     MW 9880   2.745   0.777   4.221  0.4653  0.2835  0.3161
 1687Sol     OW 9881   1.996   2.350   2.769 -0.3379  0.0750  0.1590
 1687Sol     HW 9882   2.022   2.415   2.835  1.0677 -0.5811  0.2712
 1687Sol     HW 9883   1.988   2.268   2.818 -1.5034  0.0394 -0.0901
 1687Sol     MW 9884   1.998   2.348   2.779 -0.2269 -0.1398 -0.1805
 1688Sol     OW 9885   1.671   2.615   9.107 -0.5707 -0.3449 -0.2376
 1688Sol     HW 9886   1.604   2.547   9.114 -0.6952 -0.3828 -1.5974
 1688Sol     HW 9887   1.728   2.584   9.036 -0.3414  0.7310 -0.5287
 1688Sol     MW 9888   1.670   2.606   9.101  0.2069 -0.6563 -0.4173
 1689Sol     OW 9889   1.904   0.708   7.378  0.1887  0.3560  0.4667
 1689Sol     HW 9890   1.836   0.640   7.376  0.8585 -0.4107  2.2827
 1689Sol     HW 9891   1.983   0.663   7.348  0.5612  0.4221  1.3486
 1689Sol     MW 9892   1.905   0.697   7.375 -0.9375  0.3797  0.0903
 1690Sol     OW 9893   3.233   3.095   9.257  0.4107  0.3583  0.1330
 1690Sol     HW 9894   3.261   3.186   9.272  0.1793  0.3942  0.3443
 1690Sol     HW 9895   3.264   3.047   9.334 -0.4975  0.4832  0.5854
 1690Sol     MW 9896   3.238   3.099   9.265 -0.4226  0.0951  0.0339
 1691Sol     OW 9897   2.643   0.915   2.010 -0.1817 -0.4380  0.2128
 1691Sol     HW 9898   2.719   0.899   1.954 -1.7458 -2.7366 -1.3247
 1691Sol     HW 9899   2.594   0.984   1.964  0.1418 -0.0847  0.3917
 1691Sol     MW 9900   2.645   0.920   2.001  0.0105  0.0636 -0.1784
 1692Sol     OW 9901   2.729   2.455   5.296  0.2558  0.0761 -0.3826
 1692Sol     HW 9902   2.669   2.395   5.252  0.4895  0.6326 -1.4817
 1692Sol     HW 9903   2.734   2.423   5.386 -0.0757 -1.1906 -0.8084
 1692Sol     MW 9904   2.724   2.447   5.300 -0.2638  0.1127  0.1339
 1693Sol     OW 9905   1.681   2.001   8.130  0.7296 -0.5013  0.0908
 1693Sol     HW 9906   1.644   2.083   8.097  0.4504 -0.3250  0.8249
 1693Sol     HW 9907   1.673   2.008   8.226 -1.0104 -2.1578  0.1025
 1693Sol     MW 9908   1.677   2.009   8.136 -0.0208  0.6208  0.0275
 1694Sol     OW 9909   1.488   2.780   4.341  0.2263  0.3405 -0.4262
 1694Sol     HW 9910   1.404   2.808   4.378 -0.2235 -0.7133 -0.6393
 1694Sol     HW 9911   1.534   2.741   4.415  0.3946  0.6197 -0.3842
 1694Sol     MW 9912   1.484   2.779   4.351 -0.0637 -0.4363  0.3037
 1695Sol     OW 9913   1.150   2.029   5.896 -0.3647 -0.1384 -0.0347
 1695Sol     HW 9914   1.126   2.029   5.803 -0.4715  2.3141 -0.0426
 1695Sol     HW 9915   1.085   2.086   5.937  1.6288  1.4303  1.0025
 1695Sol     MW 9916   1.142   2.034   5.892 -0.0322 -0.4599 -0.0725
 1696Sol     OW 9917   2.233   1.783   7.909 -0.0888 -0.3334 -0.1610
 1696Sol     HW 9918   2.310   1.727   7.895 -0.4646 -0.6278 -1.0740
 1696Sol     HW 9919   2.169   1.726   7.952  0.1947 -0.0917  0.5882
 1696Sol     MW 9920   2.234   1.773   7.911  0.1724  0.2320  0.7402
 1697Sol     OW 9921   0.199   3.371   7.530  0.1403  0.0635 -0.2453
 1697Sol     HW 9922   0.107   3.347   7.535  0.3192 -0.8840 -1.4177
 1697Sol     HW 9923   0.199   3.463   7.504 -0.4597 -0.2408 -1.3234
 1697Sol     MW 9924   0.191   3.377   7.529  0.1479  0.3490 -0.1665
 1698Sol     OW 9925   0.545   1.889   7.610 -0.1657  0.1699 -0.1276
 1698Sol     HW 9926   0.637   1.874   7.633 -0.1006  0.4820 -0.1825
 1698Sol     HW 9927   0.514   1.804   7.577  0.6459  0.5601 -1.9543
 1698Sol     MW 9928   0.550   1.880   7.609  0.0880  0.3707  0.4360
 1699Sol     OW 9929   2.285   3.045   7.695  0.1897 -0.6979 -0.5265
 1699Sol     HW 9930   2.249   3.109   7.633 -1.2543 -0.5990  0.3823
 1699Sol     HW 9931   2.208   3.002   7.732  1.0059 -0.5849  1.3811
 1699Sol     MW 9932   2.274   3.047   7.693  0.5777 -0.3333 -0.2159
 1700Sol     OW 9933   0.074   3.367   1.819 -0.3595  0.4872  0.0092
 1700Sol     HW 9934  -0.011   3.330   1.843 -0.3610 -0.1520 -0.9315
 1700Sol     HW 9935   0.138   3.308   1.860 -0.3598 -0.7655 -1.7451
 1700Sol     MW 9936   0.072   3.358   1.825 -0.1504  0.2185  0.1501
 1701Sol     OW 9937   2.771   0.903   6.536 -0.8528 -0.0674  0.2088
 1701Sol     HW 9938   2.854   0.907   6.582 -0.3601 -2.5121 -0.3816
 1701Sol     HW 9939   2.705   0.901   6.605 -0.2545 -1.0239  0.7711
 1701Sol     MW 9940   2.772   0.903   6.546 -0.3262  0.2798 -0.5248
 1702Sol     OW 9941   1.705   0.576   8.000  0.3537  0.4948 -0.0205
 1702Sol     HW 9942   1.693   0.640   7.930 -0.2254  0.0637 -0.3158
 1702Sol     HW 9943   1.727   0.494   7.954  1.2158  0.5084  0.3590
 1702Sol     MW 9944   1.706   0.574   7.989  0.9075 -0.6208 -0.4392
 1703Sol     OW 9945   2.111   2.921   6.906  0.2421 -0.1440  0.6367
 1703Sol     HW 9946   2.081   2.988   6.844  0.8786 -0.9438 -0.5746
 1703Sol     HW 9947   2.141   2.849   6.850  0.8694 -0.8748  1.8892
 1703Sol     MW 9948   2.111   2.920   6.895 -0.4229  0.6902 -0.3362
 1704Sol     OW 9949   1.692   0.419   9.511  0.1617 -0.0142  0.1861
 1704Sol     HW 9950   1.615   0.408   9.566  0.3022  0.0216  0.3921
 1704Sol     HW 9951   1.668   0.488   9.449 -0.0442 -0.1480  0.1168
 1704Sol     MW 9952   1.683   0.424   9.511  0.2737 -0.2227 -0.0448
 1705Sol     OW 9953   1.704   1.300   1.592  0.2304 -0.7313 -0.4001
 1705Sol     HW 9954   1.700   1.204   1.590 -1.2615 -0.7445  1.4445
 1705Sol     HW 9955   1.742   1.320   1.678  2.0540  0.3228 -1.4207
 1705Sol     MW 9956   1.707   1.293   1.600  0.6806 -0.1851  0.3062
 1706Sol     OW 9957   2.576   0.290   2.239  0.5428  0.4869 -0.0443
 1706Sol     HW 9958   2.520   0.324   2.308  0.7740  1.1974 -0.1965
 1706Sol     HW 9959   2.554   0.197   2.232 -0.3213  0.6795  0.1692
 1706Sol     MW 9960   2.569   0.285   2.244 -0.5257  0.3770  0.0054
 1707Sol     OW 9961   1.088   2.219   8.264  0.6414 -0.4850  0.0381
 1707Sol     HW 9962   1.084   2.287   8.196  2.2601  0.9848  1.3484
 1707Sol     HW 9963   1.029   2.151   8.233 -0.5302  1.2255 -1.6664
 1707Sol     MW 9964   1.082   2.219   8.255  0.0179  0.5994 -0.4762
 1708Sol     OW 9965   2.159   0.694   3.272  0.1000  0.1317  0.4278
 1708Sol     HW 9966   2.101   0.771   3.269 -0.4502 -0.3106 -0.2338
 1708Sol     HW 9967   2.241   0.728   3.309 -0.9559  0.5179  2.5358
 1708Sol     MW 9968   2.161   0.704   3.275  0.3945 -0.5507  0.0749
 1709Sol     OW 9969   2.418   2.169   8.050 -0.1596  0.5002  0.3628
 1709Sol     HW 9970   2.339   2.121   8.076 -0.0038 -0.5385 -1.0168
 1709Sol     HW 9971   2.390   2.222   7.975  0.1306  1.1356  0.7032
 1709Sol     MW 9972   2.408   2.169   8.045 -0.2613  0.4247 -0.3745
 1710Sol     OW 9973   1.428   0.993   6.957 -0.2283 -0.3393  0.6633
 1710Sol     HW 9974   1.516   0.985   6.995  0.3833  0.2250 -0.6031
 1710Sol     HW 9975   1.377   1.040   7.023  0.3018 -1.0455  1.5861
 1710Sol     MW 9976   1.431   0.996   6.966 -0.0633  0.0661 -0.3183
 1711Sol     OW 9977   3.221   1.823   7.168  0.1094  0.3390  0.2400
 1711Sol     HW 9978   3.159   1.822   7.095  0.0904 -1.6968  0.2482
 1711Sol     HW 9979   3.302   1.858   7.131 -0.3233  0.6912 -0.3800
 1711Sol     MW 9980   3.223   1.826   7.158 -0.6270 -0.0413 -0.2084
 1712Sol     OW 9981   2.976   0.897   5.168 -0.1538  0.0866 -0.1940
 1712Sol     HW 9982   2.979   0.954   5.091 -0.0107  1.7385  1.0092
 1712Sol     HW 9983   2.892   0.916   5.208 -0.6900 -1.5619 -0.5135
 1712Sol     MW 9984   2.969   0.904   5.165  0.5769 -0.1865  0.3407
 1713Sol     OW 9985   1.331   1.669   4.156  0.4975  0.4270  0.4167
 1713Sol     HW 9986   1.321   1.697   4.065 -1.0136  1.7531  0.9678
 1713Sol     HW 9987   1.287   1.737   4.207 -0.6273 -1.4492  2.0084
 1713Sol     MW 9988   1.326   1.678   4.153 -0.1182 -0.0934  0.6346
 1714Sol     OW 9989   2.830   0.041   4.408  0.3988  0.0347  0.4861
 1714Sol     HW 9990   2.846   0.086   4.492  0.1045  0.4140  0.3416
 1714Sol     HW 9991   2.747   0.078   4.377  0.7001  0.1706 -0.1568
 1714Sol     MW 9992   2.824   0.049   4.413  0.5717 -0.0615  0.4151
 1715Sol     OW 9993   2.919   3.396   5.734 -0.7513 -0.2979 -0.1846
 1715Sol     HW 9994   2.914   3.466   5.798 -1.8758 -1.2685  0.8269
 1715Sol     HW 9995   2.849   3.415   5.672  1.3346  1.5012 -2.0561
 1715Sol     MW 9996   2.912   3.404   5.734 -0.2100  0.5852  0.1336
 1716Sol     OW 9997   1.592   1.333   5.332 -0.2915 -0.3417  0.2464
 1716Sol     HW 9998   1.621   1.268   5.267  1.2038  1.2048 -0.6919
 1716Sol     HW 9999   1.508   1.300   5.364 -1.2550 -1.0013 -2.7470
 1716Sol     MW10000   1.587   1.324   5.329  0.1401 -0.2797  0.0879
 1717Sol     OW10001   1.157   2.780   2.555  0.0630 -0.0840 -0.1252
 1717Sol     HW10002   1.229   2.822   2.603 -0.5912 -0.2029  0.9897
 1717Sol     HW10003   1.103   2.740   2.623 -1.7124  1.0323 -0.8402
 1717Sol     MW10004   1.158   2.780   2.566 -0.2037  0.1705  0.1414
 1718Sol     OW10005   0.975   3.026   5.195  0.0847  0.6546 -0.0930
 1718Sol     HW10006   0.889   3.051   5.231 -0.2183  0.2083 -0.4960
 1718Sol     HW10007   1.036   3.039   5.267 -0.5270 -0.3281  0.6051
 1718Sol     MW10008   0.972   3.030   5.205  0.2197  0.2081  0.0427
 1719Sol     OW10009   2.294   3.385   6.107 -0.1044 -0.4764  0.2558
 1719Sol     HW10010   2.262   3.305   6.149  0.4326 -0.6547  0.3249
 1719Sol     HW10011   2.367   3.356   6.052 -0.5516 -0.1838 -0.4949
 1719Sol     MW10012   2.298   3.376   6.106  0.0687  0.3967 -0.0035
 1720Sol     OW10013   1.170   3.055   5.384  0.1040  0.5667 -0.1390
 1720Sol     HW10014   1.167   3.024   5.475  0.3344 -0.4060 -0.4512
 1720Sol     HW10015   1.262   3.047   5.360  0.4089  2.8537  0.2173
 1720Sol     MW10016   1.178   3.051   5.390  0.3972  0.4461  0.1899
 1721Sol     OW10017   2.989   3.399   7.050  0.4017  0.6246 -0.2678
 1721Sol     HW10018   2.958   3.469   6.994 -0.7940 -0.4198 -0.9325
 1721Sol     HW10019   2.916   3.380   7.108  0.4452 -0.5873 -0.5957
 1721Sol     MW10020   2.980   3.403   7.051  0.3451 -0.3920 -0.3527
 1722Sol     OW10021   0.869   0.020   3.190 -0.4139  0.0779 -0.3378
 1722Sol     HW10022   0.949  -0.029   3.169 -0.4051  0.3042 -0.8509
 1722Sol     HW10023   0.837  -0.019   3.271 -1.3021 -1.8967 -1.6062
 1722Sol     MW10024   0.874   0.012   3.195  0.6620  0.2998  0.3440
 1723Sol     OW10025   1.240   0.569   8.109  0.1404  0.0207 -0.7646
 1723Sol     HW10026   1.263   0.657   8.081  3.5179 -0.5614 -0.0569
 1723Sol     HW10027   1.313   0.515   8.079 -0.8526 -2.1868  0.6649
 1723Sol     MW10028   1.249   0.572   8.104 -0.8477 -0.5458  0.6384
 1724Sol     OW10029   0.024   2.705   2.967 -0.2679 -0.0268 -0.2301
 1724Sol     HW10030   0.012   2.746   3.052 -0.1105  0.5564 -0.4851
 1724Sol     HW10031   0.042   2.778   2.907 -1.0132 -0.3670 -0.8843
 1724Sol     MW10032   0.025   2.715   2.969 -0.5246  0.2852  0.0229
 1725Sol     OW10033   1.456   2.952   3.147  0.3633 -0.4309 -0.4392
 1725Sol     HW10034   1.464   2.945   3.051 -0.7593  0.1971 -0.5812
 1725Sol     HW10035   1.516   2.885   3.180  2.0822  0.5154 -1.5436
 1725Sol     MW10036   1.462   2.945   3.141 -0.1378 -0.6211 -0.7139
 1726Sol     OW10037   1.164   2.428   2.541 -0.3650 -0.1239  0.3469
 1726Sol     HW10038   1.153   2.428   2.636  3.8999 -0.7507  0.9124
 1726Sol     HW10039   1.136   2.516   2.514 -1.0425  0.2655  2.2244
 1726Sol     MW10040   1.160   2.436   2.547 -0.1269 -0.5715 -0.9101
 1727Sol     OW10041   2.772   1.189   3.046 -0.0096 -0.2076  0.8442
 1727Sol     HW10042   2.731   1.275   3.061  0.5542  0.3444 -0.7216
 1727Sol     HW10043   2.864   1.203   3.064  0.1642 -0.3509  0.0941
 1727Sol     MW10044   2.776   1.198   3.049  0.0068  0.3452  0.1228
 1728Sol     OW10045   2.590   0.555   4.937  0.0371  0.1640 -0.0436
 1728Sol     HW10046   2.532   0.497   4.887  1.0897 -0.8295 -0.1126
 1728Sol     HW10047   2.677   0.540   4.901  0.8784 -0.8353  2.3030
 1728Sol     MW10048   2.592   0.549   4.930 -0.5019 -0.1983 -0.3827
 1729Sol     OW10049   2.418   0.854   9.424  0.1198 -0.6497 -0.0031
 1729Sol     HW10050   2.347   0.910   9.393  0.1764 -0.5976 -0.0397
 1729Sol     HW10051   2.380   0.766   9.428  0.1116 -0.6566 -0.2231
 1729Sol     MW10052   2.408   0.851   9.421  0.8539 -0.2433 -0.2894
 1730Sol     OW10053   1.121   3.423   6.927 -0.0531 -0.2881 -0.6550
 1730Sol     HW10054   1.069   3.476   6.867  0.7410 -0.1584 -1.2501
 1730Sol     HW10055   1.058   3.368   6.973 -0.7711  0.3853 -0.8362
 1730Sol     MW10056   1.111   3.422   6.926  0.2590 -0.3449 -0.3498
 1731Sol     OW10057   0.159   2.453   7.193  0.5239 -0.3667  0.0876
 1731Sol     HW10058   0.088   2.393   7.175  0.7344 -0.7862  0.6239
 1731Sol     HW10059   0.144   2.527   7.135 -0.5551 -0.2868  0.4674
 1731Sol     MW10060   0.152   2.454   7.186  0.2258 -0.2683  0.7873
 1732Sol     OW10061   0.292   0.189   5.021  0.4707  0.0117 -0.4686
 1732Sol     HW10062   0.343   0.242   5.082  1.2686  0.3497 -1.4213
 1732Sol     HW10063   0.230   0.251   4.982 -0.7156 -0.4014  0.7046
 1732Sol     MW10064   0.291   0.199   5.023  0.1311  0.1697 -0.0823
 1733Sol     OW10065   2.804   3.151   5.423  0.0801 -0.0217  0.5191
 1733Sol     HW10066   2.891   3.143   5.461  0.0681 -0.0498  0.5402
 1733Sol     HW10067   2.815   3.131   5.330  0.2288  0.6838  0.3762
 1733Sol     MW10068   2.813   3.149   5.418  0.5350  0.0447  0.1378
 1734Sol     OW10069   1.358   2.455   8.791 -0.0903  0.2773 -0.3740
 1734Sol     HW10070   1.346   2.479   8.699  0.7014 -0.7506 -0.7565
 1734Sol     HW10071   1.270   2.435   8.822 -0.0957 -1.6545 -1.5756
 1734Sol     MW10072   1.349   2.455   8.785 -0.6213 -0.2541  0.5568
 1735Sol     OW10073   2.819   1.627   8.722  0.2806  0.0372 -0.1604
 1735Sol     HW10074   2.890   1.686   8.695 -0.4158  2.0539  2.2168
 1735Sol     HW10075   2.775   1.674   8.793 -1.8128 -2.3373  0.1678
 1735Sol     MW10076   2.821   1.637   8.726  0.3130 -0.0724  0.3941
 1736Sol     OW10077   3.247   3.181   4.341 -0.6760 -0.1105  0.1132
 1736Sol     HW10078   3.264   3.239   4.266  0.2635 -0.3071  0.1737
 1736Sol     HW10079   3.258   3.093   4.306  0.0955 -0.1955  0.5653
 1736Sol     MW10080   3.250   3.179   4.331 -0.2396  0.0899 -0.0326
 1737Sol     OW10081   0.879   1.425   4.969 -0.0328  0.3721 -0.0328
 1737Sol     HW10082   0.853   1.334   4.985  1.1170  0.1638  0.6718
 1737Sol     HW10083   0.915   1.456   5.052 -0.9238  1.6575 -0.1100
 1737Sol     MW10084   0.880   1.419   4.978 -0.2987  0.1575  0.3228
 1738Sol     OW10085   3.207   0.763   6.963  0.4783  0.7157 -0.0811
 1738Sol     HW10086   3.153   0.822   7.015  1.5288  1.4733  0.1730
 1738Sol     HW10087   3.145   0.707   6.916 -0.5030  1.3787  0.4349
 1738Sol     MW10088   3.197   0.763   6.963  0.4186 -0.1958  0.0274
 1739Sol     OW10089   0.503   2.772   9.712  0.4418 -0.1765 -0.3090
 1739Sol     HW10090   0.554   2.707   9.663  0.9309  0.0995 -0.1620
 1739Sol     HW10091   0.418   2.773   9.667  0.5531 -0.6511 -0.5391
 1739Sol     MW10092   0.500   2.766   9.703  0.2636  0.1487 -0.5498
 1740Sol     OW10093   1.954   0.025   2.905 -0.0308 -0.2768 -0.1787
 1740Sol     HW10094   1.997   0.014   2.820  1.8738 -1.7665  0.9395
 1740Sol     HW10095   1.968  -0.058   2.950 -2.5103 -0.1249  0.9606
 1740Sol     MW10096   1.959   0.016   2.901 -0.6599  0.2745 -0.2023
 1741Sol     OW10097   0.737   0.694   6.037  0.4679 -0.4340 -0.5006
 1741Sol     HW10098   0.790   0.756   5.986  0.2620  1.0071  0.9747
 1741Sol     HW10099   0.651   0.736   6.043 -0.7996 -2.5980 -2.5738
 1741Sol     MW10100   0.734   0.703   6.033 -0.1976 -0.6756 -0.2314
 1742Sol     OW10101   1.912   2.708   2.173  0.2617  0.3038  0.1685
 1742Sol     HW10102   1.944   2.625   2.207  1.1479  0.1272 -1.0620
 1742Sol     HW10103   1.856   2.683   2.099 -0.0628  0.7705  0.2555
 1742Sol     MW10104   1.910   2.698   2.169 -0.0363 -0.1054  0.2142
 1743Sol     OW10105   2.986   2.948   2.251  0.4533 -0.1385 -0.4642
 1743Sol     HW10106   3.070   2.980   2.218  0.8506 -0.9091 -0.2079
 1743Sol     HW10107   2.979   2.987   2.338  1.6742 -1.9705  0.4915
 1743Sol     MW10108   2.993   2.955   2.256  0.3418  0.0143  0.3944
 1744Sol     OW10109   1.330   0.724   2.283 -0.2101  0.3616 -0.3735
 1744Sol     HW10110   1.253   0.716   2.339 -1.3138  1.2609 -1.7184
 1744Sol     HW10111   1.303   0.685   2.200  1.9502 -2.4518  0.1847
 1744Sol     MW10112   1.320   0.720   2.281  0.3573 -0.1561  0.1857
 1745Sol     OW10113   2.830   1.258   6.764 -0.2487  0.3441  0.2067
 1745Sol     HW10114   2.896   1.279   6.698  1.2141 -0.4118  1.3977
 1745Sol     HW10115   2.801   1.169   6.742  0.0479  0.1931  0.4255
 1745Sol     MW10116   2.833   1.252   6.756 -0.5620  0.0237 -0.2373
 1746Sol     OW10117   2.479   1.397   2.357  0.2483  0.6560  0.2841
 1746Sol     HW10118   2.513   1.390   2.446  0.9401  0.1268 -0.0160
 1746Sol     HW10119   2.391   1.432   2.368 -0.6845 -1.9361  1.3704
 1746Sol     MW10120   2.474   1.400   2.366  0.5458  0.4150 -0.3207
 1747Sol     OW10121   2.268   2.428   8.082 -0.0248 -0.5326  0.6072
 1747Sol     HW10122   2.284   2.521   8.065  2.3580 -1.0862 -0.2629
 1747Sol     HW10123   2.225   2.396   8.003 -1.2156 -0.1030  1.0658
 1747Sol     MW10124   2.265   2.434   8.074 -0.2999 -0.2103  0.2227
 1748Sol     OW10125   1.074   1.331   2.751 -0.0299  0.4248  0.0634
 1748Sol     HW10126   0.980   1.314   2.756  0.1280  0.1335  3.0207
 1748Sol     HW10127   1.110   1.252   2.711 -0.9691  0.3304 -0.6250
 1748Sol     MW10128   1.069   1.322   2.748 -0.2113 -0.2305 -0.4357
 1749Sol     OW10129   0.838   2.316   5.534  0.7444 -0.2147 -0.1988
 1749Sol     HW10130   0.772   2.308   5.464  0.2570 -0.7741  0.3170
 1749Sol     HW10131   0.863   2.226   5.553  1.4421 -0.0166 -0.1787
 1749Sol     MW10132   0.834   2.307   5.529  0.1366 -0.4081 -0.0261
 1750Sol     OW10133   2.226   2.829   7.206  0.2803 -0.2802  0.2413
 1750Sol     HW10134   2.216   2.916   7.166  0.2455  0.4073  1.6853
 1750Sol     HW10135   2.306   2.794   7.167 -0.3415 -0.1035 -1.2329
 1750Sol     MW10136   2.233   2.834   7.199  0.4910  0.0030  0.8706
 1751Sol     OW10137   0.514   0.710   7.151  0.0119 -0.1898 -0.5480
 1751Sol     HW10138   0.580   0.761   7.199 -3.6311  2.9845  1.2892
 1751Sol     HW10139   0.502   0.631   7.204  1.1493 -0.0278 -0.0317
 1751Sol     MW10140   0.519   0.707   7.160  0.1927  0.0894 -0.0514
 1752Sol     OW10141   2.919   1.787   4.096 -0.2617  0.3107  0.2075
 1752Sol     HW10142   2.877   1.735   4.028 -0.7030 -0.9211  1.3955
 1752Sol     HW10143   2.970   1.853   4.049  0.8550 -1.6212 -1.3518
 1752Sol     MW10144   2.920   1.789   4.086 -0.0451 -0.1526  0.7586
 1753Sol     OW10145   0.002   1.794   5.066 -0.3564  0.6457 -0.1033
 1753Sol     HW10146   0.008   1.716   5.121 -2.9581 -0.0437 -0.7616
 1753Sol     HW10147   0.044   1.863   5.118  0.8357 -0.8763  1.0153
 1753Sol     MW10148   0.007   1.793   5.076  0.1014 -0.0383 -0.1332
 1754Sol     OW10149   3.014   2.842   8.405  0.0013 -0.3397  0.9165
 1754Sol     HW10150   3.085   2.778   8.405  1.3933  1.1701  0.5475
 1754Sol     HW10151   3.009   2.871   8.314 -0.7307 -0.0320  1.0569
 1754Sol     MW10152   3.020   2.839   8.397  0.4477 -0.1163 -0.2285
 1755Sol     OW10153   3.229   3.233   5.191 -0.4816  0.2662 -0.4051
 1755Sol     HW10154   3.162   3.298   5.169 -0.9566 -0.7395 -1.9768
 1755Sol     HW10155   3.217   3.163   5.128  2.7429  0.5246 -1.4138
 1755Sol     MW10156   3.222   3.233   5.184 -0.1406  0.3134 -0.8512
 1756Sol     OW10157   0.932   1.969   8.507 -0.2688  0.1918 -0.2432
 1756Sol     HW10158   0.943   1.971   8.412 -0.7827  0.5296 -0.2985
 1756Sol     HW10159   0.849   2.014   8.522 -0.7854 -0.9202  0.2722
 1756Sol     MW10160   0.925   1.973   8.500 -0.4646  0.3780 -0.8699
 1757Sol     OW10161   2.181   1.475   5.310  0.5302 -0.1986 -0.1373
 1757Sol     HW10162   2.166   1.396   5.258 -1.6324  0.2901 -0.3109
 1757Sol     HW10163   2.202   1.443   5.398  1.4089 -0.9726 -0.6189
 1757Sol     MW10164   2.182   1.465   5.313 -0.3419 -0.0809  0.3468
 1758Sol     OW10165   1.024   1.285   6.842 -0.1345  0.0850  0.3242
 1758Sol     HW10166   1.018   1.198   6.804  0.9951 -0.2766  0.9571
 1758Sol     HW10167   1.002   1.273   6.935 -3.4722  1.0512 -0.2652
 1758Sol     MW10168   1.021   1.276   6.847  0.0374  0.0889 -0.4842
 1759Sol     OW10169   0.610   0.649   2.037 -0.4343  0.1198  0.1041
 1759Sol     HW10170   0.658   0.623   2.116  1.3447 -0.0221 -1.0063
 1759Sol     HW10171   0.622   0.744   2.032 -0.5346  0.1272 -0.0031
 1759Sol     MW10172   0.615   0.655   2.044 -0.8040  0.1738 -0.1032
 1760Sol     OW10173   0.701   0.420   3.658 -0.1288  0.0448  0.3094
 1760Sol     HW10174   0.762   0.492   3.674 -1.7495  1.1175  1.9654
 1760Sol     HW10175   0.644   0.452   3.588  0.5647 -0.5589 -0.5435
 1760Sol     MW10176   0.701   0.430   3.653 -0.3536 -0.6845  0.3981
 1761Sol     OW10177   0.851   1.319   3.736 -0.0249 -0.5652  0.0023
 1761Sol     HW10178   0.939   1.334   3.770  1.0426 -0.1030 -2.8277
 1761Sol     HW10179   0.835   1.226   3.749  0.6438 -0.5425  1.0147
 1761Sol     MW10180   0.857   1.312   3.741  0.5495  0.2638  0.1604
 1762Sol     OW10181   1.014   0.063   8.539 -0.1874 -0.6040 -0.2682
 1762Sol     HW10182   0.945   0.065   8.605  0.0361 -2.6524  0.0565
 1762Sol     HW10183   1.072  -0.008   8.567  1.0317 -0.1405 -1.5559
 1762Sol     MW10184   1.013   0.056   8.548  0.2145  0.0787  0.2831
 1763Sol     OW10185   1.213   3.261   5.648 -0.4482  0.1595  0.5389
 1763Sol     HW10186   1.248   3.289   5.563 -0.4665  0.7116  0.7114
 1763Sol     HW10187   1.175   3.175   5.631 -0.2069  0.1469  0.0475
 1763Sol     MW10188   1.213   3.256   5.639 -0.3416 -0.0079 -0.5111
 1764Sol     OW10189   1.952   0.057   7.345  0.1170  0.1693  0.1853
 1764Sol     HW10190   1.986   0.064   7.434 -1.7344 -0.4020  0.9666
 1764Sol     HW10191   1.937   0.147   7.318 -0.7565  0.2840  1.0304
 1764Sol     MW10192   1.954   0.065   7.351 -0.2311  0.3790 -0.4754
 1765Sol     OW10193   1.935   1.933   6.491 -0.3799  0.6788 -0.5344
 1765Sol     HW10194   1.904   2.015   6.452 -1.1884  0.9406  0.6147
 1765Sol     HW10195   1.874   1.917   6.563  0.2177 -0.5496 -0.2977
 1765Sol     MW10196   1.927   1.939   6.494 -0.4076  0.3175 -0.0265
 1766Sol     OW10197   0.121   2.858   6.561  0.6917  0.2052 -0.0542
 1766Sol     HW10198   0.088   2.943   6.535  0.6189 -0.3226 -1.7899
 1766Sol     HW10199   0.043   2.803   6.571  0.8381 -0.1282 -0.7184
 1766Sol     MW10200   0.111   2.860   6.560 -0.0000 -0.1392  1.0707
 1767Sol     OW10201   3.254   3.106   8.486  0.0536 -0.2706 -0.5241
 1767Sol     HW10202   3.227   3.062   8.567 -0.8877  1.3906  0.0818
 1767Sol     HW10203   3.345   3.130   8.501 -0.6801  1.7689  0.8323
 1767Sol     MW10204   3.260   3.104   8.495 -0.5003  0.7958  0.2446
 1768Sol     OW10205   2.202   2.502   6.299  0.2129 -0.4385  0.3349
 1768Sol     HW10206   2.237   2.493   6.388  0.1697 -0.9034  0.3049
 1768Sol     HW10207   2.167   2.415   6.278  1.0263 -0.5706 -0.4753
 1768Sol     MW10208   2.202   2.493   6.305  0.2745  0.5502  0.6109
 1769Sol     OW10209   3.243   1.411   7.030 -0.2975 -0.9749 -0.3568
 1769Sol     HW10210   3.265   1.321   7.053 -1.8773 -1.4379 -0.5900
 1769Sol     HW10211   3.152   1.407   7.002 -0.3058  0.6579 -0.6200
 1769Sol     MW10212   3.237   1.403   7.030  0.4799 -0.9624  0.2551
 1770Sol     OW10213   3.085   2.669   5.006  0.0698  0.4185  0.2791
 1770Sol     HW10214   3.057   2.666   4.915  1.1348  0.2176 -0.0485
 1770Sol     HW10215   3.181   2.666   5.002  0.1193  0.2497  1.4051
 1770Sol     MW10216   3.092   2.668   4.998 -0.6240 -0.3287  0.8751
 1771Sol     OW10217   0.351   2.623   4.624 -0.3902 -0.0572  0.4309
 1771Sol     HW10218   0.438   2.583   4.627  0.9570  2.7913  0.6021
 1771Sol     HW10219   0.340   2.661   4.711 -0.6247  1.9697 -0.4686
 1771Sol     MW10220   0.358   2.623   4.632 -0.0154 -0.0598 -0.7521
 1772Sol     OW10221   0.411   1.170   8.072  0.3249 -0.2857 -0.1576
 1772Sol     HW10222   0.492   1.198   8.115 -0.2965  0.0420  0.8101
 1772Sol     HW10223   0.414   1.213   7.986  0.7703  0.4270  0.2056
 1772Sol     MW10224   0.418   1.177   8.068 -0.2244 -0.0025 -0.0455
 1773Sol     OW10225   1.335   0.897   6.123  0.2033  0.2758  0.1580
 1773Sol     HW10226   1.302   0.808   6.114 -1.7119  1.0279 -0.3315
 1773Sol     HW10227   1.363   0.903   6.214  1.1492 -1.0730 -0.0204
 1773Sol     MW10228   1.335   0.890   6.130  0.4668 -0.0681 -0.1364
 1774Sol     OW10229   0.647   2.948   7.409 -0.3033 -0.2303  0.4549
 1774Sol     HW10230   0.698   2.872   7.383 -0.6457 -0.4149  0.3261
 1774Sol     HW10231   0.563   2.938   7.364 -0.0005  0.7216 -0.3389
 1774Sol     MW10232   0.644   2.941   7.403 -0.4834  0.4302  0.0350
 1775Sol     OW10233   1.251   2.858   4.512 -0.2147  0.1129  0.3861
 1775Sol     HW10234   1.255   2.912   4.591 -1.0612  0.7927 -0.0316
 1775Sol     HW10235   1.172   2.887   4.467  0.4474 -0.0229 -0.8943
 1775Sol     MW10236   1.244   2.865   4.515 -0.2449 -0.0092  0.4093
 1776Sol     OW10237   0.872   2.769   7.362 -0.1814  0.1803  0.3560
 1776Sol     HW10238   0.924   2.790   7.439  1.5957 -0.4504 -0.6403
 1776Sol     HW10239   0.864   2.673   7.364 -3.7783  0.4457  2.0397
 1776Sol     MW10240   0.876   2.762   7.369  0.3042  0.2496 -0.0320
 1777Sol     OW10241   1.528   2.043   1.848 -0.2087 -0.2824  0.1479
 1777Sol     HW10242   1.600   2.087   1.801 -0.2818 -1.7950 -1.4528
 1777Sol     HW10243   1.531   2.079   1.936  1.5579  0.7999 -0.3270
 1777Sol     MW10244   1.535   2.050   1.851 -0.1024 -0.2439  0.6767
 1778Sol     OW10245   2.747   1.293   6.466  0.4522  0.1832  0.2248
 1778Sol     HW10246   2.785   1.224   6.412 -0.7316  0.6386 -1.2389
 1778Sol     HW10247   2.735   1.366   6.405 -0.9455  0.6923  1.0951
 1778Sol     MW10248   2.749   1.294   6.455  1.3683 -0.0303 -0.2360
 1779Sol     OW10249   0.228   2.823   6.816  0.3813 -0.2897  0.7261
 1779Sol     HW10250   0.186   2.832   6.731  0.7894  0.0987  0.5638
 1779Sol     HW10251   0.291   2.895   6.820  1.9068 -1.5733  0.4404
 1779Sol     MW10252   0.230   2.830   6.809 -0.0223 -0.3142  1.1403
 1780Sol     OW10253   1.890   2.214   3.395  0.2718 -0.1479 -0.1513
 1780Sol     HW10254   1.984   2.214   3.376 -0.3019 -0.6101 -3.2270
 1780Sol     HW10255   1.871   2.303   3.425  1.3755  0.4429 -1.1817
 1780Sol     MW10256   1.897   2.222   3.396  0.0237  0.6337 -0.6126
 1781Sol     OW10257   2.146   1.575   4.377 -0.1214  0.0384 -0.7782
 1781Sol     HW10258   2.211   1.522   4.422  0.8342  1.7096 -0.1500
 1781Sol     HW10259   2.192   1.607   4.299 -0.9529 -0.7172 -1.5946
 1781Sol     MW10260   2.156   1.573   4.374 -0.4041 -0.8784  0.0191
 1782Sol     OW10261   3.262   3.313   7.473  0.2544  0.2938 -0.4209
 1782Sol     HW10262   3.226   3.340   7.389  1.5047 -0.1571 -1.1038
 1782Sol     HW10263   3.185   3.296   7.527 -0.5606  2.1352 -0.9601
 1782Sol     MW10264   3.252   3.314   7.470  0.3629 -0.1527  0.0684
 1783Sol     OW10265   2.620   1.479   7.637 -0.2401  0.4099 -0.6417
 1783Sol     HW10266   2.709   1.502   7.664 -0.0269  0.1724 -1.1417
 1783Sol     HW10267   2.610   1.387   7.664  0.4581 -0.2634 -2.5740
 1783Sol     MW10268   2.627   1.473   7.642 -0.0703 -0.1761  0.7808
 1784Sol     OW10269   2.078   2.225   9.604 -0.5470 -0.1588 -0.5843
 1784Sol     HW10270   2.025   2.210   9.525 -1.2553 -0.5934 -0.0331
 1784Sol     HW10271   2.057   2.315   9.629 -1.3757 -0.4830 -0.1089
 1784Sol     MW10272   2.071   2.232   9.599  0.3982 -0.1958 -0.0850
 1785Sol     OW10273   1.903   1.255   8.366 -0.4009  0.1452  0.5596
 1785Sol     HW10274   1.818   1.289   8.395 -0.8283  1.8598 -2.4409
 1785Sol     HW10275   1.931   1.316   8.299  3.1218 -0.5778  1.2976
 1785Sol     MW10276   1.898   1.263   8.362  0.2600 -0.1016  0.0038
 1786Sol     OW10277   1.837   2.119   3.752 -0.5167  0.2926  0.0537
 1786Sol     HW10278   1.824   2.029   3.723  0.9984  0.4129 -1.0722
 1786Sol     HW10279   1.927   2.139   3.727 -1.1739  2.4722 -0.6804
 1786Sol     MW10280   1.844   2.113   3.747  0.1231 -0.4909  0.4450
 1787Sol     OW10281   1.955   0.024   4.566 -1.0577  0.1509 -0.5780
 1787Sol     HW10282   1.933  -0.061   4.529  0.8680 -0.3071 -0.7357
 1787Sol     HW10283   1.902   0.030   4.646 -0.2287 -1.8033  0.1644
 1787Sol     MW10284   1.949   0.017   4.570 -0.1341 -0.4999  0.0021
 1788Sol     OW10285   1.820   0.630   1.761  0.4781 -0.1718  0.4579
 1788Sol     HW10286   1.909   0.642   1.792  0.0387 -1.3373  2.2305
 1788Sol     HW10287   1.767   0.686   1.817 -0.3233 -2.3293  1.9479
 1788Sol     MW10288   1.823   0.636   1.769  0.1823  0.2830 -0.0195
 1789Sol     OW10289   1.326   0.488   2.700 -0.3321 -0.0504  0.4275
 1789Sol     HW10290   1.285   0.544   2.766 -1.9611  1.3535 -1.7055
 1789Sol     HW10291   1.277   0.406   2.703 -1.7332  0.7341 -0.3860
 1789Sol     MW10292   1.318   0.486   2.706 -0.1743 -0.5938  0.3765
 1790Sol     OW10293   2.258   2.150   2.072  0.0136 -0.3196  0.0660
 1790Sol     HW10294   2.339   2.172   2.025 -1.0396  1.6481 -0.8852
 1790Sol     HW10295   2.284   2.149   2.164  0.9451  1.2346 -0.1503
 1790Sol     MW10296   2.268   2.152   2.076  0.0368  0.3086  0.3800
 1791Sol     OW10297   0.160   0.325   8.636  0.1404 -0.6748  0.0889
 1791Sol     HW10298   0.082   0.281   8.602  0.2498  0.4502 -1.6791
 1791Sol     HW10299   0.199   0.367   8.560  1.5835  0.1370  1.2455
 1791Sol     MW10300   0.156   0.325   8.626 -0.1885 -0.7991 -0.1980
 1792Sol     OW10301   1.859   2.225   4.754  0.2245 -0.4071  0.1165
 1792Sol     HW10302   1.909   2.281   4.695  0.0328  0.0995  0.4304
 1792Sol     HW10303   1.844   2.279   4.832  0.4373 -1.0527  0.6135
 1792Sol     MW10304   1.862   2.235   4.756  0.1333  0.3256 -0.3963
 1793Sol     OW10305   1.025   0.295   2.868  0.3296  0.4515 -0.3098
 1793Sol     HW10306   1.087   0.252   2.926 -1.8563 -0.5833  1.3334
 1793Sol     HW10307   1.005   0.228   2.802 -0.7467 -0.0112  0.4767
 1793Sol     MW10308   1.029   0.285   2.867  0.1018 -0.2037 -0.0289
 1794Sol     OW10309   2.336   2.465   8.355  0.0513 -0.4047  0.1374
 1794Sol     HW10310   2.253   2.512   8.351 -0.3806 -1.2178 -0.7094
 1794Sol     HW10311   2.354   2.441   8.264  1.7366  0.6662  0.1595
 1794Sol     MW10312   2.330   2.468   8.346  0.0761  0.2493  0.1353
 1795Sol     OW10313   2.922   3.180   7.238  0.1204 -0.4826 -0.2128
 1795Sol     HW10314   2.907   3.109   7.300 -1.6335 -2.0427 -2.3322
 1795Sol     HW10315   3.009   3.162   7.201 -0.0429 -1.1644 -0.2733
 1795Sol     MW10316   2.929   3.172   7.240 -0.2229 -0.0816 -0.7782
 1796Sol     OW10317   2.961   2.307   8.743 -0.2796  0.3949 -0.0285
 1796Sol     HW10318   2.868   2.282   8.740 -0.0045 -0.8701  1.1488
 1796Sol     HW10319   2.999   2.269   8.664 -0.5599 -0.0219  0.0300
 1796Sol     MW10320   2.956   2.301   8.736  0.3836 -0.4343  0.2390
 1797Sol     OW10321   1.297   1.204   2.370 -0.1807  0.1523  0.8466
 1797Sol     HW10322   1.332   1.136   2.313 -0.7729  1.1801 -0.7914
 1797Sol     HW10323   1.256   1.266   2.310 -0.0771  1.6996  2.3460
 1797Sol     MW10324   1.296   1.204   2.360 -0.1854 -0.2894  0.0278
 1798Sol     OW10325   1.836   2.763   5.506  0.3267  0.5524  0.3852
 1798Sol     HW10326   1.881   2.717   5.434 -0.3640  0.9612 -0.3085
 1798Sol     HW10327   1.897   2.755   5.580  0.4451 -1.0412  0.1416
 1798Sol     MW10328   1.846   2.758   5.506 -0.6227  0.1511  0.1294
 1799Sol     OW10329   1.782   1.513   7.392 -0.0140  0.5229  0.3937
 1799Sol     HW10330   1.806   1.481   7.479  1.0246 -1.5701 -0.6506
 1799Sol     HW10331   1.743   1.599   7.409 -0.3924 -0.1159  2.9803
 1799Sol     MW10332   1.781   1.518   7.401  0.5431 -0.5468 -0.1405
 1800Sol     OW10333   0.539   3.250   1.837 -0.4715 -0.1464  0.2192
 1800Sol     HW10334   0.532   3.346   1.831  0.0475 -0.2684 -4.2404
 1800Sol     HW10335   0.616   3.235   1.891  0.5566  2.0399 -0.5562
 1800Sol     MW10336   0.545   3.257   1.841 -0.0582  0.1900  0.0917
 1801Sol     OW10337   0.528   1.030   7.734 -0.3803 -0.1798  0.2502
 1801Sol     HW10338   0.478   1.110   7.753  0.2651  0.4372 -0.5637
 1801Sol     HW10339   0.468   0.959   7.754 -2.1998  0.5558 -2.2971
 1801Sol     MW10340   0.518   1.031   7.737 -0.0563 -0.6378 -0.5019
 1802Sol     OW10341   1.411   3.095   9.302  0.0369 -0.2815  0.3792
 1802Sol     HW10342   1.342   3.129   9.357  0.4197  1.1188  0.0273
 1802Sol     HW10343   1.419   3.159   9.231  0.9124 -1.0037 -0.1939
 1802Sol     MW10344   1.406   3.104   9.300  0.0972  0.0110  0.2400
 1803Sol     OW10345   1.956   0.446   7.724 -0.3044  0.5425 -0.1372
 1803Sol     HW10346   1.973   0.424   7.632 -2.8613  0.6117 -0.6541
 1803Sol     HW10347   2.041   0.436   7.766  0.7684 -0.2212 -2.3637
 1803Sol     MW10348   1.965   0.443   7.719  0.7513  0.5959  0.2714
 1804Sol     OW10349   0.976   3.327   2.911  0.1117 -0.6383  0.3407
 1804Sol     HW10350   0.966   3.252   2.853  1.3871 -0.4493 -0.1408
 1804Sol     HW10351   1.027   3.294   2.985  1.5127 -0.0324 -0.3301
 1804Sol     MW10352   0.980   3.318   2.913 -0.2800  0.0685  0.3295
 1805Sol     OW10353   0.939   3.119   2.601  0.0643  0.2905 -0.7972
 1805Sol     HW10354   0.982   3.076   2.527  1.1983 -0.1469  0.0962
 1805Sol     HW10355   0.884   3.050   2.639 -0.1486  0.3787 -0.9447
 1805Sol     MW10356   0.938   3.109   2.598  0.0434 -0.0712 -0.4837
 1806Sol     OW10357   2.803   3.308   8.279  0.1009 -0.5305 -0.1560
 1806Sol     HW10358   2.788   3.258   8.199 -0.9586  1.3700 -1.1835
 1806Sol     HW10359   2.890   3.282   8.308  1.0969 -0.1965 -2.7147
 1806Sol     MW10360   2.809   3.301   8.275 -0.1462 -0.1635 -0.0798
 1807Sol     OW10361   3.214   2.245   8.579  0.4341  0.2394  0.2662
 1807Sol     HW10362   3.275   2.177   8.551  1.7034  0.8523  1.5097
 1807Sol     HW10363   3.160   2.262   8.501  1.4396 -0.7391 -0.6607
 1807Sol     MW10364   3.215   2.241   8.569  0.2198  0.3155  0.2588
 1808Sol     OW10365   2.304   1.668   6.377 -0.0874  0.1765  0.2453
 1808Sol     HW10366   2.247   1.654   6.301 -2.1805 -0.7348  1.9487
 1808Sol     HW10367   2.261   1.739   6.425  1.5572  1.1609  0.2948
 1808Sol     MW10368   2.295   1.673   6.374  0.0463 -0.8313 -0.1349
 1809Sol     OW10369   1.694   0.985   7.946 -0.2359  0.4569 -0.1253
 1809Sol     HW10370   1.610   0.993   7.991  0.4230 -0.7237  1.3754
 1809Sol     HW10371   1.742   1.064   7.973 -0.7488  0.9858 -0.7491
 1809Sol     MW10372   1.691   0.993   7.953  0.2347 -0.3514  0.9194
 1810Sol     OW10373   0.459   0.999   8.467 -0.4339 -0.0025  0.0001
 1810Sol     HW10374   0.461   0.929   8.532 -0.4816 -0.3096 -0.3293
 1810Sol     HW10375   0.499   0.960   8.389  1.1595  0.8814  0.3474
 1810Sol     MW10376   0.463   0.989   8.466 -0.0972 -0.6273  0.1132
 1811Sol     OW10377   2.251   2.906   3.066 -0.3676 -0.4467  0.1980
 1811Sol     HW10378   2.214   2.892   2.979 -0.2573 -1.6232  0.3327
 1811Sol     HW10379   2.319   2.839   3.074  0.5722  0.5416  0.6550
 1811Sol     MW10380   2.254   2.899   3.059  0.5172  0.0615  0.3383
 1812Sol     OW10381   2.452   0.771   2.772 -0.1709 -0.0193  0.5452
 1812Sol     HW10382   2.374   0.810   2.812 -0.3541  0.9214 -0.6909
 1812Sol     HW10383   2.483   0.707   2.836 -2.3854 -0.9274  0.7630
 1812Sol     MW10384   2.447   0.769   2.781  0.4361 -0.0844  0.0999
 1813Sol     OW10385   1.982   1.831   7.232  0.0931 -0.2239  0.0583
 1813Sol     HW10386   2.026   1.856   7.151 -0.2408 -1.8013 -0.6319
 1813Sol     HW10387   2.004   1.739   7.244 -2.1160 -0.7581  0.2712
 1813Sol     MW10388   1.988   1.825   7.226  0.2009 -0.4134  0.3125
 1814Sol     OW10389   2.445   2.708   8.647  0.3615 -0.1194  0.4434
 1814Sol     HW10390   2.481   2.724   8.735 -0.9744 -1.0360  1.1741
 1814Sol     HW10391   2.460   2.615   8.632  0.3876 -0.0107 -0.2114
 1814Sol     MW10392   2.450   2.701   8.654 -0.2143  0.2529  0.4561
 1815Sol     OW10393   1.333   3.196   9.844 -0.6430  0.4876  0.2730
 1815Sol     HW10394   1.253   3.184   9.792 -0.6687  0.3348  0.3468
 1815Sol     HW10395   1.302   3.207   9.934 -0.5512 -0.0558  0.3681
 1815Sol     MW10396   1.323   3.196   9.847  0.2285 -0.6621 -0.2907
 1816Sol     OW10397   1.734   1.947   9.003  0.4501 -0.0944  0.0118
 1816Sol     HW10398   1.655   1.919   8.957  0.8435 -1.6619  0.2747
 1816Sol     HW10399   1.719   1.921   9.094  1.3593 -0.5964  0.0216
 1816Sol     MW10400   1.726   1.942   9.007 -0.2068  0.1804 -0.0647
 1817Sol     OW10401   1.504   0.009   4.545  0.3512 -0.3470  0.2685
 1817Sol     HW10402   1.509   0.048   4.458  1.6727 -0.5418  0.2494
 1817Sol     HW10403   1.421   0.041   4.581 -0.3319 -0.4870 -1.1542
 1817Sol     MW10404   1.497   0.015   4.541 -0.6031 -0.5951  0.2194
 1818Sol     OW10405   1.706   1.153   5.153  0.0164  0.2826  0.5805
 1818Sol     HW10406   1.782   1.139   5.210  0.9935  1.4634 -0.4291
 1818Sol     HW10407   1.694   1.069   5.109  1.1844  0.2987  0.2040
 1818Sol     MW10408   1.712   1.144   5.154  0.0181 -0.4077  0.6452
 1819Sol     OW10409   0.393   0.494   2.223 -0.7358  0.0201  0.0342
 1819Sol     HW10410   0.400   0.570   2.165  0.4737  0.4985  0.7884
 1819Sol     HW10411   0.429   0.421   2.173 -0.6685  0.2178 -0.2045
 1819Sol     MW10412   0.397   0.494   2.214 -0.0676  0.1993 -0.2874
 1820Sol     OW10413   1.097   2.042   1.948 -0.0348 -0.0485  0.2600
 1820Sol     HW10414   1.081   1.948   1.959  2.8021 -0.4392  1.3712
 1820Sol     HW10415   1.121   2.072   2.035 -0.2855  1.6095 -0.2350
 1820Sol     MW10416   1.097   2.036   1.957 -0.4414 -0.3207  1.0120
 1821Sol     OW10417   2.178   1.229   3.093 -0.3554 -0.1821  0.6043
 1821Sol     HW10418   2.149   1.310   3.050 -1.1663  0.5471  2.4803
 1821Sol     HW10419   2.100   1.173   3.092  0.2094 -0.9669 -0.7034
 1821Sol     MW10420   2.168   1.231   3.089  0.3181  0.2275 -0.2279
 1822Sol     OW10421   1.167   0.363   5.523  0.4437 -0.5269  0.4199
 1822Sol     HW10422   1.143   0.392   5.435  1.1745  0.1167  0.4298
 1822Sol     HW10423   1.112   0.287   5.539 -1.1015  0.5273  0.1800
 1822Sol     MW10424   1.160   0.359   5.516  0.7774 -0.0688  0.6306
 1823Sol     OW10425   0.498   3.274   7.882  0.2090  0.1238 -0.4007
 1823Sol     HW10426   0.463   3.185   7.879  2.1539 -0.7628  1.6541
 1823Sol     HW10427   0.474   3.306   7.969 -1.1835  1.9397 -1.4170
 1823Sol     MW10428   0.492   3.269   7.889 -0.2650  0.4166 -0.3342
 1824Sol     OW10429   3.160   3.318   2.220 -0.0939  0.3282 -0.2964
 1824Sol     HW10430   3.221   3.386   2.249  0.8470 -0.5937 -0.1034
 1824Sol     HW10431   3.085   3.326   2.279  0.4984  0.4615  0.4347
 1824Sol     MW10432   3.159   3.325   2.228  0.3950 -0.0707  0.2415
 1825Sol     OW10433   2.202   1.370   2.647  0.4447 -0.7290 -0.0720
 1825Sol     HW10434   2.269   1.302   2.656  0.9963 -0.2590 -0.6646
 1825Sol     HW10435   2.209   1.399   2.557  0.9799  0.9118  0.4817
 1825Sol     MW10436   2.209   1.366   2.640  0.4256  0.6772  0.2485
 1826Sol     OW10437   0.052   3.385   3.188  0.4598 -0.1095 -0.1393
 1826Sol     HW10438  -0.007   3.380   3.262 -1.1799  0.3601 -1.3824
 1826Sol     HW10439   0.015   3.453   3.132  1.9133 -0.1340 -1.1691
 1826Sol     MW10440   0.044   3.390   3.189  0.0299  0.4748 -0.1089
 1827Sol     OW10441   2.436   0.560   4.519 -0.2722  0.5438  0.1003
 1827Sol     HW10442   2.434   0.516   4.604  1.3753 -0.2444 -0.2554
 1827Sol     HW10443   2.354   0.533   4.477 -0.3092 -0.4146  0.7611
 1827Sol     MW10444   2.428   0.554   4.523 -0.1533  0.5482 -0.3925
 1828Sol     OW10445   1.666   2.646   7.769  0.1042 -0.2454  1.0072
 1828Sol     HW10446   1.688   2.699   7.693 -1.4532 -0.6427  0.2555
 1828Sol     HW10447   1.633   2.564   7.732 -0.6253 -0.4630  2.0995
 1828Sol     MW10448   1.665   2.643   7.759  0.7683  0.3190 -0.1033
 1829Sol     OW10449   0.519   1.938   5.449  0.2351 -0.3093  0.1050
 1829Sol     HW10450   0.479   1.882   5.383  3.2004 -0.4709 -1.6505
 1829Sol     HW10451   0.477   2.023   5.438 -1.6895 -1.2041  0.3341
 1829Sol     MW10452   0.512   1.940   5.442  0.0094 -0.2826  0.4634
 1830Sol     OW10453   3.321   3.240   5.470  0.0174  0.3740  0.2061
 1830Sol     HW10454   3.299   3.212   5.381  2.6771 -0.2475 -0.2967
 1830Sol     HW10455   3.236   3.249   5.513 -1.2570 -1.0168 -1.8736
 1830Sol     MW10456   3.311   3.238   5.465 -0.5021  0.0568 -0.0626
 1831Sol     OW10457   2.769   1.278   5.287  0.0742 -0.0875 -0.4913
 1831Sol     HW10458   2.845   1.288   5.230  1.0870 -1.2938  0.6231
 1831Sol     HW10459   2.788   1.336   5.362 -0.1215 -0.3581 -0.2322
 1831Sol     MW10460   2.778   1.284   5.289  1.2907  0.7471 -0.3362
 1832Sol     OW10461   1.914   1.573   5.332  0.2286 -0.0419 -0.1246
 1832Sol     HW10462   2.004   1.549   5.311 -0.0561 -0.9812 -0.2696
 1832Sol     HW10463   1.881   1.501   5.385  0.5553  1.7440  2.6229
 1832Sol     MW10464   1.920   1.564   5.335  0.1184 -0.0951  0.5020
 1833Sol     OW10465   2.477   0.970   3.171  0.1737 -0.7598 -0.6119
 1833Sol     HW10466   2.455   1.044   3.228  0.9283  0.3397 -1.7317
 1833Sol     HW10467   2.429   0.986   3.090  0.6295 -1.3074 -0.9949
 1833Sol     MW10468   2.471   0.978   3.169  0.4490  0.1461 -0.3130
 1834Sol     OW10469   2.959   2.726   3.550  0.4247 -0.2386 -0.4958
 1834Sol     HW10470   2.928   2.779   3.623 -0.5426  0.0361 -1.0905
 1834Sol     HW10471   2.941   2.636   3.576 -0.4866 -0.1044 -0.6505
 1834Sol     MW10472   2.955   2.723   3.559 -0.4950 -0.3234  0.2999
 1835Sol     OW10473   1.862   0.014   8.088  0.4238 -0.0209 -0.6770
 1835Sol     HW10474   1.933   0.076   8.068  0.0296  0.8402  0.5548
 1835Sol     HW10475   1.902  -0.049   8.147 -0.5131  1.9899  2.1824
 1835Sol     MW10476   1.872   0.014   8.091  0.5041  0.0307 -0.5469
 1836Sol     OW10477   1.434   0.052   6.626 -0.1208  0.4160  0.6950
 1836Sol     HW10478   1.391   0.114   6.684 -2.7069 -1.2250  0.5679
 1836Sol     HW10479   1.409   0.081   6.538 -1.3773 -0.8129  0.6378
 1836Sol     MW10480   1.428   0.060   6.623  0.0009  0.0372  0.1735
 1837Sol     OW10481   1.869   2.859   7.083 -0.2226 -0.2496 -0.1675
 1837Sol     HW10482   1.893   2.780   7.131 -0.1991  0.9156  1.7806
 1837Sol     HW10483   1.935   2.866   7.014  0.5046 -1.2644  0.4146
 1837Sol     MW10484   1.877   2.853   7.081 -0.2803 -0.2166  0.6100
 1838Sol     OW10485   3.134   2.034   8.319  0.2688 -0.3908 -0.5016
 1838Sol     HW10486   3.099   2.015   8.407  0.0253  1.2967 -0.2231
 1838Sol     HW10487   3.113   1.955   8.268 -1.2352 -0.6398  0.4617
 1838Sol     MW10488   3.129   2.025   8.323 -0.5856 -0.3428  0.2903
 1839Sol     OW10489   3.058   1.762   6.943  0.0565  0.7626 -0.2646
 1839Sol     HW10490   3.008   1.817   6.883 -1.7386  1.8184  2.0963
 1839Sol     HW10491   3.003   1.685   6.956  0.7083  0.2643 -0.4237
 1839Sol     MW10492   3.048   1.760   6.939 -0.3223 -0.6316  0.1423
 1840Sol     OW10493   2.574   0.990   4.616 -0.0841  0.2084 -0.1853
 1840Sol     HW10494   2.621   0.908   4.599  3.4148  1.8850  0.8424
 1840Sol     HW10495   2.587   1.042   4.537 -0.3907  0.5981  0.0189
 1840Sol     MW10496   2.579   0.987   4.608  0.0763  0.0620  0.5173
 1841Sol     OW10497   1.017   0.063   7.735 -0.7375 -0.6296  0.3963
 1841Sol     HW10498   1.008   0.077   7.641 -4.4906  0.4661  0.8119
 1841Sol     HW10499   1.070   0.137   7.766 -3.2561  1.5508 -0.2972
 1841Sol     MW10500   1.021   0.071   7.730 -0.0527 -0.3600 -0.0727
 1842Sol     OW10501   2.693   2.818   9.043  0.3455  0.1780 -0.2200
 1842Sol     HW10502   2.639   2.897   9.050 -0.7743 -0.6703  0.8033
 1842Sol     HW10503   2.672   2.782   8.957 -0.6027 -0.0690  0.1152
 1842Sol     MW10504   2.687   2.822   9.036 -0.2571 -0.1272 -0.1770
 1843Sol     OW10505   3.173   1.508   6.711 -0.5438  0.3995  0.7530
 1843Sol     HW10506   3.132   1.474   6.790 -0.0820  0.9367  1.2273
 1843Sol     HW10507   3.138   1.597   6.702  3.0889  2.1819  3.1049
 1843Sol     MW10508   3.166   1.513   6.717 -0.6989 -0.2728  0.5556
 1844Sol     OW10509   2.632   1.047   9.446  0.4327  0.2591  0.5949
 1844Sol     HW10510   2.648   0.953   9.437 -0.7641 -0.1540  2.5631
 1844Sol     HW10511   2.695   1.075   9.512  1.5819  1.1078 -0.8112
 1844Sol     MW10512   2.639   1.041   9.451  0.0533 -0.8762  0.1650
 1845Sol     OW10513   1.807   0.077   5.876  0.6441 -0.5024  0.2404
 1845Sol     HW10514   1.719   0.076   5.838  0.4778 -1.7876  0.6311
 1845Sol     HW10515   1.850   0.001   5.837  0.7411 -1.3556  1.9989
 1845Sol     MW10516   1.803   0.070   5.869 -0.0513 -0.5452 -0.6610
 1846Sol     OW10517   3.156   2.964   4.781 -0.8898  0.2082  0.9016
 1846Sol     HW10518   3.183   2.970   4.873 -0.3591  0.2347  0.7447
 1846Sol     HW10519   3.184   3.048   4.743  0.6919 -0.5944  0.2478
 1846Sol     MW10520   3.161   2.972   4.786 -0.2337 -0.1624 -0.0951
 1847Sol     OW10521   1.070   3.138   5.926  0.5670 -0.3558 -0.1504
 1847Sol     HW10522   1.042   3.153   6.017  1.5576 -2.6576  0.5837
 1847Sol     HW10523   1.037   3.050   5.906  2.0461 -0.6463 -1.3358
 1847Sol     MW10524   1.065   3.131   5.932  0.5233 -0.4095 -0.2770
 1848Sol     OW10525   1.825   0.788   5.394 -0.0116 -0.3887  0.4870
 1848Sol     HW10526   1.861   0.729   5.327  1.9926  1.8413 -0.4759
 1848Sol     HW10527   1.864   0.758   5.476  2.0124  0.3255 -0.1757
 1848Sol     MW10528   1.832   0.780   5.395 -0.1906  0.0795  0.0156
 1849Sol     OW10529   1.564   2.470   6.163 -0.0908 -0.0987  0.6012
 1849Sol     HW10530   1.637   2.525   6.135 -0.0795 -0.7239 -0.5976
 1849Sol     HW10531   1.597   2.425   6.241  0.8240 -0.4339  0.0283
 1849Sol     MW10532   1.574   2.471   6.168  0.4029 -0.5104 -0.3407
 1850Sol     OW10533   1.045   1.806   6.852 -0.4184  0.4730 -0.0256
 1850Sol     HW10534   1.054   1.901   6.863  0.5214  0.5412 -1.3247
 1850Sol     HW10535   1.122   1.780   6.801 -0.5954 -1.0167  0.4345
 1850Sol     MW10536   1.053   1.812   6.849  0.3905 -0.4011  0.4702
 1851Sol     OW10537   0.446   1.497   2.503  0.6695  1.2602  0.5407
 1851Sol     HW10538   0.350   1.499   2.504  0.5760 -1.8895  1.5504
 1851Sol     HW10539   0.470   1.432   2.569  3.3762 -0.5427 -2.0887
 1851Sol     MW10540   0.439   1.492   2.509 -0.2617  0.1029  0.3459
 1852Sol     OW10541   1.186   0.889   4.604 -0.6055  0.3591  0.1646
 1852Sol     HW10542   1.263   0.884   4.548 -0.0511 -1.1270  1.0227
 1852Sol     HW10543   1.134   0.813   4.580  0.6650 -1.5394  3.0712
 1852Sol     MW10544   1.188   0.882   4.597  0.1437 -0.5814  0.2403
 1853Sol     OW10545   1.295   0.017   9.768 -0.2098  0.2672 -0.1740
 1853Sol     HW10546   1.357   0.077   9.810 -1.0795 -0.0406  1.5735
 1853Sol     HW10547   1.313  -0.068   9.809 -0.4949 -0.2276 -1.0560
 1853Sol     MW10548   1.303   0.014   9.775  0.5948 -0.1532 -0.2154
 1854Sol     OW10549   2.253   1.255   7.606 -0.0114 -0.7625 -0.3753
 1854Sol     HW10550   2.203   1.174   7.592  0.0185 -0.9952  0.8755
 1854Sol     HW10551   2.227   1.285   7.693 -1.4793  1.6003 -1.5535
 1854Sol     MW10552   2.246   1.251   7.612 -0.0910  0.0493 -0.2380
 1855Sol     OW10553   1.359   3.253   4.869  0.4217 -0.1322  0.7952
 1855Sol     HW10554   1.310   3.200   4.932  0.1476 -0.6742  0.1377
 1855Sol     HW10555   1.320   3.340   4.875 -0.3393 -0.4534  0.5897
 1855Sol     MW10556   1.351   3.256   4.876 -0.3658  0.2080 -0.2593
 1856Sol     OW10557   0.909   1.032   4.370  0.0368 -0.0311  0.7527
 1856Sol     HW10558   0.898   0.944   4.406  1.7277 -1.1235 -1.2843
 1856Sol     HW10559   0.827   1.048   4.322  1.4550 -2.4160 -2.6636
 1856Sol     MW10560   0.900   1.025   4.369 -0.1843 -0.1772 -0.2552
 1857Sol     OW10561   1.402   3.199   3.252  0.1852  0.0109  0.1593
 1857Sol     HW10562   1.370   3.189   3.341  0.5193 -0.5179  0.2231
 1857Sol     HW10563   1.409   3.110   3.219  1.6719  0.1191  0.1739
 1857Sol     MW10564   1.399   3.190   3.257  0.5499 -0.3948  0.0861
 1858Sol     OW10565   1.221   1.410  10.103  0.6184  0.2776 -0.1298
 1858Sol     HW10566   1.222   1.356  10.183 -2.0545  0.0257 -0.2219
 1858Sol     HW10567   1.225   1.346  10.032  0.7242  0.3756 -0.2102
 1858Sol     MW10568   1.221   1.399  10.104 -0.0859  0.2606  0.1734
 1859Sol     OW10569   0.946   2.098   8.001 -0.0583  0.9385 -0.2971
 1859Sol     HW10570   0.919   2.070   8.088 -2.8272 -1.1758 -1.7577
 1859Sol     HW10571   0.998   2.025   7.967  0.5337  1.5091 -0.6259
 1859Sol     MW10572   0.948   2.089   8.006 -0.0181  0.0115 -0.2065
 1860Sol     OW10573   1.773   1.330   1.872  0.0721  0.0852  0.1038
 1860Sol     HW10574   1.756   1.409   1.925  3.7145  0.7388  0.4391
 1860Sol     HW10575   1.753   1.257   1.931  0.3149  0.7911  1.0792
 1860Sol     MW10576   1.770   1.331   1.882 -0.3887 -0.1261  0.3295
 1861Sol     OW10577   3.183   1.805   7.846  0.4200 -0.7241 -0.4736
 1861Sol     HW10578   3.190   1.895   7.817  2.3155 -0.9687 -0.8160
 1861Sol     HW10579   3.245   1.798   7.920 -1.8084 -0.9985  1.4366
 1861Sol     MW10580   3.189   1.812   7.850  0.5922  0.1131  0.1321
 1862Sol     OW10581   2.271   2.050   6.083  0.3691 -0.7207 -0.4223
 1862Sol     HW10582   2.212   2.052   6.008  0.1913  1.1420 -0.2604
 1862Sol     HW10583   2.358   2.064   6.046  0.0232  2.8094 -0.0994
 1862Sol     MW10584   2.274   2.051   6.073  0.3223  0.3416  0.2232
 1863Sol     OW10585   2.393   0.617   2.266  0.2178  0.0551 -0.1130
 1863Sol     HW10586   2.484   0.611   2.236 -0.2259 -1.5419 -1.2016
 1863Sol     HW10587   2.399   0.623   2.361  1.4056 -1.5053 -0.0815
 1863Sol     MW10588   2.402   0.617   2.271  0.3408  0.1938  0.0248
 1864Sol     OW10589   3.112   1.176   6.004 -0.4254  0.0116  0.5072
 1864Sol     HW10590   3.167   1.108   6.043 -0.3430 -0.0579  0.2765
 1864Sol     HW10591   3.022   1.145   6.018 -0.4161  0.2718  1.1441
 1864Sol     MW10592   3.109   1.167   6.008 -1.2425  0.3573 -0.0617
 1865Sol     OW10593   1.684   2.640   4.513 -0.1177  0.2510  0.1075
 1865Sol     HW10594   1.725   2.715   4.557  2.8522 -1.3046  0.1283
 1865Sol     HW10595   1.655   2.584   4.585 -1.5670  0.9341  0.0810
 1865Sol     MW10596   1.685   2.642   4.523 -0.1376  0.5244  0.0026
 1866Sol     OW10597   1.596   1.556   9.087  0.7704  0.0099  0.6207
 1866Sol     HW10598   1.602   1.589   9.177 -1.6515 -0.5012  0.9928
 1866Sol     HW10599   1.504   1.566   9.064  0.5584 -3.5353 -0.3677
 1866Sol     MW10600   1.588   1.559   9.093 -0.5079  0.6781  0.3052
 1867Sol     OW10601   1.226   1.355   5.629 -0.1168  0.0242  0.2595
 1867Sol     HW10602   1.228   1.336   5.723 -0.1356  0.2965  0.3136
 1867Sol     HW10603   1.167   1.430   5.621  0.4120  0.4259  0.1065
 1867Sol     MW10604   1.221   1.360   5.637  0.4183  0.4065 -0.1746
 1868Sol     OW10605   1.391   2.925   8.188 -0.1857 -0.1004  0.0824
 1868Sol     HW10606   1.452   2.890   8.123 -2.1444 -2.0107 -0.8072
 1868Sol     HW10607   1.356   3.004   8.147  1.9250  1.2320  0.7619
 1868Sol     MW10608   1.394   2.929   8.178  0.1256  0.2664  0.1718
 1869Sol     OW10609   0.457   0.761   8.618  0.1196  0.5685  0.5954
 1869Sol     HW10610   0.477   0.761   8.712 -1.0955 -2.7942  0.9314
 1869Sol     HW10611   0.532   0.717   8.578 -0.4023 -0.0467  0.2842
 1869Sol     MW10612   0.466   0.757   8.623 -0.7013  0.5459 -0.2321
 1870Sol     OW10613   2.829   2.830   3.789 -0.1352  0.0311 -0.0519
 1870Sol     HW10614   2.827   2.925   3.803 -1.0677  0.0250 -0.1253
 1870Sol     HW10615   2.763   2.795   3.849 -0.4182 -0.4913 -0.6625
 1870Sol     MW10616   2.823   2.835   3.796  0.0766  0.3690 -0.5017
 1871Sol     OW10617   2.810   1.684   8.137  0.1286 -0.0729  0.3256
 1871Sol     HW10618   2.725   1.724   8.119  0.3985  0.7050  0.7942
 1871Sol     HW10619   2.808   1.602   8.087 -0.9466 -0.1233  0.4322
 1871Sol     MW10620   2.802   1.680   8.131 -0.2023 -0.1540  0.4644
 1872Sol     OW10621   0.872   2.747   3.180 -0.2609 -0.3560  0.5059
 1872Sol     HW10622   0.881   2.841   3.167  0.4443 -0.2834  1.4201
 1872Sol     HW10623   0.858   2.737   3.274 -3.1164 -0.9914  0.0430
 1872Sol     MW10624   0.872   2.754   3.187 -0.3556  0.1906 -0.3282
 1873Sol     OW10625   2.274   2.856   6.533  0.3628 -0.1668 -0.3931
 1873Sol     HW10626   2.276   2.952   6.528  0.9577 -0.1701 -0.1999
 1873Sol     HW10627   2.344   2.828   6.474  0.1394 -0.4875 -0.5078
 1873Sol     MW10628   2.280   2.862   6.527  0.3007 -0.1151 -0.0280
 1874Sol     OW10629   2.822   2.042   3.427 -0.6069 -0.5289  0.3354
 1874Sol     HW10630   2.916   2.036   3.409 -0.6125 -0.9965  0.4508
 1874Sol     HW10631   2.813   2.018   3.519 -1.0339 -2.3411 -0.1574
 1874Sol     MW10632   2.830   2.039   3.433 -0.0856 -0.3037  0.1248
 1875Sol     OW10633   0.694   2.124   5.998 -0.0227 -0.1888 -0.4382
 1875Sol     HW10634   0.691   2.066   6.073  0.5928  1.3372  0.8026
 1875Sol     HW10635   0.631   2.193   6.018  0.3555  0.3857 -1.1713
 1875Sol     MW10636   0.688   2.125   6.006  0.0589  0.3117 -0.4477
 1876Sol     OW10637   2.673   2.905   1.842 -0.6038 -0.2481 -0.0847
 1876Sol     HW10638   2.584   2.871   1.841  0.1897 -2.5270  2.0470
 1876Sol     HW10639   2.711   2.871   1.923  2.3111  0.3938 -1.1200
 1876Sol     MW10640   2.668   2.899   1.849  0.7220  0.0828  0.1870
 1877Sol     OW10641   3.147   2.998   5.817 -0.2585 -0.3692  0.1090
 1877Sol     HW10642   3.051   2.991   5.822 -0.3231  0.4057  0.1213
 1877Sol     HW10643   3.178   2.950   5.894 -0.5861 -1.5206 -0.4688
 1877Sol     MW10644   3.141   2.993   5.825 -0.1170  0.3980 -0.4016
 1878Sol     OW10645   2.972   2.790   7.170 -0.1903  0.5796  0.0780
 1878Sol     HW10646   3.022   2.846   7.230  1.5411 -1.1081  0.2533
 1878Sol     HW10647   2.984   2.702   7.205 -1.9799 -0.0464 -0.8332
 1878Sol     MW10648   2.977   2.787   7.179 -0.3627 -0.3643 -0.3375
 1879Sol     OW10649   2.100   3.327   3.669  0.7228 -0.1919  0.4014
 1879Sol     HW10650   2.137   3.395   3.725  1.7698 -1.4488  1.2530
 1879Sol     HW10651   2.093   3.368   3.583 -0.7596  1.7145  1.3986
 1879Sol     MW10652   2.102   3.337   3.666  0.6548  0.3411 -0.2167
 1880Sol     OW10653   3.261   0.988   8.581 -0.0159 -0.3909  0.6234
 1880Sol     HW10654   3.244   0.900   8.613  0.3512 -1.0330 -0.8859
 1880Sol     HW10655   3.356   0.992   8.569  0.0218  0.3588  1.0897
 1880Sol     MW10656   3.268   0.981   8.583  0.5232 -0.3110 -0.0068
 1881Sol     OW10657   0.439   3.404   8.387 -0.3975  0.2128  0.6493
 1881Sol     HW10658   0.521   3.448   8.364 -2.4438  2.1805 -3.1808
 1881Sol     HW10659   0.410   3.447   8.468  1.4294  0.6852  1.0682
 1881Sol     MW10660   0.444   3.411   8.392 -0.2411 -0.1971 -0.2712
 1882Sol     OW10661   2.657   2.065   8.451 -0.1243  0.7066 -0.5718
 1882Sol     HW10662   2.712   2.109   8.386 -1.6990  0.9629 -1.7670
 1882Sol     HW10663   2.572   2.108   8.443 -0.4797  0.4056  1.3382
 1882Sol     MW10664   2.654   2.073   8.444 -0.4599  0.2687 -0.1806
 1883Sol     OW10665   1.179   0.640   2.931  0.5789  0.3410  0.4727
 1883Sol     HW10666   1.245   0.649   2.999  0.3588  1.3941  0.5593
 1883Sol     HW10667   1.184   0.722   2.882  0.2780 -0.1379 -0.3626
 1883Sol     MW10668   1.185   0.648   2.933 -0.0625 -0.1940  0.7850
 1884Sol     OW10669   0.559   2.130   9.523  0.1433  0.3543  1.1862
 1884Sol     HW10670   0.478   2.180   9.530 -0.0834  0.0946  0.5059
 1884Sol     HW10671   0.533   2.039   9.534  0.0155  0.0761 -1.0215
 1884Sol     MW10672   0.550   2.126   9.524 -0.4080 -0.3720 -0.1913
 1885Sol     OW10673   1.053   2.488   6.783  0.5020  0.3763 -0.0235
 1885Sol     HW10674   1.022   2.494   6.873 -0.3154  1.4290 -0.3522
 1885Sol     HW10675   1.074   2.579   6.759  1.2848  0.0224 -0.6853
 1885Sol     MW10676   1.052   2.497   6.789  0.0459 -0.2740 -0.1808
 1886Sol     OW10677   0.459   1.316   7.838 -0.2251 -0.3614  0.1562
 1886Sol     HW10678   0.499   1.386   7.786 -1.2407  1.9873  2.4521
 1886Sol     HW10679   0.368   1.314   7.809 -0.4839  0.0943  0.9167
 1886Sol     MW10680   0.455   1.322   7.831  0.2358  0.1671 -0.0006
 1887Sol     OW10681   0.826   2.623   4.624  0.3572  0.1856  0.2244
 1887Sol     HW10682   0.840   2.682   4.698 -0.6581 -0.6903  1.1277
 1887Sol     HW10683   0.856   2.673   4.548  1.2959  1.1414  1.1979
 1887Sol     MW10684   0.830   2.633   4.624  0.0009 -0.0473 -0.1322
 1888Sol     OW10685   1.140   2.939   8.539 -0.2606  0.0256  0.1104
 1888Sol     HW10686   1.065   2.911   8.592  0.0698  0.3302  0.7369
 1888Sol     HW10687   1.161   2.862   8.485 -1.6912  0.2859 -0.8527
 1888Sol     MW10688   1.135   2.929   8.539 -0.1254 -0.2887  0.4136
 1889Sol     OW10689   3.068   2.832   7.441  0.7758 -0.3448 -0.5236
 1889Sol     HW10690   3.134   2.901   7.445  0.8783 -0.4628 -0.1936
 1889Sol     HW10691   3.102   2.762   7.496 -1.1915  0.9556  2.4727
 1889Sol     MW10692   3.077   2.832   7.446  0.1829  0.3308  0.2134
 1890Sol     OW10693   0.803   2.306   2.273  0.1696  0.4326  0.2551
 1890Sol     HW10694   0.715   2.277   2.297  0.8937 -2.6657 -0.6743
 1890Sol     HW10695   0.862   2.244   2.314  1.8844  1.6271 -0.3242
 1890Sol     MW10696   0.800   2.298   2.279  0.5744  0.2204 -0.4630
 1891Sol     OW10697   0.119   0.727   9.962 -0.4572 -0.1617  0.0597
 1891Sol     HW10698   0.030   0.729   9.928 -0.2921 -0.4488 -0.3844
 1891Sol     HW10699   0.162   0.801   9.920 -0.4865 -0.0158  0.2834
 1891Sol     MW10700   0.115   0.734   9.955  0.3345  0.6413  0.1432
 1892Sol     OW10701   1.314   1.976   7.891  0.0724 -0.8632  0.6344
 1892Sol     HW10702   1.224   1.943   7.896  0.1890 -1.0365  1.7408
 1892Sol     HW10703   1.358   1.917   7.830 -0.9319  0.1180 -1.0861
 1892Sol     MW10704   1.310   1.968   7.886  0.2451 -0.4299  0.8917
 1893Sol     OW10705   2.605   2.497   1.756 -0.1685 -0.7312  0.2612
 1893Sol     HW10706   2.576   2.518   1.844 -0.3925  2.7672 -0.5925
 1893Sol     HW10707   2.697   2.473   1.766  0.1733  0.9548  1.2924
 1893Sol     MW10708   2.611   2.497   1.764  0.3608 -0.1540  0.5608
 1894Sol     OW10709   0.997   3.132  10.049  0.0304 -0.1133  0.1314
 1894Sol     HW10710   1.032   3.051  10.012 -2.9151 -2.2387  1.7788
 1894Sol     HW10711   0.920   3.152   9.995 -2.1686 -1.2362  2.7501
 1894Sol     MW10712   0.993   3.127  10.041 -0.1208 -0.1524 -0.3081
 1895Sol     OW10713   2.409   3.375   5.605 -0.1655  0.4096 -0.2918
 1895Sol     HW10714   2.504   3.367   5.604 -0.1487  0.6297 -0.9352
 1895Sol     HW10715   2.379   3.302   5.660  0.3825  0.4687  0.0883
 1895Sol     MW10716   2.415   3.368   5.610 -0.5765  0.1579 -0.2167
 1896Sol     OW10717   0.027   2.448   8.724  0.0855  0.3137  0.1104
 1896Sol     HW10718  -0.048   2.400   8.688 -0.4837  1.4254 -0.2084
 1896Sol     HW10719   0.093   2.444   8.655 -0.7868  1.9207 -0.8447
 1896Sol     MW10720   0.026   2.443   8.714 -0.8294 -0.1014  0.3217
 1897Sol     OW10721   0.398   1.888   8.570  0.0647 -0.2480  0.4563
 1897Sol     HW10722   0.336   1.958   8.589 -1.8430 -1.2651 -1.7658
 1897Sol     HW10723   0.474   1.933   8.533 -1.2085  0.6880 -1.1007
 1897Sol     MW10724   0.399   1.898   8.568 -0.5952 -0.3672  0.7262
 1898Sol     OW10725   2.269   2.844   4.969 -0.1058 -0.0440 -0.1593
 1898Sol     HW10726   2.246   2.811   4.882  1.0229  0.0962 -0.5265
 1898Sol     HW10727   2.273   2.765   5.024  0.4047 -0.2764 -0.5235
 1898Sol     MW10728   2.267   2.834   4.966 -0.5583 -0.6860 -0.1721
 1899Sol     OW10729   1.794   2.531   3.051  0.2431  0.4460  0.6213
 1899Sol     HW10730   1.866   2.559   3.108  0.3546  1.4245  0.0136
 1899Sol     HW10731   1.729   2.495   3.111  1.1450 -0.2524  1.1959
 1899Sol     MW10732   1.795   2.531   3.062 -0.1599  0.2133 -0.0442
 1900Sol     OW10733   0.762   0.909   2.646 -0.2370  0.6976 -0.6467
 1900Sol     HW10734   0.840   0.859   2.622 -0.1638  0.1892  0.5950
 1900Sol     HW10735   0.689   0.849   2.627 -0.1376  0.0136  1.0367
 1900Sol     MW10736   0.762   0.899   2.642 -0.0121 -0.3432 -0.0076
 1901Sol     OW10737   1.676   1.772   2.900 -0.0787  0.0786  0.7696
 1901Sol     HW10738   1.609   1.704   2.901  0.1898 -0.2034  2.8148
 1901Sol     HW10739   1.650   1.831   2.830 -0.6148 -1.8373 -0.6861
 1901Sol     MW10740   1.668   1.771   2.894  0.0587  0.6907 -0.0021
 1902Sol     OW10741   1.470   0.368   3.466 -0.6075 -0.5393 -0.3001
 1902Sol     HW10742   1.427   0.385   3.550 -0.4590 -1.3825 -0.0500
 1902Sol     HW10743   1.511   0.451   3.442 -2.8872  0.4761 -0.8458
 1902Sol     MW10744   1.470   0.377   3.471 -0.2247 -0.1207  0.1112
 1903Sol     OW10745   3.064   1.962   3.932 -0.2754  0.0433  0.4496
 1903Sol     HW10746   3.051   1.938   3.841 -0.0730 -1.7391  0.8847
 1903Sol     HW10747   2.995   2.026   3.950 -1.4698 -0.9992 -0.4148
 1903Sol     MW10748   3.057   1.966   3.926  0.4358  0.0635  0.4204
 1904Sol     OW10749   0.853   2.491   8.048  0.7555  0.0285  0.0566
 1904Sol     HW10750   0.888   2.570   8.089  0.9470 -0.0859  0.1120
 1904Sol     HW10751   0.786   2.461   8.110  2.0219 -0.9415  0.9806
 1904Sol     MW10752   0.850   2.496   8.057 -0.1791 -0.1770  0.2487
 1905Sol     OW10753   3.153   3.166   6.343  0.0137 -0.4102  0.3890
 1905Sol     HW10754   3.072   3.139   6.300  1.3348  1.1619 -3.3899
 1905Sol     HW10755   3.146   3.262   6.349  0.2323 -0.5360  3.0308
 1905Sol     MW10756   3.145   3.172   6.339 -0.5466 -0.0584  0.0115
 1906Sol     OW10757   1.684   0.954   8.725  0.2628 -0.4768 -0.3792
 1906Sol     HW10758   1.672   1.042   8.760 -1.4492  0.4834 -3.2260
 1906Sol     HW10759   1.765   0.923   8.765  0.2379  1.8760  1.6159
 1906Sol     MW10760   1.690   0.959   8.732  0.6827  0.1454 -0.0783
 1907Sol     OW10761   1.024   1.918   3.109 -0.6733 -0.1936 -0.2813
 1907Sol     HW10762   0.963   1.874   3.050 -0.2702 -1.3425  0.1363
 1907Sol     HW10763   1.110   1.904   3.069 -0.3174 -1.6255  0.9509
 1907Sol     MW10764   1.026   1.913   3.100 -0.1434 -0.3334  0.1534
 1908Sol     OW10765   2.048   2.817   8.581  0.3998  0.3849 -0.0658
 1908Sol     HW10766   2.081   2.888   8.526 -0.9004  0.5464 -0.6355
 1908Sol     HW10767   1.974   2.855   8.627  1.6523  0.3560  2.0682
 1908Sol     MW10768   2.045   2.827   8.581 -0.5160  0.4974 -0.0611
 1909Sol     OW10769   1.667   0.138   8.286 -0.1710 -0.2045  0.5213
 1909Sol     HW10770   1.721   0.217   8.289 -2.0746  1.1386  0.1773
 1909Sol     HW10771   1.700   0.089   8.210  0.5121  0.6276  0.2733
 1909Sol     MW10772   1.675   0.141   8.279  0.6971 -0.2547 -0.4123
 1910Sol     OW10773   2.888   1.386   5.519 -0.2370  0.2632  0.0547
 1910Sol     HW10774   2.873   1.351   5.607  1.0269  0.1021  0.2215
 1910Sol     HW10775   2.931   1.471   5.533 -0.2881  0.3687 -0.3994
 1910Sol     MW10776   2.890   1.391   5.528  0.0175  0.4165  0.4951
 1911Sol     OW10777   1.594   0.444   5.415 -0.4623  0.6604  0.0081
 1911Sol     HW10778   1.591   0.424   5.322 -0.5684  2.0902 -0.3111
 1911Sol     HW10779   1.687   0.458   5.434 -0.4999  0.9651 -0.0223
 1911Sol     MW10780   1.602   0.444   5.409  0.3575 -0.1517  0.4183
 1912Sol     OW10781   1.179   1.641   3.119  0.4069 -0.3948 -0.1868
 1912Sol     HW10782   1.232   1.668   3.044 -2.4369 -1.2660 -2.6265
 1912Sol     HW10783   1.196   1.547   3.128 -0.0461 -0.5106 -0.4696
 1912Sol     MW10784   1.185   1.635   3.113  0.1447 -0.2139 -0.0750
 1913Sol     OW10785   0.824   1.636   6.821  0.3486  0.0610  0.0653
 1913Sol     HW10786   0.857   1.558   6.778 -0.2139 -0.2287  0.1566
 1913Sol     HW10787   0.891   1.702   6.806  0.0759  0.0252 -1.4326
 1913Sol     MW10788   0.833   1.635   6.816 -0.0358 -0.1922  0.7563
 1914Sol     OW10789   2.746   2.122   8.691 -0.1971 -0.5031 -0.2159
 1914Sol     HW10790   2.700   2.125   8.607  0.2382 -0.0733 -0.4443
 1914Sol     HW10791   2.700   2.056   8.742  1.1704 -2.7462 -1.7612
 1914Sol     MW10792   2.738   2.116   8.688  0.4218 -0.1396  0.0589
 1915Sol     OW10793   2.384   2.393   1.615  0.1208  0.4947  0.1888
 1915Sol     HW10794   2.412   2.306   1.644  0.8303  0.5087 -0.4477
 1915Sol     HW10795   2.464   2.435   1.583  0.1422  2.0773  2.1971
 1915Sol     MW10796   2.394   2.389   1.615  0.2242  0.2159 -0.5724
 1916Sol     OW10797   2.581   1.671   7.241 -0.2933 -0.3060  0.5967
 1916Sol     HW10798   2.618   1.583   7.254 -0.2687 -0.4324 -0.2415
 1916Sol     HW10799   2.522   1.660   7.166 -1.1693  0.1420  1.2248
 1916Sol     MW10800   2.579   1.662   7.235 -0.4579 -0.5976 -0.4639
 1917Sol     OW10801   2.439   2.454   3.524 -0.4434 -0.2424 -0.0541
 1917Sol     HW10802   2.391   2.470   3.605 -0.5561  0.4930 -0.2612
 1917Sol     HW10803   2.524   2.495   3.538 -0.3467 -0.3981 -0.1874
 1917Sol     MW10804   2.442   2.459   3.532 -0.2968 -0.6905 -0.0211
 1918Sol     OW10805   0.621   2.180   2.783  0.0583  0.5062  0.1806
 1918Sol     HW10806   0.714   2.202   2.778  0.1296 -0.2125 -2.6802
 1918Sol     HW10807   0.579   2.259   2.819  1.5135  1.6251 -0.5290
 1918Sol     MW10808   0.626   2.189   2.786 -0.5953  0.3070 -0.2552
 1919Sol     OW10809   0.623   0.815   6.531  0.3256  0.2356 -0.0351
 1919Sol     HW10810   0.689   0.858   6.476 -0.8399  0.2330 -1.4754
 1919Sol     HW10811   0.602   0.734   6.484 -0.5889  0.1572  0.4931
 1919Sol     MW10812   0.627   0.811   6.522  0.2924 -0.2292  0.0810
 1920Sol     OW10813   1.359   0.119   3.795  0.6370 -0.0418  0.8561
 1920Sol     HW10814   1.322   0.096   3.881 -1.4175 -1.2704 -0.3056
 1920Sol     HW10815   1.391   0.037   3.760 -2.4693 -0.3840 -1.3469
 1920Sol     MW10816   1.358   0.110   3.800 -0.7523 -0.0256 -0.0570
 1921Sol     OW10817   1.578   2.230   8.061 -1.0910  0.7117 -0.1215
 1921Sol     HW10818   1.495   2.236   8.014 -1.6476  2.3744  1.0326
 1921Sol     HW10819   1.638   2.284   8.009 -0.8958  0.0120 -0.6221
 1921Sol     MW10820   1.576   2.236   8.052  0.0474  0.6509 -0.3294
 1922Sol     OW10821   2.227   1.900   8.985 -0.2007 -0.1795 -0.4006
 1922Sol     HW10822   2.225   1.907   8.889  1.4168  0.5203 -0.3856
 1922Sol     HW10823   2.159   1.961   9.014 -0.1300  0.2264 -1.0719
 1922Sol     MW10824   2.220   1.906   8.979  0.9731 -0.1306 -0.2687
 1923Sol     OW10825   0.323   1.083   3.593 -0.1582  0.1360  0.8981
 1923Sol     HW10826   0.383   1.143   3.638 -0.7574  0.1208  1.7142
 1923Sol     HW10827   0.381   1.023   3.545  0.4543  0.8820  0.6985
 1923Sol     MW10828   0.334   1.083   3.593  0.0898  0.8813  1.0804
 1924Sol     OW10829   2.459   1.559   4.366  0.2933 -0.1228 -0.3393
 1924Sol     HW10830   2.532   1.612   4.398  0.9498  0.3123 -2.4888
 1924Sol     HW10831   2.475   1.550   4.272 -1.2281 -1.9115 -0.4606
 1924Sol     MW10832   2.467   1.563   4.360  0.0353  0.2687 -0.4058
 1925Sol     OW10833   1.470   3.367   9.555 -0.1831  0.3712  0.4742
 1925Sol     HW10834   1.408   3.307   9.512  0.2667  1.5106 -1.8654
 1925Sol     HW10835   1.417   3.416   9.617 -1.7176  1.4084 -1.5789
 1925Sol     MW10836   1.460   3.366   9.556 -0.3209 -0.2781  0.0243
 1926Sol     OW10837   1.792   3.332   9.243 -0.2510 -0.3092 -0.5860
 1926Sol     HW10838   1.833   3.340   9.329 -1.5657 -2.1829  0.2552
 1926Sol     HW10839   1.782   3.238   9.230 -0.4786 -0.0317 -2.6021
 1926Sol     MW10840   1.795   3.324   9.249 -0.1385 -0.0861  0.3776
 1927Sol     OW10841   3.195   0.669   7.460 -0.2323 -0.4191 -0.8222
 1927Sol     HW10842   3.129   0.601   7.447 -0.3932 -0.3586 -0.3479
 1927Sol     HW10843   3.279   0.625   7.443 -0.1867 -1.2959  1.5318
 1927Sol     MW10844   3.197   0.659   7.457  0.0572  0.3183  0.5161
 1928Sol     OW10845   0.803   1.590   5.865 -0.6361  0.1014  0.5616
 1928Sol     HW10846   0.744   1.662   5.845 -0.6602 -0.0717  0.0018
 1928Sol     HW10847   0.746   1.515   5.879 -0.7332  0.5769  2.9651
 1928Sol     MW10848   0.793   1.590   5.864 -0.5705  0.1096 -0.2510
 1929Sol     OW10849   0.670   1.862   8.100 -0.3930  0.0636  0.8478
 1929Sol     HW10850   0.587   1.825   8.130 -0.8809 -0.6891 -1.3222
 1929Sol     HW10851   0.652   1.955   8.088 -1.1086 -0.1983 -0.1821
 1929Sol     MW10852   0.661   1.867   8.102 -0.2517  0.1177 -0.0434
 1930Sol     OW10853   3.232   1.338   5.222 -0.0710 -0.6238  0.7239
 1930Sol     HW10854   3.284   1.267   5.259 -1.6081 -1.0961  2.0327
 1930Sol     HW10855   3.155   1.295   5.184 -0.5758  0.2516  0.7240
 1930Sol     MW10856   3.230   1.328   5.222 -0.0005  0.1873 -0.6174
 1931Sol     OW10857   0.705   3.159   1.644 -0.3912  0.3594 -0.3927
 1931Sol     HW10858   0.634   3.186   1.701 -1.0078  0.3625 -1.1532
 1931Sol     HW10859   0.703   3.063   1.646  1.9008  0.2893  2.4359
 1931Sol     MW10860   0.699   3.153   1.649  0.2886  0.2707 -0.1059
 1932Sol     OW10861   3.155   3.006   6.780 -0.2775 -0.6273  0.2991
 1932Sol     HW10862   3.087   3.055   6.825 -0.6648 -0.7139 -0.1876
 1932Sol     HW10863   3.176   2.934   6.839  0.5850  0.3462  1.1948
 1932Sol     MW10864   3.151   3.004   6.789 -0.7798 -0.0294 -0.0336
 1933Sol     OW10865   3.299   2.536   8.096 -0.3983 -0.1756  0.1386
 1933Sol     HW10866   3.355   2.477   8.146  0.3278 -0.0363 -0.4941
 1933Sol     HW10867   3.310   2.621   8.138  1.7444  0.3642 -1.4115
 1933Sol     MW10868   3.305   2.539   8.104 -0.3286  0.2341 -0.1200
 1934Sol     OW10869   3.203   0.208   7.208  0.0729  0.3253 -0.0817
 1934Sol     HW10870   3.192   0.217   7.302  0.5492 -0.4943  0.0566
 1934Sol     HW10871   3.226   0.116   7.195  0.7077  0.5960 -0.9246
 1934Sol     MW10872   3.205   0.201   7.215  0.5031 -0.4412  0.2153
 1935Sol     OW10873   1.739   1.373   6.164 -0.3530  0.4458  0.2635
 1935Sol     HW10874   1.711   1.347   6.076 -1.0568 -0.6866  0.8142
 1935Sol     HW10875   1.790   1.299   6.196 -3.1100 -0.7120  2.1813
 1935Sol     MW10876   1.741   1.364   6.159  0.4882 -0.6359  0.1628
 1936Sol     OW10877   1.361   2.898   6.055  0.8807 -0.1741  0.1167
 1936Sol     HW10878   1.349   2.993   6.057  0.7059 -0.2153  1.3330
 1936Sol     HW10879   1.445   2.884   6.099 -0.1306 -0.7383  1.8999
 1936Sol     MW10880   1.368   2.905   6.059  0.0212  0.6188  0.2197
 1937Sol     OW10881   3.008   3.324   2.570  0.4353  0.9420 -0.0326
 1937Sol     HW10882   3.009   3.231   2.550 -0.4277  0.8747  0.2356
 1937Sol     HW10883   2.967   3.365   2.494 -0.4039  0.9617  0.4262
 1937Sol     MW10884   3.005   3.320   2.561  0.1003  0.2524 -0.0369
 1938Sol     OW10885   0.945   1.715   1.472 -0.8164 -0.1473  0.0285
 1938Sol     HW10886   1.016   1.770   1.505 -3.6066  3.2068  0.7512
 1938Sol     HW10887   0.982   1.627   1.471  2.0232  0.7892  4.4113
 1938Sol     MW10888   0.955   1.712   1.475 -0.0734 -0.1097 -0.4257
 1939Sol     OW10889   1.689   1.912   7.634 -0.9981  0.2625 -0.1181
 1939Sol     HW10890   1.736   1.996   7.635 -1.6507  0.6243  1.1620
 1939Sol     HW10891   1.751   1.850   7.673 -0.3360  0.0417 -1.4992
 1939Sol     MW10892   1.699   1.914   7.638 -0.0105  0.0962  0.5508
 1940Sol     OW10893   1.328   1.123   3.630  0.1757  0.0058  0.4697
 1940Sol     HW10894   1.415   1.162   3.620 -1.1115  2.0718 -4.0802
 1940Sol     HW10895   1.297   1.154   3.716  2.5317  2.1484  0.5910
 1940Sol     MW10896   1.333   1.129   3.637 -0.1063 -0.4632 -0.1414
 1941Sol     OW10897   1.615   2.884   9.160  0.0764 -0.5431  0.5284
 1941Sol     HW10898   1.520   2.899   9.158  0.0553 -0.6422  0.8556
 1941Sol     HW10899   1.624   2.789   9.157  0.1486 -0.5582  1.2644
 1941Sol     MW10900   1.607   2.877   9.159  0.4158  0.1831  0.5080
 1942Sol     OW10901   1.646   1.194   2.279  0.1377 -0.4556  0.5695
 1942Sol     HW10902   1.558   1.181   2.315  0.0105 -0.6441  0.1967
 1942Sol     HW10903   1.705   1.174   2.351 -0.0767 -2.0192  0.3203
 1942Sol     MW10904   1.643   1.191   2.288  0.5854  0.0146 -0.4799
 1943Sol     OW10905   0.417   0.111   2.681  0.1311  0.7099 -0.4561
 1943Sol     HW10906   0.423   0.121   2.586  1.1244 -1.4404 -0.6483
 1943Sol     HW10907   0.333   0.068   2.696  0.4746  0.0440 -0.4464
 1943Sol     MW10908   0.410   0.108   2.674  0.1130 -0.0653  0.4273
 1944Sol     OW10909   1.320   3.449   3.201 -0.8860  0.2256  0.0376
 1944Sol     HW10910   1.349   3.361   3.225 -2.6451 -0.7869 -1.4891
 1944Sol     HW10911   1.371   3.507   3.258  1.0400 -1.7099  0.3583
 1944Sol     MW10912   1.328   3.447   3.208  0.2785 -0.1766  0.4227
 1945Sol     OW10913   0.785   0.095   8.700  0.4209 -0.1236  0.0828
 1945Sol     HW10914   0.765   0.182   8.736 -0.7932 -0.9008  1.3534
 1945Sol     HW10915   0.709   0.041   8.724  1.0011 -1.4534 -0.9901
 1945Sol     MW10916   0.776   0.098   8.705  0.5519 -0.5192  0.1842
 1946Sol     OW10917   2.212   1.874   8.708 -0.4355 -0.6607 -0.0114
 1946Sol     HW10918   2.142   1.813   8.684  1.0925 -2.5225  0.1356
 1946Sol     HW10919   2.293   1.826   8.691  0.8386  1.7053 -0.8144
 1946Sol     MW10920   2.213   1.864   8.705 -0.8907 -0.2241 -0.2885
 1947Sol     OW10921   2.410   2.062   4.761 -0.2374  0.3906  0.6428
 1947Sol     HW10922   2.322   2.058   4.723  0.4376 -0.3487 -0.9271
 1947Sol     HW10923   2.434   1.970   4.774  0.1888  0.6025  1.3407
 1947Sol     MW10924   2.404   2.053   4.758  0.1211  0.0557  0.7873
 1948Sol     OW10925   2.947   1.961   9.474 -0.0741  0.2379 -0.2564
 1948Sol     HW10926   2.855   1.987   9.479 -0.1822  0.2633 -1.9740
 1948Sol     HW10927   2.995   2.043   9.461  0.3571  0.3910  2.1022
 1948Sol     MW10928   2.943   1.970   9.473  0.0634  0.3904 -0.5064
 1949Sol     OW10929   1.506   3.100   6.436 -0.2816  0.1309  0.2234
 1949Sol     HW10930   1.499   3.161   6.509 -1.1471 -0.9652  1.0793
 1949Sol     HW10931   1.430   3.042   6.445 -0.5367  0.1365 -1.7009
 1949Sol     MW10932   1.499   3.100   6.444 -0.5458  0.3837 -0.0669
 1950Sol     OW10933   1.928   1.920   7.998 -0.2410 -0.2280  0.5414
 1950Sol     HW10934   1.982   1.973   7.938 -1.4833  0.7584  0.2844
 1950Sol     HW10935   1.862   1.980   8.031 -1.4969 -1.5432  0.4834
 1950Sol     MW10936   1.927   1.930   7.995 -0.3366 -0.0625  0.5429
 1951Sol     OW10937   0.921   1.317   4.496 -0.3842 -0.4350 -0.4429
 1951Sol     HW10938   0.912   1.252   4.426  0.2245 -2.0545  0.9177
 1951Sol     HW10939   0.902   1.401   4.455  0.5650 -1.2806 -2.6888
 1951Sol     MW10940   0.919   1.318   4.486 -0.2933 -0.3400  0.0384
 1952Sol     OW10941   3.185   0.833   7.942 -0.3113  0.5480  0.3501
 1952Sol     HW10942   3.093   0.855   7.932 -1.6943 -3.4704  2.8533
 1952Sol     HW10943   3.207   0.781   7.865  0.3245  2.6357 -0.9237
 1952Sol     MW10944   3.179   0.830   7.934  0.2048  0.6820  0.1737
 1953Sol     OW10945   2.470   0.357   2.819  0.0696  0.1948 -0.2528
 1953Sol     HW10946   2.428   0.357   2.733 -2.1327 -0.8473  0.7852
 1953Sol     HW10947   2.533   0.285   2.815 -1.6200 -1.3130 -0.2622
 1953Sol     MW10948   2.472   0.351   2.811 -0.4176  0.1808 -0.0257
 1954Sol     OW10949   0.395   1.443   6.193  0.1479 -0.0159  0.8883
 1954Sol     HW10950   0.354   1.516   6.147 -1.6734 -1.6134 -0.1109
 1954Sol     HW10951   0.420   1.479   6.278  1.1897  2.2972 -0.3408
 1954Sol     MW10952   0.394   1.453   6.197 -0.5844  0.4339  0.2209
 1955Sol     OW10953   1.724   0.416   6.844  0.3043  1.2560 -0.2327
 1955Sol     HW10954   1.696   0.495   6.798 -1.3718  1.2950  0.7923
 1955Sol     HW10955   1.691   0.344   6.791  0.4639  1.2689 -0.3490
 1955Sol     MW10956   1.718   0.417   6.835 -0.0861  0.0161 -0.0776
 1956Sol     OW10957   1.493   0.975   7.654 -0.0959  0.1330 -0.7798
 1956Sol     HW10958   1.486   0.895   7.602  0.0385  0.1580 -0.8377
 1956Sol     HW10959   1.407   0.985   7.696 -0.1486  0.0198 -0.8616
 1956Sol     MW10960   1.485   0.969   7.653  0.5852  0.3195 -0.4537
 1957Sol     OW10961   3.064   2.490   4.175  0.4868 -0.2164 -0.2769
 1957Sol     HW10962   3.070   2.419   4.111  0.2706 -0.0208 -0.5144
 1957Sol     HW10963   3.043   2.567   4.123  3.7198  0.6254 -0.4177
 1957Sol     MW10964   3.063   2.490   4.165 -0.4023  0.6356 -0.1210
 1958Sol     OW10965   0.163   1.036   5.554 -0.0559 -0.2410 -0.1304
 1958Sol     HW10966   0.240   1.056   5.607  0.8685  1.4579 -2.0436
 1958Sol     HW10967   0.116   0.969   5.603  2.7276 -1.4069  0.9962
 1958Sol     MW10968   0.165   1.032   5.563  0.0527  0.1362  0.4099
 1959Sol     OW10969   1.735   3.292   7.921  0.4637  0.3093  0.0237
 1959Sol     HW10970   1.803   3.259   7.861  0.8571 -0.9191  1.1088
 1959Sol     HW10971   1.781   3.352   7.979  0.1859  1.1043 -0.5731
 1959Sol     MW10972   1.745   3.294   7.921  0.3282 -0.3427 -0.0601
 1960Sol     OW10973   2.492   0.783   5.622  0.1469  0.5018 -0.1058
 1960Sol     HW10974   2.571   0.830   5.596 -0.8640  2.0438 -0.5150
 1960Sol     HW10975   2.424   0.851   5.624 -1.0493 -0.6974  0.7372
 1960Sol     MW10976   2.493   0.793   5.620  0.6819  0.3794 -0.2333
 1961Sol     OW10977   1.838   2.891   5.197 -0.1814 -0.5547 -0.3312
 1961Sol     HW10978   1.925   2.928   5.206 -0.5198 -0.1305  1.3732
 1961Sol     HW10979   1.791   2.919   5.276 -0.6915 -3.8985  0.6525
 1961Sol     MW10980   1.841   2.897   5.205  0.2270 -0.1991  0.0441
 1962Sol     OW10981   1.705   1.155   7.574 -0.4469 -0.5278  0.1050
 1962Sol     HW10982   1.745   1.133   7.489 -1.4273 -0.5644 -0.3506
 1962Sol     HW10983   1.631   1.095   7.581 -1.1351  0.3633  0.4003
 1962Sol     MW10984   1.702   1.147   7.567  0.1671  0.5306 -0.1491
 1963Sol     OW10985   2.235   0.327   3.744  0.3994 -0.3594  0.8238
 1963Sol     HW10986   2.222   0.239   3.779 -0.1278 -0.8004 -0.4612
 1963Sol     HW10987   2.330   0.335   3.733  0.2416 -1.9212 -1.9583
 1963Sol     MW10988   2.242   0.320   3.747  0.3524 -0.4338  0.0120
 1964Sol     OW10989   0.836   2.044   5.204  0.2768  0.4879  0.3498
 1964Sol     HW10990   0.746   2.077   5.198  0.0606 -0.0784  0.4977
 1964Sol     HW10991   0.890   2.120   5.183 -0.2332  0.8621  0.3730
 1964Sol     MW10992   0.833   2.054   5.202 -0.4278  0.5890  0.0731
 1965Sol     OW10993   0.197   2.558   5.236 -0.3306  0.3917  0.1066
 1965Sol     HW10994   0.179   2.651   5.226 -0.6996  0.3615  0.4542
 1965Sol     HW10995   0.218   2.548   5.329  1.4256  0.4128 -0.2796
 1965Sol     MW10996   0.197   2.565   5.244  0.1870 -0.3268  0.1616
 1966Sol     OW10997   2.265   3.018   1.900 -0.1914 -0.1448  0.5791
 1966Sol     HW10998   2.261   3.009   1.804  2.0497 -0.8639  0.5208
 1966Sol     HW10999   2.333   2.956   1.927  0.0129  0.8852  2.5150
 1966Sol     MW11000   2.271   3.012   1.893  0.2538  0.1890  0.1711
 1967Sol     OW11001   2.074   1.147   5.530 -0.0951  0.3248  0.2730
 1967Sol     HW11002   2.071   1.052   5.542 -0.0141  0.4267  1.1385
 1967Sol     HW11003   2.032   1.161   5.445  2.3954 -0.7007 -1.1655
 1967Sol     MW11004   2.070   1.139   5.524  0.1171 -0.3484 -0.1084
 1968Sol     OW11005   0.141   0.132   4.719  0.1282  0.6826 -0.3637
 1968Sol     HW11006   0.075   0.199   4.701 -0.6424  0.1665  0.4575
 1968Sol     HW11007   0.090   0.057   4.751  1.2188  0.8693  1.9423
 1968Sol     MW11008   0.130   0.132   4.720 -0.1205 -0.0098 -0.2618
 1969Sol     OW11009   0.901   1.426   5.237  0.1455  0.3789  0.5663
 1969Sol     HW11010   0.810   1.401   5.222  0.6370 -1.1481 -0.0634
 1969Sol     HW11011   0.897   1.505   5.290 -1.5601  0.9284 -0.3476
 1969Sol     MW11012   0.892   1.431   5.240 -0.0276  0.1272 -0.4700
 1970Sol     OW11013   0.069   0.865   9.546  0.0033  0.2025  0.0053
 1970Sol     HW11014   0.007   0.934   9.566 -0.5387  0.2047 -1.6602
 1970Sol     HW11015   0.019   0.784   9.555 -0.0714  0.1696 -0.7163
 1970Sol     MW11016   0.059   0.863   9.549 -0.1690  0.5288  0.3393
 1971Sol     OW11017   2.503   1.410   3.309 -0.4599 -0.0403  0.1475
 1971Sol     HW11018   2.560   1.412   3.232  0.6053 -0.6164  0.9126
 1971Sol     HW11019   2.528   1.487   3.360 -2.2863  1.2600 -0.8532
 1971Sol     MW11020   2.510   1.417   3.306 -0.2753  0.2391  0.3339
 1972Sol     OW11021   2.189   0.183   6.740  0.7031 -0.2972 -0.3932
 1972Sol     HW11022   2.259   0.210   6.680  0.9171  0.1388  0.0561
 1972Sol     HW11023   2.150   0.264   6.770  1.3047 -0.4811  0.9142
 1972Sol     MW11024   2.192   0.192   6.737 -0.3608  0.2384  0.2337
 1973Sol     OW11025   0.095   1.556   6.641  0.0637 -0.1398  0.0983
 1973Sol     HW11026   0.013   1.536   6.687 -1.2757  0.4471 -1.9128
 1973Sol     HW11027   0.115   1.476   6.592 -0.1839  0.2425 -0.6390
 1973Sol     MW11028   0.089   1.547   6.640 -0.5335 -0.0702  0.2728
 1974Sol     OW11029   0.851   2.451   2.563 -0.3406  0.0942 -0.0915
 1974Sol     HW11030   0.861   2.426   2.471  0.0705 -0.8799  0.2213
 1974Sol     HW11031   0.854   2.369   2.611 -2.2234  0.4476  0.6649
 1974Sol     MW11032   0.852   2.442   2.559  0.1920  0.4337 -0.3204
 1975Sol     OW11033   1.625   0.412   6.432 -0.5056 -0.0978 -0.2214
 1975Sol     HW11034   1.571   0.421   6.353 -0.2651  0.1097 -0.3633
 1975Sol     HW11035   1.653   0.501   6.452  4.2428 -0.7152 -3.2880
 1975Sol     MW11036   1.623   0.421   6.426 -0.7559  0.0232 -0.4057
 1976Sol     OW11037   0.369   2.035   7.121 -0.2221 -0.3000  0.4811
 1976Sol     HW11038   0.422   2.007   7.195  0.5210 -0.9129 -0.2671
 1976Sol     HW11039   0.378   2.131   7.118 -0.6811 -0.2257  1.4874
 1976Sol     MW11040   0.374   2.041   7.127  0.6199 -0.1127  0.1828
 1977Sol     OW11041   1.705   0.075   4.721 -0.1849  0.0950 -0.4517
 1977Sol     HW11042   1.692   0.169   4.734 -1.4166  0.0600 -1.3407
 1977Sol     HW11043   1.649   0.053   4.647 -1.7735 -1.8195  1.2631
 1977Sol     MW11044   1.699   0.081   4.715  0.1883 -0.2489  0.3114
 1978Sol     OW11045   2.772   0.418   4.507  0.0461 -0.2582  0.3562
 1978Sol     HW11046   2.683   0.432   4.539  0.0903 -0.2302  0.4680
 1978Sol     HW11047   2.771   0.451   4.417  0.3737  1.2698  0.9012
 1978Sol     MW11048   2.764   0.422   4.502  0.4235  0.3328 -0.1401
 1979Sol     OW11049   0.134   3.128   2.803  0.1394  0.0915  0.1519
 1979Sol     HW11050   0.075   3.200   2.784  0.5032  0.2180 -0.5442
 1979Sol     HW11051   0.222   3.166   2.796  0.3206 -0.2841  0.3335
 1979Sol     MW11052   0.137   3.137   2.800  0.0494  0.4740  0.4581
 1980Sol     OW11053   3.143   2.215   8.962 -0.3860  0.3211 -0.2771
 1980Sol     HW11054   3.082   2.216   9.036  0.4617 -1.3843  0.4869
 1980Sol     HW11055   3.090   2.242   8.887 -1.6168  0.6857  0.6944
 1980Sol     MW11056   3.133   2.217   8.962  0.4369  0.5543 -0.2874
 1981Sol     OW11057   3.297   1.481   4.804  0.4483  0.2522 -0.2163
 1981Sol     HW11058   3.305   1.576   4.804 -2.2407  0.5034  0.7361
 1981Sol     HW11059   3.234   1.461   4.873  0.4843 -2.1875 -0.8216
 1981Sol     MW11060   3.292   1.487   4.810  0.2501 -0.6677  0.1765
 1982Sol     OW11061   2.422   1.854   6.746  0.1287  0.0777 -0.0689
 1982Sol     HW11062   2.333   1.873   6.716  0.1826  0.6601  0.1333
 1982Sol     HW11063   2.454   1.787   6.686 -0.9079 -1.0776  0.6454
 1982Sol     MW11064   2.417   1.850   6.738 -0.2222  0.0516  0.2453
 1983Sol     OW11065   3.090   1.407   2.901 -0.3172  0.5027 -0.1131
 1983Sol     HW11066   3.111   1.500   2.915 -0.5101  0.5730 -0.2839
 1983Sol     HW11067   3.062   1.376   2.987 -1.6199  0.9647 -0.3456
 1983Sol     MW11068   3.089   1.413   2.910  0.1534  0.6898  0.3174
 1984Sol     OW11069   2.026   2.600   3.197  0.1910  0.1189 -0.6868
 1984Sol     HW11070   2.055   2.569   3.110  2.1489  0.6138 -0.2470
 1984Sol     HW11071   2.092   2.565   3.257 -1.7654 -1.1807  0.7791
 1984Sol     MW11072   2.035   2.594   3.194 -0.2342 -0.8420  0.5821
 1985Sol     OW11073   0.809   2.285   3.369  0.0279  0.3382 -0.1808
 1985Sol     HW11074   0.818   2.190   3.355  0.7779  0.3943 -0.1289
 1985Sol     HW11075   0.762   2.292   3.452 -1.6013  0.0125 -1.0699
 1985Sol     MW11076   0.806   2.277   3.375  0.1915 -0.3367 -0.1418
 1986Sol     OW11077   0.215   3.407   5.476 -0.2807 -0.5020  0.4237
 1986Sol     HW11078   0.221   3.413   5.381 -0.4117  1.7345  0.5345
 1986Sol     HW11079   0.137   3.353   5.491 -0.3750 -0.7027 -0.7403
 1986Sol     MW11080   0.208   3.403   5.469  0.3307  0.2948 -0.0123
 1987Sol     OW11081   1.476   2.305   2.757 -0.1899  0.0764 -0.0990
 1987Sol     HW11082   1.441   2.317   2.845  0.9232 -0.1188  0.3709
 1987Sol     HW11083   1.559   2.352   2.757 -0.6816  0.9609 -1.3693
 1987Sol     MW11084   1.480   2.310   2.765 -0.1947 -0.7440 -0.5420
 1988Sol     OW11085   0.205   1.077   8.508 -0.3135 -0.1314 -0.1111
 1988Sol     HW11086   0.213   1.172   8.519 -2.2231  0.1078 -0.5693
 1988Sol     HW11087   0.293   1.047   8.487  0.5954  1.3473  1.5110
 1988Sol     MW11088   0.213   1.083   8.507  0.5106 -0.1574  0.2606
 1989Sol     OW11089   1.544   2.301   5.960  0.5788  0.7827 -0.4073
 1989Sol     HW11090   1.562   2.383   6.007 -2.0992 -0.1015  2.3064
 1989Sol     HW11091   1.514   2.241   6.028 -0.9750 -1.3335 -2.9084
 1989Sol     MW11092   1.543   2.303   5.970 -0.3341 -0.0409  0.5274
 1990Sol     OW11093   1.439   2.302   1.614 -0.3949 -0.4978 -0.2845
 1990Sol     HW11094   1.379   2.283   1.686 -0.7881 -0.6667 -0.6550
 1990Sol     HW11095   1.520   2.258   1.638 -1.1914 -2.3989 -0.9712
 1990Sol     MW11096   1.441   2.297   1.623 -0.4389  0.3705  0.1349
 1991Sol     OW11097   1.860   1.218   5.739 -0.1334  0.5089  0.2677
 1991Sol     HW11098   1.934   1.243   5.795 -2.3587  0.7931  3.1927
 1991Sol     HW11099   1.891   1.235   5.650  4.1965 -1.7104  1.1983
 1991Sol     MW11100   1.869   1.222   5.736 -0.3042 -0.0699 -0.3314
 1992Sol     OW11101   1.675   1.979   8.406 -0.1731  0.0250 -0.2338
 1992Sol     HW11102   1.610   1.921   8.447 -0.9749  0.5213 -0.8103
 1992Sol     HW11103   1.750   1.975   8.466  0.0308 -2.1179 -0.5787
 1992Sol     MW11104   1.676   1.973   8.415  0.1055 -0.4893 -0.1538
 1993Sol     OW11105   1.455   2.979   8.827 -0.0141 -0.0747  0.1223
 1993Sol     HW11106   1.446   2.886   8.851 -1.2635  0.0708  0.2308
 1993Sol     HW11107   1.542   3.003   8.859  0.0043 -1.0019  0.7960
 1993Sol     MW11108   1.462   2.972   8.832  0.0179  0.0817  0.1627
 1994Sol     OW11109   1.659   1.381   8.429 -0.0521 -0.2429  0.0750
 1994Sol     HW11110   1.644   1.443   8.358 -0.1676 -0.5558 -0.1762
 1994Sol     HW11111   1.572   1.346   8.449  0.3623 -2.4310 -1.7168
 1994Sol     MW11112   1.650   1.383   8.425  0.5879 -0.1649  0.7391
 1995Sol     OW11113   2.753   0.095   5.318  0.0293  0.0201  0.4356
 1995Sol     HW11114   2.663   0.090   5.286  0.9091  0.3265 -2.2705
 1995Sol     HW11115   2.778   0.186   5.304  0.6902 -0.0170  1.3655
 1995Sol     MW11116   2.747   0.103   5.314  0.3927  0.2229 -0.6579
 1996Sol     OW11117   1.659   1.241   9.497 -0.1337  0.1430  0.2588
 1996Sol     HW11118   1.580   1.234   9.552 -0.5012  1.2633 -0.1088
 1996Sol     HW11119   1.731   1.247   9.560 -0.3153 -0.9866  0.5990
 1996Sol     MW11120   1.658   1.241   9.508  0.1386 -0.2442 -0.0895
 1997Sol     OW11121   0.486   0.283   2.037  0.5735 -0.1483 -0.0749
 1997Sol     HW11122   0.570   0.244   2.061  0.1101 -2.1089 -1.4817
 1997Sol     HW11123   0.504   0.337   1.961  0.7326  0.1501  0.1775
 1997Sol     MW11124   0.495   0.284   2.033  0.2758 -0.5750 -0.3653
 1998Sol     OW11125   0.594   1.924   2.913 -0.6092 -0.2457 -0.1974
 1998Sol     HW11126   0.599   2.011   2.873 -2.1804 -0.2862 -0.5154
 1998Sol     HW11127   0.527   1.878   2.863 -0.4370 -1.3394  0.5493
 1998Sol     MW11128   0.589   1.928   2.905  0.2866  0.5964  0.3440
 1999Sol     OW11129   1.124   2.935   8.888 -0.4838  0.2267 -0.2919
 1999Sol     HW11130   1.138   2.951   8.794 -0.1199 -3.0559 -0.8314
 1999Sol     HW11131   1.212   2.919   8.923 -0.6531  1.1552  0.5915
 1999Sol     MW11132   1.133   2.935   8.883  0.3848  0.0794  0.3922
 2000Sol     OW11133   2.739   2.359   4.668  0.0720  0.0394  0.0454
 2000Sol     HW11134   2.832   2.335   4.662  0.4668  1.5499  0.0418
 2000Sol     HW11135   2.698   2.309   4.597  0.7748 -1.1074  0.4278
 2000Sol     MW11136   2.744   2.352   4.661 -0.7450  0.1052 -0.2830
 2001Sol     OW11137   0.044   1.579   3.423 -0.3810 -0.4365 -0.0231
 2001Sol     HW11138   0.045   1.515   3.352  1.0782  0.3252 -0.7027
 2001Sol     HW11139   0.134   1.581   3.456 -0.5977  0.6690  0.5389
 2001Sol     MW11140   0.052   1.573   3.420  0.0140  0.3622  0.1882
 2002Sol     OW11141   2.386   1.338   7.997  0.0616  0.2471 -0.0167
 2002Sol     HW11142   2.463   1.334   7.939 -0.1930 -0.2692 -0.3280
 2002Sol     HW11143   2.422   1.351   8.084  0.4906  0.2837 -0.1982
 2002Sol     MW11144   2.396   1.339   7.999 -0.3853  0.2820  0.0827
 2003Sol     OW11145   1.021   0.415   4.226  0.3816 -0.2425  0.6154
 2003Sol     HW11146   1.112   0.425   4.199 -0.0223  0.5716 -0.5084
 2003Sol     HW11147   1.002   0.322   4.213  0.7827 -0.2328 -0.0695
 2003Sol     MW11148   1.027   0.408   4.222 -0.1667 -0.0238  0.5515
 2004Sol     OW11149   2.623   3.331   9.363 -0.3237 -0.0160 -0.2628
 2004Sol     HW11150   2.596   3.351   9.453 -1.8253 -0.2348 -0.6634
 2004Sol     HW11151   2.689   3.262   9.373 -0.5201 -0.0770  0.6751
 2004Sol     MW11152   2.627   3.326   9.372  0.2397  0.0043 -0.0582
 2005Sol     OW11153   0.655   0.350   2.404  0.5361 -0.1245  0.4156
 2005Sol     HW11154   0.748   0.345   2.379 -0.0559  2.2980 -2.6458
 2005Sol     HW11155   0.656   0.370   2.497  3.1427  1.0976  0.1697
 2005Sol     MW11156   0.664   0.351   2.410 -0.5113  0.6309 -0.0957
 2006Sol     OW11157   0.506   1.081   2.355 -0.4010  0.3339 -0.0621
 2006Sol     HW11158   0.468   1.107   2.272  0.1184  0.4554 -0.2627
 2006Sol     HW11159   0.496   0.986   2.358 -1.1467  0.4152  0.1013
 2006Sol     MW11160   0.501   1.075   2.348  0.3046  0.7020 -1.2335
 2007Sol     OW11161   2.882   3.301   3.027 -0.5729  0.5929 -0.3101
 2007Sol     HW11162   2.896   3.354   3.105  0.5613 -0.6594  0.3542
 2007Sol     HW11163   2.826   3.230   3.056  0.9652 -0.6369 -0.2848
 2007Sol     MW11164   2.879   3.300   3.037 -0.5874  0.2955 -0.1238
 2008Sol     OW11165   2.457   2.472   8.908 -0.1448  0.1275  0.4460
 2008Sol     HW11166   2.543   2.489   8.947  1.0067 -2.9156 -0.6246
 2008Sol     HW11167   2.474   2.467   8.814 -2.0442  2.4156 -0.0763
 2008Sol     MW11168   2.466   2.473   8.903  0.1869  0.5163  0.3090
 2009Sol     OW11169   3.199   0.764   5.867  0.1867  0.3618  0.2302
 2009Sol     HW11170   3.238   0.687   5.908 -0.4168 -0.8157 -1.3557
 2009Sol     HW11171   3.108   0.740   5.854  0.0675  1.2424 -0.5640
 2009Sol     MW11172   3.195   0.755   5.870  0.3193  0.1203 -0.5641
 2010Sol     OW11173   3.174   2.808   6.976 -0.2181  0.5064 -0.6274
 2010Sol     HW11174   3.111   2.843   7.040 -1.6781 -1.4262 -0.9496
 2010Sol     HW11175   3.152   2.715   6.971  1.4442  0.1894 -2.1995
 2010Sol     MW11176   3.166   2.803   6.982  0.2471  0.1137 -0.2054
 2011Sol     OW11177   3.210   2.995   8.727 -0.5542 -0.1127 -0.3536
 2011Sol     HW11178   3.277   3.008   8.795 -1.9472 -0.5686  1.1519
 2011Sol     HW11179   3.211   2.900   8.711  2.2765  0.3875 -3.6520
 2011Sol     MW11180   3.216   2.987   8.732 -0.0565 -0.3267  0.0489
 2012Sol     OW11181   0.434   3.434   3.024  0.1206 -0.2777  0.5820
 2012Sol     HW11182   0.521   3.436   2.982 -0.1011 -1.4195  0.0602
 2012Sol     HW11183   0.391   3.513   2.991  0.6224 -0.1975  0.0922
 2012Sol     MW11184   0.438   3.442   3.017 -0.7180  0.1375  0.0522
 2013Sol     OW11185   1.363   1.325   9.209  0.0598 -0.0951 -0.6818
 2013Sol     HW11186   1.433   1.269   9.175  0.7445  1.4385 -1.8847
 2013Sol     HW11187   1.309   1.344   9.132  1.8821  3.8131 -1.1633
 2013Sol     MW11188   1.365   1.322   9.199 -0.2879 -0.1792 -0.0002
 2014Sol     OW11189   2.554   3.434   9.628  0.3389  0.4186  0.2514
 2014Sol     HW11190   2.493   3.373   9.669  0.0921  0.9042  0.6128
 2014Sol     HW11191   2.640   3.403   9.656  0.1495  1.1314  1.7017
 2014Sol     MW11192   2.556   3.425   9.635 -0.4801 -0.1281 -0.5865
 2015Sol     OW11193   0.039   0.578   9.263  0.3795 -0.1230 -0.4219
 2015Sol     HW11194   0.032   0.603   9.355 -0.7291  1.9341 -1.0214
 2015Sol     HW11195  -0.013   0.644   9.217 -1.9785 -3.1049 -2.2208
 2015Sol     MW11196   0.033   0.586   9.267 -0.2241  0.9375 -0.0800
 2016Sol     OW11197   3.306   1.358   8.569 -0.5717 -0.1395 -0.2569
 2016Sol     HW11198   3.293   1.450   8.591  0.1611  0.3018 -1.6668
 2016Sol     HW11199   3.395   1.339   8.598 -0.3998 -0.1653 -0.8116
 2016Sol     MW11200   3.313   1.365   8.574  0.4182 -0.3376  0.1250
 2017Sol     OW11201   0.189   1.180   7.411 -0.0014 -0.0752  0.6986
 2017Sol     HW11202   0.284   1.170   7.407  0.4114  2.6181  2.5255
 2017Sol     HW11203   0.161   1.114   7.475  0.3065 -2.4269 -1.5086
 2017Sol     MW11204   0.195   1.173   7.416 -0.9530 -0.1905  0.4492
 2018Sol     OW11205   1.247   1.833   9.003 -0.4620 -0.7821 -0.1929
 2018Sol     HW11206   1.312   1.891   8.963  0.8102 -3.1393 -1.6654
 2018Sol     HW11207   1.268   1.834   9.096  0.4538 -0.0086 -0.4061
 2018Sol     MW11208   1.255   1.838   9.008  0.1263 -0.0333 -0.1235
 2019Sol     OW11209   2.541   0.354   7.416  0.4406  0.0892  0.4669
 2019Sol     HW11210   2.603   0.355   7.489 -0.1805 -1.1322  1.0135
 2019Sol     HW11211   2.466   0.304   7.448 -0.2892  0.4506 -0.6414
 2019Sol     MW11212   2.540   0.350   7.426  0.5110  0.6097  0.5879
 2020Sol     OW11213   2.562   2.477   4.832  0.6861  0.3463  0.1467
 2020Sol     HW11214   2.644   2.447   4.793  1.1112  1.0226  0.5055
 2020Sol     HW11215   2.524   2.399   4.872 -0.5666 -0.7110 -3.0168
 2020Sol     MW11216   2.566   2.468   4.832  0.0275  0.1407  0.2369
 2021Sol     OW11217   0.287   3.279   3.694 -0.5009 -0.0348 -0.6242
 2021Sol     HW11218   0.304   3.188   3.721 -0.1926 -0.2726 -1.6226
 2021Sol     HW11219   0.204   3.301   3.736 -0.8808 -0.9840 -0.8708
 2021Sol     MW11220   0.281   3.273   3.701  0.2759  0.4976 -0.1193
 2022Sol     OW11221   1.918   3.163   1.725 -0.0650  0.3588 -0.2527
 2022Sol     HW11222   1.893   3.138   1.635  0.6696  0.3384 -0.4560
 2022Sol     HW11223   1.992   3.222   1.713 -1.6786  2.5348  0.2321
 2022Sol     MW11224   1.923   3.166   1.715 -0.3417 -0.0827  0.0186
 2023Sol     OW11225   1.416   1.634   2.937 -0.4388  0.0067  0.6757
 2023Sol     HW11226   1.375   1.583   2.867  1.4215 -0.9209  0.2391
 2023Sol     HW11227   1.463   1.569   2.990  1.2320  1.1388  0.6195
 2023Sol     MW11228   1.416   1.624   2.936 -0.0652 -0.3216 -0.3308
 2024Sol     OW11229   0.182   2.710   2.526  0.3578 -0.0732 -0.4710
 2024Sol     HW11230   0.141   2.741   2.607  0.0583 -1.3008 -0.1336
 2024Sol     HW11231   0.244   2.643   2.556 -0.6390 -1.4158 -1.3359
 2024Sol     MW11232   0.184   2.707   2.536 -0.2272  0.4109  0.2401
 2025Sol     OW11233   2.096   1.800   9.415  0.2551  0.0070 -0.2931
 2025Sol     HW11234   2.139   1.749   9.346 -2.7868 -1.4351 -1.2045
 2025Sol     HW11235   2.056   1.874   9.369 -0.5024 -0.1409  0.1178
 2025Sol     MW11236   2.096   1.802   9.404  0.6464 -0.0469 -0.3684
 2026Sol     OW11237   1.305   2.606   4.623  0.1731  0.7760 -0.1985
 2026Sol     HW11238   1.287   2.678   4.563 -0.2205  0.5964 -0.2989
 2026Sol     HW11239   1.219   2.569   4.642  0.2961  0.8210  0.4635
 2026Sol     MW11240   1.296   2.609   4.620  0.8320  0.1981  0.1236
 2027Sol     OW11241   1.354   2.881   5.197 -0.5630  0.1444 -0.5054
 2027Sol     HW11242   1.424   2.890   5.132  0.6922 -0.7904  0.6747
 2027Sol     HW11243   1.388   2.923   5.275 -2.0933  1.3121 -0.4541
 2027Sol     MW11244   1.363   2.885   5.198  0.7863 -0.6173 -0.0414
 2028Sol     OW11245   0.672   2.943   4.428 -0.0742 -0.6978 -0.2433
 2028Sol     HW11246   0.625   2.959   4.510 -1.5922 -2.5889 -0.7064
 2028Sol     HW11247   0.699   3.030   4.399 -0.7187  0.1345  1.5560
 2028Sol     MW11248   0.670   2.953   4.433  0.2725  0.2627 -0.8024
 2029Sol     OW11249   2.708   1.229   3.753 -0.0888 -0.1496  0.3958
 2029Sol     HW11250   2.671   1.203   3.668 -0.9062 -0.8055  0.9406
 2029Sol     HW11251   2.802   1.221   3.741 -0.1906 -0.0972 -0.5017
 2029Sol     MW11252   2.713   1.226   3.744  0.1857  0.2529 -0.5251
 2030Sol     OW11253   0.231   1.044   4.381  0.4557  0.3536 -0.6578
 2030Sol     HW11254   0.222   1.139   4.392 -0.2823  0.1715  0.4220
 2030Sol     HW11255   0.323   1.026   4.402 -0.0062  0.5173  1.6737
 2030Sol     MW11256   0.238   1.051   4.384  0.1740  0.6360  0.1965
 2031Sol     OW11257   2.004   0.308   2.422 -0.3691 -0.1135  0.0007
 2031Sol     HW11258   2.048   0.390   2.396  0.9189 -0.5703  0.6588
 2031Sol     HW11259   2.009   0.308   2.518  3.9919 -3.2254 -0.0819
 2031Sol     MW11260   2.009   0.316   2.428  0.0582  0.2028 -0.9027
 2032Sol     OW11261   1.843   0.730   2.147 -1.0269 -0.1815 -0.3823
 2032Sol     HW11262   1.805   0.782   2.219 -1.1671 -1.7744  0.7263
 2032Sol     HW11263   1.796   0.647   2.151  2.1846 -2.0342  0.6948
 2032Sol     MW11264   1.835   0.727   2.154 -0.1619 -0.1688 -0.1406
 2033Sol     OW11265   0.150   3.179   8.127 -0.2836 -0.3637  0.5292
 2033Sol     HW11266   0.078   3.125   8.160  1.4573 -2.7326  0.5978
 2033Sol     HW11267   0.227   3.147   8.175  0.5729  3.2709  1.6945
 2033Sol     MW11268   0.151   3.171   8.134 -0.0677 -0.2115  0.4112
 2034Sol     OW11269   2.141   1.010   7.359  0.2345 -0.0822 -0.1254
 2034Sol     HW11270   2.214   0.956   7.330 -0.9233  0.0296 -3.3552
 2034Sol     HW11271   2.167   1.100   7.338  0.4361  0.2920  1.5776
 2034Sol     MW11272   2.150   1.013   7.355 -0.2224 -0.4394 -0.4162
 2035Sol     OW11273   3.309   0.994   2.290  1.0691 -0.2467 -0.3226
 2035Sol     HW11274   3.248   0.954   2.228  0.5323  0.8111 -0.4769
 2035Sol     HW11275   3.396   0.972   2.257  0.7823 -0.2443 -1.0736
 2035Sol     MW11276   3.311   0.988   2.282 -0.3201  0.0780  0.4433
 2036Sol     OW11277   3.032   1.228   3.124  0.4807  0.1718  0.5559
 2036Sol     HW11278   3.112   1.175   3.116  1.8779  1.7274  3.2987
 2036Sol     HW11279   2.997   1.205   3.209 -1.0273  0.8160  0.1159
 2036Sol     MW11280   3.036   1.221   3.131  0.8321  0.4471  0.7087
 2037Sol     OW11281   0.455   2.255   3.932  0.1382 -0.1185 -0.3336
 2037Sol     HW11282   0.498   2.209   3.861 -1.3922 -1.5524 -0.3697
 2037Sol     HW11283   0.465   2.198   4.008 -1.9864 -0.6801 -0.4362
 2037Sol     MW11284   0.460   2.246   3.933  0.0892  0.2686  0.1588
 2038Sol     OW11285   1.799   0.671   5.138  0.2523  0.3382 -0.2454
 2038Sol     HW11286   1.813   0.588   5.183  0.2905  1.4865  1.9194
 2038Sol     HW11287   1.705   0.672   5.119 -0.0337  0.4968  1.1539
 2038Sol     MW11288   1.792   0.664   5.140  0.2482 -0.6442 -0.2079
 2039Sol     OW11289   0.272   0.791   7.269  0.0032 -0.4845 -0.3536
 2039Sol     HW11290   0.363   0.790   7.237  0.0437 -1.0100 -0.2194
 2039Sol     HW11291   0.228   0.724   7.217  0.0123 -1.1771  0.5333
 2039Sol     MW11292   0.276   0.785   7.261  0.1626  0.1165  0.0961
 2040Sol     OW11293   2.262   0.447   4.239  0.0159 -0.2514 -0.5760
 2040Sol     HW11294   2.275   0.541   4.229 -0.2818 -0.1046  0.3661
 2040Sol     HW11295   2.242   0.416   4.151  0.8363  0.4508 -1.0170
 2040Sol     MW11296   2.261   0.453   4.230 -0.5023  0.4205 -0.7429
 2041Sol     OW11297   2.867   2.307   2.624 -0.3236 -0.3716 -0.2878
 2041Sol     HW11298   2.954   2.307   2.665 -0.6384  2.1931  0.4558
 2041Sol     HW11299   2.818   2.240   2.671  1.6395 -2.8183 -1.6232
 2041Sol     MW11300   2.871   2.301   2.632  0.3181 -0.0959  0.3329
 2042Sol     OW11301   1.493   1.008   9.262 -0.0117 -0.2788 -0.8226
 2042Sol     HW11302   1.413   1.033   9.309  2.3031  1.0387  2.6430
 2042Sol     HW11303   1.470   0.926   9.218 -2.4489 -1.5686  2.5758
 2042Sol     MW11304   1.484   1.003   9.263 -0.5381  0.1580 -0.5721
 2043Sol     OW11305   0.296   1.461   8.840  0.3211  0.2737  0.5641
 2043Sol     HW11306   0.349   1.434   8.914 -2.6566 -2.9721  1.6453
 2043Sol     HW11307   0.209   1.478   8.877 -0.6657  0.7483 -1.8428
 2043Sol     MW11308   0.293   1.460   8.850  0.1041  0.5703 -0.5503
 2044Sol     OW11309   1.733   0.637   4.763  0.2213  0.2794  0.1893
 2044Sol     HW11310   1.700   0.693   4.692  0.8954  0.7572  0.2470
 2044Sol     HW11311   1.671   0.652   4.835 -0.0136  0.3959 -0.0327
 2044Sol     MW11312   1.724   0.644   4.763  0.5298 -0.1381 -0.4352
 2045Sol     OW11313   2.967   1.888   8.939  0.7625 -0.3148  0.0125
 2045Sol     HW11314   2.918   1.832   8.999  0.0696  0.1324 -0.1271
 2045Sol     HW11315   3.032   1.931   8.995 -2.2653  2.9367  1.2263
 2045Sol     MW11316   2.968   1.887   8.949  0.2809 -0.5113  0.1699
 2046Sol     OW11317   2.135   0.163   9.580 -0.2002 -0.4157  0.2079
 2046Sol     HW11318   2.063   0.185   9.521 -0.5845  0.0149  0.8355
 2046Sol     HW11319   2.093   0.150   9.665  0.2193 -2.0222  0.1821
 2046Sol     MW11320   2.125   0.164   9.583  0.2545 -0.2636 -0.0203
 2047Sol     OW11321   0.710   2.544   3.739 -0.5046 -0.5913 -0.1825
 2047Sol     HW11322   0.626   2.538   3.784 -0.7590 -1.6678 -0.7779
 2047Sol     HW11323   0.713   2.634   3.706 -1.2164 -0.4080  0.2317
 2047Sol     MW11324   0.703   2.552   3.740 -0.1862  0.1459 -0.3494
 2048Sol     OW11325   0.197   2.096   2.796 -0.2056 -0.0201  0.1219
 2048Sol     HW11326   0.216   2.048   2.715 -1.0809 -0.3923  0.1305
 2048Sol     HW11327   0.144   2.035   2.848  0.8840 -0.0272  1.2446
 2048Sol     MW11328   0.194   2.086   2.793  0.1439  1.0400 -0.3460
 2049Sol     OW11329   0.225   3.123   4.223  0.3021 -0.5745  0.3727
 2049Sol     HW11330   0.157   3.185   4.196 -0.5064 -0.7635  1.8974
 2049Sol     HW11331   0.216   3.050   4.161 -0.6467 -0.4253  0.3171
 2049Sol     MW11332   0.218   3.122   4.215 -0.2305  0.0404 -0.9933
 2050Sol     OW11333   0.006   1.638   8.377 -0.1741 -0.5058  0.0934
 2050Sol     HW11334   0.089   1.610   8.415  0.8048  2.1799  0.0621
 2050Sol     HW11335  -0.060   1.617   8.443  0.7515 -1.1988  0.8017
 2050Sol     MW11336   0.008   1.634   8.386  0.6508  0.1491 -0.2601
 2051Sol     OW11337   0.030   2.824   8.089 -0.0720 -0.0403 -0.7503
 2051Sol     HW11338  -0.032   2.888   8.122  0.9105  0.9057 -0.7154
 2051Sol     HW11339   0.050   2.852   8.000  0.3866 -0.2732 -0.7260
 2051Sol     MW11340   0.027   2.832   8.084  0.1826  0.1564  0.1256
 2052Sol     OW11341   2.486   3.135   2.792 -0.0932 -0.3517 -0.3303
 2052Sol     HW11342   2.499   3.068   2.858 -1.6370  0.3021  0.6786
 2052Sol     HW11343   2.395   3.163   2.804  0.2275  1.2295 -1.3655
 2052Sol     MW11344   2.479   3.132   2.799  0.2126 -0.4202  0.4698
 2053Sol     OW11345   0.906   2.453   9.261 -0.1297 -0.2771  0.1546
 2053Sol     HW11346   0.958   2.374   9.242  0.0229 -0.4587  1.3050
 2053Sol     HW11347   0.835   2.422   9.318 -1.8453 -0.1385 -1.8318
 2053Sol     MW11348   0.904   2.443   9.264  0.1807 -0.0895 -0.2754
 2054Sol     OW11349   2.035   1.601   7.969 -0.0215 -0.0779  0.6208
 2054Sol     HW11350   2.097   1.541   7.929  0.4384  0.3467  0.6937
 2054Sol     HW11351   1.996   1.552   8.041 -0.5863 -0.7243 -0.1198
 2054Sol     MW11352   2.037   1.591   7.972 -0.3499  0.1062 -0.2822
 2055Sol     OW11353   1.349   0.395   3.709 -0.1094 -0.0318  0.4139
 2055Sol     HW11354   1.255   0.401   3.693 -0.1018  0.2415  0.4669
 2055Sol     HW11355   1.361   0.307   3.746 -0.2804 -0.2396 -0.0158
 2055Sol     MW11356   1.341   0.387   3.711  0.0467  0.0909 -0.5845
 2056Sol     OW11357   0.607   1.770   3.767 -0.3347  0.2949 -0.5460
 2056Sol     HW11358   0.592   1.864   3.757  1.1322  0.6262  0.1845
 2056Sol     HW11359   0.524   1.736   3.799 -0.4202  1.5871  0.6485
 2056Sol     MW11360   0.598   1.775   3.769 -0.5052  0.3181 -0.2402
 2057Sol     OW11361   1.796   1.009   8.305  0.1622  0.5993 -0.2928
 2057Sol     HW11362   1.708   1.005   8.344  0.9009 -1.1714  1.2770
 2057Sol     HW11363   1.834   1.089   8.340  0.4864 -0.5207  2.0183
 2057Sol     MW11364   1.792   1.016   8.312  0.0488 -0.3817  0.3080
 2058Sol     OW11365   0.687   2.371   9.430 -0.3277  0.0433 -0.1844
 2058Sol     HW11366   0.602   2.397   9.396 -0.0739  0.7778 -0.2593
 2058Sol     HW11367   0.676   2.278   9.454 -1.5753  0.5189  1.1660
 2058Sol     MW11368   0.678   2.365   9.429  0.6006  0.1159 -0.1000
 2059Sol     OW11369   0.903   1.191   8.401  0.1443 -0.1259  0.0292
 2059Sol     HW11370   0.859   1.112   8.432 -2.1929  1.0565 -0.1055
 2059Sol     HW11371   0.916   1.244   8.479  2.1399 -0.7993  0.1896
 2059Sol     MW11372   0.900   1.188   8.411  0.7341  0.7900 -0.2228
 2060Sol     OW11373   1.196   1.507   3.750  0.2089 -0.0765  0.0430
 2060Sol     HW11374   1.226   1.568   3.817 -1.7388 -1.1002  1.9123
 2060Sol     HW11375   1.163   1.563   3.680  0.1210  1.0097  0.9404
 2060Sol     MW11376   1.196   1.517   3.749  0.2376  0.0819 -0.0412
 2061Sol     OW11377   2.591   2.206   6.780 -0.7759 -0.3794  0.1945
 2061Sol     HW11378   2.640   2.132   6.746  1.6275  0.6727  1.2792
 2061Sol     HW11379   2.634   2.283   6.742 -1.6642  0.5771  1.0761
 2061Sol     MW11380   2.599   2.207   6.773  0.5425 -0.2858 -0.1718
 2062Sol     OW11381   3.041   0.980   7.042 -0.5797 -0.9517 -0.1200
 2062Sol     HW11382   3.046   0.938   7.129  0.0674 -0.9895 -0.1722
 2062Sol     HW11383   3.106   1.051   7.046 -1.2823 -0.3035 -0.2214
 2062Sol     MW11384   3.048   0.982   7.051  0.2711 -0.3392 -0.2606
 2063Sol     OW11385   0.847   3.345   2.505 -0.3336 -0.3464  0.7156
 2063Sol     HW11386   0.885   3.265   2.541  0.6313  1.1235  3.1121
 2063Sol     HW11387   0.767   3.359   2.556 -0.3111  0.4113  0.5510
 2063Sol     MW11388   0.843   3.339   2.513 -0.5744  0.0398  0.1784
 2064Sol     OW11389   1.202   2.772   8.321 -0.6580 -0.2618 -0.4338
 2064Sol     HW11390   1.282   2.812   8.285 -0.5753  0.7974  0.8915
 2064Sol     HW11391   1.161   2.730   8.246  0.8144 -0.2571 -1.2730
 2064Sol     MW11392   1.206   2.772   8.312  0.2870  0.0095  0.4226
 2065Sol     OW11393   1.782   2.134   6.387  0.3526  0.8280 -0.3837
 2065Sol     HW11394   1.715   2.195   6.418  1.0045  0.5149  1.7575
 2065Sol     HW11395   1.750   2.104   6.302 -1.8937  1.1907  0.3038
 2065Sol     MW11396   1.773   2.137   6.382  0.3392  0.1610  0.2013
 2066Sol     OW11397   1.906   2.849   6.178 -0.4606  0.3616  0.0573
 2066Sol     HW11398   1.966   2.825   6.248 -0.3784  0.2472 -0.0524
 2066Sol     HW11399   1.850   2.916   6.216  0.1807  0.9635 -0.0402
 2066Sol     MW11400   1.907   2.853   6.188 -0.3908  0.3128 -0.0312
 2067Sol     OW11401   0.957   2.961   7.779 -0.5579  0.4304 -0.5733
 2067Sol     HW11402   0.989   2.982   7.866 -0.0771  0.1455 -0.6800
 2067Sol     HW11403   0.865   2.989   7.780 -0.7489 -0.2032  0.2516
 2067Sol     MW11404   0.952   2.965   7.787  0.0813  0.3969 -0.3785
 2068Sol     OW11405   2.445   0.267   6.583  0.5271 -0.4058 -0.0662
 2068Sol     HW11406   2.522   0.232   6.627  0.9295  2.5681  1.7628
 2068Sol     HW11407   2.476   0.346   6.539 -1.0512 -0.2870 -1.0097
 2068Sol     MW11408   2.454   0.271   6.583  0.0864 -0.1772 -0.0781
 2069Sol     OW11409   2.154   2.014   4.712  0.0356 -0.4113 -0.0737
 2069Sol     HW11410   2.088   2.056   4.656 -0.0891 -0.4270  0.0618
 2069Sol     HW11411   2.120   1.926   4.728  0.6260 -0.7965 -0.9097
 2069Sol     MW11412   2.145   2.010   4.708 -0.3559 -0.0468 -0.2348
 2070Sol     OW11413   0.160   1.139   8.829 -0.7910  0.1121 -0.1164
 2070Sol     HW11414   0.123   1.055   8.805  0.5606 -0.8972  1.2174
 2070Sol     HW11415   0.229   1.155   8.765  1.0664 -1.3299  1.4751
 2070Sol     MW11416   0.163   1.133   8.821  0.0803 -0.2677 -0.0603
 2071Sol     OW11417   2.647   1.388   7.018 -0.6925  0.0889  0.4249
 2071Sol     HW11418   2.562   1.357   7.051 -1.2811  1.1001 -0.1088
 2071Sol     HW11419   2.710   1.324   7.051 -1.7582 -1.1432  0.1554
 2071Sol     MW11420   2.645   1.379   7.024 -0.5299 -0.1740  0.2852
 2072Sol     OW11421   1.311   3.217   7.686 -0.1953  0.6822  0.4773
 2072Sol     HW11422   1.344   3.164   7.614 -1.8488 -1.3472  1.1378
 2072Sol     HW11423   1.217   3.227   7.668 -0.5954  0.3145  2.1850
 2072Sol     MW11424   1.305   3.213   7.678 -0.4501  0.2148  0.0809
 2073Sol     OW11425   2.773   2.234   8.256 -0.5511  0.2122 -0.2108
 2073Sol     HW11426   2.693   2.269   8.218 -0.6779 -1.8141 -1.9234
 2073Sol     HW11427   2.812   2.183   8.186 -0.0721 -2.5039  1.9374
 2073Sol     MW11428   2.769   2.232   8.246  0.6073 -0.3338 -0.0915
 2074Sol     OW11429   2.655   2.007   2.339  0.2133 -0.4828 -0.2970
 2074Sol     HW11430   2.667   1.991   2.246  1.6035  0.9213 -0.3920
 2074Sol     HW11431   2.745   2.015   2.373 -0.2997 -0.1971  1.0063
 2074Sol     MW11432   2.664   2.006   2.334  0.4972 -0.5105  1.1300
 2075Sol     OW11433   1.343   1.224   5.401  0.2500 -0.5751 -0.0083
 2075Sol     HW11434   1.309   1.247   5.488  2.1952 -1.3252  0.9886
 2075Sol     HW11435   1.272   1.248   5.341 -0.8742  0.5909  1.7064
 2075Sol     MW11436   1.333   1.228   5.403 -0.1805  0.2080 -0.2903
 2076Sol     OW11437   1.443   0.137   4.304  0.1462  0.4150  0.1228
 2076Sol     HW11438   1.509   0.200   4.277  2.1476 -1.3537  0.7069
 2076Sol     HW11439   1.435   0.077   4.230 -0.4009  0.3129  0.2634
 2076Sol     MW11440   1.448   0.137   4.295  0.2449  0.2086  0.1706
 2077Sol     OW11441   2.566   1.487   4.133  0.6945  0.6218  0.1152
 2077Sol     HW11442   2.644   1.440   4.163 -1.2205 -1.8350  1.4751
 2077Sol     HW11443   2.585   1.509   4.042  2.8309 -0.2390  0.3263
 2077Sol     MW11444   2.575   1.484   4.127  0.5143  0.0184  0.1608
 2078Sol     OW11445   0.951   3.293   4.419 -0.2011  0.2484  0.1238
 2078Sol     HW11446   0.869   3.305   4.370 -2.0477 -1.5708  2.6307
 2078Sol     HW11447   0.997   3.225   4.372  0.3366  1.9076 -1.8239
 2078Sol     MW11448   0.947   3.288   4.410 -0.0071  0.1772 -0.7928
 2079Sol     OW11449   1.915   0.318   8.275  0.1808  0.5285 -0.0797
 2079Sol     HW11450   1.852   0.383   8.245 -0.0404  1.3906  2.1697
 2079Sol     HW11451   1.996   0.368   8.289  0.9782 -0.3117 -1.5960
 2079Sol     MW11452   1.917   0.329   8.274  0.2430  0.0613  0.5532
 2080Sol     OW11453   0.596   1.840   4.145 -0.2858  0.2983 -0.1042
 2080Sol     HW11454   0.557   1.798   4.069  1.6895  0.9756 -1.5272
 2080Sol     HW11455   0.583   1.778   4.217 -1.7240 -0.5588 -1.0945
 2080Sol     MW11456   0.592   1.831   4.145  0.1466 -0.5477 -0.2084
 2081Sol     OW11457   3.053   1.577   8.466  0.0984  0.1713  0.5224
 2081Sol     HW11458   3.048   1.629   8.546  2.3540  0.2046  0.6509
 2081Sol     HW11459   3.020   1.491   8.491 -2.3035  1.0921  0.6602
 2081Sol     MW11460   3.049   1.574   8.475 -0.0049 -0.0417 -0.0423
 2082Sol     OW11461   1.852   0.993   7.363  0.4337  0.0448  0.0488
 2082Sol     HW11462   1.890   0.906   7.357 -0.0672 -0.0540 -2.0728
 2082Sol     HW11463   1.892   1.042   7.291  1.2225  1.8034  1.6063
 2082Sol     MW11464   1.859   0.990   7.356 -0.2885  0.2414 -0.3057
 2083Sol     OW11465   1.622   1.173   3.647  0.0226  0.1147 -0.3042
 2083Sol     HW11466   1.656   1.225   3.574 -0.8369  2.5650  0.9626
 2083Sol     HW11467   1.678   1.095   3.650 -0.0803 -0.1539 -3.6923
 2083Sol     MW11468   1.630   1.171   3.641  0.9741  0.1720  0.2073
 2084Sol     OW11469   1.753   1.315   9.240  0.4197  0.3204  0.2485
 2084Sol     HW11470   1.737   1.286   9.330  0.6494 -0.3253  0.0842
 2084Sol     HW11471   1.740   1.410   9.243 -1.0778  0.1101  0.6218
 2084Sol     MW11472   1.751   1.321   9.248 -0.0377 -0.3752 -0.3140
 2085Sol     OW11473   1.996   1.962   6.813 -0.0960 -0.1321 -0.5089
 2085Sol     HW11474   1.915   1.982   6.859 -0.3934 -1.3616 -0.4682
 2085Sol     HW11475   1.994   1.866   6.802  0.7554 -0.0338 -1.5992
 2085Sol     MW11476   1.989   1.955   6.816 -0.3631 -0.6649  0.7119
 2086Sol     OW11477   1.582   2.212   8.558  0.4415  0.1219 -0.1375
 2086Sol     HW11478   1.492   2.181   8.545 -0.1129 -0.1499  3.7927
 2086Sol     HW11479   1.634   2.159   8.498 -1.7401 -1.2247 -0.9342
 2086Sol     MW11480   1.578   2.205   8.552 -0.0992 -0.0880  0.4729
 2087Sol     OW11481   3.206   1.625   2.047  0.3655 -0.0062 -0.2620
 2087Sol     HW11482   3.170   1.626   1.958 -1.1975  1.5388  0.3548
 2087Sol     HW11483   3.238   1.714   2.061  1.9742 -0.6438  0.2034
 2087Sol     MW11484   3.206   1.633   2.040  0.1003  0.0627  0.4003
 2088Sol     OW11485   2.378   2.492   6.076  0.4528  0.1120 -0.0193
 2088Sol     HW11486   2.292   2.522   6.047  0.7702  2.9303  1.7266
 2088Sol     HW11487   2.368   2.476   6.169  1.7084 -0.0030  0.1088
 2088Sol     MW11488   2.369   2.493   6.081  0.1480  0.2323  0.2095
 2089Sol     OW11489   1.139   2.675   4.932 -0.0449 -0.1468 -0.1544
 2089Sol     HW11490   1.098   2.712   5.010  1.3667  0.4079  0.3505
 2089Sol     HW11491   1.215   2.627   4.965 -0.3159 -1.2235 -1.0539
 2089Sol     MW11492   1.142   2.674   4.942 -0.1625  0.2343  0.2074
 2090Sol     OW11493   2.485   0.626   2.540 -0.6974 -0.5133  0.8920
 2090Sol     HW11494   2.562   0.675   2.512 -1.3292 -0.7614 -1.4268
 2090Sol     HW11495   2.455   0.670   2.619  0.9720  0.4732  0.9862
 2090Sol     MW11496   2.489   0.634   2.545 -0.8785  0.2422 -0.0612
 2091Sol     OW11497   2.719   0.344   3.887  0.7334  0.6289  0.3565
 2091Sol     HW11498   2.732   0.417   3.949 -1.2280 -0.6776  2.3754
 2091Sol     HW11499   2.635   0.364   3.845  0.7669  0.1396  0.0673
 2091Sol     MW11500   2.713   0.353   3.889  0.3846 -0.0134 -0.5188
 2092Sol     OW11501   1.729   3.316   2.399 -0.9143  0.4729 -0.2623
 2092Sol     HW11502   1.795   3.384   2.391 -0.4076  0.1226  0.8710
 2092Sol     HW11503   1.728   3.294   2.492  0.8693 -2.9769 -0.9892
 2092Sol     MW11504   1.735   3.320   2.407  0.1401  0.0895  0.3688
 2093Sol     OW11505   0.924   2.910   4.088  0.0024  0.0155  0.4278
 2093Sol     HW11506   0.943   2.836   4.032 -0.6854 -1.5949  2.2662
 2093Sol     HW11507   0.829   2.906   4.103 -0.2944  2.1717 -0.6930
 2093Sol     MW11508   0.917   2.903   4.085  0.0903  0.0409 -0.5217
 2094Sol     OW11509   1.725   3.146   6.027 -0.0118  0.0950  0.0632
 2094Sol     HW11510   1.732   3.122   6.119 -0.8142  2.3570  0.7373
 2094Sol     HW11511   1.632   3.165   6.014 -0.0364 -0.9113 -1.4069
 2094Sol     MW11512   1.717   3.145   6.034  0.1970 -0.2428  0.3702
 2095Sol     OW11513   2.701   2.076   9.527 -0.3143 -0.4577 -0.3264
 2095Sol     HW11514   2.686   2.123   9.609  2.4328  3.7304 -2.0698
 2095Sol     HW11515   2.622   2.090   9.476 -1.3965 -1.7798  0.9157
 2095Sol     MW11516   2.693   2.081   9.530 -0.3900 -0.0739 -0.2266
 2096Sol     OW11517   1.501   1.518   5.154 -0.6752  0.0568 -0.4045
 2096Sol     HW11518   1.484   1.458   5.081 -1.0142 -1.3390  0.8050
 2096Sol     HW11519   1.527   1.462   5.226  0.8124  1.5212  0.2435
 2096Sol     MW11520   1.502   1.508   5.154  0.0160 -1.1203 -0.2648
 2097Sol     OW11521   1.966   1.299   6.893  0.8718 -0.2425 -0.1199
 2097Sol     HW11522   1.937   1.389   6.883  1.3411 -0.2682 -1.9131
 2097Sol     HW11523   1.935   1.273   6.979  1.2423  1.8141  0.6522
 2097Sol     MW11524   1.961   1.305   6.899  0.0590  0.2180 -0.4166
 2098Sol     OW11525   3.247   1.229   5.772 -0.1436  0.3558  0.3205
 2098Sol     HW11526   3.222   1.219   5.864 -1.1355  0.8290  0.1126
 2098Sol     HW11527   3.300   1.152   5.753 -0.5506 -0.1246  1.0861
 2098Sol     MW11528   3.249   1.222   5.778  0.5112 -0.0533  0.0347
 2099Sol     OW11529   1.890   3.051   4.917  0.1215 -0.3449  0.0763
 2099Sol     HW11530   1.898   3.099   5.000  0.0591 -1.0624  0.4993
 2099Sol     HW11531   1.970   3.074   4.869 -0.5959  1.3345 -0.3349
 2099Sol     MW11532   1.898   3.058   4.920 -0.3166  0.1217 -0.0824
 2100Sol     OW11533   0.026   3.256   3.838 -0.5013  0.0928 -0.3262
 2100Sol     HW11534  -0.012   3.222   3.757  0.5689 -1.6970 -0.0895
 2100Sol     HW11535   0.026   3.182   3.898  1.3022  0.6533  0.3962
 2100Sol     MW11536   0.023   3.247   3.836 -0.4900 -0.1779  0.1187
 2101Sol     OW11537   0.921   0.717   4.436 -0.6053 -0.5753 -0.3022
 2101Sol     HW11538   0.955   0.635   4.472  2.5150  0.8946  0.2809
 2101Sol     HW11539   0.944   0.713   4.343  2.0117  0.7331  0.2269
 2101Sol     MW11540   0.926   0.709   4.431 -0.1227  0.1140  0.0306
 2102Sol     OW11541   2.473   1.796   4.764  0.1673  0.1843  1.0188
 2102Sol     HW11542   2.538   1.779   4.833  0.1237  1.4658  1.3834
 2102Sol     HW11543   2.401   1.736   4.784  0.2904  0.3215  1.9052
 2102Sol     MW11544   2.473   1.789   4.772  0.0037 -0.2820 -0.7700
 2103Sol     OW11545   1.410   3.277   9.094  0.3974 -0.4634 -0.2866
 2103Sol     HW11546   1.398   3.372   9.093 -1.0178 -0.6223 -3.3436
 2103Sol     HW11547   1.328   3.242   9.058  0.7873 -2.8644  1.0573
 2103Sol     MW11548   1.402   3.283   9.091  0.1102 -0.0582 -0.1373
 2104Sol     OW11549   3.297   2.520   5.388  0.0347 -0.3915 -0.4937
 2104Sol     HW11550   3.349   2.588   5.345  0.9612 -1.9993 -1.9675
 2104Sol     HW11551   3.215   2.517   5.338  0.2062 -0.7116 -0.7587
 2104Sol     MW11552   3.294   2.526   5.380 -0.0591  0.1359 -0.2900
 2105Sol     OW11553   1.961   1.266   9.068  0.0832  0.3237 -0.1481
 2105Sol     HW11554   1.908   1.303   9.139  0.2907  2.8573 -1.2550
 2105Sol     HW11555   2.049   1.300   9.083  0.3200  0.1729 -1.1280
 2105Sol     MW11556   1.964   1.272   9.076 -0.3897 -0.1943 -0.0603
 2106Sol     OW11557   0.776   1.450   9.209  0.2806 -0.1273 -0.1577
 2106Sol     HW11558   0.846   1.508   9.181  0.3380  0.4236  1.1251
 2106Sol     HW11559   0.812   1.362   9.199  0.6015  0.0940 -0.9814
 2106Sol     MW11560   0.785   1.447   9.206  0.3401 -0.0583  0.0162
 2107Sol     OW11561   0.015   1.999   6.111 -0.0518 -0.5936 -0.2219
 2107Sol     HW11562  -0.045   2.052   6.164  0.3173 -0.6122  0.2205
 2107Sol     HW11563  -0.042   1.948   6.054 -0.4332 -0.1478 -0.2431
 2107Sol     MW11564   0.005   1.999   6.111  0.5468  0.6890 -0.0233
 2108Sol     OW11565   2.339   0.387   8.109 -0.1832 -0.0195  0.2450
 2108Sol     HW11566   2.278   0.413   8.179 -1.8190 -0.4715 -0.9792
 2108Sol     HW11567   2.371   0.469   8.074 -0.4157  0.2339  0.6159
 2108Sol     MW11568   2.336   0.397   8.112 -0.2624  0.0390  0.1351
 2109Sol     OW11569   1.414   1.936   2.133 -0.5253 -0.1798  0.5240
 2109Sol     HW11570   1.438   1.845   2.147 -0.0809 -0.1854 -0.2575
 2109Sol     HW11571   1.321   1.940   2.156 -1.0296 -1.2408 -1.1859
 2109Sol     MW11572   1.407   1.928   2.136 -0.2852 -0.4072 -0.6702
 2110Sol     OW11573   1.476   0.718   8.113  0.1414  0.8735 -0.1215
 2110Sol     HW11574   1.476   0.811   8.090 -0.0228  0.8527 -0.2067
 2110Sol     HW11575   1.562   0.687   8.086 -0.3356  0.6664 -1.4544
 2110Sol     MW11576   1.483   0.724   8.108 -0.2632  0.1225  0.2244
 2111Sol     OW11577   1.029   0.491   3.906 -0.0978 -0.7323  0.5647
 2111Sol     HW11578   0.994   0.552   3.842 -2.0540 -1.2827  1.0961
 2111Sol     HW11579   1.015   0.534   3.991 -0.2410 -1.3131  0.8385
 2111Sol     MW11580   1.025   0.500   3.908  0.3605  0.3066  0.2371
 2112Sol     OW11581   0.672   2.984   5.208  0.2849  0.1589 -0.0856
 2112Sol     HW11582   0.595   2.987   5.266  1.1441 -2.6311  1.2931
 2112Sol     HW11583   0.637   2.962   5.122 -0.3341 -2.6294  0.8517
 2112Sol     MW11584   0.662   2.983   5.206 -0.1077 -0.4034  0.2825
 2113Sol     OW11585   2.353   0.910   3.798  0.2111 -0.5226 -0.4203
 2113Sol     HW11586   2.414   0.967   3.844 -0.4407  0.1450 -0.3734
 2113Sol     HW11587   2.377   0.920   3.706  0.0812 -0.1523 -0.4153
 2113Sol     MW11588   2.361   0.916   3.794  0.3034 -0.0964 -0.1043
 2114Sol     OW11589   1.603   0.839   4.097  0.3540 -0.6183 -0.1876
 2114Sol     HW11590   1.631   0.754   4.131 -0.2601 -0.3644  1.0036
 2114Sol     HW11591   1.514   0.849   4.130  0.0827  0.0752 -1.1078
 2114Sol     MW11592   1.597   0.832   4.103  0.3026 -0.3669 -1.0125
 2115Sol     OW11593   1.211   1.115   6.350  0.1772  0.3592 -0.0090
 2115Sol     HW11594   1.296   1.071   6.356 -0.0747 -0.1316 -0.0311
 2115Sol     HW11595   1.161   1.063   6.286 -0.4022  0.2151  0.5587
 2115Sol     MW11596   1.214   1.106   6.345 -0.1072  0.0177  1.0716
 2116Sol     OW11597   1.233   1.299   7.835 -0.0564 -0.3387 -0.5268
 2116Sol     HW11598   1.241   1.382   7.789  3.4728 -0.8489 -0.9743
 2116Sol     HW11599   1.227   1.323   7.928 -0.8051  0.4364 -0.7696
 2116Sol     MW11600   1.233   1.308   7.839  0.2273  0.0261 -0.3807
 2117Sol     OW11601   1.111   3.083   9.691 -0.1438  0.2187 -0.2071
 2117Sol     HW11602   1.101   3.021   9.764  2.2471 -1.4134 -1.2016
 2117Sol     HW11603   1.033   3.138   9.696 -1.7296 -2.0619  1.5014
 2117Sol     MW11604   1.103   3.082   9.698  0.0370  0.0411 -0.0290
 2118Sol     OW11605   3.313   3.027   7.412 -0.0107  0.1565  0.5827
 2118Sol     HW11606   3.347   3.108   7.450  1.7077 -0.0971 -0.3702
 2118Sol     HW11607   3.389   2.969   7.407 -0.4166 -0.2079 -2.1828
 2118Sol     MW11608   3.323   3.029   7.415 -0.0523  0.5917  0.1643
 2119Sol     OW11609   0.280   0.436   8.039 -0.1870  0.1759 -0.3330
 2119Sol     HW11610   0.315   0.509   8.090  0.1304  0.2443 -0.6542
 2119Sol     HW11611   0.203   0.472   7.996 -1.0996 -0.1728  0.9625
 2119Sol     MW11612   0.276   0.445   8.040 -0.2226  0.1215 -0.1541
 2120Sol     OW11613   0.839   2.701   1.558 -0.3496 -0.2135 -0.0536
 2120Sol     HW11614   0.889   2.699   1.477  0.0917 -1.7629  0.2305
 2120Sol     HW11615   0.853   2.614   1.597 -0.2201  0.6419  1.8812
 2120Sol     MW11616   0.845   2.693   1.554 -0.1897  0.0339  0.2061
 2121Sol     OW11617   3.303   0.212   8.472  0.3669 -0.2368 -0.1136
 2121Sol     HW11618   3.370   0.179   8.412  1.8018  0.0727  1.2530
 2121Sol     HW11619   3.305   0.307   8.460  1.2668 -0.0990  0.9944
 2121Sol     MW11620   3.310   0.217   8.466 -0.3874  0.3479 -0.0909
 2122Sol     OW11621   2.181   1.267   7.236  0.9560 -0.1630  0.0598
 2122Sol     HW11622   2.189   1.329   7.308  0.1727  0.1906 -0.1497
 2122Sol     HW11623   2.263   1.277   7.187  1.9228 -1.1242  1.4401
 2122Sol     MW11624   2.189   1.274   7.238 -0.3220 -0.2650  0.3681
 2123Sol     OW11625   1.544   2.373   5.302 -0.5816 -0.4822 -0.3349
 2123Sol     HW11626   1.632   2.405   5.281 -0.6469 -0.3732 -0.4404
 2123Sol     HW11627   1.500   2.448   5.342 -0.6143 -0.5486 -0.2456
 2123Sol     MW11628   1.548   2.383   5.304 -0.1106 -0.1092  0.1579
 2124Sol     OW11629   2.360   2.134   6.912  0.0070 -0.3136  0.6064
 2124Sol     HW11630   2.298   2.178   6.855  0.2928  0.7747  1.1269
 2124Sol     HW11631   2.441   2.128   6.860 -0.1706 -0.6590  0.3666
 2124Sol     MW11632   2.362   2.137   6.902 -0.2877  0.3344  0.4331
 2125Sol     OW11633   2.609   0.249   8.860 -0.4869  0.3340 -0.0429
 2125Sol     HW11634   2.673   0.185   8.890  0.5124  1.0157 -0.6827
 2125Sol     HW11635   2.546   0.256   8.932  0.2342 -0.2358  0.6483
 2125Sol     MW11636   2.609   0.244   8.869 -0.6894  0.3583  0.1522
 2126Sol     OW11637   0.006   1.749   7.621  0.5878  0.4021  0.1958
 2126Sol     HW11638   0.091   1.780   7.652  0.9551 -1.2767  0.8884
 2126Sol     HW11639  -0.051   1.755   7.697  0.8965 -1.4957  0.5881
 2126Sol     MW11640   0.009   1.753   7.630 -0.9840 -0.3854  0.2035
 2127Sol     OW11641   0.522   2.040   9.270  0.4823  0.8556 -0.4009
 2127Sol     HW11642   0.541   2.081   9.355  2.2575 -0.2877 -0.2195
 2127Sol     HW11643   0.550   2.105   9.205  2.4035  0.3686 -0.1076
 2127Sol     MW11644   0.527   2.050   9.272  0.1983  0.2818 -0.5935
 2128Sol     OW11645   2.689   3.205   7.099  0.1014 -0.1770  0.3367
 2128Sol     HW11646   2.623   3.137   7.112 -0.4088  0.2391 -0.0127
 2128Sol     HW11647   2.761   3.181   7.156 -1.3828  0.7275  2.6534
 2128Sol     MW11648   2.689   3.197   7.105  0.1916  0.2326  0.4981
 2129Sol     OW11649   2.703   3.358   5.561  0.1330  0.1441  0.6143
 2129Sol     HW11650   2.756   3.288   5.523 -0.4862 -1.9288  3.3792
 2129Sol     HW11651   2.695   3.423   5.491  2.7373 -1.4291 -1.2492
 2129Sol     MW11652   2.707   3.358   5.551  0.4175 -0.0842 -0.4489
 2130Sol     OW11653   1.446   3.242   6.666  0.7098 -0.3958 -0.5195
 2130Sol     HW11654   1.508   3.231   6.738 -0.9730  1.0931  1.1948
 2130Sol     HW11655   1.454   3.334   6.640 -0.2868 -0.3604 -0.7325
 2130Sol     MW11656   1.452   3.249   6.670  0.0424 -0.4434 -0.1848
 2131Sol     OW11657   2.072   2.737   8.873  0.3264  0.1250 -0.1363
 2131Sol     HW11658   1.995   2.680   8.877  0.3844 -0.0974 -1.9755
 2131Sol     HW11659   2.084   2.755   8.780  1.8321  1.0731  0.2277
 2131Sol     MW11660   2.066   2.733   8.865 -0.1676  0.4806 -0.3141
 2132Sol     OW11661   0.047   0.764   1.714  0.0807 -0.0851 -0.0563
 2132Sol     HW11662   0.079   0.753   1.804 -0.7331  0.6438  0.3233
 2132Sol     HW11663   0.026   0.675   1.686  0.1148 -0.2894  0.5509
 2132Sol     MW11664   0.048   0.755   1.720 -0.4781 -0.7488  0.1323
 2133Sol     OW11665   2.682   0.031   7.728 -0.0658 -0.3476  0.0925
 2133Sol     HW11666   2.690   0.119   7.764  0.7307 -0.6454  0.6621
 2133Sol     HW11667   2.755   0.024   7.666 -1.5516  0.2384 -1.7501
 2133Sol     MW11668   2.689   0.038   7.726 -0.2481 -0.1225  0.2668
 2134Sol     OW11669   0.618   1.978   4.694 -0.2769  0.5860  0.6635
 2134Sol     HW11670   0.692   2.003   4.750  0.4875 -1.0255  0.3953
 2134Sol     HW11671   0.656   1.921   4.628 -2.0198 -1.5317  1.4458
 2134Sol     MW11672   0.628   1.975   4.693  0.4954 -0.0683 -0.4673
 2135Sol     OW11673   1.831   2.662   9.716 -0.3073 -0.0111  0.1044
 2135Sol     HW11674   1.794   2.739   9.759 -3.1915 -0.8809 -0.6758
 2135Sol     HW11675   1.788   2.660   9.630  0.6474 -1.7959 -0.3526
 2135Sol     MW11676   1.824   2.669   9.712  0.3443 -0.1146  0.2607
 2136Sol     OW11677   0.610   0.836   8.262  0.2570  0.4757  0.7025
 2136Sol     HW11678   0.523   0.819   8.228  0.0908 -1.0899  1.8341
 2136Sol     HW11679   0.662   0.864   8.186 -1.0027  0.5910 -0.1150
 2136Sol     MW11680   0.607   0.837   8.252  0.4671  0.1670  0.0691
 2137Sol     OW11681   0.130   2.706   9.156  0.1276 -0.3354 -0.4016
 2137Sol     HW11682   0.127   2.795   9.120  0.3991  0.3639  1.2870
 2137Sol     HW11683   0.051   2.664   9.122 -1.2188  1.2928  0.6802
 2137Sol     MW11684   0.123   2.710   9.150  1.0235  0.0853 -0.2350
 2138Sol     OW11685   2.651   1.708   4.935  0.0300 -0.1093  0.3290
 2138Sol     HW11686   2.648   1.736   5.027 -0.3564 -1.5699  0.7767
 2138Sol     HW11687   2.744   1.698   4.916  0.1226  0.4405  0.4809
 2138Sol     MW11688   2.659   1.710   4.942  0.5606  0.8071  0.5012
 2139Sol     OW11689   1.101   2.370   5.479 -0.2890  0.7746 -0.2839
 2139Sol     HW11690   1.139   2.302   5.424 -0.1807  1.1573 -0.6815
 2139Sol     HW11691   1.015   2.336   5.505 -0.3764  0.6389 -0.7633
 2139Sol     MW11692   1.097   2.361   5.477  0.2205 -0.8243 -0.1616
 2140Sol     OW11693   1.401   3.398   5.492 -0.0757 -0.1303  0.0643
 2140Sol     HW11694   1.480   3.370   5.446  0.1024 -1.0309  0.9084
 2140Sol     HW11695   1.372   3.476   5.444  1.6646  0.5742  0.1083
 2140Sol     MW11696   1.406   3.403   5.484  0.0954 -0.0056  0.3519
 2141Sol     OW11697   0.230   0.504   4.067  1.2957 -0.4788  0.5535
 2141Sol     HW11698   0.201   0.470   3.982  2.7758 -1.7496  0.5230
 2141Sol     HW11699   0.174   0.579   4.084  0.5268 -0.6328 -1.2342
 2141Sol     MW11700   0.223   0.508   4.061 -0.5581  0.0297  0.2374
 2142Sol     OW11701   0.813   2.569   6.067  0.1087  0.1291  0.4626
 2142Sol     HW11702   0.858   2.523   5.996 -0.6881 -0.1653  0.1413
 2142Sol     HW11703   0.775   2.646   6.026  0.4089  0.4416  0.7606
 2142Sol     MW11704   0.814   2.572   6.057 -0.0040 -0.3365 -0.1730
 2143Sol     OW11705   0.720   1.177   8.183 -0.5817 -0.1478 -0.1053
 2143Sol     HW11706   0.746   1.093   8.145  2.7289  1.1362 -0.9345
 2143Sol     HW11707   0.762   1.178   8.269 -0.0473  0.8997 -0.3693
 2143Sol     MW11708   0.726   1.170   8.188  0.3600 -0.4459 -0.1063
 2144Sol     OW11709   1.629   0.010   7.310 -0.0275  0.4668  0.4014
 2144Sol     HW11710   1.637   0.079   7.245  0.4270  0.9933  0.9986
 2144Sol     HW11711   1.720  -0.009   7.336 -0.2029  0.3025  0.9096
 2144Sol     MW11712   1.638   0.015   7.307  0.0357 -0.0182  0.1266
 2145Sol     OW11713   2.596   3.352   6.040  0.1394 -0.6774 -0.2494
 2145Sol     HW11714   2.688   3.341   6.019  1.4488  2.0497  3.4206
 2145Sol     HW11715   2.574   3.440   6.008 -1.1493 -1.2679 -1.0113
 2145Sol     MW11716   2.602   3.359   6.035  0.0034  0.6789 -1.2652
 2146Sol     OW11717   1.214   1.747   5.906 -0.5710 -0.1593  0.1233
 2146Sol     HW11718   1.294   1.731   5.956 -1.0964 -0.8502  0.7393
 2146Sol     HW11719   1.209   1.842   5.899  0.8993 -0.1405 -0.8812
 2146Sol     MW11720   1.221   1.754   5.910  0.4666 -0.1978  0.2182
 2147Sol     OW11721   3.175   0.509   9.749  0.0081 -1.0270  0.6378
 2147Sol     HW11722   3.095   0.554   9.721  0.6240  0.9758  2.0011
 2147Sol     HW11723   3.242   0.538   9.687  0.4502  0.1054  1.6387
 2147Sol     MW11724   3.174   0.516   9.741  0.3201 -0.2538  0.1377
 2148Sol     OW11725   0.195   1.293   7.752 -0.2654 -0.1268 -0.2224
 2148Sol     HW11726   0.131   1.358   7.782 -0.6196 -0.5231 -0.1187
 2148Sol     HW11727   0.144   1.216   7.732 -0.0926  0.2663 -2.3291
 2148Sol     MW11728   0.185   1.292   7.753 -0.7139 -0.2628 -0.0523
 2149Sol     OW11729   1.980   1.093   6.734 -0.0788  0.3597 -0.3315
 2149Sol     HW11730   1.909   1.044   6.776  0.9374 -0.7748  0.0847
 2149Sol     HW11731   1.994   1.169   6.791 -1.4044  0.9582 -0.7770
 2149Sol     MW11732   1.975   1.096   6.743  0.5461  0.1866 -0.4368
 2150Sol     OW11733   0.355   3.137   5.518 -0.4329  0.2087 -0.3198
 2150Sol     HW11734   0.389   3.073   5.455  0.4784  0.5398 -0.1661
 2150Sol     HW11735   0.336   3.215   5.466  1.9003  1.0726  0.0375
 2150Sol     MW11736   0.357   3.138   5.508 -0.2058  0.1225 -0.1648
 2151Sol     OW11737   0.782   2.900   2.688 -0.0759  0.3257 -0.1212
 2151Sol     HW11738   0.703   2.886   2.741  0.4138  0.7126  0.7226
 2151Sol     HW11739   0.753   2.885   2.598 -0.5953 -1.7284  0.3560
 2151Sol     MW11740   0.772   2.897   2.685  0.4593  0.4475  0.1594
 2152Sol     OW11741   0.971   1.807   1.805 -0.1962  0.1739  0.0870
 2152Sol     HW11742   1.009   1.860   1.735  1.9332 -0.6623  0.5710
 2152Sol     HW11743   0.913   1.746   1.760 -1.0558  1.5027 -0.6569
 2152Sol     MW11744   0.969   1.806   1.795  0.5843  0.3927  0.0551
 2153Sol     OW11745   1.952   3.239   2.082 -0.4588 -0.1009  0.6090
 2153Sol     HW11746   1.979   3.151   2.054 -0.8387  0.2663 -0.9311
 2153Sol     HW11747   1.862   3.227   2.114 -0.5252 -0.2590  0.3646
 2153Sol     MW11748   1.946   3.230   2.082  0.5317 -0.1809  0.1902
 2154Sol     OW11749   3.123   2.130   6.738  0.2092 -0.4164  0.2384
 2154Sol     HW11750   3.069   2.161   6.665  0.8398 -1.4973 -0.7013
 2154Sol     HW11751   3.060   2.089   6.798 -0.4175  1.1929  0.7147
 2154Sol     MW11752   3.112   2.129   6.737 -0.1801  0.0554 -0.7887
 2155Sol     OW11753   0.398   2.420   9.389  0.0431  0.0863  0.1988
 2155Sol     HW11754   0.321   2.395   9.338  0.6290 -0.1442 -0.5827
 2155Sol     HW11755   0.396   2.516   9.388  0.3095  0.0898 -0.6717
 2155Sol     MW11756   0.391   2.427   9.384 -0.2387  0.0135  0.2536
 2156Sol     OW11757   0.670   0.078   8.395 -0.4794 -0.0960  1.0947
 2156Sol     HW11758   0.713   0.097   8.478 -0.7086  2.9486  0.5450
 2156Sol     HW11759   0.732   0.019   8.350 -0.2557 -1.5978  3.2650
 2156Sol     MW11760   0.680   0.074   8.398  0.1085 -0.1278  0.0994
 2157Sol     OW11761   2.264   1.694   4.169  0.0209  0.5999 -0.1163
 2157Sol     HW11762   2.295   1.752   4.239 -0.3005  1.2370 -0.4930
 2157Sol     HW11763   2.330   1.702   4.100 -1.2898  2.4792 -1.1923
 2157Sol     MW11764   2.273   1.700   4.169 -0.0210 -0.5033 -0.0986
 2158Sol     OW11765   0.534   0.013   4.926  0.1033  0.7402  0.4655
 2158Sol     HW11766   0.521   0.066   4.847 -0.8547  1.9630  1.4269
 2158Sol     HW11767   0.464   0.041   4.985 -0.1499 -1.2907  1.1641
 2158Sol     MW11768   0.527   0.020   4.924 -0.0910 -0.0476 -0.1738
 2159Sol     OW11769   1.571   0.648   9.370  0.8686 -0.0289 -0.2110
 2159Sol     HW11770   1.621   0.610   9.297  1.7156  0.4745  0.0946
 2159Sol     HW11771   1.629   0.716   9.405 -0.6859  1.6518 -0.8512
 2159Sol     MW11772   1.581   0.651   9.367 -0.6502  0.5595 -0.1355
 2160Sol     OW11773   0.661   3.397   6.740  0.0236 -0.5169 -0.2051
 2160Sol     HW11774   0.644   3.491   6.733  0.2863 -0.5307 -1.0872
 2160Sol     HW11775   0.578   3.356   6.717 -0.3929 -0.4959  1.1906
 2160Sol     MW11776   0.652   3.401   6.737 -0.0240 -0.0674 -0.5336
 2161Sol     OW11777   3.143   2.076   5.836  0.6828 -0.3108  0.1316
 2161Sol     HW11778   3.223   2.084   5.785  0.8337  0.8907  0.5288
 2161Sol     HW11779   3.123   2.166   5.864 -0.8675 -0.5770 -0.0629
 2161Sol     MW11780   3.148   2.085   5.834 -0.5006  0.5115  0.0169
 2162Sol     OW11781   1.451   2.891   7.858  0.8692 -0.0906  0.0902
 2162Sol     HW11782   1.416   2.860   7.775  0.7527  1.2064 -0.3531
 2162Sol     HW11783   1.452   2.814   7.914  1.1166 -1.0210 -1.1688
 2162Sol     MW11784   1.448   2.882   7.856  0.2216  0.5752 -0.4035
 2163Sol     OW11785   0.840   0.889   5.876 -0.0181  0.2523 -0.1434
 2163Sol     HW11786   0.834   0.967   5.931  1.3846  0.7270 -0.6539
 2163Sol     HW11787   0.926   0.895   5.835 -1.2039  0.1000 -2.6969
 2163Sol     MW11788   0.847   0.896   5.878 -0.2238 -0.1731  0.2444
 2164Sol     OW11789   0.599   2.158   5.169  0.4611  0.1097 -0.1141
 2164Sol     HW11790   0.517   2.110   5.182  0.3465  0.3242 -0.0469
 2164Sol     HW11791   0.595   2.189   5.079 -0.1548  1.3020  0.3191
 2164Sol     MW11792   0.592   2.156   5.162  0.6174  0.4662  0.2187
 2165Sol     OW11793   2.430   2.289   7.124 -0.7955 -0.3491  0.3293
 2165Sol     HW11794   2.401   2.230   7.054  0.0293  0.4455 -0.6868
 2165Sol     HW11795   2.526   2.286   7.119 -0.6778 -1.8007  2.6984
 2165Sol     MW11796   2.436   2.283   7.117 -0.1262  0.6446 -0.5663
 2166Sol     OW11797   0.024   1.367   3.243  0.0360 -0.5616 -0.0201
 2166Sol     HW11798   0.107   1.346   3.200  1.1195  0.6750  1.4069
 2166Sol     HW11799   0.004   1.290   3.295 -0.4801 -1.4397 -1.4779
 2166Sol     MW11800   0.030   1.358   3.244  0.6892  0.2161 -0.3154
 2167Sol     OW11801   2.985   3.151   9.135 -0.2349 -0.0631  0.0542
 2167Sol     HW11802   2.979   3.073   9.080 -0.0930 -0.7667  1.0136
 2167Sol     HW11803   3.076   3.151   9.166 -0.2320  0.4950  0.0550
 2167Sol     MW11804   2.993   3.144   9.133 -0.0621 -0.3202  0.3908
 2168Sol     OW11805   1.621   1.229   4.407 -0.0759 -0.7044 -0.4914
 2168Sol     HW11806   1.639   1.282   4.330  2.5333 -0.9677 -0.1382
 2168Sol     HW11807   1.536   1.190   4.391 -1.6357  2.8124 -1.2021
 2168Sol     MW11808   1.615   1.230   4.399  0.1842  0.8380  0.0875
 2169Sol     OW11809   2.665   3.178   1.773 -0.2133  0.8006 -0.3248
 2169Sol     HW11810   2.656   3.084   1.785 -1.2161  1.1274  1.6903
 2169Sol     HW11811   2.578   3.214   1.792  0.2537  2.1666 -0.6646
 2169Sol     MW11812   2.657   3.173   1.775  0.0967 -0.3963 -0.1933
 2170Sol     OW11813   0.125   2.379   9.269  0.5592  0.3608  0.4304
 2170Sol     HW11814   0.097   2.420   9.187 -0.1120 -0.6964  0.1230
 2170Sol     HW11815   0.054   2.399   9.330  0.9371  0.9261  0.6880
 2170Sol     MW11816   0.116   2.385   9.267 -0.6394 -0.2791  0.8930
 2171Sol     OW11817   2.604   1.976   7.946  0.3946  0.2695  0.1403
 2171Sol     HW11818   2.687   1.986   7.993 -0.5712  0.1730  1.9190
 2171Sol     HW11819   2.552   2.051   7.973 -0.8195 -0.7256  0.6141
 2171Sol     MW11820   2.607   1.983   7.953 -0.0052  0.5466  0.4901
 2172Sol     OW11821   1.058   2.303   4.429 -0.4279  0.0179  0.4687
 2172Sol     HW11822   1.033   2.289   4.338 -0.4250 -0.3096  0.5193
 2172Sol     HW11823   1.154   2.302   4.428 -0.4300 -0.7310  0.5901
 2172Sol     MW11824   1.064   2.302   4.421 -0.0569 -0.1260  0.1036
 2173Sol     OW11825   0.324   0.813   6.787 -0.2977  0.5769 -0.1669
 2173Sol     HW11826   0.364   0.882   6.733 -0.9596  0.9651 -0.1590
 2173Sol     HW11827   0.246   0.854   6.825  0.2876  0.3653  1.2676
 2173Sol     MW11828   0.321   0.823   6.785 -0.0556 -0.1903  0.1546
 2174Sol     OW11829   0.849   1.017   6.482  0.5386  0.0564 -0.6311
 2174Sol     HW11830   0.794   1.093   6.503 -0.4637 -0.9573  0.4794
 2174Sol     HW11831   0.901   1.003   6.561 -1.1231 -1.9655  0.1403
 2174Sol     MW11832   0.848   1.023   6.491  0.1344 -0.4353 -0.6276
 2175Sol     OW11833   1.263   2.539   9.141 -0.4138 -0.5784 -0.1105
 2175Sol     HW11834   1.350   2.498   9.134 -0.2706 -0.0419 -1.4683
 2175Sol     HW11835   1.206   2.481   9.091 -0.6435 -0.3365 -0.1237
 2175Sol     MW11836   1.266   2.530   9.136  0.2419 -0.1117  0.1759
 2176Sol     OW11837   0.547   1.736   2.445 -0.8525 -0.6042  0.3106
 2176Sol     HW11838   0.633   1.718   2.482  1.1073 -1.3799 -4.2411
 2176Sol     HW11839   0.497   1.656   2.461 -0.3024 -0.6509  1.8549
 2176Sol     MW11840   0.550   1.727   2.449 -0.0888  0.2192 -0.4462
 2177Sol     OW11841   1.380   1.209   7.473 -0.1371  0.0741  0.3837
 2177Sol     HW11842   1.440   1.281   7.492  1.9162 -0.8649 -2.2973
 2177Sol     HW11843   1.411   1.136   7.526  0.1616  0.0292  0.1453
 2177Sol     MW11844   1.388   1.209   7.479  0.0223  0.4912  0.0248
 2178Sol     OW11845   2.533   3.288   7.480 -0.2305 -0.2553 -0.0508
 2178Sol     HW11846   2.554   3.337   7.400  0.3967 -0.2544  0.1179
 2178Sol     HW11847   2.570   3.341   7.551  0.0950 -0.7691  0.1634
 2178Sol     MW11848   2.538   3.297   7.479 -0.5443 -0.7303  0.1643
 2179Sol     OW11849   1.330   1.523   2.697  0.3487 -0.1966  0.4162
 2179Sol     HW11850   1.249   1.567   2.671 -0.2593 -0.8141  1.2096
 2179Sol     HW11851   1.400   1.572   2.654 -0.3817  0.9642  0.5487
 2179Sol     MW11852   1.329   1.531   2.691 -0.7571  0.2023 -0.1887
 2180Sol     OW11853   1.310   2.886   4.874 -0.4173 -0.0112  0.5044
 2180Sol     HW11854   1.394   2.842   4.856 -0.1121  1.0112 -0.6436
 2180Sol     HW11855   1.247   2.814   4.883  0.4262 -0.7580  0.5332
 2180Sol     MW11856   1.312   2.875   4.873  0.0680  0.1809  0.5356
 2181Sol     OW11857   2.109   1.912   2.047  0.0044 -0.0859 -0.0994
 2181Sol     HW11858   2.193   1.876   2.074  0.0299 -0.5601 -0.7932
 2181Sol     HW11859   2.130   2.000   2.014 -0.3755  1.5110  3.7344
 2181Sol     MW11860   2.118   1.917   2.046  0.1509  0.4479 -0.3314
 2182Sol     OW11861   0.580   3.174   3.393 -0.0233  0.2302 -0.3319
 2182Sol     HW11862   0.540   3.122   3.324  1.2664  0.0981 -1.0038
 2182Sol     HW11863   0.553   3.264   3.375 -0.6795  0.0388 -0.2956
 2182Sol     MW11864   0.574   3.177   3.385 -0.4493  0.3264 -0.3564
 2183Sol     OW11865   2.405   0.762   5.880  0.2461  0.1415 -0.1403
 2183Sol     HW11866   2.450   0.777   5.797 -1.5489  1.0222 -0.9998
 2183Sol     HW11867   2.344   0.690   5.860  0.6632 -0.4598  0.7525
 2183Sol     MW11868   2.403   0.757   5.870 -0.3736  0.1004 -0.1203
 2184Sol     OW11869   0.941   2.846   4.444 -0.5193 -0.1464 -0.2368
 2184Sol     HW11870   0.850   2.871   4.460  0.0999  1.0670  1.3887
 2184Sol     HW11871   0.982   2.924   4.408  0.5988  0.1952  1.7461
 2184Sol     MW11872   0.937   2.855   4.442  0.2715 -0.4291 -0.5302
 2185Sol     OW11873   0.278   2.804   8.257 -0.5245 -0.0394 -0.9178
 2185Sol     HW11874   0.321   2.737   8.204  0.8723  0.5799 -0.6054
 2185Sol     HW11875   0.213   2.843   8.198 -0.4831 -0.8244 -1.4888
 2185Sol     MW11876   0.276   2.802   8.247 -0.3373  0.1100 -0.0894
 2186Sol     OW11877   0.358   2.382   5.081 -0.5971 -0.0075 -0.1623
 2186Sol     HW11878   0.422   2.418   5.020 -1.5985  0.5552 -0.8702
 2186Sol     HW11879   0.321   2.458   5.125 -2.3619 -0.1949 -1.3092
 2186Sol     MW11880   0.361   2.392   5.080 -0.0698 -0.2058 -0.2596
 2187Sol     OW11881   1.883   0.867   4.722  0.5551  0.6918  0.4784
 2187Sol     HW11882   1.858   0.787   4.769  1.8823 -0.1195 -0.1763
 2187Sol     HW11883   1.840   0.859   4.637 -0.1646  1.1923  0.7815
 2187Sol     MW11884   1.877   0.859   4.719 -0.1553  0.0696 -0.0845
 2188Sol     OW11885   2.007   2.610   6.937 -0.4543  0.0363  0.3817
 2188Sol     HW11886   2.071   2.654   6.881 -1.3897 -0.2494 -0.9231
 2188Sol     HW11887   2.042   2.522   6.950 -0.0986  0.1926  0.4762
 2188Sol     MW11888   2.016   2.606   6.933  0.0875  0.2802 -0.0791
 2189Sol     OW11889   3.012   3.060   2.515  0.2189  0.7225  0.5519
 2189Sol     HW11890   3.003   2.993   2.583  0.4811 -0.3736 -0.4619
 2189Sol     HW11891   3.105   3.059   2.493  0.0681  0.7627 -0.1065
 2189Sol     MW11892   3.020   3.054   2.519  0.1082  0.4009 -0.3418
 2190Sol     OW11893   2.143   1.602   6.164 -0.0621 -0.3973  0.6289
 2190Sol     HW11894   2.141   1.653   6.083 -0.7926  0.4500  1.1730
 2190Sol     HW11895   2.056   1.613   6.202 -0.4553 -2.6267  0.4283
 2190Sol     MW11896   2.135   1.608   6.160  0.1609 -0.2772 -0.2841
 2191Sol     OW11897   0.739   3.118   8.938 -0.2080  0.4508 -0.2734
 2191Sol     HW11898   0.799   3.158   9.001 -0.1438 -1.0091  0.6127
 2191Sol     HW11899   0.776   3.140   8.853  1.4169 -0.1190  0.2541
 2191Sol     MW11900   0.748   3.123   8.936  0.0886  0.1057  0.1893
 2192Sol     OW11901   0.578   0.796   5.134  0.4930 -0.4356 -0.0783
 2192Sol     HW11902   0.643   0.814   5.066  2.1579 -1.4483  1.2055
 2192Sol     HW11903   0.625   0.744   5.198 -1.8825 -2.0481  0.4039
 2192Sol     MW11904   0.588   0.793   5.133  0.1710  0.2130 -0.2269
 2193Sol     OW11905   2.992   2.753   5.633  0.1363 -0.5158 -0.2108
 2193Sol     HW11906   2.913   2.718   5.673  0.6731 -0.2680  1.0979
 2193Sol     HW11907   3.052   2.679   5.628  0.7540 -0.1432  1.2364
 2193Sol     MW11908   2.990   2.744   5.636 -0.9901 -0.0748 -0.0680
 2194Sol     OW11909   2.636   0.871   8.916 -0.1287  0.2396 -0.3705
 2194Sol     HW11910   2.622   0.888   9.009  2.2759  0.3158  0.0119
 2194Sol     HW11911   2.548   0.868   8.879 -1.2864 -2.2133  2.3157
 2194Sol     MW11912   2.627   0.872   8.921 -0.4337 -0.0970  0.2701
 2195Sol     OW11913   3.324   2.874   3.252 -0.1598 -0.1195  0.4252
 2195Sol     HW11914   3.246   2.822   3.271 -0.4253 -0.0953 -0.5871
 2195Sol     HW11915   3.296   2.965   3.259 -0.2123 -0.1109  0.1114
 2195Sol     MW11916   3.315   2.877   3.254 -0.5142 -0.1895  0.0613
 2196Sol     OW11917   2.206   1.744   2.402  0.2032  0.3410  0.1994
 2196Sol     HW11918   2.172   1.832   2.415  0.1969  0.7978 -2.7048
 2196Sol     HW11919   2.245   1.721   2.487 -1.0128  2.5609  1.4084
 2196Sol     MW11920   2.206   1.750   2.411  0.6870 -0.1380 -0.1328
 2197Sol     OW11921   1.517   1.669   2.540  0.7362  0.5086  0.1781
 2197Sol     HW11922   1.500   1.593   2.484  3.2036  0.9247 -1.1803
 2197Sol     HW11923   1.560   1.732   2.483 -1.3530  3.0245  1.2611
 2197Sol     MW11924   1.519   1.668   2.530  0.1540 -0.7593 -0.1986
 2198Sol     OW11925   0.042   2.465   1.981 -0.0045  0.4090  0.0361
 2198Sol     HW11926   0.099   2.450   1.906 -0.0954  1.2579 -0.2110
 2198Sol     HW11927  -0.036   2.414   1.962 -0.2615  1.0655 -0.7308
 2198Sol     MW11928   0.040   2.459   1.973 -0.0990  0.0497  0.1230
 2199Sol     OW11929   2.161   0.006   8.325  0.4080  0.5223  0.2426
 2199Sol     HW11930   2.231   0.018   8.262 -0.3655  1.1731 -0.5092
 2199Sol     HW11931   2.109  -0.067   8.290  0.1389  0.6968  0.2735
 2199Sol     MW11932   2.162   0.001   8.316  0.0296 -0.2621  0.5041
 2200Sol     OW11933   0.031   0.448   1.697  0.3217  0.4697  0.3171
 2200Sol     HW11934   0.088   0.407   1.762  1.5713  1.3872 -0.1919
 2200Sol     HW11935   0.036   0.390   1.621 -0.4189 -0.1084  0.6941
 2200Sol     MW11936   0.036   0.439   1.696 -0.0837  0.1814 -0.4971
 2201Sol     OW11937   1.477   2.705   8.863 -0.2789 -0.2190 -0.1314
 2201Sol     HW11938   1.439   2.618   8.849 -0.0803 -0.2685 -0.3658
 2201Sol     HW11939   1.446   2.731   8.950  1.5030 -1.4937  0.9178
 2201Sol     MW11940   1.471   2.699   8.870  0.3671 -0.5951 -0.4276
 2202Sol     OW11941   2.842   3.049   3.940  0.3967  0.4549 -0.1146
 2202Sol     HW11942   2.748   3.034   3.941  0.5693 -0.6464  0.5213
 2202Sol     HW11943   2.852   3.143   3.959 -0.6406  1.0301 -2.3057
 2202Sol     MW11944   2.835   3.056   3.942 -0.1298  0.2065  0.8819
 2203Sol     OW11945   2.602   0.364   6.186  0.0227 -0.3592  0.4914
 2203Sol     HW11946   2.519   0.396   6.221  0.6013  0.6740  0.9255
 2203Sol     HW11947   2.654   0.343   6.263  0.3000 -0.6552  0.2238
 2203Sol     MW11948   2.599   0.365   6.196 -0.0819 -0.1629  0.2741
 2204Sol     OW11949   2.117   3.330   7.672 -0.7905  0.4815  1.1676
 2204Sol     HW11950   2.138   3.306   7.582 -0.1824  0.6811  1.2496
 2204Sol     HW11951   2.110   3.426   7.670  0.4759  0.5905  1.5807
 2204Sol     MW11952   2.118   3.337   7.664  0.3370 -0.0642 -0.5690
 2205Sol     OW11953   1.060   0.537   3.285  0.1800 -0.1286 -0.1695
 2205Sol     HW11954   1.143   0.579   3.306  0.7014 -1.3487  0.2540
 2205Sol     HW11955   1.083   0.462   3.230 -0.6683 -0.2462 -0.3773
 2205Sol     MW11956   1.069   0.534   3.282  0.2819 -0.4562 -0.1370
 2206Sol     OW11957   2.990   1.006   5.723 -0.6244  0.2567  0.4110
 2206Sol     HW11958   2.994   1.031   5.630 -1.3366 -0.1926  0.2479
 2206Sol     HW11959   3.065   1.049   5.763 -1.3993  2.0156 -0.0012
 2206Sol     MW11960   2.997   1.012   5.718  0.5370 -0.0130  0.0765
 2207Sol     OW11961   3.256   2.159   5.062 -0.5757 -0.6177 -0.4074
 2207Sol     HW11962   3.332   2.121   5.106  0.1695  2.2434  0.9473
 2207Sol     HW11963   3.197   2.185   5.133 -0.6506  1.4564 -1.1859
 2207Sol     MW11964   3.258   2.158   5.072 -0.7106  0.8118 -0.2743
 2208Sol     OW11965   0.860   0.226   4.568 -0.1342  0.1150  0.6719
 2208Sol     HW11966   0.767   0.231   4.547 -0.1139 -1.8725  0.1032
 2208Sol     HW11967   0.891   0.316   4.558 -1.4189  0.3263 -1.7778
 2208Sol     MW11968   0.855   0.235   4.565  0.2973  0.5414 -0.0737
 2209Sol     OW11969   2.967   0.672   6.254 -0.0201  0.1220  0.3184
 2209Sol     HW11970   2.915   0.674   6.334  0.1575 -1.4721  0.4766
 2209Sol     HW11971   3.023   0.749   6.261  0.9391 -0.7225  2.3619
 2209Sol     MW11972   2.967   0.679   6.262  0.0299 -0.5315 -0.4034
 2210Sol     OW11973   3.220   2.434   6.634 -0.3864 -0.0336 -0.4124
 2210Sol     HW11974   3.167   2.357   6.615 -0.1040 -0.2398 -0.3724
 2210Sol     HW11975   3.307   2.399   6.653  0.3970  0.4475 -2.8728
 2210Sol     MW11976   3.223   2.424   6.634  0.0312 -0.1183 -0.1732
 2211Sol     OW11977   1.259   1.550   4.833 -0.5553 -0.1457  0.5466
 2211Sol     HW11978   1.179   1.515   4.794 -0.8680  0.1372  0.9310
 2211Sol     HW11979   1.229   1.625   4.885  0.0335  0.3389  0.1909
 2211Sol     MW11980   1.249   1.554   4.834 -0.5650 -0.3297 -0.3155
 2212Sol     OW11981   2.223   2.787   4.697  0.0230 -0.4796 -0.1073
 2212Sol     HW11982   2.152   2.735   4.660  1.7530 -2.4360 -0.8422
 2212Sol     HW11983   2.209   2.875   4.663 -1.3396 -1.1275 -1.2739
 2212Sol     MW11984   2.216   2.790   4.690 -0.7834  0.1026 -0.7661
 2213Sol     OW11985   2.516   2.254   5.216  0.2920 -0.0666 -0.0028
 2213Sol     HW11986   2.537   2.163   5.239  1.8059  0.0484 -0.9195
 2213Sol     HW11987   2.484   2.249   5.126 -0.2619  0.2412  0.1703
 2213Sol     MW11988   2.515   2.245   5.210 -0.3382  0.3808 -0.5812
 2214Sol     OW11989   1.002   1.363   8.628  0.2502 -0.1038  0.7797
 2214Sol     HW11990   1.093   1.391   8.616 -0.5131  2.1008  0.0016
 2214Sol     HW11991   0.974   1.407   8.709 -0.0826 -0.9056  1.1030
 2214Sol     MW11992   1.008   1.369   8.635  0.0287 -0.0575  0.2520
 2215Sol     OW11993   2.381   0.490   6.993 -0.0048 -0.0431  0.2731
 2215Sol     HW11994   2.411   0.497   6.903 -1.1599 -0.1449 -0.1357
 2215Sol     HW11995   2.294   0.450   6.986 -1.0151  1.9020  1.2628
 2215Sol     MW11996   2.376   0.487   6.985 -0.9741 -0.1259 -0.0612
 2216Sol     OW11997   1.991   1.103   9.458 -0.1069 -0.1818 -0.4271
 2216Sol     HW11998   1.907   1.079   9.420 -1.1010  0.0718  1.5817
 2216Sol     HW11999   1.970   1.166   9.527  2.0105  2.4263 -2.0527
 2216Sol     MW12000   1.982   1.107   9.461 -0.2627  0.7958 -0.6250
 2217Sol     OW12001   0.540   2.447   4.858 -0.1694 -0.1870 -0.8664
 2217Sol     HW12002   0.558   2.458   4.765  0.0306 -1.1969 -0.9523
 2217Sol     HW12003   0.513   2.356   4.867  0.9427 -0.4164  0.2373
 2217Sol     MW12004   0.539   2.440   4.851  0.0332  0.1255  0.2043
 2218Sol     OW12005   0.006   2.311   5.885 -0.0060 -0.5969 -0.8876
 2218Sol     HW12006   0.043   2.392   5.851  2.2322 -1.4063 -0.4769
 2218Sol     HW12007   0.076   2.247   5.875  0.2266 -1.2426  3.6888
 2218Sol     MW12008   0.016   2.313   5.881 -0.2832 -0.3825  0.2889
 2219Sol     OW12009   0.973   0.129   4.288  0.4220 -0.2158  0.4874
 2219Sol     HW12010   0.946   0.116   4.378 -2.4055  0.1997 -0.2698
 2219Sol     HW12011   0.912   0.077   4.236  1.4408  0.2844 -1.2683
 2219Sol     MW12012   0.965   0.123   4.291 -0.1091 -0.1301  0.2712
 2220Sol     OW12013   2.569   2.046   6.074 -0.1424 -0.1035  0.8764
 2220Sol     HW12014   2.624   2.045   5.995  1.7324  1.3435  2.0867
 2220Sol     HW12015   2.572   1.956   6.106 -0.1027 -0.4862 -0.1699
 2220Sol     MW12016   2.575   2.038   6.069 -0.4279 -0.2557  0.6997
 2221Sol     OW12017   1.111   1.140   4.986 -0.0417  0.1469 -0.6555
 2221Sol     HW12018   1.137   1.156   4.895  1.7893  0.0278 -0.1790
 2221Sol     HW12019   1.175   1.076   5.018 -0.1419  0.8463  0.9833
 2221Sol     MW12020   1.119   1.136   4.981  0.2383  0.3520  0.0599
 2222Sol     OW12021   1.335   1.921   8.604  0.0347  0.5010  0.2690
 2222Sol     HW12022   1.261   1.860   8.598  0.4904 -0.0507  0.2215
 2222Sol     HW12023   1.412   1.865   8.596  0.4666  1.0213  0.8493
 2222Sol     MW12024   1.335   1.910   8.603  0.0102  0.6823 -0.3585
 2223Sol     OW12025   1.219   0.092   8.343  0.4141 -0.2866 -0.1189
 2223Sol     HW12026   1.235   0.015   8.288 -1.3043 -0.5470 -0.2897
 2223Sol     HW12027   1.135   0.074   8.385  0.1019  1.4229  0.0019
 2223Sol     MW12028   1.213   0.083   8.342 -0.3825 -0.4358  0.4068
 2224Sol     OW12029   0.778   2.766   1.871  0.4918 -0.2219  0.1686
 2224Sol     HW12030   0.718   2.791   1.801  3.2838 -0.8098 -2.5415
 2224Sol     HW12031   0.801   2.848   1.914 -0.9430  0.1906  0.1695
 2224Sol     MW12032   0.775   2.776   1.869  0.3834  0.4345  0.7587
 2225Sol     OW12033   1.174   0.590   6.894 -0.3587  0.7455 -0.4210
 2225Sol     HW12034   1.245   0.527   6.884  0.3448  1.0989  1.9277
 2225Sol     HW12035   1.097   0.537   6.916 -0.3927  0.5172 -1.0743
 2225Sol     MW12036   1.173   0.580   6.895 -0.6542 -0.3381  0.8642
 2226Sol     OW12037   2.328   1.425   3.836 -0.4734 -0.2241  0.1366
 2226Sol     HW12038   2.417   1.459   3.821 -0.7085  0.2552 -0.1660
 2226Sol     HW12039   2.298   1.397   3.750  0.2506 -2.5201  0.5994
 2226Sol     MW12040   2.334   1.426   3.827  0.0381  0.3806 -0.1562
 2227Sol     OW12041   3.061   2.722   9.387 -0.6942  0.2836 -0.2232
 2227Sol     HW12042   3.081   2.752   9.299  3.0278  0.7355  0.6897
 2227Sol     HW12043   3.021   2.798   9.430  0.0707  0.9655 -0.7113
 2227Sol     MW12044   3.059   2.732   9.383  0.2799 -0.5113  0.0053
 2228Sol     OW12045   1.667   3.161   2.912 -0.3822 -0.0190 -0.2706
 2228Sol     HW12046   1.674   3.187   3.004 -0.7611  0.6684 -0.4337
 2228Sol     HW12047   1.710   3.076   2.908  0.6239  0.4584  0.3251
 2228Sol     MW12048   1.671   3.156   2.920  0.5183  0.2096  0.1294
 2229Sol     OW12049   2.012   1.122   2.010 -0.2478 -0.4407  0.4855
 2229Sol     HW12050   2.050   1.058   1.950 -0.1817  1.0244 -1.0849
 2229Sol     HW12051   2.065   1.115   2.089  1.5386 -0.4212 -0.6593
 2229Sol     MW12052   2.020   1.116   2.011 -0.1963 -0.1488 -0.3460
 2230Sol     OW12053   1.794   0.235   4.466  0.0456  0.1394 -0.1999
 2230Sol     HW12054   1.829   0.148   4.487  0.1847  0.0813 -0.6635
 2230Sol     HW12055   1.871   0.291   4.462 -0.1518  0.5441  1.3099
 2230Sol     MW12056   1.804   0.232   4.467  0.3359 -0.2253 -0.0029
 2231Sol     OW12057   1.482   2.151   9.705  0.5847  0.2512  0.9538
 2231Sol     HW12058   1.567   2.143   9.661  0.6298  0.1815  1.0522
 2231Sol     HW12059   1.483   2.082   9.772  0.6124  0.5052  1.2167
 2231Sol     MW12060   1.490   2.144   9.707 -0.0237 -0.1641 -0.0907
 2232Sol     OW12061   2.018   1.371   4.964 -0.5782  0.2187 -0.9707
 2232Sol     HW12062   1.986   1.362   4.875  0.8539  0.4768 -1.5178
 2232Sol     HW12063   2.026   1.465   4.977  0.5550  0.1348 -1.0550
 2232Sol     MW12064   2.016   1.379   4.957  0.0883  0.4862  0.2928
 2233Sol     OW12065   2.996   1.419   6.920 -0.3577 -0.4707  0.0034
 2233Sol     HW12066   2.947   1.354   6.870  0.2607 -0.2976 -0.8406
 2233Sol     HW12067   2.929   1.479   6.955 -0.7480 -0.2476 -1.1166
 2233Sol     MW12068   2.985   1.419   6.919  0.3497 -0.1514  0.0885
 2234Sol     OW12069   1.264   1.366   4.517  0.0816 -0.2558 -0.2791
 2234Sol     HW12070   1.197   1.383   4.583  0.5803  2.1666 -0.3487
 2234Sol     HW12071   1.347   1.379   4.563  0.4547 -0.2942 -0.9330
 2234Sol     MW12072   1.266   1.369   4.527 -0.3101 -0.1306 -0.1220
 2235Sol     OW12073   0.124   1.727   5.828  0.6649 -0.0515  0.0962
 2235Sol     HW12074   0.194   1.707   5.891 -1.4848  0.4724  2.7525
 2235Sol     HW12075   0.061   1.778   5.878 -0.9253  0.7867 -2.6622
 2235Sol     MW12076   0.125   1.729   5.838 -0.6584 -0.4245  0.0809
 2236Sol     OW12077   3.152   0.389   6.510  0.0934 -0.6918 -0.3234
 2236Sol     HW12078   3.188   0.381   6.598 -0.5065 -1.7626 -0.1623
 2236Sol     HW12079   3.227   0.408   6.454  0.4658  0.0452  0.4291
 2236Sol     MW12080   3.162   0.390   6.513 -0.2204  0.0398 -0.4436
 2237Sol     OW12081   2.579   1.372   5.773  0.0800  0.5947 -0.7453
 2237Sol     HW12082   2.671   1.379   5.797  0.3674  0.1713 -1.6921
 2237Sol     HW12083   2.577   1.307   5.703 -1.0640 -0.1169 -0.0634
 2237Sol     MW12084   2.587   1.367   5.769 -0.2518 -0.2962 -0.2801
 2238Sol     OW12085   0.680   3.095   8.337 -1.2462 -0.2250  0.0562
 2238Sol     HW12086   0.705   3.028   8.401  1.1557  0.1507 -0.4332
 2238Sol     HW12087   0.737   3.170   8.356 -3.5248  1.4943  0.2434
 2238Sol     MW12088   0.688   3.096   8.344  0.7233  0.0200 -0.3301
 2239Sol     OW12089   1.847   2.242   9.429 -0.4812  0.0966  0.1113
 2239Sol     HW12090   1.813   2.214   9.514  1.0272 -0.3166  0.6010
 2239Sol     HW12091   1.784   2.306   9.398 -0.8911  0.4972  1.7035
 2239Sol     MW12092   1.838   2.246   9.434 -0.1543  0.3164 -0.0049
 2240Sol     OW12093   2.046   3.256   8.151 -0.4778 -0.1889  0.0378
 2240Sol     HW12094   2.060   3.213   8.067  0.1314  0.0686  0.0057
 2240Sol     HW12095   2.028   3.184   8.212  0.8060 -0.5236  0.0396
 2240Sol     MW12096   2.046   3.246   8.149 -0.4452 -0.2685  0.4071
 2241Sol     OW12097   1.191   0.346   2.433 -0.2797  0.3658  0.2568
 2241Sol     HW12098   1.235   0.310   2.509  1.7211  2.3042  0.0660
 2241Sol     HW12099   1.101   0.313   2.439  0.8904 -2.8271  1.2002
 2241Sol     MW12100   1.187   0.340   2.440  0.1355  0.4086 -0.1010
 2242Sol     OW12101   1.378   2.719   2.036  0.3651 -0.4824  0.2197
 2242Sol     HW12102   1.466   2.756   2.025 -0.3200  0.3863 -2.6539
 2242Sol     HW12103   1.325   2.761   1.969 -1.3830 -3.7170 -0.5427
 2242Sol     MW12104   1.381   2.726   2.029 -0.1347 -0.4002  0.2440
 2243Sol     OW12105   3.145   0.406   1.845  0.3070  0.1291  0.3218
 2243Sol     HW12106   3.219   0.407   1.785  0.8009  0.3345  0.9374
 2243Sol     HW12107   3.072   0.441   1.793  1.2542  2.5156  0.4987
 2243Sol     MW12108   3.145   0.410   1.835  0.0021 -0.6116  0.6066
 2244Sol     OW12109   1.446   1.839   6.311  0.0469 -0.4028 -0.3003
 2244Sol     HW12110   1.527   1.818   6.264  0.1055  0.5153 -0.6191
 2244Sol     HW12111   1.391   1.881   6.246  0.1574  0.9393  0.4700
 2244Sol     MW12112   1.449   1.840   6.301 -0.4508 -0.3545 -0.6240
 2245Sol     OW12113   1.233   0.236   6.727  0.0793 -0.5764 -0.3903
 2245Sol     HW12114   1.143   0.260   6.703  0.4733  1.0904 -0.2514
 2245Sol     HW12115   1.278   0.320   6.737  0.6377 -1.2499  3.5292
 2245Sol     MW12116   1.229   0.246   6.725  0.2423 -0.0062  0.7323
 2246Sol     OW12117   1.962   2.171   6.001 -0.1170  0.5306 -0.2665
 2246Sol     HW12118   1.900   2.242   6.018 -0.4271  0.0439  0.6619
 2246Sol     HW12119   2.014   2.202   5.927 -0.8146  1.3615 -0.4185
 2246Sol     MW12120   1.961   2.180   5.996  0.3145  0.4269  0.1660
 2247Sol     OW12121   2.397   3.251   1.793  0.2675  0.8393  0.0989
 2247Sol     HW12122   2.362   3.170   1.828  2.1686 -0.0143  0.1092
 2247Sol     HW12123   2.365   3.319   1.852  0.3157 -0.1388  1.2630
 2247Sol     MW12124   2.391   3.250   1.801  0.5690 -0.6890  0.1718
 2248Sol     OW12125   2.263   2.731   8.245  0.0426 -0.3215 -0.6537
 2248Sol     HW12126   2.346   2.730   8.291  0.0609  0.0390 -0.6738
 2248Sol     HW12127   2.199   2.697   8.309  0.6674 -3.4154 -1.5844
 2248Sol     MW12128   2.264   2.728   8.255  0.2547  0.3246 -0.0358
 2249Sol     OW12129   0.940   2.092   6.837 -0.4251  0.0147 -0.1684
 2249Sol     HW12130   0.953   2.119   6.928  0.1757  0.5225 -0.4073
 2249Sol     HW12131   0.914   2.172   6.792 -0.3071 -0.1517 -0.5287
 2249Sol     MW12132   0.939   2.101   6.841  0.0503  0.3830 -0.5557
 2250Sol     OW12133   3.298   0.600   9.541  0.4216 -0.1505  0.0596
 2250Sol     HW12134   3.379   0.559   9.572  0.3177  0.1686  0.7771
 2250Sol     HW12135   3.236   0.529   9.532 -0.1586 -0.0053  2.5873
 2250Sol     MW12136   3.300   0.590   9.543  0.0108  0.0726 -0.2309
 2251Sol     OW12137   2.357   3.277   7.859  1.1278  0.1246 -0.0569
 2251Sol     HW12138   2.351   3.220   7.935  0.0790  1.5264  0.9231
 2251Sol     HW12139   2.317   3.226   7.788  2.0212 -1.1411  0.3379
 2251Sol     MW12140   2.353   3.267   7.859  0.8193  0.3952  0.2256
 2252Sol     OW12141   0.735   0.146   9.886  0.1152  0.2090 -0.2932
 2252Sol     HW12142   0.682   0.068   9.869  0.5264 -0.1026 -0.1611
 2252Sol     HW12143   0.711   0.206   9.816 -0.9017  0.3246  0.1584
 2252Sol     MW12144   0.728   0.144   9.878 -0.3229  1.1326 -0.4169
 2253Sol     OW12145   2.556   2.433   3.888  0.3668 -0.4158  0.3533
 2253Sol     HW12146   2.593   2.379   3.818  2.0074 -0.0821  0.9410
 2253Sol     HW12147   2.471   2.460   3.854  0.3140 -1.8486 -0.7072
 2253Sol     MW12148   2.552   2.431   3.878 -0.0321 -0.2474 -0.8855
 2254Sol     OW12149   1.850   1.270   4.772 -0.0518  0.5758  0.2331
 2254Sol     HW12150   1.940   1.244   4.753 -0.3615 -0.4561  0.1314
 2254Sol     HW12151   1.797   1.202   4.730 -0.9112  1.7783 -0.6700
 2254Sol     MW12152   1.853   1.262   4.766 -0.0728  0.4190 -0.1362
 2255Sol     OW12153   2.456   3.236   5.322 -0.3582 -0.5185 -0.1802
 2255Sol     HW12154   2.454   3.215   5.416 -0.1228  0.2255 -0.0069
 2255Sol     HW12155   2.364   3.234   5.295 -0.5628  0.6588  0.3860
 2255Sol     MW12156   2.447   3.234   5.328 -0.6230  0.0534  0.3547
 2256Sol     OW12157   2.649   3.233   6.815 -0.4791 -0.3344 -0.2236
 2256Sol     HW12158   2.666   3.226   6.909 -1.4381  0.2536  0.0126
 2256Sol     HW12159   2.562   3.275   6.810  0.0445  0.6503 -1.3756
 2256Sol     MW12160   2.642   3.236   6.823  0.3008  0.2994  0.2926
 2257Sol     OW12161   2.051   0.743   2.370  0.3148  0.3968  0.3047
 2257Sol     HW12162   2.063   0.651   2.347 -0.6967  0.4368 -0.4329
 2257Sol     HW12163   1.988   0.776   2.305  0.9995  1.7203  0.2996
 2257Sol     MW12164   2.046   0.738   2.362 -0.1016  0.4154  0.5037
 2258Sol     OW12165   0.960   0.687   6.534 -0.2961 -0.1402 -0.1026
 2258Sol     HW12166   0.915   0.730   6.461 -0.9667 -3.0313 -1.4610
 2258Sol     HW12167   1.048   0.723   6.533 -0.8930  1.3315 -1.0735
 2258Sol     MW12168   0.964   0.694   6.528  0.0635 -0.0961 -0.0946
 2259Sol     OW12169   1.059   2.396   9.559 -0.2586  0.1139 -0.1556
 2259Sol     HW12170   1.101   2.409   9.644 -1.1695 -0.8862  0.4688
 2259Sol     HW12171   1.117   2.439   9.496  0.1893  1.2659  1.0212
 2259Sol     MW12172   1.068   2.401   9.561  0.5726 -0.4635  0.1292
 2260Sol     OW12173   2.405   1.247   7.094 -0.3662  0.1436  0.0545
 2260Sol     HW12174   2.461   1.171   7.108 -0.6069  0.1712  1.2730
 2260Sol     HW12175   2.378   1.241   7.003  0.4937 -0.6332 -0.1553
 2260Sol     MW12176   2.407   1.240   7.087 -0.8406  0.1178  0.0631
 2261Sol     OW12177   1.526   3.163   8.071 -0.0098  0.3679  0.0091
 2261Sol     HW12178   1.585   3.162   8.147  0.8491  2.5729 -0.5756
 2261Sol     HW12179   1.584   3.181   7.997 -1.2018  0.8263 -0.8175
 2261Sol     MW12180   1.537   3.165   8.072  0.2696 -0.2908  0.1533
 2262Sol     OW12181   2.758   3.101   8.105 -0.5309 -0.0625  0.1629
 2262Sol     HW12182   2.737   3.143   8.022 -2.6043  0.4518  0.9067
 2262Sol     HW12183   2.690   3.035   8.117  0.0140 -0.4467  1.2230
 2262Sol     MW12184   2.750   3.099   8.099 -0.4913 -0.0139 -0.0337
 2263Sol     OW12185   3.024   2.530   9.033 -0.3831  0.0465  0.5730
 2263Sol     HW12186   2.989   2.526   8.944  2.7415  0.9148 -0.7591
 2263Sol     HW12187   2.999   2.616   9.066  1.2512  1.0247 -0.7072
 2263Sol     MW12188   3.019   2.537   9.028 -0.5655  0.3633  0.1887
 2264Sol     OW12189   2.441   2.242   4.936  0.0726  0.6244  0.9915
 2264Sol     HW12190   2.448   2.166   4.878  2.8097  0.6499  1.2060
 2264Sol     HW12191   2.350   2.242   4.964 -0.7775 -0.6919 -1.5407
 2264Sol     MW12192   2.433   2.235   4.933 -0.3068  0.0742 -0.4479
 2265Sol     OW12193   1.000   1.444   1.461  0.1212  0.4302  0.0797
 2265Sol     HW12194   1.071   1.402   1.412  1.5769  2.2483  0.5453
 2265Sol     HW12195   1.021   1.426   1.553 -0.6323  0.0347  0.1743
 2265Sol     MW12196   1.008   1.439   1.465  0.8230  0.2005  0.2422
 2266Sol     OW12197   2.065   2.083   7.819  0.2928  0.3248 -0.0736
 2266Sol     HW12198   2.126   2.045   7.756 -0.2444  0.5382 -0.7168
 2266Sol     HW12199   2.096   2.173   7.831 -0.7126  0.8675 -1.4519
 2266Sol     MW12200   2.074   2.087   7.815 -0.0624  0.3465 -0.4425
 2267Sol     OW12201   2.863   0.536   7.675 -0.0949  0.2898  0.7464
 2267Sol     HW12202   2.920   0.494   7.610 -0.5085 -0.1245  0.6464
 2267Sol     HW12203   2.900   0.510   7.759  0.5269  0.9426  0.6830
 2267Sol     MW12204   2.871   0.530   7.676  0.0623 -0.4719 -0.4816
 2268Sol     OW12205   3.033   2.078   4.256 -0.3115 -0.6298  0.0538
 2268Sol     HW12206   2.954   2.043   4.296  0.4825 -1.7040  0.7185
 2268Sol     HW12207   3.006   2.107   4.169 -1.1052 -2.4528 -0.3260
 2268Sol     MW12208   3.024   2.077   4.251  0.2998  0.3245  0.1618
 2269Sol     OW12209   1.662   2.394   5.723 -0.0742 -0.3752  0.0222
 2269Sol     HW12210   1.694   2.318   5.675 -0.8625  0.7021 -2.2774
 2269Sol     HW12211   1.621   2.357   5.802  0.1074 -2.2854 -0.7580
 2269Sol     MW12212   1.661   2.384   5.726  0.0862  0.3324  0.7318
 2270Sol     OW12213   0.635   1.436   8.068 -0.6931 -0.2258  0.1485
 2270Sol     HW12214   0.669   1.351   8.096 -0.5402  0.1183  1.0036
 2270Sol     HW12215   0.651   1.438   7.974  0.4725 -0.6157  0.3281
 2270Sol     MW12216   0.639   1.428   8.062  0.2503 -0.9380  0.0678
 2271Sol     OW12217   0.672   0.106   1.401 -0.2899 -0.4487 -0.1163
 2271Sol     HW12218   0.591   0.061   1.380 -0.2992 -0.5241  0.0859
 2271Sol     HW12219   0.737   0.066   1.342 -0.2265 -0.9622  0.3010
 2271Sol     MW12220   0.671   0.099   1.394 -0.1186  0.0533  0.5501
 2272Sol     OW12221   1.656   3.116   1.845 -0.4445 -0.3802 -0.4737
 2272Sol     HW12222   1.574   3.118   1.796 -0.2832 -1.6085 -0.8032
 2272Sol     HW12223   1.724   3.124   1.778 -0.2585 -0.8611 -0.3451
 2272Sol     MW12224   1.655   3.117   1.835  0.2819 -0.2291  0.0839
 2273Sol     OW12225   0.623   1.574   4.529 -0.1272  0.3610 -0.2809
 2273Sol     HW12226   0.540   1.618   4.547  0.5946  1.9936 -0.8437
 2273Sol     HW12227   0.686   1.617   4.587  0.1598 -1.5082  0.8371
 2273Sol     MW12228   0.621   1.582   4.536 -0.0813  0.5374 -0.0941
 2274Sol     OW12229   1.214   2.544   3.144 -0.5307 -0.6728  0.1236
 2274Sol     HW12230   1.135   2.511   3.187 -0.5439  0.6563  1.1116
 2274Sol     HW12231   1.181   2.605   3.078 -0.2902  0.6663  1.2269
 2274Sol     MW12232   1.204   2.546   3.142 -0.3116  0.1618 -0.5885
 2275Sol     OW12233   2.165   2.209   3.349  0.0319 -0.0796 -0.2119
 2275Sol     HW12234   2.157   2.202   3.254 -1.1456 -0.3952 -0.0882
 2275Sol     HW12235   2.162   2.303   3.366 -0.8391 -0.0771 -0.3870
 2275Sol     MW12236   2.164   2.217   3.342  0.5928  0.1681 -0.2784
 2276Sol     OW12237   3.245   2.292   7.027 -0.2069  0.1354  0.4263
 2276Sol     HW12238   3.195   2.240   7.090  0.1539 -0.3633  0.3055
 2276Sol     HW12239   3.258   2.234   6.952  2.8929 -0.7084  1.5317
 2276Sol     MW12240   3.242   2.282   7.026 -0.2645  0.0473  0.0797
 2277Sol     OW12241   1.588   1.064   2.754  0.3640 -0.6064  0.0365
 2277Sol     HW12242   1.509   1.117   2.764  0.6145 -0.7153  3.0800
 2277Sol     HW12243   1.618   1.048   2.843  1.4308 -4.2170 -0.8667
 2277Sol     MW12244   1.584   1.067   2.763 -0.2332  0.2621 -0.3303
 2278Sol     OW12245   3.088   2.753   3.320 -0.2324 -0.1312  0.4297
 2278Sol     HW12246   3.032   2.814   3.272 -2.0150 -2.5727 -0.7383
 2278Sol     HW12247   3.056   2.756   3.410 -0.1215  0.8504  0.4376
 2278Sol     MW12248   3.080   2.759   3.323  0.0604 -0.0579 -0.5413
 2279Sol     OW12249   0.262   1.071   4.728  0.7980  0.4461  0.2282
 2279Sol     HW12250   0.356   1.091   4.726  1.0122 -0.4597  0.6950
 2279Sol     HW12251   0.219   1.156   4.730  1.6032  0.8789 -0.3666
 2279Sol     MW12252   0.267   1.080   4.728  0.4816 -0.0283  0.5390
 2280Sol     OW12253   0.676   1.858   6.444 -0.0596  0.3771 -0.1777
 2280Sol     HW12254   0.689   1.906   6.526 -1.3425  0.5046 -0.0348
 2280Sol     HW12255   0.689   1.766   6.467  1.5380  0.5689 -0.2641
 2280Sol     MW12256   0.678   1.854   6.453 -0.0625  0.0047 -0.1441
 2281Sol     OW12257   0.369   2.991   5.272 -0.2328  0.1995  0.0881
 2281Sol     HW12258   0.310   2.930   5.315 -0.2213  1.0592  1.3562
 2281Sol     HW12259   0.346   2.986   5.179 -1.6775 -0.1444  0.4560
 2281Sol     MW12260   0.362   2.985   5.268 -0.4024  0.4421  0.3153
 2282Sol     OW12261   2.005   3.137   6.763 -0.3460  0.2888  0.1972
 2282Sol     HW12262   1.973   3.096   6.683  0.2752  2.8857 -1.4582
 2282Sol     HW12263   1.926   3.155   6.815 -0.8792 -0.1969 -0.4410
 2282Sol     MW12264   1.995   3.135   6.761 -0.5630 -0.4310  0.0720
 2283Sol     OW12265   1.589   0.829   3.808 -0.5621  0.7031 -0.1519
 2283Sol     HW12266   1.575   0.735   3.806  0.5286  0.5250  0.3733
 2283Sol     HW12267   1.608   0.849   3.899 -0.3833  1.3727 -0.3313
 2283Sol     MW12268   1.589   0.822   3.816 -0.3446  0.1973 -0.3272
 2284Sol     OW12269   0.516   1.379   5.479  0.1712  0.7852  0.0403
 2284Sol     HW12270   0.542   1.322   5.552  0.3910  2.2158  1.1089
 2284Sol     HW12271   0.450   1.329   5.432 -0.2647 -0.0082  1.4671
 2284Sol     MW12272   0.513   1.370   5.482  0.4998 -0.2217  0.5982
 2285Sol     OW12273   0.652   2.599   9.581  0.1165 -0.3850  0.0193
 2285Sol     HW12274   0.696   2.661   9.522 -1.7263  0.9474 -0.0166
 2285Sol     HW12275   0.648   2.517   9.531 -2.6666  1.1019 -2.3581
 2285Sol     MW12276   0.655   2.597   9.571 -0.3663  0.5240 -0.3478
 2286Sol     OW12277   1.803   0.301   8.812 -0.6567 -0.2769  0.1764
 2286Sol     HW12278   1.726   0.356   8.807 -0.1624  0.3267 -0.8346
 2286Sol     HW12279   1.872   0.350   8.767  0.7468 -0.0843  2.4529
 2286Sol     MW12280   1.802   0.310   8.807 -0.3393  0.0654  0.3931
 2287Sol     OW12281   0.265   0.195   2.954 -0.1847 -0.1092 -0.3229
 2287Sol     HW12282   0.240   0.262   2.889  0.4704 -0.3439 -0.8224
 2287Sol     HW12283   0.283   0.245   3.034  1.4718  0.4541 -1.0221
 2287Sol     MW12284   0.265   0.206   2.955  0.2084  0.4893  0.7641
 2288Sol     OW12285   1.983   2.300   6.489 -0.0805  0.7037 -0.1985
 2288Sol     HW12286   1.909   2.240   6.472 -1.6423  3.0765 -2.1107
 2288Sol     HW12287   2.055   2.264   6.438  0.4341 -2.2103  2.4719
 2288Sol     MW12288   1.982   2.291   6.483  0.6621  0.3634 -0.0839
 2289Sol     OW12289   2.900   3.049   4.834 -0.5550 -0.4094  0.1629
 2289Sol     HW12290   2.832   2.987   4.809 -0.9797 -0.0097  0.3105
 2289Sol     HW12291   2.982   3.002   4.820 -0.8376 -0.6907 -0.5745
 2289Sol     MW12292   2.902   3.039   4.831 -0.4622 -0.2424  0.3943
 2290Sol     OW12293   2.529   1.940   5.309 -0.0820 -0.2966  0.1203
 2290Sol     HW12294   2.435   1.925   5.317 -0.3592  1.3005  0.0651
 2290Sol     HW12295   2.567   1.899   5.386 -1.0606  0.9376  1.2856
 2290Sol     MW12296   2.524   1.935   5.317  0.3470 -0.3151  0.2885
 2291Sol     OW12297   3.011   2.233   1.792 -0.0984  0.1936 -0.1946
 2291Sol     HW12298   2.972   2.320   1.802  2.3634  1.2698  0.5523
 2291Sol     HW12299   3.097   2.251   1.752  1.0062 -1.7711  1.2546
 2291Sol     MW12300   3.016   2.243   1.789  0.9904  0.0825 -0.0269
 2292Sol     OW12301   1.442   2.103   6.125 -0.3340  0.4711 -0.2870
 2292Sol     HW12302   1.410   2.152   6.201  0.7742 -0.1338  0.5931
 2292Sol     HW12303   1.368   2.046   6.101 -0.8688  1.0251  0.0207
 2292Sol     MW12304   1.432   2.102   6.130 -0.0290 -0.3064  0.4628
 2293Sol     OW12305   2.778   1.680   1.891 -0.3654  0.0379  0.0288
 2293Sol     HW12306   2.793   1.721   1.806  1.9605 -0.4125  0.2063
 2293Sol     HW12307   2.687   1.649   1.887 -0.3210  0.1523 -2.2221
 2293Sol     MW12308   2.771   1.681   1.883  0.5567 -0.6756  0.4561
 2294Sol     OW12309   0.712   0.162   1.697  0.0215  0.2074  0.8896
 2294Sol     HW12310   0.757   0.088   1.737  0.4764  0.0011  0.0001
 2294Sol     HW12311   0.729   0.154   1.603 -2.8307 -0.5142  0.3925
 2294Sol     MW12312   0.718   0.155   1.692 -0.4446 -0.4793  0.6788
 2295Sol     OW12313   0.854   0.524   5.068  0.5723 -0.3783 -0.3019
 2295Sol     HW12314   0.808   0.441   5.083  0.7483 -0.9464 -2.6374
 2295Sol     HW12315   0.806   0.565   4.996  3.3591 -0.7532 -2.4692
 2295Sol     MW12316   0.846   0.520   5.062 -0.1661  0.4571 -0.1479
 2296Sol     OW12317   1.321   1.714   5.229  0.5145 -0.1862  0.5458
 2296Sol     HW12318   1.375   1.778   5.183  0.8074 -0.5080  0.4440
 2296Sol     HW12319   1.362   1.630   5.211  0.0779 -0.4158  0.6069
 2296Sol     MW12320   1.329   1.713   5.223 -0.0299  0.1888  0.2337
 2297Sol     OW12321   2.876   0.914   8.757  0.4694 -0.6341 -0.5967
 2297Sol     HW12322   2.841   0.942   8.673  0.2694  2.8803  0.5766
 2297Sol     HW12323   2.799   0.904   8.814  0.8282  0.4610  0.1079
 2297Sol     MW12324   2.866   0.916   8.755  0.8192  0.4562 -0.5084
 2298Sol     OW12325   1.635   1.736   7.433 -0.4637  0.4391  0.4520
 2298Sol     HW12326   1.545   1.711   7.453  0.1250  0.5362  3.5120
 2298Sol     HW12327   1.650   1.816   7.483  1.2456  0.5065 -0.1258
 2298Sol     MW12328   1.628   1.741   7.440  0.6115  0.3133 -0.2113
 2299Sol     OW12329   1.755   1.133   2.521  0.9229 -0.4141 -0.3260
 2299Sol     HW12330   1.706   1.112   2.601 -0.1833  1.9318 -0.3340
 2299Sol     HW12331   1.837   1.172   2.553  0.7509 -0.0516 -0.3218
 2299Sol     MW12332   1.758   1.135   2.531  0.3631 -0.1662  0.2318
 2300Sol     OW12333   2.381   0.043   2.881  0.6697 -0.3469 -0.5328
 2300Sol     HW12334   2.332   0.100   2.940  0.4489 -0.0122 -1.0330
 2300Sol     HW12335   2.314  -0.007   2.834  0.5611  2.4329 -3.5917
 2300Sol     MW12336   2.371   0.044   2.882 -0.3479 -0.2372 -0.1635
 2301Sol     OW12337   0.155   1.742   2.369  0.3412 -0.2825 -0.2632
 2301Sol     HW12338   0.061   1.757   2.363  0.1048 -1.8018 -0.5535
 2301Sol     HW12339   0.182   1.722   2.279  0.6470 -1.4559  0.0789
 2301Sol     MW12340   0.149   1.741   2.360  0.0975 -0.5322  0.1066
 2302Sol     OW12341   2.475   3.307   8.269  0.7027 -0.0482 -0.2120
 2302Sol     HW12342   2.532   3.276   8.339 -0.4748  1.9861  1.7298
 2302Sol     HW12343   2.478   3.403   8.277 -1.9022  0.1286 -0.9406
 2302Sol     MW12344   2.480   3.313   8.276 -0.2584 -0.8271 -0.0014
 2303Sol     OW12345   2.463   0.346   2.520 -0.6994 -0.4454  0.4634
 2303Sol     HW12346   2.477   0.441   2.518 -2.8141 -0.1081  0.0470
 2303Sol     HW12347   2.542   0.311   2.560  0.5151  1.4143 -0.2135
 2303Sol     MW12348   2.471   0.352   2.523 -0.2176  0.1503 -0.0920
 2304Sol     OW12349   1.175   3.081   6.535 -0.2150 -0.0325  0.2843
 2304Sol     HW12350   1.192   2.988   6.550  1.6077  0.2718  0.2420
 2304Sol     HW12351   1.171   3.118   6.623  0.5545  0.0973  0.2651
 2304Sol     MW12352   1.176   3.076   6.544  0.3967  0.3936  0.4457
 2305Sol     OW12353   1.148   3.239   2.256 -0.7899  0.5061 -0.0428
 2305Sol     HW12354   1.136   3.187   2.336 -0.1449  2.1157  1.1366
 2305Sol     HW12355   1.061   3.275   2.237 -0.5162  1.9574  1.2739
 2305Sol     MW12356   1.139   3.238   2.262  0.3519 -0.1609  0.2062
 2306Sol     OW12357   0.529   3.279   2.328  0.7698 -0.1441  0.1832
 2306Sol     HW12358   0.578   3.197   2.324 -0.0451 -0.5796 -1.2808
 2306Sol     HW12359   0.521   3.298   2.422  1.8431 -1.1937  0.4994
 2306Sol     MW12360   0.532   3.274   2.336 -0.2768  0.3086  0.0211
 2307Sol     OW12361   0.836   2.563   5.677 -0.4548  0.7311  0.1524
 2307Sol     HW12362   0.822   2.481   5.630  1.4160 -0.2126  1.1692
 2307Sol     HW12363   0.751   2.584   5.716 -1.3013  0.0542 -1.2906
 2307Sol     MW12364   0.828   2.558   5.676 -0.2718  0.1001  0.8779
 2308Sol     OW12365   1.255   2.611   5.816 -0.3163  0.0240  0.0563
 2308Sol     HW12366   1.318   2.578   5.752  1.9880  2.7524  0.8068
 2308Sol     HW12367   1.269   2.557   5.894 -0.8609 -1.1789 -0.6675
 2308Sol     MW12368   1.262   2.604   5.817 -0.2118  0.1131 -0.0394
 2309Sol     OW12369   0.678   0.911   1.980 -0.9312  0.5983 -0.1823
 2309Sol     HW12370   0.658   0.906   1.886 -0.9368  2.3383 -0.3007
 2309Sol     HW12371   0.767   0.945   1.984 -0.4869 -0.6139  0.4389
 2309Sol     MW12372   0.684   0.914   1.972 -0.1578  0.5947  0.2979
 2310Sol     OW12373   0.606   3.009   9.612  0.2102  0.3685 -0.3691
 2310Sol     HW12374   0.543   2.950   9.652  2.2145  0.1084  2.5847
 2310Sol     HW12375   0.570   3.096   9.628 -0.7878  0.1132 -1.2036
 2310Sol     MW12376   0.597   3.012   9.617 -0.0890  0.7582  0.1489
 2311Sol     OW12377   3.074   3.199   5.624  0.2525  0.0294 -0.0603
 2311Sol     HW12378   3.095   3.128   5.685 -0.7812  0.0523  0.3420
 2311Sol     HW12379   3.030   3.264   5.678 -0.8251 -0.0233 -0.8635
 2311Sol     MW12380   3.072   3.198   5.634 -0.0159  0.1576 -0.1429
 2312Sol     OW12381   0.983   2.751   3.849  0.0732 -0.2159 -0.4425
 2312Sol     HW12382   1.056   2.813   3.839 -0.0202  0.0144  0.2428
 2312Sol     HW12383   0.919   2.778   3.783 -0.1140  0.6403  0.0810
 2312Sol     MW12384   0.984   2.759   3.842 -0.3255  0.5347 -0.2769
 2313Sol     OW12385   2.453   3.143   9.612 -0.2653  0.6335 -0.2368
 2313Sol     HW12386   2.426   3.054   9.633  0.5893  0.1676 -1.0527
 2313Sol     HW12387   2.424   3.157   9.522 -0.0416  1.0345 -0.2489
 2313Sol     MW12388   2.448   3.136   9.606  0.3833  0.2407  0.0817
 2314Sol     OW12389   2.606   2.622   5.989  0.0374  0.1691 -0.7147
 2314Sol     HW12390   2.518   2.588   6.007  0.4203 -1.4510 -1.7757
 2314Sol     HW12391   2.591   2.699   5.934 -0.7980  1.0029  0.6549
 2314Sol     MW12392   2.597   2.626   5.986  0.0076 -0.2131 -0.0592
 2315Sol     OW12393   2.689   1.888   2.077  0.6778  0.5650  0.5076
 2315Sol     HW12394   2.728   1.837   2.007  2.5477  0.1232  1.8198
 2315Sol     HW12395   2.663   1.824   2.143  1.0906  1.1192  1.2285
 2315Sol     MW12396   2.690   1.878   2.077  0.0368  0.2163  0.2274
 2316Sol     OW12397   1.119   0.069   6.284 -0.5296 -0.1166 -0.3563
 2316Sol     HW12398   1.118   0.047   6.191  0.1866  0.3815 -0.4877
 2316Sol     HW12399   1.210   0.056   6.310  0.2315  3.7789 -0.7287
 2316Sol     MW12400   1.127   0.066   6.278  0.1220 -0.0250 -0.1324
 2317Sol     OW12401   2.081   2.854   4.105 -0.0098 -0.7850  0.0852
 2317Sol     HW12402   2.113   2.768   4.133  1.1039 -0.2729  0.4284
 2317Sol     HW12403   2.153   2.890   4.052 -0.0756  0.3354  0.7512
 2317Sol     MW12404   2.091   2.850   4.102  0.4359 -0.1210 -0.1045
 2318Sol     OW12405   1.819   2.501   4.343  0.4897 -0.3229  0.2708
 2318Sol     HW12406   1.761   2.554   4.399 -0.1648 -1.1533  0.3820
 2318Sol     HW12407   1.847   2.562   4.274 -4.1374 -1.0067 -2.4532
 2318Sol     MW12408   1.816   2.511   4.342  0.3400 -0.2847  0.7186
 2319Sol     OW12409   2.214   0.582   5.821  0.0625  0.3110  0.0008
 2319Sol     HW12410   2.160   0.559   5.897 -1.5713  0.8597 -0.9557
 2319Sol     HW12411   2.155   0.573   5.747  1.2712  1.0795 -1.0706
 2319Sol     MW12412   2.204   0.579   5.822 -0.1322  0.0123  0.5872
 2320Sol     OW12413   0.317   1.849   3.472  0.0857 -0.3206 -0.2414
 2320Sol     HW12414   0.340   1.756   3.475 -0.6919 -0.5571 -1.1993
 2320Sol     HW12415   0.365   1.888   3.545 -1.2926 -1.8427  1.5165
 2320Sol     MW12416   0.324   1.844   3.479 -0.1571  0.1736  0.0234
 2321Sol     OW12417   2.858   1.934   6.157  0.0227  0.0257 -0.0880
 2321Sol     HW12418   2.779   1.884   6.177  0.2092 -0.2873 -0.1154
 2321Sol     HW12419   2.930   1.877   6.188  0.2825 -0.1260 -0.9649
 2321Sol     MW12420   2.858   1.924   6.162 -0.0166  0.1543 -0.3773
 2322Sol     OW12421   1.257   0.077   4.956 -0.0714 -0.0304  0.1576
 2322Sol     HW12422   1.254   0.109   4.865 -1.6283 -0.1513  0.1515
 2322Sol     HW12423   1.289   0.152   5.006  0.4827  0.1448 -0.4597
 2322Sol     MW12424   1.259   0.087   4.952  0.0993 -0.2977  0.1614
 2323Sol     OW12425   1.089   0.903   5.799  0.3359  0.1242  0.2222
 2323Sol     HW12426   1.121   0.848   5.727  0.5030 -1.0663  1.1959
 2323Sol     HW12427   1.168   0.944   5.834  0.4727 -0.6974  0.8796
 2323Sol     MW12428   1.099   0.901   5.795  0.5063  0.0387  0.5967
 2324Sol     OW12429   0.184   1.274   6.540  0.1950 -0.1630  0.8287
 2324Sol     HW12430   0.172   1.198   6.596 -1.2474  1.7254  3.1967
 2324Sol     HW12431   0.124   1.260   6.467  2.0635 -2.6421 -0.2797
 2324Sol     MW12432   0.177   1.266   6.539  0.4453  0.0661 -0.1152
 2325Sol     OW12433   0.285   1.645   6.048 -0.6918 -0.3808  0.3226
 2325Sol     HW12434   0.359   1.701   6.024 -2.0938  0.8446 -1.2457
 2325Sol     HW12435   0.234   1.696   6.110 -1.4913 -0.2670 -0.4204
 2325Sol     MW12436   0.287   1.654   6.051 -0.1691  0.2384 -0.0568
 2326Sol     OW12437   0.977   1.119   8.789  0.0977  0.1412  0.6916
 2326Sol     HW12438   0.959   1.191   8.729 -1.7211  0.3620  1.4693
 2326Sol     HW12439   1.070   1.101   8.778  0.2140  1.5182 -0.7042
 2326Sol     MW12440   0.984   1.124   8.782  0.8298  0.1970 -0.3475
 2327Sol     OW12441   1.135   3.075   4.038  0.4871 -0.0706  0.3276
 2327Sol     HW12442   1.052   3.029   4.052 -0.1490  0.7329 -0.7253
 2327Sol     HW12443   1.176   3.028   3.965  0.5277  0.0836  0.2494
 2327Sol     MW12444   1.131   3.067   4.032 -0.0580 -0.5408 -0.7285
 2328Sol     OW12445   0.749   2.986   8.075  0.0920  0.1955 -0.0341
 2328Sol     HW12446   0.731   3.045   8.148 -0.5496 -0.6543  0.5114
 2328Sol     HW12447   0.794   2.912   8.115  0.0872 -0.0960 -0.5664
 2328Sol     MW12448   0.751   2.985   8.085  0.3338  0.3401  0.0555
 2329Sol     OW12449   1.225   2.855   1.855  0.0805 -0.0329 -0.6280
 2329Sol     HW12450   1.198   2.776   1.808  0.1718  0.7166 -1.9574
 2329Sol     HW12451   1.166   2.924   1.823 -0.6806  0.2451  1.2781
 2329Sol     MW12452   1.217   2.854   1.848  0.0078  0.3819  0.3045
 2330Sol     OW12453   1.274   0.276   5.147 -0.3967 -0.0867 -0.9358
 2330Sol     HW12454   1.266   0.202   5.208  1.9564  0.1814 -0.2586
 2330Sol     HW12455   1.198   0.330   5.165 -2.1460 -2.3155 -1.4066
 2330Sol     MW12456   1.267   0.274   5.154 -0.0438 -0.3935 -0.2098
 2331Sol     OW12457   2.649   1.833   6.994 -0.4784 -0.4761  0.3152
 2331Sol     HW12458   2.622   1.852   7.084  0.1387  0.1403  0.3710
 2331Sol     HW12459   2.567   1.827   6.945 -0.7751  0.0370  0.7500
 2331Sol     MW12460   2.639   1.834   6.998  0.5623 -0.2764 -0.2238
 2332Sol     OW12461   0.769   1.700   7.887  0.1063 -0.3195  0.8098
 2332Sol     HW12462   0.741   1.758   7.957  1.4162  0.4187  0.7335
 2332Sol     HW12463   0.792   1.758   7.815 -0.1093 -1.0200  0.1601
 2332Sol     MW12464   0.768   1.710   7.887  0.0824 -0.0998  0.2442
 2333Sol     OW12465   0.949   0.400   6.902  0.1428 -0.5060  0.1969
 2333Sol     HW12466   0.868   0.431   6.942  0.0884 -1.8381  1.1550
 2333Sol     HW12467   0.926   0.381   6.812 -0.5096 -0.4761  0.3580
 2333Sol     MW12468   0.940   0.401   6.898 -0.1553  0.0575  0.2515
 2334Sol     OW12469   2.721   1.198   2.769  0.0030  0.2321  0.1365
 2334Sol     HW12470   2.748   1.190   2.860  1.3977 -1.2651 -0.3909
 2334Sol     HW12471   2.720   1.108   2.736  0.0534  0.8092 -1.4799
 2334Sol     MW12472   2.723   1.189   2.774 -0.0212 -0.1276 -0.0677
 2335Sol     OW12473   2.997   2.270   2.252 -0.2424 -0.5557 -0.8602
 2335Sol     HW12474   3.064   2.286   2.318 -1.2284 -0.8679  0.2400
 2335Sol     HW12475   2.956   2.356   2.238 -1.5758 -0.9110  0.6694
 2335Sol     MW12476   2.999   2.279   2.257  0.5925 -0.4382 -0.0633
 2336Sol     OW12477   1.418   0.426   5.617 -0.2695 -0.0615 -0.2820
 2336Sol     HW12478   1.495   0.417   5.561  0.8231 -2.6339  1.5551
 2336Sol     HW12479   1.346   0.390   5.565  0.3323 -0.4384 -0.8540
 2336Sol     MW12480   1.418   0.422   5.607  0.4685  1.1511 -0.0502
 2337Sol     OW12481   3.039   1.481   3.935 -0.6035  0.3128  0.3768
 2337Sol     HW12482   3.133   1.492   3.920 -0.5797  0.5144  0.6810
 2337Sol     HW12483   3.017   1.398   3.892 -0.1355 -0.1352  1.0114
 2337Sol     MW12484   3.045   1.475   3.930  0.2886  0.3722  0.2771
 2338Sol     OW12485   2.182   0.986   7.619  0.1707 -0.8066  0.3479
 2338Sol     HW12486   2.164   0.964   7.528  1.1990 -0.9536  0.1716
 2338Sol     HW12487   2.096   1.001   7.658 -0.2398  0.0325 -0.8429
 2338Sol     MW12488   2.173   0.986   7.614  0.1310 -0.2287  0.3798
 2339Sol     OW12489   1.208   0.668   6.085  0.0824  0.2456  0.2058
 2339Sol     HW12490   1.223   0.622   6.003  0.7533 -2.4507  1.7630
 2339Sol     HW12491   1.113   0.683   6.087 -0.1395 -1.0209 -0.3827
 2339Sol     MW12492   1.201   0.665   6.078 -0.1390  0.0486 -0.4000
 2340Sol     OW12493   0.655   2.501   9.830  0.0163 -0.9285 -0.9732
 2340Sol     HW12494   0.646   2.528   9.738  0.0720  0.8619 -0.4780
 2340Sol     HW12495   0.745   2.522   9.853 -0.8811  1.7007  0.4025
 2340Sol     MW12496   0.662   2.506   9.824  0.1868 -0.3944  0.0660
 2341Sol     OW12497   0.116   1.864   5.473  0.2907 -0.5891  0.6068
 2341Sol     HW12498   0.201   1.830   5.502  0.2884 -2.4059 -1.4327
 2341Sol     HW12499   0.061   1.787   5.461 -0.8193  0.3724 -0.6749
 2341Sol     MW12500   0.119   1.854   5.474 -0.5226 -0.9282  0.3409
 2342Sol     OW12501   3.134   3.427   4.075 -0.0483 -0.6746  0.1552
 2342Sol     HW12502   3.115   3.477   4.155 -0.6724  2.2442 -1.7703
 2342Sol     HW12503   3.051   3.383   4.054 -0.4021  0.0116  0.1089
 2342Sol     MW12504   3.125   3.428   4.081  0.2425 -0.7201  0.5934
 2343Sol     OW12505   2.792   2.917   6.997 -0.1239 -0.0825 -0.3675
 2343Sol     HW12506   2.859   2.870   7.047  0.5003  1.1325 -0.0373
 2343Sol     HW12507   2.839   2.988   6.955 -0.5507 -1.3634 -3.1104
 2343Sol     MW12508   2.802   2.919   6.998 -0.3473 -0.0112 -0.3112
 2344Sol     OW12509   2.291   2.700   1.629 -0.2634 -0.1490 -0.0745
 2344Sol     HW12510   2.214   2.650   1.602 -2.0430  1.2292  2.3078
 2344Sol     HW12511   2.362   2.665   1.574 -2.7346 -0.7453 -3.0496
 2344Sol     MW12512   2.291   2.692   1.621 -0.0822 -0.6689 -0.0811
 2345Sol     OW12513   2.228   1.385   3.591 -0.3081  0.1008 -0.0994
 2345Sol     HW12514   2.154   1.437   3.560  0.3008  2.1328  1.7172
 2345Sol     HW12515   2.303   1.417   3.542  0.4045  2.3462  2.3207
 2345Sol     MW12516   2.228   1.393   3.584  0.4903  0.0432 -0.4105
 2346Sol     OW12517   1.857   2.008   2.107  0.1273 -0.4634  0.1776
 2346Sol     HW12518   1.946   1.977   2.087  0.3822 -0.8041  1.7510
 2346Sol     HW12519   1.866   2.102   2.117  0.1931 -0.4229 -0.2503
 2346Sol     MW12520   1.866   2.013   2.106 -0.4009 -0.2237  0.1177
 2347Sol     OW12521   2.864   1.336   2.042 -0.2271 -0.1668  0.0826
 2347Sol     HW12522   2.906   1.250   2.042 -2.0996 -1.1011 -1.2588
 2347Sol     HW12523   2.921   1.390   2.097  1.5727 -1.9559  0.0386
 2347Sol     MW12524   2.873   1.333   2.046  0.6343 -0.5346 -0.1390
 2348Sol     OW12525   2.571   2.907   8.104  0.0312  0.1848 -0.2557
 2348Sol     HW12526   2.586   2.850   8.180 -0.4062  0.5584  0.1130
 2348Sol     HW12527   2.584   2.850   8.028 -0.5468 -0.4445  0.1099
 2348Sol     MW12528   2.574   2.897   8.104 -0.0197 -0.2508 -0.5577
 2349Sol     OW12529   2.341   0.639   7.573 -0.5398  0.6923 -0.9235
 2349Sol     HW12530   2.309   0.715   7.621 -2.0396  0.7495 -2.0056
 2349Sol     HW12531   2.436   0.647   7.577 -0.6784  2.0780 -0.1839
 2349Sol     MW12532   2.347   0.646   7.578  0.8137 -0.1468  0.4183
 2350Sol     OW12533   1.291   1.072   8.848  0.1673 -0.0307 -0.7639
 2350Sol     HW12534   1.358   1.140   8.839  0.8899 -0.4740  0.9670
 2350Sol     HW12535   1.341   0.992   8.864 -0.7903 -0.2893  1.0061
 2350Sol     MW12536   1.301   1.071   8.848  0.5242  0.0905  0.1846
 2351Sol     OW12537   1.210   2.128   3.073  0.2788 -0.7952 -0.1303
 2351Sol     HW12538   1.121   2.106   3.100  1.3333 -2.7072  1.9325
 2351Sol     HW12539   1.242   2.049   3.030  0.6573  0.2357 -1.7841
 2351Sol     MW12540   1.205   2.119   3.071  0.2718  0.8625 -0.1921
 2352Sol     OW12541   2.739   1.166   4.849  0.5500 -0.6390 -0.1043
 2352Sol     HW12542   2.664   1.107   4.847  0.2651 -0.2552 -1.0101
 2352Sol     HW12543   2.709   1.241   4.901  0.3280 -0.5139 -0.4123
 2352Sol     MW12544   2.729   1.168   4.854  0.0065  0.7327 -0.4009
 2353Sol     OW12545   0.946   0.112   6.756 -0.1828 -0.6111 -0.2782
 2353Sol     HW12546   0.953   0.072   6.670 -0.6498  0.4200 -0.8095
 2353Sol     HW12547   0.853   0.132   6.766 -0.2066 -1.1808  0.6742
 2353Sol     MW12548   0.938   0.110   6.749 -0.1768 -0.4808 -0.1781
 2354Sol     OW12549   2.554   3.316   4.049  0.2611  0.0569 -0.5553
 2354Sol     HW12550   2.617   3.284   4.114 -1.3519  0.9193  1.5280
 2354Sol     HW12551   2.601   3.384   4.000  1.7065 -1.0503 -0.7135
 2354Sol     MW12552   2.564   3.319   4.051  0.0301 -0.0592  0.0345
 2355Sol     OW12553   1.977   1.029   3.064  0.4471  0.4223 -0.7222
 2355Sol     HW12554   1.932   0.983   2.993 -0.6342  2.0293 -1.0982
 2355Sol     HW12555   1.957   0.978   3.142  0.4998 -0.5777 -1.3471
 2355Sol     MW12556   1.972   1.020   3.064  0.0576  0.2325  0.8262
 2356Sol     OW12557   2.133   2.650   5.618  0.1016 -0.2432  0.7979
 2356Sol     HW12558   2.120   2.590   5.692  0.6746  0.4958  1.5111
 2356Sol     HW12559   2.158   2.733   5.659 -0.5751  0.4584 -0.1821
 2356Sol     MW12560   2.134   2.652   5.628 -0.1535  0.0274 -0.3540
 2357Sol     OW12561   3.149   3.428   6.438 -0.7434 -0.7320 -0.3973
 2357Sol     HW12562   3.239   3.458   6.428 -0.8356 -0.1946  0.4119
 2357Sol     HW12563   3.097   3.490   6.386 -1.0458  1.1323  2.0677
 2357Sol     MW12564   3.152   3.436   6.432 -0.1083  0.2433  0.5673
 2358Sol     OW12565   1.549   0.983   8.465 -0.0162 -0.1687 -0.6573
 2358Sol     HW12566   1.576   0.953   8.552  1.1457 -0.9331 -1.2691
 2358Sol     HW12567   1.476   0.925   8.441 -1.6686  1.3187  0.6172
 2358Sol     MW12568   1.545   0.975   8.471 -0.3288  0.0568 -0.2426
 2359Sol     OW12569   1.794   2.173   5.622  0.3943 -0.6283  0.0078
 2359Sol     HW12570   1.847   2.098   5.649  0.7323 -1.0484 -1.7355
 2359Sol     HW12571   1.757   2.147   5.537 -0.6267  0.6289  0.0453
 2359Sol     MW12572   1.795   2.164   5.617 -0.4029  0.2171  0.2987
 2360Sol     OW12573   2.816   1.753   3.125 -0.0702 -0.3879 -0.3391
 2360Sol     HW12574   2.833   1.842   3.153 -2.5094 -0.0377  0.2072
 2360Sol     HW12575   2.796   1.760   3.032  1.8854 -0.6841 -0.7942
 2360Sol     MW12576   2.815   1.761   3.120  0.2797 -0.5497  0.0840
 2361Sol     OW12577   1.127   1.874   5.351 -0.1410 -0.2194 -0.6455
 2361Sol     HW12578   1.068   1.805   5.381  0.0098  0.5107  1.4061
 2361Sol     HW12579   1.195   1.827   5.302 -0.2607 -1.4980  0.3834
 2361Sol     MW12580   1.128   1.864   5.349  0.5684 -0.3059  0.4663
 2362Sol     OW12581   0.858   2.426   1.674 -0.0524  1.2072 -0.0267
 2362Sol     HW12582   0.879   2.473   1.754  1.9191  2.3377 -1.1574
 2362Sol     HW12583   0.855   2.334   1.700  2.1868  1.4125  1.0619
 2362Sol     MW12584   0.860   2.422   1.683  0.2237  0.0183  0.2386
 2363Sol     OW12585   1.735   1.013   4.914  0.2796  0.3671  0.0673
 2363Sol     HW12586   1.776   1.098   4.930  3.4222 -1.3348  1.5596
 2363Sol     HW12587   1.774   0.983   4.832 -0.2757  0.0577 -0.0839
 2363Sol     MW12588   1.742   1.018   4.908  0.3912 -0.0744  0.4221
 2364Sol     OW12589   1.787   2.899   8.262  0.0337 -0.1011 -0.3492
 2364Sol     HW12590   1.712   2.919   8.319 -1.0150 -2.2530 -0.9441
 2364Sol     HW12591   1.863   2.932   8.310 -1.1420  0.8449  0.9060
 2364Sol     MW12592   1.787   2.904   8.272  0.6681 -0.5073  0.1172
 2365Sol     OW12593   3.099   1.833   9.689 -0.0690 -0.1016  0.4347
 2365Sol     HW12594   3.173   1.891   9.707 -1.3402  1.1185  1.7564
 2365Sol     HW12595   3.040   1.885   9.635 -0.9852 -0.3144  1.2180
 2365Sol     MW12596   3.100   1.843   9.686  0.3168 -0.1062  0.4311
 2366Sol     OW12597   2.276   3.297   4.839  0.0906 -0.5396  0.4286
 2366Sol     HW12598   2.331   3.229   4.878 -0.7707 -0.9601  0.9250
 2366Sol     HW12599   2.336   3.349   4.787  0.8554 -1.3755  0.4560
 2366Sol     MW12600   2.286   3.295   4.838  0.3384 -0.1523 -0.1070
 2367Sol     OW12601   0.960   2.221   6.457 -0.5452  0.0815  0.1144
 2367Sol     HW12602   0.993   2.134   6.476  1.8089  0.6376 -1.2855
 2367Sol     HW12603   0.946   2.261   6.542  1.2508 -0.6075  0.7431
 2367Sol     MW12604   0.961   2.217   6.466 -0.2057  0.5192 -0.5006
 2368Sol     OW12605   1.825   3.080   3.478  0.2960 -0.1544 -0.1742
 2368Sol     HW12606   1.878   3.045   3.549  0.1176  0.8005  0.4327
 2368Sol     HW12607   1.887   3.102   3.409  0.2476 -3.6405 -1.4383
 2368Sol     MW12608   1.835   3.079   3.478  0.0883 -0.6125  0.2222
 2369Sol     OW12609   0.752   0.732   9.151  0.5149 -0.7623 -0.2711
 2369Sol     HW12610   0.718   0.657   9.200  0.1738 -0.1791  0.3882
 2369Sol     HW12611   0.804   0.781   9.215 -0.9537  0.6833 -0.1435
 2369Sol     MW12612   0.754   0.729   9.161  0.1078 -0.8888 -0.0822
 2370Sol     OW12613   1.922   1.451   7.633  0.0297 -0.0585 -0.0173
 2370Sol     HW12614   1.927   1.491   7.720  0.0508  1.0129 -0.5136
 2370Sol     HW12615   1.995   1.390   7.631 -1.3294 -1.8288  1.5831
 2370Sol     MW12616   1.929   1.449   7.641 -0.3174 -0.6389  0.0676
 2371Sol     OW12617   2.395   0.313   8.407  0.4951 -0.6665 -0.3494
 2371Sol     HW12618   2.424   0.397   8.441  1.0215 -0.1671 -1.9850
 2371Sol     HW12619   2.359   0.267   8.483 -1.8075  1.8925  0.1706
 2371Sol     MW12620   2.394   0.316   8.417 -0.2422 -0.3238  0.0404
 2372Sol     OW12621   2.974   0.960   6.772 -0.1784  0.5421  0.2041
 2372Sol     HW12622   3.050   0.992   6.722  0.4619 -0.5501  0.4538
 2372Sol     HW12623   2.993   0.983   6.863  1.5136 -2.7327  0.7557
 2372Sol     MW12624   2.983   0.965   6.775  0.5380 -0.0315  0.0354
 2373Sol     OW12625   2.839   3.109   5.092 -0.8339 -0.4265  0.3828
 2373Sol     HW12626   2.862   3.101   4.999  0.3048 -0.3344  0.6409
 2373Sol     HW12627   2.744   3.102   5.094 -0.8271 -1.0631 -0.7312
 2373Sol     MW12628   2.833   3.108   5.084  0.1658  0.6824 -0.1393
 2374Sol     OW12629   1.100   3.341   4.121 -0.6190 -0.1436  0.1600
 2374Sol     HW12630   1.019   3.378   4.158 -1.2134 -1.0519 -0.2022
 2374Sol     HW12631   1.078   3.250   4.105  0.3261 -0.2624 -0.4381
 2374Sol     MW12632   1.090   3.337   4.123  0.2049 -0.3228  0.3335
 2375Sol     OW12633   1.742   1.080   4.595 -0.4173 -0.7576  0.4292
 2375Sol     HW12634   1.827   1.057   4.558  0.2388  1.2152  0.6812
 2375Sol     HW12635   1.700   1.134   4.529 -1.0682 -0.8881  0.7281
 2375Sol     MW12636   1.746   1.083   4.586  0.5058  0.1500 -0.2002
 2376Sol     OW12637   1.272   1.548   7.750  0.1476  0.2277 -0.6423
 2376Sol     HW12638   1.327   1.594   7.687  2.1318 -1.3425 -0.0907
 2376Sol     HW12639   1.297   1.583   7.835 -1.0131  0.8034 -0.5269
 2376Sol     MW12640   1.279   1.555   7.752 -0.4074  0.1569 -0.0721
 2377Sol     OW12641   1.440   1.671   6.022 -0.3596  0.9686  0.2240
 2377Sol     HW12642   1.524   1.681   5.977 -1.0085  1.8328 -0.8440
 2377Sol     HW12643   1.463   1.650   6.112  0.9834 -0.4825 -0.4238
 2377Sol     MW12644   1.450   1.670   6.026 -0.1521  0.3544 -0.1912
 2378Sol     OW12645   1.876   0.026   3.809 -0.5734 -0.8173 -0.3651
 2378Sol     HW12646   1.863  -0.032   3.734 -2.1570 -0.5206 -0.3310
 2378Sol     HW12647   1.845  -0.025   3.884 -0.7460 -0.4113 -0.1597
 2378Sol     MW12648   1.872   0.016   3.809 -0.5820  0.0574 -0.2541
 2379Sol     OW12649   3.323   0.869   3.200  0.0006 -0.0076 -0.3611
 2379Sol     HW12650   3.346   0.906   3.285  1.4430  0.3494 -0.8984
 2379Sol     HW12651   3.302   0.945   3.145 -0.5329 -0.2117 -0.4498
 2379Sol     MW12652   3.323   0.879   3.202  0.0480  0.6452 -0.0528
 2380Sol     OW12653   1.583   2.113   5.058  0.0200 -0.2779 -0.1249
 2380Sol     HW12654   1.519   2.150   4.997  0.4795  2.1589  0.8035
 2380Sol     HW12655   1.547   2.132   5.145  1.2813 -0.2169  0.3971
 2380Sol     MW12656   1.574   2.118   5.061 -0.0655 -0.0167 -0.0301
 2381Sol     OW12657   2.757   2.410   6.626  0.5718  0.1833  0.0406
 2381Sol     HW12658   2.688   2.472   6.602  1.5522  0.7178 -1.4595
 2381Sol     HW12659   2.800   2.450   6.703 -0.5134  0.0397  0.7289
 2381Sol     MW12660   2.755   2.419   6.631 -0.0438 -0.3056  0.0438
 2382Sol     OW12661   0.393   1.666   7.512  0.4340 -0.3298  0.0320
 2382Sol     HW12662   0.346   1.661   7.429 -0.7805 -0.4137  0.7051
 2382Sol     HW12663   0.368   1.587   7.559 -1.8012  1.4300  1.9390
 2382Sol     MW12664   0.386   1.659   7.509  0.1060 -0.4964 -0.0413
 2383Sol     OW12665   2.922   1.078   9.196 -0.3792 -0.1504  0.0574
 2383Sol     HW12666   2.831   1.051   9.208 -0.8083  1.0759 -0.3246
 2383Sol     HW12667   2.949   1.037   9.114 -0.4887 -0.7506  0.3172
 2383Sol     MW12668   2.916   1.072   9.190  0.0790 -0.1970 -0.2150
 2384Sol     OW12669   1.981   0.103   6.950 -0.7038 -0.3668 -0.2445
 2384Sol     HW12670   2.037   0.180   6.964 -1.1061 -0.3168  1.1917
 2384Sol     HW12671   1.959   0.106   6.857  0.0783  0.7164 -0.4055
 2384Sol     MW12672   1.984   0.110   6.943  0.0304 -0.3919 -0.0135
 2385Sol     OW12673   0.608   2.760   3.404 -0.5674 -0.0504 -0.2288
 2385Sol     HW12674   0.685   2.706   3.421 -0.2173  1.0594  1.8260
 2385Sol     HW12675   0.565   2.767   3.489 -1.9814  0.8061 -1.0003
 2385Sol     MW12676   0.611   2.756   3.413  0.4295 -0.7689  0.1277
 2386Sol     OW12677   1.135   1.515   4.281 -0.1354 -0.7375  0.3475
 2386Sol     HW12678   1.207   1.565   4.243 -0.0843 -2.2305 -1.6379
 2386Sol     HW12679   1.165   1.491   4.368  0.9077  0.4298  0.3207
 2386Sol     MW12680   1.144   1.517   4.285 -0.1043 -0.0162 -0.6956
 2387Sol     OW12681   1.979   1.770   3.501  0.5315  0.1475  0.5639
 2387Sol     HW12682   1.923   1.802   3.572  1.5592  0.0497  1.4470
 2387Sol     HW12683   1.970   1.835   3.432 -0.3164  0.3604  0.8659
 2387Sol     MW12684   1.973   1.778   3.502  0.0517 -0.3725 -0.4651
 2388Sol     OW12685   0.029   2.732   4.218 -0.0837  0.0277 -0.1449
 2388Sol     HW12686   0.024   2.657   4.277  0.0851 -0.3509 -0.6076
 2388Sol     HW12687   0.082   2.701   4.145  2.8094  1.6177  1.1957
 2388Sol     MW12688   0.034   2.722   4.217  0.0465 -0.4346 -0.5813
 2389Sol     OW12689   2.168   3.182   6.250 -0.4923 -0.1653 -0.4288
 2389Sol     HW12690   2.210   3.164   6.334 -0.6113 -2.1094 -0.7428
 2389Sol     HW12691   2.087   3.228   6.272 -0.7075 -0.9997  0.5565
 2389Sol     MW12692   2.165   3.184   6.260  0.2188 -0.7629  0.0261
 2390Sol     OW12693   2.852   3.259   4.533  0.1157  0.2258 -0.2960
 2390Sol     HW12694   2.872   3.183   4.478  0.7482  1.1380 -1.3377
 2390Sol     HW12695   2.827   3.328   4.471 -0.6251  0.8307  0.6492
 2390Sol     MW12696   2.851   3.259   4.523 -0.6011  0.0469  0.0002
 2391Sol     OW12697   2.803   0.140   5.911  0.2110  0.5985 -0.0748
 2391Sol     HW12698   2.710   0.153   5.929 -0.0674  0.1648 -1.1402
 2391Sol     HW12699   2.837   0.097   5.989 -0.4060  1.0681  0.4653
 2391Sol     MW12700   2.798   0.137   5.919 -0.3708  0.6044  0.6272
 2392Sol     OW12701   3.115   0.040   9.419 -0.1839 -0.1582 -0.0220
 2392Sol     HW12702   3.027   0.069   9.443 -0.6883 -0.6982 -1.2149
 2392Sol     HW12703   3.171   0.077   9.488 -1.4560 -0.6761  1.3173
 2392Sol     MW12704   3.112   0.046   9.427  0.5902  0.1947  0.2112
 2393Sol     OW12705   2.314   1.744   7.382 -0.5602  0.0460 -0.8041
 2393Sol     HW12706   2.315   1.728   7.288  0.1528  0.2809 -0.8395
 2393Sol     HW12707   2.338   1.659   7.421 -3.0232 -0.6525 -0.7353
 2393Sol     MW12708   2.316   1.735   7.377 -0.1327 -0.4857  0.3913
 2394Sol     OW12709   3.060   1.730   9.336  0.2443 -0.0552 -0.2315
 2394Sol     HW12710   3.036   1.708   9.426 -2.2772  0.8965 -0.6218
 2394Sol     HW12711   3.038   1.823   9.328 -1.5522 -0.6357 -2.4307
 2394Sol     MW12712   3.056   1.737   9.344  0.4127  0.3095 -0.0807
 2395Sol     OW12713   0.753   2.944   5.550 -0.0244 -0.5744 -0.3780
 2395Sol     HW12714   0.827   2.889   5.575  0.2474  0.3275  0.8305
 2395Sol     HW12715   0.728   2.989   5.630 -2.4997 -1.5660 -0.5304
 2395Sol     MW12716   0.758   2.943   5.559  0.5011 -0.0322 -0.3755
 2396Sol     OW12717   0.686   2.493   6.621  0.1408  0.2690  0.2575
 2396Sol     HW12718   0.724   2.461   6.539 -1.2085  1.0085 -0.6702
 2396Sol     HW12719   0.592   2.491   6.607 -0.1828 -1.0699  2.3606
 2396Sol     MW12720   0.681   2.490   6.613 -0.1867 -0.0462  0.1101
 2397Sol     OW12721   3.251   2.455   6.135 -0.0374  0.3787 -0.2434
 2397Sol     HW12722   3.298   2.427   6.056 -0.6450  0.8633 -0.7854
 2397Sol     HW12723   3.159   2.432   6.117  0.1569 -1.7855  1.3418
 2397Sol     MW12724   3.247   2.450   6.126  0.0347  0.3996  0.1129
 2398Sol     OW12725   2.725   2.311   3.420 -0.4779  0.3876  0.0359
 2398Sol     HW12726   2.688   2.324   3.333  1.2367  0.4247 -0.7098
 2398Sol     HW12727   2.765   2.224   3.416  1.2443  1.1641  0.1708
 2398Sol     MW12728   2.725   2.305   3.412  0.2077  0.4677 -0.0425
 2399Sol     OW12729   0.383   2.435   6.285 -0.0806  0.0546  0.4686
 2399Sol     HW12730   0.427   2.384   6.353 -1.3718  0.5201  1.6916
 2399Sol     HW12731   0.414   2.525   6.299  1.7219 -0.2613 -1.2932
 2399Sol     MW12732   0.389   2.439   6.292 -0.1443 -0.1332 -0.2463
 2400Sol     OW12733   2.129   1.550   5.723  0.7985  0.2148  0.7075
 2400Sol     HW12734   2.170   1.513   5.645  0.1836  0.3447  0.3230
 2400Sol     HW12735   2.106   1.473   5.776  2.3362  0.1773  1.3321
 2400Sol     MW12736   2.131   1.539   5.721 -0.5855 -0.3888 -0.3542
 2401Sol     OW12737   1.418   1.927   9.312 -0.6099 -0.2950  0.4240
 2401Sol     HW12738   1.510   1.902   9.312 -0.5513 -0.1142  1.8048
 2401Sol     HW12739   1.371   1.844   9.298 -0.2940 -0.6785  1.5796
 2401Sol     MW12740   1.422   1.917   9.310  0.3854 -0.3004  0.1677
 2402Sol     OW12741   0.491   0.695   2.795 -0.2081  0.1683  0.5967
 2402Sol     HW12742   0.485   0.618   2.851 -2.2364  0.1120  0.3356
 2402Sol     HW12743   0.452   0.765   2.847 -3.8311 -0.2692 -1.3361
 2402Sol     MW12744   0.487   0.694   2.805  0.1857  0.0627 -0.7984
 2403Sol     OW12745   3.072   2.934   2.993 -0.3254 -0.5788  0.3478
 2403Sol     HW12746   3.008   2.932   3.065 -0.2670  0.0848  0.4293
 2403Sol     HW12747   3.106   3.024   2.995 -1.5401 -0.0371 -1.5665
 2403Sol     MW12748   3.069   2.942   3.000 -0.0142  0.6193  0.4270
 2404Sol     OW12749   3.252   1.664   9.869 -0.0489  0.0701 -0.3739
 2404Sol     HW12750   3.186   1.694   9.807 -0.6928  1.0304  0.7429
 2404Sol     HW12751   3.231   1.572   9.884 -0.5887  0.1361 -0.7050
 2404Sol     MW12752   3.244   1.658   9.865 -0.1198  0.1790  0.0274
 2405Sol     OW12753   1.301   2.955   1.505  0.5713  0.3544  0.2228
 2405Sol     HW12754   1.218   3.002   1.498  1.5769  2.0967 -0.4626
 2405Sol     HW12755   1.337   2.984   1.589  0.8948  0.3039  0.1013
 2405Sol     MW12756   1.297   2.962   1.512 -0.2343  0.6852  0.2425
 2406Sol     OW12757   2.955   2.778   9.094 -0.5916 -0.2955  0.2799
 2406Sol     HW12758   2.998   2.853   9.051  0.1599 -0.6750  0.3511
 2406Sol     HW12759   2.862   2.799   9.092 -0.3972  0.5797  0.1709
 2406Sol     MW12760   2.951   2.787   9.090 -0.2431 -0.3198  0.7815
 2407Sol     OW12761   0.086   0.152   2.007 -0.0146 -0.0217 -0.0911
 2407Sol     HW12762   0.125   0.124   2.090 -0.2816 -1.0237 -0.2923
 2407Sol     HW12763   0.080   0.072   1.955 -1.8797  0.1987 -0.2431
 2407Sol     MW12764   0.089   0.142   2.010 -0.2040 -0.3754 -0.1534
 2408Sol     OW12765   0.074   1.246   9.052 -0.2425  0.0108  0.1255
 2408Sol     HW12766   0.167   1.255   9.075  0.0152  1.2826 -1.3400
 2408Sol     HW12767   0.074   1.210   8.964 -1.1428  0.7679 -0.1884
 2408Sol     MW12768   0.083   1.243   9.047  0.2296 -0.3274 -0.0674
 2409Sol     OW12769   1.026   1.433   1.743  0.3047  0.2400 -0.0985
 2409Sol     HW12770   1.106   1.483   1.755 -0.0689  0.3141  2.2835
 2409Sol     HW12771   0.956   1.492   1.772 -0.3484 -0.8106  0.4903
 2409Sol     MW12772   1.027   1.443   1.747 -0.1091  0.1141  0.1506
 2410Sol     OW12773   1.670   0.078   8.913  0.4299  0.0384  0.0146
 2410Sol     HW12774   1.707   0.142   8.852  0.4973 -1.8351 -1.9576
 2410Sol     HW12775   1.728   0.081   8.989  1.0047  1.5835 -0.4720
 2410Sol     MW12776   1.678   0.084   8.914  0.5840  0.0601 -0.1481
 2411Sol     OW12777   3.305   1.998   4.290  0.4551 -0.2564 -0.3544
 2411Sol     HW12778   3.233   2.055   4.318  0.9357 -0.7668  1.9641
 2411Sol     HW12779   3.262   1.915   4.267  0.2808 -0.5682  1.0506
 2411Sol     MW12780   3.294   1.995   4.290 -0.1821  0.1459 -0.1143
 2412Sol     OW12781   0.278   1.901   2.597 -0.4949 -0.6906 -0.3298
 2412Sol     HW12782   0.259   1.841   2.525  1.4765 -1.4244 -0.2724
 2412Sol     HW12783   0.317   1.846   2.664  0.1081  0.4293  0.2589
 2412Sol     MW12784   0.280   1.891   2.596 -0.1510  0.4722 -0.0689
 2413Sol     OW12785   2.340   2.499   6.562  0.0285 -0.1590  0.1577
 2413Sol     HW12786   2.270   2.557   6.592  0.1909  0.6512 -1.0093
 2413Sol     HW12787   2.420   2.551   6.573  0.1462 -0.0595 -1.1177
 2413Sol     MW12788   2.340   2.509   6.566  0.2150 -0.4187 -0.7817
 2414Sol     OW12789   2.846   3.044   8.476  0.1963 -0.4469  0.3200
 2414Sol     HW12790   2.903   2.967   8.472 -0.8040 -1.1522 -0.6535
 2414Sol     HW12791   2.898   3.115   8.438  1.4220 -0.4482  1.9815
 2414Sol     MW12792   2.856   3.043   8.472 -0.0585 -0.7958 -0.0239
 2415Sol     OW12793   0.239   1.335   8.610 -0.6323 -0.1059 -0.0932
 2415Sol     HW12794   0.268   1.367   8.695 -0.2279  1.4811 -0.8088
 2415Sol     HW12795   0.272   1.400   8.547 -0.6792 -1.3942 -1.4861
 2415Sol     MW12796   0.244   1.344   8.612  0.2299  0.4240  0.3424
 2416Sol     OW12797   3.158   2.101   7.206  0.1892  0.4912 -0.0761
 2416Sol     HW12798   3.162   2.008   7.186 -1.0207  0.3211  0.3952
 2416Sol     HW12799   3.189   2.108   7.296  2.3811  0.8296 -0.8389
 2416Sol     MW12800   3.161   2.094   7.213  0.8446 -0.4379 -0.5205
 2417Sol     OW12801   0.335   1.577   3.488  0.3925 -0.1320 -0.2016
 2417Sol     HW12802   0.320   1.580   3.582 -0.5446 -0.8576 -0.3152
 2417Sol     HW12803   0.348   1.484   3.468 -1.2459 -0.2081 -1.0375
 2417Sol     MW12804   0.335   1.569   3.495 -0.0839 -0.1205 -0.0181
 2418Sol     OW12805   0.479   2.651   9.087 -0.0634  0.3547 -0.0666
 2418Sol     HW12806   0.534   2.728   9.102 -0.4583  0.1839  2.6458
 2418Sol     HW12807   0.435   2.637   9.171  0.5448 -3.2636 -0.2645
 2418Sol     MW12808   0.480   2.657   9.096  0.7054 -0.0578  0.6211
 2419Sol     OW12809   0.191   2.902   6.203 -0.2794 -0.0698  0.0566
 2419Sol     HW12810   0.101   2.929   6.186 -0.5490  0.1170  1.7364
 2419Sol     HW12811   0.220   2.958   6.275  1.0111 -0.4776 -0.1360
 2419Sol     MW12812   0.186   2.909   6.208  0.4576  0.0613  0.3550
 2420Sol     OW12813   0.255   1.679   4.168  0.3742  0.5580  0.9606
 2420Sol     HW12814   0.167   1.648   4.145 -0.1299  2.3243  0.4582
 2420Sol     HW12815   0.303   1.599   4.190 -0.3604 -0.8099 -2.0730
 2420Sol     MW12816   0.252   1.669   4.167  0.1455  0.8192  0.2884
 2421Sol     OW12817   3.007   1.174   9.418  0.0023 -0.2363  0.2238
 2421Sol     HW12818   2.992   1.140   9.330  3.3695 -0.4958 -0.3450
 2421Sol     HW12819   3.041   1.262   9.404  3.0299 -1.1952  1.0669
 2421Sol     MW12820   3.009   1.179   9.409  0.3163 -0.0330 -0.1475
 2422Sol     OW12821   0.928   0.541   2.787 -0.0018  0.0921 -0.0426
 2422Sol     HW12822   0.959   0.601   2.855  1.3382 -0.8412  0.1938
 2422Sol     HW12823   0.983   0.463   2.796  0.3454  0.0204 -2.3187
 2422Sol     MW12824   0.936   0.539   2.794  0.1975  0.0733 -0.1008
 2423Sol     OW12825   0.352   0.111   9.275 -0.3376 -0.0996  0.2464
 2423Sol     HW12826   0.346   0.110   9.180  1.4345 -1.4981  0.1260
 2423Sol     HW12827   0.331   0.201   9.300  2.3319  1.1123 -1.6913
 2423Sol     MW12828   0.350   0.119   9.269  0.2343  0.6444  0.3737
 2424Sol     OW12829   2.998   0.455   7.400 -0.3283 -0.0087 -0.5246
 2424Sol     HW12830   2.998   0.455   7.305 -0.2332 -1.1098 -0.5277
 2424Sol     HW12831   3.022   0.366   7.425 -3.0730 -0.4997  0.5186
 2424Sol     MW12832   3.000   0.447   7.394  0.0259  0.1507  0.2344
 2425Sol     OW12833   1.994   3.229   3.015 -0.6738  0.8792 -0.6005
 2425Sol     HW12834   2.014   3.204   3.106  0.2175  2.0577 -0.4558
 2425Sol     HW12835   1.938   3.158   2.983 -0.2051 -0.0482  0.5557
 2425Sol     MW12836   1.991   3.220   3.021 -0.4668 -0.3172 -0.0631
 2426Sol     OW12837   0.293   0.011   3.495  0.2010 -0.0384  0.3756
 2426Sol     HW12838   0.370   0.016   3.438  0.7762 -0.8375  1.0723
 2426Sol     HW12839   0.326  -0.027   3.577 -0.9192 -0.3162  0.7077
 2426Sol     MW12840   0.303   0.008   3.498  0.0265 -0.2174  0.2980
 2427Sol     OW12841   2.938   1.653   2.134  0.3999 -0.2033  0.8980
 2427Sol     HW12842   3.029   1.630   2.119  0.6098  0.8755  0.4702
 2427Sol     HW12843   2.902   1.668   2.047  0.1951  0.7485  1.1376
 2427Sol     MW12844   2.943   1.652   2.125 -0.3303 -0.2967  0.1550
 2428Sol     OW12845   0.492   1.433   6.496 -0.2264 -0.2024 -0.6837
 2428Sol     HW12846   0.558   1.367   6.477 -0.6522 -0.6670 -0.5601
 2428Sol     HW12847   0.408   1.391   6.475 -0.3204  1.3217 -3.4773
 2428Sol     MW12848   0.490   1.423   6.493  0.0862  0.4521  0.1697
 2429Sol     OW12849   2.532   1.590   1.892  0.0418  0.4544 -0.4615
 2429Sol     HW12850   2.533   1.525   1.962 -1.2768  0.3836 -0.5075
 2429Sol     HW12851   2.440   1.598   1.867  0.4591  0.7380 -1.9534
 2429Sol     MW12852   2.524   1.585   1.896 -0.4887  0.2926 -0.4796
 2430Sol     OW12853   0.274   1.669   8.455  0.1705  0.9151  0.0956
 2430Sol     HW12854   0.342   1.736   8.460  1.1351 -0.0664  0.4300
 2430Sol     HW12855   0.321   1.589   8.429 -0.8750  0.2471  0.2143
 2430Sol     MW12856   0.284   1.668   8.453 -0.4241  0.2120 -0.0672
 2431Sol     OW12857   1.109   1.763   8.588  0.6968  0.3067 -0.0375
 2431Sol     HW12858   1.032   1.801   8.547 -0.0556  0.1506  1.1946
 2431Sol     HW12859   1.143   1.701   8.524  0.7069  1.5071 -1.2107
 2431Sol     MW12860   1.105   1.761   8.579  0.4130  0.2492 -0.8429
 2432Sol     OW12861   1.491   0.292   4.784 -0.4140 -0.0980  0.2806
 2432Sol     HW12862   1.411   0.275   4.734  0.4615 -0.9302 -0.8654
 2432Sol     HW12863   1.465   0.357   4.850 -2.0729 -0.5123  0.0584
 2432Sol     MW12864   1.481   0.297   4.786  0.0595 -0.3175 -0.0269
 2433Sol     OW12865   2.763   2.562   7.506  0.1425  0.2139  0.1765
 2433Sol     HW12866   2.711   2.601   7.436 -0.8481  0.5051  1.0456
 2433Sol     HW12867   2.698   2.536   7.572  0.9868 -0.7439  0.6490
 2433Sol     MW12868   2.752   2.563   7.506  0.4462  0.4456  0.0987
 2434Sol     OW12869   0.945   3.207   6.499  0.1306 -0.1434  0.6312
 2434Sol     HW12870   0.931   3.202   6.404  1.5522 -1.3128  0.4719
 2434Sol     HW12871   1.030   3.166   6.513 -1.3083 -2.4876  2.7505
 2434Sol     MW12872   0.951   3.203   6.491  0.4072 -0.4606 -0.3485
 2435Sol     OW12873   1.078   3.062   1.766  0.2060  0.1501 -0.4791
 2435Sol     HW12874   1.000   3.074   1.820  0.0920 -0.6010 -0.4692
 2435Sol     HW12875   1.047   3.080   1.677  0.3615  1.2480 -0.3134
 2435Sol     MW12876   1.068   3.065   1.762  0.1516  0.4326 -0.4315
 2436Sol     OW12877   2.566   0.682   8.309 -0.3157  0.7561  0.3528
 2436Sol     HW12878   2.545   0.619   8.378 -1.4466  2.0799  1.2704
 2436Sol     HW12879   2.661   0.687   8.308 -0.2333 -0.7216  0.4838
 2436Sol     MW12880   2.572   0.677   8.315 -0.4081 -0.2197  0.1708
 2437Sol     OW12881   2.347   2.880   5.331  0.1805  0.2363 -0.7523
 2437Sol     HW12882   2.358   2.947   5.398  2.0311 -2.1491  1.4061
 2437Sol     HW12883   2.428   2.884   5.280  0.0987 -0.0829 -0.9071
 2437Sol     MW12884   2.355   2.887   5.332 -0.1172  0.3918  0.0969
 2438Sol     OW12885   0.685   0.866   5.668  0.2318  0.0286  0.3531
 2438Sol     HW12886   0.646   0.781   5.684  0.9526 -0.3655  0.0515
 2438Sol     HW12887   0.736   0.884   5.747  3.1091 -1.5345 -1.0723
 2438Sol     MW12888   0.686   0.860   5.676  0.3196  0.1219  0.2943
 2439Sol     OW12889   1.682   1.731   3.907 -0.5107 -0.6168 -0.0012
 2439Sol     HW12890   1.623   1.806   3.913 -2.3270 -1.8663 -1.5726
 2439Sol     HW12891   1.709   1.714   3.998 -3.3484 -0.6017  0.8936
 2439Sol     MW12892   1.679   1.736   3.916  0.2817 -0.7700 -0.2107
 2440Sol     OW12893   0.838   0.310   3.127  0.3076  0.5050  0.5585
 2440Sol     HW12894   0.879   0.237   3.173 -0.2514 -0.3850 -0.3289
 2440Sol     HW12895   0.882   0.312   3.042 -0.3370  0.5967  0.2260
 2440Sol     MW12896   0.845   0.303   3.123 -0.4170 -0.1489  0.5863
 2441Sol     OW12897   0.221   1.343   4.739  0.0838 -0.3441 -0.1919
 2441Sol     HW12898   0.139   1.392   4.735  0.7831  0.8130 -0.7671
 2441Sol     HW12899   0.247   1.347   4.831 -0.8930 -1.3922  0.1419
 2441Sol     MW12900   0.216   1.348   4.747 -0.2120 -0.0411  0.5943
 2442Sol     OW12901   0.878   1.770   2.924 -0.0669 -0.6380 -0.0613
 2442Sol     HW12902   0.850   1.703   2.986  0.8764 -0.3893  0.6424
 2442Sol     HW12903   0.796   1.801   2.884 -0.6439 -1.0978  0.7413
 2442Sol     MW12904   0.868   1.767   2.926  0.0299 -0.3421  0.3305
 2443Sol     OW12905   0.386   1.747   6.399 -0.1419  0.4478 -0.0454
 2443Sol     HW12906   0.471   1.777   6.367 -0.2772  1.8291  0.8932
 2443Sol     HW12907   0.325   1.816   6.374 -1.0449 -0.6303 -0.8890
 2443Sol     MW12908   0.388   1.756   6.394 -0.2130  0.4698  0.4119
 2444Sol     OW12909   2.017   3.043   3.661 -0.0121  0.3456 -0.8933
 2444Sol     HW12910   1.980   3.031   3.748 -1.1865  0.0106 -1.4221
 2444Sol     HW12911   2.053   3.132   3.662  1.7633 -0.3707  0.5524
 2444Sol     MW12912   2.017   3.050   3.669 -0.1342 -0.6107  0.5024
 2445Sol     OW12913   2.606   1.011   4.159  0.3567  0.2568 -0.2121
 2445Sol     HW12914   2.577   1.057   4.238 -0.5756 -0.9165  0.1378
 2445Sol     HW12915   2.554   1.049   4.089  0.2446  0.3666 -0.0705
 2445Sol     MW12916   2.599   1.019   4.160 -0.1612 -0.1271 -0.1089
 2446Sol     OW12917   0.822   2.090   4.812  0.2715  0.1397  0.2879
 2446Sol     HW12918   0.868   2.102   4.895 -1.1508 -0.9075  1.2419
 2446Sol     HW12919   0.892   2.072   4.749  1.2938  0.1345  1.4013
 2446Sol     MW12920   0.833   2.090   4.813  0.2000  0.2762  0.3662
 2447Sol     OW12921   1.546   3.266   6.947  0.6266 -0.5495  0.5121
 2447Sol     HW12922   1.540   3.170   6.945 -1.8115 -0.4221  0.5604
 2447Sol     HW12923   1.638   3.284   6.926  1.0072 -2.8781 -0.0082
 2447Sol     MW12924   1.554   3.259   6.945  0.1354  0.0763  0.1385
 2448Sol     OW12925   2.982   1.304   5.119 -0.1188  0.3278 -0.5928
 2448Sol     HW12926   3.007   1.387   5.078  0.3697  0.3934 -0.1776
 2448Sol     HW12927   3.000   1.237   5.053 -1.9920  0.6936 -1.5008
 2448Sol     MW12928   2.986   1.305   5.110 -0.0546 -0.0703  0.5897
 2449Sol     OW12929   1.994   2.270   2.097  0.1800  0.0127 -0.3533
 2449Sol     HW12930   2.081   2.232   2.106 -0.3352 -1.2841 -0.6877
 2449Sol     HW12931   1.996   2.349   2.151  1.3613 -0.3506  0.1418
 2449Sol     MW12932   2.002   2.274   2.103  0.4745 -0.0385 -0.0114
 2450Sol     OW12933   1.480   0.619   1.868 -0.3090  0.3298 -0.7356
 2450Sol     HW12934   1.398   0.609   1.915 -0.0188  0.1048 -0.2746
 2450Sol     HW12935   1.509   0.708   1.889  0.8974 -0.4975  1.2612
 2450Sol     MW12936   1.476   0.626   1.874  0.4069  0.0554  0.5673
 2451Sol     OW12937   0.601   2.087   3.765 -0.3459  0.6238  0.2288
 2451Sol     HW12938   0.688   2.050   3.771 -0.3299  0.7413  0.7532
 2451Sol     HW12939   0.613   2.169   3.718  0.1152  1.5550  1.9317
 2451Sol     MW12940   0.610   2.091   3.761 -0.0363  0.4587  0.2377
 2452Sol     OW12941   0.338   1.803   5.601  0.3402  0.1887 -0.1222
 2452Sol     HW12942   0.414   1.846   5.563 -0.6251  2.2698  0.2679
 2452Sol     HW12943   0.331   1.838   5.690 -1.3058  0.3196 -0.2817
 2452Sol     MW12944   0.344   1.810   5.606 -0.5711  0.5621 -0.0782
 2453Sol     OW12945   0.137   0.554   5.182 -0.3228 -0.0258  0.0887
 2453Sol     HW12946   0.177   0.631   5.141  0.5683 -1.3863 -1.7190
 2453Sol     HW12947   0.100   0.504   5.108  0.1720 -1.9063  1.0660
 2453Sol     MW12948   0.137   0.556   5.171  0.1976  0.0994 -0.4495
 2454Sol     OW12949   2.813   3.199   5.935 -0.3449  0.3884 -0.2986
 2454Sol     HW12950   2.865   3.259   5.881  0.8078  0.5122  0.9022
 2454Sol     HW12951   2.798   3.123   5.879  2.1357 -0.1401 -0.3455
 2454Sol     MW12952   2.817   3.198   5.925  0.2748  0.2562 -0.2011
 2455Sol     OW12953   2.429   1.409   8.410 -0.3570 -0.3141  0.0919
 2455Sol     HW12954   2.485   1.486   8.413 -2.4284  1.2886 -1.3093
 2455Sol     HW12955   2.460   1.360   8.334  0.0065 -0.1251  0.1150
 2455Sol     MW12956   2.437   1.411   8.404 -0.4138  0.2680 -0.2647
 2456Sol     OW12957   2.977   2.362   5.795  0.0438  0.2867 -0.0388
 2456Sol     HW12958   2.892   2.401   5.774 -0.1873  0.1421  0.6302
 2456Sol     HW12959   3.039   2.407   5.737 -0.2292  1.5907  0.6670
 2456Sol     MW12960   2.975   2.370   5.788  0.6504 -0.0772  0.3019
 2457Sol     OW12961   2.938   2.839   4.590  0.5357 -0.2594  0.1795
 2457Sol     HW12962   3.003   2.901   4.623  1.5071 -0.9857 -0.3274
 2457Sol     HW12963   2.975   2.753   4.610 -0.2727 -0.6790 -0.1175
 2457Sol     MW12964   2.947   2.837   4.595  0.2922  0.3713 -0.1934
 2458Sol     OW12965   1.542   1.742   4.811 -0.0276 -0.5044 -0.1768
 2458Sol     HW12966   1.596   1.814   4.778 -0.2591  0.8098  2.1493
 2458Sol     HW12967   1.603   1.669   4.819  0.7797  0.1475 -0.2484
 2458Sol     MW12968   1.553   1.742   4.809  0.1190  0.5616  0.0258
 2459Sol     OW12969   2.972   1.080   5.446  0.2533  0.0370  0.5674
 2459Sol     HW12970   2.965   1.175   5.437  0.2342  0.1250  1.4784
 2459Sol     HW12971   2.947   1.046   5.360  1.4123  0.9040 -0.1278
 2459Sol     MW12972   2.969   1.085   5.437  0.0659  0.2658  0.0358
 2460Sol     OW12973   2.594   1.413   7.364  0.3777  0.0469 -0.0222
 2460Sol     HW12974   2.672   1.359   7.356  0.6956  0.5749 -0.5995
 2460Sol     HW12975   2.600   1.453   7.451  1.0230  0.4967 -0.2745
 2460Sol     MW12976   2.601   1.412   7.371 -0.2431  0.0547 -0.0001
 2461Sol     OW12977   2.474   1.678   7.788 -1.2002 -0.3924 -0.0128
 2461Sol     HW12978   2.488   1.741   7.718 -0.6657 -2.9574 -2.2910
 2461Sol     HW12979   2.496   1.593   7.749 -1.9670 -2.0145  2.9302
 2461Sol     MW12980   2.477   1.676   7.779  0.2874 -0.3803 -0.0624
 2462Sol     OW12981   2.475   2.772   6.380 -0.1657  0.1317 -0.1034
 2462Sol     HW12982   2.517   2.705   6.326 -0.5166  0.1941 -0.4555
 2462Sol     HW12983   2.524   2.852   6.362 -2.4441  0.9970 -3.0967
 2462Sol     MW12984   2.483   2.773   6.373 -0.1594  0.3835 -0.0115
 2463Sol     OW12985   1.505   0.803   9.090  0.3491  0.2205  0.0720
 2463Sol     HW12986   1.575   0.776   9.030 -0.3915 -0.4689 -0.5007
 2463Sol     HW12987   1.433   0.743   9.071 -0.5165  1.1368  0.4214
 2463Sol     MW12988   1.505   0.795   9.083  0.0611 -0.3968 -0.0852
 2464Sol     OW12989   0.151   1.415   2.907 -0.4073 -0.0357  0.3333
 2464Sol     HW12990   0.082   1.481   2.893 -1.9834 -1.2474  2.1776
 2464Sol     HW12991   0.122   1.339   2.858 -0.6692 -0.7513  1.5996
 2464Sol     MW12992   0.142   1.414   2.901 -0.3754 -0.1110  0.4739
 2465Sol     OW12993   0.450   1.942   6.794  0.2889  0.4980 -0.2059
 2465Sol     HW12994   0.398   1.867   6.764  1.1038 -0.0259 -0.3278
 2465Sol     HW12995   0.402   1.975   6.870  0.6452 -1.0095  0.7098
 2465Sol     MW12996   0.441   1.938   6.798 -0.4198  0.6773  0.0858
 2466Sol     OW12997   2.517   0.590   2.948  0.1362  0.3085 -0.1420
 2466Sol     HW12998   2.500   0.509   2.901 -0.0552  0.3021 -0.0636
 2466Sol     HW12999   2.479   0.575   3.035  0.8165  0.1790  0.1357
 2466Sol     MW13000   2.512   0.582   2.952 -0.4049  0.3435 -0.1547
 2467Sol     OW13001   0.879   2.022   3.794  0.0041 -0.3901  0.0993
 2467Sol     HW13002   0.951   2.049   3.737 -0.2633  1.1307  0.4714
 2467Sol     HW13003   0.910   1.941   3.835  1.2483 -0.0899 -0.2355
 2467Sol     MW13004   0.888   2.017   3.793  0.0108  0.2444  0.4450
 2468Sol     OW13005   2.066   2.118   9.104  0.1159  0.1836 -0.4567
 2468Sol     HW13006   2.016   2.131   9.023  2.7388 -0.2762 -2.2224
 2468Sol     HW13007   2.115   2.199   9.115  0.3654 -0.0553  0.2047
 2468Sol     MW13008   2.066   2.126   9.097 -0.0684  0.1486 -0.0640
 2469Sol     OW13009   0.729   1.393   2.399 -0.3116 -0.1373  0.4539
 2469Sol     HW13010   0.657   1.397   2.335 -1.6147  2.4681  1.9845
 2469Sol     HW13011   0.703   1.323   2.459 -1.0544  0.0661  0.3832
 2469Sol     MW13012   0.720   1.387   2.398 -0.2088  0.1539 -0.2723
 2470Sol     OW13013   1.946   1.646   4.542  0.3658 -0.8042 -0.3199
 2470Sol     HW13014   2.004   1.597   4.484 -0.5770  1.4109 -3.2516
 2470Sol     HW13015   1.930   1.728   4.496 -2.1661  0.1395  2.1169
 2470Sol     MW13016   1.950   1.649   4.533 -0.2459  0.1256  0.3213
 2471Sol     OW13017   0.698   0.509   4.832  0.7230 -0.4829 -0.0035
 2471Sol     HW13018   0.606   0.496   4.809  0.7140 -1.2756  0.4499
 2471Sol     HW13019   0.732   0.421   4.846  1.3120 -0.1450  0.7410
 2471Sol     MW13020   0.693   0.500   4.831  0.4016 -0.5115 -0.6379
 2472Sol     OW13021   0.036   2.638   4.982  0.5148 -0.2884  0.0009
 2472Sol     HW13022   0.036   2.657   4.888 -0.7204  0.8569  0.2215
 2472Sol     HW13023   0.050   2.544   4.987  0.5721 -0.3619 -1.3362
 2472Sol     MW13024   0.037   2.631   4.974 -0.0207 -0.5555 -0.2469
 2473Sol     OW13025   0.928   2.883   7.111  0.2430 -0.1834  0.1325
 2473Sol     HW13026   0.913   2.899   7.204 -2.7331  0.9518 -0.4887
 2473Sol     HW13027   0.930   2.971   7.072  1.2076 -0.6593 -0.9113
 2473Sol     MW13028   0.927   2.893   7.116 -0.0803 -0.4287  0.4112
 2474Sol     OW13029   0.390   1.215   4.128 -0.8093  0.0666 -0.4507
 2474Sol     HW13030   0.467   1.206   4.072 -1.0199  0.7452 -0.8583
 2474Sol     HW13031   0.345   1.131   4.121 -1.2808  0.4429 -1.9729
 2474Sol     MW13032   0.393   1.207   4.123  0.2639  0.1822  0.6826
 2475Sol     OW13033   0.908   2.471   8.656 -0.5551 -0.2711  0.1805
 2475Sol     HW13034   0.871   2.446   8.571  0.9397  2.2325 -1.2611
 2475Sol     HW13035   1.000   2.447   8.650 -0.0712  1.4806  0.4353
 2475Sol     MW13036   0.913   2.466   8.648 -0.8374  0.3943  0.4475
 2476Sol     OW13037   1.122   3.352   3.603 -0.5095 -0.0415  0.1148
 2476Sol     HW13038   1.078   3.416   3.547 -0.8258  0.3325  0.7740
 2476Sol     HW13039   1.096   3.377   3.692  2.5125  1.3684  0.6641
 2476Sol     MW13040   1.116   3.360   3.606  0.2209 -0.3736  0.1895
 2477Sol     OW13041   2.504   2.855   3.628 -0.5781  0.7705 -0.0345
 2477Sol     HW13042   2.573   2.789   3.624 -0.4110  0.9058  0.5544
 2477Sol     HW13043   2.526   2.917   3.559 -1.0938 -0.1286 -1.0236
 2477Sol     MW13044   2.512   2.855   3.621 -0.2010 -0.2050 -0.8429
 2478Sol     OW13045   1.973   0.462   8.671 -0.2527  0.2696  0.0691
 2478Sol     HW13046   1.993   0.520   8.745 -0.9052  1.6771 -0.8536
 2478Sol     HW13047   1.926   0.517   8.609  0.9622 -0.7062 -1.7471
 2478Sol     MW13048   1.971   0.472   8.672  0.3966  0.2704  0.4898
 2479Sol     OW13049   2.880   1.683   9.141 -0.1551 -0.1100 -0.1327
 2479Sol     HW13050   2.888   1.588   9.137  0.3661 -0.0681 -0.1440
 2479Sol     HW13051   2.935   1.709   9.215  0.5768  0.2797 -0.8060
 2479Sol     MW13052   2.886   1.677   9.148  0.1817  0.0295  0.5484
 2480Sol     OW13053   1.958   1.914   6.027  0.1338  0.0222 -0.2849
 2480Sol     HW13054   1.890   1.895   6.092  2.4148  0.0929  2.1966
 2480Sol     HW13055   1.961   2.009   6.022  1.3437  0.0594  1.0304
 2480Sol     MW13056   1.952   1.921   6.032  0.4348  0.5458 -0.4436
 2481Sol     OW13057   1.052   1.740   3.641 -0.0099 -0.6531  0.0396
 2481Sol     HW13058   0.991   1.734   3.714 -0.6284 -0.8386 -0.4867
 2481Sol     HW13059   0.997   1.760   3.565  0.8149  1.2463 -0.0940
 2481Sol     MW13060   1.041   1.741   3.641 -0.4839  0.3034 -0.2911
 2482Sol     OW13061   2.883   1.801   6.734  0.2203  0.9815 -0.1288
 2482Sol     HW13062   2.957   1.791   6.674  0.7557  0.7597  0.5644
 2482Sol     HW13063   2.837   1.879   6.702 -0.4488 -0.0977 -1.8183
 2482Sol     MW13064   2.885   1.807   6.726  0.7681  0.6918 -0.4134
 2483Sol     OW13065   1.454   1.374   6.443 -0.2006  0.0730  0.2240
 2483Sol     HW13066   1.541   1.333   6.448 -0.6218 -0.8557 -0.0219
 2483Sol     HW13067   1.405   1.335   6.514 -1.2099 -1.3000 -1.2017
 2483Sol     MW13068   1.458   1.367   6.450 -0.5561 -0.2544  0.0456
 2484Sol     OW13069   0.989   0.966   6.242 -0.1829  0.5176 -0.2320
 2484Sol     HW13070   0.959   1.036   6.184 -0.9223  0.0340 -0.4381
 2484Sol     HW13071   0.941   0.981   6.324 -2.2063 -1.1656 -1.0592
 2484Sol     MW13072   0.982   0.974   6.245  0.5127 -0.2638  0.0117
 2485Sol     OW13073   0.843   1.878   7.359 -0.1985  0.3254 -0.3814
 2485Sol     HW13074   0.930   1.865   7.322  0.0818 -2.2260  1.0992
 2485Sol     HW13075   0.792   1.915   7.287  1.3049 -1.0198 -2.1924
 2485Sol     MW13076   0.846   1.880   7.349  0.2193 -0.1031 -0.8604
 2486Sol     OW13077   3.146   3.344   1.938  0.0745  0.1289  0.0816
 2486Sol     HW13078   3.133   3.309   2.026 -0.3773 -0.3337 -0.1711
 2486Sol     HW13079   3.134   3.439   1.949  0.2468  0.0993  0.5589
 2486Sol     MW13080   3.144   3.350   1.947 -0.4062  0.3177  0.0311
 2487Sol     OW13081   3.133   1.148   7.329 -0.2955  0.3525  0.3033
 2487Sol     HW13082   3.115   1.236   7.363 -0.2854  0.1510  0.8357
 2487Sol     HW13083   3.172   1.102   7.403  0.5773  0.1836 -0.2635
 2487Sol     MW13084   3.135   1.152   7.339 -0.3652  0.1276 -0.1623
 2488Sol     OW13085   2.045   0.444   3.261  0.1196 -0.3750  0.1578
 2488Sol     HW13086   2.056   0.415   3.352  0.6542 -0.7111 -0.0174
 2488Sol     HW13087   2.099   0.523   3.255 -1.4831  0.8150  0.6904
 2488Sol     MW13088   2.050   0.449   3.269 -0.8025  0.5539 -0.3533
 2489Sol     OW13089   2.019   1.605   2.077  0.7213 -0.0176 -0.2209
 2489Sol     HW13090   2.074   1.680   2.054  0.6631  0.2014  0.3474
 2489Sol     HW13091   2.028   1.545   2.002 -0.0503  1.0045 -1.1463
 2489Sol     MW13092   2.025   1.606   2.068 -0.0128  0.3427 -0.5000
 2490Sol     OW13093   0.651   1.568   4.224 -0.0846  0.2798  0.2025
 2490Sol     HW13094   0.712   1.568   4.298  0.5512 -0.8916 -0.3074
 2490Sol     HW13095   0.574   1.522   4.256 -0.9545  2.2832  1.0372
 2490Sol     MW13096   0.650   1.564   4.233 -0.3424  0.7150  0.7974
 2491Sol     OW13097   0.861   0.718   8.266 -0.2850 -0.0812  0.0730
 2491Sol     HW13098   0.876   0.641   8.321 -1.7152 -1.0653 -0.8888
 2491Sol     HW13099   0.773   0.748   8.289 -0.0577  0.7793 -0.1467
 2491Sol     MW13100   0.854   0.714   8.273 -0.2718  0.2034 -0.1581
 2492Sol     OW13101   0.180   0.394   2.768 -0.5485 -0.2749 -0.5054
 2492Sol     HW13102   0.087   0.383   2.747 -0.4538  0.0372 -1.1124
 2492Sol     HW13103   0.222   0.407   2.683 -0.1342  0.9268 -0.1296
 2492Sol     MW13104   0.176   0.394   2.758 -0.1633  0.4041 -0.0601
 2493Sol     OW13105   0.335   0.649   8.184 -0.4662  0.3362  0.0016
 2493Sol     HW13106   0.319   0.665   8.277  0.2977 -0.2097  0.2286
 2493Sol     HW13107   0.350   0.736   8.147 -1.7310  0.6497  0.2010
 2493Sol     MW13108   0.335   0.659   8.189  0.0845 -0.1099 -0.1123
 2494Sol     OW13109   0.709   3.429   5.709  0.3011  0.0383  0.3916
 2494Sol     HW13110   0.697   3.482   5.630 -0.7804  0.8601  1.1016
 2494Sol     HW13111   0.778   3.367   5.685  0.7598  0.9957 -0.8346
 2494Sol     MW13112   0.714   3.428   5.700 -0.1180  0.5869  0.4117
 2495Sol     OW13113   2.091   0.364   3.515 -0.4031  0.3572  0.1696
 2495Sol     HW13114   2.012   0.321   3.548 -1.0411  2.1934  1.0643
 2495Sol     HW13115   2.160   0.340   3.577 -0.8967  1.1224  1.0254
 2495Sol     MW13116   2.090   0.358   3.523  0.2210 -0.1110  0.4277
 2496Sol     OW13117   1.273   0.397   4.107 -0.6277  0.1554  0.4055
 2496Sol     HW13118   1.333   0.423   4.176  0.2111 -0.7362  0.0341
 2496Sol     HW13119   1.287   0.460   4.037 -1.3080  0.9183  0.9512
 2496Sol     MW13120   1.280   0.405   4.107  0.3748  0.8723 -0.2491
 2497Sol     OW13121   0.465   1.186   7.408  0.2693 -0.1615  0.0143
 2497Sol     HW13122   0.534   1.123   7.430  0.8622  0.5799  0.3016
 2497Sol     HW13123   0.511   1.259   7.367 -0.4733 -0.1159 -0.7535
 2497Sol     MW13124   0.475   1.187   7.406  0.3446  0.0187  0.4979
 2498Sol     OW13125   1.763   1.596   1.982  0.1022 -0.6676 -0.4822
 2498Sol     HW13126   1.741   1.689   1.974 -1.0087 -0.5710  2.8238
 2498Sol     HW13127   1.853   1.595   2.013  0.6514 -0.7659 -2.0341
 2498Sol     MW13128   1.769   1.604   1.984  0.0991  0.2674 -0.0472
 2499Sol     OW13129   3.293   0.628   4.071 -0.1694 -0.6266  0.3470
 2499Sol     HW13130   3.260   0.660   4.155  0.0097  0.2579  0.0835
 2499Sol     HW13131   3.215   0.618   4.017 -0.3407 -1.7113  0.7868
 2499Sol     MW13132   3.283   0.630   4.074  0.0726  0.2439  0.1634
 2500Sol     OW13133   0.698   0.249   5.532  0.4499  0.1067 -0.3214
 2500Sol     HW13134   0.623   0.239   5.473 -1.3085  2.1027  1.4650
 2500Sol     HW13135   0.728   0.339   5.517  1.2336 -0.0226  0.4172
 2500Sol     MW13136   0.694   0.257   5.525  0.0047 -0.1866  0.5186
 2501Sol     OW13137   0.102   0.635   5.431 -0.2677  0.1531  0.0409
 2501Sol     HW13138   0.010   0.659   5.438  0.3457  3.2283 -1.6211
 2501Sol     HW13139   0.108   0.587   5.349 -0.7786 -2.3071  1.3881
 2501Sol     MW13140   0.094   0.633   5.424  0.4387  0.2878  0.1013
 2502Sol     OW13141   0.421   2.452   6.583  0.3651  0.1308  0.4885
 2502Sol     HW13142   0.405   2.475   6.675 -0.8461 -1.2905  0.6493
 2502Sol     HW13143   0.383   2.524   6.533  0.9977  0.8948  1.0897
 2502Sol     MW13144   0.416   2.460   6.587 -0.0415 -0.1672  0.6427
 2503Sol     OW13145   1.628   0.265   7.478  0.4016 -0.0486  0.3273
 2503Sol     HW13146   1.669   0.198   7.532  0.6917  0.8886  1.2948
 2503Sol     HW13147   1.537   0.238   7.470  0.5011 -0.5180  0.7853
 2503Sol     MW13148   1.624   0.257   7.482 -0.0301 -0.1826  0.1890
 2504Sol     OW13149   2.426   2.791   1.865  0.0837 -0.0297 -0.6149
 2504Sol     HW13150   2.356   2.768   1.804 -0.5968 -1.9597  0.8283
 2504Sol     HW13151   2.414   2.731   1.939  1.5941  1.4649  0.8976
 2504Sol     MW13152   2.418   2.783   1.866 -0.2461 -0.8133 -0.0129
 2505Sol     OW13153   2.395   0.983   3.534 -0.4557  0.0001  0.6463
 2505Sol     HW13154   2.302   1.001   3.539 -0.6822 -1.2654  1.4033
 2505Sol     HW13155   2.438   1.068   3.545 -1.4816  0.3138  2.4514
 2505Sol     MW13156   2.391   0.992   3.536  0.1340  0.4009 -0.1235
 2506Sol     OW13157   1.064   0.357   3.644  0.5565  0.3490 -0.8849
 2506Sol     HW13158   1.026   0.311   3.720  1.1604 -0.4065 -1.0354
 2506Sol     HW13159   1.033   0.447   3.653  2.6211  0.8853  1.6337
 2506Sol     MW13160   1.058   0.361   3.652 -0.3903  0.6762 -0.0262
 2507Sol     OW13161   0.692   1.100   8.688  0.6097 -0.6000  0.6261
 2507Sol     HW13162   0.771   1.106   8.742  0.9621 -2.4776  0.3421
 2507Sol     HW13163   0.712   1.033   8.623 -0.9254 -0.5075  0.0320
 2507Sol     MW13164   0.701   1.095   8.687 -0.5629  0.2217 -0.5948
 2508Sol     OW13165   1.806   1.176   8.845  0.0415  0.5171  0.0972
 2508Sol     HW13166   1.857   1.193   8.766 -0.1794  1.2122  0.1000
 2508Sol     HW13167   1.865   1.196   8.918  0.0984  0.3169  0.1067
 2508Sol     MW13168   1.816   1.179   8.845 -0.3113 -0.4702  0.7933
 2509Sol     OW13169   1.251   3.229   2.543  0.1747 -0.3486  0.5387
 2509Sol     HW13170   1.293   3.296   2.487 -1.0097 -2.2614 -2.8048
 2509Sol     HW13171   1.314   3.213   2.612  2.6491  0.6712 -1.3876
 2509Sol     MW13172   1.260   3.234   2.544  0.1220  0.3320 -0.5005
 2510Sol     OW13173   2.420   3.279   9.016 -0.0134 -0.2661 -0.1770
 2510Sol     HW13174   2.358   3.300   9.086 -0.6776  1.2130 -1.2092
 2510Sol     HW13175   2.390   3.329   8.941  1.9411 -0.1814 -0.9302
 2510Sol     MW13176   2.412   3.285   9.016 -0.1846  0.5185  0.2917
 2511Sol     OW13177   3.275   2.963   9.489  0.2816 -0.7391  0.3324
 2511Sol     HW13178   3.289   2.872   9.513  1.9111  0.0294  2.4748
 2511Sol     HW13179   3.182   2.979   9.507  0.2198 -1.6946  0.8793
 2511Sol     MW13180   3.268   2.957   9.493 -0.1333 -0.3203 -0.6509
 2512Sol     OW13181   0.852   3.411   4.648  0.0900 -0.7521  0.4215
 2512Sol     HW13182   0.863   3.345   4.579  0.2011 -0.5876  0.2795
 2512Sol     HW13183   0.869   3.494   4.604 -0.6005 -0.5845  0.4705
 2512Sol     MW13184   0.855   3.412   4.638 -0.1928 -0.3179  0.4184
 2513Sol     OW13185   0.071   1.900   1.984  0.2449 -0.0295 -0.3239
 2513Sol     HW13186   0.131   1.975   1.978  0.8491 -0.5028 -0.3157
 2513Sol     HW13187   0.080   1.856   1.899  3.5552 -2.8165  1.2888
 2513Sol     MW13188   0.077   1.902   1.976 -0.3279  0.1176  0.1499
 2514Sol     OW13189   3.087   2.155   7.536 -0.1056  0.0694 -0.2108
 2514Sol     HW13190   3.143   2.213   7.589 -0.5456  0.8715 -0.6090
 2514Sol     HW13191   3.118   2.067   7.556  0.4990  0.4356  0.5017
 2514Sol     MW13192   3.095   2.153   7.543  0.1222  0.0057  0.0689
 2515Sol     OW13193   0.628   3.399   9.187  0.0549 -0.2602  0.3750
 2515Sol     HW13194   0.676   3.455   9.126  0.6915 -0.2624  0.8698
 2515Sol     HW13195   0.536   3.415   9.167  0.2497  0.2668 -0.1101
 2515Sol     MW13196   0.624   3.405   9.180 -0.5000  0.2844  0.5245
 2516Sol     OW13197   1.851   2.479   3.505  0.4409 -0.3920  0.5218
 2516Sol     HW13198   1.798   2.504   3.429  0.3359  2.9536  1.6295
 2516Sol     HW13199   1.788   2.474   3.577  0.9818 -0.8204  0.9689
 2516Sol     MW13200   1.841   2.481   3.505  0.0118 -0.2519  0.0757
 2517Sol     OW13201   1.746   0.321   5.759  0.2182  0.1540  0.2612
 2517Sol     HW13202   1.656   0.305   5.788 -0.7118 -0.2546 -2.6934
 2517Sol     HW13203   1.798   0.256   5.805 -1.2819 -0.8990  0.5022
 2517Sol     MW13204   1.743   0.314   5.765  0.0303  0.2367 -0.3671
 2518Sol     OW13205   0.453   1.261   3.748 -0.7548 -0.0237  0.4088
 2518Sol     HW13206   0.488   1.328   3.689 -2.0325  0.3543  0.0745
 2518Sol     HW13207   0.527   1.239   3.805  0.5892 -0.5684 -1.4798
 2518Sol     MW13208   0.463   1.265   3.748 -0.5404 -0.2825 -0.6700
 2519Sol     OW13209   3.231   2.135   8.097  0.0698  0.5866 -0.3308
 2519Sol     HW13210   3.155   2.146   8.039 -0.4021  0.5669  0.2794
 2519Sol     HW13211   3.193   2.104   8.180  0.9139 -1.2261 -0.5930
 2519Sol     MW13212   3.221   2.133   8.099  0.0983 -0.0146 -0.1993
 2520Sol     OW13213   1.138   0.912   7.522  0.2597 -0.5053 -0.3648
 2520Sol     HW13214   1.180   0.942   7.603 -0.7259  1.5148 -0.5840
 2520Sol     HW13215   1.049   0.888   7.549 -0.0540  0.1243 -0.8452
 2520Sol     MW13216   1.134   0.913   7.532 -0.0191  0.5112 -0.2271
 2521Sol     OW13217   1.000   2.095   4.588 -0.0990  0.1960  0.6561
 2521Sol     HW13218   1.089   2.074   4.560 -0.2013 -0.9024  1.1304
 2521Sol     HW13219   0.982   2.181   4.550  0.8665  0.0549 -0.1222
 2521Sol     MW13220   1.006   2.101   4.582 -0.0840  0.3382  0.4125
 2522Sol     OW13221   3.289   0.700   7.705 -0.9169  0.0355 -0.4140
 2522Sol     HW13222   3.378   0.731   7.688 -0.5506 -1.3349 -1.1420
 2522Sol     HW13223   3.253   0.683   7.618 -2.7008  2.6710 -0.2348
 2522Sol     MW13224   3.294   0.701   7.695  0.1543 -0.1055  0.3999
 2523Sol     OW13225   3.127   3.438   7.946 -0.8428 -0.0049 -0.0713
 2523Sol     HW13226   3.220   3.420   7.962 -1.0100  0.1590  1.1183
 2523Sol     HW13227   3.093   3.466   8.031 -2.2064 -1.0531 -0.2518
 2523Sol     MW13228   3.132   3.439   7.955  0.4156 -0.9764  0.1570
 2524Sol     OW13229   1.484   0.022   6.129 -0.1854  0.7560  0.2008
 2524Sol     HW13230   1.425   0.071   6.072 -0.5464  1.3170  1.0394
 2524Sol     HW13231   1.468  -0.070   6.107 -0.8296  0.9367 -0.1056
 2524Sol     MW13232   1.477   0.018   6.122 -0.5402 -0.4446 -0.5542
 2525Sol     OW13233   1.643   2.705   9.501 -0.0611  0.6689 -0.2321
 2525Sol     HW13234   1.728   2.744   9.480 -0.1139  0.0189 -1.7512
 2525Sol     HW13235   1.582   2.778   9.502 -0.2213  0.6311 -3.3762
 2525Sol     MW13236   1.645   2.715   9.499  0.4221 -0.0429 -0.4399
 2526Sol     OW13237   0.834   0.653   7.626  0.3392  0.3174 -0.5922
 2526Sol     HW13238   0.815   0.586   7.560  1.7796 -0.1709 -0.5250
 2526Sol     HW13239   0.877   0.606   7.697 -0.5078  0.9722  0.3740
 2526Sol     MW13240   0.836   0.643   7.627  0.8941  0.2469 -0.6929
 2527Sol     OW13241   0.617   0.348   6.285  0.2012 -0.5513  0.0189
 2527Sol     HW13242   0.609   0.331   6.191 -1.9972 -1.8537  0.3821
 2527Sol     HW13243   0.567   0.428   6.299 -1.2890 -1.4997  0.3429
 2527Sol     MW13244   0.611   0.353   6.278  0.0009  0.2092  0.2244
 2528Sol     OW13245   1.305   2.759   7.642  1.0245  0.4148  0.0678
 2528Sol     HW13246   1.321   2.692   7.575  0.3600 -0.0899  0.4062
 2528Sol     HW13247   1.271   2.710   7.716 -0.2446  1.2304  0.0365
 2528Sol     MW13248   1.303   2.748   7.642  0.7007  0.0105  0.1579
 2529Sol     OW13249   1.594   2.282   4.681 -0.2767 -0.6942  0.6487
 2529Sol     HW13250   1.547   2.228   4.617  0.8689 -0.8995 -0.0354
 2529Sol     HW13251   1.679   2.239   4.691  0.1485  0.2405  1.1065
 2529Sol     MW13252   1.598   2.274   4.676 -0.2807  0.6480  0.0152
 2530Sol     OW13253   1.204   2.386   5.112 -0.1595  0.0010  0.7323
 2530Sol     HW13254   1.166   2.347   5.033  1.5961 -2.0494  0.8583
 2530Sol     HW13255   1.198   2.317   5.178 -0.0964  1.1304  1.9293
 2530Sol     MW13256   1.200   2.376   5.111 -0.5711 -0.2356  0.4415
 2531Sol     OW13257   1.434   2.530   1.449  0.3117  0.1689 -0.2608
 2531Sol     HW13258   1.442   2.446   1.494 -2.4627  0.3576  0.6957
 2531Sol     HW13259   1.446   2.509   1.356  0.0252 -1.2240 -0.0017
 2531Sol     MW13260   1.436   2.521   1.445  0.4727 -0.3700 -0.2962
 2532Sol     OW13261   2.361   1.150   8.946 -0.1187 -0.0518 -0.1045
 2532Sol     HW13262   2.385   1.084   9.012  0.9449  2.7766  2.4259
 2532Sol     HW13263   2.269   1.170   8.966  0.0178  0.3595  0.0989
 2532Sol     MW13264   2.355   1.146   8.954 -0.0899  0.3433  0.0113
 2533Sol     OW13265   1.896   1.694   6.307  0.0280  0.1996 -0.4889
 2533Sol     HW13266   1.931   1.775   6.345  1.1817  0.1365 -1.4262
 2533Sol     HW13267   1.839   1.659   6.376  1.7131  0.3518  1.0061
 2533Sol     MW13268   1.894   1.698   6.317  0.1502 -0.3650  0.3415
 2534Sol     OW13269   2.976   0.615   5.811  0.2466 -0.2034 -0.5886
 2534Sol     HW13270   2.992   0.524   5.837 -3.5267 -0.6242  0.4405
 2534Sol     HW13271   2.915   0.649   5.877 -0.4793  2.2543 -2.4624
 2534Sol     MW13272   2.972   0.610   5.819  0.5585  0.2027 -0.2362
 2535Sol     OW13273   1.541   1.837   5.649  0.1170 -0.2976  0.3968
 2535Sol     HW13274   1.508   1.747   5.661 -1.9924  0.6237  1.8320
 2535Sol     HW13275   1.537   1.875   5.737  1.2324  1.1328 -0.1714
 2535Sol     MW13276   1.538   1.832   5.658 -0.6225 -0.5063 -0.0087
 2536Sol     OW13277   3.230   2.757   6.046  0.1318 -0.4466 -0.1989
 2536Sol     HW13278   3.256   2.698   6.117  2.2012  0.1667 -0.4374
 2536Sol     HW13279   3.232   2.844   6.086 -1.3349 -0.3533 -0.2966
 2536Sol     MW13280   3.232   2.759   6.056 -0.5458  0.0642 -0.2173
 2537Sol     OW13281   0.181   3.248   3.393  0.1958  0.2965 -0.5567
 2537Sol     HW13282   0.226   3.321   3.436  1.1792  0.1278 -1.2823
 2537Sol     HW13283   0.161   3.281   3.305 -1.7236  0.6106 -0.0121
 2537Sol     MW13284   0.183   3.258   3.389  0.8109 -0.6725  0.9862
 2538Sol     OW13285   0.649   1.357   1.882  0.0052 -0.7193  0.4657
 2538Sol     HW13286   0.671   1.285   1.823  1.1217 -0.5217  0.6243
 2538Sol     HW13287   0.609   1.315   1.958 -2.3482 -0.8880 -0.8453
 2538Sol     MW13288   0.647   1.347   1.884 -0.5166  0.4859 -0.0040
 2539Sol     OW13289   3.323   3.047   8.992 -0.5574  0.3052 -0.3531
 2539Sol     HW13290   3.414   3.024   9.012 -0.2193 -0.0440 -2.2144
 2539Sol     HW13291   3.287   3.076   9.076  1.5647  1.4579  0.1934
 2539Sol     MW13292   3.328   3.047   9.002 -0.0583  0.1584  0.2130
 2540Sol     OW13293   1.439   0.417   7.978  0.1065 -0.1428 -0.4158
 2540Sol     HW13294   1.519   0.418   7.925 -0.0275  2.2343 -0.6359
 2540Sol     HW13295   1.447   0.338   8.032  2.1243 -0.4723 -1.1516
 2540Sol     MW13296   1.447   0.410   7.979  0.2691  0.1239  0.1325
 2541Sol     OW13297   0.401   3.019   3.737  0.4178  0.3698 -0.3343
 2541Sol     HW13298   0.414   2.967   3.817 -1.3145 -0.2149 -0.4061
 2541Sol     HW13299   0.489   3.037   3.705  1.0860 -0.9404  0.7285
 2541Sol     MW13300   0.410   3.016   3.742  0.5996 -0.0600 -0.2285
 2542Sol     OW13301   2.517   3.303   4.463 -0.1526 -0.4404  0.0997
 2542Sol     HW13302   2.486   3.362   4.532  2.6908 -0.0113  1.0781
 2542Sol     HW13303   2.516   3.216   4.505 -3.3551 -0.9971 -1.0146
 2542Sol     MW13304   2.514   3.300   4.473 -0.0612 -0.6991  0.1112
 2543Sol     OW13305   3.181   1.424   2.501  0.0375  0.1271  0.0237
 2543Sol     HW13306   3.220   1.339   2.483 -1.4127 -0.2257 -1.5678
 2543Sol     HW13307   3.103   1.405   2.553  1.3332  0.7515  2.2796
 2543Sol     MW13308   3.178   1.415   2.504 -0.3888  0.0695 -0.0343
 2544Sol     OW13309   1.713   0.355   7.836 -0.2952 -0.0486 -0.3156
 2544Sol     HW13310   1.778   0.401   7.784 -0.9682 -0.1382 -1.2398
 2544Sol     HW13311   1.723   0.263   7.813 -1.9817  0.1314 -1.8574
 2544Sol     MW13312   1.719   0.351   7.830  0.5844  0.1616 -0.4319
 2545Sol     OW13313   2.359   2.559   2.054  0.7080 -0.3668  0.1413
 2545Sol     HW13314   2.303   2.522   1.985 -0.2092 -0.0708  0.7145
 2545Sol     HW13315   2.438   2.505   2.053  0.6533 -0.4373 -1.0661
 2545Sol     MW13316   2.361   2.551   2.048 -0.2998  0.4237 -0.1808
 2546Sol     OW13317   0.765   1.918   8.823  0.4631 -0.4365  0.3178
 2546Sol     HW13318   0.844   1.863   8.828 -0.4848 -2.0144 -1.4450
 2546Sol     HW13319   0.692   1.855   8.826 -0.7483  1.0156  2.1993
 2546Sol     MW13320   0.766   1.907   8.824 -0.4864  0.0424 -0.0651
 2547Sol     OW13321   2.306   0.013   8.569  0.2377  0.3151  0.1222
 2547Sol     HW13322   2.266   0.091   8.607  0.3053  1.5227 -2.1790
 2547Sol     HW13323   2.252  -0.007   8.493  1.2385 -0.8687 -0.2959
 2547Sol     MW13324   2.297   0.018   8.565 -0.0265 -0.8289 -0.5575
 2548Sol     OW13325   2.546   2.995   3.366  0.0003 -0.4648  0.2004
 2548Sol     HW13326   2.573   2.904   3.350 -0.5114 -0.7396  0.8556
 2548Sol     HW13327   2.606   3.047   3.313 -0.0115 -1.2103 -0.5613
 2548Sol     MW13328   2.554   2.991   3.360 -0.0312  0.4183 -0.3864
 2549Sol     OW13329   1.044   0.906   4.028 -0.0909 -0.3037 -0.0301
 2549Sol     HW13330   1.064   0.954   4.108  1.1367 -2.1474  0.7721
 2549Sol     HW13331   0.992   0.831   4.057  1.7548 -1.8860 -0.7537
 2549Sol     MW13332   1.041   0.904   4.038 -0.4966  0.1159 -0.5808
 2550Sol     OW13333   1.707   0.517   9.177  0.3839  0.4026  0.0530
 2550Sol     HW13334   1.632   0.459   9.186  0.1763  0.9574  2.3631
 2550Sol     HW13335   1.694   0.561   9.093 -1.2305 -0.4024 -0.1354
 2550Sol     MW13336   1.700   0.516   9.170 -0.0541 -0.0307  0.0733
 2551Sol     OW13337   0.870   3.442   3.463  0.1724 -0.1979  0.0382
 2551Sol     HW13338   0.806   3.472   3.527  0.2064  0.7537 -0.3616
 2551Sol     HW13339   0.912   3.522   3.431  1.4767 -0.8023  0.2037
 2551Sol     MW13340   0.868   3.452   3.466 -0.3531 -0.0933 -0.6955
 2552Sol     OW13341   0.084   1.337   9.698 -0.6225  0.1991 -0.5426
 2552Sol     HW13342   0.021   1.271   9.670  0.1817 -0.3285 -1.1391
 2552Sol     HW13343   0.102   1.388   9.620 -1.2615  1.1503 -0.0730
 2552Sol     MW13344   0.080   1.335   9.689  0.0457 -0.1405  0.2470
 2553Sol     OW13345   1.925   2.596   6.565  0.5337 -0.4179  0.1655
 2553Sol     HW13346   1.937   2.503   6.544  1.2967 -0.2866  0.0213
 2553Sol     HW13347   1.854   2.597   6.628  0.0091 -1.0409 -0.4090
 2553Sol     MW13348   1.920   2.588   6.569 -0.0267 -0.1520 -0.2713
 2554Sol     OW13349   1.353   1.280   5.912 -0.2380 -0.1239  0.2790
 2554Sol     HW13350   1.436   1.321   5.889 -0.8844  1.3905  0.5903
 2554Sol     HW13351   1.341   1.301   6.005 -0.6705 -0.8497  0.3908
 2554Sol     MW13352   1.359   1.286   5.918  0.3619  0.1181 -0.0543
 2555Sol     OW13353   1.660   1.374   7.994  0.0122 -0.1882 -0.5036
 2555Sol     HW13354   1.637   1.444   7.934  0.3640  0.7176  0.4101
 2555Sol     HW13355   1.605   1.300   7.966  0.0845  0.2547 -1.8413
 2555Sol     MW13356   1.653   1.373   7.987 -0.2921 -0.3170  0.7666
 2556Sol     OW13357   0.506   3.257   9.629  0.0157  0.2665 -0.2157
 2556Sol     HW13358   0.511   3.341   9.581  0.5178  0.6533  0.5111
 2556Sol     HW13359   0.420   3.222   9.605  0.5365  0.1224 -1.9535
 2556Sol     MW13360   0.499   3.262   9.622 -0.7500  0.0997  0.0327
 2557Sol     OW13361   0.108   2.826   3.580  0.4019  0.1819  0.0389
 2557Sol     HW13362   0.166   2.880   3.526 -1.3362 -0.2028 -2.3116
 2557Sol     HW13363   0.107   2.741   3.536 -3.0538  0.6006 -0.8433
 2557Sol     MW13364   0.113   2.823   3.571  0.0305  0.3415 -0.1707
 2558Sol     OW13365   3.043   1.770   8.696 -0.0693  0.0587  0.3541
 2558Sol     HW13366   3.020   1.845   8.641 -0.0237  0.2525  0.6030
 2558Sol     HW13367   3.033   1.801   8.786 -0.6141 -0.4050  0.4578
 2558Sol     MW13368   3.040   1.779   8.699  0.3765 -0.9736 -0.3983
 2559Sol     OW13369   2.343   2.906   9.688 -0.2392 -0.1896 -0.5082
 2559Sol     HW13370   2.334   2.840   9.619 -0.2463 -1.7245  0.9312
 2559Sol     HW13371   2.254   2.941   9.700 -0.1315  0.5201 -1.6665
 2559Sol     MW13372   2.334   2.904   9.683  0.7188 -0.1213 -0.1029
 2560Sol     OW13373   0.141   1.844   8.700  0.5891 -1.0893  0.1556
 2560Sol     HW13374   0.171   1.816   8.786  0.1572 -1.1925  0.2744
 2560Sol     HW13375   0.202   1.802   8.639  2.3601  0.9170  0.5025
 2560Sol     MW13376   0.149   1.838   8.702  0.5775 -0.0264 -0.1930
 2561Sol     OW13377   3.038   3.256   8.437 -0.1467 -0.1442 -0.2921
 2561Sol     HW13378   3.058   3.336   8.485 -2.0493 -0.2126  0.6672
 2561Sol     HW13379   3.115   3.201   8.450  0.6032  0.9958  0.1915
 2561Sol     MW13380   3.046   3.258   8.443 -0.2065 -0.2213 -0.0204
 2562Sol     OW13381   0.879   2.316   6.691  0.0662  0.3124  0.7596
 2562Sol     HW13382   0.955   2.361   6.729 -0.2321  1.4664 -0.0137
 2562Sol     HW13383   0.807   2.377   6.702  0.2238  1.2148 -2.8104
 2562Sol     MW13384   0.880   2.325   6.695 -0.0732  0.3662  0.0112
 2563Sol     OW13385   1.214   3.358   7.351 -0.4222  0.2076  0.5200
 2563Sol     HW13386   1.146   3.425   7.357 -0.3533  0.2000  1.3865
 2563Sol     HW13387   1.296   3.407   7.355 -0.3696  0.1946 -0.2855
 2563Sol     MW13388   1.215   3.368   7.352 -0.0992  0.5037  0.2568
 2564Sol     OW13389   1.732   0.182   7.073 -0.6317 -0.2114 -0.6922
 2564Sol     HW13390   1.786   0.228   7.138  0.0166 -1.0285 -0.6385
 2564Sol     HW13391   1.796   0.140   7.015 -1.2061  0.4305 -1.8114
 2564Sol     MW13392   1.743   0.182   7.073  0.3517  0.0755 -0.1274
 2565Sol     OW13393   0.583   0.460   6.675  0.3134 -0.3548  0.2114
 2565Sol     HW13394   0.655   0.488   6.619  0.7010  1.3752  1.5287
 2565Sol     HW13395   0.586   0.519   6.750 -2.8482  0.1320  0.0277
 2565Sol     MW13396   0.589   0.467   6.677  0.6666  0.3783  0.2333
 2566Sol     OW13397   0.264   3.104   9.578  0.2140  0.1741  0.3331
 2566Sol     HW13398   0.267   3.131   9.670 -0.4440 -0.3019  0.5004
 2566Sol     HW13399   0.250   3.185   9.530 -2.5228  0.0952  0.8839
 2566Sol     MW13400   0.263   3.114   9.582 -0.0117 -0.1252 -0.2022
 2567Sol     OW13401   0.973   2.809   2.196 -0.2093 -0.6654  0.5842
 2567Sol     HW13402   0.881   2.821   2.216 -0.8823 -1.6305 -1.7820
 2567Sol     HW13403   0.983   2.715   2.184  0.7558 -0.4030 -0.7017
 2567Sol     MW13404   0.966   2.802   2.197 -0.2653 -0.1078 -0.5465
 2568Sol     OW13405   1.869   2.847   9.464 -0.8179 -0.3004 -0.4548
 2568Sol     HW13406   1.921   2.767   9.462  1.5736  1.1970 -2.2925
 2568Sol     HW13407   1.922   2.908   9.516 -1.5394  0.7440 -0.9325
 2568Sol     MW13408   1.879   2.846   9.469  0.4577  0.4835 -0.1899
 2569Sol     OW13409   0.680   3.250   4.815 -0.1840  0.2913  0.4319
 2569Sol     HW13410   0.734   3.311   4.765 -0.5145 -0.1620 -0.4828
 2569Sol     HW13411   0.633   3.305   4.878 -0.0070  0.9025  0.0276
 2569Sol     MW13412   0.680   3.260   4.816 -0.6515 -0.3937  0.2536
 2570Sol     OW13413   1.837   1.715   4.120 -0.3228 -0.5836  0.3526
 2570Sol     HW13414   1.763   1.699   4.178 -0.8082  0.0856 -0.0793
 2570Sol     HW13415   1.914   1.695   4.174 -0.7349  0.7742  1.4859
 2570Sol     MW13416   1.837   1.712   4.130  0.0805  0.4286 -0.3496
 2571Sol     OW13417   1.209   1.017   9.148  0.3781 -0.2510  0.2175
 2571Sol     HW13418   1.128   0.997   9.101 -0.3035  0.3598  1.1070
 2571Sol     HW13419   1.270   1.047   9.080 -0.3486 -0.1144 -0.3796
 2571Sol     MW13420   1.207   1.018   9.137  0.2087  0.0249  0.1902
 2572Sol     OW13421   2.027   3.218   2.570  0.0373 -0.1057 -0.1066
 2572Sol     HW13422   1.936   3.242   2.588 -0.6393 -1.3621 -1.6830
 2572Sol     HW13423   2.047   3.262   2.488 -0.4059 -2.7807 -1.7253
 2572Sol     MW13424   2.021   3.224   2.564 -0.3517  0.2708 -0.2143
 2573Sol     OW13425   2.340   2.843   2.624 -0.5283 -0.0325 -0.4994
 2573Sol     HW13426   2.397   2.888   2.686 -1.0171  0.8901 -0.7110
 2573Sol     HW13427   2.301   2.913   2.572 -0.0587 -0.7815 -1.9102
 2573Sol     MW13428   2.342   2.853   2.625 -0.3593 -0.0916 -0.4498
 2574Sol     OW13429   1.179   1.341   7.331 -0.0533 -0.0709 -0.1687
 2574Sol     HW13430   1.253   1.295   7.371 -0.0289  0.7317  0.7066
 2574Sol     HW13431   1.183   1.429   7.367  0.7826  1.0872 -3.0101
 2574Sol     MW13432   1.186   1.345   7.338 -0.2916 -0.3897 -0.2709
 2575Sol     OW13433   1.292   2.003   6.520  0.2627 -0.0397  0.4798
 2575Sol     HW13434   1.355   1.943   6.482  1.2589  1.4733 -0.2960
 2575Sol     HW13435   1.243   1.950   6.583  0.6337 -1.8169 -0.7198
 2575Sol     MW13436   1.293   1.993   6.523 -0.0210  0.3692  0.2207
 2576Sol     OW13437   1.419   0.450   6.862 -0.2116  0.2145  0.2222
 2576Sol     HW13438   1.452   0.408   6.942  0.2794  1.1758  0.5276
 2576Sol     HW13439   1.497   0.490   6.822 -0.3079 -0.9054 -1.1494
 2576Sol     MW13440   1.429   0.450   6.866 -0.6187 -0.5998 -0.1660
 2577Sol     OW13441   1.904   0.266   9.431  0.0016 -0.2019 -0.5803
 2577Sol     HW13442   1.828   0.317   9.457  1.7356  1.4960  1.2863
 2577Sol     HW13443   1.928   0.300   9.345  0.0972  0.9412 -0.1036
 2577Sol     MW13444   1.899   0.273   9.425  0.0115 -0.0606  0.3008
 2578Sol     OW13445   1.897   2.521   2.572 -0.1559  0.1864 -0.1963
 2578Sol     HW13446   1.967   2.478   2.620  0.6308  1.6860  0.0224
 2578Sol     HW13447   1.817   2.494   2.617  0.3007 -1.1504 -0.1606
 2578Sol     MW13448   1.896   2.515   2.580  0.3059 -0.3006 -0.2201
 2579Sol     OW13449   0.226   0.853   5.350 -0.3054  0.3135  0.0718
 2579Sol     HW13450   0.216   0.906   5.429  0.0600  1.1571 -0.4353
 2579Sol     HW13451   0.182   0.770   5.370 -1.3294  0.9964  0.6954
 2579Sol     MW13452   0.221   0.850   5.359 -0.3602 -0.0479 -0.5238
 2580Sol     OW13453   1.934   1.010   7.702  0.0601 -0.4947  0.2806
 2580Sol     HW13454   1.910   0.922   7.674  0.1008  0.3710 -2.6122
 2580Sol     HW13455   1.857   1.063   7.683  0.9453  0.5675 -0.4350
 2580Sol     MW13456   1.925   1.007   7.698  0.0744  0.0045 -0.2636
 2581Sol     OW13457   1.174   1.260   3.868  0.3464  0.5938  0.0001
 2581Sol     HW13458   1.189   1.346   3.829  2.8230  0.5144  0.6535
 2581Sol     HW13459   1.132   1.279   3.952 -0.5116  1.0598 -0.5280
 2581Sol     MW13460   1.172   1.269   3.872  0.1818  0.6054 -0.6392
 2582Sol     OW13461   0.291   0.941   4.114  1.2224 -0.3747 -0.2316
 2582Sol     HW13462   0.228   0.885   4.067  0.8691 -0.3805  0.2491
 2582Sol     HW13463   0.268   0.931   4.206 -0.8287  2.9705 -0.3077
 2582Sol     MW13464   0.284   0.935   4.118  0.0809  0.0475 -0.1874
 2583Sol     OW13465   0.669   0.599   4.152  0.2135 -0.4520 -0.2696
 2583Sol     HW13466   0.615   0.553   4.216  1.1261 -1.8838 -0.5139
 2583Sol     HW13467   0.702   0.530   4.095 -0.9322  0.8458 -2.5636
 2583Sol     MW13468   0.667   0.589   4.153 -0.0646  0.1083  0.2775
 2584Sol     OW13469   1.140   0.398   2.164  0.1160 -0.6173  0.0460
 2584Sol     HW13470   1.189   0.367   2.240  1.1023 -1.4294 -0.8935
 2584Sol     HW13471   1.054   0.355   2.171 -1.5137  2.9413  3.1658
 2584Sol     MW13472   1.136   0.391   2.171  0.6261 -0.6510 -0.0464
 2585Sol     OW13473   3.125   0.848   2.142  0.3365  0.0820 -0.1339
 2585Sol     HW13474   3.141   0.896   2.060  1.6899  0.2255  0.1976
 2585Sol     HW13475   3.036   0.871   2.167  0.6556  1.7098 -0.4632
 2585Sol     MW13476   3.118   0.854   2.137 -0.1076 -0.1717 -0.6937
 2586Sol     OW13477   2.659   1.522   3.506 -0.6674 -0.0526  1.0196
 2586Sol     HW13478   2.670   1.617   3.509 -1.3655  0.0247  1.1338
 2586Sol     HW13479   2.748   1.488   3.498 -0.4972  0.6640 -0.3253
 2586Sol     MW13480   2.668   1.527   3.506 -0.9761 -0.4033 -0.6312
 2587Sol     OW13481   0.214   0.148   9.666 -0.2344  0.1321  0.5539
 2587Sol     HW13482   0.234   0.087   9.737 -0.3814  0.5457  0.9568
 2587Sol     HW13483   0.125   0.125   9.640 -0.5898  0.6857  1.2465
 2587Sol     MW13484   0.208   0.141   9.670 -0.1737 -0.6112  0.1478
 2588Sol     OW13485   0.214   2.661   7.534  0.9348  0.3161  0.4162
 2588Sol     HW13486   0.272   2.599   7.490  0.0750 -0.6255  0.5953
 2588Sol     HW13487   0.180   2.716   7.464  1.0907  0.0840  0.1578
 2588Sol     MW13488   0.217   2.660   7.524 -0.1500 -0.3054  0.1252
 2589Sol     OW13489   0.441   1.243   2.080  0.3077  0.2110 -0.2805
 2589Sol     HW13490   0.474   1.295   2.154  0.8864 -1.1601  0.4438
 2589Sol     HW13491   0.346   1.257   2.081 -0.0527 -2.0744  2.5303
 2589Sol     MW13492   0.436   1.249   2.087  0.1950 -0.3915  0.5008
 2590Sol     OW13493   2.184   1.442   2.384  0.1312  0.6115  0.1921
 2590Sol     HW13494   2.152   1.387   2.313  1.0831  0.3225 -0.0189
 2590Sol     HW13495   2.151   1.529   2.364  0.3105  0.5080 -0.5519
 2590Sol     MW13496   2.178   1.445   2.376  0.2467  0.0505  0.0750
 2591Sol     OW13497   1.553   1.785   3.543  0.2701 -0.4401 -0.2037
 2591Sol     HW13498   1.543   1.691   3.550  1.7550 -0.5331  0.8368
 2591Sol     HW13499   1.464   1.820   3.547 -0.0676 -1.5857  2.6417
 2591Sol     MW13500   1.544   1.780   3.544 -0.1903 -0.1354  0.2877
 2592Sol     OW13501   1.631   2.948   7.216 -0.0552 -0.1106 -0.1173
 2592Sol     HW13502   1.619   3.033   7.257  0.6116 -0.7668  1.4546
 2592Sol     HW13503   1.713   2.956   7.167  0.1948  0.0378  0.3263
 2592Sol     MW13504   1.638   2.956   7.215 -0.0361  0.2554 -0.9925
 2593Sol     OW13505   1.383   1.914   7.251 -0.1745  0.0709 -0.3902
 2593Sol     HW13506   1.430   1.904   7.168  0.5361  2.7334 -0.3557
 2593Sol     HW13507   1.389   2.008   7.271 -1.6870 -0.2739  1.8824
 2593Sol     MW13508   1.388   1.922   7.246 -0.5010  0.2296  0.3037
 2594Sol     OW13509   1.602   2.755   3.682  0.1950  0.5216  0.0828
 2594Sol     HW13510   1.544   2.764   3.757 -0.3844  2.1194 -0.5426
 2594Sol     HW13511   1.625   2.662   3.680 -2.0123 -0.0459  0.5575
 2594Sol     MW13512   1.599   2.747   3.688 -0.5252 -0.0800  0.0061
 2595Sol     OW13513   0.766   2.806   5.956 -0.6052 -0.1773 -0.3482
 2595Sol     HW13514   0.762   2.864   6.032 -0.1234  0.8890 -1.1192
 2595Sol     HW13515   0.858   2.807   5.930 -0.4974 -1.7261 -0.0495
 2595Sol     MW13516   0.774   2.812   5.961  0.1071 -0.1801  0.4356
 2596Sol     OW13517   0.292   1.221   9.850  0.2671 -0.4633 -0.0893
 2596Sol     HW13518   0.217   1.249   9.798 -0.1933 -1.7456 -0.1368
 2596Sol     HW13519   0.341   1.301   9.867 -1.2697  0.4321  0.2075
 2596Sol     MW13520   0.290   1.231   9.847  0.1271 -0.4808 -0.2299
 2597Sol     OW13521   1.296   0.623   9.294 -0.4708 -0.2916 -0.4251
 2597Sol     HW13522   1.390   0.628   9.312 -0.9352  1.1879  1.8686
 2597Sol     HW13523   1.289   0.608   9.200  2.0621 -1.1238 -0.5063
 2597Sol     MW13524   1.304   0.622   9.287 -0.2417  0.0605  0.4549
 2598Sol     OW13525   0.854   0.615   8.905  0.0338 -0.2908  0.1960
 2598Sol     HW13526   0.787   0.654   8.962  1.7044 -2.5018  3.8199
 2598Sol     HW13527   0.927   0.677   8.909 -0.4556  0.3805 -0.9493
 2598Sol     MW13528   0.854   0.624   8.911  0.2037  0.5937 -0.1887
 2599Sol     OW13529   2.624   2.861   5.205 -0.2991 -0.8121  0.1009
 2599Sol     HW13530   2.627   2.789   5.141 -2.0308 -0.9158  0.1255
 2599Sol     HW13531   2.603   2.938   5.152 -0.0735 -0.6036  0.3168
 2599Sol     MW13532   2.622   2.861   5.194 -0.2331  0.6212  0.1634
 2600Sol     OW13533   2.240   3.022   8.443  0.0821  0.1958  0.0556
 2600Sol     HW13534   2.163   3.048   8.394  1.7973  1.3174 -2.1047
 2600Sol     HW13535   2.268   3.101   8.489  0.2904 -0.0605  0.3806
 2600Sol     MW13536   2.236   3.031   8.443  0.4259 -0.2592 -0.4848
 2601Sol     OW13537   1.296   0.336   8.326 -0.9848  0.0227  0.1312
 2601Sol     HW13538   1.252   0.349   8.243 -1.0900 -0.3526  0.1262
 2601Sol     HW13539   1.260   0.254   8.360  0.8494 -1.1069 -0.6096
 2601Sol     MW13540   1.289   0.330   8.322  0.3553  0.0521 -0.3324
 2602Sol     OW13541   1.966   2.390   4.548 -0.1700 -0.4834 -0.5504
 2602Sol     HW13542   1.982   2.301   4.517  0.0215 -0.2333 -1.1834
 2602Sol     HW13543   1.893   2.421   4.494 -0.9201 -0.6225  0.3849
 2602Sol     MW13544   1.961   2.385   4.540  0.3451 -0.6525 -0.3513
 2603Sol     OW13545   0.096   2.293   5.466  0.1250  0.2927  0.3161
 2603Sol     HW13546   0.161   2.317   5.533  1.7201 -1.0424 -0.7104
 2603Sol     HW13547   0.055   2.376   5.443  0.7334  1.0158  1.7524
 2603Sol     MW13548   0.098   2.303   5.470 -0.0233 -0.4282 -0.0640
 2604Sol     OW13549   0.655   2.129   8.112 -0.1081  0.1195  0.1521
 2604Sol     HW13550   0.651   2.174   8.196  0.9420 -0.6435  0.6264
 2604Sol     HW13551   0.586   2.169   8.059  0.1783  1.6000  0.8931
 2604Sol     MW13552   0.648   2.136   8.114  0.1863  0.4553  0.4652
 2605Sol     OW13553   2.196   0.349   7.819 -0.4250 -0.1442  0.6784
 2605Sol     HW13554   2.164   0.299   7.895 -1.0305 -1.2866 -0.2972
 2605Sol     HW13555   2.261   0.409   7.855 -0.2158 -1.1366  2.0030
 2605Sol     MW13556   2.199   0.350   7.829  0.2055  0.3045 -0.2181
 2606Sol     OW13557   2.940   1.388   2.665 -0.4385  0.1036 -0.0768
 2606Sol     HW13558   2.877   1.318   2.686 -0.3512 -0.0752 -0.4112
 2606Sol     HW13559   2.990   1.400   2.746  0.0290 -0.7260 -0.2419
 2606Sol     MW13560   2.938   1.383   2.674  0.1417  0.1901  0.0791
 2607Sol     OW13561   0.008   0.193   4.359  0.6130  0.1009  0.1742
 2607Sol     HW13562   0.017   0.249   4.282 -0.7865 -1.4168 -1.1326
 2607Sol     HW13563  -0.080   0.156   4.352  1.0179 -1.2363  1.7049
 2607Sol     MW13564   0.001   0.194   4.352  0.2254 -0.2483 -0.1083
 2608Sol     OW13565   2.341   1.914   4.387 -0.1034 -0.1338 -0.0006
 2608Sol     HW13566   2.326   2.008   4.394  0.9829  0.1035 -0.6908
 2608Sol     HW13567   2.278   1.875   4.447 -0.0351  1.0759  0.8718
 2608Sol     MW13568   2.334   1.919   4.393 -0.4717  0.1624 -0.2767
 2609Sol     OW13569   1.385   2.435   5.648  0.2380  0.2532  0.1689
 2609Sol     HW13570   1.475   2.417   5.677  0.2258 -0.7631 -0.4151
 2609Sol     HW13571   1.340   2.351   5.657 -0.3948  0.5207 -0.5070
 2609Sol     MW13572   1.389   2.426   5.651 -1.2974  0.0488  0.0455
 2610Sol     OW13573   0.354   1.796   4.401 -0.5135 -0.2304 -0.2505
 2610Sol     HW13574   0.315   1.882   4.382  0.8404  0.5696  0.4799
 2610Sol     HW13575   0.323   1.739   4.331 -0.6245  1.0996 -1.3005
 2610Sol     MW13576   0.348   1.799   4.393  0.5251 -0.5444 -0.0968
 2611Sol     OW13577   1.355   2.424   2.054  0.7542  0.2319  0.0296
 2611Sol     HW13578   1.400   2.508   2.049 -2.0557  1.8471  1.2808
 2611Sol     HW13579   1.332   2.414   2.146 -2.9480  0.2934 -0.8040
 2611Sol     MW13580   1.357   2.430   2.062 -0.0612 -0.0770  0.2211
 2612Sol     OW13581   1.083   2.715   2.972 -0.6450 -0.2573 -0.0497
 2612Sol     HW13582   1.002   2.709   3.024 -1.2922 -0.3881 -1.0656
 2612Sol     HW13583   1.062   2.670   2.890 -0.0316  1.0238 -0.9236
 2612Sol     MW13584   1.074   2.710   2.970 -0.2234 -0.6759 -0.4443
 2613Sol     OW13585   2.354   1.996   5.773  0.0472  0.2068 -0.4132
 2613Sol     HW13586   2.355   1.906   5.808 -0.3592 -0.5887 -2.4050
 2613Sol     HW13587   2.444   2.026   5.782 -0.2712  0.4968  2.4560
 2613Sol     MW13588   2.362   1.990   5.777  1.1427 -0.1537 -0.2551
 2614Sol     OW13589   1.753   0.312   2.685  0.4758 -0.0917 -0.2531
 2614Sol     HW13590   1.730   0.345   2.598  2.2807 -0.0703 -0.7346
 2614Sol     HW13591   1.703   0.369   2.745 -2.2550 -1.3084 -1.2790
 2614Sol     MW13592   1.746   0.320   2.683  0.1563  0.3290  0.6660
 2615Sol     OW13593   0.602   2.853   7.879 -0.0739  0.3040  0.6895
 2615Sol     HW13594   0.618   2.907   7.801 -1.1777 -0.7275 -0.2750
 2615Sol     HW13595   0.639   2.904   7.951  2.3109  0.5784 -0.6868
 2615Sol     MW13596   0.607   2.863   7.878  0.1769 -0.1397 -0.0723
 2616Sol     OW13597   0.934   0.048   6.473  0.0193 -0.4355  0.1052
 2616Sol     HW13598   1.003   0.054   6.407  0.8980 -0.6774  0.9834
 2616Sol     HW13599   0.922  -0.047   6.486  0.8044 -0.3907  1.2552
 2616Sol     MW13600   0.939   0.040   6.468 -0.1849 -0.2980  0.0180
 2617Sol     OW13601   0.902   0.441   6.624 -0.2418 -0.0279 -0.3378
 2617Sol     HW13602   0.917   0.371   6.561  0.7175 -0.3511  0.2208
 2617Sol     HW13603   0.946   0.518   6.587 -0.8438  0.1365 -0.7046
 2617Sol     MW13604   0.907   0.442   6.615 -0.2360 -0.8822  0.2113
 2618Sol     OW13605   0.041   0.526   4.740 -0.1535  0.3065 -0.0100
 2618Sol     HW13606   0.120   0.572   4.712 -0.3287  0.2487 -0.5952
 2618Sol     HW13607   0.015   0.474   4.664 -0.2040 -0.4251  0.4969
 2618Sol     MW13608   0.046   0.525   4.731  0.2143  0.3656  0.1132
 2619Sol     OW13609   1.344   0.773   6.767 -0.1670 -0.1057 -0.0311
 2619Sol     HW13610   1.282   0.709   6.803 -0.8228  0.7561  0.3924
 2619Sol     HW13611   1.363   0.832   6.841  0.3644  0.2392 -0.4374
 2619Sol     MW13612   1.340   0.773   6.777 -0.1462  0.0970 -0.2469
 2620Sol     OW13613   0.232   0.854   4.898  0.5893  0.0127 -0.0204
 2620Sol     HW13614   0.279   0.891   4.973 -1.5295  2.1464  0.2863
 2620Sol     HW13615   0.227   0.925   4.835 -0.9590 -0.6372 -0.6486
 2620Sol     MW13616   0.236   0.864   4.899 -0.1625  0.4070  0.1539
 2621Sol     OW13617   0.274   0.521   3.423 -0.0157 -0.4239 -0.6517
 2621Sol     HW13618   0.224   0.440   3.409  0.1035 -0.2473 -2.1178
 2621Sol     HW13619   0.243   0.580   3.355  0.0855  0.6879  0.2562
 2621Sol     MW13620   0.266   0.519   3.416  0.5659  0.5097 -0.2033
 2622Sol     OW13621   1.214   0.055   5.291  0.4390 -0.6611  0.2578
 2622Sol     HW13622   1.279  -0.004   5.253 -0.7457 -0.3069 -2.4751
 2622Sol     HW13623   1.130   0.010   5.276 -0.2050  0.2990  0.9258
 2622Sol     MW13624   1.212   0.046   5.286  0.1609  0.7287 -0.0243
 2623Sol     OW13625   2.668   0.578   7.264 -0.2634 -0.2533 -0.2543
 2623Sol     HW13626   2.631   0.495   7.294  1.6166 -1.4160 -1.0950
 2623Sol     HW13627   2.757   0.556   7.234 -0.8150  1.4879 -3.3860
 2623Sol     MW13628   2.673   0.569   7.264 -0.7256 -0.1086 -0.7864
 2624Sol     OW13629   0.768   1.054   3.825 -0.2214  0.3578  0.0128
 2624Sol     HW13630   0.856   1.019   3.810 -0.5213 -0.4691  0.1759
 2624Sol     HW13631   0.711   0.996   3.775 -0.7480  0.4333  0.5319
 2624Sol     MW13632   0.771   1.046   3.819  0.0763  0.1181  0.1215
 2625Sol     OW13633   2.578   3.315   6.313  0.2547  0.0672  0.6238
 2625Sol     HW13634   2.553   3.333   6.222  0.7503 -0.7955  0.3105
 2625Sol     HW13635   2.497   3.322   6.362 -0.3711 -1.3582 -0.1828
 2625Sol     MW13636   2.569   3.317   6.309 -0.6394 -0.0365  0.7765
 2626Sol     OW13637   1.369   2.943   3.575 -0.1068  0.3219  0.0014
 2626Sol     HW13638   1.357   3.038   3.572  3.3680  0.9200  2.2015
 2626Sol     HW13639   1.445   2.926   3.520  0.2702 -0.9551  0.8757
 2626Sol     MW13640   1.374   2.950   3.570  0.5829  0.1759  0.2915
 2627Sol     OW13641   2.532   1.247   7.737  0.3460 -0.2796 -0.0004
 2627Sol     HW13642   2.535   1.178   7.804  0.4261 -0.6163 -0.3518
 2627Sol     HW13643   2.455   1.225   7.684  1.0221 -0.7360 -0.8000
 2627Sol     MW13644   2.525   1.239   7.739  0.3653 -0.4522  0.3451
 2628Sol     OW13645   2.020   1.645   5.018 -0.3271  0.2646 -0.0731
 2628Sol     HW13646   1.926   1.640   5.039 -0.0096 -1.5883  1.0418
 2628Sol     HW13647   2.048   1.728   5.057 -1.7416  1.4816 -1.5447
 2628Sol     MW13648   2.014   1.652   5.024 -0.0272 -0.0912  0.3067
 2629Sol     OW13649   3.115   0.489   3.720  0.1730  0.0369  0.2318
 2629Sol     HW13650   3.060   0.548   3.773 -0.0164 -0.6527  0.8059
 2629Sol     HW13651   3.169   0.548   3.668 -0.8085  0.7265 -0.0219
 2629Sol     MW13652   3.114   0.500   3.720  0.3702  0.0371 -0.2494
 2630Sol     OW13653   0.932   1.199   1.871 -0.0430 -0.3860  0.3860
 2630Sol     HW13654   0.869   1.169   1.805 -0.1766  2.8065 -1.0439
 2630Sol     HW13655   0.992   1.256   1.822  2.3633 -1.2547  2.2506
 2630Sol     MW13656   0.932   1.202   1.861  0.4640 -0.0286  0.1841
 2631Sol     OW13657   1.487   3.340   3.701 -0.3861  0.0381 -0.6522
 2631Sol     HW13658   1.575   3.349   3.666 -0.3362 -0.7240 -0.7117
 2631Sol     HW13659   1.498   3.293   3.783 -0.4176  2.4011  0.7722
 2631Sol     MW13660   1.496   3.337   3.705 -0.2330  0.3747 -0.5503
 2632Sol     OW13661   1.779   1.933   4.734  0.0203 -0.0829 -0.7913
 2632Sol     HW13662   1.858   1.879   4.726 -0.5247 -0.8879 -0.7407
 2632Sol     HW13663   1.811   2.017   4.767  0.5500 -1.2763  1.9463
 2632Sol     MW13664   1.789   1.936   4.737 -0.4580 -0.1400  0.2264
 2633Sol     OW13665   3.078   0.326   4.121 -0.1905  0.0390 -0.0389
 2633Sol     HW13666   3.173   0.325   4.115 -0.1698 -1.8541  0.3296
 2633Sol     HW13667   3.048   0.274   4.046 -0.8253 -1.3063  1.1162
 2633Sol     MW13668   3.084   0.321   4.114 -0.0516 -0.4705  0.1631
 2634Sol     OW13669   2.063   0.868   5.585  0.1092 -0.3241 -0.3442
 2634Sol     HW13670   2.096   0.782   5.558  0.3682  0.2285 -1.8409
 2634Sol     HW13671   2.027   0.853   5.673  1.1836 -1.7062 -0.1081
 2634Sol     MW13672   2.063   0.859   5.591 -0.4713 -0.1049 -0.5513
 2635Sol     OW13673   0.345   0.036   9.902  0.6074  0.4470 -0.4053
 2635Sol     HW13674   0.434   0.012   9.927  0.4429  1.5492  1.3178
 2635Sol     HW13675   0.329   0.120   9.945 -2.1458 -0.8960  1.3702
 2635Sol     MW13676   0.351   0.042   9.908  0.5264 -0.2458  0.6224
 2636Sol     OW13677   1.946   0.829   8.465 -1.1903  0.2635  0.2435
 2636Sol     HW13678   1.900   0.891   8.410 -1.2218  1.1426  1.2470
 2636Sol     HW13679   1.982   0.882   8.537 -0.1316 -0.6677  0.4247
 2636Sol     MW13680   1.945   0.839   8.467  0.8362 -1.0939 -0.4239
 2637Sol     OW13681   3.276   1.125   9.556 -1.0411  0.5633 -0.0267
 2637Sol     HW13682   3.314   1.120   9.468  0.6235  0.8335  0.6646
 2637Sol     HW13683   3.182   1.122   9.541 -0.7852 -3.8259 -1.5995
 2637Sol     MW13684   3.271   1.124   9.546  0.6111  0.0055  0.4773
 2638Sol     OW13685   2.090   0.020   2.126 -0.4002  0.2315 -0.3603
 2638Sol     HW13686   2.024  -0.046   2.108 -0.9865  0.3118  1.4038
 2638Sol     HW13687   2.145   0.021   2.047 -2.1724 -0.1885 -1.6338
 2638Sol     MW13688   2.089   0.014   2.117 -0.7643  0.3953 -0.5413
 2639Sol     OW13689   1.843   2.154   7.668 -0.0297  0.1425 -0.5927
 2639Sol     HW13690   1.894   2.210   7.608 -1.0254  0.3761 -1.2309
 2639Sol     HW13691   1.909   2.114   7.725  0.6559  2.5527  0.3864
 2639Sol     MW13692   1.854   2.155   7.668  0.0268  0.3372  0.2515
 2640Sol     OW13693   3.313   1.584   5.293 -0.1663 -0.5295  0.5749
 2640Sol     HW13694   3.303   1.586   5.389 -0.9665  0.8999  0.4723
 2640Sol     HW13695   3.281   1.498   5.268 -0.3266 -0.7708  1.5601
 2640Sol     MW13696   3.309   1.576   5.300  0.9272  0.0333  0.6895
 2641Sol     OW13697   0.725   1.258   6.538 -0.1113 -0.1352  0.1995
 2641Sol     HW13698   0.704   1.228   6.626 -1.8491  1.7175  0.4506
 2641Sol     HW13699   0.802   1.315   6.550 -0.2987  0.0517  0.5030
 2641Sol     MW13700   0.730   1.260   6.547 -0.5140 -0.1408  0.4570
 2642Sol     OW13701   0.976   0.164   5.548  0.0238  0.2651  0.2451
 2642Sol     HW13702   0.884   0.189   5.558 -0.3279 -1.3439  1.1311
 2642Sol     HW13703   0.976   0.102   5.475  0.5746  1.1224 -0.4907
 2642Sol     MW13704   0.968   0.161   5.542 -0.1880  0.1559  0.1639
 2643Sol     OW13705   3.024   0.195   7.511  0.1664  0.7861  0.4148
 2643Sol     HW13706   3.024   0.109   7.470  0.6701 -0.0413  2.1269
 2643Sol     HW13707   3.062   0.181   7.598 -0.4211  2.5975  0.9941
 2643Sol     MW13708   3.027   0.186   7.515  0.5342  0.1390 -0.1208
 2644Sol     OW13709   1.479   0.618   2.477  0.0931  0.3169 -0.6939
 2644Sol     HW13710   1.429   0.551   2.524 -0.5947 -0.2137 -2.1273
 2644Sol     HW13711   1.414   0.658   2.419  0.3404  2.7296  0.6490
 2644Sol     MW13712   1.468   0.615   2.476  0.0332 -0.1260  0.4209
 2645Sol     OW13713   1.661   1.488   2.769  0.1382 -0.0977  0.3357
 2645Sol     HW13714   1.598   1.418   2.752 -1.2435  0.8609  1.4573
 2645Sol     HW13715   1.659   1.541   2.689 -1.6380  0.7927  0.9342
 2645Sol     MW13716   1.655   1.486   2.760 -1.0273 -0.0995 -0.8021
 2646Sol     OW13717   0.572   2.647   5.785  0.1143 -0.4754  0.3710
 2646Sol     HW13718   0.610   2.701   5.855 -1.3602  1.3950 -0.2098
 2646Sol     HW13719   0.496   2.606   5.826  1.2221 -2.1436  0.8038
 2646Sol     MW13720   0.569   2.648   5.795  0.7554 -0.2292  0.0793
 2647Sol     OW13721   0.281   2.801   9.577  0.1652  0.2747 -0.2205
 2647Sol     HW13722   0.211   2.761   9.628 -1.0287  1.2371 -1.0836
 2647Sol     HW13723   0.262   2.894   9.578  0.2524  0.3410 -2.2083
 2647Sol     MW13724   0.273   2.805   9.582  0.2988  0.3677  0.0497
 2648Sol     OW13725   0.123   0.011   9.060 -0.8334 -0.7119 -1.3284
 2648Sol     HW13726   0.217   0.025   9.046 -0.7103 -0.2475 -0.1149
 2648Sol     HW13727   0.082   0.092   9.030 -0.6586 -0.1304 -0.0603
 2648Sol     MW13728   0.128   0.019   9.056  0.2403  0.4493 -0.2113
 2649Sol     OW13729   2.417   2.698   7.039 -0.0512  0.1881  0.5827
 2649Sol     HW13730   2.380   2.610   7.045  0.2193  0.0797  0.6586
 2649Sol     HW13731   2.491   2.697   7.100  0.4085  0.2401  0.0330
 2649Sol     MW13732   2.421   2.690   7.045 -0.0939  0.0609  0.1168
 2650Sol     OW13733   1.003   1.415   8.055 -0.3432 -0.0690 -0.3111
 2650Sol     HW13734   0.938   1.453   8.114  0.0753  0.3977 -0.1525
 2650Sol     HW13735   0.969   1.434   7.967 -0.2964  0.3871 -0.2293
 2650Sol     MW13736   0.994   1.420   8.052 -0.1863 -0.6500 -0.1739
 2651Sol     OW13737   1.136   2.575   5.308  0.2759 -0.4749  0.0455
 2651Sol     HW13738   1.125   2.519   5.384  2.6069 -0.5191  0.3879
 2651Sol     HW13739   1.136   2.516   5.233 -3.1715 -0.3231 -0.1272
 2651Sol     MW13740   1.135   2.565   5.308  0.5612  0.2880 -0.2327
 2652Sol     OW13741   1.003   1.971   2.735  0.6108 -0.0125  0.1178
 2652Sol     HW13742   0.983   1.883   2.766 -0.4945 -0.1298 -0.8864
 2652Sol     HW13743   1.097   1.971   2.719  1.4897  0.4103  4.5475
 2652Sol     MW13744   1.009   1.963   2.736  0.2562  0.1554  0.3647
 2653Sol     OW13745   0.512   0.307   4.063  0.5335 -0.0067  0.1858
 2653Sol     HW13746   0.574   0.243   4.027  1.8904  1.6641 -0.5317
 2653Sol     HW13747   0.493   0.366   3.990  0.1479  1.0497  1.1206
 2653Sol     MW13748   0.516   0.306   4.053  0.4831 -0.6888  0.4622
 2654Sol     OW13749   1.175   0.866   2.743  0.0416  0.5905 -0.3848
 2654Sol     HW13750   1.264   0.844   2.714 -0.2969  0.4249 -1.3266
 2654Sol     HW13751   1.118   0.833   2.673 -0.8967 -0.9586  1.0791
 2654Sol     MW13752   1.178   0.861   2.734 -0.0863  0.5508 -1.3644
 2655Sol     OW13753   0.001   0.310   7.679 -0.1876 -0.0902  0.4049
 2655Sol     HW13754  -0.067   0.254   7.717  0.0661 -0.3925  0.4036
 2655Sol     HW13755   0.017   0.376   7.747 -0.3288 -0.1430  0.4909
 2655Sol     MW13756  -0.004   0.311   7.689  0.3395  0.2055  0.2666
 2656Sol     OW13757   0.222   0.703   3.202 -0.0944  0.6718  0.1636
 2656Sol     HW13758   0.139   0.748   3.217  0.0046  0.8274  0.2501
 2656Sol     HW13759   0.205   0.647   3.127  0.0954  1.6750 -0.6392
 2656Sol     MW13760   0.213   0.702   3.197  0.1459  0.3470  0.3580
 2657Sol     OW13761   0.673   1.633   9.397  0.0419  0.4252  0.5648
 2657Sol     HW13762   0.628   1.698   9.342  0.8750  0.0263 -0.5982
 2657Sol     HW13763   0.713   1.573   9.335  0.2230 -0.5647  1.6333
 2657Sol     MW13764   0.673   1.634   9.386 -0.1022 -0.0017  0.3520
 2658Sol     OW13765   1.936   0.359   9.175  0.1656  0.2423 -0.4289
 2658Sol     HW13766   1.918   0.277   9.129 -0.7575  0.6705 -0.8531
 2658Sol     HW13767   1.850   0.399   9.186  0.2458 -0.3385  2.6625
 2658Sol     MW13768   1.927   0.355   9.172  0.4198 -0.7408  0.0721
 2659Sol     OW13769   2.398   0.073   2.232  0.2811 -0.7391 -0.6127
 2659Sol     HW13770   2.341   0.109   2.300  2.5922  2.0084 -0.0232
 2659Sol     HW13771   2.428  -0.011   2.269  1.1391  0.4940  1.6263
 2659Sol     MW13772   2.396   0.068   2.242 -0.3184 -0.2221  0.4566
 2660Sol     OW13773   1.726   0.479   2.481 -0.0614  0.0524  0.3593
 2660Sol     HW13774   1.665   0.552   2.470  0.7194  0.6998  0.2954
 2660Sol     HW13775   1.749   0.453   2.392 -0.8968 -0.7561  0.3675
 2660Sol     MW13776   1.723   0.483   2.472 -0.4674 -0.1534 -0.7418
 2661Sol     OW13777   2.483   1.784   3.986 -0.0234 -0.3097 -0.4052
 2661Sol     HW13778   2.472   1.877   3.971 -0.6419 -0.1882  0.7082
 2661Sol     HW13779   2.540   1.779   4.063  0.0020 -0.8441 -0.4579
 2661Sol     MW13780   2.487   1.792   3.992  0.7314 -0.2252  0.7420
 2662Sol     OW13781   1.087   0.765   7.075 -0.2166 -0.0391 -0.1688
 2662Sol     HW13782   1.103   0.688   7.019 -1.4715 -1.7106  1.6968
 2662Sol     HW13783   1.147   0.754   7.149 -0.8524  0.4313  0.4272
 2662Sol     MW13784   1.094   0.757   7.077 -0.1853  0.4646  0.8862
 2663Sol     OW13785   2.418   2.980   9.225  0.0732 -0.0898  0.4872
 2663Sol     HW13786   2.385   3.065   9.254 -0.3506 -0.1303  0.1271
 2663Sol     HW13787   2.448   2.995   9.136  1.1378 -0.0271  0.8507
 2663Sol     MW13788   2.418   2.989   9.220 -0.7231 -0.3754 -0.7117
 2664Sol     OW13789   1.516   0.175   9.876 -0.0200  0.0732 -0.1801
 2664Sol     HW13790   1.520   0.206   9.967  1.0425  0.8811 -0.4928
 2664Sol     HW13791   1.488   0.252   9.826 -0.4105 -0.3186 -0.5575
 2664Sol     MW13792   1.514   0.185   9.880  0.5790  0.0634 -0.2509
 2665Sol     OW13793   0.956   2.422   3.025  0.2053 -0.2135  0.2689
 2665Sol     HW13794   0.964   2.402   3.118 -1.3512  0.4890  0.5797
 2665Sol     HW13795   0.861   2.432   3.011  0.4893  0.6470 -1.1816
 2665Sol     MW13796   0.948   2.421   3.032 -0.2899 -0.4957 -0.0610
 2666Sol     OW13797   1.530   2.202   2.072  0.5972  0.0479  0.1447
 2666Sol     HW13798   1.469   2.270   2.042  2.9809  1.2105 -2.2659
 2666Sol     HW13799   1.474   2.133   2.106 -1.9728  2.4582  1.0485
 2666Sol     MW13800   1.520   2.202   2.073  0.4950 -0.5407 -0.4209
 2667Sol     OW13801   2.201   0.107   5.658  0.4580  0.5651 -0.0022
 2667Sol     HW13802   2.270   0.043   5.642  1.2953  1.1217  1.3494
 2667Sol     HW13803   2.171   0.090   5.747 -1.2082  0.2849 -0.5975
 2667Sol     MW13804   2.204   0.100   5.664  0.3491  0.4738 -0.3029
 2668Sol     OW13805   1.023   0.450   4.835 -0.1287  0.0259 -0.6092
 2668Sol     HW13806   0.980   0.498   4.905 -1.4570 -0.4612 -1.0659
 2668Sol     HW13807   0.954   0.397   4.796  0.7510 -0.2958 -1.7871
 2668Sol     MW13808   1.013   0.450   4.838  0.3815  0.4096 -0.7097
 2669Sol     OW13809   2.424   0.911   7.730  0.0947 -0.2430 -0.1958
 2669Sol     HW13810   2.340   0.942   7.698 -0.3642 -2.0150 -0.7964
 2669Sol     HW13811   2.436   0.954   7.815 -3.7601 -3.6575  2.2422
 2669Sol     MW13812   2.418   0.917   7.735  0.5106  0.4143  0.0923
 2670Sol     OW13813   1.711   3.007   5.436 -0.0887  0.0522  0.5721
 2670Sol     HW13814   1.751   3.083   5.478  3.6228 -2.0235  0.9992
 2670Sol     HW13815   1.748   2.932   5.482 -2.2917 -2.0879 -1.0031
 2670Sol     MW13816   1.718   3.007   5.444  0.9251  0.8184 -0.3825
 2671Sol     OW13817   1.158   2.420   8.526 -0.3913  0.5437  0.3549
 2671Sol     HW13818   1.197   2.339   8.492 -1.5254  0.7603 -1.4934
 2671Sol     HW13819   1.219   2.488   8.499  0.0351  0.4383  1.0265
 2671Sol     MW13820   1.167   2.418   8.521  0.7206 -0.3220 -0.5721
 2672Sol     OW13821   3.252   1.904   9.042  0.5103  0.8173 -0.1621
 2672Sol     HW13822   3.279   1.946   8.960 -0.0992  1.4299 -0.0590
 2672Sol     HW13823   3.262   1.972   9.108  0.7837  0.3914  0.2375
 2672Sol     MW13824   3.255   1.914   9.040  0.2221  0.2094  0.2079
 2673Sol     OW13825   0.820   1.356   3.169  0.9762 -0.0782 -0.0349
 2673Sol     HW13826   0.843   1.447   3.150 -0.5914  0.6587  1.5460
 2673Sol     HW13827   0.830   1.348   3.263 -0.4934 -1.0990  0.0423
 2673Sol     MW13828   0.823   1.363   3.175  0.3671  0.8087 -0.4317
 2674Sol     OW13829   3.315   1.590   5.572  0.7620 -0.1686 -0.0594
 2674Sol     HW13830   3.352   1.655   5.632  1.1311 -0.6640  0.2500
 2674Sol     HW13831   3.386   1.528   5.557  0.6042 -0.1637 -0.8398
 2674Sol     MW13832   3.325   1.591   5.576  0.2908  0.2528 -0.1636
 2675Sol     OW13833   0.831   0.490   7.414 -0.4513  0.2182 -0.3605
 2675Sol     HW13834   0.831   0.542   7.334  0.6397  0.7689 -0.0053
 2675Sol     HW13835   0.763   0.423   7.399 -0.8034  0.8032 -1.4152
 2675Sol     MW13836   0.825   0.488   7.406  0.1309 -0.5175 -0.1461
 2676Sol     OW13837   0.633   1.181   4.017 -0.1726 -0.6659  0.2800
 2676Sol     HW13838   0.680   1.264   4.014  0.8530 -1.2199  0.6871
 2676Sol     HW13839   0.685   1.122   3.962 -0.3139 -1.3237  0.8402
 2676Sol     MW13840   0.642   1.183   4.012 -0.1632 -0.1434  0.2736
 2677Sol     OW13841   1.203   0.083   8.861 -0.0915  0.5162 -0.1742
 2677Sol     HW13842   1.258   0.114   8.933  0.0486  1.0588 -0.5130
 2677Sol     HW13843   1.259   0.023   8.812  0.3947  1.5284 -0.8636
 2677Sol     MW13844   1.213   0.080   8.863 -0.0590  0.0890 -0.0441
 2678Sol     OW13845   1.028   1.002   6.699 -0.7649 -0.3980  0.4645
 2678Sol     HW13846   1.018   1.012   6.793 -1.1464 -2.1667  0.6376
 2678Sol     HW13847   1.098   0.938   6.689 -0.2587  0.2916 -0.4673
 2678Sol     MW13848   1.033   0.997   6.706 -0.7083  0.0837  0.6140
 2679Sol     OW13849   2.447   0.030   8.829 -0.5158 -0.9861 -0.1785
 2679Sol     HW13850   2.404   0.020   8.744  0.5984  0.3089 -0.9154
 2679Sol     HW13851   2.496   0.111   8.822 -0.3208 -0.9072  1.6873
 2679Sol     MW13852   2.447   0.036   8.821 -1.0401 -0.4694 -0.0743
 2680Sol     OW13853   2.479   1.030   4.879  0.3309  0.1216  0.3977
 2680Sol     HW13854   2.491   1.011   4.786  0.1073 -1.0915  0.6057
 2680Sol     HW13855   2.458   0.945   4.918 -1.5538  0.9560  1.2427
 2680Sol     MW13856   2.479   1.020   4.874  0.5260  0.5227 -0.0511
 2681Sol     OW13857   2.719   2.014   3.145  0.0039  0.0326  0.6556
 2681Sol     HW13858   2.809   2.006   3.178  0.5271  2.1484 -0.2285
 2681Sol     HW13859   2.665   2.019   3.224  0.6699 -1.0712  1.1931
 2681Sol     MW13860   2.722   2.013   3.155  0.5354  0.1105 -0.6911
 2682Sol     OW13861   2.048   1.525   7.301  0.1872 -0.0100  0.4267
 2682Sol     HW13862   2.116   1.513   7.367  0.1214  2.4672  0.9987
 2682Sol     HW13863   1.966   1.521   7.351  0.0346 -0.2138  0.1598
 2682Sol     MW13864   2.047   1.523   7.312  0.5338  0.1271 -0.4498
 2683Sol     OW13865   3.052   3.384   4.678  0.0594 -0.0076  0.2847
 2683Sol     HW13866   2.987   3.349   4.617 -0.1393 -0.5085  0.7790
 2683Sol     HW13867   3.015   3.367   4.765 -1.7420  4.5340  0.5922
 2683Sol     MW13868   3.043   3.380   4.680  0.0546  0.2673  0.0389
 2684Sol     OW13869   0.583   1.530   7.733  0.6247  0.9648  0.3320
 2684Sol     HW13870   0.614   1.531   7.643 -0.1429  2.4596  0.0729
 2684Sol     HW13871   0.644   1.586   7.781  1.5444 -0.5166  0.9342
 2684Sol     MW13872   0.591   1.535   7.729  0.6581  0.0485  0.4617
 2685Sol     OW13873   2.901   0.211   8.607  0.0468 -0.2164  0.0278
 2685Sol     HW13874   2.808   0.189   8.609 -0.1347  0.6708  1.9472
 2685Sol     HW13875   2.909   0.279   8.540 -0.4325 -1.2584 -1.1287
 2685Sol     MW13876   2.894   0.215   8.601 -0.0959 -0.3423 -0.5864
 2686Sol     OW13877   1.837   1.353   5.483  0.4162 -0.4539 -0.4630
 2686Sol     HW13878   1.805   1.388   5.567  0.7412  1.3117 -1.0468
 2686Sol     HW13879   1.759   1.331   5.434  0.1805  0.3926 -0.4686
 2686Sol     MW13880   1.827   1.354   5.486  0.1940 -0.2451  0.3790
 2687Sol     OW13881   3.297   2.069   3.665  0.1785  0.5533  0.3831
 2687Sol     HW13882   3.249   1.996   3.704  1.7205  0.1624  1.6301
 2687Sol     HW13883   3.320   2.039   3.577 -1.5493  0.6293 -0.1177
 2687Sol     MW13884   3.295   2.060   3.661  0.1007  0.0822 -0.1909
 2688Sol     OW13885   1.261   0.599   2.017  0.3558  0.1582  0.0010
 2688Sol     HW13886   1.237   0.515   2.055  1.6224  0.8027  2.3020
 2688Sol     HW13887   1.178   0.639   1.993 -0.3005 -1.3965 -0.3563
 2688Sol     MW13888   1.251   0.596   2.018 -0.2429 -0.1451 -0.3076
 2689Sol     OW13889   2.723   1.973   7.463 -0.2443 -0.5272  0.3324
 2689Sol     HW13890   2.772   2.055   7.465 -0.5222 -0.3940  1.9054
 2689Sol     HW13891   2.655   1.987   7.397  0.2623  0.1814 -0.0477
 2689Sol     MW13892   2.722   1.981   7.457  0.0751 -0.2958  0.3668
 2690Sol     OW13893   0.450   2.260   6.022  0.4507 -0.0488  0.3171
 2690Sol     HW13894   0.438   2.267   6.117 -1.6756  0.0169  0.0650
 2690Sol     HW13895   0.411   2.340   5.987 -0.4856 -0.9436 -0.7275
 2690Sol     MW13896   0.445   2.268   6.028  0.0977 -0.2055 -0.1954
 2691Sol     OW13897   0.256   1.541   5.238  0.4878  0.1031  0.1216
 2691Sol     HW13898   0.286   1.456   5.270 -0.4464  0.5015  2.0974
 2691Sol     HW13899   0.161   1.540   5.253 -0.2031 -0.0737 -3.5876
 2691Sol     MW13900   0.250   1.533   5.242 -0.3114 -0.1223 -0.6034
 2692Sol     OW13901   2.855   0.968   7.432  0.4030 -0.9482 -0.3163
 2692Sol     HW13902   2.852   1.049   7.382 -0.0391  0.4343  1.8908
 2692Sol     HW13903   2.763   0.942   7.440  0.3960 -0.6319  0.6182
 2692Sol     MW13904   2.846   0.973   7.428  0.3880 -0.5263  0.3545
 2693Sol     OW13905   1.570   0.445   2.830 -0.8092 -0.1349  0.6117
 2693Sol     HW13906   1.552   0.413   2.918 -1.4528  2.2828  1.3864
 2693Sol     HW13907   1.484   0.451   2.788 -0.4490 -1.9459 -0.4547
 2693Sol     MW13908   1.561   0.442   2.834  0.2884 -0.1216 -0.0084
 2694Sol     OW13909   3.090   0.086   8.208 -0.3678  0.2926 -0.1285
 2694Sol     HW13910   3.172   0.066   8.253  0.3250  2.2710 -0.4416
 2694Sol     HW13911   3.022   0.049   8.264  0.6138  0.5718  1.2873
 2694Sol     MW13912   3.091   0.081   8.217 -0.1467  0.3868 -0.1649
 2695Sol     OW13913   0.830   3.403   9.587 -0.4095 -0.3345  0.0157
 2695Sol     HW13914   0.758   3.459   9.560 -0.5067  0.1985  1.3581
 2695Sol     HW13915   0.906   3.461   9.591  0.2901 -1.0450 -2.1587
 2695Sol     MW13916   0.831   3.413   9.585 -0.2971 -0.0154  0.2853
 2696Sol     OW13917   3.268   1.115   3.058  0.8021  0.3256 -0.3160
 2696Sol     HW13918   3.275   1.124   2.963  3.4029 -1.6179 -0.3713
 2696Sol     HW13919   3.336   1.173   3.093  1.1768 -0.4294  0.2455
 2696Sol     MW13920   3.275   1.121   3.053  0.2796 -0.1324 -0.5293
 2697Sol     OW13921   1.590   1.572   6.300  0.0487 -0.2038 -0.2486
 2697Sol     HW13922   1.643   1.507   6.255  1.8121 -0.7651  2.5406
 2697Sol     HW13923   1.546   1.524   6.369  0.7454  1.3911  1.3483
 2697Sol     MW13924   1.591   1.562   6.302 -0.5557  0.2407  0.3979
 2698Sol     OW13925   0.615   1.825   6.974 -0.2099  0.0259  0.4835
 2698Sol     HW13926   0.563   1.757   7.016  1.0884 -2.1559 -1.2774
 2698Sol     HW13927   0.560   1.857   6.903  0.9149 -2.5641 -1.6332
 2698Sol     MW13928   0.606   1.822   6.972 -0.2341  1.2235  0.2367
 2699Sol     OW13929   1.767   2.582   6.809  0.6591 -0.0705  0.1513
 2699Sol     HW13930   1.734   2.671   6.823  2.3890  0.5428  0.4409
 2699Sol     HW13931   1.858   2.585   6.839  0.7165 -1.9638  0.2320
 2699Sol     MW13932   1.772   2.591   6.813 -0.2547 -0.8518 -0.4529
 2700Sol     OW13933   1.401   2.548   7.499  0.0651  0.1196  0.1629
 2700Sol     HW13934   1.450   2.606   7.442 -1.3743 -0.4763 -1.7306
 2700Sol     HW13935   1.314   2.541   7.459 -0.4520 -1.6938  1.4668
 2700Sol     MW13936   1.397   2.552   7.491 -0.0745 -0.1199 -0.0222
 2701Sol     OW13937   2.792   1.813   8.400 -0.3764 -0.4192  1.0716
 2701Sol     HW13938   2.807   1.766   8.319 -1.4986  0.8215  0.1233
 2701Sol     HW13939   2.731   1.883   8.377 -0.1171  0.4237  2.8129
 2701Sol     MW13940   2.788   1.815   8.391  0.6179 -0.0055 -0.1030
 2702Sol     OW13941   2.954   2.986   8.915  0.3470 -0.3864 -0.1241
 2702Sol     HW13942   2.870   3.013   8.878  0.5388 -0.3688 -0.5550
 2702Sol     HW13943   3.015   2.991   8.841  0.8246  0.0646  0.2989
 2702Sol     MW13944   2.952   2.989   8.905 -0.4241 -0.0122 -0.9797
 2703Sol     OW13945   1.364   2.593   8.506  0.0788  1.2027 -0.0185
 2703Sol     HW13946   1.459   2.579   8.505 -0.1690 -0.6210 -1.5722
 2703Sol     HW13947   1.351   2.674   8.457  0.7418  0.6369 -1.1582
 2703Sol     MW13948   1.372   2.599   8.501  0.6024  0.4914 -0.0859
 2704Sol     OW13949   1.936   0.935   2.784 -0.6846  0.0625 -0.0057
 2704Sol     HW13950   1.893   0.881   2.718  0.2892  1.2909 -1.6964
 2704Sol     HW13951   1.935   1.023   2.747  1.7323  0.4141  0.6665
 2704Sol     MW13952   1.932   0.938   2.775  0.2319  0.2866  0.1787
 2705Sol     OW13953   1.589   1.606   4.222 -0.3174 -0.4694 -0.7586
 2705Sol     HW13954   1.612   1.518   4.191  0.1971 -0.8532  0.6586
 2705Sol     HW13955   1.495   1.612   4.208 -0.2094 -0.8869 -1.7326
 2705Sol     MW13956   1.583   1.599   4.218  0.3535 -0.4199  0.5926
 2706Sol     OW13957   2.088   1.646   3.065  0.3970  0.3331  0.4477
 2706Sol     HW13958   2.040   1.583   3.119 -0.1115  1.2148  1.0405
 2706Sol     HW13959   2.147   1.593   3.012 -0.4591 -0.6836  0.5092
 2706Sol     MW13960   2.089   1.636   3.065 -0.2472 -0.4196  0.5373
 2707Sol     OW13961   3.000   1.015   4.559  0.1474  0.0761  0.6312
 2707Sol     HW13962   3.071   0.977   4.610  0.4674  1.1888  1.0365
 2707Sol     HW13963   3.000   0.966   4.476  0.9954 -0.3236  0.8667
 2707Sol     MW13964   3.006   1.007   4.556  0.1106 -0.3119 -0.1269
 2708Sol     OW13965   1.899   1.965   8.536 -0.1832  0.2926 -0.1229
 2708Sol     HW13966   1.950   2.018   8.474 -1.4314  0.7142 -0.8115
 2708Sol     HW13967   1.953   1.888   8.552  2.3837  2.4053  2.0714
 2708Sol     MW13968   1.908   1.963   8.532 -0.3145  0.6004 -0.3390
 2709Sol     OW13969   0.538   0.473   3.441  0.1716  0.5519 -0.1309
 2709Sol     HW13970   0.571   0.562   3.426 -1.4938  0.9427 -1.5934
 2709Sol     HW13971   0.444   0.479   3.426  0.1632 -1.6527 -1.1372
 2709Sol     MW13972   0.533   0.481   3.438 -0.1837 -0.1179  0.1345
 2710Sol     OW13973   2.180   0.455   5.053 -0.4841  1.0866 -0.2805
 2710Sol     HW13974   2.186   0.537   5.101 -2.0502  0.8093  0.4352
 2710Sol     HW13975   2.243   0.397   5.096 -0.0969  1.6125 -0.1446
 2710Sol     MW13976   2.186   0.457   5.061 -0.0098  0.6315 -0.2501
 2711Sol     OW13977   0.554   2.259   7.463 -0.7327 -0.7271 -0.2809
 2711Sol     HW13978   0.610   2.270   7.540 -0.3272 -0.0565 -0.6679
 2711Sol     HW13979   0.516   2.345   7.449 -0.9437 -0.8957 -0.7328
 2711Sol     MW13980   0.556   2.267   7.469 -0.6518 -0.1948  0.0302
 2712Sol     OW13981   1.950   3.260   5.961 -0.5107 -0.2734  0.6078
 2712Sol     HW13982   1.868   3.222   5.992  0.2777 -2.4123  0.2027
 2712Sol     HW13983   2.015   3.192   5.978  0.8015  0.5496 -1.0215
 2712Sol     MW13984   1.948   3.250   5.965 -0.0104 -0.1778  0.1971
 2713Sol     OW13985   0.689   2.699   5.182 -0.5913  0.2886  0.2128
 2713Sol     HW13986   0.778   2.688   5.148 -1.0341  0.3520 -0.9956
 2713Sol     HW13987   0.686   2.791   5.210 -0.3718  0.3798 -0.0534
 2713Sol     MW13988   0.697   2.706   5.181  0.6685 -0.3591  0.1124
 2714Sol     OW13989   2.841   1.624   2.592  0.7827 -0.1225 -0.0606
 2714Sol     HW13990   2.877   1.677   2.521 -1.1959 -1.3616 -2.0701
 2714Sol     HW13991   2.902   1.551   2.601  0.8901 -0.1060 -0.6748
 2714Sol     MW13992   2.850   1.622   2.587 -0.1136  0.7602  0.5810
 2715Sol     OW13993   1.326   1.860   1.808 -0.3316  0.0450  0.0435
 2715Sol     HW13994   1.299   1.849   1.899 -0.1789 -1.8418 -0.1003
 2715Sol     HW13995   1.388   1.932   1.810 -0.8298  0.4543  1.3324
 2715Sol     MW13996   1.329   1.865   1.817  0.1661 -0.1644  0.3946
 2716Sol     OW13997   2.663   0.945   2.682 -0.0917  0.3989 -0.3566
 2716Sol     HW13998   2.685   0.900   2.601  0.7844  0.9275 -0.4118
 2716Sol     HW13999   2.584   0.900   2.713  0.4019 -0.7579 -0.7366
 2716Sol     MW14000   2.658   0.937   2.678  0.1450  0.0855 -0.1846
 2717Sol     OW14001   0.783   1.920   6.688  0.4526 -0.3283  0.3486
 2717Sol     HW14002   0.781   1.839   6.739 -0.3328 -0.9330 -0.6169
 2717Sol     HW14003   0.826   1.984   6.745  2.7636 -1.8886  0.4284
 2717Sol     MW14004   0.787   1.919   6.697  0.1230  0.0920 -0.1315
 2718Sol     OW14005   0.825   3.432   4.136 -0.8038  0.0983  0.1698
 2718Sol     HW14006   0.785   3.490   4.071  0.7921  1.7959  0.6589
 2718Sol     HW14007   0.791   3.345   4.114 -0.4022  0.6458 -2.8382
 2718Sol     MW14008   0.818   3.429   4.128  0.3571 -0.2792 -0.3491
 2719Sol     OW14009   3.282   1.244   8.215 -0.1303 -0.0817 -0.2635
 2719Sol     HW14010   3.279   1.181   8.143 -1.0124 -0.0752 -0.2309
 2719Sol     HW14011   3.246   1.197   8.290  0.9721 -0.1537  0.2345
 2719Sol     MW14012   3.279   1.234   8.216  0.0016  0.1499  0.0932
 2720Sol     OW14013   1.715   3.219   8.306 -0.3071  0.3873 -0.6249
 2720Sol     HW14014   1.664   3.143   8.334  0.0277 -0.0281 -1.1346
 2720Sol     HW14015   1.718   3.276   8.383  0.1183 -0.4827  0.0134
 2720Sol     MW14016   1.711   3.218   8.316 -0.3662 -0.5200 -0.8606
 2721Sol     OW14017   2.151   2.700   6.719  0.7788 -0.1780  0.2183
 2721Sol     HW14018   2.059   2.710   6.696  0.8035 -0.5319 -0.0310
 2721Sol     HW14019   2.198   2.755   6.657  0.8976 -1.6287 -1.0178
 2721Sol     MW14020   2.147   2.705   6.712  0.5930  0.5029 -0.0449
 2722Sol     OW14021   0.295   0.178   3.870  0.3651  0.1283  0.0783
 2722Sol     HW14022   0.340   0.260   3.851  1.1678 -0.2128  0.4835
 2722Sol     HW14023   0.202   0.202   3.875  0.7276  1.2760  1.6292
 2722Sol     MW14024   0.291   0.188   3.869  0.4315  0.0472  0.1213
 2723Sol     OW14025   2.906   1.512   3.232  0.5687 -0.1391 -0.2147
 2723Sol     HW14026   2.993   1.492   3.196  1.6089  0.4172  1.8715
 2723Sol     HW14027   2.893   1.605   3.212  0.3879 -0.2646 -0.6743
 2723Sol     MW14028   2.913   1.519   3.227  0.9224  0.2830 -0.2392
 2724Sol     OW14029   0.417   0.977   6.557  0.0902  0.3015 -0.0927
 2724Sol     HW14030   0.452   1.057   6.595 -0.2842  1.1784 -1.5339
 2724Sol     HW14031   0.488   0.914   6.563  1.2192  1.4531 -1.0999
 2724Sol     MW14032   0.426   0.979   6.561  0.0082  0.8091  0.2085
 2725Sol     OW14033   2.196   0.447   9.558 -0.0843  0.2996  0.2381
 2725Sol     HW14034   2.241   0.476   9.636 -0.0544 -0.2606  0.4343
 2725Sol     HW14035   2.153   0.365   9.584 -2.2870  1.4659  0.4305
 2725Sol     MW14036   2.196   0.442   9.567  0.4342 -0.1098  0.0627
 2726Sol     OW14037   0.899   3.225   5.699  0.1262 -0.5935 -0.1596
 2726Sol     HW14038   0.951   3.256   5.772  1.3311 -2.2989 -0.2655
 2726Sol     HW14039   0.845   3.155   5.736 -0.4682 -0.3365 -0.5364
 2726Sol     MW14040   0.899   3.222   5.709  0.0369  0.3968  0.1334
 2727Sol     OW14041   0.650   2.567   2.704 -0.0593 -0.5484  0.1889
 2727Sol     HW14042   0.687   2.528   2.783  0.7630 -0.4995 -0.1684
 2727Sol     HW14043   0.710   2.541   2.634 -0.0173  0.5676 -0.1982
 2727Sol     MW14044   0.659   2.561   2.705 -0.0552 -0.0801  0.0362
 2728Sol     OW14045   0.121   1.869   7.021  0.2791 -0.1040 -0.2194
 2728Sol     HW14046   0.205   1.914   7.021 -0.1228  0.7751 -3.6225
 2728Sol     HW14047   0.142   1.778   6.999  0.1519  0.6972 -3.9324
 2728Sol     MW14048   0.130   1.865   7.019 -0.3852  0.2441 -0.4455
 2729Sol     OW14049   0.494   0.476   1.880  0.3196 -0.1072  0.0092
 2729Sol     HW14050   0.542   0.543   1.930  0.0273  0.2824 -0.2235
 2729Sol     HW14051   0.497   0.507   1.790  3.1310 -2.1800 -0.6392
 2729Sol     MW14052   0.498   0.485   1.877  0.5753  0.1475  0.4896
 2730Sol     OW14053   1.993   0.933   6.087 -0.1192  1.0099 -0.6890
 2730Sol     HW14054   1.970   1.008   6.141 -1.1647 -0.4436  0.9492
 2730Sol     HW14055   2.086   0.918   6.105 -0.2094  1.1734 -0.0773
 2730Sol     MW14056   2.000   0.938   6.094  0.1250 -0.8757  0.5932
 2731Sol     OW14057   0.585   0.025   9.480 -0.0203 -0.1479 -0.4096
 2731Sol     HW14058   0.568   0.027   9.386  0.2966  1.4743 -0.4487
 2731Sol     HW14059   0.542   0.104   9.514  1.5077  0.3099  0.5182
 2731Sol     MW14060   0.579   0.032   9.475  0.3549  0.8692  0.4033
 2732Sol     OW14061   2.708   2.815   4.756  0.2404  0.1200 -0.1497
 2732Sol     HW14062   2.785   2.810   4.700  0.8887 -0.9427  0.8221
 2732Sol     HW14063   2.634   2.808   4.696  0.9329 -3.2749 -0.6854
 2732Sol     MW14064   2.708   2.814   4.746 -0.5503 -0.2842 -0.5945
 2733Sol     OW14065   0.020   2.986   5.578 -0.5197 -0.2568 -0.3161
 2733Sol     HW14066   0.026   3.076   5.545  0.7860  0.2187  1.1242
 2733Sol     HW14067  -0.070   2.960   5.562 -1.3347  1.8829  0.6609
 2733Sol     MW14068   0.013   2.992   5.573  0.0176  0.0032 -0.1540
 2734Sol     OW14069   2.271   2.510   7.734  0.0494  0.4439  0.2588
 2734Sol     HW14070   2.244   2.567   7.662  1.5219 -0.9327 -1.4115
 2734Sol     HW14071   2.305   2.570   7.800  0.5253  1.5934 -0.9969
 2734Sol     MW14072   2.271   2.521   7.733  0.3589  0.7096  0.1701
 2735Sol     OW14073   1.358   0.475   8.714  0.0036  0.5270 -0.4005
 2735Sol     HW14074   1.322   0.539   8.652 -0.2967  0.5413 -0.2145
 2735Sol     HW14075   1.297   0.401   8.710 -1.5552  1.6335  1.8939
 2735Sol     MW14076   1.349   0.474   8.708 -0.3932  0.3736  0.3682
 2736Sol     OW14077   0.693   2.659   6.832  0.2420 -0.3513  0.3491
 2736Sol     HW14078   0.691   2.598   6.758 -2.2729 -0.2023  0.2641
 2736Sol     HW14079   0.742   2.734   6.799 -1.1493 -0.1505 -1.2824
 2736Sol     MW14080   0.697   2.660   6.822  0.0255 -0.0973  0.5127
 2737Sol     OW14081   2.585   3.132   5.112 -0.5085  0.1947 -0.2289
 2737Sol     HW14082   2.528   3.121   5.036 -2.2918 -0.0773  1.1431
 2737Sol     HW14083   2.528   3.165   5.181  1.2130  1.0035  0.8499
 2737Sol     MW14084   2.575   3.134   5.111  0.1081  0.2624  0.0137
 2738Sol     OW14085   2.035   3.023   2.250  0.7021  0.4924  0.1063
 2738Sol     HW14086   2.012   2.959   2.183  1.3419 -0.0386  0.3890
 2738Sol     HW14087   1.953   3.069   2.268  0.0569 -0.7394  0.4096
 2738Sol     MW14088   2.026   3.021   2.246  0.5267  0.1486  0.1092
 2739Sol     OW14089   1.382   0.030   7.711  0.1164 -0.4834 -0.1604
 2739Sol     HW14090   1.358  -0.063   7.718  1.5250 -0.9698 -1.6304
 2739Sol     HW14091   1.450   0.042   7.777  0.3591 -0.6441 -0.3802
 2739Sol     MW14092   1.386   0.022   7.717  0.3459  0.0046 -0.4002
 2740Sol     OW14093   2.574   1.394   2.087 -0.4748 -0.2018  0.0092
 2740Sol     HW14094   2.553   1.414   2.178 -1.0161 -1.9868  0.2987
 2740Sol     HW14095   2.653   1.341   2.092  0.6313  1.3531 -0.7009
 2740Sol     MW14096   2.579   1.391   2.095 -0.2849  0.5002 -0.7501
 2741Sol     OW14097   0.172   2.799   4.493  0.5389 -0.0988  0.0445
 2741Sol     HW14098   0.116   2.744   4.438  0.0306 -1.7618  2.1592
 2741Sol     HW14099   0.251   2.747   4.507  0.4843  0.1125  1.2140
 2741Sol     MW14100   0.174   2.789   4.489  0.3499 -0.1787  0.2193
 2742Sol     OW14101   1.902   1.720   7.736  0.6221  0.1528 -0.2095
 2742Sol     HW14102   1.931   1.725   7.827  0.2188 -1.4583  0.0322
 2742Sol     HW14103   1.970   1.764   7.685  0.2842  2.0941  0.9774
 2742Sol     MW14104   1.910   1.724   7.739  0.8272 -0.3073 -0.2704
 2743Sol     OW14105   1.907   1.529   5.954  0.1121 -0.1539  0.2178
 2743Sol     HW14106   1.993   1.499   5.983  0.3374  1.2883  1.0723
 2743Sol     HW14107   1.847   1.503   6.024 -0.1833 -1.3186 -0.4603
 2743Sol     MW14108   1.909   1.524   5.962  0.7359 -0.3444  0.2124
 2744Sol     OW14109   1.854   2.999   3.887  0.1419  0.2355 -0.1048
 2744Sol     HW14110   1.901   2.945   3.951  0.2333  0.7512  0.2696
 2744Sol     HW14111   1.765   2.964   3.887  0.0665  0.4239  0.5222
 2744Sol     MW14112   1.850   2.991   3.893  0.1931  0.4042  0.2555
 2745Sol     OW14113   2.533   3.043   6.644 -0.1030  0.3865  0.1923
 2745Sol     HW14114   2.570   3.117   6.693 -0.2048  0.2354  0.5050
 2745Sol     HW14115   2.521   2.975   6.711  0.2243  0.0045 -0.1418
 2745Sol     MW14116   2.535   3.043   6.655 -0.1080  0.1438  0.4948
 2746Sol     OW14117   1.984   1.558   9.463 -0.3162 -0.0672  0.1962
 2746Sol     HW14118   2.041   1.635   9.455  0.5434 -0.5707  1.2586
 2746Sol     HW14119   1.968   1.550   9.557 -0.9310 -0.8037  0.0282
 2746Sol     MW14120   1.988   1.564   9.470 -0.2729  0.1021 -0.1055
 2747Sol     OW14121   3.253   2.686   8.405 -0.3589  0.5388 -0.1425
 2747Sol     HW14122   3.249   2.689   8.501  0.5972  1.1563 -0.1145
 2747Sol     HW14123   3.326   2.744   8.382 -1.5788  1.6609 -1.3263
 2747Sol     MW14124   3.259   2.692   8.412 -0.2121 -0.4686 -0.4380
 2748Sol     OW14125   0.744   0.507   5.534 -0.1096  0.3705  0.2962
 2748Sol     HW14126   0.678   0.541   5.594 -0.0360  0.5336  0.2844
 2748Sol     HW14127   0.827   0.530   5.576 -0.0629 -0.3647  0.6133
 2748Sol     MW14128   0.746   0.512   5.543  0.3621  0.4378  0.3073
 2749Sol     OW14129   1.047   1.143   8.144  0.5572  0.2184  0.0366
 2749Sol     HW14130   1.014   1.215   8.090  0.1750 -0.4801 -0.6729
 2749Sol     HW14131   0.988   1.140   8.219  0.0191  0.0547 -0.3920
 2749Sol     MW14132   1.039   1.150   8.146  0.2836  0.3001 -0.5588
 2750Sol     OW14133   2.450   0.868   6.917  0.0655 -0.0501 -0.5904
 2750Sol     HW14134   2.370   0.906   6.878 -2.2786 -0.9836  3.0501
 2750Sol     HW14135   2.430   0.775   6.927  1.1815 -0.0993  1.3761
 2750Sol     MW14136   2.441   0.863   6.914 -0.3899  0.3451  0.2666
 2751Sol     OW14137   0.940   0.616   2.199 -0.5188  0.1964 -0.4356
 2751Sol     HW14138   0.855   0.612   2.243 -0.6211  0.8809 -0.5570
 2751Sol     HW14139   0.970   0.525   2.194 -1.3517 -0.0670 -0.5985
 2751Sol     MW14140   0.935   0.607   2.202 -0.1786 -0.4261 -0.0143
 2752Sol     OW14141   2.667   3.072   7.693 -0.2749  0.2426  0.4807
 2752Sol     HW14142   2.578   3.039   7.676  0.0718 -1.4037  1.8009
 2752Sol     HW14143   2.713   3.060   7.610 -1.4564  1.7029 -0.4073
 2752Sol     MW14144   2.663   3.068   7.684 -0.5496 -0.1370 -0.2458
 2753Sol     OW14145   0.144   1.444   5.808  0.2549 -0.2247 -0.5887
 2753Sol     HW14146   0.233   1.456   5.773 -0.2731 -0.0648 -1.8835
 2753Sol     HW14147   0.108   1.533   5.811  0.6954 -0.0977  1.4542
 2753Sol     MW14148   0.149   1.453   5.805 -0.1546  0.1415  0.6568
 2754Sol     OW14149   2.996   0.804   9.280 -0.1400 -0.2292 -0.3907
 2754Sol     HW14150   3.089   0.794   9.257 -0.3784 -1.0440 -1.0110
 2754Sol     HW14151   2.984   0.898   9.290  1.6273 -0.3159  3.3154
 2754Sol     MW14152   3.003   0.811   9.279 -0.5978 -0.0767  0.2951
 2755Sol     OW14153   3.036   2.657   1.988  0.3329  0.0921 -0.2419
 2755Sol     HW14154   2.945   2.680   2.009 -0.4631 -1.6970 -1.5325
 2755Sol     HW14155   3.072   2.737   1.948 -0.6085  0.8881  0.4786
 2755Sol     MW14156   3.031   2.666   1.986  0.0775 -0.1116 -1.0535
 2756Sol     OW14157   0.082   2.457   2.882  0.2670 -1.0218  0.4880
 2756Sol     HW14158   0.100   2.531   2.940 -2.2717 -0.3233  0.4630
 2756Sol     HW14159   0.076   2.381   2.941 -0.9366 -0.5405  1.0121
 2756Sol     MW14160   0.083   2.457   2.892  0.3961 -0.1030 -0.5034
 2757Sol     OW14161   0.410   3.240   2.805 -0.4176  0.1707 -0.3278
 2757Sol     HW14162   0.440   3.167   2.859  1.1965 -0.0331 -1.4643
 2757Sol     HW14163   0.392   3.310   2.868  2.2403  0.2107  0.4640
 2757Sol     MW14164   0.412   3.240   2.816  0.2168 -0.1029 -0.2350
 2758Sol     OW14165   2.075   0.222   8.035 -0.5471 -0.1447  0.6023
 2758Sol     HW14166   2.015   0.247   8.106 -0.8282 -0.8677  0.6261
 2758Sol     HW14167   2.152   0.188   8.080  0.1637  1.3830  0.5825
 2758Sol     MW14168   2.077   0.221   8.046  0.1873 -0.6072  0.0032
 2759Sol     OW14169   0.414   1.615   4.914 -0.1433  0.3036 -0.2978
 2759Sol     HW14170   0.386   1.632   4.824  1.6809 -0.4930 -1.0601
 2759Sol     HW14171   0.365   1.537   4.940  1.2647 -1.0565 -1.5935
 2759Sol     MW14172   0.407   1.609   4.908  0.2493  0.7099  0.2517
 2760Sol     OW14173   0.044   1.511   8.963  0.2985 -0.0965  0.0752
 2760Sol     HW14174  -0.029   1.500   8.901  0.2991  1.1773 -0.1592
 2760Sol     HW14175   0.060   1.423   8.996 -3.2819 -0.0326  2.3235
 2760Sol     MW14176   0.039   1.502   8.960  0.1140  0.3892  0.0097
 2761Sol     OW14177   2.007   3.108   3.265  0.6567  0.1469  0.3767
 2761Sol     HW14178   2.092   3.099   3.306  0.9836 -1.2248 -0.5314
 2761Sol     HW14179   1.984   3.018   3.237 -0.6716  0.6271 -0.1611
 2761Sol     MW14180   2.012   3.099   3.266  0.0351  0.1956  0.2758
 2762Sol     OW14181   1.610   0.687   6.774  0.4222  0.5158  0.2355
 2762Sol     HW14182   1.526   0.728   6.793  0.0502 -0.9606  1.9002
 2762Sol     HW14183   1.675   0.743   6.817  0.1525  0.7901  0.2853
 2762Sol     MW14184   1.609   0.695   6.779 -0.0116 -0.0776 -0.2843
 2763Sol     OW14185   2.144   0.657   4.800  0.0749 -0.4754 -0.6064
 2763Sol     HW14186   2.226   0.695   4.831 -0.5593  0.4533 -0.0602
 2763Sol     HW14187   2.125   0.587   4.862 -0.8192  0.9141  0.7187
 2763Sol     MW14188   2.150   0.654   4.808 -0.2852  0.6810  0.5337
 2764Sol     OW14189   3.160   1.964   2.063  0.4685  0.0591 -0.3709
 2764Sol     HW14190   3.249   1.937   2.038  0.9040  0.5669  0.6078
 2764Sol     HW14191   3.161   2.059   2.052 -0.0629  0.0299 -0.6774
 2764Sol     MW14192   3.168   1.970   2.059  0.2496  0.3087 -0.0098
 2765Sol     OW14193   1.972   3.308   7.147  0.2794 -0.2354 -0.0973
 2765Sol     HW14194   1.954   3.248   7.219  1.6388 -0.6650 -0.1072
 2765Sol     HW14195   1.974   3.394   7.188  0.0297 -0.3769  0.2122
 2765Sol     MW14196   1.971   3.310   7.157 -0.4336 -0.5507 -0.2775
 2766Sol     OW14197   2.744   1.422   7.960 -0.3039  0.1695  0.0883
 2766Sol     HW14198   2.756   1.482   7.887 -0.9642 -0.5065 -0.5885
 2766Sol     HW14199   2.820   1.363   7.955  0.7705  1.4208  1.2388
 2766Sol     MW14200   2.752   1.422   7.953  1.1807 -0.1352  0.2355
 2767Sol     OW14201   0.737   2.881   8.459 -0.4193  0.0365  0.2443
 2767Sol     HW14202   0.680   2.804   8.468 -0.4295  0.2478  2.1431
 2767Sol     HW14203   0.784   2.886   8.543  1.9242  0.2460 -1.0467
 2767Sol     MW14204   0.736   2.874   8.468  0.1091 -0.0754  0.3031
 2768Sol     OW14205   2.350   1.332   4.482  0.0354 -0.1829 -0.2290
 2768Sol     HW14206   2.379   1.327   4.573  0.4992 -0.1818 -0.3734
 2768Sol     HW14207   2.410   1.395   4.442 -0.2633 -0.0684 -0.4980
 2768Sol     MW14208   2.358   1.337   4.486  0.1084  0.4370 -0.0670
 2769Sol     OW14209   1.066   0.530   8.637  0.1156  0.4844  0.2501
 2769Sol     HW14210   1.090   0.438   8.648  1.0805  0.7026 -0.0083
 2769Sol     HW14211   1.080   0.569   8.723  0.4542  0.5558  0.1637
 2769Sol     MW14212   1.069   0.525   8.645 -0.0955 -0.8700 -0.1083
 2770Sol     OW14213   2.894   0.702   3.242 -0.0126  0.2378 -0.7605
 2770Sol     HW14214   2.832   0.633   3.221 -0.6750  0.2986  0.9154
 2770Sol     HW14215   2.852   0.783   3.211  0.7174 -0.0779 -2.6255
 2770Sol     MW14216   2.885   0.703   3.238  0.2360  0.0147  0.0872
 2771Sol     OW14217   1.997   0.147   8.481  0.8257  0.1817  0.2278
 2771Sol     HW14218   2.064   0.114   8.421 -0.9723 -0.9997 -1.1921
 2771Sol     HW14219   1.943   0.206   8.427  0.5325  0.8749  1.2641
 2771Sol     MW14220   1.998   0.150   8.471  0.2794 -0.1699  0.0189
 2772Sol     OW14221   1.014   1.912   6.492  0.3676  0.1521  0.5062
 2772Sol     HW14222   0.995   1.852   6.420 -0.0366  2.7896 -1.6731
 2772Sol     HW14223   0.940   1.903   6.552  0.3514 -1.5641  0.2375
 2772Sol     MW14224   1.006   1.906   6.491  0.2392  0.0195 -0.1463
 2773Sol     OW14225   0.387   2.539   2.542 -0.6167  0.2506  0.0895
 2773Sol     HW14226   0.474   2.546   2.581  0.3300 -2.6267 -1.3415
 2773Sol     HW14227   0.353   2.455   2.572 -2.8051  1.1693  0.3551
 2773Sol     MW14228   0.391   2.532   2.548 -0.3872 -0.2175  0.2610
 2774Sol     OW14229   2.000   2.310   7.505 -0.5048 -0.3323  0.2658
 2774Sol     HW14230   2.049   2.283   7.427  0.6916  0.2623  0.7943
 2774Sol     HW14231   1.982   2.403   7.490 -3.0046 -0.9383 -0.7153
 2774Sol     MW14232   2.003   2.316   7.496 -0.7563 -0.1262 -0.0737
 2775Sol     OW14233   0.544   1.067   8.929  0.3793 -0.1153 -0.1551
 2775Sol     HW14234   0.499   0.983   8.916  0.5664 -0.3037  0.3786
 2775Sol     HW14235   0.583   1.087   8.844 -0.2881 -0.2049 -0.4835
 2775Sol     MW14236   0.543   1.061   8.920 -0.5340  0.2202 -0.1900
 2776Sol     OW14237   0.351   2.694   9.327 -0.4575  0.5185 -0.2705
 2776Sol     HW14238   0.265   2.689   9.284 -0.6785 -2.6137  0.4078
 2776Sol     HW14239   0.332   2.732   9.413 -1.2469 -0.4953  0.0140
 2776Sol     MW14240   0.341   2.697   9.331  0.0634  0.2984 -0.3161
 2777Sol     OW14241   2.129   2.120   3.755 -0.0903 -0.0268  0.2594
 2777Sol     HW14242   2.180   2.097   3.677 -0.0842 -0.7660  0.4752
 2777Sol     HW14243   2.174   2.076   3.827 -0.3323  0.3172  0.6231
 2777Sol     MW14244   2.137   2.114   3.755 -0.1728 -0.2005 -0.0379
 2778Sol     OW14245   0.237   1.427   7.516  0.3509  0.7311 -0.6185
 2778Sol     HW14246   0.243   1.344   7.470 -0.3650  1.0591 -1.3274
 2778Sol     HW14247   0.230   1.404   7.608 -1.9944 -0.0806 -0.9811
 2778Sol     MW14248   0.237   1.418   7.520  0.2422  0.1789  0.3597
 2779Sol     OW14249   1.165   1.770   1.998 -0.1736 -0.1848 -0.2330
 2779Sol     HW14250   1.099   1.773   1.929  0.1949 -0.3873 -0.5984
 2779Sol     HW14251   1.129   1.709   2.063 -0.9861  0.7967  0.2437
 2779Sol     MW14252   1.156   1.764   1.998 -0.4530  0.1397  0.0593
 2780Sol     OW14253   3.126   2.789   6.353  0.5062  0.5244  0.1174
 2780Sol     HW14254   3.195   2.732   6.387  0.2628  0.4471  0.4821
 2780Sol     HW14255   3.056   2.729   6.329  0.4586  0.6268  0.0025
 2780Sol     MW14256   3.126   2.778   6.354 -0.5092  0.1071  0.2810
 2781Sol     OW14257   0.829   3.205   8.663  0.5492 -0.3375  0.1457
 2781Sol     HW14258   0.903   3.252   8.701  1.0030  0.0430 -1.1582
 2781Sol     HW14259   0.821   3.242   8.574 -2.4935  1.1433  0.9432
 2781Sol     MW14260   0.835   3.213   8.658 -0.0994 -0.0922  0.0059
 2782Sol     OW14261   0.247   1.216   3.172 -0.4362  0.0268  0.4136
 2782Sol     HW14262   0.258   1.121   3.177 -1.0129  0.0304  1.9833
 2782Sol     HW14263   0.335   1.250   3.153  0.0324 -0.7340  1.1913
 2782Sol     MW14264   0.256   1.211   3.171 -0.0513 -0.6589  0.0031
 2783Sol     OW14265   2.515   1.994   6.529  0.1060 -0.3224  0.3129
 2783Sol     HW14266   2.466   2.076   6.518 -1.1552 -1.0661  0.2429
 2783Sol     HW14267   2.481   1.957   6.610  0.2779 -1.0335  0.0657
 2783Sol     MW14268   2.507   1.998   6.535 -0.2482  0.1160  0.1342
 2784Sol     OW14269   1.503   0.762   7.300  0.2005  0.3448  0.0781
 2784Sol     HW14270   1.540   0.689   7.350 -0.2529 -0.4085 -0.6757
 2784Sol     HW14271   1.409   0.754   7.312  0.1083  0.3692 -0.6074
 2784Sol     MW14272   1.498   0.755   7.306  0.0311  0.4947 -0.0504
 2785Sol     OW14273   1.712   0.980   7.096  0.0480  0.0771 -0.0932
 2785Sol     HW14274   1.767   1.057   7.112  1.4752 -1.1691  1.2095
 2785Sol     HW14275   1.717   0.931   7.178 -2.3990 -0.4518 -0.2412
 2785Sol     MW14276   1.718   0.983   7.105  0.0574  0.1986 -0.0173
 2786Sol     OW14277   0.447   2.854   3.961 -0.4448  0.4094  0.2216
 2786Sol     HW14278   0.516   2.894   4.014 -0.3163  0.0862  0.3022
 2786Sol     HW14279   0.366   2.885   3.999 -0.3861  4.6898 -2.8067
 2786Sol     MW14280   0.446   2.860   3.969 -0.0723 -0.2394 -0.0518
 2787Sol     OW14281   0.181   0.444   9.632  0.1672 -0.6581  0.3397
 2787Sol     HW14282   0.235   0.476   9.704 -1.7738  1.2908  0.9807
 2787Sol     HW14283   0.178   0.349   9.645  0.6383 -0.4343  2.2347
 2787Sol     MW14284   0.186   0.438   9.640  0.1880  0.0170 -0.0237
 2788Sol     OW14285   0.212   3.162   8.454 -0.6518 -0.1506  0.1423
 2788Sol     HW14286   0.287   3.163   8.394 -0.7020  0.7958  0.0821
 2788Sol     HW14287   0.244   3.208   8.532 -1.2143  0.3995  0.0558
 2788Sol     MW14288   0.222   3.166   8.456 -0.0788  0.1718  0.1368
 2789Sol     OW14289   1.148   2.901   9.494 -0.0195 -0.3712 -0.3039
 2789Sol     HW14290   1.149   2.969   9.562 -1.3136  0.6662 -1.2925
 2789Sol     HW14291   1.100   2.828   9.533 -2.9557  1.1465 -0.9148
 2789Sol     MW14292   1.144   2.901   9.504  0.4114 -0.5611  0.0447
 2790Sol     OW14293   1.939   1.338   6.510  0.5973  0.0217  0.0648
 2790Sol     HW14294   1.888   1.283   6.569 -1.3953  1.2259 -0.5002
 2790Sol     HW14295   1.909   1.427   6.527  1.3959  0.5901 -1.3862
 2790Sol     MW14296   1.932   1.341   6.517  0.5395  0.3254 -0.0741
 2791Sol     OW14297   3.254   0.898   8.929  0.6964  0.0664 -0.2623
 2791Sol     HW14298   3.218   0.811   8.909 -0.0015  0.4719 -0.7944
 2791Sol     HW14299   3.177   0.953   8.941  1.1381  0.4716  0.7138
 2791Sol     MW14300   3.244   0.895   8.928 -0.2660  0.0093 -0.3606
 2792Sol     OW14301   0.490   0.922   9.748  0.6798 -0.2463 -0.8219
 2792Sol     HW14302   0.494   1.006   9.703  4.0355  0.1193  0.0540
 2792Sol     HW14303   0.403   0.921   9.788  1.3000  3.7719  0.9076
 2792Sol     MW14304   0.483   0.929   9.748 -0.1938  0.3750 -0.1628
 2793Sol     OW14305   0.574   1.416   7.310  0.0404  0.1521  0.4942
 2793Sol     HW14306   0.508   1.480   7.283 -2.6938 -1.5318  2.9327
 2793Sol     HW14307   0.612   1.384   7.228 -3.2044  0.1033 -1.0406
 2793Sol     MW14308   0.572   1.419   7.300 -0.2976 -0.1171  0.2462
 2794Sol     OW14309   2.852   1.580   7.739 -0.6109 -0.2910 -0.4283
 2794Sol     HW14310   2.871   1.633   7.662 -0.5501 -0.4535 -0.5243
 2794Sol     HW14311   2.927   1.594   7.797 -1.3755  1.0575  0.2712
 2794Sol     MW14312   2.860   1.586   7.737 -0.4420  0.0567  0.1017
 2795Sol     OW14313   3.329   2.048   5.641  0.0479  0.0709  0.6598
 2795Sol     HW14314   3.355   1.966   5.598 -0.9339 -0.4182  0.9895
 2795Sol     HW14315   3.411   2.096   5.652  0.3190  0.3080 -1.9872
 2795Sol     MW14316   3.339   2.045   5.638  0.4086  0.2133  0.5391
 2796Sol     OW14317   1.958   3.093   8.374  0.3977  0.2784 -0.1809
 2796Sol     HW14318   1.960   3.116   8.467 -1.5222  0.3510 -0.1280
 2796Sol     HW14319   1.874   3.129   8.343  0.8000 -0.1647 -1.8201
 2796Sol     MW14320   1.950   3.098   8.379 -0.1619  0.3950 -1.1573
 2797Sol     OW14321   1.761   3.336   3.586  0.1359 -0.0589 -0.8950
 2797Sol     HW14322   1.753   3.242   3.571 -0.1045 -0.0203 -1.0117
 2797Sol     HW14323   1.797   3.370   3.504 -4.1155  0.5880 -2.6614
 2797Sol     MW14324   1.763   3.331   3.577 -0.1234 -0.4126 -0.3194
 2798Sol     OW14325   0.358   2.439   3.561 -0.4302  0.1735 -0.3632
 2798Sol     HW14326   0.398   2.501   3.622 -0.9444 -0.1531  0.3074
 2798Sol     HW14327   0.304   2.383   3.616 -0.8124 -0.1899 -1.1076
 2798Sol     MW14328   0.357   2.440   3.571 -0.3980 -0.2384 -0.1913
 2799Sol     OW14329   3.162   2.243   2.050 -0.6908 -0.5784  0.4236
 2799Sol     HW14330   3.098   2.245   1.979 -0.5749  2.3993  0.3333
 2799Sol     HW14331   3.109   2.243   2.130 -0.8176 -0.3143  0.3400
 2799Sol     MW14332   3.151   2.243   2.051  0.2126  0.3996  0.4111
 2800Sol     OW14333   3.174   1.557   7.233 -0.1051  0.1871  0.4959
 2800Sol     HW14334   3.205   1.648   7.229  1.2099 -0.0110  3.9223
 2800Sol     HW14335   3.215   1.514   7.158  0.7417  2.0285 -0.1182
 2800Sol     MW14336   3.181   1.561   7.226 -0.0211 -0.3553 -0.0067
 2801Sol     OW14337   0.762   0.186   2.027  0.0131  0.0298  0.3551
 2801Sol     HW14338   0.777   0.093   2.012 -1.5188 -0.2731  0.5900
 2801Sol     HW14339   0.768   0.226   1.940  2.5029  0.0079  0.4855
 2801Sol     MW14340   0.764   0.181   2.018  0.3223  0.2881  0.6916
 2802Sol     OW14341   2.380   0.212   3.207 -0.0226  0.3128  0.7279
 2802Sol     HW14342   2.358   0.143   3.269  1.0441  0.3628  1.1613
 2802Sol     HW14343   2.310   0.208   3.141  0.2509 -1.4461  0.5194
 2802Sol     MW14344   2.372   0.205   3.206  0.1757 -0.2719  0.0368
 2803Sol     OW14345   1.984   0.877   8.927 -0.3740 -0.3922 -0.3637
 2803Sol     HW14346   1.996   0.926   8.846  1.4715 -1.1890 -0.5957
 2803Sol     HW14347   2.044   0.918   8.989  1.1924 -2.2997 -0.5574
 2803Sol     MW14348   1.991   0.885   8.925  0.1983 -0.5938  0.7094
 2804Sol     OW14349   2.956   0.524   6.641 -0.5691 -0.2517  0.4174
 2804Sol     HW14350   2.884   0.466   6.665 -0.0009 -0.5968  1.3274
 2804Sol     HW14351   3.019   0.467   6.596 -1.0426  0.1312 -0.7526
 2804Sol     MW14352   2.955   0.514   6.639 -0.0652  0.4359  0.3991
 2805Sol     OW14353   0.358   0.786   1.702 -0.0353 -0.4816 -0.7657
 2805Sol     HW14354   0.267   0.811   1.683  0.1435  0.1125 -0.8738
 2805Sol     HW14355   0.364   0.695   1.676 -0.8255 -0.7622 -0.0054
 2805Sol     MW14356   0.350   0.780   1.698 -0.3860 -0.0057 -0.2441
 2806Sol     OW14357   1.155   0.265   8.667  0.0863 -0.2616  0.4277
 2806Sol     HW14358   1.178   0.212   8.742 -1.5687 -2.0617 -0.2969
 2806Sol     HW14359   1.076   0.224   8.631 -0.0688  1.4837 -1.3517
 2806Sol     MW14360   1.150   0.257   8.670 -0.5528  0.0040 -0.2407
 2807Sol     OW14361   1.480   0.151   1.902 -0.2219 -0.4567 -0.3957
 2807Sol     HW14362   1.488   0.211   1.828  1.3288 -1.4070 -1.0239
 2807Sol     HW14363   1.570   0.125   1.921 -0.6964 -0.9780  1.2132
 2807Sol     MW14364   1.489   0.154   1.897 -0.1195 -0.0498  0.2556
 2808Sol     OW14365   1.207   3.075   6.245 -0.0688 -0.0137  0.2314
 2808Sol     HW14366   1.224   3.092   6.338  1.4200 -2.0405  0.3707
 2808Sol     HW14367   1.285   3.107   6.200 -0.4849  0.3259 -0.2426
 2808Sol     MW14368   1.216   3.079   6.250  0.2651  0.4910 -0.3281
 2809Sol     OW14369   0.285   2.993   3.467  0.2799  0.0958 -0.0416
 2809Sol     HW14370   0.216   3.056   3.446  0.4323 -0.0605 -1.0743
 2809Sol     HW14371   0.350   3.042   3.516 -0.2736  0.3957  0.3934
 2809Sol     MW14372   0.284   3.003   3.469  0.9720 -0.3748 -0.2588
 2810Sol     OW14373   0.054   3.310   4.130 -0.6142 -0.0099 -0.3691
 2810Sol     HW14374  -0.018   3.344   4.077 -1.5218 -0.9401  0.2487
 2810Sol     HW14375   0.113   3.384   4.141 -1.9501  1.0214 -0.0694
 2810Sol     MW14376   0.053   3.319   4.126  0.4644  0.0579 -0.2612
 2811Sol     OW14377   2.895   2.520   6.845 -0.3658 -0.6035  0.2032
 2811Sol     HW14378   2.858   2.498   6.931 -0.3676 -0.0458  0.3443
 2811Sol     HW14379   2.989   2.520   6.859 -0.3738 -0.3189  0.2476
 2811Sol     MW14380   2.900   2.518   6.854  0.1501  0.6344  0.2191
 2812Sol     OW14381   2.386   0.312   2.021  0.2337  0.1185  0.2038
 2812Sol     HW14382   2.426   0.361   1.949  1.4875 -0.4490  0.4989
 2812Sol     HW14383   2.451   0.314   2.091 -0.7239  0.1428  1.1244
 2812Sol     MW14384   2.395   0.317   2.021  0.1457 -0.9037 -0.3533
 2813Sol     OW14385   0.525   2.001   7.351  0.0227 -0.4782  0.1638
 2813Sol     HW14386   0.543   1.937   7.421  0.2161  0.0825  0.6352
 2813Sol     HW14387   0.545   2.086   7.391 -1.5512 -0.0081 -0.0196
 2813Sol     MW14388   0.529   2.003   7.361 -0.1390 -0.3088 -0.2408
 2814Sol     OW14389   1.829   0.024   8.653 -0.1941 -0.2584  0.6244
 2814Sol     HW14390   1.828   0.090   8.724  1.9854  1.7016 -1.0745
 2814Sol     HW14391   1.892   0.059   8.590  0.0770 -3.4331 -0.9185
 2814Sol     MW14392   1.835   0.033   8.654 -0.0841  0.4166  0.2771
 2815Sol     OW14393   0.255   0.215   5.521  0.0139 -0.1921  0.2138
 2815Sol     HW14394   0.251   0.119   5.515  1.9290 -0.1631 -2.8217
 2815Sol     HW14395   0.164   0.243   5.520 -0.5893 -1.9989  1.7301
 2815Sol     MW14396   0.246   0.209   5.521  0.1434  0.4595 -0.4526
 2816Sol     OW14397   1.387   0.802   4.426 -0.2786  0.5816  0.3124
 2816Sol     HW14398   1.464   0.811   4.481 -1.0416  0.3932  1.4218
 2816Sol     HW14399   1.340   0.726   4.461 -0.9033  0.6074 -0.4364
 2816Sol     MW14400   1.390   0.796   4.434 -0.4122 -0.1716 -0.3044
 2817Sol     OW14401   1.105   3.287   3.166  0.0705  0.1666  0.1247
 2817Sol     HW14402   1.149   3.203   3.169  0.1478  0.2160  0.3933
 2817Sol     HW14403   1.174   3.351   3.186  0.2166  0.3665 -1.0273
 2817Sol     MW14404   1.115   3.285   3.168 -0.1870  0.2183  0.1391
 2818Sol     OW14405   3.061   0.422   6.180  0.0444  0.9628  0.3800
 2818Sol     HW14406   3.149   0.443   6.211  0.9096 -1.8315 -0.1015
 2818Sol     HW14407   3.005   0.485   6.226  2.2073  2.5097  1.0163
 2818Sol     MW14408   3.064   0.430   6.187  0.0417  0.2059 -0.3511
 2819Sol     OW14409   1.032   1.482   4.697  0.1198  0.2078  0.0271
 2819Sol     HW14410   0.961   1.541   4.724  0.6197 -0.1756  2.2810
 2819Sol     HW14411   0.987   1.405   4.663 -0.5580  0.3252  0.6409
 2819Sol     MW14412   1.021   1.480   4.696  0.2991  0.7301  0.5574
 2820Sol     OW14413   0.760   0.748   4.709 -0.2016  0.0630  0.4120
 2820Sol     HW14414   0.718   0.667   4.736  1.7254 -1.4891 -1.0828
 2820Sol     HW14415   0.813   0.724   4.633 -0.0778  2.8576 -0.4638
 2820Sol     MW14416   0.761   0.739   4.704  0.0580 -0.3994 -0.6065
 2821Sol     OW14417   2.599   0.700   7.900 -0.4990 -0.1651  0.0003
 2821Sol     HW14418   2.598   0.772   7.838 -0.8484 -0.2748 -0.1241
 2821Sol     HW14419   2.518   0.710   7.950  0.4563  0.7614  1.4105
 2821Sol     MW14420   2.592   0.707   7.899  0.2384  0.5446  0.3468
 2822Sol     OW14421   0.520   1.449   9.082  0.0054 -0.2656  0.6786
 2822Sol     HW14422   0.498   1.541   9.068 -3.1618 -1.1080 -0.1859
 2822Sol     HW14423   0.609   1.451   9.119  0.5184  3.0325 -0.5955
 2822Sol     MW14424   0.526   1.457   9.084  0.2024 -0.0414  0.4600
 2823Sol     OW14425   2.205   0.159   4.558 -0.4406  0.6435 -0.0141
 2823Sol     HW14426   2.232   0.159   4.650 -0.4640  1.2814 -0.0051
 2823Sol     HW14427   2.117   0.121   4.560 -0.0603 -0.2383  0.1100
 2823Sol     MW14428   2.199   0.156   4.567  0.5473  0.3926 -0.0979
 2824Sol     OW14429   1.977   0.176   5.504 -0.9381  0.6224  0.6074
 2824Sol     HW14430   2.049   0.165   5.567 -0.2366  0.6807 -0.1851
 2824Sol     HW14431   2.012   0.144   5.421 -1.1019  2.6578 -0.2603
 2824Sol     MW14432   1.987   0.172   5.502 -0.2245 -0.7907 -0.6895
 2825Sol     OW14433   2.164   3.046   4.302  0.2453  0.4738  0.3740
 2825Sol     HW14434   2.167   2.971   4.242  0.3557  1.0172 -0.3019
 2825Sol     HW14435   2.240   3.099   4.277 -0.8057  1.6871 -0.2950
 2825Sol     MW14436   2.171   3.044   4.294 -0.3835  0.0906  0.0614
 2826Sol     OW14437   0.785   2.758   9.380  0.0248  0.3185  0.2363
 2826Sol     HW14438   0.844   2.730   9.311 -1.3104 -1.2238 -0.2947
 2826Sol     HW14439   0.724   2.818   9.337  0.7550  1.3767  0.6423
 2826Sol     MW14440   0.785   2.761   9.370  0.1899 -0.7122  0.2417
 2827Sol     OW14441   0.331   0.560   8.954  0.0002  0.1918  0.4340
 2827Sol     HW14442   0.343   0.581   9.047  2.1456  3.4595 -0.4919
 2827Sol     HW14443   0.399   0.495   8.935  0.7997  0.9176  0.7546
 2827Sol     MW14444   0.338   0.556   8.961 -0.0852 -0.0261  0.2544
 2828Sol     OW14445   3.270   1.119   3.846  0.0327 -0.2682  0.2119
 2828Sol     HW14446   3.315   1.041   3.878  0.2151 -0.0109  0.5998
 2828Sol     HW14447   3.341   1.179   3.823 -0.1072 -0.1434  0.1080
 2828Sol     MW14448   3.280   1.117   3.847  0.7270 -0.3337 -0.1207
 2829Sol     OW14449   2.580   0.508   3.485  0.1138 -0.2949 -0.3496
 2829Sol     HW14450   2.579   0.429   3.431 -0.6535  0.9475 -2.1943
 2829Sol     HW14451   2.511   0.563   3.448  0.2469  0.9967  1.2939
 2829Sol     MW14452   2.574   0.506   3.477  0.1808  0.0052 -0.7344
 2830Sol     OW14453   3.144   1.262   8.786 -0.1286  0.2500  0.3665
 2830Sol     HW14454   3.074   1.247   8.723  0.7212 -1.1283 -0.2833
 2830Sol     HW14455   3.225   1.253   8.735  0.5738 -0.8423  1.6355
 2830Sol     MW14456   3.145   1.260   8.776  0.2630  0.4191  1.0157
 2831Sol     OW14457   0.125   1.343   5.546  0.4169 -0.3993 -0.0767
 2831Sol     HW14458   0.088   1.348   5.634 -0.7286 -0.8654 -0.5155
 2831Sol     HW14459   0.132   1.249   5.529 -1.7413 -0.3408 -1.4426
 2831Sol     MW14460   0.122   1.335   5.552  0.7570  0.2465 -0.0779
 2832Sol     OW14461   2.800   1.156   7.102 -0.4261  0.0885 -0.3628
 2832Sol     HW14462   2.716   1.110   7.105 -0.9940  1.1572  0.6275
 2832Sol     HW14463   2.865   1.088   7.085 -1.4752 -0.7762 -0.9425
 2832Sol     MW14464   2.798   1.146   7.101 -0.0881  0.5230 -0.3949
 2833Sol     OW14465   2.406   1.909   9.188 -0.8700  0.1702  0.6723
 2833Sol     HW14466   2.354   1.912   9.107 -0.2687  1.4535  0.3244
 2833Sol     HW14467   2.467   1.837   9.174 -1.5682 -0.3962  0.4822
 2833Sol     MW14468   2.407   1.903   9.180  0.6158 -0.7390  0.5669
 2834Sol     OW14469   0.843   1.651   4.817 -0.5840 -0.0422  0.0824
 2834Sol     HW14470   0.826   1.722   4.878  2.5342 -0.1202  1.1058
 2834Sol     HW14471   0.845   1.572   4.871  0.2721 -0.3615 -0.4114
 2834Sol     MW14472   0.841   1.650   4.827 -0.1972  0.7877 -0.5858
 2835Sol     OW14473   1.591   0.846   4.598  0.0027 -0.1378 -0.4359
 2835Sol     HW14474   1.641   0.927   4.601  1.1511 -0.8591  0.0959
 2835Sol     HW14475   1.533   0.850   4.674 -1.2163  0.9777 -1.3956
 2835Sol     MW14476   1.590   0.854   4.605 -0.4151 -0.0220  0.1024
 2836Sol     OW14477   0.382   2.359   3.284 -0.5184  0.3897 -0.4631
 2836Sol     HW14478   0.314   2.293   3.271 -0.0760 -0.2881  0.6387
 2836Sol     HW14479   0.385   2.373   3.378  1.9006 -0.6929 -0.3485
 2836Sol     MW14480   0.376   2.355   3.291 -0.3385  0.0677 -1.2232
 2837Sol     OW14481   2.071   1.528   3.913  0.4459  0.4296  0.4680
 2837Sol     HW14482   2.162   1.520   3.885 -0.0235  0.4605 -1.1123
 2837Sol     HW14483   2.071   1.501   4.005  1.8873 -0.4499  0.2129
 2837Sol     MW14484   2.079   1.525   3.919  0.0657 -0.7414  0.0097
 2838Sol     OW14485   1.570   3.061   9.693  0.1436  0.5142 -0.2739
 2838Sol     HW14486   1.516   3.002   9.639  0.6830 -1.7255  1.5732
 2838Sol     HW14487   1.507   3.102   9.753 -0.0734  1.0268 -0.8408
 2838Sol     MW14488   1.559   3.059   9.693 -0.5238  0.0581  0.4687
 2839Sol     OW14489   1.552   0.736   2.901 -0.1682  0.0770 -0.7550
 2839Sol     HW14490   1.581   0.656   2.857  0.0109 -0.0273 -0.4459
 2839Sol     HW14491   1.497   0.780   2.836 -0.6140 -0.5037 -0.7739
 2839Sol     MW14492   1.550   0.733   2.891  0.0094 -0.6485 -0.0049
 2840Sol     OW14493   2.585   1.330   9.655  0.2206  0.0413 -0.1734
 2840Sol     HW14494   2.615   1.416   9.684 -1.3202  0.6506 -0.3360
 2840Sol     HW14495   2.663   1.275   9.660  0.5425  0.6490  2.9709
 2840Sol     MW14496   2.595   1.333   9.658  0.3287  0.0138 -0.1988
 2841Sol     OW14497   0.351   1.026   5.775  0.2075 -0.4693  0.2501
 2841Sol     HW14498   0.433   1.047   5.730  0.0988  0.3960  0.4435
 2841Sol     HW14499   0.339   0.932   5.762 -0.2327 -0.0993 -2.1711
 2841Sol     MW14500   0.357   1.019   5.770  0.0630  0.1079 -0.1186
 2842Sol     OW14501   2.504   1.977   3.626  0.2961 -0.2075 -0.4851
 2842Sol     HW14502   2.540   1.897   3.587 -0.6025 -0.9001  0.1037
 2842Sol     HW14503   2.416   1.985   3.589 -0.4545 -0.6981  1.1492
 2842Sol     MW14504   2.499   1.971   3.619 -0.0066  0.2910  0.0158
 2843Sol     OW14505   1.274   1.399   8.616 -0.3615  0.9661 -0.2862
 2843Sol     HW14506   1.314   1.373   8.699  0.2083  0.8932 -0.5754
 2843Sol     HW14507   1.324   1.351   8.550  1.2352  3.3942 -0.9047
 2843Sol     MW14508   1.282   1.392   8.618  0.2630  0.2059  0.1791
 2844Sol     OW14509   0.781   0.045   5.098  0.0771  0.1196  0.3768
 2844Sol     HW14510   0.706   0.028   5.041 -0.0649 -0.9442  0.8695
 2844Sol     HW14511   0.853  -0.004   5.057  0.1935  0.0976  0.6088
 2844Sol     MW14512   0.781   0.039   5.089 -0.4310  0.1526 -0.1416
 2845Sol     OW14513   3.188   1.573   3.142 -0.2835 -0.2239 -0.3878
 2845Sol     HW14514   3.242   1.496   3.159 -0.5154 -0.3334 -0.1467
 2845Sol     HW14515   3.232   1.644   3.189 -0.4342 -0.3435 -0.0709
 2845Sol     MW14516   3.197   1.572   3.148 -0.1500 -0.5017 -0.1524
 2846Sol     OW14517   0.231   0.065   2.222  0.1188  0.3142  0.3106
 2846Sol     HW14518   0.260   0.106   2.303  2.0890  1.0891 -0.7666
 2846Sol     HW14519   0.232  -0.029   2.240 -0.0188  0.5104  1.3438
 2846Sol     MW14520   0.233   0.060   2.230 -0.5471 -0.3851  0.3711
 2847Sol     OW14521   1.344   0.853   4.165 -0.1315  0.0888 -0.4159
 2847Sol     HW14522   1.384   0.848   4.252 -1.4651 -1.7140  0.1405
 2847Sol     HW14523   1.278   0.922   4.172 -2.7592 -2.4752  1.1452
 2847Sol     MW14524   1.342   0.858   4.173  0.1349 -0.2580 -0.0234
 2848Sol     OW14525   1.292   0.543   4.820  0.2216 -0.2014 -0.1278
 2848Sol     HW14526   1.209   0.497   4.831 -0.2504  0.4592 -0.9107
 2848Sol     HW14527   1.292   0.610   4.888  0.5387 -0.8161  0.4805
 2848Sol     MW14528   1.285   0.545   4.827 -0.1734  0.3306  0.0524
 2849Sol     OW14529   1.184   1.993   4.868  0.1539  0.0702 -0.1143
 2849Sol     HW14530   1.268   2.007   4.912 -0.0101 -0.0038  0.2264
 2849Sol     HW14531   1.157   1.906   4.895 -0.5900  0.5520  0.7058
 2849Sol     MW14532   1.189   1.987   4.874  0.2319  0.8889 -0.0834
 2850Sol     OW14533   2.524   1.334   2.651  0.4328  0.0650 -0.3692
 2850Sol     HW14534   2.594   1.299   2.705  0.6333  0.8058 -0.1405
 2850Sol     HW14535   2.529   1.429   2.664  1.0963  0.3322 -2.4098
 2850Sol     MW14536   2.531   1.340   2.657  0.5518 -0.6422 -0.4499
 2851Sol     OW14537   2.260   0.097   6.299  0.4623 -0.5984 -0.1897
 2851Sol     HW14538   2.323   0.167   6.284 -2.0657  1.2946 -2.4005
 2851Sol     HW14539   2.274   0.037   6.225 -1.0657  0.4334 -1.3476
 2851Sol     MW14540   2.267   0.098   6.291  0.6263  0.4334 -0.1305
 2852Sol     OW14541   3.108   2.670   2.574 -0.2726  0.0321  0.0832
 2852Sol     HW14542   3.052   2.703   2.505  0.8688 -0.2978 -1.0112
 2852Sol     HW14543   3.174   2.617   2.529  0.2846 -0.4576  1.4395
 2852Sol     MW14544   3.109   2.668   2.564  0.2000  0.2350 -0.5378
 2853Sol     OW14545   1.936   1.162   6.218 -0.1075  0.1318 -0.1929
 2853Sol     HW14546   1.934   1.175   6.313 -0.9436 -2.6851  0.2181
 2853Sol     HW14547   2.020   1.200   6.191  0.9241 -0.5585  1.9181
 2853Sol     MW14548   1.943   1.167   6.224 -0.1438  0.2640  0.6876
 2854Sol     OW14549   1.480   3.188   4.614  0.0697  0.3352 -0.1933
 2854Sol     HW14550   1.422   3.170   4.687  0.6329 -1.6233 -0.1921
 2854Sol     HW14551   1.479   3.283   4.605 -2.1806  0.4104  0.5617
 2854Sol     MW14552   1.475   3.195   4.619 -0.3017 -0.3444  0.0808
 2855Sol     OW14553   0.764   3.113   9.902  0.1907  0.2659  0.3913
 2855Sol     HW14554   0.800   3.126   9.814 -2.5235  0.8677 -0.6849
 2855Sol     HW14555   0.730   3.024   9.902 -1.3054  0.8200  0.2416
 2855Sol     MW14556   0.764   3.107   9.894 -0.3153  0.0203  0.0170
 2856Sol     OW14557   0.965   3.111   7.320  0.0206 -0.0220  0.8533
 2856Sol     HW14558   1.010   3.149   7.396  0.6602  0.5612  0.1921
 2856Sol     HW14559   0.879   3.152   7.320  0.6488  1.3350  0.2395
 2856Sol     MW14560   0.962   3.118   7.327 -0.1942 -0.3909  0.3578
 2857Sol     OW14561   1.445   3.190   2.749  0.4341  0.0739 -0.0875
 2857Sol     HW14562   1.514   3.195   2.815 -0.2556 -0.1879  0.6712
 2857Sol     HW14563   1.429   3.096   2.738  1.4800  0.0624 -1.6329
 2857Sol     MW14564   1.449   3.182   2.754  0.0439  0.1707 -0.0090
 2858Sol     OW14565   2.119   0.042   5.909  0.3863 -0.1262 -0.2197
 2858Sol     HW14566   2.202   0.040   5.956  1.6424 -3.6838 -2.3850
 2858Sol     HW14567   2.066  -0.027   5.950 -0.1989 -0.1626 -1.0112
 2858Sol     MW14568   2.122   0.036   5.917  0.2364 -0.1271  0.0273
 2859Sol     OW14569   2.558   1.141   5.601 -0.0775 -0.4952 -0.3706
 2859Sol     HW14570   2.477   1.092   5.586 -0.7551 -0.7599  3.7937
 2859Sol     HW14571   2.623   1.074   5.624  0.3154  0.1176  0.3146
 2859Sol     MW14572   2.557   1.130   5.601 -0.2228 -0.7469 -0.0309
 2860Sol     OW14573   3.019   1.433   4.218  0.3924 -0.8997  0.3259
 2860Sol     HW14574   3.021   1.463   4.127 -0.7434 -1.4983  0.0886
 2860Sol     HW14575   3.042   1.511   4.269  1.4373 -0.6613 -0.4844
 2860Sol     MW14576   3.021   1.443   4.214 -0.1097 -0.3440 -0.3762
 2861Sol     OW14577   1.017   2.761   5.152  0.9178  0.1360 -0.1064
 2861Sol     HW14578   1.051   2.723   5.233  1.5631  0.7677 -0.0778
 2861Sol     HW14579   1.011   2.855   5.170 -0.5588  0.0803 -0.2156
 2861Sol     MW14580   1.020   2.766   5.161 -0.2711  0.1435 -0.2036
 2862Sol     OW14581   2.927   3.350   4.915  0.9310  0.1324 -0.2214
 2862Sol     HW14582   2.852   3.294   4.935  2.3486 -2.1434 -1.1321
 2862Sol     HW14583   2.974   3.357   4.999 -0.9508  2.6212  0.6627
 2862Sol     MW14584   2.925   3.346   4.925 -0.4233  0.2245 -0.1074
 2863Sol     OW14585   0.771   0.952   2.944 -0.0327 -0.1424 -0.3953
 2863Sol     HW14586   0.808   0.875   2.988  1.9225  0.8878 -0.1569
 2863Sol     HW14587   0.773   0.930   2.851  1.0663 -0.1634 -0.3716
 2863Sol     MW14588   0.775   0.943   2.939 -0.3027 -0.4609 -0.0065
 2864Sol     OW14589   2.380   2.351   5.804 -0.2118  0.0638  0.1651
 2864Sol     HW14590   2.285   2.363   5.807 -0.2778 -0.7212  1.5026
 2864Sol     HW14591   2.410   2.378   5.890  0.7676  0.1600 -0.2067
 2864Sol     MW14592   2.374   2.354   5.812  0.4721 -0.2063 -0.2510
 2865Sol     OW14593   2.096   2.360   7.878 -0.1014  0.1908 -0.4269
 2865Sol     HW14594   2.146   2.414   7.817 -2.5178  0.4000 -2.3045
 2865Sol     HW14595   2.045   2.423   7.929  1.8261  0.0074  1.7764
 2865Sol     MW14596   2.096   2.370   7.877 -0.1260 -0.0125  0.5210
 2866Sol     OW14597   1.672   3.265   2.092  0.1993 -0.3001 -0.3956
 2866Sol     HW14598   1.652   3.231   2.005 -1.8578  0.4384 -0.2274
 2866Sol     HW14599   1.599   3.238   2.147  0.8009  0.4136  0.7927
 2866Sol     MW14600   1.664   3.260   2.090 -0.5514  0.0603  0.0404
 2867Sol     OW14601   0.479   3.184   5.771  0.3832 -0.4052  0.8364
 2867Sol     HW14602   0.387   3.177   5.798 -0.0241  0.7237 -0.2057
 2867Sol     HW14603   0.476   3.189   5.675  1.6279 -1.5970  0.7114
 2867Sol     MW14604   0.471   3.184   5.765 -0.1616 -0.3080  0.4166
 2868Sol     OW14605   2.121   1.227   5.185  0.1975 -0.5472  0.3873
 2868Sol     HW14606   2.052   1.265   5.131 -0.2647  0.6314  1.7822
 2868Sol     HW14607   2.075   1.169   5.246  0.5939 -0.9125  0.3453
 2868Sol     MW14608   2.111   1.225   5.186  0.0311  0.5994  0.1597
 2869Sol     OW14609   2.648   2.981   6.385 -0.0782 -0.2610 -0.6455
 2869Sol     HW14610   2.596   3.016   6.457 -2.0860 -1.6238 -1.3486
 2869Sol     HW14611   2.721   2.936   6.426 -1.3457 -1.2493  0.5981
 2869Sol     MW14612   2.650   2.980   6.395 -0.4735 -0.4285 -0.2321
 2870Sol     OW14613   2.712   3.127   3.102 -0.2882 -0.5744 -0.5598
 2870Sol     HW14614   2.692   3.074   3.026 -1.7468 -1.7301  0.6016
 2870Sol     HW14615   2.647   3.198   3.099 -0.4750 -0.7338 -0.2866
 2870Sol     MW14616   2.704   3.129   3.095  0.2637  1.0724 -0.5490
 2871Sol     OW14617   3.294   3.081   6.580  0.3954  0.3457  0.1398
 2871Sol     HW14618   3.235   3.117   6.514  0.4637 -1.4234 -0.9202
 2871Sol     HW14619   3.235   3.047   6.648  0.1945 -0.7606 -0.5717
 2871Sol     MW14620   3.283   3.081   6.581 -0.0139  0.2556  0.3319
 2872Sol     OW14621   2.211   2.213   7.361  0.5890  0.2106 -0.1155
 2872Sol     HW14622   2.254   2.177   7.439  1.2113  1.6632  0.2243
 2872Sol     HW14623   2.278   2.207   7.292  0.2142 -0.5830 -0.4201
 2872Sol     MW14624   2.221   2.209   7.362  0.0324  0.6000 -0.2471
 2873Sol     OW14625   0.033   0.096   6.297  0.1530 -0.0743 -0.3920
 2873Sol     HW14626   0.087   0.174   6.298 -0.5147  0.3979 -0.4661
 2873Sol     HW14627   0.094   0.023   6.310  0.6463  0.5270  0.6449
 2873Sol     MW14628   0.043   0.096   6.298 -0.1807 -0.1524 -0.1619
 2874Sol     OW14629   1.387   1.276   2.792  0.0626 -0.2702 -0.4417
 2874Sol     HW14630   1.300   1.242   2.811 -0.5245  0.8166 -1.1528
 2874Sol     HW14631   1.372   1.353   2.737  1.3404  1.3412  1.3690
 2874Sol     MW14632   1.378   1.280   2.789  0.4212  0.0215  0.3973
 2875Sol     OW14633   0.171   1.621   6.950  0.3617 -0.4792  0.4500
 2875Sol     HW14634   0.222   1.578   6.881 -0.2270  0.3069 -0.5046
 2875Sol     HW14635   0.112   1.553   6.982  1.7190 -1.2813  1.2854
 2875Sol     MW14636   0.170   1.611   6.946  0.7236 -0.0175 -0.6824
 2876Sol     OW14637   0.912   2.222   2.700  0.3221 -0.1401  0.3034
 2876Sol     HW14638   0.994   2.267   2.721 -0.2382  0.0528  2.1012
 2876Sol     HW14639   0.932   2.129   2.712  0.3957 -0.1308  0.2588
 2876Sol     MW14640   0.922   2.218   2.703 -0.1756 -0.3745 -0.6114
 2877Sol     OW14641   2.854   1.624   6.279  0.4983 -1.0230 -0.1336
 2877Sol     HW14642   2.876   1.556   6.216 -1.2003 -1.5418 -0.1755
 2877Sol     HW14643   2.760   1.615   6.293  0.5087  0.3819  0.9568
 2877Sol     MW14644   2.848   1.617   6.275  0.1176  0.3557 -0.6367
 2878Sol     OW14645   0.367   2.843   8.811 -0.4927  0.1370 -0.2484
 2878Sol     HW14646   0.314   2.861   8.733 -1.0769  0.8475  0.3077
 2878Sol     HW14647   0.350   2.751   8.830 -0.7555  0.0990 -0.6585
 2878Sol     MW14648   0.360   2.836   8.806  0.1943 -0.0038 -0.4420
 2879Sol     OW14649   1.642   1.332   5.894 -0.2498  0.2929 -0.2374
 2879Sol     HW14650   1.668   1.374   5.812 -4.8440 -1.0767 -2.5635
 2879Sol     HW14651   1.649   1.238   5.877  1.3540 -0.0209  1.9185
 2879Sol     MW14652   1.645   1.328   5.885 -0.0642  0.1437  0.1645
 2880Sol     OW14653   1.702   1.716   5.911 -0.4907 -1.0425  0.2009
 2880Sol     HW14654   1.775   1.654   5.922 -0.3626 -0.6718  1.5259
 2880Sol     HW14655   1.742   1.791   5.867 -0.1851 -1.0725  0.4202
 2880Sol     MW14656   1.712   1.718   5.908 -0.1671 -0.1278  0.0725
 2881Sol     OW14657   0.495   0.429   3.825 -0.4167  0.5411  0.2293
 2881Sol     HW14658   0.577   0.445   3.778 -1.3587  1.0896 -1.2579
 2881Sol     HW14659   0.437   0.500   3.799 -1.7999 -0.5448  0.2343
 2881Sol     MW14660   0.497   0.437   3.818 -0.2716  0.2850 -0.3635
 2882Sol     OW14661   3.000   2.369   6.061 -0.0580 -0.0729  0.9585
 2882Sol     HW14662   2.978   2.456   6.094  0.6152 -0.4901  2.5109
 2882Sol     HW14663   2.989   2.376   5.966 -0.7912  1.4735  1.1515
 2882Sol     MW14664   2.997   2.377   6.055  0.3005 -0.1729  0.4535
 2883Sol     OW14665   0.112   2.899   2.147 -0.1184 -0.1146 -0.6023
 2883Sol     HW14666   0.047   2.830   2.138 -1.2075  0.8901 -0.5503
 2883Sol     HW14667   0.176   2.882   2.077 -0.4751 -1.0544 -0.6999
 2883Sol     MW14668   0.112   2.892   2.140  0.2404 -0.0912  0.4665
 2884Sol     OW14669   1.898   2.376   1.860 -0.0572 -0.6085  0.4103
 2884Sol     HW14670   1.991   2.392   1.840 -0.0608 -0.3543  0.5989
 2884Sol     HW14671   1.899   2.329   1.943 -0.1139 -0.2679  0.6044
 2884Sol     MW14672   1.907   2.373   1.865 -0.2631  0.2791  0.5227
 2885Sol     OW14673   1.735   1.791   7.177  0.1701  0.1913  0.3246
 2885Sol     HW14674   1.825   1.820   7.193  0.3527  0.1819 -0.6167
 2885Sol     HW14675   1.698   1.777   7.264  1.9918 -2.6282  0.7167
 2885Sol     MW14676   1.740   1.792   7.186 -0.1678  0.2807 -0.0167
 2886Sol     OW14677   3.160   1.240   1.980  0.0402  0.4753  0.1647
 2886Sol     HW14678   3.179   1.295   2.055  1.2197  1.5809 -0.9215
 2886Sol     HW14679   3.139   1.301   1.910 -2.6844 -0.5791 -0.0067
 2886Sol     MW14680   3.160   1.250   1.980 -0.2585 -0.2162 -0.1692
 2887Sol     OW14681   0.153   2.858   2.764 -0.5152 -0.0658  0.3416
 2887Sol     HW14682   0.151   2.954   2.773 -1.0940 -0.1014  0.6486
 2887Sol     HW14683   0.218   2.830   2.829  1.0393  0.2510 -1.0575
 2887Sol     MW14684   0.158   2.864   2.771 -0.1161  0.3718  0.0645
 2888Sol     OW14685   2.353   0.563   9.383  0.0528  0.0911  0.6134
 2888Sol     HW14686   2.333   0.523   9.299  2.5414 -0.0365  0.0232
 2888Sol     HW14687   2.286   0.531   9.442 -1.8772  0.3614 -1.3745
 2888Sol     MW14688   2.346   0.557   9.381 -0.1134  0.5074  0.6130
 2889Sol     OW14689   3.064   0.253   2.335  0.3392  0.0459  0.3995
 2889Sol     HW14690   3.053   0.318   2.265  0.9476  1.1714  1.3333
 2889Sol     HW14691   3.150   0.216   2.320  0.4313  0.2213  0.4865
 2889Sol     MW14692   3.071   0.256   2.327  0.2947 -0.3333 -0.3277
 2890Sol     OW14693   3.329   0.529   5.987 -0.2694 -0.0449  0.0068
 2890Sol     HW14694   3.316   0.435   5.970 -0.2917 -0.2102  0.9227
 2890Sol     HW14695   3.320   0.538   6.082  1.5559  0.5923  0.1444
 2890Sol     MW14696   3.327   0.521   5.994 -0.6706 -0.0351 -0.1674
 2891Sol     OW14697   2.037   0.977   8.686  0.4742  0.4391 -0.0652
 2891Sol     HW14698   2.037   1.072   8.678  0.2200  0.4101 -0.4256
 2891Sol     HW14699   2.129   0.954   8.698  0.2246  1.0034  3.4187
 2891Sol     MW14700   2.045   0.983   8.686 -0.2412  0.1302  0.3557
 2892Sol     OW14701   1.602   0.082   9.339  0.1662 -0.0484 -0.4974
 2892Sol     HW14702   1.655   0.014   9.299  1.5092 -0.0440  1.2305
 2892Sol     HW14703   1.556   0.038   9.410 -0.6363  0.4007 -0.7235
 2892Sol     MW14704   1.602   0.072   9.341 -0.4217  0.5936 -0.0652
 2893Sol     OW14705   0.061   0.036   8.272  0.2014 -0.1224 -0.1121
 2893Sol     HW14706   0.088   0.011   8.184 -1.4394  0.2205 -0.7232
 2893Sol     HW14707   0.117  -0.017   8.330  0.5613 -1.1230 -1.3474
 2893Sol     MW14708   0.069   0.029   8.269  0.1321 -0.3237  0.0665
 2894Sol     OW14709   3.321   1.171   2.519  0.6742  0.1437 -0.0025
 2894Sol     HW14710   3.409   1.202   2.500  1.0927 -0.2471  1.2732
 2894Sol     HW14711   3.300   1.112   2.447  1.0272  1.0685 -0.8732
 2894Sol     MW14712   3.327   1.169   2.511  0.1587  0.5351  0.0906
 2895Sol     OW14713   1.238   2.362   1.820 -0.1060  0.3970 -0.0676
 2895Sol     HW14714   1.284   2.361   1.904  2.2261 -0.5508 -1.3048
 2895Sol     HW14715   1.160   2.308   1.836  1.5200 -1.7828  0.8786
 2895Sol     MW14716   1.235   2.357   1.829 -0.1441  0.1124 -1.0468
 2896Sol     OW14717   0.308   0.171   8.040  0.1280  0.1296  0.2229
 2896Sol     HW14718   0.226   0.134   8.009 -0.3655  0.3850  1.2185
 2896Sol     HW14719   0.286   0.261   8.064  0.5472 -0.0082  1.1280
 2896Sol     MW14720   0.299   0.176   8.039  0.1655 -1.0171  0.0370
 2897Sol     OW14721   2.135   1.420   2.902 -0.3880 -0.6877  0.0640
 2897Sol     HW14722   2.045   1.392   2.915  0.4669 -2.8042  1.5771
 2897Sol     HW14723   2.157   1.392   2.813 -1.2675  0.0386 -0.3906
 2897Sol     MW14724   2.129   1.415   2.895  1.0254  0.1498  0.1698
 2898Sol     OW14725   1.274   2.910   3.841  0.2958  0.1416 -0.1932
 2898Sol     HW14726   1.333   2.857   3.894  0.0930 -0.1715 -0.2798
 2898Sol     HW14727   1.313   2.911   3.754 -0.8974 -1.8196 -0.7970
 2898Sol     MW14728   1.283   2.905   3.838 -0.0760  0.2397 -0.3715
 2899Sol     OW14729   3.173   2.540   5.634  0.3889  0.1820 -0.3506
 2899Sol     HW14730   3.203   2.553   5.544  0.5664 -0.4889 -0.3940
 2899Sol     HW14731   3.231   2.595   5.687 -0.3830  1.3783 -0.7410
 2899Sol     MW14732   3.181   2.546   5.631  0.1047 -0.0923  0.1713
 2900Sol     OW14733   2.461   1.086   4.372  0.5754  0.3649 -0.0375
 2900Sol     HW14734   2.427   1.165   4.415  1.7665  0.4164  0.8357
 2900Sol     HW14735   2.391   1.022   4.380 -1.1905  1.9051 -2.4789
 2900Sol     MW14736   2.452   1.088   4.376 -0.0507 -0.5520 -0.2229
 2901Sol     OW14737   1.231   0.625   5.126 -0.3471 -0.2320  0.2176
 2901Sol     HW14738   1.293   0.622   5.199  2.0179  0.3224 -1.6996
 2901Sol     HW14739   1.208   0.717   5.118 -0.1075 -0.2043 -0.1443
 2901Sol     MW14740   1.235   0.633   5.132 -0.7788 -0.5471  0.1969
 2902Sol     OW14741   2.763   0.335   6.660  0.5649  0.2912  0.5574
 2902Sol     HW14742   2.746   0.332   6.566  0.1947  1.4588  0.5804
 2902Sol     HW14743   2.762   0.243   6.688  1.2827 -0.1003 -0.6795
 2902Sol     MW14744   2.761   0.326   6.654  0.1065  0.0880 -0.6100
 2903Sol     OW14745   1.089   1.573   5.708 -0.3525  0.3026 -0.1676
 2903Sol     HW14746   1.017   1.566   5.771 -1.9148  1.4848 -1.7704
 2903Sol     HW14747   1.140   1.648   5.739 -2.4563  2.3816 -1.5534
 2903Sol     MW14748   1.087   1.579   5.716  0.3139  0.1755 -0.2453
 2904Sol     OW14749   0.219   0.068   4.464 -0.5350 -0.2699  0.0432
 2904Sol     HW14750   0.210   0.112   4.548  0.9339  2.7968 -1.3433
 2904Sol     HW14751   0.156   0.111   4.406 -0.7905 -1.6390 -0.7417
 2904Sol     MW14752   0.213   0.076   4.466  0.0362 -0.5303  0.2334
 2905Sol     OW14753   0.662   1.023   4.238 -0.2311  0.1057  0.2404
 2905Sol     HW14754   0.633   0.945   4.190  0.0898 -1.6549  2.7661
 2905Sol     HW14755   0.656   1.094   4.175  0.8914 -2.2227 -2.6139
 2905Sol     MW14756   0.659   1.022   4.228  0.1732  0.3160 -0.1992
 2906Sol     OW14757   1.067   0.118   2.254  0.0586  0.1724  1.2692
 2906Sol     HW14758   1.123   0.131   2.177 -0.4142  1.9335  1.2100
 2906Sol     HW14759   1.124   0.072   2.317  0.8474 -0.1276  0.3558
 2906Sol     MW14760   1.078   0.115   2.253 -0.1859  0.2417 -0.0850
 2907Sol     OW14761   1.556   3.204   7.275 -0.1780 -0.4536 -0.2905
 2907Sol     HW14762   1.585   3.291   7.303 -0.7411 -0.6062  0.7899
 2907Sol     HW14763   1.582   3.199   7.183  0.1452  0.7353 -0.2755
 2907Sol     MW14764   1.561   3.212   7.269 -0.6604 -0.4457  0.0997
 2908Sol     OW14765   1.871   1.380   2.898 -0.5042  0.3208 -0.3153
 2908Sol     HW14766   1.800   1.432   2.862 -0.3550 -0.1040 -1.2350
 2908Sol     HW14767   1.833   1.293   2.914  0.0022 -0.1610 -1.6099
 2908Sol     MW14768   1.862   1.377   2.896 -0.1280  0.0756  0.1342
 2909Sol     OW14769   1.831   2.906   2.887  0.2286  0.4766 -0.5458
 2909Sol     HW14770   1.886   2.853   2.829 -1.0862 -0.3982 -1.0310
 2909Sol     HW14771   1.879   2.908   2.970  1.6743  0.9448 -1.3743
 2909Sol     MW14772   1.840   2.901   2.889  0.1703 -0.9757  0.5473
 2910Sol     OW14773   2.275   0.879   6.074  0.1382  0.1783 -0.0425
 2910Sol     HW14774   2.354   0.880   6.128  0.4783 -0.8008 -0.5003
 2910Sol     HW14775   2.304   0.840   5.991  0.0976  3.4660 -1.6755
 2910Sol     MW14776   2.285   0.876   6.071 -0.9268  0.3592  0.1890
 2911Sol     OW14777   0.699   2.145   8.498  0.1214  0.9619 -0.0756
 2911Sol     HW14778   0.617   2.133   8.450  1.5590  1.2941 -2.6867
 2911Sol     HW14779   0.728   2.233   8.473  3.4103 -0.7477 -2.5485
 2911Sol     MW14780   0.694   2.152   8.491  0.6763 -0.5503 -0.1031
 2912Sol     OW14781   2.223   3.233   2.820 -0.0264 -0.7030  0.9176
 2912Sol     HW14782   2.161   3.226   2.893  1.9504 -0.3657  2.6649
 2912Sol     HW14783   2.169   3.261   2.746 -1.7654  0.9894  2.7449
 2912Sol     MW14784   2.212   3.235   2.820 -0.6343  0.0571  0.3064
 2913Sol     OW14785   3.285   0.237   8.995 -0.2090  0.4256 -0.5094
 2913Sol     HW14786   3.206   0.223   8.942  0.6198  0.8164 -1.8800
 2913Sol     HW14787   3.330   0.310   8.952  0.5707  0.6325  0.6488
 2913Sol     MW14788   3.282   0.242   8.986  0.2491 -0.7128  0.1108
 2914Sol     OW14789   1.038   3.174   7.601  0.2647 -0.2537 -0.3847
 2914Sol     HW14790   1.022   3.117   7.676  1.5963 -0.9962 -0.6560
 2914Sol     HW14791   0.958   3.226   7.593 -0.1748 -0.6824  1.0909
 2914Sol     MW14792   1.029   3.174   7.607  0.3129 -0.1970 -0.3032
 2915Sol     OW14793   3.148   2.123   4.825  0.2415 -0.1389  0.3898
 2915Sol     HW14794   3.201   2.140   4.903  0.1812  0.2841  0.3417
 2915Sol     HW14795   3.065   2.088   4.860  0.1975  0.0896  0.5213
 2915Sol     MW14796   3.145   2.121   4.835 -0.6261  0.1893  1.1728
 2916Sol     OW14797   1.059   0.113   9.729  0.1153  0.2504  0.2052
 2916Sol     HW14798   1.147   0.078   9.740  0.3068  0.7035  0.1186
 2916Sol     HW14799   1.026   0.125   9.818  1.1368  2.5920  0.3043
 2916Sol     MW14800   1.064   0.111   9.738 -0.1230 -0.6700 -0.0502
 2917Sol     OW14801   1.495   0.497   5.975  0.3056  0.0554  0.2253
 2917Sol     HW14802   1.549   0.575   5.958 -0.3883  0.7209  1.0339
 2917Sol     HW14803   1.410   0.518   5.935  0.7506 -1.1576 -1.4159
 2917Sol     MW14804   1.492   0.506   5.970 -0.1429  0.3878  0.2690
 2918Sol     OW14805   1.722   0.530   4.028 -0.4103 -0.1667 -0.1733
 2918Sol     HW14806   1.654   0.533   3.961 -0.8581 -0.7418  0.2465
 2918Sol     HW14807   1.755   0.441   4.025  0.7646  0.2766 -0.7904
 2918Sol     MW14808   1.719   0.523   4.022 -0.0948 -0.5011  0.0872
 2919Sol     OW14809   0.575   3.255   7.619 -0.5406 -0.5848  0.1492
 2919Sol     HW14810   0.627   3.335   7.612  0.1652 -1.1327 -0.9424
 2919Sol     HW14811   0.543   3.255   7.709 -1.4173  1.4647 -0.1480
 2919Sol     MW14812   0.577   3.262   7.627 -0.3081 -0.7292  0.3015
 2920Sol     OW14813   0.187   3.431   2.780  0.4234 -0.1049 -0.4643
 2920Sol     HW14814   0.097   3.401   2.788  0.7319 -1.2883 -1.4096
 2920Sol     HW14815   0.206   3.473   2.865 -0.8866 -0.1449 -0.1425
 2920Sol     MW14816   0.181   3.432   2.789  0.0710 -0.3468  0.3246
 2921Sol     OW14817   2.715   2.113   2.755  0.2399  0.6380 -0.1632
 2921Sol     HW14818   2.642   2.170   2.733 -0.8348 -0.8805 -0.6282
 2921Sol     HW14819   2.684   2.060   2.828  0.4623 -0.7290 -1.0212
 2921Sol     MW14820   2.706   2.113   2.759 -0.2838  0.2287  0.1492
 2922Sol     OW14821   0.354   0.937   3.174 -0.6160  0.6277  0.2053
 2922Sol     HW14822   0.307   0.855   3.190 -0.4061  0.6121  0.7566
 2922Sol     HW14823   0.392   0.926   3.087  1.1702 -0.7086  1.1376
 2922Sol     MW14824   0.353   0.929   3.168  0.1045 -0.1432 -0.1211
 2923Sol     OW14825   0.522   0.613   6.891 -0.4438 -0.1772 -0.2366
 2923Sol     HW14826   0.476   0.648   6.814  0.7991  1.3223 -0.2984
 2923Sol     HW14827   0.487   0.662   6.965  1.1937  1.1325 -0.3085
 2923Sol     MW14828   0.515   0.620   6.891  0.1568 -0.4231 -0.3286
 2924Sol     OW14829   3.115   1.720   2.909 -0.1815  0.9331  0.3310
 2924Sol     HW14830   3.025   1.736   2.884 -0.2628 -0.5008 -0.3523
 2924Sol     HW14831   3.111   1.706   3.004 -0.7838  0.2160  0.2060
 2924Sol     MW14832   3.107   1.720   2.916 -0.2405 -0.0928 -0.1982
 2925Sol     OW14833   0.166   0.808   7.571 -0.1825 -0.4893  0.6724
 2925Sol     HW14834   0.182   0.828   7.479 -0.0980  1.3360  1.0570
 2925Sol     HW14835   0.249   0.773   7.603 -0.1461 -0.9186  0.1207
 2925Sol     MW14836   0.175   0.807   7.565  0.3674 -0.0258 -0.3153
 2926Sol     OW14837   2.558   3.113   8.475  0.5995 -0.1271 -0.0557
 2926Sol     HW14838   2.654   3.104   8.469  0.8161 -0.4553  3.2361
 2926Sol     HW14839   2.524   3.031   8.437  1.7171 -1.2229  1.2474
 2926Sol     MW14840   2.564   3.105   8.471 -0.4496  0.2113 -0.0495
 2927Sol     OW14841   2.659   0.622   9.385 -0.6161  0.0724 -0.2580
 2927Sol     HW14842   2.579   0.662   9.351  0.1542  2.2341  0.3599
 2927Sol     HW14843   2.712   0.604   9.308 -0.5655  1.1966 -0.4947
 2927Sol     MW14844   2.656   0.624   9.375 -0.1408  0.0809  0.1118
 2928Sol     OW14845   1.668   2.645   5.877  0.3710 -0.0409 -0.5828
 2928Sol     HW14846   1.654   2.570   5.820  0.7709  0.5308 -1.4278
 2928Sol     HW14847   1.736   2.696   5.835  0.6792  0.3849  0.4082
 2928Sol     MW14848   1.673   2.643   5.868  0.6717  0.3316  0.1172
 2929Sol     OW14849   2.101   0.554   5.577  0.2662  0.3636  0.9258
 2929Sol     HW14850   2.177   0.501   5.553 -0.2011  0.5510 -1.0578
 2929Sol     HW14851   2.025   0.503   5.549 -0.1903  2.0223 -0.9997
 2929Sol     MW14852   2.101   0.545   5.572  0.3260 -0.2958  0.3562
 2930Sol     OW14853   1.129   0.748   5.572  0.3839  0.6385  0.0070
 2930Sol     HW14854   1.060   0.794   5.524 -2.2163 -1.4670  1.5787
 2930Sol     HW14855   1.198   0.735   5.508 -1.9543  0.1018 -2.5100
 2930Sol     MW14856   1.129   0.751   5.562 -0.2470 -0.1263  0.2578
 2931Sol     OW14857   0.478   3.018   3.150  0.8851  0.3904  0.1956
 2931Sol     HW14858   0.385   3.041   3.152  0.8608  0.5768 -1.9314
 2931Sol     HW14859   0.481   2.931   3.109  1.7431  0.9542 -0.9643
 2931Sol     MW14860   0.470   3.012   3.147 -0.5512  0.1484  0.2888
 2932Sol     OW14861   1.234   0.104   2.017  0.2146 -0.0634 -0.3000
 2932Sol     HW14862   1.327   0.097   1.994  0.7924 -0.5603  2.0011
 2932Sol     HW14863   1.203   0.181   1.970  1.8850  0.2692 -0.8848
 2932Sol     MW14864   1.239   0.110   2.011  0.3314  0.4100  0.0388
 2933Sol     OW14865   2.637   2.934   2.941  0.0338  0.4446 -0.3324
 2933Sol     HW14866   2.572   2.878   2.983 -1.1435  1.4764 -0.7659
 2933Sol     HW14867   2.658   2.888   2.859  0.1096 -0.0669 -0.0248
 2933Sol     MW14868   2.633   2.925   2.937  0.2461 -0.1525  0.1264
 2934Sol     OW14869   1.931   2.598   7.440 -0.2949  0.0178  0.3393
 2934Sol     HW14870   1.946   2.591   7.346  0.6299 -1.1067  0.5714
 2934Sol     HW14871   1.860   2.663   7.448  0.8318  1.4391 -1.0163
 2934Sol     MW14872   1.926   2.603   7.433  0.3471 -0.4981  0.1493
 2935Sol     OW14873   2.610   1.410   4.958 -0.2166 -0.0575  0.5402
 2935Sol     HW14874   2.627   1.504   4.957  0.7872 -0.1990  2.2697
 2935Sol     HW14875   2.587   1.390   5.049  0.9362 -1.7059  0.5053
 2935Sol     MW14876   2.610   1.416   4.966  0.2546 -0.5894  0.3693
 2936Sol     OW14877   1.747   1.605   9.329 -0.5369 -0.5556 -0.3313
 2936Sol     HW14878   1.827   1.598   9.381 -0.2101 -1.8998 -0.9771
 2936Sol     HW14879   1.677   1.581   9.390 -0.3350 -0.4657 -0.0596
 2936Sol     MW14880   1.748   1.602   9.339  0.2586  0.5893  0.2086
 2937Sol     OW14881   0.680   1.245   5.674  0.0047 -0.2754  0.0879
 2937Sol     HW14882   0.766   1.247   5.632 -0.3909  0.0287 -0.7186
 2937Sol     HW14883   0.629   1.184   5.621 -1.1422  1.7303 -1.1790
 2937Sol     MW14884   0.683   1.240   5.665 -0.4020  0.0900 -0.3298
 2938Sol     OW14885   1.081   0.278   9.521  0.2568 -0.4994 -0.6916
 2938Sol     HW14886   1.080   0.220   9.597  0.3198 -0.3313 -0.5610
 2938Sol     HW14887   0.996   0.265   9.479  0.4002 -0.9250 -0.8465
 2938Sol     MW14888   1.073   0.272   9.524  0.0310 -0.0034  0.1497
 2939Sol     OW14889   0.896   0.907   7.685  0.0690  0.2058  0.6492
 2939Sol     HW14890   0.899   0.917   7.780 -0.1954  1.4725  0.5317
 2939Sol     HW14891   0.859   0.820   7.671 -1.4235  0.6597  1.6989
 2939Sol     MW14892   0.893   0.900   7.692  0.3802  0.0247 -0.2611
 2940Sol     OW14893   0.859   0.639   3.718  0.1974  0.1831  0.2917
 2940Sol     HW14894   0.809   0.714   3.751  1.4667  1.0228  0.3663
 2940Sol     HW14895   0.896   0.670   3.636 -0.2559 -0.7855 -0.2806
 2940Sol     MW14896   0.858   0.649   3.714 -0.1900 -0.0713 -0.1300
 2941Sol     OW14897   1.857   0.290   2.985 -0.0277  0.1044  0.4667
 2941Sol     HW14898   1.773   0.333   2.971 -0.0721  0.1481  0.8779
 2941Sol     HW14899   1.862   0.225   2.915  0.8666  2.0235 -1.3168
 2941Sol     MW14900   1.850   0.288   2.977 -0.2326  0.1890 -0.2434
 2942Sol     OW14901   0.687   1.156   2.554 -0.1240 -0.8423  0.6171
 2942Sol     HW14902   0.746   1.084   2.576 -0.9171 -1.8459 -0.4514
 2942Sol     HW14903   0.642   1.126   2.474  0.1021  1.1631 -0.2945
 2942Sol     MW14904   0.688   1.147   2.548  0.0881  0.0127  0.0192
 2943Sol     OW14905   2.883   2.027   7.188 -0.3431 -0.1459  0.3141
 2943Sol     HW14906   2.976   2.047   7.202  0.8669 -2.6864 -3.3539
 2943Sol     HW14907   2.870   1.942   7.231 -0.7180 -0.2421  0.0150
 2943Sol     MW14908   2.890   2.021   7.193 -0.1889 -0.2967  0.3810
 2944Sol     OW14909   1.267   0.558   6.352 -0.1492 -0.0244  0.0855
 2944Sol     HW14910   1.211   0.482   6.363 -1.2994  0.8866  0.7356
 2944Sol     HW14911   1.245   0.592   6.264 -1.1632  0.7360  0.6140
 2944Sol     MW14912   1.260   0.555   6.345 -0.0683 -0.3965 -0.2232
 2945Sol     OW14913   1.230   0.813   7.289 -0.2139  0.1582 -0.4118
 2945Sol     HW14914   1.182   0.857   7.360  1.4457 -0.6647  1.2334
 2945Sol     HW14915   1.254   0.884   7.230 -2.9094  0.6697 -0.9573
 2945Sol     MW14916   1.228   0.824   7.290 -0.4783 -0.0975  0.6592
 2946Sol     OW14917   2.137   0.647   6.242 -0.1148 -0.5638  0.5478
 2946Sol     HW14918   2.047   0.668   6.265  0.2052  0.0819  1.2459
 2946Sol     HW14919   2.174   0.729   6.211  0.4170 -0.6828  0.8634
 2946Sol     MW14920   2.132   0.656   6.241  0.8409  0.4635  0.8085
 2947Sol     OW14921   2.758   1.010   3.417 -0.1854 -0.4788  0.6046
 2947Sol     HW14922   2.784   0.964   3.337  1.0161  1.0887  0.0367
 2947Sol     HW14923   2.755   0.943   3.484 -0.1224 -1.6486 -0.5389
 2947Sol     MW14924   2.760   1.000   3.416 -0.5125 -0.1499  0.0230
 2948Sol     OW14925   1.745   1.095   2.040  0.4017 -0.6065  0.3845
 2948Sol     HW14926   1.840   1.086   2.033  0.1314 -3.8113  0.1278
 2948Sol     HW14927   1.731   1.141   2.123  2.1576 -0.4802  0.6239
 2948Sol     MW14928   1.752   1.098   2.047 -0.2105  0.2301  0.2975
 2949Sol     OW14929   0.317   2.173   5.302  0.1880 -0.0606 -0.4242
 2949Sol     HW14930   0.239   2.192   5.355  0.4579  0.2458 -0.1387
 2949Sol     HW14931   0.322   2.246   5.240 -0.7287 -0.9490 -1.5743
 2949Sol     MW14932   0.310   2.181   5.301 -0.7327  0.5770  0.2589
 2950Sol     OW14933   2.113   2.322   3.932  0.1546  0.2185 -0.2579
 2950Sol     HW14934   2.157   2.263   3.993  1.5412  1.1995 -0.2721
 2950Sol     HW14935   2.077   2.265   3.864  0.7288 -0.6650  0.1772
 2950Sol     MW14936   2.114   2.312   3.931 -0.2713  0.0834  0.8234
 2951Sol     OW14937   2.473   2.224   5.601 -0.0851 -0.1313 -0.5006
 2951Sol     HW14938   2.435   2.270   5.676  1.4645  2.0405 -0.9726
 2951Sol     HW14939   2.418   2.250   5.527 -0.0707 -0.1800 -0.5275
 2951Sol     MW14940   2.465   2.231   5.601 -0.3560  0.6119  0.1461
 2952Sol     OW14941   1.845   2.643   8.268 -0.1668  0.3725  0.1763
 2952Sol     HW14942   1.867   2.606   8.182 -0.0325 -1.9771  1.1885
 2952Sol     HW14943   1.809   2.730   8.248  2.8498  1.2287 -2.0359
 2952Sol     MW14944   1.844   2.648   8.258  0.1596 -0.2332  0.1679
 2953Sol     OW14945   0.576   1.431   5.840  0.5899 -0.6959  0.0054
 2953Sol     HW14946   0.513   1.480   5.788 -0.7972  0.3099  2.5190
 2953Sol     HW14947   0.620   1.373   5.778 -1.8507 -0.4329 -2.0183
 2953Sol     MW14948   0.574   1.430   5.830  0.2796 -0.3948 -0.1008
 2954Sol     OW14949   0.286   0.769   5.737 -0.3913  0.0957 -0.2167
 2954Sol     HW14950   0.199   0.794   5.705 -1.0350  1.3774  2.4044
 2954Sol     HW14951   0.268   0.715   5.814  1.1398 -1.1305 -0.7035
 2954Sol     MW14952   0.276   0.766   5.741 -0.6619 -0.2611 -0.0755
 2955Sol     OW14953   2.254   0.911   2.438 -0.4304 -0.0192 -0.2619
 2955Sol     HW14954   2.181   0.856   2.410 -1.0892  0.7278 -0.0213
 2955Sol     HW14955   2.327   0.883   2.383 -0.8687 -0.8413 -0.4313
 2955Sol     MW14956   2.254   0.904   2.430  0.0049  0.2043  0.2571
 2956Sol     OW14957   2.285   2.634   9.019 -0.3725  0.1178  0.0634
 2956Sol     HW14958   2.225   2.675   8.956 -0.9667 -0.9782 -0.0898
 2956Sol     HW14959   2.337   2.573   8.966  1.6368  1.8339 -0.0076
 2956Sol     MW14960   2.285   2.632   9.008 -0.1918 -0.3322 -0.1050
 2957Sol     OW14961   1.016   0.211   3.417 -0.3953 -0.6058 -0.1002
 2957Sol     HW14962   1.089   0.237   3.361  0.1644  0.4084  1.0800
 2957Sol     HW14963   1.021   0.269   3.493 -2.0813 -0.9066  0.2818
 2957Sol     MW14964   1.023   0.218   3.419 -0.2283  0.0096 -0.1192
 2958Sol     OW14965   3.027   1.065   4.957  0.1419 -0.7016  0.1395
 2958Sol     HW14966   3.103   1.046   4.902  0.3767 -2.1251  0.9380
 2958Sol     HW14967   2.952   1.057   4.897  0.5805  0.5433 -0.6083
 2958Sol     MW14968   3.027   1.063   4.947 -0.4268 -0.4426  0.2712
 2959Sol     OW14969   1.204   2.667   1.487 -0.0120  0.4250 -0.1783
 2959Sol     HW14970   1.276   2.607   1.469  0.6894  0.2721  2.8523
 2959Sol     HW14971   1.247   2.748   1.515 -1.0024  1.2309 -0.9407
 2959Sol     MW14972   1.214   2.669   1.488 -0.4154 -0.3140  0.2411
 2960Sol     OW14973   2.927   2.629   6.222  0.1303 -0.1371  0.2251
 2960Sol     HW14974   2.843   2.587   6.240  0.4373 -0.7022  0.3531
 2960Sol     HW14975   2.904   2.708   6.174 -0.5204  0.0428  0.8138
 2960Sol     MW14976   2.917   2.632   6.220  0.4159 -0.1226  0.1720
 2961Sol     OW14977   0.503   0.014   3.768 -0.7104  0.3568  0.0199
 2961Sol     HW14978   0.433   0.071   3.799 -1.6898 -0.1584 -1.2042
 2961Sol     HW14979   0.458  -0.062   3.732  0.5146 -0.3748  0.0000
 2961Sol     MW14980   0.493   0.012   3.768 -0.4468  0.2188  0.2409
 2962Sol     OW14981   3.048   2.603   4.687 -0.3558 -0.2318  0.2352
 2962Sol     HW14982   3.061   2.511   4.666  0.4752 -0.3583  1.2632
 2962Sol     HW14983   3.134   2.643   4.675 -0.3478  0.0933  1.3236
 2962Sol     MW14984   3.057   2.598   4.684  0.2433  0.2022 -0.1147
 2963Sol     OW14985   1.297   3.126   8.674  0.0398  0.0170 -0.1165
 2963Sol     HW14986   1.344   3.066   8.731 -0.6871  0.0458  0.5148
 2963Sol     HW14987   1.236   3.071   8.625 -0.9430  0.2986  0.7877
 2963Sol     MW14988   1.296   3.116   8.674 -0.3411  0.8405  0.3043
 2964Sol     OW14989   0.887   2.789   8.242 -0.2039 -0.2398  0.5648
 2964Sol     HW14990   0.830   2.809   8.316 -1.4791 -0.8544 -0.2264
 2964Sol     HW14991   0.926   2.704   8.264 -0.0062 -0.0666  0.8747
 2964Sol     MW14992   0.885   2.783   8.250 -0.5241  0.2317 -0.0693
 2965Sol     OW14993   0.622   0.444   8.514  0.6465  0.4727  0.5267
 2965Sol     HW14994   0.551   0.391   8.479  0.2207 -0.1780  2.3447
 2965Sol     HW14995   0.697   0.424   8.458  0.0033 -0.6032  0.0353
 2965Sol     MW14996   0.623   0.438   8.506  0.4059  0.5273 -0.1470
 2966Sol     OW14997   1.809   0.835   6.876  0.0786  0.2657 -0.7388
 2966Sol     HW14998   1.778   0.873   6.958 -0.2198 -0.9258 -0.2920
 2966Sol     HW14999   1.883   0.781   6.901 -0.2904 -0.4597 -1.1871
 2966Sol     MW15000   1.813   0.834   6.885  0.4722 -0.2841  0.4015
 2967Sol     OW15001   0.930   2.264   5.071 -0.2371  0.2505 -0.3526
 2967Sol     HW15002   0.996   2.267   5.001  1.0066 -0.5124  0.7619
 2967Sol     HW15003   0.880   2.344   5.060 -0.0605  0.1327 -2.1326
 2967Sol     MW15004   0.932   2.271   5.064 -0.1547 -0.4851 -0.1000
 2968Sol     OW15005   0.268   1.556   3.760  0.0269 -0.6031  0.1274
 2968Sol     HW15006   0.309   1.615   3.824  0.2919 -0.0393 -0.5530
 2968Sol     HW15007   0.259   1.473   3.807  0.6094 -0.3205  0.7618
 2968Sol     MW15008   0.271   1.554   3.770 -0.2836  0.1318 -0.1330
 2969Sol     OW15009   0.886   1.557   4.392 -0.4429 -0.0399  0.1744
 2969Sol     HW15010   0.975   1.546   4.359  0.3383  0.1156  2.1665
 2969Sol     HW15011   0.887   1.642   4.435 -2.5179  1.5412 -2.6728
 2969Sol     MW15012   0.894   1.563   4.392  0.1046 -0.0882  0.4822
 2970Sol     OW15013   0.172   2.141   8.067 -0.5924 -0.1237  0.1786
 2970Sol     HW15014   0.076   2.138   8.067 -0.6090  0.3108 -0.4698
 2970Sol     HW15015   0.199   2.055   8.097 -1.1852 -0.4175 -0.1325
 2970Sol     MW15016   0.166   2.133   8.070  0.2795  0.3996  0.4058
 2971Sol     OW15017   1.679   1.625   3.265 -0.5474 -0.2774 -0.3976
 2971Sol     HW15018   1.665   1.718   3.245 -1.3805 -0.2326  0.3443
 2971Sol     HW15019   1.626   1.610   3.344 -1.7251 -1.7802 -1.4407
 2971Sol     MW15020   1.673   1.632   3.271 -0.4177  0.0631 -0.5141
 2972Sol     OW15021   0.165   0.869   2.138  0.1292  0.0778 -0.1581
 2972Sol     HW15022   0.213   0.914   2.068 -1.1513 -0.2680 -1.2884
 2972Sol     HW15023   0.135   0.788   2.097  1.0771 -1.0800  1.4081
 2972Sol     MW15024   0.167   0.866   2.128 -0.3128  0.0813 -0.0245
 2973Sol     OW15025   1.412   0.882   4.779  0.0042 -0.4600 -0.2933
 2973Sol     HW15026   1.341   0.911   4.721  0.0084  0.6210  0.2266
 2973Sol     HW15027   1.431   0.959   4.832  0.6869 -1.1496  0.4537
 2973Sol     MW15028   1.407   0.892   4.778 -0.0184 -0.5006  0.0520
 2974Sol     OW15029   1.467   0.172   8.142  0.1184  0.1258 -0.2084
 2974Sol     HW15030   1.542   0.163   8.201 -0.6747 -3.8577  0.3644
 2974Sol     HW15031   1.392   0.187   8.200 -0.3774 -1.9121 -0.2787
 2974Sol     MW15032   1.467   0.172   8.153  0.5126  0.3993 -0.4175
 2975Sol     OW15033   1.724   2.436   8.658 -0.4419 -0.1445 -0.2950
 2975Sol     HW15034   1.655   2.382   8.619  0.9439 -2.1303 -0.0930
 2975Sol     HW15035   1.805   2.405   8.617  0.7974 -0.7831  2.4826
 2975Sol     MW15036   1.725   2.428   8.651 -0.6086 -0.2035 -0.0019
 2976Sol     OW15037   1.218   0.161   7.961 -0.3568  0.5612 -0.1303
 2976Sol     HW15038   1.286   0.105   7.999  0.3696  0.3421 -1.7119
 2976Sol     HW15039   1.254   0.187   7.876 -2.3955  0.1862 -1.1216
 2976Sol     MW15040   1.227   0.158   7.957  0.7802 -0.3066  0.0876
 2977Sol     OW15041   0.185   2.397   4.645 -0.7355  0.9411 -0.5386
 2977Sol     HW15042   0.133   2.399   4.725  0.2512  1.1813  0.1038
 2977Sol     HW15043   0.234   2.480   4.646  0.1171  0.4468 -0.8150
 2977Sol     MW15044   0.185   2.405   4.652 -0.0015  0.4854 -0.3253
 2978Sol     OW15045   0.544   1.628   3.212 -0.5973  0.3290 -0.0174
 2978Sol     HW15046   0.483   1.700   3.197 -2.3314 -0.8582  1.2180
 2978Sol     HW15047   0.552   1.622   3.307 -0.1604 -0.8617 -0.1182
 2978Sol     MW15048   0.539   1.634   3.219  0.0158 -0.3032 -0.0751
 2979Sol     OW15049   0.632   0.877   1.681 -0.4187  0.8885 -0.2717
 2979Sol     HW15050   0.665   0.787   1.673  0.3406  1.2980 -2.0447
 2979Sol     HW15051   0.539   0.871   1.658 -0.7109  0.3405  1.0090
 2979Sol     MW15052   0.627   0.869   1.678  0.2790  0.5153 -0.0716
 2980Sol     OW15053   0.756   0.949   6.930 -0.3649  0.7050 -0.5438
 2980Sol     HW15054   0.736   0.920   7.019  1.3587  1.5147  0.1208
 2980Sol     HW15055   0.765   0.868   6.880 -0.4469  0.2165  0.2153
 2980Sol     MW15056   0.755   0.939   6.934 -0.1864  0.4966  0.5626
 2981Sol     OW15057   2.289   2.775   3.757  0.0052 -0.1207  0.1524
 2981Sol     HW15058   2.359   2.795   3.696 -0.3330  1.8255  0.3742
 2981Sol     HW15059   2.210   2.775   3.703 -0.0364 -0.5387  0.2128
 2981Sol     MW15060   2.288   2.777   3.747  0.3686  0.2277  0.0182
 2982Sol     OW15061   1.318   1.101   7.185  0.3795  0.6176 -0.3000
 2982Sol     HW15062   1.351   1.084   7.273  2.3108  1.6500 -0.7950
 2982Sol     HW15063   1.261   1.178   7.195  1.9539  1.7923 -0.2162
 2982Sol     MW15064   1.316   1.107   7.194 -0.2928 -0.2521  0.5636
 2983Sol     OW15065   0.962   1.223   5.648  0.4870 -0.1025  0.4390
 2983Sol     HW15066   1.034   1.274   5.612  0.4802 -0.5687 -0.2492
 2983Sol     HW15067   0.949   1.258   5.736  1.5092  0.0301  0.5468
 2983Sol     MW15068   0.967   1.230   5.653  0.5083 -0.2158  0.0611
 2984Sol     OW15069   2.477   2.895   6.872  0.0195  0.3404 -0.3953
 2984Sol     HW15070   2.493   2.949   6.950 -0.7182  0.3793 -0.2707
 2984Sol     HW15071   2.444   2.812   6.906 -0.7355  0.5176 -0.6832
 2984Sol     MW15072   2.476   2.893   6.882 -0.1840 -0.4441 -0.1735
 2985Sol     OW15073   0.812   1.791   9.559  0.0824  0.1004 -0.1094
 2985Sol     HW15074   0.770   1.725   9.503 -1.0669  1.4064 -0.8195
 2985Sol     HW15075   0.879   1.831   9.503  1.3802 -1.0468  0.5968
 2985Sol     MW15076   0.814   1.789   9.549 -0.2442  0.1148 -0.3574
 2986Sol     OW15077   1.013   1.003   6.970  0.0912  0.3793 -0.4889
 2986Sol     HW15078   1.047   0.927   7.017 -0.2539 -0.6326 -1.8457
 2986Sol     HW15079   0.919   0.988   6.965 -0.0244  1.0867 -0.4227
 2986Sol     MW15080   1.008   0.995   6.974 -0.0644 -0.1162 -0.7400
 2987Sol     OW15081   1.341   0.370   9.435 -0.3529  0.4730 -0.3064
 2987Sol     HW15082   1.256   0.331   9.455 -0.2207  0.8076  0.9484
 2987Sol     HW15083   1.320   0.449   9.385 -0.7705  0.4604 -0.1522
 2987Sol     MW15084   1.331   0.373   9.432 -0.0068 -0.6801 -0.3405
 2988Sol     OW15085   1.670   1.986   5.403 -0.6779  0.4895  0.1915
 2988Sol     HW15086   1.681   1.948   5.315 -1.0252  0.7644  0.0279
 2988Sol     HW15087   1.649   1.911   5.459  0.0943  0.2329  0.1490
 2988Sol     MW15088   1.669   1.976   5.400 -0.0357 -0.1889 -0.0220
 2989Sol     OW15089   0.551   0.388   8.965  0.4103  0.1492  0.3784
 2989Sol     HW15090   0.593   0.394   9.050 -0.3727  1.7119  0.6783
 2989Sol     HW15091   0.624   0.389   8.902  0.8847  2.2409  0.9115
 2989Sol     MW15092   0.561   0.389   8.967  0.0386 -0.5497 -0.0140
 2990Sol     OW15093   2.898   0.420   3.554 -0.4728  0.0033 -0.2493
 2990Sol     HW15094   2.968   0.456   3.610 -0.8604  1.5091 -0.7157
 2990Sol     HW15095   2.821   0.473   3.575 -0.7301  0.2871 -1.8907
 2990Sol     MW15096   2.898   0.428   3.561  0.3247  0.1398 -0.4833
 2991Sol     OW15097   1.177   1.940   9.550 -0.1171 -0.3656 -0.1158
 2991Sol     HW15098   1.269   1.963   9.546  0.0595 -0.5895  2.0259
 2991Sol     HW15099   1.133   2.021   9.575 -0.4826 -0.3029 -0.9550
 2991Sol     MW15100   1.181   1.949   9.552  0.5406  0.5260 -0.2260
 2992Sol     OW15101   2.033   3.150   5.674  0.0504  0.4213 -0.2142
 2992Sol     HW15102   1.967   3.153   5.743  0.6026 -1.8967  0.4435
 2992Sol     HW15103   1.988   3.185   5.596 -0.5521  3.1257  1.2741
 2992Sol     MW15104   2.023   3.154   5.673 -0.3734  0.2572 -0.0391
 2993Sol     OW15105   1.242   0.105   4.682 -0.3680  0.2632 -0.5121
 2993Sol     HW15106   1.241   0.139   4.592 -0.0288  0.1009 -0.5789
 2993Sol     HW15107   1.217   0.013   4.674 -2.2854  0.7389 -0.2169
 2993Sol     MW15108   1.240   0.100   4.673  0.2463 -0.1393  0.1838
 2994Sol     OW15109   0.391   1.891   3.201  0.0826 -0.4032  0.1072
 2994Sol     HW15110   0.465   1.949   3.219 -0.7360  0.8112 -0.3348
 2994Sol     HW15111   0.362   1.862   3.288  0.9960 -0.7907  0.2886
 2994Sol     MW15112   0.395   1.894   3.211 -0.3144  0.2461  0.1565
 2995Sol     OW15113   0.991   1.142   7.431 -0.1243 -0.4780  0.3891
 2995Sol     HW15114   1.052   1.080   7.470  0.6093 -0.5277 -0.7945
 2995Sol     HW15115   1.047   1.207   7.388 -0.8934 -0.0455  0.0308
 2995Sol     MW15116   1.001   1.142   7.431  0.2808  0.2161 -0.2245
 2996Sol     OW15117   2.186   2.365   9.073 -0.2269  0.0107 -0.3370
 2996Sol     HW15118   2.254   2.317   9.027 -0.3617  0.1128 -0.6439
 2996Sol     HW15119   2.215   2.456   9.073 -0.4226  0.0742 -0.5763
 2996Sol     MW15120   2.194   2.369   9.069 -0.1056 -0.4084  0.3217
 2997Sol     OW15121   2.117   1.068   3.402  0.6100 -0.5910 -0.5432
 2997Sol     HW15122   2.206   1.091   3.376  0.5663 -0.4597 -0.5802
 2997Sol     HW15123   2.071   1.152   3.407  0.8457 -0.5300  0.8279
 2997Sol     MW15124   2.121   1.078   3.400 -0.2665  0.5464  0.2528
 2998Sol     OW15125   3.299   1.670   8.109 -0.4789 -0.2726  0.2222
 2998Sol     HW15126   3.308   1.645   8.201 -0.3846 -0.6766  0.1054
 2998Sol     HW15127   3.356   1.746   8.099 -1.0495  0.2167  0.6725
 2998Sol     MW15128   3.305   1.674   8.117  0.3203 -0.3288 -0.8013
 2999Sol     OW15129   2.084   3.028   9.261 -0.0562 -0.3355  0.4819
 2999Sol     HW15130   2.107   2.980   9.182  1.0676 -1.2517  1.3534
 2999Sol     HW15131   1.997   3.064   9.243 -0.9779 -2.7943 -0.1461
 2999Sol     MW15132   2.078   3.027   9.253 -0.7542  0.7535  0.3086
 3000Sol     OW15133   3.293   0.083   2.322 -0.1197 -0.5605  0.0263
 3000Sol     HW15134   3.353   0.117   2.256  0.9492  0.5923  1.5486
 3000Sol     HW15135   3.349   0.055   2.394 -1.2744 -1.5188  0.5761
 3000Sol     MW15136   3.303   0.084   2.323  0.0050 -0.7780 -0.0958
 3001Sol     OW15137   1.258   0.258   4.461 -0.0773  0.3777 -0.2699
 3001Sol     HW15138   1.189   0.238   4.398  0.4733  0.6390 -0.9603
 3001Sol     HW15139   1.340   0.238   4.415  0.3057 -0.1648  0.6253
 3001Sol     MW15140   1.259   0.254   4.451 -0.1396  0.0906  0.2595
   3.33170   3.45410  11.40960
