Water-ethanol mixture in organosilica
14992
    1Sil     Ob    1   2.508   0.112  11.149  0.1853 -0.2287 -0.1781
    1Sil     Ob    2   3.072   0.120  10.366 -0.1000 -0.5165 -0.2429
    1Sil     Ob    3   2.329   0.624  10.683 -0.3130 -0.0465 -0.3843
    1Sil     Ob    4   2.857   0.619  11.089 -0.6364 -0.2927 -0.3380
    1Sil     Ob    5   2.690   0.518  10.310 -0.0290  0.6775 -0.3320
    1Sil     Ob    6   2.686   0.449  11.173  0.3531 -0.1986 -0.1486
    1Sil     Ob    7   2.447   0.470  10.372  0.2944 -0.3592 -0.6511
    1Sil     Ob    8   2.976   0.451  10.779  0.2225 -0.3033 -0.3159
    1Sil     Ob    9   2.476   0.186  10.902  0.5581 -0.2826  0.3273
    1Sil     Ob   10   2.757   0.214  10.508  0.3533  0.2705  0.6589
    1Sil     Ob   11   2.454   0.363  11.085 -0.4053  0.5679 -0.1488
    1Sil     Ob   12   2.211   0.376  10.301  0.6513 -0.0037 -0.4263
    1Sil     Ob   13   2.786   0.270  10.751 -0.4650  0.1032 -0.2971
    1Sil     Ob   14   2.397   0.380  10.731 -0.0133 -0.4809  0.0774
    1Sil     Ob   15   2.928   0.380  11.124 -0.6705  0.3649  0.0659
    1Sil     Ob   16   2.601   0.273  10.301 -0.7514 -0.5159 -0.6944
    1Sil     Ob   17   2.848   0.215  10.272  0.0486  0.1535 -0.0983
    1Sil     Ob   18   2.273   0.189  11.058  0.2952  0.0409 -0.5517
    1Sil     Ob   19   2.558   0.197  10.663  0.0230  0.2567  0.0274
    1Sil     Ob   20   2.253   0.436  10.532  0.1880  0.4682 -0.0166
    1Sil     Ob   21   2.774   0.437  10.934 -0.1833  0.2535 -0.0849
    1Sil     Ob   22   2.469   0.118  12.340  0.0284 -0.0808 -0.4438
    1Sil     Ob   23   3.032   0.121  11.547 -0.1178 -0.1400  0.2042
    1Sil     Ob   24   2.265   0.618  11.898  0.2509  0.0654  0.0841
    1Sil     Ob   25   2.809   0.621  12.291  0.0102  0.4812  0.0669
    1Sil     Ob   26   2.638   0.508  11.515  0.2330 -0.3277  0.2933
    1Sil     Ob   27   2.643   0.442  12.363 -0.3847 -0.3452  0.1336
    1Sil     Ob   28   2.390   0.433  11.568 -0.3885 -0.0298 -0.0883
    1Sil     Ob   29   2.935   0.425  11.966  0.6837  0.3177  0.5411
    1Sil     Ob   30   2.423   0.196  12.096  0.0028 -0.1225 -0.2289
    1Sil     Ob   31   3.011   0.197  11.293  0.7303 -0.2698  0.2575
    1Sil     Ob   32   2.707   0.198  11.685  0.2405  0.6461 -0.4689
    1Sil     Ob   33   2.404   0.370  12.293 -0.6564  0.2056  0.4617
    1Sil     Ob   34   2.154   0.375  11.482 -0.1227 -0.4504  0.9678
    1Sil     Ob   35   2.741   0.261  11.934 -0.1125  0.0881 -0.2032
    1Sil     Ob   36   2.341   0.368  11.909  0.1981  0.2804 -0.3048
    1Sil     Ob   37   2.886   0.370  12.289  0.7445 -0.0672  0.0585
    1Sil     Ob   38   2.555   0.254  11.479  0.2311  0.3897 -0.0731
    1Sil     Ob   39   2.797   0.200  11.451  0.4665 -0.4888  0.3017
    1Sil     Ob   40   2.227   0.183  12.274  0.0816  0.5880 -0.1433
    1Sil     Ob   41   2.511   0.182  11.851 -0.4736  0.1354 -0.3512
    1Sil     Ob   42   2.186   0.452  11.730 -0.6709 -0.5572  0.4781
    1Sil     Ob   43   2.724   0.453  12.114 -0.1501 -0.0260  0.2851
    1Sil     Ob   44   2.480   0.440  11.322 -0.6050 -0.0632 -0.1639
    1Sil     Ob   45   2.507   0.618  11.142 -0.1592  0.0980 -0.0763
    1Sil     Ob   46   3.079   0.618  10.359 -0.6426 -0.0284  0.3953
    1Sil     Ob   47   2.739   0.523  10.684 -0.6023 -0.3189 -0.1453
    1Sil     Ob   48   2.316   1.128  10.709  0.4799  0.2907 -0.3751
    1Sil     Ob   49   2.861   1.119  11.094 -0.2941  0.0982  0.0327
    1Sil     Ob   50   2.691   1.009  10.345  0.1997 -0.4133 -0.0256
    1Sil     Ob   51   2.684   0.957  11.166 -0.3004  0.6665 -0.1927
    1Sil     Ob   52   2.441   0.940  10.388 -0.4646 -0.0507  0.0798
    1Sil     Ob   53   2.992   0.926  10.773 -0.0999  0.2865  0.3245
    1Sil     Ob   54   2.480   0.700  10.890  0.1869 -0.0514  0.5506
    1Sil     Ob   55   2.780   0.679  10.495  0.6567  0.2083 -0.8306
    1Sil     Ob   56   2.458   0.876  11.080 -0.2740  0.3389 -0.0599
    1Sil     Ob   57   2.197   0.863  10.296 -0.6100  0.0087  0.3794
    1Sil     Ob   58   2.801   0.771  10.742  0.0502  0.1008 -0.0726
    1Sil     Ob   59   2.394   0.881  10.727 -0.2028 -0.1355  0.4501
    1Sil     Ob   60   2.926   0.874  11.126  0.3924 -0.1222  0.0523
    1Sil     Ob   61   2.606   0.757  10.321  0.0106 -0.1332 -0.1599
    1Sil     Ob   62   2.854   0.712  10.256  0.1344  0.1384  0.1206
    1Sil     Ob   63   2.277   0.696  11.054 -0.2255 -0.8949 -0.3534
    1Sil     Ob   64   2.569   0.713  10.638 -0.4235 -0.6334 -0.6977
    1Sil     Ob   65   2.243   0.943  10.540  0.0931  0.4083 -0.0709
    1Sil     Ob   66   2.781   0.951  10.918 -0.0021 -0.1968 -0.3730
    1Sil     Ob   67   2.465   0.623  12.341 -0.2341  0.3570  0.3756
    1Sil     Ob   68   3.032   0.613  11.545  0.0897 -0.6905 -0.0121
    1Sil     Ob   69   2.701   0.504  11.866 -0.0395 -0.7417  1.1827
    1Sil     Ob   70   2.270   1.109  11.897 -0.2630 -0.0023 -0.2598
    1Sil     Ob   71   2.799   1.118  12.272 -0.1597  0.2196  0.1095
    1Sil     Ob   72   2.637   1.004  11.521  0.1175 -0.1916  0.1497
    1Sil     Ob   73   2.635   0.943  12.360 -0.4314 -0.5763  0.6773
    1Sil     Ob   74   2.395   0.935  11.571 -0.4589 -0.1949  0.4962
    1Sil     Ob   75   2.923   0.936  11.963  0.4514 -0.5600  0.7713
    1Sil     Ob   76   2.428   0.683  12.086  0.7583  0.3639  0.7093
    1Sil     Ob   77   3.005   0.679  11.282  0.3810 -0.5310 -0.1126
    1Sil     Ob   78   2.718   0.683  11.686  0.2550  0.1279  0.2408
    1Sil     Ob   79   2.404   0.866  12.271  0.1109  1.0081 -0.5082
    1Sil     Ob   80   2.165   0.863  11.474  0.3424 -0.0751  0.3828
    1Sil     Ob   81   2.748   0.749  11.931 -0.0313  0.1744 -0.3932
    1Sil     Ob   82   2.353   0.861  11.914  0.3565 -0.0097  0.1086
    1Sil     Ob   83   2.879   0.873  12.294  0.0378  0.1858 -0.1228
    1Sil     Ob   84   2.567   0.763  11.483 -0.4626  1.1616 -0.2416
    1Sil     Ob   85   2.801   0.695  11.440  0.3383  0.9136  0.7347
    1Sil     Ob   86   2.232   0.673  12.246 -0.1284 -0.3827  0.4255
    1Sil     Ob   87   2.512   0.667  11.840 -0.7279 -0.1709 -0.2153
    1Sil     Ob   88   2.194   0.934  11.711 -0.7087  0.2529 -0.1232
    1Sil     Ob   89   2.721   0.935  12.111 -0.6399  0.3812  0.0360
    1Sil     Ob   90   2.482   0.937  11.335  0.1634  0.2955 -0.5484
    1Sil     Ob   91   2.493   1.129  11.142  0.1400 -0.0508 -0.6551
    1Sil     Ob   92   3.092   1.111  10.347 -0.0588  0.2742 -0.6707
    1Sil     Ob   93   2.773   1.011  10.674 -0.6691 -0.7165  0.0718
    1Sil     Ob   94   2.326   1.609  10.695  0.6143  0.0006 -0.1038
    1Sil     Ob   95   2.861   1.604  11.103 -0.0457 -0.8614 -0.2103
    1Sil     Ob   96   2.700   1.493  10.313 -0.0292  0.8047 -0.5651
    1Sil     Ob   97   2.683   1.436  11.168  0.2304 -0.0581 -0.0499
    1Sil     Ob   98   2.449   1.435  10.362  0.4719 -0.2966  0.5677
    1Sil     Ob   99   2.977   1.434  10.775 -0.1971 -0.2236  0.4245
    1Sil     Ob  100   2.474   1.193  10.893 -0.1783  0.3000  0.2375
    1Sil     Ob  101   2.759   1.204  10.500 -0.0053  0.0018  0.2804
    1Sil     Ob  102   2.434   1.368  11.084 -0.2109 -0.3032  0.0564
    1Sil     Ob  103   2.207   1.362  10.288  0.1068  0.5098 -0.1879
    1Sil     Ob  104   2.796   1.259  10.749  0.0574  1.1434 -0.0033
    1Sil     Ob  105   2.407   1.366  10.715  0.1226  0.1192 -0.4907
    1Sil     Ob  106   2.935   1.366  11.120  0.5477 -1.0587  0.0586
    1Sil     Ob  107   2.614   1.261  10.295  0.0225 -0.1573 -0.0583
    1Sil     Ob  108   2.853   1.184  10.249  0.0530 -0.1672 -0.1538
    1Sil     Ob  109   2.259   1.178  11.047 -0.6750  0.6723  0.4167
    1Sil     Ob  110   2.567   1.172  10.653 -0.6173  0.0875 -0.4859
    1Sil     Ob  111   2.250   1.432  10.522 -0.3808 -0.2726 -0.3397
    1Sil     Ob  112   2.769   1.437  10.929 -0.3011  0.0854 -0.6223
    1Sil     Ob  113   2.457   1.120  12.313 -0.5488 -0.0124 -0.0206
    1Sil     Ob  114   3.048   1.109  11.532 -0.7679 -0.3336  0.2255
    1Sil     Ob  115   2.697   0.999  11.867  0.2499  0.1769  0.2674
    1Sil     Ob  116   2.285   1.603  11.882  0.3982  0.0118 -0.3871
    1Sil     Ob  117   2.804   1.592  12.297  0.0439 -0.3501 -0.5948
    1Sil     Ob  118   2.649   1.497  11.508  0.2030  0.6783 -0.3310
    1Sil     Ob  119   2.630   1.415  12.353  0.4917 -0.0488  0.0911
    1Sil     Ob  120   2.403   1.430  11.561 -0.6748  0.8150  0.0778
    1Sil     Ob  121   2.932   1.410  11.961  0.0967  0.4685 -0.0294
    1Sil     Ob  122   2.435   1.204  12.074 -0.0801 -0.2344  0.5859
    1Sil     Ob  123   3.014   1.200  11.291 -0.2531 -0.0601  0.6495
    1Sil     Ob  124   2.711   1.183  11.677  0.4329  0.0957 -0.5408
    1Sil     Ob  125   2.393   1.364  12.276  0.2903  0.1416 -0.5147
    1Sil     Ob  126   2.162   1.360  11.465  0.0938 -0.0743  0.5195
    1Sil     Ob  127   2.737   1.249  11.935 -0.3248  0.5155 -0.0527
    1Sil     Ob  128   2.346   1.352  11.893 -0.3708  0.2011 -0.4232
    1Sil     Ob  129   2.866   1.357  12.330 -0.4341  0.3060 -0.2612
    1Sil     Ob  130   2.561   1.246  11.480 -0.4841 -0.6273 -0.1134
    1Sil     Ob  131   2.806   1.169  11.436 -0.1110 -0.4516 -0.0466
    1Sil     Ob  132   2.224   1.188  12.226 -0.5195  0.0005 -0.0968
    1Sil     Ob  133   2.511   1.174  11.834 -0.2439 -0.2158  0.0469
    1Sil     Ob  134   2.193   1.426  11.719  0.6334  0.0807  0.4850
    1Sil     Ob  135   2.725   1.428  12.113 -1.1079 -0.4405 -0.3172
    1Sil     Ob  136   2.483   1.440  11.327  0.1776 -0.1655 -0.1448
    1Sil     Ob  137   2.497   1.610  11.137 -0.4700  0.2698 -0.1270
    1Sil     Ob  138   3.095   1.601  10.342 -0.2159 -0.1281 -0.2733
    1Sil     Ob  139   2.753   1.498  10.668 -0.2461  0.2272 -0.2909
    1Sil     Ob  140   2.320   2.105  10.698 -0.2347  0.7262 -0.1539
    1Sil     Ob  141   2.857   2.094  11.086 -0.1645  0.4946  0.1423
    1Sil     Ob  142   2.695   1.983  10.291  0.2199  0.1161 -0.1961
    1Sil     Ob  143   2.678   1.927  11.174  1.1398 -0.4453 -0.9086
    1Sil     Ob  144   2.459   1.926  10.355  0.1660 -0.0795  0.3706
    1Sil     Ob  145   2.972   1.940  10.782 -0.0389  0.2269  0.0074
    1Sil     Ob  146   2.480   1.679  10.889  0.1128 -0.1341 -0.1488
    1Sil     Ob  147   2.769   1.679  10.487 -0.1567  0.4786 -0.3610
    1Sil     Ob  148   2.450   1.858  11.074  0.2948 -0.1767  0.0867
    1Sil     Ob  149   2.211   1.861  10.271  0.4202 -0.4762 -0.1815
    1Sil     Ob  150   2.809   1.742  10.737  0.2308 -0.7412 -0.2181
    1Sil     Ob  151   2.393   1.863  10.718  0.5240 -0.7671 -0.1306
    1Sil     Ob  152   2.922   1.852  11.133 -0.2597 -0.0506 -0.3148
    1Sil     Ob  153   2.619   1.741  10.283  0.3368 -0.2001 -0.0710
    1Sil     Ob  154   2.871   1.681  10.245 -0.0696 -0.5640 -0.3882
    1Sil     Ob  155   2.272   1.675  11.042  0.0434 -0.0804  0.3699
    1Sil     Ob  156   2.569   1.683  10.641 -0.2652 -0.0146 -0.3954
    1Sil     Ob  157   2.241   1.937  10.520  0.1828 -0.0903  0.1745
    1Sil     Ob  158   2.766   1.901  10.937  0.4277  0.0763  0.6905
    1Sil     Ob  159   2.449   1.603  12.342 -0.1779 -0.2092 -1.0574
    1Sil     Ob  160   3.051   1.606  11.540 -0.5602 -0.4299  0.4592
    1Sil     Ob  161   2.697   1.495  11.879 -0.1418 -0.3604  0.2722
    1Sil     Ob  162   2.265   2.092  11.900  0.1093  0.0605 -0.0514
    1Sil     Ob  163   2.822   2.092  12.274  0.0874 -0.1443 -0.0336
    1Sil     Ob  164   2.648   1.992  11.508 -0.0046 -0.2996  0.0952
    1Sil     Ob  165   2.646   1.918  12.361 -0.9644  0.0500  0.3064
    1Sil     Ob  166   2.398   1.931  11.569 -0.8344  0.1348  0.0570
    1Sil     Ob  167   2.924   1.917  11.971  0.0366  0.6814  0.2311
    1Sil     Ob  168   2.439   1.668  12.085  0.3539  0.4147  0.0254
    1Sil     Ob  169   2.999   1.674  11.300  0.3679 -0.0750  1.1018
    1Sil     Ob  170   2.728   1.655  11.695  0.6695 -0.3997  0.4576
    1Sil     Ob  171   2.425   1.850  12.261  0.3288  0.4933  0.6335
    1Sil     Ob  172   2.163   1.849  11.481 -0.3456 -0.4558  0.1517
    1Sil     Ob  173   2.750   1.738  11.924 -0.0804 -0.8655 -0.2177
    1Sil     Ob  174   2.350   1.848  11.930 -0.5303 -0.9519  0.0816
    1Sil     Ob  175   2.879   1.836  12.325  0.0919  0.0859 -0.4873
    1Sil     Ob  176   2.567   1.745  11.513 -0.2417 -0.4012  1.0075
    1Sil     Ob  177   2.815   1.681  11.456 -0.0784 -0.0550 -0.1895
    1Sil     Ob  178   2.225   1.680  12.232  0.0085  0.2027  0.2661
    1Sil     Ob  179   2.520   1.681  11.839  0.2145 -0.1545 -0.1793
    1Sil     Ob  180   2.200   1.905  11.729 -0.1037  0.3480  0.4790
    1Sil     Ob  181   2.722   1.900  12.123  0.0922 -0.2670 -0.2089
    1Sil     Ob  182   2.476   1.922  11.331 -0.3591  0.1133  0.6759
    1Sil     Ob  183   2.495   2.102  11.151  0.1723 -0.2777 -1.1596
    1Sil     Ob  184   3.098   2.099  10.355  0.1027 -0.0754 -0.6198
    1Sil     Ob  185   2.729   1.985  10.695  0.3877 -0.8640 -0.8236
    1Sil     Ob  186   2.338   2.603  10.681  0.3724  0.2142 -0.3248
    1Sil     Ob  187   2.860   2.580  11.079  0.1563  0.6278 -0.2157
    1Sil     Ob  188   2.691   2.485  10.314 -0.0350  0.3225 -0.1841
    1Sil     Ob  189   2.684   2.405  11.168  0.1335 -0.6678 -0.1155
    1Sil     Ob  190   2.457   2.407  10.367 -0.3059 -0.7964 -0.8823
    1Sil     Ob  191   2.984   2.396  10.768 -0.5116  0.2854  0.1579
    1Sil     Ob  192   2.479   2.178  10.892  0.2547 -0.3683 -0.4970
    1Sil     Ob  193   2.776   2.149  10.489  0.3129  0.4043 -0.2193
    1Sil     Ob  194   2.445   2.353  11.086 -0.1529  0.0137  0.1634
    1Sil     Ob  195   2.216   2.346  10.284  0.1112  0.6291  0.2771
    1Sil     Ob  196   2.787   2.228  10.739 -0.7411  0.3268 -0.6274
    1Sil     Ob  197   2.396   2.356  10.727 -0.3442 -0.0627  0.1688
    1Sil     Ob  198   2.933   2.338  11.121 -0.6409  0.2619  0.1529
    1Sil     Ob  199   2.626   2.231  10.286  0.0298 -0.0151  0.3598
    1Sil     Ob  200   2.872   2.174  10.245 -0.0943  0.2980 -0.6459
    1Sil     Ob  201   2.268   2.174  11.057 -0.2242  0.0873  0.2541
    1Sil     Ob  202   2.555   2.160  10.646  0.3248  0.0947 -0.0985
    1Sil     Ob  203   2.242   2.421  10.528  0.2411  0.0756 -0.1734
    1Sil     Ob  204   2.774   2.400  10.926 -0.1651  0.4715  0.3851
    1Sil     Ob  205   2.464   2.098  12.334 -1.0642  0.4293 -0.2521
    1Sil     Ob  206   3.041   2.106  11.528 -0.3607  0.3016  0.2146
    1Sil     Ob  207   2.698   1.986  11.879 -0.1177  0.6880 -0.1170
    1Sil     Ob  208   2.265   2.591  11.889  0.1117  0.0595 -0.8266
    1Sil     Ob  209   2.820   2.588  12.284  0.1996  0.0435 -0.5370
    1Sil     Ob  210   2.638   2.479  11.519  0.5141  0.0604  0.1403
    1Sil     Ob  211   2.652   2.414  12.359  0.7725 -0.1686 -0.8491
    1Sil     Ob  212   2.384   2.415  11.570 -0.2752 -0.1885  0.7956
    1Sil     Ob  213   2.928   2.421  11.956 -0.0615 -0.3261 -0.8001
    1Sil     Ob  214   2.429   2.173  12.084  0.6067 -0.0733  0.1852
    1Sil     Ob  215   3.006   2.159  11.290 -0.7331  0.2642  0.3129
    1Sil     Ob  216   2.713   2.157  11.684 -0.2566  0.2626 -0.3887
    1Sil     Ob  217   2.416   2.346  12.267 -0.1176  0.0876  0.4851
    1Sil     Ob  218   2.157   2.337  11.480  0.9149  0.4652  0.2886
    1Sil     Ob  219   2.741   2.236  11.940  0.4121  0.1938 -0.3609
    1Sil     Ob  220   2.340   2.345  11.917  0.3332 -0.1736 -0.2925
    1Sil     Ob  221   2.894   2.333  12.321  0.1177 -0.5572 -0.3262
    1Sil     Ob  222   2.557   2.247  11.493 -0.3363  0.4433 -0.1628
    1Sil     Ob  223   2.802   2.189  11.444  0.1860 -0.3858 -0.5379
    1Sil     Ob  224   2.225   2.176  12.243 -0.4030 -0.2289  0.2873
    1Sil     Ob  225   2.513   2.166  11.846 -0.2050 -0.6863 -0.6813
    1Sil     Ob  226   2.184   2.416  11.723 -0.0528 -1.0162  0.3484
    1Sil     Ob  227   2.736   2.406  12.124 -0.0625 -0.0767  0.0862
    1Sil     Ob  228   2.471   2.425  11.327 -0.1991 -0.0263  0.1106
    1Sil     Ob  229   2.515   2.597  11.143 -0.1530  0.3687  0.0387
    1Sil     Ob  230   3.098   2.602  10.346 -0.2588 -0.3804  0.6703
    1Sil     Ob  231   2.747   2.474  10.680 -0.0699  0.2981  0.5765
    1Sil     Ob  232   2.331   3.087  10.705 -0.0271  0.1558 -0.4736
    1Sil     Ob  233   2.855   3.076  11.097  0.0790 -0.5811  0.3143
    1Sil     Ob  234   2.690   2.990  10.345  0.1086  0.3261 -0.1625
    1Sil     Ob  235   2.688   2.899  11.163 -0.0443  0.0965 -0.8365
    1Sil     Ob  236   2.444   2.895  10.380 -0.3136  0.8256 -0.2223
    1Sil     Ob  237   2.997   2.894  10.781 -0.6494  0.3347 -0.0395
    1Sil     Ob  238   2.480   2.659  10.893  0.8743 -0.0659  0.4618
    1Sil     Ob  239   2.779   2.643  10.482  0.0071  0.3360  0.5106
    1Sil     Ob  240   2.461   2.839  11.084  0.4648 -0.2644  0.0375
    1Sil     Ob  241   2.211   2.849  10.288  0.0399  0.0084 -0.2617
    1Sil     Ob  242   2.808   2.723  10.734 -0.1310 -1.0501 -0.1448
    1Sil     Ob  243   2.402   2.844  10.728 -0.1390 -0.0527 -0.2148
    1Sil     Ob  244   2.931   2.831  11.121  0.3960  0.5188 -0.6095
    1Sil     Ob  245   2.624   2.735  10.286  0.1544 -0.3907  0.2741
    1Sil     Ob  246   2.864   2.654  10.237  0.0784  0.0286  0.3216
    1Sil     Ob  247   2.280   2.661  11.058 -0.6251 -0.3471 -0.1467
    1Sil     Ob  248   2.572   2.664  10.653  0.0681  0.6104 -0.3631
    1Sil     Ob  249   2.251   2.913  10.539 -0.1148 -0.1271 -0.8253
    1Sil     Ob  250   2.784   2.909  10.921  0.0230 -0.1388 -0.2566
    1Sil     Ob  251   2.460   2.590  12.328 -0.0100  0.0802 -0.0476
    1Sil     Ob  252   3.047   2.593  11.541 -0.4501  0.1023  0.3032
    1Sil     Ob  253   2.698   2.477  11.874  0.5919 -0.1972  0.5083
    1Sil     Ob  254   2.266   3.076  11.913 -0.4166 -0.2402  0.0728
    1Sil     Ob  255   2.801   3.082  12.290  0.1956  0.0401 -0.6562
    1Sil     Ob  256   2.631   2.968  11.520 -0.0123  0.1415 -0.7134
    1Sil     Ob  257   2.635   2.896  12.356  0.9773  0.7326  0.3491
    1Sil     Ob  258   2.386   2.888  11.571 -0.6538 -0.4376 -0.0704
    1Sil     Ob  259   2.919   2.905  11.973  0.4359  0.2846  0.4792
    1Sil     Ob  260   2.428   2.669  12.082  0.2048  0.6932  0.1999
    1Sil     Ob  261   3.013   2.660  11.280  0.2811 -0.3288  0.1318
    1Sil     Ob  262   2.717   2.663  11.690  0.2601  0.3744 -0.0595
    1Sil     Ob  263   2.401   2.841  12.272 -0.1241  0.0617  0.0290
    1Sil     Ob  264   2.148   2.841  11.488 -0.2758 -0.1721  0.4387
    1Sil     Ob  265   2.724   2.732  11.938 -0.1282 -0.0605 -0.0211
    1Sil     Ob  266   2.342   2.833  11.904 -0.1794 -0.1259  0.0608
    1Sil     Ob  267   2.880   2.829  12.299  0.0941 -0.0829 -0.2183
    1Sil     Ob  268   2.573   2.727  11.487 -0.0635  0.0500  0.4835
    1Sil     Ob  269   2.814   2.663  11.449  0.2568 -0.2274 -0.5690
    1Sil     Ob  270   2.224   2.650  12.234  0.5384  0.1171 -0.0919
    1Sil     Ob  271   2.509   2.645  11.838 -0.7156 -0.8122 -0.1904
    1Sil     Ob  272   2.181   2.921  11.727  0.0206  0.3259  0.2465
    1Sil     Ob  273   2.714   2.911  12.116 -0.4136 -0.1247  0.1435
    1Sil     Ob  274   2.484   2.903  11.326  0.4143 -0.2375 -0.4024
    1Sil     Ob  275   2.510   3.085  11.144  0.0728  0.3732  0.8002
    1Sil     Ob  276   3.092   3.081  10.341  0.0945  0.0502 -0.2454
    1Sil     Ob  277   2.767   2.979  10.681 -0.0848  0.0488  0.5072
    1Sil     Ob  278   2.692  -0.053  11.179 -0.2898 -0.0981 -0.3219
    1Sil     Ob  279   2.453  -0.040  10.387  0.2023 -0.2572 -0.2922
    1Sil     Ob  280   2.980  -0.032  10.786  0.1129 -0.2881 -0.2584
    1Sil     Ob  281   2.483   3.172  10.899  0.1794 -0.1269 -0.7837
    1Sil     Ob  282   2.778   3.162  10.498  0.3547 -0.1195  0.2946
    1Sil     Ob  283   2.449   3.325  11.096 -0.2052  0.8565  0.3198
    1Sil     Ob  284   2.219  -0.109  10.288 -0.1549  0.1494 -0.5859
    1Sil     Ob  285   2.813   3.226  10.745  0.4556 -0.0677  0.3398
    1Sil     Ob  286   2.401  -0.108  10.728 -0.4529 -0.4903  0.0860
    1Sil     Ob  287   2.926  -0.127  11.122  0.4087  0.1967 -0.0395
    1Sil     Ob  288   2.615  -0.210  10.317 -0.0413  0.0531  0.0059
    1Sil     Ob  289   2.859   3.153  10.253 -0.0191 -0.0653  0.0018
    1Sil     Ob  290   2.269   3.150  11.049 -0.3647 -0.5273 -0.1647
    1Sil     Ob  291   2.579   3.159  10.660  0.1524  0.6040  0.4824
    1Sil     Ob  292   2.241  -0.035  10.535  0.1659 -0.1190 -0.0480
    1Sil     Ob  293   2.773  -0.051  10.929  0.9234  0.6417  1.0259
    1Sil     Ob  294   2.455   3.074  12.339  0.6065  0.0447 -0.3996
    1Sil     Ob  295   3.024   3.077  11.542 -0.6001  0.1507 -0.5467
    1Sil     Ob  296   2.692   2.978  11.875 -0.4338 -0.3583  0.7089
    1Sil     Ob  297   2.647  -0.061  12.352 -0.5619  1.0350 -0.4236
    1Sil     Ob  298   2.398  -0.040  11.580  0.9132 -0.0366 -0.0792
    1Sil     Ob  299   2.934  -0.054  11.969  0.0357  0.1567  0.5714
    1Sil     Ob  300   2.424   3.177  12.094 -0.0596  0.0359 -0.0880
    1Sil     Ob  301   3.006   3.148  11.289 -0.1039 -0.8050 -0.0289
    1Sil     Ob  302   2.708   3.145  11.684  0.3721  0.1177  0.0582
    1Sil     Ob  303   2.390   3.318  12.308 -0.2870 -0.4076 -0.0047
    1Sil     Ob  304   2.170  -0.119  11.474 -0.1536  0.5405  0.4933
    1Sil     Ob  305   2.735   3.227  11.932 -0.2632 -1.0426 -0.2956
    1Sil     Ob  306   2.335  -0.129  11.901 -0.7047  0.4420  0.0350
    1Sil     Ob  307   2.882  -0.116  12.301  0.2625 -0.0403  0.4887
    1Sil     Ob  308   2.557  -0.234  11.501 -0.0133  0.1465  0.2613
    1Sil     Ob  309   2.792   3.147  11.441  0.9320 -0.2165  0.4469
    1Sil     Ob  310   2.220   3.147  12.244 -0.3413 -0.0951  0.3163
    1Sil     Ob  311   2.506   3.148  11.841  0.2943 -0.0907 -0.5601
    1Sil     Ob  312   2.190  -0.033  11.724  0.0884 -0.3500  0.2105
    1Sil     Ob  313   2.724  -0.041  12.115 -0.3335 -0.1113 -0.1407
    1Sil     Ob  314   2.479  -0.065  11.335  0.4660  0.1330 -0.3514
    1Sil     Ob  315   3.333   0.110  11.136  0.6365 -0.1014 -0.5673
    1Sil     Ob  316   3.896   0.130  10.369  0.2176  0.7925  0.2831
    1Sil     Ob  317   3.165   0.624  10.691  0.1707  0.3200  0.1112
    1Sil     Ob  318   3.683   0.618  11.092  0.6480 -0.4848 -0.3884
    1Sil     Ob  319   3.515   0.501  10.328 -0.5440  0.4086  0.3936
    1Sil     Ob  320   3.511   0.442  11.168  0.8281  0.8025  0.4322
    1Sil     Ob  321   3.274   0.431  10.380 -0.1496 -0.3439  0.6277
    1Sil     Ob  322   3.817   0.420  10.781 -0.0567  0.2173  0.4435
    1Sil     Ob  323   3.295   0.184  10.893  0.1097 -0.0851  0.0001
    1Sil     Ob  324   3.604   0.196  10.505  0.0969 -0.3619  0.7043
    1Sil     Ob  325   3.289   0.363  11.068 -0.0298  0.3354 -0.3734
    1Sil     Ob  326   3.040   0.369  10.293  0.4778  0.3127  0.1029
    1Sil     Ob  327   3.626   0.253  10.756  0.5003 -0.6827 -0.1552
    1Sil     Ob  328   3.219   0.370  10.737  0.8848 -0.2751  0.1516
    1Sil     Ob  329   3.760   0.372  11.114  0.6548 -0.2740 -0.0472
    1Sil     Ob  330   3.445   0.262  10.312  0.3789 -0.6325  0.2792
    1Sil     Ob  331   3.687   0.196  10.253 -0.0707  0.0343 -0.1766
    1Sil     Ob  332   3.098   0.192  11.052  0.4287 -0.3736  0.2676
    1Sil     Ob  333   3.400   0.197  10.658  0.7188  0.0833 -0.1434
    1Sil     Ob  334   3.072   0.439  10.537 -0.0736  0.3883 -0.4267
    1Sil     Ob  335   3.599   0.435  10.926  1.0907 -0.5428  0.5035
    1Sil     Ob  336   3.303   0.120  12.341  0.0135  0.1845 -0.0227
    1Sil     Ob  337   3.853   0.119  11.544 -0.2921  0.6845 -0.0896
    1Sil     Ob  338   3.097   0.608  11.903  0.1183 -0.0418  0.1026
    1Sil     Ob  339   3.637   0.616  12.281 -0.2316  0.6607  0.3810
    1Sil     Ob  340   3.459   0.507  11.520  0.1133 -0.9153  0.8923
    1Sil     Ob  341   3.464   0.444  12.359 -0.1886  0.2549  0.6752
    1Sil     Ob  342   3.214   0.442  11.567 -0.0774  0.4006  0.3933
    1Sil     Ob  343   3.759   0.443  11.968  0.0995 -0.0181 -0.3406
    1Sil     Ob  344   3.250   0.175  12.087 -0.2843 -0.0476  0.0673
    1Sil     Ob  345   3.831   0.190  11.297 -0.6709  0.3645 -0.1820
    1Sil     Ob  346   3.539   0.186  11.691  0.0905  0.1932 -0.5151
    1Sil     Ob  347   3.246   0.366  12.259  0.0493 -0.7458 -0.2773
    1Sil     Ob  348   3.002   0.364  11.474 -0.1244 -0.0855  0.0398
    1Sil     Ob  349   3.575   0.261  11.932 -0.0063 -1.0513 -0.2773
    1Sil     Ob  350   3.163   0.363  11.925 -0.0379  0.0552  0.1374
    1Sil     Ob  351   3.713   0.369  12.309 -0.3813 -0.1055 -0.4525
    1Sil     Ob  352   3.383   0.253  11.496  0.4813 -0.4520  0.0998
    1Sil     Ob  353   3.629   0.193  11.442  0.1052 -0.2878  0.2329
    1Sil     Ob  354   3.056   0.184  12.260  0.1356  0.5506 -0.6133
    1Sil     Ob  355   3.348   0.196  11.851  0.8950  0.3727  0.7806
    1Sil     Ob  356   3.019   0.443  11.721 -0.4391 -0.1449  0.0719
    1Sil     Ob  357   3.558   0.438  12.120  0.2277  0.2344 -0.4150
    1Sil     Ob  358   3.307   0.437  11.325  0.0515 -0.3073 -0.3326
    1Sil     Ob  359   3.342   0.607  11.142 -0.3207  0.2688  0.2150
    1Sil     Ob  360   3.926   0.614  10.336 -0.3861 -0.3976  0.3366
    1Sil     Ob  361   3.593   0.504  10.681  0.0515 -0.1943 -0.2015
    1Sil     Ob  362   3.156   1.112  10.686 -0.3235 -0.2116  0.1993
    1Sil     Ob  363   3.691   1.113  11.082 -0.0629  0.2826  0.2739
    1Sil     Ob  364   3.524   1.003  10.321 -0.2555 -0.4044 -0.6494
    1Sil     Ob  365   3.525   0.933  11.156  0.3944  0.3332 -0.1278
    1Sil     Ob  366   3.280   0.936  10.374 -0.1029  0.0890 -0.5871
    1Sil     Ob  367   3.809   0.941  10.768 -0.2631 -0.1109  0.0029
    1Sil     Ob  368   3.295   0.680  10.899  0.4092 -0.8919 -0.6216
    1Sil     Ob  369   3.587   0.686  10.500  0.6412 -0.0464 -0.1817
    1Sil     Ob  370   3.298   0.866  11.075  0.2451 -0.3581 -0.1553
    1Sil     Ob  371   3.062   0.864  10.278 -0.5341  0.4427 -0.3080
    1Sil     Ob  372   3.638   0.754  10.742 -0.1539  0.9083  0.8454
    1Sil     Ob  373   3.240   0.861  10.724  0.2981  0.0610 -0.3443
    1Sil     Ob  374   3.765   0.866  11.113 -0.0235 -0.5534  0.3458
    1Sil     Ob  375   3.444   0.746  10.299  0.4250  0.7660 -0.2130
    1Sil     Ob  376   3.685   0.669  10.257 -0.5856 -0.4308  0.3485
    1Sil     Ob  377   3.101   0.698  11.047  0.0876 -0.7096 -0.5396
    1Sil     Ob  378   3.405   0.675  10.662  0.4934  0.6681 -0.2928
    1Sil     Ob  379   3.077   0.923  10.525 -0.3520  0.6234 -0.1267
    1Sil     Ob  380   3.609   0.937  10.921  0.1896 -0.1438 -0.5321
    1Sil     Ob  381   3.284   0.616  12.324  0.0061 -0.3322  0.1735
    1Sil     Ob  382   3.860   0.615  11.532 -0.0037  0.4295 -0.0558
    1Sil     Ob  383   3.526   0.511  11.876 -0.2423  0.1472  0.3647
    1Sil     Ob  384   3.100   1.111  11.898  0.0064 -0.1429  0.9293
    1Sil     Ob  385   3.636   1.111  12.287  0.4045 -0.2719 -0.0855
    1Sil     Ob  386   3.458   1.000  11.515 -0.6587 -0.6088 -0.5116
    1Sil     Ob  387   3.467   0.937  12.354  0.1885  0.1971 -0.9207
    1Sil     Ob  388   3.216   0.919  11.565  0.2174 -0.6229  0.1635
    1Sil     Ob  389   3.760   0.914  11.972  0.2475  0.3552  0.0136
    1Sil     Ob  390   3.253   0.691  12.091  0.3766  0.0135 -0.6600
    1Sil     Ob  391   3.829   0.693  11.293 -0.2267 -0.4058 -0.0398
    1Sil     Ob  392   3.532   0.700  11.685  0.0086 -0.0140 -0.1107
    1Sil     Ob  393   3.230   0.863  12.279 -0.5237  0.1183 -0.6876
    1Sil     Ob  394   2.987   0.866  11.471 -0.2034  0.2152  0.3921
    1Sil     Ob  395   3.568   0.758  11.933  0.1467 -0.8081 -0.5634
    1Sil     Ob  396   3.167   0.860  11.922 -0.1877 -0.1864 -0.4490
    1Sil     Ob  397   3.714   0.866  12.312 -0.0574 -0.0055 -0.3217
    1Sil     Ob  398   3.391   0.753  11.474  0.2092  0.5218 -0.1903
    1Sil     Ob  399   3.626   0.673  11.442 -0.4406 -0.3876  0.1629
    1Sil     Ob  400   3.047   0.696  12.242 -0.5628 -0.3212  0.0705
    1Sil     Ob  401   3.332   0.675  11.855 -0.1692 -0.1612  0.1028
    1Sil     Ob  402   3.006   0.940  11.721 -0.0245  0.2818  0.1063
    1Sil     Ob  403   3.556   0.944  12.122  0.3403  0.6020  0.1967
    1Sil     Ob  404   3.314   0.939  11.319 -0.1655  0.1478 -0.3415
    1Sil     Ob  405   3.345   1.111  11.125 -1.0402 -0.5101  0.6401
    1Sil     Ob  406   3.921   1.114  10.352  0.4051 -0.3126  0.4567
    1Sil     Ob  407   3.572   1.001  10.684 -0.1930  0.4527  0.0347
    1Sil     Ob  408   3.151   1.608  10.701 -0.0036 -0.5924 -0.2522
    1Sil     Ob  409   3.693   1.606  11.085 -0.4846 -0.6363 -0.2212
    1Sil     Ob  410   3.512   1.500  10.341 -0.1173  0.4182  0.5551
    1Sil     Ob  411   3.529   1.443  11.174 -0.5859 -0.4908 -0.0681
    1Sil     Ob  412   3.268   1.419  10.386  0.4678  0.5175  0.4605
    1Sil     Ob  413   3.813   1.440  10.785 -0.0853  0.2859 -0.2082
    1Sil     Ob  414   3.304   1.191  10.886 -0.1379 -0.1276 -0.1611
    1Sil     Ob  415   3.602   1.178  10.499  0.4207 -0.6305 -0.0273
    1Sil     Ob  416   3.290   1.359  11.079  0.0514 -0.3725  0.4295
    1Sil     Ob  417   3.034   1.352  10.300  0.0411  0.1560 -0.2315
    1Sil     Ob  418   3.635   1.250  10.746 -0.1185 -0.8167 -0.1732
    1Sil     Ob  419   3.225   1.366  10.724  0.3482  0.4123 -0.1811
    1Sil     Ob  420   3.762   1.361  11.131 -0.6056  0.1101  0.0077
    1Sil     Ob  421   3.451   1.255  10.302 -0.7587  0.5573 -0.0760
    1Sil     Ob  422   3.700   1.181  10.255  0.5502 -0.2681 -0.5891
    1Sil     Ob  423   3.105   1.185  11.052 -0.4871  0.3430  0.2740
    1Sil     Ob  424   3.396   1.181  10.653  0.2060  0.0779 -0.0513
    1Sil     Ob  425   3.066   1.441  10.535  0.0849  0.3737 -0.5493
    1Sil     Ob  426   3.608   1.411  10.938  0.1273 -0.2784  0.6438
    1Sil     Ob  427   3.265   1.112  12.351  0.0659  0.7278 -0.3776
    1Sil     Ob  428   3.868   1.106  11.537  0.9478 -0.7248  0.5207
    1Sil     Ob  429   3.548   1.002  11.857  1.1238  0.0922 -0.3982
    1Sil     Ob  430   3.099   1.604  11.909  0.1414  0.1068 -0.2030
    1Sil     Ob  431   3.645   1.610  12.278  0.3713 -0.1804 -0.1409
    1Sil     Ob  432   3.459   1.493  11.527 -0.0168  0.1552 -0.3054
    1Sil     Ob  433   3.465   1.435  12.352 -0.5231  0.0071  1.4747
    1Sil     Ob  434   3.220   1.403  11.565 -0.1961  0.5594  0.4023
    1Sil     Ob  435   3.747   1.417  11.961  0.2851 -0.7857  0.4335
    1Sil     Ob  436   3.259   1.188  12.096  0.4885  0.0651 -0.3231
    1Sil     Ob  437   3.845   1.176  11.277  0.2818  0.2758 -0.6368
    1Sil     Ob  438   3.544   1.183  11.679  1.0024  0.2396 -0.5595
    1Sil     Ob  439   3.229   1.358  12.287 -0.3649 -0.2123  0.2043
    1Sil     Ob  440   2.976   1.367  11.487 -0.0128  0.4709  0.6254
    1Sil     Ob  441   3.577   1.240  11.929  0.4102 -0.0343 -0.0954
    1Sil     Ob  442   3.181   1.351  11.904 -0.0284  0.0729 -0.5354
    1Sil     Ob  443   3.708   1.356  12.283 -0.3286  0.1618  0.6898
    1Sil     Ob  444   3.409   1.247  11.474 -0.5874 -0.2376 -0.4243
    1Sil     Ob  445   3.641   1.176  11.437 -0.6811 -0.1482  0.2127
    1Sil     Ob  446   3.045   1.195  12.240 -0.6944  0.5421 -1.1016
    1Sil     Ob  447   3.343   1.165  11.846  0.7326  0.3542  0.0620
    1Sil     Ob  448   3.020   1.442  11.728  0.0060 -0.1426  0.0255
    1Sil     Ob  449   3.549   1.431  12.108  0.1165 -0.7754  0.1558
    1Sil     Ob  450   3.318   1.443  11.325 -0.3250  0.4543  0.5563
    1Sil     Ob  451   3.332   1.605  11.152  0.7577  0.2935 -0.5383
    1Sil     Ob  452   3.914   1.610  10.365 -0.1749 -0.0425 -0.1788
    1Sil     Ob  453   3.570   1.505  10.697  0.4594  0.3116  0.0299
    1Sil     Ob  454   3.145   2.111  10.708  0.2625  0.4515 -0.0973
    1Sil     Ob  455   3.696   2.105  11.091  0.3339  0.3346 -0.2696
    1Sil     Ob  456   3.530   1.989  10.331  0.1739  0.4253  0.8781
    1Sil     Ob  457   3.529   1.926  11.177  0.0810  0.3299  0.4009
    1Sil     Ob  458   3.287   1.922  10.385  0.2269  0.0908 -0.1815
    1Sil     Ob  459   3.819   1.920  10.791  0.1852  0.9036  0.0294
    1Sil     Ob  460   3.305   1.672  10.905 -0.2748 -0.5180  0.3495
    1Sil     Ob  461   3.596   1.675  10.503 -0.0129 -0.5484 -0.4032
    1Sil     Ob  462   3.294   1.848  11.091 -0.7436 -0.5639  0.3689
    1Sil     Ob  463   3.051   1.850  10.292  0.5747  0.5299 -0.3216
    1Sil     Ob  464   3.627   1.742  10.756  0.5109  0.2599  0.1812
    1Sil     Ob  465   3.216   1.858  10.740 -0.0589 -0.7447 -0.4193
    1Sil     Ob  466   3.765   1.858  11.124 -0.1190 -0.1329 -0.0712
    1Sil     Ob  467   3.453   1.750  10.306  0.0177 -0.6337  0.0373
    1Sil     Ob  468   3.693   1.668  10.267  0.2097  0.0611  0.4978
    1Sil     Ob  469   3.108   1.679  11.064 -0.1676 -0.4637  0.3023
    1Sil     Ob  470   3.391   1.679  10.661  0.1362 -0.5160  0.4191
    1Sil     Ob  471   3.064   1.930  10.542  0.5708  0.3416  0.3490
    1Sil     Ob  472   3.606   1.927  10.937 -0.1683 -0.2945  0.1410
    1Sil     Ob  473   3.283   1.608  12.330  0.4625  0.1640  0.7144
    1Sil     Ob  474   3.874   1.598  11.534 -0.3943  0.4105 -0.1782
    1Sil     Ob  475   3.528   1.499  11.858  0.1920  0.0529  0.3222
    1Sil     Ob  476   3.096   2.095  11.904 -0.4674  0.1493 -1.0413
    1Sil     Ob  477   3.629   2.089  12.284 -0.0717 -0.4642 -0.2696
    1Sil     Ob  478   3.462   1.987  11.535 -0.3977  0.4796 -0.1747
    1Sil     Ob  479   3.467   1.909  12.363 -0.2570  0.0392  0.3000
    1Sil     Ob  480   3.218   1.911  11.575 -0.1666  0.3510 -0.3081
    1Sil     Ob  481   3.761   1.910  11.972 -0.6017 -0.4811  0.1033
    1Sil     Ob  482   3.250   1.685  12.088  0.1919  0.3587  0.3533
    1Sil     Ob  483   3.847   1.672  11.287  0.9772 -0.0370 -0.6166
    1Sil     Ob  484   3.535   1.672  11.685  0.0847 -0.0133  0.0099
    1Sil     Ob  485   3.218   1.843  12.292 -0.0050  0.2572  0.4205
    1Sil     Ob  486   2.995   1.855  11.486 -0.1671  0.2530  0.1973
    1Sil     Ob  487   3.571   1.737  11.935  0.5926 -0.0081  0.2611
    1Sil     Ob  488   3.170   1.853  11.917  0.0883 -0.2983  0.0269
    1Sil     Ob  489   3.709   1.848  12.319 -0.5864  0.1394  0.3634
    1Sil     Ob  490   3.397   1.742  11.485  0.1404 -0.3776 -0.2614
    1Sil     Ob  491   3.635   1.660  11.440 -0.3403 -0.1157  0.4719
    1Sil     Ob  492   3.048   1.656  12.262  0.2657  0.0667 -0.6488
    1Sil     Ob  493   3.336   1.669  11.846 -0.2590  0.1118 -0.2199
    1Sil     Ob  494   3.013   1.929  11.727 -0.0564 -0.8681 -0.4011
    1Sil     Ob  495   3.552   1.911  12.120 -0.1791 -0.2035 -0.4741
    1Sil     Ob  496   3.312   1.931  11.329  0.3492  0.4615  0.0289
    1Sil     Ob  497   3.349   2.094  11.127  0.3883 -0.1624  0.4211
    1Sil     Ob  498   3.932   2.101  10.353  0.2307  0.0210  0.6898
    1Sil     Ob  499   3.602   1.983  10.691 -0.0410  0.1882 -0.0404
    1Sil     Ob  500   3.156   2.592  10.703 -0.7137 -0.1541 -0.3019
    1Sil     Ob  501   3.689   2.593  11.109 -0.2276  0.0846 -0.2906
    1Sil     Ob  502   3.523   2.478  10.324 -0.4201 -0.2087 -0.4129
    1Sil     Ob  503   3.507   2.410  11.171  0.3903 -0.1784  0.1345
    1Sil     Ob  504   3.284   2.412  10.382  0.2455  0.2210  0.2126
    1Sil     Ob  505   3.811   2.406  10.778 -0.4150 -0.2330 -0.2733
    1Sil     Ob  506   3.307   2.189  10.890 -0.0335  0.2476  0.1039
    1Sil     Ob  507   3.598   2.167  10.506 -0.2454  0.0127 -0.0069
    1Sil     Ob  508   3.274   2.337  11.091 -0.1225 -0.3755  0.0394
    1Sil     Ob  509   3.050   2.346  10.293 -0.8661  0.3061 -0.3054
    1Sil     Ob  510   3.622   2.236  10.753  0.4314  0.0659 -0.2776
    1Sil     Ob  511   3.233   2.341  10.703  0.4730 -0.0706  0.8116
    1Sil     Ob  512   3.753   2.351  11.119 -0.3865  0.2404  0.6296
    1Sil     Ob  513   3.450   2.230  10.296  0.3187  0.0851 -0.4130
    1Sil     Ob  514   3.698   2.155  10.261 -0.2227  0.2832  0.0335
    1Sil     Ob  515   3.108   2.158  11.048  0.0455  0.3988  0.2548
    1Sil     Ob  516   3.394   2.143  10.653  0.1862 -0.3045  0.5794
    1Sil     Ob  517   3.070   2.424  10.525 -0.0613 -0.7922  0.4736
    1Sil     Ob  518   3.596   2.427  10.924 -0.0968 -0.3775  0.4086
    1Sil     Ob  519   3.291   2.104  12.342  0.0604  0.1112  0.8204
    1Sil     Ob  520   3.877   2.093  11.532 -0.2885  0.5138  1.2445
    1Sil     Ob  521   3.524   1.983  11.876  0.0271 -0.1803  0.2688
    1Sil     Ob  522   3.105   2.587  11.882  0.7941 -0.3030 -0.8352
    1Sil     Ob  523   3.648   2.596  12.270  0.1936  0.2923 -0.4980
    1Sil     Ob  524   3.475   2.488  11.519  0.5896 -0.1167  0.0892
    1Sil     Ob  525   3.470   2.443  12.363 -0.2299  0.6495 -0.0893
    1Sil     Ob  526   3.232   2.429  11.570 -0.2349 -0.2200  0.1313
    1Sil     Ob  527   3.750   2.388  11.958  0.3894  0.2763 -0.5654
    1Sil     Ob  528   3.254   2.167  12.089  0.6691  0.1751 -0.4017
    1Sil     Ob  529   3.840   2.175  11.286 -0.4082  0.8682  0.5232
    1Sil     Ob  530   3.547   2.164  11.692  0.4458  0.3115  0.3774
    1Sil     Ob  531   3.238   2.346  12.274 -0.1570  0.4623  0.2136
    1Sil     Ob  532   3.016   2.348  11.463  0.8467  0.1946 -0.3737
    1Sil     Ob  533   3.563   2.228  11.931 -0.0814 -0.2947 -0.0400
    1Sil     Ob  534   3.169   2.339  11.917  0.6140  0.0668 -0.0712
    1Sil     Ob  535   3.713   2.338  12.308 -0.0575 -0.0973 -0.4679
    1Sil     Ob  536   3.407   2.233  11.500 -0.5664  0.1241 -0.3747
    1Sil     Ob  537   3.642   2.151  11.451 -0.0992  0.4460 -0.2389
    1Sil     Ob  538   3.062   2.169  12.247 -0.3044  0.7294  0.1518
    1Sil     Ob  539   3.335   2.153  11.848 -0.9546  0.2519 -0.4046
    1Sil     Ob  540   3.020   2.418  11.717  0.1164  0.3887 -0.1340
    1Sil     Ob  541   3.550   2.407  12.115  0.1190 -0.2085  0.4822
    1Sil     Ob  542   3.319   2.416  11.336 -0.8201  0.0945  0.4294
    1Sil     Ob  543   3.321   2.591  11.147  0.0994 -0.2333  0.0503
    1Sil     Ob  544   3.904   2.589  10.356  0.2155 -0.9719  0.3755
    1Sil     Ob  545   3.586   2.486  10.687  0.3871 -0.3407 -0.5409
    1Sil     Ob  546   3.163   3.078  10.692 -0.3542 -0.2767 -0.0167
    1Sil     Ob  547   3.693   3.074  11.099  0.3562 -0.0185 -0.3603
    1Sil     Ob  548   3.509   2.973  10.334  0.7450  0.2350 -0.1128
    1Sil     Ob  549   3.514   2.899  11.174 -0.2262  0.3520 -0.9723
    1Sil     Ob  550   3.267   2.881  10.365  0.2585 -0.1768 -0.8015
    1Sil     Ob  551   3.816   2.900  10.782 -0.2180 -0.3842  0.6886
    1Sil     Ob  552   3.314   2.673  10.898  0.5751 -0.0526 -0.2972
    1Sil     Ob  553   3.602   2.659  10.495  0.1706 -0.3715  0.2371
    1Sil     Ob  554   3.283   2.841  11.094 -0.4825  0.2856 -0.1781
    1Sil     Ob  555   3.030   2.839  10.283 -0.0561  0.1599  0.4109
    1Sil     Ob  556   3.630   2.728  10.747 -0.0200 -0.0357  0.3213
    1Sil     Ob  557   3.243   2.834  10.718  0.5423  0.1722 -0.6229
    1Sil     Ob  558   3.766   2.829  11.130  0.0846 -0.1197  0.2275
    1Sil     Ob  559   3.446   2.725  10.301  0.1406  0.2000  0.0325
    1Sil     Ob  560   3.688   2.660  10.254 -0.8192  0.8555 -0.1625
    1Sil     Ob  561   3.103   2.663  11.046  0.0578 -0.1048  0.6182
    1Sil     Ob  562   3.399   2.645  10.654 -0.4355  0.1697  0.1640
    1Sil     Ob  563   3.080   2.911  10.533 -1.0723  0.2673  0.5340
    1Sil     Ob  564   3.610   2.889  10.939  0.1560 -0.1643  0.1268
    1Sil     Ob  565   3.273   2.589  12.326 -0.0259  0.5175 -0.1469
    1Sil     Ob  566   3.872   2.575  11.539  0.1797  0.4520 -0.4482
    1Sil     Ob  567   3.523   2.480  11.873 -0.4510 -0.0554  0.0322
    1Sil     Ob  568   3.097   3.074  11.901  0.1112  0.3074  0.0662
    1Sil     Ob  569   3.637   3.075  12.290  0.0602 -0.3674 -0.4225
    1Sil     Ob  570   3.473   2.979  11.531 -0.1134  0.0355  0.1982
    1Sil     Ob  571   3.454   2.906  12.372 -0.4640  0.2294 -0.2443
    1Sil     Ob  572   3.223   2.921  11.575 -0.3243  0.2553  0.3594
    1Sil     Ob  573   3.759   2.899  11.970  0.4152  0.0633  0.2997
    1Sil     Ob  574   3.246   2.644  12.086 -0.0367 -0.5679 -0.1936
    1Sil     Ob  575   3.855   2.652  11.297  0.4565  0.1210  0.2727
    1Sil     Ob  576   3.563   2.646  11.687  0.7340 -0.5397  0.3759
    1Sil     Ob  577   3.237   2.831  12.269  0.1058  0.0524  0.6559
    1Sil     Ob  578   3.001   2.839  11.473  0.4895 -0.1031  0.0578
    1Sil     Ob  579   3.585   2.724  11.934 -0.1023 -0.0448 -0.1190
    1Sil     Ob  580   3.169   2.829  11.925 -0.1389 -0.0319  0.4695
    1Sil     Ob  581   3.707   2.834  12.324 -0.6544  0.3992 -0.2467
    1Sil     Ob  582   3.407   2.733  11.493  0.1232 -0.1925 -0.2514
    1Sil     Ob  583   3.645   2.651  11.439 -0.0016 -0.0664  0.4769
    1Sil     Ob  584   3.052   2.651  12.246 -0.2473  0.2227  0.5095
    1Sil     Ob  585   3.349   2.665  11.843 -0.2020  0.5794 -0.0529
    1Sil     Ob  586   3.019   2.892  11.728 -0.2553 -0.2202 -0.0578
    1Sil     Ob  587   3.556   2.897  12.120  0.5634 -0.4967  0.0978
    1Sil     Ob  588   3.315   2.913  11.334  0.8442 -0.3361 -0.5093
    1Sil     Ob  589   3.337   3.082  11.150 -0.0907 -0.9490  0.2198
    1Sil     Ob  590   3.920   3.087  10.352  0.3393  0.5474 -0.4603
    1Sil     Ob  591   3.575   2.973  10.701  0.0618  0.1968 -0.2271
    1Sil     Ob  592   3.513  -0.050  11.178  0.2717 -0.2860  0.5535
    1Sil     Ob  593   3.274  -0.056  10.381  0.1949  0.3032  0.0023
    1Sil     Ob  594   3.818  -0.044  10.785  0.9707 -0.3343  0.1810
    1Sil     Ob  595   3.298   3.142  10.899  0.3691 -0.0520 -0.1229
    1Sil     Ob  596   3.605   3.142  10.500 -0.0507 -0.1161  0.2424
    1Sil     Ob  597   3.299   3.321  11.069 -0.2031  0.7373  0.6261
    1Sil     Ob  598   3.030   3.331  10.296 -0.9759  0.5936  0.1519
    1Sil     Ob  599   3.644   3.224  10.740  0.4377 -0.0563 -0.1680
    1Sil     Ob  600   3.226  -0.118  10.741 -0.4073 -0.0242  0.2159
    1Sil     Ob  601   3.758  -0.130  11.136  0.0229 -0.2067  0.0914
    1Sil     Ob  602   3.452  -0.234  10.315  0.3994 -0.6261  0.6854
    1Sil     Ob  603   3.686   3.143  10.260 -0.1724 -0.2193 -0.0407
    1Sil     Ob  604   3.103   3.141  11.061  0.0705  0.5406 -0.0916
    1Sil     Ob  605   3.400   3.168  10.654 -0.0983 -0.7116  0.4295
    1Sil     Ob  606   3.066  -0.062  10.541  0.5519  0.2787  0.0446
    1Sil     Ob  607   3.609  -0.068  10.935  0.2325  0.6850  0.2239
    1Sil     Ob  608   3.270   3.078  12.343  0.3098  0.4782 -0.1483
    1Sil     Ob  609   3.873   3.078  11.540  0.0290  0.2208 -0.0122
    1Sil     Ob  610   3.536   2.973  11.868  0.1275  0.1978 -0.2870
    1Sil     Ob  611   3.473  -0.065  12.369  0.4222 -0.0782  0.5327
    1Sil     Ob  612   3.227  -0.061  11.571  0.0691  0.2581 -0.5603
    1Sil     Ob  613   3.758  -0.056  11.977 -0.2948  0.3238  0.3549
    1Sil     Ob  614   3.260   3.155  12.103  0.8629  0.0823 -0.0344
    1Sil     Ob  615   3.840   3.143  11.300  0.0057 -0.3367  0.2934
    1Sil     Ob  616   3.552   3.157  11.692  0.0382  0.1565 -0.8704
    1Sil     Ob  617   3.228   3.328  12.295 -0.3477 -0.1635  0.4769
    1Sil     Ob  618   2.991   3.316  11.473 -0.3021  0.5784  0.0759
    1Sil     Ob  619   3.569   3.214  11.945  0.5469 -0.1750 -0.1313
    1Sil     Ob  620   3.177  -0.126  11.922 -0.1997  0.4746 -0.5497
    1Sil     Ob  621   3.706  -0.135  12.319  0.1045  0.7596  0.9367
    1Sil     Ob  622   3.392  -0.228  11.494 -0.5209 -0.2085  0.1862
    1Sil     Ob  623   3.632   3.142  11.447 -0.0801  0.1073  0.4811
    1Sil     Ob  624   3.047   3.145  12.248 -0.5204 -0.2529  0.5310
    1Sil     Ob  625   3.347   3.153  11.851 -0.0538  0.1569 -0.3395
    1Sil     Ob  626   3.021  -0.066  11.726  0.1269 -0.2873 -0.0530
    1Sil     Ob  627   3.551  -0.062  12.125 -0.1474  0.4687  0.0198
    1Sil     Ob  628   3.300  -0.058  11.322 -0.0915 -0.2715  0.4885
    1Sil     Ob  629   4.162   0.133  11.149 -0.4061  0.5751  0.7778
    1Sil     Ob  630   4.754   0.117  10.341  0.2835  0.5742  0.4351
    1Sil     Ob  631   3.979   0.612  10.699  0.4386  0.7302 -0.5049
    1Sil     Ob  632   4.518   0.613  11.090  0.1355  0.1473 -0.1226
    1Sil     Ob  633   4.342   0.512  10.332 -0.4548  0.1333  0.1399
    1Sil     Ob  634   4.337   0.449  11.168 -0.0914 -0.6263  0.1771
    1Sil     Ob  635   4.109   0.439  10.381  0.0205  0.3220  0.5690
    1Sil     Ob  636   4.640   0.434  10.783  0.5333  0.7101 -0.7855
    1Sil     Ob  637   4.155   0.199  10.903  0.7464 -0.0359 -0.2307
    1Sil     Ob  638   4.426   0.195  10.487  1.0150  0.2696 -0.0075
    1Sil     Ob  639   4.106   0.377  11.083  0.6021 -1.0903  0.1159
    1Sil     Ob  640   3.873   0.373  10.289  0.0320 -0.4641  0.2974
    1Sil     Ob  641   4.453   0.269  10.736  0.5043  0.0107 -0.4837
    1Sil     Ob  642   4.064   0.368  10.732 -0.5310  0.1058  0.4293
    1Sil     Ob  643   4.586   0.369  11.109  0.0988  0.3967 -0.5735
    1Sil     Ob  644   4.270   0.275  10.287 -0.1902 -0.0180 -0.3486
    1Sil     Ob  645   4.519   0.196  10.251 -0.2888  0.1297 -0.2045
    1Sil     Ob  646   3.935   0.200  11.056  0.0483 -0.2062  0.1261
    1Sil     Ob  647   4.230   0.190  10.659 -0.1322  0.8010  0.2012
    1Sil     Ob  648   3.906   0.433  10.536  0.0799  0.1393  0.5670
    1Sil     Ob  649   4.433   0.441  10.920 -0.2683 -0.4572  0.4440
    1Sil     Ob  650   4.112   0.119  12.339  0.2059  0.1179 -0.1600
    1Sil     Ob  651   4.695   0.127  11.550  0.1669 -0.2765  0.5400
    1Sil     Ob  652   3.933   0.610  11.898  0.0133  0.1670  0.2714
    1Sil     Ob  653   4.448   0.618  12.279 -0.4830  0.3279  0.4935
    1Sil     Ob  654   4.283   0.498  11.523 -0.3444 -0.6562  0.5433
    1Sil     Ob  655   4.298   0.438  12.356  0.1286  0.2240 -0.3181
    1Sil     Ob  656   4.034   0.423  11.565 -0.1153  0.0120  0.6252
    1Sil     Ob  657   4.593   0.440  11.971 -0.5985  0.0050 -0.6079
    1Sil     Ob  658   4.081   0.185  12.090  0.3737 -0.0775 -0.3121
    1Sil     Ob  659   4.675   0.205  11.292  0.4181 -0.4653 -1.0540
    1Sil     Ob  660   4.371   0.201  11.690  0.1463  0.3489  0.2611
    1Sil     Ob  661   4.060   0.362  12.280 -0.4062  0.0320  0.0837
    1Sil     Ob  662   3.807   0.365  11.484 -0.1871 -0.2389 -0.2189
    1Sil     Ob  663   4.403   0.267  11.928  0.0913 -0.3487  0.4005
    1Sil     Ob  664   3.997   0.363  11.920 -0.4290 -0.5452 -0.0927
    1Sil     Ob  665   4.548   0.374  12.297  0.4818  0.6547 -0.1982
    1Sil     Ob  666   4.214   0.259  11.488  0.5294  0.1061 -0.3624
    1Sil     Ob  667   4.474   0.199  11.450  0.2154  0.4245  0.2010
    1Sil     Ob  668   3.875   0.184  12.251  0.0852  0.8684  0.2765
    1Sil     Ob  669   4.170   0.192  11.837  0.4289  0.2409 -0.4721
    1Sil     Ob  670   3.840   0.446  11.731 -0.2491  0.2749 -0.7000
    1Sil     Ob  671   4.373   0.433  12.109  0.2369 -0.1005 -0.2587
    1Sil     Ob  672   4.134   0.442  11.329 -0.2256  0.0932  0.2448
    1Sil     Ob  673   4.160   0.630  11.140 -0.4249 -0.1493  0.4470
    1Sil     Ob  674   4.758   0.629  10.334 -0.1210 -0.2371 -0.1595
    1Sil     Ob  675   4.429   0.514  10.677 -0.5304 -0.1647 -0.5946
    1Sil     Ob  676   3.980   1.117  10.708 -0.0016  0.3878  0.1153
    1Sil     Ob  677   4.524   1.106  11.110 -0.5798 -0.1506 -0.2180
    1Sil     Ob  678   4.346   1.008  10.317  0.0544  0.1068 -0.3570
    1Sil     Ob  679   4.335   0.926  11.176 -0.6027  0.2307 -0.4130
    1Sil     Ob  680   4.107   0.944  10.366  0.3437 -0.4654  0.1133
    1Sil     Ob  681   4.640   0.945  10.776  0.1163 -0.2940  0.0491
    1Sil     Ob  682   4.138   0.700  10.885 -0.5862  0.5933  0.3993
    1Sil     Ob  683   4.437   0.686  10.493 -0.2591  0.1063  0.0826
    1Sil     Ob  684   4.113   0.869  11.081 -0.4976 -0.2838  0.1708
    1Sil     Ob  685   3.869   0.870  10.292  0.2172 -0.3213  0.1172
    1Sil     Ob  686   4.469   0.761  10.742 -0.8849  0.1803  0.6961
    1Sil     Ob  687   4.054   0.867  10.713 -0.0088  0.3775 -0.1610
    1Sil     Ob  688   4.583   0.855  11.143  0.4180  0.6099  0.2699
    1Sil     Ob  689   4.277   0.762  10.304  0.2993 -0.0492  0.1099
    1Sil     Ob  690   4.525   0.677  10.251  0.2020 -0.2756 -0.2216
    1Sil     Ob  691   3.933   0.693  11.058 -0.3207 -0.1182  0.2737
    1Sil     Ob  692   4.231   0.687  10.643  0.0808  0.3061  0.5406
    1Sil     Ob  693   3.907   0.951  10.529  0.3780 -0.5347  0.2692
    1Sil     Ob  694   4.434   0.939  10.925  0.3461 -0.6474  0.1726
    1Sil     Ob  695   4.103   0.612  12.338 -0.7447  0.4363  0.4748
    1Sil     Ob  696   4.698   0.614  11.540 -0.7084 -1.0540 -0.4127
    1Sil     Ob  697   4.358   0.511  11.866  0.6708 -0.2091 -0.2445
    1Sil     Ob  698   3.930   1.105  11.895  0.1375  0.2190  0.1095
    1Sil     Ob  699   4.461   1.111  12.281 -0.0498  0.2246 -0.0752
    1Sil     Ob  700   4.293   0.999  11.509 -0.4617 -0.5492 -0.5527
    1Sil     Ob  701   4.295   0.930  12.354 -0.0522  0.0966  0.2259
    1Sil     Ob  702   4.047   0.914  11.575  0.1032 -0.1039  0.0654
    1Sil     Ob  703   4.580   0.946  11.975  0.3815  0.0259  0.1101
    1Sil     Ob  704   4.084   0.679  12.086 -0.0692  0.0073  0.4610
    1Sil     Ob  705   4.668   0.681  11.293  0.3619  0.2865  0.5896
    1Sil     Ob  706   4.368   0.685  11.680 -0.4008  0.0130 -0.7354
    1Sil     Ob  707   4.060   0.853  12.279 -0.2852 -0.7717 -0.0128
    1Sil     Ob  708   3.800   0.866  11.496 -0.0316  0.5610  0.4829
    1Sil     Ob  709   4.405   0.755  11.934 -0.4548 -0.1727  0.1569
    1Sil     Ob  710   4.011   0.861  11.931 -0.2010  0.2399  0.4884
    1Sil     Ob  711   4.540   0.862  12.297  0.1565  0.2922 -0.6881
    1Sil     Ob  712   4.227   0.757  11.480 -0.1029  0.5240 -0.4437
    1Sil     Ob  713   4.464   0.673  11.444 -0.2849  0.0940  0.1076
    1Sil     Ob  714   3.875   0.681  12.238 -0.2164  0.2617  0.3159
    1Sil     Ob  715   4.179   0.688  11.845 -0.2792  0.2609 -0.4031
    1Sil     Ob  716   3.845   0.933  11.736  0.0457 -0.4401  0.0685
    1Sil     Ob  717   4.376   0.929  12.125 -0.0086  0.3786  0.8025
    1Sil     Ob  718   4.129   0.936  11.332 -0.2696 -0.3348  0.1042
    1Sil     Ob  719   4.165   1.110  11.143  0.3195  0.4317 -0.1605
    1Sil     Ob  720   4.749   1.112  10.356  0.7570  0.8112  0.1109
    1Sil     Ob  721   4.416   1.006  10.664  0.2659  0.0759 -0.7202
    1Sil     Ob  722   3.983   1.613  10.709  0.0052  0.2026  0.0353
    1Sil     Ob  723   4.516   1.601  11.090  0.3355 -0.5106 -0.1999
    1Sil     Ob  724   4.344   1.504  10.308 -0.3979 -0.2454  0.0148
    1Sil     Ob  725   4.349   1.423  11.170 -0.8697  0.1601  0.7438
    1Sil     Ob  726   4.107   1.442  10.394  0.4433  0.0251  0.0159
    1Sil     Ob  727   4.643   1.441  10.774  0.2266 -0.0326  0.3000
    1Sil     Ob  728   4.150   1.188  10.893 -0.0351 -0.7821  0.1738
    1Sil     Ob  729   4.422   1.188  10.486 -0.2862 -0.7747  0.2049
    1Sil     Ob  730   4.113   1.353  11.086 -0.0551 -0.0757  0.0829
    1Sil     Ob  731   3.869   1.370  10.304  0.6709 -0.4402 -0.0218
    1Sil     Ob  732   4.470   1.258  10.727  0.4004  0.4961 -0.7151
    1Sil     Ob  733   4.054   1.363  10.739 -0.0333  0.7084 -0.2950
    1Sil     Ob  734   4.589   1.350  11.128 -0.3562  0.2582  0.7580
    1Sil     Ob  735   4.275   1.263  10.289  0.2015  0.0771 -0.2434
    1Sil     Ob  736   4.522   1.180  10.250 -0.4320 -0.6583 -0.0313
    1Sil     Ob  737   3.936   1.184  11.033  0.0816 -0.7496 -0.3812
    1Sil     Ob  738   4.227   1.193  10.654  0.2038 -0.2422  0.2140
    1Sil     Ob  739   3.904   1.428  10.548  0.2285 -0.0505 -0.5849
    1Sil     Ob  740   4.438   1.412  10.934 -0.0795  0.0422  0.2070
    1Sil     Ob  741   4.116   1.103  12.333  0.1373 -0.0018  0.5123
    1Sil     Ob  742   4.676   1.097  11.550  0.1500 -0.1334 -0.2284
    1Sil     Ob  743   4.349   1.003  11.890 -0.3124  0.5418  0.1035
    1Sil     Ob  744   3.922   1.597  11.905 -0.1050  0.1151 -0.1770
    1Sil     Ob  745   4.472   1.599  12.288  0.0791 -0.3505 -0.2320
    1Sil     Ob  746   4.300   1.491  11.510 -0.1489  0.1362 -0.4289
    1Sil     Ob  747   4.303   1.420  12.351  0.0474  0.7843  0.4467
    1Sil     Ob  748   4.060   1.425  11.568  0.0399  0.0899 -0.6817
    1Sil     Ob  749   4.597   1.422  11.966  0.1017 -0.1979 -0.4434
    1Sil     Ob  750   4.083   1.193  12.096 -0.2689  0.0960 -0.5279
    1Sil     Ob  751   4.676   1.176  11.301  0.1909  0.1592 -0.1038
    1Sil     Ob  752   4.383   1.153  11.691 -0.0973 -0.5233 -0.3712
    1Sil     Ob  753   4.058   1.352  12.305 -0.7353  0.1968 -0.1391
    1Sil     Ob  754   3.831   1.356  11.471 -0.1117 -0.6669 -0.1149
    1Sil     Ob  755   4.413   1.248  11.927  0.4622  0.0032 -0.2563
    1Sil     Ob  756   3.992   1.350  11.924  0.2880 -0.0219  0.5264
    1Sil     Ob  757   4.553   1.355  12.303 -0.6711  0.2436  0.3745
    1Sil     Ob  758   4.222   1.244  11.501 -0.2142 -0.0505  0.1242
    1Sil     Ob  759   4.469   1.184  11.448  0.5292  0.1383 -0.1231
    1Sil     Ob  760   3.881   1.169  12.254  0.0652  0.1235 -0.6115
    1Sil     Ob  761   4.172   1.185  11.845 -0.2300  0.1833 -0.3411
    1Sil     Ob  762   3.852   1.421  11.725  0.1983 -1.1521  0.1923
    1Sil     Ob  763   4.388   1.424  12.110 -0.0784  0.5698  0.8505
    1Sil     Ob  764   4.149   1.422  11.325  0.0102  0.5880 -0.1084
    1Sil     Ob  765   4.172   1.606  11.140 -0.8365 -0.0874 -0.1702
    1Sil     Ob  766   4.753   1.605  10.349  0.1544 -0.5374 -0.8539
    1Sil     Ob  767   4.401   1.494  10.695 -0.3542 -0.7045  0.0610
    1Sil     Ob  768   3.972   2.106  10.701  0.1222 -0.0617 -0.2512
    1Sil     Ob  769   4.524   2.101  11.087 -0.3454 -0.8719  0.2690
    1Sil     Ob  770   4.350   2.002  10.325 -0.3909  0.2851 -0.0174
    1Sil     Ob  771   4.360   1.947  11.179 -0.2431  0.9276  0.3665
    1Sil     Ob  772   4.111   1.931  10.387 -0.2514  0.1791  0.2563
    1Sil     Ob  773   4.643   1.927  10.780 -0.2885 -0.3302  0.5064
    1Sil     Ob  774   4.130   1.671  10.903  0.2842  0.1515 -0.4074
    1Sil     Ob  775   4.428   1.673  10.496 -0.0684  0.2305  0.3370
    1Sil     Ob  776   4.142   1.856  11.080  0.1440  0.1249 -0.1221
    1Sil     Ob  777   3.878   1.850  10.293  0.3348 -0.6441  0.3684
    1Sil     Ob  778   4.465   1.748  10.740  0.2017  0.2689 -0.0692
    1Sil     Ob  779   4.063   1.858  10.730  0.6176 -0.4598  0.7215
    1Sil     Ob  780   4.588   1.853  11.105  0.0985 -0.3981 -0.0895
    1Sil     Ob  781   4.273   1.754  10.290  0.6491  0.1748  0.1819
    1Sil     Ob  782   4.520   1.673  10.248 -0.2041  0.1523  0.1286
    1Sil     Ob  783   3.942   1.687  11.049 -0.3424 -0.4306  0.0152
    1Sil     Ob  784   4.231   1.676  10.656 -0.2159 -0.3406 -0.5376
    1Sil     Ob  785   3.905   1.930  10.541  0.2550  0.0907 -0.4255
    1Sil     Ob  786   4.424   1.923  10.920 -0.1842 -0.5666  0.1938
    1Sil     Ob  787   4.116   1.596  12.336  0.0694  0.1082 -0.1144
    1Sil     Ob  788   4.707   1.604  11.531 -0.0830  0.7002 -0.0628
    1Sil     Ob  789   4.366   1.494  11.868 -0.3937 -0.1233 -0.3672
    1Sil     Ob  790   3.932   2.085  11.896 -0.4683  0.0532 -0.4593
    1Sil     Ob  791   4.485   2.094  12.266  0.2958  0.1884 -0.1886
    1Sil     Ob  792   4.301   1.987  11.534 -0.1391  0.2433  0.4954
    1Sil     Ob  793   4.311   1.926  12.355  0.8608 -0.3996  0.3139
    1Sil     Ob  794   4.056   1.918  11.576  0.0895  0.0993 -0.4217
    1Sil     Ob  795   4.591   1.912  11.962 -0.3535  0.0582  0.1570
    1Sil     Ob  796   4.094   1.661  12.088  0.3863  0.1825  0.1746
    1Sil     Ob  797   4.669   1.682  11.284  0.1494 -1.2687  0.0411
    1Sil     Ob  798   4.389   1.654  11.690  0.1791 -0.1621  0.3032
    1Sil     Ob  799   4.082   1.843  12.260  0.0769 -0.1041  0.0114
    1Sil     Ob  800   3.826   1.844  11.483 -0.5151 -0.1770  0.0739
    1Sil     Ob  801   4.398   1.733  11.932  0.6275  0.3651  0.4077
    1Sil     Ob  802   4.005   1.835  11.931  0.5884  0.4957 -0.3995
    1Sil     Ob  803   4.551   1.844  12.305  0.4025  0.5652  0.6817
    1Sil     Ob  804   4.230   1.742  11.491  0.2496  0.5485  0.3319
    1Sil     Ob  805   4.473   1.670  11.447 -0.0443 -0.6728 -0.2764
    1Sil     Ob  806   3.894   1.675  12.244  0.2971  0.2534  0.1312
    1Sil     Ob  807   4.170   1.665  11.847  0.1587  0.2206  0.3374
    1Sil     Ob  808   3.858   1.917  11.730  0.2625  0.5843 -0.4150
    1Sil     Ob  809   4.386   1.915  12.114  0.1211 -0.0361 -0.4848
    1Sil     Ob  810   4.146   1.913  11.330  0.2504  0.2684 -0.5537
    1Sil     Ob  811   4.156   2.104  11.153  0.0162  0.2178 -0.5939
    1Sil     Ob  812   4.751   2.104  10.350  0.5668 -0.7081 -0.3266
    1Sil     Ob  813   4.415   1.989  10.668  0.2525 -0.5152  0.2952
    1Sil     Ob  814   3.972   2.593  10.696  0.3294  0.0479 -0.1376
    1Sil     Ob  815   4.516   2.591  11.089 -0.1451  0.3008 -0.1789
    1Sil     Ob  816   4.341   2.490  10.319 -0.5019 -0.8396  0.3526
    1Sil     Ob  817   4.350   2.413  11.174 -0.0113 -0.0601 -0.0530
    1Sil     Ob  818   4.104   2.421  10.380  0.6093 -0.3239  0.0312
    1Sil     Ob  819   4.643   2.405  10.771  0.0758 -0.7534  0.6539
    1Sil     Ob  820   4.133   2.158  10.892 -0.4751 -0.0344 -0.6236
    1Sil     Ob  821   4.417   2.184  10.493 -0.2509 -0.0507 -0.0907
    1Sil     Ob  822   4.118   2.342  11.089  0.5761 -0.1079 -0.5274
    1Sil     Ob  823   3.878   2.355  10.290  0.6546  0.3415 -0.3659
    1Sil     Ob  824   4.455   2.228  10.746  0.6274 -0.2097 -0.0661
    1Sil     Ob  825   4.053   2.348  10.739  0.4419  0.2774 -0.0019
    1Sil     Ob  826   4.584   2.349  11.130 -0.2074  0.1538  0.1816
    1Sil     Ob  827   4.284   2.251  10.277  0.6247  0.0958 -0.4192
    1Sil     Ob  828   4.525   2.180  10.251  0.9402 -0.4022 -0.0357
    1Sil     Ob  829   3.938   2.177  11.054 -0.3909 -0.6783  0.3607
    1Sil     Ob  830   4.217   2.169  10.645 -0.0085  0.0890 -0.3848
    1Sil     Ob  831   3.905   2.407  10.536  0.4357  0.0766 -0.4089
    1Sil     Ob  832   4.432   2.397  10.932 -0.2492  0.0549 -0.3503
    1Sil     Ob  833   4.109   2.086  12.341  0.3184 -0.4136  0.3858
    1Sil     Ob  834   4.704   2.083  11.536  0.1508  0.3260 -0.0574
    1Sil     Ob  835   4.360   1.987  11.874 -0.2860  0.3697  0.2479
    1Sil     Ob  836   3.909   2.578  11.898  0.4051 -0.3366  0.3136
    1Sil     Ob  837   4.471   2.584  12.306  0.5932  0.4447 -0.7322
    1Sil     Ob  838   4.295   2.485  11.528 -0.0186  0.4989 -0.3757
    1Sil     Ob  839   4.293   2.406  12.358  0.0627  0.1634  0.7692
    1Sil     Ob  840   4.049   2.406  11.574  0.4191 -0.6089 -0.3739
    1Sil     Ob  841   4.590   2.400  11.971 -0.3372 -0.4733 -0.3164
    1Sil     Ob  842   4.077   2.156  12.089 -0.4353 -0.3708 -0.1814
    1Sil     Ob  843   4.667   2.161  11.293 -0.3073  0.0256 -0.0796
    1Sil     Ob  844   4.375   2.172  11.696 -0.7064 -0.0480  0.1212
    1Sil     Ob  845   4.062   2.326  12.279 -0.5730  0.2143 -0.0430
    1Sil     Ob  846   3.819   2.338  11.479  0.3025  0.1502 -0.0753
    1Sil     Ob  847   4.399   2.239  11.947  0.7716 -0.2441 -0.3552
    1Sil     Ob  848   3.998   2.336  11.919  0.8515 -0.2572  0.1113
    1Sil     Ob  849   4.541   2.346  12.320 -0.5457  0.4818 -0.3520
    1Sil     Ob  850   4.224   2.232  11.492  0.1865  0.2662  0.4419
    1Sil     Ob  851   4.473   2.156  11.453 -0.2195  0.1879  0.3391
    1Sil     Ob  852   3.884   2.150  12.258  0.5999 -0.3666  0.1689
    1Sil     Ob  853   4.171   2.166  11.850  0.1540 -0.3198  0.3129
    1Sil     Ob  854   3.830   2.401  11.728 -0.5172 -0.0077 -0.2425
    1Sil     Ob  855   4.389   2.426  12.117 -0.0374  0.1770 -0.0524
    1Sil     Ob  856   4.142   2.422  11.328  0.3709 -0.0827 -0.6749
    1Sil     Ob  857   4.170   2.591  11.142  0.3185  0.0709  1.0883
    1Sil     Ob  858   4.753   2.595  10.344  0.0705  0.3747  0.3279
    1Sil     Ob  859   4.413   2.475  10.692  0.2206 -0.1558 -0.0750
    1Sil     Ob  860   3.983   3.080  10.713 -0.5987  0.0809 -0.3593
    1Sil     Ob  861   4.516   3.084  11.109 -0.3950 -0.1713  0.4362
    1Sil     Ob  862   4.353   2.988  10.317  0.0404 -0.7157 -0.0079
    1Sil     Ob  863   4.348   2.906  11.172  0.3605 -0.0209  0.5342
    1Sil     Ob  864   4.104   2.920  10.387  0.2509  0.0251  0.5110
    1Sil     Ob  865   4.644   2.893  10.771 -0.2383  0.2728 -0.0273
    1Sil     Ob  866   4.146   2.657  10.888 -0.3480  0.6168 -0.2011
    1Sil     Ob  867   4.439   2.645  10.508 -0.4902 -0.0152 -0.0979
    1Sil     Ob  868   4.117   2.832  11.081 -0.3093 -0.1819  0.4980
    1Sil     Ob  869   3.865   2.841  10.293 -0.6596  0.3257 -0.1905
    1Sil     Ob  870   4.452   2.723  10.757  0.0287 -0.3205  0.2331
    1Sil     Ob  871   4.053   2.838  10.732 -0.0363  0.0040  0.2673
    1Sil     Ob  872   4.585   2.833  11.122 -0.3711 -0.0940 -0.1858
    1Sil     Ob  873   4.277   2.737  10.334 -0.6402  0.4742  0.3263
    1Sil     Ob  874   4.522   2.673  10.262  0.4256  0.0089  0.5917
    1Sil     Ob  875   3.937   2.651  11.053 -0.2726 -0.0864  0.3733
    1Sil     Ob  876   4.229   2.647  10.654  0.4072 -0.2950 -0.1026
    1Sil     Ob  877   3.896   2.909  10.533  0.0675  0.4881  0.1491
    1Sil     Ob  878   4.432   2.899  10.928  0.7859  0.3481  0.0706
    1Sil     Ob  879   4.106   2.578  12.322 -0.3075 -0.3580 -0.4494
    1Sil     Ob  880   4.686   2.583  11.535  0.7821 -0.1338  0.2113
    1Sil     Ob  881   4.364   2.475  11.872  0.1764  0.0213  0.2874
    1Sil     Ob  882   3.928   3.077  11.902 -0.3670 -0.4674 -0.4285
    1Sil     Ob  883   4.479   3.077  12.287  0.1266  0.1291 -0.1102
    1Sil     Ob  884   4.297   2.977  11.521 -0.1266 -0.9223 -0.2858
    1Sil     Ob  885   4.313   2.919  12.367  0.2321  0.7825  0.1406
    1Sil     Ob  886   4.057   2.907  11.568 -0.1272 -0.2453 -0.5963
    1Sil     Ob  887   4.584   2.890  11.961 -0.1071  0.4816  0.0999
    1Sil     Ob  888   4.080   2.647  12.075 -0.0422  0.5072 -0.3142
    1Sil     Ob  889   4.663   2.665  11.286  0.4001 -0.7936 -0.4010
    1Sil     Ob  890   4.363   2.659  11.690  0.3559 -0.3517  0.2365
    1Sil     Ob  891   4.097   2.826  12.256  0.5829 -0.9651  0.1605
    1Sil     Ob  892   3.833   2.828  11.485  0.8534  0.0560 -0.2996
    1Sil     Ob  893   4.383   2.719  11.937  0.3750 -0.1205  0.3462
    1Sil     Ob  894   4.002   2.820  11.916 -0.1129 -0.3193 -0.5130
    1Sil     Ob  895   4.552   2.835  12.336  0.1004 -0.1963 -0.2622
    1Sil     Ob  896   4.214   2.724  11.494 -0.4751  0.2300 -0.3706
    1Sil     Ob  897   4.456   2.642  11.440  0.1559 -0.0961 -0.0982
    1Sil     Ob  898   3.882   2.677  12.231 -0.0008  0.2884 -0.0237
    1Sil     Ob  899   4.158   2.627  11.840  0.5284 -0.4373  0.1336
    1Sil     Ob  900   3.858   2.904  11.729  0.2590 -0.4719  0.3255
    1Sil     Ob  901   4.389   2.883  12.132  0.6319  0.0163 -0.3307
    1Sil     Ob  902   4.135   2.907  11.321  0.0586  0.2399  0.4666
    1Sil     Ob  903   4.165   3.083  11.140 -0.0293 -0.0977  0.2865
    1Sil     Ob  904   4.712   3.081  10.356 -0.0474  0.0579 -0.1146
    1Sil     Ob  905   4.421   2.974  10.667 -0.2308  0.4292 -0.0808
    1Sil     Ob  906   4.342  -0.056  11.171  0.4023  0.0616 -0.1378
    1Sil     Ob  907   4.089  -0.036  10.378 -0.0946  0.0629 -0.4617
    1Sil     Ob  908   4.640  -0.050  10.781 -0.1646 -0.1952  0.1896
    1Sil     Ob  909   4.140   3.154  10.893  0.0013  0.2879 -0.1483
    1Sil     Ob  910   4.426   3.159  10.501 -1.5019 -0.4264 -0.0331
    1Sil     Ob  911   4.112   3.338  11.082  0.1825  0.0774  0.3006
    1Sil     Ob  912   3.873   3.330  10.293  0.9784  0.2598 -0.1307
    1Sil     Ob  913   4.452   3.223  10.752 -0.5756  0.3561 -0.0704
    1Sil     Ob  914   4.059  -0.124  10.734 -0.2005 -0.6674 -0.5598
    1Sil     Ob  915   4.593  -0.118  11.116 -0.4729  0.7828  0.2924
    1Sil     Ob  916   4.257  -0.218  10.322 -0.6512 -0.3809 -0.0874
    1Sil     Ob  917   4.498   3.186  10.258  0.2179  0.3511  0.1613
    1Sil     Ob  918   3.935   3.158  11.054 -0.3284  0.0426  0.1162
    1Sil     Ob  919   4.226   3.144  10.653 -0.1752  0.5134  0.3489
    1Sil     Ob  920   3.901  -0.049  10.546 -0.0791  0.4742  0.3009
    1Sil     Ob  921   4.433  -0.034  10.934 -0.1389  0.0846 -0.3741
    1Sil     Ob  922   4.110   3.080  12.342  0.2833  0.7411  0.2472
    1Sil     Ob  923   4.701   3.080  11.525 -0.0104  0.4783  0.0601
    1Sil     Ob  924   4.343   2.972  11.885 -0.3942 -0.1867  0.0234
    1Sil     Ob  925   4.297  -0.054  12.370  0.1445 -0.3752 -0.3590
    1Sil     Ob  926   4.047  -0.045  11.581  0.3732  0.2847  0.1508
    1Sil     Ob  927   4.581  -0.041  11.979 -0.3262 -0.0257  0.0838
    1Sil     Ob  928   4.093   3.156  12.100  0.4134 -0.0566  0.5336
    1Sil     Ob  929   4.667   3.169  11.295 -0.3547  0.3172  0.1427
    1Sil     Ob  930   4.376   3.147  11.697 -0.4933  0.1108  0.5308
    1Sil     Ob  931   4.051   3.332  12.293 -0.5393  0.4982 -0.2234
    1Sil     Ob  932   3.822   3.324  11.477  0.5736  0.2781 -0.3017
    1Sil     Ob  933   4.410   3.216  11.947  0.1817 -0.3805  0.0329
    1Sil     Ob  934   4.002  -0.117  11.929  0.8592 -0.6918 -0.1006
    1Sil     Ob  935   4.544  -0.128  12.326  0.5090 -0.2613  0.5784
    1Sil     Ob  936   4.220  -0.225  11.501  0.3975 -0.5018  0.4518
    1Sil     Ob  937   4.465   3.144  11.447 -0.3343 -0.8722 -0.5323
    1Sil     Ob  938   3.882   3.140  12.247  0.0538  0.1801 -0.7728
    1Sil     Ob  939   4.168   3.161  11.849 -0.0397  0.4941  0.6774
    1Sil     Ob  940   3.844  -0.054  11.728  0.7301 -0.6629  0.2274
    1Sil     Ob  941   4.382  -0.045  12.130  0.0109 -0.4497 -0.3687
    1Sil     Ob  942   4.137  -0.048  11.326 -0.0583  0.0036 -0.1409
    1Sil     Ob  943   4.990   0.123  11.146  0.2596  0.5831  0.4650
    1Sil     Ob  944   4.813   0.622  10.710 -0.1595  0.0388  0.4210
    1Sil     Ob  945   5.350   0.623  11.096  0.3296  0.4719  0.6226
    1Sil     Ob  946   5.176   0.518  10.329  0.4528 -0.1028  0.6744
    1Sil     Ob  947   5.171   0.448  11.172 -0.3519  0.5404  0.0488
    1Sil     Ob  948   4.931   0.461  10.375 -0.3710 -0.1524  0.0596
    1Sil     Ob  949   2.151   0.450  10.781  0.2244 -0.2592  0.6688
    1Sil     Ob  950   4.963   0.193  10.893 -0.3964  0.3820 -0.2124
    1Sil     Ob  951   1.948   0.185  10.509 -0.3006 -0.5945  0.8083
    1Sil     Ob  952   4.942   0.370  11.087  0.0366 -0.2418  0.0304
    1Sil     Ob  953   4.698   0.375  10.292  0.2412  0.6118 -0.0687
    1Sil     Ob  954   1.971   0.262  10.748  0.0316 -0.4291  0.0588
    1Sil     Ob  955   4.881   0.376  10.728  0.1237  0.1463  0.2280
    1Sil     Ob  956   5.418   0.371  11.118 -0.0768 -0.4942 -0.3391
    1Sil     Ob  957   5.104   0.263  10.330  0.3988  0.0294  0.0686
    1Sil     Ob  958   2.034   0.187  10.265  0.5519 -0.5346 -0.1062
    1Sil     Ob  959   4.758   0.200  11.048  0.5340 -0.7830  0.3962
    1Sil     Ob  960   1.737   0.182  10.657 -0.0763 -0.7833 -0.0944
    1Sil     Ob  961   4.721   0.462  10.528 -0.1045  0.2016  0.1084
    1Sil     Ob  962   5.257   0.449  10.931  0.2957  0.0201 -0.5522
    1Sil     Ob  963   4.961   0.128  12.341  0.4054  0.2953  0.3167
    1Sil     Ob  964   4.758   0.618  11.897  0.2031 -0.0490  0.1092
    1Sil     Ob  965   5.305   0.615  12.281 -0.4852  0.4283  0.2702
    1Sil     Ob  966   5.129   0.521  11.521 -0.2585 -0.6045  0.6390
    1Sil     Ob  967   5.128   0.444  12.365  0.2755 -1.1080 -0.0145
    1Sil     Ob  968   4.890   0.440  11.573  0.4128  0.5772 -0.5140
    1Sil     Ob  969   2.094   0.425  11.967 -0.4080 -0.2494 -0.6818
    1Sil     Ob  970   4.920   0.196  12.100 -0.4140 -0.1430  0.0323
    1Sil     Ob  971   2.178   0.202  11.286 -0.4850  0.0660 -0.0156
    1Sil     Ob  972   1.884   0.194  11.685  0.2501  0.4231 -0.2202
    1Sil     Ob  973   4.896   0.369  12.282 -0.0846  0.0536  0.1987
    1Sil     Ob  974   4.649   0.372  11.487 -0.0053  0.3820 -0.5372
    1Sil     Ob  975   1.907   0.256  11.932  0.8687  0.0969  0.0231
    1Sil     Ob  976   4.829   0.376  11.928  0.2508  0.7868 -0.4804
    1Sil     Ob  977   5.383   0.373  12.316  0.0196 -0.5093 -0.0211
    1Sil     Ob  978   5.059   0.271  11.486 -0.5147 -0.1167 -0.1966
    1Sil     Ob  979   1.976   0.191  11.438 -0.3677 -0.1790  0.1635
    1Sil     Ob  980   4.721   0.190  12.271  0.0211  0.9687 -0.0670
    1Sil     Ob  981   1.674   0.184  11.849 -0.1493 -0.1761 -0.4286
    1Sil     Ob  982   4.682   0.438  11.726  0.7026  0.1608  0.0011
    1Sil     Ob  983   5.219   0.423  12.124 -0.1611 -0.3129  0.5911
    1Sil     Ob  984   4.971   0.460  11.338 -0.4558  0.4008  0.5886
    1Sil     Ob  985   4.995   0.623  11.140  0.5054 -0.0803  0.0639
    1Sil     Ob  986   1.938   0.510  10.677  0.3781  0.4291  0.7598
    1Sil     Ob  987   4.817   1.114  10.680  0.4201 -0.2379  0.0712
    1Sil     Ob  988   5.334   1.104  11.084  0.2458 -0.4096 -0.1696
    1Sil     Ob  989   5.171   1.006  10.336  0.0774  0.2839  0.0791
    1Sil     Ob  990   5.166   0.932  11.172 -0.2134 -0.5196  0.2718
    1Sil     Ob  991   4.925   0.935  10.388  0.6712 -0.0828 -0.1014
    1Sil     Ob  992   2.154   0.937  10.772 -0.2414 -0.6796  0.3122
    1Sil     Ob  993   4.964   0.692  10.891 -0.9255  0.0862 -0.0461
    1Sil     Ob  994   1.938   0.682  10.492  0.1602  0.2280 -0.8597
    1Sil     Ob  995   4.937   0.869  11.081  0.4097  0.1727  0.3855
    1Sil     Ob  996   4.704   0.866  10.278 -0.2170 -0.3245  0.1421
    1Sil     Ob  997   1.969   0.753  10.745 -0.1665 -0.3751  0.0431
    1Sil     Ob  998   4.885   0.866  10.735  0.1814 -0.0736  0.1439
    1Sil     Ob  999   5.416   0.869  11.137  0.3915 -0.2961  0.2907
    1Sil     Ob 1000   5.105   0.767  10.296  0.2983  0.3492  0.3257
    1Sil     Ob 1001   2.027   0.688  10.241  0.2574  0.5271 -0.5489
    1Sil     Ob 1002   4.760   0.689  11.048  0.2003 -0.4944 -0.8394
    1Sil     Ob 1003   1.735   0.682  10.649  0.0133  0.3750 -0.4847
    1Sil     Ob 1004   4.730   0.932  10.532  0.1567  0.0433  0.4809
    1Sil     Ob 1005   5.261   0.925  10.930  0.0886 -0.2509  0.0341
    1Sil     Ob 1006   4.935   0.625  12.337 -0.6927  0.5981 -0.2052
    1Sil     Ob 1007   1.859   0.509  11.876 -0.2670 -0.2799 -0.4578
    1Sil     Ob 1008   4.766   1.107  11.885  0.1571  0.4866 -0.0634
    1Sil     Ob 1009   5.310   1.103  12.281 -0.0004  0.3031  0.4807
    1Sil     Ob 1010   5.126   1.001  11.513  0.8321  0.1861 -0.9430
    1Sil     Ob 1011   5.126   0.930  12.358 -0.1898 -0.1806  0.9158
    1Sil     Ob 1012   4.878   0.941  11.575 -0.7131  0.1151 -0.1279
    1Sil     Ob 1013   2.108   0.929  11.966  0.1259  0.5705  0.6518
    1Sil     Ob 1014   4.906   0.709  12.088 -0.4481  1.1738 -0.6279
    1Sil     Ob 1015   2.181   0.693  11.296  0.3946  0.1369 -0.0872
    1Sil     Ob 1016   1.882   0.685  11.690  0.4177 -0.0065 -0.1670
    1Sil     Ob 1017   4.874   0.864  12.291  0.4154  0.4169  0.0663
    1Sil     Ob 1018   4.653   0.857  11.478  0.2830 -0.5544  0.1246
    1Sil     Ob 1019   1.917   0.758  11.929 -0.3880 -0.3501 -0.1632
    1Sil     Ob 1020   4.822   0.867  11.926 -0.3625 -0.3966 -0.0190
    1Sil     Ob 1021   5.374   0.855  12.309 -0.4073  0.1006 -0.4717
    1Sil     Ob 1022   5.049   0.762  11.492  0.0867  0.3485 -0.6384
    1Sil     Ob 1023   1.977   0.693  11.448 -0.1640  0.0461  0.2565
    1Sil     Ob 1024   4.696   0.678  12.242 -0.0860 -0.7653 -0.1775
    1Sil     Ob 1025   1.676   0.687  11.849 -0.3617  0.2424  0.0103
    1Sil     Ob 1026   4.674   0.922  11.727  0.2005 -0.4476 -0.5597
    1Sil     Ob 1027   5.218   0.922  12.118 -0.1203 -0.1367  0.1298
    1Sil     Ob 1028   4.961   0.935  11.322  0.2821 -0.3371 -0.1533
    1Sil     Ob 1029   4.989   1.115  11.134 -0.1254 -0.6035 -0.1256
    1Sil     Ob 1030   1.913   1.009  10.686 -0.4767 -0.6442  0.8262
    1Sil     Ob 1031   4.818   1.608  10.690  0.0110 -0.0375 -0.2332
    1Sil     Ob 1032   5.346   1.592  11.097  0.5151 -0.0951 -0.1342
    1Sil     Ob 1033   5.180   1.504  10.327 -0.3236  0.3592  0.5235
    1Sil     Ob 1034   5.171   1.423  11.158 -0.1979  0.1608  0.4588
    1Sil     Ob 1035   4.941   1.437  10.377  0.0913 -0.0702  0.2830
    1Sil     Ob 1036   2.156   1.428  10.766 -0.2120 -0.6066  0.3078
    1Sil     Ob 1037   4.955   1.173  10.887  0.3032 -1.0427  0.0883
    1Sil     Ob 1038   1.940   1.172  10.501  0.6250 -0.2174  0.3377
    1Sil     Ob 1039   4.941   1.362  11.069  0.7658  0.2197 -0.2481
    1Sil     Ob 1040   4.709   1.360  10.287  0.1469 -0.1844 -0.5604
    1Sil     Ob 1041   1.966   1.254  10.739  0.0590 -0.0345 -0.3047
    1Sil     Ob 1042   4.884   1.362  10.730  0.2412  0.1969 -0.4882
    1Sil     Ob 1043   5.415   1.348  11.113  0.3565  0.7039 -0.2465
    1Sil     Ob 1044   5.101   1.256  10.311 -1.0414  0.1010  0.8184
    1Sil     Ob 1045   2.030   1.182  10.257 -0.3771  0.2658 -0.1880
    1Sil     Ob 1046   4.759   1.179  11.047 -0.1000  0.1713 -0.2277
    1Sil     Ob 1047   1.733   1.192  10.642 -0.3367  0.6315 -0.9735
    1Sil     Ob 1048   4.741   1.425  10.528  0.1360 -0.1037  0.5619
    1Sil     Ob 1049   5.266   1.438  10.915  0.2711  0.2671 -0.0895
    1Sil     Ob 1050   4.947   1.113  12.328 -0.3441 -0.0476  0.3115
    1Sil     Ob 1051   1.869   1.010  11.871  0.2775  0.1524 -0.0857
    1Sil     Ob 1052   4.759   1.595  11.900 -0.1453  0.4528 -0.0808
    1Sil     Ob 1053   5.301   1.602  12.278  0.1683 -0.2365  0.2362
    1Sil     Ob 1054   5.141   1.488  11.516  0.2009  0.1609 -0.1828
    1Sil     Ob 1055   5.122   1.434  12.349  0.5365 -0.0854  0.3731
    1Sil     Ob 1056   4.886   1.428  11.563 -0.8816  0.2793  0.6702
    1Sil     Ob 1057   2.107   1.427  11.973  0.4348 -0.1090 -0.3366
    1Sil     Ob 1058   4.912   1.174  12.083  0.0838 -0.2330  0.4518
    1Sil     Ob 1059   2.173   1.174  11.280  0.0304 -0.2185 -0.5368
    1Sil     Ob 1060   1.890   1.180  11.683  0.7435 -0.3131  0.6165
    1Sil     Ob 1061   4.896   1.362  12.266 -0.1473  0.7104 -0.1890
    1Sil     Ob 1062   4.651   1.345  11.488 -0.6386 -0.0451  0.0065
    1Sil     Ob 1063   1.928   1.243  11.932  0.4302 -0.9263 -0.9087
    1Sil     Ob 1064   4.842   1.346  11.912  0.5480  0.5149  0.1403
    1Sil     Ob 1065   5.370   1.351  12.319  0.0174 -0.1527  0.0160
    1Sil     Ob 1066   5.044   1.242  11.496  0.2581  0.2732 -0.2517
    1Sil     Ob 1067   1.973   1.187  11.432 -0.0517 -0.2967 -0.3077
    1Sil     Ob 1068   4.718   1.174  12.240  0.2700 -0.0814 -0.5097
    1Sil     Ob 1069   1.687   1.182  11.839  0.3245 -0.6204 -0.7368
    1Sil     Ob 1070   4.684   1.427  11.719 -0.2667 -0.1335  0.0193
    1Sil     Ob 1071   5.218   1.417  12.113 -0.7412 -0.0304  0.0420
    1Sil     Ob 1072   4.977   1.417  11.318  0.0653 -0.1081  0.6148
    1Sil     Ob 1073   4.989   1.603  11.142  0.0409  0.1754 -0.1125
    1Sil     Ob 1074   1.939   1.509  10.667 -0.7567 -0.1382  0.1528
    1Sil     Ob 1075   4.820   2.106  10.721 -0.3394  0.0022  0.0430
    1Sil     Ob 1076   5.352   2.096  11.089  0.3190  0.3610 -0.3201
    1Sil     Ob 1077   5.178   1.992  10.337  0.9211  0.2018 -0.3150
    1Sil     Ob 1078   5.178   1.912  11.172  0.5885  0.2406 -0.0717
    1Sil     Ob 1079   4.936   1.931  10.386 -0.4071  0.3305 -0.4522
    1Sil     Ob 1080   2.160   1.931  10.767 -0.4318  0.7098  0.4041
    1Sil     Ob 1081   4.965   1.671  10.892 -0.1068 -0.4529  0.6134
    1Sil     Ob 1082   1.944   1.691  10.492 -0.2381  0.4708  0.1382
    1Sil     Ob 1083   4.954   1.849  11.073 -0.4054  0.1859  0.1547
    1Sil     Ob 1084   4.710   1.856  10.295  0.4155  0.2556 -0.2260
    1Sil     Ob 1085   1.979   1.752  10.738 -0.3417  1.0267 -0.0166
    1Sil     Ob 1086   4.899   1.855  10.722 -0.1950 -0.2581 -0.3464
    1Sil     Ob 1087   5.422   1.845  11.121  0.0082  0.1714  0.2017
    1Sil     Ob 1088   5.102   1.754  10.293 -0.2045  0.6178 -0.1078
    1Sil     Ob 1089   2.022   1.684  10.246  0.4008  0.8959  0.1555
    1Sil     Ob 1090   4.758   1.675  11.061  0.2817 -0.2353 -0.1702
    1Sil     Ob 1091   1.741   1.675  10.645 -0.2579 -0.0182  0.1700
    1Sil     Ob 1092   4.733   1.939  10.545 -0.0236 -0.2000 -0.0696
    1Sil     Ob 1093   5.266   1.918  10.928  0.0346  0.1141  0.1704
    1Sil     Ob 1094   4.947   1.612  12.337  0.0562  0.2692  0.3574
    1Sil     Ob 1095   1.872   1.486  11.873  0.5553  0.3947  0.2593
    1Sil     Ob 1096   4.769   2.088  11.898  0.1814 -0.2831  0.1268
    1Sil     Ob 1097   5.306   2.098  12.281 -0.3853 -0.1742  0.0020
    1Sil     Ob 1098   5.113   1.985  11.527  0.1703 -0.2542 -0.0308
    1Sil     Ob 1099   5.131   1.926  12.370  0.4547  0.6388  0.1142
    1Sil     Ob 1100   4.877   1.907  11.571  0.1548  0.5624  0.6255
    1Sil     Ob 1101   2.101   1.904  11.973 -0.3507 -0.2970  0.0974
    1Sil     Ob 1102   4.918   1.674  12.092 -0.1424 -0.0945 -0.2157
    1Sil     Ob 1103   2.185   1.671  11.293 -0.0090  0.1598 -0.2979
    1Sil     Ob 1104   1.902   1.660  11.692 -0.3343 -0.4547  0.0775
    1Sil     Ob 1105   4.900   1.860  12.279 -0.3082  0.2225 -0.1152
    1Sil     Ob 1106   4.647   1.847  11.469  0.3963  0.2717 -0.1807
    1Sil     Ob 1107   1.915   1.733  11.937 -0.3730 -0.0130  0.1922
    1Sil     Ob 1108   4.824   1.839  11.920 -0.3871 -1.3371 -0.6679
    1Sil     Ob 1109   5.367   1.845  12.320  0.5728 -0.5011  0.6898
    1Sil     Ob 1110   5.063   1.737  11.492  0.3820 -0.0962 -0.0695
    1Sil     Ob 1111   1.979   1.674  11.447  0.3324  0.1837 -0.4136
    1Sil     Ob 1112   4.720   1.664  12.260  0.6046 -0.5352 -0.6381
    1Sil     Ob 1113   1.679   1.666  11.845 -0.1376 -0.3240 -0.4982
    1Sil     Ob 1114   4.686   1.902  11.725 -0.6742  0.4188  0.1421
    1Sil     Ob 1115   5.205   1.908  12.126 -0.2511  0.0929  0.5428
    1Sil     Ob 1116   4.969   1.920  11.324  0.4950  0.3026 -0.0072
    1Sil     Ob 1117   4.995   2.099  11.150 -0.1494  0.0404  0.0652
    1Sil     Ob 1118   1.932   1.998  10.688  0.2198 -0.0112  0.1132
    1Sil     Ob 1119   4.811   2.594  10.712  0.0518  0.1728 -0.1378
    1Sil     Ob 1120   5.353   2.595  11.091 -0.0938 -0.3722  0.3733
    1Sil     Ob 1121   5.189   2.488  10.341 -0.3122  0.1037 -0.0386
    1Sil     Ob 1122   5.180   2.424  11.179 -0.8298  0.2854  0.9471
    1Sil     Ob 1123   4.948   2.421  10.373  0.2600 -0.0627 -0.0481
    1Sil     Ob 1124   2.154   2.442  10.780  0.0361 -0.2135  0.1530
    1Sil     Ob 1125   4.971   2.182  10.906 -0.0855  0.2329 -0.3609
    1Sil     Ob 1126   1.931   2.178  10.496  0.3343 -0.5893  0.2606
    1Sil     Ob 1127   4.947   2.346  11.090  0.5948 -0.1756 -0.3484
    1Sil     Ob 1128   4.714   2.345  10.285 -0.7766  0.1082 -0.0961
    1Sil     Ob 1129   1.983   2.239  10.738 -0.4531  0.5024 -0.5298
    1Sil     Ob 1130   4.894   2.352  10.726 -0.5168  0.0836  0.2075
    1Sil     Ob 1131   5.416   2.344  11.146 -0.1760  0.2293 -0.3954
    1Sil     Ob 1132   5.118   2.238  10.286 -0.6229 -0.0476 -0.2526
    1Sil     Ob 1133   2.039   2.154  10.257  0.2290 -0.1362 -0.1962
    1Sil     Ob 1134   4.765   2.177  11.052 -0.2440  0.3155 -0.7431
    1Sil     Ob 1135   1.744   2.158  10.666  1.0088 -0.0328 -0.4368
    1Sil     Ob 1136   4.735   2.429  10.531 -0.2486 -0.0153  0.2756
    1Sil     Ob 1137   5.273   2.395  10.939 -0.2631 -0.3163  0.6172
    1Sil     Ob 1138   4.957   2.107  12.345 -0.8096 -0.2629  0.6543
    1Sil     Ob 1139   1.865   1.974  11.872  0.0961 -0.2028  0.4544
    1Sil     Ob 1140   4.753   2.591  11.898  0.5326  0.0024  0.9115
    1Sil     Ob 1141   5.307   2.588  12.264 -0.1734 -0.0248  0.3805
    1Sil     Ob 1142   5.122   2.484  11.526 -0.0309 -0.3145  0.3576
    1Sil     Ob 1143   5.144   2.437  12.369  0.1592 -0.3691 -0.2405
    1Sil     Ob 1144   4.882   2.406  11.573  0.0768 -0.1119 -0.3671
    1Sil     Ob 1145   2.086   2.400  11.964  0.0366 -0.6229 -0.0450
    1Sil     Ob 1146   4.921   2.168  12.095 -0.0136 -0.8790 -1.1338
    1Sil     Ob 1147   2.171   2.150  11.296 -0.1275 -1.0546 -0.0773
    1Sil     Ob 1148   1.885   2.149  11.682  0.4702  0.6845 -0.2588
    1Sil     Ob 1149   4.915   2.358  12.286 -0.0273 -0.0508  0.6616
    1Sil     Ob 1150   4.657   2.330  11.474 -0.2409 -0.3491 -0.2553
    1Sil     Ob 1151   1.908   2.225  11.935  0.0077 -0.4377  0.6295
    1Sil     Ob 1152   4.837   2.342  11.912 -0.2456  0.2546  0.1050
    1Sil     Ob 1153   5.368   2.338  12.327 -0.2817 -0.2249 -0.2022
    1Sil     Ob 1154   5.043   2.239  11.506 -0.2799  0.5069 -0.3501
    1Sil     Ob 1155   1.966   2.170  11.445 -0.4587  0.2134  0.5784
    1Sil     Ob 1156   4.730   2.177  12.252  0.1983 -0.0670  0.0782
    1Sil     Ob 1157   1.681   2.152  11.848  0.2617  0.4063 -0.0895
    1Sil     Ob 1158   4.668   2.404  11.723  0.1122 -0.8491 -0.0623
    1Sil     Ob 1159   5.210   2.405  12.122 -0.2331 -0.6618  0.0772
    1Sil     Ob 1160   4.971   2.410  11.332 -0.0886  0.4939 -0.7690
    1Sil     Ob 1161   4.985   2.593  11.155 -0.3901 -1.2700  0.2292
    1Sil     Ob 1162   1.922   2.488  10.690  0.1493  0.2058 -0.2435
    1Sil     Ob 1163   4.813   3.081  10.687 -0.8072  0.6715 -0.3032
    1Sil     Ob 1164   5.343   3.090  11.094 -0.2820  0.3457  0.2910
    1Sil     Ob 1165   5.185   2.978  10.329 -0.1053  0.1763  0.1498
    1Sil     Ob 1166   5.174   2.895  11.155 -0.5118  0.1928 -0.8639
    1Sil     Ob 1167   4.935   2.933  10.373  0.0342  0.0280  0.3758
    1Sil     Ob 1168   2.158   2.907  10.777  0.0285  0.1009  0.3618
    1Sil     Ob 1169   4.965   2.663  10.906  0.5122  0.0038 -0.0477
    1Sil     Ob 1170   1.946   2.658  10.508  0.3531 -0.9762 -0.2292
    1Sil     Ob 1171   4.942   2.841  11.094 -0.4157  0.5680 -0.6082
    1Sil     Ob 1172   4.710   2.838  10.290 -0.6351 -0.4521  0.3076
    1Sil     Ob 1173   1.975   2.725  10.749 -0.2353  0.5756 -0.5985
    1Sil     Ob 1174   4.883   2.828  10.728 -0.2346  0.1941 -0.0288
    1Sil     Ob 1175   5.421   2.838  11.118 -0.3537 -0.8361  0.5745
    1Sil     Ob 1176   5.107   2.733  10.332  0.2117  0.1887  0.0538
    1Sil     Ob 1177   2.035   2.668  10.263 -0.1665  0.2181 -0.3193
    1Sil     Ob 1178   4.761   2.671  11.053  0.3188  0.0016  0.1444
    1Sil     Ob 1179   1.737   2.657  10.654 -0.1451 -0.2087  0.1378
    1Sil     Ob 1180   4.732   2.895  10.537 -0.4468  0.8743 -0.0321
    1Sil     Ob 1181   5.269   2.912  10.925  0.0597  0.5403 -0.0214
    1Sil     Ob 1182   4.944   2.608  12.344  0.6439  0.1342  0.0154
    1Sil     Ob 1183   1.862   2.480  11.872  0.1710  0.0636  0.0929
    1Sil     Ob 1184   4.752   3.085  11.900  0.0370 -0.0265  0.2841
    1Sil     Ob 1185   5.294   3.081  12.298  0.1710  0.8245 -0.3780
    1Sil     Ob 1186   5.117   2.974  11.538 -0.1566 -0.1071  0.5136
    1Sil     Ob 1187   5.131   2.898  12.355 -0.0419 -0.0841 -0.2522
    1Sil     Ob 1188   4.881   2.896  11.567 -0.2252  0.0491  0.0371
    1Sil     Ob 1189   2.096   2.892  11.965 -0.3368  0.0218 -0.1552
    1Sil     Ob 1190   4.911   2.674  12.081  0.7475  0.6793 -0.1711
    1Sil     Ob 1191   2.168   2.659  11.298 -0.0355  0.2560 -0.2715
    1Sil     Ob 1192   1.884   2.659  11.698  0.5538  0.0060  0.4130
    1Sil     Ob 1193   4.888   2.841  12.291 -0.1724 -0.0384  0.3759
    1Sil     Ob 1194   4.637   2.823  11.484 -0.7697 -0.6028  0.0964
    1Sil     Ob 1195   1.886   2.740  11.951  0.1350 -0.7213 -0.3016
    1Sil     Ob 1196   4.831   2.839  11.893 -0.3121 -0.0986  0.3766
    1Sil     Ob 1197   5.377   2.835  12.294 -0.1908  0.2870  0.2903
    1Sil     Ob 1198   5.050   2.725  11.504  0.2286  0.5105 -0.5554
    1Sil     Ob 1199   1.967   2.660  11.450 -0.4026 -0.2637 -0.4971
    1Sil     Ob 1200   4.717   2.653  12.247 -0.0322  0.3763 -0.2915
    1Sil     Ob 1201   1.674   2.647  11.844 -0.0138  0.6515  0.0368
    1Sil     Ob 1202   4.669   2.916  11.716  0.2868 -0.0757 -0.0527
    1Sil     Ob 1203   5.206   2.934  12.117 -0.6741 -0.2973 -0.1391
    1Sil     Ob 1204   4.971   2.909  11.330 -0.2763  0.4531 -0.6501
    1Sil     Ob 1205   5.004   3.092  11.147 -0.2267 -0.2773  0.4227
    1Sil     Ob 1206   1.925   2.967  10.689  0.0710  0.1827 -0.7248
    1Sil     Ob 1207   1.854  -0.050  11.183 -0.3693  0.6801  0.7804
    1Sil     Ob 1208   1.621  -0.053  10.376  0.1057 -0.4121 -0.1745
    1Sil     Ob 1209   2.147  -0.063  10.777  0.1347 -0.4659  0.3748
    1Sil     Ob 1210   4.957   3.137  10.894  0.5491  0.2341  0.1786
    1Sil     Ob 1211   1.941   3.148  10.511 -0.2641  0.2573  0.7902
    1Sil     Ob 1212   4.959   3.320  11.070  0.3394 -0.4405  0.1587
    1Sil     Ob 1213   4.708   3.323  10.276  0.1005 -0.5679 -0.0486
    1Sil     Ob 1214   1.953   3.215  10.756 -0.7191 -0.7263 -0.3368
    1Sil     Ob 1215   4.887  -0.124  10.733  0.0220 -0.5799 -0.3488
    1Sil     Ob 1216   2.099  -0.118  11.116 -0.4036 -0.3180 -0.3153
    1Sil     Ob 1217   1.786  -0.227  10.311 -0.1440 -0.3770  0.2885
    1Sil     Ob 1218   2.036   3.161  10.259 -0.0485  0.3836  0.3401
    1Sil     Ob 1219   4.760   3.148  11.055 -0.0373  0.0030 -0.1861
    1Sil     Ob 1220   1.734   3.152  10.652 -0.2318 -0.6240  0.0880
    1Sil     Ob 1221   4.742  -0.064  10.533 -0.7425 -0.5433  0.2579
    1Sil     Ob 1222   1.936  -0.054  10.937  0.1837  0.6136  0.1709
    1Sil     Ob 1223   4.954   3.083  12.335 -0.0943  0.5580 -0.7936
    1Sil     Ob 1224   1.865   2.982  11.876 -0.1053 -0.1245 -0.0621
    1Sil     Ob 1225   1.816  -0.049  12.349  0.0234  0.2740  0.2659
    1Sil     Ob 1226   1.560  -0.044  11.572  0.4473 -0.3583  0.1685
    1Sil     Ob 1227   2.089  -0.059  11.961 -0.5236 -0.2496  0.5371
    1Sil     Ob 1228   4.910   3.145  12.090  0.2682 -0.3137  0.5217
    1Sil     Ob 1229   2.176   3.160  11.292 -0.5645  0.5897 -0.4757
    1Sil     Ob 1230   1.867   3.160  11.700 -0.6414 -0.2337  0.3241
    1Sil     Ob 1231   4.910   3.332  12.271 -0.0696 -0.1219  0.3096
    1Sil     Ob 1232   4.635   3.331  11.492 -0.5784 -0.3937 -0.5186
    1Sil     Ob 1233   1.892   3.228  11.955  0.5614  0.0815  0.3939
    1Sil     Ob 1234   4.828  -0.118  11.939  0.0528 -0.0207 -0.6890
    1Sil     Ob 1235   2.051  -0.117  12.300  0.3710  0.2561  0.0144
    1Sil     Ob 1236   1.735  -0.223  11.489  0.4814  0.1422 -0.3075
    1Sil     Ob 1237   1.972   3.143  11.457 -0.2111  0.9955 -0.0307
    1Sil     Ob 1238   4.717   3.147  12.261 -0.0714 -0.7954  0.1399
    1Sil     Ob 1239   1.675   3.155  11.851  0.6712 -0.2028  0.5920
    1Sil     Ob 1240   4.679  -0.043  11.737  0.3387  0.1598 -0.3404
    1Sil     Ob 1241   1.894  -0.023  12.114  0.5590  0.4294 -0.0521
    1Sil     Ob 1242   4.966  -0.056  11.333 -0.2268 -0.1026  0.4927
    1Sil     Ob 1243   2.275   0.136  10.350 -0.5280 -0.4170  0.4206
    1Sil     Ob 1244   2.212   0.131  11.534  0.2113 -0.0602 -0.2219
    1Sil     Ob 1245   2.252   0.621  10.360  0.1732  0.0356 -0.1220
    1Sil     Ob 1246   2.215   0.619  11.537  0.1541  0.7302  0.1869
    1Sil     Ob 1247   2.250   1.110  10.350  0.0083 -0.1645  0.1165
    1Sil     Ob 1248   2.202   1.106  11.519  0.7714  0.6850  0.3262
    1Sil     Ob 1249   2.260   1.613  10.336  0.4018 -0.4841 -0.5710
    1Sil     Ob 1250   2.218   1.601  11.526 -0.0727 -0.1014  0.2750
    1Sil     Ob 1251   2.278   2.105  10.333  0.1319 -0.4257  0.2593
    1Sil     Ob 1252   2.195   2.089  11.554  0.0570 -0.0332  0.8171
    1Sil     Ob 1253   2.274   2.599  10.331 -0.3116  0.3215 -0.0680
    1Sil     Ob 1254   2.198   2.589  11.539 -0.1624 -0.2507 -0.4307
    1Sil     Ob 1255   2.274   3.096  10.338 -0.3383 -0.3680  0.1474
    1Sil     Ob 1256   2.222   3.077  11.526 -0.3688 -0.1750 -0.2298
    1Sil     Ob 1257   2.745   0.020  10.687  0.5064 -0.0242 -0.8847
    1Sil     Ob 1258   2.708   0.017  11.855  0.3221  0.4672  0.5861
    1Sil     Ob 1259   3.591   0.019  10.685  0.3207  0.7355  0.2623
    1Sil     Ob 1260   3.521   0.009  11.889  0.1469 -0.3234 -0.1750
    1Sil     Ob 1261   4.405   0.019  10.687 -0.0907  1.2277  0.4646
    1Sil     Ob 1262   4.358   0.014  11.878  0.6459  0.2110 -0.0693
    1Sil     Ob 1263   1.917   0.013  10.691 -0.5166  0.3763  0.3605
    1Sil     Ob 1264   1.862   0.016  11.869  0.5480  0.2704 -0.3941
    1Sil     Ob 1265   2.319   0.134  10.710  0.2345  0.0960  0.1730
    1Sil     Ob 1266   2.854   0.126  11.089  0.2696 -0.1884 -0.0155
    1Sil     Ob 1267   2.689   0.032  10.331  0.0137  0.0522 -0.1769
    1Sil     Ob 1268   2.269   0.126  11.906  0.2811 -0.2979 -0.3936
    1Sil     Ob 1269   2.815   0.128  12.301 -0.1426 -0.1944 -0.2730
    1Sil     Ob 1270   2.645   0.013  11.518  0.4908 -0.2530  0.0808
    1Sil     Ob 1271   3.158   0.119  10.687  0.2581 -0.2485 -0.2141
    1Sil     Ob 1272   3.688   0.115  11.088 -0.1970  0.1427 -0.2194
    1Sil     Ob 1273   3.507   0.025  10.346 -0.3678 -0.7345 -0.1240
    1Sil     Ob 1274   3.104   0.116  11.879 -0.3035 -0.3413 -0.1772
    1Sil     Ob 1275   3.633   0.120  12.288  0.5204 -0.4030  0.1387
    1Sil     Ob 1276   3.462   0.011  11.514  0.1388 -0.5381  0.1830
    1Sil     Ob 1277   3.993   0.125  10.713 -0.4638 -0.1215  0.2271
    1Sil     Ob 1278   4.516   0.128  11.109 -0.2096 -0.6599  0.4497
    1Sil     Ob 1279   4.347   0.022  10.324 -0.0685 -0.4117  0.5540
    1Sil     Ob 1280   3.927   0.127  11.894 -0.0669 -0.0449 -0.3134
    1Sil     Ob 1281   4.465   0.120  12.309 -0.3264  0.1911 -0.0325
    1Sil     Ob 1282   4.293   0.017  11.529  0.3571 -0.0589  0.3441
    1Sil     Ob 1283   4.823   0.120  10.694  0.4715 -0.3398  0.5098
    1Sil     Ob 1284   2.028   0.126  11.099  0.0221 -0.2216 -0.6908
    1Sil     Ob 1285   1.867   0.018  10.333  0.6081 -0.4786  0.0691
    1Sil     Ob 1286   4.759   0.127  11.917 -0.3470 -0.4719 -0.4162
    1Sil     Ob 1287   1.977   0.132  12.312 -0.2496  0.7885  0.0813
    1Sil     Ob 1288   1.801   0.023  11.511  0.6249 -0.5724 -0.2776
    1Sil     Oy 1289   3.057   0.197  10.117  0.5105  0.1282 -0.2580
    1Sil     Oy 1290   2.502   0.437  10.121  0.0489  0.0358  0.1588
    1Sil     Oy 1291   2.454   0.440  12.538  0.0611 -0.4677 -0.1073
    1Sil     Cm 1292   2.945   0.223  12.504  0.4558 -0.3921 -0.1798
    1Sil     Oy 1293   3.057   0.703  10.105 -0.3931  0.2008  0.1651
    1Sil     Oy 1294   2.532   0.942  10.150  0.5239  0.8623 -0.2303
    1Sil     Oy 1295   2.435   0.960  12.513  0.0375  0.1230  0.0695
    1Sil     Oy 1296   2.962   0.712  12.486 -0.1105 -0.1733 -0.0925
    1Sil     Cm 1297   3.080   1.186  10.096  0.4296 -0.0743 -0.3310
    1Sil     Oy 1298   2.542   1.441  10.116  0.5360  0.0612 -0.2132
    1Sil     Cm 1299   2.433   1.407  12.531  0.1645 -0.6030  0.0471
    1Sil     Oy 1300   2.944   1.163  12.485 -0.6826 -0.2522  0.0529
    1Sil     Oy 1301   3.092   1.682  10.103 -0.4122  0.1563 -0.7337
    1Sil     Cm 1302   2.529   1.923  10.105 -0.0436 -0.1421 -0.0560
    1Sil     Oy 1303   2.440   1.911  12.510 -0.0715  0.6413  0.1503
    1Sil     Cm 1304   2.949   1.652  12.519  0.3581  0.3689  0.4326
    1Sil     Oy 1305   3.090   2.180  10.096 -0.3864  0.5456 -0.4644
    1Sil     Cm 1306   2.537   2.409  10.119  0.0173 -0.1270  0.1780
    1Sil     Oy 1307   2.454   2.424  12.517 -0.7567 -0.3892 -0.1489
    1Sil     Oy 1308   2.965   2.151  12.488  0.1897 -0.6125  0.0537
    1Sil     Oy 1309   3.076   2.687  10.094 -0.1409  0.5870 -0.3785
    1Sil     Cm 1310   2.529   2.926  10.140 -0.1865  0.3810  0.0555
    1Sil     Oy 1311   2.423   2.916  12.519  0.3165 -0.7188  0.8678
    1Sil     Oy 1312   2.937   2.675  12.484 -0.1188  0.7439  0.1388
    1Sil     Oy 1313   3.059   3.159  10.096  0.4580  0.5558  0.8212
    1Sil     Oy 1314   2.518  -0.049  10.154  0.6890  0.2300  0.0493
    1Sil     Oy 1315   2.463  -0.041  12.540 -0.1046  0.0337  0.2728
    1Sil     Oy 1316   2.948   3.157  12.491  0.3424  0.0754  0.1335
    1Sil     Oy 1317   3.896   0.181  10.115 -0.0625 -0.4547  0.7664
    1Sil     Oy 1318   3.361   0.416  10.131 -0.2353  0.1886  0.4681
    1Sil     Oy 1319   3.266   0.418  12.505  0.1039 -0.1984 -0.0393
    1Sil     Oy 1320   3.771   0.191  12.489  0.3463  0.4136 -0.3572
    1Sil     Oy 1321   3.885   0.697  10.092  0.5416 -0.9728  0.7382
    1Sil     Cm 1322   3.359   0.927  10.115  0.0042  0.3640 -0.5058
    1Sil     Cm 1323   3.263   0.917  12.528 -0.0422  0.2811 -0.1130
    1Sil     Oy 1324   3.789   0.679  12.476 -0.0606  0.4592  0.2100
    1Sil     Oy 1325   3.911   1.190  10.108 -0.6392 -0.0259 -0.4768
    1Sil     Oy 1326   3.365   1.435  10.145 -0.0817  0.0152  0.0060
    1Sil     Cm 1327   3.279   1.450  12.536 -0.0132 -0.0210 -0.1833
    1Sil     Cm 1328   3.767   1.189  12.503 -0.3946  0.3485 -0.0258
    1Sil     Oy 1329   3.917   1.670  10.116 -0.2140 -0.0342  0.5238
    1Sil     Oy 1330   3.363   1.926  10.143  1.0370  0.0924 -0.2243
    1Sil     Cm 1331   3.250   1.921  12.539  0.4278  0.5528  0.4110
    1Sil     Oy 1332   3.791   1.671  12.484  0.3865  0.1149 -0.7630
    1Sil     Oy 1333   3.890   2.167  10.107 -0.7482 -0.2903  0.2841
    1Sil     Oy 1334   3.372   2.402  10.130  0.0383 -0.2557 -0.1436
    1Sil     Oy 1335   3.270   2.422  12.518  0.2309 -0.2747  0.3527
    1Sil     Cm 1336   3.768   2.178  12.493  0.3046  0.1415  0.8168
    1Sil     Oy 1337   3.898   2.665  10.107 -0.0202 -0.0603  0.5660
    1Sil     Oy 1338   3.352   2.895  10.122 -0.0762  0.0542  0.4826
    1Sil     Cm 1339   3.254   2.899  12.531  1.3339  0.3056 -0.3375
    1Sil     Oy 1340   3.790   2.638  12.477 -0.5835 -0.7131  0.5417
    1Sil     Oy 1341   3.897   3.146  10.108  0.6188  0.1278 -0.4392
    1Sil     Cm 1342   3.358  -0.048  10.124 -0.6125 -0.3187  0.3103
    1Sil     Oy 1343   3.270  -0.049  12.542 -0.1805 -0.4883  0.3572
    1Sil     Oy 1344   3.791   3.136  12.484  0.1158  0.1467 -0.0841
    1Sil     Cm 1345   4.723   0.200  10.076  0.8270  1.1684 -0.4050
    1Sil     Oy 1346   4.178   0.448  10.138  0.1547 -0.0992 -0.1751
    1Sil     Oy 1347   4.109   0.439  12.528  0.2810  0.0429  0.6802
    1Sil     Oy 1348   4.617   0.224  12.493 -0.0207  0.0338 -0.0639
    1Sil     Cm 1349   4.733   0.683  10.086 -0.9415  0.3691 -0.5116
    1Sil     Cm 1350   4.184   0.931  10.108 -0.2903  0.1379  0.1147
    1Sil     Oy 1351   4.101   0.938  12.534 -0.0780  0.3592 -0.1096
    1Sil     Oy 1352   4.603   0.705  12.466  0.2404  0.0876  0.7282
    1Sil     Oy 1353   4.744   1.191  10.113 -0.6633 -0.0898  0.0221
    1Sil     Oy 1354   4.150   1.433  10.140  0.3668  0.4155 -0.1749
    1Sil     Oy 1355   4.127   1.426  12.531  0.2642  0.0127  0.0044
    1Sil     Oy 1356   4.611   1.178  12.478  0.2049  0.0722 -0.0620
    1Sil     Oy 1357   4.739   1.682  10.108  0.1402 -0.6093 -0.2925
    1Sil     Cm 1358   4.184   1.955  10.129 -0.5962  0.2142 -0.0407
    1Sil     Oy 1359   4.108   1.899  12.516  0.2606 -0.4558  0.1963
    1Sil     Cm 1360   4.618   1.662  12.499 -0.4966 -0.6944  0.0920
    1Sil     Oy 1361   4.745   2.164  10.107  0.1755  0.0632 -0.1832
    1Sil     Cm 1362   4.176   2.443  10.125 -0.8096 -0.6179 -1.0061
    1Sil     Oy 1363   4.087   2.407  12.520  0.2925  0.0247 -0.4504
    1Sil     Oy 1364   4.606   2.154  12.483 -0.0683  0.0063 -0.7079
    1Sil     Oy 1365   4.717   2.670  10.095  0.4169 -0.0209  0.4830
    1Sil     Oy 1366   4.203   2.889  10.145  0.3051 -0.0936  0.7095
    1Sil     Oy 1367   4.096   2.881  12.509 -0.8070  0.3088 -0.4991
    1Sil     Oy 1368   4.636   2.654  12.496 -0.0306  0.3324  0.5938
    1Sil     Cm 1369   4.698   3.145  10.100 -0.2984 -0.2360 -0.3590
    1Sil     Oy 1370   4.174  -0.066  10.135  0.2558 -0.0245  0.2637
    1Sil     Cm 1371   4.087  -0.049  12.545  0.8097 -0.5536  0.6039
    1Sil     Cm 1372   4.616   3.135  12.509  0.3271  0.3029  0.1989
    1Sil     Oy 1373   2.233   0.216  10.116  0.3297  0.0641  0.1088
    1Sil     Oy 1374   5.037   0.411  10.134  0.0513 -0.4164 -0.4099
    1Sil     Oy 1375   4.943   0.446  12.533 -0.4113  0.1384 -0.1222
    1Sil     Oy 1376   2.136   0.200  12.506  0.3645  0.4218 -0.5791
    1Sil     Oy 1377   2.235   0.691  10.101 -0.4165  0.0128 -0.0339
    1Sil     Oy 1378   5.021   0.955  10.143  0.1040 -0.0283 -0.0820
    1Sil     Oy 1379   4.949   0.959  12.524  0.2282  0.0044  0.1459
    1Sil     Oy 1380   2.129   0.683  12.482  0.2033  0.2775 -0.1137
    1Sil     Cm 1381   2.246   1.180  10.095 -0.4425 -0.3460 -0.4603
    1Sil     Oy 1382   5.032   1.441  10.134 -0.1633 -0.3107 -0.5498
    1Sil     Oy 1383   4.917   1.433  12.518 -0.3415  0.1560  0.2379
    1Sil     Oy 1384   2.139   1.173  12.474 -0.1508 -0.1859 -0.1169
    1Sil     Oy 1385   2.213   1.685  10.092  0.1193 -0.2635  0.2958
    1Sil     Oy 1386   4.999   1.941  10.138 -0.4882 -0.2868 -0.0090
    1Sil     Oy 1387   4.949   1.927  12.542  0.4283 -0.2116  0.6933
    1Sil     Oy 1388   2.115   1.660  12.481 -0.4389 -0.0874  0.0596
    1Sil     Oy 1389   2.242   2.186  10.091 -0.0271 -0.4649 -0.2003
    1Sil     Cm 1390   5.045   2.446  10.113 -0.6174  0.1188  0.8725
    1Sil     Cm 1391   4.941   2.420  12.548 -0.1255 -0.9223  0.0597
    1Sil     Oy 1392   2.126   2.149  12.495  0.3842 -0.0346 -0.6583
    1Sil     Oy 1393   2.204   2.676  10.093  0.7636  0.0972 -0.7495
    1Sil     Cm 1394   5.045   2.901  10.132  0.5646  0.0520  0.6479
    1Sil     Oy 1395   4.937   2.919  12.532  0.4101 -0.0280  0.5656
    1Sil     Oy 1396   2.102   2.663  12.470 -0.3345 -0.2102 -0.4405
    1Sil     Oy 1397   2.243   3.168  10.099 -0.0290 -0.4906  1.0452
    1Sil     Oy 1398   1.716  -0.052  10.143  0.2835 -0.4693 -0.5565
    1Sil     Cm 1399   4.949  -0.061  12.542  0.5792 -0.5482  0.2357
    1Sil     Oy 1400   2.127   3.176  12.483 -0.1123  0.6243  0.0568
    1Sil    Sib 1401   3.002   0.227  10.265  0.3157  0.0116 -0.0608
    1Sil    Sib 1402   2.430   0.214  11.049 -0.3676 -0.3901 -0.0978
    1Sil    Sib 1403   2.714   0.173  10.658 -0.1176 -0.3993 -0.5598
    1Sil    Sib 1404   2.278   0.475  10.680  1.0042  0.5000 -0.4545
    1Sil    Sib 1405   2.812   0.471  11.083 -0.2234 -0.3569  0.0861
    1Sil    Sib 1406   2.563   0.429  10.278 -0.3719  0.5267  0.0800
    1Sil    Sib 1407   2.529   0.463  11.179  0.1733  0.2885 -0.4831
    1Sil    Sib 1408   2.288   0.476  10.388  0.0810  0.2076  0.0220
    1Sil    Sib 1409   2.819   0.421  10.783 -0.5270  0.4475 -0.3270
    1Sil    Sib 1410   2.437   0.224  10.752 -0.1935 -0.1280  0.0136
    1Sil    Sib 1411   2.971   0.223  11.139  0.3115 -0.3966 -0.4474
    1Sil    Sib 1412   2.719   0.181  10.354 -0.0435  0.2021  0.0647
    1Sil    Sib 1413   2.959   0.220  11.446  0.0282  0.1292  0.1310
    1Sil    Sib 1414   2.380   0.217  12.249 -0.6515 -0.4526  0.3949
    1Sil    Sib 1415   2.669   0.170  11.830  0.1496  0.0877  0.0996
    1Sil    Sib 1416   2.224   0.467  11.884  0.1065  0.0819  0.1483
    1Sil    Sib 1417   2.765   0.472  12.267  0.3571 -0.2389 -0.1829
    1Sil    Sib 1418   2.516   0.409  11.473  0.0009 -0.3759  0.2410
    1Sil    Sib 1419   2.490   0.471  12.382 -0.1848  0.6492  0.2690
    1Sil    Sib 1420   2.233   0.469  11.579 -0.0863  0.1425  0.1037
    1Sil    Sib 1421   2.778   0.413  11.966 -0.2228  0.3805 -0.0635
    1Sil    Sib 1422   2.387   0.219  11.943 -0.2940 -0.2197  0.2094
    1Sil    Sim 1423   2.929   0.225  12.342 -0.3481 -0.3365  0.4098
    1Sil    Sib 1424   2.676   0.165  11.535 -0.2737 -0.2556 -0.2289
    1Sil    Sib 1425   3.004   0.717  10.257 -0.2916 -0.1061 -0.1837
    1Sil    Sib 1426   2.430   0.722  11.047 -0.5843  0.2640  0.2018
    1Sil    Sib 1427   2.721   0.674  10.645  0.3914  0.0966  0.1356
    1Sil    Sib 1428   2.280   0.976  10.686 -0.0397 -0.1999 -0.2142
    1Sil    Sib 1429   2.813   0.977  11.070  0.1828  0.0472 -0.4856
    1Sil    Sib 1430   2.569   0.908  10.302  0.0194  0.1684  0.2492
    1Sil    Sib 1431   2.525   0.980  11.181 -0.0954  0.0155  0.2367
    1Sil    Sib 1432   2.281   0.958  10.390 -0.1563 -0.1243 -0.5183
    1Sil    Sib 1433   2.836   0.919  10.779 -0.4809  0.3732  0.2912
    1Sil    Sib 1434   2.441   0.729  10.734 -0.3059 -0.0854 -0.2059
    1Sil    Sib 1435   2.971   0.715  11.134  0.0617 -0.2569 -0.0472
    1Sil    Sib 1436   2.735   0.666  10.342 -0.0277 -0.0589 -0.0147
    1Sil    Sib 1437   2.958   0.715  11.434 -0.1609 -0.1811  0.1866
    1Sil    Sib 1438   2.386   0.713  12.232 -0.2294  0.2866 -0.6381
    1Sil    Sib 1439   2.672   0.650  11.831  0.2747  0.0525 -0.1945
    1Sil    Sib 1440   2.233   0.960  11.871  0.1717  0.0100  0.1877
    1Sil    Sib 1441   2.760   0.968  12.259  0.5541 -0.1638 -0.1789
    1Sil    Sib 1442   2.523   0.911  11.480  0.8463  0.2611 -0.0207
    1Sil    Sib 1443   2.481   0.972  12.364  0.1349 -0.0689 -0.0107
    1Sil    Sib 1444   2.240   0.961  11.563 -0.0831 -0.2965  0.2529
    1Sil    Sib 1445   2.774   0.903  11.967  0.2170  0.1472 -0.1970
    1Sil    Sib 1446   2.389   0.711  11.937  0.2153 -0.0546  0.0244
    1Sil    Sib 1447   2.921   0.724  12.330 -0.1797 -0.5523  0.2590
    1Sil    Sib 1448   2.679   0.658  11.533  0.1582  0.0009  0.3819
    1Sil    Sim 1449   3.015   1.205  10.250  0.2424  0.4407  0.3193
    1Sil    Sib 1450   2.413   1.216  11.035  0.3096 -0.0211  0.1772
    1Sil    Sib 1451   2.725   1.159  10.644 -0.4273  0.2071 -0.5629
    1Sil    Sib 1452   2.285   1.461  10.675 -0.0952  0.1761  0.1506
    1Sil    Sib 1453   2.815   1.460  11.080  0.4662  0.0099  0.1555
    1Sil    Sib 1454   2.575   1.411  10.267 -0.0769 -0.1042  0.3331
    1Sil    Sib 1455   2.525   1.457  11.178  0.2793 -0.0606 -0.1157
    1Sil    Sib 1456   2.293   1.462  10.374  0.3444  0.0181 -0.5071
    1Sil    Sib 1457   2.821   1.405  10.781  0.0440 -0.0896 -0.0677
    1Sil    Sib 1458   2.443   1.215  10.743 -0.1510  0.1521 -0.2387
    1Sil    Sib 1459   2.980   1.216  11.138 -0.2197  0.0862 -0.0903
    1Sil    Sib 1460   2.729   1.163  10.348  0.1555  0.3076  0.3168
    1Sil    Sib 1461   2.960   1.214  11.438 -0.3733 -0.0833 -0.1967
    1Sil    Sib 1462   2.380   1.217  12.217 -0.3541  0.0221 -0.1650
    1Sil    Sib 1463   2.664   1.153  11.827 -0.0678 -0.1092  0.3250
    1Sil    Sib 1464   2.230   1.454  11.868  0.0370  0.0341  0.1154
    1Sil    Sib 1465   2.758   1.449  12.271 -0.0274  0.1605  0.6281
    1Sil    Sib 1466   2.525   1.399  11.470  0.0901  0.7073 -0.2941
    1Sil    Sim 1467   2.475   1.449  12.378 -0.5572  0.2021  0.2389
    1Sil    Sib 1468   2.244   1.455  11.570 -0.1176  0.4141  0.5813
    1Sil    Sib 1469   2.774   1.396  11.971  0.4613 -0.3753 -0.0352
    1Sil    Sib 1470   2.386   1.207  11.924 -0.0844 -0.3995 -0.1112
    1Sil    Sib 1471   2.912   1.203  12.330  0.1351  0.1168  0.1423
    1Sil    Sib 1472   2.681   1.149  11.528  0.1433 -0.7179 -0.1372
    1Sil    Sib 1473   3.027   1.700  10.244  0.4033  0.0686  0.6294
    1Sil    Sib 1474   2.422   1.708  11.037  0.4256  0.0263  0.2366
    1Sil    Sib 1475   2.726   1.652  10.637 -0.1982  0.0854  0.0293
    1Sil    Sib 1476   2.276   1.956  10.679 -0.1870  0.1493 -0.1594
    1Sil    Sib 1477   2.804   1.946  11.083 -0.4786 -0.0051  0.2622
    1Sil    Sim 1478   2.574   1.895  10.257 -0.0854  0.0468 -0.2511
    1Sil    Sib 1479   2.523   1.953  11.180  0.4311 -0.1979  0.4655
    1Sil    Sib 1480   2.297   1.956  10.371  0.2418 -0.4071 -0.1022
    1Sil    Sib 1481   2.817   1.889  10.785 -0.0100 -0.1686  0.1116
    1Sil    Sib 1482   2.444   1.709  10.736 -0.1918  0.5065 -0.0552
    1Sil    Sib 1483   2.979   1.704  11.148  0.1557 -0.0713  0.3002
    1Sil    Sib 1484   2.739   1.650  10.333  0.1336  0.5090 -0.2111
    1Sil    Sib 1485   2.968   1.705  11.449  0.1568 -0.0201  0.4079
    1Sil    Sib 1486   2.382   1.698  12.230 -0.0760  0.1931  0.0593
    1Sil    Sib 1487   2.673   1.642  11.834  0.3633  0.0066  0.0438
    1Sil    Sib 1488   2.229   1.940  11.881  0.0566  0.4447  0.6321
    1Sil    Sib 1489   2.772   1.939  12.267 -0.2184  0.4701 -0.4108
    1Sil    Sib 1490   2.525   1.895  11.478 -0.3950  0.2188 -0.0803
    1Sil    Sib 1491   2.496   1.945  12.367 -0.0343  0.0944 -0.3408
    1Sil    Sib 1492   2.242   1.945  11.581  0.2090  0.1743  0.1134
    1Sil    Sib 1493   2.769   1.887  11.975  0.0200 -0.2082  0.1187
    1Sil    Sib 1494   2.404   1.697  11.934  0.3204  0.0686 -0.2474
    1Sil    Sim 1495   2.919   1.682  12.348  0.0637  0.0293  0.0002
    1Sil    Sib 1496   2.688   1.645  11.541  0.1150 -0.4656  0.4518
    1Sil    Sib 1497   3.029   2.198  10.246  0.2595 -0.0326 -0.0092
    1Sil    Sib 1498   2.424   2.205  11.043 -0.3446 -0.0657  0.0499
    1Sil    Sib 1499   2.710   2.135  10.637  0.1567  0.0419  0.2729
    1Sil    Sib 1500   2.281   2.457  10.681  0.1078  0.0900 -0.1547
    1Sil    Sib 1501   2.809   2.428  11.075 -0.3762 -0.4688 -0.6253
    1Sil    Sim 1502   2.579   2.383  10.269 -0.1722  0.2133  0.2878
    1Sil    Sib 1503   2.533   2.447  11.183 -0.0728  0.2884 -0.1212
    1Sil    Sib 1504   2.298   2.446  10.378  0.2325  0.9701  0.2238
    1Sil    Sib 1505   2.828   2.378  10.777  0.0754 -0.3674  0.1122
    1Sil    Sib 1506   2.439   2.199  10.742 -0.7407 -0.0558  0.0799
    1Sil    Sib 1507   2.976   2.185  11.140 -0.3102  0.0087  0.0190
    1Sil    Sib 1508   2.743   2.139  10.332 -0.2285  0.0261 -0.3335
    1Sil    Sib 1509   2.965   2.203  11.433 -0.0322  0.0043  0.2952
    1Sil    Sib 1510   2.380   2.198  12.235  0.4696  0.1817  0.1474
    1Sil    Sib 1511   2.668   2.137  11.837 -0.2331 -0.4045 -0.1526
    1Sil    Sib 1512   2.220   2.439  11.873 -0.3096 -0.2450  0.1925
    1Sil    Sib 1513   2.777   2.430  12.271  0.2534 -0.3548 -0.7466
    1Sil    Sib 1514   2.511   2.396  11.476  0.2262  0.0067  0.3482
    1Sil    Sib 1515   2.501   2.442  12.363  0.2899 -0.0676 -0.2313
    1Sil    Sib 1516   2.230   2.435  11.578 -0.0216  0.1004  0.2907
    1Sil    Sib 1517   2.777   2.384  11.974  0.3037  0.0499  0.2616
    1Sil    Sib 1518   2.385   2.192  11.933  0.3280 -0.2190 -0.0444
    1Sil    Sib 1519   2.936   2.184  12.334 -0.0358  0.1104 -0.0496
    1Sil    Sib 1520   2.678   2.146  11.532 -0.3938 -0.0266 -0.0241
    1Sil    Sib 1521   3.013   2.690  10.239 -0.5693 -0.0735  0.1265
    1Sil    Sib 1522   2.430   2.687  11.044  0.0871  0.2622 -0.1383
    1Sil    Sib 1523   2.723   2.628  10.640  0.5141 -0.0000 -0.0879
    1Sil    Sib 1524   2.287   2.939  10.688 -0.0798  0.1691 -0.2522
    1Sil    Sib 1525   2.818   2.928  11.073  0.1609  0.1007  0.1596
    1Sil    Sim 1526   2.578   2.885  10.294  0.0080 -0.2581  0.2791
    1Sil    Sib 1527   2.537   2.934  11.182 -0.0442 -0.3511  0.3916
    1Sil    Sib 1528   2.294   2.941  10.389  0.0408 -0.2037  0.6017
    1Sil    Sib 1529   2.840   2.876  10.775  0.5254 -0.0816  0.1589
    1Sil    Sib 1530   2.444   2.693  10.742  0.5314  0.1176 -0.7983
    1Sil    Sib 1531   2.975   2.679  11.128  0.1217 -0.2313 -0.2619
    1Sil    Sib 1532   2.737   2.630  10.327 -0.1201 -0.6333  0.2497
    1Sil    Sib 1533   2.969   2.686  11.433  0.0560  0.3872 -0.1494
    1Sil    Sib 1534   2.378   2.685  12.230  0.2265 -0.3320 -0.1371
    1Sil    Sib 1535   2.664   2.632  11.833 -0.5194 -0.1357  0.6781
    1Sil    Sib 1536   2.222   2.929  11.876  0.0062 -0.0236  0.0042
    1Sil    Sib 1537   2.756   2.929  12.266 -0.1677 -0.1405  0.4871
    1Sil    Sib 1538   2.518   2.876  11.477  0.0304  0.2135  0.1004
    1Sil    Sib 1539   2.482   2.926  12.374  0.0463 -0.1832 -0.1396
    1Sil    Sib 1540   2.240   2.932  11.577  0.2776  0.2445 -0.1705
    1Sil    Sib 1541   2.763   2.879  11.970 -0.0929 -0.1057 -0.5023
    1Sil    Sib 1542   2.386   2.683  11.930  0.1150 -0.0588 -0.2633
    1Sil    Sib 1543   2.924   2.687  12.327 -0.4047  0.1773  0.1425
    1Sil    Sib 1544   2.689   2.631  11.539  0.3847 -0.1409  0.1890
    1Sil    Sib 1545   3.011   3.187  10.249  0.3827  0.4735 -0.1953
    1Sil    Sib 1546   2.424   3.185  11.044  0.1861  0.0986 -0.0691
    1Sil    Sib 1547   2.733   3.132  10.647  0.0741 -0.1662 -0.0774
    1Sil    Sib 1548   2.274  -0.023  10.688 -0.4491 -0.4443 -0.5720
    1Sil    Sib 1549   2.809  -0.028  11.079 -0.1642 -0.1800 -0.1581
    1Sil    Sib 1550   2.570  -0.067  10.301 -0.3338 -0.1996 -0.1712
    1Sil    Sib 1551   2.533  -0.032  11.185 -0.0467 -0.7390 -0.3124
    1Sil    Sib 1552   2.295  -0.015  10.391  0.3638  0.2488 -0.1380
    1Sil    Sib 1553   2.828  -0.070  10.785 -0.0254  0.5281 -0.8257
    1Sil    Sib 1554   2.448   3.189  10.744 -0.1802  0.0266 -0.4497
    1Sil    Sib 1555   2.972   3.172  11.143  0.4086  0.1578  0.2446
    1Sil    Sib 1556   2.738   3.141  10.352  0.0169  0.0770 -0.2117
    1Sil    Sib 1557   2.950   3.167  11.432  0.1706  0.0842  0.0008
    1Sil    Sib 1558   2.371   3.176  12.246 -0.0591 -0.0855  0.0242
    1Sil    Sib 1559   2.659   3.127  11.836  0.2662 -0.3422 -0.3164
    1Sil    Sib 1560   2.218  -0.022  11.879 -0.1100  0.3598  0.0618
    1Sil    Sib 1561   2.768  -0.020  12.268  0.2719  0.0648  0.0817
    1Sil    Sib 1562   2.518  -0.085  11.489  0.4123  0.5003 -0.0848
    1Sil    Sib 1563   2.496  -0.031  12.381  0.2769  0.0713 -0.3002
    1Sil    Sib 1564   2.238  -0.021  11.575  0.1292 -0.4255 -0.1712
    1Sil    Sib 1565   2.773  -0.077  11.968 -0.0379 -0.1053 -0.0286
    1Sil    Sib 1566   2.383   3.177  11.936  0.0150  0.3977 -0.4178
    1Sil    Sib 1567   2.917   3.179  12.333 -0.4395  0.1262 -0.0906
    1Sil    Sib 1568   2.670   3.118  11.536 -0.1360  0.2958  0.0016
    1Sil    Sib 1569   3.837   0.219  10.260 -0.4978  0.1754 -0.0247
    1Sil    Sib 1570   3.253   0.211  11.039  0.0378  0.0208  0.1248
    1Sil    Sib 1571   3.555   0.163  10.651  0.5073  0.3743  0.0324
    1Sil    Sib 1572   3.106   0.472  10.688  0.0849  0.1608 -0.0194
    1Sil    Sib 1573   3.636   0.466  11.074  0.3420  0.3089 -0.1019
    1Sil    Sib 1574   3.399   0.405  10.288 -0.5207 -0.2488 -0.0738
    1Sil    Sib 1575   3.360   0.457  11.178 -0.0430 -0.1707 -0.0519
    1Sil    Sib 1576   3.119   0.463  10.390 -0.2609  0.0014 -0.2977
    1Sil    Sib 1577   3.662   0.403  10.786  0.1846  0.0607 -0.6875
    1Sil    Sib 1578   3.266   0.223  10.742 -0.1570 -0.0973 -0.4089
    1Sil    Sib 1579   3.803   0.216  11.134  0.3695  0.0761  0.0997
    1Sil    Sib 1580   3.560   0.168  10.353  0.2316 -0.0449  0.1504
    1Sil    Sib 1581   3.782   0.215  11.443 -0.9796  0.4392 -0.1904
    1Sil    Sib 1582   3.215   0.211  12.237 -0.5360  0.0901 -0.0001
    1Sil    Sib 1583   3.497   0.160  11.842 -0.2362 -0.4453  0.2977
    1Sil    Sib 1584   3.056   0.459  11.876  0.2510  0.5318  0.0549
    1Sil    Sib 1585   3.592   0.463  12.268 -0.6151 -0.2793  0.1316
    1Sil    Sib 1586   3.340   0.413  11.476 -0.1787 -0.4244 -0.3432
    1Sil    Sib 1587   3.310   0.465  12.358 -0.0872  0.1206  0.5673
    1Sil    Sib 1588   3.065   0.465  11.576  0.6924  0.1962  0.3097
    1Sil    Sib 1589   3.603   0.415  11.974 -0.3950  0.2904 -0.0595
    1Sil    Sib 1590   3.218   0.212  11.938 -0.0355  0.0578 -0.5690
    1Sil    Sib 1591   3.748   0.214  12.333  0.3181 -0.0377 -0.0824
    1Sil    Sib 1592   3.503   0.159  11.534  0.1385 -0.1179  0.1155
    1Sil    Sib 1593   3.839   0.712  10.248  0.1514  0.3289 -0.0300
    1Sil    Sib 1594   3.262   0.711  11.050 -0.1444  0.2526 -0.2963
    1Sil    Sib 1595   3.560   0.655  10.649 -0.0454  0.5379 -0.0894
    1Sil    Sib 1596   3.115   0.953  10.679 -0.4936 -0.3248 -0.3114
    1Sil    Sib 1597   3.646   0.964  11.073 -0.3357 -0.3077 -0.4381
    1Sil    Sim 1598   3.404   0.898  10.280  0.1506  0.2706 -0.1738
    1Sil    Sib 1599   3.369   0.957  11.170  0.1962 -0.1290 -0.4766
    1Sil    Sib 1600   3.128   0.957  10.384  0.3031 -0.5443 -0.0625
    1Sil    Sib 1601   3.657   0.905  10.774 -0.3173 -0.1943  0.0522
    1Sil    Sib 1602   3.277   0.712  10.750 -0.0694  0.1775 -0.0043
    1Sil    Sib 1603   3.802   0.715  11.140 -0.2237 -0.4452  0.4873
    1Sil    Sib 1604   3.559   0.655  10.348 -0.3791 -0.4508  0.1193
    1Sil    Sib 1605   3.781   0.714  11.440 -0.5586  0.1565 -0.2404
    1Sil    Sib 1606   3.205   0.713  12.237  0.4950 -0.0694 -0.7133
    1Sil    Sib 1607   3.491   0.660  11.836 -0.0172  0.0091  0.1821
    1Sil    Sib 1608   3.047   0.959  11.878 -0.1753 -0.1722 -0.2690
    1Sil    Sib 1609   3.599   0.965  12.267 -0.1556  0.5483 -0.4689
    1Sil    Sib 1610   3.348   0.902  11.471  0.1046  0.2157 -0.0313
    1Sil    Sim 1611   3.305   0.961  12.380 -0.3613 -0.0225  0.0302
    1Sil    Sib 1612   3.060   0.963  11.572  0.1396 -0.1898 -0.2895
    1Sil    Sib 1613   3.606   0.906  11.970  0.0079 -0.2918 -0.4225
    1Sil    Sib 1614   3.213   0.710  11.946  0.3945  0.0102 -0.6064
    1Sil    Sib 1615   3.752   0.711  12.321 -0.7312 -0.2147  0.0198
    1Sil    Sib 1616   3.502   0.656  11.532 -0.3317 -0.1382 -0.2525
    1Sil    Sib 1617   3.856   1.219  10.255 -0.4338  0.0505 -0.8071
    1Sil    Sib 1618   3.262   1.209  11.037  0.1324  0.1261  0.3004
    1Sil    Sib 1619   3.553   1.157  10.650  0.0349 -1.0112  0.3131
    1Sil    Sib 1620   3.105   1.461  10.680 -0.1966 -0.3607 -0.0040
    1Sil    Sib 1621   3.650   1.452  11.083 -0.1132 -0.5286  0.0477
    1Sil    Sib 1622   3.397   1.401  10.295  0.6203 -0.1305  0.1382
    1Sil    Sib 1623   3.369   1.462  11.182  0.1583  0.0967  0.0999
    1Sil    Sib 1624   3.115   1.455  10.389 -0.4485 -0.2972 -0.1252
    1Sil    Sib 1625   3.659   1.401  10.787  0.1687 -0.0701 -0.0656
    1Sil    Sib 1626   3.269   1.211  10.738  0.3074  0.4760 -0.2635
    1Sil    Sib 1627   3.808   1.203  11.131  0.3938 -0.2513 -0.3197
    1Sil    Sib 1628   3.567   1.158  10.344 -0.3569  0.4944  0.1118
    1Sil    Sib 1629   3.803   1.204  11.429 -0.2486 -0.0207  0.6033
    1Sil    Sib 1630   3.203   1.213  12.241 -0.1870  0.2487  0.1556
    1Sil    Sib 1631   3.502   1.146  11.829  0.2519  0.3338 -0.5469
    1Sil    Sib 1632   3.061   1.452  11.877 -0.1945 -0.0461  0.2443
    1Sil    Sib 1633   3.593   1.460  12.255  0.4659 -0.1183 -0.4710
    1Sil    Sib 1634   3.352   1.397  11.476  0.2928  0.0724 -0.3593
    1Sil    Sim 1635   3.317   1.459  12.380  0.4381  0.1459 -0.3946
    1Sil    Sib 1636   3.069   1.448  11.577 -0.2287  0.2826 -0.5300
    1Sil    Sib 1637   3.593   1.394  11.966 -0.0563  0.1017  0.4250
    1Sil    Sib 1638   3.221   1.203  11.938 -0.2034  0.1428  0.1889
    1Sil    Sim 1639   3.752   1.207  12.334  0.3884 -0.1238 -0.0241
    1Sil    Sib 1640   3.515   1.151  11.531 -0.3547 -0.2393  0.0801
    1Sil    Sib 1641   3.849   1.702  10.261  0.2228  0.4462  0.4886
    1Sil    Sib 1642   3.260   1.700  11.050  0.0233  0.3570 -0.1716
    1Sil    Sib 1643   3.547   1.649  10.651 -0.3792 -0.2678 -0.0109
    1Sil    Sib 1644   3.099   1.961  10.693 -0.3544  0.2484  0.1671
    1Sil    Sib 1645   3.652   1.954  11.084 -0.3937  0.1872 -0.4407
    1Sil    Sib 1646   3.411   1.894  10.293  0.0622 -0.1350  0.7666
    1Sil    Sib 1647   3.372   1.948  11.184 -0.3693  0.1051 -0.3447
    1Sil    Sib 1648   3.129   1.948  10.394 -0.3512  0.2369  0.0622
    1Sil    Sib 1649   3.665   1.891  10.799  0.0148 -1.0603 -0.3241
    1Sil    Sib 1650   3.268   1.707  10.755  0.1902  0.1909 -0.1509
    1Sil    Sib 1651   3.812   1.704  11.134  0.1389  0.0606 -0.1749
    1Sil    Sib 1652   3.566   1.650  10.352 -0.1196  0.3811 -0.0677
    1Sil    Sib 1653   3.796   1.695  11.435 -0.4369  0.3328 -0.4594
    1Sil    Sib 1654   3.199   1.695  12.234  0.6849  0.2550  0.4789
    1Sil    Sib 1655   3.490   1.650  11.833  0.5239  0.3326 -0.2961
    1Sil    Sib 1656   3.052   1.948  11.878  0.1394  0.3978  0.2587
    1Sil    Sib 1657   3.587   1.939  12.274 -0.2000 -0.2404 -0.1454
    1Sil    Sib 1658   3.346   1.891  11.482 -0.5106 -0.4927  0.1365
    1Sil    Sim 1659   3.307   1.944  12.385 -0.1474  0.7311 -0.3306
    1Sil    Sib 1660   3.067   1.953  11.579 -0.3967  0.1624  0.0964
    1Sil    Sib 1661   3.607   1.883  11.976 -0.3683 -0.1732 -0.1509
    1Sil    Sib 1662   3.214   1.702  11.938  0.2238 -0.1507 -0.3344
    1Sil    Sib 1663   3.762   1.700  12.332 -0.0851  0.4010  0.4649
    1Sil    Sib 1664   3.508   1.646  11.530 -0.1941  0.0523 -0.0322
    1Sil    Sib 1665   3.850   2.195  10.259 -0.3932  0.0439  0.0089
    1Sil    Sib 1666   3.258   2.188  11.037 -0.1348  0.3053 -0.0695
    1Sil    Sib 1667   3.554   2.130  10.653  0.3900 -0.1538  0.1293
    1Sil    Sib 1668   3.112   2.439  10.676  0.1192  0.0634  0.1783
    1Sil    Sib 1669   3.637   2.446  11.080 -0.1836  0.3388 -0.1638
    1Sil    Sib 1670   3.411   2.378  10.285 -0.1041 -0.4344  0.0626
    1Sil    Sib 1671   3.354   2.439  11.183  0.2750  0.0744  0.1896
    1Sil    Sib 1672   3.127   2.450  10.385  0.3888 -0.0548 -0.0151
    1Sil    Sib 1673   3.657   2.391  10.783 -0.0765  0.2522 -0.0743
    1Sil    Sib 1674   3.268   2.196  10.737 -0.0391  0.0947  0.0379
    1Sil    Sib 1675   3.806   2.205  11.138 -0.0581 -0.1635 -0.2610
    1Sil    Sib 1676   3.570   2.138  10.351 -0.0995 -0.3729 -0.0905
    1Sil    Sib 1677   3.793   2.188  11.436 -0.0986 -0.1834 -0.7444
    1Sil    Sib 1678   3.216   2.192  12.237  0.4684  0.0435 -0.1914
    1Sil    Sib 1679   3.490   2.131  11.837 -0.0261  0.3211 -0.0342
    1Sil    Sib 1680   3.056   2.438  11.872 -0.0108  0.2720  0.2470
    1Sil    Sib 1681   3.595   2.445  12.264 -0.1445 -0.5869 -0.0575
    1Sil    Sib 1682   3.362   2.389  11.483  0.7321  0.0233 -0.1662
    1Sil    Sib 1683   3.312   2.450  12.364  0.5473 -0.0508  0.2975
    1Sil    Sib 1684   3.075   2.446  11.567  0.6136  0.2002 -0.1013
    1Sil    Sib 1685   3.597   2.376  11.970  0.3685  0.0036 -0.7871
    1Sil    Sib 1686   3.211   2.189  11.943 -0.1179 -0.0024 -0.2859
    1Sil    Sim 1687   3.743   2.188  12.331 -0.1631  0.0097  0.0371
    1Sil    Sib 1688   3.519   2.132  11.542  0.2323 -0.0646  0.5408
    1Sil    Sib 1689   3.841   2.690  10.252 -0.4366  0.2470 -0.6206
    1Sil    Sib 1690   3.258   2.694  11.042  0.0379 -0.3033 -0.2017
    1Sil    Sib 1691   3.557   2.632  10.641  0.2664 -0.2294  0.1570
    1Sil    Sib 1692   3.124   2.927  10.684 -0.2113 -0.1005 -0.1178
    1Sil    Sib 1693   3.649   2.924  11.089 -0.2822 -0.2498 -0.2982
    1Sil    Sib 1694   3.397   2.871  10.277 -0.6500 -0.2223  0.5202
    1Sil    Sib 1695   3.360   2.935  11.187 -0.1750  0.3156 -0.1090
    1Sil    Sib 1696   3.118   2.932  10.377  0.5844  0.2512 -0.0364
    1Sil    Sib 1697   3.659   2.878  10.795  0.3020 -0.3946  0.2028
    1Sil    Sib 1698   3.275   2.686  10.746 -0.2021  0.1610 -0.0559
    1Sil    Sib 1699   3.817   2.683  11.150 -0.6031  0.0105  0.1062
    1Sil    Sib 1700   3.561   2.632  10.344 -0.0432 -0.2376 -0.2387
    1Sil    Sib 1701   3.802   2.677  11.442 -0.2565 -0.0789 -0.0161
    1Sil    Sib 1702   3.199   2.679  12.233  0.2102  0.3045  0.4650
    1Sil    Sib 1703   3.504   2.628  11.835  0.3549  0.2221 -0.0469
    1Sil    Sib 1704   3.046   2.924  11.882  0.0871  0.1264  0.1543
    1Sil    Sib 1705   3.586   2.926  12.276  0.4921  0.3257  0.0935
    1Sil    Sib 1706   3.355   2.884  11.488  0.0641  0.2764  0.4831
    1Sil    Sim 1707   3.301   2.929  12.379  0.3599  0.0901 -0.6769
    1Sil    Sib 1708   3.066   2.930  11.577 -0.0637  0.1793  0.0575
    1Sil    Sib 1709   3.608   2.873  11.970  0.1826 -0.0870  0.3454
    1Sil    Sib 1710   3.223   2.682  11.934  0.4579 -0.0359 -0.5125
    1Sil    Sib 1711   3.762   2.688  12.322  0.7160 -0.2037  0.4691
    1Sil    Sib 1712   3.519   2.630  11.534 -0.2122  0.4946 -0.2393
    1Sil    Sib 1713   3.842   3.177  10.255  0.0560  0.1218 -0.1958
    1Sil    Sib 1714   3.254   3.171  11.046  0.0714 -0.4747  0.3579
    1Sil    Sib 1715   3.554   3.127  10.650 -0.2535  0.0626  0.2141
    1Sil    Sib 1716   3.102  -0.029  10.690  0.0226  0.1709 -0.5215
    1Sil    Sib 1717   3.639  -0.033  11.086 -0.0493 -0.1117  0.0863
    1Sil    Sim 1718   3.398  -0.081  10.292  0.0023 -0.7177 -0.6120
    1Sil    Sib 1719   3.358  -0.029  11.178 -0.0508 -0.0260 -0.0994
    1Sil    Sib 1720   3.117  -0.031  10.396  0.3194  0.0878 -0.4838
    1Sil    Sib 1721   3.668  -0.078  10.782  0.0915 -0.0027 -0.0558
    1Sil    Sib 1722   3.276   3.179  10.745 -0.0026 -0.0509 -0.0259
    1Sil    Sib 1723   3.809   3.171  11.145  0.0701  0.1071 -0.2409
    1Sil    Sib 1724   3.563   3.118  10.355  0.8308  0.0013 -0.1174
    1Sil    Sib 1725   3.790   3.169  11.442 -0.1085  0.0397 -0.1507
    1Sil    Sib 1726   3.202   3.182  12.244 -0.1620  0.1353  0.2547
    1Sil    Sib 1727   3.504   3.122  11.840 -0.1359 -0.0804 -0.1436
    1Sil    Sib 1728   3.060  -0.037  11.874 -0.2234  0.1474 -0.2933
    1Sil    Sib 1729   3.593  -0.035  12.274  0.0966 -0.3379 -0.4471
    1Sil    Sib 1730   3.344  -0.080  11.475  0.0632  0.3894  0.2946
    1Sil    Sib 1731   3.319  -0.029  12.384  0.3410  0.1081 -0.0893
    1Sil    Sib 1732   3.066  -0.038  11.577 -0.1214 -0.1324  0.0256
    1Sil    Sib 1733   3.605  -0.085  11.980  0.0417 -0.3598 -0.3837
    1Sil    Sib 1734   3.219   3.167  11.945 -0.4538 -0.1523 -0.2503
    1Sil    Sib 1735   3.750   3.165  12.330  0.0451  0.0158 -0.5496
    1Sil    Sib 1736   3.512   3.129  11.543 -0.1637 -0.1916 -0.2789
    1Sil    Sim 1737   4.671   0.221  10.245  0.1302 -0.3907 -0.2446
    1Sil    Sib 1738   4.092   0.228  11.045  0.0736 -0.2113 -0.2796
    1Sil    Sib 1739   4.383   0.173  10.642  0.2988 -0.0094 -0.0484
    1Sil    Sib 1740   3.942   0.456  10.684  0.4028 -0.2716  0.3809
    1Sil    Sib 1741   4.468   0.468  11.072 -0.0019 -0.5193 -0.3750
    1Sil    Sib 1742   4.224   0.419  10.286  0.5255  0.2837 -0.2401
    1Sil    Sib 1743   4.183   0.476  11.179  0.3133 -0.0759  0.1282
    1Sil    Sib 1744   3.953   0.467  10.390 -0.2909 -0.7281 -0.3026
    1Sil    Sib 1745   4.488   0.416  10.778  0.6746  0.1244 -0.2607
    1Sil    Sib 1746   4.112   0.224  10.755  0.0643 -0.0807 -0.1679
    1Sil    Sib 1747   4.635   0.229  11.143 -0.2210  0.4337  0.1470
    1Sil    Sib 1748   4.385   0.173  10.339 -0.0010  0.5422  0.0172
    1Sil    Sib 1749   4.626   0.223  11.446  0.1694 -0.2550  0.2143
    1Sil    Sib 1750   4.032   0.210  12.241  0.0720 -0.5697 -0.1906
    1Sil    Sib 1751   4.327   0.163  11.837 -0.1492 -0.4998  0.1354
    1Sil    Sib 1752   3.887   0.466  11.879 -0.4134 -0.5126 -0.2071
    1Sil    Sib 1753   4.417   0.462  12.260 -0.2657 -0.6365  0.1448
    1Sil    Sib 1754   4.168   0.407  11.473 -0.0862  0.3126 -0.3559
    1Sil    Sib 1755   4.141   0.463  12.371 -0.2246 -0.1346 -0.6604
    1Sil    Sib 1756   3.886   0.463  11.576 -0.5995  0.1670 -0.3565
    1Sil    Sib 1757   4.436   0.414  11.969 -0.1666  0.0351 -0.1712
    1Sil    Sib 1758   4.047   0.219  11.935  0.5692  0.3580  0.3390
    1Sil    Sib 1759   4.587   0.226  12.342  0.2135 -1.0186  0.1282
    1Sil    Sib 1760   4.339   0.173  11.542 -0.5469  0.0698  0.2187
    1Sil    Sim 1761   4.679   0.721  10.236 -0.0315 -0.2901  0.3637
    1Sil    Sib 1762   4.086   0.727  11.038  0.2427  0.1434  0.2038
    1Sil    Sib 1763   4.394   0.666  10.642  0.0518  0.0810  0.1404
    1Sil    Sib 1764   3.942   0.967  10.675  0.6596 -0.3640 -0.2633
    1Sil    Sib 1765   4.471   0.955  11.087 -0.2264 -0.1124 -0.1010
    1Sil    Sim 1766   4.233   0.912  10.271 -0.2495  0.0885  0.1450
    1Sil    Sib 1767   4.189   0.960  11.187  0.1720 -0.1159  0.3534
    1Sil    Sib 1768   3.954   0.970  10.383 -0.3489 -0.2676 -0.2178
    1Sil    Sib 1769   4.488   0.911  10.775  0.1588  0.2603  0.1839
    1Sil    Sib 1770   4.101   0.715  10.733 -0.1889 -0.2129  0.3455
    1Sil    Sib 1771   4.635   0.707  11.141  0.7678  0.1222  0.0147
    1Sil    Sib 1772   4.396   0.658  10.346  0.4517 -0.2697  0.1208
    1Sil    Sib 1773   4.618   0.708  11.440 -0.2060 -0.1365  0.0574
    1Sil    Sib 1774   4.032   0.705  12.234  0.0471 -0.0643  0.0096
    1Sil    Sib 1775   4.332   0.662  11.832 -0.2325  0.2787  0.8836
    1Sil    Sib 1776   3.886   0.954  11.886 -0.1686  0.2077  0.2551
    1Sil    Sib 1777   4.419   0.961  12.266  0.2757  0.3329 -0.1621
    1Sil    Sib 1778   4.173   0.901  11.482  0.3197  0.1864  0.2567
    1Sil    Sib 1779   4.145   0.952  12.371  0.5718 -0.3714  0.0256
    1Sil    Sib 1780   3.891   0.958  11.585  0.0935 -0.1313  0.6294
    1Sil    Sib 1781   4.428   0.907  11.979 -0.2510 -0.1566  0.0564
    1Sil    Sib 1782   4.054   0.709  11.936 -0.6690  0.6215  0.1103
    1Sil    Sib 1783   4.568   0.716  12.322 -0.0568  0.4462 -0.1691
    1Sil    Sib 1784   4.331   0.647  11.529 -0.2541 -0.0630 -0.0793
    1Sil    Sib 1785   4.680   1.212  10.258 -0.0478 -0.0932 -0.3909
    1Sil    Sib 1786   4.094   1.208  11.039  0.3097  0.0081  0.0595
    1Sil    Sib 1787   4.382   1.158  10.638  0.0474 -0.0491  0.3224
    1Sil    Sib 1788   3.937   1.463  10.694  0.2282 -0.4853  0.0528
    1Sil    Sib 1789   4.476   1.450  11.082  0.1450  0.0925  0.1183
    1Sil    Sib 1790   4.221   1.414  10.284  0.1870 -0.2487  0.1576
    1Sil    Sib 1791   4.193   1.454  11.179 -0.6680 -0.0232  0.6912
    1Sil    Sib 1792   3.946   1.462  10.401  0.2010  0.4388  0.3705
    1Sil    Sib 1793   4.488   1.402  10.784 -0.0951 -0.2781 -0.2267
    1Sil    Sib 1794   4.101   1.210  10.748 -0.0289  0.7017 -0.1176
    1Sil    Sib 1795   4.637   1.201  11.148  0.1739  0.1182  0.0972
    1Sil    Sib 1796   4.394   1.160  10.331  0.6104 -0.1291 -0.1230
    1Sil    Sib 1797   4.621   1.199  11.444 -0.6808  0.2690  0.3923
    1Sil    Sib 1798   4.036   1.206  12.245  0.4829 -0.2764 -0.0329
    1Sil    Sib 1799   4.329   1.149  11.838 -0.0408 -0.1258  0.0879
    1Sil    Sib 1800   3.877   1.451  11.882 -0.0289  0.3787  0.3503
    1Sil    Sib 1801   4.432   1.449  12.260 -0.0625 -0.0212 -0.3714
    1Sil    Sib 1802   4.184   1.396  11.477 -0.1689 -0.0177 -0.5698
    1Sil    Sib 1803   4.151   1.451  12.380 -0.2203  0.1804 -0.4659
    1Sil    Sib 1804   3.902   1.448  11.575  0.1312  0.4001  0.0124
    1Sil    Sib 1805   4.445   1.397  11.967 -0.0290 -0.1055 -0.3729
    1Sil    Sib 1806   4.042   1.206  11.941  0.1318  0.4039 -0.4519
    1Sil    Sib 1807   4.584   1.208  12.319 -0.0475  0.6029  0.0850
    1Sil    Sib 1808   4.341   1.149  11.536 -0.2268  0.3450  0.3331
    1Sil    Sib 1809   4.683   1.704  10.252  0.2128 -0.4093  0.2499
    1Sil    Sib 1810   4.100   1.706  11.050  0.1475 -0.0509 -0.0899
    1Sil    Sib 1811   4.382   1.643  10.647 -0.1559  0.1294 -0.2270
    1Sil    Sib 1812   3.940   1.949  10.691 -0.4107 -0.6711  0.1209
    1Sil    Sib 1813   4.472   1.955  11.074  0.3025 -0.2535  0.4102
    1Sil    Sim 1814   4.234   1.912  10.286  0.3976  0.0879  0.6017
    1Sil    Sib 1815   4.198   1.954  11.186  0.1616 -0.5357 -0.0991
    1Sil    Sib 1816   3.957   1.948  10.392  0.4927  0.2113 -0.3925
    1Sil    Sib 1817   4.487   1.897  10.775  0.1969  0.2949 -0.5285
    1Sil    Sib 1818   4.105   1.704  10.753  0.1464 -0.0556  0.2285
    1Sil    Sib 1819   4.629   1.703  11.135 -0.0731 -0.6385 -0.0529
    1Sil    Sib 1820   4.392   1.652  10.338 -0.4569 -0.1265 -0.1408
    1Sil    Sib 1821   4.627   1.699  11.434  0.0353  0.1188  0.2469
    1Sil    Sib 1822   4.050   1.691  12.232  0.3475  0.4468 -0.2682
    1Sil    Sib 1823   4.329   1.641  11.832  0.0352  0.1075  0.0474
    1Sil    Sib 1824   3.890   1.932  11.885 -0.0009 -0.1859 -0.0247
    1Sil    Sib 1825   4.435   1.942  12.259  0.3596 -0.1474 -0.0304
    1Sil    Sib 1826   4.183   1.887  11.487 -0.1943 -0.0600 -0.3369
    1Sil    Sib 1827   4.157   1.937  12.362  0.0682 -0.1152 -0.1742
    1Sil    Sib 1828   3.902   1.946  11.584  0.2789  0.5368  0.5355
    1Sil    Sib 1829   4.437   1.885  11.971 -0.0362 -0.2753 -0.4559
    1Sil    Sib 1830   4.046   1.689  11.943 -0.3881  0.2217  0.0728
    1Sil    Sim 1831   4.588   1.693  12.334  0.2246  0.2430 -0.0788
    1Sil    Sib 1832   4.347   1.641  11.536  0.4750  0.0857 -0.2716
    1Sil    Sib 1833   4.681   2.200  10.247 -0.1629  0.3900 -0.1882
    1Sil    Sib 1834   4.092   2.198  11.044  0.2403 -0.1690 -0.7618
    1Sil    Sib 1835   4.371   2.140  10.638  0.2898  0.4679 -0.2846
    1Sil    Sib 1836   3.933   2.441  10.691  0.0782 -0.1279 -0.3885
    1Sil    Sib 1837   4.470   2.437  11.079 -0.0333 -0.1598 -0.6089
    1Sil    Sim 1838   4.224   2.401  10.276 -0.0658 -0.0260 -0.3861
    1Sil    Sib 1839   4.196   2.443  11.185 -0.2628 -0.4812 -0.0000
    1Sil    Sib 1840   3.946   2.437  10.389 -0.1652  0.3395  0.1317
    1Sil    Sib 1841   4.488   2.376  10.787 -0.2830  0.1497 -0.7683
    1Sil    Sib 1842   4.094   2.192  10.746 -0.0085 -0.1767 -0.3004
    1Sil    Sib 1843   4.633   2.200  11.142 -0.0386  0.2091 -0.4284
    1Sil    Sib 1844   4.398   2.153  10.342 -0.4348 -0.2150  0.0066
    1Sil    Sib 1845   4.627   2.185  11.443 -0.4861  0.4128  0.0130
    1Sil    Sib 1846   4.035   2.183  12.240  0.0771  0.0146 -0.2487
    1Sil    Sib 1847   4.328   2.140  11.845 -0.3263  0.4414  0.3375
    1Sil    Sib 1848   3.875   2.426  11.876  0.3114  0.7653  0.6276
    1Sil    Sib 1849   4.425   2.437  12.271 -0.5115 -0.0795  0.1702
    1Sil    Sib 1850   4.176   2.384  11.479  0.0859 -0.1915  0.0372
    1Sil    Sib 1851   4.134   2.428  12.368 -0.2260 -0.1593  0.4270
    1Sil    Sib 1852   3.890   2.432  11.583 -0.2372 -0.3594  0.0043
    1Sil    Sib 1853   4.435   2.387  11.979  0.1888 -0.4113  0.5451
    1Sil    Sib 1854   4.044   2.190  11.939  0.0967  0.3414 -0.1506
    1Sil    Sib 1855   4.592   2.192  12.330  0.4412 -0.0183  0.2720
    1Sil    Sib 1856   4.343   2.133  11.542 -0.3747 -0.1931  0.6192
    1Sil    Sib 1857   4.679   2.688  10.248 -0.1700  0.0219 -0.1051
    1Sil    Sib 1858   4.092   2.679  11.036  0.5133  0.3321  0.1262
    1Sil    Sib 1859   4.384   2.624  10.651 -0.2889  0.1475  0.0317
    1Sil    Sib 1860   3.936   2.933  10.689 -0.1713 -0.2931 -0.0843
    1Sil    Sib 1861   4.474   2.930  11.079  0.3725  0.2234  0.1353
    1Sil    Sib 1862   4.235   2.889  10.299 -0.0441  0.4497 -0.3793
    1Sil    Sib 1863   4.191   2.933  11.176 -0.3787  0.1195  0.5393
    1Sil    Sib 1864   3.947   2.938  10.390 -0.1933  0.0483  0.6959
    1Sil    Sib 1865   4.485   2.875  10.782  0.8819 -0.1689  0.4025
    1Sil    Sib 1866   4.101   2.680  10.740  0.3527 -0.1717  0.1181
    1Sil    Sib 1867   4.630   2.687  11.132 -0.4729  0.0552 -0.1440
    1Sil    Sib 1868   4.397   2.634  10.352 -0.3943  0.5041  0.0221
    1Sil    Sib 1869   4.613   2.676  11.436 -0.1994 -0.0038 -0.5576
    1Sil    Sib 1870   4.042   2.681  12.224  0.0940  0.2946 -0.0979
    1Sil    Sib 1871   4.320   2.618  11.834 -0.2746 -0.0426  0.1338
    1Sil    Sib 1872   3.891   2.920  11.881 -0.3511  0.5697  0.1365
    1Sil    Sib 1873   4.434   2.927  12.277  0.1301 -0.1945 -0.1741
    1Sil    Sib 1874   4.178   2.879  11.476 -0.2844  0.1960  0.5710
    1Sil    Sib 1875   4.154   2.926  12.364 -0.2331 -0.2934  0.2881
    1Sil    Sib 1876   3.905   2.929  11.581  0.2757 -0.3180  0.1907
    1Sil    Sib 1877   4.426   2.869  11.973  0.2602 -0.5860  0.1567
    1Sil    Sib 1878   4.031   2.669  11.928 -0.1718 -0.4033  0.4276
    1Sil    Sib 1879   4.593   2.682  12.343  0.0470 -0.0780 -0.1769
    1Sil    Sib 1880   4.336   2.636  11.534 -0.1372  0.0870 -0.4766
    1Sil    Sim 1881   4.653   3.181  10.245  0.1635 -0.5925  0.4272
    1Sil    Sib 1882   4.091   3.186  11.044 -0.2006  0.0495  0.1926
    1Sil    Sib 1883   4.382   3.128  10.643 -0.1850  0.1710 -0.8769
    1Sil    Sib 1884   3.944  -0.022  10.694 -0.2628  0.1042  0.0526
    1Sil    Sib 1885   4.470  -0.020  11.084 -0.3810 -0.2301 -0.5225
    1Sil    Sib 1886   4.218  -0.075  10.290  0.0503 -0.0387  0.0978
    1Sil    Sib 1887   4.186  -0.018  11.186  0.2277  0.4276 -0.4784
    1Sil    Sib 1888   3.935  -0.022  10.395 -0.1190 -0.2291  0.2196
    1Sil    Sib 1889   4.482  -0.076  10.785  0.3128 -0.2621 -0.1092
    1Sil    Sib 1890   4.106   3.170  10.743  0.1743 -0.1917 -0.5111
    1Sil    Sib 1891   4.632   3.182  11.145  0.0727 -0.1867  0.1481
    1Sil    Sib 1892   4.381   3.138  10.354  0.1512 -0.0723  0.2147
    1Sil    Sib 1893   4.619   3.181  11.443  0.0472  0.6837  0.2019
    1Sil    Sib 1894   4.032   3.178  12.242  0.3286  0.4490 -0.3370
    1Sil    Sib 1895   4.326   3.122  11.845 -0.1205  0.1998 -0.0609
    1Sil    Sib 1896   3.881  -0.020  11.878 -0.5688 -0.3688 -0.2379
    1Sil    Sib 1897   4.425  -0.030  12.279 -0.0353  0.3116  0.3660
    1Sil    Sib 1898   4.175  -0.077  11.484  0.0427  0.2868 -0.0623
    1Sil    Sim 1899   4.140  -0.027  12.388 -0.3860 -0.3011  0.0032
    1Sil    Sib 1900   3.894  -0.028  11.579  0.2194 -0.6136 -0.0259
    1Sil    Sib 1901   4.428  -0.079  11.986 -0.2098  0.3549 -0.1555
    1Sil    Sib 1902   4.051   3.181  11.942 -0.3732  0.5128  0.2955
    1Sil    Sim 1903   4.592   3.171  12.345 -0.4184 -0.1483 -0.1990
    1Sil    Sib 1904   4.337   3.130  11.542 -0.2021  0.3279  0.0997
    1Sil    Sib 1905   2.187   0.226  10.262 -0.0895 -0.5223  0.5403
    1Sil    Sib 1906   4.915   0.219  11.043  0.2783  0.1190  0.3407
    1Sil    Sib 1907   1.890   0.163  10.654  0.0411  0.0008 -0.2798
    1Sil    Sib 1908   4.759   0.470  10.687  0.5152  0.5672  0.4433
    1Sil    Sib 1909   5.300   0.471  11.082  0.2961 -0.2186 -0.4334
    1Sil    Sib 1910   5.058   0.412  10.291  0.2944  0.2795  0.3743
    1Sil    Sib 1911   5.019   0.469  11.186  0.1138  0.0814  0.2317
    1Sil    Sib 1912   4.777   0.482  10.380  0.4986  0.2260 -0.2135
    1Sil    Sib 1913   1.998   0.415  10.785  0.1683 -0.0839 -0.1259
    1Sil    Sib 1914   4.932   0.219  10.743  0.0481  0.1532 -0.3397
    1Sil    Sib 1915   2.144   0.221  11.138 -0.5583 -0.2237  0.0047
    1Sil    Sib 1916   1.908   0.164  10.359 -0.5757  0.2415 -0.0858
    1Sil    Sib 1917   2.131   0.224  11.436  0.0922 -0.2253  0.1183
    1Sil    Sib 1918   4.875   0.223  12.245  0.1103  0.4003 -0.1456
    1Sil    Sib 1919   1.828   0.161  11.834  0.0034 -0.0431  0.3132
    1Sil    Sib 1920   4.716   0.467  11.880 -0.0827 -0.2765  0.1064
    1Sil    Sib 1921   5.259   0.465  12.271  0.0815 -0.0985 -0.1675
    1Sil    Sib 1922   5.020   0.420  11.479 -0.1678 -0.1966  0.1655
    1Sil    Sib 1923   4.973   0.468  12.374 -0.1576  0.3510  0.1113
    1Sil    Sib 1924   4.733   0.468  11.581 -0.0607  0.1258  0.7117
    1Sil    Sib 1925   1.937   0.404  11.971  0.0417 -0.4154  0.0885
    1Sil    Sib 1926   4.878   0.223  11.950  0.2421  0.0673 -0.2139
    1Sil    Sib 1927   2.101   0.218  12.352 -0.1607  0.2838 -0.4719
    1Sil    Sib 1928   1.848   0.175  11.533 -0.1605  0.0358 -0.0174
    1Sil    Sib 1929   2.177   0.722  10.253 -0.3256 -0.1261 -0.3257
    1Sil    Sib 1930   4.913   0.718  11.041 -0.4576  0.1972  0.7397
    1Sil    Sib 1931   1.892   0.654  10.645 -0.6446 -0.2192  0.0072
    1Sil    Sib 1932   4.767   0.963  10.682  0.5874  0.5630  0.0476
    1Sil    Sib 1933   5.289   0.957  11.083 -0.3151 -0.1736 -0.0696
    1Sil    Sib 1934   5.050   0.917  10.297 -0.1125 -0.0270  0.4426
    1Sil    Sib 1935   5.014   0.964  11.176  0.0587 -0.2435  0.0146
    1Sil    Sib 1936   4.774   0.962  10.390  0.2073 -0.0871  0.0912
    1Sil    Sib 1937   1.999   0.908  10.782  0.7925  0.3275  0.0291
    1Sil    Sib 1938   4.931   0.715  10.743 -0.5492 -0.2198  0.3459
    1Sil    Sib 1939   2.147   0.723  11.147  0.3177  0.2499 -0.4663
    1Sil    Sib 1940   5.220   0.663  10.338  0.2126  0.3203  0.2680
    1Sil    Sib 1941   2.130   0.718  11.442  0.1120  0.1210  0.1103
    1Sil    Sib 1942   4.852   0.721  12.235 -0.3096  0.6867  0.2666
    1Sil    Sib 1943   1.831   0.658  11.837 -0.5005 -0.1362  0.3420
    1Sil    Sib 1944   4.707   0.960  11.880 -0.0382  0.3406  0.1609
    1Sil    Sib 1945   5.259   0.956  12.270  0.1931 -0.0893 -0.4696
    1Sil    Sib 1946   4.999   0.911  11.475  0.0557  0.2626  0.2114
    1Sil    Sib 1947   4.979   0.966  12.370 -0.0509 -0.0580 -0.1262
    1Sil    Sib 1948   4.722   0.953  11.579  0.0394  0.1605 -0.3125
    1Sil    Sib 1949   1.950   0.907  11.971 -0.0819  0.2101 -0.3771
    1Sil    Sib 1950   4.872   0.720  11.938 -0.0350  0.3038  0.1668
    1Sil    Sib 1951   2.099   0.704  12.325 -0.2310 -0.0373 -0.2499
    1Sil    Sib 1952   5.169   0.669  11.538 -0.1840  0.0944 -0.4894
    1Sil    Sim 1953   2.185   1.204  10.248  0.0424 -0.0706 -0.0241
    1Sil    Sib 1954   4.908   1.208  11.037 -0.6774  0.4945 -0.5153
    1Sil    Sib 1955   1.885   1.157  10.647 -0.2161 -0.2090  0.0237
    1Sil    Sib 1956   4.773   1.458  10.677  0.6090 -0.0410 -0.0747
    1Sil    Sib 1957   5.302   1.445  11.068 -0.0726 -0.0089  0.3535
    1Sil    Sib 1958   5.062   1.407  10.282  0.1508  0.0262  0.5222
    1Sil    Sib 1959   5.018   1.451  11.168  0.4865  0.2106  0.0527
    1Sil    Sib 1960   4.783   1.455  10.387  0.1034  0.1463  0.3577
    1Sil    Sib 1961   2.000   1.409  10.768  0.4577  0.1867 -0.5972
    1Sil    Sib 1962   4.931   1.209  10.733  0.0046 -0.3727  0.2398
    1Sil    Sib 1963   2.131   1.201  11.134 -0.0127  0.7494 -0.1565
    1Sil    Sib 1964   5.220   1.156  10.348 -0.2777  0.5798  0.0554
    1Sil    Sib 1965   2.130   1.210  11.424  0.1857 -0.2579  0.0842
    1Sil    Sib 1966   4.871   1.206  12.229 -0.1998 -0.0404  0.4246
    1Sil    Sib 1967   1.844   1.159  11.831 -0.1410 -0.2649 -0.2165
    1Sil    Sib 1968   4.721   1.442  11.872  0.2300 -0.2313 -0.1547
    1Sil    Sib 1969   5.252   1.449  12.267 -0.4358 -0.0356 -0.0795
    1Sil    Sib 1970   5.014   1.396  11.471 -0.0965 -0.2245 -0.1974
    1Sil    Sib 1971   4.972   1.462  12.364  0.0759  0.1312 -0.1328
    1Sil    Sib 1972   4.731   1.450  11.572  0.4101 -0.1476 -0.4853
    1Sil    Sib 1973   1.952   1.396  11.973 -0.4020 -0.8166 -0.2318
    1Sil    Sib 1974   4.881   1.199  11.927  0.1672  0.3646  0.1477
    1Sil    Sib 1975   2.104   1.205  12.323 -0.0479 -0.2978  0.1854
    1Sil    Sib 1976   5.173   1.152  11.528 -0.2981 -0.5349  0.0863
    1Sil    Sib 1977   2.176   1.712  10.243  0.3152 -0.3482  0.6827
    1Sil    Sib 1978   4.914   1.702  11.043  0.3969 -0.0477 -0.5315
    1Sil    Sib 1979   1.901   1.661  10.634 -0.1758  0.2689  0.1382
    1Sil    Sib 1980   4.779   1.956  10.695  0.0271  0.1340  0.3275
    1Sil    Sib 1981   5.300   1.942  11.078 -0.0773  0.3727  0.5530
    1Sil    Sib 1982   5.055   1.901  10.287  0.1176 -0.1349 -0.1194
    1Sil    Sib 1983   5.023   1.943  11.182  0.3151 -0.1884 -0.6458
    1Sil    Sib 1984   4.779   1.955  10.398 -0.6371  0.0244 -0.0962
    1Sil    Sib 1985   2.005   1.899  10.780  0.5583  0.3348 -0.1772
    1Sil    Sib 1986   4.938   1.705  10.739 -0.1505  0.4966 -0.2375
    1Sil    Sib 1987   2.143   1.691  11.138  0.6399 -0.0572  0.0322
    1Sil    Sib 1988   5.225   1.661  10.344 -0.1723 -0.4865 -0.5717
    1Sil    Sib 1989   2.134   1.697  11.442  0.1668 -0.2113  0.0938
    1Sil    Sib 1990   4.869   1.706  12.240  0.4512  0.0565  0.1558
    1Sil    Sib 1991   1.841   1.637  11.836 -0.5180 -0.0128  0.1100
    1Sil    Sib 1992   4.717   1.938  11.873  0.2222  0.1582  0.3090
    1Sil    Sib 1993   5.253   1.945  12.273  0.2767 -0.0297 -0.1531
    1Sil    Sib 1994   5.003   1.886  11.474  0.0151  0.2527  0.3670
    1Sil    Sib 1995   4.979   1.958  12.382 -0.2013  0.6290 -0.2263
    1Sil    Sib 1996   4.727   1.931  11.575  0.1062 -0.1428 -0.2862
    1Sil    Sib 1997   1.939   1.883  11.979  0.3636  0.1543  0.1557
    1Sil    Sib 1998   4.878   1.692  11.939  0.6687  0.0031  0.0945
    1Sil    Sib 1999   2.094   1.694  12.326 -0.0548  0.0727 -0.2247
    1Sil    Sib 2000   5.182   1.640  11.540  0.0733 -0.4897 -0.4489
    1Sil    Sib 2001   2.191   2.195  10.244 -0.6110  0.5325  0.2751
    1Sil    Sib 2002   4.921   2.199  11.053  0.0578  0.0727  0.0026
    1Sil    Sib 2003   1.895   2.146  10.653 -0.0383  0.1702  0.2157
    1Sil    Sib 2004   4.768   2.444  10.685  0.1536 -0.5240 -0.0629
    1Sil    Sib 2005   5.307   2.444  11.090 -0.2741  0.0466  0.1956
    1Sil    Sim 2006   5.079   2.396  10.280 -0.5665 -0.1984 -0.5482
    1Sil    Sib 2007   5.026   2.446  11.189  0.1532  0.0649  0.1703
    1Sil    Sib 2008   4.791   2.447  10.381  0.4036 -0.4771 -0.2697
    1Sil    Sib 2009   2.007   2.390  10.781  0.4396  0.3600 -0.3245
    1Sil    Sib 2010   4.935   2.205  10.755 -0.1108 -0.2505  0.5676
    1Sil    Sib 2011   2.143   2.191  11.147  0.1326  0.0302 -0.3151
    1Sil    Sib 2012   5.227   2.138  10.347  0.2049 -0.0379 -0.0092
    1Sil    Sib 2013   2.125   2.184  11.443  0.1020 -0.3500  0.2694
    1Sil    Sib 2014   4.887   2.208  12.247  0.1369 -0.0411 -0.6072
    1Sil    Sib 2015   1.836   2.126  11.835  0.1825 -0.2302 -0.1847
    1Sil    Sib 2016   4.711   2.437  11.878  0.0139  0.4537  0.1138
    1Sil    Sib 2017   5.255   2.441  12.269  0.1110 -0.0095 -0.1508
    1Sil    Sib 2018   5.006   2.383  11.486  0.2604 -0.2715 -0.0329
    1Sil    Sim 2019   4.987   2.457  12.385  0.0084  0.1694  0.1306
    1Sil    Sib 2020   4.724   2.430  11.578  0.0873 -0.2500 -0.2245
    1Sil    Sib 2021   1.932   2.380  11.975  0.1788  0.2174  0.4829
    1Sil    Sib 2022   4.881   2.190  11.943 -0.2015  0.3650 -0.3333
    1Sil    Sib 2023   2.098   2.189  12.334 -0.0214 -0.0570 -0.1122
    1Sil    Sib 2024   5.161   2.137  11.534  0.6351 -0.6778 -0.3154
    1Sil    Sib 2025   2.183   2.699  10.250  0.0479  0.4344  0.3693
    1Sil    Sib 2026   4.918   2.689  11.054 -0.0207  0.0370  0.1445
    1Sil    Sib 2027   1.895   2.635  10.651 -0.3127 -0.2117  0.0835
    1Sil    Sib 2028   4.773   2.924  10.678 -0.2424  0.2114 -0.0460
    1Sil    Sib 2029   5.304   2.935  11.076 -0.0759 -0.3372 -0.1756
    1Sil    Sim 2030   5.066   2.887  10.289 -0.0952  0.3447  0.0648
    1Sil    Sib 2031   5.026   2.935  11.185  0.2142 -0.4809 -0.3126
    1Sil    Sib 2032   4.771   2.936  10.392 -0.3415  0.2311  0.0810
    1Sil    Sib 2033   2.003   2.874  10.785  0.0392 -0.0693 -0.3619
    1Sil    Sib 2034   4.930   2.683  10.749  0.3356 -0.0083 -0.0767
    1Sil    Sib 2035   2.144   2.688  11.144 -0.1321 -0.0990  0.0723
    1Sil    Sib 2036   5.231   2.644  10.362  0.1577  0.0803  0.0462
    1Sil    Sib 2037   2.117   2.689  11.444 -0.4766  0.1133 -0.6441
    1Sil    Sib 2038   4.867   2.693  12.234  0.0690  0.0539 -0.1769
    1Sil    Sib 2039   1.828   2.634  11.843 -0.4138 -0.1574  0.1165
    1Sil    Sib 2040   4.708   2.931  11.874  0.0733  0.3359 -0.2264
    1Sil    Sib 2041   5.256   2.934  12.269  0.0402  0.0961  0.0320
    1Sil    Sib 2042   5.008   2.876  11.483 -0.4091 -0.1604  0.1403
    1Sil    Sib 2043   4.979   2.937  12.377  0.0479  0.2185  0.0083
    1Sil    Sib 2044   4.719   2.928  11.573  0.3300 -0.1133  0.0191
    1Sil    Sib 2045   1.935   2.887  11.976 -0.0246  0.3273 -0.0914
    1Sil    Sib 2046   4.872   2.689  11.933 -0.1872  0.0530  0.0932
    1Sil    Sib 2047   2.094   2.683  12.312 -0.3984  0.1217  0.4677
    1Sil    Sib 2048   5.167   2.632  11.546  0.4442  0.0284 -0.1183
    1Sil    Sib 2049   2.191   3.191  10.248 -0.1734 -0.1344  0.2613
    1Sil    Sib 2050   4.916   3.172  11.041 -0.0010  0.0498  0.1670
    1Sil    Sib 2051   1.888   3.121  10.654 -0.1863  0.0370 -0.5013
    1Sil    Sib 2052   4.770  -0.028  10.692  0.2062 -0.1681 -0.3169
    1Sil    Sib 2053   1.976  -0.019  11.087 -0.1444  0.3418 -0.1148
    1Sil    Sib 2054   1.749  -0.079  10.289 -0.3925  0.1168 -0.3805
    1Sil    Sib 2055   5.024  -0.029  11.179 -0.2577  0.2944 -0.1535
    1Sil    Sib 2056   4.786  -0.036  10.381  0.0129  0.3398  0.3657
    1Sil    Sib 2057   1.991  -0.089  10.789 -0.1770 -0.0554 -0.3441
    1Sil    Sib 2058   4.928   3.174  10.747  0.1856  0.1157 -0.1149
    1Sil    Sib 2059   2.139   3.184  11.136 -0.1531 -0.0365  0.0524
    1Sil    Sib 2060   5.233   3.125  10.357  0.3008 -0.1279 -0.0528
    1Sil    Sib 2061   2.134   3.176  11.440 -0.4095 -0.1544  0.1380
    1Sil    Sib 2062   4.872   3.176  12.234  0.2851 -0.0155 -0.8465
    1Sil    Sib 2063   1.825   3.130  11.847  0.4349  0.3291  0.2422
    1Sil    Sib 2064   4.712  -0.015  11.888  0.0876 -0.1295  0.0775
    1Sil    Sib 2065   1.935  -0.014  12.264 -0.2551  0.3899  0.1502
    1Sil    Sib 2066   1.684  -0.074  11.481 -0.1686 -0.1987 -0.2017
    1Sil    Sim 2067   4.985  -0.024  12.376 -0.2164  0.3610  0.0971
    1Sil    Sib 2068   4.726  -0.027  11.590  0.1754 -0.3961  0.3631
    1Sil    Sib 2069   1.938  -0.071  11.976  0.3402  0.3712 -0.1709
    1Sil    Sib 2070   4.872   3.179  11.945  0.1324 -0.0888 -0.1413
    1Sil    Sib 2071   2.092   3.182  12.324 -0.4236 -0.1322  0.1799
    1Sil    Sib 2072   5.164   3.126  11.549 -0.0067  0.2932 -0.0832
    1Sil     Hy 2073   3.053   0.274  10.064  0.8103  1.7105  1.9729
    1Sil     Hy 2074   2.476   0.348  10.103  1.1765 -0.2580 -0.0104
    1Sil     Hy 2075   2.480   0.515  12.588 -1.5959 -0.4481  0.7484
    1Sil     Hm 2076   2.962   0.127  12.553 -0.6869 -0.4184  0.1677
    1Sil     Hm 2077   3.030   0.288  12.529  1.4770 -1.4700 -0.8056
    1Sil     Hm 2078   2.861   0.267  12.557  0.3353 -1.2722  0.3655
    1Sil     Hy 2079   3.082   0.791  10.084 -2.7675  0.4815 -1.6836
    1Sil     Hy 2080   2.615   0.935  10.105  1.5259 -0.6379  1.7783
    1Sil     Hy 2081   2.477   0.881  12.544  0.2793 -0.3351 -1.4183
    1Sil     Hy 2082   2.964   0.618  12.498  1.1198  0.1351  2.3643
    1Sil     Hm 2083   3.039   1.263  10.031  2.0083  1.9746  1.0053
    1Sil     Hm 2084   3.188   1.205  10.100  0.2101  0.8524  1.8117
    1Sil     Hm 2085   3.056   1.085  10.066 -0.1044  0.0242 -0.2320
    1Sil     Hy 2086   2.602   1.507  10.089  1.4351 -1.3965 -1.8720
    1Sil     Hm 2087   2.339   1.450  12.566 -0.4291 -1.0097 -1.0381
    1Sil     Hm 2088   2.422   1.299  12.542 -0.3519 -0.5135  0.4604
    1Sil     Hm 2089   2.510   1.448  12.596 -0.1728  1.5235 -0.8421
    1Sil     Hy 2090   2.913   1.235  12.537 -3.0501 -0.2606 -1.2673
    1Sil     Hy 2091   3.140   1.601  10.104  0.8343  0.8693 -0.0592
    1Sil     Hm 2092   2.616   1.908  10.041  0.4830 -0.2573  0.6814
    1Sil     Hm 2093   2.445   1.857  10.082  0.2269 -0.7366  0.6244
    1Sil     Hm 2094   2.495   2.025  10.087 -1.5806  0.0418  3.4466
    1Sil     Hy 2095   2.450   1.995  12.552  0.7947  1.3300 -1.3944
    1Sil     Hm 2096   2.854   1.668  12.570  0.8654 -0.9374  1.7975
    1Sil     Hm 2097   2.976   1.548  12.539  1.6047  0.8255  1.1620
    1Sil     Hm 2098   3.026   1.718  12.560  2.3320 -1.5442 -0.1079
    1Sil     Hy 2099   3.067   2.094  10.065 -0.8419  1.0989 -1.6598
    1Sil     Hm 2100   2.618   2.411  10.047 -0.8910  0.1316 -0.8526
    1Sil     Hm 2101   2.460   2.339  10.085  0.0858  0.5864 -1.4690
    1Sil     Hm 2102   2.496   2.510  10.117  2.1856  0.9758  4.5530
    1Sil     Hy 2103   2.419   2.502  12.557 -0.7605  1.0460 -2.8309
    1Sil     Hy 2104   2.922   2.209  12.547 -2.5857 -1.9038 -0.5995
    1Sil     Hy 2105   3.087   2.776  10.066 -2.5034  1.5172  1.5150
    1Sil     Hm 2106   2.483   3.025  10.135 -0.0137  0.4122 -0.9691
    1Sil     Hm 2107   2.612   2.925  10.070 -1.0882  1.9163 -1.0755
    1Sil     Hm 2108   2.455   2.853  10.111  1.2350 -1.2000  0.3512
    1Sil     Hy 2109   2.454   2.986  12.573 -0.8087 -0.4267  1.1450
    1Sil     Hy 2110   2.859   2.711  12.522 -1.3785 -0.2383 -1.4518
    1Sil     Hy 2111   3.143   3.117  10.088 -0.7412 -1.7598  0.2655
    1Sil     Hy 2112   2.558   0.031  10.125 -0.4457  0.5138 -0.7783
    1Sil     Hy 2113   2.482  -0.125  12.577 -0.1700  0.0079  0.2482
    1Sil     Hy 2114   3.009   3.224  12.515 -1.3744  1.0266  2.0293
    1Sil     Hy 2115   3.824   0.183  10.055  0.0789  1.1644  0.6184
    1Sil     Hy 2116   3.430   0.374  10.084 -0.4303 -1.2437  1.4116
    1Sil     Hy 2117   3.319   0.348  12.540  0.7946 -0.3038 -1.2439
    1Sil     Hy 2118   3.687   0.185  12.530 -0.8475  2.3674 -2.4148
    1Sil     Hy 2119   3.832   0.629  10.055  0.2794 -0.4715  0.2013
    1Sil     Hm 2120   3.274   0.995  10.110 -0.2247  0.1091 -0.0858
    1Sil     Hm 2121   3.441   0.977  10.064 -0.2887  0.8215 -0.5323
    1Sil     Hm 2122   3.337   0.832  10.066 -1.2483  0.1159  0.5078
    1Sil     Hm 2123   3.305   0.986  12.601 -0.9651  0.2716  0.4379
    1Sil     Hm 2124   3.155   0.904  12.538 -0.4199  3.1691 -0.2155
    1Sil     Hm 2125   3.317   0.823  12.544 -1.4044 -0.7988 -1.6472
    1Sil     Hy 2126   3.759   0.593  12.499  0.5186  0.4283  0.8655
    1Sil     Hy 2127   3.883   1.105  10.079  1.3409 -0.5453 -0.9429
    1Sil     Hy 2128   3.431   1.392  10.094 -0.0641 -1.0460  0.9004
    1Sil     Hm 2129   3.234   1.355  12.563 -2.3164  0.1173 -3.3005
    1Sil     Hm 2130   3.375   1.453  12.587 -0.3213 -2.6503  0.5793
    1Sil     Hm 2131   3.216   1.529  12.577  0.1480 -0.7002  1.4069
    1Sil     Hm 2132   3.687   1.243  12.554 -0.0707  1.8964 -1.1071
    1Sil     Hm 2133   3.769   1.083  12.527  0.8827  0.0493 -1.3718
    1Sil     Hm 2134   3.861   1.236  12.534 -0.3998 -1.2445  2.5370
    1Sil     Hy 2135   3.966   1.590  10.123  1.3152  0.9584  1.2971
    1Sil     Hy 2136   3.393   2.009  10.112 -1.0562  0.9553 -0.0138
    1Sil     Hm 2137   3.313   1.972  12.611 -0.5695  3.3292 -0.6296
    1Sil     Hm 2138   3.148   1.954  12.557  0.4241  2.5208 -2.8108
    1Sil     Hm 2139   3.260   1.812  12.549 -0.3513  0.1943 -2.2516
    1Sil     Hy 2140   3.762   1.745  12.535  0.4688  0.1238 -0.7282
    1Sil     Hy 2141   3.815   2.134  10.060 -1.7872 -0.3729  1.9423
    1Sil     Hy 2142   3.398   2.328  10.078 -1.0289 -0.9082  0.2272
    1Sil     Hy 2143   3.319   2.348  12.547  1.9896  0.5892 -0.3172
    1Sil     Hm 2144   3.797   2.075  12.514 -0.9669 -0.4549 -0.3195
    1Sil     Hm 2145   3.676   2.201  12.546 -0.6308 -0.4654 -0.5227
    1Sil     Hm 2146   3.839   2.248  12.537 -0.7316 -0.2175  3.1549
    1Sil     Hy 2147   3.829   2.625  10.057  0.7007 -4.2409  2.6492
    1Sil     Hy 2148   3.380   2.826  10.065 -1.4429 -0.1594  0.0408
    1Sil     Hm 2149   3.310   2.970  12.593 -1.2036  0.4481  1.8934
    1Sil     Hm 2150   3.152   2.920  12.562  0.7225 -0.4260 -1.8235
    1Sil     Hm 2151   3.279   2.796  12.556 -0.0504 -0.1831 -0.9138
    1Sil     Hy 2152   3.760   2.693  12.547  0.3265  1.6076 -0.8332
    1Sil     Hy 2153   3.833   3.106  10.053 -1.5411 -0.7151  2.5638
    1Sil     Hm 2154   3.257  -0.007  10.125 -0.8258 -0.8682  1.7517
    1Sil     Hm 2155   3.422   0.028  10.079  0.9183 -2.6812 -1.6511
    1Sil     Hm 2156   3.368  -0.139  10.065 -1.1487  0.6103 -1.2520
    1Sil     Hy 2157   3.302   0.032  12.578 -1.3587 -0.1463  0.6433
    1Sil     Hy 2158   3.749   3.202  12.536  0.9151  0.7052 -0.1449
    1Sil     Hm 2159   4.684   0.107  10.035  1.5248  1.4560 -1.7560
    1Sil     Hm 2160   4.830   0.206  10.059  1.1577 -1.7373  0.3079
    1Sil     Hm 2161   4.679   0.281  10.017 -0.2112 -0.8762 -2.5403
    1Sil     Hy 2162   4.204   0.380  10.079  0.6505  1.5134 -1.8732
    1Sil     Hy 2163   4.164   0.366  12.551 -1.4291 -2.3423 -2.2425
    1Sil     Hy 2164   4.554   0.167  12.533 -0.1702 -0.9032 -1.5916
    1Sil     Hm 2165   4.758   0.773  10.029  0.2819 -0.1603 -0.8404
    1Sil     Hm 2166   4.822   0.620  10.086 -0.5634  0.8928 -0.1122
    1Sil     Hm 2167   4.654   0.633  10.030 -0.7707 -2.1714  1.4423
    1Sil     Hm 2168   4.149   1.034  10.104 -1.1519  0.0530  3.5633
    1Sil     Hm 2169   4.266   0.912  10.039 -2.4750 -1.0986 -2.2735
    1Sil     Hm 2170   4.099   0.868  10.082 -0.7702  1.1368 -0.7629
    1Sil     Hy 2171   4.122   1.014  12.585  1.4300 -0.5605  0.6720
    1Sil     Hy 2172   4.570   0.778  12.515 -1.2861  0.0309 -0.1981
    1Sil     Hy 2173   4.800   1.265  10.094  0.5499 -0.3123  2.5504
    1Sil     Hy 2174   4.182   1.368  10.080  0.2854 -0.2183  0.4621
    1Sil     Hy 2175   4.198   1.367  12.544  0.0259 -0.5096 -0.9792
    1Sil     Hy 2176   4.654   1.095  12.467 -0.1568  0.0911 -1.7468
    1Sil     Hy 2177   4.671   1.628  10.070 -1.2947  0.3719  0.8278
    1Sil     Hm 2178   4.114   1.881  10.092  0.1124 -0.2682 -0.4092
    1Sil     Hm 2179   4.142   2.056  10.137  0.6244  0.4943  3.5434
    1Sil     Hm 2180   4.275   1.967  10.070 -0.0968  0.4309  0.7633
    1Sil     Hy 2181   4.104   1.978  12.567  1.7435 -0.1717 -0.0851
    1Sil     Hm 2182   4.676   1.742  12.544  0.2489 -1.0164 -0.2849
    1Sil     Hm 2183   4.523   1.664  12.552 -1.3600  0.2507 -1.4607
    1Sil     Hm 2184   4.659   1.563  12.521 -3.0164 -1.7200  0.3626
    1Sil     Hy 2185   4.821   2.112  10.125  0.3568  0.6468  0.7502
    1Sil     Hm 2186   4.265   2.435  10.062  1.2624  0.6932  1.6637
    1Sil     Hm 2187   4.102   2.374  10.085 -1.3838 -1.9506  2.1750
    1Sil     Hm 2188   4.136   2.543  10.114  0.6918  0.0950 -0.1811
    1Sil     Hy 2189   4.024   2.475  12.538  0.9726  0.4784  0.2064
    1Sil     Hy 2190   4.519   2.138  12.513  0.5674  0.3562  1.4706
    1Sil     Hy 2191   4.637   2.684  10.048  0.5564  0.1992  0.3127
    1Sil     Hy 2192   4.177   2.805  10.111  2.2472 -0.5736  0.3395
    1Sil     Hy 2193   4.084   2.947  12.575  1.6983 -1.2292  1.6091
    1Sil     Hy 2194   4.584   2.709  12.552  1.4824  1.4016  0.9867
    1Sil     Hm 2195   4.680   3.223  10.025 -1.0273  0.8198  0.8923
    1Sil     Hm 2196   4.807   3.142  10.101 -0.2582  0.0769 -1.8322
    1Sil     Hm 2197   4.651   3.051  10.072 -1.5363  0.5641 -1.0452
    1Sil     Hy 2198   4.141  -0.152  10.122  1.4982 -0.1830 -2.0952
    1Sil     Hm 2199   4.166  -0.021  12.615  1.0010  0.9572 -0.1793
    1Sil     Hm 2200   4.055  -0.152  12.558 -2.1966  0.4139  1.2036
    1Sil     Hm 2201   4.008   0.025  12.562 -0.3531 -1.1714 -1.9474
    1Sil     Hm 2202   4.519   3.137  12.558  0.5028  3.7607  0.5510
    1Sil     Hm 2203   4.663   3.038  12.525 -0.3858 -0.6909 -3.2689
    1Sil     Hm 2204   4.684   3.207  12.555  2.6115 -1.3260 -0.5178
    1Sil     Hy 2205   2.174   0.269  10.065  0.3420 -0.3457 -0.3375
    1Sil     Hy 2206   5.064   0.330  10.096  0.7341 -0.1690 -0.4676
    1Sil     Hy 2207   4.851   0.448  12.551 -0.4938 -1.8211 -0.2718
    1Sil     Hy 2208   2.121   0.285  12.544 -0.1345 -0.4375  1.2217
    1Sil     Hy 2209   2.184   0.748  10.046  0.0657  0.0098 -0.4822
    1Sil     Hy 2210   5.069   0.889  10.097 -0.2438 -1.0881  1.0443
    1Sil     Hy 2211   5.015   0.998  12.579 -1.5368  1.4432  1.2942
    1Sil     Hy 2212   2.086   0.606  12.514  0.5997 -0.0352 -0.3230
    1Sil     Hm 2213   2.159   1.136  10.047 -0.0994 -2.6245  0.9346
    1Sil     Hm 2214   2.275   1.270  10.040  2.2927 -0.9872 -0.1273
    1Sil     Hm 2215   2.326   1.106  10.091  1.6322  1.8878 -2.8100
    1Sil     Hy 2216   5.067   1.528  10.124  0.6285 -0.8651 -2.8986
    1Sil     Hy 2217   4.870   1.507  12.551 -2.0415 -0.8836  0.2074
    1Sil     Hy 2218   2.121   1.248  12.527  0.5059  0.3895 -0.7049
    1Sil     Hy 2219   2.223   1.770  10.053  0.2093 -0.1757  0.5101
    1Sil     Hy 2220   4.987   1.866  10.083  0.3053 -0.5090  0.1092
    1Sil     Hy 2221   4.997   1.989  12.593 -1.5511  2.7084 -0.8369
    1Sil     Hy 2222   2.050   1.608  12.524 -1.1295  2.4699  2.2605
    1Sil     Hy 2223   2.196   2.262  10.061 -2.2029 -1.4859  0.4663
    1Sil     Hm 2224   5.136   2.472  10.059 -0.3496 -0.6804  0.9316
    1Sil     Hm 2225   4.997   2.362  10.062 -2.4426  2.2272 -0.9789
    1Sil     Hm 2226   4.971   2.526  10.107 -0.7700 -0.1296 -0.8128
    1Sil     Hm 2227   4.971   2.504  12.611 -0.1539 -0.0222 -1.0995
    1Sil     Hm 2228   4.995   2.332  12.581  0.2346 -0.9335 -0.5474
    1Sil     Hm 2229   4.836   2.393  12.560 -0.4040 -0.6970 -1.6333
    1Sil     Hy 2230   2.052   2.172  12.549 -1.2608 -4.0503 -1.0603
    1Sil     Hy 2231   2.138   2.616  10.064  1.4709 -1.1952  0.2436
    1Sil     Hm 2232   5.036   3.008  10.114 -0.7931  0.3055  2.6278
    1Sil     Hm 2233   5.124   2.844  10.084 -0.1951  0.7951 -1.5421
    1Sil     Hm 2234   4.947   2.854  10.116 -0.0776  1.6872 -0.3846
    1Sil     Hy 2235   4.957   3.001  12.573  1.0882 -0.2300  0.6541
    1Sil     Hy 2236   2.127   2.742  12.514 -0.9565  0.3608 -1.0997
    1Sil     Hy 2237   2.194   3.103  10.052 -0.8352  1.5493 -0.9629
    1Sil     Hy 2238   1.701  -0.132  10.096 -0.4092  0.1287 -1.3811
    1Sil     Hm 2239   4.945  -0.169  12.556 -1.3579 -0.6036 -0.6767
    1Sil     Hm 2240   5.020  -0.022  12.615 -1.5319  2.9340  0.5686
    1Sil     Hm 2241   4.851  -0.025  12.572  1.3503  0.3570  1.7616
    1Sil     Hy 2242   2.114   3.265  12.510 -0.6710  0.9085 -1.1307
    2Eth     Ho 2243   2.610   1.733   1.309 -3.9515 -1.3535  0.3173
    2Eth     Oh 2244   2.627   1.707   1.398  0.2620  0.0023  0.0168
    2Eth     Co 2245   2.688   1.816   1.460  0.6096  0.1957  0.4996
    2Eth    Hco 2246   2.606   1.868   1.509 -0.1777 -0.2386 -0.3568
    2Eth    Hco 2247   2.722   1.872   1.373  1.2139 -0.6247  0.2061
    2Eth     Ch 2248   2.798   1.761   1.553 -0.5932  0.3503  1.1596
    2Eth    Hcc 2249   2.761   1.701   1.637 -2.8515  1.2484  0.8176
    2Eth    Hcc 2250   2.850   1.837   1.611 -0.2649 -0.3076  1.7457
    2Eth    Hcc 2251   2.873   1.708   1.494  0.6780  3.6068 -0.2254
    3Eth     Ho 2252   1.913   3.340   3.676 -0.2663  0.0424 -0.5174
    3Eth     Oh 2253   1.878   3.406   3.733  0.9376  0.1569  0.1089
    3Eth     Co 2254   1.739   3.413   3.725  0.6806  0.5887 -0.3347
    3Eth    Hco 2255   1.687   3.350   3.798  1.4824  0.3883  0.0746
    3Eth    Hco 2256   1.709   3.387   3.624 -2.4101 -1.9902  1.1645
    3Eth     Ch 2257   1.688   3.551   3.753 -0.2753 -0.2861 -0.3260
    3Eth    Hcc 2258   1.699   3.583   3.856  0.8857  1.0817 -0.8693
    3Eth    Hcc 2259   1.583   3.538   3.727 -0.1259  0.1868 -1.1817
    3Eth    Hcc 2260   1.746   3.616   3.687  1.9053 -1.9461 -0.1107
    4Eth     Ho 2261   2.904   1.407   7.476  2.0841 -0.2220  0.5963
    4Eth     Oh 2262   2.909   1.497   7.504  0.6732  0.0675 -0.0544
    4Eth     Co 2263   2.937   1.592   7.399  0.7798  0.3688 -0.6634
    4Eth    Hco 2264   2.856   1.585   7.326  0.7135  0.6579 -0.6168
    4Eth    Hco 2265   3.034   1.569   7.354  0.2832 -2.0065 -0.6083
    4Eth     Ch 2266   2.944   1.735   7.452  0.0316  0.2502 -0.0312
    4Eth    Hcc 2267   3.027   1.747   7.522 -0.3218  1.2756  0.2135
    4Eth    Hcc 2268   2.857   1.763   7.512  1.9219  1.7680  2.0696
    4Eth    Hcc 2269   2.960   1.806   7.372  1.2837 -0.3603 -0.3269
    5Eth     Ho 2270   2.566   0.758   9.800  1.3697  1.6652 -0.3968
    5Eth     Oh 2271   2.627   0.692   9.773  0.1547  0.4798 -0.2955
    5Eth     Co 2272   2.690   0.629   9.887 -0.9618  0.3384  0.4058
    5Eth    Hco 2273   2.634   0.646   9.979 -1.0476  1.3049  0.1784
    5Eth    Hco 2274   2.789   0.671   9.899  0.7321 -3.4997  0.5726
    5Eth     Ch 2275   2.711   0.482   9.853 -0.5540 -0.2595  0.1337
    5Eth    Hcc 2276   2.619   0.427   9.830 -0.9316  0.1057  0.7392
    5Eth    Hcc 2277   2.755   0.443   9.945  1.3333 -0.6180 -0.9079
    5Eth    Hcc 2278   2.783   0.480   9.772 -0.2567  0.9966  0.3622
    6Eth     Ho 2279   0.770   1.569   5.418 -0.1070 -0.6150 -0.2768
    6Eth     Oh 2280   0.790   1.557   5.327  0.1683 -0.2295 -0.2703
    6Eth     Co 2281   0.935   1.551   5.320  0.1444  0.1091 -0.2230
    6Eth    Hco 2282   0.955   1.455   5.368  0.0860  0.4958  0.5879
    6Eth    Hco 2283   0.984   1.635   5.369  0.8879  0.2490 -1.1836
    6Eth     Ch 2284   0.978   1.545   5.176  0.3777 -0.1988  0.3329
    6Eth    Hcc 2285   1.085   1.526   5.165  0.2391 -0.8659  0.1083
    6Eth    Hcc 2286   0.964   1.642   5.127  0.3209  0.3329  1.3939
    6Eth    Hcc 2287   0.936   1.465   5.114 -3.3225  0.2226  2.1616
    7Eth     Ho 2288   2.945   0.650   5.081  1.2887  0.6271  1.0065
    7Eth     Oh 2289   2.994   0.704   5.023 -0.1887 -0.0329 -0.9461
    7Eth     Co 2290   2.953   0.665   4.897  0.5807 -0.3006 -0.9284
    7Eth    Hco 2291   2.956   0.750   4.830  3.3306 -0.9138 -1.6425
    7Eth    Hco 2292   2.854   0.624   4.915  1.0948 -1.1708 -0.0326
    7Eth     Ch 2293   3.056   0.559   4.840 -0.7654  0.0125  0.7579
    7Eth    Hcc 2294   3.156   0.598   4.820 -0.5568 -0.8227  0.1259
    7Eth    Hcc 2295   3.018   0.522   4.745  1.0295  0.9751 -0.3670
    7Eth    Hcc 2296   3.067   0.482   4.916  1.2005  1.0327  1.5433
    8Eth     Ho 2297   0.274   0.795   7.490 -0.7276  0.3852  1.0070
    8Eth     Oh 2298   0.193   0.765   7.452 -0.1017  0.2401 -0.2569
    8Eth     Co 2299   0.075   0.808   7.518 -0.3246  0.0809  0.7902
    8Eth    Hco 2300   0.099   0.865   7.608  0.9094 -0.5721  0.8745
    8Eth    Hco 2301   0.006   0.727   7.543 -0.4802 -0.5765 -1.6750
    8Eth     Ch 2302   0.014   0.913   7.430 -0.1002  0.0879 -0.0664
    8Eth    Hcc 2303  -0.034   0.974   7.507 -0.2438 -1.1182  0.8291
    8Eth    Hcc 2304  -0.059   0.875   7.358 -0.3246  1.9498 -0.8543
    8Eth    Hcc 2305   0.087   0.980   7.387 -0.7471  0.5943 -0.3827
    9Eth     Ho 2306   3.146   1.197   7.345 -1.7594  1.2204  2.5560
    9Eth     Oh 2307   3.185   1.277   7.315  0.1703 -0.4977  0.2403
    9Eth     Co 2308   3.101   1.317   7.203 -0.2321 -0.1344 -0.9554
    9Eth    Hco 2309   3.005   1.352   7.243  1.5245 -1.3145  4.7958
    9Eth    Hco 2310   3.101   1.228   7.141  0.8973 -0.0669 -1.0476
    9Eth     Ch 2311   3.164   1.418   7.098  0.0943  0.6428 -0.6691
    9Eth    Hcc 2312   3.265   1.395   7.066 -0.0203  0.2715 -0.7632
    9Eth    Hcc 2313   3.178   1.518   7.139  0.6404  0.5518 -0.6315
    9Eth    Hcc 2314   3.099   1.426   7.011  1.3826  1.5155 -1.5612
   10Eth     Ho 2315   1.384   2.655   2.234 -1.5220 -0.0639  1.8092
   10Eth     Oh 2316   1.453   2.642   2.296  0.1352 -0.2607 -0.0387
   10Eth     Co 2317   1.574   2.705   2.265  0.0395 -0.9381  0.3157
   10Eth    Hco 2318   1.597   2.778   2.343 -0.8262 -2.0984  1.7005
   10Eth    Hco 2319   1.561   2.761   2.173  2.1560  0.0502  0.5992
   10Eth     Ch 2320   1.685   2.601   2.265 -0.2500  0.3354 -0.1619
   10Eth    Hcc 2321   1.778   2.647   2.230  0.4924 -0.4893  0.7286
   10Eth    Hcc 2322   1.666   2.534   2.181 -0.5938  0.4256 -0.1545
   10Eth    Hcc 2323   1.697   2.556   2.363  0.6538 -1.0546 -0.8934
   11Eth     Ho 2324   3.203   2.126   8.299  0.6648  4.4182 -1.3982
   11Eth     Oh 2325   3.289   2.127   8.335  0.4270 -0.0282 -0.4754
   11Eth     Co 2326   3.389   2.135   8.232  0.3387  0.3819 -0.0675
   11Eth    Hco 2327   3.334   2.128   8.139 -1.5516  2.9041  0.7944
   11Eth    Hco 2328   3.469   2.061   8.232  1.8937  2.0233 -0.4927
   11Eth     Ch 2329   3.459   2.276   8.229  0.0649 -0.3811  0.0737
   11Eth    Hcc 2330   3.511   2.293   8.323 -0.0759  2.5737 -0.3306
   11Eth    Hcc 2331   3.394   2.362   8.215  0.3408 -0.4094 -1.5718
   11Eth    Hcc 2332   3.544   2.274   8.160 -0.4411  0.9554 -0.6086
   12Eth     Ho 2333   2.323   0.389   6.218 -1.5997 -3.1615  1.9775
   12Eth     Oh 2334   2.245   0.438   6.237 -0.0329  0.1145  0.3083
   12Eth     Co 2335   2.142   0.346   6.270  0.2877  0.2275  0.9447
   12Eth    Hco 2336   2.170   0.292   6.361  0.3185  0.1815  0.9085
   12Eth    Hco 2337   2.130   0.266   6.197 -2.4066  1.9499 -0.5568
   12Eth     Ch 2338   2.018   0.429   6.300 -0.6585  0.8996 -0.0827
   12Eth    Hcc 2339   2.031   0.515   6.366 -2.2954  1.5286 -0.5627
   12Eth    Hcc 2340   1.945   0.363   6.346 -1.2354  0.0653 -2.1450
   12Eth    Hcc 2341   1.981   0.472   6.206 -0.3521  0.7293 -0.2837
   13Eth     Ho 2342   1.433   2.665   9.379  0.4106  0.1389 -0.2416
   13Eth     Oh 2343   1.372   2.720   9.424  0.4366  0.1465 -0.2150
   13Eth     Co 2344   1.403   2.858   9.407  0.0180  0.0851  0.1456
   13Eth    Hco 2345   1.434   2.863   9.302  0.6585 -0.9310  0.2862
   13Eth    Hco 2346   1.494   2.883   9.461 -2.7661  3.2313  3.7341
   13Eth     Ch 2347   1.277   2.952   9.437  0.2722 -0.6744 -0.4704
   13Eth    Hcc 2348   1.304   3.057   9.428 -1.8373 -0.1443 -0.8973
   13Eth    Hcc 2349   1.243   2.927   9.538  0.8057  0.7104  0.0508
   13Eth    Hcc 2350   1.189   2.932   9.377 -1.4008  1.3699  1.2345
   14Eth     Ho 2351   0.485   0.848   9.144 -0.2760  1.4309 -0.7436
   14Eth     Oh 2352   0.576   0.863   9.164 -0.2712  0.3835  0.0521
   14Eth     Co 2353   0.636   0.840   9.033 -0.4730  0.2156  0.2170
   14Eth    Hco 2354   0.593   0.916   8.968 -0.1968  0.9343  0.8614
   14Eth    Hco 2355   0.601   0.745   8.995 -0.6922 -0.1457  1.2954
   14Eth     Ch 2356   0.791   0.828   9.041 -0.1076  0.4551  0.2484
   14Eth    Hcc 2357   0.832   0.928   9.051 -1.4855  1.0800 -0.2251
   14Eth    Hcc 2358   0.838   0.785   8.953  0.9304  2.8682 -0.3994
   14Eth    Hcc 2359   0.812   0.766   9.129 -2.5816  1.3196  1.4987
   15Eth     Ho 2360   1.611   1.771   1.388  0.3340 -0.4401 -1.2189
   15Eth     Oh 2361   1.579   1.685   1.409 -0.4670  0.1068 -0.1179
   15Eth     Co 2362   1.513   1.722   1.533 -0.2958 -0.7685  0.6978
   15Eth    Hco 2363   1.450   1.808   1.514  0.7464 -0.2528 -0.5680
   15Eth    Hco 2364   1.589   1.743   1.608 -0.9659 -0.7752  1.3733
   15Eth     Ch 2365   1.428   1.599   1.594 -0.0107  0.4307  0.3844
   15Eth    Hcc 2366   1.345   1.581   1.526  0.7826 -2.0168 -0.0057
   15Eth    Hcc 2367   1.391   1.614   1.695  0.2992 -0.6109  0.6576
   15Eth    Hcc 2368   1.481   1.503   1.589  0.0781  0.4854  0.2745
   16Eth     Ho 2369   1.050   1.546   9.709  0.6326  0.8567 -1.3628
   16Eth     Oh 2370   1.080   1.571   9.794 -0.2341 -0.3535 -0.6883
   16Eth     Co 2371   1.121   1.703   9.776 -0.1750  0.1274 -0.3060
   16Eth    Hco 2372   1.084   1.759   9.690  1.3012  2.1169  0.3087
   16Eth    Hco 2373   1.230   1.701   9.770 -0.2717 -1.4835 -1.8775
   16Eth     Ch 2374   1.077   1.774   9.908 -0.2591  0.4319  0.2590
   16Eth    Hcc 2375   1.063   1.695   9.982 -0.3462  0.3767  0.1831
   16Eth    Hcc 2376   0.988   1.833   9.883 -1.5886 -2.0760 -1.1691
   16Eth    Hcc 2377   1.145   1.853   9.941  0.0920  0.6787 -1.0323
   17Eth     Ho 2378   2.483   3.215   4.287  0.1930 -0.6283  0.6084
   17Eth     Oh 2379   2.446   3.136   4.251  0.2790 -0.4383  0.1016
   17Eth     Co 2380   2.347   3.110   4.348  1.3486  0.2306 -0.7292
   17Eth    Hco 2381   2.268   3.184   4.348  0.4671 -0.7007 -1.7114
   17Eth    Hco 2382   2.403   3.118   4.442  0.2930  1.7395 -0.2152
   17Eth     Ch 2383   2.282   2.969   4.339 -0.1116  0.3053  0.0976
   17Eth    Hcc 2384   2.210   2.964   4.421  0.0183  0.0402  0.1947
   17Eth    Hcc 2385   2.354   2.887   4.344  0.4272  0.7592 -0.1616
   17Eth    Hcc 2386   2.223   2.957   4.249  1.3279  1.5922 -1.0411
   18Eth     Ho 2387   0.341   0.346   9.953  0.2908  0.6455 -0.9810
   18Eth     Oh 2388   0.294   0.423   9.981 -0.5404 -0.2320  0.0737
   18Eth     Co 2389   0.269   0.487   9.856  0.4646 -0.5604  0.4788
   18Eth    Hco 2390   0.203   0.426   9.795 -0.3915  0.8062  0.0172
   18Eth    Hco 2391   0.364   0.485   9.802  0.9748  0.9162  1.2765
   18Eth     Ch 2392   0.242   0.632   9.900 -0.8256 -0.4394 -0.6306
   18Eth    Hcc 2393   0.331   0.681   9.939 -0.9374 -0.8374  0.1243
   18Eth    Hcc 2394   0.174   0.644   9.984 -0.3115 -2.0039  0.0335
   18Eth    Hcc 2395   0.209   0.691   9.814  0.7949 -1.5453 -2.0563
   19Eth     Ho 2396   1.212   1.064   7.817  0.4698 -0.9447 -0.6597
   19Eth     Oh 2397   1.266   1.046   7.891 -0.4055 -0.1693  0.1695
   19Eth     Co 2398   1.385   0.983   7.851 -0.3159  0.2608  0.3166
   19Eth    Hco 2399   1.459   1.056   7.815  0.3813 -1.1238 -1.1505
   19Eth    Hco 2400   1.371   0.912   7.769  0.9948  2.2014 -1.6564
   19Eth     Ch 2401   1.430   0.905   7.968  0.1276 -0.0860  0.8429
   19Eth    Hcc 2402   1.352   0.836   8.000  0.4235 -0.6868  0.2919
   19Eth    Hcc 2403   1.461   0.967   8.052  0.6332 -0.4030  0.8916
   19Eth    Hcc 2404   1.511   0.836   7.946 -1.3588 -1.0400 -2.0508
   20Eth     Ho 2405   0.271   2.326   5.861 -0.9099 -0.4758  0.0063
   20Eth     Oh 2406   0.204   2.329   5.927 -0.8506  0.0591  0.0457
   20Eth     Co 2407   0.265   2.399   6.033 -0.1506  0.0121  0.0031
   20Eth    Hco 2408   0.366   2.428   6.003 -0.3366 -0.9672 -1.6354
   20Eth    Hco 2409   0.271   2.329   6.116 -4.9291  0.2211  0.6599
   20Eth     Ch 2410   0.204   2.530   6.075 -0.5258  0.4637 -0.0751
   20Eth    Hcc 2411   0.248   2.552   6.172  0.1013 -0.5146 -0.1287
   20Eth    Hcc 2412   0.096   2.518   6.084 -0.8881  2.1631 -1.7594
   20Eth    Hcc 2413   0.219   2.613   6.006 -0.6939 -1.6871 -2.8143
   21Eth     Ho 2414   1.119   2.265   4.003  0.0001  0.1635  0.1047
   21Eth     Oh 2415   1.106   2.205   4.075 -0.0629 -0.1278 -0.1470
   21Eth     Co 2416   1.157   2.077   4.048  0.0243 -0.3165 -0.0436
   21Eth    Hco 2417   1.257   2.089   4.005  0.3642  2.3742  1.4107
   21Eth    Hco 2418   1.090   2.029   3.976  1.8174 -0.8045 -1.4361
   21Eth     Ch 2419   1.156   1.994   4.174 -0.0093  0.1413 -0.3165
   21Eth    Hcc 2420   1.198   2.056   4.252  0.0430 -1.0177  0.5893
   21Eth    Hcc 2421   1.216   1.904   4.159  1.2997  0.6225  1.9118
   21Eth    Hcc 2422   1.055   1.969   4.206  0.6569 -2.0888  0.1411
   22Eth     Ho 2423   1.262   1.668   4.202  1.2998 -0.5610 -0.4111
   22Eth     Oh 2424   1.228   1.666   4.290  0.1548 -0.4593 -0.8385
   22Eth     Co 2425   1.148   1.554   4.311  0.2988 -0.2545  0.8030
   22Eth    Hco 2426   1.200   1.504   4.393  1.4976 -1.0616 -0.4274
   22Eth    Hco 2427   1.143   1.487   4.226 -1.1371  2.3951 -1.2615
   22Eth     Ch 2428   1.006   1.587   4.362  0.9878  0.0582  0.3940
   22Eth    Hcc 2429   0.956   1.618   4.271 -1.9657 -3.5754  0.6734
   22Eth    Hcc 2430   1.014   1.669   4.433  3.0682  0.3294 -0.1110
   22Eth    Hcc 2431   0.949   1.502   4.401 -0.8585  0.0755 -2.1739
   23Eth     Ho 2432   3.065   1.326   9.760  0.7890 -0.6622  1.8124
   23Eth     Oh 2433   3.010   1.400   9.781  0.4399 -0.4557  0.2698
   23Eth     Co 2434   3.031   1.504   9.692 -0.1244 -0.0987 -0.2550
   23Eth    Hco 2435   2.934   1.549   9.675 -0.2373 -0.2880 -0.1173
   23Eth    Hco 2436   3.064   1.469   9.594  1.2055 -0.1704  0.2092
   23Eth     Ch 2437   3.130   1.599   9.751 -1.0289  0.2377 -0.4266
   23Eth    Hcc 2438   3.150   1.682   9.682  3.1844 -0.2849  0.0467
   23Eth    Hcc 2439   3.208   1.528   9.779  0.2865  1.6869 -0.3349
   23Eth    Hcc 2440   3.067   1.631   9.833  0.2136 -1.9076  1.4221
   24Eth     Ho 2441   0.579   3.234   8.425 -0.6173  0.1303 -1.8062
   24Eth     Oh 2442   0.516   3.287   8.472  0.3604  0.3031 -0.6483
   24Eth     Co 2443   0.500   3.390   8.377 -0.1493  0.0334 -0.9207
   24Eth    Hco 2444   0.450   3.357   8.286 -1.1438 -2.1495  0.3784
   24Eth    Hco 2445   0.595   3.431   8.342 -0.7467  2.1372 -0.1611
   24Eth     Ch 2446   0.404   3.496   8.425 -0.3228  0.0424 -0.0656
   24Eth    Hcc 2447   0.305   3.459   8.454 -0.1455  0.6434  1.3527
   24Eth    Hcc 2448   0.409   3.582   8.359 -2.6495  0.0086 -0.3558
   24Eth    Hcc 2449   0.446   3.539   8.516  0.3558 -2.5171  0.8896
   25Eth     Ho 2450   2.670   1.084   9.343 -1.4109 -1.9417  0.6521
   25Eth     Oh 2451   2.594   1.098   9.289 -0.2601 -0.3373 -0.6060
   25Eth     Co 2452   2.628   1.060   9.155  0.4003 -0.7345  0.9431
   25Eth    Hco 2453   2.668   0.959   9.145 -0.6222 -1.2447  1.8625
   25Eth    Hco 2454   2.702   1.131   9.118 -1.5438  1.5736  1.3817
   25Eth     Ch 2455   2.507   1.064   9.068  0.1633  0.0981  0.0090
   25Eth    Hcc 2456   2.429   0.993   9.095  1.4288 -0.9306  1.0375
   25Eth    Hcc 2457   2.539   1.043   8.966 -2.9620 -0.3355 -0.9500
   25Eth    Hcc 2458   2.455   1.159   9.082  1.7658  0.9010  0.5701
   26Eth     Ho 2459   0.284   1.611   1.739 -2.5149  0.7121 -0.5182
   26Eth     Oh 2460   0.249   1.542   1.686 -0.4927 -0.4483 -0.3824
   26Eth     Co 2461   0.359   1.461   1.646 -0.5668 -0.2714  0.0406
   26Eth    Hco 2462   0.380   1.388   1.724  0.0011  0.7170  0.8274
   26Eth    Hco 2463   0.449   1.521   1.634 -0.3365 -1.1078 -2.7146
   26Eth     Ch 2464   0.335   1.395   1.511  0.2460 -0.5750 -0.3866
   26Eth    Hcc 2465   0.428   1.360   1.466 -0.0014  2.2362 -3.3293
   26Eth    Hcc 2466   0.296   1.466   1.438 -0.5481 -0.5772  0.0389
   26Eth    Hcc 2467   0.270   1.308   1.515 -0.3337 -0.1504 -0.4554
   27Eth     Ho 2468   2.168   0.545   5.015  1.0782  0.1272 -0.5574
   27Eth     Oh 2469   2.120   0.544   4.935  0.1631  0.2998 -0.0140
   27Eth     Co 2470   2.062   0.666   4.906  0.2655 -0.5491  0.3212
   27Eth    Hco 2471   2.116   0.704   4.819 -1.8796  0.0393 -0.7939
   27Eth    Hco 2472   2.082   0.737   4.987 -0.7106  0.1531 -0.0359
   27Eth     Ch 2473   1.912   0.647   4.880 -0.1899  0.0418  0.2631
   27Eth    Hcc 2474   1.866   0.744   4.866  1.2554  0.5018 -1.4340
   27Eth    Hcc 2475   1.863   0.598   4.964 -1.6400 -0.4526 -0.8489
   27Eth    Hcc 2476   1.895   0.594   4.786  0.6074 -0.2506  0.2788
   28Eth     Ho 2477   2.563   2.522   8.081 -0.0936  0.1823  0.3477
   28Eth     Oh 2478   2.634   2.460   8.087 -0.8169 -0.6876 -0.0297
   28Eth     Co 2479   2.607   2.384   8.205  0.5205 -0.5018 -0.4868
   28Eth    Hco 2480   2.513   2.335   8.179  0.3907 -1.1688  1.1776
   28Eth    Hco 2481   2.581   2.454   8.284 -0.9168 -2.0231  0.4189
   28Eth     Ch 2482   2.726   2.291   8.230  0.8959  0.1963  0.4143
   28Eth    Hcc 2483   2.786   2.275   8.141 -1.1574 -1.9247 -0.6570
   28Eth    Hcc 2484   2.692   2.191   8.257 -0.2540 -0.3971 -2.9594
   28Eth    Hcc 2485   2.778   2.350   8.306  0.5647 -0.0958  0.8747
   29Eth     Ho 2486   3.200   3.043   1.671  1.5101  0.3548 -2.0454
   29Eth     Oh 2487   3.177   3.135   1.669 -0.0344  0.0422 -0.1158
   29Eth     Co 2488   3.217   3.187   1.546 -0.0816  0.3812  0.2415
   29Eth    Hco 2489   3.215   3.104   1.476  1.1865 -0.5664  1.2773
   29Eth    Hco 2490   3.324   3.209   1.555  0.1136 -0.5606  0.3358
   29Eth     Ch 2491   3.116   3.289   1.510  0.5424  0.2766 -0.1287
   29Eth    Hcc 2492   3.016   3.259   1.540  0.2594  2.3482  1.1201
   29Eth    Hcc 2493   3.118   3.292   1.401  0.1384 -2.9210 -0.2521
   29Eth    Hcc 2494   3.136   3.388   1.551 -1.2530  0.2341  0.9029
   30Eth     Ho 2495   0.684   2.965   1.783  1.2953 -0.5786  0.7762
   30Eth     Oh 2496   0.729   3.006   1.711 -0.0988 -0.1192  0.1426
   30Eth     Co 2497   0.629   3.065   1.631 -0.2058 -0.2624  0.2901
   30Eth    Hco 2498   0.565   3.140   1.679 -0.1430  0.5120 -0.8070
   30Eth    Hco 2499   0.559   2.987   1.601  0.5249 -1.0353  0.5706
   30Eth     Ch 2500   0.683   3.138   1.515 -0.0868  0.8010 -0.0956
   30Eth    Hcc 2501   0.759   3.209   1.547 -0.4541  1.0926  0.1478
   30Eth    Hcc 2502   0.605   3.187   1.456  0.6068 -0.1760 -1.8545
   30Eth    Hcc 2503   0.737   3.064   1.457 -2.1451 -0.9439  0.1386
   31Eth     Ho 2504   0.872   1.835   4.053 -0.4613  0.6131 -0.5938
   31Eth     Oh 2505   0.794   1.869   4.092  0.0719  0.1214  0.9518
   31Eth     Co 2506   0.751   2.002   4.038  0.5413 -0.6718 -0.0945
   31Eth    Hco 2507   0.760   1.991   3.930  0.4815  1.5092 -0.3358
   31Eth    Hco 2508   0.800   2.086   4.086 -0.7124  0.1655 -0.2491
   31Eth     Ch 2509   0.598   2.008   4.063  0.5761  0.1601  0.0703
   31Eth    Hcc 2510   0.574   2.001   4.169  0.3471  0.3713  0.0322
   31Eth    Hcc 2511   0.548   1.933   4.001  0.3624 -1.1936  1.8405
   31Eth    Hcc 2512   0.558   2.106   4.038 -2.0952 -0.4052  1.9151
   32Eth     Ho 2513   1.594   1.843   6.689  0.8012 -0.6874 -0.4223
   32Eth     Oh 2514   1.570   1.800   6.769  0.2364 -0.1793 -0.3172
   32Eth     Co 2515   1.625   1.673   6.778  0.2113 -0.2344  0.0568
   32Eth    Hco 2516   1.729   1.692   6.753 -0.4860  2.5283 -0.9893
   32Eth    Hco 2517   1.593   1.607   6.697  0.1210  0.3640 -0.4073
   32Eth     Ch 2518   1.625   1.618   6.920  0.3388 -0.2057  0.4969
   32Eth    Hcc 2519   1.523   1.599   6.952 -0.7014  2.8054 -0.8133
   32Eth    Hcc 2520   1.662   1.690   6.993  2.3840  3.2518 -3.6730
   32Eth    Hcc 2521   1.698   1.537   6.918  2.0588  1.3017  0.4808
   33Eth     Ho 2522   1.258   0.819   7.350  0.6343 -0.7669  0.0749
   33Eth     Oh 2523   1.278   0.759   7.419  0.1773  0.1235  1.0021
   33Eth     Co 2524   1.180   0.653   7.426 -0.3694  0.2758 -0.0362
   33Eth    Hco 2525   1.158   0.636   7.321 -0.6566  2.5640 -0.3876
   33Eth    Hco 2526   1.094   0.683   7.486  0.4378  0.7244  0.9167
   33Eth     Ch 2527   1.238   0.529   7.477 -0.0248 -0.3108 -0.2691
   33Eth    Hcc 2528   1.313   0.498   7.405  0.7440  0.2832  0.2660
   33Eth    Hcc 2529   1.171   0.444   7.481  0.3729 -0.5661  1.0982
   33Eth    Hcc 2530   1.284   0.556   7.572 -0.8898  0.1905  0.0085
   34Eth     Ho 2531   1.051   1.821   6.066 -1.4818 -0.3391 -2.4586
   34Eth     Oh 2532   1.037   1.912   6.046 -0.2153  0.3989 -0.1821
   34Eth     Co 2533   1.142   1.951   5.966  0.2864  0.3070 -0.5301
   34Eth    Hco 2534   1.141   1.889   5.877 -0.2310 -1.5856  0.7655
   34Eth    Hco 2535   1.223   1.915   6.029 -0.4891 -0.0895  0.2615
   34Eth     Ch 2536   1.154   2.102   5.953  0.9445  0.0238 -0.0867
   34Eth    Hcc 2537   1.166   2.147   6.051 -0.8466  2.2428 -0.8197
   34Eth    Hcc 2538   1.067   2.148   5.905  2.2747  1.5582 -1.0762
   34Eth    Hcc 2539   1.244   2.103   5.891  1.3005 -0.4382  0.4241
   35Eth     Ho 2540   2.465   2.804   7.858  1.2360  1.7064 -1.4206
   35Eth     Oh 2541   2.498   2.730   7.811 -0.0580  0.1699  0.0423
   35Eth     Co 2542   2.635   2.728   7.835 -0.2073 -0.3385 -0.0177
   35Eth    Hco 2543   2.665   2.741   7.939 -0.9719  1.5988 -0.0177
   35Eth    Hco 2544   2.671   2.813   7.778  1.9706 -0.0281  1.7467
   35Eth     Ch 2545   2.688   2.609   7.768 -0.1150 -0.0974 -0.8194
   35Eth    Hcc 2546   2.668   2.512   7.813  3.5980 -0.5005  0.1173
   35Eth    Hcc 2547   2.797   2.616   7.765 -0.1895  2.5258  1.1747
   35Eth    Hcc 2548   2.656   2.602   7.664  0.5680 -3.7314 -0.8670
   36Eth     Ho 2549   1.923   2.258   8.176 -1.6848  0.3078  1.2306
   36Eth     Oh 2550   1.907   2.176   8.134  0.2626  0.2295  0.5823
   36Eth     Co 2551   1.793   2.203   8.053 -0.3890  0.3471  0.0468
   36Eth    Hco 2552   1.803   2.309   8.030 -0.9424 -0.0180 -2.0125
   36Eth    Hco 2553   1.704   2.188   8.113 -1.0207 -0.3963 -1.0486
   36Eth     Ch 2554   1.800   2.112   7.935  0.1414 -0.0081 -0.9253
   36Eth    Hcc 2555   1.712   2.137   7.877 -0.4453 -0.7097 -0.3441
   36Eth    Hcc 2556   1.787   2.008   7.967  1.7238  0.5206  1.6150
   36Eth    Hcc 2557   1.896   2.121   7.884  1.1417 -0.5842  0.7883
   37Eth     Ho 2558   0.527   0.474   1.658 -0.2816  1.2507 -2.2791
   37Eth     Oh 2559   0.479   0.395   1.640 -0.3121  0.5903  0.4887
   37Eth     Co 2560   0.577   0.304   1.580 -0.5773 -0.4995  0.5195
   37Eth    Hco 2561   0.671   0.327   1.630  0.0893 -1.2885 -0.3477
   37Eth    Hco 2562   0.596   0.336   1.477  1.5073 -1.4066  0.5982
   37Eth     Ch 2563   0.526   0.163   1.591 -0.2204  0.6883 -0.9426
   37Eth    Hcc 2564   0.587   0.101   1.657 -0.2996 -1.2786 -2.6358
   37Eth    Hcc 2565   0.531   0.113   1.494  1.1514  2.5876 -1.8795
   37Eth    Hcc 2566   0.421   0.169   1.621  0.3916 -0.0144  1.3857
   38Eth     Ho 2567   3.311   0.608   1.817 -1.9245 -0.8857 -2.2856
   38Eth     Oh 2568   3.354   0.652   1.746  0.4027  0.2222 -0.2533
   38Eth     Co 2569   3.266   0.628   1.637 -0.8910 -0.2992 -0.7637
   38Eth    Hco 2570   3.165   0.651   1.670 -0.6218 -1.9883  1.4447
   38Eth    Hco 2571   3.257   0.519   1.635  0.9034 -0.4804 -0.1669
   38Eth     Ch 2572   3.304   0.696   1.510 -0.0418  0.8906  0.3657
   38Eth    Hcc 2573   3.307   0.805   1.517  1.4481  0.8086  1.1384
   38Eth    Hcc 2574   3.231   0.672   1.433 -0.3177 -0.2305  0.9659
   38Eth    Hcc 2575   3.404   0.676   1.471 -1.0835 -0.8457 -1.5151
   39Eth     Ho 2576   2.766   0.299   7.413  1.2435 -1.9885 -1.3054
   39Eth     Oh 2577   2.809   0.347   7.345  0.4028  0.4522 -0.2022
   39Eth     Co 2578   2.749   0.308   7.225 -0.1523 -0.1240 -0.0022
   39Eth    Hco 2579   2.756   0.397   7.162  1.4047 -1.1661 -1.3121
   39Eth    Hco 2580   2.642   0.288   7.234 -0.4542  0.9138 -1.2095
   39Eth     Ch 2581   2.821   0.195   7.155 -0.6792  0.6018  0.8694
   39Eth    Hcc 2582   2.804   0.099   7.203  2.2700 -0.1814  0.4664
   39Eth    Hcc 2583   2.929   0.203   7.168 -0.1049 -0.3494 -2.7602
   39Eth    Hcc 2584   2.802   0.190   7.048 -0.4493 -0.4311  0.8739
   40Eth     Ho 2585   1.448   1.247   3.757  0.6519 -0.9412 -1.1646
   40Eth     Oh 2586   1.517   1.199   3.798  0.7277  0.2790  0.1998
   40Eth     Co 2587   1.473   1.181   3.934 -0.8245  0.0374 -0.3727
   40Eth    Hco 2588   1.385   1.117   3.934 -0.6349 -0.2250 -0.9951
   40Eth    Hco 2589   1.445   1.265   3.998  0.0660  0.6964 -0.8315
   40Eth     Ch 2590   1.577   1.112   4.021 -0.1024  0.1391  0.5066
   40Eth    Hcc 2591   1.563   1.004   4.006 -1.3208 -0.0782  2.9369
   40Eth    Hcc 2592   1.565   1.123   4.129 -3.4410  0.5199  0.1402
   40Eth    Hcc 2593   1.677   1.142   3.991 -0.2468 -0.1229 -0.2539
   41Eth     Ho 2594   2.548   2.511   9.771 -1.7360 -0.6098 -0.8012
   41Eth     Oh 2595   2.546   2.418   9.786 -0.0696 -0.6204 -0.5808
   41Eth     Co 2596   2.421   2.363   9.754  0.1565 -0.4389  0.3540
   41Eth    Hco 2597   2.400   2.391   9.651  1.6279  1.2277  0.4833
   41Eth    Hco 2598   2.352   2.395   9.832  2.5671 -1.1841  2.8740
   41Eth     Ch 2599   2.407   2.207   9.760  0.0959  0.0009  0.0125
   41Eth    Hcc 2600   2.476   2.152   9.696 -0.3076  0.1531 -0.5595
   41Eth    Hcc 2601   2.311   2.194   9.709  0.4143  1.2126 -0.9286
   41Eth    Hcc 2602   2.405   2.179   9.865  0.0219 -1.5489 -0.3883
   42Eth     Ho 2603   2.557   0.495   3.222  0.3478 -0.8365  0.2977
   42Eth     Oh 2604   2.608   0.514   3.299  0.5962  0.3318 -0.1447
   42Eth     Co 2605   2.744   0.486   3.269  0.5421  0.2288 -1.1018
   42Eth    Hco 2606   2.778   0.534   3.177  0.5942 -1.7694 -2.1364
   42Eth    Hco 2607   2.760   0.380   3.252 -1.5330  0.1414 -2.7850
   42Eth     Ch 2608   2.837   0.528   3.386 -0.4502  1.0381 -0.7615
   42Eth    Hcc 2609   2.827   0.632   3.417 -2.3978  1.0656 -1.4213
   42Eth    Hcc 2610   2.939   0.518   3.349  0.0349  0.4221  0.6938
   42Eth    Hcc 2611   2.829   0.456   3.468 -3.3872  0.6741 -1.3133
   43Eth     Ho 2612   0.327   1.991   2.866 -0.5703  0.7580  0.7020
   43Eth     Oh 2613   0.353   1.944   2.942 -0.2393 -0.0599  0.0884
   43Eth     Co 2614   0.355   2.047   3.036  0.3889 -0.0832  0.0861
   43Eth    Hco 2615   0.262   2.035   3.092 -1.1123 -0.5392 -2.4291
   43Eth    Hco 2616   0.339   2.139   2.980  0.5146 -1.8740 -3.0235
   43Eth     Ch 2617   0.485   2.045   3.118 -0.0375  0.4742  0.4823
   43Eth    Hcc 2618   0.467   2.121   3.194  2.2209  2.5545 -1.0187
   43Eth    Hcc 2619   0.567   2.069   3.051 -1.5285 -0.6350 -1.8325
   43Eth    Hcc 2620   0.507   1.945   3.156  0.0701  0.7903  1.2581
   44Eth     Ho 2621   3.109   3.070   4.877  0.0365  1.3605 -0.0296
   44Eth     Oh 2622   3.087   3.064   4.786  0.5585 -0.7006 -0.0257
   44Eth     Co 2623   2.956   3.018   4.762 -0.1671  1.0156  0.5566
   44Eth    Hco 2624   2.880   3.081   4.808 -2.1264  1.7918 -3.5408
   44Eth    Hco 2625   2.956   2.915   4.798  1.5570  1.2435  1.2845
   44Eth     Ch 2626   2.939   3.030   4.604 -0.4319 -0.2278 -0.7083
   44Eth    Hcc 2627   2.990   2.947   4.556  1.3997  2.0563 -2.8480
   44Eth    Hcc 2628   2.977   3.128   4.575 -1.2770  0.8731  1.7235
   44Eth    Hcc 2629   2.831   3.031   4.589 -0.1644  1.5212 -2.7240
   45Eth     Ho 2630   3.117   1.046   1.733  0.3548  0.9833  0.4967
   45Eth     Oh 2631   3.207   1.068   1.717  0.6069 -0.0279  0.4944
   45Eth     Co 2632   3.223   1.082   1.580 -0.4792  0.3001  0.4432
   45Eth    Hco 2633   3.156   1.160   1.544 -0.3005  0.5971  0.7533
   45Eth    Hco 2634   3.193   0.994   1.524  1.2024 -1.0604  1.6342
   45Eth     Ch 2635   3.365   1.105   1.544 -0.8120  0.0576 -0.0348
   45Eth    Hcc 2636   3.429   1.030   1.591 -2.1960  0.6686  2.9824
   45Eth    Hcc 2637   3.395   1.199   1.590  0.4761 -1.0710  1.5073
   45Eth    Hcc 2638   3.393   1.103   1.439 -0.1018  1.5712  0.1149
   46Eth     Ho 2639   3.064   2.328   1.491 -1.3924 -1.6161 -1.3954
   46Eth     Oh 2640   3.129   2.260   1.493  0.3061 -0.0013  0.0168
   46Eth     Co 2641   3.082   2.162   1.583  0.9995 -0.7891  0.2497
   46Eth    Hco 2642   2.993   2.113   1.543  1.7149 -1.3156 -0.7148
   46Eth    Hco 2643   3.051   2.217   1.672  0.1527 -1.0292  0.1139
   46Eth     Ch 2644   3.176   2.050   1.603  0.0716  0.4523  0.6860
   46Eth    Hcc 2645   3.272   2.087   1.639  0.0546  0.8434  0.3373
   46Eth    Hcc 2646   3.182   1.990   1.513 -4.6256 -2.6778  2.2449
   46Eth    Hcc 2647   3.137   1.984   1.680  0.0166  0.7672  0.9318
   47Eth     Ho 2648   1.256   0.238   2.698 -0.0381 -0.1010  2.8861
   47Eth     Oh 2649   1.166   0.264   2.693  0.1775  0.2563 -0.0061
   47Eth     Co 2650   1.124   0.200   2.575 -0.5028  0.6293  0.6589
   47Eth    Hco 2651   1.155   0.095   2.581 -0.5187  0.6142  0.4948
   47Eth    Hco 2652   1.175   0.244   2.489 -0.4843  0.5786  0.6443
   47Eth     Ch 2653   0.971   0.202   2.584 -0.0613  1.2502  0.0345
   47Eth    Hcc 2654   0.923   0.165   2.674 -3.6038  0.3247 -2.1292
   47Eth    Hcc 2655   0.932   0.139   2.504  0.0884 -0.1999  1.0863
   47Eth    Hcc 2656   0.939   0.304   2.564  0.1148  1.1546 -0.7442
   48Eth     Ho 2657   0.089   1.662   4.428  0.6417  0.4409 -0.8224
   48Eth     Oh 2658   0.054   1.750   4.435  0.1693  0.2110 -0.2332
   48Eth     Co 2659   0.030   1.770   4.574  0.1426 -0.0902  0.5163
   48Eth    Hco 2660   0.118   1.800   4.631 -0.3221  0.9145  0.7051
   48Eth    Hco 2661   0.008   1.667   4.603  1.7397 -0.7476 -0.5598
   48Eth     Ch 2662  -0.069   1.882   4.596 -0.3004  0.3242 -0.0158
   48Eth    Hcc 2663  -0.053   1.970   4.533 -0.0201  1.1267  1.1596
   48Eth    Hcc 2664  -0.054   1.918   4.697 -0.5035 -0.9582  0.4781
   48Eth    Hcc 2665  -0.172   1.855   4.573 -0.7681 -0.2328  2.6218
   49Eth     Ho 2666   2.655   2.171   7.528 -0.0845  0.6559 -0.6719
   49Eth     Oh 2667   2.716   2.102   7.546 -0.2646  0.6487 -0.0653
   49Eth     Co 2668   2.752   2.053   7.414 -0.6345 -0.8961  0.1492
   49Eth    Hco 2669   2.842   1.992   7.427  0.6572  0.7425 -0.8695
   49Eth    Hco 2670   2.788   2.137   7.354 -0.0774 -0.9432  0.4086
   49Eth     Ch 2671   2.632   1.972   7.351  0.0067 -0.2533  0.3159
   49Eth    Hcc 2672   2.677   1.921   7.266  2.8124  0.4326  1.3194
   49Eth    Hcc 2673   2.545   2.024   7.312 -0.4054  0.1056  1.6916
   49Eth    Hcc 2674   2.592   1.897   7.418  1.5992 -1.1019  0.3319
   50Eth     Ho 2675   1.196   2.204   9.484 -1.1513 -0.5578 -2.1286
   50Eth     Oh 2676   1.222   2.114   9.476  0.7573 -0.2506  0.0581
   50Eth     Co 2677   1.102   2.049   9.467 -0.2190 -0.0307 -0.0028
   50Eth    Hco 2678   1.033   2.104   9.403 -0.3131  1.7443  1.5946
   50Eth    Hco 2679   1.067   2.046   9.570 -1.2381 -0.8808 -0.3630
   50Eth     Ch 2680   1.115   1.910   9.414  0.5174  0.2276  0.0355
   50Eth    Hcc 2681   1.129   1.923   9.307  2.1058 -1.5073  0.0155
   50Eth    Hcc 2682   1.024   1.850   9.427 -0.3955  1.5984  0.0975
   50Eth    Hcc 2683   1.195   1.859   9.467  0.2920 -0.6661 -0.4846
   51Eth     Ho 2684   0.300   2.154   9.502  1.5734 -1.2174 -2.9893
   51Eth     Oh 2685   0.214   2.119   9.488  0.3199  0.4686 -0.0370
   51Eth     Co 2686   0.186   2.145   9.357 -0.5172 -0.6067  0.4438
   51Eth    Hco 2687   0.277   2.127   9.300 -1.2321 -1.7848 -0.3706
   51Eth    Hco 2688   0.165   2.251   9.344  3.1072 -0.0494 -1.3352
   51Eth     Ch 2689   0.070   2.064   9.311  0.3678  0.1910  0.4305
   51Eth    Hcc 2690  -0.017   2.120   9.346  2.2339  1.2319  3.6253
   51Eth    Hcc 2691   0.071   1.961   9.348  1.3140  0.0602  0.0629
   51Eth    Hcc 2692   0.048   2.048   9.206  0.4607  0.8278  0.3168
   52Eth     Ho 2693   0.624   0.353   8.341  1.5943  2.5704  0.9492
   52Eth     Oh 2694   0.547   0.406   8.331  0.0829  0.2292 -0.5229
   52Eth     Co 2695   0.492   0.438   8.458 -0.2804  0.1855  0.6641
   52Eth    Hco 2696   0.571   0.503   8.498  0.2078 -0.3136  0.5121
   52Eth    Hco 2697   0.494   0.348   8.519  2.1273  0.1458  0.5821
   52Eth     Ch 2698   0.353   0.501   8.457 -0.1285 -0.0323 -0.0951
   52Eth    Hcc 2699   0.321   0.541   8.554  0.3060  0.5719 -0.1976
   52Eth    Hcc 2700   0.280   0.427   8.426  0.2734 -0.1726 -0.7089
   52Eth    Hcc 2701   0.351   0.583   8.385  3.1202  0.2334  0.0312
   53Eth     Ho 2702   1.828   1.548   3.231  0.2501  0.6039 -0.2807
   53Eth     Oh 2703   1.847   1.489   3.302  0.2005  0.4524 -0.3929
   53Eth     Co 2704   1.720   1.442   3.351  0.3646 -0.5679 -0.1415
   53Eth    Hco 2705   1.654   1.387   3.284 -1.3152  0.3700  0.7116
   53Eth    Hco 2706   1.656   1.522   3.391 -1.0435 -1.5211 -0.4347
   53Eth     Ch 2707   1.739   1.353   3.471 -0.0579 -0.3417 -0.0799
   53Eth    Hcc 2708   1.786   1.258   3.446  0.6578  0.3095 -1.2623
   53Eth    Hcc 2709   1.655   1.329   3.536  0.8914 -2.8471  0.3098
   53Eth    Hcc 2710   1.813   1.384   3.545 -0.9005  0.2164  0.5426
   54Eth     Ho 2711   0.377   2.863   6.580 -0.8134 -0.0269  3.2315
   54Eth     Oh 2712   0.457   2.826   6.614  0.7816 -0.2413 -0.5082
   54Eth     Co 2713   0.540   2.941   6.662  0.0960 -0.0647 -0.2713
   54Eth    Hco 2714   0.474   3.016   6.707  0.3102 -0.3641  0.5488
   54Eth    Hco 2715   0.566   3.000   6.575 -0.5975  1.7426  0.7191
   54Eth     Ch 2716   0.655   2.903   6.759  0.7581  0.0606 -0.0280
   54Eth    Hcc 2717   0.606   2.859   6.846  0.3230 -0.3047 -0.4538
   54Eth    Hcc 2718   0.709   2.994   6.786  0.1424  0.5117 -0.3060
   54Eth    Hcc 2719   0.725   2.833   6.714  0.3597 -1.1197  1.1435
   55Eth     Ho 2720   2.842   0.068   6.495  0.1520 -0.6982 -2.7397
   55Eth     Oh 2721   2.800  -0.000   6.543  0.8075  0.1896 -0.8447
   55Eth     Co 2722   2.786   0.066   6.677 -0.9600  0.0424  0.1917
   55Eth    Hco 2723   2.733   0.159   6.655 -2.0834 -0.3975  1.0065
   55Eth    Hco 2724   2.886   0.079   6.718 -0.2286 -0.2987 -1.4223
   55Eth     Ch 2725   2.699  -0.019   6.778 -0.5877 -0.4040  0.0146
   55Eth    Hcc 2726   2.602  -0.033   6.730 -0.4687 -0.9613 -0.0573
   55Eth    Hcc 2727   2.688   0.035   6.872 -1.8899  1.7326 -1.3139
   55Eth    Hcc 2728   2.753  -0.111   6.797  0.6560  0.1432 -0.7605
   56Eth     Ho 2729   2.093   1.131   5.695 -0.1009 -0.2717 -0.2822
   56Eth     Oh 2730   2.050   1.195   5.640  0.2950 -0.0900 -0.3795
   56Eth     Co 2731   2.059   1.327   5.701  0.5895  0.2509  0.4275
   56Eth    Hco 2732   2.166   1.349   5.706  1.0478 -1.8426  0.5999
   56Eth    Hco 2733   2.012   1.310   5.798 -0.3475 -0.4795 -0.1468
   56Eth     Ch 2734   1.965   1.431   5.631 -0.1923  0.2005  0.0414
   56Eth    Hcc 2735   1.990   1.442   5.526 -1.0441  0.6339 -0.1202
   56Eth    Hcc 2736   1.967   1.533   5.670 -1.8194 -0.3046  1.5290
   56Eth    Hcc 2737   1.865   1.389   5.638  0.1786 -0.8664 -0.8908
   57Eth     Ho 2738   1.107   2.558   4.050 -0.7174 -0.0548 -0.5807
   57Eth     Oh 2739   1.113   2.565   4.144 -0.1099 -0.1346 -0.6084
   57Eth     Co 2740   1.020   2.667   4.181 -0.0899  0.0980  0.3586
   57Eth    Hco 2741   0.958   2.701   4.098  0.0190 -0.5154  0.0267
   57Eth    Hco 2742   1.072   2.753   4.224  2.4942 -1.5202  0.5775
   57Eth     Ch 2743   0.925   2.602   4.283  0.2086  0.6054 -0.2811
   57Eth    Hcc 2744   0.835   2.663   4.292  0.2517  0.4980  0.8958
   57Eth    Hcc 2745   0.967   2.595   4.383 -1.5691 -3.2117  0.2754
   57Eth    Hcc 2746   0.886   2.505   4.251  0.6558  0.5780 -0.7548
   58Eth     Ho 2747   0.520   3.202   3.293 -0.5267  0.6360  1.3157
   58Eth     Oh 2748   0.506   3.266   3.226  0.9363 -0.0170  0.3884
   58Eth     Co 2749   0.370   3.247   3.178  0.5493  0.7239  0.1475
   58Eth    Hco 2750   0.290   3.241   3.252 -1.0425 -3.0516 -1.7492
   58Eth    Hco 2751   0.368   3.142   3.148  5.0126  0.0425  1.8159
   58Eth     Ch 2752   0.335   3.344   3.069 -0.4547  0.0272 -0.8035
   58Eth    Hcc 2753   0.409   3.361   2.991 -1.4353  1.4568 -1.4319
   58Eth    Hcc 2754   0.306   3.443   3.102 -1.1725 -1.1213  2.2039
   58Eth    Hcc 2755   0.258   3.303   3.003 -2.1921  1.0026  0.5730
   59Eth     Ho 2756   0.657   0.445   4.050 -0.7186 -0.3160  0.4883
   59Eth     Oh 2757   0.623   0.364   4.083 -0.3808 -0.5673  0.2289
   59Eth     Co 2758   0.686   0.271   3.998 -0.2966  0.3358  0.5584
   59Eth    Hco 2759   0.787   0.271   4.038 -0.1084  0.1843  0.0874
   59Eth    Hco 2760   0.684   0.301   3.894 -2.6168 -0.7651  0.2499
   59Eth     Ch 2761   0.622   0.133   4.018 -0.1076  0.1572  0.9850
   59Eth    Hcc 2762   0.646   0.088   4.114  2.2320  1.0651  0.8749
   59Eth    Hcc 2763   0.641   0.067   3.933 -0.5199  0.2503  0.8189
   59Eth    Hcc 2764   0.514   0.144   4.009 -0.7362 -4.9746  0.6996
   60Eth     Ho 2765   1.526   1.626   9.674 -3.2252  1.0808 -0.1416
   60Eth     Oh 2766   1.556   1.699   9.622 -0.1454  0.2683  0.3642
   60Eth     Co 2767   1.594   1.799   9.726  0.1563 -0.1278  0.1149
   60Eth    Hco 2768   1.691   1.841   9.701 -0.3641  0.1154 -1.5697
   60Eth    Hco 2769   1.611   1.763   9.827  1.4612  1.2320  0.3953
   60Eth     Ch 2770   1.489   1.911   9.739  0.2135  0.6726 -0.3373
   60Eth    Hcc 2771   1.401   1.874   9.791  0.1606  0.0497 -0.8676
   60Eth    Hcc 2772   1.463   1.959   9.644 -0.5815 -0.5294 -0.7342
   60Eth    Hcc 2773   1.531   1.991   9.800 -0.5620  1.2040 -0.4890
   61Eth     Ho 2774   1.195   3.034   9.824 -0.3865 -0.1200 -0.3789
   61Eth     Oh 2775   1.228   3.116   9.793  0.0564 -0.2105 -0.1451
   61Eth     Co 2776   1.117   3.161   9.722  0.1407  0.0260  0.0170
   61Eth    Hco 2777   1.033   3.177   9.789  1.3121  0.8108  1.3297
   61Eth    Hco 2778   1.092   3.075   9.661  0.0850 -0.0544  0.1519
   61Eth     Ch 2779   1.152   3.297   9.661  0.5242  0.0070 -0.2890
   61Eth    Hcc 2780   1.242   3.308   9.600  1.7624  0.4976  1.5733
   61Eth    Hcc 2781   1.146   3.379   9.732 -1.0604  0.1548 -0.5896
   61Eth    Hcc 2782   1.077   3.315   9.585 -0.6920 -0.9805  0.6566
   62Eth     Ho 2783   1.345   1.713   8.585 -0.1785  0.8207  2.3782
   62Eth     Oh 2784   1.324   1.628   8.618 -0.0112 -0.1343  0.1757
   62Eth     Co 2785   1.426   1.543   8.580 -0.5985 -0.3366  0.4923
   62Eth    Hco 2786   1.520   1.581   8.621 -0.2911 -0.6218  0.0485
   62Eth    Hco 2787   1.439   1.542   8.472  1.9944  2.2778  0.7011
   62Eth     Ch 2788   1.406   1.406   8.646 -0.3117  0.6255  0.0823
   62Eth    Hcc 2789   1.495   1.344   8.633 -0.6254 -0.1268  1.4048
   62Eth    Hcc 2790   1.316   1.361   8.603 -0.1719  0.0343  0.3996
   62Eth    Hcc 2791   1.386   1.405   8.753 -3.8159 -0.1781 -0.5395
   63Eth     Ho 2792   1.332   1.416   6.009 -1.2374 -1.8225 -0.3271
   63Eth     Oh 2793   1.278   1.466   5.950  0.3136  0.1967 -0.1101
   63Eth     Co 2794   1.176   1.375   5.914 -0.4181 -0.0286 -0.4180
   63Eth    Hco 2795   1.101   1.368   5.993  0.3873  3.0475  0.7112
   63Eth    Hco 2796   1.236   1.285   5.902 -2.5903 -1.2238 -2.6761
   63Eth     Ch 2797   1.115   1.423   5.789 -0.5718 -0.3430  1.0908
   63Eth    Hcc 2798   1.036   1.491   5.821  0.3588  1.7568 -0.9068
   63Eth    Hcc 2799   1.072   1.334   5.744 -0.4472  0.1364  0.0155
   63Eth    Hcc 2800   1.185   1.477   5.725 -0.5432  0.7926  2.0738
   64Eth     Ho 2801   1.335   2.238   1.558 -0.6864 -0.8742 -2.3544
   64Eth     Oh 2802   1.243   2.253   1.551 -0.7375  0.1608 -0.0928
   64Eth     Co 2803   1.237   2.388   1.501 -0.4646 -0.3944 -0.0197
   64Eth    Hco 2804   1.332   2.392   1.448 -1.7787 -1.1310 -2.5340
   64Eth    Hco 2805   1.245   2.456   1.586 -4.6541 -2.9695  2.6183
   64Eth     Ch 2806   1.111   2.408   1.417  0.1943 -0.3481 -0.3344
   64Eth    Hcc 2807   1.116   2.351   1.324  0.4897 -0.0299 -0.5159
   64Eth    Hcc 2808   1.118   2.512   1.386  1.9301 -0.9895 -2.1951
   64Eth    Hcc 2809   1.016   2.388   1.467 -0.8163 -0.7862 -2.3863
   65Eth     Ho 2810   1.217   2.752   3.144 -1.4126 -0.8632  0.1283
   65Eth     Oh 2811   1.246   2.671   3.106  0.2539 -0.1303 -0.1778
   65Eth     Co 2812   1.190   2.573   3.192  0.1393 -0.6442 -0.5697
   65Eth    Hco 2813   1.082   2.587   3.203  0.4149 -0.0075  1.6806
   65Eth    Hco 2814   1.235   2.591   3.290 -0.2544 -1.8698 -0.1583
   65Eth     Ch 2815   1.226   2.431   3.155  0.4060 -0.7118 -0.1523
   65Eth    Hcc 2816   1.333   2.411   3.160  0.2981 -0.7629  2.5880
   65Eth    Hcc 2817   1.206   2.402   3.052  1.0495 -0.5536 -0.3285
   65Eth    Hcc 2818   1.183   2.361   3.226  0.6799  0.4811  1.2091
   66Eth     Ho 2819   0.760   2.472   5.967 -0.2425 -0.1984  0.0104
   66Eth     Oh 2820   0.819   2.508   6.031 -0.6887 -0.1657  0.4056
   66Eth     Co 2821   0.916   2.408   6.038  0.3473  0.0994 -0.0036
   66Eth    Hco 2822   0.960   2.397   5.939  1.8453 -2.6184  0.9122
   66Eth    Hco 2823   0.861   2.316   6.059  0.9339 -0.0930  0.7006
   66Eth     Ch 2824   1.023   2.424   6.142 -0.2559  0.1340  0.4399
   66Eth    Hcc 2825   0.965   2.435   6.233  0.2536  1.6902  0.5962
   66Eth    Hcc 2826   1.082   2.513   6.119  0.2080 -0.3131 -0.1152
   66Eth    Hcc 2827   1.084   2.334   6.134  0.3838  0.8195 -3.7053
   67Eth     Ho 2828   1.484   2.284   9.969 -0.5474  0.2695 -0.5096
   67Eth     Oh 2829   1.491   2.342   9.896 -0.2530  0.5854 -0.2320
   67Eth     Co 2830   1.364   2.391   9.851  0.3777  1.0098  0.3145
   67Eth    Hco 2831   1.384   2.477   9.787  2.0222  1.2520  1.0996
   67Eth    Hco 2832   1.318   2.428   9.943  1.6343  1.4545  0.7793
   67Eth     Ch 2833   1.274   2.288   9.791 -0.3053  0.9436  0.0020
   67Eth    Hcc 2834   1.315   2.219   9.717  1.5395  1.1700  0.7760
   67Eth    Hcc 2835   1.184   2.336   9.751  0.4070  1.2939 -1.2276
   67Eth    Hcc 2836   1.225   2.224   9.864 -0.8948  1.1614 -0.1984
   68Eth     Ho 2837   0.615   3.260   8.782 -0.7161 -0.6301 -0.0832
   68Eth     Oh 2838   0.690   3.204   8.789  0.1019  0.4331 -0.1837
   68Eth     Co 2839   0.763   3.270   8.888 -0.4944 -0.8930 -0.2269
   68Eth    Hco 2840   0.772   3.375   8.858  1.7204 -0.8068  0.6914
   68Eth    Hco 2841   0.858   3.217   8.898 -0.1196 -0.3198 -0.6808
   68Eth     Ch 2842   0.691   3.252   9.022  0.9728  0.0757  0.0747
   68Eth    Hcc 2843   0.753   3.274   9.109 -0.9316  0.2102  1.4434
   68Eth    Hcc 2844   0.672   3.146   9.040 -0.6891  0.0606 -1.5664
   68Eth    Hcc 2845   0.595   3.301   9.041  0.6460  0.3725 -2.1867
   69Eth     Ho 2846   1.459   3.191   2.354 -0.4916  0.0156 -0.9892
   69Eth     Oh 2847   1.383   3.144   2.382 -0.0842  0.1279  0.3502
   69Eth     Co 2848   1.440   3.038   2.457 -0.2227  0.8826 -0.3886
   69Eth    Hco 2849   1.492   3.088   2.539  0.8676  0.2827 -0.7027
   69Eth    Hco 2850   1.522   2.984   2.410 -0.1444  0.0768  0.6730
   69Eth     Ch 2851   1.332   2.943   2.498 -0.4120  0.4712 -0.1111
   69Eth    Hcc 2852   1.252   2.953   2.424  0.4055 -0.6190 -1.1756
   69Eth    Hcc 2853   1.288   2.978   2.591  1.4058  0.6753  0.7031
   69Eth    Hcc 2854   1.373   2.842   2.502 -0.9045  0.3304  1.8312
   70Eth     Ho 2855   2.374   1.874   2.214 -1.0488  0.1599  0.6452
   70Eth     Oh 2856   2.338   1.808   2.270 -0.5610 -0.6447  0.0107
   70Eth     Co 2857   2.327   1.683   2.211 -0.1951 -0.2328  0.2750
   70Eth    Hco 2858   2.391   1.673   2.122  0.0649  0.7806  0.3420
   70Eth    Hco 2859   2.236   1.697   2.153 -1.1826 -1.5026  1.4877
   70Eth     Ch 2860   2.311   1.580   2.323 -0.2275 -0.5920 -0.7044
   70Eth    Hcc 2861   2.257   1.502   2.269 -2.4479 -0.0314  0.6273
   70Eth    Hcc 2862   2.239   1.603   2.401 -1.0358 -1.9117 -1.0498
   70Eth    Hcc 2863   2.408   1.557   2.367  0.1222 -0.3862 -1.3647
   71Eth     Ho 2864   0.896   1.297   8.245 -0.9702  0.1029 -0.1652
   71Eth     Oh 2865   0.881   1.380   8.287 -0.9082  0.1575 -0.2518
   71Eth     Co 2866   0.800   1.457   8.200 -0.1783 -0.5193  0.0741
   71Eth    Hco 2867   0.692   1.447   8.207 -0.0743 -0.9562  1.2193
   71Eth    Hco 2868   0.832   1.417   8.104 -1.4169 -3.1685  0.7172
   71Eth     Ch 2869   0.830   1.614   8.225  0.7705 -0.0943  0.1530
   71Eth    Hcc 2870   0.938   1.612   8.232  0.7827 -3.5026 -0.3177
   71Eth    Hcc 2871   0.787   1.648   8.319  0.6531 -1.8768  0.7464
   71Eth    Hcc 2872   0.792   1.680   8.146  1.1801 -0.6202 -0.4861
   72Eth     Ho 2873   1.999   2.533   7.620 -1.5072  0.6329  0.2802
   72Eth     Oh 2874   1.964   2.473   7.556  0.3893 -0.4314  0.1877
   72Eth     Co 2875   1.940   2.356   7.629  0.5083 -0.0730 -1.0034
   72Eth    Hco 2876   1.873   2.363   7.714  3.3127 -1.9300  1.4496
   72Eth    Hco 2877   2.034   2.333   7.679 -0.3004 -0.7321  0.2300
   72Eth     Ch 2878   1.870   2.248   7.538 -0.5854 -0.1750  0.2230
   72Eth    Hcc 2879   1.863   2.165   7.610  2.1170 -0.0068  0.7271
   72Eth    Hcc 2880   1.929   2.199   7.461  1.1267 -1.2745  2.1589
   72Eth    Hcc 2881   1.776   2.282   7.496 -0.8755  1.1978  1.9308
   73Eth     Ho 2882   2.511   3.442   7.088  0.2876  1.5715 -0.7530
   73Eth     Oh 2883   2.456   3.515   7.110 -1.0052  0.3267  0.1886
   73Eth     Co 2884   2.417   3.571   6.989 -0.2724  0.2284  0.0666
   73Eth    Hco 2885   2.378   3.498   6.919 -0.9863 -0.1566  0.8628
   73Eth    Hco 2886   2.510   3.610   6.945 -0.9141  1.2590 -0.4056
   73Eth     Ch 2887   2.308   3.676   7.014  0.1118  0.2978 -0.9310
   73Eth    Hcc 2888   2.218   3.643   7.066  0.2634 -0.2165 -0.9933
   73Eth    Hcc 2889   2.278   3.710   6.915  0.5787 -1.1119 -1.5810
   73Eth    Hcc 2890   2.341   3.757   7.078  0.0036  0.7306 -1.4228
   74Eth     Ho 2891   0.432   1.845   4.437  0.5196 -0.6928 -0.6728
   74Eth     Oh 2892   0.502   1.794   4.473 -0.0239 -0.4302  0.7935
   74Eth     Co 2893   0.484   1.657   4.433  0.0072 -0.1472 -0.6555
   74Eth    Hco 2894   0.501   1.642   4.326 -0.8820 -1.2419 -0.6451
   74Eth    Hco 2895   0.377   1.642   4.436  0.2640 -1.8753  0.7507
   74Eth     Ch 2896   0.560   1.559   4.528  0.2544 -0.1565 -0.2414
   74Eth    Hcc 2897   0.520   1.458   4.520  4.5569 -1.9730 -0.2978
   74Eth    Hcc 2898   0.559   1.598   4.630  1.3757 -2.0697  0.5217
   74Eth    Hcc 2899   0.662   1.563   4.491  0.7880  3.4311  1.4175
   75Eth     Ho 2900   0.372   0.233   2.881 -0.2573 -0.2456  0.4480
   75Eth     Oh 2901   0.431   0.274   2.941 -0.1169 -0.0648  0.1894
   75Eth     Co 2902   0.569   0.268   2.897  0.2530 -0.4555  0.0166
   75Eth    Hco 2903   0.584   0.290   2.791 -0.2940 -0.6189 -0.0964
   75Eth    Hco 2904   0.606   0.171   2.930  2.9475 -0.2854 -2.3481
   75Eth     Ch 2905   0.639   0.373   2.981 -0.8659  0.2154 -0.6367
   75Eth    Hcc 2906   0.631   0.475   2.942 -1.4940  0.5193  0.2696
   75Eth    Hcc 2907   0.747   0.359   2.974 -0.5337  2.5078 -0.7502
   75Eth    Hcc 2908   0.612   0.373   3.086  2.3865 -1.1420  0.2620
   76Eth     Ho 2909   1.972   2.207   6.014  0.1997 -0.7535 -0.5199
   76Eth     Oh 2910   1.948   2.160   6.092  0.3298 -0.3889 -0.2611
   76Eth     Co 2911   1.950   2.021   6.071  0.5198  0.8514 -0.2344
   76Eth    Hco 2912   2.052   1.990   6.049  0.6455  0.5088  0.8038
   76Eth    Hco 2913   1.897   1.994   5.979  4.0636 -2.6420 -1.3762
   76Eth     Ch 2914   1.882   1.951   6.190 -0.8575  0.3027 -0.5135
   76Eth    Hcc 2915   1.847   1.852   6.160 -1.8233 -0.2261  2.1875
   76Eth    Hcc 2916   1.791   2.005   6.216  0.2360  2.0498 -0.2826
   76Eth    Hcc 2917   1.947   1.954   6.278 -1.0477  2.5125 -0.4326
   77Eth     Ho 2918   2.822   0.834   6.428 -0.6715 -1.4282 -0.0371
   77Eth     Oh 2919   2.809   0.843   6.335 -0.1092  0.5836  0.0563
   77Eth     Co 2920   2.939   0.816   6.285 -0.5478  0.0009  1.2478
   77Eth    Hco 2921   2.960   0.711   6.302 -0.0004 -0.1859 -0.5191
   77Eth    Hco 2922   3.012   0.879   6.337  0.1689 -0.1035  0.3713
   77Eth     Ch 2923   2.939   0.858   6.136 -0.5365 -0.3905 -0.5321
   77Eth    Hcc 2924   3.036   0.821   6.106  0.4267  1.4382  0.2551
   77Eth    Hcc 2925   2.935   0.967   6.125 -0.2861 -0.2395  0.7874
   77Eth    Hcc 2926   2.864   0.799   6.083  1.0642 -2.4072 -0.5968
   78Eth     Ho 2927   2.814   0.816   8.059 -0.1047  1.9788 -3.3872
   78Eth     Oh 2928   2.876   0.882   8.086  0.4632  0.1261  0.2368
   78Eth     Co 2929   2.810   0.997   8.133  0.0947  0.6001  0.1478
   78Eth    Hco 2930   2.730   1.026   8.064  0.9803  1.1501 -0.6474
   78Eth    Hco 2931   2.884   1.077   8.135 -2.0279  2.5873  1.7883
   78Eth     Ch 2932   2.762   0.975   8.282 -0.6800  0.6232 -0.6432
   78Eth    Hcc 2933   2.733   0.873   8.308  2.4376 -0.2669 -0.5342
   78Eth    Hcc 2934   2.660   1.013   8.287 -1.3895 -1.2970 -0.1025
   78Eth    Hcc 2935   2.828   1.018   8.358 -2.2920  0.6078  0.8036
   79Eth     Ho 2936   0.720   2.102   2.432 -0.7835 -0.3838 -0.0941
   79Eth     Oh 2937   0.650   2.093   2.494 -0.6136  0.0120  0.1560
   79Eth     Co 2938   0.668   2.195   2.587  0.1002  0.0061  0.1241
   79Eth    Hco 2939   0.577   2.173   2.642 -1.0968  2.2024 -0.8951
   79Eth    Hco 2940   0.650   2.300   2.561  0.1179 -0.6433 -2.6397
   79Eth     Ch 2941   0.792   2.168   2.682  0.1683 -0.2229 -0.0764
   79Eth    Hcc 2942   0.800   2.060   2.698 -2.1822 -0.3845  0.2891
   79Eth    Hcc 2943   0.775   2.216   2.778  2.6283 -1.5610  1.0801
   79Eth    Hcc 2944   0.876   2.217   2.634  1.3136  0.5136  2.6109
   80Eth     Ho 2945   1.502   0.983   3.053  0.6869 -1.3636  1.3953
   80Eth     Oh 2946   1.439   0.918   3.029  0.1832 -0.3498 -0.0423
   80Eth     Co 2947   1.311   0.991   3.020  0.1366  0.5372  0.3999
   80Eth    Hco 2948   1.333   1.089   2.977  0.8920  0.4683  0.6272
   80Eth    Hco 2949   1.280   1.012   3.122 -0.0231 -1.0203  0.6758
   80Eth     Ch 2950   1.211   0.902   2.948 -0.1386 -0.8217 -0.1664
   80Eth    Hcc 2951   1.124   0.958   2.914 -0.8120 -0.8236  1.5222
   80Eth    Hcc 2952   1.197   0.816   3.013  3.9098  0.5640  2.7566
   80Eth    Hcc 2953   1.258   0.876   2.852  2.2033  3.0690 -0.1971
   81Eth     Ho 2954   1.902   3.325   7.351 -0.7777  0.3903 -0.2859
   81Eth     Oh 2955   1.908   3.368   7.267  0.7161  0.6423 -0.0671
   81Eth     Co 2956   2.012   3.457   7.278  0.4295  0.1719  0.1007
   81Eth    Hco 2957   1.991   3.529   7.357  1.1526  0.1243  0.3395
   81Eth    Hco 2958   2.016   3.523   7.191 -0.3188  0.8893  0.6069
   81Eth     Ch 2959   2.142   3.381   7.289  0.9512  0.1322 -0.0616
   81Eth    Hcc 2960   2.149   3.321   7.197 -1.1678 -0.3723  0.0656
   81Eth    Hcc 2961   2.147   3.313   7.374  0.5992  1.3424  0.9216
   81Eth    Hcc 2962   2.223   3.453   7.290  0.1870  1.0143 -0.4781
   82Eth     Ho 2963   2.891   1.109   1.704  1.2081  0.5212  1.2109
   82Eth     Oh 2964   2.933   1.025   1.711  0.0820 -0.1279  0.3018
   82Eth     Co 2965   2.914   0.985   1.848  0.1718  0.0804 -0.2058
   82Eth    Hco 2966   2.814   0.941   1.849  0.6422 -1.0313 -1.0447
   82Eth    Hco 2967   2.914   1.070   1.915 -1.6603  0.1219 -0.2242
   82Eth     Ch 2968   3.010   0.874   1.886  0.4824 -0.8100  0.1332
   82Eth    Hcc 2969   3.110   0.917   1.892  0.8398 -1.8769  2.2534
   82Eth    Hcc 2970   3.002   0.793   1.814  1.9987  0.2408 -1.2344
   82Eth    Hcc 2971   2.990   0.842   1.989  1.3792  0.1867  0.6253
   83Eth     Ho 2972   1.474   3.046   2.810 -0.0798  0.0868 -2.5125
   83Eth     Oh 2973   1.483   3.137   2.831 -0.1953 -0.4863  0.2318
   83Eth     Co 2974   1.491   3.153   2.972 -0.5197 -0.1278 -0.1991
   83Eth    Hco 2975   1.523   3.059   3.018 -0.8398 -0.5678 -0.8617
   83Eth    Hco 2976   1.392   3.178   3.011 -0.0488 -0.4215  1.2179
   83Eth     Ch 2977   1.578   3.272   3.020 -0.4196  0.3074 -0.3149
   83Eth    Hcc 2978   1.529   3.325   3.102  0.7208  0.7841  0.0607
   83Eth    Hcc 2979   1.584   3.344   2.938  0.9710  0.0961 -0.4062
   83Eth    Hcc 2980   1.681   3.261   3.052 -0.9619 -0.0840  1.3440
   84Eth     Ho 2981   2.954   2.276   9.200 -2.9522  1.3990  0.3163
   84Eth     Oh 2982   2.968   2.343   9.266  0.3776  0.6003  0.4661
   84Eth     Co 2983   3.094   2.320   9.324 -0.6960 -0.1380 -0.1642
   84Eth    Hco 2984   3.177   2.320   9.253 -0.6453  0.1609 -0.1054
   84Eth    Hco 2985   3.085   2.218   9.361  1.0737 -0.2636 -0.0160
   84Eth     Ch 2986   3.117   2.404   9.439  0.6003  0.5351 -0.9190
   84Eth    Hcc 2987   3.030   2.394   9.502  0.8714  1.8226 -0.3155
   84Eth    Hcc 2988   3.111   2.509   9.408 -0.7003  0.1370 -2.0601
   84Eth    Hcc 2989   3.207   2.370   9.490  0.2882 -0.0380 -0.7609
   85Eth     Ho 2990   2.127   1.382   8.253  1.5228  1.2219 -1.1255
   85Eth     Oh 2991   2.144   1.319   8.186  0.2604 -0.3039 -0.0644
   85Eth     Co 2992   2.131   1.400   8.070 -0.2051  0.0892  0.8042
   85Eth    Hco 2993   2.189   1.491   8.083 -0.9990  0.4788  1.6359
   85Eth    Hco 2994   2.031   1.443   8.076  1.2304  3.5047  1.3571
   85Eth     Ch 2995   2.168   1.314   7.950  0.2938 -0.0346  0.0671
   85Eth    Hcc 2996   2.087   1.248   7.918  1.6454 -1.4834 -0.4411
   85Eth    Hcc 2997   2.254   1.248   7.960  0.1099 -0.3179 -0.1948
   85Eth    Hcc 2998   2.182   1.375   7.861  0.1075 -0.5405 -0.3151
   86Eth     Ho 2999   0.786   0.469   2.400 -2.2501  1.3144 -1.7114
   86Eth     Oh 3000   0.840   0.478   2.324  0.8046 -0.4792  0.1766
   86Eth     Co 3001   0.785   0.392   2.230 -0.9085  0.7638  0.0372
   86Eth    Hco 3002   0.690   0.436   2.197 -0.7593 -2.3958 -5.0441
   86Eth    Hco 3003   0.747   0.297   2.266 -2.2489  1.0858 -0.4868
   86Eth     Ch 3004   0.877   0.389   2.107 -0.5697 -0.5571  0.9726
   86Eth    Hcc 3005   0.826   0.342   2.023  0.1809  0.9455 -0.3558
   86Eth    Hcc 3006   0.984   0.368   2.115 -0.1949  1.1067  0.5263
   86Eth    Hcc 3007   0.895   0.493   2.079  1.5050 -0.8766  1.0073
   87Eth     Ho 3008   2.861   2.340   3.038  0.1893 -2.4623 -1.2988
   87Eth     Oh 3009   2.923   2.329   3.108 -0.4639  0.4118 -0.2011
   87Eth     Co 3010   2.852   2.262   3.215  0.2643 -0.5488  0.2022
   87Eth    Hco 3011   2.758   2.217   3.182 -0.3920 -0.5482  1.9944
   87Eth    Hco 3012   2.826   2.326   3.299 -1.3164 -0.6491 -0.1960
   87Eth     Ch 3013   2.930   2.143   3.260 -0.3824  0.5829  0.4902
   87Eth    Hcc 3014   2.883   2.084   3.339  1.0140 -0.9418  0.1949
   87Eth    Hcc 3015   3.023   2.174   3.308  0.1568 -0.6181  0.2212
   87Eth    Hcc 3016   2.944   2.085   3.169  0.1928 -0.9183  1.5150
   88Eth     Ho 3017   0.853   2.632   9.735  0.1151  0.4427 -0.0498
   88Eth     Oh 3018   0.830   2.714   9.695  0.0952  0.4512 -0.0203
   88Eth     Co 3019   0.770   2.782   9.804  0.3321 -0.2934 -0.2555
   88Eth    Hco 3020   0.822   2.774   9.899  0.3821  0.6612 -0.1904
   88Eth    Hco 3021   0.670   2.742   9.815  0.4143 -0.5916 -0.5948
   88Eth     Ch 3022   0.768   2.933   9.777  0.1827  0.2129  0.5956
   88Eth    Hcc 3023   0.754   2.990   9.869 -2.3820 -1.0318  1.0256
   88Eth    Hcc 3024   0.693   2.944   9.698 -0.8552 -2.6200  1.1330
   88Eth    Hcc 3025   0.859   2.962   9.726 -1.1138  1.5335 -1.0332
   89Eth     Ho 3026   1.140   0.426   6.900 -1.1850  2.7265  2.2665
   89Eth     Oh 3027   1.136   0.488   6.831 -0.0452  0.1751 -0.1966
   89Eth     Co 3028   1.011   0.555   6.836  0.0541  0.1442  0.0502
   89Eth    Hco 3029   0.928   0.486   6.823  0.0790  0.2034 -0.4480
   89Eth    Hco 3030   0.995   0.616   6.747 -2.4040  0.5832  0.7753
   89Eth     Ch 3031   0.998   0.642   6.961  0.0032  0.4837  0.3293
   89Eth    Hcc 3032   1.005   0.576   7.047  1.1882 -1.8450 -1.5107
   89Eth    Hcc 3033   0.910   0.707   6.958 -0.2378  0.2109  1.3609
   89Eth    Hcc 3034   1.086   0.706   6.969 -0.6383  1.9154 -3.0801
   90Eth     Ho 3035   1.617   1.217   5.939  1.6640 -1.4726 -0.3653
   90Eth     Oh 3036   1.571   1.181   5.866 -0.2581 -0.0944  0.1183
   90Eth     Co 3037   1.666   1.117   5.786  0.3418  0.5338 -0.1032
   90Eth    Hco 3038   1.700   1.031   5.844  0.2527 -1.1471 -2.5107
   90Eth    Hco 3039   1.753   1.179   5.767  0.5602  0.1197 -0.4583
   90Eth     Ch 3040   1.588   1.077   5.662  0.2615 -0.4114  0.1307
   90Eth    Hcc 3041   1.538   1.156   5.608 -0.7799 -0.1751  1.4040
   90Eth    Hcc 3042   1.504   1.017   5.696  1.3244 -1.4583  0.9687
   90Eth    Hcc 3043   1.643   1.032   5.579 -0.4466  1.7725 -1.5495
   91Eth     Ho 3044   0.552   2.717   2.885 -0.0375 -0.6661 -0.2339
   91Eth     Oh 3045   0.630   2.698   2.836  0.1137 -0.5020 -0.0587
   91Eth     Co 3046   0.660   2.561   2.870 -0.9094 -0.1221  0.1501
   91Eth    Hco 3047   0.658   2.521   2.769 -1.2140 -0.6743  0.3693
   91Eth    Hco 3048   0.592   2.507   2.936 -1.3342  0.3440  0.0982
   91Eth     Ch 3049   0.800   2.533   2.919  0.5637  0.2026 -0.4274
   91Eth    Hcc 3050   0.826   2.593   3.006 -2.3607 -1.6278  1.7800
   91Eth    Hcc 3051   0.874   2.554   2.841  2.0592 -2.0130  0.3469
   91Eth    Hcc 3052   0.803   2.428   2.947  2.0435  1.0139  2.6835
   92Eth     Ho 3053   3.105   1.960   8.849  0.1806  1.8013  1.5025
   92Eth     Oh 3054   3.051   1.911   8.909  0.3992 -0.1145  0.1950
   92Eth     Co 3055   3.113   1.786   8.940 -0.3147 -0.5879 -0.6675
   92Eth    Hco 3056   3.203   1.766   8.881  0.6802 -0.7126  0.8542
   92Eth    Hco 3057   3.044   1.703   8.923 -1.7572  0.2396  0.9823
   92Eth     Ch 3058   3.157   1.794   9.084  0.5123  0.3928  0.1397
   92Eth    Hcc 3059   3.221   1.879   9.109 -0.2452  0.3704  2.2311
   92Eth    Hcc 3060   3.214   1.705   9.108 -0.1268 -0.1864 -0.4666
   92Eth    Hcc 3061   3.071   1.807   9.149 -0.3467  2.6414 -1.3722
   93Eth     Ho 3062   2.118   2.261   4.788 -0.8748  0.0045 -0.1833
   93Eth     Oh 3063   2.109   2.217   4.705 -1.0012 -0.4037  0.0463
   93Eth     Co 3064   2.214   2.255   4.613 -0.0540  0.2670 -0.3333
   93Eth    Hco 3065   2.292   2.180   4.626  0.7924  1.0638 -0.6948
   93Eth    Hco 3066   2.257   2.351   4.641  0.4797 -0.1377  0.2524
   93Eth     Ch 3067   2.160   2.263   4.468  1.0215 -0.0246  0.3477
   93Eth    Hcc 3068   2.074   2.331   4.472  1.3589  0.4777 -0.5979
   93Eth    Hcc 3069   2.123   2.172   4.420 -0.0338  0.2413  0.6436
   93Eth    Hcc 3070   2.240   2.308   4.408 -0.0731  2.3052  0.5844
   94Eth     Ho 3071   0.526   2.625   4.793  0.3683 -0.0248 -0.1368
   94Eth     Oh 3072   0.530   2.531   4.788 -0.0364 -0.0729  0.4005
   94Eth     Co 3073   0.659   2.495   4.840  0.0324  0.3964  0.6412
   94Eth    Hco 3074   0.659   2.525   4.945  0.1213 -0.5364  0.9065
   94Eth    Hco 3075   0.739   2.551   4.792 -0.7331  2.1683  1.3623
   94Eth     Ch 3076   0.694   2.343   4.835  0.2470 -0.1412 -0.3662
   94Eth    Hcc 3077   0.683   2.309   4.732  0.5924 -2.4337  0.3439
   94Eth    Hcc 3078   0.625   2.292   4.903  0.6862 -0.5885 -0.2557
   94Eth    Hcc 3079   0.797   2.315   4.857 -0.2996 -1.4925  0.5292
   95Eth     Ho 3080   2.517   1.536   2.192  1.4506 -0.2235 -2.7380
   95Eth     Oh 3081   2.596   1.497   2.226  0.5315 -0.2377 -0.5473
   95Eth     Co 3082   2.571   1.360   2.263 -0.0407 -0.3216  0.1255
   95Eth    Hco 3083   2.527   1.320   2.172  1.5068  1.2838 -1.3688
   95Eth    Hco 3084   2.508   1.350   2.351 -2.6463 -0.1018 -1.6655
   95Eth     Ch 3085   2.684   1.266   2.281 -0.2352  0.1447  0.6185
   95Eth    Hcc 3086   2.746   1.306   2.361 -0.0131  0.9465  0.0508
   95Eth    Hcc 3087   2.735   1.257   2.186 -2.2474 -0.3298 -0.4416
   95Eth    Hcc 3088   2.654   1.165   2.311  0.8509 -1.1571 -2.5280
   96Eth     Ho 3089   0.428   2.924   9.864 -0.5655 -0.0316 -0.1705
   96Eth     Oh 3090   0.418   3.017   9.852  0.5122  0.0505 -0.5162
   96Eth     Co 3091   0.280   3.036   9.901 -0.8104 -0.3150 -0.2774
   96Eth    Hco 3092   0.268   3.018  10.008 -0.7721  0.6578 -0.1029
   96Eth    Hco 3093   0.231   2.961   9.839  0.3278  0.9166 -2.7475
   96Eth     Ch 3094   0.225   3.173   9.850  0.7760 -0.2529  0.3112
   96Eth    Hcc 3095   0.128   3.171   9.900  0.0854  0.6086 -0.9652
   96Eth    Hcc 3096   0.201   3.175   9.744  2.0841 -0.3006  0.0065
   96Eth    Hcc 3097   0.284   3.259   9.880  0.4710  0.1964 -0.3554
   97Eth     Ho 3098   2.790   1.397   6.522  1.3548  1.4190  0.3983
   97Eth     Oh 3099   2.741   1.414   6.601 -0.3494 -0.1282 -0.2916
   97Eth     Co 3100   2.821   1.447   6.715 -0.1920  0.3751 -0.4861
   97Eth    Hco 3101   2.804   1.550   6.745 -0.2323  0.0368  0.6851
   97Eth    Hco 3102   2.925   1.435   6.685 -1.1582 -0.5646 -3.7418
   97Eth     Ch 3103   2.778   1.349   6.819 -0.0111  0.4582 -0.4660
   97Eth    Hcc 3104   2.802   1.246   6.791 -0.8874  0.2569 -0.4918
   97Eth    Hcc 3105   2.674   1.360   6.850 -0.2639  2.5775 -1.9628
   97Eth    Hcc 3106   2.837   1.370   6.908  0.5590  2.9638 -1.4089
   98Eth     Ho 3107   0.464   0.580   4.373 -0.7544  1.1635  0.6895
   98Eth     Oh 3108   0.444   0.503   4.422  0.4112  0.2041 -0.2885
   98Eth     Co 3109   0.319   0.456   4.384  0.9263 -0.5203  0.2970
   98Eth    Hco 3110   0.316   0.445   4.275 -1.2839 -1.8423  0.4582
   98Eth    Hco 3111   0.249   0.534   4.413  0.0980 -1.3756  0.6449
   98Eth     Ch 3112   0.294   0.319   4.451  0.2714  0.5807  0.7795
   98Eth    Hcc 3113   0.382   0.255   4.447 -2.3088 -3.1265  0.5316
   98Eth    Hcc 3114   0.218   0.260   4.401  1.5343  1.4072 -2.2734
   98Eth    Hcc 3115   0.269   0.342   4.554  0.7691  1.3391  0.7372
   99Eth     Ho 3116   3.197   1.403   6.485  1.7724 -0.1378 -1.3752
   99Eth     Oh 3117   3.230   1.421   6.571 -0.3529 -0.6562 -0.4298
   99Eth     Co 3118   3.198   1.557   6.582  0.5571  0.3937  0.5332
   99Eth    Hco 3119   3.110   1.557   6.646  0.1220  1.2499 -0.0633
   99Eth    Hco 3120   3.181   1.591   6.480  0.5259  0.4728  0.5645
   99Eth     Ch 3121   3.311   1.624   6.643 -0.5110  0.0528 -0.3076
   99Eth    Hcc 3122   3.289   1.729   6.661 -1.1545  0.3305 -2.6151
   99Eth    Hcc 3123   3.405   1.626   6.589 -0.2927 -1.3495 -0.0031
   99Eth    Hcc 3124   3.326   1.581   6.742 -0.1282 -0.0247 -0.3992
  100Eth     Ho 3125   0.983   1.887   1.565 -0.9478  0.4921  1.2551
  100Eth     Oh 3126   0.961   1.798   1.586 -0.3292 -0.0176 -0.1947
  100Eth     Co 3127   1.043   1.728   1.496 -0.2562  0.5215  0.2594
  100Eth    Hco 3128   1.148   1.752   1.510  0.4048 -1.9402 -0.4023
  100Eth    Hco 3129   1.025   1.779   1.401  1.3935 -0.1918 -0.4424
  100Eth     Ch 3130   1.020   1.567   1.524  0.3395  0.3683 -0.0607
  100Eth    Hcc 3131   0.926   1.519   1.497  0.3164  0.9861 -1.0786
  100Eth    Hcc 3132   1.047   1.550   1.629 -1.5947 -1.2515  0.2122
  100Eth    Hcc 3133   1.101   1.507   1.482 -0.9680 -2.9548  1.9335
  101Eth     Ho 3134   0.435   2.236   6.269  1.4835  0.9774 -1.4125
  101Eth     Oh 3135   0.504   2.174   6.255  0.6752 -0.0336 -1.0524
  101Eth     Co 3136   0.563   2.203   6.127 -0.8059 -0.1356 -0.7490
  101Eth    Hco 3137   0.585   2.310   6.129  0.0657 -0.3438  0.8985
  101Eth    Hco 3138   0.503   2.195   6.036 -1.3568  0.6378 -0.4646
  101Eth     Ch 3139   0.685   2.113   6.111  0.5790 -0.4713  0.1996
  101Eth    Hcc 3140   0.646   2.011   6.111 -2.6161  0.6938 -0.4023
  101Eth    Hcc 3141   0.755   2.119   6.195  1.4927 -1.5542 -0.4744
  101Eth    Hcc 3142   0.734   2.134   6.016  0.2866 -0.7652 -0.0142
  102Eth     Ho 3143   2.654   2.062   4.786 -1.5297  0.5898  1.3960
  102Eth     Oh 3144   2.642   2.145   4.743  0.5436  0.3490  0.2351
  102Eth     Co 3145   2.558   2.230   4.815  0.2806  0.0994 -0.4097
  102Eth    Hco 3146   2.597   2.243   4.916 -0.1604 -2.4670  0.1328
  102Eth    Hco 3147   2.455   2.195   4.822  0.7713 -1.2649  0.3137
  102Eth     Ch 3148   2.556   2.367   4.757 -0.0363  0.2237 -0.6081
  102Eth    Hcc 3149   2.653   2.414   4.773  0.7512  0.2308 -4.6751
  102Eth    Hcc 3150   2.481   2.431   4.802  1.7072  0.6343  1.7916
  102Eth    Hcc 3151   2.548   2.358   4.648  1.6298  0.4721 -0.7678
  103Eth     Ho 3152   1.307   2.555   4.976  0.6054  0.1120 -0.2751
  103Eth     Oh 3153   1.273   2.639   4.954  0.4088  0.0884 -0.0611
  103Eth     Co 3154   1.210   2.677   5.069 -0.3676 -0.1118 -0.4422
  103Eth    Hco 3155   1.282   2.663   5.150  0.5606  1.4601 -0.9682
  103Eth    Hco 3156   1.130   2.604   5.078  0.4110 -1.0707 -1.2310
  103Eth     Ch 3157   1.150   2.814   5.056  0.2441 -0.3081 -0.2890
  103Eth    Hcc 3158   1.118   2.852   5.153 -0.5767 -0.9341 -0.3078
  103Eth    Hcc 3159   1.061   2.817   4.993  0.1585  2.8197 -0.0892
  103Eth    Hcc 3160   1.228   2.876   5.011 -0.8019  1.7663  0.6889
  104Eth     Ho 3161   2.525   1.154   6.259  0.7803 -0.9186 -2.8887
  104Eth     Oh 3162   2.466   1.223   6.234  0.0322 -0.3682  0.1909
  104Eth     Co 3163   2.524   1.334   6.171 -0.3645  0.0708 -1.1759
  104Eth    Hco 3164   2.553   1.304   6.071  0.0076  1.0226 -1.3519
  104Eth    Hco 3165   2.613   1.352   6.231 -0.3440 -1.3921 -0.7365
  104Eth     Ch 3166   2.427   1.451   6.165  0.0579 -0.0848 -0.4183
  104Eth    Hcc 3167   2.399   1.488   6.263 -0.1950  0.3520 -0.6539
  104Eth    Hcc 3168   2.348   1.441   6.090  0.9853  1.2805 -1.6251
  104Eth    Hcc 3169   2.484   1.528   6.112  0.5007 -0.4401 -0.4610
  105Eth     Ho 3170   1.829   2.689   9.801  0.9926 -0.1672 -1.1843
  105Eth     Oh 3171   1.753   2.742   9.783  0.3532 -0.4040  0.7177
  105Eth     Co 3172   1.635   2.680   9.848 -0.3414 -0.0670  0.4107
  105Eth    Hco 3173   1.639   2.680   9.957  0.0880  0.8591  0.4005
  105Eth    Hco 3174   1.641   2.574   9.822 -0.5502  0.7225 -3.1252
  105Eth     Ch 3175   1.514   2.758   9.789  0.7267  0.9550 -0.2803
  105Eth    Hcc 3176   1.416   2.710   9.799  1.0779 -0.0247 -1.3818
  105Eth    Hcc 3177   1.529   2.766   9.681  1.5797  0.7775 -0.1772
  105Eth    Hcc 3178   1.509   2.858   9.832  0.6034  0.3019  1.2497
  106Eth     Ho 3179   0.175   0.533   8.016 -0.3365 -2.2954  0.0784
  106Eth     Oh 3180   0.162   0.539   8.109  0.0025  0.1364  0.0107
  106Eth     Co 3181   0.018   0.517   8.125 -0.4576 -0.3435 -0.2865
  106Eth    Hco 3182  -0.011   0.436   8.059 -2.7038  0.0711  0.1366
  106Eth    Hco 3183  -0.037   0.607   8.095  0.9468  1.2154  1.6529
  106Eth     Ch 3184  -0.031   0.483   8.269  0.0548  0.4962 -0.2598
  106Eth    Hcc 3185   0.028   0.400   8.309 -2.4146 -1.0167  0.3289
  106Eth    Hcc 3186  -0.131   0.439   8.271  0.2603 -0.2630 -3.7055
  106Eth    Hcc 3187  -0.017   0.566   8.338  1.3102  0.6026 -0.6279
  107Eth     Ho 3188   0.606   0.382   5.042 -0.1502 -0.6351 -0.5549
  107Eth     Oh 3189   0.697   0.385   5.065 -0.4035 -0.1495  0.3801
  107Eth     Co 3190   0.753   0.264   5.014  0.2721 -0.1855 -0.1395
  107Eth    Hco 3191   0.721   0.249   4.911 -2.8373  0.2509  0.6829
  107Eth    Hco 3192   0.713   0.185   5.078  0.3539 -0.5830 -0.5737
  107Eth     Ch 3193   0.907   0.266   5.029  0.2700  0.4401 -0.3617
  107Eth    Hcc 3194   0.952   0.180   4.979 -1.4916 -0.8851  0.2708
  107Eth    Hcc 3195   0.924   0.273   5.136  0.6896  1.5608 -0.4943
  107Eth    Hcc 3196   0.957   0.353   4.986 -0.8257  0.4203 -1.7139
  108Eth     Ho 3197   2.991   1.526   2.888  0.3111  2.1409 -0.5536
  108Eth     Oh 3198   3.085   1.528   2.892  0.3967 -0.4764 -0.4972
  108Eth     Co 3199   3.114   1.665   2.910  0.6932  0.0094 -0.4406
  108Eth    Hco 3200   3.068   1.690   3.006  0.9819 -0.2896 -0.2228
  108Eth    Hco 3201   3.081   1.733   2.831  0.9646  1.3459  0.5632
  108Eth     Ch 3202   3.259   1.690   2.947 -0.4399 -0.3493 -0.6791
  108Eth    Hcc 3203   3.303   1.717   2.851  0.7769 -1.6378 -0.5019
  108Eth    Hcc 3204   3.309   1.607   2.997 -1.4234 -0.7098 -0.2773
  108Eth    Hcc 3205   3.265   1.778   3.010 -0.7563 -0.4163 -0.5548
  109Eth     Ho 3206   0.432   0.522   9.123 -1.1485  0.0225  1.4973
  109Eth     Oh 3207   0.379   0.489   9.053  0.8209 -0.0761  0.0118
  109Eth     Co 3208   0.290   0.396   9.110  0.1830 -0.7624 -0.1724
  109Eth    Hco 3209   0.242   0.441   9.197  1.5506  2.3497 -0.9551
  109Eth    Hco 3210   0.348   0.315   9.153  1.2627  0.5259  0.8670
  109Eth     Ch 3211   0.187   0.377   8.998  0.1609  0.3691 -0.0121
  109Eth    Hcc 3212   0.095   0.334   9.039 -1.2849  2.3037 -1.1299
  109Eth    Hcc 3213   0.220   0.320   8.911  1.3847  0.3776  0.4422
  109Eth    Hcc 3214   0.157   0.475   8.961  2.0544  1.9316  2.4276
  110Eth     Ho 3215   1.955   0.060   3.282  0.2399  0.5401 -1.6781
  110Eth     Oh 3216   1.916   0.141   3.253  0.1541  0.9853 -0.3572
  110Eth     Co 3217   1.775   0.114   3.241  0.0902 -0.4213 -0.3229
  110Eth    Hco 3218   1.744   0.131   3.344  0.8981  1.8783 -0.4441
  110Eth    Hco 3219   1.745   0.012   3.218 -1.3047 -0.3990  1.3033
  110Eth     Ch 3220   1.704   0.218   3.148  0.6636 -0.3395 -0.4579
  110Eth    Hcc 3221   1.596   0.229   3.162  0.6299 -0.6947 -0.4426
  110Eth    Hcc 3222   1.708   0.202   3.041  1.2164 -0.5484 -0.4092
  110Eth    Hcc 3223   1.748   0.316   3.165 -1.7845  0.7691 -0.2552
  111Eth     Ho 3224   3.165   2.741   7.275 -1.3446 -0.4460  0.1056
  111Eth     Oh 3225   3.149   2.674   7.212  0.1908 -0.6501 -0.0855
  111Eth     Co 3226   3.090   2.734   7.103 -0.3014 -0.3045  1.3755
  111Eth    Hco 3227   3.160   2.748   7.022  0.6368 -2.1441  1.8393
  111Eth    Hco 3228   3.050   2.833   7.123 -2.1631 -1.3839  3.2208
  111Eth     Ch 3229   2.973   2.647   7.048 -0.3234  0.0965  0.3667
  111Eth    Hcc 3230   2.927   2.695   6.962  0.7404  2.3357  1.0327
  111Eth    Hcc 3231   2.895   2.622   7.121  1.7807  0.1038  2.6552
  111Eth    Hcc 3232   3.019   2.551   7.023  1.3033 -0.3018  4.4960
  112Eth     Ho 3233   0.648   1.178   5.910 -0.1782 -3.6420 -0.3619
  112Eth     Oh 3234   0.673   1.191   6.000 -0.1142 -0.7055 -0.7729
  112Eth     Co 3235   0.778   1.289   5.999  0.5992  0.3112 -0.2968
  112Eth    Hco 3236   0.748   1.381   5.950 -0.1298  1.2426  1.8112
  112Eth    Hco 3237   0.861   1.242   5.947  1.3856  0.0226  1.1815
  112Eth     Ch 3238   0.824   1.323   6.139  0.4414 -0.8343 -0.7924
  112Eth    Hcc 3239   0.744   1.385   6.181  2.2127 -0.7748  2.7008
  112Eth    Hcc 3240   0.912   1.388   6.130  0.5873 -0.7967  0.7183
  112Eth    Hcc 3241   0.838   1.244   6.212  1.4792  0.0549 -0.0154
  113Eth     Ho 3242   2.931   1.354   1.442 -2.1596  2.2693 -1.7177
  113Eth     Oh 3243   2.865   1.289   1.422 -0.4232 -0.2933  0.5162
  113Eth     Co 3244   2.743   1.351   1.454 -0.4655  0.4054  0.2263
  113Eth    Hco 3245   2.718   1.433   1.387  0.2677 -0.1807 -0.7914
  113Eth    Hco 3246   2.752   1.387   1.556  2.1729 -0.9452  0.4945
  113Eth     Ch 3247   2.643   1.238   1.426  0.3751  0.4766  0.1268
  113Eth    Hcc 3248   2.537   1.264   1.431  0.6003  1.4503  0.0279
  113Eth    Hcc 3249   2.660   1.151   1.489  2.7664  0.6507 -0.2403
  113Eth    Hcc 3250   2.652   1.205   1.323  1.5373 -1.0745  0.7122
  114Eth     Ho 3251   3.005   1.828   3.800  0.1306 -0.7690 -1.0413
  114Eth     Oh 3252   3.086   1.874   3.794 -0.2216  0.0854  0.3934
  114Eth     Co 3253   3.126   1.864   3.657  0.4149  0.4976 -0.4684
  114Eth    Hco 3254   3.119   1.956   3.598 -3.2324  0.2942 -0.4933
  114Eth    Hco 3255   3.072   1.788   3.600 -0.7506  0.3071  0.8502
  114Eth     Ch 3256   3.268   1.810   3.646  0.3884  0.1042  0.0576
  114Eth    Hcc 3257   3.297   1.818   3.541  2.1215  1.0759  0.5803
  114Eth    Hcc 3258   3.272   1.706   3.676  0.0184  0.1174  0.1456
  114Eth    Hcc 3259   3.342   1.866   3.705  0.6619 -1.7637  1.5344
  115Eth     Ho 3260   0.175   2.391   1.715 -2.3509 -1.8361 -1.3462
  115Eth     Oh 3261   0.128   2.473   1.709  0.7030  0.0315 -0.6873
  115Eth     Co 3262   0.021   2.453   1.791 -0.2697 -0.6568 -0.5385
  115Eth    Hco 3263   0.058   2.400   1.879  1.7296 -1.2402 -1.6931
  115Eth    Hco 3264  -0.039   2.374   1.746  0.9757 -1.1964 -1.2741
  115Eth     Ch 3265  -0.063   2.579   1.821  0.2053  0.7728  0.3484
  115Eth    Hcc 3266   0.007   2.646   1.870  1.7758 -0.7812  0.2756
  115Eth    Hcc 3267  -0.145   2.545   1.885 -0.4838 -0.2130 -1.0221
  115Eth    Hcc 3268  -0.101   2.619   1.727 -0.0737  0.1832  0.2048
  116Eth     Ho 3269   2.170   2.793   7.199  0.2919  0.4709 -1.4378
  116Eth     Oh 3270   2.109   2.859   7.226  0.3908  0.0705 -0.2012
  116Eth     Co 3271   2.083   2.842   7.361 -1.1688 -0.6558 -0.1131
  116Eth    Hco 3272   2.177   2.864   7.411 -1.7984 -0.7979  1.1378
  116Eth    Hco 3273   2.067   2.737   7.386 -0.0782 -0.6433  0.6694
  116Eth     Ch 3274   1.977   2.944   7.393 -0.3040 -0.3666  0.5237
  116Eth    Hcc 3275   1.877   2.924   7.356 -0.5033 -1.0848  1.4458
  116Eth    Hcc 3276   2.017   3.045   7.379  0.1650 -0.5121  0.8039
  116Eth    Hcc 3277   1.963   2.940   7.501 -1.5172  0.9370  0.4309
  117Eth     Ho 3278   0.376   1.900   6.104 -0.4885 -0.5723  0.8340
  117Eth     Oh 3279   0.326   1.875   6.029  0.0514  0.3448  0.1605
  117Eth     Co 3280   0.256   1.982   5.983 -0.1018 -0.2460 -0.3087
  117Eth    Hco 3281   0.322   2.035   5.914 -3.0993 -0.3893 -3.4152
  117Eth    Hco 3282   0.224   2.053   6.060  0.7706  2.2772 -2.1852
  117Eth     Ch 3283   0.137   1.969   5.890  0.3323  0.5113 -0.0245
  117Eth    Hcc 3284   0.112   2.063   5.840 -0.5937  1.0589  1.4513
  117Eth    Hcc 3285   0.046   1.932   5.938 -0.6528 -0.1782 -2.3629
  117Eth    Hcc 3286   0.147   1.897   5.808 -1.0083  0.4563 -0.1438
  118Eth     Ho 3287   1.354   0.415   8.494  1.0466  0.9536 -1.2000
  118Eth     Oh 3288   1.417   0.350   8.467  0.3329 -0.1364 -0.2805
  118Eth     Co 3289   1.368   0.226   8.515  0.3327 -0.0843  0.5508
  118Eth    Hco 3290   1.287   0.194   8.448  1.2610  0.4615 -0.8566
  118Eth    Hco 3291   1.323   0.240   8.614 -0.8242  0.5491 -0.0439
  118Eth     Ch 3292   1.485   0.135   8.532 -0.4834 -0.0913 -0.7594
  118Eth    Hcc 3293   1.534   0.100   8.441  0.6616 -0.0272 -0.1749
  118Eth    Hcc 3294   1.451   0.052   8.594 -0.8494 -0.6572 -1.7100
  118Eth    Hcc 3295   1.568   0.179   8.586 -0.1590 -1.0535 -0.4790
  119Eth     Ho 3296   2.769   0.952   9.532  0.2654 -0.0607  0.5213
  119Eth     Oh 3297   2.765   1.033   9.485  0.3691  0.0498  0.7048
  119Eth     Co 3298   2.865   1.106   9.551  0.1584  0.3670  0.3545
  119Eth    Hco 3299   2.958   1.052   9.531  0.3303 -0.0546  2.2161
  119Eth    Hco 3300   2.846   1.112   9.658  0.4908  0.6368  0.4021
  119Eth     Ch 3301   2.875   1.246   9.488 -0.2982 -0.7944  0.1769
  119Eth    Hcc 3302   2.921   1.315   9.559 -0.2495  1.6881 -2.1964
  119Eth    Hcc 3303   2.786   1.301   9.459 -0.6134 -0.5707  1.5109
  119Eth    Hcc 3304   2.945   1.245   9.405 -0.2955  1.4134  0.1277
  120Eth     Ho 3305   0.229   2.516   7.716 -1.3895 -0.6099  0.2480
  120Eth     Oh 3306   0.280   2.516   7.795 -0.1996  0.2990 -0.4924
  120Eth     Co 3307   0.309   2.377   7.827  0.0576 -0.3649  0.2566
  120Eth    Hco 3308   0.277   2.331   7.734 -0.8048  0.2500  0.2408
  120Eth    Hco 3309   0.241   2.345   7.905 -0.2274 -1.6005 -0.4885
  120Eth     Ch 3310   0.462   2.361   7.867 -0.1666 -0.3397 -0.2376
  120Eth    Hcc 3311   0.471   2.414   7.962  0.0254 -1.6043  0.4563
  120Eth    Hcc 3312   0.528   2.389   7.785  0.2039  0.6177  0.3808
  120Eth    Hcc 3313   0.477   2.255   7.887 -0.5145  0.0641  2.3476
  121Eth     Ho 3314   3.039   2.687   6.133  0.5220  1.1570  0.1875
  121Eth     Oh 3315   2.970   2.691   6.196  0.1062  0.3697 -0.2125
  121Eth     Co 3316   2.952   2.829   6.218 -0.6546  0.4924  0.0456
  121Eth    Hco 3317   2.950   2.885   6.124  0.3983 -3.4628 -2.4430
  121Eth    Hco 3318   3.039   2.878   6.262  1.2706 -1.7134 -1.2113
  121Eth     Ch 3319   2.830   2.874   6.284  0.6168  0.8027 -0.6610
  121Eth    Hcc 3320   2.815   2.831   6.382 -1.1716  2.5916 -0.1029
  121Eth    Hcc 3321   2.747   2.841   6.221  1.0871 -0.4780 -0.6262
  121Eth    Hcc 3322   2.817   2.981   6.298  0.0042  0.6466  0.0036
  122Eth     Ho 3323   1.026   0.011   8.945  0.3015  0.0935  0.6274
  122Eth     Oh 3324   1.086   0.056   8.889 -0.1126 -0.0564  0.0629
  122Eth     Co 3325   1.208   0.037   8.953 -0.1004 -0.4713 -0.5139
  122Eth    Hco 3326   1.261  -0.057   8.934  0.3652 -1.1178  3.4600
  122Eth    Hco 3327   1.182   0.030   9.059 -2.8163 -0.1430 -1.1319
  122Eth     Ch 3328   1.302   0.158   8.924 -0.0778  0.1642 -0.4218
  122Eth    Hcc 3329   1.341   0.157   8.823 -0.5241  0.6394 -0.6027
  122Eth    Hcc 3330   1.394   0.161   8.983  0.3518 -3.1648 -0.8230
  122Eth    Hcc 3331   1.258   0.255   8.946  1.3258  0.4215  1.4262
  123Eth     Ho 3332   3.179   3.387   9.640  0.2521  0.3972 -1.2248
  123Eth     Oh 3333   3.252   3.447   9.647  0.0232  0.5480 -0.0591
  123Eth     Co 3334   3.248   3.521   9.763 -0.1883 -1.2977 -0.1782
  123Eth    Hco 3335   3.264   3.460   9.853  1.4278  0.1108  0.5067
  123Eth    Hco 3336   3.154   3.577   9.766  0.3775 -0.2456 -1.7470
  123Eth     Ch 3337   3.380   3.609   9.787  0.2946 -0.1323 -0.5242
  123Eth    Hcc 3338   3.385   3.688   9.712 -1.1878  0.4382 -0.0407
  123Eth    Hcc 3339   3.471   3.549   9.790 -0.9228 -1.9477  2.1658
  123Eth    Hcc 3340   3.369   3.654   9.886 -0.2785 -1.5600  0.0714
  124Eth     Ho 3341   2.235   1.706   6.951  1.0080  0.4817  0.1560
  124Eth     Oh 3342   2.180   1.777   6.976  0.0798 -0.1801  0.0367
  124Eth     Co 3343   2.076   1.703   7.037  0.5297  0.3529 -0.3847
  124Eth    Hco 3344   2.097   1.682   7.143  1.0519  0.1026 -0.5329
  124Eth    Hco 3345   2.037   1.621   6.977 -3.8538  2.6027 -0.7830
  124Eth     Ch 3346   1.949   1.790   7.044  0.2058  1.0464  0.0455
  124Eth    Hcc 3347   1.860   1.732   7.068  1.8847 -1.5904  0.0786
  124Eth    Hcc 3348   1.938   1.839   6.947  0.8410 -1.5090 -1.3678
  124Eth    Hcc 3349   1.953   1.869   7.119 -2.8228  0.8570  0.4801
  125Eth     Ho 3350   2.542   2.170   5.664 -1.3565 -1.5684  0.1552
  125Eth     Oh 3351   2.513   2.176   5.575  0.3340  0.0315 -0.3253
  125Eth     Co 3352   2.511   2.309   5.544 -0.0749 -0.7981  0.2879
  125Eth    Hco 3353   2.492   2.335   5.440 -0.0200  1.2136  0.7582
  125Eth    Hco 3354   2.610   2.344   5.575  0.2264  0.4585 -1.9579
  125Eth     Ch 3355   2.394   2.388   5.624  0.5976  0.3593  0.1411
  125Eth    Hcc 3356   2.298   2.355   5.585 -0.3217  1.0718  1.7272
  125Eth    Hcc 3357   2.406   2.495   5.611 -0.3581  0.6100  1.2517
  125Eth    Hcc 3358   2.408   2.370   5.731  2.9299 -0.8363 -0.3285
  126Eth     Ho 3359   0.696   0.968   5.800  1.8033  1.6019  0.5389
  126Eth     Oh 3360   0.650   1.045   5.771 -0.6324 -0.3173 -0.8212
  126Eth     Co 3361   0.710   1.084   5.650  0.0194 -0.5907 -0.2797
  126Eth    Hco 3362   0.681   1.010   5.576  1.5698  0.3730 -1.8960
  126Eth    Hco 3363   0.819   1.096   5.653 -0.1229  0.7963 -0.1483
  126Eth     Ch 3364   0.637   1.214   5.607  0.1264  0.2682  0.1901
  126Eth    Hcc 3365   0.529   1.208   5.616  0.0739 -0.8476 -1.0556
  126Eth    Hcc 3366   0.675   1.227   5.505 -0.5374 -0.6973 -0.1813
  126Eth    Hcc 3367   0.672   1.296   5.671  0.3940 -1.5928  2.4776
  127Eth     Ho 3368   1.049   1.811   8.997  0.6910  0.2399  1.2544
  127Eth     Oh 3369   1.104   1.739   8.971 -0.0997  0.0402  0.1407
  127Eth     Co 3370   1.222   1.773   9.053 -0.7826  0.1123  0.9197
  127Eth    Hco 3371   1.192   1.754   9.156 -1.3521 -1.5857  0.4501
  127Eth    Hco 3372   1.253   1.877   9.044 -0.8648  0.0763  0.2228
  127Eth     Ch 3373   1.333   1.671   9.021  0.0756  0.8022  1.0501
  127Eth    Hcc 3374   1.408   1.666   9.099 -0.5708 -1.1898  1.5826
  127Eth    Hcc 3375   1.386   1.700   8.930 -0.3502 -0.6651  0.3093
  127Eth    Hcc 3376   1.288   1.574   9.001  0.8175  0.4781  0.9533
  128Eth     Ho 3377   1.007   0.594   2.357 -0.5707  1.5276  1.0845
  128Eth     Oh 3378   1.095   0.617   2.379 -0.1828  0.4521  0.6477
  128Eth     Co 3379   1.094   0.604   2.521 -0.7990  0.2344 -0.1635
  128Eth    Hco 3380   1.094   0.498   2.547  2.5600 -0.0227 -0.9524
  128Eth    Hco 3381   0.998   0.643   2.554 -0.7170  0.8268 -0.6133
  128Eth     Ch 3382   1.205   0.674   2.590 -0.3888 -0.3603  0.3766
  128Eth    Hcc 3383   1.191   0.662   2.697 -0.6168 -0.6100  0.3185
  128Eth    Hcc 3384   1.218   0.779   2.566 -0.8572 -0.0203  1.5921
  128Eth    Hcc 3385   1.305   0.640   2.562  0.1617  1.5517 -0.0023
  129Eth     Ho 3386   1.969   2.905   6.788 -2.0805  2.4448 -1.4335
  129Eth     Oh 3387   2.017   2.919   6.709  0.4724 -0.6727 -0.5347
  129Eth     Co 3388   2.110   2.809   6.691 -0.0922  0.4312  0.0061
  129Eth    Hco 3389   2.057   2.715   6.709 -0.8401  0.5334 -1.5899
  129Eth    Hco 3390   2.183   2.821   6.771  0.2719 -0.2516 -0.2176
  129Eth     Ch 3391   2.163   2.795   6.549 -0.3180  0.1289  0.2023
  129Eth    Hcc 3392   2.236   2.714   6.541  0.3027  0.5818  1.1438
  129Eth    Hcc 3393   2.208   2.889   6.516 -0.4428 -0.4796 -1.7817
  129Eth    Hcc 3394   2.071   2.774   6.495 -0.0738  1.9477 -0.9444
  130Eth     Ho 3395   1.233   1.148   8.402 -1.9017  0.1359 -1.5516
  130Eth     Oh 3396   1.273   1.203   8.338  0.0591  0.0807 -0.4051
  130Eth     Co 3397   1.406   1.153   8.336 -0.0191 -0.5710 -0.4748
  130Eth    Hco 3398   1.406   1.061   8.279  4.0843  0.0581 -1.6374
  130Eth    Hco 3399   1.446   1.140   8.437  0.4506  0.5535 -0.5056
  130Eth     Ch 3400   1.504   1.235   8.249  0.2251 -0.2924 -0.3646
  130Eth    Hcc 3401   1.590   1.169   8.230 -0.3547 -1.4453  0.9157
  130Eth    Hcc 3402   1.538   1.322   8.305  2.7692 -0.8163 -0.9903
  130Eth    Hcc 3403   1.470   1.268   8.151  2.1840 -0.1096 -1.0117
  131Eth     Ho 3404   1.665   1.031   3.694  0.0738  1.1980 -0.5264
  131Eth     Oh 3405   1.758   1.026   3.681  0.0868 -0.3336  0.0141
  131Eth     Co 3406   1.805   0.941   3.787 -0.0973 -1.1787 -0.0124
  131Eth    Hco 3407   1.738   0.857   3.801 -3.1101  1.0904 -0.1832
  131Eth    Hco 3408   1.797   0.998   3.880 -0.0126  0.9050 -1.2436
  131Eth     Ch 3409   1.949   0.897   3.766 -0.4010 -0.5075 -0.3296
  131Eth    Hcc 3410   1.951   0.811   3.699  1.1843 -0.8957  0.2002
  131Eth    Hcc 3411   1.989   0.867   3.862 -2.0244 -0.6940  0.3094
  131Eth    Hcc 3412   2.001   0.974   3.709 -3.5080  1.6520 -0.4196
  132Eth     Ho 3413   0.604   3.258   3.056 -0.4174  1.7709 -0.5551
  132Eth     Oh 3414   0.680   3.265   3.000 -0.0297 -0.6556 -0.4104
  132Eth     Co 3415   0.672   3.175   2.889  0.6356 -0.3976 -0.1586
  132Eth    Hco 3416   0.715   3.076   2.905 -0.5775 -1.2036 -1.8056
  132Eth    Hco 3417   0.737   3.220   2.815  2.0392 -0.2321  1.1623
  132Eth     Ch 3418   0.529   3.148   2.848 -0.5517 -0.9128 -0.3457
  132Eth    Hcc 3419   0.469   3.238   2.839  0.9854 -0.0116 -1.9328
  132Eth    Hcc 3420   0.481   3.080   2.919 -0.1437 -1.4451 -0.5762
  132Eth    Hcc 3421   0.543   3.108   2.748  0.8273 -1.1372 -0.0737
  133Eth     Ho 3422   3.065   1.824   9.987  1.3108 -0.7007 -0.8070
  133Eth     Oh 3423   3.030   1.888   9.929  0.2221 -0.3713  0.1943
  133Eth     Co 3424   2.888   1.871   9.919  0.4988  0.6803  0.1867
  133Eth    Hco 3425   2.850   1.869  10.022 -0.0126 -0.0291 -0.0121
  133Eth    Hco 3426   2.866   1.788   9.852  0.8498  1.0643 -0.4100
  133Eth     Ch 3427   2.834   1.996   9.850 -0.2767 -0.3569 -0.4895
  133Eth    Hcc 3428   2.734   1.982   9.810 -1.0441 -2.4095  2.0818
  133Eth    Hcc 3429   2.898   2.023   9.765  2.5013  1.2881  2.0333
  133Eth    Hcc 3430   2.820   2.079   9.918 -2.1854 -1.6001  0.6651
  134Eth     Ho 3431   3.145   1.222   6.299 -0.4581  0.5557  3.3856
  134Eth     Oh 3432   3.139   1.313   6.277  0.3062 -0.2796 -0.7886
  134Eth     Co 3433   3.223   1.343   6.165 -1.1701  0.2818  0.9095
  134Eth    Hco 3434   3.264   1.260   6.107 -0.4518  2.0517 -1.1580
  134Eth    Hco 3435   3.315   1.382   6.208  0.3828 -0.3940 -1.6922
  134Eth     Ch 3436   3.162   1.452   6.071 -0.0540  0.5739  0.1335
  134Eth    Hcc 3437   3.089   1.420   5.997  1.3620  0.5704 -1.3067
  134Eth    Hcc 3438   3.250   1.468   6.009 -0.4486 -2.8630 -1.3923
  134Eth    Hcc 3439   3.127   1.536   6.131  0.3335 -0.3783  1.7275
  135Eth     Ho 3440   0.446   2.709   6.919 -0.0079 -2.4370  1.0795
  135Eth     Oh 3441   0.392   2.764   6.972 -0.1596 -0.9033 -0.6076
  135Eth     Co 3442   0.415   2.724   7.106 -0.2982  0.3923 -0.4364
  135Eth    Hco 3443   0.357   2.793   7.169  0.3768  1.5754 -1.0866
  135Eth    Hco 3444   0.519   2.748   7.128 -0.7372  1.2623  0.7473
  135Eth     Ch 3445   0.408   2.571   7.135  0.3556 -0.2933 -0.5341
  135Eth    Hcc 3446   0.489   2.519   7.083  1.2172  0.1557  0.3494
  135Eth    Hcc 3447   0.317   2.525   7.096 -0.1208  0.9448 -0.9269
  135Eth    Hcc 3448   0.411   2.554   7.242 -0.0626  0.3789 -0.4117
  136Eth     Ho 3449   1.577   0.554   8.686  0.5085 -0.4204 -0.5137
  136Eth     Oh 3450   1.561   0.582   8.775  0.2156 -0.3380 -0.5910
  136Eth     Co 3451   1.461   0.506   8.827  0.7199  0.4532 -0.4837
  136Eth    Hco 3452   1.486   0.400   8.828  3.1305  0.9889  0.6457
  136Eth    Hco 3453   1.376   0.526   8.762 -0.8304 -1.0753  1.0121
  136Eth     Ch 3454   1.435   0.552   8.968  0.2106  0.2645  0.4836
  136Eth    Hcc 3455   1.514   0.519   9.036  1.2986  0.9657 -0.4195
  136Eth    Hcc 3456   1.347   0.500   9.004 -0.0180  0.7142  0.5729
  136Eth    Hcc 3457   1.419   0.659   8.978 -0.9733  0.1761 -0.4041
  137Eth     Ho 3458   1.182   0.845   8.906  0.1707 -0.3215  0.0418
  137Eth     Oh 3459   1.164   0.844   8.999 -0.1879 -0.5128 -0.0299
  137Eth     Co 3460   1.148   0.976   9.053 -0.4776 -0.0076  0.2583
  137Eth    Hco 3461   1.065   1.027   9.005 -1.2585  0.9586  2.5721
  137Eth    Hco 3462   1.242   1.026   9.028 -0.4283 -1.1834 -2.0735
  137Eth     Ch 3463   1.119   0.985   9.204  0.4736  1.0273 -0.5745
  137Eth    Hcc 3464   1.109   1.088   9.235 -0.7839  0.7432 -0.0111
  137Eth    Hcc 3465   1.199   0.936   9.260 -1.1284 -0.5540  0.3720
  137Eth    Hcc 3466   1.027   0.932   9.228  1.7680 -1.4392 -0.8782
  138Eth     Ho 3467   2.813   2.703   9.629 -2.7034 -0.6822 -0.5105
  138Eth     Oh 3468   2.808   2.784   9.677  0.4148 -0.3146 -0.7309
  138Eth     Co 3469   2.877   2.755   9.798 -0.2951  0.1823 -0.3130
  138Eth    Hco 3470   2.921   2.850   9.830 -0.4052 -0.0675  0.6208
  138Eth    Hco 3471   2.949   2.676   9.776 -1.3820 -0.1295 -2.8470
  138Eth     Ch 3472   2.767   2.723   9.902  0.4397  0.4726 -0.9599
  138Eth    Hcc 3473   2.694   2.804   9.906 -0.1350 -0.0117 -1.4669
  138Eth    Hcc 3474   2.800   2.701  10.003 -1.9835  3.1451  0.4988
  138Eth    Hcc 3475   2.708   2.635   9.876 -0.6314  0.7294  0.5403
  139Eth     Ho 3476   2.378   3.444   8.098 -0.5875  0.6479  1.3030
  139Eth     Oh 3477   2.448   3.480   8.047 -1.0234  0.1164  0.2952
  139Eth     Co 3478   2.496   3.600   8.104 -0.0621 -0.3449 -0.5173
  139Eth    Hco 3479   2.521   3.585   8.209 -2.5125  2.4314  0.5392
  139Eth    Hco 3480   2.425   3.681   8.121 -0.1303 -0.4300 -0.3896
  139Eth     Ch 3481   2.605   3.657   8.021  0.1460 -0.5415 -0.5700
  139Eth    Hcc 3482   2.558   3.680   7.925  1.6564  2.7826 -0.6097
  139Eth    Hcc 3483   2.695   3.597   8.007  2.0379  1.8450  0.7944
  139Eth    Hcc 3484   2.646   3.756   8.044  2.7565 -1.6756 -0.1121
  140Eth     Ho 3485   2.909   2.638   2.948  0.9541 -0.5884  1.2028
  140Eth     Oh 3486   2.964   2.711   2.972  0.0770  0.4316  0.1408
  140Eth     Co 3487   3.054   2.681   3.068 -1.0503  0.3623 -0.3021
  140Eth    Hco 3488   3.059   2.572   3.068 -2.7491  0.2679 -0.1075
  140Eth    Hco 3489   2.998   2.715   3.156 -1.5799  2.6155 -1.4857
  140Eth     Ch 3490   3.192   2.746   3.052 -0.2615  0.4145  0.4622
  140Eth    Hcc 3491   3.259   2.709   3.130  0.0189 -1.0289 -0.4458
  140Eth    Hcc 3492   3.187   2.854   3.062 -2.6982  0.7689 -3.6326
  140Eth    Hcc 3493   3.224   2.734   2.949 -1.3890  1.1131  0.0177
  141Eth     Ho 3494   1.733   0.337   5.170 -0.5413  0.0463  0.4563
  141Eth     Oh 3495   1.787   0.399   5.215 -0.2046  0.0248  0.0868
  141Eth     Co 3496   1.909   0.338   5.243  0.1393 -0.1302  1.0681
  141Eth    Hco 3497   1.974   0.368   5.161 -1.9468 -1.7461 -1.2513
  141Eth    Hco 3498   1.897   0.230   5.234 -0.8799 -0.0246  1.1845
  141Eth     Ch 3499   1.954   0.379   5.377  0.0434 -0.2007  0.7216
  141Eth    Hcc 3500   1.886   0.345   5.454 -1.3297 -1.4956 -1.0235
  141Eth    Hcc 3501   1.968   0.487   5.386  0.2950 -0.1232 -0.4577
  141Eth    Hcc 3502   2.050   0.337   5.408  0.6844 -0.5407 -1.6058
  142Eth     Ho 3503   0.448   1.769   9.806 -0.7988  0.9767 -0.5442
  142Eth     Oh 3504   0.368   1.778   9.757 -0.4481  0.1068 -1.3099
  142Eth     Co 3505   0.258   1.763   9.848 -0.3290 -0.2320  0.3435
  142Eth    Hco 3506   0.281   1.820   9.937 -0.3397 -0.2883  0.3825
  142Eth    Hco 3507   0.244   1.659   9.875  2.5695 -0.7040  0.2514
  142Eth     Ch 3508   0.132   1.819   9.781 -0.3069  0.1356  0.5495
  142Eth    Hcc 3509   0.048   1.791   9.844 -0.9769  1.7384  0.3922
  142Eth    Hcc 3510   0.108   1.780   9.682 -0.7502  0.3847  0.5590
  142Eth    Hcc 3511   0.133   1.928   9.778  1.0563  0.2853  3.6277
  143Eth     Ho 3512   2.866   0.219   4.036 -0.7895 -0.0676  0.0768
  143Eth     Oh 3513   2.924   0.205   4.108 -0.4537  0.2392 -0.1339
  143Eth     Co 3514   2.845   0.179   4.218  0.7598  0.3450  0.1478
  143Eth    Hco 3515   2.787   0.087   4.221 -3.3295  2.8182  1.3050
  143Eth    Hco 3516   2.771   0.259   4.216  0.3789 -0.0071 -0.1587
  143Eth     Ch 3517   2.923   0.196   4.348 -0.5614 -0.2919  0.4522
  143Eth    Hcc 3518   2.864   0.183   4.439 -4.2014  1.4490 -1.5103
  143Eth    Hcc 3519   2.967   0.296   4.354 -0.1647 -0.5034  1.0811
  143Eth    Hcc 3520   3.011   0.132   4.355  2.4123  3.7321  2.0716
  144Eth     Ho 3521   0.650   2.290   8.262 -1.1842 -2.0404  0.8762
  144Eth     Oh 3522   0.652   2.230   8.190  0.0141 -0.5515 -0.3523
  144Eth     Co 3523   0.758   2.267   8.107 -0.2476  0.4347 -0.1931
  144Eth    Hco 3524   0.843   2.278   8.175  0.1431 -1.2976 -0.3724
  144Eth    Hco 3525   0.735   2.360   8.056 -1.0606  1.3259  1.7538
  144Eth     Ch 3526   0.777   2.167   7.996 -0.3806  0.4010 -0.1803
  144Eth    Hcc 3527   0.866   2.194   7.939 -0.1457 -2.1200 -1.0476
  144Eth    Hcc 3528   0.692   2.180   7.928  0.3873  0.0682 -1.2100
  144Eth    Hcc 3529   0.798   2.063   8.021 -0.9963  0.1715 -0.5893
  145Eth     Ho 3530   0.783   3.305   6.882  2.4613  1.1048  1.0629
  145Eth     Oh 3531   0.729   3.381   6.895 -0.7726 -0.8833 -0.1588
  145Eth     Co 3532   0.766   3.469   6.788 -0.7672  0.2491  0.0276
  145Eth    Hco 3533   0.787   3.417   6.694  0.3938 -0.9412  0.9275
  145Eth    Hco 3534   0.863   3.510   6.815 -0.5336  0.7955 -1.5604
  145Eth     Ch 3535   0.669   3.591   6.774 -0.5760  0.0733  0.2737
  145Eth    Hcc 3536   0.567   3.567   6.743 -1.3754  3.2854  0.1956
  145Eth    Hcc 3537   0.706   3.668   6.706 -1.3703  0.3589  0.1540
  145Eth    Hcc 3538   0.648   3.647   6.865 -3.7756  1.1858 -1.0690
  146Eth     Ho 3539   1.704   3.194   1.734  0.0698 -2.8239 -1.0961
  146Eth     Oh 3540   1.642   3.205   1.664 -0.4799 -0.3178 -0.2725
  146Eth     Co 3541   1.603   3.073   1.621 -0.2373 -0.3219  0.0822
  146Eth    Hco 3542   1.568   3.009   1.702  1.0698 -0.6552  0.3915
  146Eth    Hco 3543   1.687   3.027   1.570 -0.1226  0.4383 -0.4242
  146Eth     Ch 3544   1.485   3.103   1.518  0.0206  0.9768 -0.1625
  146Eth    Hcc 3545   1.447   3.011   1.474 -1.5883  1.8127 -0.5389
  146Eth    Hcc 3546   1.523   3.175   1.446 -0.6055  1.2166 -0.2561
  146Eth    Hcc 3547   1.401   3.149   1.571  0.0274  0.4061  0.3526
  147Eth     Ho 3548   0.001   2.414   5.513  0.2615 -0.8668 -0.5557
  147Eth     Oh 3549  -0.054   2.355   5.562  0.3486 -0.3034  0.2262
  147Eth     Co 3550   0.028   2.255   5.622 -0.5401  0.0698 -0.1994
  147Eth    Hco 3551  -0.026   2.223   5.711  0.0892  1.6116  0.7795
  147Eth    Hco 3552   0.113   2.314   5.657 -0.1311 -0.9553  0.5745
  147Eth     Ch 3553   0.065   2.136   5.524  0.3850 -0.4023  0.0909
  147Eth    Hcc 3554  -0.032   2.118   5.477  0.6360 -2.5373  0.3156
  147Eth    Hcc 3555   0.088   2.048   5.584 -0.0921 -0.4004  0.2767
  147Eth    Hcc 3556   0.133   2.163   5.443 -1.1682  1.2557 -0.6983
  148Eth     Ho 3557   1.286   2.700   8.967  1.0036  0.9387  1.4892
  148Eth     Oh 3558   1.285   2.609   8.992  0.0992  0.5789  0.1879
  148Eth     Co 3559   1.300   2.518   8.885  0.8925 -0.0139  0.4888
  148Eth    Hco 3560   1.398   2.521   8.839  0.6221 -0.6785 -0.1395
  148Eth    Hco 3561   1.220   2.552   8.819  0.4024  0.4346  1.3023
  148Eth     Ch 3562   1.270   2.364   8.916  0.1765  0.2173  0.2285
  148Eth    Hcc 3563   1.168   2.354   8.953 -0.3947 -1.6115 -1.7203
  148Eth    Hcc 3564   1.339   2.311   8.980 -1.8427 -1.3793  1.1217
  148Eth    Hcc 3565   1.280   2.311   8.821 -0.3287 -1.5515  1.1558
  149Eth     Ho 3566   1.751   3.045   4.092  0.1550 -0.3085  0.3790
  149Eth     Oh 3567   1.818   2.981   4.106  1.1758  0.6971  0.2611
  149Eth     Co 3568   1.950   3.031   4.096 -0.4637 -0.4330  0.3677
  149Eth    Hco 3569   2.001   3.031   4.193 -0.5256  3.1109  0.4648
  149Eth    Hco 3570   1.949   3.134   4.062 -0.1632 -1.4310 -2.8569
  149Eth     Ch 3571   2.047   2.947   4.008  0.5605 -0.1978  0.4536
  149Eth    Hcc 3572   2.024   2.952   3.902  0.3357  0.8892  0.5502
  149Eth    Hcc 3573   2.045   2.848   4.054  2.7473 -0.7776 -0.6658
  149Eth    Hcc 3574   2.148   2.986   4.020  0.4840  0.6361 -1.4509
  150Eth     Ho 3575   2.817   0.120   2.170 -3.3897 -0.6344  0.5946
  150Eth     Oh 3576   2.841   0.029   2.171 -0.1560  0.1585 -0.1223
  150Eth     Co 3577   2.927  -0.007   2.057  0.6403  0.7270 -0.1770
  150Eth    Hco 3578   3.031   0.024   2.068  0.1683  1.8590  1.2156
  150Eth    Hco 3579   2.904   0.039   1.960  1.0698 -0.1912 -0.7156
  150Eth     Ch 3580   2.934  -0.162   2.051  0.2228  0.4338  0.1150
  150Eth    Hcc 3581   2.954  -0.210   2.147 -1.0098  0.1562  0.2454
  150Eth    Hcc 3582   3.004  -0.211   1.983  0.9115  0.4500  0.8139
  150Eth    Hcc 3583   2.830  -0.190   2.032 -0.0307  1.5774 -0.1867
  151Eth     Ho 3584   1.159   0.142   1.858  0.0023  0.5492 -0.2333
  151Eth     Oh 3585   1.084   0.154   1.802 -0.1495  0.4725 -0.0474
  151Eth     Co 3586   0.997   0.050   1.818  0.4866  0.4499 -0.2361
  151Eth    Hco 3587   0.990   0.044   1.927  1.0528  1.3240 -0.1489
  151Eth    Hco 3588   1.048  -0.038   1.778  0.3987  1.3143 -2.3062
  151Eth     Ch 3589   0.865   0.079   1.744 -0.0105  0.5966 -0.0870
  151Eth    Hcc 3590   0.783   0.014   1.772  0.3817  0.0446 -0.2063
  151Eth    Hcc 3591   0.867   0.093   1.636  0.0299  1.4984  0.0254
  151Eth    Hcc 3592   0.821   0.173   1.779 -1.1154  0.0259  0.0624
  152Sol     OW 3593   2.832   1.600   6.075  0.3630 -0.7932 -0.5108
  152Sol     HW 3594   2.750   1.645   6.057  1.0950  0.3790 -0.9991
  152Sol     HW 3595   2.835   1.528   6.013 -0.3768 -0.9428 -0.3710
  152Sol     MW 3596   2.825   1.598   6.068  0.6540  0.3326 -0.2817
  153Sol     OW 3597   0.331   0.244   3.188 -0.3031 -0.3233 -0.2587
  153Sol     HW 3598   0.385   0.176   3.229 -1.6245 -1.4710 -0.3942
  153Sol     HW 3599   0.354   0.241   3.095  0.8210  0.5378 -0.0236
  153Sol     MW 3600   0.338   0.237   3.184  0.4391  0.1380  0.2133
  154Sol     OW 3601   1.659   2.961   4.641  0.2330 -0.6267 -0.4647
  154Sol     HW 3602   1.579   2.949   4.590 -0.5347  2.7199 -0.1450
  154Sol     HW 3603   1.729   2.929   4.584 -0.9719 -0.2250 -2.1923
  154Sol     MW 3604   1.658   2.957   4.631  0.2554 -0.1680 -0.1137
  155Sol     OW 3605   1.887   1.264   9.158  0.2520 -0.0123 -0.0038
  155Sol     HW 3606   1.842   1.321   9.095 -0.3159  0.5351  0.8877
  155Sol     HW 3607   1.980   1.276   9.139  0.0864  0.2187 -0.6828
  155Sol     MW 3608   1.891   1.271   9.151  0.4924  0.5397  0.4525
  156Sol     OW 3609   3.200   0.254   4.597  0.1666 -0.2925  0.2395
  156Sol     HW 3610   3.225   0.171   4.558  0.5610  0.5350 -1.3075
  156Sol     HW 3611   3.179   0.233   4.688  2.4237 -1.7049  0.4558
  156Sol     MW 3612   3.200   0.245   4.602 -0.7275 -0.3464  0.3219
  157Sol     OW 3613   0.176   2.570   8.060  0.0058 -0.3276 -0.3446
  157Sol     HW 3614   0.216   2.577   7.973 -0.4042 -2.0003 -0.6747
  157Sol     HW 3615   0.248   2.547   8.118 -0.1654 -1.7673 -0.6801
  157Sol     MW 3616   0.186   2.569   8.058  0.0982 -0.1245 -0.9565
  158Sol     OW 3617   2.887   1.314   1.746  0.1391 -0.0196 -0.3316
  158Sol     HW 3618   2.942   1.307   1.824  0.1265 -0.2988 -0.3457
  158Sol     HW 3619   2.946   1.346   1.678  0.0640  0.5702 -0.1206
  158Sol     MW 3620   2.897   1.316   1.747  0.0254  0.1277 -0.2754
  159Sol     OW 3621   2.334   0.807   3.589 -0.1985  0.3699  0.1617
  159Sol     HW 3622   2.409   0.778   3.538 -1.0429  0.3620 -1.0896
  159Sol     HW 3623   2.259   0.790   3.533 -0.8986  2.9802  0.2513
  159Sol     MW 3624   2.334   0.803   3.579 -0.5597 -0.4397  0.1505
  160Sol     OW 3625   2.610   2.505   3.892 -0.1262 -0.2175  0.5783
  160Sol     HW 3626   2.563   2.589   3.889 -1.9690 -1.2619 -1.1462
  160Sol     HW 3627   2.625   2.489   3.985 -0.7101  1.5108  0.9897
  160Sol     MW 3628   2.607   2.511   3.900  0.2548  0.5157 -0.3526
  161Sol     OW 3629   3.113   0.807   8.511  0.3071  0.4001  0.1792
  161Sol     HW 3630   3.208   0.807   8.516  0.2978 -0.3204  0.4466
  161Sol     HW 3631   3.086   0.730   8.563 -0.3241 -0.5319 -1.4880
  161Sol     MW 3632   3.119   0.800   8.516  0.2589 -0.0826  0.0641
  162Sol     OW 3633   2.796   1.045   4.944  0.2511  0.0747  0.2382
  162Sol     HW 3634   2.751   1.129   4.952 -1.5115 -0.9786  1.7628
  162Sol     HW 3635   2.878   1.066   4.898 -0.1087  2.6264  0.6770
  162Sol     MW 3636   2.800   1.055   4.941  0.1121 -0.5981  0.4245
  163Sol     OW 3637   2.213   2.649   4.470  0.6874  0.2977  0.2919
  163Sol     HW 3638   2.123   2.618   4.481  0.6193  0.1657 -0.5968
  163Sol     HW 3639   2.230   2.640   4.377  1.4335  0.8536  0.3699
  163Sol     MW 3640   2.206   2.646   4.463 -0.4509 -0.3524  0.3372
  164Sol     OW 3641   0.202   2.784   4.505 -0.3113  0.8680  0.2307
  164Sol     HW 3642   0.148   2.862   4.515 -3.1563 -1.0829  0.6337
  164Sol     HW 3643   0.171   2.724   4.573 -1.1804 -2.2393 -2.7512
  164Sol     MW 3644   0.194   2.785   4.512 -0.1155 -0.7408 -0.2679
  165Sol     OW 3645   1.997   0.976   9.818  0.2914  0.0285  0.3366
  165Sol     HW 3646   2.022   1.065   9.844  2.3522 -0.2883 -0.4450
  165Sol     HW 3647   1.957   0.939   9.896 -0.0315  1.4352  0.8638
  165Sol     MW 3648   1.996   0.981   9.827 -0.7792  0.5310 -0.3075
  166Sol     OW 3649   1.069   1.645   6.052  0.3867  0.1990  0.1635
  166Sol     HW 3650   1.089   1.605   6.136 -1.4270 -1.5871 -0.2151
  166Sol     HW 3651   1.147   1.628   5.998  1.1214  0.4328  1.1380
  166Sol     MW 3652   1.078   1.640   6.055 -0.9450 -0.4836  0.7987
  167Sol     OW 3653   1.537   2.151   6.909 -0.4690  0.0349 -0.0406
  167Sol     HW 3654   1.533   2.231   6.961 -1.2278 -1.0544  1.6142
  167Sol     HW 3655   1.527   2.080   6.973 -0.0237 -1.3762 -1.5043
  167Sol     MW 3656   1.535   2.151   6.919  0.2336  0.3514  0.3362
  168Sol     OW 3657   0.696   2.704   7.311 -0.5887 -0.3505  0.4943
  168Sol     HW 3658   0.779   2.741   7.340 -0.7049 -1.3849  2.2277
  168Sol     HW 3659   0.717   2.658   7.230  0.6754 -1.1410  1.2491
  168Sol     MW 3660   0.705   2.703   7.306  0.6625  0.1304 -0.5871
  169Sol     OW 3661   1.007   0.214   8.428  0.2629 -0.4967 -0.0138
  169Sol     HW 3662   0.987   0.213   8.521  0.4982 -1.2261  0.0292
  169Sol     HW 3663   1.051   0.131   8.411 -0.5505 -0.7631 -0.9394
  169Sol     MW 3664   1.009   0.206   8.435  0.2798  0.2149 -0.0979
  170Sol     OW 3665   2.698   1.589   5.618  0.4168  0.4584 -0.3220
  170Sol     HW 3666   2.765   1.531   5.582  0.3974  0.6981 -0.7464
  170Sol     HW 3667   2.694   1.662   5.556 -1.3895 -0.3207 -1.1487
  170Sol     MW 3668   2.704   1.591   5.609  0.3424  0.2061 -0.1234
  171Sol     OW 3669   0.650   1.719   3.179  0.1341 -0.6447 -0.7405
  171Sol     HW 3670   0.742   1.746   3.190  0.0335 -0.3438 -0.6333
  171Sol     HW 3671   0.610   1.737   3.264 -0.9488  2.8367 -1.8822
  171Sol     MW 3672   0.655   1.723   3.188  0.4507  0.0900  0.6705
  172Sol     OW 3673   1.096   1.370   9.129  0.6286 -0.0825  0.0745
  172Sol     HW 3674   1.024   1.307   9.132  0.7328 -0.4270 -3.0656
  172Sol     HW 3675   1.154   1.343   9.200 -2.8366  0.9133  3.4030
  172Sol     MW 3676   1.095   1.362   9.136  0.1824 -0.4725  0.2835
  173Sol     OW 3677   3.241   1.453   8.973  0.1710 -0.4379 -0.0655
  173Sol     HW 3678   3.157   1.454   8.925 -1.3596 -0.6215  2.5413
  173Sol     HW 3679   3.300   1.405   8.915 -1.6425 -0.7080 -1.7633
  173Sol     MW 3680   3.239   1.448   8.963 -0.0212  1.4845 -0.5407
  174Sol     OW 3681   3.189   0.609   7.768  0.2447 -0.1076  0.0469
  174Sol     HW 3682   3.251   0.558   7.715  0.1288 -0.3523  0.1430
  174Sol     HW 3683   3.106   0.602   7.720 -0.5360 -2.5983  1.6112
  174Sol     MW 3684   3.187   0.604   7.759  0.0028  0.5207 -0.0003
  175Sol     OW 3685   1.706   1.798   4.766 -0.4702  0.6198  0.8868
  175Sol     HW 3686   1.618   1.769   4.743 -0.0981  1.0021 -1.1185
  175Sol     HW 3687   1.711   1.888   4.735  0.9510  0.2761  0.0910
  175Sol     MW 3688   1.699   1.803   4.761 -0.0367 -1.3209 -0.0440
  176Sol     OW 3689   2.288   1.069   7.743  0.1786 -0.8232 -0.5160
  176Sol     HW 3690   2.337   1.064   7.825 -0.0717  0.9688 -0.2242
  176Sol     HW 3691   2.214   1.009   7.755 -0.5187  0.3073  1.0486
  176Sol     MW 3692   2.285   1.063   7.752  0.6283 -0.2714  0.0833
  177Sol     OW 3693   0.901   0.766   9.405  0.1796 -0.6530  0.0303
  177Sol     HW 3694   0.973   0.759   9.342  0.5711 -0.9072  0.4972
  177Sol     HW 3695   0.868   0.677   9.415  0.0225 -0.5910  0.0695
  177Sol     MW 3696   0.905   0.757   9.400 -0.1710  0.0890  0.8148
  178Sol     OW 3697   2.561   1.308   8.657 -0.4569 -0.0141  0.0015
  178Sol     HW 3698   2.475   1.271   8.639 -0.3306 -1.2038  1.7083
  178Sol     HW 3699   2.601   1.246   8.718  0.9272  1.4253  0.5909
  178Sol     MW 3700   2.557   1.299   8.661 -0.2541 -0.2825 -0.2127
  179Sol     OW 3701   0.182   0.943   2.293 -0.4886 -0.5873  0.1413
  179Sol     HW 3702   0.173   1.022   2.345 -3.1707 -0.0887 -0.9664
  179Sol     HW 3703   0.098   0.935   2.247 -0.5974 -4.5056  0.8248
  179Sol     MW 3704   0.174   0.949   2.293  0.1142  0.6519 -0.2357
  180Sol     OW 3705   1.516   1.841   6.126 -0.0429  0.1779 -0.6293
  180Sol     HW 3706   1.445   1.851   6.190  1.9587 -0.0214  1.6585
  180Sol     HW 3707   1.528   1.929   6.090  0.1677  0.7063  0.7201
  180Sol     MW 3708   1.510   1.850   6.129 -0.0542  0.1124  0.4627
  181Sol     OW 3709   1.336   1.939   3.242 -0.3332  0.1997  0.7464
  181Sol     HW 3710   1.406   1.875   3.229  0.2937  0.6369  1.8620
  181Sol     HW 3711   1.316   1.972   3.154 -0.7988 -1.6593  0.1352
  181Sol     MW 3712   1.341   1.936   3.233  0.4030  0.3515  0.0323
  182Sol     OW 3713   0.459   0.579   2.314 -0.6747 -0.1835  1.1959
  182Sol     HW 3714   0.478   0.641   2.243  0.0316 -0.1934  1.3752
  182Sol     HW 3715   0.367   0.594   2.334 -0.9658 -0.3951  0.0608
  182Sol     MW 3716   0.453   0.586   2.309  0.4631  0.3086 -0.5944
  183Sol     OW 3717   1.265   2.929   4.689  0.6334 -0.0627 -1.1625
  183Sol     HW 3718   1.178   2.895   4.669  0.5504 -0.2810 -0.4520
  183Sol     HW 3719   1.274   3.006   4.633 -1.2117  1.7155  0.8486
  183Sol     MW 3720   1.258   2.933   4.682 -0.1463 -0.0159 -0.2343
  184Sol     OW 3721   1.510   0.324   8.230  0.2679 -0.0683 -0.2180
  184Sol     HW 3722   1.570   0.398   8.233 -0.5841  0.6165  0.2778
  184Sol     HW 3723   1.471   0.321   8.318  2.0185 -2.5661  0.5336
  184Sol     MW 3724   1.512   0.330   8.239 -0.1600  0.8168 -0.1721
  185Sol     OW 3725   1.544   2.417   9.386  0.3950 -0.2829  0.3611
  185Sol     HW 3726   1.526   2.418   9.292  0.5004 -1.3804  0.3260
  185Sol     HW 3727   1.519   2.329   9.414  0.9994 -0.1733  1.2400
  185Sol     MW 3728   1.540   2.410   9.380  0.1985 -0.9690  0.6330
  186Sol     OW 3729   2.942   1.222   9.129  0.0702  0.1283 -0.0666
  186Sol     HW 3730   2.868   1.268   9.168 -0.4705 -0.2875 -0.5847
  186Sol     HW 3731   2.940   1.135   9.169  0.7750  0.3737  0.5214
  186Sol     MW 3732   2.935   1.218   9.136  0.0140 -0.1784 -1.1519
  187Sol     OW 3733   1.390   2.431   1.929  0.2352 -0.1360  0.8973
  187Sol     HW 3734   1.358   2.515   1.894  0.5505 -1.5121 -2.8130
  187Sol     HW 3735   1.315   2.396   1.977 -0.7331  1.0579  0.2876
  187Sol     MW 3736   1.380   2.436   1.931 -0.2536  0.3336 -0.3898
  188Sol     OW 3737   2.124   0.035   5.174 -0.8739 -0.6894  0.4632
  188Sol     HW 3738   2.158   0.118   5.206  1.8905 -2.1069  1.3675
  188Sol     HW 3739   2.109   0.049   5.080 -1.6160  1.1816  0.8626
  188Sol     MW 3740   2.126   0.043   5.168  0.0977 -0.1225 -0.8650
  189Sol     OW 3741   1.690   1.353   5.355 -0.3248 -0.6187  0.1875
  189Sol     HW 3742   1.750   1.292   5.399  1.1754  0.7494  0.0687
  189Sol     HW 3743   1.701   1.435   5.402 -0.6640  0.1687 -1.0907
  189Sol     MW 3744   1.696   1.355   5.363 -0.9420 -0.0987  0.0743
  190Sol     OW 3745   1.944   2.575   1.400 -0.4580  0.5308 -0.1083
  190Sol     HW 3746   1.912   2.656   1.438  1.5524  1.1888  0.2674
  190Sol     HW 3747   1.991   2.603   1.321  0.7133 -0.1904  0.3206
  190Sol     MW 3748   1.945   2.585   1.396 -0.4841 -1.0888  0.2558
  191Sol     OW 3749   1.328   1.775   7.571 -0.3016  0.0329  0.1408
  191Sol     HW 3750   1.404   1.825   7.599  0.2335 -0.6468 -0.0960
  191Sol     HW 3751   1.359   1.722   7.498 -0.3886 -1.9521  1.4954
  191Sol     MW 3752   1.337   1.775   7.567  0.0194 -0.4872 -0.3816
  192Sol     OW 3753   2.309   2.229   7.981 -0.2680  0.1441  0.3601
  192Sol     HW 3754   2.368   2.249   7.909 -2.1056 -0.4490 -1.3447
  192Sol     HW 3755   2.249   2.304   7.984  0.3459  0.5973  1.8850
  192Sol     MW 3756   2.309   2.238   7.975  0.2643 -0.8581 -0.4643
  193Sol     OW 3757   0.514   2.160   1.753  0.3616 -0.0062  0.4266
  193Sol     HW 3758   0.574   2.214   1.804  2.3841 -0.3826 -1.5306
  193Sol     HW 3759   0.476   2.099   1.818 -0.6158  2.5205  2.3055
  193Sol     MW 3760   0.516   2.159   1.764 -0.2364  0.0883  0.0111
  194Sol     OW 3761   1.987   0.676   5.940 -0.0745 -0.0233  0.0596
  194Sol     HW 3762   1.947   0.738   5.880  2.0785  1.0480 -0.2960
  194Sol     HW 3763   2.011   0.601   5.886  0.8508  0.4687 -0.2045
  194Sol     MW 3764   1.985   0.675   5.930 -0.3986  0.1384 -0.0385
  195Sol     OW 3765   2.014   1.401   1.352  0.4768  0.0203  0.2397
  195Sol     HW 3766   2.074   1.377   1.422  1.4199  0.5688 -0.3551
  195Sol     HW 3767   1.960   1.471   1.389  0.2231 -0.4574  0.7731
  195Sol     MW 3768   2.015   1.405   1.361  0.6239 -0.4414 -0.5360
  196Sol     OW 3769   3.278   2.274   3.393  0.1990  0.5121  0.0975
  196Sol     HW 3770   3.226   2.302   3.468 -2.3693  0.3694 -1.5571
  196Sol     HW 3771   3.259   2.180   3.384 -2.2299  1.1829 -2.6921
  196Sol     MW 3772   3.272   2.268   3.399 -0.1577  0.3204 -0.6815
  197Sol     OW 3773   0.878   2.834   9.098 -0.4237 -0.4526 -0.0755
  197Sol     HW 3774   0.900   2.750   9.139  0.5544 -0.1430  0.0458
  197Sol     HW 3775   0.924   2.831   9.014  1.7219  1.0231  1.0086
  197Sol     MW 3776   0.884   2.826   9.094  0.1106  0.4876 -0.4043
  198Sol     OW 3777   3.092   0.800   8.236 -0.2207 -0.7948 -0.2528
  198Sol     HW 3778   3.078   0.778   8.328 -0.0949  1.6709  0.3877
  198Sol     HW 3779   3.009   0.838   8.207  1.0174  2.3515  0.0854
  198Sol     MW 3780   3.084   0.802   8.242  0.2991  0.5404 -0.0540
  199Sol     OW 3781   0.487   3.387   8.740 -0.1875 -0.3903  0.1899
  199Sol     HW 3782   0.410   3.335   8.762  0.6920 -1.3884  0.9367
  199Sol     HW 3783   0.498   3.374   8.646  0.3821 -2.0961  0.4605
  199Sol     MW 3784   0.481   3.381   8.733  0.1458 -0.4009 -0.1087
  200Sol     OW 3785   1.514   1.973   7.611  0.1313  0.0297 -1.0286
  200Sol     HW 3786   1.534   2.028   7.536 -1.5695  0.2481 -1.3228
  200Sol     HW 3787   1.471   2.031   7.674  1.0041 -0.2815 -0.1186
  200Sol     MW 3788   1.512   1.983   7.610  0.2212  0.0141 -0.5576
  201Sol     OW 3789   2.086   2.662   8.812 -0.3947 -0.4541  0.4876
  201Sol     HW 3790   2.153   2.720   8.776 -0.4148 -0.7202  0.0233
  201Sol     HW 3791   2.068   2.599   8.742 -0.7616 -0.6945  0.7964
  201Sol     MW 3792   2.090   2.662   8.803  0.2850  0.1896  0.7298
  202Sol     OW 3793   2.059   0.915   7.849 -0.3116 -0.3659 -0.2798
  202Sol     HW 3794   2.069   0.968   7.928  0.5705 -0.1979 -0.4937
  202Sol     HW 3795   2.064   0.825   7.881 -1.2310 -0.3190  0.0101
  202Sol     MW 3796   2.061   0.912   7.859  0.7358  0.5190  0.2935
  203Sol     OW 3797   2.905   2.634   2.497 -0.0015  0.2298 -0.1363
  203Sol     HW 3798   2.831   2.578   2.476 -0.3164  0.9082 -0.8578
  203Sol     HW 3799   2.874   2.723   2.478  1.1606  0.4753 -0.9524
  203Sol     MW 3800   2.896   2.637   2.493 -0.0376  0.6232 -0.2674
  204Sol     OW 3801   1.437   1.034   1.537  0.0574 -0.1423 -0.7064
  204Sol     HW 3802   1.522   1.004   1.504 -0.2692 -0.2170 -1.4873
  204Sol     HW 3803   1.431   0.996   1.624  2.2594  2.5166  0.6674
  204Sol     MW 3804   1.444   1.028   1.542 -0.4284  0.3576 -0.5454
  205Sol     OW 3805   0.671   2.919   6.233 -0.0375 -0.2401 -0.4332
  205Sol     HW 3806   0.589   2.965   6.252 -0.4541 -1.7451  1.5749
  205Sol     HW 3807   0.739   2.986   6.241 -0.9347  0.7033 -0.6502
  205Sol     MW 3808   0.669   2.929   6.235  0.1867 -0.2390 -0.9298
  206Sol     OW 3809   2.122   1.569   3.910 -0.1025  0.5485 -0.2017
  206Sol     HW 3810   2.176   1.490   3.918 -1.2893 -0.1849  0.7398
  206Sol     HW 3811   2.185   1.640   3.898  1.0362 -0.3954  0.1241
  206Sol     MW 3812   2.133   1.568   3.910  0.3937  0.0091 -0.4307
  207Sol     OW 3813   1.536   1.611   2.211 -0.4894 -0.4281 -0.9066
  207Sol     HW 3814   1.582   1.656   2.282 -0.6810  0.1818 -1.1650
  207Sol     HW 3815   1.606   1.569   2.161 -0.1827  0.5704 -1.3512
  207Sol     MW 3816   1.547   1.612   2.213  0.2609 -0.3564  0.3479
  208Sol     OW 3817   0.060   1.925   2.566  0.1319 -0.1716  0.4946
  208Sol     HW 3818   0.077   1.967   2.651  2.0351  1.2355 -0.5568
  208Sol     HW 3819  -0.009   1.978   2.527 -0.1675 -0.3377  0.7844
  208Sol     MW 3820   0.055   1.933   2.570  0.0663 -0.3942 -0.3911
  209Sol     OW 3821   2.448   0.932   9.487 -0.0324 -0.3200 -0.3367
  209Sol     HW 3822   2.479   1.004   9.543  1.2205 -1.0980 -0.0079
  209Sol     HW 3823   2.490   0.947   9.402 -1.4851  0.5413 -0.9173
  209Sol     MW 3824   2.454   0.940   9.484  0.9753 -0.5273  0.6801
  210Sol     OW 3825   0.347   2.733   5.112  0.3282  0.3554  0.2987
  210Sol     HW 3826   0.383   2.806   5.062 -0.1133  1.9322  2.2487
  210Sol     HW 3827   0.424   2.682   5.138  0.6109 -0.1149 -1.3559
  210Sol     MW 3828   0.357   2.735   5.110  0.5684  0.1904  1.3709
  211Sol     OW 3829   2.164   2.698   1.825 -0.2568  0.2897  0.4027
  211Sol     HW 3830   2.226   2.658   1.764  0.6419  2.2642 -0.0284
  211Sol     HW 3831   2.117   2.624   1.864  0.3840 -1.0916 -1.3721
  211Sol     MW 3832   2.165   2.688   1.823 -0.1881  1.1889 -0.3262
  212Sol     OW 3833   2.036   0.841   9.368 -0.2570  0.1867  0.1476
  212Sol     HW 3834   2.103   0.906   9.391 -0.4879 -0.1601  1.8137
  212Sol     HW 3835   1.988   0.882   9.296  1.7609  0.4206 -1.1198
  212Sol     MW 3836   2.038   0.851   9.363 -0.3244 -0.2927  0.9986
  213Sol     OW 3837   2.610   0.588   7.573  1.1099 -0.6339  0.1851
  213Sol     HW 3838   2.526   0.573   7.529  0.7975 -1.1923  0.9696
  213Sol     HW 3839   2.601   0.543   7.657  1.8517  0.1019  0.6554
  213Sol     MW 3840   2.601   0.582   7.577 -0.1733  0.5644  0.4823
  214Sol     OW 3841   1.487   0.012   9.617  0.1417  0.2014 -0.2487
  214Sol     HW 3842   1.482  -0.079   9.648  0.9802 -0.4880 -2.0691
  214Sol     HW 3843   1.524   0.060   9.691  1.5643 -1.3054  0.0532
  214Sol     MW 3844   1.490   0.008   9.626 -0.0160  1.2404  0.0647
  215Sol     OW 3845   0.241   2.526   7.462  0.3734  0.1180 -0.1942
  215Sol     HW 3846   0.200   2.603   7.501  0.1719  0.9590 -1.9990
  215Sol     HW 3847   0.333   2.533   7.485  0.1275  0.1338  0.8325
  215Sol     MW 3848   0.245   2.533   7.467  0.1998  0.4431  0.5753
  216Sol     OW 3849   2.926   2.675   7.422 -0.1042 -0.0854 -0.1870
  216Sol     HW 3850   2.973   2.627   7.490 -0.1229 -1.7021 -1.2660
  216Sol     HW 3851   2.993   2.731   7.382  0.2241 -0.1784  0.2281
  216Sol     MW 3852   2.936   2.676   7.424 -1.6209  0.1291 -0.6921
  217Sol     OW 3853   0.810   0.093   8.025 -0.3645 -0.6167 -0.5705
  217Sol     HW 3854   0.834   0.157   7.957 -0.0800 -0.5607 -0.4164
  217Sol     HW 3855   0.883   0.031   8.027 -1.0976 -1.5198 -1.4170
  217Sol     MW 3856   0.819   0.094   8.019  0.2255  0.4276 -0.0525
  218Sol     OW 3857   3.201   0.272   2.019 -0.2158  0.1249 -0.5069
  218Sol     HW 3858   3.261   0.203   2.050 -1.6525 -0.9898 -0.1299
  218Sol     HW 3859   3.192   0.255   1.925  1.3611  1.3337 -0.8981
  218Sol     MW 3860   3.206   0.264   2.013 -0.0307 -0.0138 -0.0060
  219Sol     OW 3861   1.451   1.879   6.994 -0.0265  0.4873 -0.1783
  219Sol     HW 3862   1.525   1.876   7.056 -1.0582  2.1428  1.1968
  219Sol     HW 3863   1.488   1.848   6.911  1.5433 -1.2053  1.1071
  219Sol     MW 3864   1.461   1.876   6.992  0.3082  0.9140  0.4682
  220Sol     OW 3865   1.250   3.347   4.530 -0.2223  0.5272  0.8543
  220Sol     HW 3866   1.206   3.292   4.465 -2.7150  2.0172  1.1934
  220Sol     HW 3867   1.240   3.299   4.612 -1.8037  1.1269  1.0337
  220Sol     MW 3868   1.245   3.338   4.531  0.1844  0.2170 -1.1621
  221Sol     OW 3869   1.274   0.691   9.578  0.8441 -0.4990  0.2207
  221Sol     HW 3870   1.315   0.642   9.507  1.2093 -1.1161  0.8461
  221Sol     HW 3871   1.202   0.634   9.608 -0.4003  0.5107 -0.7778
  221Sol     MW 3872   1.271   0.682   9.574  0.2242 -0.3166 -0.1400
  222Sol     OW 3873   2.355   3.354   6.467 -0.0490 -0.6926 -0.4453
  222Sol     HW 3874   2.370   3.284   6.531 -1.2666  1.2833  2.0808
  222Sol     HW 3875   2.265   3.342   6.438 -0.2079 -0.2268 -0.1291
  222Sol     MW 3876   2.348   3.346   6.470 -0.2935  0.0801 -0.0375
  223Sol     OW 3877   2.571   1.557   9.482 -0.7321 -0.0123  0.2278
  223Sol     HW 3878   2.538   1.475   9.445  0.3585  0.3025 -1.4654
  223Sol     HW 3879   2.537   1.625   9.424  0.8824  0.4946 -0.1323
  223Sol     MW 3880   2.565   1.555   9.474 -0.5329 -0.2191  0.4492
  224Sol     OW 3881   1.773   1.756   9.449  0.3768 -0.1092 -0.4758
  224Sol     HW 3882   1.718   1.744   9.526 -1.3246  0.2358 -1.5994
  224Sol     HW 3883   1.846   1.810   9.479 -1.1321  1.4158  0.5270
  224Sol     MW 3884   1.774   1.760   9.458 -0.2138 -0.2814  0.6942
  225Sol     OW 3885   0.542   3.340   4.255 -0.0861  0.1103  0.4133
  225Sol     HW 3886   0.484   3.295   4.193 -0.1607 -0.7254  1.0821
  225Sol     HW 3887   0.483   3.370   4.325 -0.0075  1.0705  0.0692
  225Sol     MW 3888   0.531   3.338   4.256  0.2282 -0.8506  0.0945
  226Sol     OW 3889   0.595   2.503   9.709 -0.1651 -0.1881 -0.3303
  226Sol     HW 3890   0.538   2.533   9.779  0.5452  0.4308 -0.0068
  226Sol     HW 3891   0.592   2.573   9.643 -2.3304 -1.6261 -1.8095
  226Sol     MW 3892   0.590   2.512   9.709 -0.9009  0.3836  0.8990
  227Sol     OW 3893   2.860   0.563   2.625  0.1089 -0.4433 -0.1487
  227Sol     HW 3894   2.929   0.543   2.562 -0.3450 -2.1419 -0.1235
  227Sol     HW 3895   2.792   0.499   2.608 -2.0478  1.9887 -1.0146
  227Sol     MW 3896   2.860   0.556   2.618  0.6030 -0.1283 -0.0616
  228Sol     OW 3897   2.393   3.444   5.824  0.4661  0.1001  0.1145
  228Sol     HW 3898   2.352   3.471   5.906  1.2267  1.3344  0.1096
  228Sol     HW 3899   2.487   3.451   5.841  0.6413 -0.4916 -0.5876
  228Sol     MW 3900   2.398   3.447   5.833 -0.3836 -0.4606 -0.8170
  229Sol     OW 3901   2.851   1.945   9.328  0.2847  0.4813 -0.3489
  229Sol     HW 3902   2.846   1.857   9.366  0.7391  0.8074  0.4748
  229Sol     HW 3903   2.798   2.000   9.386  2.0720  1.2455  0.5944
  229Sol     MW 3904   2.846   1.942   9.337  0.1378 -0.0924 -0.0830
  230Sol     OW 3905   1.276   1.451   6.525  0.1445 -0.5279 -0.0757
  230Sol     HW 3906   1.277   1.519   6.592 -3.0310  0.8363 -1.3137
  230Sol     HW 3907   1.235   1.376   6.567 -4.5353  1.2274 -1.1101
  230Sol     MW 3908   1.272   1.451   6.535 -0.3676 -0.2392  0.6344
  231Sol     OW 3909   0.440   2.216   7.473 -0.1435  0.1984  0.4951
  231Sol     HW 3910   0.470   2.154   7.407 -1.4975 -0.9432  0.9202
  231Sol     HW 3911   0.355   2.182   7.501 -1.5809  2.9880 -0.2650
  231Sol     MW 3912   0.435   2.208   7.469 -0.5968  0.0568  0.2244
  232Sol     OW 3913   1.101   1.314   3.776 -0.3412  0.4748 -0.2090
  232Sol     HW 3914   1.010   1.314   3.746 -0.2257 -2.2639 -0.7001
  232Sol     HW 3915   1.100   1.261   3.856  0.3156  3.0690  1.5697
  232Sol     MW 3916   1.092   1.309   3.781 -0.5280  0.2141 -0.3052
  233Sol     OW 3917   2.849   0.419   8.186 -0.2133 -0.1728 -0.3769
  233Sol     HW 3918   2.813   0.507   8.189  1.3261  0.4483  0.3103
  233Sol     HW 3919   2.847   0.389   8.277 -0.5187 -0.7562 -0.5738
  233Sol     MW 3920   2.845   0.424   8.194 -0.5406  0.8434 -0.2610
  234Sol     OW 3921   0.756   1.920   4.348 -0.3203 -0.1415  0.3191
  234Sol     HW 3922   0.690   1.853   4.360 -0.4647 -0.0821 -0.1559
  234Sol     HW 3923   0.783   1.912   4.257 -1.7428  1.7311 -0.3007
  234Sol     MW 3924   0.753   1.914   4.341 -0.0956 -0.4164  0.4393
  235Sol     OW 3925   1.945   1.433   7.296 -0.2456  0.2641  0.1282
  235Sol     HW 3926   1.968   1.402   7.208  1.3535  0.1413  0.5914
  235Sol     HW 3927   1.850   1.442   7.293 -0.3214 -0.7942 -1.2786
  235Sol     MW 3928   1.938   1.431   7.288  0.4030 -0.1290 -0.0714
  236Sol     OW 3929   1.093   1.863   2.152  0.0350 -0.8886  0.4276
  236Sol     HW 3930   1.088   1.954   2.121 -2.0981 -2.0403 -2.8777
  236Sol     HW 3931   1.176   1.831   2.119 -0.1811 -0.7713 -0.2295
  236Sol     MW 3932   1.100   1.869   2.146  0.3660 -0.8234  0.7726
  237Sol     OW 3933   2.298   2.318   6.044  0.0417 -0.1584 -0.3927
  237Sol     HW 3934   2.238   2.368   6.099  1.0597 -0.8255  1.3385
  237Sol     HW 3935   2.384   2.357   6.059  0.4956 -1.0162 -0.7200
  237Sol     MW 3936   2.300   2.326   6.050 -0.2044  0.2888 -0.8634
  238Sol     OW 3937   1.825   1.567   1.469 -0.4747  0.0648  0.6333
  238Sol     HW 3938   1.733   1.588   1.451 -0.9367  0.1776  2.9845
  238Sol     HW 3939   1.828   1.552   1.563  1.9186 -0.0698  0.5594
  238Sol     MW 3940   1.817   1.567   1.476  0.0702 -0.3104 -0.4134
  239Sol     OW 3941   1.894   2.048   5.232  0.4745 -0.6455 -0.3137
  239Sol     HW 3942   1.970   2.082   5.280  0.7379 -0.8808 -0.5545
  239Sol     HW 3943   1.830   2.026   5.299  0.0792  0.8255 -0.1733
  239Sol     MW 3944   1.895   2.049   5.242  0.1093  0.6519 -0.4817
  240Sol     OW 3945   0.066   2.051   2.820  0.5993 -0.1625 -0.3249
  240Sol     HW 3946  -0.025   2.080   2.824  0.5926 -0.3687  1.2216
  240Sol     HW 3947   0.116   2.131   2.806  0.3721  0.2912  1.3639
  240Sol     MW 3948   0.062   2.061   2.819  0.5991  0.3876 -0.0821
  241Sol     OW 3949   2.725   0.835   8.820 -1.1215 -0.2433  0.1280
  241Sol     HW 3950   2.697   0.757   8.771  1.3051  0.0142 -1.7295
  241Sol     HW 3951   2.781   0.801   8.889 -0.4804 -0.1818 -0.3637
  241Sol     MW 3952   2.727   0.825   8.822  0.5774 -0.7933  0.2407
  242Sol     OW 3953   0.107   1.985   4.008  0.5378 -0.2832  0.1877
  242Sol     HW 3954   0.074   1.898   3.986  0.3956 -0.3879  0.8062
  242Sol     HW 3955   0.144   2.018   3.926  0.8880 -1.0572  0.0267
  242Sol     MW 3956   0.108   1.980   3.999 -0.2665 -0.2193 -0.2256
  243Sol     OW 3957   0.559   3.003   1.978 -0.5635 -0.1895  1.0526
  243Sol     HW 3958   0.571   3.085   2.027  0.5946  0.3168 -0.0542
  243Sol     HW 3959   0.528   2.941   2.044 -2.3763  1.3688  1.7266
  243Sol     MW 3960   0.557   3.005   1.989  0.8388 -0.2055 -0.3626
  244Sol     OW 3961   2.159   1.035   4.668 -0.1793 -0.2682 -0.3191
  244Sol     HW 3962   2.189   0.959   4.619  0.1619 -0.1576 -0.2801
  244Sol     HW 3963   2.228   1.051   4.733 -0.0332  0.3472 -0.6192
  244Sol     MW 3964   2.168   1.030   4.670  0.4545  0.6961 -0.8069
  245Sol     OW 3965   2.471   1.320   9.353  0.2007 -0.5069 -0.9528
  245Sol     HW 3966   2.473   1.379   9.277 -1.7093  0.5345 -0.2251
  245Sol     HW 3967   2.516   1.241   9.323  0.4664  0.3163 -2.8039
  245Sol     MW 3968   2.475   1.318   9.344 -0.6586 -0.3775  0.0577
  246Sol     OW 3969   2.694   1.665   9.135  0.2399 -0.0954  0.4358
  246Sol     HW 3970   2.687   1.574   9.105  2.9569 -0.6313  1.2975
  246Sol     HW 3971   2.735   1.712   9.063 -0.1769  0.2292  0.4075
  246Sol     MW 3972   2.697   1.661   9.126 -0.1183  0.4641 -0.1774
  247Sol     OW 3973   2.030   0.674   6.577 -0.1653 -0.4537 -0.3951
  247Sol     HW 3974   2.032   0.760   6.533 -0.5543  0.4174  1.2421
  247Sol     HW 3975   2.118   0.639   6.565  0.8487  1.3878  1.2000
  247Sol     MW 3976   2.038   0.679   6.572 -0.3007 -0.2435  0.6956
  248Sol     OW 3977   2.996   2.974   5.351  0.1359 -0.2524  0.2131
  248Sol     HW 3978   3.021   2.881   5.347 -1.0605 -0.5651 -0.3642
  248Sol     HW 3979   2.908   2.973   5.388  0.9191  0.8269  2.2233
  248Sol     MW 3980   2.991   2.965   5.354 -0.2614  0.3123  0.5945
  249Sol     OW 3981   0.337   2.725   2.978  0.2716 -0.1155  0.1403
  249Sol     HW 3982   0.325   2.818   2.998  0.6057 -0.2573  0.9927
  249Sol     HW 3983   0.382   2.689   3.054  1.0687 -0.7680 -0.6279
  249Sol     MW 3984   0.340   2.730   2.987 -0.4796  0.0647 -0.3388
  250Sol     OW 3985   2.380   1.266   7.577 -0.0973 -0.2215 -0.4263
  250Sol     HW 3986   2.352   1.198   7.637  0.2887 -1.2884 -1.4390
  250Sol     HW 3987   2.336   1.246   7.495  1.1892 -0.1351 -1.1590
  250Sol     MW 3988   2.374   1.258   7.575  0.5184  0.7287 -0.3844
  251Sol     OW 3989   1.943   2.654   3.813 -0.3502  0.6771 -0.4887
  251Sol     HW 3990   1.940   2.559   3.800  1.4061  0.2270  2.0675
  251Sol     HW 3991   1.964   2.689   3.726 -1.6099 -1.2057 -1.5882
  251Sol     MW 3992   1.945   2.649   3.804  0.0596 -0.0723  0.1305
  252Sol     OW 3993   2.687   2.842   1.651  0.1146 -0.4032  0.1009
  252Sol     HW 3994   2.731   2.926   1.663 -1.3352  0.1533  1.7129
  252Sol     HW 3995   2.725   2.786   1.719  0.3361 -0.7509 -0.3085
  252Sol     MW 3996   2.695   2.845   1.658  0.2068  0.0912  0.1098
  253Sol     OW 3997   1.902   1.262   3.743 -0.2415 -0.2958 -0.0548
  253Sol     HW 3998   1.859   1.188   3.699  0.2074 -1.1343  0.8990
  253Sol     HW 3999   1.986   1.271   3.698 -1.1070  0.9037 -1.4669
  253Sol     MW 4000   1.905   1.256   3.735 -0.4537  0.5545 -0.2036
  254Sol     OW 4001   3.148   0.064   4.112  0.1371  0.5232  0.1882
  254Sol     HW 4002   3.061   0.102   4.104  0.6200  2.0512  1.9976
  254Sol     HW 4003   3.199   0.129   4.161  2.3658 -0.2296 -1.0247
  254Sol     MW 4004   3.145   0.073   4.115  0.5405  0.0998 -0.2695
  255Sol     OW 4005   0.077   1.321   8.485 -0.5354  0.4195 -0.7463
  255Sol     HW 4006   0.150   1.261   8.471  0.5834  1.7221 -0.6114
  255Sol     HW 4007   0.001   1.276   8.449  0.3076 -1.0298 -0.7288
  255Sol     MW 4008   0.077   1.312   8.481  0.3136 -0.3078  0.2305
  256Sol     OW 4009   3.044   1.282   4.191  0.3677 -0.2921  0.4311
  256Sol     HW 4010   3.127   1.330   4.192 -0.0367  0.4750 -0.9045
  256Sol     HW 4011   2.985   1.334   4.245  0.5048 -0.3666  0.6526
  256Sol     MW 4012   3.046   1.291   4.196 -0.0788  0.2572 -0.1780
  257Sol     OW 4013   1.160   1.202   9.601  0.6113 -0.1935 -0.0843
  257Sol     HW 4014   1.199   1.117   9.581 -0.1812 -1.0188  1.8006
  257Sol     HW 4015   1.209   1.234   9.677 -1.3605 -0.5655  1.3721
  257Sol     MW 4016   1.168   1.198   9.606 -0.8500 -0.1439  0.0461
  258Sol     OW 4017   3.125   0.485   5.697 -0.0756 -0.1422  0.1491
  258Sol     HW 4018   3.217   0.493   5.725 -0.1063 -0.6913  0.4082
  258Sol     HW 4019   3.083   0.565   5.729  1.1138  1.9037 -3.1351
  258Sol     MW 4020   3.130   0.493   5.703 -0.0322 -0.1965  0.2060
  259Sol     OW 4021   0.949   0.889   2.709  0.3720 -0.5706 -0.6315
  259Sol     HW 4022   0.868   0.837   2.705  0.3676 -0.6651  0.5647
  259Sol     HW 4023   0.973   0.902   2.617 -0.6616 -1.0748 -0.9862
  259Sol     MW 4024   0.944   0.885   2.700  0.4267 -0.7640  0.1496
  260Sol     OW 4025   1.923   2.913   7.046 -0.1657  0.0575 -0.6772
  260Sol     HW 4026   1.983   2.922   7.120  0.0606  1.3655 -1.0143
  260Sol     HW 4027   1.877   2.997   7.042 -1.3427 -0.5795 -1.0183
  260Sol     MW 4028   1.924   2.921   7.053 -0.5284  0.2012 -0.7988
  261Sol     OW 4029   1.328   0.224   7.535  0.1098  0.3856 -0.0493
  261Sol     HW 4030   1.404   0.279   7.515 -0.0773  0.1694 -1.3407
  261Sol     HW 4031   1.284   0.211   7.451 -0.5614 -0.6782  0.4591
  261Sol     MW 4032   1.331   0.228   7.526 -0.0382 -0.5949  0.5306
  262Sol     OW 4033   1.049   0.922   3.367 -0.2102 -0.8875 -0.0971
  262Sol     HW 4034   0.993   0.984   3.413  0.0021  0.2520 -1.3307
  262Sol     HW 4035   1.027   0.936   3.274  1.9016 -0.6358 -0.5708
  262Sol     MW 4036   1.042   0.929   3.362 -0.3542 -0.9519  0.2931
  263Sol     OW 4037   0.823   1.120   3.911 -0.1113  0.2541  0.2074
  263Sol     HW 4038   0.911   1.130   3.947 -0.2765  0.4651  0.5555
  263Sol     HW 4039   0.780   1.204   3.929  0.3231  0.9637 -1.9070
  263Sol     MW 4040   0.827   1.128   3.916  0.6738  0.2703 -0.1550
  264Sol     OW 4041   2.229   0.695   8.595 -0.1133 -0.0889  0.7475
  264Sol     HW 4042   2.259   0.740   8.674  2.7951 -0.2509 -0.2239
  264Sol     HW 4043   2.243   0.602   8.614 -0.3314 -0.1923  0.3967
  264Sol     MW 4044   2.233   0.690   8.604  0.4966 -0.4276 -0.2845
  265Sol     OW 4045   0.072   3.297   8.388  0.0059  0.2895 -0.4315
  265Sol     HW 4046   0.111   3.239   8.323 -1.0754  0.4784 -1.2522
  265Sol     HW 4047   0.082   3.249   8.471 -3.2326 -2.2979 -1.4505
  265Sol     MW 4048   0.077   3.287   8.390  0.0264 -0.4394 -0.0484
  266Sol     OW 4049   1.849   1.054   6.076 -0.1040  0.5192  0.0095
  266Sol     HW 4050   1.850   1.013   5.989 -0.0037  0.4323  0.0513
  266Sol     HW 4051   1.904   0.997   6.130 -0.1507  0.5838  0.1255
  266Sol     MW 4052   1.854   1.045   6.073 -0.0447 -0.0358  0.2689
  267Sol     OW 4053   1.671   0.571   8.530 -0.1342 -0.2315 -0.2698
  267Sol     HW 4054   1.710   0.484   8.541 -3.0390 -1.6207 -0.3911
  267Sol     HW 4055   1.660   0.580   8.435  1.8176  1.0722 -0.4000
  267Sol     MW 4056   1.674   0.564   8.522 -0.3961  0.2224 -0.0840
  268Sol     OW 4057   3.163   2.883   7.883 -0.2244 -0.1483  0.1814
  268Sol     HW 4058   3.241   2.892   7.938  1.4088 -0.9741 -1.9020
  268Sol     HW 4059   3.142   2.790   7.887 -1.5134  0.1776  1.2431
  268Sol     MW 4060   3.168   2.875   7.888 -0.5726 -0.0314  0.7086
  269Sol     OW 4061   1.650   1.012   3.166  0.0228 -0.1953 -0.5864
  269Sol     HW 4062   1.672   1.026   3.258  0.9026  0.0722 -0.8348
  269Sol     HW 4063   1.704   0.938   3.139  0.1075  0.0234 -1.0175
  269Sol     MW 4064   1.657   1.007   3.171  0.0220  0.5010  0.0958
  270Sol     OW 4065   0.767   2.220   9.112 -0.1682 -0.4161  0.0369
  270Sol     HW 4066   0.804   2.254   9.031 -0.0123  0.4820  0.4825
  270Sol     HW 4067   0.691   2.168   9.084 -0.6206  0.5884 -0.6188
  270Sol     MW 4068   0.763   2.218   9.102  0.1389 -0.3819 -0.4056
  271Sol     OW 4069   1.128   0.605   8.788  0.2339  0.2280  0.0768
  271Sol     HW 4070   1.143   0.553   8.709  0.7945 -1.2974  1.1601
  271Sol     HW 4071   1.169   0.689   8.770 -0.9503  0.4361 -1.8296
  271Sol     MW 4072   1.133   0.607   8.779 -0.2349 -0.2126 -0.2697
  272Sol     OW 4073   0.689   3.092   9.412 -0.3804  0.0355 -0.4242
  272Sol     HW 4074   0.629   3.121   9.343  0.0004  0.7151 -0.4777
  272Sol     HW 4075   0.642   3.022   9.457 -1.8711  1.5754  0.5035
  272Sol     MW 4076   0.679   3.089   9.410  0.7575 -0.5792 -0.0168
  273Sol     OW 4077   2.546   1.024   7.824  0.4674  0.0453 -0.2332
  273Sol     HW 4078   2.547   1.059   7.735 -1.8229 -0.3797 -0.4707
  273Sol     HW 4079   2.572   1.097   7.880 -1.2345  1.2708 -0.9891
  273Sol     MW 4080   2.548   1.033   7.821  0.2466 -0.5265  0.3131
  274Sol     OW 4081   3.022   1.827   3.325 -0.4524 -0.0852  0.0131
  274Sol     HW 4082   2.935   1.828   3.365 -0.3974  1.5468  0.1187
  274Sol     HW 4083   3.033   1.737   3.294 -1.3512 -0.8410  1.7947
  274Sol     MW 4084   3.015   1.819   3.326  0.0057 -0.4361  0.1070
  275Sol     OW 4085   0.247   1.984   7.079 -0.2071  0.0857 -0.5464
  275Sol     HW 4086   0.195   1.931   7.019 -0.3243  1.9767 -2.1787
  275Sol     HW 4087   0.333   1.941   7.081 -0.9142 -1.3276 -0.2008
  275Sol     MW 4088   0.250   1.976   7.074 -0.3839  0.4408 -0.7376
  276Sol     OW 4089   2.912   0.592   2.012 -0.1235 -0.5351  0.1941
  276Sol     HW 4090   2.980   0.656   2.030 -0.5405 -0.5524  1.9461
  276Sol     HW 4091   2.947   0.539   1.941  0.3255  1.4524 -1.0973
  276Sol     MW 4092   2.921   0.593   2.007 -0.0265 -0.0334 -0.1140
  277Sol     OW 4093   2.714   1.079   6.267 -0.1989 -0.2014 -0.1020
  277Sol     HW 4094   2.738   0.993   6.303 -0.8559  0.2294  1.4386
  277Sol     HW 4095   2.775   1.140   6.309 -1.1031  0.3355  0.4559
  277Sol     MW 4096   2.721   1.077   6.274 -0.2023 -0.0180  0.4553
  278Sol     OW 4097   1.167   0.140   4.628  0.3844  0.2425  0.2876
  278Sol     HW 4098   1.191   0.051   4.601 -2.4504 -0.5967  0.3510
  278Sol     HW 4099   1.173   0.192   4.548  2.1398  0.0576  0.2669
  278Sol     MW 4100   1.170   0.137   4.619  0.0750 -0.4571  0.4298
  279Sol     OW 4101   1.260   0.465   6.367  0.0096 -0.0550 -0.2257
  279Sol     HW 4102   1.191   0.425   6.314 -1.8646  2.0714  0.5556
  279Sol     HW 4103   1.316   0.511   6.304 -1.4783  1.3972 -0.4966
  279Sol     MW 4104   1.259   0.466   6.357  0.4946 -0.1627 -0.3332
  280Sol     OW 4105   2.836   2.567   3.421 -0.1900  0.2917 -0.0336
  280Sol     HW 4106   2.932   2.570   3.414 -0.1549 -0.9235 -0.1369
  280Sol     HW 4107   2.820   2.537   3.510 -0.4743 -0.0749 -0.2100
  280Sol     MW 4108   2.843   2.565   3.429  0.0450  0.1868 -0.6531
  281Sol     OW 4109   0.643   1.371   3.930  0.3196 -0.4633  0.6683
  281Sol     HW 4110   0.609   1.452   3.967  0.0799  1.2229 -3.0620
  281Sol     HW 4111   0.567   1.313   3.927 -0.2314  0.2635  0.4723
  281Sol     MW 4112   0.633   1.373   3.933  0.0515  0.3376  0.3018
  282Sol     OW 4113   3.105   2.150   2.741 -0.4479  0.5711 -0.5299
  282Sol     HW 4114   3.103   2.226   2.799  0.8791 -0.7149  1.2473
  282Sol     HW 4115   3.033   2.095   2.771 -1.2994  1.0328 -1.7029
  282Sol     MW 4116   3.098   2.152   2.749  0.1213  0.8395 -0.8095
  283Sol     OW 4117   1.802   0.079   7.917 -0.2860  0.2451  0.6418
  283Sol     HW 4118   1.806  -0.014   7.893  0.4088  0.5812 -0.5342
  283Sol     HW 4119   1.877   0.119   7.874 -1.4560  1.6608 -0.1331
  283Sol     MW 4120   1.809   0.074   7.911 -0.4450 -0.1175  0.0624
  284Sol     OW 4121   1.731   1.953   1.646 -0.2921  0.3479  0.0200
  284Sol     HW 4122   1.793   1.915   1.584 -1.2303 -0.6394 -0.3116
  284Sol     HW 4123   1.775   2.033   1.677  0.7910  0.0925 -0.8253
  284Sol     MW 4124   1.741   1.957   1.643 -0.0888 -0.3641  0.0086
  285Sol     OW 4125   3.095   2.599   4.606 -0.4986 -0.3410  0.1441
  285Sol     HW 4126   3.079   2.526   4.547  0.2953 -0.9926  0.7251
  285Sol     HW 4127   3.114   2.558   4.690 -0.5351  0.5506  0.5956
  285Sol     MW 4128   3.095   2.589   4.609 -0.0539 -0.5298  0.1127
  286Sol     OW 4129   1.975   3.166   4.439 -0.5661 -0.1840  0.0056
  286Sol     HW 4130   1.961   3.072   4.449 -2.2497 -0.0219 -0.7252
  286Sol     HW 4131   1.994   3.197   4.528 -0.0281 -1.1941  0.2481
  286Sol     MW 4132   1.976   3.160   4.448 -0.1992 -0.9171  0.5086
  287Sol     OW 4133   0.909   1.476   4.049  0.3771  0.0536 -0.4125
  287Sol     HW 4134   0.955   1.549   4.008  0.3229  0.2817 -0.0668
  287Sol     HW 4135   0.817   1.501   4.047  0.4408  0.3734  0.4647
  287Sol     MW 4136   0.905   1.484   4.045 -0.2172  0.6623  0.3361
  288Sol     OW 4137   2.655   0.895   6.963 -0.3314  0.2797 -0.1501
  288Sol     HW 4138   2.604   0.961   6.916  2.3427  1.0473 -2.0882
  288Sol     HW 4139   2.635   0.812   6.920  0.1115  0.6002 -0.9861
  288Sol     MW 4140   2.649   0.894   6.955  0.7728  0.0927 -0.1193
  289Sol     OW 4141   2.324   0.450   4.650  0.3950 -0.1006 -0.5351
  289Sol     HW 4142   2.364   0.531   4.682 -3.4205 -0.0161  4.5527
  289Sol     HW 4143   2.258   0.479   4.588 -1.2123  0.7998  1.5400
  289Sol     MW 4144   2.322   0.460   4.647  0.1411 -0.8187 -0.3116
  290Sol     OW 4145   2.520   1.157   2.557 -0.7416 -0.0022 -0.1558
  290Sol     HW 4146   2.610   1.139   2.528 -0.5958  0.5966 -0.0802
  290Sol     HW 4147   2.498   1.082   2.613  1.3099  1.9341  3.4271
  290Sol     MW 4148   2.526   1.148   2.559  0.3560 -0.2079 -0.3816
  291Sol     OW 4149   3.158   0.176   1.747 -0.3861 -0.3968  0.2065
  291Sol     HW 4150   3.065   0.188   1.731 -0.2184 -0.0480 -0.5198
  291Sol     HW 4151   3.165   0.091   1.790 -0.9509 -0.7787 -0.4635
  291Sol     MW 4152   3.151   0.170   1.750  0.0240  0.0823  0.2425
  292Sol     OW 4153   1.081   2.713   4.730 -0.1730 -0.4941 -0.5422
  292Sol     HW 4154   1.124   2.641   4.684 -0.9147 -0.8803 -0.6231
  292Sol     HW 4155   1.133   2.726   4.809 -0.8268 -1.9995  0.1435
  292Sol     MW 4156   1.090   2.708   4.733  0.3305 -0.0260 -0.2317
  293Sol     OW 4157   2.806   0.804   9.608 -0.0778  0.0330  0.0042
  293Sol     HW 4158   2.881   0.796   9.667  0.8195  2.0221 -0.8108
  293Sol     HW 4159   2.730   0.787   9.663  0.8957 -0.7224  1.1404
  293Sol     MW 4160   2.806   0.802   9.618  0.4626  0.4851  0.1247
  294Sol     OW 4161   1.316   1.011   4.183 -0.1482  0.3824  0.1494
  294Sol     HW 4162   1.243   1.019   4.245 -0.0776 -0.9465  0.4121
  294Sol     HW 4163   1.320   0.918   4.162  0.1094  0.7491 -1.5346
  294Sol     MW 4164   1.309   1.003   4.187  0.8590  0.0360 -0.3729
  295Sol     OW 4165   0.867   2.264   3.247 -0.6002  0.1508  0.4466
  295Sol     HW 4166   0.917   2.337   3.283  0.9934 -0.0001 -1.4181
  295Sol     HW 4167   0.896   2.188   3.298 -0.1771  0.3356  0.4844
  295Sol     MW 4168   0.874   2.264   3.255 -0.0207  0.2742 -0.4277
  296Sol     OW 4169   2.183   2.684   6.161 -0.4237  0.1404  0.2922
  296Sol     HW 4170   2.164   2.600   6.202  1.1683 -1.1443 -1.4706
  296Sol     HW 4171   2.265   2.669   6.114 -1.2942  2.0027 -1.9220
  296Sol     MW 4172   2.189   2.675   6.160  0.3258 -0.8918  0.4531
  297Sol     OW 4173   1.950   2.458   3.428 -0.5785 -0.5639  0.1575
  297Sol     HW 4174   1.855   2.451   3.430 -0.9712  2.3356 -2.9928
  297Sol     HW 4175   1.974   2.486   3.516 -2.8952  0.5949  0.4652
  297Sol     MW 4176   1.944   2.460   3.436 -0.7091 -0.5178  0.1329
  298Sol     OW 4177   1.006   1.991   8.249  0.5123 -0.4669 -0.1783
  298Sol     HW 4178   1.045   2.012   8.164  0.2043 -0.6087 -0.3560
  298Sol     HW 4179   1.073   1.940   8.295  1.1156  0.5779  0.1079
  298Sol     MW 4180   1.015   1.988   8.245  0.5770  0.2267  0.7554
  299Sol     OW 4181   0.981   0.265   8.699  0.6449 -0.8091  0.6949
  299Sol     HW 4182   1.020   0.216   8.772 -0.5524 -1.2314  1.0654
  299Sol     HW 4183   0.917   0.322   8.741 -0.2458 -1.2517 -0.0560
  299Sol     MW 4184   0.979   0.266   8.709 -0.0715  0.0957 -0.0623
  300Sol     OW 4185   0.842   2.463   9.811 -0.7591 -0.2057 -0.1533
  300Sol     HW 4186   0.761   2.488   9.767  1.2381  2.1765 -2.6642
  300Sol     HW 4187   0.885   2.403   9.750  0.6150  0.6826 -0.0757
  300Sol     MW 4188   0.839   2.460   9.802  0.6832  0.1071  0.4467
  301Sol     OW 4189   1.800   0.169   6.304 -1.0530  0.6897  0.2418
  301Sol     HW 4190   1.869   0.144   6.367  0.3723  0.8128 -1.2300
  301Sol     HW 4191   1.761   0.085   6.278  1.5041  0.1454 -2.1815
  301Sol     MW 4192   1.803   0.159   6.307  0.3944  0.1307  0.1411
  302Sol     OW 4193   1.881   2.263   6.795  0.3644 -0.3813 -0.3123
  302Sol     HW 4194   1.828   2.191   6.761  3.1101 -3.2257  1.1308
  302Sol     HW 4195   1.970   2.227   6.799  1.6575  2.7996  1.3608
  302Sol     MW 4196   1.884   2.254   6.792 -0.3367 -0.1859 -0.1705
  303Sol     OW 4197   2.891   2.491   8.005  0.3519 -0.3265  0.4867
  303Sol     HW 4198   2.799   2.473   8.023  0.2799 -0.8455 -0.3498
  303Sol     HW 4199   2.928   2.406   7.981  1.0266 -0.1059  0.7304
  303Sol     MW 4200   2.886   2.482   8.004  0.3726 -0.4684 -0.6542
  304Sol     OW 4201   1.400   2.855   7.574 -0.1104 -0.0628  0.1945
  304Sol     HW 4202   1.383   2.870   7.481  1.4853 -0.0744 -0.1084
  304Sol     HW 4203   1.365   2.932   7.617  1.9429  1.4309 -0.7279
  304Sol     MW 4204   1.395   2.863   7.570 -0.7617 -0.7215  0.6008
  305Sol     OW 4205   1.112   1.189   5.244  0.0793 -0.3716 -0.4232
  305Sol     HW 4206   1.176   1.256   5.269 -0.0861 -0.4799  0.3070
  305Sol     HW 4207   1.120   1.183   5.149 -0.4120  1.2080 -0.5840
  305Sol     MW 4208   1.119   1.195   5.238 -0.8199 -0.9727  0.0101
  306Sol     OW 4209   0.748   0.898   4.056 -0.2825  0.0265 -0.3004
  306Sol     HW 4210   0.781   0.925   4.142 -0.8304 -0.6483  0.1237
  306Sol     HW 4211   0.766   0.972   3.999 -0.6972  0.8220  0.5921
  306Sol     MW 4212   0.753   0.907   4.059 -0.6167 -0.4328  0.0700
  307Sol     OW 4213   0.474   2.608   6.755  0.0543  0.3194 -0.2428
  307Sol     HW 4214   0.486   2.689   6.707  0.0925 -0.5420 -1.7010
  307Sol     HW 4215   0.562   2.571   6.763 -0.1154 -0.1777 -0.6462
  307Sol     MW 4216   0.483   2.612   6.752  0.2365  0.5820  0.2762
  308Sol     OW 4217   2.501   3.177   9.939 -0.3469  0.6003  0.3137
  308Sol     HW 4218   2.464   3.216  10.018 -1.4427  2.4297 -1.0559
  308Sol     HW 4219   2.590   3.211   9.935  0.2169 -0.6880  1.5334
  308Sol     MW 4220   2.505   3.183   9.946 -0.2475  0.3004 -0.4339
  309Sol     OW 4221   0.902   1.825   3.214 -0.1038  0.0411  0.4232
  309Sol     HW 4222   0.909   1.904   3.268 -1.2621  1.7341 -1.8239
  309Sol     HW 4223   0.898   1.858   3.124 -0.4572 -2.6025 -0.5662
  309Sol     MW 4224   0.902   1.835   3.211 -0.5036  0.0088 -0.0877
  310Sol     OW 4225   3.112   3.064   9.575 -0.1618  0.2331 -0.0872
  310Sol     HW 4226   3.080   3.045   9.487 -1.2162 -0.4268  0.4255
  310Sol     HW 4227   3.061   3.140   9.603  0.3298  0.5788 -0.1332
  310Sol     MW 4228   3.104   3.069   9.570  0.6516 -0.0613 -0.0587
  311Sol     OW 4229   1.941   1.921   9.906  0.1272  0.0323  0.1896
  311Sol     HW 4230   1.927   1.928   9.811 -0.7484  1.7588  0.4276
  311Sol     HW 4231   2.036   1.928   9.916  0.1098  1.4392 -0.4548
  311Sol     MW 4232   1.948   1.922   9.898 -0.1056  0.1332 -0.5042
  312Sol     OW 4233   0.280   3.248   8.841 -0.2451  0.8187  0.9260
  312Sol     HW 4234   0.192   3.222   8.813 -0.3069  0.8140  1.1260
  312Sol     HW 4235   0.275   3.249   8.937  0.3456 -0.4978  0.9815
  312Sol     MW 4236   0.271   3.246   8.847  0.3005 -0.0194 -0.6360
  313Sol     OW 4237   2.469   0.021   4.497  0.0316 -0.7409 -0.0733
  313Sol     HW 4238   2.420  -0.034   4.559  1.9032 -0.0972  2.0656
  313Sol     HW 4239   2.449   0.111   4.525 -0.2455 -0.3933 -1.3502
  313Sol     MW 4240   2.463   0.024   4.505  0.3132 -0.5107  0.2204
  314Sol     OW 4241   1.419   0.441   3.317  0.3370  0.9208 -0.0162
  314Sol     HW 4242   1.401   0.530   3.289  1.3605  1.3153  0.5635
  314Sol     HW 4243   1.476   0.450   3.393  3.1295 -0.3009 -1.8987
  314Sol     MW 4244   1.422   0.450   3.322 -0.3299 -0.3266  0.1049
  315Sol     OW 4245   3.116   1.679   2.487 -0.3364 -0.2583  0.0162
  315Sol     HW 4246   3.188   1.741   2.477 -0.6543 -0.1474 -1.5980
  315Sol     HW 4247   3.053   1.725   2.542  0.4965 -0.0877  0.8482
  315Sol     MW 4248   3.117   1.689   2.491  0.1342 -1.2586  0.1445
  316Sol     OW 4249   2.397   1.477   9.149  0.7472 -0.0315 -0.1632
  316Sol     HW 4250   2.337   1.547   9.124  0.0335 -0.7483 -0.5059
  316Sol     HW 4251   2.448   1.459   9.070  1.1504  0.3137  0.0153
  316Sol     MW 4252   2.396   1.481   9.140 -0.3919 -0.1593  0.1287
  317Sol     OW 4253   1.467   0.531   5.293 -0.6452 -0.6332  1.0350
  317Sol     HW 4254   1.531   0.585   5.339  2.4367 -2.9837 -0.2637
  317Sol     HW 4255   1.486   0.544   5.201 -0.9730 -2.5649  0.6619
  317Sol     MW 4256   1.475   0.537   5.289  0.6112  0.6162  0.4291
  318Sol     OW 4257   0.956   0.890   2.109 -0.9609 -0.3728 -0.0778
  318Sol     HW 4258   1.033   0.880   2.166  0.6934  1.5346 -1.9087
  318Sol     HW 4259   0.984   0.854   2.025 -1.5048  1.7266 -1.1945
  318Sol     MW 4260   0.966   0.886   2.107 -0.4846  0.8520  0.1917
  319Sol     OW 4261   2.396   0.083   1.918 -0.2677 -0.2184  0.4469
  319Sol     HW 4262   2.448   0.084   1.999 -1.3593 -0.8810  1.1730
  319Sol     HW 4263   2.420   0.164   1.874  2.1080 -0.9492  0.2879
  319Sol     MW 4264   2.403   0.091   1.922  0.5279  0.4770  0.3778
  320Sol     OW 4265   2.239   0.825   3.869 -0.3634  0.5955  0.4044
  320Sol     HW 4266   2.191   0.743   3.883 -2.8809  1.8993 -0.2345
  320Sol     HW 4267   2.282   0.813   3.784  0.8004 -0.7322  1.1577
  320Sol     MW 4268   2.239   0.817   3.862  0.3863  0.0839  0.3338
  321Sol     OW 4269   0.901   2.637   7.549 -0.2760 -0.4150 -0.7261
  321Sol     HW 4270   0.876   2.592   7.630 -1.2444 -0.0174 -0.7979
  321Sol     HW 4271   0.914   2.728   7.575  1.6473 -0.7079 -0.5881
  321Sol     MW 4272   0.900   2.641   7.559  0.6147 -0.0464  0.0911
  322Sol     OW 4273   2.694   2.241   8.807  0.2921 -0.5071 -0.5849
  322Sol     HW 4274   2.704   2.186   8.886 -0.2596  0.9979  0.5526
  322Sol     HW 4275   2.783   2.247   8.772  0.5678 -1.0928 -0.0193
  322Sol     MW 4276   2.703   2.236   8.811 -0.1118  0.1913 -0.8075
  323Sol     OW 4277   3.173   2.933   3.364  0.5349  0.3562  0.0189
  323Sol     HW 4278   3.168   3.007   3.424 -0.7805  0.0832  0.2610
  323Sol     HW 4279   3.084   2.899   3.360  1.1014 -1.1495 -0.1828
  323Sol     MW 4280   3.165   2.936   3.369  0.0078  0.0038  0.3223
  324Sol     OW 4281   3.291   3.262   9.217  0.0534 -0.1512  0.1784
  324Sol     HW 4282   3.217   3.218   9.175  0.1110 -1.2913  1.2671
  324Sol     HW 4283   3.252   3.338   9.260 -0.1823  0.3598 -0.9157
  324Sol     MW 4284   3.281   3.265   9.217 -0.8686  0.2866 -0.1769
  325Sol     OW 4285   2.971   2.654   8.206  0.5140 -0.1256  0.3327
  325Sol     HW 4286   2.892   2.708   8.199  0.7397  0.0956 -0.5865
  325Sol     HW 4287   2.960   2.587   8.139 -0.0645 -1.6254  1.8914
  325Sol     MW 4288   2.963   2.653   8.200  0.0265  0.4469 -0.0952
  326Sol     OW 4289   1.014   0.589   5.209  0.1098 -0.0617 -0.0524
  326Sol     HW 4290   0.949   0.651   5.176  0.3529 -0.1889 -0.7798
  326Sol     HW 4291   0.963   0.515   5.241 -0.0774 -0.3713 -1.0640
  326Sol     MW 4292   1.004   0.588   5.209  0.5442  0.7077  0.1368
  327Sol     OW 4293   0.342   1.339   2.870 -0.2390 -0.6175  0.2472
  327Sol     HW 4294   0.371   1.430   2.881 -1.4688  0.1315 -2.3395
  327Sol     HW 4295   0.422   1.287   2.873  0.5485  0.6150  1.0247
  327Sol     MW 4296   0.352   1.343   2.871  0.8940  0.1482 -0.2240
  328Sol     OW 4297   2.775   0.322   6.108 -0.3581 -0.1062  0.2932
  328Sol     HW 4298   2.771   0.234   6.071 -0.4824  0.4387 -1.0201
  328Sol     HW 4299   2.868   0.338   6.121 -0.3016 -0.2670  0.1019
  328Sol     MW 4300   2.783   0.316   6.105 -1.0565  0.1452 -0.0245
  329Sol     OW 4301   0.911   1.466   2.771 -0.5508  0.4299 -0.1277
  329Sol     HW 4302   0.974   1.500   2.708 -0.0852 -1.6301 -0.8081
  329Sol     HW 4303   0.825   1.487   2.733 -0.2627  0.7552 -0.5971
  329Sol     MW 4304   0.909   1.471   2.762 -0.1756 -0.7369 -0.5037
  330Sol     OW 4305   0.509   1.700   1.868  0.2211 -0.0037  0.0108
  330Sol     HW 4306   0.564   1.683   1.792  1.3754 -1.8504  1.2116
  330Sol     HW 4307   0.570   1.737   1.933 -0.3704 -0.1348  0.6428
  330Sol     MW 4308   0.520   1.702   1.867 -0.3382  0.1046  0.1626
  331Sol     OW 4309   0.164   1.311   9.512 -0.3707  0.0738  0.4841
  331Sol     HW 4310   0.142   1.342   9.601  0.0265  0.2202  0.5322
  331Sol     HW 4311   0.257   1.331   9.502 -0.2944 -0.4160  0.2259
  331Sol     MW 4312   0.170   1.316   9.519  0.3701  0.1076  0.1978
  332Sol     OW 4313   1.182   0.088   1.488 -0.1818  0.0253  0.0066
  332Sol     HW 4314   1.181  -0.006   1.474  0.5144 -0.0648  0.5496
  332Sol     HW 4315   1.157   0.099   1.580  2.5904  0.1931  0.7916
  332Sol     MW 4316   1.180   0.081   1.495  0.4460 -0.3719  0.0868
  333Sol     OW 4317   0.788   1.921   4.797  0.4121 -0.3877  0.4289
  333Sol     HW 4318   0.696   1.898   4.810 -0.1315  1.1342 -0.6534
  333Sol     HW 4319   0.795   1.940   4.704  1.7386 -0.0850  0.5831
  333Sol     MW 4320   0.780   1.920   4.790  0.4318 -0.2363 -0.0573
  334Sol     OW 4321   2.913   0.223   9.706 -0.4498  0.4928 -0.2491
  334Sol     HW 4322   2.821   0.226   9.734 -0.7101  0.5731 -1.1146
  334Sol     HW 4323   2.958   0.278   9.770 -0.7811 -0.6231  0.9880
  334Sol     MW 4324   2.909   0.228   9.714  0.6556 -0.4613  0.3067
  335Sol     OW 4325   0.300   3.166   5.682 -0.1082  0.1232 -0.2535
  335Sol     HW 4326   0.226   3.131   5.731 -0.4208  0.5101 -0.4471
  335Sol     HW 4327   0.345   3.224   5.744  0.7828 -1.1094  0.2727
  335Sol     MW 4328   0.298   3.168   5.692  0.4710  0.2524 -0.1870
  336Sol     OW 4329   0.868   0.113   7.149  0.0093 -0.0033  0.2024
  336Sol     HW 4330   0.788   0.119   7.096 -0.2469  1.4973  0.7478
  336Sol     HW 4331   0.879   0.200   7.187  0.2897 -1.0197  2.5042
  336Sol     MW 4332   0.862   0.121   7.147  0.2032 -0.3505  0.0353
  337Sol     OW 4333   1.045   0.666   1.920 -0.0561  0.3677  0.2062
  337Sol     HW 4334   0.961   0.644   1.880 -0.4015  1.3615  0.3704
  337Sol     HW 4335   1.100   0.589   1.904 -0.0467  0.8661 -2.5319
  337Sol     MW 4336   1.042   0.657   1.915 -0.3950  0.0393  0.0276
  338Sol     OW 4337   1.907   3.132   9.174  0.0500  0.5088 -0.0536
  338Sol     HW 4338   1.933   3.059   9.118  0.5114  0.7236 -0.1168
  338Sol     HW 4339   1.886   3.203   9.113  3.4998  1.7527  0.0927
  338Sol     MW 4340   1.907   3.132   9.164  0.2966 -0.1379  0.3377
  339Sol     OW 4341   1.806   2.709   9.333  0.6792  0.0667  0.5993
  339Sol     HW 4342   1.893   2.670   9.327  0.1800 -0.7175 -2.1033
  339Sol     HW 4343   1.754   2.644   9.380  0.9812 -0.5015  0.1567
  339Sol     MW 4344   1.809   2.699   9.337  0.1675  0.1697  1.3042
  340Sol     OW 4345   1.122   3.232   7.516 -0.4005  0.2507  0.3163
  340Sol     HW 4346   1.189   3.250   7.450 -1.0020  0.4883 -0.2373
  340Sol     HW 4347   1.090   3.319   7.542 -2.5792  0.0945 -1.6086
  340Sol     MW 4348   1.125   3.242   7.512  0.4100  0.3824 -0.0158
  341Sol     OW 4349   1.886   1.876   2.733  0.2267 -0.4808  0.2114
  341Sol     HW 4350   1.883   1.928   2.813  0.1467  0.2111 -0.2287
  341Sol     HW 4351   1.798   1.884   2.697  0.4856 -0.1182 -0.3548
  341Sol     MW 4352   1.878   1.882   2.737 -0.9341  0.2168  0.1559
  342Sol     OW 4353   0.979   1.345   4.771  0.1046  0.4790 -0.4725
  342Sol     HW 4354   1.019   1.319   4.854  0.2554  0.3578 -0.5815
  342Sol     HW 4355   0.995   1.439   4.765 -0.4840  0.6073 -0.0514
  342Sol     MW 4356   0.984   1.351   4.778  0.4281 -0.0603  0.0549
  343Sol     OW 4357   0.914   1.404   6.964  0.0496  0.1933 -0.0140
  343Sol     HW 4358   1.000   1.444   6.977 -0.1564  1.3831 -2.0309
  343Sol     HW 4359   0.860   1.475   6.928 -1.5558 -0.7566  0.4643
  343Sol     MW 4360   0.917   1.414   6.962  0.7224 -0.1533  0.3882
  344Sol     OW 4361   2.770   0.371   7.783  0.0784 -0.1356 -0.2801
  344Sol     HW 4362   2.798   0.297   7.838 -1.1860 -0.5290 -0.1575
  344Sol     HW 4363   2.755   0.331   7.697  3.1674  0.6735 -1.2561
  344Sol     MW 4364   2.771   0.360   7.780  0.6754 -0.5824 -0.4742
  345Sol     OW 4365   0.255   1.513   7.832 -0.1917 -0.7009 -0.6924
  345Sol     HW 4366   0.240   1.483   7.922  1.2092 -0.8095 -0.4700
  345Sol     HW 4367   0.173   1.554   7.806 -0.9546 -1.5675  0.2817
  345Sol     MW 4368   0.247   1.514   7.838  0.5259 -0.2895  0.6209
  346Sol     OW 4369   1.171   1.014   8.122 -0.2860  0.1546 -0.0995
  346Sol     HW 4370   1.200   1.098   8.158 -0.8091  0.7085 -0.9867
  346Sol     HW 4371   1.203   1.013   8.032 -0.6937 -0.3951 -0.2437
  346Sol     MW 4372   1.177   1.021   8.117 -0.0702 -0.0053  0.0953
  347Sol     OW 4373   2.778   3.075   7.724 -0.1574  0.0825 -0.0279
  347Sol     HW 4374   2.808   3.047   7.638 -1.1034 -1.1798  0.0353
  347Sol     HW 4375   2.690   3.109   7.709 -0.2585  0.0201  0.4164
  347Sol     MW 4376   2.773   3.076   7.715  0.8855  1.0700 -0.1312
  348Sol     OW 4377   1.922   1.952   3.904 -0.6525  0.4718 -0.2549
  348Sol     HW 4378   1.985   1.974   3.836  1.1296  0.0680  1.2112
  348Sol     HW 4379   1.940   2.014   3.975 -2.2703  0.6962 -0.0177
  348Sol     MW 4380   1.929   1.959   3.905  0.5996 -0.3349 -0.8841
  349Sol     OW 4381   1.183   2.649   9.616  0.0424  0.3364  0.0831
  349Sol     HW 4382   1.255   2.670   9.557 -0.8735 -0.0956 -1.2062
  349Sol     HW 4383   1.105   2.678   9.569 -0.8804 -2.0408  0.1237
  349Sol     MW 4384   1.183   2.654   9.607  0.3659  0.3104 -0.8294
  350Sol     OW 4385   0.866   2.872   3.017 -0.2856  0.5084 -0.7611
  350Sol     HW 4386   0.958   2.898   3.010 -0.0084 -0.3122 -0.2126
  350Sol     HW 4387   0.833   2.875   2.927  0.5799 -0.2956 -1.1094
  350Sol     MW 4388   0.871   2.875   3.009 -0.4280 -0.4503 -0.0969
  351Sol     OW 4389   1.979   2.756   3.556  0.2266  0.5870  0.1230
  351Sol     HW 4390   1.945   2.734   3.469  1.5644 -1.1319  0.0177
  351Sol     HW 4391   2.069   2.785   3.540  1.1567 -1.6711  1.1337
  351Sol     MW 4392   1.984   2.757   3.547 -0.1694  0.3343  0.0653
  352Sol     OW 4393   2.506   1.081   6.802  0.7854 -0.4747  0.1385
  352Sol     HW 4394   2.560   1.116   6.731  1.1405  0.0282  0.6443
  352Sol     HW 4395   2.520   1.142   6.874 -1.3448  0.3291 -0.0715
  352Sol     MW 4396   2.512   1.090   6.802  0.0822  0.4702 -0.1991
  353Sol     OW 4397   2.578   1.219   5.065 -0.1921  0.6201  0.3477
  353Sol     HW 4398   2.523   1.295   5.044 -0.0831  0.4895 -0.4406
  353Sol     HW 4399   2.520   1.159   5.111 -0.6315  0.6267 -0.1869
  353Sol     MW 4400   2.568   1.220   5.067  0.3393 -0.4815 -0.9130
  354Sol     OW 4401   2.333   0.525   9.857 -0.2831 -0.0911  0.1368
  354Sol     HW 4402   2.339   0.555   9.948 -0.5927  1.0647 -0.2223
  354Sol     HW 4403   2.292   0.597   9.810 -1.7527 -1.3789 -0.5979
  354Sol     MW 4404   2.330   0.534   9.861  0.6930 -0.5877  0.1558
  355Sol     OW 4405   1.135   2.388   2.050  0.2207  0.4035 -0.7767
  355Sol     HW 4406   1.092   2.308   2.079 -1.8765  2.0140  0.6742
  355Sol     HW 4407   1.145   2.441   2.129 -0.8648  2.6861 -2.1215
  355Sol     MW 4408   1.132   2.386   2.059 -0.3586  0.0428 -0.2700
  356Sol     OW 4409   1.716   2.082   6.683 -0.0039 -0.4271  0.2298
  356Sol     HW 4410   1.648   2.065   6.748  1.2176  0.5876  1.8006
  356Sol     HW 4411   1.671   2.127   6.612 -0.8005  1.1851  1.7223
  356Sol     MW 4412   1.706   2.084   6.682 -0.5131 -0.0478 -0.2374
  357Sol     OW 4413   0.424   0.480   3.303  0.1649  0.9589  0.2773
  357Sol     HW 4414   0.389   0.400   3.265 -0.5801  1.8135 -0.8673
  357Sol     HW 4415   0.460   0.453   3.388 -0.7442 -0.4349  0.2281
  357Sol     MW 4416   0.424   0.471   3.308 -0.7027  0.4401 -0.3349
  358Sol     OW 4417   0.207   0.358   1.665 -0.3043 -0.4005  0.6520
  358Sol     HW 4418   0.298   0.348   1.638  0.2082  1.2268  1.7263
  358Sol     HW 4419   0.189   0.451   1.655 -2.3059 -0.9118 -0.8945
  358Sol     MW 4420   0.213   0.365   1.662  0.4237  0.4039  0.6928
  359Sol     OW 4421   0.523   2.871   9.448 -0.4764  0.3521  0.1033
  359Sol     HW 4422   0.434   2.880   9.484 -0.3001 -0.7840  0.8121
  359Sol     HW 4423   0.544   2.779   9.458  0.6331  0.5392 -0.4605
  359Sol     MW 4424   0.517   2.864   9.452 -0.5158  0.5995  0.2884
  360Sol     OW 4425   3.177   3.123   6.226 -0.4306 -0.1590 -0.3782
  360Sol     HW 4426   3.196   3.095   6.315 -0.1593  1.8482  0.2334
  360Sol     HW 4427   3.260   3.160   6.195 -0.3109 -1.5199 -1.7446
  360Sol     MW 4428   3.186   3.124   6.231 -0.7499  0.0875 -0.1252
  361Sol     OW 4429   2.838   2.480   6.483 -0.5160  0.1562 -0.0365
  361Sol     HW 4430   2.766   2.541   6.500 -0.5625 -0.0579  0.5434
  361Sol     HW 4431   2.915   2.523   6.521 -0.1801  0.7605 -1.3665
  361Sol     MW 4432   2.838   2.489   6.488  0.1051 -0.0560 -0.1627
  362Sol     OW 4433   1.779   2.863   2.905  0.3610 -0.0041 -0.1317
  362Sol     HW 4434   1.865   2.827   2.926  0.5658  0.9769  0.7565
  362Sol     HW 4435   1.788   2.899   2.817  0.1789 -2.0323 -0.9901
  362Sol     MW 4436   1.788   2.863   2.899  0.4564  0.3298  0.0209
  363Sol     OW 4437   2.438   2.796   2.946 -0.0268 -0.3508  0.1878
  363Sol     HW 4438   2.449   2.837   3.032 -0.1674  0.2145 -0.0639
  363Sol     HW 4439   2.526   2.791   2.910  0.1419 -1.3429  0.7051
  363Sol     MW 4440   2.447   2.799   2.951 -0.5518 -0.3337  0.4882
  364Sol     OW 4441   2.029   0.289   4.571  0.0037  0.2006  0.0527
  364Sol     HW 4442   1.990   0.212   4.531 -0.5681  1.1246 -1.2319
  364Sol     HW 4443   2.086   0.326   4.503  1.1568  0.2849  1.0384
  364Sol     MW 4444   2.031   0.286   4.562  0.1450 -0.1674  0.1782
  365Sol     OW 4445   2.030   0.905   6.228 -0.6943 -0.0390 -0.1511
  365Sol     HW 4446   2.092   0.871   6.163 -1.4553  0.9939 -1.4424
  365Sol     HW 4447   2.078   0.905   6.310 -0.0503 -2.4015 -0.4924
  365Sol     MW 4448   2.040   0.902   6.229 -0.8436  0.5181  0.5621
  366Sol     OW 4449   0.628   1.702   9.836  0.0179 -0.1472 -0.0269
  366Sol     HW 4450   0.590   1.614   9.829  1.9914 -1.1216  0.8768
  366Sol     HW 4451   0.625   1.722   9.929 -0.5663  0.8351 -0.2476
  366Sol     MW 4452   0.624   1.696   9.844  0.2072  0.4435  0.7935
  367Sol     OW 4453   0.044   2.741   8.642  0.2070  0.5320  0.3814
  367Sol     HW 4454   0.033   2.814   8.581 -1.2520  0.3577  0.4126
  367Sol     HW 4455   0.035   2.662   8.588 -1.3373  0.3743  0.8419
  367Sol     MW 4456   0.042   2.740   8.632 -0.2679  0.3640  0.1327
  368Sol     OW 4457   2.056   0.394   8.892 -0.9268  0.6951  0.4495
  368Sol     HW 4458   1.983   0.456   8.892 -2.6765 -1.2005  3.4071
  368Sol     HW 4459   2.072   0.377   8.985  2.8144  0.4863 -0.1740
  368Sol     MW 4460   2.051   0.398   8.900  0.5352 -0.3228 -0.3971
  369Sol     OW 4461   1.280   0.448   2.281  0.1365 -0.0759  0.3323
  369Sol     HW 4462   1.218   0.508   2.322  0.0934 -1.1922  1.9776
  369Sol     HW 4463   1.337   0.421   2.353  1.5506 -0.2783 -0.8401
  369Sol     MW 4464   1.280   0.451   2.291 -0.1808  0.4141 -1.0163
  370Sol     OW 4465   2.679   0.091   3.480 -0.3099 -0.1758 -0.1854
  370Sol     HW 4466   2.712   0.009   3.516  0.3726 -0.0402 -0.5142
  370Sol     HW 4467   2.756   0.146   3.468 -0.9474  1.2748  1.9153
  370Sol     MW 4468   2.689   0.089   3.482  0.6351 -0.4904 -0.6579
  371Sol     OW 4469   1.628   2.160   8.515 -0.8946 -0.0190  0.1070
  371Sol     HW 4470   1.617   2.070   8.483 -2.2667 -0.2319  1.0830
  371Sol     HW 4471   1.546   2.178   8.561  0.2034  0.9849  1.7148
  371Sol     MW 4472   1.619   2.153   8.516  0.3568  0.3155  0.0648
  372Sol     OW 4473   2.675   1.105   6.566 -0.0589  0.7605 -0.0091
  372Sol     HW 4474   2.743   1.173   6.573 -0.1103  0.9442 -1.1892
  372Sol     HW 4475   2.724   1.023   6.555 -0.0101  0.7598  0.2199
  372Sol     MW 4476   2.686   1.104   6.566  0.3710 -0.3721 -0.4665
  373Sol     OW 4477   1.453   1.730   4.698 -0.0442  0.3243  0.2938
  373Sol     HW 4478   1.404   1.769   4.626 -1.6529  0.2134  1.2969
  373Sol     HW 4479   1.485   1.647   4.663 -0.2079  0.6037 -0.5172
  373Sol     MW 4480   1.451   1.726   4.689 -0.5777 -0.7239 -0.4454
  374Sol     OW 4481   1.424   0.684   3.204  0.1932 -0.1233 -0.0515
  374Sol     HW 4482   1.378   0.757   3.162  0.0876  0.4775  1.0922
  374Sol     HW 4483   1.517   0.702   3.189  0.2092  0.7936  1.1106
  374Sol     MW 4484   1.428   0.692   3.199 -0.8083 -0.1182 -0.0629
  375Sol     OW 4485   3.219   3.364   5.242  0.3629 -0.4243  0.6749
  375Sol     HW 4486   3.214   3.305   5.318 -0.2313 -1.3914 -0.0893
  375Sol     HW 4487   3.131   3.360   5.204  1.1715 -1.4554 -1.1619
  375Sol     MW 4488   3.210   3.358   5.245 -0.0693 -0.3935  1.0323
  376Sol     OW 4489   0.056   0.425   4.743  0.2617 -0.4337  0.5983
  376Sol     HW 4490   0.075   0.343   4.789  0.0484 -1.3633 -0.9085
  376Sol     HW 4491  -0.012   0.401   4.679 -0.8746  1.2601  1.1406
  376Sol     MW 4492   0.052   0.415   4.741 -0.2354 -0.2015 -0.5449
  377Sol     OW 4493   3.008   0.924   3.345 -0.3451 -0.0589  0.0468
  377Sol     HW 4494   3.063   0.849   3.368 -1.5764 -0.6900  1.0025
  377Sol     HW 4495   3.050   0.999   3.388  0.7582 -0.2215 -0.7185
  377Sol     MW 4496   3.017   0.924   3.351  0.0502  0.8157  0.0637
  378Sol     OW 4497   1.343   2.520   6.923  0.2628  0.0100 -0.3212
  378Sol     HW 4498   1.408   2.485   6.985  2.0077  1.4453 -1.2708
  378Sol     HW 4499   1.380   2.502   6.837  0.7745  3.2645 -0.8504
  378Sol     MW 4500   1.352   2.515   6.921 -0.3449  0.1910 -0.1062
  379Sol     OW 4501   2.467   2.947   1.797 -0.4384  0.7187 -0.0994
  379Sol     HW 4502   2.483   3.029   1.843  0.1139  0.6601 -0.1831
  379Sol     HW 4503   2.554   2.908   1.785 -0.7824 -0.3772  0.8541
  379Sol     MW 4504   2.476   2.950   1.800  0.1208 -0.1248  0.2817
  380Sol     OW 4505   0.844   2.852   4.691 -0.3459  0.5499  0.4263
  380Sol     HW 4506   0.918   2.791   4.690 -0.4305  0.4161 -2.4697
  380Sol     HW 4507   0.868   2.921   4.630 -2.7565  0.3137 -0.8555
  380Sol     MW 4508   0.853   2.852   4.686  1.2115 -0.6263 -0.3320
  381Sol     OW 4509   2.664   2.133   6.290  0.3805 -0.0238 -0.0171
  381Sol     HW 4510   2.618   2.176   6.362  0.9855  0.5021  0.0632
  381Sol     HW 4511   2.739   2.089   6.331  1.0373  0.7325 -0.3847
  381Sol     MW 4512   2.667   2.133   6.300  0.4038 -0.7813 -0.0817
  382Sol     OW 4513   2.918   1.169   4.547 -0.7235 -0.2767 -0.2242
  382Sol     HW 4514   2.854   1.105   4.579 -1.0636  0.4589  0.5854
  382Sol     HW 4515   3.001   1.123   4.549 -0.9459 -0.6515  0.5014
  382Sol     MW 4516   2.919   1.159   4.550  0.1546 -0.0428  0.0334
  383Sol     OW 4517   0.845   0.531   8.214 -0.4054  0.4853  0.7819
  383Sol     HW 4518   0.808   0.475   8.146  0.4095 -0.8371  1.4220
  383Sol     HW 4519   0.783   0.604   8.221 -0.9124  0.2249 -0.8026
  383Sol     MW 4520   0.836   0.533   8.208 -0.3360  0.4657 -0.2908
  384Sol     OW 4521   2.083   0.035   4.896 -0.0701 -0.0665 -0.2329
  384Sol     HW 4522   1.995   0.009   4.922 -0.0473  0.5620  0.4983
  384Sol     HW 4523   2.076   0.130   4.881  0.9139  0.3249  1.6744
  384Sol     MW 4524   2.075   0.041   4.897  0.0716  0.1854 -0.4297
  385Sol     OW 4525   1.413   0.453   4.381 -0.2806  0.3587 -0.9162
  385Sol     HW 4526   1.409   0.548   4.392 -1.9825  0.1334  0.5163
  385Sol     HW 4527   1.462   0.422   4.457  0.0116  0.0476 -1.2302
  385Sol     MW 4528   1.417   0.459   4.389 -0.1089 -0.4518 -0.3700
  386Sol     OW 4529   2.801   1.731   8.692 -0.2525 -0.4093  0.0733
  386Sol     HW 4530   2.784   1.763   8.781 -1.3853  0.4665 -0.4454
  386Sol     HW 4531   2.850   1.802   8.650  2.4615 -1.8321  0.7324
  386Sol     MW 4532   2.804   1.740   8.696 -0.6202 -0.4378  0.1173
  387Sol     OW 4533   2.661   0.589   8.715  0.3028  0.4723  0.1163
  387Sol     HW 4534   2.740   0.547   8.750  1.0041  4.3813  3.6101
  387Sol     HW 4535   2.593   0.568   8.780  0.1283  2.6340  0.6777
  387Sol     MW 4536   2.662   0.583   8.724 -0.8788  0.3324  0.1918
  388Sol     OW 4537   3.213   3.121   8.228 -0.9627  0.4542  0.1476
  388Sol     HW 4538   3.258   3.163   8.301 -2.3089  0.2577  1.0987
  388Sol     HW 4539   3.173   3.043   8.266 -0.3470 -0.5092 -1.1382
  388Sol     MW 4540   3.214   3.118   8.238  0.1796 -0.9282 -0.5343
  389Sol     OW 4541   0.240   2.697   9.757 -0.0199 -0.7432 -0.6268
  389Sol     HW 4542   0.218   2.625   9.697  0.1681 -1.3247  0.0015
  389Sol     HW 4543   0.172   2.694   9.824 -0.9727  0.7218 -1.5024
  389Sol     MW 4544   0.232   2.690   9.757  0.3625  0.6146  0.0078
  390Sol     OW 4545   3.152   0.342   7.862 -0.2042 -0.2058 -0.0432
  390Sol     HW 4546   3.144   0.436   7.850 -3.0988 -0.4119  0.0152
  390Sol     HW 4547   3.073   0.317   7.909  0.9069 -2.5625  0.6531
  390Sol     MW 4548   3.145   0.348   7.865  0.2869  0.4498 -0.0875
  391Sol     OW 4549   0.885   2.697   3.696 -0.2403  0.4614  0.2808
  391Sol     HW 4550   0.921   2.770   3.646 -0.1910  0.0466 -0.2882
  391Sol     HW 4551   0.956   2.633   3.700 -0.4896  0.1835  0.2552
  391Sol     MW 4552   0.894   2.698   3.692  0.5648 -0.8158 -0.2584
  392Sol     OW 4553   1.301   1.651   7.274 -0.4628  0.4280  0.2191
  392Sol     HW 4554   1.220   1.611   7.305  0.6530  0.2295  3.0112
  392Sol     HW 4555   1.275   1.704   7.199 -3.2241  0.5886  1.2552
  392Sol     MW 4556   1.292   1.652   7.270  0.2341 -0.4086  0.1635
  393Sol     OW 4557   2.250   0.380   9.483 -0.0176  0.4389 -0.2515
  393Sol     HW 4558   2.222   0.471   9.492  1.1114  0.8975 -1.0781
  393Sol     HW 4559   2.290   0.358   9.567 -0.7970  0.5263  0.1397
  393Sol     MW 4560   2.251   0.386   9.491 -0.1552 -0.4253  0.3571
  394Sol     OW 4561   1.132   3.246   2.440 -0.6082 -0.1753  0.1978
  394Sol     HW 4562   1.220   3.207   2.438 -0.5036  0.0448  0.4777
  394Sol     HW 4563   1.079   3.188   2.386  0.1334  0.7208 -1.5480
  394Sol     MW 4564   1.136   3.238   2.435  0.1782  0.9060 -0.4986
  395Sol     OW 4565   2.535   1.715   2.868  0.4337  0.0339  0.1247
  395Sol     HW 4566   2.540   1.794   2.922 -1.6425  0.5639 -0.4059
  395Sol     HW 4567   2.535   1.643   2.930 -1.4047  0.6200  0.8545
  395Sol     MW 4568   2.535   1.716   2.878 -0.0593 -0.2978 -0.2616
  396Sol     OW 4569   2.193   0.244   2.690 -0.5498  0.2235  0.3484
  396Sol     HW 4570   2.188   0.161   2.737  0.1465  0.6317  1.1613
  396Sol     HW 4571   2.283   0.248   2.658 -1.1954 -0.3323 -1.5489
  396Sol     MW 4572   2.200   0.237   2.692 -0.4972 -0.1957  0.3865
  397Sol     OW 4573   2.343   3.084   5.185 -0.2113 -0.7459  0.2199
  397Sol     HW 4574   2.325   3.055   5.275  0.0304  0.1238  0.5503
  397Sol     HW 4575   2.260   3.070   5.139 -1.3678  1.9588  1.4125
  397Sol     MW 4576   2.334   3.080   5.189 -0.1925  0.1002 -0.1614
  398Sol     OW 4577   3.160   1.033   5.561  0.0086  0.0655  0.1914
  398Sol     HW 4578   3.085   1.081   5.525  1.4776  2.1144 -0.2610
  398Sol     HW 4579   3.174   1.072   5.647  0.6890 -0.1282  0.1737
  398Sol     MW 4580   3.154   1.041   5.565 -0.6021 -0.0978 -0.9166
  399Sol     OW 4581   0.403   1.968   9.079 -0.4607  0.2866  0.3882
  399Sol     HW 4582   0.477   2.005   9.030 -1.4340  1.3389 -0.2854
  399Sol     HW 4583   0.374   1.894   9.025  0.6492 -0.6995  1.0962
  399Sol     MW 4584   0.407   1.964   9.070  0.5316 -0.3010 -0.2674
  400Sol     OW 4585   0.822   0.982   6.126 -0.1744 -0.2008  0.0328
  400Sol     HW 4586   0.787   0.947   6.044  1.5076 -0.0036 -0.7787
  400Sol     HW 4587   0.772   1.062   6.140 -0.8198 -0.4978 -0.5370
  400Sol     MW 4588   0.814   0.986   6.120 -0.2369  0.3415  0.7418
  401Sol     OW 4589   0.846   1.945   7.619  0.3169 -0.0636 -0.1762
  401Sol     HW 4590   0.925   1.985   7.583 -0.1738 -0.7255 -2.0234
  401Sol     HW 4591   0.863   1.940   7.714  2.3517  0.0733 -0.5103
  401Sol     MW 4592   0.854   1.948   7.625  0.1615 -0.3252  0.1836
  402Sol     OW 4593   2.634   3.276   8.303 -0.4033  0.3473  0.1508
  402Sol     HW 4594   2.614   3.276   8.209 -0.9207  0.3821  0.2602
  402Sol     HW 4595   2.548   3.282   8.346 -0.3471 -1.9084  0.6728
  402Sol     MW 4596   2.624   3.276   8.298 -0.0600 -0.1182  0.1435
  403Sol     OW 4597   2.300   1.788   5.989 -0.0294 -0.0677  0.2631
  403Sol     HW 4598   2.259   1.843   6.055 -1.7788  0.0555 -0.8991
  403Sol     HW 4599   2.334   1.849   5.924  1.0584 -0.2237  0.6613
  403Sol     MW 4600   2.300   1.798   5.989 -0.2339  0.5261  0.2220
  404Sol     OW 4601   2.854   3.005   1.435 -0.4030 -0.0115  0.2961
  404Sol     HW 4602   2.802   2.933   1.400  0.6023 -0.1705 -0.9027
  404Sol     HW 4603   2.867   3.063   1.360 -1.3810  1.5243  1.3031
  404Sol     MW 4604   2.851   3.004   1.425 -0.7085  0.5788 -0.0040
  405Sol     OW 4605   2.626   3.074   6.754  0.4703  0.2432  0.1119
  405Sol     HW 4606   2.657   3.098   6.667 -0.0113 -2.0811 -0.7448
  405Sol     HW 4607   2.697   3.023   6.792  0.5933  1.0692  1.0089
  405Sol     MW 4608   2.635   3.071   6.749  0.3338  0.8803  0.3959
  406Sol     OW 4609   0.776   1.016   8.673 -0.1185  0.0978 -0.2415
  406Sol     HW 4610   0.830   1.082   8.630 -0.0091 -0.1950 -0.5449
  406Sol     HW 4611   0.766   1.049   8.763 -0.8748  1.0268 -0.6619
  406Sol     MW 4612   0.780   1.025   8.678  1.2087  0.1990  0.6947
  407Sol     OW 4613   2.123   0.986   4.258  0.2123  0.1162  0.5164
  407Sol     HW 4614   2.064   1.053   4.293  0.9446  0.2257  1.5648
  407Sol     HW 4615   2.135   1.011   4.166 -0.2557  0.8941  0.6597
  407Sol     MW 4616   2.119   0.995   4.253  0.0401 -0.2853 -0.2512
  408Sol     OW 4617   0.488   1.990   8.008 -0.5698 -0.0585 -0.2864
  408Sol     HW 4618   0.542   1.965   7.934 -1.1347 -1.2480 -0.3136
  408Sol     HW 4619   0.522   2.075   8.036  0.1918 -0.0059 -1.3653
  408Sol     MW 4620   0.496   1.995   8.004 -0.0662  0.6262  0.3595
  409Sol     OW 4621   3.150   1.023   4.215  0.2654 -0.8895 -0.4069
  409Sol     HW 4622   3.127   1.115   4.227  0.3595 -1.1294  1.9360
  409Sol     HW 4623   3.240   1.017   4.247  0.3727 -1.7176 -0.8665
  409Sol     MW 4624   3.156   1.031   4.219  0.0055  0.6562 -0.5789
  410Sol     OW 4625   0.947   0.456   7.700 -0.0506  0.0877 -0.0608
  410Sol     HW 4626   0.910   0.538   7.668 -0.8965  0.0042  0.6468
  410Sol     HW 4627   0.991   0.480   7.782  0.0070 -0.0981 -0.0370
  410Sol     MW 4628   0.948   0.465   7.705  0.1213  0.3156  0.8471
  411Sol     OW 4629   0.992   1.703   6.693  0.1393  0.4641  0.6857
  411Sol     HW 4630   1.083   1.685   6.715  0.0193 -0.3485  0.5343
  411Sol     HW 4631   0.942   1.636   6.739 -0.2945  0.1760 -0.1969
  411Sol     MW 4632   0.995   1.696   6.699 -0.8167 -0.3114 -0.4205
  412Sol     OW 4633   0.495   1.261   8.708  0.2566  0.1146  0.5725
  412Sol     HW 4634   0.583   1.239   8.739  1.5926  2.1521 -1.6171
  412Sol     HW 4635   0.474   1.343   8.752  0.3512  0.7279 -0.5103
  412Sol     MW 4636   0.501   1.266   8.714  0.0630  0.2940 -0.1450
  413Sol     OW 4637   0.534   0.699   4.239  0.6532  0.0156 -0.0945
  413Sol     HW 4638   0.527   0.791   4.262 -2.7409  0.0933 -1.2085
  413Sol     HW 4639   0.616   0.692   4.190  0.8592  2.4566 -0.1186
  413Sol     MW 4640   0.541   0.706   4.236  0.3558  0.1109  0.1032
  414Sol     OW 4641   1.577   1.529   9.247  0.0833 -0.2720  0.4682
  414Sol     HW 4642   1.592   1.560   9.158 -0.8619 -1.1996 -0.0205
  414Sol     HW 4643   1.559   1.609   9.298  2.6678  0.4776  0.2834
  414Sol     MW 4644   1.576   1.539   9.244  0.7201 -0.0752  0.3195
  415Sol     OW 4645   2.190   0.031   3.620 -0.0306 -0.4304 -0.2496
  415Sol     HW 4646   2.235  -0.007   3.695  1.0352  3.2139  1.0810
  415Sol     HW 4647   2.115   0.078   3.657 -0.5247 -0.0800 -1.6409
  415Sol     MW 4648   2.187   0.032   3.630  0.8054  0.1858  0.2927
  416Sol     OW 4649   1.728   0.898   8.676 -0.5021 -0.4402 -0.6454
  416Sol     HW 4650   1.754   0.965   8.612 -0.7814 -0.6145 -0.9438
  416Sol     HW 4651   1.767   0.817   8.642 -1.5673 -0.7398 -1.1967
  416Sol     MW 4652   1.734   0.896   8.667  0.2752 -0.1944 -0.1154
  417Sol     OW 4653   2.636   2.095   3.547  0.0449  0.4198  0.3722
  417Sol     HW 4654   2.658   2.006   3.517 -1.9105 -0.3213  1.0325
  417Sol     HW 4655   2.596   2.137   3.471 -2.0431 -0.4056  0.9708
  417Sol     MW 4656   2.634   2.090   3.538 -0.3959  0.1377  0.8795
  418Sol     OW 4657   1.938   1.644   4.812  0.6830  0.4544 -0.0327
  418Sol     HW 4658   1.860   1.697   4.794  1.1030  0.6699 -1.2395
  418Sol     HW 4659   1.920   1.605   4.898 -0.7685  0.4868 -0.2967
  418Sol     MW 4660   1.929   1.645   4.818 -0.1114  0.0456 -0.0053
  419Sol     OW 4661   1.678   1.267   3.032 -0.0269  0.3148 -0.2762
  419Sol     HW 4662   1.680   1.192   3.092  1.0493  0.8894  0.4296
  419Sol     HW 4663   1.766   1.304   3.037 -0.3353  1.2007 -1.1671
  419Sol     MW 4664   1.686   1.264   3.038  0.2761  0.0253  0.3258
  420Sol     OW 4665   1.955   1.663   9.003  0.1786 -0.0431  0.6859
  420Sol     HW 4666   1.997   1.604   8.940  2.1974  0.1736  1.8075
  420Sol     HW 4667   1.931   1.607   9.077  3.1208  0.6940  2.2463
  420Sol     MW 4668   1.956   1.653   9.004  0.2302 -0.0955 -0.0149
  421Sol     OW 4669   2.670   2.844   3.891  0.3105  0.2357 -0.0069
  421Sol     HW 4670   2.603   2.861   3.957 -0.6508  0.1298 -0.9411
  421Sol     HW 4671   2.735   2.914   3.903 -0.5087  0.9634  0.2054
  421Sol     MW 4672   2.670   2.852   3.898  0.0385  0.0997 -0.0846
  422Sol     OW 4673   3.144   0.933   2.854  0.2447  0.1601 -0.4215
  422Sol     HW 4674   3.207   1.003   2.842  0.4226 -0.0446 -0.6834
  422Sol     HW 4675   3.061   0.969   2.821  0.6520 -0.2659 -1.9307
  422Sol     MW 4676   3.142   0.942   2.850 -0.1074 -0.2584  0.2923
  423Sol     OW 4677   0.915   0.706   8.616  0.0187 -0.7115  0.5222
  423Sol     HW 4678   0.852   0.773   8.641  1.9541  0.8528  1.3211
  423Sol     HW 4679   0.954   0.677   8.698  1.7694 -0.2246 -0.1223
  423Sol     MW 4680   0.913   0.709   8.625 -0.3833 -0.9081 -0.0442
  424Sol     OW 4681   1.053   0.273   9.262  0.2972 -0.6014  0.5871
  424Sol     HW 4682   1.007   0.189   9.258 -1.1552  0.2362 -0.6764
  424Sol     HW 4683   0.985   0.338   9.245  1.4996  0.8165  1.1084
  424Sol     MW 4684   1.043   0.271   9.260  0.2598  0.4431  0.1211
  425Sol     OW 4685   2.059   2.784   4.952  0.6054 -0.2168 -0.0518
  425Sol     HW 4686   2.095   2.747   4.872  0.4156  0.9698 -0.6974
  425Sol     HW 4687   2.064   2.713   5.016 -0.3307 -1.5541 -1.4253
  425Sol     MW 4688   2.062   2.775   4.951 -0.4124 -0.0425 -0.3611
  426Sol     OW 4689   2.376   0.526   2.110  0.3065 -0.3285 -0.1174
  426Sol     HW 4690   2.348   0.477   2.033 -0.9074 -0.4238  0.3770
  426Sol     HW 4691   2.437   0.592   2.076  0.5011 -0.9724 -1.0296
  426Sol     MW 4692   2.379   0.528   2.100 -0.0099 -0.5678 -0.5922
  427Sol     OW 4693   1.236   3.082   7.688 -0.5900 -0.1438  0.3547
  427Sol     HW 4694   1.192   3.152   7.641 -1.7333 -2.2762 -1.8189
  427Sol     HW 4695   1.246   3.116   7.777  1.6178  3.9550 -1.3066
  427Sol     MW 4696   1.233   3.091   7.692  0.1267  0.8260  0.7180
  428Sol     OW 4697   0.260   3.304   7.762  0.1826  0.2467 -0.8283
  428Sol     HW 4698   0.233   3.305   7.671 -2.0760 -0.6548 -0.1954
  428Sol     HW 4699   0.293   3.216   7.777  0.3996  0.3432 -0.7357
  428Sol     MW 4700   0.261   3.297   7.755  0.5989 -0.1441 -0.3270
  429Sol     OW 4701   2.548   0.530   6.429 -0.5715 -0.1141 -0.2591
  429Sol     HW 4702   2.553   0.439   6.399 -2.9511  0.1529 -1.6161
  429Sol     HW 4703   2.560   0.582   6.350  0.3021  0.7437  0.4387
  429Sol     MW 4704   2.549   0.527   6.419  0.4103 -0.3312  0.1326
  430Sol     OW 4705   0.708   0.180   4.634  0.1449 -0.3319  0.0961
  430Sol     HW 4706   0.693   0.198   4.541 -1.0590  0.5719  0.4525
  430Sol     HW 4707   0.752   0.258   4.666 -2.5017  0.8345  1.0175
  430Sol     MW 4708   0.710   0.188   4.628 -0.7085 -0.0107  0.2405
  431Sol     OW 4709   0.510   1.681   4.979  0.3041 -0.2689  0.1860
  431Sol     HW 4710   0.460   1.749   4.935 -0.4601 -0.8469  0.1595
  431Sol     HW 4711   0.452   1.648   5.047  0.8132 -0.6410  0.4453
  431Sol     MW 4712   0.501   1.684   4.981 -0.1210 -0.5261 -0.4432
  432Sol     OW 4713   3.170   1.284   7.802  0.8144 -0.0037 -0.1996
  432Sol     HW 4714   3.169   1.359   7.742  1.1381  1.4871  1.5933
  432Sol     HW 4715   3.083   1.245   7.792  0.4503  0.9273 -0.7813
  432Sol     MW 4716   3.162   1.288   7.796  0.6290  0.0720  0.4502
  433Sol     OW 4717   1.235   0.840   1.858 -0.7978  0.4848 -0.2526
  433Sol     HW 4718   1.204   0.773   1.918 -1.3457  0.2929 -0.7426
  433Sol     HW 4719   1.161   0.856   1.800  0.0665 -0.1194 -1.5567
  433Sol     MW 4720   1.225   0.835   1.858 -0.3380 -0.5203 -0.5208
  434Sol     OW 4721   0.430   3.290   6.439 -0.2385 -0.6253 -0.3041
  434Sol     HW 4722   0.521   3.280   6.467 -0.1623 -0.2993 -0.4295
  434Sol     HW 4723   0.385   3.324   6.516 -0.3336 -1.1423 -0.1262
  434Sol     MW 4724   0.434   3.292   6.449 -0.2645 -1.0203 -0.7276
  435Sol     OW 4725   1.470   2.939   4.456  0.1563  0.1446  0.4299
  435Sol     HW 4726   1.448   2.958   4.364  0.6040  0.7963  0.4516
  435Sol     HW 4727   1.457   2.845   4.465  0.0533  0.0883 -0.2920
  435Sol     MW 4728   1.467   2.933   4.448 -0.0106  0.3274 -0.0234
  436Sol     OW 4729   2.132   0.904   6.492  0.4048 -0.3701 -0.2012
  436Sol     HW 4730   2.116   0.970   6.560  1.2567 -0.4765  0.1143
  436Sol     HW 4731   2.227   0.905   6.481  0.3029 -0.6500 -1.1030
  436Sol     MW 4732   2.139   0.910   6.497 -0.2631  1.1694 -0.5572
  437Sol     OW 4733   2.662   0.769   4.276 -0.0310 -0.5284  0.1627
  437Sol     HW 4734   2.604   0.808   4.342  0.5178 -1.2155  1.0741
  437Sol     HW 4735   2.720   0.840   4.250 -1.0848  0.0803 -0.5276
  437Sol     MW 4736   2.662   0.779   4.280  0.1616 -0.2909 -0.1426
  438Sol     OW 4737   0.912   3.034   3.607 -0.4040 -0.0992 -0.2721
  438Sol     HW 4738   0.886   3.123   3.583  2.1963  0.1317 -2.4051
  438Sol     HW 4739   1.002   3.026   3.577  0.1169 -2.7855  1.7650
  438Sol     MW 4740   0.917   3.042   3.602  0.0514 -0.8340  0.1656
  439Sol     OW 4741   0.945   0.031   4.734  0.2809  0.5966 -0.6729
  439Sol     HW 4742   1.020   0.082   4.703 -0.2535  1.3087 -0.8201
  439Sol     HW 4743   0.869   0.086   4.713 -0.1454  0.7571  1.2000
  439Sol     MW 4744   0.945   0.041   4.730 -0.0457  0.0687 -0.0653
  440Sol     OW 4745   2.971   1.064   7.865 -0.1204  0.4582  0.3361
  440Sol     HW 4746   3.041   1.009   7.899 -0.7964 -0.1791  0.7232
  440Sol     HW 4747   2.894   1.040   7.917 -0.5988  1.2193 -0.0094
  440Sol     MW 4748   2.970   1.057   7.872  0.3399 -0.6881  0.3021
  441Sol     OW 4749   1.204   0.076   4.305 -0.1135  0.0338  0.0982
  441Sol     HW 4750   1.271   0.034   4.360  0.2920 -0.4633 -0.7738
  441Sol     HW 4751   1.182   0.156   4.353 -0.8554 -1.1208  1.7600
  441Sol     MW 4752   1.208   0.079   4.314  0.2286 -0.2656 -0.0946
  442Sol     OW 4753   3.038   2.368   9.797 -0.2049  0.2854 -0.0971
  442Sol     HW 4754   3.024   2.318   9.878 -0.7347 -0.1784 -0.4701
  442Sol     HW 4755   3.128   2.401   9.806 -0.4633  0.7401  0.9419
  442Sol     MW 4756   3.045   2.366   9.805 -0.3924  0.3224  0.3143
  443Sol     OW 4757   1.192   0.525   4.992  0.1903  0.2266  0.2805
  443Sol     HW 4758   1.235   0.601   4.952  0.6046 -1.0412 -1.7301
  443Sol     HW 4759   1.140   0.562   5.063  1.2885  2.2679  0.0706
  443Sol     MW 4760   1.192   0.535   4.995 -0.0555  0.4187 -0.5383
  444Sol     OW 4761   2.125   0.904   1.842  0.3690  0.2652 -0.0406
  444Sol     HW 4762   2.174   0.922   1.762 -0.9313  1.3107 -0.6207
  444Sol     HW 4763   2.188   0.919   1.913  0.8560  1.7027 -0.7581
  444Sol     MW 4764   2.135   0.907   1.841  0.2274  0.2847  0.1502
  445Sol     OW 4765   1.746   1.102   7.228  0.0533  1.1180 -0.2432
  445Sol     HW 4766   1.692   1.024   7.219  1.3353  0.1640  0.1097
  445Sol     HW 4767   1.805   1.082   7.301  1.8305  1.5473 -1.5292
  445Sol     MW 4768   1.747   1.093   7.234  0.2074 -0.1820  0.5872
  446Sol     OW 4769   2.496   0.097   7.395 -0.3718  0.5091  0.5794
  446Sol     HW 4770   2.494   0.114   7.301 -0.2284 -1.0902  0.2610
  446Sol     HW 4771   2.460   0.009   7.404  0.5723  0.2299  1.9139
  446Sol     MW 4772   2.493   0.090   7.388  0.2757 -0.4579 -0.0088
  447Sol     OW 4773   2.250   0.278   4.308 -0.0911 -0.0617 -0.2036
  447Sol     HW 4774   2.332   0.288   4.258  0.3391  0.7064  0.6350
  447Sol     HW 4775   2.236   0.364   4.347  0.6448 -1.1501  2.6104
  447Sol     MW 4776   2.256   0.287   4.307  0.6481  0.1206 -0.3773
  448Sol     OW 4777   0.800   0.859   4.583  0.8843 -0.6932  0.4518
  448Sol     HW 4778   0.751   0.780   4.562  0.7362 -1.0203  1.9773
  448Sol     HW 4779   0.804   0.860   4.678  0.5125  1.3585  0.4738
  448Sol     MW 4780   0.796   0.852   4.589  0.5767 -0.0466 -0.1496
  449Sol     OW 4781   0.965   1.555   9.529 -0.2874 -0.3792  0.6234
  449Sol     HW 4782   0.888   1.605   9.556  0.3870  0.6122  0.7341
  449Sol     HW 4783   0.940   1.463   9.543 -1.8003 -0.1231 -0.3047
  449Sol     MW 4784   0.955   1.551   9.533  0.0826  0.1518  0.1608
  450Sol     OW 4785   0.443   1.449   1.970 -0.6506  0.0005  0.1965
  450Sol     HW 4786   0.470   1.540   1.960  0.8319 -0.4944 -0.4324
  450Sol     HW 4787   0.469   1.426   2.059  0.0087 -0.1462 -0.0331
  450Sol     MW 4788   0.448   1.455   1.977 -0.2571 -0.0913  0.0856
  451Sol     OW 4789   0.373   0.273   4.925  0.5249  0.3010  0.0948
  451Sol     HW 4790   0.382   0.308   5.014  1.4707 -0.4020  0.2793
  451Sol     HW 4791   0.421   0.191   4.927 -0.6538 -0.4157 -0.6840
  451Sol     MW 4792   0.378   0.269   4.933  0.1443  0.5606  0.0489
  452Sol     OW 4793   2.270   1.274   2.029  0.2702  0.0876  0.7910
  452Sol     HW 4794   2.236   1.192   2.064  0.0015 -0.6070 -1.0213
  452Sol     HW 4795   2.192   1.327   2.011  0.3379  0.0299  0.3016
  452Sol     MW 4796   2.260   1.272   2.030  0.6416  0.4578  0.0739
  453Sol     OW 4797   2.453   2.790   3.600  0.2283  0.0095  0.0223
  453Sol     HW 4798   2.549   2.787   3.608  0.1374  0.4705  1.3790
  453Sol     HW 4799   2.421   2.764   3.686 -0.8762  0.3141 -0.2860
  453Sol     MW 4800   2.459   2.787   3.608  0.1766 -0.0058  0.1399
  454Sol     OW 4801   2.239   0.395   3.135  0.3554  0.4738 -0.6787
  454Sol     HW 4802   2.301   0.324   3.118  0.2519 -0.0651  1.1443
  454Sol     HW 4803   2.243   0.408   3.230 -1.0530  1.6026 -0.7669
  454Sol     MW 4804   2.245   0.390   3.142 -0.0545 -0.0720  0.1130
  455Sol     OW 4805   0.430   2.572   3.781  0.2575 -0.3228  0.7127
  455Sol     HW 4806   0.442   2.500   3.843  0.1113 -0.5795  0.4380
  455Sol     HW 4807   0.475   2.543   3.702  0.1382 -0.1400  0.5799
  455Sol     MW 4808   0.435   2.563   3.780  0.4703  0.5406  0.2645
  456Sol     OW 4809   1.474   2.992   4.852  0.6369 -0.2195 -0.3314
  456Sol     HW 4810   1.390   2.975   4.809  0.6650 -1.4378  0.0815
  456Sol     HW 4811   1.539   2.978   4.783  0.5349  0.4363 -0.5730
  456Sol     MW 4812   1.472   2.989   4.842  0.2157  0.4375 -0.0224
  457Sol     OW 4813   2.789   1.023   2.560 -0.0367  0.1142  0.2034
  457Sol     HW 4814   2.756   0.936   2.583  0.1737 -0.3497 -1.2047
  457Sol     HW 4815   2.839   1.009   2.480 -0.4774  1.6258 -0.3487
  457Sol     MW 4816   2.791   1.014   2.555  0.7248 -0.5465 -0.0976
  458Sol     OW 4817   1.852   0.577   2.490  0.3806 -0.2785  0.5915
  458Sol     HW 4818   1.774   0.624   2.460  1.5085  1.9360  0.9939
  458Sol     HW 4819   1.889   0.634   2.558  2.0580 -1.5512  0.7732
  458Sol     MW 4820   1.849   0.586   2.493 -0.4628  0.4814 -0.3923
  459Sol     OW 4821   1.351   1.831   2.475 -0.1283  0.2243 -0.0984
  459Sol     HW 4822   1.351   1.798   2.565 -1.5057  0.0044 -0.1730
  459Sol     HW 4823   1.329   1.756   2.421  0.6018  0.3801 -0.6189
  459Sol     MW 4824   1.349   1.822   2.478 -0.4608  0.1010 -0.1545
  460Sol     OW 4825   3.271   2.498   2.654 -0.6112  0.1431 -0.0324
  460Sol     HW 4826   3.236   2.568   2.598  0.9277  0.8908 -0.0756
  460Sol     HW 4827   3.241   2.417   2.611 -2.3745  0.7491 -0.0005
  460Sol     MW 4828   3.265   2.497   2.645 -0.6449  0.4071 -0.2120
  461Sol     OW 4829   1.199   2.465   9.218  0.1197 -0.1548 -0.3694
  461Sol     HW 4830   1.221   2.521   9.144 -1.2796 -1.5951 -1.9155
  461Sol     HW 4831   1.194   2.377   9.182 -0.0486 -0.9737  1.5499
  461Sol     MW 4832   1.201   2.462   9.208 -0.1621 -0.7832 -0.3072
  462Sol     OW 4833   3.281   2.430   7.923  0.4429 -0.1517 -0.0693
  462Sol     HW 4834   3.311   2.420   7.833 -1.3925  0.5602 -0.7667
  462Sol     HW 4835   3.362   2.443   7.973  1.3615  0.9944 -1.8122
  462Sol     MW 4836   3.291   2.430   7.919 -0.4376 -0.2685 -0.6111
  463Sol     OW 4837   0.700   1.300   4.355  0.2284  0.3299 -0.0287
  463Sol     HW 4838   0.690   1.213   4.395  0.7202 -0.0938 -0.8091
  463Sol     HW 4839   0.616   1.316   4.313 -0.0660  0.4899  0.6175
  463Sol     MW 4840   0.692   1.293   4.355  0.1257 -0.2723  0.4295
  464Sol     OW 4841   3.162   0.202   2.743 -0.0979 -0.1740  0.5752
  464Sol     HW 4842   3.131   0.182   2.655 -3.3407  2.7593  0.9665
  464Sol     HW 4843   3.212   0.283   2.734  0.7618 -0.6137  1.2401
  464Sol     MW 4844   3.163   0.208   2.734 -0.6464  0.0362 -0.7742
  465Sol     OW 4845   1.558   2.429   5.722  0.1237  0.0934  0.0429
  465Sol     HW 4846   1.516   2.465   5.801 -1.9815 -0.1086 -0.9627
  465Sol     HW 4847   1.623   2.367   5.756  0.0777  0.8920  1.6488
  465Sol     MW 4848   1.560   2.427   5.732  0.4354 -0.1117  0.1744
  466Sol     OW 4849   1.789   2.858   7.855 -0.0306 -0.2686  0.0396
  466Sol     HW 4850   1.788   2.912   7.777  0.1023 -0.7860 -0.3193
  466Sol     HW 4851   1.725   2.900   7.914 -0.3013 -0.0178 -0.4342
  466Sol     MW 4852   1.783   2.867   7.854 -0.7849 -0.2707 -0.6027
  467Sol     OW 4853   1.312   3.357   5.684 -0.2180 -0.5974 -0.2598
  467Sol     HW 4854   1.255   3.291   5.724 -2.2091  2.0746  1.5512
  467Sol     HW 4855   1.252   3.417   5.641  1.2891  1.6148  0.6345
  467Sol     MW 4856   1.301   3.357   5.684  0.5969 -0.7005 -1.0517
  468Sol     OW 4857   2.761   1.638   6.354 -0.2751  0.1119  0.3088
  468Sol     HW 4858   2.788   1.628   6.262 -1.6076 -0.9426  0.0308
  468Sol     HW 4859   2.667   1.650   6.350 -0.0375  2.7433  1.3693
  468Sol     MW 4860   2.755   1.638   6.345 -0.0536  0.6656  0.4945
  469Sol     OW 4861   0.627   0.645   1.573  0.2889  0.0644  0.4146
  469Sol     HW 4862   0.544   0.683   1.542  0.1381  0.1281  0.8882
  469Sol     HW 4863   0.689   0.662   1.503 -0.4410 -1.2142 -0.5651
  469Sol     MW 4864   0.625   0.650   1.564 -0.5118  0.5051  0.3420
  470Sol     OW 4865   2.413   3.080   2.656  0.2718  0.5289 -0.1981
  470Sol     HW 4866   2.420   3.007   2.595  0.5742  2.1593 -2.1676
  470Sol     HW 4867   2.496   3.079   2.704  1.4088  1.2126 -2.1060
  470Sol     MW 4868   2.421   3.073   2.655 -0.3090 -0.0516  0.5241
  471Sol     OW 4869   0.033   0.917   6.815  0.6609  0.1882  0.0542
  471Sol     HW 4870   0.092   0.978   6.859  0.1245 -0.1496  1.2635
  471Sol     HW 4871  -0.030   0.892   6.882  1.6846 -2.7891 -0.0317
  471Sol     MW 4872   0.033   0.921   6.825 -0.2320 -0.2095  0.0511
  472Sol     OW 4873   0.292   2.613   4.063  0.3220 -0.1757  0.2318
  472Sol     HW 4874   0.198   2.617   4.046  0.4243  0.6887 -0.1590
  472Sol     HW 4875   0.301   2.622   4.157  0.0600  0.5608  0.1846
  472Sol     MW 4876   0.285   2.614   4.070  0.1891  0.3028  0.4632
  473Sol     OW 4877   0.395   2.964   5.426  0.2117  0.3552  0.4832
  473Sol     HW 4878   0.315   2.994   5.382 -0.2974 -1.9014 -0.1894
  473Sol     HW 4879   0.466   3.007   5.377 -0.4361 -0.5492 -1.3139
  473Sol     MW 4880   0.394   2.970   5.417 -0.6769 -0.0077 -0.7168
  474Sol     OW 4881   2.799   0.908   7.222  0.3866  0.2131 -0.2372
  474Sol     HW 4882   2.751   0.913   7.140  0.5717 -1.5317 -0.4806
  474Sol     HW 4883   2.884   0.870   7.198  0.4387 -0.3056  0.7345
  474Sol     MW 4884   2.802   0.905   7.213  0.1447  0.0948  0.0831
  475Sol     OW 4885   2.001   1.740   8.137 -0.4461 -0.4262  0.1968
  475Sol     HW 4886   1.991   1.794   8.216 -0.2649 -1.7405  1.1238
  475Sol     HW 4887   2.093   1.751   8.112 -0.8077  0.9741 -0.5582
  475Sol     MW 4888   2.008   1.746   8.142 -0.3292 -1.3280 -0.0698
  476Sol     OW 4889   3.294   3.210   7.617  0.7085  0.2257  0.3596
  476Sol     HW 4890   3.266   3.274   7.552 -1.0595 -0.3696  0.5074
  476Sol     HW 4891   3.281   3.254   7.701 -2.5034 -0.9945  0.5783
  476Sol     MW 4892   3.290   3.219   7.619 -1.2952 -0.5980 -0.7399
  477Sol     OW 4893   0.467   1.750   3.435 -0.1139 -0.2727 -0.0452
  477Sol     HW 4894   0.420   1.831   3.414  0.7496  0.1044 -0.5613
  477Sol     HW 4895   0.523   1.774   3.509  0.5083 -0.2496 -0.5130
  477Sol     MW 4896   0.468   1.760   3.439  0.8021  0.6260  0.0421
  478Sol     OW 4897   3.257   2.499   4.277 -0.4734 -0.2624 -0.1432
  478Sol     HW 4898   3.216   2.487   4.191 -1.0005 -2.9057  0.4278
  478Sol     HW 4899   3.320   2.427   4.284  1.1172  1.1699  0.8388
  478Sol     MW 4900   3.259   2.492   4.270 -0.2631  0.1905 -0.5652
  479Sol     OW 4901   0.862   1.218   9.172 -0.1702  0.1065 -0.1668
  479Sol     HW 4902   0.780   1.245   9.131 -1.1408  1.4120  2.5703
  479Sol     HW 4903   0.842   1.134   9.212  0.0282  0.1143 -0.0532
  479Sol     MW 4904   0.853   1.213   9.172 -0.0395 -0.4673  0.6926
  480Sol     OW 4905   3.267   1.961   8.732 -0.5451  0.2133 -0.0908
  480Sol     HW 4906   3.246   1.890   8.671 -0.6043  0.6790 -0.6181
  480Sol     HW 4907   3.279   2.038   8.676 -1.8749  0.9380  0.6000
  480Sol     MW 4908   3.266   1.962   8.721  0.1318 -0.3926 -0.0449
  481Sol     OW 4909   0.130   3.250   6.475  0.1137 -0.0849 -0.6705
  481Sol     HW 4910   0.105   3.320   6.534  0.4909 -0.8361  0.3831
  481Sol     HW 4911   0.225   3.259   6.465 -0.0587  0.5904 -1.8857
  481Sol     MW 4912   0.136   3.257   6.479  0.4777 -0.9485  0.7371
  482Sol     OW 4913   0.469   0.092   3.586 -0.0928 -0.8184  0.0646
  482Sol     HW 4914   0.377   0.101   3.563  0.1336  0.4317 -0.4091
  482Sol     HW 4915   0.513   0.071   3.504  0.1439 -0.6405  0.1449
  482Sol     MW 4916   0.465   0.091   3.577 -0.3670  0.1743  0.5641
  483Sol     OW 4917   2.407   2.650   2.276  0.1963 -0.3457 -0.0381
  483Sol     HW 4918   2.445   2.563   2.289 -2.4806 -1.6042 -0.1218
  483Sol     HW 4919   2.450   2.706   2.341 -1.2529 -2.8113  3.2031
  483Sol     MW 4920   2.414   2.647   2.283 -0.1756 -0.4673  0.1111
  484Sol     OW 4921   2.250   2.723   3.841 -0.6511  0.0098  0.0709
  484Sol     HW 4922   2.240   2.629   3.826  1.3718 -0.8391  3.6161
  484Sol     HW 4923   2.161   2.757   3.846 -1.3965 -1.7808 -0.7921
  484Sol     MW 4924   2.241   2.718   3.840 -1.0712 -0.1687 -0.4855
  485Sol     OW 4925   3.099   2.555   7.603 -0.2095  0.1553  0.2188
  485Sol     HW 4926   3.075   2.589   7.689  2.1462  0.9141  0.6322
  485Sol     HW 4927   3.186   2.517   7.616  0.5103  0.9685 -1.9931
  485Sol     MW 4928   3.105   2.554   7.612 -0.4518  0.1550 -0.5753
  486Sol     OW 4929   2.925   0.017   9.386  0.1293  0.1995 -0.3740
  486Sol     HW 4930   3.014   0.047   9.372  0.1715  0.0640 -0.3941
  486Sol     HW 4931   2.893  -0.006   9.299  0.7968 -1.7894 -0.1130
  486Sol     MW 4932   2.930   0.017   9.377 -0.3149  0.2826  0.1933
  487Sol     OW 4933   2.634   0.680   5.692 -0.0171 -0.3200  0.3845
  487Sol     HW 4934   2.673   0.620   5.756 -0.9545 -1.4615 -0.0902
  487Sol     HW 4935   2.559   0.719   5.738 -0.8561 -1.3451 -0.0707
  487Sol     MW 4936   2.630   0.678   5.702 -0.0694  0.1722  0.1536
  488Sol     OW 4937   1.679   1.435   7.307  0.6580 -0.0357 -0.2570
  488Sol     HW 4938   1.634   1.373   7.249  1.9474 -1.5854  0.3495
  488Sol     HW 4939   1.611   1.496   7.334 -0.4437 -0.6250 -1.6394
  488Sol     MW 4940   1.669   1.435   7.304  0.0432 -0.1129  0.3505
  489Sol     OW 4941   0.373   1.718   3.085 -0.5105  0.1344  0.0310
  489Sol     HW 4942   0.468   1.712   3.084 -0.3766  1.3084  1.9932
  489Sol     HW 4943   0.353   1.802   3.044 -0.7808 -0.5541 -1.2897
  489Sol     MW 4944   0.379   1.725   3.082 -0.3406 -0.2647 -0.3950
  490Sol     OW 4945   3.251   0.104   6.864  0.1701  0.3344 -0.2444
  490Sol     HW 4946   3.330   0.133   6.909  1.0266  1.7453 -2.5877
  490Sol     HW 4947   3.216   0.034   6.919  0.2913  3.0348  3.4719
  490Sol     MW 4948   3.255   0.100   6.873  0.1075  0.6105 -0.1762
  491Sol     OW 4949   2.280   1.536   4.443 -0.0248 -0.0714  0.5115
  491Sol     HW 4950   2.279   1.442   4.466  2.0652 -0.1399  0.3889
  491Sol     HW 4951   2.359   1.570   4.486  0.3718  1.1933 -1.1948
  491Sol     MW 4952   2.287   1.530   4.449 -0.1217  0.2623 -0.3345
  492Sol     OW 4953   3.013   3.028   5.076  0.2692 -0.1288 -0.4034
  492Sol     HW 4954   3.024   3.024   5.171  0.5171  1.2339 -0.3673
  492Sol     HW 4955   3.000   3.121   5.057  0.7835 -0.3194 -1.7626
  492Sol     MW 4956   3.013   3.036   5.083  0.6142  0.4858 -0.0729
  493Sol     OW 4957   2.740   2.700   4.692  0.1668  0.4170  0.1599
  493Sol     HW 4958   2.653   2.667   4.672 -0.0286  0.8366  0.3100
  493Sol     HW 4959   2.799   2.642   4.644 -0.2610  1.0412 -1.1636
  493Sol     MW 4960   2.738   2.692   4.686  0.1998  0.2450 -0.4273
  494Sol     OW 4961   2.819   0.763   2.862  0.4939  0.5119  0.5025
  494Sol     HW 4962   2.887   0.722   2.915  0.8147  0.6495  0.1907
  494Sol     HW 4963   2.824   0.718   2.778 -2.6525 -2.5696  1.7950
  494Sol     MW 4964   2.825   0.755   2.859 -0.0735 -0.4740  0.6092
  495Sol     OW 4965   2.076   1.714   1.901  0.4854  0.0157 -0.2831
  495Sol     HW 4966   2.129   1.773   1.849  0.0549  1.5228  0.9497
  495Sol     HW 4967   1.986   1.742   1.886  0.3271  0.1820  0.9024
  495Sol     MW 4968   2.073   1.722   1.895  0.0582 -0.1565 -0.3367
  496Sol     OW 4969   0.446   2.380   2.079 -0.0752  0.5021 -0.1400
  496Sol     HW 4970   0.406   2.454   2.032  0.9898  0.3690 -1.2790
  496Sol     HW 4971   0.379   2.312   2.078  0.3116  0.1181 -2.4272
  496Sol     MW 4972   0.436   2.381   2.075  0.1235 -0.0432 -0.3151
  497Sol     OW 4973   1.451   2.205   7.776 -0.3212 -0.4827 -0.2576
  497Sol     HW 4974   1.466   2.192   7.870  1.1349 -1.1707 -0.5631
  497Sol     HW 4975   1.356   2.203   7.766 -0.4801 -0.7269  1.1551
  497Sol     MW 4976   1.444   2.204   7.784 -0.2237  0.2729  0.1827
  498Sol     OW 4977   0.010   0.870   2.538 -0.2089  0.2881  0.1284
  498Sol     HW 4978  -0.024   0.958   2.553 -0.8845  0.2621 -1.2036
  498Sol     HW 4979   0.105   0.881   2.539 -0.2908  1.0465 -0.0835
  498Sol     MW 4980   0.016   0.879   2.539 -0.7239  0.5257 -0.7449
  499Sol     OW 4981   2.627   1.134   7.578 -0.0161  0.3453  0.0008
  499Sol     HW 4982   2.648   1.074   7.506  0.2546 -0.7534  0.9783
  499Sol     HW 4983   2.540   1.167   7.556 -0.9762 -1.8355  0.3657
  499Sol     MW 4984   2.621   1.132   7.569  0.8617 -0.2019 -0.3698
  500Sol     OW 4985   3.109   0.389   4.024  0.7918  0.0379  0.3605
  500Sol     HW 4986   3.059   0.469   4.041  1.2188  0.5215 -0.6214
  500Sol     HW 4987   3.049   0.318   4.048  0.6051  0.6503  1.7573
  500Sol     MW 4988   3.099   0.390   4.027  0.0235  0.1828 -0.0890
  501Sol     OW 4989   2.737   1.103   5.990 -0.2496  0.0366 -0.1604
  501Sol     HW 4990   2.740   1.081   6.083  0.5573 -2.1241 -0.6570
  501Sol     HW 4991   2.829   1.098   5.962 -0.6100 -0.3422 -1.2939
  501Sol     MW 4992   2.746   1.101   5.996 -0.1044 -0.6117 -0.0368
  502Sol     OW 4993   3.245   2.323   4.610  0.5126 -0.4106  0.6951
  502Sol     HW 4994   3.180   2.307   4.541  1.1608 -0.9907  0.2039
  502Sol     HW 4995   3.208   2.282   4.688  1.0950 -2.3107 -0.0068
  502Sol     MW 4996   3.236   2.318   4.611 -0.5459  0.5496  0.0910
  503Sol     OW 4997   0.088   2.789   5.243 -0.3709  0.3817 -0.4213
  503Sol     HW 4998   0.172   2.767   5.202  0.1288 -1.4789  1.4562
  503Sol     HW 4999   0.023   2.775   5.175  0.6817  0.0536 -1.3684
  503Sol     MW 5000   0.090   2.786   5.233  0.4560  0.1958  0.1646
  504Sol     OW 5001   0.220   0.170   9.379 -0.3880  0.2744 -0.0901
  504Sol     HW 5002   0.255   0.119   9.305  0.6797 -0.6013  0.9949
  504Sol     HW 5003   0.208   0.106   9.449  2.4358  1.7394  1.8128
  504Sol     MW 5004   0.222   0.160   9.378  0.3484 -0.0444  0.4620
  505Sol     OW 5005   2.879   0.781   5.489 -0.3648  0.4031 -0.2893
  505Sol     HW 5006   2.927   0.699   5.492 -0.6612  0.2658  0.6039
  505Sol     HW 5007   2.880   0.814   5.579  0.1625  1.6132 -0.7213
  505Sol     MW 5008   2.883   0.777   5.497  0.3286  0.0712  0.5435
  506Sol     OW 5009   3.195   2.721   8.873  0.7373 -0.0006  0.0511
  506Sol     HW 5010   3.143   2.802   8.879 -0.3663 -0.6646 -0.4041
  506Sol     HW 5011   3.236   2.726   8.787  0.3094 -0.1336 -0.1633
  506Sol     MW 5012   3.194   2.729   8.866 -0.6025  0.1680  0.1003
  507Sol     OW 5013   0.681   1.237   9.467  0.2057  0.5852 -0.4906
  507Sol     HW 5014   0.713   1.191   9.389  0.5227  1.2725 -0.7595
  507Sol     HW 5015   0.759   1.253   9.520 -0.1552 -0.9638  0.5510
  507Sol     MW 5016   0.691   1.234   9.465  0.5437 -0.4050 -0.1197
  508Sol     OW 5017   2.074   1.474   4.166 -0.2290  0.1054 -0.1502
  508Sol     HW 5018   2.062   1.539   4.235 -2.3016  0.0523 -0.4294
  508Sol     HW 5019   2.053   1.520   4.085  0.1718 -0.3864 -0.5379
  508Sol     MW 5020   2.071   1.484   4.165 -0.1225 -0.2591  0.4054
  509Sol     OW 5021   0.689   2.723   3.900  0.2679  0.2551  0.2508
  509Sol     HW 5022   0.612   2.696   3.850 -0.7587  3.0384  0.2307
  509Sol     HW 5023   0.758   2.735   3.834 -0.0357  0.3448 -0.0487
  509Sol     MW 5024   0.688   2.721   3.890 -0.4203  0.1785 -0.6581
  510Sol     OW 5025   1.769   2.720   6.553  0.3259 -0.4331 -0.6918
  510Sol     HW 5026   1.840   2.658   6.569  0.8840  0.1360 -0.9376
  510Sol     HW 5027   1.780   2.787   6.619 -0.2799 -0.5878 -0.4255
  510Sol     MW 5028   1.776   2.720   6.560 -0.6284 -0.0341 -0.5828
  511Sol     OW 5029   0.719   1.494   4.929 -0.0844  0.0905 -0.2247
  511Sol     HW 5030   0.802   1.538   4.911  0.0981 -0.6320 -1.2138
  511Sol     HW 5031   0.655   1.566   4.933  0.2199  0.4828 -1.7798
  511Sol     MW 5032   0.720   1.505   4.927  0.1096 -0.2459  0.0234
  512Sol     OW 5033   2.833   0.308   3.824  0.1965 -0.0729 -0.2367
  512Sol     HW 5034   2.880   0.359   3.758 -1.1511 -0.0998 -1.2225
  512Sol     HW 5035   2.798   0.374   3.885  1.6257 -0.0619  0.6010
  512Sol     MW 5036   2.834   0.319   3.824  0.4137 -0.6367 -0.1597
  513Sol     OW 5037   3.037   2.311   2.396  0.1269  0.2354  0.5094
  513Sol     HW 5038   2.944   2.327   2.385 -0.0096 -0.9840 -0.2655
  513Sol     HW 5039   3.079   2.357   2.322 -0.0222 -0.6336 -0.1282
  513Sol     MW 5040   3.033   2.316   2.388 -0.3201 -0.5014 -0.2922
  514Sol     OW 5041   1.354   0.251   3.601 -0.3023  0.2246 -0.1839
  514Sol     HW 5042   1.340   0.158   3.584 -1.0478  0.3755 -0.4146
  514Sol     HW 5043   1.329   0.263   3.693 -2.3126  0.6104 -0.7653
  514Sol     MW 5044   1.351   0.244   3.608 -0.3243 -0.3837  0.1726
  515Sol     OW 5045   0.126   0.179   4.860  0.0087  0.3427  0.1171
  515Sol     HW 5046   0.138   0.122   4.784 -0.1560  1.1451 -0.5134
  515Sol     HW 5047   0.214   0.208   4.883  0.2827 -1.4444  1.4491
  515Sol     MW 5048   0.135   0.176   4.855  0.4923 -0.0314 -0.0172
  516Sol     OW 5049   1.832   1.149   5.449 -0.2581  0.3119 -0.1178
  516Sol     HW 5050   1.887   1.168   5.525 -0.7917 -0.7280  0.5441
  516Sol     HW 5051   1.805   1.058   5.462 -3.9149  1.4424  0.6921
  516Sol     MW 5052   1.834   1.143   5.457  0.7293 -0.3949 -0.5755
  517Sol     OW 5053   0.609   2.432   8.372 -0.0487 -0.4987  0.1524
  517Sol     HW 5054   0.599   2.418   8.466 -0.0246  1.0938  0.4164
  517Sol     HW 5055   0.701   2.455   8.360  0.0473 -1.1231 -0.3179
  517Sol     MW 5056   0.616   2.433   8.379 -0.0384  0.2926  0.6009
  518Sol     OW 5057   1.063   0.605   7.909 -0.2423 -0.1921  0.0122
  518Sol     HW 5058   1.086   0.601   8.002 -0.7913  1.7521  0.2438
  518Sol     HW 5059   1.050   0.698   7.892 -0.9248 -0.6191 -1.8283
  518Sol     MW 5060   1.064   0.613   7.916 -0.3594  0.3700 -0.0136
  519Sol     OW 5061   0.608   1.721   6.234  0.2985 -0.1949  0.2914
  519Sol     HW 5062   0.536   1.783   6.248  1.0115  0.8613 -0.6047
  519Sol     HW 5063   0.571   1.635   6.254 -1.1268  0.3667  0.1000
  519Sol     MW 5064   0.598   1.719   6.237  0.2519  0.2596 -0.1655
  520Sol     OW 5065   0.103   0.671   2.976  0.2956 -0.4789 -0.3852
  520Sol     HW 5066   0.189   0.632   2.987  0.6421  0.5490  0.6431
  520Sol     HW 5067   0.097   0.690   2.882  2.0250  1.3237 -0.1650
  520Sol     MW 5068   0.110   0.669   2.968  0.6073  0.1843 -0.3927
  521Sol     OW 5069   0.511   3.118   2.478 -0.3216 -0.0369  0.1518
  521Sol     HW 5070   0.509   3.203   2.523  1.0297 -0.4938  1.1110
  521Sol     HW 5071   0.434   3.120   2.421  0.3520  2.3042 -0.7348
  521Sol     MW 5072   0.504   3.126   2.477 -0.1292 -0.2060  0.2822
  522Sol     OW 5073   1.116   2.528   5.378  0.1471 -0.0510  0.0510
  522Sol     HW 5074   1.139   2.466   5.309 -1.1098  0.0687 -0.4846
  522Sol     HW 5075   1.122   2.477   5.459 -0.5519 -0.7923 -0.3542
  522Sol     MW 5076   1.119   2.518   5.379 -0.5757  0.1953  0.2168
  523Sol     OW 5077   0.898   3.023   5.289  0.1235 -0.4745  0.0710
  523Sol     HW 5078   0.851   3.082   5.348 -0.0631  0.5141 -1.0365
  523Sol     HW 5079   0.829   2.975   5.244  0.2022 -0.0004 -0.5677
  523Sol     MW 5080   0.887   3.024   5.290  0.0933 -0.4969 -0.0053
  524Sol     OW 5081   0.419   0.218   9.849 -0.7697 -0.2177 -0.0872
  524Sol     HW 5082   0.462   0.287   9.798  2.7375 -1.2675  1.3269
  524Sol     HW 5083   0.413   0.144   9.790  2.0279 -0.9758  0.4921
  524Sol     MW 5084   0.422   0.218   9.839 -0.2068  0.7458 -0.1923
  525Sol     OW 5085   0.494   0.229   1.987  0.5525 -0.2911  0.1169
  525Sol     HW 5086   0.544   0.257   1.910  0.1112  0.2012  0.0158
  525Sol     HW 5087   0.517   0.136   1.997 -0.7520 -0.8238 -1.6604
  525Sol     MW 5088   0.501   0.223   1.981  0.5064  0.1086  0.4331
  526Sol     OW 5089   0.558   1.788   8.383  0.3190  0.0867  0.0356
  526Sol     HW 5090   0.614   1.854   8.342 -0.6392  1.0372  0.2113
  526Sol     HW 5091   0.507   1.752   8.310 -0.3988  0.7910  0.1830
  526Sol     MW 5092   0.558   1.791   8.373  0.0376  0.4902  0.1336
  527Sol     OW 5093   0.296   3.146   2.303  0.2653  0.4048 -0.2850
  527Sol     HW 5094   0.307   3.141   2.208 -2.0951 -0.8325 -0.5314
  527Sol     HW 5095   0.254   3.231   2.317 -0.3720  0.1271 -0.4745
  527Sol     MW 5096   0.293   3.153   2.296 -0.4128 -0.0040 -0.5512
  528Sol     OW 5097   1.735   2.582   7.865  0.0307 -0.1637  0.2869
  528Sol     HW 5098   1.716   2.563   7.957 -0.2955  0.8863  0.4417
  528Sol     HW 5099   1.768   2.672   7.865  2.5393 -1.0236 -0.3048
  528Sol     MW 5100   1.737   2.588   7.873 -0.3235  0.7825  0.1498
  529Sol     OW 5101   3.227   1.943   2.301  0.4115 -0.4017  0.3439
  529Sol     HW 5102   3.222   1.981   2.213 -1.0705 -1.7788 -0.1781
  529Sol     HW 5103   3.311   1.897   2.303  0.1909 -0.8428 -0.5442
  529Sol     MW 5104   3.234   1.943   2.294 -0.3685 -0.4483  0.1051
  530Sol     OW 5105   1.049   2.079   6.357  0.2550  0.0536 -0.0964
  530Sol     HW 5106   1.114   2.106   6.292 -0.0611 -0.2233 -0.5308
  530Sol     HW 5107   1.051   1.984   6.355  0.7898  0.0446  0.8560
  530Sol     MW 5108   1.055   2.073   6.351 -0.0700 -0.0962  0.4757
  531Sol     OW 5109   1.385   1.077   7.566 -0.8331  0.2836 -0.4976
  531Sol     HW 5110   1.292   1.086   7.586 -0.6401 -0.3125  0.7275
  531Sol     HW 5111   1.425   1.154   7.604 -0.7376  0.2172 -0.4647
  531Sol     MW 5112   1.380   1.084   7.571  0.3092  0.1957  0.0306
  532Sol     OW 5113   2.139   2.912   9.378 -0.3723 -0.3862 -0.1446
  532Sol     HW 5114   2.104   2.839   9.326 -1.5917 -0.1296  0.3015
  532Sol     HW 5115   2.078   2.920   9.451 -0.0009  0.8133  0.0313
  532Sol     MW 5116   2.130   2.906   9.380  0.7121 -0.4053 -0.5185
  533Sol     OW 5117   2.225   0.832   4.480 -0.6634 -0.2305  0.0994
  533Sol     HW 5118   2.204   0.866   4.393 -0.0096  0.5486  0.2323
  533Sol     HW 5119   2.141   0.806   4.517 -1.2301  1.4625  0.0717
  533Sol     MW 5120   2.216   0.833   4.475 -1.2861 -0.1597 -0.1081
  534Sol     OW 5121   2.936   0.554   7.694  0.1786 -0.8849  0.3663
  534Sol     HW 5122   2.900   0.637   7.724 -0.3064 -0.8569 -0.2984
  534Sol     HW 5123   2.878   0.487   7.731  1.7359 -1.0495  2.6154
  534Sol     MW 5124   2.928   0.556   7.700 -0.7886 -0.0931  0.0395
  535Sol     OW 5125   1.570   0.564   3.932  0.2271 -0.1826 -0.8131
  535Sol     HW 5126   1.526   0.508   3.995 -0.9986  0.6970 -0.8769
  535Sol     HW 5127   1.579   0.648   3.977  2.1312 -0.4185 -0.6817
  535Sol     MW 5128   1.567   0.567   3.942 -0.1355  0.3469  0.4658
  536Sol     OW 5129   0.606   0.869   8.485  1.1129 -1.1345 -0.3383
  536Sol     HW 5130   0.655   0.917   8.553  2.6548 -1.4520 -1.1946
  536Sol     HW 5131   0.534   0.828   8.532  0.6224  0.8063  0.6760
  536Sol     MW 5132   0.604   0.870   8.495 -0.1270  0.4137 -0.6479
  537Sol     OW 5133   2.560   0.072   6.229 -0.1330  0.0496 -0.9748
  537Sol     HW 5134   2.578   0.051   6.138 -1.0452 -2.6135 -0.5993
  537Sol     HW 5135   2.465   0.067   6.237  0.0257 -1.5057  0.4686
  537Sol     MW 5136   2.553   0.069   6.222 -0.5321 -0.3781  0.2032
  538Sol     OW 5137   1.892   2.456   6.572 -0.4103  0.3349 -0.3337
  538Sol     HW 5138   1.880   2.416   6.486 -0.5425 -0.6571  0.1402
  538Sol     HW 5139   1.899   2.382   6.632 -1.7069  1.0407  0.7075
  538Sol     MW 5140   1.892   2.446   6.569 -0.5793 -0.7411 -0.3803
  539Sol     OW 5141   2.220   1.875   5.247 -0.6427  0.8738  0.1956
  539Sol     HW 5142   2.165   1.817   5.300  0.5828 -0.4896  0.0053
  539Sol     HW 5143   2.257   1.937   5.311  2.4705 -2.0311  1.3772
  539Sol     MW 5144   2.218   1.875   5.258  0.0745 -0.4200  0.4701
  540Sol     OW 5145   2.838   1.731   2.033  0.3568 -0.5253 -0.2717
  540Sol     HW 5146   2.884   1.655   2.069  1.7945  0.5901  0.2819
  540Sol     HW 5147   2.849   1.800   2.099  1.3715  0.9524 -1.9311
  540Sol     MW 5148   2.843   1.730   2.042 -0.4049  0.2777 -0.3005
  541Sol     OW 5149   2.976   1.779   6.457 -0.4327  0.2287  0.4079
  541Sol     HW 5150   2.891   1.743   6.431 -0.6064  0.5466  0.5282
  541Sol     HW 5151   3.037   1.749   6.390 -0.2562 -1.6897  1.4065
  541Sol     MW 5152   2.974   1.773   6.449  0.4402 -0.0151 -0.8673
  542Sol     OW 5153   3.155   0.220   8.989 -0.2538 -0.0043  0.4104
  542Sol     HW 5154   3.237   0.173   9.007  0.3982  0.6748 -0.7122
  542Sol     HW 5155   3.119   0.178   8.912 -0.5317  0.2457  0.4032
  542Sol     MW 5156   3.159   0.212   8.984 -0.0663 -0.4820 -0.0381
  543Sol     OW 5157   0.220   2.990   2.975  0.0414 -0.0486 -0.5284
  543Sol     HW 5158   0.190   2.984   3.065 -1.0312  0.4538 -0.8519
  543Sol     HW 5159   0.153   3.040   2.929  0.3815 -0.6254 -1.6940
  543Sol     MW 5160   0.212   2.994   2.979  0.1813  0.4094  0.4819
  544Sol     OW 5161   1.515   2.766   3.085  0.2184  0.4632  0.0031
  544Sol     HW 5162   1.434   2.721   3.107  0.6904 -1.2149 -1.5417
  544Sol     HW 5163   1.583   2.720   3.134  0.2544  1.9351  1.3840
  544Sol     MW 5164   1.514   2.758   3.091 -0.4206 -0.2012  0.1588
  545Sol     OW 5165   0.808   0.655   9.923  0.1095 -0.0537 -0.1892
  545Sol     HW 5166   0.895   0.669   9.960 -0.5399  0.7247  1.1067
  545Sol     HW 5167   0.748   0.670   9.997 -1.0070 -3.3286 -0.3117
  545Sol     MW 5168   0.810   0.657   9.933 -0.9495 -0.5791  0.4515
  546Sol     OW 5169   1.795   1.548   8.195  0.2073 -0.7457  0.1079
  546Sol     HW 5170   1.864   1.611   8.174 -0.3865 -0.0314  0.2877
  546Sol     HW 5171   1.796   1.486   8.122 -0.2033  0.3309 -0.8227
  546Sol     MW 5172   1.801   1.548   8.186 -0.4946 -1.1802 -0.2038
  547Sol     OW 5173   0.313   2.597   1.925 -1.1091  0.1175 -0.3366
  547Sol     HW 5174   0.262   2.574   1.847 -2.4164  0.1747  0.4859
  547Sol     HW 5175   0.253   2.647   1.979 -0.8955 -1.7285  1.6790
  547Sol     MW 5176   0.303   2.600   1.923  0.4305 -0.5657  0.0780
  548Sol     OW 5177   2.656   2.939   4.258 -0.3834  0.5157  0.7518
  548Sol     HW 5178   2.624   2.930   4.348 -1.3539 -1.5686  0.2530
  548Sol     HW 5179   2.588   2.989   4.213 -1.3375 -0.9215  0.5291
  548Sol     MW 5180   2.647   2.942   4.262 -0.0931  0.2178 -0.4523
  549Sol     OW 5181   2.326   2.458   6.477  0.7548 -0.2359 -0.3787
  549Sol     HW 5182   2.385   2.533   6.471  0.7171 -0.2577 -1.0261
  549Sol     HW 5183   2.310   2.448   6.571  2.1659 -0.5416 -0.1679
  549Sol     MW 5184   2.330   2.464   6.485 -0.6145  0.0467 -0.3887
  550Sol     OW 5185   0.186   0.535   7.839  0.2571 -0.1312  0.1003
  550Sol     HW 5186   0.165   0.628   7.840  2.6266  0.4254 -0.1731
  550Sol     HW 5187   0.141   0.502   7.761 -0.6043  0.7619  0.2063
  550Sol     MW 5188   0.180   0.540   7.832  0.3934  0.2938  0.0239
  551Sol     OW 5189   1.950   0.493   4.318  0.1833 -0.2157 -0.1891
  551Sol     HW 5190   1.981   0.575   4.281 -1.1874 -0.5543 -2.1810
  551Sol     HW 5191   1.934   0.437   4.242 -2.7110 -0.9474  0.8906
  551Sol     MW 5192   1.951   0.495   4.308  0.2106  0.4729  0.1360
  552Sol     OW 5193   0.936   2.758   3.398  0.3743 -0.2606 -0.3803
  552Sol     HW 5194   0.869   2.826   3.406  0.5461 -0.3502  2.4649
  552Sol     HW 5195   1.004   2.798   3.344 -0.0155  1.4692  0.3628
  552Sol     MW 5196   0.936   2.768   3.394 -0.2852 -0.5179  0.4205
  553Sol     OW 5197   0.435   0.410   7.105  0.3568  0.0956  0.1971
  553Sol     HW 5198   0.436   0.316   7.119  0.2649 -0.1557 -1.4151
  553Sol     HW 5199   0.506   0.426   7.042 -1.0401  0.8028 -1.2580
  553Sol     MW 5200   0.442   0.403   7.100  0.1215 -0.5342  0.1424
  554Sol     OW 5201   1.784   0.542   6.051 -0.1711  0.5920 -0.8373
  554Sol     HW 5202   1.750   0.574   6.135  0.3698  0.2342 -0.4802
  554Sol     HW 5203   1.865   0.592   6.038  1.0124 -1.0631  0.0314
  554Sol     MW 5204   1.788   0.550   6.058  0.0533  0.0168 -0.4848
  555Sol     OW 5205   1.371   1.568   5.522  0.4955 -0.1105  0.1768
  555Sol     HW 5206   1.401   1.512   5.594 -0.2469  0.4057  0.8990
  555Sol     HW 5207   1.339   1.507   5.456  0.4428 -0.5697  0.6226
  555Sol     MW 5208   1.371   1.558   5.522 -0.0317 -0.2543  0.0121
  556Sol     OW 5209   0.647   3.097   8.318  0.0834  0.0889 -0.0869
  556Sol     HW 5210   0.684   3.010   8.313  0.2944  0.2827 -2.2884
  556Sol     HW 5211   0.641   3.127   8.227 -1.3934  1.7652  0.5122
  556Sol     MW 5212   0.650   3.092   8.310  0.4140  0.4395 -0.3467
  557Sol     OW 5213   2.508   0.750   6.723 -0.3500 -0.3951  0.8904
  557Sol     HW 5214   2.446   0.695   6.769 -1.1942 -1.4550 -1.4371
  557Sol     HW 5215   2.555   0.691   6.664  0.2597  0.9833 -0.0613
  557Sol     MW 5216   2.507   0.740   6.722  0.2650 -0.9737  1.0127
  558Sol     OW 5217   0.836   3.119   6.230 -0.8925 -0.0472  0.0700
  558Sol     HW 5218   0.810   3.186   6.167 -2.0101 -0.5774 -0.0598
  558Sol     HW 5219   0.922   3.145   6.261  0.1383 -0.3741 -2.4768
  558Sol     MW 5220   0.841   3.127   6.227  0.1610 -0.6942  0.1063
  559Sol     OW 5221   3.145   0.450   9.615  0.2175  0.7101  0.0531
  559Sol     HW 5222   3.075   0.418   9.558 -0.4384  0.9592  0.7054
  559Sol     HW 5223   3.226   0.423   9.571 -0.2704  1.1390 -1.1263
  559Sol     MW 5224   3.146   0.445   9.606 -0.4297  0.8554 -0.1054
  560Sol     OW 5225   1.527   0.664   7.458 -0.2363 -0.4345 -0.0475
  560Sol     HW 5226   1.432   0.672   7.455 -0.0887  0.8002 -2.0690
  560Sol     HW 5227   1.557   0.750   7.489  0.2087 -0.9043  0.8263
  560Sol     MW 5228   1.521   0.673   7.461 -0.6744 -0.5854  0.5289
  561Sol     OW 5229   1.528   2.602   5.266 -0.1143 -0.1494 -0.3574
  561Sol     HW 5230   1.473   2.645   5.331 -0.7367 -0.8992 -0.3721
  561Sol     HW 5231   1.522   2.658   5.189 -3.2334 -1.6851 -1.3291
  561Sol     MW 5232   1.522   2.611   5.265  0.0052 -0.0316 -0.0480
  562Sol     OW 5233   0.981   2.941   1.717  0.5443  0.3746 -0.0481
  562Sol     HW 5234   0.986   2.939   1.813  1.2919 -1.9712 -0.0898
  562Sol     HW 5235   0.895   2.977   1.698  0.9686  2.2552  1.4911
  562Sol     MW 5236   0.974   2.944   1.724 -1.0102 -1.1191 -0.5797
  563Sol     OW 5237   1.370   0.233   1.868  0.1299 -0.1161  0.3743
  563Sol     HW 5238   1.310   0.294   1.913  1.3516  0.6869  0.9577
  563Sol     HW 5239   1.375   0.158   1.927 -0.2912 -0.1797  0.3315
  563Sol     MW 5240   1.365   0.232   1.878 -0.5081  0.0366 -0.2799
  564Sol     OW 5241   1.597   1.905   5.755  0.2651  0.2843  0.9349
  564Sol     HW 5242   1.599   1.958   5.834  1.8118  0.6528  0.6506
  564Sol     HW 5243   1.660   1.835   5.770  0.8016  0.5297 -0.0776
  564Sol     MW 5244   1.603   1.903   5.763  0.1355  0.4961 -0.1986
  565Sol     OW 5245   0.085   0.507   3.285  0.4521  0.1277  0.0066
  565Sol     HW 5246   0.177   0.532   3.290  0.6276 -0.0048 -2.0531
  565Sol     HW 5247   0.074   0.473   3.196 -1.5440 -0.0264  0.2832
  565Sol     MW 5248   0.092   0.506   3.277  0.4965 -0.5252  0.3218
  566Sol     OW 5249   2.900   1.937   4.130 -0.2707 -0.2627  0.8023
  566Sol     HW 5250   2.845   1.935   4.208  1.0973  0.3397  1.8059
  566Sol     HW 5251   2.980   1.890   4.156  0.4774  0.5490 -0.0012
  566Sol     MW 5252   2.902   1.932   4.139  0.1048  0.4726  0.1410
  567Sol     OW 5253   0.996   1.236   8.608  0.1124 -0.5536  1.1255
  567Sol     HW 5254   0.926   1.296   8.584 -1.4228 -2.4714  0.6843
  567Sol     HW 5255   1.031   1.272   8.689 -2.2262 -0.1930  2.0308
  567Sol     MW 5256   0.993   1.244   8.613 -0.2062  0.4907  0.6602
  568Sol     OW 5257   0.077   0.823   8.481  0.6530  0.3934  0.0329
  568Sol     HW 5258   0.168   0.813   8.451  1.4310  0.9731  2.0705
  568Sol     HW 5259   0.073   0.770   8.561 -0.6644  0.7964  0.2376
  568Sol     MW 5260   0.085   0.817   8.486 -0.4714  0.1606 -0.3583
  569Sol     OW 5261   1.182   0.685   4.525 -0.1675 -0.1160 -0.3631
  569Sol     HW 5262   1.155   0.666   4.435  0.3397 -1.9495 -0.1383
  569Sol     HW 5263   1.277   0.699   4.519 -0.1336 -0.2395 -0.1072
  569Sol     MW 5264   1.188   0.685   4.517 -0.5530 -0.1539 -0.5169
  570Sol     OW 5265   0.921   2.145   3.724  0.4079  0.4681  0.4218
  570Sol     HW 5266   0.856   2.207   3.757 -1.3474 -0.6605 -0.8210
  570Sol     HW 5267   0.977   2.197   3.667  0.1264  1.3018  0.8988
  570Sol     MW 5268   0.920   2.155   3.721 -0.1559  0.8499  0.7501
  571Sol     OW 5269   1.258   1.558   9.411  0.4896 -0.8396  0.9418
  571Sol     HW 5270   1.170   1.569   9.448 -0.0527 -2.6673  0.2568
  571Sol     HW 5271   1.255   1.472   9.369  2.6320 -0.9229  0.9402
  571Sol     MW 5272   1.250   1.551   9.410  0.1594 -0.1512  0.3118
  572Sol     OW 5273   0.400   1.032   8.820 -0.2842 -0.2025  0.0293
  572Sol     HW 5274   0.338   1.070   8.883 -1.4045 -1.5014 -0.2652
  572Sol     HW 5275   0.426   1.106   8.764 -2.2760  0.1930 -0.4143
  572Sol     MW 5276   0.397   1.042   8.821  0.6771  0.4332 -0.2642
  573Sol     OW 5277   2.026   3.170   8.019 -0.1862  0.2994 -0.4355
  573Sol     HW 5278   2.091   3.181   7.949  0.1931 -0.9860 -0.2959
  573Sol     HW 5279   1.945   3.204   7.982  0.5049  1.7252 -0.6921
  573Sol     MW 5280   2.025   3.174   8.009  0.3315 -0.1599 -0.7978
  574Sol     OW 5281   1.482   0.985   9.891  0.3203  0.7199 -0.5753
  574Sol     HW 5282   1.434   1.009   9.970 -0.1728 -0.4503 -0.5210
  574Sol     HW 5283   1.557   1.046   9.890  1.7747 -0.9044  2.1560
  574Sol     MW 5284   1.485   0.993   9.898  0.0711 -0.2799  0.3744
  575Sol     OW 5285   0.353   0.788   8.192 -0.7077  0.5576 -0.2242
  575Sol     HW 5286   0.259   0.809   8.189 -0.5387  1.1382 -2.0284
  575Sol     HW 5287   0.396   0.872   8.208 -0.5637  0.0132  2.5353
  575Sol     MW 5288   0.348   0.797   8.193  0.1125 -1.0856 -0.4896
  576Sol     OW 5289   0.716   0.542   6.642  0.0167 -0.3423 -0.5147
  576Sol     HW 5290   0.782   0.475   6.623  1.1343  0.7687 -0.6196
  576Sol     HW 5291   0.745   0.618   6.592 -1.0006  0.3584 -0.0387
  576Sol     MW 5292   0.725   0.543   6.636 -0.2287 -0.6432  1.2386
  577Sol     OW 5293   3.189   1.548   4.396  0.7724  0.3533  0.1637
  577Sol     HW 5294   3.254   1.520   4.332 -1.3316  1.4428 -2.5536
  577Sol     HW 5295   3.214   1.637   4.419  0.8426  0.3944 -0.0699
  577Sol     MW 5296   3.197   1.553   4.392  0.3816  0.0097 -0.5643
  578Sol     OW 5297   0.981   3.357   3.909 -0.0978  0.1172  0.3100
  578Sol     HW 5298   0.973   3.299   3.985 -1.6773  1.3843  1.1652
  578Sol     HW 5299   1.075   3.371   3.898  0.1989 -1.1199  1.2341
  578Sol     MW 5300   0.989   3.353   3.915  0.2142 -0.5727 -0.8837
  579Sol     OW 5301   2.236   0.003   9.888  0.2409  0.3222  0.0843
  579Sol     HW 5302   2.252  -0.044   9.970 -1.3749 -1.7956 -0.7483
  579Sol     HW 5303   2.240   0.095   9.912  1.5455 -0.2360  2.1780
  579Sol     MW 5304   2.238   0.007   9.897 -0.2271 -0.4355  0.1136
  580Sol     OW 5305   2.516   1.704   4.502  0.1567  0.2492 -0.2530
  580Sol     HW 5306   2.553   1.747   4.424 -1.7482  0.6647 -0.9541
  580Sol     HW 5307   2.550   1.615   4.497  0.8336  0.5295 -1.0295
  580Sol     MW 5308   2.523   1.700   4.494 -0.1449 -0.2027  0.1698
  581Sol     OW 5309   2.750   1.617   7.101 -0.0378  0.1675  0.2997
  581Sol     HW 5310   2.830   1.658   7.070 -0.2697  0.8201  0.5613
  581Sol     HW 5311   2.680   1.665   7.058 -0.2941 -0.3617  0.1182
  581Sol     MW 5312   2.751   1.625   7.094  0.2000  0.3703 -0.4631
  582Sol     OW 5313   1.212   2.799   7.804 -0.0605 -0.4020  0.1979
  582Sol     HW 5314   1.254   2.874   7.762  0.6071 -0.6289  0.4642
  582Sol     HW 5315   1.124   2.796   7.765 -0.0178  0.3930  0.0425
  582Sol     MW 5316   1.208   2.805   7.797 -0.2859  0.8547  0.1534
  583Sol     OW 5317   0.487   0.013   4.977 -0.6661  0.0359  0.5804
  583Sol     HW 5318   0.567  -0.026   5.012 -1.2799 -1.5223  0.3065
  583Sol     HW 5319   0.420  -0.009   5.042 -1.4472 -1.2853 -0.6242
  583Sol     MW 5320   0.488   0.007   4.986 -0.2369  0.5751  0.3290
  584Sol     OW 5321   1.848   1.515   2.202  0.5074 -0.2808 -0.1988
  584Sol     HW 5322   1.810   1.429   2.218  1.1679 -0.4225  0.6050
  584Sol     HW 5323   1.898   1.535   2.281 -0.3513  1.2235 -0.0009
  584Sol     MW 5324   1.849   1.509   2.210 -0.2328  0.2617  0.1201
  585Sol     OW 5325   1.895   1.934   4.979  0.3565 -0.0038  0.0136
  585Sol     HW 5326   1.876   1.841   4.993  2.1255 -0.2333  1.0030
  585Sol     HW 5327   1.861   1.977   5.057  0.2571  0.0872 -0.0791
  585Sol     MW 5328   1.890   1.929   4.987  0.5428  0.1057  0.3529
  586Sol     OW 5329   1.390   2.602   8.239  0.2186  0.3634 -0.2218
  586Sol     HW 5330   1.392   2.509   8.261 -0.2605  0.4301  0.1090
  586Sol     HW 5331   1.380   2.604   8.144  1.6255  0.0754 -0.3906
  586Sol     MW 5332   1.389   2.594   8.232 -0.3093 -0.1190 -0.3630
  587Sol     OW 5333   3.169   1.531   8.575 -0.1534  0.1217 -0.5380
  587Sol     HW 5334   3.227   1.567   8.642  0.2164  4.3927 -2.9909
  587Sol     HW 5335   3.092   1.502   8.624  0.8578  1.4239  1.9128
  587Sol     MW 5336   3.167   1.531   8.586 -0.7189  0.1290  0.0346
  588Sol     OW 5337   2.930   1.981   2.853  0.4143  0.0643  0.2857
  588Sol     HW 5338   2.913   1.914   2.787 -2.2656  0.7315  0.2470
  588Sol     HW 5339   2.866   1.964   2.922 -0.0404  2.3181  0.4610
  588Sol     MW 5340   2.922   1.974   2.854  1.0572 -0.8865  0.1031
  589Sol     OW 5341   1.066   0.324   9.921  0.0089  0.3466  0.0844
  589Sol     HW 5342   1.065   0.324   9.825 -3.1930  0.3557  0.0538
  589Sol     HW 5343   1.106   0.407   9.945 -1.6632  1.5670 -1.2793
  589Sol     MW 5344   1.070   0.331   9.914 -0.7603  0.1055 -0.2521
  590Sol     OW 5345   0.635   3.323   5.625  0.2562  0.2280  0.5225
  590Sol     HW 5346   0.549   3.358   5.602  0.9777  1.3081 -0.6289
  590Sol     HW 5347   0.690   3.401   5.636  0.8191 -0.4028  2.4275
  590Sol     MW 5348   0.632   3.333   5.624  0.6657 -0.1992 -0.5912
  591Sol     OW 5349   1.988   2.065   1.939 -0.2693  0.4539  0.2541
  591Sol     HW 5350   2.074   2.081   1.902 -0.1641  0.0325  0.3040
  591Sol     HW 5351   1.997   2.088   2.032 -0.7819  2.3633 -0.1518
  591Sol     MW 5352   1.996   2.068   1.944 -0.3594  0.4739 -0.0199
  592Sol     OW 5353   1.743   2.878   9.545 -0.2558 -0.6237  0.2698
  592Sol     HW 5354   1.713   2.824   9.617 -1.3202 -1.2326 -0.6294
  592Sol     HW 5355   1.754   2.817   9.472 -2.5486  0.5334 -1.0684
  592Sol     MW 5356   1.742   2.868   9.545 -1.2462  0.1391  0.0019
  593Sol     OW 5357   2.909   1.519   7.862 -0.5231 -0.3007 -0.7183
  593Sol     HW 5358   2.907   1.468   7.782  3.1043 -1.6956 -0.0249
  593Sol     HW 5359   2.898   1.455   7.932 -0.8269  0.5048 -0.0162
  593Sol     MW 5360   2.908   1.509   7.861 -0.1441  0.2022 -0.1615
  594Sol     OW 5361   1.603   3.144   4.039  0.6281  0.4728 -0.2393
  594Sol     HW 5362   1.571   3.109   3.955  0.2120 -3.4442  1.4545
  594Sol     HW 5363   1.568   3.233   4.042 -3.5772 -0.9852 -2.0171
  594Sol     MW 5364   1.597   3.149   4.031 -0.7011 -1.3223 -0.8633
  595Sol     OW 5365   0.383   3.354   4.485  0.0394  0.3960  0.7809
  595Sol     HW 5366   0.448   3.339   4.554 -0.6422 -0.7864  1.1789
  595Sol     HW 5367   0.317   3.411   4.526  0.8318  1.6534  0.3557
  595Sol     MW 5368   0.383   3.358   4.495 -0.4117 -0.2816 -0.5197
  596Sol     OW 5369   1.777   2.347   7.067 -0.1567 -0.1259  0.7142
  596Sol     HW 5370   1.817   2.337   6.980 -1.4444  0.5162  0.0379
  596Sol     HW 5371   1.789   2.440   7.088 -0.1221 -0.2144  1.0752
  596Sol     MW 5372   1.782   2.355   7.061 -1.3445  0.1693  0.4419
  597Sol     OW 5373   1.986   0.333   9.236  0.2157  0.1531  0.0119
  597Sol     HW 5374   2.069   0.311   9.194  0.3979  1.9835 -0.6579
  597Sol     HW 5375   1.927   0.262   9.213  0.6928  0.4634 -2.2776
  597Sol     MW 5376   1.988   0.325   9.231  0.1206  0.0300 -0.9922
  598Sol     OW 5377   1.830   0.913   1.552  0.1531  0.1438  0.0316
  598Sol     HW 5378   1.833   0.991   1.498 -1.6996  1.3357  1.5636
  598Sol     HW 5379   1.859   0.943   1.639 -2.6978 -0.3056  1.1889
  598Sol     MW 5380   1.833   0.923   1.555 -0.4524 -0.1171  0.6684
  599Sol     OW 5381   1.713   3.166   9.546 -0.3844 -0.2577 -0.6082
  599Sol     HW 5382   1.706   3.071   9.549 -0.0376 -0.2595  2.0568
  599Sol     HW 5383   1.633   3.197   9.590  0.6282  0.5895  0.6843
  599Sol     MW 5384   1.705   3.160   9.551  0.2354  0.3733 -0.9333
  600Sol     OW 5385   2.198   1.275   4.525 -0.0644 -0.5254 -0.0922
  600Sol     HW 5386   2.182   1.328   4.604  5.1708  0.8999  0.1953
  600Sol     HW 5387   2.207   1.186   4.558 -0.4996 -0.3373  0.5560
  600Sol     MW 5388   2.197   1.272   4.535  0.7569 -0.0718  0.1501
  601Sol     OW 5389   2.707   3.119   5.237 -0.5909 -0.5433 -0.2487
  601Sol     HW 5390   2.656   3.169   5.301  0.2955 -1.1270  0.9332
  601Sol     HW 5391   2.706   3.173   5.158 -0.6844  0.7649  0.6323
  601Sol     MW 5392   2.702   3.128   5.236  0.6291  0.0596  0.5534
  602Sol     OW 5393   2.684   1.613   4.236 -0.1692  0.4568 -0.0468
  602Sol     HW 5394   2.772   1.650   4.224  0.3370  0.0839  2.1976
  602Sol     HW 5395   2.692   1.523   4.207  0.4415  0.1890  0.9016
  602Sol     MW 5396   2.693   1.609   4.233 -0.4331  0.3205 -0.1852
  603Sol     OW 5397   1.797   0.310   8.585 -0.3051 -0.0238 -0.2323
  603Sol     HW 5398   1.802   0.240   8.651  0.5030  0.8755  0.6839
  603Sol     HW 5399   1.888   0.333   8.568 -0.4894 -0.6726 -2.1491
  603Sol     MW 5400   1.805   0.306   8.590 -0.2921  0.1801 -0.3797
  604Sol     OW 5401   1.583   1.925   8.881  0.1825 -0.2557 -0.2908
  604Sol     HW 5402   1.617   1.927   8.791  1.0387  0.2262  0.0358
  604Sol     HW 5403   1.621   2.003   8.922 -0.4008 -0.3450  0.4217
  604Sol     MW 5404   1.590   1.932   8.876 -0.1529  0.2667 -0.2110
  605Sol     OW 5405   2.240   1.002   2.768 -0.1778  0.4119  0.0337
  605Sol     HW 5406   2.309   0.987   2.833 -1.7212  0.4078  1.6969
  605Sol     HW 5407   2.243   0.925   2.712  1.1552  0.4100  0.0825
  605Sol     MW 5408   2.246   0.994   2.769 -0.2732  0.2422  0.5384
  606Sol     OW 5409   2.430   1.590   7.221  0.5354  0.3255 -0.0627
  606Sol     HW 5410   2.467   1.538   7.292  0.3279 -0.7613 -0.7363
  606Sol     HW 5411   2.365   1.532   7.180 -0.5752  1.5418 -0.0599
  606Sol     MW 5412   2.427   1.580   7.223  0.6373 -0.6077  0.1940
  607Sol     OW 5413   2.462   1.964   8.460  0.5696  0.0088  0.2333
  607Sol     HW 5414   2.526   1.921   8.402  1.5915 -0.3819  1.6322
  607Sol     HW 5415   2.513   2.030   8.507 -0.5061  1.1193 -0.1427
  607Sol     MW 5416   2.473   1.966   8.459  0.0315  1.2433 -0.1843
  608Sol     OW 5417   3.130   2.288   3.618  0.5407  0.4102 -0.6867
  608Sol     HW 5418   3.038   2.272   3.638  0.9738 -0.1215  0.9198
  608Sol     HW 5419   3.178   2.253   3.693  2.0413  0.9721 -1.3587
  608Sol     MW 5420   3.126   2.283   3.626  0.1313  0.7096 -0.3812
  609Sol     OW 5421   2.850   0.504   9.186 -0.0960 -0.0578 -0.0920
  609Sol     HW 5422   2.824   0.533   9.273  0.7824  0.0233  0.1544
  609Sol     HW 5423   2.901   0.424   9.202  0.8975  0.5006 -0.4568
  609Sol     MW 5424   2.852   0.499   9.195  0.7188 -0.2228 -0.6950
  610Sol     OW 5425   2.631   1.268   1.822 -0.0850  0.0037  0.1217
  610Sol     HW 5426   2.575   1.293   1.749 -0.0935 -0.9488 -0.1920
  610Sol     HW 5427   2.719   1.296   1.796 -0.1007 -0.2621 -0.2154
  610Sol     MW 5428   2.634   1.273   1.813  0.8409  0.0143  0.1576
  611Sol     OW 5429   1.198   0.647   5.871 -1.2170 -0.2931 -0.6923
  611Sol     HW 5430   1.254   0.605   5.805 -0.4736 -1.0796  0.4084
  611Sol     HW 5431   1.252   0.719   5.905 -0.7853 -1.1536  0.4871
  611Sol     MW 5432   1.208   0.650   5.868  0.6714  0.2272  0.5299
  612Sol     OW 5433   2.346   2.941   8.924  0.1209 -0.3029  0.3303
  612Sol     HW 5434   2.360   2.984   9.009 -1.5368  0.2628  0.3312
  612Sol     HW 5435   2.340   2.848   8.945 -0.0794 -0.1852  0.8156
  612Sol     MW 5436   2.347   2.937   8.934  0.2111  0.4322 -0.2624
  613Sol     OW 5437   1.600   0.775   4.125 -0.0258 -0.0094 -0.3249
  613Sol     HW 5438   1.504   0.773   4.130  0.0200 -1.0680  0.2327
  613Sol     HW 5439   1.628   0.792   4.215  0.3232  0.0803 -0.4500
  613Sol     MW 5440   1.594   0.777   4.133 -0.0622 -0.9155 -0.0241
  614Sol     OW 5441   1.640   1.933   2.620 -0.0581  0.4728  0.1382
  614Sol     HW 5442   1.607   1.983   2.545  1.5070  2.6470  0.8468
  614Sol     HW 5443   1.595   1.970   2.695 -0.0214 -0.2393  0.5163
  614Sol     MW 5444   1.633   1.941   2.620 -0.5505  0.1016  0.3099
  615Sol     OW 5445   2.353   2.343   6.998 -0.0773  0.2129  0.4716
  615Sol     HW 5446   2.371   2.283   7.070  0.1258  0.4340  0.6089
  615Sol     HW 5447   2.415   2.318   6.929 -0.0202  0.2371  0.5133
  615Sol     MW 5448   2.360   2.336   6.998 -0.1684 -0.6917  0.3254
  616Sol     OW 5449   0.923   2.194   8.663 -0.3720  0.5449  0.0493
  616Sol     HW 5450   0.828   2.185   8.658 -0.3094 -0.3216  0.3434
  616Sol     HW 5451   0.954   2.108   8.693  0.6471  0.2473 -1.7685
  616Sol     MW 5452   0.917   2.186   8.665  0.3105 -0.3883  0.5403
  617Sol     OW 5453   1.400   2.262   4.456 -0.6702 -0.0552 -0.4683
  617Sol     HW 5454   1.360   2.232   4.538  0.4993 -1.3124 -0.3357
  617Sol     HW 5455   1.326   2.283   4.400 -1.5133 -1.0377  0.2530
  617Sol     MW 5456   1.390   2.261   4.459 -0.4485  0.3384 -0.6298
  618Sol     OW 5457   0.186   0.472   5.546  0.7078  0.0072  0.0616
  618Sol     HW 5458   0.148   0.492   5.461  2.0377 -0.6329 -0.7079
  618Sol     HW 5459   0.256   0.409   5.527 -0.3303 -1.7763  1.8537
  618Sol     MW 5460   0.189   0.468   5.537  0.3033 -0.0509 -0.0138
  619Sol     OW 5461   1.911   2.327   6.306  0.5352 -0.1132 -0.5420
  619Sol     HW 5462   1.875   2.390   6.244 -0.2290  0.5888  0.5938
  619Sol     HW 5463   1.934   2.251   6.253  0.1480  0.5813 -1.7142
  619Sol     MW 5464   1.910   2.326   6.296  0.2675 -0.7773 -0.1491
  620Sol     OW 5465   0.157   0.315   6.825  0.0779 -0.4925 -0.1801
  620Sol     HW 5466   0.083   0.327   6.765  0.4420 -1.0511 -0.7551
  620Sol     HW 5467   0.147   0.384   6.891 -0.8764 -0.4872 -0.3339
  620Sol     MW 5468   0.150   0.323   6.825  0.8171 -0.0985  0.0917
  621Sol     OW 5469   3.237   0.955   2.144 -0.4997 -0.2551 -0.0398
  621Sol     HW 5470   3.264   0.903   2.068 -0.4575 -2.4996  1.4450
  621Sol     HW 5471   3.190   0.893   2.200 -2.0133  1.7581  0.9910
  621Sol     MW 5472   3.235   0.945   2.142 -0.4677  0.3933 -0.5610
  622Sol     OW 5473   0.227   1.272   7.451  0.3521 -0.1308 -0.0505
  622Sol     HW 5474   0.187   1.247   7.534 -0.5896 -0.0723 -0.4803
  622Sol     HW 5475   0.317   1.296   7.474  0.8122 -2.3628  0.6023
  622Sol     MW 5476   0.231   1.272   7.460 -0.3405  0.3253  0.2723
  623Sol     OW 5477   0.056   0.115   6.197 -0.0134  0.3670 -0.2582
  623Sol     HW 5478   0.008   0.142   6.276 -0.6609 -0.7246 -0.2657
  623Sol     HW 5479   0.074   0.022   6.210  0.8185  0.4286 -0.9252
  623Sol     MW 5480   0.053   0.110   6.205  0.3879  0.1570 -0.1290
  624Sol     OW 5481   2.978   3.293   9.595  0.5509 -0.0721  0.0462
  624Sol     HW 5482   2.902   3.236   9.584 -0.6185  1.5497 -0.5429
  624Sol     HW 5483   2.965   3.363   9.530  1.8869  0.9135  0.8128
  624Sol     MW 5484   2.970   3.295   9.588 -0.2256 -0.5099 -0.0552
  625Sol     OW 5485   0.158   3.380   2.321 -0.6317 -0.4662 -0.1163
  625Sol     HW 5486   0.168   3.468   2.285 -2.2318 -0.5539 -0.7742
  625Sol     HW 5487   0.064   3.366   2.325 -0.3804 -3.0389 -2.1898
  625Sol     MW 5488   0.151   3.387   2.318 -0.4288  0.8976 -0.0705
  626Sol     OW 5489   0.420   1.763   8.122  0.1939 -0.1735  0.0116
  626Sol     HW 5490   0.441   1.846   8.078  0.5342 -0.6380 -0.7114
  626Sol     HW 5491   0.481   1.700   8.084 -0.1569 -0.7836  0.4613
  626Sol     MW 5492   0.427   1.765   8.114  0.2048 -0.4306 -0.0585
  627Sol     OW 5493   1.429   2.468   2.508 -0.1066 -0.2891 -0.0136
  627Sol     HW 5494   1.359   2.503   2.563  2.9751  2.1367  2.4922
  627Sol     HW 5495   1.434   2.528   2.433  0.1978  0.3155  0.4938
  627Sol     MW 5496   1.423   2.477   2.506  0.8161  0.6072  0.2106
  628Sol     OW 5497   3.093   2.596   1.424  0.1361  0.8506 -0.2967
  628Sol     HW 5498   3.044   2.616   1.344  1.9909 -0.1117 -1.7119
  628Sol     HW 5499   3.184   2.590   1.395  0.7911  0.1883  1.8418
  628Sol     MW 5500   3.097   2.597   1.414  0.8598  0.0655  0.3713
  629Sol     OW 5501   1.019   1.800   6.417 -0.7049  0.3024  0.6827
  629Sol     HW 5502   0.928   1.828   6.411 -1.0964 -1.0925 -0.0565
  629Sol     HW 5503   1.021   1.740   6.491 -0.3946  0.2763  0.6530
  629Sol     MW 5504   1.011   1.798   6.423 -0.5001 -0.0298 -0.6110
  630Sol     OW 5505   2.533   0.496   9.567 -0.1710 -0.3779  0.1135
  630Sol     HW 5506   2.528   0.404   9.594  1.7164 -0.2487  0.9919
  630Sol     HW 5507   2.555   0.543   9.648 -1.5888  0.9080 -0.2360
  630Sol     MW 5508   2.534   0.492   9.577  0.8198 -0.1701 -0.0092
  631Sol     OW 5509   0.327   3.396   8.014 -0.0645 -0.1925 -0.1876
  631Sol     HW 5510   0.316   3.363   7.925  0.7637 -1.3547  0.1339
  631Sol     HW 5511   0.400   3.457   8.008  0.1087 -0.4093 -0.2571
  631Sol     MW 5512   0.332   3.398   8.005  0.5021  0.6392  0.3921
  632Sol     OW 5513   1.746   2.513   9.542  0.0697  0.3272  0.0633
  632Sol     HW 5514   1.661   2.476   9.519 -0.6892  1.2423  1.3661
  632Sol     HW 5515   1.789   2.444   9.593 -0.1621  0.1312 -0.0072
  632Sol     MW 5516   1.742   2.503   9.545 -0.3913  0.5366 -0.9424
  633Sol     OW 5517   0.597   2.374   3.249 -0.5332  0.0891 -0.0984
  633Sol     HW 5518   0.554   2.324   3.318  0.7077 -0.7098  0.1229
  633Sol     HW 5519   0.683   2.333   3.240  0.7862  2.5547  0.5210
  633Sol     MW 5520   0.601   2.366   3.254  0.1477 -0.0541 -0.5248
  634Sol     OW 5521   2.530   2.141   2.854 -0.2251  0.2547 -0.8121
  634Sol     HW 5522   2.490   2.080   2.792 -1.0036  1.3253 -1.3659
  634Sol     HW 5523   2.552   2.087   2.930 -1.4251 -0.6051 -1.0666
  634Sol     MW 5524   2.529   2.131   2.855 -1.0280  0.1761  0.0347
  635Sol     OW 5525   1.127   0.312   6.617 -0.3139  0.3026  0.2226
  635Sol     HW 5526   1.133   0.379   6.685  0.6888  0.7925 -0.3429
  635Sol     HW 5527   1.189   0.340   6.549 -0.6142 -0.6694 -0.4724
  635Sol     MW 5528   1.133   0.320   6.617  0.3527 -0.6165  0.2110
  636Sol     OW 5529   1.063   2.288   3.540  0.0747  0.6070 -0.2303
  636Sol     HW 5530   0.999   2.355   3.515 -1.4661 -0.2251  1.3840
  636Sol     HW 5531   1.146   2.335   3.544 -1.3073  3.0361  3.1440
  636Sol     MW 5532   1.064   2.298   3.538 -0.3073 -0.9121  0.4963
  637Sol     OW 5533   2.913   0.006   9.929  0.0756  0.5085  0.1406
  637Sol     HW 5534   2.951   0.050   9.853 -0.6500 -0.7557 -0.9559
  637Sol     HW 5535   2.977   0.021   9.999  1.2450  0.7773 -0.9766
  637Sol     MW 5536   2.922   0.012   9.929  0.2993  0.6374  0.3942
  638Sol     OW 5537   0.125   0.079   5.439  0.6715  0.3219  0.1021
  638Sol     HW 5538   0.118   0.106   5.531 -2.0690 -0.0658  0.0577
  638Sol     HW 5539   0.152  -0.012   5.443 -0.0751  0.1093  0.5785
  638Sol     MW 5540   0.126   0.073   5.448 -0.2597 -0.4241  0.4023
  639Sol     OW 5541   0.800   0.517   9.505  0.2294  0.0351  1.1500
  639Sol     HW 5542   0.798   0.470   9.421  0.7184  1.0103  0.5806
  639Sol     HW 5543   0.717   0.496   9.546  0.3536 -1.1748  0.8186
  639Sol     MW 5544   0.793   0.511   9.501 -0.4875 -0.1503 -0.1634
  640Sol     OW 5545   1.190   2.191   9.160 -0.1112  0.9409 -0.2749
  640Sol     HW 5546   1.244   2.146   9.094 -1.8415  0.1077 -1.1879
  640Sol     HW 5547   1.205   2.141   9.240  0.3091  0.5695 -0.5748
  640Sol     MW 5548   1.196   2.182   9.161  0.0061  0.7534  0.0762
  641Sol     OW 5549   2.214   1.679   9.576  0.0238 -0.2339  0.2766
  641Sol     HW 5550   2.217   1.607   9.514  2.8807 -0.6814  0.8524
  641Sol     HW 5551   2.209   1.758   9.522 -1.7790 -0.7776 -0.3744
  641Sol     MW 5552   2.214   1.680   9.566 -0.9327  0.4288  0.0133
  642Sol     OW 5553   2.053   1.810   5.775  0.6450  0.6043  0.1561
  642Sol     HW 5554   1.966   1.780   5.800  1.0221  1.1137  2.1661
  642Sol     HW 5555   2.113   1.748   5.816  1.2643  0.4911 -0.8759
  642Sol     MW 5556   2.051   1.802   5.781  0.1149 -0.0046  0.0609
  643Sol     OW 5557   2.807   1.879   2.277 -0.2517  0.2183  0.1240
  643Sol     HW 5558   2.870   1.924   2.335  0.1103  0.2380 -0.2793
  643Sol     HW 5559   2.790   1.796   2.320  1.1526 -0.3952 -0.4667
  643Sol     MW 5560   2.811   1.876   2.286  0.0354  0.2945 -0.3520
  644Sol     OW 5561   0.066   1.911   5.179  0.4214  0.1236 -0.0459
  644Sol     HW 5562   0.101   1.996   5.206 -0.0844  0.7541 -1.3282
  644Sol     HW 5563   0.114   1.847   5.232  0.7953  1.2073  0.9333
  644Sol     MW 5564   0.074   1.913   5.186 -0.1256 -0.3776 -0.6268
  645Sol     OW 5565   2.599   0.703   6.233  0.1124  0.4166 -0.1404
  645Sol     HW 5566   2.548   0.767   6.184  0.0938  1.0906  0.7562
  645Sol     HW 5567   2.677   0.750   6.262 -0.6645  0.4986  1.8990
  645Sol     MW 5568   2.602   0.713   6.231 -0.1373 -0.7366 -0.3979
  646Sol     OW 5569   1.773   2.301   5.174  0.0476 -0.6342 -0.0214
  646Sol     HW 5570   1.815   2.215   5.178  0.3328 -0.4660  0.6652
  646Sol     HW 5571   1.679   2.282   5.185  0.0172 -0.9440 -0.8356
  646Sol     MW 5572   1.768   2.292   5.176  0.4301  0.2296  0.3956
  647Sol     OW 5573   3.107   2.850   3.915  0.1037  0.2239  0.2565
  647Sol     HW 5574   3.050   2.921   3.945 -0.0220  0.0141  0.5176
  647Sol     HW 5575   3.051   2.773   3.915  0.4628 -0.0457  0.8141
  647Sol     MW 5576   3.097   2.850   3.918 -0.0293 -0.5095  0.4842
  648Sol     OW 5577   0.042   0.367   8.592  0.4358 -0.1177  0.8665
  648Sol     HW 5578  -0.023   0.298   8.580  0.4061  0.1864 -0.9117
  648Sol     HW 5579   0.124   0.321   8.610  0.4863 -0.6360 -0.6629
  648Sol     MW 5580   0.044   0.357   8.592 -0.1234  0.5878  0.1734
  649Sol     OW 5581   2.682   1.377   7.219 -0.2332 -0.0265  0.1109
  649Sol     HW 5582   2.664   1.417   7.304 -1.2028  0.9671 -0.5424
  649Sol     HW 5583   2.699   1.451   7.160  1.2342 -0.7435 -0.3858
  649Sol     MW 5584   2.682   1.387   7.221 -0.6423 -0.7642  0.3984
  650Sol     OW 5585   1.012   1.739   3.976  0.1887  0.2316 -0.1549
  650Sol     HW 5586   1.031   1.788   3.896  0.0428  1.2724  0.4292
  650Sol     HW 5587   1.097   1.724   4.016  0.2227  0.1238 -0.2673
  650Sol     MW 5588   1.021   1.742   3.973 -0.0490 -0.5703 -0.4186
  651Sol     OW 5589   2.689   2.962   9.229 -0.0379  0.2005 -0.2503
  651Sol     HW 5590   2.670   3.044   9.273 -2.2205  0.1707 -1.0867
  651Sol     HW 5591   2.675   2.980   9.136 -1.6128 -1.3638 -0.3564
  651Sol     MW 5592   2.686   2.971   9.224  0.0002 -0.8683  0.0206
  652Sol     OW 5593   3.051   1.964   4.869  0.2795  0.0857 -0.1572
  652Sol     HW 5594   3.078   2.042   4.821  0.6151 -0.5291 -0.9749
  652Sol     HW 5595   2.960   1.951   4.843 -0.3234  1.1767  1.2954
  652Sol     MW 5596   3.045   1.970   4.863 -0.0962  0.5667 -0.4394
  653Sol     OW 5597   1.149   3.068   8.467  0.1340 -0.4350  0.3276
  653Sol     HW 5598   1.208   3.141   8.483 -0.5259  0.1324  0.2099
  653Sol     HW 5599   1.067   3.094   8.509 -0.7678 -0.1397 -1.5542
  653Sol     MW 5600   1.147   3.077   8.472  0.6789 -0.3090  0.7639
  654Sol     OW 5601   1.598   1.704   7.813 -0.2634  0.2941 -0.4823
  654Sol     HW 5602   1.546   1.768   7.861 -1.2066 -1.0999  0.3565
  654Sol     HW 5603   1.688   1.721   7.842 -0.9477 -1.4373  2.8994
  654Sol     MW 5604   1.602   1.712   7.820  0.9795  0.0171  0.2977
  655Sol     OW 5605   1.404   1.978   2.779 -0.0684  0.0151 -0.5771
  655Sol     HW 5606   1.378   2.046   2.841 -0.4242 -0.4398 -0.2229
  655Sol     HW 5607   1.328   1.920   2.775  0.7430 -1.1197  0.1730
  655Sol     MW 5608   1.395   1.979   2.784 -0.4075 -0.9427  0.0133
  656Sol     OW 5609   0.746   2.975   2.564 -0.0343 -0.1933 -0.5019
  656Sol     HW 5610   0.659   3.003   2.535 -0.8677 -0.2546  1.8448
  656Sol     HW 5611   0.743   2.880   2.562 -1.3963 -0.3155  3.2646
  656Sol     MW 5612   0.738   2.969   2.561 -0.2968 -0.3382  0.2256
  657Sol     OW 5613   1.780   2.820   6.839 -0.4637 -0.2781 -0.4806
  657Sol     HW 5614   1.821   2.827   6.925 -2.3787  1.7477  0.3216
  657Sol     HW 5615   1.737   2.734   6.839 -0.4186 -0.3026  0.5726
  657Sol     MW 5616   1.780   2.813   6.847 -0.1841 -0.2829 -0.6457
  658Sol     OW 5617   2.289   2.880   2.011  0.3364  0.1599 -0.3070
  658Sol     HW 5618   2.237   2.816   1.962  0.2523  0.3433 -0.4563
  658Sol     HW 5619   2.363   2.900   1.954  0.3963  0.1497 -0.2337
  658Sol     MW 5620   2.291   2.876   2.002  0.1291  0.5140  0.1669
  659Sol     OW 5621   2.395   2.512   7.638  0.0980  0.0468 -0.9517
  659Sol     HW 5622   2.312   2.528   7.594 -1.4194 -0.5950  1.5604
  659Sol     HW 5623   2.412   2.591   7.689  0.4177 -0.2713 -0.5561
  659Sol     MW 5624   2.389   2.520   7.639  0.1788 -0.4204 -0.0182
  660Sol     OW 5625   2.921   0.947   9.155  0.1834  0.0499 -0.2261
  660Sol     HW 5626   2.902   0.882   9.088  0.0247 -0.7408  0.5736
  660Sol     HW 5627   2.941   0.896   9.233 -1.4387  0.9592  0.8156
  660Sol     MW 5628   2.921   0.936   9.156 -0.0502 -0.2548  0.5979
  661Sol     OW 5629   1.896   0.178   8.795 -0.5287  0.5634 -0.1491
  661Sol     HW 5630   1.957   0.245   8.825 -0.5024 -0.5828  2.4252
  661Sol     HW 5631   1.943   0.095   8.809 -1.4749 -0.1511 -1.1027
  661Sol     MW 5632   1.906   0.176   8.799 -0.4547 -0.8468 -0.0491
  662Sol     OW 5633   2.562   0.440   8.918 -0.1862 -0.3283 -0.3766
  662Sol     HW 5634   2.634   0.391   8.958 -0.3527 -2.3135 -2.4058
  662Sol     HW 5635   2.498   0.452   8.989  1.7182  0.6565  1.2047
  662Sol     MW 5636   2.562   0.437   8.928 -0.0820 -0.2439 -0.6500
  663Sol     OW 5637   2.017   0.081   5.970  0.5948  0.6083 -0.4294
  663Sol     HW 5638   1.965   0.155   6.000 -1.0300 -0.3888 -0.6828
  663Sol     HW 5639   2.009   0.083   5.875 -0.8492 -0.8353 -0.3648
  663Sol     MW 5640   2.011   0.087   5.964 -0.4258 -0.2730  0.4296
  664Sol     OW 5641   0.607   0.667   8.219  0.2144 -0.0876 -0.3337
  664Sol     HW 5642   0.518   0.702   8.230  0.4088  0.2270  0.2589
  664Sol     HW 5643   0.603   0.580   8.258  0.1454 -0.1052 -0.3808
  664Sol     MW 5644   0.598   0.663   8.224 -0.4109 -0.3985  0.1703
  665Sol     OW 5645   0.921   1.030   5.345 -0.1500  0.2187  0.1864
  665Sol     HW 5646   0.990   1.096   5.332  0.5938 -0.9010 -1.8652
  665Sol     HW 5647   0.957   0.971   5.411  0.1469  0.5702  0.3469
  665Sol     MW 5648   0.931   1.031   5.350 -0.0270 -0.3889 -0.1636
  666Sol     OW 5649   0.882   0.514   3.230 -0.5381  0.5542  0.1570
  666Sol     HW 5650   0.847   0.436   3.273 -1.7016  0.5333 -0.8136
  666Sol     HW 5651   0.962   0.483   3.188 -0.0940  0.2761  1.1700
  666Sol     MW 5652   0.886   0.504   3.230  0.0613 -0.1486 -0.5094
  667Sol     OW 5653   1.195   1.008   5.749  0.4747  0.7724 -0.2641
  667Sol     HW 5654   1.238   1.038   5.670 -0.4245  1.2660 -0.5728
  667Sol     HW 5655   1.176   1.088   5.798  2.0791  0.3953  1.0066
  667Sol     MW 5656   1.197   1.018   5.747 -0.3996 -0.2230 -0.2853
  668Sol     OW 5657   1.453   2.205   8.060  0.0113 -0.0599 -0.1072
  668Sol     HW 5658   1.479   2.115   8.075 -1.2106 -0.1718  1.4605
  668Sol     HW 5659   1.358   2.205   8.071  0.0317  1.4729  0.2592
  668Sol     MW 5660   1.447   2.197   8.062 -0.1350 -0.2899  0.2939
  669Sol     OW 5661   2.041   2.384   9.648  0.9231 -0.5933  0.1973
  669Sol     HW 5662   2.051   2.340   9.733 -1.5408 -0.0016  0.8047
  669Sol     HW 5663   2.003   2.317   9.591  1.1506 -0.5289 -0.0313
  669Sol     MW 5664   2.039   2.374   9.650  0.0013  0.5689  0.2971
  670Sol     OW 5665   2.790   1.872   3.753  0.9290 -0.0263  0.0078
  670Sol     HW 5666   2.788   1.946   3.814 -1.8775  1.2586 -1.5950
  670Sol     HW 5667   2.728   1.809   3.790 -0.8549  0.7962 -1.5059
  670Sol     MW 5668   2.785   1.873   3.762 -0.3145  0.1781  0.6429
  671Sol     OW 5669   0.714   2.441   4.528 -0.1917  0.1434  0.3300
  671Sol     HW 5670   0.676   2.500   4.463 -0.3614 -1.8924 -1.4911
  671Sol     HW 5671   0.654   2.445   4.602 -0.2794  2.1154  0.1751
  671Sol     MW 5672   0.705   2.447   4.529  0.2532 -0.4755 -0.2146
  672Sol     OW 5673   0.484   2.805   8.302  0.4800 -0.6401  0.5392
  672Sol     HW 5674   0.579   2.813   8.308  0.3647  0.1003  1.4559
  672Sol     HW 5675   0.452   2.819   8.391 -0.5352 -0.1688  0.1160
  672Sol     MW 5676   0.489   2.807   8.310  0.1401  0.2386  0.1739
  673Sol     OW 5677   2.640   1.848   7.660  0.2241 -0.3741  0.1699
  673Sol     HW 5678   2.670   1.906   7.589 -0.1058  0.8641  1.0199
  673Sol     HW 5679   2.546   1.862   7.664 -0.1703 -2.5642 -0.9927
  673Sol     MW 5680   2.635   1.855   7.654 -0.1556  0.5493 -0.2071
  674Sol     OW 5681   2.178   1.570   5.859  0.3367 -0.5336  0.3491
  674Sol     HW 5682   2.239   1.605   5.924 -0.3053  2.8142 -0.7340
  674Sol     HW 5683   2.098   1.551   5.909  0.9338 -1.1372  1.0866
  674Sol     MW 5684   2.176   1.571   5.870  0.1048 -0.3680  0.0702
  675Sol     OW 5685   1.347   2.681   5.460 -0.8298 -0.2416 -0.0238
  675Sol     HW 5686   1.279   2.632   5.413 -1.7000 -0.2882  1.2680
  675Sol     HW 5687   1.303   2.759   5.493  0.6692  1.7305 -2.4977
  675Sol     MW 5688   1.337   2.683   5.459  0.0171  0.4638 -0.6326
  676Sol     OW 5689   1.044   1.186   1.625 -0.5229  0.7395 -0.1239
  676Sol     HW 5690   1.131   1.223   1.639  0.2278 -0.2478 -2.0649
  676Sol     HW 5691   0.984   1.256   1.652  0.8500  1.5409  0.9450
  676Sol     MW 5692   1.047   1.196   1.629  0.1885 -0.0147  0.3124
  677Sol     OW 5693   2.695   2.565   6.244  0.0505  0.3160  0.2058
  677Sol     HW 5694   2.657   2.620   6.312  2.6199  1.0032  1.1351
  677Sol     HW 5695   2.779   2.606   6.224  0.3444 -1.1604 -1.7906
  677Sol     MW 5696   2.699   2.573   6.248  0.3169 -0.5390  0.2524
  678Sol     OW 5697   0.959   3.227   4.164 -0.1734  0.2317 -0.5218
  678Sol     HW 5698   0.908   3.156   4.203  0.2289 -0.2749 -0.9073
  678Sol     HW 5699   1.049   3.211   4.193 -0.1829  0.9743 -0.0542
  678Sol     MW 5700   0.963   3.219   4.170  0.2144 -0.1913 -0.2048
  679Sol     OW 5701   1.303   1.640   4.009 -0.3274 -0.6696  0.7758
  679Sol     HW 5702   1.323   1.589   3.931 -1.4373  0.4411 -0.2501
  679Sol     HW 5703   1.383   1.689   4.028 -0.4088 -0.1110 -0.3157
  679Sol     MW 5704   1.312   1.640   4.004  0.5234  0.6467 -0.7085
  680Sol     OW 5705   2.122   3.431   6.777  0.0420 -0.1798  0.1495
  680Sol     HW 5706   2.080   3.472   6.702  1.8749  1.6012  0.0485
  680Sol     HW 5707   2.081   3.471   6.853 -0.8371 -0.9774  0.1120
  680Sol     MW 5708   2.115   3.438   6.777  0.2153  0.1198  0.6109
  681Sol     OW 5709   0.563   2.129   1.488 -0.0059 -0.5837  0.3854
  681Sol     HW 5710   0.560   2.141   1.582  0.5927  0.1209  0.3147
  681Sol     HW 5711   0.519   2.045   1.473  0.7164 -1.1371  1.3716
  681Sol     MW 5712   0.559   2.122   1.495 -0.2203  0.2399 -0.5044
  682Sol     OW 5713   0.601   1.263   9.100 -0.1755  0.3293 -0.4432
  682Sol     HW 5714   0.576   1.355   9.112  0.6569  0.6634 -1.2248
  682Sol     HW 5715   0.540   1.214   9.155  0.4517  1.4695  1.2916
  682Sol     MW 5716   0.593   1.267   9.106 -0.0252 -0.2101  0.0716
  683Sol     OW 5717   3.264   2.954   6.023 -0.4006 -0.0194 -0.1559
  683Sol     HW 5718   3.185   2.916   5.984 -0.3808 -1.1676  0.9104
  683Sol     HW 5719   3.232   3.017   6.087 -0.4507 -0.1784 -0.0246
  683Sol     MW 5720   3.254   2.956   6.025 -0.4885  0.5489  0.5794
  684Sol     OW 5721   0.439   3.048   6.280 -0.1973  0.4686 -0.5048
  684Sol     HW 5722   0.376   2.988   6.320 -0.2438  0.2181 -0.9565
  684Sol     HW 5723   0.440   3.124   6.339  0.0120 -0.0569  0.1657
  684Sol     MW 5724   0.433   3.050   6.289 -0.0954 -0.4235  0.1195
  685Sol     OW 5725   0.146   2.291   3.621 -0.5955  0.4875 -0.2145
  685Sol     HW 5726   0.119   2.311   3.531  0.4768  0.8247 -0.4706
  685Sol     HW 5727   0.140   2.375   3.667  0.8260  0.7465 -0.4886
  685Sol     MW 5728   0.143   2.300   3.617 -0.1097 -0.2588  0.2004
  686Sol     OW 5729   1.417   0.182   1.594 -0.6959 -0.2904 -0.2795
  686Sol     HW 5730   1.334   0.157   1.554 -0.5065 -0.6514 -0.4391
  686Sol     HW 5731   1.394   0.203   1.685 -0.8570 -0.9913 -0.1549
  686Sol     MW 5732   1.407   0.182   1.599 -0.1031 -0.5742 -0.2385
  687Sol     OW 5733   3.185   2.001   6.767  0.1976 -0.2910  0.4190
  687Sol     HW 5734   3.239   1.927   6.793  0.7914  0.1995  0.5925
  687Sol     HW 5735   3.235   2.078   6.794 -0.4341  0.1726  0.2833
  687Sol     MW 5736   3.194   2.001   6.772  0.2342  0.1927 -0.7151
  688Sol     OW 5737   2.984   1.130   6.625 -0.2782  0.3511  0.1604
  688Sol     HW 5738   2.974   1.082   6.707 -2.0558  0.4402  0.0231
  688Sol     HW 5739   3.073   1.109   6.596 -0.3736 -1.3840  1.0166
  688Sol     MW 5740   2.991   1.124   6.630  0.0110  0.0094  0.6632
  689Sol     OW 5741   0.827   1.339   3.204  0.1110  0.2774  0.0721
  689Sol     HW 5742   0.888   1.385   3.146  0.9558 -1.5661 -0.5394
  689Sol     HW 5743   0.741   1.371   3.178  0.6545  1.3478 -0.4666
  689Sol     MW 5744   0.825   1.346   3.197 -0.1794 -0.0335  0.0214
  690Sol     OW 5745   0.159   2.708   4.893  0.2395 -0.0460 -0.1651
  690Sol     HW 5746   0.240   2.703   4.943 -0.2695 -0.9709  0.5889
  690Sol     HW 5747   0.154   2.799   4.864  0.8822  0.3388  0.8883
  690Sol     MW 5748   0.166   2.715   4.895 -0.5319 -0.0271 -0.2839
  691Sol     OW 5749   2.677   2.971   7.320 -0.6299  0.6073  0.2278
  691Sol     HW 5750   2.593   2.943   7.357 -0.8118  1.8570  0.7950
  691Sol     HW 5751   2.664   3.063   7.299 -0.1772  0.1870 -1.9836
  691Sol     MW 5752   2.668   2.977   7.322  0.1729  0.3245  0.6096
  692Sol     OW 5753   1.995   1.568   9.724  0.2343 -0.5610 -0.0089
  692Sol     HW 5754   2.061   1.542   9.787  0.3841  0.7217  0.3698
  692Sol     HW 5755   2.035   1.639   9.674 -1.2432  0.9873  0.9594
  692Sol     MW 5756   2.005   1.572   9.725 -0.6131 -0.0433 -0.2165
  693Sol     OW 5757   2.767   2.927   5.916 -0.3036  0.1849  0.8720
  693Sol     HW 5758   2.708   2.932   5.841 -0.6671  0.1150  1.1532
  693Sol     HW 5759   2.746   3.004   5.969 -0.3174  0.0254  1.1000
  693Sol     MW 5760   2.760   2.934   5.914 -0.0255 -0.2447  0.0668
  694Sol     OW 5761   0.679   1.632   8.564 -0.7364  0.5201 -0.0059
  694Sol     HW 5762   0.632   1.676   8.493 -1.1079  0.2740  0.0861
  694Sol     HW 5763   0.759   1.684   8.575 -1.3667  1.4294  0.3895
  694Sol     MW 5764   0.682   1.641   8.559 -0.3499 -0.5480  0.3835
  695Sol     OW 5765   1.824   0.511   4.584  0.4382 -0.6617 -0.3565
  695Sol     HW 5766   1.840   0.494   4.491 -2.1251  0.3780 -1.0283
  695Sol     HW 5767   1.804   0.425   4.621  1.9136 -1.1418 -0.6595
  695Sol     MW 5768   1.824   0.502   4.579  0.4129  0.1261 -0.2050
  696Sol     OW 5769   2.967   2.299   5.028  0.2769 -0.0672  0.3354
  696Sol     HW 5770   2.907   2.224   5.030  2.3408 -1.9126 -2.2884
  696Sol     HW 5771   2.910   2.376   5.028 -2.0128 -1.7134 -0.0483
  696Sol     MW 5772   2.957   2.299   5.028 -0.4186  0.2722 -0.1853
  697Sol     OW 5773   0.300   3.168   1.687  0.0631  0.2444 -0.0910
  697Sol     HW 5774   0.268   3.132   1.605 -0.3673 -0.9827  0.5917
  697Sol     HW 5775   0.237   3.237   1.709 -1.3327 -1.1771  0.5086
  697Sol     MW 5776   0.291   3.171   1.682  0.0484  0.6865 -0.6545
  698Sol     OW 5777   3.312   2.551   5.785  0.6178  0.0232  0.3103
  698Sol     HW 5778   3.271   2.470   5.754  0.1377  0.3208  0.1577
  698Sol     HW 5779   3.279   2.619   5.726  0.5067  0.4345  0.8345
  698Sol     MW 5780   3.306   2.550   5.777  0.7648 -0.1205  0.2672
  699Sol     OW 5781   1.822   1.307   6.324  0.3241 -0.0412  0.4337
  699Sol     HW 5782   1.914   1.331   6.318  0.7282 -1.9905 -1.7257
  699Sol     HW 5783   1.790   1.310   6.234 -2.1510  2.1525  1.3255
  699Sol     MW 5784   1.827   1.309   6.316 -0.1879 -0.4225  1.2104
  700Sol     OW 5785   1.712   2.539   8.954  0.1794  0.1216 -0.7275
  700Sol     HW 5786   1.702   2.494   8.871 -0.3603  0.5037 -0.8724
  700Sol     HW 5787   1.670   2.624   8.941  1.6558  0.8885 -0.6348
  700Sol     MW 5788   1.708   2.543   8.946 -0.3976  0.4917  0.1410
  701Sol     OW 5789   2.593   1.766   6.088 -0.4241 -0.3960 -0.4749
  701Sol     HW 5790   2.505   1.775   6.051 -0.0900  1.9673 -0.8097
  701Sol     HW 5791   2.626   1.856   6.091  2.6773 -1.4388 -1.9949
  701Sol     MW 5792   2.588   1.775   6.085 -0.2951 -0.7064  0.1830
  702Sol     OW 5793   2.032   3.350   8.801  0.0051  0.7865 -0.1046
  702Sol     HW 5794   1.990   3.333   8.717  0.0108 -0.4023  0.1268
  702Sol     HW 5795   2.054   3.263   8.835  0.5331  1.2864  0.8523
  702Sol     MW 5796   2.030   3.341   8.797  0.1901 -0.1879 -0.1770
  703Sol     OW 5797   2.118   3.325   6.369 -0.0873  0.3517 -0.0190
  703Sol     HW 5798   2.097   3.292   6.282 -0.0856 -1.4993  0.6606
  703Sol     HW 5799   2.092   3.255   6.428 -1.1493  2.0383  1.5808
  703Sol     MW 5800   2.114   3.316   6.367 -0.1211  0.2606 -0.0267
  704Sol     OW 5801   1.191   1.897   5.019 -0.0772 -0.0533 -0.3709
  704Sol     HW 5802   1.096   1.899   5.030 -0.0567  1.2674 -0.3606
  704Sol     HW 5803   1.226   1.943   5.095  0.5838 -0.7627 -0.2395
  704Sol     MW 5804   1.186   1.901   5.026 -0.4192 -0.8254  0.2428
  705Sol     OW 5805   0.715   0.620   4.469  0.0183  0.3521  0.3955
  705Sol     HW 5806   0.683   0.549   4.413 -0.7649 -1.2137  2.7626
  705Sol     HW 5807   0.769   0.577   4.534  1.3244  2.2082  0.5691
  705Sol     MW 5808   0.717   0.610   4.470 -0.1390  0.1757  0.9237
  706Sol     OW 5809   2.685   0.193   9.456 -0.1116 -0.4384  0.4245
  706Sol     HW 5810   2.663   0.171   9.546  0.0661 -0.9854  0.3351
  706Sol     HW 5811   2.759   0.137   9.435  0.1000 -0.0267  0.0682
  706Sol     MW 5812   2.689   0.186   9.462 -0.3101  0.1518 -0.3678
  707Sol     OW 5813   2.336   1.902   4.552 -0.5172  0.4234 -0.3080
  707Sol     HW 5814   2.413   1.847   4.537  0.1424  1.9619 -2.8666
  707Sol     HW 5815   2.325   1.903   4.647 -0.2516 -3.6917 -0.1207
  707Sol     MW 5816   2.342   1.897   4.559  0.1314  0.2450 -0.4649
  708Sol     OW 5817   1.753   0.489   5.673 -0.4141 -0.4438 -0.1644
  708Sol     HW 5818   1.724   0.543   5.746  0.5243  1.1437 -0.9219
  708Sol     HW 5819   1.691   0.416   5.670 -2.1481  0.9660  0.4664
  708Sol     MW 5820   1.745   0.488   5.679 -0.1544  0.3014 -0.6510
  709Sol     OW 5821   0.237   1.564   2.271  0.3173  0.0443  0.2555
  709Sol     HW 5822   0.183   1.589   2.347 -1.1154  0.9590 -1.0316
  709Sol     HW 5823   0.186   1.496   2.227  0.1951  0.9135 -0.9721
  709Sol     MW 5824   0.227   1.560   2.274 -0.3042 -0.4928 -0.1257
  710Sol     OW 5825   2.098   1.003   5.267 -0.1446  0.6168  0.5053
  710Sol     HW 5826   2.064   1.055   5.194  2.3242  1.7037  0.0925
  710Sol     HW 5827   2.098   1.064   5.341  0.1960  0.3848  0.6955
  710Sol     MW 5828   2.095   1.013   5.267 -0.7112 -0.2508 -0.3880
  711Sol     OW 5829   0.357   0.911   7.766  0.1973 -0.2409 -0.1093
  711Sol     HW 5830   0.281   0.867   7.803  1.9150 -2.4535  0.8543
  711Sol     HW 5831   0.363   0.994   7.814  0.3175 -1.5234  2.1336
  711Sol     MW 5832   0.351   0.915   7.773  0.5165 -0.5296  0.1145
  712Sol     OW 5833   2.614   0.172   9.718 -0.2727 -0.5832 -0.0115
  712Sol     HW 5834   2.529   0.215   9.729  0.0825  0.2917 -0.7017
  712Sol     HW 5835   2.594   0.079   9.729 -1.3054 -0.3814 -0.0660
  712Sol     MW 5836   2.604   0.167   9.720 -0.8624 -0.8965  0.3075
  713Sol     OW 5837   2.336   2.170   7.610 -0.0529 -0.1350  0.1943
  713Sol     HW 5838   2.394   2.241   7.637 -0.8077  0.5965 -0.0770
  713Sol     HW 5839   2.385   2.090   7.629  1.3975  0.4930 -0.8400
  713Sol     MW 5840   2.345   2.169   7.614 -0.0800 -0.2371 -0.0594
  714Sol     OW 5841   0.799   2.696   2.602  0.6569 -0.1115 -0.3562
  714Sol     HW 5842   0.760   2.704   2.689  0.6660 -1.5972 -0.2112
  714Sol     HW 5843   0.893   2.697   2.617  0.6578 -0.4727 -0.3443
  714Sol     MW 5844   0.804   2.697   2.611  0.7005 -0.7406 -0.0899
  715Sol     OW 5845   0.700   1.565   5.624 -0.2422 -0.3232  0.1475
  715Sol     HW 5846   0.759   1.639   5.642  0.4174 -0.3035 -2.0285
  715Sol     HW 5847   0.646   1.558   5.703  0.3357  1.8685  0.7629
  715Sol     MW 5848   0.701   1.571   5.633 -0.6860 -0.6667  0.8668
  716Sol     OW 5849   2.009   2.991   9.598  0.2699 -0.4027 -0.1943
  716Sol     HW 5850   1.936   2.992   9.659  1.1001  1.9724  0.7885
  716Sol     HW 5851   2.024   3.082   9.575  1.1308 -1.0925 -2.5862
  716Sol     MW 5852   2.004   2.999   9.601  0.1189 -0.1635  0.1077
  717Sol     OW 5853   3.088   3.361   3.384  0.1746 -0.2067  0.3455
  717Sol     HW 5854   3.179   3.390   3.374  0.5347 -1.3067  0.4594
  717Sol     HW 5855   3.071   3.307   3.307 -0.4384  0.1333  0.2396
  717Sol     MW 5856   3.094   3.359   3.376 -0.4250  0.0475  0.3415
  718Sol     OW 5857   2.320   3.277   2.155  0.0863 -0.3624  0.2591
  718Sol     HW 5858   2.288   3.193   2.190  0.5838 -1.0005 -0.8072
  718Sol     HW 5859   2.291   3.341   2.219 -2.7356 -1.0024 -0.2783
  718Sol     MW 5860   2.315   3.275   2.164  0.1862  0.3796 -0.8349
  719Sol     OW 5861   0.204   0.830   5.320 -0.2187  0.0994  0.6115
  719Sol     HW 5862   0.130   0.796   5.371 -0.3606  1.6828  1.4925
  719Sol     HW 5863   0.241   0.899   5.375  0.5259  0.8509 -0.8190
  719Sol     MW 5864   0.201   0.833   5.330  0.1068 -0.5594  0.2715
  720Sol     OW 5865   0.598   2.222   9.773  0.4856  0.0176  0.2413
  720Sol     HW 5866   0.634   2.213   9.861 -1.0245  1.4972  1.0326
  720Sol     HW 5867   0.575   2.314   9.765 -0.2627 -0.2804 -1.3608
  720Sol     MW 5868   0.599   2.229   9.780  0.6078 -0.2667 -0.2615
  721Sol     OW 5869   3.140   0.060   5.887  0.0187  0.4375 -0.4294
  721Sol     HW 5870   3.143   0.077   5.793 -1.3844  1.4945 -0.3135
  721Sol     HW 5871   3.221   0.015   5.907 -0.3477 -1.1273 -2.4039
  721Sol     MW 5872   3.147   0.058   5.881  0.1790  0.6518  0.7892
  722Sol     OW 5873   0.139   1.529   8.306 -0.0840 -0.5865  0.0903
  722Sol     HW 5874   0.114   1.613   8.344  0.0965 -0.5177  0.0569
  722Sol     HW 5875   0.113   1.465   8.372 -0.0774 -0.4921  0.1864
  722Sol     MW 5876   0.134   1.531   8.315 -0.2799  0.2072  0.4817
  723Sol     OW 5877   1.384   0.065   6.584 -0.1439 -0.2927 -0.5848
  723Sol     HW 5878   1.371  -0.012   6.530  0.0413  0.1356 -1.2454
  723Sol     HW 5879   1.433   0.126   6.529  1.4269 -0.4396  0.5809
  723Sol     MW 5880   1.387   0.064   6.575 -0.0631 -0.1936 -0.2909
  724Sol     OW 5881   0.652   0.620   8.713 -0.0868  0.5172 -0.1432
  724Sol     HW 5882   0.601   0.696   8.742  1.4318  1.0632  1.2208
  724Sol     HW 5883   0.667   0.636   8.619 -1.5486  0.8408 -0.3335
  724Sol     MW 5884   0.649   0.628   8.707 -0.2407  0.1240  0.4557
  725Sol     OW 5885   0.841   0.682   1.380  0.7121  0.3901  0.0542
  725Sol     HW 5886   0.804   0.748   1.321 -1.1211  0.4475  1.2415
  725Sol     HW 5887   0.826   0.599   1.334 -0.8181  0.4233  0.4476
  725Sol     MW 5888   0.836   0.680   1.370 -0.4417  0.0420 -0.3688
  726Sol     OW 5889   3.077   1.743   7.916  0.2361  0.4968 -0.1405
  726Sol     HW 5890   3.161   1.707   7.886  0.7216  0.1739  1.5745
  726Sol     HW 5891   3.014   1.674   7.896  0.7782 -0.2966  0.8289
  726Sol     MW 5892   3.079   1.733   7.911 -0.2952 -0.1375 -0.1764
  727Sol     OW 5893   2.600   1.988   3.065  0.3832 -0.0246  0.0727
  727Sol     HW 5894   2.684   1.953   3.094 -0.5471 -1.3212  1.3034
  727Sol     HW 5895   2.571   2.044   3.136  0.0517  0.1498 -0.1979
  727Sol     MW 5896   2.605   1.990   3.074  0.1311  0.0765  0.4128
  728Sol     OW 5897   3.086   0.719   9.639  0.4903 -0.7813 -0.4469
  728Sol     HW 5898   3.174   0.757   9.633  0.2852 -0.2363 -0.0660
  728Sol     HW 5899   3.101   0.625   9.648  1.0381 -0.6854 -0.3424
  728Sol     MW 5900   3.095   0.714   9.640 -0.3860 -0.1465 -0.3853
  729Sol     OW 5901   2.010   1.868   2.150 -0.6940  0.1488 -0.3269
  729Sol     HW 5902   2.029   1.838   2.061  0.9656  1.9167 -0.5927
  729Sol     HW 5903   1.921   1.904   2.145 -0.4228  0.6972 -1.3843
  729Sol     MW 5904   2.004   1.868   2.142 -0.5522  0.3827  0.4118
  730Sol     OW 5905   0.124   0.913   8.949  0.7377  0.3012 -0.1026
  730Sol     HW 5906   0.114   1.008   8.951  0.6867  0.2934  0.0664
  730Sol     HW 5907   0.047   0.880   8.996  0.1537  0.1289 -1.1541
  730Sol     MW 5908   0.116   0.918   8.953  0.0661 -0.5127 -0.1031
  731Sol     OW 5909   0.757   2.202   9.397 -0.2056  0.0176  0.2638
  731Sol     HW 5910   0.754   2.108   9.413  2.0052 -0.2220 -0.5116
  731Sol     HW 5911   0.763   2.210   9.302 -0.1056  0.9142  0.3440
  731Sol     MW 5912   0.757   2.194   9.390 -0.2913 -0.1004 -0.9069
  732Sol     OW 5913   1.507   2.162   9.464 -1.1187  0.0565 -0.1786
  732Sol     HW 5914   1.543   2.095   9.406  0.4268  1.5081 -0.9582
  732Sol     HW 5915   1.417   2.134   9.482 -0.9638 -1.4319 -1.6735
  732Sol     MW 5916   1.502   2.153   9.461  0.0975  0.1151 -0.0441
  733Sol     OW 5917   1.432   1.301   6.113  0.2791 -0.1126 -0.1137
  733Sol     HW 5918   1.473   1.355   6.181  1.4064 -1.2515  0.1164
  733Sol     HW 5919   1.479   1.218   6.117 -1.5732 -1.1868 -0.3341
  733Sol     MW 5920   1.440   1.299   6.120 -0.0594 -0.0027 -0.7561
  734Sol     OW 5921   0.700   3.228   2.099 -0.1571 -0.1093 -0.6842
  734Sol     HW 5922   0.789   3.202   2.075 -0.5156 -1.4975 -0.5939
  734Sol     HW 5923   0.701   3.232   2.194 -0.3773 -0.8832 -0.6430
  734Sol     MW 5924   0.708   3.226   2.105  0.1805 -0.4180 -0.2802
  735Sol     OW 5925   0.621   1.101   4.526 -0.0656 -0.2155 -0.5981
  735Sol     HW 5926   0.668   1.167   4.577  0.0449  0.9799 -2.2031
  735Sol     HW 5927   0.662   1.018   4.550  1.8963  0.6427 -0.8697
  735Sol     MW 5928   0.629   1.099   4.533  0.4447 -0.8202  0.0839
  736Sol     OW 5929   1.972   3.238   1.617 -0.4505 -0.2759  0.2110
  736Sol     HW 5930   2.054   3.199   1.646 -1.4094 -3.3354 -1.0907
  736Sol     HW 5931   1.943   3.290   1.692  2.4198  0.5412  0.8365
  736Sol     MW 5932   1.977   3.240   1.626  0.1802  0.0994  0.0934
  737Sol     OW 5933   1.101   1.467   2.588  0.0625  0.6239 -0.5008
  737Sol     HW 5934   1.054   1.384   2.587  1.1643 -0.0343  0.1668
  737Sol     HW 5935   1.186   1.446   2.628  1.1252  1.6510 -2.1185
  737Sol     MW 5936   1.105   1.458   2.591 -0.0671 -0.8872 -0.5851
  738Sol     OW 5937   0.070   1.678   4.894  0.1128 -0.1902 -0.4876
  738Sol     HW 5938   0.089   1.588   4.868 -1.4395 -0.7368  0.1626
  738Sol     HW 5939  -0.025   1.687   4.880  0.1404  1.1283  0.0956
  738Sol     MW 5940   0.063   1.671   4.890  0.0019  0.0850 -0.2311
  739Sol     OW 5941   1.829   0.170   2.389 -0.0557  0.4544 -0.3853
  739Sol     HW 5942   1.842   0.193   2.297 -0.3780 -1.2873 -0.8707
  739Sol     HW 5943   1.885   0.231   2.437  0.4695  1.0655 -1.7500
  739Sol     MW 5944   1.835   0.178   2.385 -0.1796  0.1600  0.2015
  740Sol     OW 5945   0.165   0.178   8.122  0.8444 -0.3233  0.0101
  740Sol     HW 5946   0.224   0.107   8.098  1.6710  0.1920  0.5122
  740Sol     HW 5947   0.222   0.251   8.145  0.0138  0.2282  0.3608
  740Sol     MW 5948   0.175   0.178   8.122  0.2518 -0.1084 -0.5972
  741Sol     OW 5949   0.564   0.124   5.852 -0.6733  0.0642 -0.4845
  741Sol     HW 5950   0.634   0.104   5.789 -0.4520 -0.3478 -0.1121
  741Sol     HW 5951   0.610   0.157   5.929 -0.8003 -1.2324  0.1640
  741Sol     MW 5952   0.575   0.125   5.853  0.1939 -0.0938  0.1753
  742Sol     OW 5953   2.884   2.844   3.385 -0.1084 -0.0115 -0.4161
  742Sol     HW 5954   2.871   2.749   3.387  1.3634 -0.2250 -0.9953
  742Sol     HW 5955   2.881   2.870   3.477  0.9485 -0.8280 -0.1420
  742Sol     MW 5956   2.882   2.837   3.394  0.3344  0.2402  0.0492
  743Sol     OW 5957   0.817   3.231   5.444  0.2954  0.4976  0.7317
  743Sol     HW 5958   0.751   3.247   5.512  0.3225  0.8077  0.6890
  743Sol     HW 5959   0.817   3.312   5.392  0.9436  0.6289  0.9311
  743Sol     MW 5960   0.811   3.240   5.445 -1.0355 -0.2888 -0.7588
  744Sol     OW 5961   2.868   1.693   4.514  0.3118  0.2884 -0.1043
  744Sol     HW 5962   2.798   1.694   4.448  0.4587 -1.6486 -0.3039
  744Sol     HW 5963   2.895   1.601   4.520  0.2086  0.4007  2.7801
  744Sol     MW 5964   2.864   1.685   4.508  0.3313 -0.0412  0.1820
  745Sol     OW 5965   2.695   3.312   4.504 -0.1433  0.5069  0.1456
  745Sol     HW 5966   2.636   3.381   4.474 -1.5497 -1.6201 -2.2271
  745Sol     HW 5967   2.715   3.262   4.425  2.1810 -0.8259  1.5126
  745Sol     MW 5968   2.692   3.314   4.494 -0.3709 -0.5459 -0.3424
  746Sol     OW 5969   2.611   0.731   1.354  0.7187  0.0242  0.1113
  746Sol     HW 5970   2.670   0.660   1.331  1.7454  1.1175 -0.7343
  746Sol     HW 5971   2.669   0.802   1.382 -0.2664  0.6506  0.5762
  746Sol     MW 5972   2.621   0.731   1.354 -0.8221  0.4608 -0.6741
  747Sol     OW 5973   1.941   1.168   4.011 -0.1457  0.6186  0.2041
  747Sol     HW 5974   1.915   1.199   3.924  0.2166  1.4199  0.3849
  747Sol     HW 5975   2.023   1.122   3.996  0.0337  0.9540  0.1583
  747Sol     MW 5976   1.946   1.166   4.002  0.5724 -0.2266  0.4826
  748Sol     OW 5977   2.268   1.329   3.869 -0.0026  0.5481 -0.3973
  748Sol     HW 5978   2.220   1.332   3.786  0.9847  0.4353 -0.9834
  748Sol     HW 5979   2.248   1.243   3.905 -0.7299  0.7409 -0.3465
  748Sol     MW 5980   2.262   1.322   3.864 -0.0232  0.6331  0.2274
  749Sol     OW 5981   0.965   2.671   1.714 -0.0920  0.5310  0.5927
  749Sol     HW 5982   0.926   2.647   1.629  0.3169 -1.4501  0.9363
  749Sol     HW 5983   0.986   2.763   1.705  0.4532  0.2252 -1.6784
  749Sol     MW 5984   0.963   2.677   1.706  0.4482  0.8178 -0.0306
  750Sol     OW 5985   3.183   1.225   2.226  0.1953 -0.0455  0.1411
  750Sol     HW 5986   3.215   1.142   2.192 -0.1631 -0.2297  0.2548
  750Sol     HW 5987   3.132   1.202   2.304 -2.3306  0.0039 -1.4492
  750Sol     MW 5988   3.181   1.216   2.230 -0.4324  0.1440  0.8362
  751Sol     OW 5989   0.004   0.499   3.833 -0.5712 -0.6856 -0.0312
  751Sol     HW 5990  -0.047   0.567   3.789  0.3735 -0.9971 -1.6829
  751Sol     HW 5991  -0.057   0.458   3.893 -0.9413  2.1854  1.6670
  751Sol     MW 5992  -0.006   0.502   3.834  0.4869 -0.1297  0.4535
  752Sol     OW 5993   1.293   2.183   4.713  0.3320 -0.5452 -0.5408
  752Sol     HW 5994   1.245   2.245   4.767  1.9821 -0.3744  0.7946
  752Sol     HW 5995   1.360   2.147   4.772  2.0089 -0.5783 -2.3860
  752Sol     MW 5996   1.295   2.185   4.723 -0.5331 -0.4972  0.1523
  753Sol     OW 5997   0.356   0.543   3.028 -0.0037 -0.5097  0.2531
  753Sol     HW 5998   0.367   0.448   3.016  2.2840 -0.1767 -0.6119
  753Sol     HW 5999   0.408   0.563   3.106  3.6590  0.7217 -2.3574
  753Sol     MW 6000   0.362   0.536   3.034 -0.6255 -0.3886 -0.2237
  754Sol     OW 6001   2.991   3.181   3.096 -0.3840 -0.0895  0.2258
  754Sol     HW 6002   3.082   3.210   3.089 -0.5260  0.1870 -0.5997
  754Sol     HW 6003   2.940   3.254   3.059 -0.9993  0.0949  1.3997
  754Sol     MW 6004   2.994   3.190   3.092  0.6418 -0.6851  0.2278
  755Sol     OW 6005   1.189   2.017   1.775 -0.9182 -0.1692 -0.2381
  755Sol     HW 6006   1.143   2.074   1.714  0.6451  0.7962 -0.5459
  755Sol     HW 6007   1.277   2.009   1.738  0.1787  0.7710  2.0634
  755Sol     MW 6008   1.193   2.022   1.766  0.1414 -0.5978  0.3016
  756Sol     OW 6009   1.341   0.849   7.144 -0.4020  0.6201 -0.2452
  756Sol     HW 6010   1.326   0.754   7.144 -2.8607  0.9444  1.3284
  756Sol     HW 6011   1.336   0.874   7.052  0.3969 -0.7748 -0.6907
  756Sol     MW 6012   1.339   0.843   7.136  0.4893  0.0012 -0.5163
  757Sol     OW 6013   2.357   2.379   8.444 -0.1586 -0.0272 -0.8627
  757Sol     HW 6014   2.411   2.324   8.501  0.2377  1.0144 -0.2145
  757Sol     HW 6015   2.340   2.325   8.367  2.1130 -0.2562 -1.2366
  757Sol     MW 6016   2.361   2.369   8.442 -0.5940 -0.0818  0.7280
  758Sol     OW 6017   2.526   0.090   9.079 -0.3218  0.9075 -0.0903
  758Sol     HW 6018   2.514   0.151   9.152  0.6845  0.1064  0.7734
  758Sol     HW 6019   2.612   0.112   9.043  0.4077 -0.5218  0.7456
  758Sol     MW 6020   2.533   0.097   9.082  0.1198  0.0120  0.5997
  759Sol     OW 6021   2.193   3.035   2.249 -0.0860  0.3333  0.2077
  759Sol     HW 6022   2.221   2.986   2.327  0.8830  1.7300  0.7517
  759Sol     HW 6023   2.226   2.983   2.175  0.1594 -0.2951  0.7510
  759Sol     MW 6024   2.199   3.026   2.250 -0.1693  0.1339  0.1333
  760Sol     OW 6025   0.088   1.838   6.880  0.6377  0.5884 -0.1724
  760Sol     HW 6026   0.162   1.840   6.821 -0.3252 -1.2439 -1.4800
  760Sol     HW 6027   0.092   1.752   6.921 -1.0022  0.2997 -0.5790
  760Sol     MW 6028   0.095   1.831   6.879 -0.1382  0.2023  0.2445
  761Sol     OW 6029   0.548   0.262   9.560 -0.2058 -0.4957 -0.0014
  761Sol     HW 6030   0.491   0.189   9.581 -0.3275 -0.2992  0.3489
  761Sol     HW 6031   0.565   0.253   9.466  0.7668 -1.6780  0.2694
  761Sol     MW 6032   0.545   0.255   9.553  0.4524 -0.0087  0.1698
  762Sol     OW 6033   1.370   1.308   6.907 -0.3730 -0.3463 -0.4094
  762Sol     HW 6034   1.390   1.317   7.000  0.4024  0.1749 -0.6226
  762Sol     HW 6035   1.451   1.335   6.862 -0.1071 -2.3628 -1.2018
  762Sol     MW 6036   1.379   1.312   6.911 -0.2939 -0.2222 -0.4085
  763Sol     OW 6037   2.024   2.529   5.763 -0.1750  0.1738 -0.5769
  763Sol     HW 6038   1.933   2.548   5.738 -0.6233 -1.2025 -0.0436
  763Sol     HW 6039   2.077   2.584   5.704 -1.3308  0.3911 -1.4356
  763Sol     MW 6040   2.020   2.536   5.755  0.0429  0.8648 -0.4208
  764Sol     OW 6041   3.321   2.086   6.526 -0.1315 -0.0714  0.2869
  764Sol     HW 6042   3.266   2.067   6.602  0.4522 -1.4278  0.3825
  764Sol     HW 6043   3.367   2.166   6.550 -0.8100  0.1437  0.8940
  764Sol     MW 6044   3.320   2.091   6.535 -0.1301 -0.7463 -0.1591
  765Sol     OW 6045   1.693   2.220   3.828 -0.4603 -0.1250  0.2229
  765Sol     HW 6046   1.611   2.249   3.868 -0.0202 -0.0286  1.0725
  765Sol     HW 6047   1.702   2.129   3.855 -0.8914 -0.4907 -0.8685
  765Sol     MW 6048   1.687   2.215   3.834 -0.4027  0.3423  0.1002
  766Sol     OW 6049   2.996   0.520   3.698 -0.1966 -0.0219 -0.1663
  766Sol     HW 6050   3.061   0.590   3.696  0.4040 -0.5926 -2.0027
  766Sol     HW 6051   3.047   0.440   3.693 -0.6648 -0.8230  5.2425
  766Sol     MW 6052   3.006   0.519   3.697 -0.1919 -0.0694  0.3637
  767Sol     OW 6053   1.326   1.373   3.634 -0.0779 -0.5868 -0.5885
  767Sol     HW 6054   1.242   1.368   3.681 -0.7510 -1.5131 -1.8571
  767Sol     HW 6055   1.378   1.434   3.685 -2.2239  1.5119 -0.8282
  767Sol     MW 6056   1.323   1.378   3.643  0.5065 -0.6138 -0.1925
  768Sol     OW 6057   0.423   1.816   7.598  0.0227  0.0778 -0.4301
  768Sol     HW 6058   0.439   1.821   7.504  1.0823  0.5613 -0.2239
  768Sol     HW 6059   0.361   1.887   7.615 -1.0405 -0.7166 -0.9401
  768Sol     MW 6060   0.419   1.823   7.591 -0.1294 -0.2167  0.2826
  769Sol     OW 6061   3.140   2.210   4.098  0.4956  0.1108  0.2163
  769Sol     HW 6062   3.167   2.173   4.014  0.5242 -0.9957  0.7039
  769Sol     HW 6063   3.183   2.155   4.164 -1.7271 -0.7550  0.9907
  769Sol     MW 6064   3.146   2.202   4.097 -0.1938  0.1547 -0.6789
  770Sol     OW 6065   3.198   0.845   9.113  0.0837  0.2034  0.9278
  770Sol     HW 6066   3.138   0.915   9.088  2.8011  2.1815 -0.4056
  770Sol     HW 6067   3.148   0.764   9.103 -2.0593  1.7129 -0.9509
  770Sol     MW 6068   3.188   0.844   9.110 -0.3563  0.8147  0.2136
  771Sol     OW 6069   2.800   3.182   8.709 -0.0354 -0.0712  0.4677
  771Sol     HW 6070   2.711   3.216   8.712 -0.5848 -1.5001  0.9749
  771Sol     HW 6071   2.853   3.255   8.676 -1.5212  0.4951 -0.7263
  771Sol     MW 6072   2.797   3.191   8.707 -0.2764  0.7549 -0.5158
  772Sol     OW 6073   0.020   2.757   3.863 -0.1549  0.1628 -0.6973
  772Sol     HW 6074   0.063   2.837   3.831  1.4505 -0.4822 -0.1999
  772Sol     HW 6075  -0.074   2.778   3.861  0.2869  2.4399  0.4464
  772Sol     MW 6076   0.015   2.766   3.860  0.7128  0.7734 -0.0938
  773Sol     OW 6077   1.845   1.625   9.931 -0.1959 -0.9983 -0.4737
  773Sol     HW 6078   1.900   1.619   9.853  0.1936 -0.1709 -0.2655
  773Sol     HW 6079   1.850   1.716   9.957 -2.0429 -0.8127 -0.6988
  773Sol     MW 6080   1.851   1.632   9.926  0.2322  0.2097 -0.1273
  774Sol     OW 6081   3.232   0.472   7.164 -0.0820  0.2612  0.7170
  774Sol     HW 6082   3.216   0.513   7.249 -0.2189  1.3257  0.1805
  774Sol     HW 6083   3.177   0.393   7.165 -1.3285  1.1133  0.9903
  774Sol     MW 6084   3.225   0.469   7.172  0.2465  0.2627  0.0347
  775Sol     OW 6085   2.327   0.899   6.211 -0.3261 -0.2467  0.5775
  775Sol     HW 6086   2.392   0.905   6.281  0.8346  0.3388 -0.5407
  775Sol     HW 6087   2.319   0.805   6.194  2.1922 -0.2056 -1.0748
  775Sol     MW 6088   2.332   0.891   6.216  0.1903  0.1241 -0.1155
  776Sol     OW 6089   0.788   1.603   6.855 -0.2336  0.1020  0.0305
  776Sol     HW 6090   0.738   1.628   6.777 -0.6703 -1.1246 -0.0821
  776Sol     HW 6091   0.775   1.676   6.915 -0.4838  0.7308 -0.7699
  776Sol     MW 6092   0.782   1.612   6.853 -0.3859 -0.2486  0.4721
  777Sol     OW 6093   1.877   0.559   9.835  0.2672  0.3112 -0.0162
  777Sol     HW 6094   1.931   0.550   9.756  1.3822 -2.4009  0.9737
  777Sol     HW 6095   1.795   0.516   9.812  0.0112  0.9021 -0.2094
  777Sol     MW 6096   1.875   0.554   9.826 -0.7936  0.0909 -0.8311
  778Sol     OW 6097   2.639   1.692   2.611 -0.5317 -0.0616  0.8550
  778Sol     HW 6098   2.603   1.716   2.696  2.4286  2.6846  1.4320
  778Sol     HW 6099   2.647   1.597   2.613  0.0443  0.0169  3.9082
  778Sol     MW 6100   2.637   1.686   2.619  0.0598 -0.4111  0.5881
  779Sol     OW 6101   2.699   2.888   5.425  0.5272 -0.1393 -0.1242
  779Sol     HW 6102   2.682   2.954   5.493  0.1224 -0.1640 -0.1967
  779Sol     HW 6103   2.686   2.934   5.343 -0.9429 -0.5889 -0.1763
  779Sol     MW 6104   2.696   2.898   5.424  0.8636  0.5620 -0.3614
  780Sol     OW 6105   2.634   2.494   1.594 -0.1854  0.4545 -0.1258
  780Sol     HW 6106   2.726   2.501   1.571 -0.0536  0.3410  0.3616
  780Sol     HW 6107   2.589   2.546   1.527  0.1981  0.2338 -0.5598
  780Sol     MW 6108   2.638   2.500   1.586 -0.1223 -0.3728 -0.8434
  781Sol     OW 6109   3.186   2.916   7.351 -0.1284  0.4417  0.6366
  781Sol     HW 6110   3.238   2.909   7.431 -0.8902  0.9605  1.1792
  781Sol     HW 6111   3.099   2.943   7.381 -0.2924  1.0697 -0.4051
  781Sol     MW 6112   3.183   2.918   7.361 -0.1972 -0.1474  0.0497
  782Sol     OW 6113   2.076   1.482   6.600 -0.2141  0.0477  0.2765
  782Sol     HW 6114   1.994   1.451   6.637  1.3644 -1.5526  2.5774
  782Sol     HW 6115   2.076   1.576   6.616 -0.9167 -0.1762  1.6704
  782Sol     MW 6116   2.069   1.488   6.605 -0.2781 -0.0831 -0.1160
  783Sol     OW 6117   1.666   2.792   1.930 -0.0075  0.2723  0.1597
  783Sol     HW 6118   1.736   2.858   1.938  0.8907 -0.6125 -0.3226
  783Sol     HW 6119   1.587   2.838   1.957  0.7190  1.3740  0.4449
  783Sol     MW 6120   1.666   2.802   1.933 -0.1706  0.4690  0.1485
  784Sol     OW 6121   1.639   2.317   2.001  0.2909  0.4976 -0.0573
  784Sol     HW 6122   1.661   2.242   1.947  2.2671  0.9997  0.0337
  784Sol     HW 6123   1.555   2.349   1.966 -1.1282 -2.3751  0.5938
  784Sol     MW 6124   1.633   2.313   1.993  0.0547  0.4232  0.3716
  785Sol     OW 6125   2.079   1.661   3.056  0.3863 -0.6521  0.1442
  785Sol     HW 6126   2.156   1.715   3.074 -0.2544  0.2969  0.1350
  785Sol     HW 6127   2.085   1.641   2.963  0.1042  0.2613 -0.0739
  785Sol     MW 6128   2.086   1.664   3.049 -0.5313  0.8964  0.2518
  786Sol     OW 6129   2.389   1.100   7.237 -0.6655 -0.5555  0.4781
  786Sol     HW 6130   2.317   1.151   7.274 -0.5278  0.5308 -0.7295
  786Sol     HW 6131   2.419   1.151   7.162  2.8190  0.1542  2.2482
  786Sol     MW 6132   2.385   1.109   7.234  0.0372 -0.7392  0.2659
  787Sol     OW 6133   1.568   1.618   5.982  0.3678  0.2527 -0.7755
  787Sol     HW 6134   1.496   1.617   5.919 -0.4460 -0.7865  0.1671
  787Sol     HW 6135   1.549   1.693   6.038 -1.3972 -1.5323  1.0777
  787Sol     MW 6136   1.560   1.625   5.981 -0.2744  0.1773  0.4727
  788Sol     OW 6137   1.363   1.491   4.977  0.4831 -0.3518 -0.3309
  788Sol     HW 6138   1.319   1.566   4.936  0.7793 -0.3726 -0.6959
  788Sol     HW 6139   1.425   1.530   5.038 -0.0209 -0.3216  0.1599
  788Sol     MW 6140   1.365   1.502   4.979  0.1964 -0.1401 -0.0804
  789Sol     OW 6141   2.465   2.613   2.644  0.2240  0.1247 -0.9634
  789Sol     HW 6142   2.370   2.609   2.653  0.1138  0.9897 -1.6408
  789Sol     HW 6143   2.495   2.523   2.657 -0.4269  0.2932  1.9508
  789Sol     MW 6144   2.460   2.605   2.646  0.3831  0.3848  0.5364
  790Sol     OW 6145   3.045   1.480   1.573  0.1098  0.3366 -0.4297
  790Sol     HW 6146   3.139   1.463   1.578  0.1743  0.2824 -1.6862
  790Sol     HW 6147   3.033   1.564   1.617  0.8337  0.6556 -0.8540
  790Sol     MW 6148   3.052   1.486   1.577  0.2373  0.2102 -1.0063
  791Sol     OW 6149   2.195   1.479   7.610  0.0342 -0.5523 -0.2720
  791Sol     HW 6150   2.247   1.514   7.682 -0.5934  1.2777 -0.6915
  791Sol     HW 6151   2.251   1.411   7.571  1.2201 -0.1104  0.6314
  791Sol     MW 6152   2.205   1.476   7.613 -0.3123  0.3150  0.3172
  792Sol     OW 6153   2.264   1.307   8.893  0.2214  0.2248 -0.5364
  792Sol     HW 6154   2.227   1.307   8.981 -0.3519  0.7297 -0.7757
  792Sol     HW 6155   2.254   1.218   8.862  1.0480 -0.1233  0.1703
  792Sol     MW 6156   2.260   1.299   8.898  0.1526  0.2664  0.3965
  793Sol     OW 6157   1.336   2.736   6.390  0.0944  0.0239  0.6976
  793Sol     HW 6158   1.243   2.723   6.369  0.7306 -0.0312 -2.2556
  793Sol     HW 6159   1.338   2.821   6.434 -1.2412  0.5976 -0.3020
  793Sol     MW 6160   1.328   2.743   6.392 -0.1168 -0.5124 -0.1245
  794Sol     OW 6161   1.477   1.250   9.170 -0.4543  0.1633 -0.8044
  794Sol     HW 6162   1.528   1.328   9.192 -2.0841  0.8225  0.7767
  794Sol     HW 6163   1.502   1.230   9.080 -0.4117  2.8546 -1.4326
  794Sol     MW 6164   1.484   1.255   9.164  0.1230 -0.0705 -0.1901
  795Sol     OW 6165   2.367   2.292   2.189  0.1579 -0.4190  0.3717
  795Sol     HW 6166   2.276   2.260   2.187 -0.0115  0.0985 -0.8791
  795Sol     HW 6167   2.398   2.281   2.099 -0.3761  4.1773 -0.5345
  795Sol     MW 6168   2.361   2.288   2.181 -0.1581  0.1572  0.4215
  796Sol     OW 6169   2.910   0.036   5.665  0.1761 -0.7538  0.1235
  796Sol     HW 6170   2.998   0.072   5.653 -0.1297  0.3117  1.1084
  796Sol     HW 6171   2.893  -0.012   5.583  1.1818  0.0472 -0.5619
  796Sol     MW 6172   2.917   0.035   5.656  0.4845  0.0718  0.5773
  797Sol     OW 6173   1.642   0.697   5.498  0.1254  0.1186 -0.7946
  797Sol     HW 6174   1.578   0.751   5.545  0.4784  0.7942 -1.0820
  797Sol     HW 6175   1.668   0.630   5.562 -0.4144  0.2058 -0.4787
  797Sol     MW 6176   1.639   0.696   5.508  0.4617 -0.4262 -0.4344
  798Sol     OW 6177   3.170   1.527   9.366 -0.1254 -0.9164  0.4437
  798Sol     HW 6178   3.179   1.460   9.298  0.1606 -0.0263 -0.4248
  798Sol     HW 6179   3.076   1.537   9.377 -0.2278  0.1421 -1.0905
  798Sol     MW 6180   3.163   1.522   9.361  0.1721 -0.3802  0.2406
  799Sol     OW 6181   2.554   3.238   8.984 -0.5292  0.1058 -0.3915
  799Sol     HW 6182   2.563   3.318   9.036  0.3546 -0.1660 -0.1227
  799Sol     HW 6183   2.480   3.192   9.024  0.1250 -0.0915  0.6268
  799Sol     MW 6184   2.548   3.241   8.992 -0.0153  1.5667 -0.3174
  800Sol     OW 6185   3.106   2.549   3.367  0.1575  0.2420 -0.8368
  800Sol     HW 6186   3.161   2.480   3.332 -0.6934 -0.4787 -0.7585
  800Sol     HW 6187   3.167   2.607   3.414  0.8801 -0.3834 -1.0006
  800Sol     MW 6188   3.116   2.548   3.368  0.2684 -0.3109  1.1246
  801Sol     OW 6189   1.044   0.394   6.216  0.1103 -0.6439  0.3826
  801Sol     HW 6190   0.953   0.419   6.232  0.3723 -0.0568  0.9989
  801Sol     HW 6191   1.054   0.396   6.121 -0.7982 -1.7111  0.2636
  801Sol     MW 6192   1.037   0.396   6.209 -0.2303  0.6065  0.9141
  802Sol     OW 6193   2.769   1.774   5.829 -0.1227 -0.3908 -0.2216
  802Sol     HW 6194   2.698   1.835   5.812  0.1751 -0.5142 -2.0789
  802Sol     HW 6195   2.762   1.709   5.759  0.5905 -1.5262  0.7457
  802Sol     MW 6196   2.762   1.773   5.821  0.4817 -0.5899 -0.1233
  803Sol     OW 6197   1.133   1.079   7.630 -0.3239 -0.0368  0.4209
  803Sol     HW 6198   1.092   1.067   7.545  0.2204 -1.9522  0.4037
  803Sol     HW 6199   1.069   1.128   7.682  0.4778  3.7091 -1.9375
  803Sol     MW 6200   1.124   1.082   7.627  0.0882  0.9082  0.5630
  804Sol     OW 6201   1.008   0.810   5.759 -0.0710  0.5619 -0.2018
  804Sol     HW 6202   1.058   0.738   5.797 -0.3480 -0.3034 -1.4775
  804Sol     HW 6203   1.070   0.883   5.754 -0.2582  0.9799  2.7251
  804Sol     MW 6204   1.018   0.810   5.762  0.3444  0.7774 -0.2536
  805Sol     OW 6205   2.302   0.538   5.729  0.0181 -0.3130 -0.1875
  805Sol     HW 6206   2.210   0.533   5.703  0.0609 -1.5584 -0.1096
  805Sol     HW 6207   2.350   0.538   5.646 -0.0904  1.9176 -0.2991
  805Sol     MW 6208   2.298   0.538   5.719  0.5646  0.8201 -0.7012
  806Sol     OW 6209   0.746   2.052   2.047  0.1106 -0.0979 -0.5052
  806Sol     HW 6210   0.708   2.131   2.009  2.0323  0.1934 -1.8606
  806Sol     HW 6211   0.789   2.082   2.127  2.6704  0.6527 -2.0999
  806Sol     MW 6212   0.746   2.062   2.050  0.2620  0.4107  0.3429
  807Sol     OW 6213   1.195   3.190   7.982 -0.2062  0.1434  0.1469
  807Sol     HW 6214   1.224   3.124   8.046  0.4894  1.7948  1.6069
  807Sol     HW 6215   1.234   3.272   8.014 -1.2858  1.3111 -1.4611
  807Sol     MW 6216   1.201   3.191   7.991 -0.1562  0.8441 -0.2287
  808Sol     OW 6217   0.816   1.928   2.972 -0.2809 -0.5020 -0.1612
  808Sol     HW 6218   0.721   1.918   2.961 -0.5529 -1.2421  2.4642
  808Sol     HW 6219   0.854   1.882   2.898 -1.9718 -1.2164 -0.6103
  808Sol     MW 6220   0.810   1.923   2.965  0.3374  0.3607 -0.0612
  809Sol     OW 6221   2.949   1.178   2.736 -0.3546  0.2418 -0.9485
  809Sol     HW 6222   2.891   1.125   2.682  0.7937 -1.5857 -0.4459
  809Sol     HW 6223   2.977   1.249   2.678 -4.2215  2.0587 -0.7487
  809Sol     MW 6224   2.946   1.179   2.726  0.1325  0.1913  0.1191
  810Sol     OW 6225   1.187   0.200   5.822  0.2065  0.1334 -0.3521
  810Sol     HW 6226   1.171   0.210   5.728 -0.4052  1.6396 -0.1112
  810Sol     HW 6227   1.159   0.284   5.859  1.0058 -0.2372  1.1008
  810Sol     MW 6228   1.183   0.208   5.817 -0.3413 -0.1862  0.2810
  811Sol     OW 6229   1.309   3.334   9.298 -0.0793 -0.1020 -0.1782
  811Sol     HW 6230   1.289   3.426   9.285 -0.5368 -0.2510 -0.5225
  811Sol     HW 6231   1.224   3.292   9.309 -0.0041 -0.8134 -2.1792
  811Sol     MW 6232   1.300   3.338   9.298  1.0436 -0.5576 -0.9352
  812Sol     OW 6233   0.312   2.334   6.391 -0.0353  0.1340 -0.2644
  812Sol     HW 6234   0.347   2.422   6.373  1.3299 -0.4527 -0.5511
  812Sol     HW 6235   0.220   2.349   6.411 -0.4910  1.3229 -3.0272
  812Sol     MW 6236   0.307   2.344   6.391  0.8588 -0.0700 -0.1092
  813Sol     OW 6237   0.546   1.610   5.890  0.2624 -0.0767  0.2341
  813Sol     HW 6238   0.627   1.613   5.940  1.8012  1.0155 -2.1870
  813Sol     HW 6239   0.507   1.696   5.902 -0.5043 -0.5768  1.3384
  813Sol     MW 6240   0.550   1.618   5.895 -0.3672  0.0579  0.5852
  814Sol     OW 6241   3.162   2.477   3.953 -0.7442 -0.1510  0.4755
  814Sol     HW 6242   3.117   2.398   3.984  0.4366 -1.0603 -0.1150
  814Sol     HW 6243   3.093   2.544   3.951 -1.9967 -1.4144  0.0204
  814Sol     MW 6244   3.151   2.476   3.955 -0.2425  0.2933  0.0805
  815Sol     OW 6245   0.186   2.154   5.153  0.1525 -0.1043 -0.1356
  815Sol     HW 6246   0.137   2.209   5.092  0.3192 -1.7170 -1.7762
  815Sol     HW 6247   0.249   2.108   5.098 -1.4343 -3.5700  0.8474
  815Sol     MW 6248   0.187   2.155   5.143 -1.1877  0.3452  0.2231
  816Sol     OW 6249   2.867   0.466   2.909 -1.0328  0.2229  0.2732
  816Sol     HW 6250   2.782   0.425   2.928  0.3465 -2.6515  0.3601
  816Sol     HW 6251   2.867   0.479   2.815 -0.5467 -2.1823 -0.0871
  816Sol     MW 6252   2.859   0.464   2.903  0.8199 -0.2827  0.1123
  817Sol     OW 6253   0.524   1.207   6.926  0.8089  0.2305 -0.1527
  817Sol     HW 6254   0.608   1.227   6.884  0.6343  0.9146 -0.1868
  817Sol     HW 6255   0.505   1.285   6.978 -1.0146  1.1376 -2.1002
  817Sol     MW 6256   0.530   1.216   6.927  0.4009 -0.1479  0.1890
  818Sol     OW 6257   1.545   2.035   4.419  0.0053 -0.1050 -0.2045
  818Sol     HW 6258   1.484   2.108   4.421 -0.3643 -0.4088 -0.1602
  818Sol     HW 6259   1.489   1.958   4.408  0.3577 -0.4120  0.1160
  818Sol     MW 6260   1.535   2.034   4.418  0.7965  1.0508 -0.4221
  819Sol     OW 6261   1.121   1.571   8.765  0.1407  0.4065  0.3997
  819Sol     HW 6262   1.199   1.589   8.712  1.5808 -2.7337  1.3645
  819Sol     HW 6263   1.138   1.615   8.848  0.4701  0.5289  0.2699
  819Sol     MW 6264   1.130   1.577   8.768 -0.3328 -0.2945  0.6219
  820Sol     OW 6265   0.250   2.029   7.576  0.1430 -0.2115 -0.3173
  820Sol     HW 6266   0.222   2.022   7.485 -1.0587  0.1341  0.0176
  820Sol     HW 6267   0.173   2.061   7.622  0.4242 -1.4027  0.9978
  820Sol     MW 6268   0.241   2.031   7.572 -0.0139 -0.1854  0.3084
  821Sol     OW 6269   1.770   1.830   8.670 -0.4481  0.3983 -0.2277
  821Sol     HW 6270   1.727   1.864   8.592  0.3087 -0.4904 -1.0435
  821Sol     HW 6271   1.814   1.749   8.641  0.0580  0.1946  1.0431
  821Sol     MW 6272   1.770   1.825   8.661 -0.3243 -0.0889 -0.3762
  822Sol     OW 6273   2.043   2.118   7.158  0.0148  0.4249  0.0210
  822Sol     HW 6274   2.103   2.104   7.085 -1.7045 -0.3579 -1.2686
  822Sol     HW 6275   2.098   2.113   7.236  2.0023  2.0648 -1.2558
  822Sol     MW 6276   2.053   2.116   7.159  0.3394 -0.6707 -0.6445
  823Sol     OW 6277   0.353   0.461   6.007  0.2393 -0.2775  0.4123
  823Sol     HW 6278   0.269   0.429   6.040  0.2970 -0.7579  0.0925
  823Sol     HW 6279   0.351   0.556   6.023 -0.8668 -0.1047 -0.6833
  823Sol     MW 6280   0.345   0.467   6.011  0.1370 -1.3009 -0.5795
  824Sol     OW 6281   1.264   1.399   7.921 -0.4248 -0.1017  0.1754
  824Sol     HW 6282   1.238   1.310   7.898 -0.5606  0.1255 -0.5532
  824Sol     HW 6283   1.217   1.417   8.002  0.5249 -1.1227  0.9808
  824Sol     MW 6284   1.258   1.392   7.926 -0.2197  0.0643  0.4364
  825Sol     OW 6285   0.550   1.176   7.694  0.4698  0.4334  0.2504
  825Sol     HW 6286   0.604   1.103   7.725 -2.2575 -1.0549  1.6723
  825Sol     HW 6287   0.485   1.189   7.764 -1.7832  1.3288 -1.9428
  825Sol     MW 6288   0.549   1.171   7.703  0.4186  0.2733 -0.6358
  826Sol     OW 6289   0.130   3.238   7.239  0.7159  0.3538 -0.3314
  826Sol     HW 6290   0.128   3.282   7.154  0.4217  0.3395 -0.3357
  826Sol     HW 6291   0.038   3.234   7.265  0.7399 -0.2543 -0.3332
  826Sol     MW 6292   0.121   3.241   7.234  0.3762  0.2561 -0.2599
  827Sol     OW 6293   2.734   2.635   8.539  0.3605 -0.7748 -0.8738
  827Sol     HW 6294   2.707   2.545   8.558 -0.4590 -0.8112 -2.1614
  827Sol     HW 6295   2.697   2.686   8.611  0.9745 -1.4794 -0.0425
  827Sol     MW 6296   2.728   2.631   8.547 -0.0958 -0.7878 -0.9512
  828Sol     OW 6297   1.044   0.279   9.642 -0.6151  0.0407 -0.4046
  828Sol     HW 6298   0.956   0.243   9.633 -0.5449 -0.4454  0.6757
  828Sol     HW 6299   1.102   0.211   9.608 -0.5785 -0.2062  0.1473
  828Sol     MW 6300   1.041   0.270   9.638  0.8402  0.6571  0.1117
  829Sol     OW 6301   1.007   0.275   3.544  0.1849 -0.3140  0.5931
  829Sol     HW 6302   1.019   0.338   3.615 -0.2506  0.0437  0.3546
  829Sol     HW 6303   0.987   0.193   3.588  1.4777 -0.4582  0.9275
  829Sol     MW 6304   1.006   0.273   3.554  0.2363 -0.1221  0.4491
  830Sol     OW 6305   0.651   2.673   5.659 -0.4099 -0.4245  0.9760
  830Sol     HW 6306   0.711   2.603   5.633  0.4257  0.3716  0.7437
  830Sol     HW 6307   0.576   2.662   5.600 -0.4379 -1.3321  1.1686
  830Sol     MW 6308   0.649   2.666   5.651 -0.1090 -0.1446 -0.9263
  831Sol     OW 6309   1.815   1.739   5.540 -0.6408  0.4520 -0.0073
  831Sol     HW 6310   1.740   1.700   5.496  0.9296 -1.8638 -0.7360
  831Sol     HW 6311   1.808   1.709   5.631  1.4990 -3.1477 -0.9332
  831Sol     MW 6312   1.808   1.733   5.545  0.1767  0.2241 -0.3010
  832Sol     OW 6313   2.505   1.778   5.322  0.4193 -0.1498  0.1242
  832Sol     HW 6314   2.530   1.790   5.230 -0.0233 -1.5149 -0.1898
  832Sol     HW 6315   2.414   1.808   5.326  0.2638 -0.6061 -0.0028
  832Sol     MW 6316   2.499   1.782   5.314  0.0680  0.1149 -0.1460
  833Sol     OW 6317   2.882   3.371   5.431 -0.5079  0.1354 -0.2611
  833Sol     HW 6318   2.962   3.321   5.412 -0.4348 -1.6195  4.0618
  833Sol     HW 6319   2.814   3.327   5.380  0.7372 -0.2986 -1.5861
  833Sol     MW 6320   2.883   3.362   5.425  0.5940 -0.0700  0.1642
  834Sol     OW 6321   0.513   1.435   9.783 -0.2247 -0.0684 -0.3647
  834Sol     HW 6322   0.479   1.392   9.705 -1.3392  0.2487 -0.0533
  834Sol     HW 6323   0.591   1.384   9.806 -1.4961 -1.9126 -0.0255
  834Sol     MW 6324   0.517   1.427   9.778  0.5180 -0.2688 -0.3391
  835Sol     OW 6325   0.039   1.091   3.911 -0.5100 -0.2033 -0.2525
  835Sol     HW 6326   0.091   1.015   3.884  1.4109  1.3478 -1.0598
  835Sol     HW 6327   0.029   1.081   4.005 -0.0504 -1.3394 -0.3135
  835Sol     MW 6328   0.043   1.083   3.917 -0.3340 -0.3174 -0.1084
  836Sol     OW 6329   3.287   1.507   2.247 -0.2333  0.3619  0.4260
  836Sol     HW 6330   3.258   1.416   2.255  1.1082  0.0263  1.8627
  836Sol     HW 6331   3.236   1.555   2.312 -1.3012  0.7526 -0.6759
  836Sol     MW 6332   3.280   1.503   2.254  0.4944  0.2853  0.0158
  837Sol     OW 6333   2.907   2.549   1.836 -0.0345  0.3871  0.3827
  837Sol     HW 6334   2.843   2.568   1.904  0.9763  0.3711  1.3595
  837Sol     HW 6335   2.937   2.635   1.806  0.2893  0.3836  0.6981
  837Sol     MW 6336   2.904   2.558   1.839  0.6541 -0.5796  0.1185
  838Sol     OW 6337   1.407   0.376   9.779  0.2442  0.2026  0.3689
  838Sol     HW 6338   1.378   0.433   9.850 -0.3181  2.5193 -1.6536
  838Sol     HW 6339   1.473   0.427   9.732  0.7853 -1.3814 -0.6614
  838Sol     MW 6340   1.410   0.385   9.781 -0.0692  0.2503 -0.6128
  839Sol     OW 6341   2.130   1.851   3.424  0.7703 -0.3489  0.1829
  839Sol     HW 6342   2.046   1.805   3.421  0.9949 -0.6991 -1.8139
  839Sol     HW 6343   2.196   1.783   3.416  1.3054 -0.1381  2.4298
  839Sol     MW 6344   2.128   1.841   3.423  0.1950  0.0701 -0.1159
  840Sol     OW 6345   0.784   0.924   8.258  0.3257 -0.1433 -0.0967
  840Sol     HW 6346   0.871   0.908   8.294  0.3437 -0.5366 -0.3149
  840Sol     HW 6347   0.724   0.884   8.322  0.2246  1.4272  0.8177
  840Sol     MW 6348   0.786   0.919   8.267 -0.8919  0.6941  0.5311
  841Sol     OW 6349   2.337   3.046   7.065 -0.1432 -0.7141  0.4781
  841Sol     HW 6350   2.286   3.074   6.990 -0.2407  0.6850  1.0402
  841Sol     HW 6351   2.341   2.951   7.059 -3.1683 -0.8736  0.6667
  841Sol     MW 6352   2.333   3.040   7.058 -0.2608  0.2492  0.2162
  842Sol     OW 6353   1.722   0.363   6.463  0.0521 -0.0359  0.3094
  842Sol     HW 6354   1.794   0.367   6.525  0.6321  1.1149 -0.4046
  842Sol     HW 6355   1.754   0.308   6.392 -0.2317 -0.5253  0.5606
  842Sol     MW 6356   1.731   0.359   6.462  0.0271 -1.1763 -0.1074
  843Sol     OW 6357   1.266   1.557   1.916 -0.0806  0.2566  0.3781
  843Sol     HW 6358   1.211   1.611   1.859  0.3947  1.8131  1.3793
  843Sol     HW 6359   1.214   1.544   1.995  0.3925  0.4757  0.7266
  843Sol     MW 6360   1.257   1.560   1.918 -0.9949 -0.2491  0.1752
  844Sol     OW 6361   2.707   0.489   3.991  0.2287  0.1181  0.0609
  844Sol     HW 6362   2.700   0.560   3.927 -0.8096  0.5489  0.6276
  844Sol     HW 6363   2.784   0.511   4.043  0.9908 -0.1595 -0.9452
  844Sol     MW 6364   2.713   0.497   3.990  0.0725 -0.4476  0.3829
  845Sol     OW 6365   2.736   1.460   9.874 -0.0674  0.2463 -0.1353
  845Sol     HW 6366   2.686   1.517   9.815 -1.1783 -0.5210  0.0665
  845Sol     HW 6367   2.818   1.444   9.827  0.1884  1.8410 -0.2886
  845Sol     MW 6368   2.739   1.464   9.864  0.4676 -1.0174 -0.5072
  846Sol     OW 6369   0.462   0.455   2.584  0.6066 -0.1037  0.2411
  846Sol     HW 6370   0.479   0.512   2.509 -0.5556  2.2610  1.7050
  846Sol     HW 6371   0.467   0.513   2.660 -0.9128 -1.8948  1.7632
  846Sol     MW 6372   0.464   0.465   2.584 -0.4083  0.0960  0.2189
  847Sol     OW 6373   2.605   2.964   5.035 -0.0397  0.4358  0.3501
  847Sol     HW 6374   2.510   2.970   5.047 -0.1205  0.7027 -0.4145
  847Sol     HW 6375   2.642   3.010   5.110 -0.5290  1.0976  0.1907
  847Sol     MW 6376   2.600   2.968   5.043  0.5881 -0.1975  0.4264
  848Sol     OW 6377   2.837   2.230   3.677 -0.1748 -0.1812  0.1198
  848Sol     HW 6378   2.856   2.181   3.757 -0.1784  0.6617  0.6423
  848Sol     HW 6379   2.772   2.176   3.631  1.7413 -1.9688 -0.5805
  848Sol     MW 6380   2.833   2.220   3.680 -0.6696 -0.5302  1.1388
  849Sol     OW 6381   0.823   0.543   5.673  0.2152  0.6249  0.0148
  849Sol     HW 6382   0.754   0.608   5.660  0.9737  1.4974  0.2991
  849Sol     HW 6383   0.799   0.497   5.754  0.2915  1.3412  0.4425
  849Sol     MW 6384   0.815   0.544   5.680 -0.0018  0.2503  1.1834
  850Sol     OW 6385   1.695   0.741   3.448 -0.5854  0.3228  0.4207
  850Sol     HW 6386   1.747   0.662   3.437  0.1935  0.8107  0.5736
  850Sol     HW 6387   1.614   0.711   3.489 -0.8822 -0.5953 -0.8110
  850Sol     MW 6388   1.692   0.732   3.451  0.1181  0.2007  0.2692
  851Sol     OW 6389   2.786   1.838   8.948  0.1191 -0.7860 -0.0627
  851Sol     HW 6390   2.875   1.861   8.923  0.4538 -0.5647  1.2654
  851Sol     HW 6391   2.748   1.919   8.981 -0.6570 -0.8257 -0.8436
  851Sol     MW 6392   2.790   1.847   8.949 -0.7323  0.6307 -0.0460
  852Sol     OW 6393   1.131   0.204   8.000 -0.0789  0.1963 -0.8217
  852Sol     HW 6394   1.100   0.240   7.917 -0.1589  1.4304 -0.2686
  852Sol     HW 6395   1.191   0.270   8.034  0.5341 -0.6395 -0.2448
  852Sol     MW 6396   1.133   0.213   7.995 -0.3176 -0.5394 -0.9432
  853Sol     OW 6397   1.120   2.776   8.081 -0.2514 -0.0008 -0.1737
  853Sol     HW 6398   1.028   2.752   8.077  0.2214 -1.9819  0.4834
  853Sol     HW 6399   1.147   2.784   7.989 -0.8329 -0.3389 -0.3768
  853Sol     MW 6400   1.114   2.775   8.072 -0.1932  0.4638  0.3954
  854Sol     OW 6401   2.234   0.650   6.080  0.2924 -0.4690 -0.7448
  854Sol     HW 6402   2.251   0.566   6.124 -1.8359  0.1300  1.3574
  854Sol     HW 6403   2.149   0.638   6.038  0.0037  0.6020 -0.4824
  854Sol     MW 6404   2.228   0.641   6.081  0.8059  1.4709 -0.1951
  855Sol     OW 6405   0.984   1.669   7.602  0.3392  0.2642  0.5384
  855Sol     HW 6406   1.068   1.661   7.648 -1.0277 -0.4316  2.9689
  855Sol     HW 6407   0.955   1.759   7.621  0.4013  0.4271 -0.1088
  855Sol     MW 6408   0.989   1.677   7.608 -0.5307 -0.4932  0.0922
  856Sol     OW 6409   2.657   0.857   7.491  0.6684 -0.6307 -0.4729
  856Sol     HW 6410   2.640   0.765   7.513 -1.6173 -0.7003 -2.2852
  856Sol     HW 6411   2.702   0.854   7.407  0.4951 -0.0945 -0.5871
  856Sol     MW 6412   2.659   0.849   7.486 -0.3086 -0.1505  0.1858
  857Sol     OW 6413   2.070   2.671   9.261  0.2889 -0.5507  0.6771
  857Sol     HW 6414   2.060   2.635   9.173  1.0390  2.0586 -0.5345
  857Sol     HW 6415   2.134   2.614   9.303  1.5100 -0.6168 -1.2022
  857Sol     MW 6416   2.075   2.662   9.257  0.4963 -0.0605  0.0687
  858Sol     OW 6417   1.834   0.286   2.812 -0.3638 -0.3922  0.9100
  858Sol     HW 6418   1.888   0.263   2.888 -0.7687  0.2093  1.3822
  858Sol     HW 6419   1.898   0.310   2.744 -0.0101 -0.5797  1.1739
  858Sol     MW 6420   1.845   0.286   2.813  0.3911  0.3870  0.6997
  859Sol     OW 6421   1.426   2.384   4.951 -0.9170 -0.2494  0.4477
  859Sol     HW 6422   1.418   2.289   4.947 -2.7287 -0.0531 -2.4477
  859Sol     HW 6423   1.447   2.410   4.861 -3.6495  2.2668  0.4376
  859Sol     MW 6424   1.427   2.378   4.942 -0.9820  0.1523 -0.3557
  860Sol     OW 6425   1.227   2.739   2.156  0.3523  0.0881  0.6770
  860Sol     HW 6426   1.222   2.835   2.159 -0.2893  0.1138 -0.8466
  860Sol     HW 6427   1.169   2.711   2.227 -1.0798  0.8045 -0.1856
  860Sol     MW 6428   1.222   2.745   2.163 -0.0141 -0.4828 -0.1981
  861Sol     OW 6429   1.574   1.273   1.458 -0.4197  0.4786  0.0356
  861Sol     HW 6430   1.559   1.329   1.382 -1.1160 -0.0112 -0.1871
  861Sol     HW 6431   1.505   1.207   1.454  0.7158 -0.7331 -0.0126
  861Sol     MW 6432   1.567   1.272   1.451  0.5553  0.0176 -0.4164
  862Sol     OW 6433   0.756   0.125   6.067  0.1820  0.2617  0.0735
  862Sol     HW 6434   0.733   0.037   6.038 -0.9202  0.4907  0.2597
  862Sol     HW 6435   0.730   0.129   6.159 -1.3610  1.3488 -0.3995
  862Sol     MW 6436   0.752   0.117   6.073  0.0481  0.0508  0.5804
  863Sol     OW 6437   1.336   0.161   3.044 -0.0671 -0.5904  0.0037
  863Sol     HW 6438   1.394   0.232   3.018  1.1010 -1.6345 -0.3159
  863Sol     HW 6439   1.298   0.130   2.961 -0.2348 -0.6164  0.0912
  863Sol     MW 6440   1.338   0.164   3.034  0.1698  0.5600  0.5432
  864Sol     OW 6441   3.138   2.862   8.320  0.2659 -0.1444 -0.8177
  864Sol     HW 6442   3.206   2.800   8.346  0.3147 -0.9067 -2.6938
  864Sol     HW 6443   3.085   2.814   8.256  0.2569  1.7057 -2.2525
  864Sol     MW 6444   3.139   2.852   8.316 -0.2289  0.5514 -0.2823
  865Sol     OW 6445   0.054   0.480   5.793  0.7791  0.1213  0.0643
  865Sol     HW 6446   0.130   0.447   5.746  1.0804 -0.8499  1.2046
  865Sol     HW 6447   0.079   0.474   5.886 -0.7224 -0.3166  0.4526
  865Sol     MW 6448   0.063   0.477   5.797 -0.4384 -0.1091  0.5600
  866Sol     OW 6449   2.534   1.054   1.942  0.5729 -0.0086  0.7779
  866Sol     HW 6450   2.471   1.037   1.872  0.7846  0.3569  0.5016
  866Sol     HW 6451   2.572   1.139   1.921  0.6440  0.1021  1.3296
  866Sol     MW 6452   2.531   1.060   1.934 -0.8447 -0.9396  0.2070
  867Sol     OW 6453   1.308   1.100   7.281  0.2038 -0.2380 -0.0112
  867Sol     HW 6454   1.310   1.024   7.223 -0.4270 -1.2278  1.2555
  867Sol     HW 6455   1.338   1.068   7.365 -1.4166  0.5905  0.9043
  867Sol     MW 6456   1.311   1.091   7.283 -0.4771  0.4447 -0.1154
  868Sol     OW 6457   3.243   0.583   5.114  0.0822 -0.0271 -0.1472
  868Sol     HW 6458   3.251   0.500   5.067  1.8780  1.8263 -3.2821
  868Sol     HW 6459   3.159   0.619   5.084  0.1368  0.0826 -0.1699
  868Sol     MW 6460   3.236   0.579   5.107 -0.0294 -0.1767 -0.2305
  869Sol     OW 6461   3.225   1.838   7.093  0.7205 -0.0922 -0.8367
  869Sol     HW 6462   3.294   1.833   7.028  0.9066  1.6546 -0.7943
  869Sol     HW 6463   3.250   1.911   7.149 -0.8883  0.2259 -0.5088
  869Sol     MW 6464   3.233   1.844   7.092  0.0539 -0.1213  0.1111
  870Sol     OW 6465   0.179   1.298   7.195  0.5154 -0.0440  0.2275
  870Sol     HW 6466   0.230   1.310   7.274 -0.8076  2.4442  0.7662
  870Sol     HW 6467   0.088   1.291   7.225  0.1200 -0.2800 -0.9745
  870Sol     MW 6468   0.175   1.299   7.204  0.8306 -0.3100 -0.0444
  871Sol     OW 6469   1.705   3.214   9.885  0.0843  0.6358 -0.4096
  871Sol     HW 6470   1.764   3.140   9.873  0.5249  1.1409 -1.4478
  871Sol     HW 6471   1.762   3.291   9.884 -0.5821  1.1316 -1.4065
  871Sol     MW 6472   1.715   3.214   9.884  0.5442 -0.0323 -0.5162
  872Sol     OW 6473   2.306   2.868   5.420  0.2913 -0.3773  0.2115
  872Sol     HW 6474   2.215   2.879   5.393 -0.0498  1.1800  1.8580
  872Sol     HW 6475   2.344   2.810   5.355 -1.8423 -0.9233 -0.5837
  872Sol     MW 6476   2.301   2.864   5.412 -0.0864  0.9869 -0.2320
  873Sol     OW 6477   2.974   2.488   8.837 -0.1846 -0.0197 -0.4270
  873Sol     HW 6478   3.035   2.558   8.862 -1.3288  0.4901  1.0232
  873Sol     HW 6479   3.028   2.409   8.831  0.6637  0.4898  0.5028
  873Sol     MW 6480   2.984   2.487   8.838 -0.2664  0.3169 -0.7046
  874Sol     OW 6481   1.820   0.478   3.880 -0.2253  0.0190  0.2380
  874Sol     HW 6482   1.810   0.451   3.789  0.5416  1.0608 -0.1593
  874Sol     HW 6483   1.733   0.510   3.905 -0.6620 -1.0847  0.1549
  874Sol     MW 6484   1.811   0.479   3.874 -0.6138 -0.4886 -0.1295
  875Sol     OW 6485   2.264   1.427   9.472 -0.1242  0.6088 -0.0048
  875Sol     HW 6486   2.337   1.386   9.427 -0.7720 -0.5314 -0.0471
  875Sol     HW 6487   2.208   1.354   9.498 -0.2728  1.3163  1.7465
  875Sol     MW 6488   2.265   1.417   9.471  0.4811 -0.3108  0.0638
  876Sol     OW 6489   0.389   2.033   2.430  0.3703  0.4249  0.0429
  876Sol     HW 6490   0.344   2.110   2.464  0.9633  1.2190 -0.9537
  876Sol     HW 6491   0.479   2.042   2.464 -0.1834 -1.1382  2.0121
  876Sol     MW 6492   0.393   2.041   2.436  0.6058  0.0011 -0.8522
  877Sol     OW 6493   1.631   1.060   1.881 -0.7972  0.0847 -0.0012
  877Sol     HW 6494   1.618   1.141   1.831  1.1594 -0.3907 -1.2871
  877Sol     HW 6495   1.599   0.991   1.824 -0.3663 -0.2726  0.1905
  877Sol     MW 6496   1.627   1.061   1.872  0.2770 -0.0496  0.0410
  878Sol     OW 6497   2.994   3.196   3.573  0.2744 -0.2271  0.2884
  878Sol     HW 6498   2.914   3.234   3.609 -0.2624 -0.4598 -0.6192
  878Sol     HW 6499   3.020   3.256   3.503  0.7959 -0.2426  0.4678
  878Sol     MW 6500   2.989   3.205   3.570  0.8305  0.3774 -0.2218
  879Sol     OW 6501   2.544   0.732   2.004  0.1977 -0.3361 -0.1131
  879Sol     HW 6502   2.488   0.783   1.945  0.0820  0.7475  0.9116
  879Sol     HW 6503   2.608   0.795   2.037  0.1264 -0.8709  1.0883
  879Sol     MW 6504   2.545   0.742   2.002 -0.1581  0.1950  0.0270
  880Sol     OW 6505   0.288   0.834   9.165  0.3662 -0.2717 -0.7056
  880Sol     HW 6506   0.230   0.765   9.199  0.3880 -0.0811 -0.2741
  880Sol     HW 6507   0.234   0.881   9.101 -0.1968  0.3500  0.2046
  880Sol     MW 6508   0.278   0.832   9.163 -0.4666 -1.0032  0.0134
  881Sol     OW 6509   0.764   0.403   5.331  0.1810  0.9973  0.0667
  881Sol     HW 6510   0.693   0.453   5.369 -1.1871 -2.2586  1.9878
  881Sol     HW 6511   0.740   0.392   5.239 -2.1693 -0.6227  0.8458
  881Sol     MW 6512   0.756   0.406   5.326  0.8046  0.1140  0.5158
  882Sol     OW 6513   1.167   2.403   7.091 -0.3746 -0.1212 -0.4165
  882Sol     HW 6514   1.209   2.384   7.175 -0.7824  0.9311  0.0392
  882Sol     HW 6515   1.237   2.434   7.035 -0.4689  1.3158  0.2384
  882Sol     MW 6516   1.177   2.404   7.094 -0.4290 -0.0676  0.6491
  883Sol     OW 6517   2.539   3.242   7.013  0.5956  0.2600  0.2900
  883Sol     HW 6518   2.474   3.173   7.022  0.6274  0.1822 -0.0516
  883Sol     HW 6519   2.592   3.215   6.938  0.3987  0.8186 -0.0572
  883Sol     MW 6520   2.538   3.234   7.007 -0.3404 -0.1015 -0.1008
  884Sol     OW 6521   0.749   0.659   7.294 -0.3833 -0.1491  0.0763
  884Sol     HW 6522   0.789   0.736   7.253 -2.2463  0.3324 -0.9175
  884Sol     HW 6523   0.655   0.675   7.287 -0.7712 -1.5893  1.6876
  884Sol     MW 6524   0.744   0.668   7.290  0.2392 -0.4678  0.4522
  885Sol     OW 6525   3.154   1.503   7.653 -0.2216 -0.7091  0.3052
  885Sol     HW 6526   3.225   1.497   7.590  0.6897 -0.9298  1.3260
  885Sol     HW 6527   3.075   1.515   7.601  0.9801  3.2599 -0.7644
  885Sol     MW 6528   3.153   1.504   7.643  0.1111  0.0228 -0.3388
  886Sol     OW 6529   1.486   0.801   8.333  0.5313  0.5374 -0.3368
  886Sol     HW 6530   1.554   0.868   8.334  1.5577 -0.4994  0.5833
  886Sol     HW 6531   1.448   0.805   8.420 -0.1204  0.6394 -0.6255
  886Sol     MW 6532   1.489   0.807   8.341 -0.1403  0.6425  0.3586
  887Sol     OW 6533   1.519   1.632   7.425  0.0831  0.2920  0.5997
  887Sol     HW 6534   1.458   1.663   7.358  1.1760 -0.9666 -1.0021
  887Sol     HW 6535   1.589   1.698   7.425  0.8386 -0.4827 -0.5967
  887Sol     MW 6536   1.520   1.641   7.419 -0.2678  0.2297  0.6160
  888Sol     OW 6537   2.113   2.647   2.279  0.3233 -0.2482  0.2155
  888Sol     HW 6538   2.075   2.608   2.357  1.4030 -1.9776 -0.1038
  888Sol     HW 6539   2.207   2.635   2.290  0.8082  3.3907  0.6890
  888Sol     MW 6540   2.118   2.642   2.287  0.3591  0.9281 -0.1060
  889Sol     OW 6541   0.097   0.585   4.080 -0.3038 -0.1562 -0.2864
  889Sol     HW 6542   0.075   0.561   3.990 -2.2531  2.3119 -0.5230
  889Sol     HW 6543   0.189   0.611   4.077 -0.9999  2.2529 -2.0978
  889Sol     MW 6544   0.103   0.585   4.072  0.0584  0.2395 -0.2114
  890Sol     OW 6545   1.822   0.254   7.563  0.0477  0.1451 -0.3021
  890Sol     HW 6546   1.756   0.299   7.614 -0.3995 -0.2332 -0.5462
  890Sol     HW 6547   1.792   0.263   7.472  0.1668 -0.3028 -0.3842
  890Sol     MW 6548   1.814   0.259   7.559  0.3663 -0.2818  0.1134
  891Sol     OW 6549   1.282   2.363   5.222 -0.3469 -0.0253 -0.0759
  891Sol     HW 6550   1.305   2.390   5.133 -1.9724 -0.4030 -0.6243
  891Sol     HW 6551   1.366   2.344   5.263  0.3993 -0.4026 -1.7187
  891Sol     MW 6552   1.292   2.363   5.218  0.5645  0.1175  0.0777
  892Sol     OW 6553   0.907   0.896   7.589 -0.2108 -0.0399 -0.0582
  892Sol     HW 6554   0.905   0.917   7.496  1.1398  1.3010  0.1909
  892Sol     HW 6555   0.998   0.913   7.615 -0.7464  0.2896  1.6369
  892Sol     MW 6556   0.915   0.900   7.583 -0.5012  0.3659 -0.3931
  893Sol     OW 6557   0.476   1.190   5.242 -0.0765 -0.3705 -0.7143
  893Sol     HW 6558   0.550   1.131   5.248  0.8957  0.8928 -0.1024
  893Sol     HW 6559   0.515   1.277   5.231 -1.3910  0.6550  2.2213
  893Sol     MW 6560   0.486   1.193   5.241 -0.6694 -0.2189  0.7023
  894Sol     OW 6561   1.340   0.577   7.883 -0.2432 -0.1162 -0.1622
  894Sol     HW 6562   1.250   0.581   7.851  0.1361  1.4634 -1.0779
  894Sol     HW 6563   1.334   0.525   7.963 -2.1429  0.8180  0.3516
  894Sol     MW 6564   1.331   0.573   7.887 -0.3516 -0.2758 -0.4668
  895Sol     OW 6565   0.085   1.626   8.698  0.0846 -0.0713  0.1001
  895Sol     HW 6566   0.148   1.631   8.627 -1.5892 -0.3688 -1.4623
  895Sol     HW 6567   0.096   1.538   8.734  1.1425  0.1849  0.4211
  895Sol     MW 6568   0.091   1.619   8.695 -0.0231  0.1990 -0.2863
  896Sol     OW 6569   3.285   0.449   2.631  0.2872 -0.2225 -0.1491
  896Sol     HW 6570   3.376   0.425   2.615  0.8070  1.7798 -0.3612
  896Sol     HW 6571   3.290   0.533   2.676 -1.4845  0.7633 -1.7080
  896Sol     MW 6572   3.293   0.455   2.633 -0.1380 -1.0489  0.1324
  897Sol     OW 6573   0.766   0.733   2.473 -0.0189 -0.2064  0.4910
  897Sol     HW 6574   0.680   0.771   2.491  0.1351 -0.1009  1.0358
  897Sol     HW 6575   0.770   0.656   2.530  0.5919  0.2896  1.1417
  897Sol     MW 6576   0.759   0.730   2.480  0.3040  0.3263  0.9252
  898Sol     OW 6577   1.011   0.924   1.748 -0.3758 -0.0733 -0.0663
  898Sol     HW 6578   1.013   1.012   1.711 -1.0530  0.7651  1.7987
  898Sol     HW 6579   0.923   0.916   1.785 -0.7364 -1.9925 -1.2622
  898Sol     MW 6580   1.003   0.931   1.748  0.0002 -0.3919 -0.3710
  899Sol     OW 6581   1.630   3.161   1.965 -0.1703  0.2077  0.2828
  899Sol     HW 6582   1.547   3.115   1.978 -0.7520  0.9162 -0.8313
  899Sol     HW 6583   1.697   3.097   1.989 -0.9921 -1.0197 -0.6470
  899Sol     MW 6584   1.629   3.151   1.968  0.1147 -0.3165  0.5199
  900Sol     OW 6585   1.801   1.213   4.558  0.0045 -0.4092 -0.2894
  900Sol     HW 6586   1.820   1.306   4.573  1.4005 -0.6590 -0.3724
  900Sol     HW 6587   1.855   1.189   4.482 -0.4510 -1.2540 -0.3611
  900Sol     MW 6588   1.808   1.219   4.552  0.7292 -0.4466  0.3050
  901Sol     OW 6589   1.612   2.747   8.304  0.5154 -0.3001 -0.5449
  901Sol     HW 6590   1.521   2.727   8.281  1.4799 -2.3219 -2.7399
  901Sol     HW 6591   1.612   2.842   8.319 -1.8119 -0.1716 -1.1632
  901Sol     MW 6592   1.604   2.754   8.303  0.2766  0.1570  0.2269
  902Sol     OW 6593   0.759   0.497   2.624  0.7051  0.0902  0.2537
  902Sol     HW 6594   0.676   0.456   2.646  1.1462 -1.0713 -0.2354
  902Sol     HW 6595   0.825   0.449   2.673  1.4811 -1.3200 -2.0965
  902Sol     MW 6596   0.757   0.489   2.630  0.0449  0.7124  0.2535
  903Sol     OW 6597   1.487   3.250   7.895 -0.6371 -0.0048 -0.3894
  903Sol     HW 6598   1.445   3.297   7.966  1.0384  2.0332 -0.6954
  903Sol     HW 6599   1.467   3.301   7.817 -1.4551 -1.5662 -1.2333
  903Sol     MW 6600   1.482   3.259   7.894  0.0877 -0.1981 -0.3087
  904Sol     OW 6601   2.722   2.006   6.047  0.1881 -0.1607  0.0019
  904Sol     HW 6602   2.813   1.978   6.058  0.3667  1.2538  2.6851
  904Sol     HW 6603   2.702   2.053   6.128 -3.2752 -1.3576 -0.0489
  904Sol     MW 6604   2.728   2.007   6.055 -0.3789 -0.4243 -0.6452
  905Sol     OW 6605   3.086   2.099   5.322  0.1655  0.1630  0.4630
  905Sol     HW 6606   3.076   2.034   5.253  1.6149 -1.2735  1.5818
  905Sol     HW 6607   3.094   2.048   5.403  0.1171  1.7626  1.5014
  905Sol     MW 6608   3.086   2.089   5.323 -0.0485 -0.2131  0.2082
  906Sol     OW 6609   3.233   2.397   8.989 -0.1513 -0.7205 -0.0776
  906Sol     HW 6610   3.300   2.409   9.057 -0.2539 -0.0121 -0.1027
  906Sol     HW 6611   3.219   2.302   8.986  0.8651 -0.8683 -0.0872
  906Sol     MW 6612   3.238   2.389   8.995  0.4965 -0.0900  0.3718
  907Sol     OW 6613   0.487   2.017   5.125 -0.7140  0.2597  0.9158
  907Sol     HW 6614   0.434   1.953   5.173 -1.0919  1.9081  2.7614
  907Sol     HW 6615   0.573   1.976   5.117 -1.4993 -1.2909  0.3345
  907Sol     MW 6616   0.490   2.008   5.129 -0.2309  0.6002 -0.1556
  908Sol     OW 6617   2.373   0.864   8.428 -0.5429  0.1296 -0.1978
  908Sol     HW 6618   2.338   0.806   8.496 -3.4752  1.5470 -0.4233
  908Sol     HW 6619   2.423   0.930   8.477 -0.9050 -0.0334  0.3913
  908Sol     MW 6620   2.375   0.865   8.439 -0.0055 -0.4290 -0.8355
  909Sol     OW 6621   0.069   0.672   9.238 -0.1902 -0.1601 -0.1759
  909Sol     HW 6622   0.015   0.749   9.255  0.5419 -0.3839  3.7760
  909Sol     HW 6623   0.007   0.601   9.225 -0.8601  0.7041 -1.7583
  909Sol     MW 6624   0.059   0.673   9.239 -0.5896  0.6821  0.7194
  910Sol     OW 6625   0.487   2.849   2.196 -0.0007 -0.2059 -0.3706
  910Sol     HW 6626   0.406   2.826   2.241 -0.5931 -0.0755 -1.3519
  910Sol     HW 6627   0.556   2.800   2.242 -0.7440 -0.9584 -0.0622
  910Sol     MW 6628   0.486   2.843   2.204 -0.3343 -0.0506  0.2104
  911Sol     OW 6629   2.159   2.433   6.244  0.2633 -0.3056 -0.4760
  911Sol     HW 6630   2.209   2.432   6.326  0.9395  0.1477 -0.8817
  911Sol     HW 6631   2.074   2.397   6.268 -0.1350  1.4331  0.8052
  911Sol     MW 6632   2.156   2.430   6.254  0.3055  0.4367  0.1859
  912Sol     OW 6633   1.202   1.632   7.767  0.2468 -0.3667 -0.4809
  912Sol     HW 6634   1.239   1.544   7.767  1.6656  0.2182  0.6305
  912Sol     HW 6635   1.252   1.679   7.699 -0.1332 -0.2570 -0.6860
  912Sol     MW 6636   1.210   1.629   7.761 -1.3453 -0.4497  0.2853
  913Sol     OW 6637   2.358   1.505   4.169  0.9010  0.2194 -0.3178
  913Sol     HW 6638   2.263   1.505   4.156  0.8581  1.2085 -0.0232
  913Sol     HW 6639   2.371   1.548   4.254  1.4436 -2.2664  0.9167
  913Sol     MW 6640   2.351   1.509   4.175  0.0786 -0.0588 -0.3477
  914Sol     OW 6641   2.611   3.108   3.058 -0.5276 -0.0142  0.8727
  914Sol     HW 6642   2.686   3.098   3.117  0.3269  0.0471 -0.1828
  914Sol     HW 6643   2.649   3.106   2.970 -1.6798  0.7446  0.3372
  914Sol     MW 6644   2.621   3.107   3.055  0.1014 -0.4319  0.2645
  915Sol     OW 6645   1.557   2.621   7.638 -0.5292 -0.1467  0.4621
  915Sol     HW 6646   1.516   2.703   7.665  0.2654 -0.1790  1.7954
  915Sol     HW 6647   1.602   2.589   7.716  0.5637 -1.0061 -0.4906
  915Sol     MW 6648   1.558   2.625   7.647 -0.1315 -0.3027 -0.0456
  916Sol     OW 6649   0.474   0.579   7.876 -0.0971  0.3892  0.6369
  916Sol     HW 6650   0.497   0.595   7.784 -2.6776 -0.2959 -0.1739
  916Sol     HW 6651   0.381   0.558   7.874  0.0130 -0.5431  3.3327
  916Sol     MW 6652   0.468   0.579   7.867  0.1766  0.3658 -0.5107
  917Sol     OW 6653   1.683   0.230   5.633  0.0330  0.0176  0.1392
  917Sol     HW 6654   1.745   0.159   5.620  0.3760  0.5500 -1.2075
  917Sol     HW 6655   1.633   0.234   5.551 -0.2483  1.0686  0.3569
  917Sol     MW 6656   1.684   0.224   5.625 -0.2810  0.1735  0.7353
  918Sol     OW 6657   1.403   1.428   9.638  0.0126 -0.1302  0.5019
  918Sol     HW 6658   1.344   1.478   9.581  1.5709  1.1662 -0.0153
  918Sol     HW 6659   1.459   1.380   9.578 -1.9925 -3.2157  0.9977
  918Sol     MW 6660   1.403   1.428   9.627  0.4162 -0.6279 -0.0395
  919Sol     OW 6661   0.045   2.390   6.469  0.6377 -0.1993  0.3133
  919Sol     HW 6662   0.004   2.422   6.549 -1.4140 -2.1257  0.0700
  919Sol     HW 6663  -0.011   2.423   6.399  0.1416 -1.8894 -0.0943
  919Sol     MW 6664   0.036   2.396   6.470  0.1026 -0.1031 -0.3112
  920Sol     OW 6665   3.139   1.805   4.219 -0.0427  0.0175  0.8267
  920Sol     HW 6666   3.178   1.884   4.256  1.3588 -0.5202  0.5242
  920Sol     HW 6667   3.192   1.786   4.141 -2.2336  0.4835 -0.8468
  920Sol     MW 6668   3.147   1.810   4.215 -0.0941 -0.0004 -0.4565
  921Sol     OW 6669   0.306   2.325   9.020 -0.4215 -0.0957 -0.4722
  921Sol     HW 6670   0.283   2.403   8.968  0.2577 -0.4876 -1.3590
  921Sol     HW 6671   0.246   2.257   8.989 -2.0945  0.4605  1.3993
  921Sol     MW 6672   0.298   2.326   9.013 -0.0775  0.0032  0.6828
  922Sol     OW 6673   3.072   2.689   6.750 -0.0576 -0.7298  0.5672
  922Sol     HW 6674   3.042   2.668   6.662 -0.1437 -1.5012  0.7847
  922Sol     HW 6675   3.004   2.747   6.785  0.0165 -0.3539  0.1056
  922Sol     MW 6676   3.064   2.693   6.745 -0.7683 -0.7398 -0.8344
  923Sol     OW 6677   1.105   1.755   1.824 -0.5899 -0.0272  0.1714
  923Sol     HW 6678   1.139   1.844   1.834 -0.4004  0.0925 -1.4377
  923Sol     HW 6679   1.051   1.759   1.745  0.4152 -1.6305 -0.6072
  923Sol     MW 6680   1.103   1.764   1.818  0.6723 -0.2698 -0.7770
  924Sol     OW 6681   2.275   3.082   9.181 -0.1277  0.4321 -0.3206
  924Sol     HW 6682   2.210   3.032   9.231  0.4867 -0.7329 -0.6564
  924Sol     HW 6683   2.319   3.136   9.247 -0.8625  0.5868  0.0426
  924Sol     MW 6684   2.273   3.082   9.192 -0.1908 -0.7726 -0.2565
  925Sol     OW 6685   2.295   3.034   7.805  0.2900  0.1069 -0.6315
  925Sol     HW 6686   2.223   3.089   7.776  0.1260  0.1615 -0.1196
  925Sol     HW 6687   2.262   2.944   7.794 -0.4597  0.1587  1.1475
  925Sol     MW 6688   2.285   3.031   7.801  0.0269  0.4894 -0.7247
  926Sol     OW 6689   1.334   3.033   6.433  0.9625  0.1334  0.1731
  926Sol     HW 6690   1.270   3.005   6.499  1.0767  1.3341  0.8070
  926Sol     HW 6691   1.289   3.020   6.350  0.1165  0.3486  0.5814
  926Sol     MW 6692   1.324   3.030   6.432 -0.1645  0.1799 -0.1765
  927Sol     OW 6693   2.557   0.481   6.065  0.3440 -0.1169 -0.1812
  927Sol     HW 6694   2.634   0.426   6.084  1.2818  0.8629 -1.0600
  927Sol     HW 6695   2.579   0.566   6.104  0.4973  0.6912 -2.0169
  927Sol     MW 6696   2.566   0.484   6.070 -0.4356  0.1473 -0.7702
  928Sol     OW 6697   2.350   1.123   4.828 -0.2629  0.2110 -0.1830
  928Sol     HW 6698   2.410   1.151   4.758  0.7263 -0.6937  0.3027
  928Sol     HW 6699   2.391   1.047   4.866 -1.4616 -0.0881  0.5388
  928Sol     MW 6700   2.359   1.119   4.825  0.2688 -0.0369  0.2413
  929Sol     OW 6701   0.391   2.552   8.223 -0.5038 -0.4036 -0.3328
  929Sol     HW 6702   0.440   2.481   8.264 -0.7180 -0.7618 -0.6921
  929Sol     HW 6703   0.436   2.631   8.251  0.8297 -0.7718 -1.3491
  929Sol     MW 6704   0.399   2.553   8.229  0.0444  0.3173  0.6458
  930Sol     OW 6705   1.694   1.966   5.405  0.2082 -0.0468  0.3045
  930Sol     HW 6706   1.609   1.984   5.447  0.0579  1.1472 -0.4795
  930Sol     HW 6707   1.733   1.898   5.459 -0.6905  0.3132  1.4423
  930Sol     MW 6708   1.690   1.961   5.414 -0.2848  0.3814  0.7790
  931Sol     OW 6709   1.310   1.394   2.768  0.7343  0.2884  0.1779
  931Sol     HW 6710   1.366   1.470   2.753 -1.1731  1.5780 -0.6969
  931Sol     HW 6711   1.330   1.366   2.857  1.5315  1.7782  0.4823
  931Sol     MW 6712   1.317   1.398   2.775  0.6759  0.0945 -0.1768
  932Sol     OW 6713   0.392   1.796   2.564  0.1907 -0.1706 -0.2740
  932Sol     HW 6714   0.464   1.831   2.616  1.7457  1.3379 -3.2712
  932Sol     HW 6715   0.367   1.869   2.507 -2.4999 -1.2671 -0.5570
  932Sol     MW 6716   0.396   1.806   2.563 -0.1031  0.1678 -0.0979
  933Sol     OW 6717   1.455   0.732   4.470  0.2598  0.2400  0.0312
  933Sol     HW 6718   1.487   0.817   4.440  0.0052 -0.1085 -1.2695
  933Sol     HW 6719   1.516   0.706   4.538  0.7198  1.1649 -0.0160
  933Sol     MW 6720   1.463   0.737   4.473 -0.0680  0.6208  0.3908
  934Sol     OW 6721   1.070   2.121   2.039  0.5136 -0.5402  0.7563
  934Sol     HW 6722   0.976   2.108   2.025  0.3768 -0.9423  1.9781
  934Sol     HW 6723   1.110   2.096   1.955 -0.5345  0.5853 -0.0900
  934Sol     MW 6724   1.065   2.117   2.030 -0.0363  0.5055  0.2825
  935Sol     OW 6725   0.682   0.766   5.477 -0.1753 -0.0077 -0.1873
  935Sol     HW 6726   0.646   0.679   5.461  1.1977 -0.8774  1.2981
  935Sol     HW 6727   0.777   0.755   5.476  0.0389  1.6645 -0.9637
  935Sol     MW 6728   0.687   0.758   5.476  0.5884  0.0523  0.6061
  936Sol     OW 6729   0.125   2.404   2.196 -0.6171 -0.1203 -0.0151
  936Sol     HW 6730   0.148   2.353   2.118  1.3272  0.7548 -0.0339
  936Sol     HW 6731   0.159   2.492   2.179  0.6636 -0.1501  2.1891
  936Sol     MW 6732   0.130   2.407   2.187 -0.7639 -0.4613  0.4325
  937Sol     OW 6733   2.051   1.678   6.256 -0.5038 -0.8494  0.2149
  937Sol     HW 6734   2.105   1.757   6.248  0.2807 -1.4367 -0.4178
  937Sol     HW 6735   1.995   1.695   6.331 -0.7463  0.5499 -0.2744
  937Sol     MW 6736   2.051   1.686   6.262  0.4663  0.2402 -0.1989
  938Sol     OW 6737   1.293   2.118   6.768  0.2843 -0.4224  0.5711
  938Sol     HW 6738   1.373   2.127   6.821  0.1378  0.0210  0.7244
  938Sol     HW 6739   1.222   2.122   6.832  0.0890  0.6081  0.3038
  938Sol     MW 6740   1.294   2.120   6.779  0.5792  0.4711  0.5982
  939Sol     OW 6741   1.464   3.389   1.710  0.3137  1.0954 -0.1483
  939Sol     HW 6742   1.528   3.320   1.693 -1.0704 -0.0092 -0.9510
  939Sol     HW 6743   1.458   3.437   1.628 -0.9977  0.2530 -0.5562
  939Sol     MW 6744   1.470   3.387   1.701  0.4461 -0.4224 -0.0980
  940Sol     OW 6745   2.856   1.128   7.364  0.0904 -0.1315 -0.1948
  940Sol     HW 6746   2.801   1.183   7.308  0.1448  0.8533  0.7123
  940Sol     HW 6747   2.845   1.040   7.328 -1.3498  0.1970 -0.6019
  940Sol     MW 6748   2.850   1.125   7.356 -0.3156 -0.0108 -0.3893
  941Sol     OW 6749   3.279   2.268   6.859  0.3482  0.3049  0.2108
  941Sol     HW 6750   3.355   2.268   6.918 -0.1262  1.9102  0.8465
  941Sol     HW 6751   3.293   2.344   6.802 -0.2233 -0.0480 -0.4096
  941Sol     MW 6752   3.287   2.275   6.859  0.1248 -0.1690 -0.3442
  942Sol     OW 6753   2.951   0.168   3.468  0.7807  0.5588 -0.4994
  942Sol     HW 6754   2.997   0.194   3.548  0.0685 -1.0123  0.4430
  942Sol     HW 6755   2.994   0.088   3.440  0.9167  1.0112 -1.6253
  942Sol     MW 6756   2.959   0.163   3.473  0.3115  0.5402 -0.0782
  943Sol     OW 6757   1.023   2.577   6.781  0.0539  0.3100 -0.0988
  943Sol     HW 6758   1.038   2.506   6.844  1.2682 -0.3015 -1.0536
  943Sol     HW 6759   0.964   2.540   6.716  1.6571 -0.2431 -1.2628
  943Sol     MW 6760   1.019   2.567   6.781  0.4684  0.2667 -0.3958
  944Sol     OW 6761   1.179   3.320   6.893 -0.0822  0.0327 -0.1853
  944Sol     HW 6762   1.154   3.376   6.820  2.3048 -0.4995 -1.4675
  944Sol     HW 6763   1.259   3.276   6.863 -1.0307 -2.8920  1.3565
  944Sol     MW 6764   1.184   3.321   6.883  0.2791  0.0282 -0.7069
  945Sol     OW 6765   1.771   2.268   9.274  0.0841 -0.1978 -0.0098
  945Sol     HW 6766   1.691   2.315   9.296  1.2915  1.9860 -0.1209
  945Sol     HW 6767   1.743   2.202   9.211 -1.6481  0.5024 -0.0104
  945Sol     MW 6768   1.762   2.267   9.270 -0.4190 -0.8015  0.5347
  946Sol     OW 6769   1.144   2.827   5.647 -0.0792 -0.5305 -0.1073
  946Sol     HW 6770   1.102   2.826   5.560  0.0937  1.2883 -0.2244
  946Sol     HW 6771   1.091   2.766   5.699 -1.9332  0.5374 -0.6983
  946Sol     MW 6772   1.135   2.821   5.644 -0.2165 -0.0864  0.1903
  947Sol     OW 6773   1.111   2.642   9.885 -0.1210  0.3919  0.2939
  947Sol     HW 6774   1.130   2.678   9.799  1.3044  0.7953  0.7697
  947Sol     HW 6775   1.053   2.568   9.867  0.0379  0.5655 -1.0000
  947Sol     MW 6776   1.107   2.638   9.876 -0.9212 -0.1276  0.0983
  948Sol     OW 6777   2.666   0.124   8.711  0.0036  0.3617  0.0504
  948Sol     HW 6778   2.691   0.183   8.782 -1.7845 -0.5532  1.4836
  948Sol     HW 6779   2.609   0.177   8.655  1.7017  1.1901 -0.9323
  948Sol     MW 6780   2.663   0.134   8.712  0.0128  1.2348 -0.7456
  949Sol     OW 6781   1.568   0.866   2.710  0.1783 -0.0801  0.5853
  949Sol     HW 6782   1.625   0.864   2.633  0.5109 -0.4807  0.8398
  949Sol     HW 6783   1.519   0.948   2.701 -0.6011 -0.6674 -0.6233
  949Sol     MW 6784   1.569   0.873   2.702  0.1100  0.3553  0.2429
  950Sol     OW 6785   0.230   0.131   2.808  0.1176  0.0467 -0.4285
  950Sol     HW 6786   0.224   0.053   2.754 -0.9429  0.8724 -1.5299
  950Sol     HW 6787   0.143   0.139   2.848 -1.0366  2.7342 -3.2797
  950Sol     MW 6788   0.222   0.125   2.807 -0.0454 -0.0668  0.3490
  951Sol     OW 6789   2.666   1.302   4.119 -0.3018 -0.1783  0.1722
  951Sol     HW 6790   2.750   1.283   4.077  0.4901  1.7944  0.7905
  951Sol     HW 6791   2.621   1.360   4.059 -0.3441  0.4171  0.7704
  951Sol     MW 6792   2.669   1.305   4.110  0.1778  0.5956  0.4419
  952Sol     OW 6793   1.722   0.721   3.074 -0.0799 -0.3606  0.2455
  952Sol     HW 6794   1.705   0.640   3.025 -2.1784 -1.5586  2.7896
  952Sol     HW 6795   1.804   0.704   3.120  0.0667 -0.6247 -0.1158
  952Sol     MW 6796   1.728   0.712   3.074  0.0844 -0.1833 -0.4624
  953Sol     OW 6797   3.178   1.819   6.241  0.2558  0.1283  0.4363
  953Sol     HW 6798   3.255   1.773   6.276 -0.1031 -0.0459  0.9945
  953Sol     HW 6799   3.199   1.912   6.251  0.4743  0.0829  0.4139
  953Sol     MW 6800   3.187   1.823   6.245 -0.2142 -0.2035 -0.1734
  954Sol     OW 6801   0.170   0.117   1.349  0.1246  0.0341  0.0487
  954Sol     HW 6802   0.127   0.127   1.434  2.2402  0.2886  1.1457
  954Sol     HW 6803   0.221   0.036   1.358  0.4472  0.1206 -0.9300
  954Sol     MW 6804   0.171   0.111   1.358 -0.1776  0.6788 -0.1857
  955Sol     OW 6805   0.699   3.078   7.078  0.2460  0.2304 -0.4963
  955Sol     HW 6806   0.756   3.035   7.014 -0.3597 -0.4434 -0.5934
  955Sol     HW 6807   0.735   3.054   7.163  0.5612  0.4455 -0.5660
  955Sol     MW 6808   0.707   3.072   7.080 -0.4585 -0.3912 -0.5263
  956Sol     OW 6809   3.217   1.145   8.343  0.0974 -0.9041 -0.1881
  956Sol     HW 6810   3.208   1.154   8.248 -0.6120  0.8163  0.0322
  956Sol     HW 6811   3.164   1.068   8.365 -3.0232  1.0528 -0.6895
  956Sol     MW 6812   3.212   1.139   8.337 -0.3891 -0.0462 -0.7617
  957Sol     OW 6813   1.880   0.851   5.560 -0.5567  0.1095  0.5033
  957Sol     HW 6814   1.803   0.802   5.534  0.1375 -0.6221 -0.2067
  957Sol     HW 6815   1.953   0.807   5.516  0.1764  1.2623  0.5155
  957Sol     MW 6816   1.880   0.843   5.553  0.0659 -0.4625 -0.0404
  958Sol     OW 6817   2.858   1.484   4.999  0.0400 -0.0276  0.0690
  958Sol     HW 6818   2.853   1.401   5.047 -0.8921  1.0753  1.9636
  958Sol     HW 6819   2.950   1.508   5.002 -0.0371  0.1298  1.5354
  958Sol     MW 6820   2.865   1.479   5.004  0.1505  0.8906 -0.1740
  959Sol     OW 6821   2.482   0.408   3.717  0.1931 -0.0762  0.4031
  959Sol     HW 6822   2.460   0.335   3.659  0.3472  0.4866 -0.3614
  959Sol     HW 6823   2.577   0.415   3.711  0.1911  0.1049  0.5902
  959Sol     MW 6824   2.489   0.402   3.711 -0.2517  0.0196 -0.1125
  960Sol     OW 6825   2.660   1.298   8.402 -0.5832  0.8464  0.4549
  960Sol     HW 6826   2.745   1.258   8.423 -1.0885  0.8246  2.5007
  960Sol     HW 6827   2.617   1.308   8.486 -3.4123 -0.8474 -0.7215
  960Sol     MW 6828   2.664   1.295   8.411  0.1378 -0.1141  0.0013
  961Sol     OW 6829   0.846   0.072   3.213 -0.4386 -0.3081  0.4097
  961Sol     HW 6830   0.942   0.071   3.216 -0.2341  1.3328 -2.7724
  961Sol     HW 6831   0.821   0.148   3.266  0.1246  0.0224  0.2144
  961Sol     MW 6832   0.852   0.079   3.218 -0.2936  0.4841  0.1489
  962Sol     OW 6833   2.864   0.889   5.747 -0.1364 -0.4197  0.2314
  962Sol     HW 6834   2.770   0.908   5.738  0.2140  0.2113 -2.4502
  962Sol     HW 6835   2.897   0.958   5.805 -1.1672 -0.1215  0.4704
  962Sol     MW 6836   2.858   0.897   5.752  0.0304 -0.1029 -0.5721
  963Sol     OW 6837   1.644   1.992   9.292 -0.5732  0.4246  1.2038
  963Sol     HW 6838   1.734   1.976   9.264 -0.2113  1.1678  1.9371
  963Sol     HW 6839   1.606   1.904   9.301 -0.6785  0.1694 -1.5180
  963Sol     MW 6840   1.648   1.982   9.291 -0.4609 -0.2394 -0.8014
  964Sol     OW 6841   2.438   3.090   5.979 -0.1894 -0.2826  0.0103
  964Sol     HW 6842   2.346   3.072   5.963 -0.7271  0.7397  1.8055
  964Sol     HW 6843   2.471   3.011   6.022 -1.1465  0.6730  2.6398
  964Sol     MW 6844   2.433   3.081   5.982 -0.8563  0.2443 -0.6349
  965Sol     OW 6845   2.868   2.211   7.753  0.1307 -0.1201  0.6058
  965Sol     HW 6846   2.855   2.163   7.671  2.6980 -0.9452  0.6096
  965Sol     HW 6847   2.785   2.203   7.800 -0.9884 -0.6145 -1.4196
  965Sol     MW 6848   2.860   2.206   7.750  0.5196 -0.3085 -0.1213
  966Sol     OW 6849   0.922   2.201   6.545  0.5257  0.0178  0.2167
  966Sol     HW 6850   0.974   2.159   6.476  1.9377  1.0255  0.6387
  966Sol     HW 6851   0.896   2.129   6.602  2.1260 -0.4184  0.4177
  966Sol     MW 6852   0.925   2.191   6.544 -0.2351  0.4652 -0.1830
  967Sol     OW 6853   2.391   1.814   9.765  0.2066  0.3325 -0.4941
  967Sol     HW 6854   2.433   1.883   9.714 -1.7555  0.7653 -1.5894
  967Sol     HW 6855   2.342   1.763   9.700 -0.8819 -0.1874  0.7146
  967Sol     MW 6856   2.391   1.816   9.755 -0.3702  0.9423  0.3774
  968Sol     OW 6857   2.666   2.781   2.762  0.0382  0.1721  0.4749
  968Sol     HW 6858   2.602   2.741   2.703  1.1494  1.0661 -1.3365
  968Sol     HW 6859   2.729   2.711   2.780 -0.1576 -0.0175  0.4326
  968Sol     MW 6860   2.666   2.771   2.759  0.0239 -0.4542 -0.9138
  969Sol     OW 6861   2.269   1.836   8.592  0.0578  0.0197  0.3719
  969Sol     HW 6862   2.302   1.750   8.565  1.5888  0.0684  2.0430
  969Sol     HW 6863   2.319   1.898   8.539  0.1788 -0.0545  0.3976
  969Sol     MW 6864   2.277   1.834   8.585 -1.0000  0.3478  0.8330
  970Sol     OW 6865   0.770   2.674   8.513 -0.6423 -0.0879 -0.1685
  970Sol     HW 6866   0.696   2.637   8.560  0.9168 -1.2325  1.4872
  970Sol     HW 6867   0.817   2.599   8.477  1.7045  0.3004  1.9125
  970Sol     MW 6868   0.768   2.664   8.514  0.3126  0.7080 -0.0007
  971Sol     OW 6869   1.049   2.017   6.898 -0.4370 -0.0372  0.6207
  971Sol     HW 6870   1.084   1.945   6.949  0.9672  1.6405  2.1072
  971Sol     HW 6871   1.011   2.076   6.963 -1.1264  0.7966 -0.5173
  971Sol     MW 6872   1.048   2.016   6.908 -0.7364  0.1036  0.5077
  972Sol     OW 6873   2.392   3.372   5.172  0.2558  0.1794  0.0262
  972Sol     HW 6874   2.379   3.277   5.168 -0.5532  0.2976 -0.2487
  972Sol     HW 6875   2.309   3.406   5.205 -0.4033  0.9999 -2.3175
  972Sol     MW 6876   2.384   3.367   5.174 -0.0296  0.0524 -1.0420
  973Sol     OW 6877   1.856   1.099   6.522 -0.1707  0.1811  0.2253
  973Sol     HW 6878   1.835   1.185   6.485 -0.1822  0.3752  0.6715
  973Sol     HW 6879   1.929   1.117   6.582 -2.4708  0.5381  3.0833
  973Sol     MW 6880   1.861   1.109   6.524  1.0001 -0.4092  0.4275
  974Sol     OW 6881   0.038   3.137   8.770  0.3341  0.5335 -0.4662
  974Sol     HW 6882   0.036   3.070   8.702  0.9535  0.0322  0.0037
  974Sol     HW 6883   0.003   3.094   8.848  1.9573  0.3362  0.1872
  974Sol     MW 6884   0.035   3.127   8.771  0.8394 -0.0398  0.3344
  975Sol     OW 6885   1.777   0.681   5.242 -0.2060  0.1956 -0.6012
  975Sol     HW 6886   1.772   0.586   5.250 -2.2629  0.3529  0.3530
  975Sol     HW 6887   1.738   0.714   5.323  0.6384  1.8679 -0.8458
  975Sol     MW 6888   1.773   0.675   5.250  0.1896 -0.1568  0.2243
  976Sol     OW 6889   1.753   1.329   4.146  0.6654  0.4436 -0.2022
  976Sol     HW 6890   1.702   1.346   4.066 -1.1384 -1.9994  0.3587
  976Sol     HW 6891   1.815   1.261   4.120 -0.0657 -0.5102  0.4924
  976Sol     MW 6892   1.754   1.324   4.136  0.5445  0.1133 -0.3294
  977Sol     OW 6893   0.377   0.809   1.446  0.4911 -0.2728  0.4077
  977Sol     HW 6894   0.401   0.775   1.360 -0.9194  0.3505 -0.2485
  977Sol     HW 6895   0.444   0.874   1.466  1.5114 -1.2862  0.3452
  977Sol     MW 6896   0.385   0.812   1.440  0.2588 -0.6820 -0.7676
  978Sol     OW 6897   2.711   2.996   8.936 -0.9631 -0.0528  0.4913
  978Sol     HW 6898   2.678   3.086   8.940 -2.0646 -0.2174 -2.9957
  978Sol     HW 6899   2.797   3.004   8.895 -1.6181 -0.6773 -1.0347
  978Sol     MW 6900   2.716   3.005   8.933 -0.1994  0.1362  1.0336
  979Sol     OW 6901   2.249   2.473   3.716  0.1658 -0.0450  0.0234
  979Sol     HW 6902   2.330   2.424   3.705  0.4405 -0.0780  2.1324
  979Sol     HW 6903   2.180   2.409   3.702  0.5015 -0.2849 -0.5556
  979Sol     MW 6904   2.250   2.463   3.714  0.5133 -0.2575 -0.1047
  980Sol     OW 6905   1.961   3.227   5.458  0.3737  0.4716  0.0932
  980Sol     HW 6906   2.044   3.209   5.502  0.1351 -1.3466 -0.1705
  980Sol     HW 6907   1.903   3.156   5.486 -0.6037  0.8225 -1.0091
  980Sol     MW 6908   1.964   3.219   5.465 -0.3131  0.4303  0.2031
  981Sol     OW 6909   1.475   1.542   3.796  0.4477  0.4007  0.5713
  981Sol     HW 6910   1.502   1.618   3.744 -0.2728 -0.1612 -0.6759
  981Sol     HW 6911   1.555   1.510   3.836  1.5057 -0.6026 -2.1932
  981Sol     MW 6912   1.484   1.546   3.795  0.1178  0.1578  0.1570
  982Sol     OW 6913   3.200   3.376   1.831  0.0183 -0.2711 -0.3765
  982Sol     HW 6914   3.222   3.331   1.912  0.9613  0.1874 -0.3692
  982Sol     HW 6915   3.188   3.306   1.767  1.3077 -0.5465 -0.3277
  982Sol     MW 6916   3.201   3.366   1.833  0.4140  0.3168 -0.5234
  983Sol     OW 6917   1.512   0.946   5.199 -0.0793  0.0801  0.2935
  983Sol     HW 6918   1.512   0.988   5.113  1.3629  0.3651  0.4082
  983Sol     HW 6919   1.426   0.904   5.206 -1.2167  2.2902 -0.1794
  983Sol     MW 6920   1.504   0.946   5.192 -0.1309 -0.1119  0.1678
  984Sol     OW 6921   1.405   2.219   3.648 -0.7174  0.4738  0.0719
  984Sol     HW 6922   1.383   2.210   3.555  0.7447  0.7071 -0.3121
  984Sol     HW 6923   1.455   2.301   3.653  0.2405 -0.1496  0.8662
  984Sol     MW 6924   1.407   2.226   3.640 -0.1122 -0.9197  0.3920
  985Sol     OW 6925   1.704   0.488   2.934  0.2006  0.1203 -0.2786
  985Sol     HW 6926   1.627   0.437   2.962  1.1774 -0.4072  1.5055
  985Sol     HW 6927   1.758   0.425   2.886  1.5010 -0.6225  2.0946
  985Sol     MW 6928   1.702   0.478   2.932  0.4760  0.1607 -0.0045
  986Sol     OW 6929   0.667   1.286   6.443  0.1121  0.2969 -0.0162
  986Sol     HW 6930   0.706   1.207   6.406 -0.2143  1.2383 -2.4340
  986Sol     HW 6931   0.604   1.253   6.508 -0.9816 -1.5003 -1.9114
  986Sol     MW 6932   0.665   1.276   6.445 -0.7177  0.1178 -0.8275
  987Sol     OW 6933   1.602   0.368   9.452 -0.1220  0.2969 -0.2986
  987Sol     HW 6934   1.577   0.329   9.369 -0.2719  0.1022 -0.1628
  987Sol     HW 6935   1.665   0.307   9.490  2.2213  1.8231 -1.6156
  987Sol     MW 6936   1.605   0.359   9.448 -0.6056 -0.2679  0.2804
  988Sol     OW 6937   2.161   2.680   3.245 -0.0059 -0.3715 -0.4031
  988Sol     HW 6938   2.211   2.600   3.264  1.6642  0.7534 -0.0302
  988Sol     HW 6939   2.189   2.705   3.157  0.0747  0.2719 -0.1906
  988Sol     MW 6940   2.168   2.675   3.239  0.1131  0.0544 -0.7109
  989Sol     OW 6941   1.649   2.401   2.615 -0.2635 -0.0500  0.5630
  989Sol     HW 6942   1.704   2.478   2.603 -0.2611 -0.0136  0.8008
  989Sol     HW 6943   1.570   2.421   2.564 -0.4247  0.2780  0.9385
  989Sol     MW 6944   1.647   2.410   2.609 -0.5896  0.6222  0.3294
  990Sol     OW 6945   2.696   1.958   8.000 -0.4002 -0.3623 -0.1385
  990Sol     HW 6946   2.770   1.974   8.059  2.4302 -1.6481 -3.1549
  990Sol     HW 6947   2.694   1.863   7.990 -2.5685 -0.3432  0.0307
  990Sol     MW 6948   2.703   1.951   8.004 -0.8512 -0.7017 -0.1575
  991Sol     OW 6949   0.334   0.718   6.064 -0.0191  0.1353 -0.3283
  991Sol     HW 6950   0.396   0.771   6.115 -0.0503 -0.8603  0.7555
  991Sol     HW 6951   0.251   0.726   6.112 -0.0586 -0.7878 -0.2502
  991Sol     MW 6952   0.332   0.724   6.073  0.6760  0.7459  0.6784
  992Sol     OW 6953   1.767   0.287   7.276 -0.6405 -0.3246  0.3131
  992Sol     HW 6954   1.700   0.350   7.249 -0.9813 -0.0021  1.8307
  992Sol     HW 6955   1.848   0.321   7.239 -1.0768  0.1459 -0.2179
  992Sol     MW 6956   1.768   0.296   7.270 -0.1875 -0.0524 -0.3009
  993Sol     OW 6957   2.032   2.612   5.175  0.0905  0.0783  0.2199
  993Sol     HW 6958   1.946   2.605   5.215  0.3993 -0.2847  0.8238
  993Sol     HW 6959   2.087   2.551   5.224  0.9636  1.1177  0.5581
  993Sol     MW 6960   2.029   2.606   5.183 -0.2807  0.4108  0.3972
  994Sol     OW 6961   1.441   2.981   3.845  0.0645 -0.3018  0.3785
  994Sol     HW 6962   1.478   2.938   3.768  0.9225 -0.4020  0.8395
  994Sol     HW 6963   1.381   2.917   3.882 -1.5810  0.3283 -1.0953
  994Sol     MW 6964   1.439   2.972   3.841 -0.5586  0.2451  0.4945
  995Sol     OW 6965   2.646   2.049   9.030  0.1796 -0.1476  0.0611
  995Sol     HW 6966   2.559   2.008   9.025  0.7362 -1.2186 -1.3021
  995Sol     HW 6967   2.640   2.109   9.104 -2.0568  0.5872 -0.6606
  995Sol     MW 6968   2.638   2.050   9.036 -0.0037 -0.6963 -0.1855
  996Sol     OW 6969   0.988   0.664   2.876 -0.0553  0.9810 -0.2845
  996Sol     HW 6970   1.019   0.741   2.829 -0.4423  0.6086 -1.1601
  996Sol     HW 6971   0.930   0.698   2.944  0.2053  1.4981 -0.3228
  996Sol     MW 6972   0.986   0.674   2.878  0.4093  0.3153  0.0064
  997Sol     OW 6973   3.068   0.533   3.110 -0.4219  0.2099  0.1990
  997Sol     HW 6974   3.060   0.628   3.105 -0.8356  0.3052  2.0883
  997Sol     HW 6975   2.989   0.499   3.068  0.3128  0.6590 -1.5812
  997Sol     MW 6976   3.060   0.538   3.106  0.4610  0.0742  0.2087
  998Sol     OW 6977   0.134   3.384   3.804  0.2250 -0.1396 -0.4365
  998Sol     HW 6978   0.149   3.389   3.898 -0.1572 -1.3791 -0.3046
  998Sol     HW 6979   0.218   3.357   3.767  0.3310  0.1915 -0.4405
  998Sol     MW 6980   0.143   3.382   3.809 -0.2835 -0.0247 -0.9960
  999Sol     OW 6981   1.780   2.015   3.191  0.5263 -0.4059  0.0748
  999Sol     HW 6982   1.855   2.017   3.131  0.3060 -0.2649 -0.1999
  999Sol     HW 6983   1.733   2.097   3.173 -0.1770 -0.9030 -0.3845
  999Sol     MW 6984   1.783   2.023   3.184 -0.1578  0.0069  0.2718
 1000Sol     OW 6985   2.469   3.211   5.700 -0.2629 -0.1828  0.1077
 1000Sol     HW 6986   2.423   3.129   5.715 -1.6552  0.4924 -0.4066
 1000Sol     HW 6987   2.429   3.273   5.761  0.3784  0.2699  0.0828
 1000Sol     MW 6988   2.462   3.209   5.707 -0.1350  0.1545 -0.5158
 1001Sol     OW 6989   1.982   2.490   8.195 -0.2329 -0.0776  0.1655
 1001Sol     HW 6990   1.986   2.544   8.274  0.4017  1.7378 -1.0954
 1001Sol     HW 6991   1.891   2.495   8.167  0.0850  1.3229 -0.6253
 1001Sol     MW 6992   1.974   2.495   8.200 -0.4522 -0.5673 -0.2077
 1002Sol     OW 6993   0.139   2.542   4.653 -0.1739  0.5481  0.1523
 1002Sol     HW 6994   0.122   2.574   4.742  0.5799 -2.9739  1.6276
 1002Sol     HW 6995   0.080   2.468   4.642  0.8568 -0.0338 -1.7262
 1002Sol     MW 6996   0.132   2.538   4.660  0.4942 -0.7134  0.9380
 1003Sol     OW 6997   0.650   1.628   4.070 -0.4408 -0.0105  0.2175
 1003Sol     HW 6998   0.708   1.701   4.089 -0.0007 -0.4260  0.4782
 1003Sol     HW 6999   0.562   1.662   4.086 -0.1886  0.2208  1.1212
 1003Sol     MW 7000   0.647   1.637   4.073  0.2027  0.4368 -1.0918
 1004Sol     OW 7001   2.383   3.321   7.490 -0.0819 -0.5119 -0.0883
 1004Sol     HW 7002   2.439   3.289   7.561 -0.7010 -3.4055 -0.8248
 1004Sol     HW 7003   2.375   3.246   7.431 -2.1453  0.8575 -1.6023
 1004Sol     MW 7004   2.387   3.312   7.491  0.4767 -0.1952 -0.6953
 1005Sol     OW 7005   2.936   2.059   7.071  0.3744  0.1901  0.6361
 1005Sol     HW 7006   2.924   2.115   6.995  0.7195  1.0417  1.2058
 1005Sol     HW 7007   2.878   1.984   7.055  2.1333 -0.7516 -1.5174
 1005Sol     MW 7008   2.930   2.057   7.063  0.0798 -0.3395 -0.1616
 1006Sol     OW 7009   0.481   1.081   1.769 -0.0676 -0.5613 -0.1794
 1006Sol     HW 7010   0.411   1.056   1.830 -0.6031 -1.1167 -1.0220
 1006Sol     HW 7011   0.500   1.172   1.792 -1.6676 -0.1278 -0.5188
 1006Sol     MW 7012   0.476   1.087   1.777 -0.0106  0.1804 -0.9040
 1007Sol     OW 7013   1.298   2.172   6.297 -0.2427 -0.1495  0.0825
 1007Sol     HW 7014   1.281   2.230   6.371  1.2150 -0.7932  0.9419
 1007Sol     HW 7015   1.350   2.224   6.236  0.8442 -0.4541  0.7361
 1007Sol     MW 7016   1.301   2.182   6.298 -0.3351  0.3039  0.5507
 1008Sol     OW 7017   1.306   0.245   3.910 -0.6119  0.0243  0.2249
 1008Sol     HW 7018   1.352   0.286   3.984 -0.7701  0.4172  0.1069
 1008Sol     HW 7019   1.296   0.154   3.936 -2.3487  0.5526  1.5272
 1008Sol     MW 7020   1.309   0.241   3.919  0.6258 -0.5680 -0.5362
 1009Sol     OW 7021   2.148   1.293   9.147  0.2296  0.2353 -0.5156
 1009Sol     HW 7022   2.162   1.198   9.150  1.0297  0.3788  0.2748
 1009Sol     HW 7023   2.234   1.331   9.164 -0.0888  1.1083 -0.8418
 1009Sol     MW 7024   2.157   1.288   9.148  0.8717 -0.3255 -0.3575
 1010Sol     OW 7025   3.153   1.638   5.421 -0.5938  0.1718  0.1373
 1010Sol     HW 7026   3.239   1.624   5.382 -0.7970 -0.0082 -0.2436
 1010Sol     HW 7027   3.171   1.688   5.500 -0.2954  1.4931 -0.7648
 1010Sol     MW 7028   3.162   1.641   5.425  0.3716 -0.3550 -0.1992
 1011Sol     OW 7029   0.854   2.500   6.589 -0.3905  0.1515  0.4351
 1011Sol     HW 7030   0.804   2.560   6.533  0.5343  0.3001 -0.2330
 1011Sol     HW 7031   0.852   2.417   6.543 -0.5400  0.0025  0.7105
 1011Sol     MW 7032   0.849   2.498   6.580  1.0610 -0.6462 -0.0812
 1012Sol     OW 7033   2.133   1.472   9.933 -0.3477  0.5178  0.4765
 1012Sol     HW 7034   2.223   1.461   9.904 -0.1369 -1.0613  1.6631
 1012Sol     HW 7035   2.138   1.532  10.007 -0.1623 -0.2379  1.0807
 1012Sol     MW 7036   2.141   1.477   9.937 -0.3015  0.3166 -0.0695
 1013Sol     OW 7037   2.509   1.498   5.365  0.3253  0.1373 -0.5521
 1013Sol     HW 7038   2.458   1.475   5.287 -1.8032  1.6940  0.3313
 1013Sol     HW 7039   2.494   1.592   5.376  1.6934  0.1927  0.9667
 1013Sol     MW 7040   2.503   1.504   5.359  0.7152  0.2166 -0.6132
 1014Sol     OW 7041   1.159   2.517   2.344 -0.2033  0.5448 -0.3227
 1014Sol     HW 7042   1.066   2.501   2.326 -0.2805  1.3582 -0.6935
 1014Sol     HW 7043   1.165   2.514   2.440 -0.0295 -2.5210 -0.4025
 1014Sol     MW 7044   1.151   2.515   2.351  0.7785  0.4616 -0.1609
 1015Sol     OW 7045   2.477   3.449   2.815  0.7802  0.1108 -0.0144
 1015Sol     HW 7046   2.518   3.430   2.898  1.4732 -0.3220 -0.4536
 1015Sol     HW 7047   2.384   3.459   2.835  0.8247 -0.8739  0.6621
 1015Sol     MW 7048   2.472   3.448   2.824  0.9353 -0.1385  0.1627
 1016Sol     OW 7049   2.825   0.306   8.438 -0.5311 -0.5908 -0.3020
 1016Sol     HW 7050   2.734   0.334   8.439 -0.8325 -1.5273 -0.8353
 1016Sol     HW 7051   2.824   0.221   8.395  0.6727 -0.3631 -0.8100
 1016Sol     MW 7052   2.817   0.301   8.435  0.1600  0.3199 -0.5784
 1017Sol     OW 7053   2.274   0.761   2.588  0.2090  0.4206  0.4236
 1017Sol     HW 7054   2.241   0.683   2.634  2.2042  0.3164  1.7327
 1017Sol     HW 7055   2.258   0.743   2.496  0.2926 -1.3746  0.7452
 1017Sol     MW 7056   2.270   0.752   2.584  0.1967  0.0188 -0.0965
 1018Sol     OW 7057   0.236   1.349   8.051 -0.5519  0.3775 -0.0383
 1018Sol     HW 7058   0.178   1.279   8.021  0.1914 -0.0942 -0.3771
 1018Sol     HW 7059   0.211   1.362   8.143  1.0964 -2.1748  0.8118
 1018Sol     MW 7060   0.228   1.344   8.057 -0.0393  0.5791 -0.2675
 1019Sol     OW 7061   0.351   1.416   6.740  0.2481  0.3243  0.3322
 1019Sol     HW 7062   0.355   1.418   6.835  0.7301 -1.0866  0.3544
 1019Sol     HW 7063   0.370   1.506   6.713  2.3484  0.2617  1.4828
 1019Sol     MW 7064   0.353   1.424   6.746  0.1372 -0.7068  0.4806
 1020Sol     OW 7065   2.802   0.035   8.354  0.7979 -1.1164 -0.4756
 1020Sol     HW 7066   2.736  -0.032   8.336  0.2858 -0.8309  0.3585
 1020Sol     HW 7067   2.856   0.035   8.275 -1.2057 -0.1627 -1.9028
 1020Sol     MW 7068   2.801   0.029   8.345 -0.3545  1.0080 -0.4268
 1021Sol     OW 7069   2.872   3.130   4.300  0.5848 -0.3840 -0.4244
 1021Sol     HW 7070   2.815   3.054   4.316 -0.7699  1.3341  3.5481
 1021Sol     HW 7071   2.841   3.166   4.217 -3.2566 -0.3442  0.9319
 1021Sol     MW 7072   2.864   3.126   4.294  0.2621  0.3463  0.6623
 1022Sol     OW 7073   0.887   2.403   4.011  0.1290 -0.2000  0.3782
 1022Sol     HW 7074   0.889   2.332   4.076  0.9450  0.2212  0.8166
 1022Sol     HW 7075   0.800   2.442   4.021 -0.1308 -0.7988  0.4993
 1022Sol     MW 7076   0.879   2.400   4.018 -0.7183  0.9199  0.3200
 1023Sol     OW 7077   0.039   2.642   9.952  0.0705  0.3855  0.0539
 1023Sol     HW 7078   0.025   2.578  10.021 -0.4500 -0.0334 -0.4358
 1023Sol     HW 7079  -0.035   2.630   9.892 -0.6842  2.2729  0.5752
 1023Sol     MW 7080   0.032   2.635   9.953  0.5460 -0.4888 -0.4462
 1024Sol     OW 7081   1.007   2.780   5.422  0.1266  0.0600  0.6135
 1024Sol     HW 7082   1.017   2.699   5.373  2.0219  0.8711 -0.4260
 1024Sol     HW 7083   0.954   2.836   5.366 -0.4201 -0.1450  0.9267
 1024Sol     MW 7084   1.004   2.778   5.413  0.0166  0.4770  0.3884
 1025Sol     OW 7085   1.624   2.599   4.113  0.1402  0.1082  0.0295
 1025Sol     HW 7086   1.638   2.507   4.135 -3.2453 -0.5662 -0.2277
 1025Sol     HW 7087   1.649   2.606   4.021 -0.6328 -0.8357 -0.2603
 1025Sol     MW 7088   1.627   2.591   4.107 -0.4389  0.0467  0.0113
 1026Sol     OW 7089   1.740   1.328   2.754 -0.0649 -0.1042  0.2757
 1026Sol     HW 7090   1.827   1.307   2.720  0.8690  1.6224  1.5324
 1026Sol     HW 7091   1.739   1.290   2.842 -1.0141 -1.0909 -0.1409
 1026Sol     MW 7092   1.747   1.322   2.759 -0.2776 -0.1160 -0.2631
 1027Sol     OW 7093   0.461   0.083   8.968  0.3067  0.4911 -0.0223
 1027Sol     HW 7094   0.470   0.175   8.942  0.3372  0.2070 -1.0501
 1027Sol     HW 7095   0.473   0.034   8.887  0.0259 -0.4107  0.4717
 1027Sol     MW 7096   0.463   0.087   8.958  0.1617 -0.3320 -0.4921
 1028Sol     OW 7097   1.862   3.336   6.640  0.1758  0.1860  0.1182
 1028Sol     HW 7098   1.783   3.343   6.585  1.4134  0.4886 -1.6779
 1028Sol     HW 7099   1.834   3.367   6.726 -1.7933 -0.1670 -0.3706
 1028Sol     MW 7100   1.852   3.340   6.642  0.2924 -0.0465  0.3566
 1029Sol     OW 7101   0.445   2.622   3.444  0.0291 -0.1906 -0.3293
 1029Sol     HW 7102   0.394   2.703   3.455 -1.6377 -1.0079 -1.7643
 1029Sol     HW 7103   0.464   2.619   3.350  0.6014 -1.1613 -0.1855
 1029Sol     MW 7104   0.442   2.629   3.437 -0.0487 -0.0510  0.0568
 1030Sol     OW 7105   1.222   0.931   9.811 -0.5460 -0.3101 -1.0221
 1030Sol     HW 7106   1.211   0.924   9.716 -0.3812 -0.0564 -1.0631
 1030Sol     HW 7107   1.317   0.928   9.823 -0.5495  0.0371 -0.9004
 1030Sol     MW 7108   1.230   0.930   9.803 -0.3110  1.1632  0.1367
 1031Sol     OW 7109   2.491   2.168   8.632 -0.6072 -0.1755  0.0944
 1031Sol     HW 7110   2.423   2.154   8.698 -0.5446  0.4938  0.2954
 1031Sol     HW 7111   2.570   2.189   8.682 -0.6529  0.7259 -0.2020
 1031Sol     MW 7112   2.492   2.168   8.643 -0.1511 -0.7257  0.8039
 1032Sol     OW 7113   1.173   1.014   8.522  0.0428 -0.0617 -0.0098
 1032Sol     HW 7114   1.118   1.090   8.544 -0.3554 -0.2885 -0.2111
 1032Sol     HW 7115   1.119   0.962   8.462  1.1763  0.6376 -1.6859
 1032Sol     MW 7116   1.163   1.016   8.518 -0.0621  0.3839 -0.1064
 1033Sol     OW 7117   2.880   3.028   3.899  0.8942 -0.6874 -0.3855
 1033Sol     HW 7118   2.896   3.046   3.807  1.3757 -0.8020 -0.3245
 1033Sol     HW 7119   2.926   3.097   3.946 -0.0906 -0.1154 -0.2573
 1033Sol     MW 7120   2.885   3.035   3.895  0.2860 -0.3051  1.1814
 1034Sol     OW 7121   0.978   0.203   1.374  1.0567 -0.0731  0.0392
 1034Sol     HW 7122   0.937   0.246   1.449  3.0569  0.1428  1.0503
 1034Sol     HW 7123   1.051   0.154   1.412  0.6388 -1.8982 -1.4890
 1034Sol     MW 7124   0.981   0.203   1.384 -0.1438  0.4326 -0.0150
 1035Sol     OW 7125   1.312   2.020   7.270 -0.1931 -0.6713  0.4812
 1035Sol     HW 7126   1.343   1.959   7.203 -0.2715  0.9160 -1.0391
 1035Sol     HW 7127   1.391   2.061   7.305 -0.2884  0.1974 -0.3050
 1035Sol     MW 7128   1.321   2.018   7.267 -0.0309 -0.2146 -0.1252
 1036Sol     OW 7129   2.528   1.598   6.566 -0.0689 -0.1873 -0.2549
 1036Sol     HW 7130   2.487   1.512   6.559 -0.9604  0.0425  1.6826
 1036Sol     HW 7131   2.618   1.580   6.591 -0.0968 -0.5793 -0.4361
 1036Sol     MW 7132   2.532   1.589   6.567  0.3882 -0.5032 -0.7358
 1037Sol     OW 7133   2.332   2.791   8.687  0.2540  0.5335  0.1792
 1037Sol     HW 7134   2.323   2.863   8.750  1.2555 -1.6398  2.9086
 1037Sol     HW 7135   2.425   2.771   8.687 -0.1375 -1.3350  0.1083
 1037Sol     MW 7136   2.339   2.796   8.693 -0.8592 -0.6481 -0.6630
 1038Sol     OW 7137   2.103   2.009   8.732 -0.2776 -0.1634 -0.0368
 1038Sol     HW 7138   2.148   1.927   8.715  0.7461  0.1949  0.9214
 1038Sol     HW 7139   2.040   1.988   8.801  1.2299  0.2565  1.4878
 1038Sol     MW 7140   2.101   2.000   8.737 -0.5929 -0.5228 -0.9619
 1039Sol     OW 7141   2.548   3.303   8.737 -0.1712 -0.0287 -0.2383
 1039Sol     HW 7142   2.562   3.396   8.721 -0.1653  0.1918  0.9496
 1039Sol     HW 7143   2.543   3.296   8.833  1.4719 -1.4887 -0.2348
 1039Sol     MW 7144   2.549   3.311   8.744  1.2290  0.0687  0.1183
 1040Sol     OW 7145   3.241   3.107   3.550 -0.1013  0.0417  0.0099
 1040Sol     HW 7146   3.165   3.160   3.576 -1.5833 -0.7274 -2.5334
 1040Sol     HW 7147   3.232   3.027   3.602 -0.7555  0.1700  0.1081
 1040Sol     MW 7148   3.233   3.105   3.557  0.2844 -0.2314  0.3189
 1041Sol     OW 7149   2.350   1.136   8.611 -0.3315  0.2347 -0.0152
 1041Sol     HW 7150   2.383   1.069   8.671 -0.7352  0.6385  0.6610
 1041Sol     HW 7151   2.264   1.104   8.583 -1.7595  1.7933  2.4831
 1041Sol     MW 7152   2.345   1.127   8.614 -0.0016  0.1679 -0.3076
 1042Sol     OW 7153   0.179   2.047   3.756 -0.5159  1.3390  0.2907
 1042Sol     HW 7154   0.172   2.124   3.699 -0.0646 -1.0316 -3.1717
 1042Sol     HW 7155   0.238   1.988   3.708 -2.0631 -1.7808  2.0807
 1042Sol     MW 7156   0.184   2.048   3.746  0.3411  0.8685 -0.9434
 1043Sol     OW 7157   1.262   2.656   1.883 -0.3107  0.1163  0.1760
 1043Sol     HW 7158   1.255   2.675   1.976  0.3356 -1.8237  0.6379
 1043Sol     HW 7159   1.173   2.633   1.856 -0.4961  0.6760  0.3217
 1043Sol     MW 7160   1.253   2.655   1.889  0.2586 -0.5457  0.2117
 1044Sol     OW 7161   3.188   3.376   7.066 -0.2865  0.2909 -0.0525
 1044Sol     HW 7162   3.141   3.411   7.141  1.5319  0.7923  0.8764
 1044Sol     HW 7163   3.133   3.304   7.035 -1.8580  1.1357  0.7323
 1044Sol     MW 7164   3.179   3.372   7.070  0.4240 -0.0894 -0.1121
 1045Sol     OW 7165   0.390   2.352   5.759 -0.1784  0.3234 -0.2510
 1045Sol     HW 7166   0.458   2.399   5.807  1.1493 -1.8758  0.0679
 1045Sol     HW 7167   0.437   2.306   5.690 -1.7042  0.9997 -1.7710
 1045Sol     MW 7168   0.400   2.352   5.757 -0.1065  0.4245  0.9721
 1046Sol     OW 7169   2.087   1.727   4.499 -0.3790 -0.7293  0.3645
 1046Sol     HW 7170   2.151   1.792   4.526 -0.3914 -0.2397 -0.7510
 1046Sol     HW 7171   2.139   1.649   4.477 -0.0525  0.0139 -1.5787
 1046Sol     MW 7172   2.097   1.726   4.499 -0.4340 -0.6964 -0.0354
 1047Sol     OW 7173   2.588   3.302   5.412 -0.1266  0.1152 -0.0306
 1047Sol     HW 7174   2.545   3.356   5.346  1.3099  2.3932  0.8574
 1047Sol     HW 7175   2.517   3.274   5.471 -1.0805 -0.1550 -1.2906
 1047Sol     MW 7176   2.578   3.304   5.411 -0.6346 -0.1156  0.0655
 1048Sol     OW 7177   0.450   3.084   6.989 -0.0904 -0.6212  0.0547
 1048Sol     HW 7178   0.423   2.993   6.986  0.2158 -0.7256  0.3402
 1048Sol     HW 7179   0.534   3.082   7.035 -0.0375 -0.2076 -0.0209
 1048Sol     MW 7180   0.455   3.076   6.993  0.0192  0.3448  0.4343
 1049Sol     OW 7181   1.853   2.996   9.825 -0.0771 -0.4036 -0.1477
 1049Sol     HW 7182   1.799   2.918   9.841 -1.2320  0.4068 -0.0210
 1049Sol     HW 7183   1.919   2.993   9.894 -0.7764 -0.6976  0.5210
 1049Sol     MW 7184   1.854   2.989   9.833  0.4658  0.2746  0.1792
 1050Sol     OW 7185   2.422   1.285   2.989 -0.0293 -0.2346  0.2528
 1050Sol     HW 7186   2.353   1.319   3.047 -0.1003  1.3157 -0.6992
 1050Sol     HW 7187   2.445   1.200   3.026 -3.0739 -1.1858  0.0973
 1050Sol     MW 7188   2.418   1.281   2.997  0.3590  0.6489  0.4042
 1051Sol     OW 7189   0.479   2.845   4.535 -0.3725 -0.6352  0.2493
 1051Sol     HW 7190   0.475   2.935   4.502 -0.0882 -0.8762 -0.4689
 1051Sol     HW 7191   0.388   2.815   4.534 -0.4700 -0.3411  0.5134
 1051Sol     MW 7192   0.471   2.851   4.532 -0.5568 -0.2740 -0.4051
 1052Sol     OW 7193   2.888   1.128   3.036 -0.4018  0.5547 -0.2230
 1052Sol     HW 7194   2.919   1.164   2.952  1.1321  1.8754  0.8704
 1052Sol     HW 7195   2.953   1.158   3.100 -1.8395 -0.0024  1.5319
 1052Sol     MW 7196   2.897   1.134   3.034  0.3739 -0.9961  0.5197
 1053Sol     OW 7197   0.460   0.063   7.649  0.2131  0.2180  0.4949
 1053Sol     HW 7198   0.385   0.004   7.648 -0.1219  0.6347 -1.8475
 1053Sol     HW 7199   0.435   0.133   7.709 -0.5973 -0.4685  0.9760
 1053Sol     MW 7200   0.451   0.064   7.655  0.1239 -0.0801  0.1211
 1054Sol     OW 7201   0.457   1.194   6.616 -0.1483  0.0354 -0.2561
 1054Sol     HW 7202   0.496   1.144   6.688 -0.2386 -0.1119 -0.3099
 1054Sol     HW 7203   0.434   1.278   6.655 -0.5821 -0.1960 -0.0103
 1054Sol     MW 7204   0.458   1.197   6.626 -0.3292  1.0690 -0.2872
 1055Sol     OW 7205   2.759   3.354   3.669  0.3552 -0.0279  0.1784
 1055Sol     HW 7206   2.695   3.343   3.739  0.1264  1.1732  0.1599
 1055Sol     HW 7207   2.832   3.401   3.710  0.7983 -0.5045 -0.0552
 1055Sol     MW 7208   2.760   3.357   3.679 -0.5233  0.0390 -0.1011
 1056Sol     OW 7209   3.018   0.945   9.804 -0.2004  0.0689  0.0697
 1056Sol     HW 7210   3.073   1.015   9.770 -0.3668  0.1294 -0.0793
 1056Sol     HW 7211   3.054   0.865   9.765 -2.0292  0.4039 -2.4212
 1056Sol     MW 7212   3.026   0.944   9.797  0.4224 -0.0988 -0.6859
 1057Sol     OW 7213   1.598   0.169   9.804  0.0093  0.1053  0.5231
 1057Sol     HW 7214   1.660   0.184   9.732 -0.3565 -2.0204 -0.2785
 1057Sol     HW 7215   1.530   0.236   9.791 -0.0368 -0.2349 -1.1171
 1057Sol     MW 7216   1.597   0.177   9.796 -0.2102 -0.8080 -1.0659
 1058Sol     OW 7217   0.159   1.802   8.075  0.0878 -0.0604  0.5885
 1058Sol     HW 7218   0.247   1.793   8.112 -0.5979 -2.0371  1.8023
 1058Sol     HW 7219   0.152   1.730   8.012 -0.4972  0.3872  0.1293
 1058Sol     MW 7220   0.166   1.795   8.072  0.0970  0.0568  0.2361
 1059Sol     OW 7221   3.192   2.340   3.134  0.0096 -0.0545  0.1573
 1059Sol     HW 7222   3.218   2.315   3.222 -1.0561 -0.3277  0.3959
 1059Sol     HW 7223   3.098   2.325   3.131 -0.1175  0.8277 -0.7341
 1059Sol     MW 7224   3.186   2.337   3.141  0.4297 -0.3286 -0.0288
 1060Sol     OW 7225   1.295   0.160   7.259 -0.4585  0.2685  0.3449
 1060Sol     HW 7226   1.242   0.086   7.231 -0.3795  0.3753 -0.0897
 1060Sol     HW 7227   1.384   0.139   7.229 -0.5442  0.8128 -0.3181
 1060Sol     MW 7228   1.298   0.152   7.254 -0.4672  0.0455 -0.6408
 1061Sol     OW 7229   0.880   1.314   7.551 -0.0245  0.7701 -0.0005
 1061Sol     HW 7230   0.844   1.258   7.483  1.0410  0.0373  0.0310
 1061Sol     HW 7231   0.826   1.393   7.548 -1.2466 -0.0632 -0.3444
 1061Sol     MW 7232   0.872   1.316   7.545 -0.3587  0.3852  0.6020
 1062Sol     OW 7233   0.183   0.119   3.580  0.6961 -0.1149  0.4339
 1062Sol     HW 7234   0.140   0.084   3.658 -0.6827  0.3952 -0.0791
 1062Sol     HW 7235   0.209   0.208   3.605  0.1910  0.0735  0.2862
 1062Sol     MW 7236   0.181   0.124   3.590 -0.1999  0.0049 -0.1975
 1063Sol     OW 7237   1.255   2.855   7.151 -0.4813 -0.6677  0.1079
 1063Sol     HW 7238   1.290   2.930   7.199  1.0932 -2.1801  1.3965
 1063Sol     HW 7239   1.282   2.868   7.061  1.1687 -0.4853  0.6216
 1063Sol     MW 7240   1.260   2.863   7.148 -0.0880  0.1790  0.6930
 1064Sol     OW 7241   2.948   0.649   5.853 -0.2081 -0.1036  0.2852
 1064Sol     HW 7242   2.917   0.735   5.823 -0.8187 -1.1826 -2.3972
 1064Sol     HW 7243   2.870   0.593   5.847  0.6251 -1.2630  0.1917
 1064Sol     MW 7244   2.938   0.651   5.850  0.0168  0.6632 -0.1618
 1065Sol     OW 7245   1.551   0.293   9.199  0.1699 -0.5663 -0.3722
 1065Sol     HW 7246   1.463   0.258   9.212 -1.1382  2.2526 -1.2501
 1065Sol     HW 7247   1.560   0.301   9.104  1.2288 -0.4697 -0.2739
 1065Sol     MW 7248   1.544   0.290   9.192  0.1385  0.9816 -0.1342
 1066Sol     OW 7249   0.603   2.822   7.956 -0.3172  0.1405 -0.3449
 1066Sol     HW 7250   0.522   2.850   7.999 -0.6708  2.0045 -2.1170
 1066Sol     HW 7251   0.575   2.779   7.876  0.3887 -1.4196  0.2308
 1066Sol     MW 7252   0.594   2.821   7.952  0.6205  0.0840 -0.4654
 1067Sol     OW 7253   2.596   3.033   3.456  0.2261 -0.7272  0.1347
 1067Sol     HW 7254   2.639   2.968   3.513  1.3002 -1.0318 -1.0124
 1067Sol     HW 7255   2.661   3.053   3.390 -1.1559 -0.6412 -1.2170
 1067Sol     MW 7256   2.605   3.029   3.455  0.1006 -0.4033 -0.1569
 1068Sol     OW 7257   2.990   1.353   5.742 -0.1927  0.1716  0.4818
 1068Sol     HW 7258   2.957   1.335   5.655 -1.8963  1.0161  0.9329
 1068Sol     HW 7259   2.913   1.377   5.793  0.6391 -1.1856  2.4605
 1068Sol     MW 7260   2.981   1.354   5.739 -0.4724 -0.0188 -0.6070
 1069Sol     OW 7261   2.557   1.517   5.827  0.1966 -0.6664 -0.4835
 1069Sol     HW 7262   2.548   1.575   5.903 -0.5497 -1.1855 -0.1716
 1069Sol     HW 7263   2.607   1.568   5.764 -1.2749  0.6795 -0.5920
 1069Sol     MW 7264   2.561   1.527   5.828  0.1745  0.5440  0.8187
 1070Sol     OW 7265   1.866   3.091   1.334  0.5743 -0.2862 -0.4347
 1070Sol     HW 7266   1.957   3.081   1.307  1.2259 -1.4964  2.1331
 1070Sol     HW 7267   1.862   3.177   1.375 -0.1495  1.0363 -3.1506
 1070Sol     MW 7268   1.874   3.098   1.335 -0.3277  0.1366  0.1960
 1071Sol     OW 7269   3.102   1.976   7.774 -0.2370  0.1745  0.7722
 1071Sol     HW 7270   3.014   2.009   7.754  0.2298  0.6231 -0.5380
 1071Sol     HW 7271   3.086   1.896   7.823 -1.3969 -0.3247 -0.3931
 1071Sol     MW 7272   3.092   1.972   7.777  0.5373  0.3087 -0.2464
 1072Sol     OW 7273   1.521   1.925   5.177 -0.1604 -0.3061 -0.3264
 1072Sol     HW 7274   1.599   1.959   5.221 -0.9389 -1.5778  2.1751
 1072Sol     HW 7275   1.463   1.900   5.249 -3.6021  2.1744 -2.1217
 1072Sol     MW 7276   1.523   1.926   5.188 -0.0793  0.4451 -0.6308
 1073Sol     OW 7277   2.189   0.358   3.907  0.2227 -0.2607 -0.1295
 1073Sol     HW 7278   2.133   0.290   3.870  2.2000 -1.2542 -1.4220
 1073Sol     HW 7279   2.204   0.419   3.835  1.3859 -0.4142 -0.0300
 1073Sol     MW 7280   2.186   0.357   3.897 -0.0733  0.9870 -0.5685
 1074Sol     OW 7281   1.797   0.781   2.094 -0.2904  0.0257 -0.2406
 1074Sol     HW 7282   1.741   0.838   2.146 -0.3256 -0.3959  0.1878
 1074Sol     HW 7283   1.761   0.787   2.005 -1.1274 -0.3721  0.0653
 1074Sol     MW 7284   1.788   0.786   2.091 -0.3765  0.1218 -0.0316
 1075Sol     OW 7285   2.502   2.319   7.811  0.2218  0.0461 -0.1437
 1075Sol     HW 7286   2.560   2.350   7.881  1.0494  1.0822 -1.2703
 1075Sol     HW 7287   2.484   2.396   7.758 -1.8100 -0.3737 -0.1062
 1075Sol     MW 7288   2.506   2.328   7.812  0.1759 -0.5872  0.8366
 1076Sol     OW 7289   2.769   0.120   2.465 -0.0700  0.2173  0.4132
 1076Sol     HW 7290   2.739   0.209   2.447  0.6882  0.0790 -1.6691
 1076Sol     HW 7291   2.721   0.065   2.403 -0.4686 -0.8156  1.6204
 1076Sol     MW 7292   2.762   0.123   2.458 -0.1928  0.6962  0.4188
 1077Sol     OW 7293   0.447   0.651   2.770 -0.0959  0.2361  0.3074
 1077Sol     HW 7294   0.408   0.626   2.854 -1.4446  0.8090 -0.1361
 1077Sol     HW 7295   0.513   0.716   2.792  0.6625 -0.7690  1.0751
 1077Sol     MW 7296   0.449   0.654   2.779 -0.3503 -0.4346 -0.2156
 1078Sol     OW 7297   2.038   0.536   9.594 -0.2964 -0.4083 -0.5080
 1078Sol     HW 7298   1.983   0.563   9.522  0.3715  1.8670 -0.1918
 1078Sol     HW 7299   2.074   0.617   9.630  1.0328 -1.6331  1.0568
 1078Sol     MW 7300   2.036   0.545   9.591 -0.4643  0.1706  0.6006
 1079Sol     OW 7301   1.496   3.004   8.239  0.0797  0.3559 -0.7128
 1079Sol     HW 7302   1.401   3.018   8.245  0.2782  1.0312  1.0445
 1079Sol     HW 7303   1.534   3.086   8.271  1.2674 -0.6971  0.6289
 1079Sol     MW 7304   1.491   3.013   8.242 -0.0653  0.3673  0.8242
 1080Sol     OW 7305   0.593   0.626   2.027 -0.2268  0.1311  0.1817
 1080Sol     HW 7306   0.658   0.587   1.968  0.3777  1.4088 -0.0190
 1080Sol     HW 7307   0.646   0.675   2.090 -0.9780  0.8599  0.2485
 1080Sol     MW 7308   0.604   0.627   2.027  1.0282  0.0994  0.3177
 1081Sol     OW 7309   1.479   0.828   6.392  0.1193 -0.4104 -0.5709
 1081Sol     HW 7310   1.569   0.841   6.362  0.7318 -0.1618  1.3185
 1081Sol     HW 7311   1.441   0.769   6.327  1.2907  0.3819 -2.0136
 1081Sol     MW 7312   1.484   0.824   6.384  0.1885  0.3292 -0.2658
 1082Sol     OW 7313   1.836   1.235   9.427 -0.3764  0.2530 -0.1017
 1082Sol     HW 7314   1.862   1.226   9.335  0.3195 -0.3506  0.1409
 1082Sol     HW 7315   1.819   1.328   9.439 -0.9595  0.2531 -0.9712
 1082Sol     MW 7316   1.837   1.242   9.420  1.5145  0.2776  0.1323
 1083Sol     OW 7317   0.471   0.874   7.526 -0.0598 -0.7580  0.3301
 1083Sol     HW 7318   0.447   0.881   7.618 -0.6754 -0.3688  0.1407
 1083Sol     HW 7319   0.502   0.784   7.515 -0.1077 -0.8390  0.8839
 1083Sol     MW 7320   0.472   0.866   7.533  0.2782  0.0315 -0.3443
 1084Sol     OW 7321   0.796   0.162   9.048 -0.6469  0.2515  0.0763
 1084Sol     HW 7322   0.703   0.185   9.059 -0.8321 -0.2778 -0.3261
 1084Sol     HW 7323   0.828   0.223   8.981 -0.8401  0.0990 -0.1571
 1084Sol     MW 7324   0.790   0.170   9.043 -0.5282  0.0757  0.2937
 1085Sol     OW 7325   1.857   2.905   8.352 -0.7490  0.1857  0.3255
 1085Sol     HW 7326   1.865   2.811   8.370 -0.3020 -0.1047 -1.3040
 1085Sol     HW 7327   1.927   2.923   8.289 -0.8889  1.6054  0.5671
 1085Sol     MW 7328   1.864   2.898   8.348 -0.6151  0.1152 -0.2553
 1086Sol     OW 7329   0.757   2.982   3.235 -0.1985  0.6224  0.6378
 1086Sol     HW 7330   0.811   3.062   3.241 -1.2542  1.3284  0.7604
 1086Sol     HW 7331   0.804   2.927   3.172  2.0040  0.1847  2.5589
 1086Sol     MW 7332   0.766   2.984   3.230  0.5896 -0.3682 -0.2605
 1087Sol     OW 7333   0.044   2.405   7.643 -0.3383  0.1504 -0.2483
 1087Sol     HW 7334   0.087   2.422   7.560 -0.1503 -0.6606 -0.3274
 1087Sol     HW 7335   0.048   2.310   7.652  0.7239  0.3238  1.2626
 1087Sol     MW 7336   0.048   2.398   7.637  0.8920 -0.6747 -0.6800
 1088Sol     OW 7337   1.586   1.764   2.860 -0.2519 -0.0244 -0.2970
 1088Sol     HW 7338   1.533   1.826   2.810 -0.9364 -0.6762 -0.3840
 1088Sol     HW 7339   1.554   1.771   2.950 -0.0339  0.0730 -0.2284
 1088Sol     MW 7340   1.578   1.770   2.863 -0.5198  0.3348  0.1308
 1089Sol     OW 7341   0.700   2.076   8.560  0.3963 -0.0134 -0.3168
 1089Sol     HW 7342   0.686   1.987   8.594 -0.1699  0.8637  1.7741
 1089Sol     HW 7343   0.696   2.065   8.465 -1.4025 -1.9500 -0.0570
 1089Sol     MW 7344   0.698   2.067   8.555  0.5974 -0.3496  0.3761
 1090Sol     OW 7345   2.195   0.666   2.320  0.1069 -0.0600 -0.0010
 1090Sol     HW 7346   2.277   0.664   2.270 -0.2102 -0.1322 -0.5201
 1090Sol     HW 7347   2.148   0.742   2.286  0.0764  0.1443  0.4886
 1090Sol     MW 7348   2.198   0.673   2.313  0.0343  0.1697 -0.7372
 1091Sol     OW 7349   0.699   2.483   9.198 -0.1183  0.2933  0.0788
 1091Sol     HW 7350   0.790   2.510   9.186 -0.3662  0.7204 -0.8428
 1091Sol     HW 7351   0.693   2.396   9.160  0.3568 -0.5387  1.8540
 1091Sol     MW 7352   0.706   2.478   9.194 -0.2478 -0.0025 -0.2210
 1092Sol     OW 7353   2.635   0.336   2.958 -0.6079  0.1700  0.9991
 1092Sol     HW 7354   2.641   0.286   3.040 -1.1230  1.3285  1.7612
 1092Sol     HW 7355   2.586   0.414   2.982  0.5842  1.2717 -0.0662
 1092Sol     MW 7356   2.631   0.338   2.968 -0.4735  0.5207 -0.8758
 1093Sol     OW 7357   2.092   1.703   5.438 -0.9698  0.1609 -0.6849
 1093Sol     HW 7358   2.152   1.680   5.509 -0.3436  1.4222 -0.7821
 1093Sol     HW 7359   2.005   1.700   5.478 -0.6146  0.9948  0.1872
 1093Sol     MW 7360   2.090   1.701   5.448  0.4588 -0.5747 -0.5440
 1094Sol     OW 7361   2.085   1.394   6.338 -0.0125 -0.1610  0.0864
 1094Sol     HW 7362   2.115   1.434   6.419  0.8748  0.9523 -0.7796
 1094Sol     HW 7363   2.097   1.461   6.271  0.3040 -1.4239 -1.1637
 1094Sol     MW 7364   2.089   1.403   6.339  0.1173  0.1627 -0.5054
 1095Sol     OW 7365   2.393   0.519   9.108 -0.2278  0.1978 -0.4256
 1095Sol     HW 7366   2.433   0.492   9.191 -2.2810  0.8425  0.8098
 1095Sol     HW 7367   2.311   0.469   9.104 -1.3210  1.9794 -0.8562
 1095Sol     MW 7368   2.389   0.512   9.115  0.7636 -0.4795 -0.1228
 1096Sol     OW 7369   0.244   2.271   9.880 -0.1701  0.5115 -0.0754
 1096Sol     HW 7370   0.309   2.204   9.863 -0.4306  0.1943  0.1716
 1096Sol     HW 7371   0.188   2.272   9.802  0.1463  0.8020 -0.2988
 1096Sol     MW 7372   0.244   2.265   9.872  0.4416  0.6261 -0.7430
 1097Sol     OW 7373   2.725   0.200   7.558 -0.0021 -0.7708  0.1121
 1097Sol     HW 7374   2.757   0.119   7.597  0.4633 -1.4968 -1.7060
 1097Sol     HW 7375   2.641   0.176   7.518  0.6092 -0.6368 -1.3120
 1097Sol     MW 7376   2.720   0.191   7.558  0.1598 -0.0516  0.2201
 1098Sol     OW 7377   0.010   3.400   8.770  0.0094  0.8299  0.2579
 1098Sol     HW 7378   0.031   3.309   8.751 -0.4931  0.8446 -0.3531
 1098Sol     HW 7379   0.064   3.421   8.847  2.5619  0.9815 -1.5063
 1098Sol     MW 7380   0.017   3.394   8.775  1.0506  0.0485 -0.4499
 1099Sol     OW 7381   2.315   2.163   8.298 -0.3064  0.1999  0.3890
 1099Sol     HW 7382   2.353   2.151   8.211  2.3554  3.0490  1.0694
 1099Sol     HW 7383   2.351   2.090   8.350 -0.4429 -0.4560 -0.4231
 1099Sol     MW 7384   2.322   2.155   8.295  0.7505  0.7583 -0.2097
 1100Sol     OW 7385   2.347   0.772   5.861 -0.0294  0.1415  0.1827
 1100Sol     HW 7386   2.311   0.741   5.944  0.8356 -0.7384  0.2416
 1100Sol     HW 7387   2.325   0.704   5.797 -2.3388  1.7066 -0.7303
 1100Sol     MW 7388   2.342   0.763   5.863  0.1220  0.5538 -0.1719
 1101Sol     OW 7389   2.797   1.603   2.972 -0.9100  0.0137 -0.2367
 1101Sol     HW 7390   2.730   1.650   2.923  0.2082  1.8705 -0.0259
 1101Sol     HW 7391   2.756   1.519   2.993 -2.8834  0.8017 -0.7718
 1101Sol     MW 7392   2.787   1.599   2.969 -0.4645 -0.5445 -0.0127
 1102Sol     OW 7393   0.413   0.648   5.206 -0.4141 -0.4596  0.4351
 1102Sol     HW 7394   0.420   0.688   5.119  0.1924  0.6272  0.9800
 1102Sol     HW 7395   0.344   0.698   5.250 -0.5522 -0.8529  0.6676
 1102Sol     MW 7396   0.407   0.656   5.202  0.1995 -0.0405  0.0023
 1103Sol     OW 7397   1.455   2.929   6.153 -0.0528  0.1206 -0.1683
 1103Sol     HW 7398   1.540   2.911   6.193 -0.3416 -0.5503  0.1547
 1103Sol     HW 7399   1.438   2.852   6.099 -0.3769  0.3336 -0.3676
 1103Sol     MW 7400   1.461   2.921   6.152 -0.8044 -0.5779  1.3972
 1104Sol     OW 7401   1.512   2.367   7.067  0.3224 -0.1793  0.3098
 1104Sol     HW 7402   1.607   2.370   7.064  0.3901  0.3956  2.2500
 1104Sol     HW 7403   1.488   2.419   7.144 -1.5682 -0.1193 -0.2824
 1104Sol     MW 7404   1.518   2.372   7.074  0.4740  0.3865  0.0969
 1105Sol     OW 7405   0.979   2.206   7.089 -0.2421  0.0483 -0.3513
 1105Sol     HW 7406   1.039   2.278   7.071 -0.9357  0.9168  0.7257
 1105Sol     HW 7407   0.903   2.248   7.129  0.0533 -1.4577  1.9124
 1105Sol     MW 7408   0.977   2.216   7.091  0.1099  0.3157  0.2762
 1106Sol     OW 7409   0.431   1.909   6.309  0.6510  0.4388  0.2873
 1106Sol     HW 7410   0.470   1.996   6.300  1.8992 -0.0748  0.6592
 1106Sol     HW 7411   0.342   1.926   6.341  0.8397  1.5882  0.2137
 1106Sol     MW 7412   0.426   1.918   6.311 -1.5748  0.0745 -0.3478
 1107Sol     OW 7413   0.292   0.804   2.560 -0.2502  0.2188 -0.0656
 1107Sol     HW 7414   0.272   0.733   2.500 -0.2834  0.6472 -0.5577
 1107Sol     HW 7415   0.359   0.766   2.619  0.1643 -0.0318 -0.6882
 1107Sol     MW 7416   0.296   0.794   2.560  0.2548 -0.4366 -0.1682
 1108Sol     OW 7417   2.717   0.910   2.109 -0.5920  0.6407 -0.0957
 1108Sol     HW 7418   2.783   0.976   2.129 -1.2641  0.5257  2.8158
 1108Sol     HW 7419   2.653   0.956   2.054 -0.1943  1.9531  0.5115
 1108Sol     MW 7420   2.717   0.920   2.106 -0.6721  0.1406  0.1209
 1109Sol     OW 7421   0.592   1.100   8.102 -0.0877 -0.4895 -0.5234
 1109Sol     HW 7422   0.643   1.021   8.081  0.1168 -0.4210 -0.2879
 1109Sol     HW 7423   0.557   1.082   8.190 -0.2320 -0.4159 -0.5668
 1109Sol     MW 7424   0.594   1.091   8.108  0.5296 -0.1866  0.2899
 1110Sol     OW 7425   1.000   0.863   7.904 -0.2903 -0.2566 -0.0239
 1110Sol     HW 7426   1.011   0.935   7.966 -0.4031  1.2561 -1.7049
 1110Sol     HW 7427   0.908   0.868   7.878 -0.2877 -0.9844 -0.1882
 1110Sol     MW 7428   0.993   0.870   7.907 -0.4900 -0.0109 -0.2338
 1111Sol     OW 7429   1.986   2.359   3.174  0.0087  0.7901  0.2504
 1111Sol     HW 7430   1.959   2.411   3.250  2.0583  1.0140  0.8624
 1111Sol     HW 7431   1.914   2.298   3.160 -0.7221  1.2261  1.9410
 1111Sol     MW 7432   1.977   2.358   3.180  0.1647  0.3490  0.0072
 1112Sol     OW 7433   1.426   0.602   6.217 -0.2513 -0.2171  0.4180
 1112Sol     HW 7434   1.405   0.549   6.141 -0.2304 -1.8069  1.4828
 1112Sol     HW 7435   1.518   0.580   6.237 -0.2034  0.3076  0.7996
 1112Sol     MW 7436   1.433   0.595   6.212  0.7015 -0.4578  0.3250
 1113Sol     OW 7437   0.456   0.905   6.843  0.5062 -0.2830  0.2650
 1113Sol     HW 7438   0.466   0.941   6.931  0.0364 -0.4940  0.4058
 1113Sol     HW 7439   0.414   0.820   6.856 -0.3535  0.0555 -0.2179
 1113Sol     MW 7440   0.453   0.901   6.852 -0.4234 -0.2116 -0.1930
 1114Sol     OW 7441   1.799   1.792   1.871 -0.0477  0.2278  0.2199
 1114Sol     HW 7442   1.753   1.814   1.952  1.7733  0.5949  1.1917
 1114Sol     HW 7443   1.791   1.870   1.817  0.1635  0.6021  0.7263
 1114Sol     MW 7444   1.794   1.801   1.873  0.0754 -0.2564  1.1462
 1115Sol     OW 7445   3.286   2.929   7.623 -0.3834  0.1408 -0.6945
 1115Sol     HW 7446   3.250   2.922   7.711 -1.2072 -0.1327 -1.0467
 1115Sol     HW 7447   3.280   3.022   7.601 -0.9279  0.0916 -0.7675
 1115Sol     MW 7448   3.282   2.936   7.629 -0.5387  0.2625  0.1769
 1116Sol     OW 7449   1.291   3.439   8.074  0.1047 -0.0345 -0.0101
 1116Sol     HW 7450   1.240   3.506   8.028 -0.2562  0.4792  1.1246
 1116Sol     HW 7451   1.293   3.469   8.165  4.0659  1.0078 -0.3323
 1116Sol     MW 7452   1.287   3.448   8.078 -0.4232  0.3562 -0.6227
 1117Sol     OW 7453   0.864   1.742   5.744 -0.1204  0.1100  0.6140
 1117Sol     HW 7454   0.853   1.712   5.834 -0.2154 -0.1133  0.5285
 1117Sol     HW 7455   0.837   1.834   5.745  0.5823  0.3117  0.9656
 1117Sol     MW 7456   0.861   1.748   5.752 -0.6222  0.0454  0.6422
 1118Sol     OW 7457   1.282   0.179   9.546  0.3274 -0.1491 -1.3383
 1118Sol     HW 7458   1.301   0.250   9.606  0.2044 -1.1763 -0.0575
 1118Sol     HW 7459   1.347   0.111   9.567 -0.2641 -0.8614 -1.7683
 1118Sol     MW 7460   1.290   0.179   9.553  0.9180  0.7417 -0.3931
 1119Sol     OW 7461   1.102   3.399   2.171 -0.1168 -0.1996  0.2673
 1119Sol     HW 7462   1.099   3.372   2.263 -0.0078 -1.6827 -0.1479
 1119Sol     HW 7463   1.168   3.468   2.168  0.3302 -0.5890  1.1898
 1119Sol     MW 7464   1.107   3.403   2.179 -0.9641 -0.2038 -0.3756
 1120Sol     OW 7465   1.089   0.083   2.893 -0.2383  0.5808 -0.4544
 1120Sol     HW 7466   1.028   0.088   2.967 -0.5445 -1.3349 -0.5651
 1120Sol     HW 7467   1.052   0.143   2.828 -0.4707  1.5638  0.5719
 1120Sol     MW 7468   1.080   0.089   2.894  0.8025 -0.6712 -0.6892
 1121Sol     OW 7469   1.811   1.697   5.857 -0.4429 -0.1263 -0.1236
 1121Sol     HW 7470   1.870   1.650   5.917 -1.3426 -1.4612 -0.2587
 1121Sol     HW 7471   1.724   1.683   5.893 -0.8675  0.1485 -1.0362
 1121Sol     MW 7472   1.809   1.691   5.865 -0.3223  0.1956  0.1481
 1122Sol     OW 7473   0.932   3.270   4.573  0.2412 -0.4108 -0.4206
 1122Sol     HW 7474   0.926   3.329   4.498 -2.3005  1.0463  0.8265
 1122Sol     HW 7475   0.932   3.329   4.649 -0.5199 -1.9438  0.7915
 1122Sol     MW 7476   0.931   3.281   4.573 -0.0031 -0.2096  0.4054
 1123Sol     OW 7477   2.087   2.144   2.177  0.1455  0.4160  0.1514
 1123Sol     HW 7478   2.003   2.163   2.217 -0.9125  2.1987 -2.8056
 1123Sol     HW 7479   2.097   2.049   2.187 -2.0347  0.2351  0.8627
 1123Sol     MW 7480   2.081   2.137   2.181 -0.8332  0.1743  0.4243
 1124Sol     OW 7481   0.885   3.227   3.266 -0.3568 -0.2436 -0.2318
 1124Sol     HW 7482   0.855   3.289   3.200  1.4874 -0.1336 -0.9896
 1124Sol     HW 7483   0.849   3.260   3.348 -0.7300  0.9157 -0.8581
 1124Sol     MW 7484   0.879   3.235   3.268  0.0634  0.6025  0.1158
 1125Sol     OW 7485   2.533   2.694   2.024  0.4174  0.6395 -0.1193
 1125Sol     HW 7486   2.553   2.787   2.021 -0.4110  0.7999 -1.9591
 1125Sol     HW 7487   2.463   2.687   2.089 -1.5084  1.7527 -1.9983
 1125Sol     MW 7488   2.528   2.702   2.029  0.0223  0.4424  0.3892
 1126Sol     OW 7489   1.671   2.555   6.797 -0.0531  0.0187 -0.0688
 1126Sol     HW 7490   1.732   2.564   6.725  0.8154  1.0798  0.7806
 1126Sol     HW 7491   1.596   2.508   6.760  1.3226 -1.4030 -1.0696
 1126Sol     MW 7492   1.669   2.552   6.787 -0.5020 -0.1817 -0.2525
 1127Sol     OW 7493   1.416   1.384   3.016 -0.3226 -0.1780 -0.0188
 1127Sol     HW 7494   1.358   1.346   3.082 -0.7655  1.7563  0.7306
 1127Sol     HW 7495   1.501   1.343   3.033 -0.6377 -0.3303  1.2131
 1127Sol     MW 7496   1.419   1.377   3.023  0.1020 -0.5078 -0.1940
 1128Sol     OW 7497   2.823   1.846   3.081  0.2550 -0.3461 -0.4320
 1128Sol     HW 7498   2.895   1.832   3.143  0.1961 -0.8155 -0.4706
 1128Sol     HW 7499   2.810   1.762   3.038 -0.1012 -0.1787 -0.6638
 1128Sol     MW 7500   2.828   1.838   3.083 -0.0847  0.5485 -0.3132
 1129Sol     OW 7501   0.969   0.914   2.438  0.2097 -0.2463 -0.5447
 1129Sol     HW 7502   0.912   0.982   2.400 -0.0149 -0.2957 -0.3038
 1129Sol     HW 7503   0.910   0.840   2.454  0.2041 -0.0718  0.3022
 1129Sol     MW 7504   0.958   0.914   2.436 -0.3381  0.6233  1.1906
 1130Sol     OW 7505   2.456   0.554   3.010  0.0800 -0.4972  0.0865
 1130Sol     HW 7506   2.451   0.644   2.979 -1.1167  0.1662  2.0945
 1130Sol     HW 7507   2.366   0.521   3.002  0.0422 -0.7577  1.4663
 1130Sol     MW 7508   2.447   0.559   3.007 -0.0932 -0.3375 -0.5678
 1131Sol     OW 7509   1.673   1.687   8.997 -0.3397 -0.2114 -0.0402
 1131Sol     HW 7510   1.763   1.715   8.984  0.1475 -1.6000  0.2650
 1131Sol     HW 7511   1.620   1.762   8.970  0.8971  0.5355 -0.4085
 1131Sol     MW 7512   1.676   1.696   8.993  0.0995  0.0072 -0.1706
 1132Sol     OW 7513   2.516   1.584   3.133 -0.0970 -0.2234  0.1642
 1132Sol     HW 7514   2.450   1.515   3.131  0.6662 -0.9973  1.3497
 1132Sol     HW 7515   2.473   1.657   3.176  0.5539 -1.5394  3.1942
 1132Sol     MW 7516   2.507   1.584   3.136 -0.5217  0.9068 -0.7071
 1133Sol     OW 7517   3.296   1.126   5.176 -0.0362 -0.1618  0.0841
 1133Sol     HW 7518   3.233   1.054   5.170 -0.0504 -0.2714  1.3097
 1133Sol     HW 7519   3.379   1.087   5.146 -0.3467 -0.2778 -0.6332
 1133Sol     MW 7520   3.298   1.116   5.173 -0.3011 -0.8897 -0.2486
 1134Sol     OW 7521   0.801   1.051   6.402  0.0529  0.1367 -0.0173
 1134Sol     HW 7522   0.809   0.979   6.340  2.1034  0.0786  0.2908
 1134Sol     HW 7523   0.890   1.066   6.434 -0.0438  3.7474 -1.1288
 1134Sol     MW 7524   0.809   1.046   6.399 -0.5152  0.1637  0.0489
 1135Sol     OW 7525   0.968   3.012   4.515  0.1362 -0.1722  0.0263
 1135Sol     HW 7526   0.911   2.986   4.442 -0.6978  1.0923  0.2051
 1135Sol     HW 7527   0.946   3.104   4.530 -0.3619 -0.6491  2.4671
 1135Sol     MW 7528   0.961   3.018   4.510 -0.1841  0.8214 -0.1098
 1136Sol     OW 7529   0.383   0.719   3.553  0.2262  0.0306  0.3859
 1136Sol     HW 7530   0.466   0.683   3.586 -0.3193 -1.3107  0.3370
 1136Sol     HW 7531   0.409   0.788   3.492  1.2963  0.0393  0.8354
 1136Sol     MW 7532   0.393   0.722   3.551 -0.3468  0.8581 -0.1436
 1137Sol     OW 7533   2.441   1.623   8.248 -0.0970 -0.3260  0.3761
 1137Sol     HW 7534   2.365   1.640   8.193 -0.1425 -1.1021  0.1978
 1137Sol     HW 7535   2.466   1.533   8.227 -0.9975 -1.1397  2.6967
 1137Sol     MW 7536   2.437   1.617   8.241  0.0705 -0.1949  0.1423
 1138Sol     OW 7537   0.414   0.765   4.965 -0.7177 -0.0624  0.0380
 1138Sol     HW 7538   0.443   0.834   4.905  0.1439  0.1073  0.6341
 1138Sol     HW 7539   0.406   0.687   4.911 -2.9462  0.7824 -0.9028
 1138Sol     MW 7540   0.416   0.764   4.955  0.9060  0.1152  0.5788
 1139Sol     OW 7541   0.573   1.859   2.116 -0.4473 -0.3551 -0.1267
 1139Sol     HW 7542   0.648   1.900   2.072 -0.9007  1.0706  0.4107
 1139Sol     HW 7543   0.605   1.842   2.205 -0.9458  0.7726  0.2673
 1139Sol     MW 7544   0.583   1.861   2.121 -0.1063  1.2101  0.2630
 1140Sol     OW 7545   2.999   1.566   3.205 -0.1953  0.0230  0.4574
 1140Sol     HW 7546   3.001   1.532   3.115 -0.6167  2.2366 -0.4395
 1140Sol     HW 7547   2.948   1.502   3.254  0.0940 -1.2509 -0.8804
 1140Sol     MW 7548   2.994   1.557   3.201  0.2402  0.2298  0.0290
 1141Sol     OW 7549   3.205   0.574   1.987  0.4166  0.0136 -0.0685
 1141Sol     HW 7550   3.189   0.480   1.995  0.5482  0.0662  0.8843
 1141Sol     HW 7551   3.262   0.595   2.062 -0.2359  0.9846  0.1608
 1141Sol     MW 7552   3.209   0.568   1.995 -0.4599  0.9109  0.2720
 1142Sol     OW 7553   1.897   1.920   8.898  0.2875  0.1669 -0.4314
 1142Sol     HW 7554   1.859   1.886   8.817  2.0517  2.8396 -2.4685
 1142Sol     HW 7555   1.945   1.846   8.935 -0.9952 -1.2354 -1.5356
 1142Sol     MW 7556   1.898   1.910   8.895  0.4344  1.0288  0.3185
 1143Sol     OW 7557   2.177   1.283   5.215  0.3960 -0.0742  0.1291
 1143Sol     HW 7558   2.103   1.343   5.218 -0.2350 -0.7962 -0.8299
 1143Sol     HW 7559   2.197   1.265   5.307 -1.3834 -0.8081  0.3866
 1143Sol     MW 7560   2.172   1.286   5.224  0.3815 -0.1941 -0.9631
 1144Sol     OW 7561   0.047   3.181   6.824  0.2648  0.2210 -0.3584
 1144Sol     HW 7562   0.088   3.178   6.737  0.4728  0.6592 -0.2737
 1144Sol     HW 7563   0.053   3.091   6.856  0.8373  0.2051 -0.4997
 1144Sol     MW 7564   0.051   3.172   6.819  0.3379  0.2826  0.5672
 1145Sol     OW 7565   1.162   0.093   5.543 -0.6843  0.7721  0.2487
 1145Sol     HW 7566   1.220   0.164   5.516  0.6582  0.1766  1.5163
 1145Sol     HW 7567   1.106   0.077   5.467  0.7830  1.3946 -0.9698
 1145Sol     MW 7568   1.162   0.098   5.534 -0.1185 -0.3382 -0.7625
 1146Sol     OW 7569   2.656   0.901   3.793 -0.1070 -0.0357 -0.4352
 1146Sol     HW 7570   2.643   0.824   3.738  2.9836 -1.2337  0.4048
 1146Sol     HW 7571   2.598   0.887   3.868 -1.0822 -0.5189 -1.2678
 1146Sol     MW 7572   2.650   0.893   3.795 -0.7268 -0.7347  0.3586
 1147Sol     OW 7573   2.600   1.346   3.280 -0.4818 -0.4310  0.4196
 1147Sol     HW 7574   2.585   1.270   3.224 -0.7197  0.5333 -0.8228
 1147Sol     HW 7575   2.584   1.422   3.224  1.7280  0.5703  1.0723
 1147Sol     MW 7576   2.597   1.346   3.270 -0.0026 -0.3187  0.2570
 1148Sol     OW 7577   1.120   1.134   4.004 -0.0952  0.0431 -0.7526
 1148Sol     HW 7578   1.199   1.085   4.024 -0.0361  0.1125 -0.8185
 1148Sol     HW 7579   1.081   1.152   4.090  0.6165  1.0962 -0.6509
 1148Sol     MW 7580   1.123   1.131   4.014 -0.2119  0.4923  0.3103
 1149Sol     OW 7581   2.143   2.071   5.690 -0.5047 -0.8035 -0.2876
 1149Sol     HW 7582   2.136   2.140   5.756 -0.0190 -0.3205 -0.7366
 1149Sol     HW 7583   2.117   1.991   5.736  2.2075 -0.9119  1.2159
 1149Sol     MW 7584   2.140   2.070   5.700 -0.0444  0.7021 -0.5856
 1150Sol     OW 7585   1.155   0.464   8.561  0.4145 -0.3182 -0.1829
 1150Sol     HW 7586   1.148   0.502   8.473  0.8019 -1.9680 -0.9448
 1150Sol     HW 7587   1.081   0.404   8.567  0.1042  0.1613  0.8170
 1150Sol     MW 7588   1.148   0.462   8.554 -0.1345  0.5735 -0.0810
 1151Sol     OW 7589   2.848   3.375   9.150 -0.6738  0.0012 -0.3865
 1151Sol     HW 7590   2.919   3.311   9.146  0.7633  1.4112  1.5132
 1151Sol     HW 7591   2.771   3.325   9.178 -0.1547 -1.3077 -1.2594
 1151Sol     MW 7592   2.847   3.365   9.152 -0.4381 -0.1942  0.0328
 1152Sol     OW 7593   1.354   3.313   6.414  0.0030  0.0294  0.1588
 1152Sol     HW 7594   1.344   3.221   6.438  0.5787 -0.1752 -0.3983
 1152Sol     HW 7595   1.348   3.314   6.319  0.0483  0.5655  0.1614
 1152Sol     MW 7596   1.352   3.305   6.408 -0.0440  0.3363 -0.3854
 1153Sol     OW 7597   1.459   1.407   5.736 -0.0502  0.2128  0.2784
 1153Sol     HW 7598   1.507   1.326   5.753  0.6728  0.8490  1.3999
 1153Sol     HW 7599   1.418   1.429   5.820 -0.8971  0.5842 -0.2236
 1153Sol     MW 7600   1.460   1.402   5.745  0.3110 -0.5736 -0.5366
 1154Sol     OW 7601   3.184   2.663   2.469 -0.8527 -0.5135 -0.2766
 1154Sol     HW 7602   3.188   2.707   2.383 -0.3938 -0.7424 -0.3732
 1154Sol     HW 7603   3.091   2.654   2.487 -0.9587 -1.3282 -1.1928
 1154Sol     MW 7604   3.176   2.667   2.463 -0.4180  0.1703  0.3526
 1155Sol     OW 7605   3.081   0.037   3.102  0.2867  0.3993 -0.1486
 1155Sol     HW 7606   3.096   0.109   3.164 -2.4036 -0.0859  1.1558
 1155Sol     HW 7607   3.024   0.075   3.035 -2.0049 -0.7397  1.1035
 1155Sol     MW 7608   3.077   0.047   3.102  0.3405 -0.2804  1.0327
 1156Sol     OW 7609   0.361   0.683   4.034  0.5984 -0.1054  0.4856
 1156Sol     HW 7610   0.423   0.710   4.101 -2.6295  2.6936  2.5180
 1156Sol     HW 7611   0.379   0.740   3.959  1.8895 -0.8357  0.2255
 1156Sol     MW 7612   0.368   0.690   4.033  0.2583  0.0603 -0.0440
 1157Sol     OW 7613   2.814   3.159   2.566  0.7268 -0.3227 -0.5377
 1157Sol     HW 7614   2.798   3.230   2.504 -0.6168  0.4749  0.6802
 1157Sol     HW 7615   2.899   3.179   2.605  0.3438  0.6138 -0.1947
 1157Sol     MW 7616   2.820   3.167   2.564  0.0170 -0.2326  0.6086
 1158Sol     OW 7617   3.263   1.353   3.032 -0.1144 -0.0054 -0.0656
 1158Sol     HW 7618   3.206   1.401   2.971 -1.2155 -0.0155  0.9376
 1158Sol     HW 7619   3.209   1.341   3.110  1.1044 -0.4768  0.7071
 1158Sol     MW 7620   3.253   1.356   3.033 -0.0038  0.0321 -0.3616
 1159Sol     OW 7621   2.406   3.342   9.377  0.7861 -0.3018 -0.5656
 1159Sol     HW 7622   2.339   3.402   9.342  0.9863  0.7378  0.8102
 1159Sol     HW 7623   2.357   3.283   9.434  0.8431 -0.4347 -0.6524
 1159Sol     MW 7624   2.395   3.342   9.379 -0.7600 -0.7567 -0.2263
 1160Sol     OW 7625   0.568   3.186   8.056  0.0348 -0.9771  0.1731
 1160Sol     HW 7626   0.510   3.260   8.039 -0.5188 -1.1493  1.3066
 1160Sol     HW 7627   0.640   3.198   7.994 -1.3552 -0.9424 -1.4812
 1160Sol     MW 7628   0.569   3.194   8.049 -0.2100  0.0607 -0.2071
 1161Sol     OW 7629   1.496   3.274   3.505  0.3045 -1.0453 -0.7072
 1161Sol     HW 7630   1.525   3.213   3.437 -0.4648 -0.3178 -1.6957
 1161Sol     HW 7631   1.459   3.348   3.457 -1.1431 -0.9496  0.5154
 1161Sol     MW 7632   1.496   3.275   3.495  0.0301 -0.2519 -0.1311
 1162Sol     OW 7633   0.277   1.904   6.683  0.2500 -0.1332 -0.0404
 1162Sol     HW 7634   0.326   1.986   6.683 -1.1932  0.7502  0.7185
 1162Sol     HW 7635   0.238   1.899   6.596 -0.0859  0.2546  0.0858
 1162Sol     MW 7636   0.278   1.911   6.676  0.2194 -0.5059  0.3329
 1163Sol     OW 7637   1.923   0.924   5.818 -0.1987  0.3697 -0.1512
 1163Sol     HW 7638   1.903   0.899   5.728 -0.3324 -0.3749  0.0747
 1163Sol     HW 7639   2.006   0.971   5.813  0.2475 -0.4522 -0.5542
 1163Sol     MW 7640   1.928   0.926   5.809 -0.5469 -0.7832 -0.1518
 1164Sol     OW 7641   3.012   2.837   8.666  0.4772 -0.4253 -0.0333
 1164Sol     HW 7642   2.944   2.882   8.616  1.1698  0.6901  0.0031
 1164Sol     HW 7643   2.985   2.745   8.666 -1.6377  0.1604  0.9561
 1164Sol     MW 7644   3.003   2.833   8.661  0.4532 -0.1856 -0.4510
 1165Sol     OW 7645   1.811   3.349   2.174  0.3676 -0.2810  0.4340
 1165Sol     HW 7646   1.896   3.392   2.184 -0.0281  0.9244 -1.2252
 1165Sol     HW 7647   1.755   3.392   2.239  0.8556 -0.6738  1.1269
 1165Sol     MW 7648   1.814   3.357   2.181  0.4812 -0.5524 -0.5603
 1166Sol     OW 7649   2.488   2.523   1.835 -0.0454  0.3421  0.6506
 1166Sol     HW 7650   2.516   2.583   1.904  0.1844  1.5177 -0.4465
 1166Sol     HW 7651   2.559   2.525   1.770 -0.5063 -0.3044  0.1166
 1166Sol     MW 7652   2.497   2.529   1.835  0.1532 -0.3894 -0.1784
 1167Sol     OW 7653   2.243   2.031   6.993 -0.2532  0.2581 -0.4306
 1167Sol     HW 7654   2.337   2.037   7.007 -0.4648 -1.7152  2.2966
 1167Sol     HW 7655   2.224   1.937   6.996 -2.1616  0.5527 -2.0701
 1167Sol     MW 7656   2.249   2.023   6.994 -0.2088  0.1318 -0.5539
 1168Sol     OW 7657   1.209   3.021   2.172  0.0417 -0.0727 -0.0465
 1168Sol     HW 7658   1.254   3.055   2.249  0.8557 -1.5466  0.1414
 1168Sol     HW 7659   1.117   3.040   2.188  0.3035  0.5133  0.8255
 1168Sol     MW 7660   1.205   3.026   2.180  0.0630 -0.0670 -0.8250
 1169Sol     OW 7661   0.020   3.059   4.500 -0.8746 -0.9049 -0.3052
 1169Sol     HW 7662  -0.029   3.067   4.418 -1.8038  1.1242  0.4003
 1169Sol     HW 7663  -0.035   3.005   4.557 -0.8102 -1.2859 -0.6081
 1169Sol     MW 7664   0.011   3.055   4.498 -0.4482  0.3204  0.2272
 1170Sol     OW 7665   2.447   0.338   2.305  0.1546  0.0279 -0.6778
 1170Sol     HW 7666   2.359   0.311   2.330  0.1747 -1.5215 -2.1592
 1170Sol     HW 7667   2.434   0.410   2.243 -0.0406  0.1950 -0.4440
 1170Sol     MW 7668   2.438   0.342   2.301  0.5031 -0.6235  0.3322
 1171Sol     OW 7669   1.116   3.236   8.769  0.8341 -0.1297  0.2760
 1171Sol     HW 7670   1.198   3.214   8.813  0.4392 -1.0584  0.5500
 1171Sol     HW 7671   1.120   3.331   8.759  0.8170  0.1369  2.5507
 1171Sol     MW 7672   1.124   3.243   8.772  0.0890  0.0692 -0.1576
 1172Sol     OW 7673   0.269   1.002   2.964 -0.0111  0.1898  0.4034
 1172Sol     HW 7674   0.222   0.920   2.978 -1.1590  0.6601 -0.6968
 1172Sol     HW 7675   0.205   1.061   2.924  0.9984  1.4095  0.5420
 1172Sol     MW 7676   0.259   1.000   2.962 -0.1021 -0.2274 -0.0133
 1173Sol     OW 7677   0.735   0.249   4.351  0.6275  0.1230  0.3232
 1173Sol     HW 7678   0.783   0.167   4.343  1.4850  0.6228  0.3390
 1173Sol     HW 7679   0.676   0.250   4.275  0.1145 -0.8305  0.7078
 1173Sol     MW 7680   0.734   0.242   4.343  0.0046 -0.7275 -0.1573
 1174Sol     OW 7681   2.089   1.879   2.403 -0.4261 -0.3440  0.0380
 1174Sol     HW 7682   2.180   1.878   2.373 -0.4229 -1.3693  0.0771
 1174Sol     HW 7683   2.039   1.844   2.330 -1.0273  1.9750 -0.7081
 1174Sol     MW 7684   2.093   1.876   2.394 -0.4782  0.7221  0.5329
 1175Sol     OW 7685   2.075   0.979   7.121 -0.3289  0.1745 -0.5276
 1175Sol     HW 7686   2.042   0.956   7.208 -0.8681 -0.3897 -0.8766
 1175Sol     HW 7687   2.011   0.942   7.061  0.1965  0.3173 -1.1765
 1175Sol     MW 7688   2.066   0.974   7.124  0.0487  0.4414  0.0270
 1176Sol     OW 7689   0.671   0.396   9.864  0.7018  0.0750  0.3454
 1176Sol     HW 7690   0.692   0.305   9.884  0.6651 -0.0159 -0.0205
 1176Sol     HW 7691   0.734   0.447   9.914  1.0648 -0.1670  0.1362
 1176Sol     MW 7692   0.678   0.392   9.870 -0.1360  0.0668 -0.3576
 1177Sol     OW 7693   0.834   3.044   4.914  0.3364  0.3496 -0.5979
 1177Sol     HW 7694   0.870   3.128   4.941  2.0554 -0.2827 -0.8169
 1177Sol     HW 7695   0.905   3.002   4.865 -0.2429 -1.4992  0.0835
 1177Sol     MW 7696   0.844   3.048   4.912  0.8737  0.5057 -0.1274
 1178Sol     OW 7697   3.179   1.798   8.504 -0.5825 -0.4522 -0.4685
 1178Sol     HW 7698   3.243   1.814   8.434 -0.7147  1.6974 -0.1517
 1178Sol     HW 7699   3.176   1.703   8.513  1.7351 -0.6347 -1.2594
 1178Sol     MW 7700   3.184   1.791   8.498 -0.1098  0.0202 -0.4747
 1179Sol     OW 7701   2.469   2.178   1.383  0.4201 -0.4153  0.4374
 1179Sol     HW 7702   2.434   2.251   1.332  0.5615  0.1179  1.1009
 1179Sol     HW 7703   2.400   2.157   1.445  0.9155  0.0382  1.1416
 1179Sol     MW 7704   2.460   2.182   1.384  0.1724 -0.3024  0.4009
 1180Sol     OW 7705   2.008   1.095   3.258 -0.2871  0.1038  0.5099
 1180Sol     HW 7706   1.995   1.078   3.165  0.3852  0.6290  0.3102
 1180Sol     HW 7707   1.936   1.050   3.302  0.6764 -2.1377 -0.0910
 1180Sol     MW 7708   2.001   1.089   3.254 -0.2942  0.3380  0.7365
 1181Sol     OW 7709   0.778   1.788   9.139 -0.5719 -0.1372  0.9395
 1181Sol     HW 7710   0.846   1.727   9.167  0.8176  1.2758  0.6731
 1181Sol     HW 7711   0.745   1.827   9.220  0.9767  1.3198  0.8965
 1181Sol     MW 7712   0.781   1.786   9.149  0.4128  0.5345  0.2718
 1182Sol     OW 7713   1.753   1.267   2.265  0.1606  0.3568 -0.0291
 1182Sol     HW 7714   1.702   1.263   2.346 -1.1335  2.2029 -0.7264
 1182Sol     HW 7715   1.688   1.262   2.195  1.1524  0.1858 -0.9508
 1182Sol     MW 7716   1.743   1.266   2.266  0.2279  0.3826  0.1268
 1183Sol     OW 7717   0.554   0.599   7.618 -0.1923 -0.1024  0.4628
 1183Sol     HW 7718   0.523   0.529   7.561 -1.6202 -0.2258  1.3662
 1183Sol     HW 7719   0.648   0.603   7.602 -0.4911 -0.4434 -1.5445
 1183Sol     MW 7720   0.559   0.593   7.612 -0.5924  0.0048  0.1863
 1184Sol     OW 7721   0.764   0.435   5.947  0.9317 -0.4101 -0.6189
 1184Sol     HW 7722   0.701   0.490   5.992  0.4416 -0.4093 -1.2861
 1184Sol     HW 7723   0.758   0.350   5.991  1.6228  0.0416  0.3493
 1184Sol     MW 7724   0.757   0.432   5.955 -0.7320  0.1128  0.1221
 1185Sol     OW 7725   2.522   3.184   7.686 -0.7437 -0.5515  0.1209
 1185Sol     HW 7726   2.534   3.252   7.752 -0.7598  0.1227 -0.5577
 1185Sol     HW 7727   2.457   3.125   7.723 -1.4981  0.3746  0.2823
 1185Sol     MW 7728   2.517   3.185   7.695 -0.0919 -0.7890  0.1134
 1186Sol     OW 7729   2.297   2.512   1.650 -0.2772 -0.3139 -0.2065
 1186Sol     HW 7730   2.365   2.522   1.716 -0.2220 -0.6229 -0.2135
 1186Sol     HW 7731   2.243   2.439   1.682 -0.4695 -0.2206 -0.3150
 1186Sol     MW 7732   2.298   2.506   1.659 -0.2444  0.1990 -0.6311
 1187Sol     OW 7733   2.670   2.938   2.024  0.1463  0.6093 -0.2789
 1187Sol     HW 7734   2.650   3.031   2.008  1.0432  0.7013 -0.8726
 1187Sol     HW 7735   2.753   2.939   2.071  1.2235  0.0388 -2.1106
 1187Sol     MW 7736   2.675   2.947   2.027  0.5861 -0.0306  0.2354
 1188Sol     OW 7737   1.964   3.276   9.613  0.1888  0.0023  0.4388
 1188Sol     HW 7738   1.951   3.318   9.698  0.8142 -1.5870  1.3456
 1188Sol     HW 7739   1.876   3.262   9.579 -0.0949 -0.1231  1.2120
 1188Sol     MW 7740   1.955   3.279   9.617  0.0426 -0.2158  0.2047
 1189Sol     OW 7741   2.943   3.012   7.421  0.5063 -0.8808  0.3440
 1189Sol     HW 7742   2.859   2.985   7.385  0.3102 -0.6223  0.6061
 1189Sol     HW 7743   2.931   3.103   7.446  0.7644 -0.9342  0.6799
 1189Sol     MW 7744   2.935   3.018   7.420 -0.1990  0.0731  0.9907
 1190Sol     OW 7745   1.623   0.506   9.701 -0.3767 -0.2947  0.0297
 1190Sol     HW 7746   1.606   0.484   9.609  1.5899  0.4656 -0.5259
 1190Sol     HW 7747   1.638   0.600   9.701 -0.4441 -0.2793  1.1622
 1190Sol     MW 7748   1.623   0.512   9.692  0.5018 -0.5142  0.5399
 1191Sol     OW 7749   0.041   1.306   8.759 -0.0534  0.1819 -0.0204
 1191Sol     HW 7750   0.049   1.307   8.664 -0.2164  1.0432 -0.0275
 1191Sol     HW 7751   0.106   1.243   8.788 -2.4593 -2.8331 -0.9343
 1191Sol     MW 7752   0.047   1.301   8.753 -0.2331 -0.6213 -0.6091
 1192Sol     OW 7753   3.221   0.130   8.561  0.1767  0.4219  0.2235
 1192Sol     HW 7754   3.253   0.061   8.619  0.7662  1.6470  1.3798
 1192Sol     HW 7755   3.264   0.113   8.477  0.5641 -0.4262  0.5913
 1192Sol     MW 7756   3.228   0.123   8.558 -0.7668 -0.4927  0.2386
 1193Sol     OW 7757   0.797   0.731   5.101 -0.3303  0.6898  0.3157
 1193Sol     HW 7758   0.752   0.685   5.031  0.7581  2.3036 -1.4669
 1193Sol     HW 7759   0.729   0.786   5.141 -0.7740  0.3578  0.0210
 1193Sol     MW 7760   0.787   0.732   5.099 -0.6217  0.0720 -0.3976
 1194Sol     OW 7761   2.582   2.154   5.847  0.1098 -0.2838  0.4614
 1194Sol     HW 7762   2.503   2.143   5.899 -0.1865  1.9442  0.5066
 1194Sol     HW 7763   2.649   2.104   5.894 -0.7462 -0.3630  1.5983
 1194Sol     MW 7764   2.581   2.148   5.856  0.0151  0.0849 -0.0455
 1195Sol     OW 7765   0.117   2.481   3.141  0.1430  0.7562  0.0307
 1195Sol     HW 7766   0.125   2.499   3.047 -1.4526 -1.7303 -0.6191
 1195Sol     HW 7767   0.029   2.443   3.151  1.1963 -1.2129  2.1572
 1195Sol     MW 7768   0.110   2.480   3.134 -0.5162  0.7140  0.7985
 1196Sol     OW 7769   1.198   2.750   5.993  0.0280  0.0542  0.2954
 1196Sol     HW 7770   1.188   2.845   5.988  0.6430  0.3796  4.3226
 1196Sol     HW 7771   1.113   2.716   5.966 -0.6741  1.7761  0.2625
 1196Sol     MW 7772   1.190   2.756   5.990 -0.2987  0.5496 -0.1709
 1197Sol     OW 7773   2.583   2.341   7.486  0.0636  0.0196  0.3420
 1197Sol     HW 7774   2.520   2.405   7.520 -0.4965  0.6319 -1.7588
 1197Sol     HW 7775   2.644   2.393   7.434 -0.0883 -1.0648 -0.9515
 1197Sol     MW 7776   2.583   2.352   7.484  0.3734 -0.1111  0.7395
 1198Sol     OW 7777   0.069   2.539   5.337 -0.2701  0.0727 -0.1632
 1198Sol     HW 7778   0.061   2.633   5.321 -2.5035 -0.0022  0.4120
 1198Sol     HW 7779  -0.010   2.501   5.299  0.5504 -1.5789 -0.2749
 1198Sol     MW 7780   0.061   2.544   5.332 -0.2452  0.0349  0.2249
 1199Sol     OW 7781   3.185   3.100   4.275  0.4879 -0.0075 -0.1768
 1199Sol     HW 7782   3.091   3.111   4.268  0.5332  0.9893  0.6260
 1199Sol     HW 7783   3.203   3.015   4.233 -0.6945  0.0022 -0.7211
 1199Sol     MW 7784   3.179   3.093   4.270  0.7887 -0.0660 -1.2550
 1200Sol     OW 7785   1.360   2.171   8.596  0.1224 -1.0040  0.3159
 1200Sol     HW 7786   1.343   2.265   8.592 -0.8811 -1.0803  2.2612
 1200Sol     HW 7787   1.359   2.143   8.505  0.8518  0.9381 -0.3172
 1200Sol     MW 7788   1.359   2.177   8.588  1.1070 -0.2486 -0.0450
 1201Sol     OW 7789   2.232   3.185   5.501 -0.2646  0.5467  0.6889
 1201Sol     HW 7790   2.287   3.124   5.549 -0.4850 -0.6843 -0.6086
 1201Sol     HW 7791   2.251   3.270   5.541  0.3072 -0.3013  2.2592
 1201Sol     MW 7792   2.239   3.187   5.509 -0.4718 -0.0427  0.5662
 1202Sol     OW 7793   2.461   0.281   8.627  0.5239  1.0373 -0.5362
 1202Sol     HW 7794   2.414   0.266   8.709  1.5142 -2.4599 -0.5435
 1202Sol     HW 7795   2.393   0.287   8.561 -0.0958 -2.5816 -0.3379
 1202Sol     MW 7796   2.451   0.280   8.629  0.5695 -0.2563 -0.0219
 1203Sol     OW 7797   1.760   0.852   4.381 -0.3648  0.2322 -0.4024
 1203Sol     HW 7798   1.698   0.921   4.404 -0.5389 -0.2285  0.5431
 1203Sol     HW 7799   1.810   0.888   4.308 -0.6710  1.2306 -0.1314
 1203Sol     MW 7800   1.759   0.861   4.376 -0.5682  0.1969 -0.4611
 1204Sol     OW 7801   0.234   0.636   4.703  0.0160 -0.1290 -0.4068
 1204Sol     HW 7802   0.185   0.711   4.736  1.8926  0.5542  0.8907
 1204Sol     HW 7803   0.168   0.567   4.694 -1.5708  1.3995 -0.8171
 1204Sol     MW 7804   0.224   0.636   4.705 -0.9996 -0.0443 -0.2362
 1205Sol     OW 7805   2.095   0.753   6.824 -0.0387 -0.0780 -0.5351
 1205Sol     HW 7806   2.075   0.720   6.736 -0.0335 -0.4804 -0.3856
 1205Sol     HW 7807   2.014   0.796   6.852  0.1724  0.6247 -0.9993
 1205Sol     MW 7808   2.086   0.753   6.819 -0.2468 -1.1462  0.1743
 1206Sol     OW 7809   0.215   1.790   1.357  0.1160  0.2846 -0.3465
 1206Sol     HW 7810   0.157   1.822   1.288 -0.6967 -0.3528  0.0340
 1206Sol     HW 7811   0.157   1.753   1.422  1.0128 -1.9284 -0.7471
 1206Sol     MW 7812   0.205   1.790   1.356 -0.1366  0.0466  0.1099
 1207Sol     OW 7813   0.327   2.134   4.376  0.0479  0.1322 -0.1250
 1207Sol     HW 7814   0.312   2.144   4.470  0.7711  0.2168 -0.0165
 1207Sol     HW 7815   0.420   2.152   4.364  0.0449 -0.2716 -0.8037
 1207Sol     MW 7816   0.334   2.136   4.383 -0.2092 -0.4270 -0.2054
 1208Sol     OW 7817   2.734   0.458   5.847 -0.3273 -0.2561 -0.0897
 1208Sol     HW 7818   2.733   0.374   5.801 -0.7539  0.0108 -0.5719
 1208Sol     HW 7819   2.711   0.436   5.937  0.1519 -0.7338 -0.0798
 1208Sol     MW 7820   2.732   0.448   5.851  0.0421 -0.4440  0.2191
 1209Sol     OW 7821   1.568   2.769   8.888  0.2172  0.2986 -0.1524
 1209Sol     HW 7822   1.483   2.814   8.883  0.5650  0.9538 -0.2085
 1209Sol     HW 7823   1.604   2.794   8.973  0.6133  0.4892 -0.3730
 1209Sol     MW 7824   1.563   2.776   8.895  0.0814  0.4064 -0.2404
 1210Sol     OW 7825   0.691   1.552   2.166 -0.0398  0.7463 -0.0215
 1210Sol     HW 7826   0.641   1.631   2.191  0.1012  1.2362 -1.2476
 1210Sol     HW 7827   0.778   1.585   2.145 -0.0431  0.2895 -0.7547
 1210Sol     MW 7828   0.694   1.562   2.166  0.0253  0.0802  0.3859
 1211Sol     OW 7829   0.157   1.216   2.431  0.9365  0.0370 -0.0918
 1211Sol     HW 7830   0.190   1.228   2.342 -1.3618  1.0669 -0.8501
 1211Sol     HW 7831   0.219   1.266   2.485  0.8091  1.7222 -1.4284
 1211Sol     MW 7832   0.166   1.222   2.428  0.5507  0.4686 -0.7009
 1212Sol     OW 7833   0.112   1.367   9.778 -0.2430  0.0687  0.6146
 1212Sol     HW 7834   0.164   1.358   9.858 -0.7339 -0.4761  0.8783
 1212Sol     HW 7835   0.091   1.461   9.774  0.7350  0.2902  0.5163
 1212Sol     MW 7836   0.115   1.375   9.785 -0.3025  0.3761  0.8037
 1213Sol     OW 7837   2.048   3.397   3.946 -0.2514  0.2758 -0.0474
 1213Sol     HW 7838   1.976   3.420   3.887  0.9654  0.1691 -1.6137
 1213Sol     HW 7839   2.095   3.327   3.900  2.0769  1.7858 -0.0535
 1213Sol     MW 7840   2.046   3.393   3.936 -0.0157 -0.7111 -0.6272
 1214Sol     OW 7841   2.232   2.886   2.793 -0.0538 -0.3131 -0.0786
 1214Sol     HW 7842   2.281   2.966   2.770 -0.2584  0.1685  1.1478
 1214Sol     HW 7843   2.293   2.836   2.847 -0.2377 -0.6002 -0.1405
 1214Sol     MW 7844   2.242   2.889   2.796  0.5040 -0.1268  0.0508
 1215Sol     OW 7845   1.773   2.552   1.871  0.1254 -0.3357 -0.0680
 1215Sol     HW 7846   1.713   2.488   1.910 -1.7975 -0.6125 -3.2792
 1215Sol     HW 7847   1.731   2.637   1.886 -1.2595 -0.5421 -2.4502
 1215Sol     MW 7848   1.764   2.554   1.876  0.3989  0.0026  0.2175
 1216Sol     OW 7849   2.704   2.773   1.381 -0.2718 -0.3499  0.5095
 1216Sol     HW 7850   2.626   2.718   1.367 -2.6988  2.4875  2.3132
 1216Sol     HW 7851   2.709   2.783   1.476  1.6554  0.4048  0.3336
 1216Sol     MW 7852   2.697   2.769   1.388 -0.4015  0.1450 -0.2757
 1217Sol     OW 7853   1.331   1.997   8.807  0.0122  0.0725 -0.1705
 1217Sol     HW 7854   1.363   2.061   8.744 -0.2290 -1.0629 -1.4488
 1217Sol     HW 7855   1.409   1.966   8.852  0.3918 -0.5761 -1.2819
 1217Sol     MW 7856   1.341   2.000   8.806 -0.0229  0.4971 -0.3450
 1218Sol     OW 7857   1.494   0.854   1.756 -0.2874 -0.4044 -0.2984
 1218Sol     HW 7858   1.544   0.774   1.771 -1.3603 -0.8568  0.9749
 1218Sol     HW 7859   1.413   0.841   1.806 -1.0712  0.8864 -1.2155
 1218Sol     MW 7860   1.491   0.845   1.762 -0.2587  0.6420 -0.2574
 1219Sol     OW 7861   2.970   1.833   6.760  0.7280 -0.0100 -0.1202
 1219Sol     HW 7862   3.047   1.889   6.744  0.1108  1.0431  0.5243
 1219Sol     HW 7863   2.956   1.787   6.677  1.4957  0.4876 -0.5346
 1219Sol     MW 7864   2.976   1.834   6.751  0.5743 -0.6893  0.3493
 1220Sol     OW 7865   1.202   2.219   8.139  0.4628 -0.1834 -0.0192
 1220Sol     HW 7866   1.166   2.224   8.051  0.6651  0.3273 -0.0767
 1220Sol     HW 7867   1.170   2.298   8.183 -0.0420 -0.6815  0.5200
 1220Sol     MW 7868   1.196   2.227   8.135  0.2495  0.1158 -0.6696
 1221Sol     OW 7869   2.541   0.440   4.310  0.2579 -0.2770 -0.0366
 1221Sol     HW 7870   2.519   0.430   4.217 -0.1042  0.3870 -0.0237
 1221Sol     HW 7871   2.504   0.525   4.334 -1.3389 -1.2862  1.1914
 1221Sol     MW 7872   2.535   0.446   4.303  0.7308  0.5133 -0.5546
 1222Sol     OW 7873   1.363   0.649   6.827 -0.6967 -0.2611  0.5005
 1222Sol     HW 7874   1.338   0.740   6.842 -0.9786 -0.3138  0.3513
 1222Sol     HW 7875   1.280   0.602   6.818 -0.6236 -0.9816  3.1453
 1222Sol     MW 7876   1.353   0.653   6.828  0.3185  1.2725  0.4989
 1223Sol     OW 7877   2.265   1.441   3.178  0.0038 -0.6813 -0.1740
 1223Sol     HW 7878   2.204   1.472   3.111  0.7713  0.6430 -0.2884
 1223Sol     HW 7879   2.213   1.384   3.234 -1.3919  0.6232 -0.1274
 1223Sol     MW 7880   2.255   1.439   3.177  0.6712  0.2578 -0.0095
 1224Sol     OW 7881   1.848   3.036   3.130 -0.0196 -0.3759  0.5787
 1224Sol     HW 7882   1.930   3.082   3.111  0.4283 -1.4306 -0.0680
 1224Sol     HW 7883   1.828   2.987   3.050 -2.1507  1.1414  0.1512
 1224Sol     MW 7884   1.854   3.036   3.122  0.1602 -0.1325 -0.5087
 1225Sol     OW 7885   3.284   2.841   6.638 -0.1436 -0.3039  0.1191
 1225Sol     HW 7886   3.316   2.855   6.727 -2.0701  0.4606  0.7252
 1225Sol     HW 7887   3.209   2.782   6.649 -0.1162 -0.5633 -1.0537
 1225Sol     MW 7888   3.280   2.837   6.647  0.0553 -0.5880  0.8331
 1226Sol     OW 7889   0.974   2.204   5.024  0.9166 -0.0897 -0.0286
 1226Sol     HW 7890   0.918   2.247   5.088  1.5155 -1.0405  1.1411
 1226Sol     HW 7891   0.955   2.111   5.032  0.4880 -0.1725 -1.7337
 1226Sol     MW 7892   0.968   2.200   5.030 -0.2446  0.7429 -0.5115
 1227Sol     OW 7893   1.038   0.026   6.207  0.3539 -0.2804  0.0706
 1227Sol     HW 7894   1.111   0.081   6.180 -0.3509 -0.0966 -1.4709
 1227Sol     HW 7895   0.963   0.058   6.157 -1.0086  0.1203  2.2827
 1227Sol     MW 7896   1.038   0.034   6.200  0.1349 -0.5125 -0.6044
 1228Sol     OW 7897   3.083   2.291   5.861  0.7011 -0.4732  0.6143
 1228Sol     HW 7898   3.055   2.310   5.772  2.2169  1.6766  0.5359
 1228Sol     HW 7899   3.012   2.323   5.916  1.6684  2.3251  0.3159
 1228Sol     MW 7900   3.074   2.296   5.858 -0.1272  0.3362  0.2213
 1229Sol     OW 7901   2.218   3.137   3.555  0.0215  0.5806  0.2160
 1229Sol     HW 7902   2.276   3.173   3.488  0.6585  0.0071  0.4621
 1229Sol     HW 7903   2.206   3.045   3.531 -0.7997  0.6958  0.1569
 1229Sol     MW 7904   2.222   3.132   3.547 -0.4009  0.4895  0.6030
 1230Sol     OW 7905   1.485   1.060   9.376 -0.1167 -0.9805  0.0815
 1230Sol     HW 7906   1.517   1.112   9.450 -1.4127  0.6794 -0.5075
 1230Sol     HW 7907   1.510   1.111   9.299 -2.2356 -0.7625 -0.4711
 1230Sol     MW 7908   1.490   1.069   9.376 -0.6527  0.1228  0.3983
 1231Sol     OW 7909   3.171   0.519   8.988 -0.7303 -0.2190  0.3839
 1231Sol     HW 7910   3.164   0.424   8.977 -1.3359 -0.3791  1.9942
 1231Sol     HW 7911   3.138   0.556   8.906  0.5430 -1.4100 -0.6941
 1231Sol     MW 7912   3.168   0.514   8.980  0.2897 -0.3162  0.5974
 1232Sol     OW 7913   2.884   0.540   5.226 -0.6109  0.0379  0.4889
 1232Sol     HW 7914   2.810   0.599   5.242 -1.4634 -1.1292  1.0064
 1232Sol     HW 7915   2.936   0.545   5.305 -0.6736  0.1106  0.5264
 1232Sol     MW 7916   2.882   0.545   5.234  0.3820  0.6262 -1.1619
 1233Sol     OW 7917   2.472   1.319   5.590  0.0355 -0.1733  0.1049
 1233Sol     HW 7918   2.512   1.361   5.666  0.1718 -0.7259  0.3376
 1233Sol     HW 7919   2.507   1.367   5.515 -1.4705  1.5376  0.4650
 1233Sol     MW 7920   2.479   1.327   5.590  0.1730  0.0151 -0.6531
 1234Sol     OW 7921   0.546   2.151   8.961  0.2116 -0.5999  0.1325
 1234Sol     HW 7922   0.548   2.149   8.865  1.7752  0.1758  0.1314
 1234Sol     HW 7923   0.470   2.205   8.983  0.0417 -0.5106 -0.6719
 1234Sol     MW 7924   0.539   2.156   8.954 -0.0183  0.3607  0.1374
 1235Sol     OW 7925   0.157   2.525   3.774 -0.2345  0.4404 -0.2284
 1235Sol     HW 7926   0.122   2.612   3.791  0.2799 -0.0181  3.6603
 1235Sol     HW 7927   0.248   2.540   3.749  0.1120  0.9725  1.3493
 1235Sol     MW 7928   0.162   2.534   3.773 -0.5240 -0.1236  0.6052
 1236Sol     OW 7929   2.083   3.190   7.730  0.1953 -0.1766 -0.0834
 1236Sol     HW 7930   2.098   3.276   7.690 -3.0742  1.2034  1.4878
 1236Sol     HW 7931   2.006   3.155   7.686 -0.8987 -0.4959  2.0292
 1236Sol     MW 7932   2.078   3.195   7.723  0.1282 -0.7938  0.3197
 1237Sol     OW 7933   1.816   0.478   3.389 -0.0458  0.2605 -0.2340
 1237Sol     HW 7934   1.890   0.420   3.403  1.0637  1.2976 -1.6572
 1237Sol     HW 7935   1.749   0.447   3.450  0.5805 -2.3893 -0.8235
 1237Sol     MW 7936   1.816   0.470   3.396 -0.5444 -0.1888 -0.2441
 1238Sol     OW 7937   2.269   1.746   8.086  0.4430  0.6422 -0.3726
 1238Sol     HW 7938   2.290   1.837   8.106  0.1868  0.9244 -1.3773
 1238Sol     HW 7939   2.275   1.740   7.991  0.2055 -0.3286 -0.3328
 1238Sol     MW 7940   2.272   1.754   8.079  0.9032 -0.9586 -0.2198
 1239Sol     OW 7941   1.253   0.844   5.165 -0.2870 -1.0861  0.4676
 1239Sol     HW 7942   1.179   0.902   5.146 -1.1730 -2.2195  0.4629
 1239Sol     HW 7943   1.217   0.776   5.221  1.1957 -0.5800  2.0914
 1239Sol     MW 7944   1.244   0.843   5.168  0.1859 -0.4877 -0.7396
 1240Sol     OW 7945   1.179   3.145   4.339 -0.1674  0.1218  0.7177
 1240Sol     HW 7946   1.262   3.119   4.299  0.3241  1.9826  0.4722
 1240Sol     HW 7947   1.151   3.068   4.389  2.1462 -0.2028  1.5503
 1240Sol     MW 7948   1.184   3.136   4.340 -0.1427 -0.2558 -0.3301
 1241Sol     OW 7949   0.681   0.956   3.716  0.9074  0.4053  0.4285
 1241Sol     HW 7950   0.731   1.014   3.773  0.5540  2.3657 -1.1746
 1241Sol     HW 7951   0.745   0.920   3.655  1.2554 -1.5457  1.9031
 1241Sol     MW 7952   0.691   0.958   3.716 -0.3230 -0.2362  0.9965
 1242Sol     OW 7953   1.354   1.323   4.586  0.3301 -0.6758 -0.1079
 1242Sol     HW 7954   1.423   1.257   4.580  1.0872 -0.0500  1.4443
 1242Sol     HW 7955   1.391   1.400   4.542  0.7995 -0.1977  1.1227
 1242Sol     MW 7956   1.364   1.324   4.581  0.1843 -0.0908 -0.3328
 1243Sol     OW 7957   0.034   0.896   3.246 -0.4915  0.0861 -0.1572
 1243Sol     HW 7958  -0.021   0.839   3.300 -1.0937 -0.0705 -0.9306
 1243Sol     HW 7959   0.019   0.866   3.157  1.2113 -0.2687 -0.3411
 1243Sol     MW 7960   0.028   0.888   3.243 -0.9193  0.0622  1.0181
 1244Sol     OW 7961   0.216   0.312   1.949 -0.6366  0.2766 -0.1996
 1244Sol     HW 7962   0.307   0.297   1.974 -0.7989  0.5481  0.5764
 1244Sol     HW 7963   0.219   0.328   1.854  0.2637  1.4401  0.0056
 1244Sol     MW 7964   0.225   0.312   1.943 -1.3810  0.5956  0.0238
 1245Sol     OW 7965   1.597   0.801   9.352  0.2748 -0.2881  0.6581
 1245Sol     HW 7966   1.571   0.893   9.360 -0.8441 -0.5781  0.2939
 1245Sol     HW 7967   1.635   0.780   9.437  0.8264  0.5918  0.6462
 1245Sol     MW 7968   1.598   0.808   9.360 -0.1157  0.6031  0.2527
 1246Sol     OW 7969   1.299   0.323   5.495  0.2681  0.4707  0.5192
 1246Sol     HW 7970   1.393   0.325   5.474  0.1992  1.3718  0.2682
 1246Sol     HW 7971   1.295   0.352   5.586  0.2794 -0.0879  0.6966
 1246Sol     MW 7972   1.307   0.326   5.501 -0.5839 -0.1708 -0.3659
 1247Sol     OW 7973   0.094   2.853   8.349 -0.5643 -0.0947  0.4982
 1247Sol     HW 7974   0.136   2.775   8.386  0.2814 -0.0479 -0.3503
 1247Sol     HW 7975   0.083   2.833   8.256  0.3895  1.1045  0.1204
 1247Sol     MW 7976   0.097   2.844   8.344 -0.2533 -0.7663 -0.1922
 1248Sol     OW 7977   1.797   1.099   8.490 -0.2239 -0.1445 -0.3897
 1248Sol     HW 7978   1.891   1.082   8.493  0.1348  1.7310 -0.6714
 1248Sol     HW 7979   1.765   1.044   8.418  0.6540 -0.7541 -0.3150
 1248Sol     MW 7980   1.802   1.092   8.484 -0.5630 -0.2498  0.1681
 1249Sol     OW 7981   0.506   1.922   6.965 -0.7009  0.2725 -0.3180
 1249Sol     HW 7982   0.497   1.916   6.870 -0.6853 -0.4832 -0.2751
 1249Sol     HW 7983   0.526   2.014   6.981 -1.0390  0.4749 -1.0182
 1249Sol     MW 7984   0.507   1.930   6.958 -0.3368 -0.6029  0.3231
 1250Sol     OW 7985   0.148   1.398   5.126 -0.5023 -0.4226  0.0368
 1250Sol     HW 7986   0.157   1.314   5.171  2.4802  0.1040  0.5219
 1250Sol     HW 7987   0.115   1.458   5.193 -2.7858 -1.1855 -0.3500
 1250Sol     MW 7988   0.146   1.396   5.136  0.0922 -0.4811  0.3574
 1251Sol     OW 7989   3.113   3.341   4.753  0.2736  0.2288 -0.0525
 1251Sol     HW 7990   3.028   3.372   4.722 -0.0135  0.1986  0.6818
 1251Sol     HW 7991   3.108   3.246   4.745 -0.2065  0.1541  1.0957
 1251Sol     MW 7992   3.105   3.335   4.750 -0.0387  0.1059 -0.2983
 1252Sol     OW 7993   1.626   0.086   4.481  0.0196  0.1356  0.3849
 1252Sol     HW 7994   1.715   0.059   4.503  0.5984  1.6796  0.0178
 1252Sol     HW 7995   1.590   0.012   4.432  1.0704 -0.5371  0.6110
 1252Sol     MW 7996   1.631   0.077   4.479 -0.4791 -0.1843  0.3747
 1253Sol     OW 7997   2.016   0.754   5.341  0.4560  0.3328 -0.3383
 1253Sol     HW 7998   1.932   0.729   5.304 -0.2035 -0.1278  1.4297
 1253Sol     HW 7999   2.025   0.847   5.318 -2.0611  1.2695  2.2150
 1253Sol     MW 8000   2.010   0.760   5.335  0.2917 -0.9983 -0.0497
 1254Sol     OW 8001   0.240   1.455   6.387  0.2551 -0.0445  0.1912
 1254Sol     HW 8002   0.224   1.365   6.413 -1.3521  0.1192 -0.2185
 1254Sol     HW 8003   0.334   1.458   6.367  0.4421 -1.4499  0.8326
 1254Sol     MW 8004   0.247   1.447   6.387  0.3564  0.1043 -0.7433
 1255Sol     OW 8005   2.201   2.853   2.443 -0.5634  0.0425 -0.5401
 1255Sol     HW 8006   2.159   2.795   2.379  1.9387 -2.1969 -0.2495
 1255Sol     HW 8007   2.142   2.852   2.519  0.0388 -3.2224 -0.0423
 1255Sol     MW 8008   2.192   2.848   2.444  0.3256 -0.2653 -0.0031
 1256Sol     OW 8009   2.995   2.699   5.389  0.1018 -0.3732 -0.0577
 1256Sol     HW 8010   2.930   2.646   5.435 -0.3445  0.6328  0.5009
 1256Sol     HW 8011   3.044   2.637   5.336 -0.6549 -1.2861  0.2987
 1256Sol     MW 8012   2.993   2.689   5.389  0.6754  0.2137  0.9626
 1257Sol     OW 8013   0.524   1.010   7.113 -0.0452 -0.0984  0.1124
 1257Sol     HW 8014   0.466   1.030   7.187 -1.3838 -1.3185 -0.5675
 1257Sol     HW 8015   0.513   1.084   7.054 -2.7254 -1.3285 -1.0513
 1257Sol     MW 8016   0.518   1.018   7.115  0.7338 -0.2143  0.1709
 1258Sol     OW 8017   2.395   2.662   9.664  0.1308  0.1609 -0.1476
 1258Sol     HW 8018   2.329   2.716   9.708  0.8828  0.8540  0.1445
 1258Sol     HW 8019   2.414   2.709   9.583  1.6039  0.9345  0.6283
 1258Sol     MW 8020   2.391   2.671   9.661 -0.2247  0.4914  0.4469
 1259Sol     OW 8021   1.634   0.923   4.791 -0.3985 -0.2943  0.0158
 1259Sol     HW 8022   1.639   0.827   4.790 -0.0933 -0.2721 -1.3761
 1259Sol     HW 8023   1.726   0.951   4.786 -0.6465  0.0700 -2.9680
 1259Sol     MW 8024   1.643   0.917   4.791  0.2854 -0.6601 -0.2910
 1260Sol     OW 8025   2.610   0.475   8.454 -0.1528 -0.2057 -0.2411
 1260Sol     HW 8026   2.552   0.429   8.514 -0.9085  0.1441 -0.6989
 1260Sol     HW 8027   2.671   0.522   8.511  0.1877 -1.2025  0.2314
 1260Sol     MW 8028   2.610   0.475   8.465  0.4699 -0.6065  0.2478
 1261Sol     OW 8029   1.221   2.281   6.552  0.3780  0.2972 -0.0411
 1261Sol     HW 8030   1.125   2.273   6.552  0.3713  0.4294 -0.6651
 1261Sol     HW 8031   1.249   2.221   6.621 -0.1963  0.7500  0.6044
 1261Sol     MW 8032   1.215   2.275   6.559  0.3327 -0.3573  0.4405
 1262Sol     OW 8033   0.880   0.975   6.946  0.3460 -0.0688  0.7287
 1262Sol     HW 8034   0.834   0.902   6.906  1.1559 -0.8012  1.1255
 1262Sol     HW 8035   0.831   1.053   6.918 -0.0642 -0.7009 -0.3206
 1262Sol     MW 8036   0.872   0.976   6.940  0.7555  0.4701  0.0908
 1263Sol     OW 8037   2.904   1.293   6.394 -0.3352 -0.4844 -0.3813
 1263Sol     HW 8038   2.969   1.325   6.332  0.6096  1.0403  1.3628
 1263Sol     HW 8039   2.954   1.241   6.457 -0.9320 -0.0136  0.4931
 1263Sol     MW 8040   2.914   1.291   6.394 -0.8193  0.4112  0.3053
 1264Sol     OW 8041   0.331   0.939   1.987 -0.4029  0.1884 -0.1151
 1264Sol     HW 8042   0.239   0.943   1.963 -0.3960  1.5067  0.0515
 1264Sol     HW 8043   0.359   0.851   1.961 -2.0159 -0.6789  1.0195
 1264Sol     MW 8044   0.325   0.932   1.982  0.5198  0.2550  0.1769
 1265Sol     OW 8045   2.775   0.428   4.587  0.4508  0.7302 -0.4018
 1265Sol     HW 8046   2.814   0.379   4.660  1.5873 -0.9466 -2.1100
 1265Sol     HW 8047   2.703   0.373   4.557  0.7009  0.8798 -1.2761
 1265Sol     MW 8048   2.772   0.419   4.591  0.1214  0.0790 -0.4052
 1266Sol     OW 8049   2.010   3.264   6.106 -0.1984  0.4150  0.1140
 1266Sol     HW 8050   2.075   3.206   6.065  0.9231  1.7238  0.0210
 1266Sol     HW 8051   1.986   3.326   6.037 -0.8499  0.5257  0.4340
 1266Sol     MW 8052   2.014   3.264   6.096 -0.6241 -0.2282  0.2971
 1267Sol     OW 8053   2.049   2.320   1.484 -0.0753 -0.2979 -0.4597
 1267Sol     HW 8054   2.018   2.396   1.434  0.0305  0.6528  0.9130
 1267Sol     HW 8055   2.031   2.342   1.575  0.3172 -1.7647 -0.0237
 1267Sol     MW 8056   2.045   2.329   1.487 -0.0986  0.4765 -0.0229
 1268Sol     OW 8057   0.362   1.576   3.611  0.2945  0.2971 -0.4570
 1268Sol     HW 8058   0.277   1.535   3.595 -0.0900  1.3628 -1.2040
 1268Sol     HW 8059   0.376   1.632   3.535  1.2287  0.8562  0.1219
 1268Sol     MW 8060   0.355   1.577   3.603 -0.2357 -0.4622 -0.4598
 1269Sol     OW 8061   0.018   1.436   1.590  0.1581 -0.1445 -0.1044
 1269Sol     HW 8062  -0.007   1.389   1.670  1.2237 -3.2627 -1.4961
 1269Sol     HW 8063   0.109   1.462   1.605  0.3331 -0.6613 -0.2341
 1269Sol     MW 8064   0.024   1.434   1.599  0.3705 -0.3433  0.1379
 1270Sol     OW 8065   3.308   0.423   3.018  0.4260 -0.4386 -0.4576
 1270Sol     HW 8066   3.218   0.451   3.036  0.3158 -1.6235  0.8882
 1270Sol     HW 8067   3.354   0.504   2.996 -0.5467  0.4305  0.6219
 1270Sol     MW 8068   3.304   0.433   3.017 -0.1182 -0.2246 -0.3134
 1271Sol     OW 8069   0.773   2.484   7.756  0.2485  0.1764 -0.0135
 1271Sol     HW 8070   0.722   2.425   7.700  0.4954  0.6493 -0.7465
 1271Sol     HW 8071   0.709   2.547   7.789  0.1872  0.1739 -0.1285
 1271Sol     MW 8072   0.762   2.484   7.754 -0.5513  0.4655 -0.3192
 1272Sol     OW 8073   0.171   1.645   7.061  0.0224  0.3069  0.0278
 1272Sol     HW 8074   0.163   1.641   7.156 -0.7097 -1.7706 -0.1063
 1272Sol     HW 8075   0.213   1.563   7.036 -3.4877 -1.0463 -1.7701
 1272Sol     MW 8076   0.174   1.637   7.067  0.2891  0.8444  0.5692
 1273Sol     OW 8077   1.609   2.791   7.224  0.1104 -0.1444  0.0382
 1273Sol     HW 8078   1.658   2.771   7.304 -1.2190  3.1580  1.7639
 1273Sol     HW 8079   1.526   2.742   7.234 -1.0092  2.0503  1.8160
 1273Sol     MW 8080   1.606   2.785   7.232 -0.4436 -0.2926  0.4576
 1274Sol     OW 8081   3.246   0.300   5.021  0.5517  0.5357  0.0143
 1274Sol     HW 8082   3.276   0.276   5.108 -2.8144 -3.3317  0.2493
 1274Sol     HW 8083   3.318   0.274   4.963  1.1040 -0.8093  1.2760
 1274Sol     MW 8084   3.255   0.295   5.023  0.1721  0.1064 -0.2146
 1275Sol     OW 8085   3.243   2.872   9.219 -0.5866 -0.1607  0.2193
 1275Sol     HW 8086   3.327   2.834   9.246 -0.0234  0.3794 -0.7408
 1275Sol     HW 8087   3.195   2.799   9.180 -0.2315 -0.2802  0.0105
 1275Sol     MW 8088   3.246   2.862   9.218  0.0800 -0.3408 -0.2373
 1276Sol     OW 8089   1.143   2.036   2.553 -0.0960  0.1175  0.5642
 1276Sol     HW 8090   1.196   2.109   2.524  0.6664 -0.8894 -0.6306
 1276Sol     HW 8091   1.197   1.959   2.537 -0.7937 -0.6973  2.0102
 1276Sol     MW 8092   1.153   2.035   2.549  0.1754 -0.6750 -0.2733
 1277Sol     OW 8093   1.793   1.582   5.074 -0.2869  0.1401 -0.4670
 1277Sol     HW 8094   1.790   1.493   5.039 -1.1004 -0.9674  2.2866
 1277Sol     HW 8095   1.877   1.587   5.120 -1.1452  0.1006  1.1249
 1277Sol     MW 8096   1.801   1.575   5.075 -0.2231  0.3059  0.2473
 1278Sol     OW 8097   1.124   3.422   8.395 -0.1603  0.0860  0.1874
 1278Sol     HW 8098   1.051   3.366   8.422 -0.3786  0.6434  0.7880
 1278Sol     HW 8099   1.202   3.375   8.423 -0.3482  0.1119  0.7799
 1278Sol     MW 8100   1.125   3.413   8.400 -0.3349  0.8388 -0.1431
 1279Sol     OW 8101   0.347   0.416   3.978 -0.0029 -0.3663  0.0028
 1279Sol     HW 8102   0.420   0.370   4.018 -1.2981 -0.3164  2.5411
 1279Sol     HW 8103   0.350   0.504   4.017 -1.9831 -0.6887  0.9554
 1279Sol     MW 8104   0.354   0.420   3.985 -0.2181 -1.0423 -0.7544
 1280Sol     OW 8105   0.466   0.152   6.312 -0.3832  0.0339  0.1899
 1280Sol     HW 8106   0.433   0.062   6.312 -0.9437  0.2398  0.1906
 1280Sol     HW 8107   0.560   0.143   6.328 -0.1660 -0.6644 -1.3073
 1280Sol     MW 8108   0.471   0.143   6.313 -0.7989 -0.1367 -0.2717
 1281Sol     OW 8109   0.731   3.262   2.385 -0.7907 -0.0077 -0.1941
 1281Sol     HW 8110   0.752   3.313   2.462 -1.3936  1.7669 -1.1817
 1281Sol     HW 8111   0.658   3.206   2.412 -0.9534  0.5610  0.5291
 1281Sol     MW 8112   0.726   3.261   2.394  0.1527 -0.2278  0.2800
 1282Sol     OW 8113   1.087   2.475   8.163 -0.0838 -0.0555 -0.1785
 1282Sol     HW 8114   1.116   2.563   8.185  0.8338 -0.1793 -0.8414
 1282Sol     HW 8115   1.061   2.481   8.071 -1.5521 -0.1046  0.2228
 1282Sol     MW 8116   1.087   2.483   8.156 -0.0435 -0.2623  0.2272
 1283Sol     OW 8117   2.599   2.631   5.476 -0.0910  0.5728  0.4041
 1283Sol     HW 8118   2.623   2.715   5.436 -2.2017  1.1624  0.3593
 1283Sol     HW 8119   2.675   2.608   5.530  0.3472  2.7220  0.7418
 1283Sol     MW 8120   2.608   2.636   5.478  0.4553  0.2559 -0.3670
 1284Sol     OW 8121   0.348   2.439   9.382  0.2498 -0.1087 -0.3427
 1284Sol     HW 8122   0.361   2.433   9.287 -2.9099 -1.1328 -0.7516
 1284Sol     HW 8123   0.422   2.390   9.419 -0.2385 -2.5456 -2.4047
 1284Sol     MW 8124   0.356   2.434   9.377 -0.1206 -0.2299 -0.0516
 1285Sol     OW 8125   0.116   1.684   6.315 -0.1413 -0.0787  0.3943
 1285Sol     HW 8126   0.136   1.696   6.222  3.3647  2.0506  1.3270
 1285Sol     HW 8127   0.160   1.602   6.338 -0.0357  0.0012  0.4707
 1285Sol     MW 8128   0.121   1.678   6.308  0.8257  0.3238 -0.6253
 1286Sol     OW 8129   3.297   2.717   6.222  0.4348 -0.3579  0.2352
 1286Sol     HW 8130   3.386   2.732   6.254  0.9452 -1.8663 -0.4497
 1286Sol     HW 8131   3.280   2.625   6.240 -0.4884 -0.4081 -0.8715
 1286Sol     MW 8132   3.303   2.710   6.227  0.2338 -0.5481  0.2368
 1287Sol     OW 8133   1.886   1.990   8.336  0.4988  0.3896 -0.5615
 1287Sol     HW 8134   1.882   2.035   8.252  0.5201  2.8476  0.7024
 1287Sol     HW 8135   1.951   2.039   8.386  0.1289 -0.7332  1.0577
 1287Sol     MW 8136   1.891   1.998   8.333  0.3047 -0.2675  0.5210
 1288Sol     OW 8137   2.980   3.448   8.150  0.8313 -0.2710  0.1621
 1288Sol     HW 8138   2.994   3.372   8.092  0.2044  0.0539 -0.4246
 1288Sol     HW 8139   3.064   3.460   8.194  1.2715 -0.6307 -0.5644
 1288Sol     MW 8140   2.989   3.442   8.148 -0.6524  0.5049 -0.0796
 1289Sol     OW 8141   2.335   1.631   7.804  0.0627  0.3600 -0.2635
 1289Sol     HW 8142   2.353   1.707   7.749 -0.3026 -1.0213 -2.3607
 1289Sol     HW 8143   2.422   1.599   7.828  0.2295  0.6464 -0.4817
 1289Sol     MW 8144   2.345   1.635   7.801  0.0997  0.3015  0.2303
 1290Sol     OW 8145   1.789   1.003   3.409 -0.2760  0.4132  0.0563
 1290Sol     HW 8146   1.812   1.032   3.497  1.9028  1.1044 -0.7041
 1290Sol     HW 8147   1.775   0.909   3.417  2.0071  0.1024  0.7635
 1290Sol     MW 8148   1.790   0.997   3.418 -0.0782 -0.2853 -0.2484
 1291Sol     OW 8149   1.778   0.754   8.033  0.6397 -0.2459  0.4338
 1291Sol     HW 8150   1.873   0.757   8.032  0.8621 -3.7880  2.0209
 1291Sol     HW 8151   1.752   0.743   7.942  1.8670 -1.1722  0.1936
 1291Sol     MW 8152   1.784   0.753   8.025 -0.5775 -0.0186 -0.3302
 1292Sol     OW 8153   0.791   0.087   5.686  0.6579 -0.2367 -0.6480
 1292Sol     HW 8154   0.842   0.138   5.624  0.2920 -0.0243 -0.7731
 1292Sol     HW 8155   0.856   0.045   5.742  0.9704 -0.0130 -0.8445
 1292Sol     MW 8156   0.801   0.087   5.685  0.3336 -0.1154  0.2150
 1293Sol     OW 8157   0.911   1.129   8.129  0.3324 -0.3924  0.3255
 1293Sol     HW 8158   0.991   1.076   8.135 -0.3387 -1.7240 -1.9556
 1293Sol     HW 8159   0.843   1.076   8.170  0.7311  1.1045  3.0434
 1293Sol     MW 8160   0.912   1.120   8.133  0.4253 -0.2582 -0.4186
 1294Sol     OW 8161   0.603   3.116   4.678 -0.8223 -0.2254 -0.3214
 1294Sol     HW 8162   0.673   3.088   4.737 -0.6406 -0.7372 -0.7740
 1294Sol     HW 8163   0.579   3.203   4.709 -0.3606 -0.2717  0.1756
 1294Sol     MW 8164   0.607   3.122   4.686  0.0396  0.1054 -0.3775
 1295Sol     OW 8165   1.752   1.399   8.974  0.7860 -0.0838  0.0699
 1295Sol     HW 8166   1.708   1.330   8.925 -0.3558  0.2458  0.5876
 1295Sol     HW 8167   1.738   1.478   8.922  1.7839 -0.1891 -0.3461
 1295Sol     MW 8168   1.747   1.400   8.965  0.1624  0.3430  0.2346
 1296Sol     OW 8169   3.229   3.367   2.375  0.2242 -0.3845 -0.0877
 1296Sol     HW 8170   3.215   3.302   2.443  0.7607 -0.9485 -0.5150
 1296Sol     HW 8171   3.186   3.446   2.408 -0.0078 -0.8169  0.6453
 1296Sol     MW 8172   3.224   3.369   2.384  0.2855 -0.3532 -0.5026
 1297Sol     OW 8173   2.804   2.568   5.616  0.4023  0.3432  0.2986
 1297Sol     HW 8174   2.855   2.613   5.683 -0.3127  1.0804  0.3616
 1297Sol     HW 8175   2.847   2.483   5.606  1.3280  0.7565  0.7097
 1297Sol     MW 8176   2.812   2.564   5.621 -0.6829  0.9016 -0.4200
 1298Sol     OW 8177   2.505   2.256   6.469 -0.3223  0.4647 -0.0977
 1298Sol     HW 8178   2.461   2.173   6.485 -0.0180  0.3009 -0.1084
 1298Sol     HW 8179   2.436   2.315   6.439 -0.4888  0.1444 -0.3353
 1298Sol     MW 8180   2.495   2.254   6.468  0.0407  0.1452  0.7221
 1299Sol     OW 8181   0.006   0.956   5.932 -0.0115  0.3612 -0.3868
 1299Sol     HW 8182  -0.013   1.037   5.886  4.7957  0.8335 -1.8003
 1299Sol     HW 8183   0.026   0.893   5.863 -1.2634 -1.3750  0.7946
 1299Sol     MW 8184   0.006   0.957   5.922 -0.2991 -0.2273 -0.0205
 1300Sol     OW 8185   2.525   3.177   1.968 -0.8167 -0.0145 -0.1058
 1300Sol     HW 8186   2.520   3.236   1.893 -0.8896  0.7731  0.5188
 1300Sol     HW 8187   2.452   3.203   2.024  1.1954  1.6238  1.8415
 1300Sol     MW 8188   2.518   3.184   1.966  0.6964  0.3980 -0.4545
 1301Sol     OW 8189   0.113   1.791   8.354 -0.0268  0.1461 -0.0631
 1301Sol     HW 8190   0.182   1.845   8.391  1.2935 -0.5089 -1.5232
 1301Sol     HW 8191   0.107   1.819   8.262 -2.2009  0.7020  0.2043
 1301Sol     MW 8192   0.118   1.799   8.349 -0.8998  0.1339  0.1205
 1302Sol     OW 8193   2.113   2.036   8.013 -0.1641  0.0940 -0.1881
 1302Sol     HW 8194   2.058   2.097   8.062  0.8936 -0.1986  1.3895
 1302Sol     HW 8195   2.193   2.086   7.994 -0.8319  0.4375 -2.2527
 1302Sol     MW 8196   2.115   2.046   8.015  0.0660 -0.0182 -0.6169
 1303Sol     OW 8197   1.069   1.106   6.490 -0.3676 -0.3258  0.1622
 1303Sol     HW 8198   1.108   1.157   6.419  0.0705 -0.6546  0.1628
 1303Sol     HW 8199   1.112   1.138   6.570 -1.0124  0.1911  0.2999
 1303Sol     MW 8200   1.076   1.113   6.491 -0.1097 -0.6147  0.1883
 1304Sol     OW 8201   1.697   1.397   3.868 -0.1432 -0.2451 -0.0668
 1304Sol     HW 8202   1.777   1.392   3.817 -0.9648 -0.3523 -1.3840
 1304Sol     HW 8203   1.647   1.320   3.841 -1.1154  0.3547 -0.0190
 1304Sol     MW 8204   1.699   1.390   3.861 -0.3000  0.2311  0.0972
 1305Sol     OW 8205   0.419   2.869   1.387 -0.0073  1.0538  0.0909
 1305Sol     HW 8206   0.482   2.913   1.330 -0.3570 -1.9560 -2.7614
 1305Sol     HW 8207   0.473   2.818   1.447  0.3187  2.4349  0.9982
 1305Sol     MW 8208   0.430   2.869   1.387  0.1112 -0.9153 -0.1327
 1306Sol     OW 8209   1.266   3.407   3.896 -0.0452  0.4477 -0.4947
 1306Sol     HW 8210   1.334   3.400   3.964 -1.2376 -0.2415  0.6562
 1306Sol     HW 8211   1.287   3.336   3.835  0.4254  0.4105 -0.2984
 1306Sol     MW 8212   1.274   3.400   3.897  0.2592 -0.2632  0.2630
 1307Sol     OW 8213   1.470   0.809   8.612 -0.1926  0.1031 -0.5612
 1307Sol     HW 8214   1.478   0.716   8.634 -1.2436  0.2085  0.2799
 1307Sol     HW 8215   1.554   0.846   8.637 -0.8896 -0.0238  2.1284
 1307Sol     MW 8216   1.478   0.804   8.616  0.2718  0.1403 -0.4117
 1308Sol     OW 8217   0.634   0.674   3.260 -0.7741 -0.1295  0.0582
 1308Sol     HW 8218   0.715   0.623   3.254 -1.1382 -0.6047 -1.0970
 1308Sol     HW 8219   0.564   0.609   3.262 -1.2154  0.3028 -0.8521
 1308Sol     MW 8220   0.635   0.664   3.259  0.7125  0.8939  0.2228
 1309Sol     OW 8221   2.210   0.770   9.790  0.1776 -0.1993 -1.0014
 1309Sol     HW 8222   2.284   0.831   9.791 -1.3411  1.6690  1.2076
 1309Sol     HW 8223   2.133   0.826   9.788 -1.3050 -1.9750  2.5812
 1309Sol     MW 8224   2.210   0.780   9.790  0.3283 -0.1109 -0.0413
 1310Sol     OW 8225   0.268   0.132   7.170 -0.0196 -0.6249 -0.2173
 1310Sol     HW 8226   0.363   0.122   7.167  0.0680 -0.0985  0.6496
 1310Sol     HW 8227   0.235   0.065   7.111  0.7816 -2.2654  1.1745
 1310Sol     MW 8228   0.274   0.125   7.164 -0.3025  0.2468  0.5553
 1311Sol     OW 8229   0.309   2.520   4.341 -0.1195 -0.0549 -0.3180
 1311Sol     HW 8230   0.293   2.540   4.434  1.5951 -0.7449  0.1405
 1311Sol     HW 8231   0.256   2.443   4.324 -3.1282  2.0396 -0.8554
 1311Sol     MW 8232   0.303   2.515   4.348  0.6625  0.4216  0.7054
 1312Sol     OW 8233   0.788   2.636   5.199  0.2530 -0.1390 -0.5429
 1312Sol     HW 8234   0.766   2.722   5.163  0.9729 -0.8161 -2.6603
 1312Sol     HW 8235   0.705   2.602   5.234 -0.0807  1.2992  0.0926
 1312Sol     MW 8236   0.779   2.641   5.199 -0.0858 -0.5023 -0.3862
 1313Sol     OW 8237   1.783   3.085   2.325  0.2970  0.3143  0.6153
 1313Sol     HW 8238   1.777   3.161   2.268  0.7548 -0.9238 -1.1194
 1313Sol     HW 8239   1.792   3.011   2.266 -0.3251 -1.1263  2.2682
 1313Sol     MW 8240   1.783   3.085   2.315  0.0896 -0.4467 -0.1603
 1314Sol     OW 8241   1.077   1.475   7.431  0.3044 -0.7561 -0.2588
 1314Sol     HW 8242   1.027   1.403   7.469  0.0991 -0.2808  0.3858
 1314Sol     HW 8243   1.020   1.551   7.440  1.1609 -0.1994  0.5112
 1314Sol     MW 8244   1.068   1.476   7.435  0.3215 -0.5662  0.9927
 1315Sol     OW 8245   0.406   1.489   8.300  0.1967 -0.0334  0.0906
 1315Sol     HW 8246   0.320   1.525   8.281 -0.4096 -0.6094  1.6458
 1315Sol     HW 8247   0.447   1.478   8.214 -0.9248  1.0820 -0.6023
 1315Sol     MW 8248   0.402   1.491   8.291 -0.2685 -0.2336  0.4200
 1316Sol     OW 8249   1.146   1.302   8.842 -0.0079  0.3287  0.1854
 1316Sol     HW 8250   1.141   1.390   8.805 -0.3645 -0.3157 -1.3631
 1316Sol     HW 8251   1.126   1.313   8.935  1.4019  2.0742  0.3010
 1316Sol     MW 8252   1.144   1.311   8.847 -0.3238  0.4447 -0.4893
 1317Sol     OW 8253   1.860   1.734   7.872  0.2771 -0.5359  0.4283
 1317Sol     HW 8254   1.898   1.766   7.954 -0.3494 -1.0486  0.9184
 1317Sol     HW 8255   1.906   1.652   7.855 -1.4405 -1.7718  1.6531
 1317Sol     MW 8256   1.868   1.730   7.878 -0.0937 -0.2395 -0.3008
 1318Sol     OW 8257   0.383   1.709   4.102  0.3196  0.1171 -0.9253
 1318Sol     HW 8258   0.360   1.783   4.158  2.7506  1.0161 -1.0678
 1318Sol     HW 8259   0.376   1.743   4.013  1.3550  0.1673 -0.9944
 1318Sol     MW 8260   0.380   1.719   4.099 -0.1741 -0.2215  0.2877
 1319Sol     OW 8261   3.014   1.201   2.438 -0.1994  0.0969 -0.1895
 1319Sol     HW 8262   2.990   1.285   2.477  1.1027  0.0064  0.8451
 1319Sol     HW 8263   3.095   1.177   2.482 -0.3323 -1.4969 -0.7953
 1319Sol     MW 8264   3.019   1.206   2.445  0.0616  0.1830  0.1374
 1320Sol     OW 8265   2.712   3.257   4.100 -0.5330 -0.0396 -0.1892
 1320Sol     HW 8266   2.691   3.292   4.013  1.3552  2.0881  0.1885
 1320Sol     HW 8267   2.662   3.312   4.160 -0.0243 -0.0176  0.2113
 1320Sol     MW 8268   2.705   3.265   4.097  0.2460  0.3759 -0.4879
 1321Sol     OW 8269   1.259   1.788   7.983  0.4277  0.1047 -0.5263
 1321Sol     HW 8270   1.228   1.721   7.921 -0.8485  0.7821 -0.6353
 1321Sol     HW 8271   1.190   1.854   7.983  0.2462 -0.0323  1.8642
 1321Sol     MW 8272   1.250   1.788   7.978  0.2111  0.1742 -0.1195
 1322Sol     OW 8273   0.433   0.017   9.662  0.3601  0.2301 -0.0990
 1322Sol     HW 8274   0.472  -0.062   9.700 -0.9232 -0.6264 -0.5437
 1322Sol     HW 8275   0.357  -0.015   9.613 -0.3956  1.7860  0.0423
 1322Sol     MW 8276   0.430   0.007   9.661 -0.2337  0.0563 -0.6462
 1323Sol     OW 8277   1.699   0.143   4.128 -0.0865  0.1286 -0.3612
 1323Sol     HW 8278   1.751   0.073   4.166 -0.2273  0.3521  0.2490
 1323Sol     HW 8279   1.761   0.216   4.116  0.3330 -0.5093 -2.1410
 1323Sol     MW 8280   1.709   0.144   4.130 -0.3674  0.3689 -0.6946
 1324Sol     OW 8281   1.410   3.222   6.790  0.0321  0.6317 -0.0782
 1324Sol     HW 8282   1.444   3.132   6.797  1.2290  1.0365 -0.5248
 1324Sol     HW 8283   1.474   3.275   6.836 -0.0785  1.4039 -0.8172
 1324Sol     MW 8284   1.419   3.218   6.795  0.3909 -0.1109 -0.1572
 1325Sol     OW 8285   1.581   2.086   5.988 -0.1277  0.2069 -0.7641
 1325Sol     HW 8286   1.533   2.153   6.037  0.9907  0.1311  0.4509
 1325Sol     HW 8287   1.625   2.135   5.918  1.7430  0.9599  0.8978
 1325Sol     MW 8288   1.581   2.097   5.986 -0.3979 -0.3916 -0.1546
 1326Sol     OW 8289   1.877   2.317   8.519 -0.1693  0.2332 -0.2097
 1326Sol     HW 8290   1.943   2.251   8.496 -2.8886 -1.5905 -3.1367
 1326Sol     HW 8291   1.793   2.272   8.511 -1.9286  3.0408  1.5016
 1326Sol     MW 8292   1.876   2.307   8.516  0.4094 -0.7536  0.3811
 1327Sol     OW 8293   0.096   0.238   7.853 -0.1942  0.0508  0.6152
 1327Sol     HW 8294   0.105   0.218   7.946  0.1173 -1.2510  0.3201
 1327Sol     HW 8295   0.005   0.268   7.844 -0.5159 -0.7208  1.1892
 1327Sol     MW 8296   0.088   0.239   7.860  0.5815 -0.3457 -0.8841
 1328Sol     OW 8297   0.818   0.795   3.037  0.3425 -0.2901  0.1340
 1328Sol     HW 8298   0.774   0.765   3.117 -2.4363  0.3875 -1.0807
 1328Sol     HW 8299   0.821   0.890   3.046  1.0700 -0.2985 -0.0432
 1328Sol     MW 8300   0.814   0.801   3.045 -0.1061  0.5219 -0.1828
 1329Sol     OW 8301   0.212   2.194   4.665 -0.0378 -0.1574 -0.1710
 1329Sol     HW 8302   0.208   2.128   4.734 -0.4219  0.3665  0.3143
 1329Sol     HW 8303   0.121   2.215   4.647  0.1054  1.9960  1.3893
 1329Sol     MW 8304   0.204   2.190   4.670 -0.9431 -0.2036 -0.8036
 1330Sol     OW 8305   0.584   0.329   8.966  0.1513 -0.3243  0.0577
 1330Sol     HW 8306   0.513   0.381   9.004  0.2285 -0.3453  0.2290
 1330Sol     HW 8307   0.639   0.393   8.921  0.5918 -0.1775  0.7991
 1330Sol     MW 8308   0.583   0.340   8.965  0.0460 -0.1262 -0.5657
 1331Sol     OW 8309   1.518   1.189   6.511  0.2801 -0.0406 -0.0280
 1331Sol     HW 8310   1.487   1.273   6.479 -0.0199 -0.5363 -1.0527
 1331Sol     HW 8311   1.560   1.209   6.594 -0.1413  1.0622 -0.0761
 1331Sol     MW 8312   1.519   1.198   6.516 -0.0103 -0.2242 -0.3081
 1332Sol     OW 8313   1.802   1.556   1.738 -0.1906 -0.2842 -0.0549
 1332Sol     HW 8314   1.885   1.514   1.760 -0.9707 -2.2345 -0.7322
 1332Sol     HW 8315   1.796   1.630   1.798  1.1104 -1.2751  1.3401
 1332Sol     MW 8316   1.809   1.559   1.745  0.9064 -0.1131 -0.3148
 1333Sol     OW 8317   1.420   2.780   4.177 -0.1565 -0.0767 -0.7189
 1333Sol     HW 8318   1.371   2.728   4.240 -0.4738  2.0587  0.8537
 1333Sol     HW 8319   1.502   2.733   4.165 -0.2215 -0.6804  1.0779
 1333Sol     MW 8320   1.423   2.772   4.181  0.4219 -0.6073  0.7530
 1334Sol     OW 8321   3.240   2.243   2.541  0.2303 -0.1020  0.4495
 1334Sol     HW 8322   3.195   2.209   2.618  1.6440 -2.8320  0.1286
 1334Sol     HW 8323   3.169   2.266   2.480 -0.8228 -0.3200  1.5798
 1334Sol     MW 8324   3.229   2.242   2.542  0.0089 -0.0037  0.2826
 1335Sol     OW 8325   0.768   0.852   5.887 -0.2411  0.2006  0.1238
 1335Sol     HW 8326   0.711   0.775   5.885  0.6087 -0.4151 -0.8127
 1335Sol     HW 8327   0.846   0.825   5.839  0.0380  1.6765 -0.2632
 1335Sol     MW 8328   0.770   0.842   5.882 -0.1087 -0.1569  0.5953
 1336Sol     OW 8329   1.438   2.478   2.835 -0.1750 -0.2170 -0.9726
 1336Sol     HW 8330   1.473   2.455   2.749  0.3819  0.6199 -0.9829
 1336Sol     HW 8331   1.515   2.506   2.885 -0.4679 -0.8802 -0.1396
 1336Sol     MW 8332   1.448   2.478   2.832 -0.1359 -0.1866  0.7503
 1337Sol     OW 8333   3.252   1.876   7.387  0.4263 -0.4541 -0.4940
 1337Sol     HW 8334   3.325   1.938   7.377  0.9835 -0.9910  0.1879
 1337Sol     HW 8335   3.174   1.929   7.374  0.8978  0.3913  0.0758
 1337Sol     MW 8336   3.252   1.886   7.385 -0.6801 -0.0790 -0.0111
 1338Sol     OW 8337   1.552   1.113   4.597 -0.0457 -0.2210 -0.1225
 1338Sol     HW 8338   1.634   1.158   4.576 -0.0811 -0.1005 -0.0015
 1338Sol     HW 8339   1.574   1.056   4.671 -0.6373  1.5588  1.4493
 1338Sol     MW 8340   1.561   1.112   4.602  0.1607 -0.4114  0.0845
 1339Sol     OW 8341   2.500   2.341   3.708  0.7362  0.1156  0.1432
 1339Sol     HW 8342   2.552   2.355   3.629 -1.5957  0.9125 -1.3064
 1339Sol     HW 8343   2.545   2.390   3.776  1.4471  1.4565 -1.2672
 1339Sol     MW 8344   2.508   2.347   3.707  0.0651 -0.2831  0.4408
 1340Sol     OW 8345   2.970   3.293   5.005  0.1422 -0.3150 -0.5199
 1340Sol     HW 8346   3.009   3.293   4.918  0.2294 -0.5812 -0.4844
 1340Sol     HW 8347   2.879   3.318   4.991  0.1796 -0.2682 -0.6766
 1340Sol     MW 8348   2.966   3.295   4.996 -0.1502 -0.5533 -0.2280
 1341Sol     OW 8349   2.726   3.153   9.590  0.1335  0.3462 -0.3043
 1341Sol     HW 8350   2.710   3.196   9.675 -0.0124 -1.4267  0.5941
 1341Sol     HW 8351   2.669   3.076   9.591  1.5380 -0.7436 -1.2028
 1341Sol     MW 8352   2.719   3.150   9.598  0.2705 -0.4788  0.1356
 1342Sol     OW 8353   0.558   3.392   4.705 -0.4129 -0.0071 -1.0519
 1342Sol     HW 8354   0.522   3.427   4.786  0.5934 -0.6393 -0.3036
 1342Sol     HW 8355   0.602   3.466   4.663 -1.0275  0.3447 -1.0638
 1342Sol     MW 8356   0.559   3.402   4.708 -0.1073 -0.4821  0.1160
 1343Sol     OW 8357   0.489   2.222   9.485  1.2768 -0.0131  0.1014
 1343Sol     HW 8358   0.534   2.237   9.568  0.1411 -0.3202  0.7865
 1343Sol     HW 8359   0.558   2.195   9.424  2.1485  0.4350  0.8786
 1343Sol     MW 8360   0.499   2.221   9.487  0.0822  0.1569  0.1241
 1344Sol     OW 8361   1.712   2.310   3.083 -0.2759  0.0040 -0.0902
 1344Sol     HW 8362   1.710   2.390   3.137  0.6145  1.3619 -2.0107
 1344Sol     HW 8363   1.731   2.341   2.995  1.5953 -2.4890 -0.6284
 1344Sol     MW 8364   1.713   2.320   3.080 -0.3693  0.1287  0.2784
 1345Sol     OW 8365   2.783   2.097   3.931  0.0561 -0.0706 -0.0166
 1345Sol     HW 8366   2.691   2.093   3.957  0.6715 -0.5444  2.1958
 1345Sol     HW 8367   2.831   2.061   4.005  2.0153 -0.1912 -1.2985
 1345Sol     MW 8368   2.779   2.094   3.940 -0.7656  0.2326  0.2491
 1346Sol     OW 8369   2.069   2.930   8.170  0.9160 -0.4575 -0.3796
 1346Sol     HW 8370   2.151   2.953   8.214 -0.5600  1.4536  1.5403
 1346Sol     HW 8371   2.048   3.008   8.118 -1.0530  0.2673  1.3825
 1346Sol     MW 8372   2.074   2.939   8.170  0.2502 -0.5040  0.0430
 1347Sol     OW 8373   0.500   2.698   7.730 -0.2196 -0.0003 -0.0476
 1347Sol     HW 8374   0.421   2.649   7.750 -0.4956  0.0510 -0.9874
 1347Sol     HW 8375   0.530   2.662   7.646  0.6852  0.0560  0.2461
 1347Sol     MW 8376   0.496   2.691   7.724 -0.9750  0.3218 -0.0191
 1348Sol     OW 8377   0.086   1.165   7.696 -0.0473  0.1881  0.0135
 1348Sol     HW 8378   0.157   1.142   7.755 -0.3813 -1.7895 -0.3231
 1348Sol     HW 8379   0.011   1.180   7.754 -0.3852 -1.7904  0.1112
 1348Sol     MW 8380   0.085   1.164   7.707  0.5206 -0.3565 -0.1070
 1349Sol     OW 8381   1.634   3.033   8.753  0.1924  0.3454 -0.5279
 1349Sol     HW 8382   1.599   2.949   8.783 -2.3516  2.0008  1.3869
 1349Sol     HW 8383   1.728   3.026   8.767 -0.0899 -1.8469  0.5118
 1349Sol     MW 8384   1.639   3.025   8.757  0.1510  0.3287  0.3276
 1350Sol     OW 8385   0.386   0.526   9.523 -0.1140  0.4621  0.4905
 1350Sol     HW 8386   0.450   0.568   9.581  2.4052 -0.0985 -1.7641
 1350Sol     HW 8387   0.395   0.433   9.539 -1.0343  0.4278  0.8228
 1350Sol     MW 8388   0.392   0.522   9.529  0.4449 -0.7317  0.6577
 1351Sol     OW 8389   0.056   0.935   1.890  0.2815  0.1090  0.0007
 1351Sol     HW 8390  -0.005   0.983   1.834 -0.1495  1.9073  1.9841
 1351Sol     HW 8391   0.063   0.849   1.848  0.0901  1.4359 -2.8953
 1351Sol     MW 8392   0.051   0.931   1.881  0.4949 -0.0892 -0.2171
 1352Sol     OW 8393   1.126   0.869   4.750  0.1676  0.1769  0.7158
 1352Sol     HW 8394   1.126   0.786   4.702  0.2356  0.1391  0.7807
 1352Sol     HW 8395   1.136   0.936   4.683  0.0531  0.1362  0.6573
 1352Sol     MW 8396   1.127   0.868   4.740 -0.6058  0.6264  0.0367
 1353Sol     OW 8397   2.891   2.237   4.207  0.6536  0.6005  0.1363
 1353Sol     HW 8398   2.967   2.223   4.151  1.7885  1.5363  1.4485
 1353Sol     HW 8399   2.883   2.156   4.257  0.4618  0.3075 -0.3559
 1353Sol     MW 8400   2.897   2.228   4.206 -0.4972 -0.0263 -0.0309
 1354Sol     OW 8401   1.991   3.125   6.506  0.4893  0.2408 -0.1206
 1354Sol     HW 8402   1.991   3.038   6.546  1.2250  1.0721  1.7973
 1354Sol     HW 8403   1.941   3.180   6.568 -0.4708  1.0526 -1.5935
 1354Sol     MW 8404   1.987   3.122   6.515  0.1912  0.4325  0.0177
 1355Sol     OW 8405   2.151   3.071   5.978 -0.4585  0.2184  0.5632
 1355Sol     HW 8406   2.155   3.013   6.054  3.3332  0.3090  0.5291
 1355Sol     HW 8407   2.120   3.015   5.906 -0.0788 -0.9290  1.2810
 1355Sol     MW 8408   2.149   3.061   5.978 -0.3796 -0.7400 -0.7347
 1356Sol     OW 8409   3.024   0.799   3.063 -0.5542 -0.0940 -0.1945
 1356Sol     HW 8410   3.044   0.862   2.993 -1.5736 -0.1304 -0.5287
 1356Sol     HW 8411   3.028   0.851   3.143 -1.7927  0.5152 -0.5028
 1356Sol     MW 8412   3.026   0.810   3.064 -0.3174  1.6047 -0.5172
 1357Sol     OW 8413   2.090   1.331   2.433  0.2477 -0.1118  0.2586
 1357Sol     HW 8414   2.061   1.272   2.502 -0.0899 -0.5649 -0.2704
 1357Sol     HW 8415   2.032   1.407   2.441  0.0183 -0.2907  0.2753
 1357Sol     MW 8416   2.082   1.333   2.440 -0.7461  0.9215  0.2288
 1358Sol     OW 8417   3.054   0.495   2.453  0.4602 -0.2183 -0.4178
 1358Sol     HW 8418   3.063   0.421   2.392  2.4363 -0.0116 -0.4011
 1358Sol     HW 8419   3.128   0.486   2.513  0.5525  1.6008 -0.2358
 1358Sol     MW 8420   3.062   0.488   2.453 -0.1401  0.0382  0.0152
 1359Sol     OW 8421   1.499   3.224   9.143 -0.4004  0.6537 -0.0834
 1359Sol     HW 8422   1.562   3.176   9.197  0.5784 -0.5149 -2.2064
 1359Sol     HW 8423   1.442   3.267   9.207  1.5853  0.4973  1.8811
 1359Sol     MW 8424   1.499   3.223   9.154 -0.1343  0.1668 -0.2426
 1360Sol     OW 8425   1.827   2.995   1.984  0.2874  0.0147  1.1476
 1360Sol     HW 8426   1.873   2.987   1.901  2.0307  3.0361  1.7370
 1360Sol     HW 8427   1.887   2.958   2.049  0.7234  1.4071  1.5570
 1360Sol     MW 8428   1.836   2.991   1.982  0.2872  0.4207 -0.7765
 1361Sol     OW 8429   1.656   2.213   6.432  0.3510  0.3585  0.1365
 1361Sol     HW 8430   1.625   2.294   6.392  0.9551 -0.4185 -1.9934
 1361Sol     HW 8431   1.751   2.215   6.419  0.1329 -1.9094 -2.4078
 1361Sol     MW 8432   1.662   2.220   6.427  0.1404  0.0293  0.1545
 1362Sol     OW 8433   1.216   2.543   3.545  0.4752  0.0862 -0.4851
 1362Sol     HW 8434   1.163   2.536   3.625  1.2220  0.5741  0.0468
 1362Sol     HW 8435   1.234   2.636   3.536  1.1108 -0.0616 -0.7564
 1362Sol     MW 8436   1.212   2.551   3.551 -1.0350 -0.3187 -0.3385
 1363Sol     OW 8437   3.052   3.302   2.717 -0.0932 -0.2297  0.2744
 1363Sol     HW 8438   3.115   3.255   2.663 -0.6856 -0.4566 -0.2217
 1363Sol     HW 8439   3.106   3.348   2.782  0.5780 -0.4511 -0.1198
 1363Sol     MW 8440   3.062   3.302   2.718 -0.3768 -0.3865  0.3059
 1364Sol     OW 8441   2.574   3.333   3.881 -0.3597 -0.5218  0.2984
 1364Sol     HW 8442   2.518   3.262   3.914 -1.4285 -1.0748 -2.5625
 1364Sol     HW 8443   2.516   3.410   3.881 -0.0627 -0.2952  0.6074
 1364Sol     MW 8444   2.564   3.334   3.884  0.2576  0.3330 -0.1152
 1365Sol     OW 8445   1.041   0.332   3.841  0.1236 -0.2835 -0.0843
 1365Sol     HW 8446   1.010   0.383   3.916 -1.1349 -2.8888  1.2378
 1365Sol     HW 8447   1.124   0.295   3.869 -0.2753 -1.1377 -0.0082
 1365Sol     MW 8448   1.045   0.334   3.850 -0.0271 -0.1207  0.1537
 1366Sol     OW 8449   1.512   2.315   5.352 -0.0698 -0.1027  0.0802
 1366Sol     HW 8450   1.561   2.393   5.323 -1.1032  0.0528 -1.2717
 1366Sol     HW 8451   1.537   2.305   5.444 -0.6426  2.4076  0.5612
 1366Sol     MW 8452   1.519   2.321   5.358 -0.7753 -0.0707 -0.2908
 1367Sol     OW 8453   2.947   1.489   8.783  0.4176 -0.4387  0.4647
 1367Sol     HW 8454   2.888   1.559   8.754  1.9803  0.1299 -1.4156
 1367Sol     HW 8455   2.889   1.420   8.813 -1.1975  0.4835 -0.4505
 1367Sol     MW 8456   2.937   1.489   8.783  0.1699  0.7428  0.1057
 1368Sol     OW 8457   0.943   1.266   4.207  0.0536 -0.1273 -0.1711
 1368Sol     HW 8458   0.943   1.346   4.155 -0.4863  0.9373  1.4038
 1368Sol     HW 8459   0.861   1.270   4.257  0.3437 -1.3186  0.4220
 1368Sol     MW 8460   0.936   1.274   4.207  0.5162 -0.1045 -0.3873
 1369Sol     OW 8461   0.998   3.435   5.846 -0.0561 -0.1612  0.4399
 1369Sol     HW 8462   1.052   3.365   5.809 -0.2573 -0.9955  1.6911
 1369Sol     HW 8463   1.060   3.505   5.866  0.5520 -1.0342  1.6818
 1369Sol     MW 8464   1.008   3.435   5.844  0.4973  0.1888 -0.6106
 1370Sol     OW 8465   2.342   0.192   9.325  0.0952  0.4231  0.3692
 1370Sol     HW 8466   2.435   0.191   9.345  0.9363  1.1853 -3.0630
 1370Sol     HW 8467   2.307   0.265   9.376  1.9652  1.9267 -0.4065
 1370Sol     MW 8468   2.347   0.199   9.331 -0.4187 -0.1827  0.5219
 1371Sol     OW 8469   1.925   3.113   5.190  0.0665  0.3316  0.0279
 1371Sol     HW 8470   1.986   3.130   5.262 -0.3883  0.8620  0.2893
 1371Sol     HW 8471   1.872   3.040   5.220  1.6788 -1.2474 -0.8844
 1371Sol     MW 8472   1.926   3.108   5.199  0.0690  0.4474 -0.2801
 1372Sol     OW 8473   2.318   1.743   8.855  0.6598 -0.0071 -0.0904
 1372Sol     HW 8474   2.300   1.786   8.771  2.8461  0.3718 -0.4020
 1372Sol     HW 8475   2.393   1.686   8.837 -0.5214 -1.9498  0.9822
 1372Sol     MW 8476   2.323   1.742   8.846 -0.2395  0.5893  0.3578
 1373Sol     OW 8477   3.199   0.052   9.368  0.1565 -0.2325  0.3214
 1373Sol     HW 8478   3.214   0.144   9.389  1.6973 -0.4292  0.1908
 1373Sol     HW 8479   3.217   0.006   9.450  2.2090 -0.6508 -0.3417
 1373Sol     MW 8480   3.202   0.056   9.378  0.0051 -0.1903  0.2361
 1374Sol     OW 8481   3.100   0.278   3.258  0.3304 -0.1086  0.3254
 1374Sol     HW 8482   3.043   0.270   3.334 -0.8599 -0.8171 -0.6159
 1374Sol     HW 8483   3.070   0.357   3.213 -0.6584 -1.0979 -0.7715
 1374Sol     MW 8484   3.093   0.284   3.261  0.5065  0.6263  0.6490
 1375Sol     OW 8485   1.274   2.238   2.435 -0.4378  0.2668  0.0864
 1375Sol     HW 8486   1.297   2.328   2.456 -1.2169  0.3120  0.7817
 1375Sol     HW 8487   1.327   2.217   2.358  0.4660  0.9918  0.5019
 1375Sol     MW 8488   1.281   2.244   2.430 -0.3815 -0.4304  0.1729
 1376Sol     OW 8489   0.899   1.940   5.041 -0.1999  0.3049 -0.0745
 1376Sol     HW 8490   0.863   1.939   4.953 -0.6306 -1.5468  0.1114
 1376Sol     HW 8491   0.830   1.901   5.096 -0.4841  2.6292  1.3081
 1376Sol     MW 8492   0.889   1.937   5.038  0.2864  0.6341  0.8580
 1377Sol     OW 8493   2.487   0.674   1.605 -1.0163 -0.1414  0.2951
 1377Sol     HW 8494   2.504   0.689   1.512 -0.5686 -1.5962  0.1245
 1377Sol     HW 8495   2.400   0.635   1.608 -0.6888 -0.8892  0.3912
 1377Sol     MW 8496   2.481   0.671   1.597 -0.1593  0.7399 -0.6523
 1378Sol     OW 8497   2.433   2.001   8.087  0.1997  0.0776 -0.0297
 1378Sol     HW 8498   2.523   1.996   8.056 -1.0660 -0.4251 -3.9230
 1378Sol     HW 8499   2.394   2.071   8.035 -1.8818 -0.2236  1.0608
 1378Sol     MW 8500   2.438   2.007   8.080 -0.0148 -0.3868 -0.5042
 1379Sol     OW 8501   1.624   1.255   2.496 -0.2550  0.1085  0.0317
 1379Sol     HW 8502   1.548   1.203   2.522  0.7302 -0.9073  0.8686
 1379Sol     HW 8503   1.666   1.279   2.578  0.2798  0.7731 -0.4334
 1379Sol     MW 8504   1.621   1.253   2.505 -0.3252 -0.0388  0.4289
 1380Sol     OW 8505   1.804   1.554   4.290  0.5105  0.7514  0.2769
 1380Sol     HW 8506   1.842   1.578   4.206 -0.4959  2.4486  0.2657
 1380Sol     HW 8507   1.777   1.463   4.280  0.7722  0.8198 -1.0985
 1380Sol     MW 8508   1.805   1.548   4.282  0.5971  0.0614 -0.3264
 1381Sol     OW 8509   2.855   2.402   5.978 -0.0094 -0.6237 -0.7754
 1381Sol     HW 8510   2.906   2.407   6.060 -1.6184  0.3393  0.1934
 1381Sol     HW 8511   2.871   2.487   5.936  0.7245 -1.0749 -1.4089
 1381Sol     MW 8512   2.861   2.410   5.982  0.1019  0.3643 -0.2747
 1382Sol     OW 8513   1.895   1.048   4.780 -0.2467 -0.0371  0.2677
 1382Sol     HW 8514   1.981   1.022   4.745 -0.4619  0.8015 -0.9111
 1382Sol     HW 8515   1.865   1.117   4.721 -3.7787 -3.3725 -2.0842
 1382Sol     MW 8516   1.900   1.051   4.772 -0.0337 -0.6156  0.1500
 1383Sol     OW 8517   1.852   2.963   5.643 -0.3274 -0.3007  0.1651
 1383Sol     HW 8518   1.805   2.948   5.561  3.3068  1.1225 -2.2677
 1383Sol     HW 8519   1.814   3.043   5.678  0.8065  1.3305 -2.2300
 1383Sol     MW 8520   1.844   2.969   5.639  0.3591  0.2395 -0.3791
 1384Sol     OW 8521   1.767   1.769   7.413 -0.4280  0.0151 -0.1498
 1384Sol     HW 8522   1.776   1.834   7.483 -1.6526 -0.1638  0.1908
 1384Sol     HW 8523   1.853   1.728   7.406 -0.3999 -0.2124  1.4957
 1384Sol     MW 8524   1.775   1.771   7.418 -0.7759  0.3626  0.3048
 1385Sol     OW 8525   3.009   2.982   5.811 -0.4442 -0.2621  0.0049
 1385Sol     HW 8526   3.010   3.074   5.783 -0.5272  0.3075  1.8296
 1385Sol     HW 8527   2.922   2.970   5.848 -0.4146 -1.0750 -0.1964
 1385Sol     MW 8528   3.001   2.989   5.812 -0.0051 -0.0573  0.3414
 1386Sol     OW 8529   3.110   2.330   7.340  0.2616  0.4768 -0.0404
 1386Sol     HW 8530   3.195   2.370   7.359  0.2026  1.2914 -1.4097
 1386Sol     HW 8531   3.048   2.402   7.352  0.1886  0.9366 -2.8817
 1386Sol     MW 8532   3.112   2.340   7.343  0.3835 -0.1675  0.1369
 1387Sol     OW 8533   0.191   1.308   1.959 -0.1912 -0.3575 -0.0068
 1387Sol     HW 8534   0.273   1.355   1.943  0.6770 -1.6960  0.4370
 1387Sol     HW 8535   0.203   1.268   2.045 -1.4824 -0.2168  0.2406
 1387Sol     MW 8536   0.199   1.309   1.965 -0.2429 -0.1094 -0.5882
 1388Sol     OW 8537   0.786   1.133   5.033 -0.4927 -0.3286 -0.5515
 1388Sol     HW 8538   0.852   1.066   5.050  1.3053  1.6570  0.6091
 1388Sol     HW 8539   0.836   1.206   4.995 -2.3641  0.4310 -1.5992
 1388Sol     MW 8540   0.796   1.134   5.031 -0.4216 -0.5892  0.2172
 1389Sol     OW 8541   1.528   1.464   7.921 -0.1248  0.0806  0.2062
 1389Sol     HW 8542   1.433   1.450   7.925 -0.1336  0.0424 -0.1164
 1389Sol     HW 8543   1.538   1.541   7.866  0.0972 -0.7266 -0.9039
 1389Sol     MW 8544   1.520   1.469   7.916  0.2629 -0.3966  0.0940
 1390Sol     OW 8545   2.715   2.128   9.486 -0.0947 -0.7691 -0.8055
 1390Sol     HW 8546   2.685   2.187   9.417 -2.4112 -1.0369 -0.0611
 1390Sol     HW 8547   2.748   2.186   9.555  0.0067 -0.4309 -1.1398
 1390Sol     MW 8548   2.715   2.138   9.486  0.7282  0.5412 -0.2314
 1391Sol     OW 8549   2.232   0.370   8.205  0.3028  0.0076  0.4407
 1391Sol     HW 8550   2.142   0.356   8.173  0.2480  0.6704  0.2861
 1391Sol     HW 8551   2.276   0.414   8.132  0.0349  2.0064  1.4411
 1391Sol     MW 8552   2.228   0.373   8.195  0.3000  0.5469 -0.5116
 1392Sol     OW 8553   2.805   1.765   9.566  0.0173  0.6149 -0.5937
 1392Sol     HW 8554   2.892   1.797   9.590  0.5566 -1.0609 -0.2531
 1392Sol     HW 8555   2.746   1.803   9.630  0.7516  0.3093  0.2701
 1392Sol     MW 8556   2.808   1.771   9.574  0.6494  0.4993 -0.1569
 1393Sol     OW 8557   1.546   0.149   7.934 -0.0002 -0.1159  0.1951
 1393Sol     HW 8558   1.526   0.135   8.026  1.4092  0.9894  0.7015
 1393Sol     HW 8559   1.638   0.126   7.926  0.2033  0.9580 -0.6699
 1393Sol     MW 8560   1.552   0.146   7.942  0.1126  0.5689 -0.6540
 1394Sol     OW 8561   0.389   2.063   9.816  0.3821  0.0437  0.5363
 1394Sol     HW 8562   0.477   2.097   9.798 -0.2693  1.3137 -0.3311
 1394Sol     HW 8563   0.381   1.986   9.759  0.9148 -0.0734  0.6117
 1394Sol     MW 8564   0.396   2.059   9.810 -0.8547 -0.0542  0.0516
 1395Sol     OW 8565   1.882   1.738   6.458 -0.2677 -0.1687  0.5158
 1395Sol     HW 8566   1.799   1.743   6.411  0.0759 -1.9714 -0.3206
 1395Sol     HW 8567   1.881   1.813   6.518 -1.9199  0.5518 -0.4037
 1395Sol     MW 8568   1.875   1.746   6.460 -0.7866  0.2421  0.6029
 1396Sol     OW 8569   2.296   0.752   8.874  0.3355  0.6307  0.3499
 1396Sol     HW 8570   2.270   0.781   8.962  0.1235 -1.1692  0.9003
 1396Sol     HW 8571   2.321   0.661   8.886 -0.5772  0.1086 -1.6537
 1396Sol     MW 8572   2.296   0.747   8.883  0.7998  1.0289  0.2469
 1397Sol     OW 8573   2.017   1.142   2.216 -0.1889 -0.1298 -0.0763
 1397Sol     HW 8574   2.056   1.198   2.283 -2.2452 -0.7633  1.7229
 1397Sol     HW 8575   1.927   1.174   2.207  0.0711  0.0042 -2.6465
 1397Sol     MW 8576   2.012   1.150   2.221  0.4109 -0.1075 -0.3984
 1398Sol     OW 8577   2.252   2.172   2.601 -0.2618 -0.0632 -0.5491
 1398Sol     HW 8578   2.170   2.149   2.558 -0.5195 -0.0836 -0.0443
 1398Sol     HW 8579   2.310   2.198   2.529 -0.4282 -0.8753 -0.9925
 1398Sol     MW 8580   2.250   2.172   2.591 -0.6273 -0.5479 -0.5497
 1399Sol     OW 8581   1.959   2.050   2.961  0.0534  0.1770 -0.0662
 1399Sol     HW 8582   1.921   2.134   2.937 -1.2750 -0.2561  0.4425
 1399Sol     HW 8583   2.051   2.068   2.980  0.5677  0.9625 -3.0520
 1399Sol     MW 8584   1.964   2.059   2.960  0.4189  0.0628  0.7226
 1400Sol     OW 8585   1.291   1.675   6.694  0.7617  0.1647 -0.2956
 1400Sol     HW 8586   1.281   1.756   6.644 -0.8189 -0.8473 -1.6487
 1400Sol     HW 8587   1.377   1.684   6.736  1.4392  1.7154 -1.9341
 1400Sol     MW 8588   1.298   1.683   6.693 -0.4473  0.4104  0.4755
 1401Sol     OW 8589   0.944   0.380   1.692 -0.2375  0.0831 -0.5405
 1401Sol     HW 8590   1.017   0.428   1.654  0.2719  0.6413  1.0874
 1401Sol     HW 8591   0.983   0.300   1.728 -1.0233 -1.4139 -2.8998
 1401Sol     MW 8592   0.954   0.377   1.692 -0.0593 -0.3305 -0.3568
 1402Sol     OW 8593   0.295   2.083   8.679  1.0093  0.5521 -0.0002
 1402Sol     HW 8594   0.268   2.065   8.769  0.4610 -2.0162 -0.6232
 1402Sol     HW 8595   0.217   2.119   8.637  0.9792  0.8405  0.3023
 1402Sol     MW 8596   0.286   2.085   8.683  0.1420 -0.2294  0.1364
 1403Sol     OW 8597   1.779   0.709   9.134  0.3411  0.0546 -0.6587
 1403Sol     HW 8598   1.839   0.664   9.194 -1.0506 -2.1057 -0.8300
 1403Sol     HW 8599   1.725   0.765   9.191 -0.3820 -1.3110  0.0279
 1403Sol     MW 8600   1.780   0.710   9.145  0.4692 -0.2581  0.2685
 1404Sol     OW 8601   2.572   3.234   6.308  0.1603  0.5055 -0.0022
 1404Sol     HW 8602   2.489   3.252   6.352 -0.2217 -0.5819 -0.2486
 1404Sol     HW 8603   2.603   3.320   6.279 -0.7637  0.9532  0.2930
 1404Sol     MW 8604   2.567   3.243   6.309 -0.0486 -0.2856  0.2507
 1405Sol     OW 8605   2.618   0.619   5.246  0.2287 -0.3437 -0.5609
 1405Sol     HW 8606   2.589   0.549   5.188 -1.5805 -0.0895  0.0226
 1405Sol     HW 8607   2.606   0.699   5.194  2.2768 -0.4414 -1.2217
 1405Sol     MW 8608   2.614   0.620   5.236 -0.0650  0.2917 -0.1677
 1406Sol     OW 8609   0.827   0.436   4.698  0.6049 -0.3077  0.2760
 1406Sol     HW 8610   0.921   0.424   4.702  1.0278  2.3736 -0.7717
 1406Sol     HW 8611   0.809   0.508   4.760 -0.9710 -1.8151  1.6373
 1406Sol     MW 8612   0.833   0.441   4.704  0.8691  0.5872 -0.2231
 1407Sol     OW 8613   1.259   3.270   4.802  0.2574  0.2068  0.6322
 1407Sol     HW 8614   1.334   3.328   4.790 -0.4781  1.3129  1.3332
 1407Sol     HW 8615   1.243   3.270   4.896 -0.9160  0.3527  0.4430
 1407Sol     MW 8616   1.264   3.275   4.809 -0.6862  0.4353 -0.2179
 1408Sol     OW 8617   3.065   2.642   9.110 -0.1937 -0.5747  0.8182
 1408Sol     HW 8618   3.053   2.549   9.129  0.5904 -0.5495  1.4653
 1408Sol     HW 8619   3.122   2.644   9.033 -0.8953 -0.6341  0.2902
 1408Sol     MW 8620   3.069   2.634   9.105 -0.1492 -0.2120 -0.0861
 1409Sol     OW 8621   2.171   0.534   2.712 -0.7027 -0.1120  0.4377
 1409Sol     HW 8622   2.188   0.544   2.806 -0.2445 -1.6589  0.5335
 1409Sol     HW 8623   2.118   0.455   2.706  0.9594 -1.1515 -0.7778
 1409Sol     MW 8624   2.168   0.528   2.720 -0.2381  0.3298  0.6256
 1410Sol     OW 8625   0.252   3.166   8.183 -0.7180 -0.2772  0.3204
 1410Sol     HW 8626   0.300   3.239   8.145  1.0661 -1.2588  0.6143
 1410Sol     HW 8627   0.194   3.135   8.113  0.2154 -0.0515 -0.5596
 1410Sol     MW 8628   0.251   3.170   8.173  0.2177  0.2766  1.1318
 1411Sol     OW 8629   3.282   0.311   3.456 -0.0147 -0.3011  0.0755
 1411Sol     HW 8630   3.352   0.368   3.425  0.4807 -1.2565 -0.5436
 1411Sol     HW 8631   3.235   0.285   3.377 -0.3665 -0.5958  0.3785
 1411Sol     MW 8632   3.284   0.314   3.447 -0.5478 -0.5799  0.9878
 1412Sol     OW 8633   1.900   2.626   7.168 -0.0236  0.4094 -0.0247
 1412Sol     HW 8634   1.916   2.718   7.148 -1.0721  0.7758  0.7769
 1412Sol     HW 8635   1.827   2.627   7.230 -1.1441 -1.0509 -1.2739
 1412Sol     MW 8636   1.895   2.635   7.172 -0.1592  0.0843 -0.3390
 1413Sol     OW 8637   2.910   2.644   3.941 -0.2266  0.2054  0.2832
 1413Sol     HW 8638   2.862   2.595   3.874 -0.8739 -2.3990  2.5873
 1413Sol     HW 8639   2.845   2.665   4.007  1.6029 -3.3440  3.4457
 1413Sol     MW 8640   2.900   2.641   3.941  0.5390  0.2004 -0.4442
 1414Sol     OW 8641   0.059   0.163   1.580  0.5427 -0.2215 -0.2083
 1414Sol     HW 8642   0.104   0.230   1.632  1.7059 -0.8584 -0.3943
 1414Sol     HW 8643  -0.032   0.166   1.611  1.4513 -1.4175  2.7104
 1414Sol     MW 8644   0.055   0.170   1.587  0.3948 -0.4605  0.3748
 1415Sol     OW 8645   0.275   1.876   4.320  0.1975 -0.0881  0.0106
 1415Sol     HW 8646   0.283   1.969   4.338  0.7632  0.2753 -2.0114
 1415Sol     HW 8647   0.188   1.853   4.352  0.0137  1.1426  0.4246
 1415Sol     MW 8648   0.268   1.882   4.324 -0.0863 -0.1825  0.8666
 1416Sol     OW 8649   0.560   0.566   9.253  0.5309 -0.0681 -0.1275
 1416Sol     HW 8650   0.533   0.569   9.345 -0.7980 -0.6159 -0.4914
 1416Sol     HW 8651   0.597   0.653   9.236  1.0105 -0.0468  0.9872
 1416Sol     MW 8652   0.561   0.574   9.260 -0.0258 -0.3980 -0.0308
 1417Sol     OW 8653   0.507   2.427   1.447  0.1285 -0.1519 -0.1728
 1417Sol     HW 8654   0.517   2.332   1.442 -0.6763 -0.2188 -0.5422
 1417Sol     HW 8655   0.417   2.443   1.419  0.0529  0.6682  0.5329
 1417Sol     MW 8656   0.500   2.420   1.444 -0.2258 -0.6116 -0.0924
 1418Sol     OW 8657   1.950   0.718   8.674  0.4001 -0.1054  0.0341
 1418Sol     HW 8658   2.045   0.714   8.685  0.1082 -0.7107  2.7343
 1418Sol     HW 8659   1.915   0.713   8.763 -2.1288  1.5859 -0.7988
 1418Sol     MW 8660   1.955   0.717   8.683 -0.1303  0.2608 -0.1695
 1419Sol     OW 8661   2.072   2.133   8.480 -0.2241 -0.2428  0.3881
 1419Sol     HW 8662   2.155   2.128   8.433 -0.2251 -0.7110  0.4405
 1419Sol     HW 8663   2.089   2.094   8.565  0.9199  4.2769  2.4124
 1419Sol     MW 8664   2.081   2.129   8.483  0.2824  0.7132  0.1113
 1420Sol     OW 8665   2.414   0.225   3.526  0.4746  0.3846 -0.5047
 1420Sol     HW 8666   2.350   0.165   3.563  2.4530 -2.0809 -0.9304
 1420Sol     HW 8667   2.492   0.172   3.512  2.5697  3.2457 -0.2164
 1420Sol     MW 8668   2.415   0.215   3.528  0.2030  0.1979  0.2938
 1421Sol     OW 8669   1.946   2.365   3.884 -0.1371 -0.5024 -0.6929
 1421Sol     HW 8670   1.876   2.306   3.856  0.0423 -0.5118 -1.1189
 1421Sol     HW 8671   2.023   2.335   3.836  0.5645 -1.5754  1.0560
 1421Sol     MW 8672   1.946   2.357   3.877 -0.7432 -0.2567 -0.1251
 1422Sol     OW 8673   1.253   0.970   9.510 -0.0093  0.1979 -0.5158
 1422Sol     HW 8674   1.302   0.983   9.429  1.2382  2.7101  0.5835
 1422Sol     HW 8675   1.248   0.875   9.521  2.0298 -0.1251 -2.2036
 1422Sol     MW 8676   1.257   0.963   9.504  0.1188 -0.6854 -0.5385
 1423Sol     OW 8677   1.510   1.268   7.157  0.6197  0.1006  0.2293
 1423Sol     HW 8678   1.458   1.215   7.216 -1.2771  1.9990  0.3036
 1423Sol     HW 8679   1.596   1.226   7.157 -0.1286 -1.5012  2.1922
 1423Sol     MW 8680   1.513   1.260   7.162  0.3834  0.2428  0.6460
 1424Sol     OW 8681   2.169   0.013   2.835  0.0170 -0.5382 -0.1620
 1424Sol     HW 8682   2.093  -0.033   2.798  0.5913 -0.5960 -1.2880
 1424Sol     HW 8683   2.133   0.064   2.908 -1.2532  0.1723 -1.2708
 1424Sol     MW 8684   2.159   0.013   2.838  0.4509 -0.4421  0.3194
 1425Sol     OW 8685   3.089   0.618   8.716 -0.4279  0.4286  0.4215
 1425Sol     HW 8686   3.049   0.537   8.684  1.0555  0.0538 -0.5442
 1425Sol     HW 8687   3.183   0.605   8.702 -0.1545  2.1932  0.5588
 1425Sol     MW 8688   3.094   0.609   8.712 -0.1182 -0.1345 -0.1491
 1426Sol     OW 8689   0.211   0.831   7.170 -0.1332 -0.8924  0.0838
 1426Sol     HW 8690   0.196   0.820   7.264 -0.6898  1.7965  0.3555
 1426Sol     HW 8691   0.123   0.847   7.133 -0.0812 -3.1512 -1.1037
 1426Sol     MW 8692   0.201   0.831   7.175  0.4850 -0.2926  0.0310
 1427Sol     OW 8693   0.377   0.376   7.510  0.5727  0.0041  0.0639
 1427Sol     HW 8694   0.454   0.334   7.472  0.1503 -1.1342  0.4275
 1427Sol     HW 8695   0.356   0.322   7.586 -1.3130 -0.4439 -0.7424
 1427Sol     MW 8696   0.382   0.367   7.513 -0.2689  0.3538  0.4635
 1428Sol     OW 8697   2.375   0.620   7.376  0.0933  1.1600  0.0995
 1428Sol     HW 8698   2.315   0.694   7.370 -2.2847 -0.7532 -0.7011
 1428Sol     HW 8699   2.423   0.621   7.293  0.3432  2.0415  0.2580
 1428Sol     MW 8700   2.374   0.626   7.368 -0.2317  0.1323 -0.0156
 1429Sol     OW 8701   0.698   2.202   5.388 -0.0656  0.0455  0.0361
 1429Sol     HW 8702   0.750   2.259   5.332 -0.6616  0.2163 -0.3493
 1429Sol     HW 8703   0.658   2.139   5.327 -2.2837  1.4293  0.0161
 1429Sol     MW 8704   0.699   2.201   5.377 -0.0647 -0.3646 -0.4081
 1430Sol     OW 8705   2.441   2.844   7.456  1.0406  0.2789 -0.4393
 1430Sol     HW 8706   2.453   2.793   7.536 -0.5206 -0.5623 -0.7182
 1430Sol     HW 8707   2.427   2.778   7.388 -2.5287  1.0710 -0.5611
 1430Sol     MW 8708   2.441   2.833   7.457  0.3974  0.1648 -0.3864
 1431Sol     OW 8709   3.043   3.216   8.033  0.3009  0.3895 -0.0711
 1431Sol     HW 8710   3.105   3.179   8.096 -1.1055  0.1336  1.1862
 1431Sol     HW 8711   2.985   3.143   8.011 -1.8289  1.5627  1.5963
 1431Sol     MW 8712   3.044   3.206   8.036  0.8683 -0.3545 -0.4758
 1432Sol     OW 8713   0.685   0.652   4.826 -0.1871  0.8511 -0.1435
 1432Sol     HW 8714   0.604   0.601   4.815  0.4042 -0.3516  0.8996
 1432Sol     HW 8715   0.658   0.743   4.812 -1.7043  0.4598  0.0991
 1432Sol     MW 8716   0.675   0.655   4.824  0.0137  0.6324  1.1196
 1433Sol     OW 8717   1.182   0.832   2.249 -0.7269 -0.7332  0.1308
 1433Sol     HW 8718   1.162   0.745   2.283  0.3476 -0.2210  2.1685
 1433Sol     HW 8719   1.150   0.892   2.317 -0.1055  0.3786 -0.5412
 1433Sol     MW 8720   1.178   0.830   2.258  0.1852 -0.4618  0.7688
 1434Sol     OW 8721   2.280   0.813   5.158 -0.0300 -0.5322 -0.5927
 1434Sol     HW 8722   2.270   0.721   5.184 -0.6243 -0.2864  0.0512
 1434Sol     HW 8723   2.197   0.853   5.181  0.0436  0.0566 -1.3567
 1434Sol     MW 8724   2.272   0.808   5.162  0.5054 -0.5881 -0.1553
 1435Sol     OW 8725   2.196   2.609   2.670  0.4047 -0.4493 -0.7346
 1435Sol     HW 8726   2.153   2.695   2.670 -0.7357 -0.9642  1.9148
 1435Sol     HW 8727   2.144   2.556   2.610 -1.5989 -0.5324  1.0341
 1435Sol     MW 8728   2.188   2.612   2.665  0.1691  0.4453  0.1016
 1436Sol     OW 8729   2.044   0.653   8.006  0.1539  0.4601 -0.1563
 1436Sol     HW 8730   2.021   0.598   7.931 -0.5018 -0.7392  0.8933
 1436Sol     HW 8731   2.138   0.638   8.019  0.3318  0.9051 -0.9180
 1436Sol     MW 8732   2.050   0.646   8.000  0.3451 -0.2737 -1.0435
 1437Sol     OW 8733   0.999   0.509   9.017  0.2745 -0.3885 -0.1247
 1437Sol     HW 8734   1.041   0.550   9.092  0.0825  0.1765 -0.3233
 1437Sol     HW 8735   1.042   0.548   8.941 -1.9362  1.6972 -0.3865
 1437Sol     MW 8736   1.006   0.516   9.017 -0.1505  0.3623  0.3575
 1438Sol     OW 8737   2.329   2.066   5.408 -0.3113 -0.0329  0.1500
 1438Sol     HW 8738   2.247   2.115   5.416 -1.1798 -1.6529  1.6557
 1438Sol     HW 8739   2.382   2.098   5.482  0.1856  0.5637 -0.4575
 1438Sol     MW 8740   2.326   2.074   5.416 -0.6814 -0.6012  0.6111
 1439Sol     OW 8741   0.933   2.777   2.327  0.3916  0.4532  0.1461
 1439Sol     HW 8742   0.930   2.728   2.245  0.5208  0.0423  0.3840
 1439Sol     HW 8743   0.846   2.766   2.365  0.0995  1.2445 -0.2783
 1439Sol     MW 8744   0.925   2.772   2.323  0.0934  0.0476 -0.2776
 1440Sol     OW 8745   0.881   0.893   4.331 -0.6105 -0.2584 -0.1922
 1440Sol     HW 8746   0.864   0.889   4.425 -0.1468  1.0268 -0.0463
 1440Sol     HW 8747   0.944   0.964   4.320 -1.7994  0.6325 -1.6174
 1440Sol     MW 8748   0.885   0.899   4.338 -0.1253  0.4322  0.4040
 1441Sol     OW 8749   1.512   0.438   4.818  0.4333  0.0138  0.4591
 1441Sol     HW 8750   1.524   0.473   4.906 -0.4036  1.2682  0.0886
 1441Sol     HW 8751   1.440   0.376   4.826  0.4168  0.0605  0.6739
 1441Sol     MW 8752   1.507   0.436   4.826  0.8614  0.0785  1.2597
 1442Sol     OW 8753   2.234   0.767   9.164 -0.3819  0.2549 -0.0037
 1442Sol     HW 8754   2.307   0.711   9.190 -1.2127 -0.5129  0.7061
 1442Sol     HW 8755   2.166   0.750   9.230 -2.4300 -1.4970 -2.4384
 1442Sol     MW 8756   2.234   0.760   9.173  0.6877  0.4016 -0.3808
 1443Sol     OW 8757   2.266   2.054   3.303  0.3050  1.0761 -0.2452
 1443Sol     HW 8758   2.220   2.126   3.346  0.0489 -0.9614  3.0559
 1443Sol     HW 8759   2.242   1.976   3.353  3.2586 -0.8393 -1.6267
 1443Sol     MW 8760   2.260   2.053   3.311 -0.4695  0.5044 -0.4832
 1444Sol     OW 8761   1.119   3.205   6.209  0.5802  0.3478 -0.0345
 1444Sol     HW 8762   1.205   3.230   6.176  0.4671  0.9423  0.1146
 1444Sol     HW 8763   1.067   3.285   6.204  0.9391  0.8335  2.8352
 1444Sol     MW 8764   1.122   3.214   6.206  0.6392 -0.2205  0.2399
 1445Sol     OW 8765   3.206   1.258   4.779  0.3016 -0.4058  0.0591
 1445Sol     HW 8766   3.279   1.310   4.811 -0.1900  0.4461 -0.1606
 1445Sol     HW 8767   3.143   1.323   4.747 -1.3757 -1.0195  1.9967
 1445Sol     MW 8768   3.207   1.269   4.779 -0.1093 -0.1872  0.4192
 1446Sol     OW 8769   3.259   0.903   9.460  0.0764 -0.1738 -0.0331
 1446Sol     HW 8770   3.261   0.999   9.457  1.4198 -0.1962 -0.2716
 1446Sol     HW 8771   3.185   0.878   9.404 -0.4118  0.7224  0.2073
 1446Sol     MW 8772   3.252   0.909   9.455  0.3699 -0.1167  0.6031
 1447Sol     OW 8773   2.447   1.314   6.590 -0.7274 -0.2460  0.8596
 1447Sol     HW 8774   2.536   1.282   6.582  0.1547  2.2426  0.3275
 1447Sol     HW 8775   2.398   1.267   6.522  0.4290 -0.7196  0.3515
 1447Sol     MW 8776   2.450   1.307   6.584 -0.6043  0.6965 -0.3968
 1448Sol     OW 8777   2.064   3.065   8.631  0.4638 -0.3887 -0.0956
 1448Sol     HW 8778   2.123   3.006   8.584 -1.6166 -0.6896 -2.4250
 1448Sol     HW 8779   2.001   3.007   8.675 -1.8100  0.0041 -2.6840
 1448Sol     MW 8780   2.063   3.055   8.631  0.6158 -0.3091  0.2388
 1449Sol     OW 8781   1.906   3.399   4.197 -0.5119 -0.5560  0.1556
 1449Sol     HW 8782   1.929   3.314   4.233  1.9206  0.8824  2.1459
 1449Sol     HW 8783   1.970   3.415   4.128 -1.3360 -0.5727 -0.6299
 1449Sol     MW 8784   1.913   3.393   4.194 -0.6228 -0.0427  0.1704
 1450Sol     OW 8785   2.390   1.661   1.546  0.6879  0.0628 -0.4544
 1450Sol     HW 8786   2.460   1.660   1.481  0.7579  0.6344 -0.3933
 1450Sol     HW 8787   2.329   1.729   1.515  0.4776  0.0029 -0.1789
 1450Sol     MW 8788   2.390   1.667   1.537 -0.0052  0.8010  0.4423
 1451Sol     OW 8789   2.882   1.261   3.961  0.3989  0.2164  0.7030
 1451Sol     HW 8790   2.938   1.251   4.037  1.1173  0.3904  0.2016
 1451Sol     HW 8791   2.925   1.327   3.907 -0.0285 -0.0009  0.0771
 1451Sol     MW 8792   2.891   1.266   3.963  0.7612  0.0326  0.1084
 1452Sol     OW 8793   0.992   2.868   7.656  0.1995 -0.3395 -0.3258
 1452Sol     HW 8794   0.941   2.898   7.732  0.5782 -2.1590  0.6873
 1452Sol     HW 8795   0.978   2.935   7.590 -1.9723  0.1637  0.5899
 1452Sol     MW 8796   0.986   2.877   7.657  0.0925 -0.0221 -0.4350
 1453Sol     OW 8797   2.736   2.541   7.305  0.5313 -0.2338 -0.1330
 1453Sol     HW 8798   2.795   2.599   7.354  1.7003 -0.7608 -0.8940
 1453Sol     HW 8799   2.794   2.477   7.265 -0.7080 -1.6166  0.2553
 1453Sol     MW 8800   2.747   2.541   7.306  0.9223 -0.4062 -1.2977
 1454Sol     OW 8801   1.388   1.107   2.623  0.5148  0.6939 -0.8094
 1454Sol     HW 8802   1.321   1.117   2.555  0.3754 -0.0998 -0.7978
 1454Sol     HW 8803   1.367   1.175   2.687 -0.2341  0.5113 -0.8470
 1454Sol     MW 8804   1.380   1.114   2.623  0.8174 -0.0090  0.4130
 1455Sol     OW 8805   0.948   2.357   4.627 -0.4711  1.2825  0.1480
 1455Sol     HW 8806   0.960   2.275   4.579 -0.3204 -0.4409  3.0181
 1455Sol     HW 8807   0.858   2.384   4.606 -0.7058  0.1039 -0.3916
 1455Sol     MW 8808   0.941   2.352   4.621  0.1883 -0.1593  1.0248
 1456Sol     OW 8809   2.026   2.520   2.950 -0.2417  0.1677  0.2912
 1456Sol     HW 8810   2.093   2.472   2.901  0.3355 -0.8532  1.9971
 1456Sol     HW 8811   2.006   2.462   3.024 -1.3826  1.4645  1.0046
 1456Sol     MW 8812   2.031   2.510   2.953 -0.2062 -0.0784  0.1923
 1457Sol     OW 8813   2.793   1.538   8.290  0.1241 -0.3379 -0.3821
 1457Sol     HW 8814   2.889   1.536   8.287  0.2552  1.1750  2.0639
 1457Sol     HW 8815   2.770   1.474   8.357 -0.5338 -0.0132 -0.3003
 1457Sol     MW 8816   2.800   1.532   8.295  0.2652  0.0577 -0.1150
 1458Sol     OW 8817   1.752   2.127   8.998 -0.4081  0.0011  0.2044
 1458Sol     HW 8818   1.812   2.073   8.947 -0.5412 -0.4110  0.4865
 1458Sol     HW 8819   1.770   2.217   8.969  0.9576 -0.0369  0.9305
 1458Sol     MW 8820   1.759   2.130   8.991  0.3223  0.0928 -0.9425
 1459Sol     OW 8821   2.630   0.082   5.942 -0.1829  0.2413  0.7973
 1459Sol     HW 8822   2.644   0.145   5.872  0.3895  0.0733  0.7576
 1459Sol     HW 8823   2.718   0.055   5.968 -0.4275 -0.8907  0.4887
 1459Sol     MW 8824   2.639   0.085   5.938  0.0440 -0.7201 -0.6088
 1460Sol     OW 8825   0.813   2.563   8.841  0.3471 -0.4421 -0.4034
 1460Sol     HW 8826   0.861   2.646   8.843 -0.0652 -0.1978 -0.4738
 1460Sol     HW 8827   0.732   2.581   8.890 -0.5161 -0.3040 -1.8251
 1460Sol     MW 8828   0.810   2.572   8.846 -0.0213  0.1326 -0.1642
 1461Sol     OW 8829   0.994   1.161   1.352 -0.6772  0.3917 -0.0839
 1461Sol     HW 8830   1.066   1.104   1.327 -0.8830 -0.9258  2.2152
 1461Sol     HW 8831   1.003   1.172   1.447 -2.5203  1.5828 -0.0120
 1461Sol     MW 8832   1.001   1.157   1.359 -0.0958  0.2571  0.9873
 1462Sol     OW 8833   2.406   3.316   4.720 -0.2597  0.2125 -0.2851
 1462Sol     HW 8834   2.425   3.391   4.775 -0.4239  1.0868 -1.4101
 1462Sol     HW 8835   2.489   3.268   4.713 -0.6019 -0.7588  1.9822
 1462Sol     MW 8836   2.415   3.318   4.724  0.4364 -0.0354 -0.6539
 1463Sol     OW 8837   2.270   0.003   3.345 -0.1451  0.1714 -0.0214
 1463Sol     HW 8838   2.217   0.009   3.424  0.3418 -0.9955  0.4030
 1463Sol     HW 8839   2.327  -0.073   3.359 -0.9941 -0.8909 -2.0423
 1463Sol     MW 8840   2.271  -0.003   3.353  0.1202 -0.5628  0.3314
 1464Sol     OW 8841   3.105   2.042   2.049  0.0041 -0.4884  0.4826
 1464Sol     HW 8842   3.081   2.123   2.005 -0.8230  0.1317  2.0350
 1464Sol     HW 8843   3.057   1.973   2.003 -1.3824  0.2315  0.8496
 1464Sol     MW 8844   3.099   2.043   2.041 -0.4011 -0.4295 -0.5734
 1465Sol     OW 8845   2.512   0.862   2.599 -0.3777  0.0461 -0.2653
 1465Sol     HW 8846   2.423   0.829   2.588 -0.5617  0.5497 -0.2634
 1465Sol     HW 8847   2.556   0.841   2.516 -0.8878  1.0542 -0.7922
 1465Sol     MW 8848   2.508   0.857   2.591 -0.1579  0.3629  0.0801
 1466Sol     OW 8849   2.583   1.480   7.869 -0.1183 -0.3182  0.0573
 1466Sol     HW 8850   2.612   1.554   7.923 -1.6167  0.3734 -0.0703
 1466Sol     HW 8851   2.614   1.501   7.781 -1.6385  0.8008 -0.2315
 1466Sol     MW 8852   2.588   1.489   7.866 -0.3798 -0.0512 -0.0538
 1467Sol     OW 8853   0.941   2.559   7.175 -0.6798 -0.7095  0.0323
 1467Sol     HW 8854   1.021   2.508   7.164 -0.3180  0.3367 -2.5211
 1467Sol     HW 8855   0.972   2.647   7.196 -1.1625 -0.4337 -0.3956
 1467Sol     MW 8856   0.951   2.562   7.176  0.3869 -0.9087 -0.3680
 1468Sol     OW 8857   2.922   2.342   6.254 -0.5926  0.9680  0.1773
 1468Sol     HW 8858   2.869   2.398   6.310 -0.8789  1.0699 -0.1916
 1468Sol     HW 8859   2.870   2.263   6.243 -0.9292  1.2934 -0.6454
 1468Sol     MW 8860   2.913   2.340   6.258 -0.2736 -0.0936 -0.1142
 1469Sol     OW 8861   0.153   0.500   7.407 -0.2839  0.1141  0.2715
 1469Sol     HW 8862   0.170   0.594   7.406 -1.5788  0.3397 -1.3799
 1469Sol     HW 8863   0.239   0.461   7.423  0.3410  1.5523  0.5209
 1469Sol     MW 8864   0.162   0.505   7.408 -1.0309  0.0172 -0.1392
 1470Sol     OW 8865   0.979   0.796   5.485 -0.4706 -0.0783  0.8091
 1470Sol     HW 8866   0.968   0.777   5.578 -0.1500  1.6612  1.2174
 1470Sol     HW 8867   1.069   0.772   5.466 -0.5601 -0.5085  0.9277
 1470Sol     MW 8868   0.986   0.792   5.491 -0.7653  0.0984 -0.6291
 1471Sol     OW 8869   1.094   3.003   6.024  0.0604 -0.0006 -0.2240
 1471Sol     HW 8870   1.100   3.060   6.100  0.8079  1.2570 -1.2000
 1471Sol     HW 8871   1.000   3.003   6.002 -0.0906  0.0184  0.4031
 1471Sol     MW 8872   1.086   3.008   6.029  0.5684  0.0445  0.2546
 1472Sol     OW 8873   3.148   2.380   5.235  0.3918  0.5061  0.1044
 1472Sol     HW 8874   3.112   2.345   5.153 -1.9229  0.0095  1.2873
 1472Sol     HW 8875   3.171   2.303   5.286  0.6444  0.7910  0.4175
 1472Sol     MW 8876   3.146   2.370   5.232  0.1349 -0.3459  0.2551
 1473Sol     OW 8877   2.429   2.236   7.270 -0.1357  0.0933 -0.6359
 1473Sol     HW 8878   2.456   2.295   7.341 -0.1106 -0.5009 -0.1436
 1473Sol     HW 8879   2.362   2.181   7.310  0.4017 -0.7319 -0.8647
 1473Sol     MW 8880   2.426   2.237   7.280  0.1456 -0.0710 -0.1423
 1474Sol     OW 8881   0.371   0.282   7.802  0.2229 -0.4974 -0.3152
 1474Sol     HW 8882   0.276   0.275   7.813  0.3447 -0.9429  0.5027
 1474Sol     HW 8883   0.402   0.323   7.883  0.9294 -2.1146  0.2711
 1474Sol     MW 8884   0.365   0.285   7.810 -0.5150 -0.4169  0.2414
 1475Sol     OW 8885   1.495   0.928   3.626 -0.5406 -0.4779  0.1049
 1475Sol     HW 8886   1.526   0.839   3.611  0.8861  0.4071 -2.5780
 1475Sol     HW 8887   1.474   0.961   3.539 -0.3890  2.0357  0.9734
 1475Sol     MW 8888   1.496   0.923   3.617  0.3932  0.0024 -0.1011
 1476Sol     OW 8889   2.289   0.845   7.253  0.2460 -0.2192 -0.4594
 1476Sol     HW 8890   2.354   0.915   7.259 -0.5159  0.4015  0.9452
 1476Sol     HW 8891   2.222   0.879   7.195 -2.2681  2.0680  3.5584
 1476Sol     MW 8892   2.289   0.854   7.248  0.5282  0.1400  0.3321
 1477Sol     OW 8893   0.595   1.236   4.840 -0.3545  0.6218 -0.5897
 1477Sol     HW 8894   0.654   1.308   4.817 -0.1179  0.0317 -1.8825
 1477Sol     HW 8895   0.639   1.191   4.912  0.5202  0.5212 -1.1721
 1477Sol     MW 8896   0.604   1.239   4.845 -0.2765 -0.3824 -0.6873
 1478Sol     OW 8897   0.366   2.873   7.491  0.2827  0.5327 -0.5974
 1478Sol     HW 8898   0.406   2.868   7.578  0.0476  0.6744 -0.4829
 1478Sol     HW 8899   0.373   2.965   7.466  1.2694  0.3092 -1.1553
 1478Sol     MW 8900   0.370   2.881   7.497 -0.5266 -0.5238  0.0021
 1479Sol     OW 8901   1.889   3.361   9.026  0.3725 -0.5087  0.0611
 1479Sol     HW 8902   1.886   3.442   9.077 -2.0834 -1.1892  1.0725
 1479Sol     HW 8903   1.917   3.388   8.939 -1.5002  1.6175  0.0715
 1479Sol     MW 8904   1.891   3.371   9.023  0.3269  0.5295 -0.4306
 1480Sol     OW 8905   0.423   1.222   3.912 -0.3545  0.6256 -0.5088
 1480Sol     HW 8906   0.416   1.145   3.969  0.9981  0.8935  0.0380
 1480Sol     HW 8907   0.435   1.186   3.824 -2.4867  0.2120 -0.6716
 1480Sol     MW 8908   0.423   1.212   3.909 -0.1031  0.0081 -0.1324
 1481Sol     OW 8909   3.081   1.598   5.092 -0.9191 -0.6147  0.0618
 1481Sol     HW 8910   3.101   1.514   5.131  0.1977 -0.4865 -0.2201
 1481Sol     HW 8911   3.137   1.660   5.138  1.8690 -0.7302 -2.9977
 1481Sol     MW 8912   3.088   1.596   5.100  0.2424 -0.0180  0.0231
 1482Sol     OW 8913   0.537   1.320   2.205 -0.2861  0.0410 -0.3641
 1482Sol     HW 8914   0.590   1.399   2.215  2.0319 -1.2251 -2.1361
 1482Sol     HW 8915   0.547   1.274   2.288 -1.6215  1.5387  0.6692
 1482Sol     MW 8916   0.543   1.323   2.213 -0.1242 -0.7112 -0.4745
 1483Sol     OW 8917   0.630   0.806   7.985 -0.2460 -0.3031 -0.2786
 1483Sol     HW 8918   0.633   0.785   8.078  1.2901  0.5300 -0.1263
 1483Sol     HW 8919   0.580   0.734   7.946 -3.9769  1.1175  1.6496
 1483Sol     MW 8920   0.626   0.797   7.990 -0.4165 -0.4152  0.0394
 1484Sol     OW 8921   3.208   3.054   6.487  0.9362  0.4845 -0.1469
 1484Sol     HW 8922   3.269   3.124   6.511  1.4204  0.7766 -2.1692
 1484Sol     HW 8923   3.229   2.982   6.547  1.5609  1.4794  0.8330
 1484Sol     MW 8924   3.216   3.054   6.495  0.5547  0.1282  0.4269
 1485Sol     OW 8925   2.101   3.386   9.238  0.2443  0.2186  0.1007
 1485Sol     HW 8926   2.064   3.446   9.302  0.8944 -1.0223  1.6779
 1485Sol     HW 8927   2.040   3.312   9.237  0.2491  0.2217 -0.6998
 1485Sol     MW 8928   2.093   3.384   9.244  0.2432 -0.4944 -0.6279
 1486Sol     OW 8929   0.715   1.208   8.861  0.5156 -0.4986 -0.1640
 1486Sol     HW 8930   0.774   1.284   8.861 -2.3088  1.7963 -0.5465
 1486Sol     HW 8931   0.672   1.211   8.947  0.2892 -1.5833 -0.2356
 1486Sol     MW 8932   0.716   1.215   8.869  0.2780  0.4471  0.3166
 1487Sol     OW 8933   1.787   0.612   1.435  0.1996 -0.3874  0.2935
 1487Sol     HW 8934   1.774   0.705   1.454 -0.9252 -0.7018  1.1437
 1487Sol     HW 8935   1.710   0.587   1.384  0.5662 -0.8132 -0.0476
 1487Sol     MW 8936   1.779   0.618   1.432 -0.7004 -0.2061 -0.4571
 1488Sol     OW 8937   0.126   2.339   7.263 -0.0249 -0.0635  0.4853
 1488Sol     HW 8938   0.091   2.400   7.198  0.5436 -0.3868 -0.1290
 1488Sol     HW 8939   0.178   2.394   7.322  1.1969 -0.0737 -0.5679
 1488Sol     MW 8940   0.128   2.350   7.263 -0.1860 -0.4304 -0.1447
 1489Sol     OW 8941   1.502   2.315   1.671 -0.6534 -0.3582 -0.4144
 1489Sol     HW 8942   1.580   2.345   1.625 -1.0341 -0.1246 -0.9026
 1489Sol     HW 8943   1.476   2.389   1.727  0.1846 -0.8670  0.6766
 1489Sol     MW 8944   1.507   2.324   1.672 -0.1146  0.3219 -0.5483
 1490Sol     OW 8945   2.293   3.121   9.489 -0.0107 -0.2222  0.8758
 1490Sol     HW 8946   2.227   3.059   9.458 -0.0286  0.4848 -0.5442
 1490Sol     HW 8947   2.295   3.108   9.583 -1.5030 -0.9306  0.8357
 1490Sol     MW 8948   2.287   3.114   9.494  0.0111 -0.5006  0.2104
 1491Sol     OW 8949   1.802   0.163   9.980  0.4370 -0.1712 -0.6869
 1491Sol     HW 8950   1.728   0.150   9.921 -0.1965  1.6715 -0.3345
 1491Sol     HW 8951   1.792   0.096  10.047 -0.1036 -0.8334 -1.4168
 1491Sol     MW 8952   1.795   0.156   9.980 -0.2483  0.2150  0.2208
 1492Sol     OW 8953   1.954   1.586   2.453 -0.6684  0.1413 -0.3464
 1492Sol     HW 8954   1.995   1.630   2.527  0.6276  0.6793 -1.3624
 1492Sol     HW 8955   1.865   1.622   2.450 -0.8826 -0.2042  1.1833
 1492Sol     MW 8956   1.950   1.593   2.459 -0.1890 -0.1554  0.1996
 1493Sol     OW 8957   1.543   2.979   6.829  0.0226  0.0419 -0.1661
 1493Sol     HW 8958   1.628   2.939   6.811 -0.3231  0.1689 -2.1605
 1493Sol     HW 8959   1.483   2.905   6.842  0.2457 -0.0502  0.3481
 1493Sol     MW 8960   1.545   2.969   6.829  0.3871 -0.3160 -0.5875
 1494Sol     OW 8961   0.788   3.295   6.007  0.3176 -0.1201 -0.5968
 1494Sol     HW 8962   0.867   3.336   5.974  1.3167 -1.3702  0.1793
 1494Sol     HW 8963   0.764   3.230   5.941  1.0332 -1.0514  0.0381
 1494Sol     MW 8964   0.793   3.293   5.998  1.2559  0.2972 -0.2369
 1495Sol     OW 8965   2.848   2.214   6.642 -0.7914  0.2726 -0.2125
 1495Sol     HW 8966   2.841   2.288   6.582 -1.4069  0.4323  0.0540
 1495Sol     HW 8967   2.887   2.144   6.590  0.2573  0.9310 -0.3376
 1495Sol     MW 8968   2.851   2.214   6.632 -0.6359 -0.3097  0.3496
 1496Sol     OW 8969   2.187   1.003   5.788 -0.5356 -0.2192 -0.3956
 1496Sol     HW 8970   2.182   1.025   5.882  1.5873  1.0807 -0.5416
 1496Sol     HW 8971   2.251   0.931   5.784 -0.7512 -0.3831 -0.8209
 1496Sol     MW 8972   2.193   0.999   5.796  0.7879 -0.6159 -0.6242
 1497Sol     OW 8973   1.272   0.535   3.619  0.1765  0.2820 -0.0798
 1497Sol     HW 8974   1.288   0.445   3.593 -1.5690 -0.2393  0.5647
 1497Sol     HW 8975   1.187   0.557   3.579 -1.0625  0.4734  2.5311
 1497Sol     MW 8976   1.265   0.529   3.613  0.2033  0.2291 -0.0348
 1498Sol     OW 8977   2.827   1.842   5.169 -0.0489  0.6802  0.2960
 1498Sol     HW 8978   2.793   1.772   5.225 -0.7689 -0.6932 -1.8064
 1498Sol     HW 8979   2.919   1.819   5.155  0.7362  2.1888  2.6111
 1498Sol     MW 8980   2.832   1.834   5.173 -0.0106  0.0388 -0.2231
 1499Sol     OW 8981   0.546   2.270   7.190  0.6626 -0.0190  0.5398
 1499Sol     HW 8982   0.504   2.197   7.235 -0.5055  0.3560  0.0760
 1499Sol     HW 8983   0.559   2.238   7.100 -1.8583  1.1086 -0.2477
 1499Sol     MW 8984   0.544   2.260   7.186 -0.7478 -0.5303 -0.4914
 1500Sol     OW 8985   2.530   2.084   4.456 -0.4113 -0.1583 -0.0885
 1500Sol     HW 8986   2.549   2.137   4.533 -0.5307  1.2118 -0.9921
 1500Sol     HW 8987   2.449   2.038   4.479 -0.6500  0.5221  0.4628
 1500Sol     MW 8988   2.524   2.084   4.465  0.1790  0.3108  0.2825
 1501Sol     OW 8989   1.442   2.224   2.976  0.0063 -0.8361  0.2123
 1501Sol     HW 8990   1.519   2.232   3.033 -0.8984  1.0388  1.2408
 1501Sol     HW 8991   1.441   2.306   2.927 -0.4924 -1.5043 -0.9014
 1501Sol     MW 8992   1.449   2.232   2.977 -0.8687 -0.4025  0.1167
 1502Sol     OW 8993   0.938   3.447   9.237 -0.0454 -0.7807 -0.2189
 1502Sol     HW 8994   0.889   3.499   9.173 -0.6750  1.0059  1.6637
 1502Sol     HW 8995   0.878   3.436   9.310  1.5268 -0.6149  1.1318
 1502Sol     MW 8996   0.928   3.451   9.237 -0.5652 -0.1295 -0.5151
 1503Sol     OW 8997   2.488   1.159   9.757 -0.3010  0.1022 -0.6036
 1503Sol     HW 8998   2.456   1.248   9.743 -0.7403 -0.4301 -3.3962
 1503Sol     HW 8999   2.569   1.170   9.806 -1.5183  1.8776  1.0902
 1503Sol     MW 9000   2.492   1.168   9.760  0.3212 -0.1333 -0.4496
 1504Sol     OW 9001   2.222   2.895   3.446 -0.2855  0.4556 -0.1791
 1504Sol     HW 9002   2.221   2.840   3.368 -0.6243  0.9778 -0.5472
 1504Sol     HW 9003   2.304   2.873   3.490 -0.7899 -0.9241  0.0933
 1504Sol     MW 9004   2.229   2.888   3.443  0.0144 -0.2122  0.2560
 1505Sol     OW 9005   0.593   2.508   5.874 -0.2756 -0.4864 -0.4826
 1505Sol     HW 9006   0.617   2.556   5.795 -1.2170 -0.8735 -1.0142
 1505Sol     HW 9007   0.582   2.576   5.941 -0.5007 -0.0626 -0.9467
 1505Sol     MW 9008   0.594   2.518   5.873 -0.1036 -0.5713  0.1184
 1506Sol     OW 9009   3.301   3.009   8.544 -0.1988 -0.4182  0.4256
 1506Sol     HW 9010   3.206   3.003   8.546 -0.0836 -2.4122  1.8806
 1506Sol     HW 9011   3.325   2.979   8.457 -1.0055  2.6492 -0.9118
 1506Sol     MW 9012   3.295   3.006   8.537 -0.2479 -0.5326 -0.5721
 1507Sol     OW 9013   2.114   3.235   1.955 -0.2492  0.0499 -0.0018
 1507Sol     HW 9014   2.176   3.264   2.022  0.9045 -1.3921 -0.4231
 1507Sol     HW 9015   2.032   3.279   1.978  0.5544  0.8668  1.3898
 1507Sol     MW 9016   2.112   3.242   1.963 -1.2638  0.3159 -0.4369
 1508Sol     OW 9017   2.073   0.310   4.857  0.2818  0.2189  0.2682
 1508Sol     HW 9018   2.052   0.312   4.764  1.3864  1.4104  0.0233
 1508Sol     HW 9019   2.065   0.400   4.886 -0.5480 -0.2241  1.4532
 1508Sol     MW 9020   2.071   0.318   4.851 -0.4040 -0.5868 -0.3385
 1509Sol     OW 9021   0.152   0.021   4.641 -0.1268 -0.0471  0.2823
 1509Sol     HW 9022   0.101   0.024   4.559  1.4163 -0.0049 -0.6945
 1509Sol     HW 9023   0.142  -0.069   4.672  1.4234 -0.7943 -1.3439
 1509Sol     MW 9024   0.146   0.013   4.636  0.4994 -0.2167  0.4529
 1510Sol     OW 9025   2.542   2.194   5.237 -0.1710 -0.3093  0.3102
 1510Sol     HW 9026   2.626   2.217   5.277 -0.6669  1.8906  0.1578
 1510Sol     HW 9027   2.498   2.141   5.303  0.6389  0.0028  1.1121
 1510Sol     MW 9028   2.546   2.192   5.246  0.3780  0.5891  0.0871
 1511Sol     OW 9029   0.818   3.369   7.342  0.3036 -0.0534  0.5043
 1511Sol     HW 9030   0.845   3.411   7.424 -1.2881  1.0806  0.4620
 1511Sol     HW 9031   0.855   3.426   7.274  0.0697  0.0216  0.4408
 1511Sol     MW 9032   0.824   3.378   7.343  0.4481 -0.3874 -0.1884
 1512Sol     OW 9033   2.381   0.978   5.497  0.1662  0.2558 -0.4418
 1512Sol     HW 9034   2.334   0.927   5.430  0.0715 -0.1457 -0.0677
 1512Sol     HW 9035   2.355   1.069   5.479 -0.3755  0.0841 -0.5415
 1512Sol     MW 9036   2.374   0.982   5.489  0.2685  0.6052 -0.0445
 1513Sol     OW 9037   0.596   2.512   8.674  0.1146  0.0901 -0.3067
 1513Sol     HW 9038   0.671   2.496   8.732 -1.2207  1.2635  1.7957
 1513Sol     HW 9039   0.542   2.433   8.683 -1.0934  1.1043  1.6669
 1513Sol     MW 9040   0.598   2.503   8.680  0.9408 -0.7281  1.3327
 1514Sol     OW 9041   1.327   1.878   5.373 -0.0596 -0.1824 -0.5440
 1514Sol     HW 9042   1.270   1.839   5.440  1.2639  0.8014  1.1950
 1514Sol     HW 9043   1.269   1.937   5.324 -0.8501 -0.2336  0.3204
 1514Sol     MW 9044   1.316   1.880   5.374 -0.6153  0.5919 -0.4544
 1515Sol     OW 9045   0.296   1.033   5.462  0.1382 -0.2077  0.3718
 1515Sol     HW 9046   0.328   1.012   5.551  0.8190 -1.4590 -0.1523
 1515Sol     HW 9047   0.376   1.038   5.409 -0.2099  1.2813 -0.0414
 1515Sol     MW 9048   0.306   1.032   5.466 -0.0672 -0.4018 -0.4156
 1516Sol     OW 9049   1.291   1.053   5.475 -0.0710 -0.0543  0.1706
 1516Sol     HW 9050   1.227   1.089   5.414  0.0009 -0.7305 -0.2947
 1516Sol     HW 9051   1.376   1.074   5.437 -0.0266 -0.5397 -0.0001
 1516Sol     MW 9052   1.293   1.058   5.466 -0.3989 -0.2883 -0.3825
 1517Sol     OW 9053   2.219   1.868   1.403  0.4878  0.4117  0.6469
 1517Sol     HW 9054   2.256   1.883   1.316  0.1564  0.7971  0.5705
 1517Sol     HW 9055   2.226   1.952   1.447 -1.2123  0.7541  0.2837
 1517Sol     MW 9056   2.223   1.877   1.399  0.4164 -0.1849  0.0471
 1518Sol     OW 9057   0.812   1.113   2.357  0.0129 -0.2876  0.3077
 1518Sol     HW 9058   0.731   1.143   2.399  0.9598  2.8895  0.0268
 1518Sol     HW 9059   0.797   1.128   2.264  0.9812  0.5382  0.2755
 1518Sol     MW 9060   0.803   1.117   2.353 -0.6456  0.3171 -0.3813
 1519Sol     OW 9061   2.306   1.809   3.075 -0.0408  0.1786  0.5240
 1519Sol     HW 9062   2.300   1.874   3.144  0.8722 -0.3718  1.1431
 1519Sol     HW 9063   2.297   1.859   2.994 -0.2258  0.9517  1.0147
 1519Sol     MW 9064   2.305   1.819   3.074 -0.2120 -0.2540  0.0584
 1520Sol     OW 9065   1.887   0.865   6.965  1.3180 -0.0047 -0.4838
 1520Sol     HW 9066   1.855   0.790   7.014 -0.9620  0.4579 -1.2193
 1520Sol     HW 9067   1.819   0.882   6.900  1.6660  2.8701 -0.1490
 1520Sol     MW 9068   1.878   0.860   6.963 -0.0485 -0.3239  0.0743
 1521Sol     OW 9069   0.665   1.694   1.404 -0.3332  0.0030  0.5413
 1521Sol     HW 9070   0.596   1.659   1.347  0.0870  1.3429 -0.8092
 1521Sol     HW 9071   0.721   1.745   1.346  1.9288 -1.2296  1.6011
 1521Sol     MW 9072   0.664   1.696   1.394  0.1604  0.0386 -0.2093
 1522Sol     OW 9073   0.293   0.384   3.704  0.0185  0.8035 -0.1275
 1522Sol     HW 9074   0.301   0.367   3.798 -1.4182 -0.3048 -0.1851
 1522Sol     HW 9075   0.250   0.469   3.698 -2.4133 -0.3759  0.2496
 1522Sol     MW 9076   0.290   0.390   3.712  0.0098 -0.6428 -0.1225
 1523Sol     OW 9077   0.159   3.192   3.465 -0.3426  0.4497 -0.2344
 1523Sol     HW 9078   0.078   3.169   3.510  0.6116  0.4188  1.4752
 1523Sol     HW 9079   0.132   3.258   3.401 -2.3068 -2.0163 -2.0646
 1523Sol     MW 9080   0.149   3.196   3.463 -0.1625  0.5286 -0.7214
 1524Sol     OW 9081   1.585   1.077   6.139 -0.1886 -0.4411 -0.0923
 1524Sol     HW 9082   1.675   1.062   6.110 -0.9440  0.7587 -3.2629
 1524Sol     HW 9083   1.587   1.061   6.234  3.0536 -1.6733 -0.3133
 1524Sol     MW 9084   1.593   1.074   6.145 -0.1479  0.7646  0.0502
 1525Sol     OW 9085   1.478   1.463   6.337 -0.0706 -0.2379  0.1236
 1525Sol     HW 9086   1.399   1.472   6.390  0.5798  2.0784  0.7455
 1525Sol     HW 9087   1.529   1.541   6.356  1.7511 -1.0280 -1.3356
 1525Sol     MW 9088   1.475   1.471   6.343  0.3106  0.5063 -0.3247
 1526Sol     OW 9089   3.047   2.764   5.024  0.2346 -0.4452 -0.1802
 1526Sol     HW 9090   2.961   2.723   5.032  0.1524 -0.2145  0.1318
 1526Sol     HW 9091   3.033   2.854   5.052  0.8921 -0.7999  1.3172
 1526Sol     MW 9092   3.038   2.768   5.027 -0.4655 -0.4227  0.2688
 1527Sol     OW 9093   2.171   3.435   7.624 -0.6039 -0.4477 -0.0535
 1527Sol     HW 9094   2.201   3.521   7.595 -0.1756 -0.6741 -0.2785
 1527Sol     HW 9095   2.222   3.373   7.572  0.2407 -0.8640  1.2553
 1527Sol     MW 9096   2.178   3.437   7.617 -0.6386  0.5126  0.6251
 1528Sol     OW 9097   1.392   3.036   4.209  0.0526 -0.0096  0.6371
 1528Sol     HW 9098   1.389   2.941   4.196 -1.4029  0.1217 -0.1206
 1528Sol     HW 9099   1.464   3.065   4.153 -1.5437 -0.3052 -1.6080
 1528Sol     MW 9100   1.398   3.030   4.203 -0.0845 -0.0497  0.1812
 1529Sol     OW 9101   2.906   3.239   5.801 -0.0600  0.2905 -0.5619
 1529Sol     HW 9102   2.839   3.227   5.868  1.2645 -2.7394  0.3033
 1529Sol     HW 9103   2.913   3.334   5.791 -0.8024  0.8140  3.0766
 1529Sol     MW 9104   2.901   3.247   5.806  0.2105 -0.2600  0.0843
 1530Sol     OW 9105   2.663   0.390   1.558 -0.0770  0.3873 -0.0414
 1530Sol     HW 9106   2.723   0.320   1.583 -1.1163 -0.2235  0.8279
 1530Sol     HW 9107   2.665   0.450   1.633 -2.2059 -0.7755  1.0154
 1530Sol     MW 9108   2.668   0.389   1.567 -0.1142 -1.0484  0.4073
 1531Sol     OW 9109   2.936   2.050   6.441  0.4330  0.8457 -0.0397
 1531Sol     HW 9110   3.005   2.070   6.378 -0.3912  1.2185 -0.8479
 1531Sol     HW 9111   2.949   1.958   6.463 -0.4964  0.1096 -2.3538
 1531Sol     MW 9112   2.943   2.044   6.437  0.2954  0.4798 -0.7257
 1532Sol     OW 9113   3.160   2.217   4.856  0.0060 -0.0193 -0.2442
 1532Sol     HW 9114   3.242   2.240   4.901  0.2086  0.3987 -0.8177
 1532Sol     HW 9115   3.092   2.258   4.909  0.3202  1.3621 -0.8876
 1532Sol     MW 9116   3.161   2.223   4.865 -0.5676  0.6883  0.1015
 1533Sol     OW 9117   0.405   0.811   8.671  0.3693 -0.1301 -0.1938
 1533Sol     HW 9118   0.412   0.894   8.718  0.6717  0.1149 -0.6728
 1533Sol     HW 9119   0.366   0.751   8.735  0.4719  0.2871  0.2659
 1533Sol     MW 9120   0.402   0.813   8.681  0.0437  0.8139 -0.7474
 1534Sol     OW 9121   1.063   1.977   7.985 -0.0620 -0.4398  0.2874
 1534Sol     HW 9122   0.995   1.911   7.971 -3.2726  2.9794 -0.9404
 1534Sol     HW 9123   1.073   2.019   7.899  1.4662  1.1144  1.1943
 1534Sol     MW 9124   1.058   1.975   7.976  0.4810  0.3016 -0.3254
 1535Sol     OW 9125   1.477   0.357   4.088 -0.1980 -0.4981 -0.0810
 1535Sol     HW 9126   1.448   0.368   4.179 -1.7359  0.1174 -0.6159
 1535Sol     HW 9127   1.549   0.294   4.093 -1.4172 -1.8312  1.3792
 1535Sol     MW 9128   1.480   0.353   4.097  0.1816 -0.0465 -0.5047
 1536Sol     OW 9129   1.749   0.932   7.754  0.0136  0.3412  0.5546
 1536Sol     HW 9130   1.746   0.970   7.842  0.6252 -0.9485  1.1403
 1536Sol     HW 9131   1.820   0.868   7.758  0.5120  0.7805 -1.0846
 1536Sol     MW 9132   1.755   0.930   7.762 -0.0525 -0.1475 -0.1449
 1537Sol     OW 9133   0.052   3.024   9.023 -0.2298 -0.1283  0.3028
 1537Sol     HW 9134   0.067   2.943   8.975 -0.1527 -0.1871  0.4244
 1537Sol     HW 9135   0.009   2.996   9.104  4.2236 -0.6363  2.6843
 1537Sol     MW 9136   0.050   3.014   9.026  0.5008  0.5422  0.8142
 1538Sol     OW 9137   2.063   1.571   5.197 -0.5824 -0.5332 -0.0050
 1538Sol     HW 9138   2.061   1.608   5.285  1.0562 -0.9986  0.2451
 1538Sol     HW 9139   2.155   1.579   5.170 -1.0395 -0.5663 -1.5887
 1538Sol     MW 9140   2.071   1.575   5.203 -0.3786  0.2933 -0.0091
 1539Sol     OW 9141   1.789   0.880   6.364 -0.6547  0.0513  0.4165
 1539Sol     HW 9142   1.869   0.883   6.311 -0.3593  2.1627  0.9141
 1539Sol     HW 9143   1.784   0.967   6.404 -2.4597 -0.5252  1.5080
 1539Sol     MW 9144   1.796   0.888   6.363  0.0800 -0.0049 -0.2206
 1540Sol     OW 9145   1.668   1.891   7.161 -0.5009  0.3780  0.0277
 1540Sol     HW 9146   1.721   1.970   7.167 -1.8449  1.1804  1.9679
 1540Sol     HW 9147   1.691   1.841   7.239 -0.7980 -0.4150 -0.3884
 1540Sol     MW 9148   1.675   1.894   7.169 -0.5875 -0.0656  0.5777
 1541Sol     OW 9149   1.911   1.489   7.767 -0.3960 -0.1424  0.0452
 1541Sol     HW 9150   1.985   1.486   7.706 -0.3069  0.2758  0.1305
 1541Sol     HW 9151   1.837   1.454   7.718  0.0993 -1.5648  0.3013
 1541Sol     MW 9152   1.911   1.486   7.757 -0.4637 -0.4222 -0.7555
 1542Sol     OW 9153   2.170   0.294   2.286  0.0083  0.1193 -0.4453
 1542Sol     HW 9154   2.144   0.346   2.210  0.9080 -0.3462 -1.0852
 1542Sol     HW 9155   2.111   0.321   2.355 -0.3100  1.1234 -1.1026
 1542Sol     MW 9156   2.162   0.301   2.285  0.1459  0.1785  0.1748
 1543Sol     OW 9157   0.135   3.386   1.720 -0.3154 -0.0996 -0.1669
 1543Sol     HW 9158   0.136   3.474   1.683  1.1885  0.4304  1.1081
 1543Sol     HW 9159   0.052   3.381   1.768 -2.1025 -0.6537 -3.1513
 1543Sol     MW 9160   0.127   3.393   1.721 -0.0705 -0.3345 -0.7275
 1544Sol     OW 9161   1.858   2.135   1.355  0.1958  0.1188 -0.2214
 1544Sol     HW 9162   1.887   2.053   1.394  0.6085  0.7575  0.8332
 1544Sol     HW 9163   1.910   2.203   1.399 -0.0403  0.9399 -1.1681
 1544Sol     MW 9164   1.866   2.134   1.362 -0.5044 -0.0713 -0.0828
 1545Sol     OW 9165   2.141   2.065   9.229  0.2132  0.3295 -0.3811
 1545Sol     HW 9166   2.082   1.992   9.207  0.7543 -0.9832  2.4097
 1545Sol     HW 9167   2.092   2.143   9.201 -1.3726 -0.9388 -1.2884
 1545Sol     MW 9168   2.131   2.065   9.224  0.4679 -0.0589 -0.0997
 1546Sol     OW 9169   2.084   2.277   5.871 -0.0790 -0.5610  0.0668
 1546Sol     HW 9170   2.076   2.358   5.821  1.0288 -0.3225  0.2737
 1546Sol     HW 9171   2.169   2.283   5.914  0.4084 -2.2286 -0.6097
 1546Sol     MW 9172   2.091   2.284   5.870 -0.3741  0.3928  0.4065
 1547Sol     OW 9173   0.560   3.320   3.704 -0.5892 -0.0735 -0.3172
 1547Sol     HW 9174   0.532   3.407   3.676 -1.8446 -0.8417 -1.4954
 1547Sol     HW 9175   0.478   3.271   3.714  0.0588 -0.8838  1.1555
 1547Sol     MW 9176   0.550   3.324   3.703  0.0321 -0.1426  0.0758
 1548Sol     OW 9177   0.746   0.636   4.030 -0.6368  0.3356  1.1425
 1548Sol     HW 9178   0.835   0.601   4.026 -0.7142  0.2989 -3.8520
 1548Sol     HW 9179   0.757   0.727   4.058  1.3734  1.2383 -2.3156
 1548Sol     MW 9180   0.755   0.641   4.032  0.9166  0.2285 -0.0651
 1549Sol     OW 9181   2.583   2.439   8.643  0.1813 -0.0611  0.6589
 1549Sol     HW 9182   2.494   2.455   8.673  0.6005 -0.7031  2.3183
 1549Sol     HW 9183   2.611   2.361   8.691  0.9429 -1.0391 -1.3272
 1549Sol     MW 9184   2.578   2.434   8.650 -0.3277  0.0315 -0.5113
 1550Sol     OW 9185   0.070   2.966   1.859  0.4241  0.9157  0.3778
 1550Sol     HW 9186   0.071   2.931   1.770  1.2458  0.4656  0.5574
 1550Sol     HW 9187   0.158   3.000   1.872  1.1508 -1.3913  1.9402
 1550Sol     MW 9188   0.078   2.966   1.852 -0.1019 -0.4410 -0.6376
 1551Sol     OW 9189   1.053   1.968   8.755 -0.4517 -0.3884  0.3475
 1551Sol     HW 9190   1.036   1.981   8.848  0.2378  0.0286  0.4198
 1551Sol     HW 9191   1.148   1.976   8.746 -0.7846  3.7269 -0.9690
 1551Sol     MW 9192   1.060   1.970   8.762  0.0105 -0.6179 -0.1851
 1552Sol     OW 9193   0.139   1.944   1.715  0.2618 -0.0511 -0.5977
 1552Sol     HW 9194   0.121   1.878   1.649  1.6688 -0.2832 -0.7717
 1552Sol     HW 9195   0.091   1.915   1.793 -1.0191 -0.0192 -1.3626
 1552Sol     MW 9196   0.133   1.936   1.716 -0.0406 -0.5806 -0.0202
 1553Sol     OW 9197   0.560   0.073   3.315 -0.2183  0.0618 -0.2237
 1553Sol     HW 9198   0.552  -0.017   3.283  2.0049 -1.0572  2.0866
 1553Sol     HW 9199   0.644   0.103   3.280 -0.5373  0.8939 -0.2668
 1553Sol     MW 9200   0.567   0.067   3.309 -0.8921 -0.2890 -0.0096
 1554Sol     OW 9201   0.150   1.399   3.601 -0.2990  0.2610 -0.1146
 1554Sol     HW 9202   0.168   1.396   3.695 -0.3430  0.6078 -0.0932
 1554Sol     HW 9203   0.165   1.310   3.570  1.6551  0.5666 -0.1407
 1554Sol     MW 9204   0.153   1.391   3.607  0.1560 -0.1410 -0.1509
 1555Sol     OW 9205   0.672   2.993   7.359 -0.4107 -0.0141 -0.0419
 1555Sol     HW 9206   0.593   3.047   7.350 -0.1575  0.3001 -0.3899
 1555Sol     HW 9207   0.643   2.904   7.341 -0.8516 -0.0118  0.6217
 1555Sol     MW 9208   0.663   2.990   7.357 -0.0451  0.0157 -0.2633
 1556Sol     OW 9209   0.490   1.328   7.480 -0.2797 -0.1206 -0.0213
 1556Sol     HW 9210   0.510   1.255   7.538  0.1607  0.6029  0.7377
 1556Sol     HW 9211   0.482   1.404   7.537  0.9305  0.7541 -0.9582
 1556Sol     MW 9212   0.491   1.329   7.490 -0.0453  0.1200 -0.2119
 1557Sol     OW 9213   2.018   0.483   8.521 -0.0217  0.5536  0.2985
 1557Sol     HW 9214   2.003   0.511   8.430 -1.6027  0.2943  0.4653
 1557Sol     HW 9215   1.989   0.557   8.574 -0.3688  0.1810  0.6301
 1557Sol     MW 9216   2.014   0.492   8.517  0.0563 -0.3635 -0.8901
 1558Sol     OW 9217   0.537   2.027   7.317  0.6969 -0.1012 -0.5938
 1558Sol     HW 9218   0.506   1.938   7.298 -1.2581  0.6289 -0.8792
 1558Sol     HW 9219   0.632   2.023   7.300  0.8411 -2.4300  0.5058
 1558Sol     MW 9220   0.543   2.018   7.314  0.3608 -0.8556  0.5525
 1559Sol     OW 9221   0.835   0.577   6.301 -0.3406  0.2453 -0.0876
 1559Sol     HW 9222   0.753   0.580   6.253 -1.3443 -1.3353  1.4751
 1559Sol     HW 9223   0.824   0.640   6.373  0.5965  1.5086 -1.0157
 1559Sol     MW 9224   0.827   0.583   6.304 -0.5667  0.1084  0.0120
 1560Sol     OW 9225   3.156   2.073   9.764 -0.0449 -0.5986  0.3169
 1560Sol     HW 9226   3.120   2.013   9.829 -0.5795 -0.5775  0.0381
 1560Sol     HW 9227   3.115   2.048   9.681 -0.3120  0.1775  0.2056
 1560Sol     MW 9228   3.149   2.065   9.762 -0.0300 -0.3729 -0.2892
 1561Sol     OW 9229   2.201   1.958   9.927 -0.3598 -0.5292  0.4061
 1561Sol     HW 9230   2.247   2.030   9.972  1.6928 -0.0882 -2.2464
 1561Sol     HW 9231   2.272   1.903   9.894 -1.8087 -0.9403 -2.0698
 1561Sol     MW 9232   2.212   1.960   9.928 -0.6369 -0.0301  0.3669
 1562Sol     OW 9233   0.624   0.132   9.312 -0.2238 -0.3234  0.2078
 1562Sol     HW 9234   0.683   0.065   9.347 -1.1680 -0.3072  1.8890
 1562Sol     HW 9235   0.552   0.083   9.272 -0.3069 -0.3205  0.3544
 1562Sol     MW 9236   0.623   0.121   9.312  0.3519 -0.2140 -0.0024
 1563Sol     OW 9237   1.478   1.765   9.366  0.2409  0.3297  0.1170
 1563Sol     HW 9238   1.389   1.734   9.381 -0.1218 -0.0680 -2.5974
 1563Sol     HW 9239   1.521   1.757   9.451 -1.6748 -1.5727  0.9496
 1563Sol     MW 9240   1.474   1.762   9.375  0.1531  0.0477 -0.1979
 1564Sol     OW 9241   0.719   0.048   7.693 -0.4652 -0.1193  0.0826
 1564Sol     HW 9242   0.629   0.042   7.663 -0.5041  1.8370 -0.2274
 1564Sol     HW 9243   0.724   0.132   7.738  1.4589  0.2636 -0.8032
 1564Sol     MW 9244   0.712   0.055   7.695 -0.1098  0.6122 -0.0838
 1565Sol     OW 9245   0.957   3.164   2.647 -0.2715  0.4721  0.2295
 1565Sol     HW 9246   0.890   3.109   2.607 -0.3852  0.7859 -0.0131
 1565Sol     HW 9247   1.025   3.171   2.579  0.2561 -0.2927  0.6706
 1565Sol     MW 9248   0.957   3.160   2.637 -0.2263  0.0933  0.1985
 1566Sol     OW 9249   0.965   2.603   9.234  0.3260  0.1864  0.0174
 1566Sol     HW 9250   0.972   2.641   9.322 -0.7368  1.8424 -0.5970
 1566Sol     HW 9251   1.038   2.542   9.229 -0.3175 -0.8528  2.5036
 1566Sol     MW 9252   0.972   2.601   9.242  0.4816  0.1919 -0.4653
 1567Sol     OW 9253   0.003   0.324   9.396 -0.3601 -0.2037  0.3039
 1567Sol     HW 9254   0.077   0.264   9.387 -0.2734  0.3519 -3.5851
 1567Sol     HW 9255   0.040   0.403   9.435  0.5023 -0.9233  0.9552
 1567Sol     MW 9256   0.013   0.326   9.399  0.6963  0.1357  0.5690
 1568Sol     OW 9257   2.740   2.052   1.796  0.4219  0.0738 -0.3969
 1568Sol     HW 9258   2.703   1.968   1.771 -1.6847  0.5634  0.8733
 1568Sol     HW 9259   2.711   2.113   1.729  1.3017 -0.0532 -0.9024
 1568Sol     MW 9260   2.734   2.050   1.788 -0.7711 -0.1980 -0.0779
 1569Sol     OW 9261   0.013   3.035   5.560  0.4386 -0.5327  0.5955
 1569Sol     HW 9262   0.023   3.029   5.465  0.9416 -1.0496  0.6861
 1569Sol     HW 9263  -0.028   2.952   5.585 -0.4470 -0.0671  0.7321
 1569Sol     MW 9264   0.010   3.027   5.554  0.4137  0.0604 -0.7980
 1570Sol     OW 9265   2.176   0.511   4.450  0.5946 -0.1148 -0.6615
 1570Sol     HW 9266   2.158   0.596   4.490 -0.9130  0.0727 -1.6819
 1570Sol     HW 9267   2.091   0.482   4.416  1.4155 -1.2556 -1.7998
 1570Sol     MW 9268   2.166   0.516   4.451 -0.2672 -0.2645 -0.1404
 1571Sol     OW 9269   1.653   0.763   9.682 -0.0284 -0.4862 -0.3851
 1571Sol     HW 9270   1.603   0.841   9.705 -2.3171 -1.5088 -1.7993
 1571Sol     HW 9271   1.741   0.796   9.663 -0.4948  1.5000  0.7271
 1571Sol     MW 9272   1.657   0.773   9.683 -0.1554 -0.0666 -0.0649
 1572Sol     OW 9273   2.283   0.480   8.774 -0.0742 -0.0361 -0.0900
 1572Sol     HW 9274   2.201   0.441   8.806 -0.8647  0.4187 -1.5203
 1572Sol     HW 9275   2.352   0.428   8.816 -1.0843 -0.4121  1.1530
 1572Sol     MW 9276   2.282   0.472   8.781 -0.1300  0.0411  0.3865
 1573Sol     OW 9277   1.598   1.228   9.571 -0.8759  0.5254  0.1723
 1573Sol     HW 9278   1.687   1.232   9.535 -0.9280 -0.3610 -0.0713
 1573Sol     HW 9279   1.611   1.201   9.662 -1.0804 -3.5274 -0.8913
 1573Sol     MW 9280   1.607   1.226   9.576 -0.5193 -0.4815 -0.1385
 1574Sol     OW 9281   1.512   1.279   7.709 -0.5277 -0.6494  0.2780
 1574Sol     HW 9282   1.518   1.314   7.798  2.3326 -1.2535  0.3693
 1574Sol     HW 9283   1.454   1.339   7.663  0.3162  1.3622  1.7812
 1574Sol     MW 9284   1.507   1.287   7.713  0.3682 -0.0926  0.0536
 1575Sol     OW 9285   3.071   1.815   5.794 -0.5341 -0.0291  0.0748
 1575Sol     HW 9286   3.137   1.878   5.825  1.1985 -2.1497  0.7730
 1575Sol     HW 9287   3.001   1.820   5.859 -0.0385  0.5714  0.5676
 1575Sol     MW 9288   3.071   1.821   5.803 -0.7656 -0.1580  0.8314
 1576Sol     OW 9289   0.066   2.971   7.152 -0.0507 -0.1758 -0.4278
 1576Sol     HW 9290   0.115   3.043   7.192 -0.2532 -1.1355  1.6233
 1576Sol     HW 9291   0.003   2.945   7.220  0.2387 -2.4738 -1.0189
 1576Sol     MW 9292   0.065   2.975   7.162 -0.0540 -0.0725 -1.0163
 1577Sol     OW 9293   1.174   1.325   7.202  0.2530  0.1881  0.1010
 1577Sol     HW 9294   1.147   1.368   7.283  0.2020 -0.7449  0.5842
 1577Sol     HW 9295   1.248   1.270   7.227  0.5351  0.2497 -0.5787
 1577Sol     MW 9296   1.178   1.324   7.211  0.2309  0.1448 -0.3997
 1578Sol     OW 9297   2.029   3.268   4.716 -0.1232 -0.1067  0.2008
 1578Sol     HW 9298   2.041   3.344   4.773  0.3171 -0.2471  0.3019
 1578Sol     HW 9299   2.105   3.212   4.734 -1.0971 -1.1829  1.0661
 1578Sol     MW 9300   2.037   3.270   4.723 -0.5621 -0.2489  0.2257
 1579Sol     OW 9301   2.403   1.611   8.524  0.7634 -0.5911 -0.3051
 1579Sol     HW 9302   2.345   1.534   8.522 -0.2365  0.1149  0.8307
 1579Sol     HW 9303   2.445   1.612   8.438  0.2110 -1.9754 -0.6005
 1579Sol     MW 9304   2.402   1.604   8.516  0.1851  0.2409 -0.0738
 1580Sol     OW 9305   3.317   3.351   7.843 -0.4575  0.2277  0.4132
 1580Sol     HW 9306   3.409   3.339   7.819 -1.0982 -2.2985 -0.9111
 1580Sol     HW 9307   3.304   3.446   7.839  1.2303  0.4005 -2.7756
 1580Sol     MW 9308   3.324   3.358   7.840 -0.3348  0.7178 -0.1649
 1581Sol     OW 9309   1.789   2.424   1.615 -0.2978  0.2214  0.0237
 1581Sol     HW 9310   1.788   2.492   1.683 -1.7103 -0.1924  0.4522
 1581Sol     HW 9311   1.838   2.462   1.543  1.4177  0.5992  1.3547
 1581Sol     MW 9312   1.793   2.433   1.615 -0.3904  0.5231 -1.1625
 1582Sol     OW 9313   1.205   0.946   1.364 -0.4091 -0.1607 -0.3663
 1582Sol     HW 9314   1.151   0.880   1.407 -1.9941  1.0003 -0.5435
 1582Sol     HW 9315   1.265   0.976   1.432 -0.2029 -1.1858 -0.0737
 1582Sol     MW 9316   1.206   0.942   1.374 -0.2965  0.0318  0.7528
 1583Sol     OW 9317   2.354   1.879   4.271 -0.1013 -0.4842 -0.4381
 1583Sol     HW 9318   2.341   1.895   4.364  1.5791 -0.2394 -0.2322
 1583Sol     HW 9319   2.272   1.907   4.230 -0.5788  0.0764  0.8904
 1583Sol     MW 9320   2.345   1.883   4.275 -0.2333  0.3189  0.4441
 1584Sol     OW 9321   2.172   2.037   5.023 -0.0906  0.3259 -0.0499
 1584Sol     HW 9322   2.078   2.020   5.014 -0.5505  1.7863  1.6398
 1584Sol     HW 9323   2.199   1.981   5.096 -0.0609  1.3147  0.7042
 1584Sol     MW 9324   2.166   2.030   5.029 -0.4830  0.3545 -0.2871
 1585Sol     OW 9325   2.909   3.254   6.232 -0.2273 -0.1584  0.1419
 1585Sol     HW 9326   2.898   3.253   6.328 -1.7773 -3.2389 -0.0314
 1585Sol     HW 9327   2.992   3.210   6.217 -1.3949 -2.3252 -0.0660
 1585Sol     MW 9328   2.915   3.250   6.240 -0.0589 -0.5759 -0.0982
 1586Sol     OW 9329   2.626   3.150   8.008  0.1706 -0.3037 -0.6594
 1586Sol     HW 9330   2.563   3.081   7.988 -0.2636 -0.5023  1.2664
 1586Sol     HW 9331   2.712   3.107   8.002 -0.0155 -0.6364 -0.9322
 1586Sol     MW 9332   2.628   3.140   8.006 -0.7130 -0.1174 -0.2952
 1587Sol     OW 9333   0.293   2.013   3.440 -0.2909  0.2328  0.4666
 1587Sol     HW 9334   0.354   2.086   3.448  0.4003 -0.3788  0.7548
 1587Sol     HW 9335   0.207   2.055   3.431  0.3543  1.1191 -1.7681
 1587Sol     MW 9336   0.290   2.023   3.440 -0.2478  0.7424 -0.7014
 1588Sol     OW 9337   1.607   1.625   5.415 -0.3514  0.2131  0.4245
 1588Sol     HW 9338   1.564   1.640   5.331  0.0927 -3.5148 -0.5770
 1588Sol     HW 9339   1.535   1.605   5.475 -0.5786  1.6972  0.6558
 1588Sol     MW 9340   1.597   1.625   5.413  0.0966 -0.6994 -0.0731
 1589Sol     OW 9341   2.103   1.221   9.549  0.0331  0.2125  0.3244
 1589Sol     HW 9342   2.073   1.201   9.637  1.6206 -0.3461  0.7643
 1589Sol     HW 9343   2.024   1.242   9.500 -1.1299 -1.9665  1.2267
 1589Sol     MW 9344   2.093   1.221   9.552 -0.4798  0.4940  0.1206
 1590Sol     OW 9345   2.018   2.490   1.985  0.1680 -0.3082 -0.0732
 1590Sol     HW 9346   1.934   2.520   1.951 -0.2066  0.1564  1.2373
 1590Sol     HW 9347   2.032   2.541   2.064  1.6917 -0.3851 -0.2706
 1590Sol     MW 9348   2.012   2.497   1.989 -0.0077  0.5761 -0.0938
 1591Sol     OW 9349   2.993   2.322   1.983  0.1776  0.1996  0.0989
 1591Sol     HW 9350   3.028   2.342   2.070  0.5728 -2.4884  0.6175
 1591Sol     HW 9351   2.983   2.407   1.941  2.2128  1.4093  1.9253
 1591Sol     MW 9352   2.995   2.331   1.987 -0.5527  0.1869 -0.5246
 1592Sol     OW 9353   0.779   0.306   3.373 -0.1134  0.2706  0.1252
 1592Sol     HW 9354   0.706   0.336   3.426 -0.5744 -0.1378 -0.2768
 1592Sol     HW 9355   0.852   0.297   3.436  0.1318  2.4943  0.2060
 1592Sol     MW 9356   0.779   0.308   3.384  0.0605 -0.7070  0.3476
 1593Sol     OW 9357   2.127   2.156   6.770 -0.6327 -0.2240 -0.0496
 1593Sol     HW 9358   2.152   2.110   6.850 -0.1269 -1.8122 -1.1114
 1593Sol     HW 9359   2.159   2.245   6.783 -0.2113 -0.5657  1.3553
 1593Sol     MW 9360   2.132   2.160   6.778 -0.3277  0.3182  0.0814
 1594Sol     OW 9361   2.111   0.576   7.744  0.0860 -0.0894  0.0129
 1594Sol     HW 9362   2.050   0.574   7.670 -0.7673 -1.0220  0.7360
 1594Sol     HW 9363   2.175   0.508   7.724  0.2678  0.1413 -0.2043
 1594Sol     MW 9364   2.111   0.570   7.736 -1.1450  1.2094  0.9344
 1595Sol     OW 9365   2.409   2.084   6.148  0.3144  0.2883  0.4785
 1595Sol     HW 9366   2.480   2.105   6.208  0.9835  0.6939 -0.4313
 1595Sol     HW 9367   2.384   2.168   6.110  0.6934 -0.1016 -0.6620
 1595Sol     MW 9368   2.413   2.094   6.150  0.1806 -0.1424 -0.0805
 1596Sol     OW 9369   2.450   1.978   3.746  0.2293 -0.0865  0.2215
 1596Sol     HW 9370   2.455   2.015   3.834 -0.5946  1.9190 -0.5514
 1596Sol     HW 9371   2.528   2.012   3.702  1.4903 -2.3683  0.6165
 1596Sol     MW 9372   2.458   1.984   3.750 -0.1463 -0.0785 -0.5310
 1597Sol     OW 9373   3.110   0.180   4.839  0.1967  0.5373 -0.1346
 1597Sol     HW 9374   3.137   0.215   4.924  0.5040  0.6510 -0.2793
 1597Sol     HW 9375   3.114   0.085   4.850 -1.4049  0.5202  0.5084
 1597Sol     MW 9376   3.113   0.175   4.848 -0.7922  0.1320  0.2549
 1598Sol     OW 9377   0.409   0.400   6.760 -0.2367 -0.5501 -0.6158
 1598Sol     HW 9378   0.407   0.388   6.665 -1.6673 -0.0418 -0.6724
 1598Sol     HW 9379   0.338   0.344   6.792  0.5988 -1.1425  0.2003
 1598Sol     MW 9380   0.402   0.394   6.755 -0.2176  0.2844  0.3310
 1599Sol     OW 9381   1.720   2.231   2.420 -0.1613 -0.2114 -0.0801
 1599Sol     HW 9382   1.713   2.295   2.491 -0.2658  1.4467 -1.5541
 1599Sol     HW 9383   1.644   2.175   2.431 -2.3913  2.4371 -1.1429
 1599Sol     MW 9384   1.713   2.232   2.427 -0.1529  0.8491 -0.7179
 1600Sol     OW 9385   0.360   0.650   6.869  0.1946  0.6042 -0.0972
 1600Sol     HW 9386   0.311   0.636   6.950 -1.3706  1.3877 -0.8693
 1600Sol     HW 9387   0.389   0.563   6.843  0.8557  0.3648  1.3795
 1600Sol     MW 9388   0.358   0.641   6.874 -0.2875  0.6010  0.1250
 1601Sol     OW 9389   1.057   1.078   7.385 -0.0021  0.5377 -0.1148
 1601Sol     HW 9390   1.110   1.122   7.319 -0.3636  0.2544 -0.6049
 1601Sol     HW 9391   0.968   1.108   7.367  0.0513  1.3310  0.9617
 1601Sol     MW 9392   1.054   1.084   7.377 -0.4327  0.3990  0.4915
 1602Sol     OW 9393   0.212   1.617   6.025 -0.1953 -0.6388 -0.7434
 1602Sol     HW 9394   0.260   1.695   6.001 -0.1141 -0.8503 -1.2657
 1602Sol     HW 9395   0.168   1.589   5.945 -0.7529 -0.7559 -0.4050
 1602Sol     MW 9396   0.212   1.621   6.016 -0.6048  0.3344  0.0736
 1603Sol     OW 9397   1.260   0.642   5.437 -0.1265 -0.6705 -0.1815
 1603Sol     HW 9398   1.311   0.594   5.372 -1.1250 -0.9846 -0.7332
 1603Sol     HW 9399   1.207   0.576   5.481  1.9134 -0.7525  2.2791
 1603Sol     MW 9400   1.260   0.632   5.435  0.4628  0.0358  0.4291
 1604Sol     OW 9401   0.419   3.200   4.035 -0.5006 -0.4425 -0.8907
 1604Sol     HW 9402   0.362   3.271   4.008 -0.4650  0.0298  0.2456
 1604Sol     HW 9403   0.360   3.128   4.057 -0.5421 -0.7289 -1.9062
 1604Sol     MW 9404   0.409   3.200   4.035  0.2797 -0.1720 -0.1483
 1605Sol     OW 9405   2.071   2.171   5.438  0.4168 -0.0732 -0.7311
 1605Sol     HW 9406   1.990   2.217   5.458 -0.1346 -1.1279 -0.5328
 1605Sol     HW 9407   2.087   2.115   5.514  1.2087 -0.0409 -0.8685
 1605Sol     MW 9408   2.065   2.170   5.446 -0.4553 -0.0243  0.6484
 1606Sol     OW 9409   0.747   1.724   9.575 -0.6310  0.4372  0.4091
 1606Sol     HW 9410   0.722   1.705   9.665 -0.9041  1.3532  0.5329
 1606Sol     HW 9411   0.690   1.670   9.521  1.2832 -2.1061  0.8293
 1606Sol     MW 9412   0.740   1.717   9.578 -0.2261  0.4588 -0.0869
 1607Sol     OW 9413   0.200   2.601   2.560  0.4866 -0.4611  0.4630
 1607Sol     HW 9414   0.182   2.679   2.613 -2.5260  0.4781 -1.8357
 1607Sol     HW 9415   0.125   2.543   2.577 -0.1769 -0.4185 -2.2020
 1607Sol     MW 9416   0.192   2.603   2.567 -0.0879  0.1279 -0.3842
 1608Sol     OW 9417   0.614   1.242   2.918 -0.1219  0.3487 -0.7553
 1608Sol     HW 9418   0.704   1.217   2.900 -0.7699 -1.5855 -1.4500
 1608Sol     HW 9419   0.618   1.336   2.938  2.0619  0.2052 -0.4730
 1608Sol     MW 9420   0.622   1.248   2.918  0.3741 -0.1740 -0.2787
 1609Sol     OW 9421   0.183   2.605   8.439  0.0493  0.4664  0.0855
 1609Sol     HW 9422   0.252   2.629   8.500 -0.7138 -1.5102  1.7599
 1609Sol     HW 9423   0.229   2.572   8.362  0.9757 -1.9283  1.6370
 1609Sol     MW 9424   0.193   2.604   8.437 -0.0686  0.3435 -0.3007
 1610Sol     OW 9425   1.890   2.844   1.491 -0.0960  0.4604  0.1284
 1610Sol     HW 9426   1.972   2.859   1.444 -0.6296 -2.3208 -1.8457
 1610Sol     HW 9427   1.824   2.892   1.440  0.0598  1.5391  0.9187
 1610Sol     MW 9428   1.891   2.850   1.482 -0.0149 -0.7861 -0.5025
 1611Sol     OW 9429   0.711   1.922   9.387  0.2077  0.0781 -0.0516
 1611Sol     HW 9430   0.616   1.914   9.382  0.3689 -1.4777 -1.0274
 1611Sol     HW 9431   0.734   1.885   9.472  0.0546 -0.7637 -0.3756
 1611Sol     MW 9432   0.705   1.918   9.394 -0.9763 -0.0746  0.1268
 1612Sol     OW 9433   1.894   0.800  10.002 -0.1978 -0.0196 -0.0131
 1612Sol     HW 9434   1.892   0.729   9.938  1.0280  0.7178 -0.9110
 1612Sol     HW 9435   1.909   0.757  10.086 -1.0120 -0.9340 -0.3284
 1612Sol     MW 9436   1.895   0.790  10.003  0.1519  0.5494  0.6278
 1613Sol     OW 9437   0.742   1.518   7.185  0.2794 -0.5242 -0.1965
 1613Sol     HW 9438   0.793   1.454   7.135 -1.2816 -1.3963 -0.7115
 1613Sol     HW 9439   0.740   1.596   7.129 -0.1353 -0.9656 -0.7975
 1613Sol     MW 9440   0.747   1.520   7.175 -0.6861  0.8172  0.5309
 1614Sol     OW 9441   2.466   1.354   8.219  0.2832 -1.0545 -0.2005
 1614Sol     HW 9442   2.410   1.279   8.239  0.6028 -0.8232  1.5807
 1614Sol     HW 9443   2.540   1.346   8.278 -0.2493  1.2975  0.8314
 1614Sol     MW 9444   2.467   1.347   8.226 -0.0057  0.4503  0.0635
 1615Sol     OW 9445   2.322   1.855   1.827  0.1686 -0.0541 -0.1663
 1615Sol     HW 9446   2.328   1.787   1.760  0.2047  0.7389 -0.9777
 1615Sol     HW 9447   2.400   1.841   1.882 -1.0034 -2.0730  1.0305
 1615Sol     MW 9448   2.330   1.848   1.826  0.1529  0.0204  0.3249
 1616Sol     OW 9449   2.050   0.628   3.916 -0.3566 -0.5323 -0.1319
 1616Sol     HW 9450   1.970   0.592   3.877  0.4099 -1.4862 -0.8413
 1616Sol     HW 9451   2.024   0.652   4.005 -2.9222  4.3023 -1.9464
 1616Sol     MW 9452   2.040   0.627   3.921  0.3445  0.5981 -0.0573
 1617Sol     OW 9453   1.435   0.413   3.010  0.5144  0.2504 -0.1449
 1617Sol     HW 9454   1.421   0.505   2.992  0.4063 -0.0157 -1.4918
 1617Sol     HW 9455   1.414   0.402   3.103 -1.0844  1.2537 -0.3773
 1617Sol     MW 9456   1.432   0.420   3.017 -0.3131 -0.5321 -0.2334
 1618Sol     OW 9457   0.462   1.559   9.140 -0.2144  0.0408 -0.0605
 1618Sol     HW 9458   0.394   1.547   9.206  0.7242  0.1661  0.9388
 1618Sol     HW 9459   0.538   1.592   9.189  0.0133  1.6305 -1.4188
 1618Sol     MW 9460   0.463   1.561   9.150  0.2431 -0.2052  0.6370
 1619Sol     OW 9461   1.252   1.914   6.587  0.1430 -0.5443  0.5763
 1619Sol     HW 9462   1.264   1.982   6.653 -0.3514 -0.9483  1.0882
 1619Sol     HW 9463   1.157   1.904   6.580  0.1830 -0.1400 -0.5735
 1619Sol     MW 9464   1.245   1.919   6.593  0.7737 -0.6919  0.0537
 1620Sol     OW 9465   2.563   1.957   2.132 -0.0065 -0.6978 -0.2398
 1620Sol     HW 9466   2.572   1.875   2.083  0.7928  0.1367 -1.5075
 1620Sol     HW 9467   2.646   1.967   2.179  0.5767  0.2395 -1.4403
 1620Sol     MW 9468   2.571   1.951   2.132 -0.0805 -0.3852 -0.2700
 1621Sol     OW 9469   0.074   0.851   4.825  0.2344 -0.5475  0.3518
 1621Sol     HW 9470   0.061   0.825   4.916  2.0618  0.7599  0.9979
 1621Sol     HW 9471   0.083   0.946   4.828 -1.1704 -0.3188 -1.3925
 1621Sol     MW 9472   0.073   0.857   4.833  0.0055 -0.2061  0.1022
 1622Sol     OW 9473   1.114   0.664   9.230  0.3364 -0.6464  0.7946
 1622Sol     HW 9474   1.196   0.638   9.270  0.5663 -1.8089 -0.3829
 1622Sol     HW 9475   1.138   0.731   9.165  0.7126 -2.7601 -1.3094
 1622Sol     MW 9476   1.123   0.668   9.228  0.0597  0.6669 -0.2200
 1623Sol     OW 9477   2.834   0.193   1.674  0.8514 -0.3402  0.2972
 1623Sol     HW 9478   2.785   0.183   1.755 -0.2982  0.0327 -0.3412
 1623Sol     HW 9479   2.819   0.111   1.626 -1.2397  0.7742 -1.0055
 1623Sol     MW 9480   2.828   0.185   1.677 -0.0690 -0.0580 -0.0392
 1624Sol     OW 9481   1.595   2.789   5.076 -0.3768 -0.0136  0.1239
 1624Sol     HW 9482   1.531   2.858   5.057  0.0981  0.4727  0.2975
 1624Sol     HW 9483   1.659   2.795   5.006 -1.1395 -1.2760 -0.7101
 1624Sol     MW 9484   1.595   2.795   5.068  0.1640  0.4442  0.0025
 1625Sol     OW 9485   0.843   1.056   3.483  0.3719  0.1992  0.1049
 1625Sol     HW 9486   0.830   1.150   3.488  1.7618  0.4206 -0.1957
 1625Sol     HW 9487   0.773   1.025   3.426  0.1464  1.1118 -0.1245
 1625Sol     MW 9488   0.836   1.061   3.478 -0.1745 -0.2330 -0.3734
 1626Sol     OW 9489   1.621   0.668   5.837 -0.0727  0.2219 -0.6320
 1626Sol     HW 9490   1.653   0.652   5.926 -0.1078  0.5278 -0.5618
 1626Sol     HW 9491   1.574   0.751   5.844 -1.9106 -0.8215 -0.4738
 1626Sol     MW 9492   1.620   0.674   5.846 -0.1022  0.4062  0.2971
 1627Sol     OW 9493   1.792   3.002   3.527 -0.2850  0.4073 -0.3828
 1627Sol     HW 9494   1.847   3.080   3.532 -0.5513  0.4556  3.1613
 1627Sol     HW 9495   1.853   2.929   3.537 -0.4426  0.3294  0.0442
 1627Sol     MW 9496   1.802   3.002   3.528 -0.7566  0.0199 -0.1582
 1628Sol     OW 9497   2.345   0.660   4.161  0.6004 -0.8467  0.3901
 1628Sol     HW 9498   2.354   0.568   4.139  0.7008 -0.8087  0.2756
 1628Sol     HW 9499   2.405   0.706   4.102  0.3196 -0.6808  0.2297
 1628Sol     MW 9500   2.351   0.656   4.154  0.9559  0.4535 -0.0393
 1629Sol     OW 9501   2.531   1.726   6.989 -0.7421  0.4722  0.0033
 1629Sol     HW 9502   2.493   1.679   7.063 -0.5018 -0.9756 -0.7749
 1629Sol     HW 9503   2.477   1.701   6.914  2.0575 -2.1385 -1.2495
 1629Sol     MW 9504   2.523   1.719   6.989  0.2542 -0.4963 -0.0213
 1630Sol     OW 9505   1.339   2.989   5.360  0.4636 -0.5513  0.4692
 1630Sol     HW 9506   1.250   3.024   5.367  0.4716 -0.6783  1.2547
 1630Sol     HW 9507   1.367   3.012   5.272 -0.1643 -0.0698  0.3916
 1630Sol     MW 9508   1.334   2.994   5.353  0.1174  0.2946  0.1233
 1631Sol     OW 9509   0.192   2.725   3.290  0.4347  0.3251  0.1677
 1631Sol     HW 9510   0.182   2.651   3.230  1.2285 -0.2226  0.7043
 1631Sol     HW 9511   0.112   2.723   3.343  0.5320 -0.2457  0.2966
 1631Sol     MW 9512   0.184   2.718   3.289  0.3335 -0.4594  0.9512
 1632Sol     OW 9513   1.671   2.927   7.559 -0.0736 -0.1288  0.4543
 1632Sol     HW 9514   1.579   2.906   7.577 -0.3982  1.1539  0.3724
 1632Sol     HW 9515   1.703   2.854   7.506 -1.1533 -0.4035  0.1731
 1632Sol     MW 9516   1.666   2.919   7.556 -0.4382  0.4180 -0.1212
 1633Sol     OW 9517   1.203   2.583   7.536  0.1911 -0.0910 -0.1681
 1633Sol     HW 9518   1.271   2.647   7.558 -0.7477  0.3149  1.7211
 1633Sol     HW 9519   1.126   2.636   7.517  0.4145 -0.5503 -2.3880
 1633Sol     MW 9520   1.202   2.594   7.537 -0.2152  0.0679 -0.5922
 1634Sol     OW 9521   3.283   0.703   2.750 -0.5447 -0.5924 -0.4995
 1634Sol     HW 9522   3.307   0.756   2.674 -1.5498 -0.5986 -0.8278
 1634Sol     HW 9523   3.229   0.760   2.803  0.6849 -0.3776  0.5476
 1634Sol     MW 9524   3.281   0.713   2.748 -0.2192 -0.5406 -0.0926
 1635Sol     OW 9525   2.221   1.395   6.826 -0.8575 -0.1886  0.4198
 1635Sol     HW 9526   2.174   1.431   6.751 -0.5047  1.3737  0.9365
 1635Sol     HW 9527   2.245   1.306   6.798 -2.0387 -0.1711 -0.7303
 1635Sol     MW 9528   2.219   1.390   6.817  0.6933  0.6826  0.1335
 1636Sol     OW 9529   0.774   1.208   6.816  0.1301  0.7039  0.2784
 1636Sol     HW 9530   0.818   1.284   6.854 -0.0349  1.0498 -0.2186
 1636Sol     HW 9531   0.783   1.220   6.721 -0.0321  0.1852  0.1964
 1636Sol     MW 9532   0.779   1.216   6.811 -0.0640 -0.6544  0.0175
 1637Sol     OW 9533   2.069   0.705   4.204 -0.9475  0.4503  0.5057
 1637Sol     HW 9534   2.049   0.798   4.213  1.5008  0.9503  1.1510
 1637Sol     HW 9535   2.164   0.700   4.213 -1.0074 -2.0761  0.0796
 1637Sol     MW 9536   2.075   0.713   4.205  0.8683  0.0481 -0.6499
 1638Sol     OW 9537   1.074   2.969   6.525 -0.0438 -0.1847 -0.1732
 1638Sol     HW 9538   1.044   3.060   6.518 -0.3820 -0.3283 -0.5893
 1638Sol     HW 9539   1.044   2.928   6.444  0.3058 -0.6113 -0.0864
 1638Sol     MW 9540   1.069   2.974   6.517  0.6560  0.2936  0.3441
 1639Sol     OW 9541   3.053   1.296   1.982  0.4606 -0.1112 -0.0424
 1639Sol     HW 9542   3.124   1.305   1.919  0.7452  0.9995  0.4227
 1639Sol     HW 9543   3.096   1.265   2.062  0.2637 -0.4659 -0.0740
 1639Sol     MW 9544   3.063   1.294   1.984  0.0781  0.2877  0.4518
 1640Sol     OW 9545   2.249   1.885   4.816  0.5902 -0.3112  0.3815
 1640Sol     HW 9546   2.172   1.882   4.759  1.8614 -1.2429 -1.3695
 1640Sol     HW 9547   2.219   1.928   4.896 -1.6786 -0.4752 -0.3467
 1640Sol     MW 9548   2.240   1.889   4.818 -0.6486  0.5152 -0.0117
 1641Sol     OW 9549   3.199   1.298   9.190  0.3531  0.0985  0.0278
 1641Sol     HW 9550   3.104   1.300   9.174  0.2708 -0.9412  0.3560
 1641Sol     HW 9551   3.236   1.350   9.119 -0.2686 -1.6827 -1.6613
 1641Sol     MW 9552   3.194   1.303   9.182  0.6696  0.8855  0.7435
 1642Sol     OW 9553   0.454   2.186   3.780 -0.2513  0.4133 -0.0587
 1642Sol     HW 9554   0.400   2.106   3.781  2.2095 -1.3099 -0.7570
 1642Sol     HW 9555   0.435   2.229   3.863 -1.8446 -0.7447  0.1955
 1642Sol     MW 9556   0.447   2.183   3.787 -0.3431 -0.0765  0.1886
 1643Sol     OW 9557   0.483   2.946   4.995 -0.3408 -0.2477  0.9101
 1643Sol     HW 9558   0.520   2.881   4.935 -3.1568 -0.6847 -0.4311
 1643Sol     HW 9559   0.439   3.008   4.938 -1.0904  0.6275  2.4251
 1643Sol     MW 9560   0.483   2.945   4.985  0.8661 -0.4870  0.6322
 1644Sol     OW 9561   0.587   1.429   5.182 -0.5818  0.2589 -0.4321
 1644Sol     HW 9562   0.657   1.467   5.234  1.0770 -4.3510  0.9988
 1644Sol     HW 9563   0.629   1.406   5.099 -0.7661 -1.0318 -0.1810
 1644Sol     MW 9564   0.597   1.430   5.179  0.3653  0.6095  0.2066
 1645Sol     OW 9565   2.338   2.478   3.296 -0.7297  0.4279 -0.0371
 1645Sol     HW 9566   2.276   2.411   3.325 -1.6651  1.8395  1.3415
 1645Sol     HW 9567   2.392   2.495   3.373 -0.2359  0.9502 -0.4990
 1645Sol     MW 9568   2.337   2.474   3.305  0.0392 -0.1487 -0.2206
 1646Sol     OW 9569   3.316   1.720   1.533  0.2920 -0.2053  0.3662
 1646Sol     HW 9570   3.322   1.626   1.516  0.1401 -0.4613  1.6853
 1646Sol     HW 9571   3.240   1.729   1.590 -0.4968  0.8739 -0.8205
 1646Sol     MW 9572   3.310   1.713   1.537  0.7302 -0.1491  0.0044
 1647Sol     OW 9573   2.630   3.231   7.270 -0.1935  0.1138 -0.3995
 1647Sol     HW 9574   2.612   3.242   7.177  0.3612  0.3110 -0.4888
 1647Sol     HW 9575   2.546   3.205   7.308 -0.5204  0.4352 -0.8881
 1647Sol     MW 9576   2.621   3.230   7.265 -0.6001 -0.1395  0.0846
 1648Sol     OW 9577   1.562   2.553   8.511  0.3918  0.0774 -0.2588
 1648Sol     HW 9578   1.602   2.621   8.457  0.2679 -0.6163 -1.2352
 1648Sol     HW 9579   1.542   2.482   8.449 -0.0935 -0.5701  0.6356
 1648Sol     MW 9580   1.564   2.553   8.500  0.0063 -0.3176  0.2312
 1649Sol     OW 9581   0.763   3.261   7.889 -0.1899  0.6586  0.2511
 1649Sol     HW 9582   0.842   3.271   7.943  0.2996 -1.7353  0.0560
 1649Sol     HW 9583   0.774   3.323   7.818  1.5049  0.4055  0.2685
 1649Sol     MW 9584   0.771   3.267   7.888  0.1249 -0.9649 -0.1069
 1650Sol     OW 9585   0.098   3.397   5.046  0.4876 -0.1846 -0.1608
 1650Sol     HW 9586   0.084   3.482   5.004 -2.1179 -1.3728 -1.8195
 1650Sol     HW 9587   0.025   3.389   5.108  1.4549 -0.6633  0.9303
 1650Sol     MW 9588   0.090   3.404   5.048 -0.6152 -0.1817 -0.3408
 1651Sol     OW 9589   0.526   0.117   8.062 -0.7053 -0.4710  0.2138
 1651Sol     HW 9590   0.622   0.112   8.060 -0.6219  0.8150 -2.5255
 1651Sol     HW 9591   0.508   0.207   8.090 -0.9959  0.1683 -1.8817
 1651Sol     MW 9592   0.533   0.125   8.064 -0.5227 -0.5039 -0.4286
 1652Sol     OW 9593   0.340   0.293   5.800  0.0802  0.6970  0.3355
 1652Sol     HW 9594   0.411   0.230   5.815  0.9961  1.5224 -0.5242
 1652Sol     HW 9595   0.348   0.356   5.872  1.3418  1.7994 -0.7481
 1652Sol     MW 9596   0.347   0.293   5.808  0.3843  1.1745  0.4070
 1653Sol     OW 9597   2.745   2.468   6.829  0.6453  0.7445  0.1292
 1653Sol     HW 9598   2.692   2.429   6.899  3.2732 -1.0563  1.2259
 1653Sol     HW 9599   2.746   2.402   6.760  1.0626  0.9432 -0.0545
 1653Sol     MW 9600   2.741   2.458   6.829  0.2864 -0.7844 -0.1825
 1654Sol     OW 9601   2.602   1.252   8.001  0.1245  0.4807 -0.6784
 1654Sol     HW 9602   2.553   1.293   8.072  2.7692  2.3823  0.1002
 1654Sol     HW 9603   2.613   1.321   7.935  1.1965 -0.0929 -1.1273
 1654Sol     MW 9604   2.599   1.262   8.001 -0.1600  0.2397 -0.0131
 1655Sol     OW 9605   2.243   2.068   7.369  0.3785 -0.4594 -0.1286
 1655Sol     HW 9606   2.231   1.973   7.379  0.4555 -0.3843  0.6686
 1655Sol     HW 9607   2.233   2.103   7.457 -0.5641  0.3798 -0.5528
 1655Sol     MW 9608   2.241   2.062   7.378  0.4574  0.3705 -0.1064
 1656Sol     OW 9609   1.163   3.246   3.192 -0.3694 -0.3065  0.0364
 1656Sol     HW 9610   1.139   3.244   3.100 -0.7579 -1.1559  0.1506
 1656Sol     HW 9611   1.084   3.276   3.237  0.2066  1.3497 -0.0187
 1656Sol     MW 9612   1.154   3.249   3.188 -0.2489 -0.1814 -0.0329
 1657Sol     OW 9613   1.895   1.364   8.453 -0.0350 -0.1527 -0.3286
 1657Sol     HW 9614   1.848   1.407   8.381 -1.6350  0.4218  1.0151
 1657Sol     HW 9615   1.869   1.272   8.447 -1.0328  0.0917  0.1624
 1657Sol     MW 9616   1.888   1.359   8.446 -0.2208 -0.1150  0.0535
 1658Sol     OW 9617   1.977   0.112   6.495  0.4475  0.2890 -0.2490
 1658Sol     HW 9618   1.932   0.061   6.562  0.5936  0.4041 -0.0665
 1658Sol     HW 9619   2.045   0.053   6.462 -1.2636 -0.7304 -2.1054
 1658Sol     MW 9620   1.979   0.102   6.498 -0.0388 -0.0760  0.0592
 1659Sol     OW 9621   2.409   0.612   7.095  0.0253 -0.0266 -0.1672
 1659Sol     HW 9622   2.370   0.693   7.130  1.0341  0.4648 -0.1599
 1659Sol     HW 9623   2.395   0.617   7.001 -1.1992 -0.5469 -0.0286
 1659Sol     MW 9624   2.404   0.620   7.090  0.4508  0.1639 -0.1421
 1660Sol     OW 9625   2.255   2.425   6.729 -0.2665 -0.5140 -0.0356
 1660Sol     HW 9626   2.338   2.389   6.760 -0.1705 -0.7120 -0.5039
 1660Sol     HW 9627   2.233   2.494   6.791  1.1212  0.7091 -0.8521
 1660Sol     MW 9628   2.261   2.428   6.737  0.2401 -0.5645  0.0795
 1661Sol     OW 9629   2.514   2.657   6.440  0.0768  0.1617  0.8301
 1661Sol     HW 9630   2.472   2.737   6.407 -1.9542 -0.2312  2.3547
 1661Sol     HW 9631   2.571   2.687   6.510 -1.3285  0.2305  1.9782
 1661Sol     MW 9632   2.515   2.667   6.443  0.5049  0.1381  0.2182
 1662Sol     OW 9633   2.326   2.964   5.683  0.6086 -0.2509  0.4258
 1662Sol     HW 9634   2.235   2.958   5.712 -0.2950 -0.4428 -2.2835
 1662Sol     HW 9635   2.325   2.930   5.593  3.4886 -0.9135  0.5840
 1662Sol     MW 9636   2.318   2.960   5.678 -0.2199  0.3029  0.1446
 1663Sol     OW 9637   2.057   2.234   3.632 -0.6948  0.0726 -0.0030
 1663Sol     HW 9638   1.973   2.205   3.595 -0.4064 -1.0711  0.2345
 1663Sol     HW 9639   2.109   2.154   3.641  1.4482  1.0927 -2.6530
 1663Sol     MW 9640   2.054   2.224   3.629  0.1232 -0.4116  0.5918
 1664Sol     OW 9641   1.551   3.424   5.340 -0.3507 -0.2621  0.3444
 1664Sol     HW 9642   1.632   3.397   5.296  0.7210  1.3692  1.2777
 1664Sol     HW 9643   1.500   3.464   5.270  0.8774  1.3061  0.3083
 1664Sol     MW 9644   1.554   3.425   5.330 -0.2857  0.1001 -0.7953
 1665Sol     OW 9645   2.151   1.285   3.618 -0.4781 -0.2931  0.3850
 1665Sol     HW 9646   2.125   1.307   3.528 -2.7027 -1.9116  0.5767
 1665Sol     HW 9647   2.226   1.227   3.608 -2.3330 -2.6274 -0.5927
 1665Sol     MW 9648   2.155   1.282   3.609 -0.2298 -0.3658  0.6021
 1666Sol     OW 9649   2.933   0.056   3.802 -0.2301  0.1405 -0.0023
 1666Sol     HW 9650   3.027   0.065   3.788 -0.3148 -0.8544 -1.2366
 1666Sol     HW 9651   2.899   0.146   3.795  0.3018  0.1957 -1.9560
 1666Sol     MW 9652   2.939   0.065   3.801  0.8511  0.1527 -0.0838
 1667Sol     OW 9653   0.208   2.927   6.034 -0.2320 -0.1555  0.0599
 1667Sol     HW 9654   0.113   2.931   6.029 -0.1140  0.2899 -2.2323
 1667Sol     HW 9655   0.236   2.886   5.952  1.5116 -1.1851  1.1245
 1667Sol     MW 9656   0.202   2.924   6.027 -0.2501  0.6891  0.3346
 1668Sol     OW 9657   0.346   1.422   7.027  0.3654  0.4085  0.3082
 1668Sol     HW 9658   0.287   1.360   7.070  0.3017 -0.2916 -0.7771
 1668Sol     HW 9659   0.392   1.465   7.099 -1.8584  1.3525  1.2174
 1668Sol     MW 9660   0.345   1.420   7.037 -0.6148  0.4883 -0.2131
 1669Sol     OW 9661   2.284   3.371   8.656 -0.0830  0.1440  0.1255
 1669Sol     HW 9662   2.366   3.347   8.699 -0.9267  1.4931  2.6097
 1669Sol     HW 9663   2.217   3.322   8.704 -0.9605  0.8657 -0.3484
 1669Sol     MW 9664   2.285   3.364   8.664 -0.0591  0.1531 -0.1332
 1670Sol     OW 9665   2.475   0.036   4.940 -0.2039  0.1014 -0.5066
 1670Sol     HW 9666   2.433   0.003   5.020  0.6032 -0.4023 -0.2781
 1670Sol     HW 9667   2.436   0.122   4.926  0.4058  0.6604  1.0405
 1670Sol     MW 9668   2.468   0.040   4.946  1.0602  0.3132  0.1990
 1671Sol     OW 9669   0.177   3.388   9.543  0.0044  0.1685  0.0479
 1671Sol     HW 9670   0.100   3.431   9.578 -0.7761 -0.2069 -1.1758
 1671Sol     HW 9671   0.149   3.299   9.522  0.7643  0.0156 -0.3797
 1671Sol     MW 9672   0.168   3.384   9.544 -0.1648  0.3724  0.0947
 1672Sol     OW 9673   2.403   0.935   6.516 -0.2835 -0.5231  0.1245
 1672Sol     HW 9674   2.436   0.878   6.585  0.6840 -1.0356 -0.7492
 1672Sol     HW 9675   2.472   1.001   6.505 -1.1060  0.4421  0.6809
 1672Sol     MW 9676   2.412   0.936   6.521  0.6895 -0.1473 -0.2121
 1673Sol     OW 9677   2.472   2.261   1.917 -0.2001 -0.0843  0.4208
 1673Sol     HW 9678   2.486   2.351   1.889 -2.4649  0.3920  0.7375
 1673Sol     HW 9679   2.545   2.243   1.977 -0.1459  1.7851  0.9385
 1673Sol     MW 9680   2.480   2.267   1.920 -0.7619 -0.1063 -0.2553
 1674Sol     OW 9681   1.236   0.866   8.746 -0.3205  0.2325  0.2708
 1674Sol     HW 9682   1.201   0.908   8.667  1.0049 -0.1481 -0.5447
 1674Sol     HW 9683   1.331   0.863   8.731 -0.3413 -2.7521  0.4354
 1674Sol     MW 9684   1.242   0.869   8.737 -0.3494 -0.7291  0.1001
 1675Sol     OW 9685   1.961   1.525   6.021  0.5356 -0.1847  0.5521
 1675Sol     HW 9686   1.980   1.567   6.105  0.3946 -0.9781  0.9874
 1675Sol     HW 9687   1.984   1.433   6.035  1.8438 -0.0787 -0.6985
 1675Sol     MW 9688   1.965   1.521   6.030 -0.5106  0.6851  0.5974
 1676Sol     OW 9689   0.739   0.139   6.346 -0.0425 -0.1081 -0.9136
 1676Sol     HW 9690   0.767   0.052   6.375 -2.7994 -0.0896  2.0348
 1676Sol     HW 9691   0.801   0.199   6.389  0.1471 -0.4474 -0.7091
 1676Sol     MW 9692   0.747   0.136   6.353  0.2979  0.2491  0.2481
 1677Sol     OW 9693   2.363   1.946   5.759  0.1434 -0.0592  0.4723
 1677Sol     HW 9694   2.292   1.993   5.716 -0.8183 -3.2114 -1.5357
 1677Sol     HW 9695   2.435   1.948   5.696  1.1906  1.3777  1.6738
 1677Sol     MW 9696   2.363   1.951   5.750  0.2766  0.2492  0.0140
 1678Sol     OW 9697   1.271   3.307   5.076 -0.6986 -0.0113  0.3970
 1678Sol     HW 9698   1.313   3.387   5.106 -0.7987  0.9796 -1.9640
 1678Sol     HW 9699   1.222   3.275   5.151  0.2095  1.5506  1.6839
 1678Sol     MW 9700   1.271   3.311   5.085 -0.3071  0.5930  0.1711
 1679Sol     OW 9701   1.243   1.591   2.387 -0.2010  0.0872 -0.0803
 1679Sol     HW 9702   1.315   1.530   2.401  0.5584  0.8877 -0.4052
 1679Sol     HW 9703   1.172   1.558   2.442  0.4632 -0.6365  0.3485
 1679Sol     MW 9704   1.244   1.583   2.393 -0.4910 -0.3306 -0.2112
 1680Sol     OW 9705   2.622   0.478   6.951 -0.1018  0.0258 -0.2278
 1680Sol     HW 9706   2.571   0.421   6.893 -0.5279  0.0234  0.1431
 1680Sol     HW 9707   2.560   0.504   7.019  0.5871 -0.5710  0.6351
 1680Sol     MW 9708   2.611   0.475   6.952  0.2374  0.5327  0.3928
 1681Sol     OW 9709   2.846   0.416   8.812 -0.0615  0.4449  0.1050
 1681Sol     HW 9710   2.825   0.335   8.857 -0.3999  2.0552  2.9555
 1681Sol     HW 9711   2.905   0.390   8.741  0.7631 -2.1285  1.6889
 1681Sol     MW 9712   2.849   0.407   8.810 -0.0926 -0.3944  0.0431
 1682Sol     OW 9713   1.556   0.382   7.603  0.0915 -0.1513  0.5108
 1682Sol     HW 9714   1.566   0.472   7.570 -1.8057 -0.1068 -0.0252
 1682Sol     HW 9715   1.550   0.392   7.698 -3.2343  0.6461  0.2720
 1682Sol     MW 9716   1.556   0.391   7.608 -0.0136 -0.0677  0.0803
 1683Sol     OW 9717   3.306   0.499   6.299 -0.0555 -0.1320 -0.2922
 1683Sol     HW 9718   3.345   0.583   6.277 -1.9421  0.2011 -2.4777
 1683Sol     HW 9719   3.313   0.493   6.395 -0.6417  2.8497 -0.0417
 1683Sol     MW 9720   3.310   0.506   6.306  0.5891  0.9276  0.6171
 1684Sol     OW 9721   0.568   1.626   2.814  0.0489  0.6112  0.7159
 1684Sol     HW 9722   0.580   1.589   2.901 -1.5895  0.4197  0.8647
 1684Sol     HW 9723   0.477   1.607   2.791  0.9193 -0.8577 -1.7545
 1684Sol     MW 9724   0.561   1.621   2.820 -0.4631 -0.2445 -0.8143
 1685Sol     OW 9725   1.388   3.027   7.335 -0.2639  0.0453 -0.6154
 1685Sol     HW 9726   1.481   3.036   7.316  0.3596 -0.3038  2.1552
 1685Sol     HW 9727   1.355   3.116   7.336  0.7979  0.4363  1.9455
 1685Sol     MW 9728   1.393   3.035   7.333 -0.2021 -0.0638  0.2540
 1686Sol     OW 9729   0.710   1.903   8.803  0.5453  0.2044  0.3476
 1686Sol     HW 9730   0.765   1.952   8.865  2.8790 -0.4193 -1.1796
 1686Sol     HW 9731   0.722   1.812   8.829  1.3083 -0.0337 -0.8358
 1686Sol     MW 9732   0.716   1.899   8.811  0.4295 -0.1441  0.0580
 1687Sol     OW 9733   1.291   0.395   8.084  0.0877  0.6264 -0.3446
 1687Sol     HW 9734   1.242   0.434   8.157 -1.3130 -1.8406  0.0989
 1687Sol     HW 9735   1.366   0.353   8.126 -0.7666 -0.8709 -0.2511
 1687Sol     MW 9736   1.293   0.395   8.094  0.3868  0.2377  0.8513
 1688Sol     OW 9737   2.761   2.750   4.950 -0.7502 -0.0290 -0.6545
 1688Sol     HW 9738   2.697   2.814   4.980 -0.0193  0.7662 -0.7672
 1688Sol     HW 9739   2.765   2.762   4.855  1.3386  1.6367 -0.4029
 1688Sol     MW 9740   2.756   2.756   4.944  0.1436  0.0875 -0.8496
 1689Sol     OW 9741   3.165   0.216   5.658  0.2666  0.2776  0.2998
 1689Sol     HW 9742   3.136   0.306   5.672  0.0235  0.4965 -1.4906
 1689Sol     HW 9743   3.258   0.216   5.679 -0.1047  0.5485  1.9648
 1689Sol     MW 9744   3.171   0.224   5.661  0.2032  0.1987 -0.2644
 1690Sol     OW 9745   0.941   1.891   2.448  0.0206 -0.0515 -0.4469
 1690Sol     HW 9746   0.987   1.871   2.366 -0.6233 -0.0981 -0.8020
 1690Sol     HW 9747   1.006   1.936   2.502  1.5465 -3.0488  0.3787
 1690Sol     MW 9748   0.951   1.893   2.445  0.2520 -0.1538  0.3329
 1691Sol     OW 9749   1.399   0.421   6.025  0.2159 -0.4566 -0.0766
 1691Sol     HW 9750   1.352   0.338   6.030  0.0714 -0.3865 -0.2652
 1691Sol     HW 9751   1.489   0.397   6.002  0.4391 -0.6403  0.9832
 1691Sol     MW 9752   1.403   0.412   6.023 -0.4417  0.7385 -0.1659
 1692Sol     OW 9753   0.874   2.406   2.224 -0.1867 -0.8775 -0.2972
 1692Sol     HW 9754   0.908   2.486   2.184 -0.0902 -1.1292 -0.7153
 1692Sol     HW 9755   0.785   2.429   2.249  0.1994 -0.2900  0.5866
 1692Sol     MW 9756   0.869   2.415   2.223 -0.1147  0.0492 -0.0646
 1693Sol     OW 9757   1.409   0.520   2.028 -0.7132 -0.1179 -0.0679
 1693Sol     HW 9758   1.366   0.491   2.109 -0.6610 -1.8783 -0.6449
 1693Sol     HW 9759   1.488   0.466   2.023 -0.4347  0.3779 -1.0205
 1693Sol     MW 9760   1.412   0.513   2.035 -0.1181  0.0457 -0.4643
 1694Sol     OW 9761   2.983   3.266   8.463 -0.2886  0.6845 -0.0001
 1694Sol     HW 9762   2.960   3.350   8.424  0.7528  1.2372  0.5758
 1694Sol     HW 9763   2.922   3.204   8.423  1.6357  0.9909 -3.5485
 1694Sol     MW 9764   2.975   3.268   8.456 -0.8618 -0.1065  0.1857
 1695Sol     OW 9765   0.127   2.855   2.715 -0.2218  0.0218  0.3775
 1695Sol     HW 9766   0.125   2.896   2.629 -0.8094  0.3037  0.5242
 1695Sol     HW 9767   0.184   2.911   2.767  0.3046 -0.2646  0.1189
 1695Sol     MW 9768   0.132   2.863   2.712 -0.2092  0.1528  0.0218
 1696Sol     OW 9769   1.686   3.230   4.786 -0.2626 -0.6471 -0.6414
 1696Sol     HW 9770   1.722   3.184   4.862 -1.1062 -1.4318 -0.7125
 1696Sol     HW 9771   1.707   3.173   4.712  0.3739  0.0153 -0.9800
 1696Sol     MW 9772   1.691   3.221   4.786 -0.3315 -0.2221 -0.6108
 1697Sol     OW 9773   1.174   1.492   6.969 -0.1919  0.1020  0.2057
 1697Sol     HW 9774   1.239   1.461   6.906 -1.4676 -1.1736 -0.5178
 1697Sol     HW 9775   1.187   1.437   7.046 -0.5416 -0.3197 -0.0276
 1697Sol     MW 9776   1.181   1.484   6.970  0.0904  0.2722 -0.7085
 1698Sol     OW 9777   0.316   1.987   2.180  0.3883 -0.0147 -0.2181
 1698Sol     HW 9778   0.394   1.954   2.137 -0.5085 -1.0512 -1.0749
 1698Sol     HW 9779   0.344   2.003   2.271  1.4694 -0.8015 -0.4005
 1698Sol     MW 9780   0.325   1.986   2.185  0.3133  0.6141 -0.2125
 1699Sol     OW 9781   1.627   3.406   8.973 -0.2791  0.0563 -0.1006
 1699Sol     HW 9782   1.720   3.386   8.982 -0.0218  0.9966 -0.5918
 1699Sol     HW 9783   1.583   3.341   9.027  0.7148  0.1122  0.7915
 1699Sol     MW 9784   1.631   3.399   8.979 -0.2030 -0.5642  0.5997
 1700Sol     OW 9785   1.334   2.275   5.622 -0.4959  0.0314  0.2865
 1700Sol     HW 9786   1.375   2.189   5.612 -1.1399 -0.3727  1.0686
 1700Sol     HW 9787   1.404   2.331   5.655 -0.3464 -0.4535  0.7954
 1700Sol     MW 9788   1.344   2.272   5.624  0.4610 -0.5329 -0.2379
 1701Sol     OW 9789   3.246   3.155   2.574  0.2088  0.0034  0.1522
 1701Sol     HW 9790   3.297   3.168   2.654  0.9659 -0.9182 -0.1704
 1701Sol     HW 9791   3.204   3.070   2.587 -0.0589  0.0783 -0.2301
 1701Sol     MW 9792   3.247   3.148   2.583  0.1937  0.3311 -0.1563
 1702Sol     OW 9793   1.991   2.596   9.821  0.0129 -0.1655 -0.0188
 1702Sol     HW 9794   2.008   2.545   9.743 -1.0409 -0.9546  0.2624
 1702Sol     HW 9795   2.064   2.658   9.826 -0.9450  1.2524 -2.7298
 1702Sol     MW 9796   1.999   2.597   9.815  0.1692  0.7220 -0.2861
 1703Sol     OW 9797   3.158   3.206   5.423 -0.2691 -0.0423 -0.0931
 1703Sol     HW 9798   3.193   3.179   5.508 -0.0081  0.0042 -0.1866
 1703Sol     HW 9799   3.112   3.129   5.390 -1.1821  0.2306  0.5202
 1703Sol     MW 9800   3.157   3.197   5.428 -0.4667 -0.2786 -0.1414
 1704Sol     OW 9801   0.880   1.154   2.078 -0.2761  0.2532 -0.0263
 1704Sol     HW 9802   0.968   1.189   2.093  0.4714 -1.4876 -0.1490
 1704Sol     HW 9803   0.893   1.059   2.079 -1.8344  0.0040 -2.0398
 1704Sol     MW 9804   0.889   1.149   2.079  0.2352  0.1026 -0.3170
 1705Sol     OW 9805   2.549   3.133   1.374  0.0351 -0.2330 -0.0111
 1705Sol     HW 9806   2.495   3.169   1.443  0.0824 -0.7086  0.2797
 1705Sol     HW 9807   2.638   3.134   1.409  0.2072  0.4836 -0.4602
 1705Sol     MW 9808   2.552   3.136   1.383  0.6155  0.5059 -0.2658
 1706Sol     OW 9809   1.786   1.914   7.649  0.0134 -0.2488  0.0153
 1706Sol     HW 9810   1.699   1.951   7.658  0.0732 -0.0607 -0.1823
 1706Sol     HW 9811   1.797   1.858   7.726 -0.1801 -0.0701  0.1715
 1706Sol     MW 9812   1.779   1.912   7.657 -0.5516  0.1121  0.1348
 1707Sol     OW 9813   0.453   1.055   9.882  0.0322  0.0843 -0.0390
 1707Sol     HW 9814   0.363   1.033   9.859  0.2436 -1.9134  0.9481
 1707Sol     HW 9815   0.503   1.040   9.802 -0.1707 -1.0253  0.0316
 1707Sol     MW 9816   0.449   1.051   9.873  0.2397  0.5300 -0.2930
 1708Sol     OW 9817   2.959   1.604   4.208 -0.0595  0.0977  0.3891
 1708Sol     HW 9818   2.962   1.586   4.302  1.1131 -1.3732  0.0930
 1708Sol     HW 9819   3.030   1.666   4.193 -1.0024  1.2481  0.6527
 1708Sol     MW 9820   2.966   1.608   4.215 -0.2759 -0.6988 -0.1756
 1709Sol     OW 9821   3.089   1.483   4.645  0.1902 -0.4668 -0.3166
 1709Sol     HW 9822   3.103   1.565   4.693 -1.8040 -0.0145 -0.4720
 1709Sol     HW 9823   3.099   1.508   4.553 -0.0720 -0.4830 -0.3473
 1709Sol     MW 9824   3.091   1.493   4.641 -0.1170 -0.2887 -0.7216
 1710Sol     OW 9825   0.013   2.202   8.648 -0.5444 -0.1702 -0.1049
 1710Sol     HW 9826   0.016   2.291   8.684  1.1671  0.1268 -0.9179
 1710Sol     HW 9827  -0.036   2.211   8.567  0.7505  0.2803 -0.8410
 1710Sol     MW 9828   0.009   2.211   8.644 -0.1815  0.1755  0.7588
 1711Sol     OW 9829   0.251   1.087   5.103  0.7085  0.2002 -0.1306
 1711Sol     HW 9830   0.330   1.123   5.145  0.0094  2.3090 -0.5612
 1711Sol     HW 9831   0.251   0.995   5.128  3.3568  0.1339 -0.1866
 1711Sol     MW 9832   0.258   1.082   5.109  0.3513  0.4163 -0.6054
 1712Sol     OW 9833   1.741   2.566   3.202 -0.1844 -0.3428  0.3036
 1712Sol     HW 9834   1.812   2.628   3.221 -2.1863  1.9604  0.5436
 1712Sol     HW 9835   1.700   2.550   3.286 -0.1293 -1.4598  0.1220
 1712Sol     MW 9836   1.744   2.570   3.211  0.5415 -0.1068  0.0538
 1713Sol     OW 9837   2.997   2.561   8.509  0.4200  0.4554 -0.0574
 1713Sol     HW 9838   2.901   2.564   8.514  0.3816  1.2719 -1.0057
 1713Sol     HW 9839   3.017   2.583   8.418  1.5214  0.5258  0.1879
 1713Sol     MW 9840   2.990   2.563   8.501  0.3143  0.6445  0.0176
 1714Sol     OW 9841   2.171   0.627   2.987  0.1015  0.0645 -0.1698
 1714Sol     HW 9842   2.195   0.709   3.032  1.1280  1.4225 -3.0348
 1714Sol     HW 9843   2.181   0.559   3.054  2.7434  1.8391  1.3644
 1714Sol     MW 9844   2.174   0.629   2.998 -0.4355 -0.2218  0.0410
 1715Sol     OW 9845   3.246   0.054   8.270  0.1114  0.0120  0.3899
 1715Sol     HW 9846   3.298  -0.026   8.281  0.1329 -0.1422 -0.7687
 1715Sol     HW 9847   3.300   0.111   8.217 -0.0168  0.7114  1.0027
 1715Sol     MW 9848   3.255   0.052   8.266  0.0292 -0.0837 -0.0066
 1716Sol     OW 9849   2.150   0.993   8.764 -0.4523  0.2317  0.2327
 1716Sol     HW 9850   2.205   0.920   8.791  0.0356  0.3345 -0.4626
 1716Sol     HW 9851   2.111   1.025   8.845 -2.2228 -2.0305  0.3123
 1716Sol     MW 9852   2.151   0.990   8.773 -0.0497  0.0666  0.3967
 1717Sol     OW 9853   0.725   1.997   8.310  0.5113 -0.6560  0.3976
 1717Sol     HW 9854   0.677   2.057   8.252 -0.2151  0.2999  1.9524
 1717Sol     HW 9855   0.810   1.987   8.268  0.0211  0.0577 -0.8200
 1717Sol     MW 9856   0.728   2.002   8.301  0.0807 -0.0743  0.2227
 1718Sol     OW 9857   0.962   2.179   2.986 -0.3637  0.3876  0.1422
 1718Sol     HW 9858   0.956   2.208   3.077 -0.9700  0.6707  0.0137
 1718Sol     HW 9859   0.893   2.114   2.977  1.2865 -1.4806  0.5548
 1718Sol     MW 9860   0.955   2.176   2.993 -0.0166  0.0006  0.1165
 1719Sol     OW 9861   2.103   1.746   2.631  0.1703  0.4945 -0.0464
 1719Sol     HW 9862   2.114   1.799   2.552  0.6975  0.1011 -0.2367
 1719Sol     HW 9863   2.025   1.782   2.674 -0.5758  0.2063 -1.1467
 1719Sol     MW 9864   2.097   1.754   2.628  0.3365  0.1443  0.2373
 1720Sol     OW 9865   1.623   0.660   4.702  0.0512 -0.0210  0.2952
 1720Sol     HW 9866   1.688   0.632   4.638 -1.1011 -0.6945 -0.6108
 1720Sol     HW 9867   1.591   0.579   4.741 -3.6879 -0.1457 -2.7203
 1720Sol     MW 9868   1.626   0.650   4.700 -0.1394 -0.2611 -0.4641
 1721Sol     OW 9869   2.480   1.397   3.523  0.3707 -0.4481  0.4534
 1721Sol     HW 9870   2.503   1.365   3.436  1.7388  1.1495  0.2244
 1721Sol     HW 9871   2.476   1.317   3.577  2.2187 -1.1773 -0.4604
 1721Sol     MW 9872   2.482   1.387   3.520  0.5456  0.1028 -0.1057
 1722Sol     OW 9873   0.923   3.012   5.652 -0.0326 -0.5085  0.1903
 1722Sol     HW 9874   0.985   2.942   5.674  0.0839 -0.6015 -0.4270
 1722Sol     HW 9875   0.906   3.000   5.559 -1.3156 -0.7406  0.4549
 1722Sol     MW 9876   0.927   3.004   5.646 -0.5632  0.0200 -0.1635
 1723Sol     OW 9877   1.917   1.316   6.793  0.5011  0.2960  0.3824
 1723Sol     HW 9878   1.977   1.259   6.744 -0.4118  0.7381 -1.2766
 1723Sol     HW 9879   1.853   1.256   6.830 -0.5267  0.2173 -1.4620
 1723Sol     MW 9880   1.917   1.305   6.792 -0.3693 -0.1241  0.2124
 1724Sol     OW 9881   2.306   0.143   6.608  0.4079  0.0377  0.6106
 1724Sol     HW 9882   2.334   0.079   6.542  2.8056  0.2991  1.3135
 1724Sol     HW 9883   2.269   0.090   6.678  1.0522 -0.4828  0.5629
 1724Sol     MW 9884   2.305   0.132   6.608  0.6616  0.3766 -0.3230
 1725Sol     OW 9885   0.072   2.144   7.752 -0.1010  0.2339 -0.4770
 1725Sol     HW 9886  -0.012   2.099   7.754  0.9055 -1.7752 -1.4473
 1725Sol     HW 9887   0.115   2.118   7.834  0.8106 -1.3128 -1.4088
 1725Sol     MW 9888   0.068   2.137   7.759 -0.1509 -0.3432 -0.1736
 1726Sol     OW 9889   1.594   0.687   6.615 -0.0906 -0.1037 -0.2770
 1726Sol     HW 9890   1.545   0.730   6.545  0.4962 -0.5708 -0.9711
 1726Sol     HW 9891   1.535   0.691   6.690 -1.3771 -1.0341 -1.2206
 1726Sol     MW 9892   1.584   0.692   6.615  0.4903 -0.6020 -0.2539
 1727Sol     OW 9893   1.095   2.829   6.267  0.5264  0.5488  0.1878
 1727Sol     HW 9894   1.131   2.829   6.178  0.7812 -0.5631  0.2817
 1727Sol     HW 9895   1.015   2.777   6.260 -0.0651  1.4325  0.3722
 1727Sol     MW 9896   1.091   2.824   6.258  0.2380 -0.1803 -0.1643
 1728Sol     OW 9897   3.245   1.173   5.802 -0.0306 -0.6148 -0.6172
 1728Sol     HW 9898   3.184   1.233   5.760  0.8011 -1.4026 -3.0650
 1728Sol     HW 9899   3.332   1.200   5.770  0.4632 -2.2918 -0.7443
 1728Sol     MW 9900   3.248   1.181   5.795 -0.1849 -0.1629 -0.4888
 1729Sol     OW 9901   2.497   2.624   4.572  0.1803  0.3558  0.8393
 1729Sol     HW 9902   2.525   2.555   4.512  1.5603  1.5677  0.0560
 1729Sol     HW 9903   2.417   2.659   4.533  0.4874  0.4259  0.2669
 1729Sol     MW 9904   2.492   2.621   4.563  0.2047 -0.4774  0.0294
 1730Sol     OW 9905   3.181   2.591   3.691 -0.1902 -0.2411  0.0576
 1730Sol     HW 9906   3.217   2.569   3.777 -0.1885  0.7467  0.3199
 1730Sol     HW 9907   3.154   2.507   3.654  0.8075 -0.7993  0.5646
 1730Sol     MW 9908   3.182   2.582   3.696  0.0772  0.2290  0.0763
 1731Sol     OW 9909   1.406   3.071   5.092  0.2934 -0.7739 -0.3969
 1731Sol     HW 9910   1.363   3.157   5.089 -2.6694 -2.1416  0.8443
 1731Sol     HW 9911   1.407   3.042   5.001 -0.0751 -0.0919 -0.6233
 1731Sol     MW 9912   1.402   3.076   5.083 -0.1840  0.0862  0.1854
 1732Sol     OW 9913   0.109   1.540   5.757 -0.0158  0.1692  0.4453
 1732Sol     HW 9914   0.128   1.447   5.756 -1.0488 -0.0471 -0.6712
 1732Sol     HW 9915   0.014   1.546   5.760 -0.0185  1.1614 -0.8131
 1732Sol     MW 9916   0.102   1.533   5.757  0.0290  1.1072 -0.5040
 1733Sol     OW 9917   0.261   1.211   9.224 -0.6091  0.5920  0.0689
 1733Sol     HW 9918   0.227   1.294   9.256 -1.0606  0.5197 -0.2178
 1733Sol     HW 9919   0.263   1.154   9.301  0.6324  1.1645  0.4763
 1733Sol     MW 9920   0.259   1.213   9.233  0.8183 -0.8457  0.6109
 1734Sol     OW 9921   0.425   3.133   7.365  0.4808  0.0240 -0.3236
 1734Sol     HW 9922   0.394   3.202   7.423 -1.6686 -0.6673 -0.5994
 1734Sol     HW 9923   0.427   3.173   7.278  0.1932  0.0235 -0.3307
 1734Sol     MW 9924   0.423   3.142   7.363  0.2612 -0.0084 -0.8968
 1735Sol     OW 9925   2.257   1.191   6.411 -0.2442 -0.1190 -0.0757
 1735Sol     HW 9926   2.311   1.189   6.331  0.1053  1.0195  0.1219
 1735Sol     HW 9927   2.186   1.251   6.390 -0.8590 -0.8001  0.0371
 1735Sol     MW 9928   2.256   1.196   6.402  0.3000  0.2021  0.7669
 1736Sol     OW 9929   0.082   0.008   9.041  0.1692 -0.1725  0.6257
 1736Sol     HW 9930   0.160   0.037   9.089  0.7224 -1.6120  0.6273
 1736Sol     HW 9931   0.035  -0.047   9.104  0.6688 -1.7082 -0.3333
 1736Sol     MW 9932   0.085   0.006   9.051  0.4589  0.0004 -0.2043
 1737Sol     OW 9933   2.280   2.275   5.145  0.3919  0.6714 -0.1550
 1737Sol     HW 9934   2.226   2.196   5.144 -0.0344  0.9703 -2.4006
 1737Sol     HW 9935   2.369   2.242   5.161  0.7520 -0.6833 -4.3081
 1737Sol     MW 9936   2.283   2.265   5.147 -0.0433  0.2641  0.3801
 1738Sol     OW 9937   0.111   0.799   7.889  0.3053 -0.2796  0.4868
 1738Sol     HW 9938   0.020   0.830   7.889  0.1919 -0.4949 -1.5387
 1738Sol     HW 9939   0.140   0.809   7.979 -2.1918 -1.5848  1.4876
 1738Sol     MW 9940   0.105   0.803   7.897 -0.2567  0.0091 -0.5131
 1739Sol     OW 9941   0.973   3.024   7.413 -0.1325  0.1097  0.4589
 1739Sol     HW 9942   0.884   3.056   7.409 -0.5330 -0.9055  1.0188
 1739Sol     HW 9943   1.024   3.098   7.445 -0.7711  0.6777  0.1768
 1739Sol     MW 9944   0.970   3.033   7.415 -0.4061 -0.0867  0.0369
 1740Sol     OW 9945   2.717   0.171   5.434  0.3182  0.2138  0.1623
 1740Sol     HW 9946   2.732   0.078   5.449  0.3274  0.1696 -0.1219
 1740Sol     HW 9947   2.799   0.203   5.397 -0.2627 -0.0287 -1.3754
 1740Sol     MW 9948   2.725   0.165   5.432 -0.1881 -0.7449  0.0434
 1741Sol     OW 9949   1.485   2.109   4.910  0.6226  0.2325 -0.2504
 1741Sol     HW 9950   1.549   2.079   4.845  2.3081  1.2708  0.8828
 1741Sol     HW 9951   1.493   2.047   4.982  0.3990  0.3882 -0.0935
 1741Sol     MW 9952   1.492   2.101   4.910  0.2004 -0.1142  0.6484
 1742Sol     OW 9953   1.669   3.410   9.409 -0.0877  0.3627 -0.2516
 1742Sol     HW 9954   1.589   3.431   9.456 -0.5753  2.3399 -1.8872
 1742Sol     HW 9955   1.685   3.318   9.428 -1.5523  0.5210  1.8352
 1742Sol     MW 9956   1.663   3.404   9.415 -0.3142 -0.0825 -0.1272
 1743Sol     OW 9957   2.258   1.610   2.813 -0.5823  0.6823 -0.1515
 1743Sol     HW 9958   2.340   1.658   2.822 -0.8400  0.8550  1.4103
 1743Sol     HW 9959   2.215   1.649   2.737  1.3196 -0.2264 -1.7263
 1743Sol     MW 9960   2.261   1.617   2.807  0.0640  0.6517 -0.9816
 1744Sol     OW 9961   2.164   2.825   9.762  0.4464 -0.0409 -0.2255
 1744Sol     HW 9962   2.109   2.879   9.706  0.5302 -0.1748 -0.4361
 1744Sol     HW 9963   2.244   2.877   9.773 -0.1321  0.6098  0.9278
 1744Sol     MW 9964   2.167   2.835   9.758 -0.2916 -0.0077 -0.0794
 1745Sol     OW 9965   1.072   2.771   1.330 -0.2926  0.1528  0.1524
 1745Sol     HW 9966   1.024   2.771   1.247 -0.4413 -0.8547  0.2278
 1745Sol     HW 9967   1.030   2.702   1.382  1.2737 -0.8037  0.1876
 1745Sol     MW 9968   1.064   2.764   1.327  0.1000 -0.3585 -0.2335
 1746Sol     OW 9969   0.278   0.973   5.959  0.3865 -0.5121 -0.4440
 1746Sol     HW 9970   0.310   0.883   5.968  0.1470 -0.6230 -0.7180
 1746Sol     HW 9971   0.184   0.967   5.977  0.3590 -0.3274 -0.5243
 1746Sol     MW 9972   0.272   0.965   5.962  0.4842  0.2904  0.2997
 1747Sol     OW 9973   0.624   2.168   4.410  0.3324  0.4079  0.2823
 1747Sol     HW 9974   0.668   2.083   4.423  1.0119  0.8781  1.1186
 1747Sol     HW 9975   0.681   2.231   4.454  0.5082  1.4975 -1.4789
 1747Sol     MW 9976   0.633   2.166   4.415 -0.1410 -0.4067 -0.3952
 1748Sol     OW 9977   1.051   0.477   5.547  0.1508 -0.1998  0.2971
 1748Sol     HW 9978   1.005   0.502   5.467 -2.0301 -2.6690  0.6919
 1748Sol     HW 9979   0.991   0.502   5.618  1.0089 -0.1685  1.0259
 1748Sol     MW 9980   1.041   0.481   5.546  0.6925 -0.0655  0.1786
 1749Sol     OW 9981   3.080   0.291   7.345  0.3247 -0.2018 -0.2067
 1749Sol     HW 9982   2.997   0.339   7.353  0.9767  1.0680 -0.8762
 1749Sol     HW 9983   3.117   0.293   7.434  0.5075  0.8533 -0.2979
 1749Sol     MW 9984   3.076   0.296   7.354 -0.2410 -0.0840 -0.6225
 1750Sol     OW 9985   0.138   1.765   9.208 -0.2844  0.2264 -0.4521
 1750Sol     HW 9986   0.071   1.832   9.224  0.1099  0.3631  0.6923
 1750Sol     HW 9987   0.158   1.773   9.115 -0.4482  1.5113 -0.3929
 1750Sol     MW 9988   0.134   1.772   9.201 -0.4008  0.1539  0.1880
 1751Sol     OW 9989   1.489   3.299   4.388 -0.0622  0.2575 -0.3231
 1751Sol     HW 9990   1.519   3.211   4.365 -1.4535  0.5228 -3.3306
 1751Sol     HW 9991   1.415   3.283   4.448 -1.5738 -0.7063 -2.3981
 1751Sol     MW 9992   1.485   3.290   4.392 -0.1334  0.7573 -0.6457
 1752Sol     OW 9993   1.590   0.509   7.244  0.5703  0.2610  0.5002
 1752Sol     HW 9994   1.500   0.513   7.212  0.6990 -0.9365 -0.0390
 1752Sol     HW 9995   1.591   0.567   7.320 -0.9068 -0.4400  1.0678
 1752Sol     MW 9996   1.582   0.514   7.248 -0.0430 -0.1933 -0.3917
 1753Sol     OW 9997   0.400   1.783   7.318 -1.0029  0.0871 -0.2122
 1753Sol     HW 9998   0.436   1.702   7.283 -2.2627 -1.0591  1.0218
 1753Sol     HW 9999   0.306   1.764   7.328 -1.6844  2.4288 -1.8889
 1753Sol     MW10000   0.394   1.774   7.316  0.8225 -0.4971 -0.0757
 1754Sol     OW10001   1.080   0.408   4.755  0.0749  0.2293  0.4418
 1754Sol     HW10002   1.131   0.463   4.814  1.1953  1.1495 -1.3409
 1754Sol     HW10003   1.145   0.352   4.712 -0.4134  1.2364 -1.6680
 1754Sol     MW10004   1.091   0.408   4.757  1.3856 -0.8996 -0.3682
 1755Sol     OW10005   0.808   1.934   7.300  0.3464 -0.4088 -0.0393
 1755Sol     HW10006   0.820   1.865   7.366 -0.8288 -0.4258  0.1569
 1755Sol     HW10007   0.873   2.001   7.323  0.5968 -0.8510  0.5500
 1755Sol     MW10008   0.815   1.934   7.308 -0.0229  0.2627 -0.0537
 1756Sol     OW10009   3.047   0.289   2.255  0.4353  0.3289  0.3680
 1756Sol     HW10010   2.956   0.289   2.227  0.0794 -0.2548  1.5230
 1756Sol     HW10011   3.096   0.265   2.176 -0.6263 -2.1004  0.3795
 1756Sol     MW10012   3.043   0.286   2.245  0.0620  0.5317 -0.1885
 1757Sol     OW10013   3.213   2.842   4.161 -0.3594  0.3543 -0.3684
 1757Sol     HW10014   3.296   2.795   4.161  0.8948  2.4881 -0.7462
 1757Sol     HW10015   3.181   2.833   4.071 -1.7372 -2.4274  0.3418
 1757Sol     MW10016   3.218   2.837   4.153  0.2931  0.5603 -0.7567
 1758Sol     OW10017   3.111   0.287   3.664 -0.7179 -0.4131  0.1521
 1758Sol     HW10018   3.177   0.277   3.596  0.0703 -1.1720  1.0217
 1758Sol     HW10019   3.152   0.254   3.743 -2.3959 -1.6006  0.5638
 1758Sol     MW10020   3.120   0.283   3.665 -0.0494  0.0975 -0.4233
 1759Sol     OW10021   2.228   2.506   9.505 -0.3779 -0.2355 -0.3259
 1759Sol     HW10022   2.279   2.553   9.571 -1.1192  0.9841 -0.5919
 1759Sol     HW10023   2.161   2.459   9.555 -0.5180  0.1469 -0.1440
 1759Sol     MW10024   2.226   2.506   9.515  0.3584  0.6026  0.3600
 1760Sol     OW10025   1.254   0.989   3.754  0.5167 -0.3623 -0.6049
 1760Sol     HW10026   1.343   0.999   3.720  0.7871  0.6443  0.3625
 1760Sol     HW10027   1.240   1.067   3.808 -0.4028 -1.2632  0.4776
 1760Sol     MW10028   1.261   0.997   3.756  0.2919 -0.3572  0.0849
 1761Sol     OW10029   2.088   2.577   4.119  0.1832  0.3848 -0.0478
 1761Sol     HW10030   2.013   2.634   4.135 -0.1226 -0.6417  2.4801
 1761Sol     HW10031   2.056   2.511   4.057 -0.0816  1.6937 -1.3272
 1761Sol     MW10032   2.079   2.576   4.115  0.0276 -0.0538 -0.7494
 1762Sol     OW10033   0.605   1.907   2.688 -0.4541 -0.4908 -0.2117
 1762Sol     HW10034   0.637   1.968   2.621 -0.6669  1.6615  1.6107
 1762Sol     HW10035   0.680   1.849   2.703  0.5817  0.7988 -0.2619
 1762Sol     MW10036   0.615   1.907   2.683  0.1613 -0.0047  0.3479
 1763Sol     OW10037   3.280   0.788   5.520  0.1306 -0.5137 -0.3550
 1763Sol     HW10038   3.208   0.852   5.517  0.3432 -0.2745 -0.3951
 1763Sol     HW10039   3.317   0.799   5.608  0.8737  0.2009 -0.7513
 1763Sol     MW10040   3.276   0.795   5.528  1.0579  0.1327 -0.4685
 1764Sol     OW10041   0.535   3.228   9.728 -0.0016 -0.3430  0.4634
 1764Sol     HW10042   0.630   3.211   9.730 -0.2258 -1.6346  0.8155
 1764Sol     HW10043   0.497   3.154   9.777 -1.1585  0.3788  0.6679
 1764Sol     MW10044   0.540   3.220   9.733  0.2872 -0.1818  0.2261
 1765Sol     OW10045   1.358   0.579   7.097 -0.0133 -0.5886 -0.6015
 1765Sol     HW10046   1.388   0.603   7.009 -0.3675 -0.7502 -0.7682
 1765Sol     HW10047   1.308   0.498   7.084 -0.0478 -0.6229 -0.2494
 1765Sol     MW10048   1.356   0.574   7.088  0.6195 -0.1032 -0.4401
 1766Sol     OW10049   1.956   1.311   1.762  0.1437 -0.2043  0.4915
 1766Sol     HW10050   2.006   1.318   1.843  0.6999  0.3796  0.0970
 1766Sol     HW10051   1.913   1.226   1.769  3.8177 -2.2693 -0.6366
 1766Sol     MW10052   1.957   1.304   1.770  0.3536  0.0093  0.0128
 1767Sol     OW10053   2.874   0.826   7.677  0.3493  0.1201 -0.3584
 1767Sol     HW10054   2.799   0.846   7.621  0.1025 -0.8476 -0.3804
 1767Sol     HW10055   2.939   0.893   7.655 -0.1805  0.4426 -0.9611
 1767Sol     MW10056   2.873   0.834   7.670  0.5321 -0.3101  0.4618
 1768Sol     OW10057   1.634   1.898   8.405  0.0258  0.0001  0.3621
 1768Sol     HW10058   1.610   1.852   8.325  0.8693 -0.6913  0.5017
 1768Sol     HW10059   1.717   1.942   8.384 -0.4965  1.0351  0.3974
 1768Sol     MW10060   1.640   1.898   8.396  0.0667 -0.7608  0.6858
 1769Sol     OW10061   1.533   0.409   6.682  0.3273  0.2339 -0.2696
 1769Sol     HW10062   1.530   0.502   6.659  1.8234  0.5022  0.5512
 1769Sol     HW10063   1.587   0.368   6.614  0.5537  0.1531 -0.0433
 1769Sol     MW10064   1.537   0.413   6.674  0.4498  0.4786  0.1827
 1770Sol     OW10065   1.710   1.763   3.853 -0.0542  0.2359  0.3450
 1770Sol     HW10066   1.674   1.769   3.764 -0.6479 -1.1967  0.4780
 1770Sol     HW10067   1.764   1.842   3.862  2.9297 -1.3084 -2.5906
 1770Sol     MW10068   1.712   1.771   3.846 -0.3596 -0.2511 -0.3555
 1771Sol     OW10069   3.314   1.626   7.821  0.4527 -0.6771 -0.3133
 1771Sol     HW10070   3.242   1.596   7.765 -0.0033  0.0508 -0.1228
 1771Sol     HW10071   3.336   1.713   7.789 -0.3228  0.0689  1.0830
 1771Sol     MW10072   3.309   1.631   7.813 -0.6009 -0.1337  0.1121
 1772Sol     OW10073   3.317   1.490   7.441  0.3253  0.0944 -0.0755
 1772Sol     HW10074   3.267   1.428   7.387  0.0079 -1.2408  1.7140
 1772Sol     HW10075   3.393   1.439   7.470  0.0971  0.5714  1.3543
 1772Sol     MW10076   3.320   1.480   7.438 -0.5743 -0.4890  0.8948
 1773Sol     OW10077   2.955   0.253   9.206  0.3927 -0.0647  0.0861
 1773Sol     HW10078   2.973   0.243   9.300  1.0520  1.2912  0.1222
 1773Sol     HW10079   3.035   0.223   9.163  0.3764  0.0267 -0.0081
 1773Sol     MW10080   2.964   0.249   9.211 -0.1936  0.4277 -0.0857
 1774Sol     OW10081   0.171   2.605   6.887 -0.0977  0.2657  0.5553
 1774Sol     HW10082   0.132   2.625   6.972  1.0865  1.2749  0.8848
 1774Sol     HW10083   0.265   2.621   6.899  0.0727  0.5302 -0.9731
 1774Sol     MW10084   0.176   2.608   6.895 -0.0541 -0.0865 -0.3707
 1775Sol     OW10085   0.197   0.310   2.327  0.2538 -0.2443  0.2978
 1775Sol     HW10086   0.199   0.328   2.421 -0.8587 -1.3517  0.5463
 1775Sol     HW10087   0.289   0.302   2.302  0.5747  0.4692  1.2029
 1775Sol     MW10088   0.205   0.311   2.333 -0.0135  0.1554 -0.9881
 1776Sol     OW10089   1.185   3.067   3.545  0.0246  0.2247 -0.1189
 1776Sol     HW10090   1.237   3.058   3.465  1.1664  0.1723  0.6268
 1776Sol     HW10091   1.230   3.133   3.596 -0.5840  0.1037  0.5826
 1776Sol     MW10092   1.194   3.072   3.543 -0.0469  0.4101 -0.4532
 1777Sol     OW10093   1.348   1.749   2.088  0.5234 -0.1332 -0.5659
 1777Sol     HW10094   1.406   1.697   2.142  0.2363 -0.9625 -1.0510
 1777Sol     HW10095   1.344   1.702   2.004  0.8592  1.0568 -1.2700
 1777Sol     MW10096   1.353   1.741   2.085 -0.2066  0.1991 -0.1009
 1778Sol     OW10097   2.481   2.840   2.491  0.0683 -0.2767  0.1481
 1778Sol     HW10098   2.389   2.835   2.468  0.5270  0.0159 -1.7736
 1778Sol     HW10099   2.491   2.779   2.564 -1.9309  0.8119  1.3836
 1778Sol     MW10100   2.474   2.834   2.496 -0.1180  0.3274  0.1334
 1779Sol     OW10101   0.499   2.790   1.821  0.4337 -0.0096 -0.1204
 1779Sol     HW10102   0.468   2.874   1.855  1.2891  0.0051  0.6478
 1779Sol     HW10103   0.439   2.725   1.859  0.3257  0.1730  0.0197
 1779Sol     MW10104   0.491   2.791   1.828 -0.1641  0.3259  0.8019
 1780Sol     OW10105   3.000   2.353   5.595  0.0826 -0.0994 -0.6204
 1780Sol     HW10106   2.971   2.276   5.545  0.7781 -0.1472 -0.9558
 1780Sol     HW10107   3.093   2.361   5.574  0.0976  0.6052 -0.2812
 1780Sol     MW10108   3.005   2.347   5.588 -0.0911  0.0877 -0.2739
 1781Sol     OW10109   1.593   2.986   5.485  0.5371 -0.0766 -0.6384
 1781Sol     HW10110   1.574   3.079   5.501  0.6360 -0.1867  0.1707
 1781Sol     HW10111   1.515   2.954   5.440  0.4991  0.3963 -0.9183
 1781Sol     MW10112   1.584   2.992   5.483 -0.1981  0.0592 -0.0019
 1782Sol     OW10113   0.765   0.565   1.795  0.1342  0.3764 -0.0292
 1782Sol     HW10114   0.820   0.509   1.741 -0.2305  0.0513 -0.0687
 1782Sol     HW10115   0.703   0.604   1.734  0.1116  0.4832  0.0620
 1782Sol     MW10116   0.764   0.563   1.785 -0.0385 -0.3061 -0.1342
 1783Sol     OW10117   0.622   1.864   3.664  0.0343 -0.3803 -0.0878
 1783Sol     HW10118   0.699   1.810   3.649 -0.1866 -1.3423  1.9932
 1783Sol     HW10119   0.649   1.953   3.641  2.6534 -0.2493  3.0870
 1783Sol     MW10120   0.631   1.867   3.661  1.1327  0.4903  0.4424
 1784Sol     OW10121   2.965   0.983   2.275  0.0782  0.2079  0.6214
 1784Sol     HW10122   3.002   1.056   2.325  0.3075 -0.1969  1.0540
 1784Sol     HW10123   3.014   0.906   2.306  0.3836 -0.0148 -0.3907
 1784Sol     MW10124   2.973   0.982   2.283 -0.4937  0.4415  0.4131
 1785Sol     OW10125   2.369   0.279   9.715 -0.3651  0.1733  0.3232
 1785Sol     HW10126   2.283   0.238   9.708 -1.1691  2.0914 -1.6086
 1785Sol     HW10127   2.358   0.350   9.778 -0.8987  2.0089 -1.7672
 1785Sol     MW10128   2.360   0.282   9.720  1.2267  0.1728 -0.0869
 1786Sol     OW10129   0.958   2.764   5.861  0.2236  0.1580  0.2726
 1786Sol     HW10130   0.875   2.794   5.898 -0.4979  0.2256 -1.3698
 1786Sol     HW10131   0.937   2.679   5.822  1.0323 -0.0228  0.2176
 1786Sol     MW10132   0.949   2.759   5.861 -0.1792 -0.2806  0.3675
 1787Sol     OW10133   1.041   2.477   3.782  0.0853 -0.1796  0.0472
 1787Sol     HW10134   1.112   2.418   3.808  1.6870  2.3087  1.5012
 1787Sol     HW10135   0.966   2.449   3.834  0.0445 -2.5808 -1.2004
 1787Sol     MW10136   1.041   2.469   3.789 -0.0224 -0.2565 -1.0005
 1788Sol     OW10137   3.103   1.132   3.497  0.3389  0.3754  0.5902
 1788Sol     HW10138   3.146   1.086   3.569 -1.2304  1.2646  2.1232
 1788Sol     HW10139   3.120   1.225   3.514 -0.3699  0.6156  0.0257
 1788Sol     MW10140   3.109   1.136   3.505 -0.7244  0.0253  0.2203
 1789Sol     OW10141   0.623   0.472   6.923 -0.4244  0.2674  0.1735
 1789Sol     HW10142   0.640   0.563   6.900  2.0777 -0.5644 -1.4080
 1789Sol     HW10143   0.581   0.435   6.846  0.8834 -0.5522 -0.1530
 1789Sol     MW10144   0.620   0.477   6.914 -0.3437 -0.2007 -0.1762
 1790Sol     OW10145   0.465   1.876   1.466 -0.1553  0.4516 -0.6934
 1790Sol     HW10146   0.391   1.822   1.436 -1.6389  2.6809 -1.2271
 1790Sol     HW10147   0.536   1.814   1.479 -2.3416 -1.8982  0.6021
 1790Sol     MW10148   0.464   1.865   1.464  0.4232 -0.1933 -0.5018
 1791Sol     OW10149   3.173   1.545   5.747  0.1082  0.4522  0.4819
 1791Sol     HW10150   3.130   1.626   5.775 -0.9613 -0.1377  0.5669
 1791Sol     HW10151   3.104   1.479   5.751  0.4265 -0.0368 -1.6900
 1791Sol     MW10152   3.163   1.546   5.750  0.5888 -0.0282 -0.5728
 1792Sol     OW10153   1.099   3.186   5.774 -0.0736  0.0487  0.0974
 1792Sol     HW10154   1.031   3.146   5.720 -0.4325 -0.9778  1.2750
 1792Sol     HW10155   1.120   3.119   5.839  1.7300  0.5421  0.0393
 1792Sol     MW10156   1.095   3.176   5.775 -0.7030  0.2061 -0.0168
 1793Sol     OW10157   0.284   2.381   3.345 -0.0231  0.5190 -0.4068
 1793Sol     HW10158   0.319   2.460   3.385  0.6095 -0.0964  0.2755
 1793Sol     HW10159   0.234   2.412   3.270 -0.0898  1.5902  0.0679
 1793Sol     MW10160   0.282   2.391   3.342 -0.5141 -0.4592 -0.1539
 1794Sol     OW10161   3.266   1.306   1.816 -0.3872 -0.2434 -0.2584
 1794Sol     HW10162   3.261   1.212   1.797  0.6524  0.2362 -3.0929
 1794Sol     HW10163   3.355   1.319   1.847  0.2794  0.2143 -2.3326
 1794Sol     MW10164   3.273   1.299   1.817 -0.0148  0.3247  0.0692
 1795Sol     OW10165   1.347   2.048   8.331 -0.0057  0.0304 -0.1736
 1795Sol     HW10166   1.313   1.969   8.374  1.6887 -0.7402 -0.2322
 1795Sol     HW10167   1.269   2.090   8.294 -1.0987 -0.9074  0.9939
 1795Sol     MW10168   1.337   2.045   8.332  0.4177 -0.0416  0.7216
 1796Sol     OW10169   1.713   2.535   8.150  0.0380 -0.1455  0.1616
 1796Sol     HW10170   1.648   2.472   8.182  0.6622 -1.4679 -1.1314
 1796Sol     HW10171   1.700   2.612   8.206 -2.4492 -0.4685  0.1212
 1796Sol     MW10172   1.706   2.536   8.158 -0.4297 -0.6393 -0.1907
 1797Sol     OW10173   1.757   1.469   6.520 -0.1436  0.3735  0.0732
 1797Sol     HW10174   1.763   1.419   6.438 -0.1309  0.1573  0.2030
 1797Sol     HW10175   1.820   1.540   6.509  1.8205 -1.1884  0.9417
 1797Sol     MW10176   1.763   1.471   6.511 -0.2302 -0.6185 -0.0051
 1798Sol     OW10177   1.832   3.430   4.989 -0.3285  0.2362 -0.1036
 1798Sol     HW10178   1.775   3.377   4.932  0.5123  0.2524 -0.9660
 1798Sol     HW10179   1.815   3.397   5.077 -1.1743 -0.2216 -0.4290
 1798Sol     MW10180   1.825   3.422   4.991 -0.6164 -0.0770 -0.2123
 1799Sol     OW10181   1.526   0.986   4.357  0.3785 -0.1271  0.7890
 1799Sol     HW10182   1.451   1.021   4.309  1.9252  0.4394 -1.2973
 1799Sol     HW10183   1.526   1.034   4.440 -1.2968  0.1796  0.6309
 1799Sol     MW10184   1.519   0.994   4.360 -0.1547  0.0686 -0.4389
 1800Sol     OW10185   1.352   3.216   3.742  0.2366 -0.1271 -0.0743
 1800Sol     HW10186   1.410   3.231   3.668 -1.3082  0.5996 -1.1705
 1800Sol     HW10187   1.383   3.135   3.781  0.5311 -0.9991 -2.0612
 1800Sol     MW10188   1.360   3.210   3.739  0.5724 -0.5242  0.4117
 1801Sol     OW10189   3.149   0.242   7.622 -0.9745  0.0771  0.4169
 1801Sol     HW10190   3.134   0.291   7.703 -2.1723 -0.0324  0.2637
 1801Sol     HW10191   3.148   0.150   7.649  4.0358  0.0711  1.2014
 1801Sol     MW10192   3.148   0.238   7.632 -0.0339  0.0187 -0.0838
 1802Sol     OW10193   0.282   0.629   8.844 -0.3878  0.2250 -0.3649
 1802Sol     HW10194   0.317   0.577   8.917 -0.3067 -0.7704 -1.1129
 1802Sol     HW10195   0.252   0.711   8.886 -1.0719 -0.6525  0.9097
 1802Sol     MW10196   0.282   0.632   8.854  0.4228 -0.1851 -0.1465
 1803Sol     OW10197   0.113   3.280   6.198  0.1777 -0.2894 -0.2380
 1803Sol     HW10198   0.190   3.260   6.144 -0.8750 -0.7368 -1.5921
 1803Sol     HW10199   0.136   3.248   6.285  1.7471  0.0937 -0.4802
 1803Sol     MW10200   0.122   3.276   6.201 -0.4526 -0.4556 -0.0605
 1804Sol     OW10201   0.956   0.399   2.809  0.0976 -0.2851  0.4424
 1804Sol     HW10202   0.977   0.488   2.836  1.0764 -0.5899  0.6985
 1804Sol     HW10203   1.034   0.368   2.763 -0.5692 -0.7035 -0.4098
 1804Sol     MW10204   0.965   0.404   2.808 -0.4790  0.4455  0.8127
 1805Sol     OW10205   1.543   3.429   1.984 -0.2380 -0.2319 -0.2634
 1805Sol     HW10206   1.508   3.420   1.896  1.9928  2.3393 -1.5125
 1805Sol     HW10207   1.594   3.349   1.999 -0.9085 -0.8238 -1.1742
 1805Sol     MW10208   1.545   3.421   1.978  0.1723  0.0425  0.6187
 1806Sol     OW10209   1.553   2.585   6.463 -0.0884 -0.5925  0.2721
 1806Sol     HW10210   1.484   2.649   6.445 -0.1256 -0.2016  1.7312
 1806Sol     HW10211   1.630   2.638   6.486  0.2212 -1.0498  0.3038
 1806Sol     MW10212   1.554   2.596   6.463  0.0930  0.4148 -0.0905
 1807Sol     OW10213   2.044   0.457   1.398 -0.4377  0.1779  0.2894
 1807Sol     HW10214   1.962   0.503   1.413  0.2758  1.5904 -0.0787
 1807Sol     HW10215   2.103   0.490   1.466  0.2333  0.2115 -0.2986
 1807Sol     MW10216   2.042   0.464   1.406 -0.2829 -0.1029 -0.0680
 1808Sol     OW10217   2.042   0.028   8.399  0.3736  0.1156 -0.3440
 1808Sol     HW10218   2.077   0.085   8.467 -0.3616  0.2982 -0.1153
 1808Sol     HW10219   1.996  -0.040   8.447  1.2865 -0.7111 -0.6095
 1808Sol     MW10220   2.041   0.027   8.410  0.0300 -0.1119 -0.1236
 1809Sol     OW10221   2.006   0.582   1.806 -0.2624  0.1521  0.3226
 1809Sol     HW10222   2.001   0.671   1.841 -0.4866 -0.2490  1.3034
 1809Sol     HW10223   1.918   0.565   1.772  0.2300  0.9256 -1.4007
 1809Sol     MW10224   1.998   0.589   1.806 -0.1599 -0.1477  0.0413
 1810Sol     OW10225   0.703   3.337   5.120  0.0605 -0.4443  0.1585
 1810Sol     HW10226   0.712   3.395   5.196 -1.6718  0.0525 -0.0081
 1810Sol     HW10227   0.790   3.338   5.079  0.4713  0.7935  1.0385
 1810Sol     MW10228   0.712   3.342   5.123  0.2699  0.1434 -1.6828
 1811Sol     OW10229   2.097   0.243   9.716 -0.4476  0.1206 -0.1408
 1811Sol     HW10230   2.059   0.278   9.797 -1.3286  0.5226 -0.7210
 1811Sol     HW10231   2.090   0.315   9.653 -2.2433 -1.0528 -1.3487
 1811Sol     MW10232   2.093   0.253   9.718 -0.4947  0.8260  0.5703
 1812Sol     OW10233   3.254   1.572   3.388  0.2120 -0.3815  0.3257
 1812Sol     HW10234   3.342   1.598   3.361  1.3822 -3.6796  0.7118
 1812Sol     HW10235   3.208   1.554   3.306  0.2840  0.1264  0.1710
 1812Sol     MW10236   3.258   1.573   3.379 -0.2399  0.6442  0.4100
 1813Sol     OW10237   0.377   1.827   3.763  0.0157  0.4493 -1.0859
 1813Sol     HW10238   0.359   1.741   3.725  0.6900  0.3041 -1.0804
 1813Sol     HW10239   0.471   1.839   3.752 -0.0699  1.1717 -1.0479
 1813Sol     MW10240   0.384   1.821   3.759 -0.2558 -0.4126 -0.2888
 1814Sol     OW10241   2.714   0.229   5.054 -0.3356 -0.0392  0.4234
 1814Sol     HW10242   2.669   0.147   5.076 -0.0333 -0.6803 -1.2741
 1814Sol     HW10243   2.783   0.236   5.120 -2.1718  0.3641  2.3487
 1814Sol     MW10244   2.717   0.222   5.062 -0.3630  0.6785  0.6985
 1815Sol     OW10245   2.384   1.616   6.803  0.4612 -0.3415  0.6900
 1815Sol     HW10246   2.343   1.531   6.790  0.5071 -0.5192  1.6699
 1815Sol     HW10247   2.439   1.629   6.726 -1.6568  0.0385 -0.7925
 1815Sol     MW10248   2.385   1.610   6.795  0.3055  0.6731 -0.5570
 1816Sol     OW10249   2.845   2.093   5.670  0.3365 -0.0817 -0.2414
 1816Sol     HW10250   2.784   2.166   5.679  1.0609  0.6339 -1.0875
 1816Sol     HW10251   2.878   2.077   5.758  0.1529  0.5830 -0.0526
 1816Sol     MW10252   2.842   2.098   5.678 -0.2683 -0.1114 -0.6814
 1817Sol     OW10253   0.506   1.466   6.291 -1.1393  0.0634 -0.3970
 1817Sol     HW10254   0.540   1.388   6.334 -0.6204 -0.1676 -1.2107
 1817Sol     HW10255   0.460   1.433   6.214 -1.7509  0.4949 -0.2188
 1817Sol     MW10256   0.505   1.456   6.288 -0.3047  0.0220  0.1834
 1818Sol     OW10257   1.903   2.904   4.472  0.5486 -0.1879 -0.4200
 1818Sol     HW10258   1.866   2.863   4.393 -1.1401  2.5698 -1.1298
 1818Sol     HW10259   1.935   2.830   4.524  1.3680 -2.1223 -3.4933
 1818Sol     MW10260   1.903   2.894   4.469  0.4331 -0.1850  0.2063
 1819Sol     OW10261   1.491   2.542   5.982  0.0874  0.2154 -0.2013
 1819Sol     HW10262   1.420   2.604   6.001  0.7645  1.1548 -0.7241
 1819Sol     HW10263   1.567   2.597   5.965  0.4854 -0.7422 -1.5580
 1819Sol     MW10264   1.491   2.553   5.982 -0.4168 -0.3440 -0.4045
 1820Sol     OW10265   0.933   2.815   8.835 -0.6025 -0.1063 -0.4122
 1820Sol     HW10266   0.850   2.844   8.798 -0.5056 -0.9633 -1.3238
 1820Sol     HW10267   0.996   2.826   8.764  0.0796  0.5783  0.2873
 1820Sol     MW10268   0.931   2.818   8.825 -0.4716  0.2319  0.4281
 1821Sol     OW10269   2.618   1.123   4.352  1.0241  0.2798  0.5409
 1821Sol     HW10270   2.694   1.069   4.332  1.6732  0.7540  1.7304
 1821Sol     HW10271   2.634   1.206   4.306  0.8794  0.1209  0.2014
 1821Sol     MW10272   2.626   1.126   4.346 -0.4589  0.3930 -0.4573
 1822Sol     OW10273   1.347   1.837   4.467 -0.2338 -0.6721 -0.1973
 1822Sol     HW10274   1.265   1.876   4.499 -0.0257 -0.2119 -0.2131
 1822Sol     HW10275   1.319   1.771   4.404 -0.6344 -1.4807  0.8289
 1822Sol     MW10276   1.337   1.835   4.464  0.5784  0.0067 -0.4417
 1823Sol     OW10277   0.660   0.424   8.028 -0.7447  0.5248  0.1237
 1823Sol     HW10278   0.614   0.506   8.014 -1.8727 -0.0085  0.6539
 1823Sol     HW10279   0.606   0.376   8.091 -0.8700 -1.2314 -1.2628
 1823Sol     MW10280   0.651   0.427   8.032  0.7294 -0.0918  0.1834
 1824Sol     OW10281   2.820   3.064   1.694 -0.3599 -0.0964 -0.4736
 1824Sol     HW10282   2.861   3.070   1.607  0.4176 -1.0963 -0.1888
 1824Sol     HW10283   2.839   3.149   1.735  3.6108 -1.4035  0.5774
 1824Sol     MW10284   2.826   3.072   1.690  0.0148 -0.1846  0.1525
 1825Sol     OW10285   1.165   1.727   3.046  0.0895  0.2746  0.1664
 1825Sol     HW10286   1.247   1.686   3.074 -1.5211 -2.0763  1.5201
 1825Sol     HW10287   1.158   1.805   3.101  1.0506  0.0926  0.5589
 1825Sol     MW10288   1.172   1.731   3.054  0.0884  0.1327 -0.1709
 1826Sol     OW10289   0.119   0.679   3.536 -0.7798 -0.5892  0.1245
 1826Sol     HW10290   0.100   0.606   3.478  0.6970  0.1987 -1.3913
 1826Sol     HW10291   0.214   0.692   3.528 -0.8249  0.6525  1.3787
 1826Sol     MW10292   0.126   0.674   3.530  0.3771 -0.5902 -0.6494
 1827Sol     OW10293   1.144   0.006   7.123  0.3103 -0.3223  0.3923
 1827Sol     HW10294   1.156  -0.021   7.031  0.7453  1.1883 -0.0016
 1827Sol     HW10295   1.063   0.057   7.122  0.0723 -0.6871  0.9452
 1827Sol     MW10296   1.138   0.008   7.114 -0.4857 -0.4485  0.0308
 1828Sol     OW10297   1.835   2.362   2.848 -0.4128 -0.6064  0.2190
 1828Sol     HW10298   1.898   2.431   2.863 -0.5417 -0.2740 -0.7369
 1828Sol     HW10299   1.779   2.395   2.778 -1.0138 -1.3141  0.3544
 1828Sol     MW10300   1.835   2.371   2.843 -0.5343 -0.0675 -0.4855
 1829Sol     OW10301   3.228   0.488   6.901  0.0972  0.1816 -0.2420
 1829Sol     HW10302   3.257   0.485   6.992  2.3737 -1.0204 -0.9893
 1829Sol     HW10303   3.296   0.538   6.856 -1.2040  1.0785 -1.2482
 1829Sol     MW10304   3.237   0.493   6.905  0.6268  0.7732 -0.3554
 1830Sol     OW10305   1.459   3.266   8.741  0.2743 -0.0096 -0.7563
 1830Sol     HW10306   1.489   3.176   8.759 -2.4774 -1.0764 -1.2533
 1830Sol     HW10307   1.529   3.321   8.774  1.2225 -2.3031  1.2586
 1830Sol     MW10308   1.468   3.263   8.745 -0.3867 -0.6622  0.2231
 1831Sol     OW10309   1.054   2.962   3.895 -0.2297 -0.1866 -0.4255
 1831Sol     HW10310   1.038   3.015   3.817 -1.1335  0.0670 -0.0743
 1831Sol     HW10311   0.974   2.972   3.948  0.4787 -0.1350  0.6546
 1831Sol     MW10312   1.045   2.968   3.893  0.0414  0.6120 -0.3120
 1832Sol     OW10313   1.707   2.860   6.278  0.2599 -0.0497 -0.4608
 1832Sol     HW10314   1.749   2.945   6.270 -0.0433  0.0574 -0.9572
 1832Sol     HW10315   1.728   2.830   6.367  0.0123  0.7275 -0.1416
 1832Sol     MW10316   1.713   2.865   6.285  0.2461 -0.3014  0.5074
 1833Sol     OW10317   1.198   1.224   6.277 -0.0777 -0.1581  0.2889
 1833Sol     HW10318   1.163   1.311   6.293 -0.7586 -0.7120  1.9682
 1833Sol     HW10319   1.291   1.238   6.260  0.5259  0.6770  3.7863
 1833Sol     MW10320   1.203   1.233   6.277 -0.7660  1.2713 -0.1124
 1834Sol     OW10321   0.206   1.144   6.880  0.6323  0.1855  0.7457
 1834Sol     HW10322   0.299   1.165   6.876  0.8173 -0.9932 -1.8103
 1834Sol     HW10323   0.168   1.187   6.803 -0.9628  0.6505  1.7590
 1834Sol     MW10324   0.211   1.150   6.873 -0.4293  0.3282 -0.3019
 1835Sol     OW10325   0.293   3.173   1.958  0.3383 -0.7918  0.2464
 1835Sol     HW10326   0.332   3.163   1.871  0.1397  0.1639  0.0405
 1835Sol     HW10327   0.213   3.223   1.944  0.2417 -0.7272  0.9641
 1835Sol     MW10328   0.289   3.177   1.949  0.0911 -0.2264  0.3981
 1836Sol     OW10329   2.528   2.345   2.618  0.7987 -0.0823 -0.2771
 1836Sol     HW10330   2.550   2.290   2.693  3.1794  0.0520 -0.8330
 1836Sol     HW10331   2.511   2.283   2.547 -0.2914 -0.1759  0.0538
 1836Sol     MW10332   2.528   2.334   2.618  1.0872 -0.4265 -0.3238
 1837Sol     OW10333   1.590   0.235   5.884  0.2996  0.2030 -0.0155
 1837Sol     HW10334   1.618   0.222   5.794  0.8169 -0.0307  0.1803
 1837Sol     HW10335   1.668   0.264   5.930  0.1836 -0.2786  0.4914
 1837Sol     MW10336   1.599   0.236   5.880  0.5045 -1.0924 -0.1288
 1838Sol     OW10337   3.038   2.253   7.962  0.0064  0.1454 -0.0965
 1838Sol     HW10338   2.995   2.208   7.889 -1.5941  1.7335 -0.1773
 1838Sol     HW10339   3.127   2.268   7.932 -0.1829 -0.6463 -1.0885
 1838Sol     MW10340   3.042   2.250   7.952 -0.4047 -0.7843  0.1488
 1839Sol     OW10341   3.057   0.398   6.510  0.0895  0.1405  0.6079
 1839Sol     HW10342   3.092   0.400   6.599 -0.1375  2.0642  0.6568
 1839Sol     HW10343   2.974   0.446   6.515  0.2129  0.5243 -0.6989
 1839Sol     MW10344   3.052   0.402   6.518 -0.1715 -0.6033  0.0686
 1840Sol     OW10345   2.098   1.926   7.765  0.3396  0.3958 -0.3018
 1840Sol     HW10346   2.013   1.913   7.724  0.2660  1.5604 -0.5267
 1840Sol     HW10347   2.080   1.978   7.843  0.2749 -3.0210  2.0694
 1840Sol     MW10348   2.089   1.930   7.768  0.7223  0.1558  0.1640
 1841Sol     OW10349   0.189   0.136   7.430  0.0390 -0.3676 -0.9206
 1841Sol     HW10350   0.232   0.128   7.344  0.4415  0.2697 -0.7783
 1841Sol     HW10351   0.214   0.222   7.462  1.1066 -1.1774  0.4938
 1841Sol     MW10352   0.195   0.143   7.425  0.7066  0.1537 -0.3629
 1842Sol     OW10353   3.046   0.531   5.434 -0.5873 -0.7312 -0.3769
 1842Sol     HW10354   3.072   0.509   5.523 -0.0170 -2.7430 -1.0191
 1842Sol     HW10355   3.128   0.542   5.386 -0.8639  1.7952 -0.3533
 1842Sol     MW10356   3.055   0.530   5.437 -0.4924 -0.3234 -0.6294
 1843Sol     OW10357   2.957   2.818   1.856  0.2479 -0.0748 -0.3713
 1843Sol     HW10358   2.985   2.877   1.926 -0.4642  0.3287 -0.4223
 1843Sol     HW10359   2.995   2.855   1.777 -1.5693  1.2552 -0.6335
 1843Sol     MW10360   2.963   2.826   1.855  0.5652  0.0670  0.3458
 1844Sol     OW10361   0.591   1.496   3.060 -0.3144  0.0564  0.5853
 1844Sol     HW10362   0.517   1.475   3.116 -0.2939  2.0707  1.3987
 1844Sol     HW10363   0.626   1.578   3.095  1.0212  0.2228 -1.0453
 1844Sol     MW10364   0.587   1.502   3.068  0.0306  0.2312 -0.8389
 1845Sol     OW10365   2.026   0.988   2.530  0.1721  0.2906  0.0481
 1845Sol     HW10366   2.094   1.016   2.468 -0.4627  0.0643 -0.7526
 1845Sol     HW10367   2.024   0.893   2.521 -0.0933  0.2780  0.2397
 1845Sol     MW10368   2.032   0.982   2.524 -0.6124 -0.1591 -1.2430
 1846Sol     OW10369   2.767   2.102   5.064  0.0814  0.3597 -0.2371
 1846Sol     HW10370   2.674   2.109   5.084 -0.2790 -0.4135 -1.5869
 1846Sol     HW10371   2.791   2.013   5.091  0.0248 -0.0294 -1.4083
 1846Sol     MW10372   2.761   2.094   5.068  0.2615 -0.6058  0.4685
 1847Sol     OW10373   0.570   0.606   9.727  0.1375  0.2979 -0.3437
 1847Sol     HW10374   0.607   0.524   9.760  0.5007  0.4463 -0.3790
 1847Sol     HW10375   0.645   0.666   9.720  0.0149  0.3767 -1.1084
 1847Sol     MW10376   0.580   0.604   9.729 -0.3128  0.1784  0.6756
 1848Sol     OW10377   0.084   3.118   5.816  0.0946  0.0135  0.0089
 1848Sol     HW10378   0.012   3.078   5.867  0.3932 -0.6346 -0.0707
 1848Sol     HW10379   0.065   3.093   5.726  0.4712 -0.2383 -0.0009
 1848Sol     MW10380   0.076   3.112   5.813 -0.0647  0.1852  0.0240
 1849Sol     OW10381   1.371   0.241   6.823 -0.0029 -0.1841 -0.0404
 1849Sol     HW10382   1.420   0.307   6.774 -1.4561  0.3929 -0.7221
 1849Sol     HW10383   1.324   0.191   6.756 -1.0045 -0.2095  0.6775
 1849Sol     MW10384   1.371   0.242   6.813 -0.3681  0.1907  0.1059
 1850Sol     OW10385   2.488   0.589   5.484  0.2516 -0.2493 -0.2116
 1850Sol     HW10386   2.561   0.618   5.538 -0.8308  1.2750  0.4566
 1850Sol     HW10387   2.521   0.594   5.394  1.4063 -0.8958  0.1693
 1850Sol     MW10388   2.497   0.592   5.480 -0.3321  0.0314  0.7293
 1851Sol     OW10389   0.364   2.756   5.858  0.4857 -0.0450 -0.6071
 1851Sol     HW10390   0.362   2.681   5.798 -0.4851  0.2691 -0.9810
 1851Sol     HW10391   0.419   2.821   5.813  0.5277 -0.1634 -0.7272
 1851Sol     MW10392   0.369   2.755   5.848  0.6483  0.4236 -0.6606
 1852Sol     OW10393   2.598   1.869   5.596  0.2796  0.1985  0.2701
 1852Sol     HW10394   2.543   1.849   5.520  0.5834  2.7146 -0.6617
 1852Sol     HW10395   2.670   1.920   5.561  1.9441 -0.9932  1.8676
 1852Sol     MW10396   2.599   1.872   5.586 -0.0495  0.3721  0.2395
 1853Sol     OW10397   1.225   0.467   1.847 -0.0301  0.2504 -0.7038
 1853Sol     HW10398   1.263   0.478   1.759 -0.5183 -1.1933 -1.1209
 1853Sol     HW10399   1.298   0.486   1.906  0.1775  1.6948 -1.4109
 1853Sol     MW10400   1.235   0.469   1.844  0.5609 -0.0202 -0.1097
 1854Sol     OW10401   0.767   1.345   4.640 -0.0439 -0.6802 -0.4871
 1854Sol     HW10402   0.844   1.365   4.692 -1.4100  0.1522  1.2901
 1854Sol     HW10403   0.750   1.425   4.590 -0.7951 -0.2077  0.5026
 1854Sol     MW10404   0.772   1.354   4.640  0.0446 -0.4274  0.2435
 1855Sol     OW10405   1.926   2.633   4.512  0.4310 -0.3537  0.6267
 1855Sol     HW10406   1.893   2.593   4.432  1.5919 -2.8857  1.3852
 1855Sol     HW10407   1.872   2.596   4.582  1.7556 -0.9215  1.3718
 1855Sol     MW10408   1.918   2.626   4.511  0.0326  0.2671 -0.6844
 1856Sol     OW10409   3.308   0.074   4.420  0.5169 -0.1499 -0.5259
 1856Sol     HW10410   3.311   0.156   4.372 -2.6210  0.1703 -0.2799
 1856Sol     HW10411   3.299   0.007   4.351  0.6301 -0.0837 -0.6053
 1856Sol     MW10412   3.308   0.075   4.409  0.0832 -0.1737  0.0263
 1857Sol     OW10413   1.238   2.407   8.516 -0.0625 -0.1803  0.0253
 1857Sol     HW10414   1.169   2.358   8.470  1.4837  0.4079 -3.0785
 1857Sol     HW10415   1.219   2.499   8.496  0.5980  0.0956  0.6535
 1857Sol     MW10416   1.230   2.411   8.510 -0.1225  0.7486  0.2296
 1858Sol     OW10417   0.314   0.704   5.633 -0.7382  0.9081 -0.5617
 1858Sol     HW10418   0.332   0.745   5.548  0.3663 -1.0340 -1.3224
 1858Sol     HW10419   0.271   0.621   5.610  1.0374 -0.4010  0.6635
 1858Sol     MW10420   0.312   0.700   5.623 -0.2963 -0.4118 -0.4284
 1859Sol     OW10421   1.543   2.409   9.120  0.1115  1.0288  0.3541
 1859Sol     HW10422   1.462   2.452   9.092 -0.7272 -0.4619  0.4428
 1859Sol     HW10423   1.611   2.447   9.064 -0.7247  1.9017 -0.0842
 1859Sol     MW10424   1.542   2.416   9.112  0.3043 -0.3264  0.9052
 1860Sol     OW10425   2.667   1.594   3.775  0.5385 -0.1878 -0.0336
 1860Sol     HW10426   2.613   1.532   3.824  0.4397 -1.1488 -1.3461
 1860Sol     HW10427   2.747   1.602   3.827 -0.3848  0.3711  1.3320
 1860Sol     MW10428   2.669   1.589   3.784  0.2540  0.9800 -0.2817
 1861Sol     OW10429   3.244   1.110   6.485 -0.1075  0.7228  0.1846
 1861Sol     HW10430   3.306   1.152   6.545 -0.5406  0.5431  0.7617
 1861Sol     HW10431   3.271   1.019   6.483  0.1003  0.7918 -0.1398
 1861Sol     MW10432   3.252   1.106   6.491  0.1121  0.2272 -0.4964
 1862Sol     OW10433   0.173   2.798   8.906  0.0016  0.0553  0.7293
 1862Sol     HW10434   0.228   2.860   8.857  0.4094 -0.0885  0.9986
 1862Sol     HW10435   0.119   2.755   8.840 -0.3998  0.8153  0.5557
 1862Sol     MW10436   0.173   2.800   8.896  0.3023  0.0301 -0.4656
 1863Sol     OW10437   1.411   0.856   5.939 -0.1538 -0.1935 -0.0164
 1863Sol     HW10438   1.355   0.899   5.875  0.9641 -0.2693 -1.0593
 1863Sol     HW10439   1.414   0.917   6.014 -1.1820  0.0464 -0.1630
 1863Sol     MW10440   1.406   0.865   5.940  0.5635 -0.0972 -0.6101
 1864Sol     OW10441   1.829   0.285   6.036 -0.2475  0.4499 -0.2341
 1864Sol     HW10442   1.829   0.381   6.036 -0.4692  0.4954  2.2228
 1864Sol     HW10443   1.842   0.262   6.128  1.9316 -1.8927 -1.0619
 1864Sol     MW10444   1.831   0.292   6.045 -0.3609  0.1416 -0.6444
 1865Sol     OW10445   0.165   2.763   9.285 -0.2317  0.0198 -0.7617
 1865Sol     HW10446   0.225   2.738   9.216  0.6192 -1.6467  0.5462
 1865Sol     HW10447   0.219   2.810   9.348 -0.9556  1.3255 -1.0928
 1865Sol     MW10448   0.175   2.765   9.285  0.5978  0.0390  0.1226
 1866Sol     OW10449   1.431   2.452   6.678 -0.2283 -0.0168  0.1407
 1866Sol     HW10450   1.347   2.414   6.649 -1.0200  1.0285  1.0420
 1866Sol     HW10451   1.470   2.486   6.598 -1.3400  0.7798 -0.0812
 1866Sol     MW10452   1.427   2.452   6.668  0.2961 -0.7423  1.1378
 1867Sol     OW10453   0.851   2.628   1.459 -0.2784  0.1417  1.0197
 1867Sol     HW10454   0.775   2.680   1.483 -1.7424 -2.2135  1.6117
 1867Sol     HW10455   0.816   2.541   1.437  2.0903 -0.6530  0.1241
 1867Sol     MW10456   0.841   2.624   1.459 -0.0070 -0.3425 -0.1921
 1868Sol     OW10457   0.814   1.393   1.701 -0.4157 -0.5303 -0.2003
 1868Sol     HW10458   0.764   1.360   1.775 -2.8553 -1.0014 -1.9838
 1868Sol     HW10459   0.773   1.478   1.681  2.0446  0.9127  0.7216
 1868Sol     MW10460   0.806   1.398   1.706  0.4339 -0.5349  0.5521
 1869Sol     OW10461   2.785   1.372   5.903 -0.1877  0.0896 -0.1364
 1869Sol     HW10462   2.700   1.398   5.867  0.2125 -1.8703 -2.6880
 1869Sol     HW10463   2.765   1.294   5.955 -0.0088 -0.2556 -0.5778
 1869Sol     MW10464   2.775   1.367   5.904 -0.0959  0.2575  0.3891
 1870Sol     OW10465   2.898   2.665   5.866  0.7369 -0.3070 -0.7322
 1870Sol     HW10466   2.864   2.754   5.874  0.8525 -0.2753 -0.5946
 1870Sol     HW10467   2.984   2.668   5.907  1.2066 -0.2056 -1.6986
 1870Sol     MW10468   2.903   2.673   5.870  0.4731 -0.1821  0.3251
 1871Sol     OW10469   2.540   3.445   4.227  0.4375  0.1903 -0.2082
 1871Sol     HW10470   2.511   3.472   4.314 -1.0981 -1.8383 -0.0551
 1871Sol     HW10471   2.461   3.449   4.173  0.6357 -1.7833 -0.6862
 1871Sol     MW10472   2.531   3.448   4.230  0.8278 -0.0453  0.3958
 1872Sol     OW10473   0.961   0.031   7.571 -0.1260 -0.0002 -0.1546
 1872Sol     HW10474   1.009   0.090   7.629  0.4296 -1.3950  0.8509
 1872Sol     HW10475   0.872   0.031   7.606  0.0399 -0.2816  0.2834
 1872Sol     MW10476   0.957   0.036   7.580  0.1679 -0.6496  0.4065
 1873Sol     OW10477   0.219   1.129   3.578  0.3860 -0.2759  0.2855
 1873Sol     HW10478   0.314   1.140   3.586  0.3114 -0.4135  1.5362
 1873Sol     HW10479   0.205   1.109   3.486  1.5471  0.0158  0.0343
 1873Sol     MW10480   0.226   1.128   3.571  0.3681 -0.4002  0.0294
 1874Sol     OW10481   2.541   1.807   4.101  0.0101 -0.5099  0.1956
 1874Sol     HW10482   2.608   1.753   4.144  1.1175  0.8825  0.2485
 1874Sol     HW10483   2.478   1.826   4.171  1.4171  1.1143  1.0639
 1874Sol     MW10484   2.541   1.804   4.111 -0.2311 -0.3361  0.6570
 1875Sol     OW10485   1.227   3.022   8.190 -1.0910  0.2171 -0.1893
 1875Sol     HW10486   1.194   3.029   8.279  2.0671 -0.1706  1.1077
 1875Sol     HW10487   1.202   2.934   8.162 -0.7272 -0.2559  0.9424
 1875Sol     MW10488   1.222   3.015   8.195  0.0408  0.2314 -0.6633
 1876Sol     OW10489   1.494   1.919   7.987  0.0776  0.2339  0.4777
 1876Sol     HW10490   1.406   1.880   7.990  0.5100 -0.6082  2.4098
 1876Sol     HW10491   1.543   1.873   8.055  2.1425  0.4325 -0.8457
 1876Sol     MW10492   1.490   1.911   7.993 -0.3202 -0.7522 -0.3077
 1877Sol     OW10493   1.141   1.127   4.606  0.1376 -0.7448  0.3026
 1877Sol     HW10494   1.072   1.177   4.649 -0.7367 -1.2051 -0.5259
 1877Sol     HW10495   1.216   1.185   4.604  0.0258 -0.5265  1.9564
 1877Sol     MW10496   1.141   1.136   4.610  0.4481  0.0884 -0.0316
 1878Sol     OW10497   2.271   1.805   7.379 -0.0326  0.4630  0.1523
 1878Sol     HW10498   2.184   1.763   7.378  0.2310 -0.0578 -0.9218
 1878Sol     HW10499   2.330   1.738   7.346  0.7698  0.8582  0.7896
 1878Sol     MW10500   2.268   1.795   7.376  1.0473 -0.3838  0.0467
 1879Sol     OW10501   3.014   2.420   4.416 -0.6554  0.8196  0.2873
 1879Sol     HW10502   2.961   2.355   4.370 -0.2353  0.3782  0.4164
 1879Sol     HW10503   3.085   2.441   4.356 -0.8193  1.2032  0.2243
 1879Sol     MW10504   3.016   2.416   4.407 -0.6208  0.3124 -0.1086
 1880Sol     OW10505   3.169   2.417   2.180 -0.3574  0.1038  0.1746
 1880Sol     HW10506   3.263   2.400   2.174  0.2200  1.6708  3.6332
 1880Sol     HW10507   3.157   2.504   2.141  0.0011  0.8398  1.6645
 1880Sol     MW10508   3.176   2.423   2.176 -0.3792  0.4849 -0.4076
 1881Sol     OW10509   2.684   0.235   1.902 -0.2848 -0.0471 -0.4839
 1881Sol     HW10510   2.657   0.237   1.993 -0.7428 -2.9810 -0.5092
 1881Sol     HW10511   2.611   0.275   1.854 -1.1621 -0.7890  0.2122
 1881Sol     MW10512   2.675   0.239   1.906 -0.2376  0.6477  0.4118
 1882Sol     OW10513   3.015   2.706   4.291  0.0275 -0.4314 -0.1574
 1882Sol     HW10514   3.084   2.763   4.258  0.0631  0.4932  1.4682
 1882Sol     HW10515   3.046   2.677   4.377 -0.6043 -1.8221 -0.3829
 1882Sol     MW10516   3.024   2.709   4.296  0.0594 -0.0355 -0.2572
 1883Sol     OW10517   1.336   3.046   3.326 -0.2289 -0.7588  0.0506
 1883Sol     HW10518   1.322   3.128   3.278 -1.4441 -1.1787 -0.3471
 1883Sol     HW10519   1.431   3.040   3.337  0.1229 -0.8000 -2.5909
 1883Sol     MW10520   1.343   3.053   3.323  0.7668 -0.3863 -0.2150
 1884Sol     OW10521   0.894   1.075   3.080  0.5298  0.2415  0.6032
 1884Sol     HW10522   0.899   1.099   2.988  2.4660  1.1817  0.9184
 1884Sol     HW10523   0.898   1.159   3.127  1.7930 -0.3475  1.5810
 1884Sol     MW10524   0.895   1.085   3.076  0.2883 -0.1856  0.4061
 1885Sol     OW10525   1.402   0.485   5.737 -0.6323 -0.0157  0.0309
 1885Sol     HW10526   1.455   0.562   5.761  0.4926 -0.1998 -1.7967
 1885Sol     HW10527   1.404   0.430   5.815  0.5599  0.7303  0.5496
 1885Sol     MW10528   1.407   0.487   5.746 -0.6031  0.5803 -0.4033
 1886Sol     OW10529   1.060   0.428   5.954 -0.2243 -0.9737 -0.1888
 1886Sol     HW10530   0.966   0.445   5.957 -0.1163 -0.4798  0.6363
 1886Sol     HW10531   1.100   0.515   5.950  0.2268 -1.1442  0.6075
 1886Sol     MW10532   1.055   0.437   5.954  0.2486  0.3361  0.1767
 1887Sol     OW10533   2.370   3.027   9.756 -0.2859 -0.0918  0.5348
 1887Sol     HW10534   2.439   2.983   9.707 -1.1126 -0.6571 -0.1223
 1887Sol     HW10535   2.417   3.078   9.823  0.9382  1.7342 -1.6274
 1887Sol     MW10536   2.380   3.028   9.758  0.0919  0.2904  0.5127
 1888Sol     OW10537   3.074   0.412   9.894  0.0265 -0.2643  0.9117
 1888Sol     HW10538   3.118   0.429   9.811 -0.7494 -0.2094  0.4999
 1888Sol     HW10539   3.089   0.490   9.947  0.9270 -0.4967  1.0018
 1888Sol     MW10540   3.079   0.420   9.891  0.8061  0.7178 -0.5785
 1889Sol     OW10541   1.240   2.349   4.256 -0.5009  0.3466  0.8263
 1889Sol     HW10542   1.193   2.294   4.194  2.1399 -0.3828 -0.5988
 1889Sol     HW10543   1.211   2.438   4.236 -1.3670 -0.1014  0.0657
 1889Sol     MW10544   1.233   2.352   4.248  1.1014  0.1239 -0.2648
 1890Sol     OW10545   1.424   0.106   5.133  0.4673  0.0990  0.0572
 1890Sol     HW10546   1.361   0.176   5.148  1.9370  0.8175  3.2854
 1890Sol     HW10547   1.496   0.148   5.086  0.5530  0.3294  0.3975
 1890Sol     MW10548   1.425   0.116   5.130 -0.0895 -0.4044  0.3224
 1891Sol     OW10549   1.269   2.799   3.545  0.3728 -0.1372 -0.1993
 1891Sol     HW10550   1.220   2.879   3.566  0.7975 -0.5157  2.4041
 1891Sol     HW10551   1.356   2.830   3.521  0.2136  0.2344 -0.3129
 1891Sol     MW10552   1.272   2.809   3.545  0.3140 -0.1473  0.1862
 1892Sol     OW10553   2.065   2.334   9.214  0.7427  0.0922  0.4135
 1892Sol     HW10554   1.983   2.316   9.259  0.3065  0.6610 -0.1588
 1892Sol     HW10555   2.041   2.390   9.141  1.5658 -0.1763 -0.0651
 1892Sol     MW10556   2.056   2.337   9.212 -0.0388 -0.5248  0.6389
 1893Sol     OW10557   1.105   0.437   8.277 -0.1733 -0.2114  0.0972
 1893Sol     HW10558   1.015   0.467   8.265  0.0199 -0.0386 -0.9673
 1893Sol     HW10559   1.097   0.346   8.305 -0.6440 -0.9221 -2.2421
 1893Sol     MW10560   1.096   0.432   8.278  0.0820  0.8047  0.0583
 1894Sol     OW10561   2.224   0.402   3.417 -0.7960 -0.2785  0.0214
 1894Sol     HW10562   2.293   0.338   3.433  0.2770  0.9895  0.6292
 1894Sol     HW10563   2.235   0.467   3.487 -2.3551  0.1485 -0.1139
 1894Sol     MW10564   2.231   0.402   3.425  0.5570  0.1330  0.3219
 1895Sol     OW10565   3.304   3.148   3.891  0.2809  0.4093 -0.6130
 1895Sol     HW10566   3.356   3.188   3.820  1.6126  0.6825  0.5025
 1895Sol     HW10567   3.368   3.123   3.957 -0.9194 -0.2108  0.3409
 1895Sol     MW10568   3.314   3.150   3.890  0.6347 -0.0291  0.4323
 1896Sol     OW10569   0.585   3.294   7.202 -0.4601 -0.0681  0.5436
 1896Sol     HW10570   0.657   3.303   7.265  0.5104 -0.5129 -0.4745
 1896Sol     HW10571   0.623   3.244   7.130 -1.6997  0.0041 -0.1757
 1896Sol     MW10572   0.595   3.290   7.202 -0.0123  0.0958  0.4322
 1897Sol     OW10573   2.597   0.276   6.393  0.0311  0.4824 -0.3531
 1897Sol     HW10574   2.587   0.201   6.334 -1.4011  1.3019 -1.1693
 1897Sol     HW10575   2.688   0.270   6.422 -0.6674 -2.9142  1.4382
 1897Sol     MW10576   2.604   0.268   6.390  0.1864  0.5318  0.2974
 1898Sol     OW10577   0.445   0.526   4.815 -0.1004 -0.1085 -0.0575
 1898Sol     HW10578   0.438   0.432   4.800  0.4195  0.0037 -1.0610
 1898Sol     HW10579   0.370   0.564   4.769 -0.1104 -0.0099  0.0404
 1898Sol     MW10580   0.438   0.521   4.809  0.4438  0.0922 -0.0864
 1899Sol     OW10581   2.182   0.393   6.639  0.1006  0.7962 -0.1491
 1899Sol     HW10582   2.218   0.462   6.584  1.9097  0.4961  0.6267
 1899Sol     HW10583   2.230   0.314   6.615 -0.5834  0.2171  0.3456
 1899Sol     MW10584   2.190   0.392   6.632  0.2281 -1.0666 -0.3437
 1900Sol     OW10585   1.444   0.678   2.903 -0.2297 -0.4744  0.0416
 1900Sol     HW10586   1.502   0.697   2.829 -1.4294 -1.4458 -1.1878
 1900Sol     HW10587   1.447   0.757   2.957  2.9601 -0.8587  0.5386
 1900Sol     MW10588   1.449   0.687   2.901  0.3167  0.4108  0.1908
 1901Sol     OW10589   2.924   2.979   2.128  0.6246 -0.2102  0.3739
 1901Sol     HW10590   3.008   3.020   2.106  0.5599  0.4395  1.3183
 1901Sol     HW10591   2.925   2.972   2.223  0.0583 -1.1854  0.3048
 1901Sol     MW10592   2.931   2.982   2.134  0.2203 -0.0280 -0.2225
 1902Sol     OW10593   3.202   0.703   3.709 -0.0737  0.7349  0.0870
 1902Sol     HW10594   3.169   0.787   3.740 -1.0337  0.1115  0.7942
 1902Sol     HW10595   3.291   0.721   3.680  0.2087  1.7239  1.5078
 1902Sol     MW10596   3.207   0.712   3.709  0.1740 -0.6863  0.7847
 1903Sol     OW10597   2.207   3.348   8.195 -0.4151 -0.4618 -0.0371
 1903Sol     HW10598   2.158   3.417   8.239 -0.4998 -0.5025 -0.0658
 1903Sol     HW10599   2.143   3.279   8.180 -0.6093 -0.0673 -1.0775
 1903Sol     MW10600   2.197   3.348   8.198 -0.5734 -0.1146 -0.6480
 1904Sol     OW10601   0.927   2.929   1.993  0.2658  0.3496 -0.0481
 1904Sol     HW10602   0.834   2.909   1.999  0.3870 -0.5229 -0.9793
 1904Sol     HW10603   0.933   3.022   2.014 -0.9087  0.6193 -0.8776
 1904Sol     MW10604   0.919   2.935   1.996 -0.5466  0.4070  0.0892
 1905Sol     OW10605   2.205   2.098   3.024 -0.3438 -0.0160  0.1201
 1905Sol     HW10606   2.230   2.096   3.116  1.1409 -0.8662 -0.2854
 1905Sol     HW10607   2.238   2.182   2.991  0.9583 -0.6032 -0.1163
 1905Sol     MW10608   2.210   2.105   3.029  0.4361 -0.2996 -0.6145
 1906Sol     OW10609   0.665   2.714   2.362  0.2367 -0.1414 -0.2370
 1906Sol     HW10610   0.619   2.637   2.329 -2.3919  1.4686 -0.4910
 1906Sol     HW10611   0.681   2.694   2.454 -1.1626 -0.6819 -0.0973
 1906Sol     MW10612   0.662   2.705   2.367 -0.0076 -0.4650  1.2463
 1907Sol     OW10613   1.050   0.662   3.434  0.2426  0.1473 -0.3697
 1907Sol     HW10614   1.084   0.745   3.399 -0.3550  0.4962 -0.1290
 1907Sol     HW10615   0.995   0.627   3.363  0.2127  0.1279 -0.3367
 1907Sol     MW10616   1.048   0.666   3.424  0.1196  0.4916  0.8100
 1908Sol     OW10617   1.332   0.021   3.379  0.0361 -0.2405 -0.0190
 1908Sol     HW10618   1.253   0.008   3.327 -0.6794  1.3034  0.6507
 1908Sol     HW10619   1.356   0.113   3.363 -0.3705  0.3463  2.5902
 1908Sol     MW10620   1.327   0.028   3.373  0.7957  0.2566 -0.2206
 1909Sol     OW10621   2.310   1.758   6.468  0.4313 -0.3621  0.5603
 1909Sol     HW10622   2.256   1.745   6.546 -0.0961  0.8670  0.4078
 1909Sol     HW10623   2.392   1.714   6.489 -0.0415 -0.8557  1.4344
 1909Sol     MW10624   2.312   1.753   6.477  0.2911 -0.3132  0.3266
 1910Sol     OW10625   2.603   0.361   9.253 -0.0563  0.7507 -0.4977
 1910Sol     HW10626   2.669   0.422   9.221 -0.0679  1.2972  0.4735
 1910Sol     HW10627   2.648   0.311   9.321 -0.7035  1.3300  0.3794
 1910Sol     MW10628   2.613   0.362   9.257  0.4799 -0.1295 -0.4571
 1911Sol     OW10629   2.621   0.167   3.202  0.5859 -0.5979 -0.1308
 1911Sol     HW10630   2.619   0.139   3.293 -1.0636 -0.5513 -0.1428
 1911Sol     HW10631   2.618   0.086   3.151  0.0618 -0.5706 -0.1459
 1911Sol     MW10632   2.620   0.157   3.206 -0.4939  0.2177 -0.1570
 1912Sol     OW10633   2.003   2.670   8.398  0.1601  0.3939  0.5010
 1912Sol     HW10634   2.035   2.614   8.468 -0.2787  0.6512  0.9145
 1912Sol     HW10635   2.043   2.756   8.415  2.6207 -0.3283 -1.4035
 1912Sol     MW10636   2.010   2.673   8.406 -0.5655 -0.4954  0.3896
 1913Sol     OW10637   0.809   3.415   4.317 -0.0067 -0.1562  0.0093
 1913Sol     HW10638   0.719   3.393   4.294 -0.7226  0.5366  2.0490
 1913Sol     HW10639   0.862   3.354   4.265 -1.6310 -0.5676 -1.2169
 1913Sol     MW10640   0.806   3.408   4.310  0.5246 -0.0971  0.2649
 1914Sol     OW10641   1.617   3.021   6.573  0.2660 -0.1292  0.0918
 1914Sol     HW10642   1.577   3.003   6.658  1.6582  0.9272  0.9805
 1914Sol     HW10643   1.544   3.050   6.519 -0.9853 -2.6625  0.3255
 1914Sol     MW10644   1.606   3.022   6.576 -0.2157  0.0016  0.6440
 1915Sol     OW10645   2.284   3.407   9.017 -0.2713 -0.4255  0.0615
 1915Sol     HW10646   2.359   3.454   9.054 -0.1529 -0.0256 -0.6650
 1915Sol     HW10647   2.227   3.390   9.091 -1.2887  2.6624  0.0657
 1915Sol     MW10648   2.286   3.410   9.027  0.2652  0.2205  0.0476
 1916Sol     OW10649   2.535   1.572   8.776 -0.5258  0.0432  0.5691
 1916Sol     HW10650   2.613   1.620   8.747 -0.6164  1.5446  2.7194
 1916Sol     HW10651   2.503   1.530   8.697  0.7303  1.8999 -0.9877
 1916Sol     MW10652   2.539   1.573   8.766  0.3807  0.4404 -0.2012
 1917Sol     OW10653   2.440   0.870   4.917  0.1311 -0.1575  0.0474
 1917Sol     HW10654   2.532   0.844   4.927  0.5488  0.0847 -2.6748
 1917Sol     HW10655   2.403   0.863   5.005  2.6533 -0.6546  1.1103
 1917Sol     MW10656   2.445   0.867   4.926  0.0348 -0.4911 -0.1634
 1918Sol     OW10657   2.872   0.569   4.368  0.0136 -1.1724  0.0193
 1918Sol     HW10658   2.844   0.509   4.437 -1.2567 -0.4251  0.1573
 1918Sol     HW10659   2.791   0.609   4.335  0.7300 -0.4474 -0.9151
 1918Sol     MW10660   2.862   0.567   4.371  0.4204  0.6939 -0.4110
 1919Sol     OW10661   2.394   1.968   2.686 -0.0356 -0.5893  0.3218
 1919Sol     HW10662   2.327   2.031   2.659  2.2679  1.4946 -0.7899
 1919Sol     HW10663   2.432   1.937   2.604 -0.5639 -2.8521  0.8910
 1919Sol     MW10664   2.392   1.971   2.676 -0.5562 -0.1242  0.4909
 1920Sol     OW10665   1.161   0.519   1.565 -0.3223 -0.4528 -0.4272
 1920Sol     HW10666   1.146   0.613   1.560 -1.7149 -0.6595 -0.4561
 1920Sol     HW10667   1.199   0.496   1.480 -1.8787 -0.2283 -1.1957
 1920Sol     MW10668   1.163   0.525   1.557 -0.5890 -0.1829 -0.0033
 1921Sol     OW10669   1.809   1.678   3.091 -0.0944  0.2134  0.5768
 1921Sol     HW10670   1.902   1.698   3.092  0.4439 -2.1192 -0.0344
 1921Sol     HW10671   1.785   1.682   2.999 -0.7100  1.1708  0.7652
 1921Sol     MW10672   1.815   1.681   3.083  0.2642 -0.3940 -0.7226
 1922Sol     OW10673   2.935   0.246   7.979 -0.1803 -0.0340  0.0427
 1922Sol     HW10674   2.926   0.163   8.025 -0.5815  0.3483  0.6640
 1922Sol     HW10675   2.931   0.312   8.049  0.7619  0.4682 -0.3794
 1922Sol     MW10676   2.934   0.244   7.990  0.5240 -0.0477 -0.4462
 1923Sol     OW10677   1.393   2.621   7.933  0.1219  0.0227 -0.0185
 1923Sol     HW10678   1.344   2.693   7.892  0.3958  0.2203  0.0041
 1923Sol     HW10679   1.472   2.662   7.968  1.0324 -0.5357 -1.3573
 1923Sol     MW10680   1.395   2.631   7.932 -0.1260 -0.1302  0.2832
 1924Sol     OW10681   2.879   3.267   7.416  0.2708 -0.4827  0.5784
 1924Sol     HW10682   2.930   3.312   7.349  0.5776 -0.6501  0.6942
 1924Sol     HW10683   2.788   3.277   7.389  0.5301 -2.8274 -1.2750
 1924Sol     MW10684   2.876   3.272   7.408  0.1420 -0.1868 -0.3456
 1925Sol     OW10685   2.418   3.238   3.389 -0.0489  0.7327  0.2932
 1925Sol     HW10686   2.426   3.207   3.299 -0.7148  0.1408  0.4305
 1925Sol     HW10687   2.482   3.185   3.438  0.3172  1.0585  0.1673
 1925Sol     MW10688   2.424   3.230   3.385 -0.9285 -0.0691 -0.8518
 1926Sol     OW10689   0.373   1.837   5.282 -0.4570 -0.3978 -0.1908
 1926Sol     HW10690   0.362   1.748   5.247 -0.8685  0.0250 -1.1492
 1926Sol     HW10691   0.436   1.827   5.353  0.2042 -1.3099 -0.8958
 1926Sol     MW10692   0.377   1.828   5.285 -0.6232 -0.4918 -0.4255
 1927Sol     OW10693   1.288   1.099   3.385  0.2359  0.0318  0.5732
 1927Sol     HW10694   1.224   1.030   3.403 -0.3230  1.1197  2.9524
 1927Sol     HW10695   1.249   1.150   3.314  1.1081 -2.6053 -1.9083
 1927Sol     MW10696   1.279   1.097   3.380 -0.4217  0.6044 -0.3060
 1928Sol     OW10697   3.128   2.374   2.871 -0.3227  0.0882 -0.1450
 1928Sol     HW10698   3.176   2.437   2.817 -1.7904  1.0484 -0.3436
 1928Sol     HW10699   3.174   2.376   2.955 -0.2130  1.2657 -0.2172
 1928Sol     MW10700   3.137   2.380   2.874 -0.3564 -0.2898  0.6262
 1929Sol     OW10701   1.384   3.211   6.123  0.1791  0.1949  0.6842
 1929Sol     HW10702   1.410   3.120   6.137  0.6113  0.0547 -0.8565
 1929Sol     HW10703   1.458   3.250   6.074 -1.2361  0.5676 -1.2332
 1929Sol     MW10704   1.393   3.207   6.120  0.4367 -0.0269 -0.6993
 1930Sol     OW10705   2.012   0.072   9.506  0.4866  0.2193  0.3140
 1930Sol     HW10706   1.992  -0.016   9.539 -1.0633  1.0363  1.6457
 1930Sol     HW10707   2.054   0.116   9.580  0.5094  0.8645 -0.0781
 1930Sol     MW10708   2.014   0.068   9.516  0.5547  0.0640  0.0759
 1931Sol     OW10709   1.095   1.087   6.053 -0.6011  0.4164  0.2200
 1931Sol     HW10710   1.022   1.038   6.090 -1.2384  0.3455 -1.1049
 1931Sol     HW10711   1.134   1.132   6.128 -2.0467  0.5137  0.9391
 1931Sol     MW10712   1.092   1.087   6.063  0.1818  0.2954 -0.4475
 1932Sol     OW10713   0.326   1.198   4.853 -0.0421 -0.1327  0.0333
 1932Sol     HW10714   0.420   1.211   4.840 -0.0470 -0.7328 -0.5855
 1932Sol     HW10715   0.319   1.169   4.944  0.2193  1.4902  0.5832
 1932Sol     MW10716   0.334   1.196   4.860 -0.4863 -0.5682 -0.6039
 1933Sol     OW10717   2.905   0.993   6.863  0.3077 -0.3227 -0.0828
 1933Sol     HW10718   2.974   0.984   6.929 -0.4147  2.3834  1.1242
 1933Sol     HW10719   2.831   0.944   6.899  0.2479  0.2994  0.6612
 1933Sol     MW10720   2.904   0.988   6.872  0.4534 -0.2566  0.0990
 1934Sol     OW10721   3.130   1.130   8.808  0.1678 -0.2233  0.1956
 1934Sol     HW10722   3.200   1.193   8.792 -0.2479  0.4371  0.9338
 1934Sol     HW10723   3.135   1.112   8.902 -1.6182  0.9871  0.5354
 1934Sol     MW10724   3.137   1.134   8.815  0.1060  0.4909 -0.1400
 1935Sol     OW10725   2.746   0.970   4.678  0.1328  0.4230  0.3023
 1935Sol     HW10726   2.779   0.976   4.768  0.4323  3.0741  0.0579
 1935Sol     HW10727   2.733   0.876   4.664  1.5602 -0.1770  2.5789
 1935Sol     MW10728   2.748   0.962   4.685  0.1833  0.1661 -0.5948
 1936Sol     OW10729   1.781   1.307   5.093 -0.3939 -0.4325 -0.0282
 1936Sol     HW10730   1.758   1.312   5.186  1.1068 -1.1101  0.3815
 1936Sol     HW10731   1.708   1.259   5.053 -0.8177 -0.5546  0.8783
 1936Sol     MW10732   1.772   1.303   5.098  0.5262 -0.6806  0.1572
 1937Sol     OW10733   2.287   0.051   5.569  0.6180  0.3669 -0.1276
 1937Sol     HW10734   2.332   0.124   5.526  2.2108 -1.3202 -1.4005
 1937Sol     HW10735   2.349   0.022   5.637 -0.1428  0.3863  0.5810
 1937Sol     MW10736   2.297   0.055   5.572  0.7973 -0.6972  0.0738
 1938Sol     OW10737   0.139   1.711   7.326 -0.3363  0.5212 -0.6077
 1938Sol     HW10738   0.113   1.627   7.364 -0.3976 -0.0117 -1.8102
 1938Sol     HW10739   0.059   1.765   7.331 -0.6243  0.1230 -0.8741
 1938Sol     MW10740   0.129   1.709   7.330 -0.6812 -0.2962 -0.1171
 1939Sol     OW10741   1.875   2.390   4.937  0.2853  0.2863  0.0843
 1939Sol     HW10742   1.837   2.476   4.919 -0.5506 -0.6809 -3.1962
 1939Sol     HW10743   1.846   2.369   5.025 -2.8269  1.6790 -0.5306
 1939Sol     MW10744   1.869   2.396   4.943 -1.0194 -0.7560 -0.4389
 1940Sol     OW10745   1.157   2.958   3.001 -0.1426 -0.1756 -0.2532
 1940Sol     HW10746   1.143   3.049   2.974  0.7090  0.3044  0.8716
 1940Sol     HW10747   1.231   2.929   2.946 -0.2881 -0.1300 -0.4750
 1940Sol     MW10748   1.163   2.964   2.993 -0.0203  0.0849 -0.4430
 1941Sol     OW10749   3.177   0.605   6.020 -0.5619  0.1886  0.1751
 1941Sol     HW10750   3.118   0.642   5.954 -0.2129 -1.2105 -0.9589
 1941Sol     HW10751   3.148   0.515   6.030  0.7644 -0.2332  0.3201
 1941Sol     MW10752   3.169   0.600   6.015 -0.0919 -0.4021  0.5540
 1942Sol     OW10753   0.446   2.122   4.844  0.5590  0.0873  0.3381
 1942Sol     HW10754   0.389   2.199   4.849  1.3009  0.6050  0.9239
 1942Sol     HW10755   0.448   2.088   4.934 -0.0033 -0.8002  0.0288
 1942Sol     MW10756   0.441   2.126   4.853 -0.5140 -0.1409  0.5898
 1943Sol     OW10757   2.900   0.712   8.990  0.3319  0.4828  0.2233
 1943Sol     HW10758   2.858   0.639   9.038  1.7794 -0.3028  0.3338
 1943Sol     HW10759   2.965   0.669   8.934 -1.9110  1.3131 -3.1625
 1943Sol     MW10760   2.902   0.701   8.990  0.0748  0.1098  0.1890
 1944Sol     OW10761   1.425   2.061   9.097 -0.5419  0.3787 -0.3461
 1944Sol     HW10762   1.452   2.151   9.079  1.3298 -0.1512 -0.3786
 1944Sol     HW10763   1.482   2.034   9.170  0.7959 -1.6268 -2.0658
 1944Sol     MW10764   1.433   2.066   9.102 -0.6380  0.0427 -0.0301
 1945Sol     OW10765   3.305   2.688   3.467  0.4415  0.3519  0.3152
 1945Sol     HW10766   3.262   2.774   3.464  0.1894  0.1849 -1.1348
 1945Sol     HW10767   3.297   2.661   3.558 -0.6905  1.2582  0.5012
 1945Sol     MW10768   3.300   2.693   3.475  1.1105  0.4729 -0.5153
 1946Sol     OW10769   0.438   1.098   6.137 -0.0087 -0.2029  0.2736
 1946Sol     HW10770   0.379   1.070   6.067 -0.6154  1.9645 -0.1128
 1946Sol     HW10771   0.501   1.155   6.095 -0.4917  1.2815  1.5124
 1946Sol     MW10772   0.438   1.100   6.127  0.2265  0.1602 -0.3429
 1947Sol     OW10773   1.985   0.711   4.563  0.6755 -0.2009 -0.2888
 1947Sol     HW10774   1.912   0.735   4.505 -0.6553  1.3654  1.9625
 1947Sol     HW10775   1.956   0.630   4.606  0.9691 -0.4797 -0.6169
 1947Sol     MW10776   1.976   0.706   4.562  0.0695 -0.5528 -0.9445
 1948Sol     OW10777   1.509   2.875   5.734  0.1812 -0.1070 -0.5363
 1948Sol     HW10778   1.525   2.924   5.654  0.6387 -0.9007 -0.9431
 1948Sol     HW10779   1.414   2.866   5.738  0.1198  0.4992 -0.6462
 1948Sol     MW10780   1.502   2.878   5.727  0.4021 -0.1366 -0.3073
 1949Sol     OW10781   1.010   1.462   3.052 -0.3865 -0.4330 -0.0175
 1949Sol     HW10782   0.989   1.459   2.958  0.1299 -2.9360 -0.0930
 1949Sol     HW10783   1.041   1.552   3.067 -2.7570  0.7116 -1.7136
 1949Sol     MW10784   1.011   1.470   3.045  0.0328 -0.7383  0.6255
 1950Sol     OW10785   2.794   0.379   2.186 -0.0376  0.3477  0.1149
 1950Sol     HW10786   2.831   0.463   2.157  0.0320 -0.6070 -2.6800
 1950Sol     HW10787   2.746   0.401   2.266 -0.2485  3.1096 -0.7017
 1950Sol     MW10788   2.793   0.389   2.191 -0.0266 -0.3194 -0.0135
 1951Sol     OW10789   1.644   3.320   5.955  0.1371  0.0440 -0.2910
 1951Sol     HW10790   1.687   3.322   6.041  1.3392 -0.6236 -0.8632
 1951Sol     HW10791   1.581   3.392   5.959 -1.3536 -1.2983  1.9141
 1951Sol     MW10792   1.642   3.327   5.963 -0.5507 -0.4401  0.1866
 1952Sol     OW10793   0.142   2.042   7.321 -0.3077 -0.0133  0.5240
 1952Sol     HW10794   0.096   2.123   7.297  0.1168 -0.3198 -1.4181
 1952Sol     HW10795   0.195   2.021   7.244  0.3316 -1.6251  1.3813
 1952Sol     MW10796   0.143   2.048   7.312 -0.1353  0.8926 -0.4015
 1953Sol     OW10797   2.820   2.252   5.338  0.3461 -0.4181 -0.3821
 1953Sol     HW10798   2.835   2.330   5.283  1.6809 -0.8586 -0.6619
 1953Sol     HW10799   2.885   2.189   5.308 -2.1009 -2.4282 -1.6075
 1953Sol     MW10800   2.827   2.254   5.330 -0.3241  0.1136 -0.1631
 1954Sol     OW10801   1.154   2.183   7.802  0.0892  0.3917 -1.0790
 1954Sol     HW10802   1.125   2.268   7.771  1.2090  0.6534 -1.4186
 1954Sol     HW10803   1.135   2.123   7.730  1.1376  0.7090 -1.6330
 1954Sol     MW10804   1.150   2.185   7.793 -0.7778 -0.0348  0.0685
 1955Sol     OW10805   2.041   1.037   2.960 -0.3145  0.5430  0.0789
 1955Sol     HW10806   1.961   0.989   2.939 -0.1219  0.6516 -0.9096
 1955Sol     HW10807   2.093   1.032   2.881  0.2090  1.3862  0.3702
 1955Sol     MW10808   2.038   1.032   2.951  0.1087  0.3555  0.0962
 1956Sol     OW10809   1.360   0.717   4.884  0.1624 -0.0823  0.3756
 1956Sol     HW10810   1.367   0.699   4.791 -2.6489 -0.5201  0.1972
 1956Sol     HW10811   1.311   0.799   4.889  1.3324  0.5810  1.4681
 1956Sol     MW10812   1.356   0.723   4.876 -0.3621  0.5706 -0.5266
 1957Sol     OW10813   0.499   1.580   8.748  0.0972  0.0972 -0.1541
 1957Sol     HW10814   0.554   1.615   8.817 -0.8153 -0.2858  0.7791
 1957Sol     HW10815   0.550   1.592   8.668  0.8077  1.2878  0.4748
 1957Sol     MW10816   0.509   1.584   8.747 -0.0377  0.1364 -0.8262
 1958Sol     OW10817   2.258   0.530   3.679  1.3747 -0.9036 -0.6643
 1958Sol     HW10818   2.347   0.498   3.693  1.8583  1.3781  1.8865
 1958Sol     HW10819   2.267   0.625   3.670 -1.0206 -0.2288  2.8451
 1958Sol     MW10820   2.267   0.536   3.679 -0.2783  0.4546  0.3927
 1959Sol     OW10821   0.762   2.007   5.764  0.1012 -0.2548 -0.1419
 1959Sol     HW10822   0.802   2.031   5.681 -0.4784 -1.2226 -0.7199
 1959Sol     HW10823   0.831   2.019   5.829  0.4388  0.8778 -0.7091
 1959Sol     MW10824   0.772   2.010   5.762  0.0473  0.6751  0.2100
 1960Sol     OW10825   0.511   0.555   6.440  0.2771  0.2123  0.4792
 1960Sol     HW10826   0.493   0.636   6.487  0.5408  0.1348  0.7226
 1960Sol     HW10827   0.585   0.517   6.487 -1.8491 -1.7664  2.3365
 1960Sol     MW10828   0.516   0.559   6.448 -0.1498 -0.0518 -0.2874
 1961Sol     OW10829   1.497   2.363   7.557  0.0149  0.1055  0.2535
 1961Sol     HW10830   1.494   2.310   7.636 -1.1566  1.0930  0.8902
 1961Sol     HW10831   1.547   2.441   7.582 -1.2455  0.8987  0.3367
 1961Sol     MW10832   1.501   2.365   7.566  0.2346  0.3262  1.0617
 1962Sol     OW10833   3.073   1.265   3.231  0.1742  0.6462  0.0593
 1962Sol     HW10834   3.120   1.230   3.306 -0.9057 -0.4515  0.2339
 1962Sol     HW10835   2.996   1.308   3.269  0.4447  1.4829 -0.3085
 1962Sol     MW10836   3.070   1.266   3.241  0.3369  0.7191  0.0268
 1963Sol     OW10837   0.807   1.464   3.725 -0.3940 -0.1431  0.7371
 1963Sol     HW10838   0.753   1.411   3.783 -2.6391 -0.5321 -1.5832
 1963Sol     HW10839   0.792   1.426   3.638  2.0663  1.0467 -0.2707
 1963Sol     MW10840   0.801   1.455   3.722  0.3429  0.4340  0.0469
 1964Sol     OW10841   1.579   1.180   8.927  0.4312 -0.3696  0.2277
 1964Sol     HW10842   1.617   1.093   8.930  1.1328 -0.1283 -1.3222
 1964Sol     HW10843   1.495   1.168   8.881  0.0938 -0.3706  0.8312
 1964Sol     MW10844   1.575   1.171   8.923  0.0942 -0.3079 -0.0668
 1965Sol     OW10845   2.908   0.629   1.606 -0.2946  0.4657  0.3595
 1965Sol     HW10846   2.901   0.725   1.606  0.1310  0.4975 -0.2001
 1965Sol     HW10847   2.826   0.599   1.645  1.1943  1.1640  4.2792
 1965Sol     MW10848   2.900   0.635   1.610 -0.0315  0.1425  0.0478
 1966Sol     OW10849   1.197   2.622   2.832  0.0186  0.9236 -0.8139
 1966Sol     HW10850   1.266   2.556   2.830 -2.0726 -1.3204 -1.6642
 1966Sol     HW10851   1.176   2.632   2.925 -0.4850 -0.5438 -0.7573
 1966Sol     MW10852   1.201   2.617   2.841  0.1698 -0.1155  0.5490
 1967Sol     OW10853   2.521   2.733   5.731 -0.0500  0.0179  0.2475
 1967Sol     HW10854   2.471   2.813   5.718 -0.2515 -0.3011 -1.0858
 1967Sol     HW10855   2.525   2.693   5.644 -0.7225 -1.8672  1.0448
 1967Sol     MW10856   2.517   2.736   5.722  0.4864 -0.5960 -0.6228
 1968Sol     OW10857   0.443   0.979   4.342 -0.5904  0.3766 -0.2117
 1968Sol     HW10858   0.357   0.980   4.384  0.0153 -2.7141  1.2055
 1968Sol     HW10859   0.501   1.022   4.405 -0.3991 -0.9609  0.5526
 1968Sol     MW10860   0.440   0.983   4.352 -0.7672  0.4533 -0.5728
 1969Sol     OW10861   2.321   1.617   4.859 -0.3022  0.3016 -0.5592
 1969Sol     HW10862   2.250   1.576   4.809 -0.6017  0.5518 -0.3332
 1969Sol     HW10863   2.290   1.705   4.877 -0.8000 -0.2387  1.3231
 1969Sol     MW10864   2.312   1.621   4.856 -0.4577  0.2961 -0.3783
 1970Sol     OW10865   2.063   1.959   4.248  0.2175 -0.5513  0.1788
 1970Sol     HW10866   2.040   2.029   4.186 -1.3046  0.0951  1.4575
 1970Sol     HW10867   1.982   1.942   4.297  1.3321 -1.2053  1.8406
 1970Sol     MW10868   2.054   1.964   4.247  0.3461  0.1846  0.0846
 1971Sol     OW10869   0.244   1.226   8.945 -0.1401 -0.2688  0.0921
 1971Sol     HW10870   0.260   1.317   8.922  0.2396  0.0787  1.6334
 1971Sol     HW10871   0.265   1.221   9.039 -0.0075 -1.9670 -0.0055
 1971Sol     MW10872   0.247   1.233   8.952  0.9518  0.0886 -0.9797
 1972Sol     OW10873   2.334   3.091   3.088  0.2273 -0.0875 -0.4331
 1972Sol     HW10874   2.321   2.999   3.111 -0.5820 -0.5100 -2.4739
 1972Sol     HW10875   2.428   3.097   3.067  0.2124 -0.5335 -0.6356
 1972Sol     MW10876   2.342   3.083   3.088 -0.4310  0.3484  0.6515
 1973Sol     OW10877   2.074   1.045   8.510  0.0981  0.1334  0.4599
 1973Sol     HW10878   2.074   1.012   8.600  1.4218  0.9783  0.7985
 1973Sol     HW10879   2.100   0.970   8.456 -1.1107 -0.4849  0.7363
 1973Sol     MW10880   2.077   1.036   8.513 -0.1386  0.0049  0.0934
 1974Sol     OW10881   0.060   2.836   8.067 -0.0325 -0.4811  0.0582
 1974Sol     HW10882   0.136   2.880   8.029 -1.0276  0.2531 -1.1531
 1974Sol     HW10883   0.080   2.743   8.060  0.4948 -0.3075 -0.8173
 1974Sol     MW10884   0.069   2.832   8.063 -0.0640  1.4518 -0.4422
 1975Sol     OW10885   1.459   2.032   5.548  0.0184 -0.6747 -0.4191
 1975Sol     HW10886   1.422   1.969   5.486 -0.3610  0.2448 -1.1385
 1975Sol     HW10887   1.497   1.978   5.618 -2.4222 -1.6598  0.2097
 1975Sol     MW10888   1.459   2.021   5.549 -0.4299 -0.7578 -0.1324
 1976Sol     OW10889   2.921   0.260   5.259  0.1964  0.5668  0.5607
 1976Sol     HW10890   3.006   0.252   5.302  0.7903  0.5462 -0.5788
 1976Sol     HW10891   2.913   0.354   5.241  0.1807  0.5120  0.2798
 1976Sol     MW10892   2.928   0.268   5.261  0.4892  0.6961  0.6665
 1977Sol     OW10893   2.571   2.415   6.034 -0.0944 -0.1172 -0.8826
 1977Sol     HW10894   2.585   2.459   6.117 -1.8642  0.4678 -0.8753
 1977Sol     HW10895   2.659   2.398   6.000  0.6229  2.4411 -0.3758
 1977Sol     MW10896   2.580   2.417   6.038 -0.3877  0.3982  0.0151
 1978Sol     OW10897   1.441   0.266   2.740 -0.4008 -0.1907  0.2208
 1978Sol     HW10898   1.454   0.334   2.808 -1.1114 -1.0509  1.2363
 1978Sol     HW10899   1.461   0.311   2.658 -0.1341  1.0580  0.9430
 1978Sol     MW10900   1.444   0.276   2.739  0.2018 -0.0670  0.0637
 1979Sol     OW10901   1.641   0.602   8.227  0.0391  0.1487 -0.4086
 1979Sol     HW10902   1.665   0.641   8.143  0.0263  0.3285 -0.3288
 1979Sol     HW10903   1.571   0.658   8.261  1.3190  1.1645  0.5889
 1979Sol     MW10904   1.637   0.611   8.223 -0.3358 -0.1664  0.3190
 1980Sol     OW10905   2.038   2.858   5.326  0.8186 -0.1215 -0.5748
 1980Sol     HW10906   1.945   2.850   5.347  0.5980  1.3548 -0.9355
 1980Sol     HW10907   2.046   2.821   5.239  0.4927  0.0632 -0.6872
 1980Sol     MW10908   2.030   2.854   5.320 -0.3915  0.0088 -0.3263
 1981Sol     OW10909   1.874   2.373   5.505  0.1282  0.3707 -0.0094
 1981Sol     HW10910   1.833   2.397   5.423  0.2318  3.3838  0.7436
 1981Sol     HW10911   1.932   2.446   5.525  1.5260 -1.1624  1.8162
 1981Sol     MW10912   1.876   2.382   5.500  0.0088 -0.3058  0.8732
 1982Sol     OW10913   1.016   0.843   8.381 -0.0373 -0.0299 -0.0992
 1982Sol     HW10914   0.988   0.770   8.436 -0.5172 -0.1184 -0.4581
 1982Sol     HW10915   1.061   0.801   8.307 -0.3100  0.0362 -0.3033
 1982Sol     MW10916   1.018   0.833   8.380  0.2211  0.1971 -0.5048
 1983Sol     OW10917   3.129   2.308   8.506 -0.0858  0.3953  0.0833
 1983Sol     HW10918   3.108   2.274   8.419  1.0013 -0.0816  0.0001
 1983Sol     HW10919   3.104   2.401   8.503  1.8779  0.8938 -1.4164
 1983Sol     MW10920   3.125   2.313   8.498 -0.2548  0.0768  1.0376
 1984Sol     OW10921   2.962   1.444   2.579  0.1500 -0.3501 -0.6270
 1984Sol     HW10922   2.867   1.458   2.580 -0.2088 -2.0789 -3.9234
 1984Sol     HW10923   2.998   1.529   2.553 -0.5562  0.0804 -0.2199
 1984Sol     MW10924   2.957   1.453   2.577 -0.1125 -1.0163 -0.0488
 1985Sol     OW10925   1.253   2.303   3.853  0.0575  0.1276 -0.5323
 1985Sol     HW10926   1.315   2.317   3.924 -1.2053  0.5023  0.5088
 1985Sol     HW10927   1.307   2.274   3.780  1.3268 -0.7278  0.7111
 1985Sol     MW10928   1.263   2.302   3.853  0.1872 -0.4559  0.6806
 1986Sol     OW10929   1.960   0.288   8.134  0.5208 -0.1443 -0.3649
 1986Sol     HW10930   1.883   0.283   8.190  0.2682  0.9426 -0.5912
 1986Sol     HW10931   1.963   0.204   8.089 -1.3879  0.3163 -1.4321
 1986Sol     MW10932   1.953   0.280   8.135 -0.4377  0.8794 -0.3727
 1987Sol     OW10933   1.909   0.164   1.462  0.0942 -0.2934  0.3141
 1987Sol     HW10934   1.908   0.251   1.421  0.4635 -0.1220  0.6563
 1987Sol     HW10935   1.845   0.170   1.533 -0.5858 -0.6077 -0.2732
 1987Sol     MW10936   1.904   0.172   1.465  0.6158 -0.5667  0.5093
 1988Sol     OW10937   0.559   3.103   5.213 -0.1098  0.2926 -0.2160
 1988Sol     HW10938   0.605   3.178   5.175  0.9035  0.0417  0.4912
 1988Sol     HW10939   0.506   3.069   5.142 -0.6746  1.7609 -0.5148
 1988Sol     MW10940   0.559   3.107   5.204  0.8471 -0.7120  0.2844
 1989Sol     OW10941   2.615   2.674   7.076  0.1466 -0.4376  0.4709
 1989Sol     HW10942   2.666   2.642   7.002 -0.3010 -0.7273  0.2866
 1989Sol     HW10943   2.660   2.640   7.153  0.4350 -0.3933  0.3217
 1989Sol     MW10944   2.624   2.668   7.077 -0.5962 -0.2722 -0.4843
 1990Sol     OW10945   2.101   2.496   8.590 -0.2930  0.6725  0.1320
 1990Sol     HW10946   2.034   2.428   8.587 -0.7974  1.1578  0.3539
 1990Sol     HW10947   2.179   2.455   8.553 -0.3517 -0.3039  1.0749
 1990Sol     MW10948   2.102   2.486   8.586  0.0302 -0.1902  0.0835
 1991Sol     OW10949   1.953   0.352   4.075 -0.4584 -0.1421  0.1400
 1991Sol     HW10950   2.044   0.369   4.051 -0.2411 -0.1040  0.9685
 1991Sol     HW10951   1.901   0.401   4.011  0.0889 -0.9608 -0.9370
 1991Sol     MW10952   1.956   0.358   4.067  0.2751  0.2618 -0.3803
 1992Sol     OW10953   1.711   3.129   8.514  0.1721 -0.1860  0.0057
 1992Sol     HW10954   1.659   3.103   8.590  1.9288 -0.7818  1.0472
 1992Sol     HW10955   1.732   3.046   8.470 -0.8263  0.1555 -1.1374
 1992Sol     MW10956   1.709   3.119   8.517  0.0700  0.0405  0.0250
 1993Sol     OW10957   2.814   1.269   8.884  0.0877 -0.0185  0.5718
 1993Sol     HW10958   2.863   1.248   8.964 -0.6700 -1.3496  0.7018
 1993Sol     HW10959   2.828   1.194   8.827 -3.2822 -1.3448  1.3313
 1993Sol     MW10960   2.819   1.260   8.886  0.0132  0.6701  0.3768
 1994Sol     OW10961   2.953   0.350   9.464  0.6797  0.3442 -0.1227
 1994Sol     HW10962   2.930   0.291   9.535  0.6565 -1.6813 -1.7630
 1994Sol     HW10963   2.890   0.422   9.471 -1.3842 -1.4183 -0.0327
 1994Sol     MW10964   2.945   0.351   9.471  0.5742 -0.0701 -0.4329
 1995Sol     OW10965   0.845   0.745   6.537 -0.2836 -0.1201 -0.1934
 1995Sol     HW10966   0.846   0.840   6.539  0.3144 -0.1251 -0.1698
 1995Sol     HW10967   0.937   0.720   6.525 -0.6149 -0.6516 -1.7446
 1995Sol     MW10968   0.853   0.751   6.536 -0.3640  0.1598  0.2726
 1996Sol     OW10969   0.103   2.705   4.264  0.3931 -0.0297  0.2055
 1996Sol     HW10970   0.150   2.726   4.344 -1.0977 -1.3996  1.4994
 1996Sol     HW10971   0.063   2.619   4.282  0.9549 -0.8782 -2.4176
 1996Sol     MW10972   0.103   2.699   4.273 -0.3934  0.9576  0.2504
 1997Sol     OW10973   0.514   2.549   5.257 -0.3929 -0.4152  0.0239
 1997Sol     HW10974   0.443   2.487   5.238  0.4488 -2.0286  2.0192
 1997Sol     HW10975   0.486   2.593   5.337  0.1112  0.1204 -0.0902
 1997Sol     MW10976   0.505   2.547   5.262 -0.4029 -0.4730 -0.2651
 1998Sol     OW10977   2.569   2.256   9.247 -0.0091 -0.0167  0.6382
 1998Sol     HW10978   2.482   2.285   9.275  0.1644  0.1289  1.0421
 1998Sol     HW10979   2.616   2.337   9.226 -0.4712 -0.1931 -1.0800
 1998Sol     MW10980   2.566   2.266   9.248  0.0440  0.2018 -0.0132
 1999Sol     OW10981   0.323   1.329   9.970 -0.0571  0.0604  0.0970
 1999Sol     HW10982   0.387   1.380   9.920 -1.6728  1.0559 -1.0170
 1999Sol     HW10983   0.356   1.240   9.969  0.0060  0.0931 -2.6593
 1999Sol     MW10984   0.332   1.326   9.966  0.5323  0.0194  0.7682
 2000Sol     OW10985   1.644   0.954   2.239  0.3291  0.4521 -0.0945
 2000Sol     HW10986   1.608   1.038   2.212  1.3839  0.4550 -1.5774
 2000Sol     HW10987   1.578   0.889   2.214 -1.4610  1.0076  3.0456
 2000Sol     MW10988   1.635   0.955   2.234  0.4478  0.0428 -0.8774
 2001Sol     OW10989   1.584   0.361   2.301  0.8938  0.1027 -0.0233
 2001Sol     HW10990   1.571   0.274   2.263 -2.0353  1.3078 -1.9677
 2001Sol     HW10991   1.677   0.378   2.291  1.0241 -1.6857 -2.1978
 2001Sol     MW10992   1.591   0.355   2.297 -0.0555  1.1528 -0.2807
 2002Sol     OW10993   0.946   3.163   6.888 -0.5883  0.0161 -0.3965
 2002Sol     HW10994   1.033   3.199   6.898 -0.6650  0.2877 -0.7135
 2002Sol     HW10995   0.952   3.075   6.928 -0.1488 -0.0063 -0.5091
 2002Sol     MW10996   0.954   3.158   6.893 -0.5349  0.5663 -0.5452
 2003Sol     OW10997   0.734   1.780   7.064 -0.3052 -0.0875 -0.0910
 2003Sol     HW10998   0.776   1.834   7.130  0.4901 -0.2704 -0.4483
 2003Sol     HW10999   0.654   1.828   7.041  0.0844  0.6303  0.0426
 2003Sol     MW11000   0.730   1.789   7.068  0.0728 -0.6485  0.4136
 2004Sol     OW11001   2.288   0.112   6.046  0.3472 -0.3195  0.1280
 2004Sol     HW11002   2.195   0.095   6.036  0.2974  0.4792 -0.8528
 2004Sol     HW11003   2.299   0.203   6.020  1.5301 -0.6558 -0.6009
 2004Sol     MW11004   2.281   0.119   6.043 -0.4080 -0.0277  0.2682
 2005Sol     OW11005   0.161   2.484   9.587  0.2197 -0.2278 -0.2152
 2005Sol     HW11006   0.146   2.393   9.612 -0.1849 -0.3549 -0.9071
 2005Sol     HW11007   0.170   2.482   9.492 -3.1835  0.8570 -0.6591
 2005Sol     MW11008   0.160   2.476   9.581  0.1278  0.1899  0.3326
 2006Sol     OW11009   0.864   1.476   6.447 -0.0031 -0.2451 -0.0816
 2006Sol     HW11010   0.832   1.552   6.495 -0.4242 -0.7390  0.4347
 2006Sol     HW11011   0.806   1.404   6.474 -0.3390 -0.4992 -1.4410
 2006Sol     MW11012   0.856   1.476   6.454  0.4767 -0.4378 -0.0481
 2007Sol     OW11013   1.312   1.661   8.235 -0.1169  0.2949  0.3317
 2007Sol     HW11014   1.308   1.700   8.148  2.0020 -1.2596 -0.5007
 2007Sol     HW11015   1.264   1.579   8.227  1.3633 -0.5658  0.2237
 2007Sol     MW11016   1.307   1.657   8.227 -0.2031 -0.0046 -0.3969
 2008Sol     OW11017   2.745   2.954   7.048  0.2115 -0.3271  0.0110
 2008Sol     HW11018   2.724   3.011   7.122  2.9825  0.7148  0.0619
 2008Sol     HW11019   2.695   2.874   7.063 -1.1086  0.7976  1.7362
 2008Sol     MW11020   2.739   2.952   7.056 -0.3745 -0.3743 -0.3932
 2009Sol     OW11021   2.337   0.379   5.942 -0.1034  0.4441  0.3173
 2009Sol     HW11022   2.329   0.437   5.866 -0.5506  1.1838  0.9263
 2009Sol     HW11023   2.418   0.407   5.985  1.3310 -1.4331 -1.1083
 2009Sol     MW11024   2.343   0.387   5.939  0.2949  0.1993  0.1550
 2010Sol     OW11025   0.296   1.331   4.562  0.3975  0.2722 -0.4100
 2010Sol     HW11026   0.219   1.279   4.540  1.3154 -1.6294  0.7299
 2010Sol     HW11027   0.316   1.307   4.652  2.4690  0.5515 -0.7766
 2010Sol     MW11028   0.291   1.324   4.568  0.2151 -0.0243 -0.2080
 2011Sol     OW11029   2.130   2.920   1.343  0.4182 -0.7738  0.5660
 2011Sol     HW11030   2.169   2.980   1.280  1.2665 -1.1446  0.7368
 2011Sol     HW11031   2.194   2.915   1.414 -0.7638  0.0501  1.7073
 2011Sol     MW11032   2.139   2.925   1.344 -0.0589  0.5514  0.1254
 2012Sol     OW11033   2.007   0.181   7.768 -0.1822  0.4745  0.0554
 2012Sol     HW11034   1.963   0.231   7.700 -3.9327 -0.8531  1.3246
 2012Sol     HW11035   2.043   0.104   7.723  2.7501  2.5710 -1.3382
 2012Sol     MW11036   2.006   0.179   7.758 -0.2044  0.0591  0.3061
 2013Sol     OW11037   0.390   1.000   5.710  0.2891  0.1598  0.4061
 2013Sol     HW11038   0.483   1.012   5.725  0.8864 -2.5677 -0.8101
 2013Sol     HW11039   0.354   0.979   5.796  1.1715 -0.9372  0.5169
 2013Sol     MW11040   0.395   0.999   5.719 -0.1360 -0.6303 -0.2097
 2014Sol     OW11041   0.072   2.501   9.194  0.1257 -0.2993  0.5037
 2014Sol     HW11042   0.066   2.591   9.226  0.3453 -0.0403 -0.1870
 2014Sol     HW11043   0.162   2.492   9.164  0.3909 -1.0671  1.5115
 2014Sol     MW11044   0.079   2.508   9.194  0.2408 -0.1456  0.7205
 2015Sol     OW11045   3.320   1.884   1.934 -0.7845 -0.0420  0.4220
 2015Sol     HW11046   3.259   1.951   1.965  1.7152  2.0442  0.9727
 2015Sol     HW11047   3.353   1.844   2.014  0.4847  0.6034  0.2253
 2015Sol     MW11048   3.317   1.886   1.944  0.0028 -0.4057  0.2061
 2016Sol     OW11049   0.311   2.362   4.852 -0.0522 -0.2036  0.4887
 2016Sol     HW11050   0.283   2.339   4.764  0.2800  0.0696  0.3045
 2016Sol     HW11051   0.395   2.408   4.839  1.2832 -2.3747  1.1277
 2016Sol     MW11052   0.316   2.364   4.843 -0.1401 -0.1299  0.4439
 2017Sol     OW11053   1.274   0.141   6.115  0.3784 -0.0383  0.4979
 2017Sol     HW11054   1.335   0.139   6.189  0.4400 -0.4935  0.4398
 2017Sol     HW11055   1.320   0.094   6.046 -0.3429 -1.0525  0.6968
 2017Sol     MW11056   1.284   0.136   6.116  0.2283 -0.6088 -0.4369
 2018Sol     OW11057   0.926   3.129   8.598  0.3182  0.5666 -0.2505
 2018Sol     HW11058   0.976   3.172   8.668  1.0773  2.2653 -1.7822
 2018Sol     HW11059   0.837   3.121   8.633  0.8848  0.5743  1.2375
 2018Sol     MW11060   0.923   3.132   8.608 -0.2089  0.1198  0.6530
 2019Sol     OW11061   2.908   2.219   4.691 -0.0360 -0.1894 -0.5335
 2019Sol     HW11062   2.937   2.288   4.751  1.6908  0.4340 -2.0255
 2019Sol     HW11063   2.834   2.178   4.735  1.0790  0.3506  1.9411
 2019Sol     MW11064   2.904   2.222   4.700  0.4207  0.2640  0.2353
 2020Sol     OW11065   1.246   1.463   3.396  0.3413 -0.0458 -0.3583
 2020Sol     HW11066   1.172   1.523   3.401 -0.0239 -0.4975 -0.2256
 2020Sol     HW11067   1.259   1.434   3.486 -0.0992 -0.8825 -0.5486
 2020Sol     MW11068   1.240   1.466   3.404 -0.6286  0.2566  0.0343
 2021Sol     OW11069   0.711   3.254   6.472 -0.4455 -0.2445  0.1155
 2021Sol     HW11070   0.732   3.210   6.389 -0.4038 -0.0893  0.0449
 2021Sol     HW11071   0.789   3.242   6.525 -0.8965 -1.3582  0.5604
 2021Sol     MW11072   0.720   3.249   6.469  0.3961  0.1503 -0.2679
 2022Sol     OW11073   3.266   1.148   2.569  0.3996 -0.0225  0.1515
 2022Sol     HW11074   3.347   1.169   2.521  0.2407  1.8915  0.7073
 2022Sol     HW11075   3.247   1.226   2.619 -0.6251 -1.2572  1.7187
 2022Sol     MW11076   3.272   1.157   2.569 -0.1835 -0.0189 -0.2414
 2023Sol     OW11077   1.490   3.203   9.690  0.0620  0.7420 -0.0488
 2023Sol     HW11078   1.533   3.177   9.771  0.7717 -0.8886 -0.9292
 2023Sol     HW11079   1.398   3.181   9.705  0.5508 -1.7710 -0.5390
 2023Sol     MW11080   1.485   3.199   9.699 -0.2373 -0.0469 -0.0169
 2024Sol     OW11081   3.059   1.512   8.280  0.4610  0.0537  0.0376
 2024Sol     HW11082   3.131   1.496   8.218  0.0312 -1.9588  0.0173
 2024Sol     HW11083   3.095   1.490   8.365 -0.5168 -2.4066 -0.1305
 2024Sol     MW11084   3.068   1.509   8.282  0.6026  0.7686  0.2879
 2025Sol     OW11085   1.709   3.415   7.555  0.2564  0.8008  0.4898
 2025Sol     HW11086   1.754   3.500   7.552 -1.3764  1.7159  1.1816
 2025Sol     HW11087   1.631   3.431   7.609  0.1178 -1.2353  0.9515
 2025Sol     MW11088   1.706   3.424   7.560 -0.3764  0.1952 -0.1871
 2026Sol     OW11089   0.405   1.151   7.926 -0.1444  0.1171  0.5558
 2026Sol     HW11090   0.470   1.132   7.994  1.1519 -0.9785 -0.9586
 2026Sol     HW11091   0.338   1.201   7.972  0.6074 -0.7355  2.6952
 2026Sol     MW11092   0.405   1.154   7.937 -0.0409 -0.1282  0.3863
 2027Sol     OW11093   1.424   2.966   1.992  0.1037  0.2545  0.2698
 2027Sol     HW11094   1.348   2.973   2.050  0.4703  0.9415  0.6772
 2027Sol     HW11095   1.387   2.944   1.907 -0.4059 -1.2599  0.8637
 2027Sol     MW11096   1.414   2.965   1.990 -0.4909 -0.0504  0.1083
 2028Sol     OW11097   2.205   0.286   9.081  0.4042  0.3127 -0.0789
 2028Sol     HW11098   2.235   0.273   8.991  1.0895  0.6060  0.1012
 2028Sol     HW11099   2.264   0.231   9.134  0.7112  0.9813  0.2908
 2028Sol     MW11100   2.213   0.280   9.078 -0.4839 -0.0525 -0.1455
 2029Sol     OW11101   2.107   1.446   4.727  0.5857  0.2077 -0.6737
 2029Sol     HW11102   2.126   1.406   4.812 -0.4533 -0.2440 -0.6395
 2029Sol     HW11103   2.027   1.496   4.741  0.5954  0.4037 -1.2982
 2029Sol     MW11104   2.101   1.447   4.736 -0.2269 -0.1082 -0.4591
 2030Sol     OW11105   0.236   2.944   6.489 -0.8448  0.6733 -0.0223
 2030Sol     HW11106   0.230   2.867   6.431 -3.1914  0.2019  0.7537
 2030Sol     HW11107   0.147   2.953   6.523  0.2993  1.4832  2.8112
 2030Sol     MW11108   0.227   2.938   6.487 -0.4709 -0.0181 -0.0835
 2031Sol     OW11109   1.741   2.680   7.436 -0.3861  0.5406 -0.0623
 2031Sol     HW11110   1.683   2.658   7.509 -2.3833 -0.5683 -1.9238
 2031Sol     HW11111   1.830   2.666   7.471 -1.3034 -0.3402  2.0082
 2031Sol     MW11112   1.744   2.677   7.446  0.3107  0.1159  0.1438
 2032Sol     OW11113   2.933   1.211   5.515  0.1173  0.0622  0.1751
 2032Sol     HW11114   2.919   1.154   5.440  1.2384  0.4211 -0.3088
 2032Sol     HW11115   2.930   1.300   5.478  1.5727  0.2134  0.3962
 2032Sol     MW11116   2.931   1.214   5.505  0.4576  0.0216 -0.2981
 2033Sol     OW11117   0.045   2.256   9.670  0.2946  0.0658  0.1004
 2033Sol     HW11118  -0.039   2.226   9.702 -0.2592  0.3812 -1.0164
 2033Sol     HW11119   0.075   2.186   9.611  0.5078  0.2503 -0.0122
 2033Sol     MW11120   0.040   2.247   9.667 -0.3048 -0.1273  0.1821
 2034Sol     OW11121   2.191   0.793   3.347  0.3081  0.0481 -0.0800
 2034Sol     HW11122   2.237   0.827   3.270 -0.2947  1.8142  0.3178
 2034Sol     HW11123   2.112   0.753   3.312  0.3440  0.2836 -0.4302
 2034Sol     MW11124   2.188   0.792   3.337 -0.4496  0.0169 -0.1193
 2035Sol     OW11125   0.940   2.666   2.082 -0.0214  0.3771 -0.1433
 2035Sol     HW11126   0.907   2.618   2.006 -1.0047  0.4383  0.2425
 2035Sol     HW11127   0.943   2.757   2.054  1.5158  0.1576 -0.7604
 2035Sol     MW11128   0.937   2.670   2.073  0.2193  0.0823 -0.0370
 2036Sol     OW11129   0.211   1.507   9.269  0.1306 -0.0693  0.2567
 2036Sol     HW11130   0.170   1.592   9.250  0.3293  0.0994  0.5775
 2036Sol     HW11131   0.196   1.494   9.363 -0.4072 -0.6629  0.0983
 2036Sol     MW11132   0.206   1.514   9.276  0.0878  0.1409 -0.0714
 2037Sol     OW11133   0.683   2.329   7.543  0.1717 -0.4441  0.3053
 2037Sol     HW11134   0.606   2.282   7.511  0.0038 -1.1236  1.6395
 2037Sol     HW11135   0.752   2.308   7.480 -0.2389 -1.4354  0.1659
 2037Sol     MW11136   0.682   2.323   7.535  0.3078  0.0680  0.4093
 2038Sol     OW11137   1.665   0.416   2.018  0.5584  0.4287  0.0351
 2038Sol     HW11138   1.710   0.346   1.969 -1.6077 -0.2020 -1.0959
 2038Sol     HW11139   1.717   0.425   2.098  2.6178 -0.3852 -1.1673
 2038Sol     MW11140   1.674   0.410   2.021  0.0052 -1.0849  0.5761
 2039Sol     OW11141   0.736   1.252   9.858  0.2817  0.7661  0.4342
 2039Sol     HW11142   0.821   1.251   9.902  0.7186  0.5744 -0.4119
 2039Sol     HW11143   0.688   1.178   9.896  0.8127  0.3450  0.2834
 2039Sol     MW11144   0.739   1.245   9.865 -1.0483  0.4423 -0.0143
 2040Sol     OW11145   2.684   1.208   9.955  0.3037 -0.3708 -0.7230
 2040Sol     HW11146   2.651   1.215  10.045  0.1996 -0.8627 -0.7220
 2040Sol     HW11147   2.706   1.298   9.931  0.5880 -0.2702 -0.1087
 2040Sol     MW11148   2.683   1.217   9.961  0.1246  0.4140 -0.8347
 2041Sol     OW11149   2.598   3.389   7.844 -0.2258  1.0067 -0.4842
 2041Sol     HW11150   2.532   3.432   7.899  0.1745  0.7463  0.2160
 2041Sol     HW11151   2.614   3.305   7.888 -2.0457 -0.4950 -2.6228
 2041Sol     MW11152   2.594   3.385   7.853 -0.7000  0.1089  0.8706
 2042Sol     OW11153   2.410   0.265   1.479  0.0884  0.0198 -0.2132
 2042Sol     HW11154   2.489   0.318   1.484 -0.7225  1.2379 -0.2363
 2042Sol     HW11155   2.382   0.272   1.388  0.1399 -0.6830 -0.2849
 2042Sol     MW11156   2.414   0.270   1.472 -1.0481  0.3583 -0.2988
 2043Sol     OW11157   1.807   2.184   1.776 -0.2699  0.8198 -0.2574
 2043Sol     HW11158   1.837   2.267   1.740  1.9285 -0.0258 -0.4774
 2043Sol     HW11159   1.882   2.150   1.824 -0.9331 -1.3171 -0.6746
 2043Sol     MW11160   1.816   2.188   1.777 -0.1898 -0.3945  0.0799
 2044Sol     OW11161   1.165   2.389   9.480  0.1400 -0.2375 -0.2815
 2044Sol     HW11162   1.172   2.468   9.533  0.4239 -0.2047 -0.3639
 2044Sol     HW11163   1.192   2.417   9.392  0.3212 -0.4407 -0.2928
 2044Sol     MW11164   1.168   2.399   9.477  0.3282  0.5305 -0.2601
 2045Sol     OW11165   1.604   2.468   4.504 -0.1234 -0.4568 -0.3861
 2045Sol     HW11166   1.651   2.445   4.585 -0.4856 -1.1615 -0.3667
 2045Sol     HW11167   1.548   2.392   4.487 -1.6412  0.5905 -0.1291
 2045Sol     MW11168   1.604   2.459   4.510  0.9807  0.9841  0.9469
 2046Sol     OW11169   1.490   2.473   3.598 -0.5205 -0.2812 -0.2623
 2046Sol     HW11170   1.402   2.503   3.575 -0.0400 -0.2939 -2.2166
 2046Sol     HW11171   1.512   2.521   3.678 -1.4984  1.2763 -0.9125
 2046Sol     MW11172   1.484   2.480   3.603  0.1933 -0.6778  0.0485
 2047Sol     OW11173   2.710   1.673   8.019  0.1771  0.2888 -0.4033
 2047Sol     HW11174   2.786   1.640   7.971 -0.7529 -2.0487 -0.3296
 2047Sol     HW11175   2.724   1.644   8.109 -0.4635  0.4538 -0.2495
 2047Sol     MW11176   2.718   1.668   8.022 -0.1852  0.4829  0.0281
 2048Sol     OW11177   2.055   0.174   5.697  0.2569 -0.1504  0.2010
 2048Sol     HW11178   2.135   0.131   5.668  0.6551 -0.8215  2.2393
 2048Sol     HW11179   1.985   0.117   5.665  0.7004 -1.0310  0.7734
 2048Sol     MW11180   2.056   0.165   5.691  0.1929  0.4615  0.0456
 2049Sol     OW11181   2.852   1.243   5.152  0.0593  0.1116 -0.1132
 2049Sol     HW11182   2.878   1.157   5.186 -0.1494  1.5084  3.7475
 2049Sol     HW11183   2.756   1.240   5.152  0.0443 -0.3659 -2.0358
 2049Sol     MW11184   2.845   1.235   5.155 -0.9509  0.2800 -0.5378
 2050Sol     OW11185   3.277   2.284   6.051 -0.1774 -0.7860 -0.0723
 2050Sol     HW11186   3.216   2.280   5.978 -1.4619 -1.2886  1.0107
 2050Sol     HW11187   3.364   2.275   6.010 -0.7760  0.4871 -1.6692
 2050Sol     MW11188   3.280   2.283   6.041  0.4577 -0.3241 -0.2880
 2051Sol     OW11189   0.196   1.585   3.322 -0.2743 -0.5202 -0.2062
 2051Sol     HW11190   0.251   1.527   3.374 -1.7815 -0.5556  1.3856
 2051Sol     HW11191   0.248   1.603   3.243  1.1146 -2.2375  0.2890
 2051Sol     MW11192   0.206   1.582   3.319 -0.5767  0.4024  0.3153
 2052Sol     OW11193   1.587   1.831   3.150 -0.1448  0.5320 -0.3466
 2052Sol     HW11194   1.643   1.754   3.154 -2.6363 -1.2076  3.8442
 2052Sol     HW11195   1.648   1.905   3.154  2.0933 -1.2249 -1.2152
 2052Sol     MW11196   1.598   1.831   3.150 -0.2536  1.1352  0.1103
 2053Sol     OW11197   0.474   0.308   2.240  0.3833  0.4015 -0.1659
 2053Sol     HW11198   0.478   0.288   2.146 -1.5494  2.1486 -0.6555
 2053Sol     HW11199   0.507   0.398   2.246  0.5693  0.2692  0.8454
 2053Sol     MW11200   0.477   0.315   2.232  0.3349 -0.0759  0.0883
 2054Sol     OW11201   0.530   1.850   4.755  0.1377 -0.3270  0.2234
 2054Sol     HW11202   0.504   1.809   4.673 -0.3730 -1.5475  0.9938
 2054Sol     HW11203   0.469   1.923   4.766 -0.4851 -0.8313  0.0867
 2054Sol     MW11204   0.523   1.853   4.749 -0.4834 -0.4817  0.0016
 2055Sol     OW11205   0.152   1.667   2.588  0.1411 -0.3489 -0.2992
 2055Sol     HW11206   0.243   1.696   2.583 -0.2783  1.1125  0.2912
 2055Sol     HW11207   0.100   1.748   2.583 -1.0512 -0.9589  1.6699
 2055Sol     MW11208   0.155   1.677   2.587  0.0847  0.2983 -0.0121
 2056Sol     OW11209   1.909   0.996   9.152  0.7444  0.3810 -0.2309
 2056Sol     HW11210   1.842   0.962   9.093  0.5600  0.7842 -0.2516
 2056Sol     HW11211   1.884   1.087   9.168  1.2543  0.5167 -0.1920
 2056Sol     MW11212   1.901   1.001   9.148 -0.4686 -0.1110  0.3633
 2057Sol     OW11213   1.816   2.610   2.617  0.0345 -0.9448  0.5320
 2057Sol     HW11214   1.754   2.634   2.685 -0.6857  0.2513 -0.5279
 2057Sol     HW11215   1.883   2.678   2.620 -0.2735 -0.6042 -0.3036
 2057Sol     MW11216   1.817   2.618   2.623  0.0399  0.4302  0.3506
 2058Sol     OW11217   1.750   0.931   8.950  0.3865 -0.2345 -0.0645
 2058Sol     HW11218   1.749   0.932   8.854 -1.9329 -1.7456 -0.0985
 2058Sol     HW11219   1.751   0.838   8.973 -1.0007  0.0837  1.3545
 2058Sol     MW11220   1.750   0.923   8.943  0.2975  0.0015  0.2235
 2059Sol     OW11221   0.685   1.782   2.350 -0.4251  0.0844  0.1677
 2059Sol     HW11222   0.682   1.704   2.406  1.5159  1.0003  1.5943
 2059Sol     HW11223   0.766   1.827   2.375 -0.6652  1.6925 -1.8150
 2059Sol     MW11224   0.692   1.779   2.357  0.5803 -0.1977  0.9890
 2060Sol     OW11225   1.320   2.179   3.408 -0.3955  0.1649  0.2086
 2060Sol     HW11226   1.338   2.108   3.346 -0.1548 -0.1307  0.6179
 2060Sol     HW11227   1.230   2.206   3.388 -0.4807 -0.2384  0.0351
 2060Sol     MW11228   1.313   2.175   3.400 -0.2281 -0.2728 -0.3710
 2061Sol     OW11229   2.017   2.478   2.491  0.1366  0.6486  0.0658
 2061Sol     HW11230   2.003   2.390   2.454  0.8226  0.0867  1.1104
 2061Sol     HW11231   1.936   2.498   2.537  0.6527 -0.2284  1.3813
 2061Sol     MW11232   2.009   2.472   2.492 -0.4518  0.0429  0.6176
 2062Sol     OW11233   1.944   1.731   4.108 -0.6333 -0.2392  0.1448
 2062Sol     HW11234   2.000   1.785   4.163 -4.0407  0.3942  3.1795
 2062Sol     HW11235   1.937   1.780   4.026  1.7448  0.5279  0.3621
 2062Sol     MW11236   1.948   1.740   4.105  0.4281  0.2428  0.0979
 2063Sol     OW11237   3.020   0.669   7.005  0.7234  0.1490  0.3925
 2063Sol     HW11238   2.944   0.648   6.950  0.0875  1.2547  0.8262
 2063Sol     HW11239   3.087   0.607   6.978  0.3879  0.6153 -1.6037
 2063Sol     MW11240   3.019   0.662   6.997  0.4504 -0.6515 -0.3770
 2064Sol     OW11241   1.905   1.596   3.749  0.5099  0.2978  0.1452
 2064Sol     HW11242   1.979   1.592   3.810  0.3690 -1.1980  0.2469
 2064Sol     HW11243   1.833   1.631   3.802  0.2742 -1.3845  1.0065
 2064Sol     MW11244   1.905   1.599   3.759 -0.1028  0.1734  0.1965
 2065Sol     OW11245   2.674   0.783   7.877 -0.0013 -0.3038  0.2589
 2065Sol     HW11246   2.743   0.777   7.811  0.0355  1.7224  0.0833
 2065Sol     HW11247   2.623   0.860   7.852  0.0526  0.5614  2.6098
 2065Sol     MW11248   2.676   0.789   7.869 -0.1511  0.1293  0.1950
 2066Sol     OW11249   2.215   1.099   6.042 -0.0768 -0.4558  0.0880
 2066Sol     HW11250   2.259   1.057   6.116  1.5371  0.5645 -0.2698
 2066Sol     HW11251   2.286   1.133   5.988 -1.3011  0.8296 -0.7429
 2066Sol     MW11252   2.225   1.098   6.044 -0.6754 -0.1702 -0.1202
 2067Sol     OW11253   2.688   2.347   2.935 -0.2399  0.2687 -0.7130
 2067Sol     HW11254   2.643   2.266   2.912  1.3474 -1.0429  0.6378
 2067Sol     HW11255   2.625   2.396   2.988 -0.7399 -0.7117 -0.3878
 2067Sol     MW11256   2.679   2.344   2.938  0.2760  0.1431  0.4599
 2068Sol     OW11257   1.559   3.294   7.329  0.5836  0.2235 -0.1222
 2068Sol     HW11258   1.630   3.310   7.392  0.2418 -0.9972  0.5903
 2068Sol     HW11259   1.583   3.211   7.287 -0.3026 -0.0861 -0.0323
 2068Sol     MW11260   1.568   3.288   7.331  0.9347 -0.7637 -0.4492
 2069Sol     OW11261   2.442   0.692   4.708  0.2994  0.7019 -0.3690
 2069Sol     HW11262   2.439   0.755   4.780  1.2662  0.5375 -0.1762
 2069Sol     HW11263   2.426   0.745   4.630 -1.0881  0.8236 -0.0099
 2069Sol     MW11264   2.441   0.703   4.707  0.2292 -0.1357  0.0041
 2070Sol     OW11265   2.522   0.418   5.065 -0.4413 -0.6911 -0.1303
 2070Sol     HW11266   2.596   0.357   5.069 -0.5909 -0.8192  0.6541
 2070Sol     HW11267   2.465   0.381   4.997  1.9511  1.3520 -3.4400
 2070Sol     MW11268   2.524   0.409   5.059  0.1524  0.0560 -0.2319
 2071Sol     OW11269   3.073   3.244   8.732 -0.1921  0.5718  0.5950
 2071Sol     HW11270   3.055   3.254   8.639  1.5356  1.0573  0.2876
 2071Sol     HW11271   3.167   3.260   8.740  0.4280 -3.1539  1.8613
 2071Sol     MW11272   3.080   3.246   8.725 -0.2132 -0.2098  0.0958
 2072Sol     OW11273   2.876   1.601   9.343 -0.0349  0.6037  0.0908
 2072Sol     HW11274   2.851   1.642   9.425 -0.7777 -0.9093  0.6512
 2072Sol     HW11275   2.811   1.631   9.280 -0.9469 -0.1882  0.6378
 2072Sol     MW11276   2.868   1.607   9.345  0.2883 -0.2868 -0.4244
 2073Sol     OW11277   1.570   0.425   7.868  0.2233  0.3484  0.2168
 2073Sol     HW11278   1.495   0.477   7.895 -1.1664 -0.6444 -1.6036
 2073Sol     HW11279   1.557   0.340   7.910  1.8568  1.0185  2.1992
 2073Sol     MW11280   1.562   0.422   7.874 -0.6329  0.2219 -0.1588
 2074Sol     OW11281   3.074   0.120   2.487  0.0299  0.2431  0.2198
 2074Sol     HW11282   2.984   0.094   2.506 -0.0629  0.3334 -0.1032
 2074Sol     HW11283   3.069   0.173   2.408  0.3769  0.1849  0.1548
 2074Sol     MW11284   3.066   0.123   2.482 -0.1197 -0.6761  0.1769
 2075Sol     OW11285   0.480   0.177   5.333  0.0848 -0.1567  0.5206
 2075Sol     HW11286   0.454   0.251   5.278  0.6877  0.2250  0.7508
 2075Sol     HW11287   0.444   0.100   5.288 -0.2274  0.2363  0.0902
 2075Sol     MW11288   0.474   0.177   5.324  0.3518 -0.0785  0.1961
 2076Sol     OW11289   0.205   2.270   2.787 -0.2208  0.5030  0.0760
 2076Sol     HW11290   0.252   2.274   2.704 -0.4897  0.8065 -0.0613
 2076Sol     HW11291   0.188   2.362   2.809  2.4281  0.6219  1.9314
 2076Sol     MW11292   0.208   2.279   2.781 -0.3322 -0.4986  0.4428
 2077Sol     OW11293   0.903   3.258   8.354  0.4991  0.3815  0.6540
 2077Sol     HW11294   0.839   3.225   8.291  2.3423 -0.3154 -0.8999
 2077Sol     HW11295   0.896   3.198   8.429  2.0335 -2.0947 -1.1044
 2077Sol     MW11296   0.897   3.249   8.355 -0.3969 -0.3779 -0.5134
 2078Sol     OW11297   0.510   0.937   2.488  0.0074  0.0626 -0.9692
 2078Sol     HW11298   0.421   0.909   2.508  0.5255  0.1216  1.6506
 2078Sol     HW11299   0.512   0.946   2.393 -2.4450 -1.0485 -1.1645
 2078Sol     MW11300   0.502   0.935   2.481 -0.2025 -0.3165  0.1716
 2079Sol     OW11301   2.696   0.577   1.767  0.2131 -0.0454  0.1917
 2079Sol     HW11302   2.637   0.640   1.726  0.4489 -0.5782 -0.9949
 2079Sol     HW11303   2.685   0.591   1.861 -2.2173 -0.5104  0.0049
 2079Sol     MW11304   2.690   0.584   1.772  0.6143  0.0320  0.4196
 2080Sol     OW11305   3.215   2.468   6.262  0.2605 -0.2652 -0.8483
 2080Sol     HW11306   3.244   2.428   6.180  0.6455 -1.3642 -0.1883
 2080Sol     HW11307   3.126   2.434   6.275  0.5067 -0.7478 -0.3978
 2080Sol     MW11308   3.210   2.462   6.256  0.3886  0.3256 -0.0536
 2081Sol     OW11309   2.766   2.943   8.579 -0.2128 -0.1667  0.0950
 2081Sol     HW11310   2.708   2.896   8.639  1.6272  0.6385  2.6176
 2081Sol     HW11311   2.794   3.020   8.628  1.7856  0.2454 -1.5991
 2081Sol     MW11312   2.763   2.945   8.589 -0.2182 -0.7988  0.4130
 2082Sol     OW11313   3.162   2.662   5.986 -0.2704 -0.6770  0.4277
 2082Sol     HW11314   3.216   2.700   6.055 -0.0823  2.4691 -1.3613
 2082Sol     HW11315   3.225   2.631   5.921 -0.4937  0.2955 -0.2767
 2082Sol     MW11316   3.172   2.663   5.986  0.7970  0.3018 -0.2007
 2083Sol     OW11317   1.235   1.731   2.766 -0.0494  0.0934 -0.2121
 2083Sol     HW11318   1.199   1.648   2.737  0.4151 -0.3316  0.4257
 2083Sol     HW11319   1.192   1.748   2.850  1.5176 -0.6071  0.7409
 2083Sol     MW11320   1.227   1.725   2.771 -0.4241  0.3577 -0.0771
 2084Sol     OW11321   0.677   2.308   1.924 -0.7047 -0.4166 -0.4511
 2084Sol     HW11322   0.753   2.366   1.932 -0.6530 -0.4890 -0.4229
 2084Sol     HW11323   0.606   2.356   1.966 -0.7316 -0.2406 -0.6952
 2084Sol     MW11324   0.677   2.318   1.928 -0.2439 -0.2685  0.3164
 2085Sol     OW11325   0.054   0.748   5.777  0.1709  0.3882  0.1258
 2085Sol     HW11326   0.040   0.656   5.800 -0.9774  0.8809  1.4514
 2085Sol     HW11327   0.142   0.750   5.739 -0.2532 -1.4545 -1.0303
 2085Sol     MW11328   0.061   0.740   5.775 -0.2905 -0.6548 -0.1201
 2086Sol     OW11329   1.164   3.273   1.542 -0.0899  0.3649  0.4287
 2086Sol     HW11330   1.171   3.246   1.634 -0.5021 -0.1619  0.3098
 2086Sol     HW11331   1.151   3.191   1.494 -1.0117  0.7442  0.0244
 2086Sol     MW11332   1.164   3.263   1.546  0.0253 -0.0382  0.3412
 2087Sol     OW11333   1.811   2.326   4.631  0.1095 -0.1999  0.0832
 2087Sol     HW11334   1.889   2.271   4.642 -0.7552 -1.8303 -1.5962
 2087Sol     HW11335   1.817   2.390   4.701  1.1960 -2.3899  2.0845
 2087Sol     MW11336   1.819   2.327   4.638 -0.5998  0.2408  0.2001
 2088Sol     OW11337   1.999   1.232   2.671  0.2740  0.0129 -0.4727
 2088Sol     HW11338   2.000   1.144   2.635  0.2579 -0.4509  0.6315
 2088Sol     HW11339   2.082   1.241   2.718 -1.0639 -0.5931  2.1113
 2088Sol     MW11340   2.006   1.225   2.672 -0.0890 -0.3954  0.6274
 2089Sol     OW11341   0.896   2.901   6.995 -0.1833 -0.1471 -0.0062
 2089Sol     HW11342   0.939   2.879   7.077 -0.5836  0.1413  0.2789
 2089Sol     HW11343   0.946   2.854   6.928  1.7438  1.6954  0.1142
 2089Sol     MW11344   0.904   2.895   6.996  0.5561 -0.7823 -0.7302
 2090Sol     OW11345   0.975   3.195   1.988 -0.1926 -0.2696  0.1271
 2090Sol     HW11346   1.006   3.251   2.060  0.8583  0.2524 -0.7116
 2090Sol     HW11347   1.028   3.221   1.913  1.2611 -3.2932  0.0145
 2090Sol     MW11348   0.983   3.202   1.988 -0.3377 -0.2092 -0.5943
 2091Sol     OW11349   1.719   1.147   9.814 -0.4188  0.0230 -0.2307
 2091Sol     HW11350   1.741   1.150   9.907 -1.0588  1.5693 -0.1180
 2091Sol     HW11351   1.784   1.089   9.776  0.3019 -0.0332  1.0653
 2091Sol     MW11352   1.727   1.142   9.819  0.0148  0.3694  0.0267
 2092Sol     OW11353   0.612   0.618   3.684  0.0835  0.5483  0.0834
 2092Sol     HW11354   0.567   0.631   3.767 -0.7707  1.1313 -0.4628
 2092Sol     HW11355   0.704   0.636   3.704 -0.0965  0.5694  0.9294
 2092Sol     MW11356   0.617   0.621   3.693  0.7815  0.4062 -0.4566
 2093Sol     OW11357   0.127   3.183   2.791  1.1047 -0.3788 -0.2306
 2093Sol     HW11358   0.087   3.257   2.836  1.2160 -0.1244 -0.5428
 2093Sol     HW11359   0.177   3.223   2.719  0.3992 -0.8128 -0.9749
 2093Sol     MW11360   0.128   3.193   2.788 -0.3617  0.0672 -0.5665
 2094Sol     OW11361   1.531   1.770   4.063  0.4886 -0.1937  0.0211
 2094Sol     HW11362   1.572   1.754   4.148  0.6542 -0.5721 -0.1284
 2094Sol     HW11363   1.596   1.742   3.999  0.1179 -0.5114 -0.2225
 2094Sol     MW11364   1.540   1.766   4.064  0.4662  0.4267  0.6073
 2095Sol     OW11365   0.473   3.404   2.080  0.0879  0.3104 -0.0196
 2095Sol     HW11366   0.555   3.355   2.073 -0.5464 -0.7913  0.1102
 2095Sol     HW11367   0.405   3.341   2.055 -0.6269  1.5575 -1.3183
 2095Sol     MW11368   0.474   3.394   2.077  0.4082  0.4499 -0.2006
 2096Sol     OW11369   0.176   2.940   3.732 -0.0083  0.0636  0.6697
 2096Sol     HW11370   0.206   2.935   3.641 -0.0702 -0.4299  0.6763
 2096Sol     HW11371   0.252   2.911   3.783  0.1345  0.6563  0.7941
 2096Sol     MW11372   0.186   2.937   3.728  0.2171 -0.2846 -0.4511
 2097Sol     OW11373   1.949   3.413   9.835  0.3545 -0.9317 -0.4800
 2097Sol     HW11374   2.041   3.401   9.859  0.2983  0.6243  0.5366
 2097Sol     HW11375   1.934   3.507   9.844 -1.6401 -1.3283  0.4225
 2097Sol     MW11376   1.956   3.420   9.838  0.8022 -0.0339  0.0776
 2098Sol     OW11377   2.427   0.394   4.067 -0.3410 -0.3438 -0.6237
 2098Sol     HW11378   2.362   0.358   4.006 -0.8214 -0.6740  0.0789
 2098Sol     HW11379   2.500   0.421   4.011 -0.0928 -2.1466 -1.1980
 2098Sol     MW11380   2.427   0.393   4.057 -0.0734  0.6708 -0.1866
 2099Sol     OW11381   2.589   0.998   5.679  0.1406  0.1543 -0.7292
 2099Sol     HW11382   2.510   0.973   5.631  0.2296  1.0026 -1.3402
 2099Sol     HW11383   2.616   1.081   5.639  0.8974  0.2686 -0.0032
 2099Sol     MW11384   2.585   1.003   5.671 -0.7054  0.4068  0.2057
 2100Sol     OW11385   0.053   2.646   1.489 -0.2397  0.1710 -0.1673
 2100Sol     HW11386   0.106   2.592   1.431 -1.7815  0.8449 -2.2911
 2100Sol     HW11387   0.045   2.595   1.569 -0.4161 -2.0773 -1.5710
 2100Sol     MW11388   0.057   2.637   1.491 -0.5129 -0.7159 -0.0910
 2101Sol     OW11389   2.750   2.806   3.634  0.3047  0.1982  0.3757
 2101Sol     HW11390   2.717   2.817   3.724  0.3705 -3.2924  0.8873
 2101Sol     HW11391   2.845   2.813   3.643  0.3222 -0.3214  0.6193
 2101Sol     MW11392   2.756   2.808   3.643 -0.8512 -0.3614 -0.1631
 2102Sol     OW11393   3.026   0.772   9.350 -0.3608  0.4247 -0.3375
 2102Sol     HW11394   3.070   0.689   9.331  1.4905  1.4121 -0.4823
 2102Sol     HW11395   3.010   0.769   9.444  2.4917  1.1769  0.2239
 2102Sol     MW11396   3.028   0.764   9.357 -0.6346  0.3916  0.3447
 2103Sol     OW11397   0.209   3.378   4.053 -0.1274 -0.0175  0.0399
 2103Sol     HW11398   0.226   3.472   4.067  1.3832 -0.3547  0.5162
 2103Sol     HW11399   0.151   3.353   4.125  2.4318 -0.2737  2.0595
 2103Sol     MW11400   0.205   3.385   4.061  0.1024 -0.4356 -1.0102
 2104Sol     OW11401   1.943   2.158   4.100  0.5461  0.3924 -0.1801
 2104Sol     HW11402   1.965   2.238   4.053  0.4544  0.1018 -0.7136
 2104Sol     HW11403   1.854   2.173   4.133  0.6480  0.6316 -0.0132
 2104Sol     MW11404   1.937   2.166   4.099 -0.0263  0.6372  0.0177
 2105Sol     OW11405   2.763   2.536   9.516 -0.6365  0.2358 -0.0427
 2105Sol     HW11406   2.802   2.476   9.580 -1.2437 -0.1450 -0.0334
 2105Sol     HW11407   2.678   2.498   9.496 -0.2499  0.1047 -1.4437
 2105Sol     MW11408   2.759   2.527   9.520  0.1197  0.3291 -0.2363
 2106Sol     OW11409   2.765   2.690   4.179  0.2338  0.8265 -0.4734
 2106Sol     HW11410   2.850   2.693   4.224  0.4607 -0.4902 -0.7782
 2106Sol     HW11411   2.721   2.770   4.206  0.9560  0.7794  0.9339
 2106Sol     MW11412   2.769   2.697   4.186 -0.2746  0.1196  0.6712
 2107Sol     OW11413   0.438   2.385   3.988  0.1288 -0.0765 -0.0877
 2107Sol     HW11414   0.515   2.435   4.018 -0.0643  1.7490 -2.4866
 2107Sol     HW11415   0.364   2.442   4.010 -0.2448 -0.1744 -1.0922
 2107Sol     MW11416   0.439   2.395   3.993 -0.5279  0.2020  0.1696
 2108Sol     OW11417   1.679   0.596   6.331 -0.3248  0.4169  0.1954
 2108Sol     HW11418   1.694   0.532   6.401  2.9637  0.6064 -0.2512
 2108Sol     HW11419   1.702   0.681   6.371 -0.6062  0.8051 -0.4571
 2108Sol     MW11420   1.683   0.598   6.341 -0.1063 -0.1529 -0.3059
 2109Sol     OW11421   0.422   2.232   5.473  0.4825 -0.1992 -0.2788
 2109Sol     HW11422   0.514   2.230   5.447  0.1464  0.2451 -1.5535
 2109Sol     HW11423   0.381   2.292   5.410 -0.9044 -1.3492 -0.4825
 2109Sol     MW11424   0.427   2.238   5.465  0.2285 -0.2791 -0.4018
 2110Sol     OW11425   2.921   2.468   1.574 -0.1232  0.2522  0.1489
 2110Sol     HW11426   2.992   2.519   1.535  0.0905  0.4849  0.8448
 2110Sol     HW11427   2.939   2.470   1.668 -0.1597 -1.0368  0.1878
 2110Sol     MW11428   2.929   2.473   1.579 -0.4109  0.9105  0.4219
 2111Sol     OW11429   0.522   2.232   8.685  0.8857  0.0882  0.1426
 2111Sol     HW11430   0.438   2.185   8.685  0.0730  1.5219 -0.1813
 2111Sol     HW11431   0.579   2.180   8.629  0.3944 -1.2235  0.8419
 2111Sol     MW11432   0.519   2.223   8.680  0.8973 -0.4140 -0.3939
 2112Sol     OW11433   1.105   0.015   6.651 -0.7342  0.5947  0.1345
 2112Sol     HW11434   1.084   0.109   6.650 -0.2392  0.7500 -3.5233
 2112Sol     HW11435   1.194   0.010   6.617 -0.7274 -1.1992  0.3667
 2112Sol     MW11436   1.111   0.023   6.648 -0.5257  0.3055 -0.6147
 2113Sol     OW11437   0.727   2.104   3.508  0.0194 -0.2323  0.9157
 2113Sol     HW11438   0.758   2.146   3.588  1.0811  0.5140  0.1367
 2113Sol     HW11439   0.656   2.159   3.477 -0.9926 -1.0202  1.8179
 2113Sol     MW11440   0.724   2.112   3.512 -0.0699 -0.3272 -0.2549
 2114Sol     OW11441   0.537   1.041   3.094 -0.7600  0.5881 -0.0208
 2114Sol     HW11442   0.564   1.107   3.030  1.2377  1.1260  1.3451
 2114Sol     HW11443   0.447   1.018   3.068  0.1935  0.3668 -3.3671
 2114Sol     MW11444   0.531   1.045   3.086  0.6233  0.2043 -0.7191
 2115Sol     OW11445   1.224   0.340   7.065 -0.2236  0.2799  0.0711
 2115Sol     HW11446   1.237   0.290   7.145 -2.7097 -2.5070 -1.1581
 2115Sol     HW11447   1.290   0.306   7.004 -0.8997 -0.3779 -0.2891
 2115Sol     MW11448   1.231   0.333   7.066 -0.5780 -0.0823 -0.3843
 2116Sol     OW11449   2.848   1.383   3.352  0.4256  0.3264 -0.0686
 2116Sol     HW11450   2.827   1.386   3.446 -0.2612 -0.4338 -0.1959
 2116Sol     HW11451   2.764   1.366   3.310  0.3599  2.6967 -0.9755
 2116Sol     MW11452   2.839   1.382   3.357  0.1569  0.0608  0.5099
 2117Sol     OW11453   0.572   2.670   1.552  0.1529 -0.3443 -0.0526
 2117Sol     HW11454   0.539   2.580   1.554  2.0648 -1.0646 -0.0795
 2117Sol     HW11455   0.567   2.700   1.643  1.9257 -1.3847  0.3963
 2117Sol     MW11456   0.568   2.665   1.561 -0.5142  1.1043  1.1999
 2118Sol     OW11457   2.125   3.100   8.929 -0.1483  0.6546  0.2012
 2118Sol     HW11458   2.159   3.152   9.002 -0.1278 -0.3069  0.8803
 2118Sol     HW11459   2.193   3.034   8.913  0.2377  1.3912 -1.2545
 2118Sol     MW11460   2.134   3.099   8.934  0.2499  0.1023  0.0630
 2119Sol     OW11461   1.092   3.176   9.168  0.2803  0.8424 -0.0354
 2119Sol     HW11462   1.031   3.249   9.165 -0.2160  0.4553  0.4568
 2119Sol     HW11463   1.054   3.115   9.232  0.8433  0.2986 -0.2080
 2119Sol     MW11464   1.084   3.177   9.173  0.1628  0.1683  0.2478
 2120Sol     OW11465   2.523   1.938   9.534 -0.3767  0.1540 -0.6423
 2120Sol     HW11466   2.598   1.990   9.504  1.6997 -2.6605 -0.5094
 2120Sol     HW11467   2.508   1.875   9.464 -0.5177 -1.4034  0.7519
 2120Sol     MW11468   2.528   1.937   9.525 -0.4857 -0.5514 -0.5631
 2121Sol     OW11469   2.700   0.704   4.631 -0.2231 -0.4004  0.0045
 2121Sol     HW11470   2.742   0.618   4.633 -1.2690 -0.9343 -0.7846
 2121Sol     HW11471   2.607   0.686   4.646 -0.3655  0.6531  0.4627
 2121Sol     MW11472   2.695   0.695   4.633 -0.0161 -0.1638  0.4891
 2122Sol     OW11473   0.212   2.022   7.938  1.0081  0.6069 -0.1778
 2122Sol     HW11474   0.193   1.946   7.993 -1.4342  2.1583  1.1842
 2122Sol     HW11475   0.307   2.025   7.933  1.1424 -2.4089 -0.0682
 2122Sol     MW11476   0.219   2.016   7.942  0.0152 -0.4414 -0.3575
 2123Sol     OW11477   0.061   0.176   3.144 -0.6449  0.3305  0.1344
 2123Sol     HW11478   0.035   0.255   3.097  0.3630  0.4983 -0.1420
 2123Sol     HW11479   0.152   0.191   3.169 -1.1162  0.1695  2.0095
 2123Sol     MW11480   0.067   0.184   3.142 -0.1726 -0.3817 -0.6117
 2124Sol     OW11481   3.084   3.264   6.824  0.1750  0.1916 -0.4956
 2124Sol     HW11482   3.047   3.202   6.762  0.1021 -1.5225  1.2121
 2124Sol     HW11483   3.179   3.250   6.819  0.0446 -1.5952  1.4055
 2124Sol     MW11484   3.089   3.257   6.818 -0.0513  1.0305  0.4827
 2125Sol     OW11485   0.522   3.379   2.596  0.2646  0.0840  0.3762
 2125Sol     HW11486   0.611   3.398   2.627 -0.0584 -0.4561  1.6526
 2125Sol     HW11487   0.515   3.427   2.514  2.1962 -0.8991 -0.4131
 2125Sol     MW11488   0.530   3.385   2.592  0.1892  0.9455 -0.5158
 2126Sol     OW11489   1.172   1.829   8.403 -0.5463 -0.6105 -0.4271
 2126Sol     HW11490   1.106   1.778   8.449  0.7408 -2.7672 -0.9036
 2126Sol     HW11491   1.220   1.764   8.351  1.3872  1.0406 -0.7344
 2126Sol     MW11492   1.170   1.818   8.402 -0.8362  0.3271 -0.3583
 2127Sol     OW11493   0.238   2.477   8.801  0.5225 -0.0307 -0.1292
 2127Sol     HW11494   0.143   2.481   8.796  0.6288  1.0914 -1.6880
 2127Sol     HW11495   0.266   2.451   8.713  1.7976  2.9334 -0.6395
 2127Sol     MW11496   0.232   2.475   8.792 -0.3692  0.0834 -0.0149
 2128Sol     OW11497   0.389   1.656   6.609  0.5993  0.0116  0.5721
 2128Sol     HW11498   0.359   1.738   6.648 -1.6116 -1.0333  1.1218
 2128Sol     HW11499   0.384   1.672   6.515  0.2410  0.5498  0.6770
 2128Sol     MW11500   0.386   1.665   6.604  0.4084 -1.1719  0.3119
 2129Sol     OW11501   0.318   3.323   1.394  0.3224 -0.5906  0.4511
 2129Sol     HW11502   0.294   3.230   1.386 -0.3068 -0.4621  0.8088
 2129Sol     HW11503   0.369   3.327   1.475  0.2511 -0.6025  0.4965
 2129Sol     MW11504   0.321   3.315   1.401  0.4751  0.7471  0.2779
 2130Sol     OW11505   0.212   1.315   3.109 -0.3480  0.6083 -0.3351
 2130Sol     HW11506   0.239   1.302   3.018 -2.5762 -0.6420 -0.8653
 2130Sol     HW11507   0.117   1.324   3.105 -0.5829 -0.3839  1.9407
 2130Sol     MW11508   0.206   1.314   3.100 -0.4320 -0.3971 -0.7856
 2131Sol     OW11509   3.160   2.931   2.683  0.3597  0.0174 -0.3447
 2131Sol     HW11510   3.092   2.938   2.750  1.7703  1.0455  1.0338
 2131Sol     HW11511   3.229   2.878   2.724  0.6186 -0.5574 -1.5105
 2131Sol     MW11512   3.160   2.927   2.692 -0.1185  0.3013 -0.1301
 2132Sol     OW11513   0.585   2.790   4.778  0.2866 -0.1260 -0.0602
 2132Sol     HW11514   0.678   2.809   4.762  0.5808 -0.3670  1.2440
 2132Sol     HW11515   0.540   2.819   4.699  1.2981  1.4210 -0.0850
 2132Sol     MW11516   0.590   2.794   4.770  0.2648  0.9192 -0.7114
 2133Sol     OW11517   3.130   1.699   4.853 -0.2455 -0.0082  0.3252
 2133Sol     HW11518   3.113   1.651   4.934 -0.7333  2.0793  1.4920
 2133Sol     HW11519   3.101   1.788   4.872 -0.2617  0.5274 -2.1229
 2133Sol     MW11520   3.126   1.703   4.862 -0.2931  0.6848 -0.8254
 2134Sol     OW11521   3.189   2.785   5.626 -0.1659  0.4416  0.0467
 2134Sol     HW11522   3.132   2.822   5.694 -0.4891 -0.8793  0.5186
 2134Sol     HW11523   3.139   2.795   5.545 -0.3893  0.7208  0.2161
 2134Sol     MW11524   3.179   2.789   5.625  0.5112  0.0434 -1.0988
 2135Sol     OW11525   0.606   2.871   9.033  0.1836  0.1835 -0.4919
 2135Sol     HW11526   0.615   2.899   8.942  2.3369  0.2902 -0.2780
 2135Sol     HW11527   0.695   2.874   9.067 -0.7675  1.3518  1.9740
 2135Sol     MW11528   0.615   2.874   9.028  0.2785  0.6113 -0.1069
 2136Sol     OW11529   0.671   0.977   5.258  0.1750  0.1317  0.0675
 2136Sol     HW11530   0.646   0.939   5.342 -0.8647  1.2667  0.2864
 2136Sol     HW11531   0.754   1.022   5.276  0.7193 -0.8657  0.1198
 2136Sol     MW11532   0.676   0.978   5.267  0.4765  0.2952 -0.3020
 2137Sol     OW11533   0.518   2.683   6.084 -0.2428 -0.2842  0.4258
 2137Sol     HW11534   0.459   2.704   6.012  0.5231  1.6898  0.3191
 2137Sol     HW11535   0.584   2.753   6.081  0.7434 -1.1302  1.9862
 2137Sol     MW11536   0.518   2.691   6.078 -0.2554 -0.3096  0.3288
 2138Sol     OW11537   2.260   1.418   7.100  0.0823 -0.0812 -0.0204
 2138Sol     HW11538   2.189   1.358   7.124  0.9117 -0.4655  1.5080
 2138Sol     HW11539   2.253   1.426   7.005 -2.3728  0.3321  0.1484
 2138Sol     MW11540   2.253   1.414   7.094  0.4022  0.3458  0.1546
 2139Sol     OW11541   1.557   1.543   4.498 -0.0795 -0.1959 -0.3087
 2139Sol     HW11542   1.646   1.510   4.511 -0.0115 -0.5943 -1.6799
 2139Sol     HW11543   1.568   1.628   4.456 -0.3386  0.1498  0.3065
 2139Sol     MW11544   1.566   1.547   4.496  0.9426 -0.0218 -0.0556
 2140Sol     OW11545   2.383   0.917   1.692 -0.5175 -0.2002 -0.3092
 2140Sol     HW11546   2.339   0.957   1.617 -1.3199  0.3475  0.4450
 2140Sol     HW11547   2.409   0.831   1.661 -1.7908 -0.3910 -0.8946
 2140Sol     MW11548   2.381   0.913   1.683 -0.7833  0.4674  0.3171
 2141Sol     OW11549   2.178   2.383   4.930 -0.1284 -0.1409 -0.0386
 2141Sol     HW11550   2.084   2.402   4.940 -0.1795 -0.4116  0.0036
 2141Sol     HW11551   2.206   2.353   5.017  0.8398  3.4838  0.9671
 2141Sol     MW11552   2.172   2.382   4.939  0.0862 -0.3474 -0.7797
 2142Sol     OW11553   1.679   3.221   5.112  0.7844  0.2623 -0.5882
 2142Sol     HW11554   1.756   3.175   5.145  0.1737  0.1846  0.7818
 2142Sol     HW11555   1.608   3.157   5.120  0.5035  0.4475 -1.5188
 2142Sol     MW11556   1.679   3.211   5.116 -0.4360  0.0088  0.2409
 2143Sol     OW11557   0.146   1.796   2.159 -0.1530  0.1371  0.5196
 2143Sol     HW11558   0.192   1.720   2.192  1.6354  0.3241 -1.4425
 2143Sol     HW11559   0.213   1.864   2.151 -0.9946  0.8267 -1.1004
 2143Sol     MW11560   0.156   1.796   2.161 -0.1555  0.2309 -0.6006
 2144Sol     OW11561   2.823   3.075   8.355 -0.5186  0.3881 -0.2363
 2144Sol     HW11562   2.744   3.128   8.353  0.1146  1.4558  1.4103
 2144Sol     HW11563   2.807   3.010   8.424 -0.2540  0.1330 -0.4117
 2144Sol     MW11564   2.815   3.074   8.361 -0.1078 -0.2075  0.1505
 2145Sol     OW11565   2.841   1.981   8.257  0.1198 -0.0971  0.1210
 2145Sol     HW11566   2.898   1.907   8.233  1.7546  1.1693 -0.0340
 2145Sol     HW11567   2.759   1.941   8.284  0.0962 -1.8501 -2.3904
 2145Sol     MW11568   2.839   1.971   8.257  0.2151 -0.5872  0.2802
 2146Sol     OW11569   0.437   0.858   3.826  0.1023  0.0325 -0.0017
 2146Sol     HW11570   0.366   0.890   3.770 -0.0672 -0.4710 -0.0725
 2146Sol     HW11571   0.517   0.893   3.786 -0.2063  1.8061  0.8948
 2146Sol     MW11572   0.438   0.864   3.818  0.1125 -0.4428 -0.4797
 2147Sol     OW11573   2.416   2.816   9.441 -0.5490  0.0606  0.5763
 2147Sol     HW11574   2.350   2.864   9.391  0.5153  2.3452  1.2984
 2147Sol     HW11575   2.466   2.767   9.376 -0.9045  0.8578 -0.3018
 2147Sol     MW11576   2.414   2.816   9.431  0.2047  0.6602  0.5256
 2148Sol     OW11577   1.789   0.492   1.679  0.0997  0.2637 -0.7804
 2148Sol     HW11578   1.759   0.404   1.657  1.1690 -0.0155 -1.1829
 2148Sol     HW11579   1.793   0.538   1.595  2.3629 -0.2213 -0.9896
 2148Sol     MW11580   1.787   0.488   1.670 -0.4648  0.0122 -0.6147
 2149Sol     OW11581   0.413   0.339   5.534 -0.0220  0.1027 -0.2982
 2149Sol     HW11582   0.386   0.321   5.624 -1.1841  0.0744 -0.6533
 2149Sol     HW11583   0.437   0.253   5.499  1.5120  0.2540  0.3214
 2149Sol     MW11584   0.413   0.329   5.539 -0.1112 -0.0401 -0.6280
 2150Sol     OW11585   1.461   0.455   2.524 -0.2304  0.1075 -0.5410
 2150Sol     HW11586   1.474   0.542   2.562  1.3337 -1.0687  1.6911
 2150Sol     HW11587   1.509   0.457   2.441 -1.6618  1.8988 -1.3760
 2150Sol     MW11588   1.466   0.463   2.520 -1.0866 -0.2791  0.1413
 2151Sol     OW11589   1.692   3.238   2.693  0.4978  0.6454 -0.6772
 2151Sol     HW11590   1.689   3.333   2.704  0.5397  0.6072 -0.3420
 2151Sol     HW11591   1.620   3.205   2.747  1.7770  0.3267  0.8620
 2151Sol     MW11592   1.685   3.243   2.699  0.1377 -0.1997  0.3247
 2152Sol     OW11593   2.360   0.287   4.866 -0.3211 -0.0471  0.1370
 2152Sol     HW11594   2.356   0.319   4.776  1.0812  0.2458  0.1549
 2152Sol     HW11595   2.271   0.259   4.887 -0.3636 -1.5260 -1.8624
 2152Sol     MW11596   2.352   0.287   4.860  0.2695 -0.3900  0.5692
 2153Sol     OW11597   1.001   1.929   5.462 -0.0575  0.1148 -0.1560
 2153Sol     HW11598   0.963   1.906   5.378 -2.0796  0.0656  0.7557
 2153Sol     HW11599   1.034   1.846   5.497  0.1260  0.0181 -0.5510
 2153Sol     MW11600   1.001   1.919   5.458  0.1545  0.0838 -0.2532
 2154Sol     OW11601   0.021   1.145   2.875  0.3867  0.9916 -0.1886
 2154Sol     HW11602  -0.009   1.225   2.919 -0.5756  0.4621  0.1250
 2154Sol     HW11603   0.034   1.171   2.784  3.6964  2.4488  0.6306
 2154Sol     MW11604   0.019   1.155   2.871  0.4448  0.1590 -0.0001
 2155Sol     OW11605   1.781   2.610   5.654 -0.5822 -0.7032 -0.1361
 2155Sol     HW11606   1.708   2.548   5.658 -0.6118 -0.7121 -0.8520
 2155Sol     HW11607   1.757   2.678   5.717 -0.1823 -1.8077  1.2501
 2155Sol     MW11608   1.772   2.610   5.660 -0.1687 -0.3261 -0.0472
 2156Sol     OW11609   0.289   1.178   6.385 -0.1191 -0.1833 -0.1989
 2156Sol     HW11610   0.334   1.154   6.304  0.1202  0.7547 -0.3537
 2156Sol     HW11611   0.356   1.169   6.453 -0.3717 -1.1574 -0.0664
 2156Sol     MW11612   0.299   1.175   6.384  0.3642 -0.1263  0.2099
 2157Sol     OW11613   1.753   2.593   4.777  0.0370 -0.2306  0.5958
 2157Sol     HW11614   1.757   2.683   4.810 -1.2015  0.1307 -0.2180
 2157Sol     HW11615   1.659   2.576   4.766  0.3791 -0.3781 -2.6138
 2157Sol     MW11616   1.745   2.600   4.779 -0.2209 -0.0386 -0.8593
 2158Sol     OW11617   2.818   2.320   9.676  0.0253  0.3507 -0.2794
 2158Sol     HW11618   2.748   2.323   9.741 -0.7154 -1.6045 -0.9617
 2158Sol     HW11619   2.898   2.338   9.726 -0.9982  3.4906  0.3563
 2158Sol     MW11620   2.819   2.322   9.686 -0.3713  0.0595 -0.3557
 2159Sol     OW11621   1.328   1.261   4.849  0.5071 -0.3373  0.1017
 2159Sol     HW11622   1.316   1.272   4.755 -0.8218 -1.8248  0.0744
 2159Sol     HW11623   1.344   1.349   4.881  3.8262 -0.1450 -1.8731
 2159Sol     MW11624   1.328   1.270   4.843  0.2789 -0.0618  1.1088
 2160Sol     OW11625   2.546   0.814   4.034 -0.0100 -0.2045 -0.4865
 2160Sol     HW11626   2.511   0.893   4.076 -1.6847 -1.5735  0.7962
 2160Sol     HW11627   2.590   0.767   4.105 -0.6555 -1.3086 -0.7889
 2160Sol     MW11628   2.547   0.816   4.045 -0.3057 -0.0192  0.5132
 2161Sol     OW11629   2.224   1.048   9.383  0.3278 -0.2606 -0.3866
 2161Sol     HW11630   2.186   1.117   9.436  0.5971 -1.1399  0.9694
 2161Sol     HW11631   2.312   1.035   9.419  0.6096 -0.6971 -1.2073
 2161Sol     MW11632   2.229   1.053   9.391 -0.2072  0.1773 -0.6504
 2162Sol     OW11633   2.791   2.912   2.418  0.3645 -0.3317  0.3282
 2162Sol     HW11634   2.795   2.972   2.493  0.4037  0.2105 -0.1074
 2162Sol     HW11635   2.697   2.902   2.401  0.3933  1.6804 -1.2447
 2162Sol     MW11636   2.782   2.917   2.423  0.2597 -0.6325 -0.2277
 2163Sol     OW11637   2.409   2.573   7.317  0.2866 -0.6569 -0.2713
 2163Sol     HW11638   2.472   2.552   7.248  1.1602 -0.2493  0.3874
 2163Sol     HW11639   2.328   2.532   7.289  0.1658  0.9625 -2.4059
 2163Sol     MW11640   2.408   2.567   7.308  0.6328  0.4498  0.0027
 2164Sol     OW11641   2.260   1.215   5.461  0.2157 -0.0769  0.1176
 2164Sol     HW11642   2.338   1.265   5.486  0.6170 -1.3230  1.4645
 2164Sol     HW11643   2.207   1.213   5.540  0.4408 -2.1907  0.2284
 2164Sol     MW11644   2.262   1.219   5.470 -0.2805 -0.9313 -0.3380
 2165Sol     OW11645   1.436   2.209   2.201  0.1911  0.2235  0.4075
 2165Sol     HW11646   1.395   2.146   2.142 -0.7053  0.7009  0.5107
 2165Sol     HW11647   1.488   2.266   2.144 -1.7662  1.5423 -0.1097
 2165Sol     MW11648   1.437   2.209   2.191  0.4200  0.6786 -0.2903
 2166Sol     OW11649   1.814   1.158   1.373 -0.5188  0.1257  0.2311
 2166Sol     HW11650   1.740   1.201   1.415 -1.8572 -0.0814 -1.8430
 2166Sol     HW11651   1.865   1.230   1.334  0.9008  0.3466  2.4080
 2166Sol     MW11652   1.812   1.168   1.373 -0.0833  0.1917 -0.2448
 2167Sol     OW11653   0.722   0.887   1.819  0.0944  0.1732 -0.5213
 2167Sol     HW11654   0.656   0.938   1.772 -1.4881 -1.3303  0.0170
 2167Sol     HW11655   0.736   0.810   1.764 -0.4384 -0.7139  0.5561
 2167Sol     MW11656   0.717   0.885   1.810 -0.2961  0.2876 -0.4744
 2168Sol     OW11657   1.960   1.969   6.655  1.1973 -0.0403 -0.3775
 2168Sol     HW11658   1.871   1.988   6.682  1.0202 -2.5811  1.0297
 2168Sol     HW11659   2.013   2.035   6.700  0.3429 -0.6573  1.5737
 2168Sol     MW11660   1.957   1.977   6.661 -0.0413 -0.2414 -0.2362
 2169Sol     OW11661   1.625   1.726   6.370 -0.6350  0.3917  1.0128
 2169Sol     HW11662   1.604   1.753   6.281 -0.2034  1.0015  1.0928
 2169Sol     HW11663   1.589   1.795   6.426  2.4719  1.9873  1.0954
 2169Sol     MW11664   1.620   1.734   6.367 -0.0301 -0.1004  0.3547
 2170Sol     OW11665   3.037   1.907   9.538 -0.8230  0.3382  0.3418
 2170Sol     HW11666   3.108   1.859   9.495 -0.6649  0.5881  0.3226
 2170Sol     HW11667   2.999   1.961   9.469 -1.1903  0.0220  0.2937
 2170Sol     MW11668   3.040   1.907   9.528  0.1413 -0.6028 -0.1137
 2171Sol     OW11669   3.028   0.836   4.068 -0.1705  0.2844  0.6644
 2171Sol     HW11670   3.006   0.889   3.992  0.7242 -0.3434 -0.0394
 2171Sol     HW11671   3.085   0.892   4.121 -0.6784  0.6677  0.8078
 2171Sol     MW11672   3.031   0.845   4.066 -0.4246 -0.9305  0.1471
 2172Sol     OW11673   2.100   1.128   6.671  0.6416 -0.0316  0.4508
 2172Sol     HW11674   2.176   1.152   6.616  1.0216 -2.1133  0.0105
 2172Sol     HW11675   2.139   1.089   6.749  0.0439  0.1932  0.8584
 2172Sol     MW11676   2.111   1.126   6.673 -0.6750 -0.0668 -0.2053
 2173Sol     OW11677   2.753   0.564   9.441  0.0069  0.0919 -0.0547
 2173Sol     HW11678   2.766   0.655   9.468 -0.1180  0.2440 -0.4983
 2173Sol     HW11679   2.669   0.540   9.478  1.4981 -0.9029  2.8425
 2173Sol     MW11680   2.747   0.570   9.447  0.1012  0.8947 -0.6892
 2174Sol     OW11681   2.369   2.773   7.064  0.0020 -0.2391  0.0954
 2174Sol     HW11682   2.459   2.752   7.089  0.3066 -0.9202 -1.5390
 2174Sol     HW11683   2.336   2.693   7.022 -0.8624  0.4928 -0.6457
 2174Sol     MW11684   2.374   2.764   7.062 -0.0927  0.1179 -0.1729
 2175Sol     OW11685   2.509   0.001   2.351  0.3964  0.3498 -0.0862
 2175Sol     HW11686   2.561  -0.078   2.368 -1.1713 -0.5549  0.5757
 2175Sol     HW11687   2.456   0.012   2.429 -1.1271  0.6848 -1.1462
 2175Sol     MW11688   2.509  -0.005   2.359  0.3360  0.3632 -0.5650
 2176Sol     OW11689   2.805   3.431   7.670 -0.4465 -0.1352  1.0631
 2176Sol     HW11690   2.791   3.359   7.608 -0.3013 -1.9881  3.1336
 2176Sol     HW11691   2.731   3.425   7.731 -1.6821  2.8932  0.0229
 2176Sol     MW11692   2.797   3.424   7.670  0.1536 -0.2209  0.0517
 2177Sol     OW11693   1.637   3.424   2.403 -0.2822 -0.8142 -0.0952
 2177Sol     HW11694   1.710   3.482   2.424  1.6662 -2.7951 -1.3166
 2177Sol     HW11695   1.586   3.421   2.484 -1.4052  3.8855 -0.4479
 2177Sol     MW11696   1.639   3.429   2.412  0.3420 -0.3348  0.1954
 2178Sol     OW11697   3.040   2.854   1.570  0.1212 -0.0231  1.3636
 2178Sol     HW11698   2.964   2.896   1.531  1.4991  0.5817 -0.7542
 2178Sol     HW11699   3.050   2.772   1.521  3.3047  1.8701 -1.3201
 2178Sol     MW11700   3.034   2.850   1.562  0.2645 -0.6962 -0.2031
 2179Sol     OW11701   1.110   2.234   2.746  0.4170  0.4205 -0.4772
 2179Sol     HW11702   1.048   2.223   2.818  0.0171  0.8903 -0.7404
 2179Sol     HW11703   1.120   2.146   2.709 -0.8837  0.5042 -1.0628
 2179Sol     MW11704   1.105   2.225   2.749  0.5466  0.6450 -0.4377
 2180Sol     OW11705   0.862   2.699   8.044 -0.2048  0.3720  0.4300
 2180Sol     HW11706   0.893   2.619   8.003  1.6073  0.4326  1.6060
 2180Sol     HW11707   0.782   2.721   7.997 -0.6003 -1.9856 -0.0738
 2180Sol     MW11708   0.858   2.694   8.036 -0.0923 -1.0137 -0.2223
 2181Sol     OW11709   1.890   1.914   9.202  0.5026 -0.0119 -0.9198
 2181Sol     HW11710   1.848   1.921   9.117 -1.4383 -0.2721 -0.0080
 2181Sol     HW11711   1.886   1.821   9.223  2.1776 -0.1487 -1.1130
 2181Sol     MW11712   1.886   1.906   9.197 -0.8086  0.6703 -0.3009
 2182Sol     OW11713   0.523   1.882   5.781  0.0232 -0.0288 -0.1912
 2182Sol     HW11714   0.465   1.927   5.720  1.3661 -0.3228 -1.7146
 2182Sol     HW11715   0.604   1.933   5.780  0.5279 -0.8021  0.3185
 2182Sol     MW11716   0.525   1.891   5.776  0.0390  0.9528 -0.1531
 2183Sol     OW11717   2.916   1.010   3.880 -0.0810  0.1305  0.1602
 2183Sol     HW11718   2.837   0.959   3.867 -0.3839 -0.4271  3.7635
 2183Sol     HW11719   2.885   1.099   3.898  0.1547  0.1086  0.6773
 2183Sol     MW11720   2.906   1.014   3.881  0.5212  0.2167  0.4001
 2184Sol     OW11721   0.988   0.378   4.234  0.5479  0.3121 -0.2093
 2184Sol     HW11722   1.020   0.316   4.169  0.9279 -0.2672  0.5179
 2184Sol     HW11723   0.900   0.347   4.256  0.5639  0.2880 -0.1783
 2184Sol     MW11724   0.983   0.370   4.230 -0.4457  0.1332 -0.4328
 2185Sol     OW11725   2.578   1.861   5.059  0.3589  0.5369 -0.6283
 2185Sol     HW11726   2.668   1.852   5.091  1.1309  1.9089 -2.3222
 2185Sol     HW11727   2.585   1.844   4.965 -1.3303 -0.2653 -0.6301
 2185Sol     MW11728   2.587   1.859   5.053  0.4825  0.6231  0.0195
 2186Sol     OW11729   0.088   3.404   5.877 -0.6233  0.7241 -0.4343
 2186Sol     HW11730   0.078   3.313   5.850 -3.0397  0.6515  0.5661
 2186Sol     HW11731   0.181   3.414   5.893 -0.4775 -1.9209  0.6320
 2186Sol     MW11732   0.095   3.397   5.876 -0.3104  0.0658 -0.3660
 2187Sol     OW11733   0.101   0.136   2.116  0.1601  0.2412  0.1848
 2187Sol     HW11734   0.089   0.200   2.187 -0.5634  1.2802 -0.8620
 2187Sol     HW11735   0.151   0.182   2.050 -0.0521 -0.3955 -0.4290
 2187Sol     MW11736   0.104   0.146   2.117  0.0863  0.2006 -0.2381
 2188Sol     OW11737   2.556   0.725   3.460 -0.4513 -0.0318  0.2582
 2188Sol     HW11738   2.567   0.658   3.393  1.2543  1.0385 -0.5735
 2188Sol     HW11739   2.591   0.805   3.420  0.9418  0.5533  2.5510
 2188Sol     MW11740   2.560   0.726   3.451  0.4025  0.2063 -0.4453
 2189Sol     OW11741   1.465   0.015   7.703 -0.0575  0.3321  0.0809
 2189Sol     HW11742   1.425   0.058   7.627  2.7602  1.8364 -0.6154
 2189Sol     HW11743   1.454   0.078   7.774  1.9195  1.1879 -0.3547
 2189Sol     MW11744   1.460   0.024   7.702 -0.3457  0.1961  0.3250
 2190Sol     OW11745   1.775   1.124   8.000  0.1120  0.6334 -0.3206
 2190Sol     HW11746   1.861   1.094   8.031 -1.3653 -0.6860  2.7753
 2190Sol     HW11747   1.783   1.219   7.996  1.4583  0.6005  0.8740
 2190Sol     MW11748   1.783   1.130   8.002 -0.5906  0.7047  0.0835
 2191Sol     OW11749   2.026   1.607   9.273 -0.4212  0.4475 -0.1109
 2191Sol     HW11750   2.092   1.538   9.275  0.6927  1.4171 -1.7369
 2191Sol     HW11751   1.958   1.577   9.333  1.2410 -0.8279  1.2028
 2191Sol     MW11752   2.026   1.598   9.279 -0.5957  0.1316  0.3793
 2192Sol     OW11753   1.206   1.289   3.192 -0.1046 -0.4419 -0.6174
 2192Sol     HW11754   1.124   1.310   3.148 -0.5594 -0.6003  0.1332
 2192Sol     HW11755   1.210   1.351   3.265 -0.9242 -2.2228  0.9810
 2192Sol     MW11756   1.199   1.296   3.195 -0.1167 -0.2710 -0.4209
 2193Sol     OW11757   1.996   2.146   2.475  0.0132 -0.0040  0.3376
 2193Sol     HW11758   2.019   2.055   2.490  0.6576  0.2319  0.8027
 2193Sol     HW11759   1.901   2.150   2.487 -0.4887 -1.2211 -2.7218
 2193Sol     MW11760   1.990   2.138   2.477 -0.0094  0.5209  0.2217
 2194Sol     OW11761   0.442   1.555   2.462 -0.1310 -0.0379 -0.5959
 2194Sol     HW11762   0.437   1.642   2.502  1.1793  0.4289 -1.4051
 2194Sol     HW11763   0.393   1.563   2.380 -1.9037 -0.6944  0.3858
 2194Sol     MW11764   0.438   1.564   2.458  1.1104 -0.0924  0.1319
 2195Sol     OW11765   2.250   0.229   7.902  0.1927  0.1968 -0.6030
 2195Sol     HW11766   2.273   0.155   7.958 -0.9633  0.6975  0.5454
 2195Sol     HW11767   2.170   0.202   7.857 -0.5396  0.9541  0.2313
 2195Sol     MW11768   2.245   0.220   7.903 -0.1541  0.3454  0.9403
 2196Sol     OW11769   1.765   0.633   7.758 -0.0406  0.0991 -0.2081
 2196Sol     HW11770   1.706   0.573   7.802 -0.3690 -1.8256 -3.1390
 2196Sol     HW11771   1.802   0.582   7.686  0.8216  2.9608 -1.8845
 2196Sol     MW11772   1.763   0.624   7.755  0.0748 -0.1408 -0.3370
 2197Sol     OW11773   0.246   3.381   2.619  0.3832 -0.1747  0.4008
 2197Sol     HW11774   0.335   3.346   2.621  0.8671  1.0578  0.8003
 2197Sol     HW11775   0.221   3.378   2.527  1.5148  1.1429  0.0363
 2197Sol     MW11776   0.252   3.378   2.611  0.2152 -0.3650 -0.1558
 2198Sol     OW11777   1.379   2.825   2.828  0.6516 -0.8715  0.1968
 2198Sol     HW11778   1.427   2.798   2.907  1.8069 -0.4899 -0.3737
 2198Sol     HW11779   1.320   2.752   2.810  0.0219 -0.7695  1.6859
 2198Sol     MW11780   1.378   2.816   2.834  0.8032 -0.1584  0.5727
 2199Sol     OW11781   2.870   1.340   8.093 -0.1751 -0.0274  0.1958
 2199Sol     HW11782   2.831   1.401   8.156  0.8486 -0.4564  1.2577
 2199Sol     HW11783   2.797   1.286   8.063 -0.8324  0.7786  0.3203
 2199Sol     MW11784   2.860   1.341   8.096 -0.3661  0.6481  0.0839
 2200Sol     OW11785   3.253   3.235   3.120 -0.9987  0.8712  0.1238
 2200Sol     HW11786   3.307   3.177   3.174  0.6849  0.4165 -1.9736
 2200Sol     HW11787   3.251   3.318   3.168  2.3481  1.1829 -0.1744
 2200Sol     MW11788   3.258   3.237   3.129 -0.2087 -0.3213  0.9602
 2201Sol     OW11789   1.603   0.858   7.233  0.3550 -0.1379 -0.5848
 2201Sol     HW11790   1.604   0.852   7.329  0.5583 -1.1890 -0.6481
 2201Sol     HW11791   1.513   0.835   7.209  0.1233  0.7649 -0.6166
 2201Sol     MW11792   1.595   0.855   7.240  0.1053 -0.1826  0.9860
 2202Sol     OW11793   1.878   3.435   5.284  0.1303 -0.0505  0.2067
 2202Sol     HW11794   1.908   3.379   5.356  1.2706 -0.4963 -0.5922
 2202Sol     HW11795   1.959   3.472   5.248 -0.6247  2.3818  0.9261
 2202Sol     MW11796   1.888   3.433   5.287  0.0944  0.7277  0.5940
 2203Sol     OW11797   1.500   0.114   2.207 -0.1650  0.2773  0.2976
 2203Sol     HW11798   1.538   0.053   2.270 -0.6339 -0.9862 -0.6108
 2203Sol     HW11799   1.499   0.065   2.125 -2.0572  0.9412 -0.0945
 2203Sol     MW11800   1.504   0.104   2.205  0.3036  0.0215 -0.4257
 2204Sol     OW11801   1.923   0.959   7.391  0.6817  0.2392 -0.7010
 2204Sol     HW11802   1.844   0.923   7.430  1.1879 -1.4993 -1.2059
 2204Sol     HW11803   1.943   1.036   7.444 -1.0375  0.3936 -0.2464
 2204Sol     MW11804   1.918   0.962   7.399  0.2700  0.1631  0.0648
 2205Sol     OW11805   2.658   2.166   7.119 -0.0165 -0.1903  0.0872
 2205Sol     HW11806   2.594   2.157   7.190  0.0153 -1.1909  0.0078
 2205Sol     HW11807   2.628   2.105   7.052  1.7784 -1.7749  0.6510
 2205Sol     MW11808   2.650   2.159   7.120 -0.1239  0.0698  0.5434
 2206Sol     OW11809   2.093   0.830   1.437 -0.0903 -0.6435  0.6606
 2206Sol     HW11810   2.000   0.843   1.457 -0.1175  1.3437 -0.7206
 2206Sol     HW11811   2.094   0.796   1.347  0.6092  1.2468 -0.0612
 2206Sol     MW11812   2.085   0.828   1.431 -0.7083  0.6834  0.0778
 2207Sol     OW11813   1.243   0.882   6.549 -0.0266 -0.8568  0.5179
 2207Sol     HW11814   1.321   0.865   6.496  0.2452 -0.1488  0.6850
 2207Sol     HW11815   1.187   0.936   6.492 -0.3844 -1.3366  0.4095
 2207Sol     MW11816   1.245   0.886   6.539  0.2994  0.0308  0.1709
 2208Sol     OW11817   1.809   0.537   8.903 -0.8974  0.2837  0.5884
 2208Sol     HW11818   1.720   0.511   8.879 -0.6709  0.8126 -0.8435
 2208Sol     HW11819   1.799   0.581   8.988 -2.2510  2.0011 -0.4377
 2208Sol     MW11820   1.800   0.538   8.909 -0.0146 -0.1827 -1.0729
 2209Sol     OW11821   0.528   2.568   7.501 -0.3315  0.0272 -0.0538
 2209Sol     HW11822   0.562   2.479   7.507  0.9303  0.5583  0.9496
 2209Sol     HW11823   0.581   2.609   7.432  1.2876  0.9240  1.6718
 2209Sol     MW11824   0.536   2.564   7.495  0.1496  0.8606 -0.2056
 2210Sol     OW11825   0.897   0.058   3.689 -0.5814 -0.8301 -0.1830
 2210Sol     HW11826   0.934  -0.004   3.752 -1.0884 -0.6891  0.2561
 2210Sol     HW11827   0.822   0.097   3.735 -0.9922 -0.7773 -0.8969
 2210Sol     MW11828   0.893   0.056   3.699 -0.2716 -0.0760  0.6526
 2211Sol     OW11829   1.304   3.123   8.997  0.7646  0.0348  0.1144
 2211Sol     HW11830   1.383   3.144   9.047  0.2022  0.9757  0.6118
 2211Sol     HW11831   1.232   3.141   9.056  0.1607 -0.7252 -0.3783
 2211Sol     MW11832   1.305   3.126   9.006  0.7453  0.2738 -0.2084
 2212Sol     OW11833   0.730   2.524   6.873  0.3028  0.1284  0.1723
 2212Sol     HW11834   0.790   2.577   6.926  1.4918 -1.6841  0.6863
 2212Sol     HW11835   0.787   2.471   6.818 -0.8488 -1.2633  0.3110
 2212Sol     MW11836   0.740   2.524   6.873  0.5399 -0.0859 -0.3167
 2213Sol     OW11837   0.947   1.566   9.235 -0.2668  0.7313  0.3605
 2213Sol     HW11838   0.962   1.556   9.329 -0.9562 -0.7902  0.3330
 2213Sol     HW11839   1.009   1.506   9.195 -2.2291 -1.1455  0.0091
 2213Sol     MW11840   0.954   1.559   9.240 -0.4931  0.5586 -1.0025
 2214Sol     OW11841   0.742   2.886   5.112  0.4359 -0.4086  0.0432
 2214Sol     HW11842   0.795   2.932   5.047  0.7195  2.0783  1.9741
 2214Sol     HW11843   0.654   2.924   5.102  0.4142 -0.2318  0.8912
 2214Sol     MW11844   0.739   2.893   5.105 -0.7154  0.2813 -0.4570
 2215Sol     OW11845   0.353   2.846   3.929 -1.0008 -0.2509 -0.0901
 2215Sol     HW11846   0.327   2.756   3.947 -0.6612 -0.1306  0.9909
 2215Sol     HW11847   0.447   2.841   3.912 -0.5691  0.1886  2.0422
 2215Sol     MW11848   0.359   2.838   3.929 -0.3601 -0.1842  0.1566
 2216Sol     OW11849   2.966   1.883   6.057 -0.2709 -0.3022 -0.1375
 2216Sol     HW11850   3.042   1.863   6.111 -0.2565  0.8246  0.2694
 2216Sol     HW11851   2.910   1.806   6.066  1.8429 -2.1901 -2.3196
 2216Sol     MW11852   2.968   1.874   6.063 -0.2348 -0.3758  0.7286
 2217Sol     OW11853   1.217   0.295   5.185 -0.6830 -0.2866  0.3740
 2217Sol     HW11854   1.238   0.358   5.254 -2.9277 -0.6879  1.4950
 2217Sol     HW11855   1.199   0.348   5.108  0.3543  0.2716  0.5197
 2217Sol     MW11856   1.217   0.306   5.185 -0.7025  1.0302 -0.6423
 2218Sol     OW11857   2.898   1.627   3.944 -0.4205 -0.0978 -0.7652
 2218Sol     HW11858   2.909   1.611   4.038  1.0846 -0.4575 -0.9926
 2218Sol     HW11859   2.977   1.589   3.904 -1.6538 -1.1180 -2.2980
 2218Sol     MW11860   2.906   1.622   3.949 -0.5695 -0.3390  0.4627
 2219Sol     OW11861   3.036   2.192   8.259  0.2076  0.2988  0.5828
 2219Sol     HW11862   2.980   2.115   8.264 -0.1756  0.4559 -1.0660
 2219Sol     HW11863   3.031   2.220   8.167  0.0632  2.4928  1.2312
 2219Sol     MW11864   3.031   2.188   8.251  0.4733  0.3530 -0.9385
 2220Sol     OW11865   1.700   2.126   4.217 -0.2086 -0.3720  0.0256
 2220Sol     HW11866   1.641   2.074   4.162 -0.8103 -0.4415  0.7384
 2220Sol     HW11867   1.667   2.114   4.306 -0.4945  1.4309  0.1771
 2220Sol     MW11868   1.692   2.120   4.220 -0.5038  0.2540  0.6638
 2221Sol     OW11869   0.553   0.915   4.794  0.1300  0.5117 -0.1853
 2221Sol     HW11870   0.572   1.006   4.770  1.0600  0.0691 -1.1355
 2221Sol     HW11871   0.521   0.875   4.713  0.9410 -0.3465 -0.0861
 2221Sol     MW11872   0.551   0.920   4.784 -0.2417  0.3599 -0.2049
 2222Sol     OW11873   0.373   1.990   5.560  0.0722  0.3158  0.2010
 2222Sol     HW11874   0.294   1.962   5.512  0.3841 -0.6496  0.2301
 2222Sol     HW11875   0.387   2.080   5.533 -1.4170  0.6989  0.6790
 2222Sol     MW11876   0.367   1.995   5.553 -0.2379 -0.0967 -0.2161
 2223Sol     OW11877   2.608   1.423   4.565 -0.4878 -0.2726 -0.5488
 2223Sol     HW11878   2.572   1.338   4.588  1.3554 -1.3095 -1.3997
 2223Sol     HW11879   2.664   1.447   4.639 -0.3863 -0.1710 -0.6570
 2223Sol     MW11880   2.610   1.418   4.574 -0.6958 -0.1922  0.1238
 2224Sol     OW11881   1.131   2.878   3.250 -0.1390  0.4389  0.2858
 2224Sol     HW11882   1.190   2.925   3.309  0.0223 -0.4353  0.8307
 2224Sol     HW11883   1.136   2.926   3.167 -0.0956  1.4690  0.8757
 2224Sol     MW11884   1.137   2.886   3.248 -0.6775 -0.3266 -0.6555
 2225Sol     OW11885   0.214   2.207   2.030  0.0383  0.1126  0.1273
 2225Sol     HW11886   0.207   2.187   1.937 -0.9028 -0.2975  0.2801
 2225Sol     HW11887   0.219   2.121   2.073 -1.2863  0.2606  0.5832
 2225Sol     MW11888   0.214   2.197   2.025  0.3323 -0.0726  0.1299
 2226Sol     OW11889   0.904   1.292   9.612  0.1004 -0.6085  0.2455
 2226Sol     HW11890   0.992   1.255   9.617  0.6703  0.8970  1.5782
 2226Sol     HW11891   0.867   1.280   9.699  0.4349  2.2611  0.8043
 2226Sol     MW11892   0.909   1.287   9.620  0.3066 -0.0022 -0.1959
 2227Sol     OW11893   3.077   2.650   6.474 -0.6007 -0.4755  0.3908
 2227Sol     HW11894   3.024   2.673   6.398  0.4009  0.7847  0.0596
 2227Sol     HW11895   3.167   2.659   6.444 -0.1963 -0.2866  1.6357
 2227Sol     MW11896   3.080   2.653   6.465 -0.3742  0.1262  0.9102
 2228Sol     OW11897   1.814   1.500   9.390 -0.3438 -0.0486  0.7108
 2228Sol     HW11898   1.739   1.483   9.333  0.3713  1.1348 -0.5859
 2228Sol     HW11899   1.797   1.586   9.427 -0.2297 -0.3143  1.3848
 2228Sol     MW11900   1.806   1.506   9.388 -0.2967  0.3349  0.4923
 2229Sol     OW11901   2.851   0.254   4.798  0.3797 -0.4514 -0.6267
 2229Sol     HW11902   2.815   0.233   4.884 -0.6004  1.6819 -0.4985
 2229Sol     HW11903   2.945   0.238   4.807  0.4654  0.9665  1.2445
 2229Sol     MW11904   2.856   0.251   4.806  0.8678 -0.1549 -0.0290
 2230Sol     OW11905   2.494   1.276   7.038 -0.0112  0.2614  0.2208
 2230Sol     HW11906   2.571   1.307   7.086 -0.0555 -0.3052  0.6659
 2230Sol     HW11907   2.422   1.328   7.074  0.5634  2.8868 -2.2455
 2230Sol     MW11908   2.495   1.284   7.046 -0.4125 -0.0846 -0.5935
 2231Sol     OW11909   2.244   2.366   2.892 -0.2622  0.2435  0.1317
 2231Sol     HW11910   2.278   2.360   2.803  0.5932  0.1792  0.4586
 2231Sol     HW11911   2.315   2.406   2.942 -0.1651 -1.1142  1.0993
 2231Sol     MW11912   2.253   2.369   2.889  1.0312 -0.6720 -0.4157
 2232Sol     OW11913   1.789   0.406   6.867  0.3638  0.2771  0.1355
 2232Sol     HW11914   1.840   0.431   6.790 -1.5860  1.7749 -0.7089
 2232Sol     HW11915   1.699   0.401   6.835 -0.4182  0.5935  2.2616
 2232Sol     MW11916   1.786   0.408   6.857 -0.3411 -0.4616 -0.7305
 2233Sol     OW11917   3.192   0.693   3.366  0.0446  0.2707  0.0092
 2233Sol     HW11918   3.207   0.614   3.315 -1.6002  0.8430 -1.3899
 2233Sol     HW11919   3.236   0.676   3.450  0.7505 -1.6110 -0.7173
 2233Sol     MW11920   3.198   0.684   3.369  0.0813  0.0664  0.3133
 2234Sol     OW11921   0.240   2.903   9.515  0.6192  0.6416  0.0224
 2234Sol     HW11922   0.172   2.970   9.509  1.5795  1.7932  1.8165
 2234Sol     HW11923   0.220   2.854   9.595  0.2957 -0.8407 -0.9307
 2234Sol     MW11924   0.232   2.904   9.521 -0.5072  0.3285  0.2355
 2235Sol     OW11925   0.107   0.647   6.737 -0.0013 -0.3657  0.3588
 2235Sol     HW11926   0.082   0.737   6.759 -0.4993 -0.5105  0.3935
 2235Sol     HW11927   0.198   0.640   6.766  0.3141  0.3876 -0.4349
 2235Sol     MW11928   0.113   0.655   6.742  0.9677 -0.7788 -0.2665
 2236Sol     OW11929   1.527   1.645   5.129  0.8672 -0.0293 -0.4165
 2236Sol     HW11930   1.521   1.741   5.127  1.6405  0.0879  1.4907
 2236Sol     HW11931   1.620   1.627   5.118  0.6201 -0.6003 -1.5895
 2236Sol     MW11932   1.535   1.652   5.128  0.1263 -0.3458 -0.0070
 2237Sol     OW11933   2.401   3.325   2.585 -0.9021 -0.2804  0.2468
 2237Sol     HW11934   2.399   3.234   2.615  1.7960 -0.9170 -1.3449
 2237Sol     HW11935   2.443   3.373   2.655  1.7010 -1.0641 -0.7250
 2237Sol     MW11936   2.404   3.321   2.594 -0.2795 -0.1103  0.2232
 2238Sol     OW11937   1.743   0.146   1.893 -0.1623 -0.7060  0.4667
 2238Sol     HW11938   1.797   0.157   1.971  0.2237 -1.2713  0.2849
 2238Sol     HW11939   1.668   0.095   1.923 -1.7569  2.0056  1.2226
 2238Sol     MW11940   1.741   0.142   1.903  0.3791 -1.3888 -0.3651
 2239Sol     OW11941   3.070   1.991   5.571  0.3467 -0.0625 -0.0484
 2239Sol     HW11942   2.985   2.027   5.596  0.2300 -0.7735  0.5977
 2239Sol     HW11943   3.088   1.925   5.638  1.6398  0.4465  0.1134
 2239Sol     MW11944   3.064   1.989   5.580 -0.3281  0.1733  0.8890
 2240Sol     OW11945   1.072   2.023   1.472 -0.1820  0.5250  0.4200
 2240Sol     HW11946   1.149   2.080   1.462  1.5868 -2.0250 -1.1847
 2240Sol     HW11947   1.002   2.068   1.425  1.4421  0.8862 -1.6890
 2240Sol     MW11948   1.073   2.033   1.467 -0.4467 -0.0147 -0.0727
 2241Sol     OW11949   1.027   1.898   3.754  0.5043  0.2452 -0.0514
 2241Sol     HW11950   1.118   1.929   3.750  0.7902 -0.4721  0.7479
 2241Sol     HW11951   0.974   1.977   3.745  1.2138  0.7723  0.3836
 2241Sol     MW11952   1.031   1.908   3.753 -0.7213 -0.1360  0.3660
 2242Sol     OW11953   0.193   1.032   4.413 -0.1176  0.0891  0.5852
 2242Sol     HW11954   0.176   0.939   4.398  0.3041  0.1264 -0.1159
 2242Sol     HW11955   0.170   1.045   4.505 -0.3694 -0.6619  0.6362
 2242Sol     MW11956   0.189   1.025   4.420  0.1623 -0.3577 -0.4544
 2243Sol     OW11957   1.970   2.877   2.184 -0.5778 -0.2850  0.7159
 2243Sol     HW11958   2.006   2.790   2.203 -1.5794 -1.2250 -1.4681
 2243Sol     HW11959   2.038   2.938   2.212  1.2636 -1.8924 -0.1295
 2243Sol     MW11960   1.979   2.875   2.188 -0.5363  0.0651  0.3201
 2244Sol     OW11961   0.262   2.784   6.271  0.2273  0.5665 -1.0517
 2244Sol     HW11962   0.249   2.833   6.189  1.2568  2.4390 -0.1087
 2244Sol     HW11963   0.333   2.723   6.251 -0.0434  0.4692 -1.7670
 2244Sol     MW11964   0.267   2.783   6.262 -0.3258 -0.8442  0.1167
 2245Sol     OW11965   1.103   0.220   7.706 -0.2699  0.7624 -0.2057
 2245Sol     HW11966   1.054   0.295   7.673  0.8668  0.7437 -1.9651
 2245Sol     HW11967   1.189   0.226   7.664  0.0570 -1.1728  0.1283
 2245Sol     MW11968   1.107   0.227   7.700  0.1064  0.0977 -0.3118
 2246Sol     OW11969   0.506   0.948   2.199  0.2988 -0.3413 -0.1056
 2246Sol     HW11970   0.588   0.901   2.186  0.0102 -0.6032 -0.9822
 2246Sol     HW11971   0.462   0.944   2.115 -0.4397  0.1466  0.2504
 2246Sol     MW11972   0.510   0.944   2.190  0.0013  0.3837  0.1485
 2247Sol     OW11973   1.040   0.551   9.658 -0.0853  0.2039  0.1110
 2247Sol     HW11974   1.045   0.456   9.650 -0.5117 -0.0099  2.1394
 2247Sol     HW11975   0.965   0.576   9.604  0.3720 -0.5375 -0.8753
 2247Sol     MW11976   1.033   0.545   9.652 -0.0627 -0.6101  0.7092
 2248Sol     OW11977   2.460   0.308   5.467  0.6254 -0.1527 -0.6821
 2248Sol     HW11978   2.476   0.395   5.502  1.5639 -0.4950 -0.2388
 2248Sol     HW11979   2.545   0.280   5.433  0.1398 -0.5660 -1.5594
 2248Sol     MW11980   2.469   0.313   5.467  0.2599 -0.4800  0.6077
 2249Sol     OW11981   2.694   0.173  10.016 -0.4592  0.0575 -0.4844
 2249Sol     HW11982   2.779   0.132  10.000 -0.5475 -0.4934  0.4023
 2249Sol     HW11983   2.655   0.184   9.929  1.3067  2.0720 -1.0578
 2249Sol     MW11984   2.698   0.170  10.007 -0.2580  0.0821  0.3099
 2250Sol     OW11985   1.487   2.378   3.943  0.3058 -0.7599 -0.6854
 2250Sol     HW11986   1.488   2.395   4.037 -0.2489  1.1437 -1.0012
 2250Sol     HW11987   1.469   2.464   3.903  1.6373 -1.3166 -2.5780
 2250Sol     MW11988   1.486   2.388   3.948 -0.1665 -0.1141 -0.3944
 2251Sol     OW11989   0.685   0.825   2.768  0.7093  0.3628  0.0401
 2251Sol     HW11990   0.757   0.807   2.829  0.7238  2.5577  0.7008
 2251Sol     HW11991   0.655   0.913   2.791 -3.1774 -1.0486  0.7266
 2251Sol     MW11992   0.689   0.831   2.775  0.6314 -0.0500  0.5453
 2252Sol     OW11993   2.382   0.100   3.858  0.0277 -0.0473  0.5833
 2252Sol     HW11994   2.331   0.080   3.936 -0.1666 -0.0071  0.4668
 2252Sol     HW11995   2.397   0.195   3.863  0.5759 -0.1478  0.9098
 2252Sol     MW11996   2.379   0.107   3.866  0.7045  0.8823  0.2095
 2253Sol     OW11997   0.562   0.379   3.542 -0.5394  0.1976 -0.3113
 2253Sol     HW11998   0.582   0.458   3.592 -0.9618  0.9839 -1.3395
 2253Sol     HW11999   0.496   0.333   3.594 -1.8603  1.6059 -0.6966
 2253Sol     MW12000   0.558   0.382   3.551  0.2089  0.0502 -0.1115
 2254Sol     OW12001   1.660   0.222   5.014  0.5033 -0.1506  0.1679
 2254Sol     HW12002   1.740   0.169   5.004 -0.3908 -1.4623 -0.1946
 2254Sol     HW12003   1.644   0.256   4.927  0.5662 -0.0415  0.1994
 2254Sol     MW12004   1.666   0.220   5.005  0.1981 -0.2916 -0.5499
 2255Sol     OW12005   2.727   3.412   1.562  0.1205 -0.6964  0.3828
 2255Sol     HW12006   2.664   3.411   1.634  0.4920 -1.0949  0.7055
 2255Sol     HW12007   2.678   3.445   1.487 -0.8891 -2.4203  0.2587
 2255Sol     MW12008   2.717   3.415   1.562  0.2542 -0.2330 -0.4634
 2256Sol     OW12009   0.610   3.021   7.656 -0.7369 -0.1581  0.1619
 2256Sol     HW12010   0.651   3.023   7.569  0.3369  0.4107  0.6617
 2256Sol     HW12011   0.682   2.996   7.715 -1.2824  0.1700  0.9698
 2256Sol     MW12012   0.620   3.019   7.654  0.4673 -0.3239 -0.4383
 2257Sol     OW12013   1.902   2.766   3.294  0.2399 -0.1472  0.0075
 2257Sol     HW12014   1.881   2.849   3.252  2.2870  1.2710  1.6745
 2257Sol     HW12015   1.989   2.744   3.262  1.4408  0.4816  2.7249
 2257Sol     MW12016   1.908   2.771   3.288 -0.7132  0.1216 -0.8674
 2258Sol     OW12017   1.444   3.397   4.111  0.3381  0.2860  0.1240
 2258Sol     HW12018   1.510   3.467   4.111 -0.3997  0.9984 -0.0098
 2258Sol     HW12019   1.423   3.384   4.203  0.4887  0.2217  0.1500
 2258Sol     MW12020   1.448   3.402   4.119  0.7959  0.0400 -0.8928
 2259Sol     OW12021   2.816   2.549   2.817 -0.5047  0.1898  0.0050
 2259Sol     HW12022   2.880   2.506   2.760 -0.2301  0.7869 -0.1463
 2259Sol     HW12023   2.774   2.478   2.866  1.3531 -0.0793  1.2360
 2259Sol     MW12024   2.818   2.539   2.816 -0.3068 -0.1378  0.2615
 2260Sol     OW12025   0.373   1.054   7.333 -0.5655  0.0344  0.6114
 2260Sol     HW12026   0.424   1.002   7.395 -0.8437 -0.2914  0.5678
 2260Sol     HW12027   0.326   1.117   7.388  1.0484  1.3543  0.5335
 2260Sol     MW12028   0.373   1.055   7.343 -0.3987  0.1328 -0.1434
 2261Sol     OW12029   0.914   1.660   4.847 -0.0682  0.6060 -0.0091
 2261Sol     HW12030   1.009   1.677   4.845 -0.1277  0.8460 -0.9337
 2261Sol     HW12031   0.875   1.743   4.821 -0.5424  0.5505  0.5342
 2261Sol     MW12032   0.919   1.669   4.844  0.3057  0.0943 -1.1864
 2262Sol     OW12033   1.206   1.703   4.829  0.0716  0.2163 -0.5899
 2262Sol     HW12034   1.211   1.769   4.899 -2.9401  2.3334 -2.2320
 2262Sol     HW12035   1.285   1.716   4.778  0.1579  1.6922 -0.1153
 2262Sol     MW12036   1.213   1.710   4.831  0.8319  0.1674 -0.3294
 2263Sol     OW12037   1.304   2.665   8.486 -0.0147 -0.1094  0.8512
 2263Sol     HW12038   1.323   2.678   8.393 -0.4846  1.1559  0.9292
 2263Sol     HW12039   1.386   2.633   8.524  0.6296  0.8697  0.3038
 2263Sol     MW12040   1.313   2.663   8.481  0.0231 -0.8710  0.1174
 2264Sol     OW12041   2.035   0.879   2.207 -0.0442 -0.0707  0.1876
 2264Sol     HW12042   1.960   0.837   2.164  0.2097  0.5619 -0.8842
 2264Sol     HW12043   2.012   0.972   2.209  1.4433  0.3584 -1.6789
 2264Sol     MW12044   2.026   0.884   2.204  0.7262  0.4835 -0.0972
 2265Sol     OW12045   2.577   1.622   9.747 -0.2321 -0.1777  0.1600
 2265Sol     HW12046   2.510   1.690   9.743  2.4752  2.5442 -0.2641
 2265Sol     HW12047   2.615   1.620   9.659  1.7823 -0.0582  0.9984
 2265Sol     MW12048   2.574   1.628   9.739  1.1308 -1.0075 -0.0814
 2266Sol     OW12049   2.476   0.925   8.755 -0.1150 -0.0984 -0.0020
 2266Sol     HW12050   2.570   0.908   8.758 -0.1651 -0.7679 -1.8222
 2266Sol     HW12051   2.440   0.872   8.827  0.9009  0.3279  0.8381
 2266Sol     MW12052   2.481   0.918   8.762  0.3219 -0.3765 -0.4304
 2267Sol     OW12053   2.852   0.534   6.814  0.5279 -0.0102 -0.2561
 2267Sol     HW12054   2.769   0.523   6.861  0.2885 -0.2371 -0.7377
 2267Sol     HW12055   2.892   0.448   6.815 -0.5274 -0.5456 -2.4602
 2267Sol     MW12056   2.848   0.526   6.819 -0.7236  0.0329 -0.5412
 2268Sol     OW12057   2.640   0.840   2.368  0.3643  0.0515  0.4045
 2268Sol     HW12058   2.571   0.897   2.335  1.0435  1.3332  1.1662
 2268Sol     HW12059   2.701   0.831   2.294 -0.7524 -1.3311 -0.3680
 2268Sol     MW12060   2.640   0.844   2.358  0.9127 -0.1303 -0.2445
 2269Sol     OW12061   0.219   0.327   2.589 -0.1640 -0.1872 -0.2915
 2269Sol     HW12062   0.300   0.378   2.584 -0.6070  0.4690 -0.9870
 2269Sol     HW12063   0.233   0.266   2.662 -0.4011  2.3267  1.9548
 2269Sol     MW12064   0.227   0.326   2.595 -0.7166 -0.2280 -0.2385
 2270Sol     OW12065   1.553   2.017   2.377  0.4723 -0.3789 -0.1247
 2270Sol     HW12066   1.510   2.071   2.310  0.6388 -1.0174 -0.7508
 2270Sol     HW12067   1.488   1.951   2.399  1.1198 -1.3375 -1.0592
 2270Sol     MW12068   1.543   2.016   2.373 -0.7924 -0.2461 -0.1140
 2271Sol     OW12069   0.781   0.165   9.631 -0.4340  0.0118  0.1429
 2271Sol     HW12070   0.784   0.183   9.725 -3.0406 -2.4347  0.7591
 2271Sol     HW12071   0.694   0.195   9.603  0.1336  0.2854 -1.3892
 2271Sol     MW12072   0.773   0.169   9.637  0.3745  0.4823 -0.3201
 2272Sol     OW12073   1.670   0.031   8.168 -0.0316 -0.5181  0.1409
 2272Sol     HW12074   1.734   0.050   8.100 -0.2862  0.4768  0.1644
 2272Sol     HW12075   1.710   0.067   8.248 -0.9622  0.8402  0.0148
 2272Sol     MW12076   1.679   0.036   8.169  0.4223  0.3333 -0.2755
 2273Sol     OW12077   2.190   2.869   8.473  0.3900 -0.4490  0.4118
 2273Sol     HW12078   2.245   2.827   8.539  1.3107 -0.7695 -0.5467
 2273Sol     HW12079   2.243   2.869   8.394 -0.6067  0.1666 -0.2721
 2273Sol     MW12080   2.200   2.866   8.472  0.1649 -0.4035  0.4810
 2274Sol     OW12081   0.694   1.265   1.450 -0.2651  0.1600 -0.4327
 2274Sol     HW12082   0.748   1.283   1.527  1.4042 -0.3248 -1.4656
 2274Sol     HW12083   0.705   1.342   1.395 -1.0562  0.2873 -0.4136
 2274Sol     MW12084   0.700   1.273   1.452 -0.5644  0.8600  0.4351
 2275Sol     OW12085   3.187   3.025   2.049 -0.3150  0.3390  0.2912
 2275Sol     HW12086   3.235   2.984   1.977 -2.0196 -0.1665 -0.5817
 2275Sol     HW12087   3.225   3.113   2.057  0.8236 -0.0931 -0.2947
 2275Sol     MW12088   3.195   3.029   2.044  0.1592  0.4694  0.1080
 2276Sol     OW12089   0.651   2.528   4.100  0.3064 -0.0708 -0.1180
 2276Sol     HW12090   0.679   2.614   4.069 -1.2850 -0.2528 -2.2428
 2276Sol     HW12091   0.625   2.541   4.191 -0.1152  1.7594 -0.4904
 2276Sol     MW12092   0.651   2.537   4.105 -0.1054 -0.2951 -0.1496
 2277Sol     OW12093   1.653   0.213   8.943 -0.0958 -0.2775 -0.2291
 2277Sol     HW12094   1.627   0.123   8.962  0.4879 -0.0094  1.9008
 2277Sol     HW12095   1.715   0.205   8.870  1.5843 -1.8014  1.3189
 2277Sol     MW12096   1.656   0.204   8.938  0.2249 -0.2245  0.4400
 2278Sol     OW12097   0.793   1.151   7.346 -0.0490  0.3021  0.3024
 2278Sol     HW12098   0.796   1.074   7.289  0.7136 -1.2227  2.3269
 2278Sol     HW12099   0.702   1.180   7.342 -0.4099 -0.8467 -0.3003
 2278Sol     MW12100   0.785   1.146   7.341  0.1123 -0.3509 -0.3610
 2279Sol     OW12101   1.475   2.596   4.742 -0.4452 -0.8120  0.2710
 2279Sol     HW12102   1.441   2.635   4.662  0.5307  1.1814  0.8036
 2279Sol     HW12103   1.427   2.639   4.813  0.4557 -0.7292  0.8503
 2279Sol     MW12104   1.468   2.603   4.741 -0.0309 -0.3500 -0.2856
 2280Sol     OW12105   2.913   1.472   5.458 -0.5560  0.1028 -0.5593
 2280Sol     HW12106   2.868   1.494   5.376  0.5330  1.1963 -0.8707
 2280Sol     HW12107   3.001   1.508   5.448  0.0861 -1.1373  0.4600
 2280Sol     MW12108   2.917   1.477   5.450 -0.5051 -0.0551 -0.3055
 2281Sol     OW12109   3.098   3.019   8.861 -0.0550  0.5160 -0.0573
 2281Sol     HW12110   3.047   2.963   8.802  0.8252 -0.3661  0.0048
 2281Sol     HW12111   3.083   3.108   8.828 -0.7437  0.1672 -0.7165
 2281Sol     MW12112   3.092   3.022   8.852 -0.2219 -0.2568  0.3766
 2282Sol     OW12113   2.354   1.866   7.637  0.5735 -0.4676 -0.1628
 2282Sol     HW12114   2.274   1.891   7.682  2.0783  2.7950  0.8714
 2282Sol     HW12115   2.327   1.849   7.546 -1.1987  1.1637  0.0413
 2282Sol     MW12116   2.344   1.867   7.633  0.4463 -0.2921 -0.1414
 2283Sol     OW12117   0.057   3.232   4.715  0.1138  0.1391  0.8526
 2283Sol     HW12118  -0.029   3.269   4.738 -0.1939 -0.9358  1.4801
 2283Sol     HW12119   0.043   3.188   4.631  0.3214  0.8899  0.4217
 2283Sol     MW12120   0.048   3.231   4.710  0.3132  0.3089 -0.0756
 2284Sol     OW12121   0.064   1.061   7.099  0.7267  0.4588  0.6290
 2284Sol     HW12122   0.113   1.103   7.029  0.9027  0.0167  0.4907
 2284Sol     HW12123   0.118   1.074   7.177  0.2738  1.4229  0.7849
 2284Sol     MW12124   0.073   1.066   7.100  0.9271  0.0257  0.0096
 2285Sol     OW12125   1.622   1.304   1.723 -0.7784 -0.2555  0.1957
 2285Sol     HW12126   1.677   1.380   1.741 -0.2922 -0.7223  0.7279
 2285Sol     HW12127   1.600   1.312   1.630  0.5178 -0.2534 -0.1348
 2285Sol     MW12128   1.625   1.311   1.716 -0.1881  0.4802  0.2590
 2286Sol     OW12129   1.870   2.726   4.213 -0.0750  0.2334  0.2477
 2286Sol     HW12130   1.783   2.701   4.182  0.7522 -1.9748 -0.4002
 2286Sol     HW12131   1.888   2.809   4.168 -1.2666  0.0058 -0.6926
 2286Sol     MW12132   1.864   2.731   4.206  0.6965  0.5601  0.1340
 2287Sol     OW12133   3.033   3.008   9.315 -0.5477  0.0346  0.4368
 2287Sol     HW12134   3.113   2.962   9.289 -0.2212  0.7472  0.1704
 2287Sol     HW12135   2.967   2.940   9.318 -0.4032 -0.2186 -1.4232
 2287Sol     MW12136   3.035   2.998   9.313 -0.2608 -1.1214  0.3522
 2288Sol     OW12137   0.903   0.684   3.691 -0.3925  0.1149  0.1509
 2288Sol     HW12138   0.925   0.774   3.716 -2.2020  0.5842  0.0893
 2288Sol     HW12139   0.950   0.670   3.609 -1.8482  1.7848 -1.0049
 2288Sol     MW12140   0.910   0.691   3.686  0.1443 -0.2661 -0.1188
 2289Sol     OW12141   1.897   0.024   4.490  0.2071  0.1752  0.0881
 2289Sol     HW12142   1.923  -0.053   4.541 -0.6174 -0.2442 -0.1222
 2289Sol     HW12143   1.946   0.016   4.409 -1.4347 -1.2393 -0.7950
 2289Sol     MW12144   1.904   0.016   4.488  0.3628  0.1283 -0.6914
 2290Sol     OW12145   2.874   1.005   4.268 -0.0160 -0.5561 -0.3752
 2290Sol     HW12146   2.936   1.061   4.315 -0.1336 -0.8463  0.1319
 2290Sol     HW12147   2.927   0.965   4.198  0.0504  0.2229 -0.7742
 2290Sol     MW12148   2.885   1.006   4.266  0.3830  0.2985  0.3310
 2291Sol     OW12149   1.093   3.212   5.238  0.2350 -0.2446  0.0785
 2291Sol     HW12150   1.028   3.146   5.265  0.9926 -0.5575  1.1912
 2291Sol     HW12151   1.075   3.287   5.294 -0.1679  0.2374 -0.6980
 2291Sol     MW12152   1.086   3.213   5.246  0.0286 -0.2691  0.1586
 2292Sol     OW12153   2.908   0.591   7.436  0.2863  0.6570  0.0803
 2292Sol     HW12154   2.935   0.570   7.526 -0.3194 -0.1581  0.0778
 2292Sol     HW12155   2.865   0.511   7.405 -0.2742  1.2325 -0.6343
 2292Sol     MW12156   2.907   0.582   7.442 -0.1551 -0.1628 -0.4527
 2293Sol     OW12157   2.293   1.114   3.264  0.1238  0.0104  0.0143
 2293Sol     HW12158   2.341   1.106   3.346  1.5933 -0.9421 -0.9165
 2293Sol     HW12159   2.216   1.058   3.275  0.6599 -0.6321  0.4845
 2293Sol     MW12160   2.290   1.108   3.272 -0.4879  0.0372  0.1697
 2294Sol     OW12161   0.373   3.066   7.819 -0.7132  0.3221  0.3096
 2294Sol     HW12162   0.412   3.017   7.891 -0.1029  1.9043  1.0930
 2294Sol     HW12163   0.445   3.078   7.757 -1.0100 -0.2709 -0.1523
 2294Sol     MW12164   0.383   3.063   7.820  0.3570  0.0088 -0.0552
 2295Sol     OW12165   1.854   0.017   5.597 -0.0106  0.1595 -0.6581
 2295Sol     HW12166   1.817   0.022   5.508 -0.1387 -0.7290 -0.6603
 2295Sol     HW12167   1.883  -0.074   5.606 -0.9385 -0.0379  0.5724
 2295Sol     MW12168   1.853   0.009   5.590 -0.3878 -0.0835 -0.3836
 2296Sol     OW12169   2.746   2.011   6.793  0.2240  0.4475  0.0994
 2296Sol     HW12170   2.793   2.089   6.764 -0.3917  0.9688  0.4859
 2296Sol     HW12171   2.812   1.942   6.793  0.9406  1.1227  0.4235
 2296Sol     MW12172   2.756   2.012   6.790 -0.8557  0.2596 -0.0756
 2297Sol     OW12173   0.671   1.275   1.900 -0.3113  0.0833  0.1625
 2297Sol     HW12174   0.610   1.334   1.946 -1.3529  0.3741 -1.5537
 2297Sol     HW12175   0.701   1.214   1.968 -2.6853 -0.1980  1.0042
 2297Sol     MW12176   0.668   1.275   1.910 -0.1168 -0.6129  0.1729
 2298Sol     OW12177   1.826   0.466   2.240 -0.0956  0.1515 -0.1519
 2298Sol     HW12178   1.833   0.504   2.328 -0.3812  1.1392 -0.5428
 2298Sol     HW12179   1.891   0.512   2.188  0.9453 -1.3185 -0.1725
 2298Sol     MW12180   1.832   0.474   2.243  0.3245 -0.5541  0.8753
 2299Sol     OW12181   0.565   1.757   5.492 -0.2035 -0.3912 -0.4763
 2299Sol     HW12182   0.534   1.809   5.566 -1.6512 -1.4814 -0.2783
 2299Sol     HW12183   0.604   1.679   5.531  0.9330  0.0104 -0.8026
 2299Sol     MW12184   0.565   1.754   5.502  0.4729  1.1638 -0.1383
 2300Sol     OW12185   1.795   2.159   2.176 -0.5145 -0.2188 -0.1185
 2300Sol     HW12186   1.765   2.182   2.264 -0.7977  0.4866 -0.4031
 2300Sol     HW12187   1.768   2.232   2.121  0.9479  0.0302 -0.5351
 2300Sol     MW12188   1.790   2.167   2.179  0.2599  0.0527  0.6623
 2301Sol     OW12189   2.983   0.402   1.789  0.0339  0.1828  0.7693
 2301Sol     HW12190   2.980   0.476   1.729  0.6875 -0.0703  0.4113
 2301Sol     HW12191   2.922   0.338   1.752  0.7026 -0.1181  0.1656
 2301Sol     MW12192   2.977   0.403   1.780 -0.7539 -0.3903 -0.6045
 2302Sol     OW12193   1.101   0.653   6.526  0.1307  0.0198 -0.7105
 2302Sol     HW12194   1.168   0.607   6.475 -0.0512  1.7052 -2.5010
 2302Sol     HW12195   1.148   0.724   6.570 -0.1209 -0.0604 -0.3061
 2302Sol     MW12196   1.112   0.655   6.526 -0.7930 -0.0807 -0.0010
 2303Sol     OW12197   1.008   0.916   5.011  0.1597  0.6754 -0.5761
 2303Sol     HW12198   1.041   0.892   4.925  0.1100  1.3734 -0.7868
 2303Sol     HW12199   0.932   0.859   5.024  1.6198 -1.2001  0.0639
 2303Sol     MW12200   1.004   0.908   5.005  0.2404 -0.7403  0.5612
 2304Sol     OW12201   0.530   2.623   3.180  0.3111  0.2731 -0.6565
 2304Sol     HW12202   0.574   2.542   3.203 -1.6293 -1.4390 -2.7020
 2304Sol     HW12203   0.599   2.681   3.148  1.4855 -1.2112 -0.8371
 2304Sol     MW12204   0.540   2.621   3.179  0.4667  0.4297  0.0335
 2305Sol     OW12205   2.642   0.901   5.370 -0.0972  0.1015 -0.4931
 2305Sol     HW12206   2.692   0.833   5.414  0.6753  0.9853  0.0140
 2305Sol     HW12207   2.574   0.926   5.433  0.2694  0.5343 -0.2696
 2305Sol     MW12208   2.640   0.897   5.379  0.3626 -0.5456  0.1328
 2306Sol     OW12209   1.926   3.299   8.544  0.4012  1.1354 -0.2748
 2306Sol     HW12210   1.834   3.271   8.540  0.4263  0.9836  0.2414
 2306Sol     HW12211   1.976   3.218   8.551  0.7171  1.0802 -2.5932
 2306Sol     MW12212   1.922   3.290   8.544  0.5185  0.0504  0.1237
 2307Sol     OW12213   2.043   0.457   5.707 -0.7207  0.6737 -0.5826
 2307Sol     HW12214   2.049   0.362   5.701  0.8770  0.5298  2.3164
 2307Sol     HW12215   1.952   0.477   5.688 -2.0514 -1.8229  2.8094
 2307Sol     MW12216   2.036   0.450   5.704 -0.4553 -0.0767 -0.0994
 2308Sol     OW12217   2.943   1.289   8.386  0.4255  0.1909  0.3693
 2308Sol     HW12218   2.989   1.291   8.302  0.4166 -0.7584  0.3337
 2308Sol     HW12219   2.985   1.219   8.435 -0.6840 -0.3930  0.5038
 2308Sol     MW12220   2.951   1.283   8.383 -0.5349  0.2598 -0.0808
 2309Sol     OW12221   0.195   1.526   4.236 -0.2741  0.3900 -0.2075
 2309Sol     HW12222   0.229   1.584   4.167 -1.9532  1.1183 -0.4358
 2309Sol     HW12223   0.270   1.472   4.260  0.8090  1.3418 -1.3594
 2309Sol     MW12224   0.205   1.526   4.232  0.5763 -0.5163  0.2007
 2310Sol     OW12225   0.912   2.482   3.421 -0.0360 -0.4233  0.4382
 2310Sol     HW12226   0.944   2.571   3.406  1.1330 -0.5065  2.2426
 2310Sol     HW12227   0.833   2.493   3.473  1.1093 -0.4666  2.2498
 2310Sol     MW12228   0.908   2.491   3.425 -0.4738  0.4873 -0.0510
 2311Sol     OW12229   1.760   0.180   9.578  0.5170  0.1062 -0.3581
 2311Sol     HW12230   1.747   0.097   9.532  1.7523 -0.0499 -0.4384
 2311Sol     HW12231   1.852   0.202   9.563  0.7327  0.4672  1.3425
 2311Sol     MW12232   1.767   0.174   9.573  0.3380  0.9153 -0.0730
 2312Sol     OW12233   3.250   3.436   7.464  0.1374 -0.3611  0.3480
 2312Sol     HW12234   3.314   3.507   7.466  1.2362 -1.2037 -2.1210
 2312Sol     HW12235   3.195   3.450   7.541  0.5542  2.9345  0.0890
 2312Sol     MW12236   3.251   3.443   7.471 -0.3154 -0.2996 -0.1098
 2313Sol     OW12237   1.267   3.284   7.295 -0.3523  0.2032  0.2517
 2313Sol     HW12238   1.351   3.330   7.296  0.1426 -0.6829  0.4383
 2313Sol     HW12239   1.212   3.334   7.236  0.9589 -0.3309 -1.4434
 2313Sol     MW12240   1.269   3.293   7.290 -0.2798 -0.0394  0.0986
 2314Sol     OW12241   2.986   1.105   5.891 -0.5019  0.0928 -0.2363
 2314Sol     HW12242   2.982   1.187   5.841 -0.1820  0.3814  0.2010
 2314Sol     HW12243   3.079   1.086   5.899 -0.5153  0.4801  0.9325
 2314Sol     MW12244   2.994   1.111   5.887 -0.6103  0.2979 -0.2898
 2315Sol     OW12245   1.038   2.249   8.432  0.8789 -0.5537 -0.0365
 2315Sol     HW12246   1.001   2.216   8.514  2.0625 -0.6479  0.4677
 2315Sol     HW12247   1.035   2.174   8.372 -0.2966 -0.3902 -0.1958
 2315Sol     MW12248   1.034   2.240   8.434 -0.6774  0.3255  0.3885
 2316Sol     OW12249   2.192   1.298   4.935 -0.0824  0.1135 -0.7380
 2316Sol     HW12250   2.125   1.251   4.985 -0.5430  1.7356  0.2011
 2316Sol     HW12251   2.239   1.229   4.888  0.2487 -1.4436  1.7638
 2316Sol     MW12252   2.190   1.287   4.935 -0.0096  0.3649  0.9425
 2317Sol     OW12253   0.490   1.513   8.027 -0.1516  0.3307 -0.4851
 2317Sol     HW12254   0.538   1.441   7.988  1.9046  1.6627 -0.4724
 2317Sol     HW12255   0.411   1.521   7.973  2.4936  1.9641 -4.3859
 2317Sol     MW12256   0.487   1.508   8.019 -1.0108  0.1738  0.5727
 2318Sol     OW12257   0.106   3.106   7.960 -0.2628  0.7084  0.5735
 2318Sol     HW12258   0.143   3.125   7.873 -1.0013  1.0426  0.3224
 2318Sol     HW12259   0.029   3.163   7.966 -0.0087  0.9459  1.5992
 2318Sol     MW12260   0.102   3.113   7.952 -0.2412  0.5660  0.4116
 2319Sol     OW12261   0.703   0.778   6.851 -0.4667 -0.3365 -0.8408
 2319Sol     HW12262   0.610   0.795   6.838 -1.1285 -2.9980  0.1636
 2319Sol     HW12263   0.737   0.758   6.764 -0.9703 -0.0510 -1.1046
 2319Sol     MW12264   0.698   0.778   6.842 -0.2167 -0.1768 -0.3319
 2320Sol     OW12265   1.281   1.105   1.955  0.2144 -0.0902 -0.1151
 2320Sol     HW12266   1.277   1.018   1.916 -2.2773 -0.1065  0.0694
 2320Sol     HW12267   1.288   1.165   1.880 -3.7447 -0.1660 -0.6709
 2320Sol     MW12268   1.281   1.103   1.945 -1.0320 -0.4184  0.1921
 2321Sol     OW12269   0.982   0.956   3.705 -0.4038  0.2840 -0.0911
 2321Sol     HW12270   0.949   1.011   3.634  1.3222  0.6125 -0.6755
 2321Sol     HW12271   1.076   0.976   3.708 -0.3679 -0.1272  1.9354
 2321Sol     MW12272   0.988   0.963   3.699  0.0119 -0.5320 -0.6148
 2322Sol     OW12273   0.330   3.189   6.071  0.0610 -0.4137 -0.3279
 2322Sol     HW12274   0.273   3.121   6.036 -0.2987 -0.0938 -0.3595
 2322Sol     HW12275   0.387   3.143   6.134 -1.3769 -0.4229  0.9928
 2322Sol     MW12276   0.330   3.179   6.074  0.4210  0.1448  0.1480
 2323Sol     OW12277   2.776   3.218   9.931 -0.3606  0.0059  0.5252
 2323Sol     HW12278   2.819   3.303   9.943  0.5574 -0.4815  0.7071
 2323Sol     HW12279   2.848   3.155   9.929 -1.1278 -0.9586  2.0516
 2323Sol     MW12280   2.786   3.220   9.932  0.0432 -0.0860 -0.2094
 2324Sol     OW12281   2.372   0.670   9.370 -0.1132 -0.2783  0.1096
 2324Sol     HW12282   2.412   0.600   9.422 -1.9427 -0.8872  0.7525
 2324Sol     HW12283   2.413   0.751   9.403  2.0025 -1.0179 -0.6337
 2324Sol     MW12284   2.379   0.671   9.378 -0.0929 -0.0067 -0.0666
 2325Sol     OW12285   1.213   2.068   3.019 -0.0504  0.1438  0.1811
 2325Sol     HW12286   1.125   2.102   3.003  0.1690 -0.1706 -1.8184
 2325Sol     HW12287   1.271   2.143   3.008  0.1480 -0.1791 -1.0446
 2325Sol     MW12288   1.210   2.077   3.017  0.3881  0.1945 -0.0008
 2326Sol     OW12289   1.671   2.732   5.890  0.4170 -0.2977 -0.3883
 2326Sol     HW12290   1.736   2.794   5.925  0.5553 -1.0623  0.7171
 2326Sol     HW12291   1.604   2.788   5.849  0.3275  0.6040  0.9684
 2326Sol     MW12292   1.671   2.743   5.889  0.0476  0.3867 -0.1685
 2327Sol     OW12293   2.191   2.947   6.217 -0.8306 -0.3211  0.0488
 2327Sol     HW12294   2.284   2.951   6.241 -1.2365  1.2191  1.4767
 2327Sol     HW12295   2.175   2.855   6.199  0.1527 -1.2148  3.3042
 2327Sol     MW12296   2.198   2.939   6.218 -0.0528  0.0490  0.1172
 2328Sol     OW12297   1.710   0.945   6.755  0.0408 -0.1988  0.7438
 2328Sol     HW12298   1.664   0.867   6.723 -1.7335  0.6388  1.1793
 2328Sol     HW12299   1.716   1.002   6.678 -1.6767  0.6244  1.2006
 2328Sol     MW12300   1.706   0.943   6.745  0.1468 -0.6111  0.9818
 2329Sol     OW12301   0.848   1.707   3.594  0.0009  0.6641 -0.3093
 2329Sol     HW12302   0.834   1.632   3.651  1.4882  0.9345  0.4387
 2329Sol     HW12303   0.904   1.766   3.645  1.8562  0.6435 -2.2489
 2329Sol     MW12304   0.852   1.706   3.604 -0.5855  1.1174  0.1075
 2330Sol     OW12305   2.942   0.179   2.901 -0.5134  0.1423 -0.2738
 2330Sol     HW12306   2.885   0.255   2.894  0.2142  0.6876 -0.3884
 2330Sol     HW12307   3.014   0.197   2.839 -0.5926 -0.8625 -0.6782
 2330Sol     MW12308   2.944   0.187   2.895 -0.2562 -0.1090  0.2152
 2331Sol     OW12309   2.350   2.603   4.208 -0.4459  0.0873  0.7668
 2331Sol     HW12310   2.388   2.516   4.221  0.8322  0.7378  1.4346
 2331Sol     HW12311   2.267   2.586   4.163  1.1125 -1.2800 -1.7205
 2331Sol     MW12312   2.346   2.594   4.205 -0.4378  0.7937  0.4032
 2332Sol     OW12313   0.157   1.255   5.708 -0.3950  0.8753 -0.2588
 2332Sol     HW12314   0.153   1.249   5.613  0.8217  0.4442 -0.2917
 2332Sol     HW12315   0.247   1.232   5.730 -1.3226 -1.5695  1.2125
 2332Sol     MW12316   0.165   1.253   5.701 -0.5851 -0.4862  0.4456
 2333Sol     OW12317   1.597   0.415   3.553  0.1623 -0.3390 -0.1065
 2333Sol     HW12318   1.574   0.490   3.607  0.1284 -0.3131 -0.1568
 2333Sol     HW12319   1.527   0.351   3.567 -0.5505  0.1950 -1.1486
 2333Sol     MW12320   1.589   0.416   3.559 -0.3003 -0.4506  1.1978
 2334Sol     OW12321   1.925   0.533   7.536 -0.1689  0.0759  0.0467
 2334Sol     HW12322   1.893   0.448   7.508 -0.3178  0.2627 -0.3504
 2334Sol     HW12323   2.001   0.550   7.481  1.6234 -1.0967  2.0691
 2334Sol     MW12324   1.929   0.527   7.529 -0.4420 -0.1005  0.5508
 2335Sol     OW12325   0.133   1.961   4.869  0.2932 -0.0474 -0.2876
 2335Sol     HW12326   0.072   1.994   4.934  1.3913 -1.4357  1.4812
 2335Sol     HW12327   0.138   1.867   4.885  2.2855 -0.0726 -0.9106
 2335Sol     MW12328   0.128   1.956   4.876 -0.2181 -0.6982 -0.2712
 2336Sol     OW12329   2.567   1.709   4.804  0.0034  0.3936 -0.4933
 2336Sol     HW12330   2.609   1.666   4.729 -1.0063  3.0685 -2.6868
 2336Sol     HW12331   2.485   1.661   4.816  0.0850  0.0608 -1.2359
 2336Sol     MW12332   2.563   1.701   4.798  0.3000  0.0173  0.4529
 2337Sol     OW12333   1.454   0.766   2.198  0.4248 -1.0130  0.1253
 2337Sol     HW12334   1.443   0.717   2.117  0.1193 -1.2009  0.2783
 2337Sol     HW12335   1.366   0.796   2.220  0.6722 -0.0481 -0.1812
 2337Sol     MW12336   1.446   0.765   2.193  1.3644  0.6865  0.2687
 2338Sol     OW12337   1.727   1.902   2.129 -0.0717  0.4804  0.5600
 2338Sol     HW12338   1.668   1.892   2.204 -1.0529  0.3881 -0.2125
 2338Sol     HW12339   1.750   1.995   2.128 -1.2568  0.7685  0.0802
 2338Sol     MW12340   1.724   1.909   2.136  0.1728  0.5484 -0.3169
 2339Sol     OW12341   2.454   1.058   4.103  0.0511  0.2923  0.5851
 2339Sol     HW12342   2.485   1.142   4.068 -0.1922 -0.3228 -1.1271
 2339Sol     HW12343   2.470   1.064   4.197 -2.0162  3.1623  0.8272
 2339Sol     MW12344   2.458   1.066   4.108 -0.1035 -0.0731 -0.2312
 2340Sol     OW12345   1.910   0.816   9.612  0.3896 -0.0724  0.1924
 2340Sol     HW12346   1.948   0.876   9.676  3.6411 -2.1851  0.3753
 2340Sol     HW12347   1.951   0.841   9.529 -1.9840  1.1087 -0.6529
 2340Sol     MW12348   1.917   0.823   9.610  1.0729  0.0664  0.8926
 2341Sol     OW12349   2.352   2.871   4.659  0.4188 -0.1286 -0.6543
 2341Sol     HW12350   2.310   2.953   4.685 -0.1438 -0.7217  0.3522
 2341Sol     HW12351   2.283   2.820   4.619  0.6247 -0.3541 -0.7219
 2341Sol     MW12352   2.342   2.874   4.658 -0.9411  0.1251  0.3464
 2342Sol     OW12353   2.032   0.206   2.998  0.3569  0.4463  0.0535
 2342Sol     HW12354   2.100   0.266   3.029 -1.2680  1.7807  1.1267
 2342Sol     HW12355   1.979   0.188   3.076  1.1639 -2.9393 -0.0722
 2342Sol     MW12356   2.033   0.210   3.008 -0.3179 -0.2402 -0.5289
 2343Sol     OW12357   1.904   2.958   8.851 -0.2016 -0.2320  0.8266
 2343Sol     HW12358   1.958   3.033   8.876  0.7030 -0.5556 -0.1103
 2343Sol     HW12359   1.867   2.925   8.933  0.6836  0.2647  1.4210
 2343Sol     MW12360   1.905   2.961   8.861  0.9613 -0.2445 -0.2755
 2344Sol     OW12361   2.324   2.374   9.285 -0.2140  0.8505 -0.1269
 2344Sol     HW12362   2.289   2.405   9.368 -0.4570 -0.0561  0.1153
 2344Sol     HW12363   2.248   2.340   9.238 -0.1382  1.6989 -0.8771
 2344Sol     MW12364   2.314   2.374   9.288 -0.0624 -0.4214 -0.0881
 2345Sol     OW12365   1.235   3.225   1.807  0.1450 -0.1822 -0.1118
 2345Sol     HW12366   1.305   3.274   1.763 -1.0220  0.3438 -1.4433
 2345Sol     HW12367   1.267   3.135   1.809  1.6177  0.3473  0.9023
 2345Sol     MW12368   1.244   3.222   1.803 -0.3743  0.7215  0.1166
 2346Sol     OW12369   2.919   0.190   6.374  0.2147 -0.5047 -0.3656
 2346Sol     HW12370   2.976   0.267   6.382  0.7034 -0.8670 -0.2898
 2346Sol     HW12371   2.873   0.202   6.291  2.2087 -1.3906 -1.6530
 2346Sol     MW12372   2.920   0.198   6.367  0.2734  0.0721  0.2444
 2347Sol     OW12373   2.184   2.006   3.642 -0.4213  0.8266  0.7883
 2347Sol     HW12374   2.269   1.971   3.669 -0.4694  0.9464  1.0938
 2347Sol     HW12375   2.154   1.947   3.573  0.4144  1.4110 -0.0954
 2347Sol     MW12376   2.189   1.998   3.638  0.4884  0.5734 -0.2520
 2348Sol     OW12377   0.984   1.219   7.823 -0.0840 -0.0997 -0.0500
 2348Sol     HW12378   0.897   1.199   7.858 -0.0016 -1.0533 -0.3729
 2348Sol     HW12379   0.966   1.264   7.740 -0.2752 -0.8320 -0.4121
 2348Sol     MW12380   0.974   1.221   7.819  0.3754 -0.4601  0.2245
 2349Sol     OW12381   2.620   3.137   4.703  0.8665 -0.2565 -0.9009
 2349Sol     HW12382   2.658   3.183   4.629  2.0823 -0.5889 -0.5046
 2349Sol     HW12383   2.608   3.047   4.672  0.9940 -0.2994 -0.8273
 2349Sol     MW12384   2.623   3.133   4.694 -0.1633  0.4484 -0.0794
 2350Sol     OW12385   0.479   0.027   2.353 -0.1124 -0.4763 -0.4778
 2350Sol     HW12386   0.486   0.010   2.259 -3.2179 -0.6969 -0.7144
 2350Sol     HW12387   0.448   0.117   2.359  1.4887  0.0279  0.3900
 2350Sol     MW12388   0.477   0.033   2.345  0.3594  0.5583  0.0579
 2351Sol     OW12389   2.016   2.825   2.636  0.4485  0.9310  0.2160
 2351Sol     HW12390   1.949   2.890   2.614  0.2716 -0.3105 -3.2310
 2351Sol     HW12391   2.072   2.869   2.701 -2.0931  2.9571  1.1039
 2351Sol     MW12392   2.015   2.835   2.640 -0.4236 -0.2029  0.0255
 2352Sol     OW12393   0.837   0.179   9.929 -0.1160  0.3389  0.0010
 2352Sol     HW12394   0.922   0.222   9.924 -0.6890  1.5056  0.0960
 2352Sol     HW12395   0.837   0.136  10.015  0.9168 -0.8527 -0.5816
 2352Sol     MW12396   0.844   0.179   9.937 -0.5097 -0.3976  0.2573
 2353Sol     OW12397   3.033   1.781   8.201 -0.3299  0.2136 -0.0970
 2353Sol     HW12398   3.057   1.696   8.237  1.7161  0.0436 -1.7644
 2353Sol     HW12399   3.058   1.776   8.109  0.1931  2.7556 -0.1450
 2353Sol     MW12400   3.037   1.773   8.196  0.9647  0.0184 -0.0550
 2354Sol     OW12401   1.312   0.751   4.140  0.1260 -0.5853  0.0116
 2354Sol     HW12402   1.233   0.739   4.193 -0.0056 -0.0164 -0.0566
 2354Sol     HW12403   1.284   0.732   4.050  0.2544 -1.1581  0.0917
 2354Sol     MW12404   1.302   0.748   4.137  0.1574 -0.5251  0.4543
 2355Sol     OW12405   2.002   0.265   3.475 -0.2469  0.1646 -0.5760
 2355Sol     HW12406   2.086   0.311   3.481  0.5512 -1.2668 -0.4207
 2355Sol     HW12407   2.005   0.220   3.391 -0.1694 -1.1604  0.1079
 2355Sol     MW12408   2.010   0.265   3.468  0.1171 -0.0818  0.5339
 2356Sol     OW12409   3.154   0.530   9.259 -0.1713 -0.3593  0.0251
 2356Sol     HW12410   3.200   0.452   9.290 -0.2318  0.0648  1.1849
 2356Sol     HW12411   3.146   0.516   9.164 -0.2145 -1.7752  0.2240
 2356Sol     MW12412   3.158   0.522   9.253 -0.4461 -1.1886  0.3359
 2357Sol     OW12413   2.199   1.334   2.832 -0.3869  0.1109 -0.0260
 2357Sol     HW12414   2.220   1.418   2.792 -1.6127  0.1417 -0.6293
 2357Sol     HW12415   2.282   1.304   2.869  0.7072  0.2998 -2.2082
 2357Sol     MW12416   2.209   1.339   2.831 -0.2681  0.3076 -0.2050
 2358Sol     OW12417   2.388   3.158   6.635  0.3662  0.6963  0.3165
 2358Sol     HW12418   2.326   3.135   6.704 -0.2449 -2.0881 -1.0661
 2358Sol     HW12419   2.473   3.132   6.670  0.3051  1.1197  0.7843
 2358Sol     MW12420   2.390   3.153   6.645  0.2127 -0.0734  0.1286
 2359Sol     OW12421   0.710   2.298   3.761 -0.1867 -0.2141 -0.6056
 2359Sol     HW12422   0.620   2.267   3.770 -0.9102  1.1949 -2.5366
 2359Sol     HW12423   0.701   2.382   3.716  2.1828 -0.6311 -1.9029
 2359Sol     MW12424   0.701   2.303   3.758  0.6893 -0.1269  0.7372
 2360Sol     OW12425   3.229   2.151   3.827  0.6960  0.1787 -0.6083
 2360Sol     HW12426   3.180   2.078   3.790  2.0008 -0.2758 -1.4764
 2360Sol     HW12427   3.321   2.125   3.820  1.0486  0.6829  1.6985
 2360Sol     MW12428   3.233   2.142   3.823  0.1770 -0.3319  0.1692
 2361Sol     OW12429   1.401   2.671   4.471 -0.0603 -0.3938  0.1043
 2361Sol     HW12430   1.470   2.606   4.483  0.4810  0.0716 -0.4826
 2361Sol     HW12431   1.320   2.621   4.480  0.3499 -1.0098  0.4097
 2361Sol     MW12432   1.400   2.661   4.473  0.0811  0.2353 -0.0182
 2362Sol     OW12433   1.878   0.545   9.356  0.7313 -0.2949 -0.4018
 2362Sol     HW12434   1.786   0.536   9.332  0.0076  0.9342  1.7718
 2362Sol     HW12435   1.921   0.470   9.314 -1.9472 -3.2733  1.9515
 2362Sol     MW12436   1.874   0.538   9.350 -0.1732  0.1529  0.2003
 2363Sol     OW12437   2.277   0.205   7.505 -0.0904 -0.3877  0.2450
 2363Sol     HW12438   2.323   0.248   7.577 -0.6779  0.8293 -0.0971
 2363Sol     HW12439   2.346   0.168   7.451  0.4312  0.3006  0.4377
 2363Sol     MW12440   2.287   0.206   7.507 -0.4171  0.7755 -0.0996
 2364Sol     OW12441   0.319   2.975   8.751  0.0137  0.0380 -0.2341
 2364Sol     HW12442   0.319   3.058   8.798 -0.1851  0.3918 -0.8650
 2364Sol     HW12443   0.308   2.998   8.659 -0.5365 -0.7158 -0.3630
 2364Sol     MW12444   0.318   2.984   8.747  0.1417  0.1284 -0.1069
 2365Sol     OW12445   1.064   0.663   4.266 -0.0886  0.1834  0.0857
 2365Sol     HW12446   1.030   0.573   4.271  0.2958  0.0616  0.5877
 2365Sol     HW12447   0.986   0.718   4.264 -0.3173 -0.0708  1.6590
 2365Sol     MW12448   1.054   0.660   4.266 -0.1528  0.5111  0.5064
 2366Sol     OW12449   2.706   2.740   3.135  0.6499  0.1889  0.0690
 2366Sol     HW12450   2.772   2.781   3.078 -0.1499  0.0371 -0.9711
 2366Sol     HW12451   2.740   2.652   3.149  1.3780  0.5583  0.6959
 2366Sol     MW12452   2.715   2.736   3.131 -0.5482 -0.2852  0.4996
 2367Sol     OW12453   0.432   1.884   9.355 -0.7990  0.2782  0.6944
 2367Sol     HW12454   0.413   1.892   9.262  0.6248  2.6304  0.5409
 2367Sol     HW12455   0.375   1.949   9.397 -1.0759 -0.4192  1.4123
 2367Sol     MW12456   0.426   1.891   9.351 -0.1904 -0.2196  0.4089
 2368Sol     OW12457   0.550   0.132   7.178 -0.3538  0.4276 -0.2741
 2368Sol     HW12458   0.566   0.037   7.179 -0.9239  0.3339  0.9959
 2368Sol     HW12459   0.593   0.164   7.257 -0.0465  1.2593 -0.7744
 2368Sol     MW12460   0.555   0.126   7.185  0.1903 -0.0706 -0.8810
 2369Sol     OW12461   2.015   3.354   3.287  0.7336 -0.3186  0.5374
 2369Sol     HW12462   1.983   3.305   3.211  0.4544 -3.3362  2.5219
 2369Sol     HW12463   2.109   3.362   3.273  0.2557  2.1018 -1.7032
 2369Sol     MW12464   2.020   3.350   3.279 -0.0329 -0.0351  0.1707
 2370Sol     OW12465   2.630   1.786   8.318  0.3591  0.1070  0.2755
 2370Sol     HW12466   2.557   1.740   8.276 -0.8759  1.8916  0.3912
 2370Sol     HW12467   2.693   1.717   8.339 -0.0117 -1.1246 -2.4202
 2370Sol     MW12468   2.629   1.776   8.316 -0.0303  0.1466 -0.0367
 2371Sol     OW12469   0.097   0.174   5.709 -0.5014  0.0310 -0.1692
 2371Sol     HW12470   0.088   0.093   5.759  2.3351 -1.3259 -1.7044
 2371Sol     HW12471   0.147   0.232   5.766 -0.5868 -0.1308  0.0703
 2371Sol     MW12472   0.101   0.172   5.719 -0.1968  0.3870  0.2589
 2372Sol     OW12473   2.071   2.842   7.877 -0.4520  0.3084 -0.6304
 2372Sol     HW12474   1.975   2.840   7.882 -0.4859  2.1693 -0.4005
 2372Sol     HW12475   2.099   2.843   7.968 -0.2084  0.0507 -0.7017
 2372Sol     MW12476   2.065   2.842   7.886 -0.7700  0.1065  0.0178
 2373Sol     OW12477   2.127   0.013   2.261  0.0375 -0.0465  0.0618
 2373Sol     HW12478   2.072   0.017   2.339  1.2223 -3.0368  1.0995
 2373Sol     HW12479   2.156   0.104   2.248  1.5421  0.2168  4.4051
 2373Sol     MW12480   2.125   0.022   2.267  0.4648  0.3766  0.1566
 2374Sol     OW12481   0.117   1.375   4.856  0.4707  0.0159 -0.2794
 2374Sol     HW12482   0.106   1.386   4.950  1.1622 -1.0594 -0.0717
 2374Sol     HW12483   0.184   1.308   4.847  2.3881  2.0043 -1.5242
 2374Sol     MW12484   0.122   1.370   4.863  0.3508 -0.6444 -0.0301
 2375Sol     OW12485   0.320   3.183   3.696 -0.0490 -0.6344 -0.4391
 2375Sol     HW12486   0.300   3.090   3.712  0.0007 -0.8120 -1.3549
 2375Sol     HW12487   0.279   3.201   3.612  1.1350 -0.2035 -0.9303
 2375Sol     MW12488   0.315   3.176   3.690 -0.1056  0.1229 -0.3199
 2376Sol     OW12489   2.119   1.540   8.834  0.0778  0.4865 -0.1323
 2376Sol     HW12490   2.157   1.452   8.837 -1.1495 -0.1004 -0.9688
 2376Sol     HW12491   2.190   1.598   8.860  0.2206 -0.9571  2.9589
 2376Sol     MW12492   2.128   1.537   8.836 -0.1653 -0.3532  0.9828
 2377Sol     OW12493   1.524   2.152   7.369 -0.2102  0.1623 -0.7143
 2377Sol     HW12494   1.515   2.222   7.435  0.1808 -1.8818  1.5555
 2377Sol     HW12495   1.616   2.155   7.344  0.0227 -0.1436  0.0804
 2377Sol     MW12496   1.531   2.159   7.373 -0.0749 -0.8246  0.9438
 2378Sol     OW12497   0.347   0.371   5.177  0.3441  0.0613 -0.4787
 2378Sol     HW12498   0.261   0.345   5.210  0.2968  0.4160 -0.3186
 2378Sol     HW12499   0.342   0.467   5.172  1.3016  0.2041  1.0947
 2378Sol     MW12500   0.339   0.377   5.179  0.1501 -0.3665  0.0038
 2379Sol     OW12501   2.664   3.075   2.773 -1.2230 -0.0741  0.1491
 2379Sol     HW12502   2.702   3.112   2.693 -1.3289  0.1987  0.2252
 2379Sol     HW12503   2.690   2.982   2.771  0.6875  0.4236  0.9440
 2379Sol     MW12504   2.670   3.070   2.765 -0.0596  0.0492 -0.1992
 2380Sol     OW12505   0.160   3.070   5.266 -0.8296 -0.2824  0.5548
 2380Sol     HW12506   0.135   2.978   5.250 -1.5607 -0.0284  0.1971
 2380Sol     HW12507   0.207   3.096   5.187 -2.4663  0.2842 -0.2533
 2380Sol     MW12508   0.162   3.064   5.258  0.4854 -0.2685 -0.0288
 2381Sol     OW12509   2.605   2.915   4.542  0.4837  0.0321  0.7753
 2381Sol     HW12510   2.515   2.898   4.570  0.5187  0.4082  1.1222
 2381Sol     HW12511   2.655   2.840   4.574  0.4029  0.1318  1.1367
 2381Sol     MW12512   2.601   2.907   4.548 -0.0103  0.8074 -0.4258
 2382Sol     OW12513   2.453   2.932   8.021  0.3937  0.1157 -0.2634
 2382Sol     HW12514   2.416   2.966   8.102 -0.8184  0.6166 -0.9977
 2382Sol     HW12515   2.389   2.956   7.954  1.1489 -0.6880 -1.2992
 2382Sol     MW12516   2.444   2.937   8.022  0.1424  0.1200  0.0246
 2383Sol     OW12517   1.215   1.163   2.412  0.1985 -0.0476 -0.5693
 2383Sol     HW12518   1.154   1.168   2.338 -0.1013  0.7707 -0.2779
 2383Sol     HW12519   1.290   1.216   2.384  0.5972 -0.7097 -0.7600
 2383Sol     MW12520   1.216   1.168   2.403 -0.2284 -0.2139  0.8575
 2384Sol     OW12521   0.256   3.265   5.436  0.3118  0.6923 -0.1706
 2384Sol     HW12522   0.277   3.224   5.520  0.5441  0.5009 -0.3221
 2384Sol     HW12523   0.221   3.194   5.383 -2.6144  1.3947  0.7370
 2384Sol     MW12524   0.255   3.255   5.439 -0.2507  0.3846  0.2764
 2385Sol     OW12525   0.715   1.589   7.545 -0.6288 -0.5417  0.1741
 2385Sol     HW12526   0.786   1.649   7.567 -1.4937  1.1389 -1.4026
 2385Sol     HW12527   0.638   1.625   7.591 -1.0263 -0.7332 -0.3314
 2385Sol     MW12528   0.714   1.598   7.551  0.2898  0.4044  0.8476
 2386Sol     OW12529   2.700   0.219   5.721 -0.4957  0.1196  0.2036
 2386Sol     HW12530   2.785   0.181   5.702 -0.3268 -0.1903  1.5827
 2386Sol     HW12531   2.670   0.253   5.636  0.9164  0.0989 -0.3151
 2386Sol     MW12532   2.705   0.219   5.711 -0.1601 -0.7691 -0.4898
 2387Sol     OW12533   2.409   2.716   5.179  0.3856  0.1471  0.4486
 2387Sol     HW12534   2.474   2.646   5.176 -0.5585 -0.7356  0.4666
 2387Sol     HW12535   2.411   2.755   5.092  0.3851 -0.3741  0.2187
 2387Sol     MW12536   2.415   2.713   5.171  0.1582 -0.3301 -0.0557
 2388Sol     OW12537   1.470   2.623   3.823 -0.2933 -0.0749 -1.0017
 2388Sol     HW12538   1.527   2.697   3.844  0.9686 -1.4813  0.7419
 2388Sol     HW12539   1.382   2.653   3.842  0.4066  0.2899  1.8852
 2388Sol     MW12540   1.468   2.632   3.826 -0.1807  0.0609 -0.4909
 2389Sol     OW12541   1.707   1.865   3.467 -0.2034  0.3315  0.6315
 2389Sol     HW12542   1.769   1.794   3.486 -1.4495 -0.6691  1.0889
 2389Sol     HW12543   1.717   1.881   3.373  0.9376  0.3723  0.7488
 2389Sol     MW12544   1.713   1.860   3.460 -0.1659 -0.2782  0.7952
 2390Sol     OW12545   0.813   0.032   2.939  0.2224  0.0668  0.6136
 2390Sol     HW12546   0.809   0.070   3.026  0.0447 -0.8538  1.0151
 2390Sol     HW12547   0.764  -0.050   2.946 -1.0779  0.7023 -0.7394
 2390Sol     MW12548   0.808   0.028   2.947  0.5250  0.6243 -0.1502
 2391Sol     OW12549   2.318   0.564   6.836 -0.2394 -0.7018  0.1527
 2391Sol     HW12550   2.285   0.476   6.817 -2.3080  0.7191 -3.1751
 2391Sol     HW12551   2.240   0.619   6.836  1.1088  1.2497  1.6708
 2391Sol     MW12552   2.308   0.561   6.834  0.4299  0.0071  0.1823
 2392Sol     OW12553   1.553   2.341   4.199 -0.1948  0.3970 -0.2153
 2392Sol     HW12554   1.606   2.262   4.190 -0.7489 -0.1112  0.8822
 2392Sol     HW12555   1.470   2.310   4.236 -0.4092  1.4952  0.2404
 2392Sol     MW12556   1.550   2.331   4.201 -0.7157 -0.2641  0.2618
 2393Sol     OW12557   2.056   1.442   1.990 -0.0684  0.0643 -0.6399
 2393Sol     HW12558   1.993   1.463   2.060  0.5039  2.0173 -0.6612
 2393Sol     HW12559   2.086   1.528   1.959  2.7216 -0.8220 -0.5420
 2393Sol     MW12560   2.053   1.452   1.994  0.1070  0.0556 -0.4739
 2394Sol     OW12561   0.437   1.316   9.526  0.3112 -0.1599 -0.1815
 2394Sol     HW12562   0.529   1.301   9.506  0.2693 -1.2654  0.4223
 2394Sol     HW12563   0.400   1.228   9.538 -0.9886  0.2376 -1.1374
 2394Sol     MW12564   0.442   1.307   9.525  0.1058 -0.1879 -0.0774
 2395Sol     OW12565   0.450   2.575   6.333 -0.0738  0.2016 -0.1202
 2395Sol     HW12566   0.509   2.599   6.404 -1.7584  3.1418  0.3742
 2395Sol     HW12567   0.494   2.605   6.253 -0.4363  1.5281  0.1651
 2395Sol     MW12568   0.459   2.580   6.332 -0.1325  0.1019  0.4073
 2396Sol     OW12569   0.136   2.979   4.855  0.2863 -0.1704  0.3444
 2396Sol     HW12570   0.213   2.998   4.802 -0.5321  0.1736 -0.7366
 2396Sol     HW12571   0.069   3.038   4.822 -0.0907  0.4340  2.1439
 2396Sol     MW12572   0.137   2.986   4.847  0.7088 -0.1802 -0.0063
 2397Sol     OW12573   1.587   3.245   8.296 -0.0866 -0.3600  0.1501
 2397Sol     HW12574   1.644   3.226   8.370 -2.3143 -0.0073  1.9946
 2397Sol     HW12575   1.622   3.325   8.259  1.4474 -0.9039  0.4034
 2397Sol     MW12576   1.595   3.250   8.299  0.7395  0.6627  0.4268
 2398Sol     OW12577   2.690   3.327   4.944  0.1683  0.3366  0.0459
 2398Sol     HW12578   2.682   3.259   4.877  2.0153  0.7453 -0.6181
 2398Sol     HW12579   2.616   3.385   4.928 -3.0993 -2.9550  2.3765
 2398Sol     MW12580   2.683   3.326   4.937  0.6487  0.4903  0.5583
 2399Sol     OW12581   1.423   2.312   6.100  0.2458 -0.5497 -0.4990
 2399Sol     HW12582   1.466   2.343   6.180 -0.5578 -0.2452 -0.1745
 2399Sol     HW12583   1.437   2.383   6.037 -1.8241  0.6396  0.3231
 2399Sol     MW12584   1.428   2.321   6.102 -0.4396  0.4667 -0.0478
 2400Sol     OW12585   2.903   2.942   7.954 -0.2846 -0.1694 -0.1876
 2400Sol     HW12586   2.993   2.914   7.937  0.2661  0.7324  1.1379
 2400Sol     HW12587   2.872   2.978   7.870  0.4384 -0.8619 -0.7537
 2400Sol     MW12588   2.908   2.943   7.945 -0.4064 -0.1283  0.1835
 2401Sol     OW12589   0.982   2.745   9.468 -0.0670 -0.4969 -0.0629
 2401Sol     HW12590   0.924   2.755   9.543  2.4861 -0.3662  1.9732
 2401Sol     HW12591   1.000   2.834   9.439  0.7111 -0.4402  0.5864
 2401Sol     MW12592   0.979   2.754   9.472  0.3049 -0.4189  0.1095
 2402Sol     OW12593   2.556   1.456   7.444  0.0683  0.0780 -0.8713
 2402Sol     HW12594   2.605   1.499   7.515 -1.6634  1.6546 -0.5980
 2402Sol     HW12595   2.500   1.394   7.489 -0.1168  0.1789 -0.9634
 2402Sol     MW12596   2.556   1.454   7.455 -0.3852  0.2133  0.0433
 2403Sol     OW12597   1.344   0.216   4.832  0.2422 -0.4042  0.2301
 2403Sol     HW12598   1.399   0.140   4.851 -0.6671 -1.4512 -1.2647
 2403Sol     HW12599   1.278   0.184   4.770 -0.0238  1.6494 -0.5935
 2403Sol     MW12600   1.343   0.207   4.828 -0.0688 -0.3719 -0.4551
 2404Sol     OW12601   0.780   0.920   7.186 -0.1008 -0.3511 -0.4541
 2404Sol     HW12602   0.690   0.918   7.153 -0.0744 -2.5737 -0.4694
 2404Sol     HW12603   0.834   0.933   7.108 -0.3256 -0.3742 -0.6141
 2404Sol     MW12604   0.776   0.921   7.176 -0.5124  0.5263  0.1950
 2405Sol     OW12605   1.011   2.815   7.241  0.2508 -0.0627 -0.1350
 2405Sol     HW12606   1.102   2.830   7.213  0.5343 -0.2111  0.6965
 2405Sol     HW12607   0.993   2.886   7.302  0.6434 -1.4562  1.6206
 2405Sol     MW12608   1.018   2.823   7.244 -0.2353  0.4510  0.0485
 2406Sol     OW12609   2.631   1.082   3.154  0.3668  0.5083 -0.1828
 2406Sol     HW12610   2.718   1.081   3.114  1.7191  3.2717  2.4950
 2406Sol     HW12611   2.640   1.029   3.233 -0.0362  1.7155  0.6937
 2406Sol     MW12612   2.639   1.077   3.157 -0.9407 -0.1324  0.7682
 2407Sol     OW12613   0.067   0.732   6.156  0.3210 -0.1314  0.1517
 2407Sol     HW12614   0.004   0.674   6.112 -0.7784  0.4971  0.8794
 2407Sol     HW12615   0.046   0.819   6.123  0.2935  0.1848  0.9883
 2407Sol     MW12616   0.059   0.734   6.149 -0.1948 -0.1187 -0.2010
 2408Sol     OW12617   0.722   0.989   7.807 -0.2749 -0.2314 -0.2693
 2408Sol     HW12618   0.678   0.926   7.863 -0.8041 -0.6240 -1.1158
 2408Sol     HW12619   0.782   0.937   7.753 -1.0510 -0.0806 -1.2931
 2408Sol     MW12620   0.724   0.979   7.807 -0.3406  0.2293 -0.2641
 2409Sol     OW12621   2.896   2.057   4.452 -0.0338 -0.0953 -0.3150
 2409Sol     HW12622   2.932   1.983   4.499 -0.9315 -0.0913  0.3946
 2409Sol     HW12623   2.886   2.126   4.518 -0.5409  0.1793 -0.6686
 2409Sol     MW12624   2.898   2.057   4.462  0.4811  0.3945  0.4562
 2410Sol     OW12625   1.185   2.517   4.587 -0.5501 -0.1251 -0.1526
 2410Sol     HW12626   1.200   2.448   4.652 -2.4246 -0.1674  0.2878
 2410Sol     HW12627   1.093   2.506   4.562 -0.8991  2.2455 -0.0419
 2410Sol     MW12628   1.178   2.510   4.590 -0.6926 -0.3049  0.1209
 2411Sol     OW12629   2.150   1.020   9.059  0.0081  1.0070  0.0376
 2411Sol     HW12630   2.194   0.958   9.117 -0.0404 -0.5202 -1.5056
 2411Sol     HW12631   2.056   1.005   9.073 -0.0063  1.0012 -0.0609
 2411Sol     MW12632   2.145   1.013   9.065 -0.3718 -0.3545  0.0185
 2412Sol     OW12633   3.105   2.628   7.883 -0.3681 -0.0498  0.0122
 2412Sol     HW12634   3.188   2.583   7.900 -0.2806 -0.0130 -0.3003
 2412Sol     HW12635   3.038   2.571   7.921 -0.1300  0.4047  1.1338
 2412Sol     MW12636   3.106   2.619   7.888  0.0452 -0.0657 -0.0006
 2413Sol     OW12637   3.287   0.775   4.524 -0.1968 -0.3752 -0.3041
 2413Sol     HW12638   3.237   0.698   4.498  0.1857 -0.5851 -0.4349
 2413Sol     HW12639   3.317   0.755   4.613 -0.4316 -0.2094 -0.1907
 2413Sol     MW12640   3.285   0.766   4.529  0.0043  0.1177 -0.0463
 2414Sol     OW12641   2.508   2.288   6.789  0.0188  0.0438 -0.6672
 2414Sol     HW12642   2.533   2.202   6.824 -0.8738 -0.6617 -1.7694
 2414Sol     HW12643   2.514   2.279   6.694  0.0222  1.2402 -0.7920
 2414Sol     MW12644   2.511   2.280   6.784 -0.1019 -0.0506 -0.1308
 2415Sol     OW12645   2.991   0.087   8.789 -0.4028 -0.0039  0.0259
 2415Sol     HW12646   3.021  -0.003   8.799  1.4186  0.4766 -0.9994
 2415Sol     HW12647   2.929   0.083   8.716  1.6094  0.0049 -1.7046
 2415Sol     MW12648   2.988   0.078   8.784  0.5113  0.2642 -0.5446
 2416Sol     OW12649   1.779   2.224   5.731 -0.1771 -0.1563  0.3901
 2416Sol     HW12650   1.792   2.268   5.647 -0.8409  2.3683  1.5358
 2416Sol     HW12651   1.862   2.182   5.750  1.2787  2.5443  0.2611
 2416Sol     MW12652   1.787   2.224   5.725  0.3946 -0.1954 -0.4243
 2417Sol     OW12653   0.665   1.650   6.628 -0.7440 -0.3938  0.0044
 2417Sol     HW12654   0.697   1.711   6.561  0.7704 -0.9128  0.2317
 2417Sol     HW12655   0.570   1.656   6.622 -0.6247  1.4536 -0.4657
 2417Sol     MW12656   0.660   1.656   6.621  0.1196 -0.1467 -0.1299
 2418Sol     OW12657   1.552   1.174   2.107 -0.4530 -0.6201  0.0394
 2418Sol     HW12658   1.457   1.173   2.104 -0.4523 -0.6209  0.0136
 2418Sol     HW12659   1.579   1.132   2.025 -0.4281 -0.0533 -0.2439
 2418Sol     MW12660   1.546   1.170   2.099 -0.0605 -0.4292 -0.5430
 2419Sol     OW12661   2.371   1.412   9.739  0.7015 -0.0722 -0.1558
 2419Sol     HW12662   2.320   1.417   9.658  0.1574  0.9331  0.2412
 2419Sol     HW12663   2.445   1.472   9.725  0.8312 -0.2128 -0.0711
 2419Sol     MW12664   2.373   1.418   9.731  0.2714  0.1277  0.5532
 2420Sol     OW12665   0.390   2.674   8.650  0.0794  0.1252  0.1501
 2420Sol     HW12666   0.463   2.618   8.674 -0.2787 -0.0407  0.8653
 2420Sol     HW12667   0.339   2.684   8.731 -0.1864  0.9846 -0.1127
 2420Sol     MW12668   0.392   2.670   8.659 -0.9018 -0.8020 -0.5274
 2421Sol     OW12669   2.199   1.044   4.001  0.0546  0.3181 -0.2230
 2421Sol     HW12670   2.282   1.042   4.049 -0.6764 -0.2792  1.0485
 2421Sol     HW12671   2.200   0.964   3.948 -0.8269 -1.0335  1.7497
 2421Sol     MW12672   2.207   1.037   4.001  0.0912 -0.1348 -0.5095
 2422Sol     OW12673   1.138   2.827   8.638  0.7491 -0.5986 -0.4769
 2422Sol     HW12674   1.134   2.902   8.580  1.1984 -0.1950  0.0120
 2422Sol     HW12675   1.197   2.766   8.594  0.6490 -0.5263 -0.7109
 2422Sol     MW12676   1.143   2.828   8.629 -0.0527 -0.2766  0.3508
 2423Sol     OW12677   0.903   2.327   8.916  0.0490  0.1315  0.1571
 2423Sol     HW12678   0.919   2.275   8.838 -1.8473  1.0559 -0.8938
 2423Sol     HW12679   0.893   2.417   8.884 -1.4866  0.4107  1.3421
 2423Sol     MW12680   0.903   2.331   8.906 -0.1419 -0.2125  0.2335
 2424Sol     OW12681   1.146   2.985   1.510 -0.5612 -0.5608 -0.1705
 2424Sol     HW12682   1.081   2.965   1.577 -0.0961 -1.6671 -0.0317
 2424Sol     HW12683   1.135   2.916   1.445  0.4755 -0.7743 -0.1352
 2424Sol     MW12684   1.139   2.977   1.510  0.6665 -0.3012 -0.3776
 2425Sol     OW12685   1.979   3.362   1.363 -0.2373 -1.0167 -0.3186
 2425Sol     HW12686   1.943   3.450   1.374 -3.8735 -2.1670 -2.2098
 2425Sol     HW12687   1.991   3.330   1.452 -0.0386  0.9188  0.3899
 2425Sol     MW12688   1.977   3.367   1.372 -0.4221 -0.5988 -0.3632
 2426Sol     OW12689   2.737   2.685   6.640 -0.0162  0.3531  0.1342
 2426Sol     HW12690   2.720   2.608   6.695  0.4500  0.5425  0.5585
 2426Sol     HW12691   2.795   2.740   6.694  0.8681  0.2995 -0.7566
 2426Sol     MW12692   2.741   2.683   6.650  0.0204  0.3760 -0.4789
 2427Sol     OW12693   0.882   1.774   2.699  0.7779  0.1913  0.2504
 2427Sol     HW12694   0.904   1.827   2.622 -1.4758 -0.2258 -0.7146
 2427Sol     HW12695   0.874   1.685   2.665  2.4272 -0.4536  1.4860
 2427Sol     MW12696   0.883   1.771   2.689 -0.2869  0.1822 -0.2529
 2428Sol     OW12697   0.204   0.678   2.336  0.1603  0.5582 -0.3791
 2428Sol     HW12698   0.184   0.771   2.326 -0.3270  0.6513  1.3862
 2428Sol     HW12699   0.190   0.642   2.248 -2.3053  1.6383 -0.4623
 2428Sol     MW12700   0.201   0.683   2.327 -0.6346  0.4870  0.0991
 2429Sol     OW12701   0.733   0.779   2.204  0.2801 -0.1211 -0.1239
 2429Sol     HW12702   0.757   0.745   2.290 -1.8746 -0.3241  0.4165
 2429Sol     HW12703   0.814   0.817   2.170  1.5566 -1.5082  1.2875
 2429Sol     MW12704   0.743   0.779   2.208  0.4287  0.3323 -0.0698
 2430Sol     OW12705   3.128   0.312   6.090  0.6219 -0.4100  0.3322
 2430Sol     HW12706   3.154   0.250   6.022  0.4022  1.4400 -1.4485
 2430Sol     HW12707   3.202   0.313   6.151  2.0135  0.0539 -1.3571
 2430Sol     MW12708   3.137   0.306   6.090  0.2890 -0.7351 -0.4131
 2431Sol     OW12709   1.434   1.401   2.355 -0.2037 -0.6755  0.0682
 2431Sol     HW12710   1.461   1.466   2.290 -0.0620  1.3585  2.0845
 2431Sol     HW12711   1.516   1.366   2.390 -0.2340 -0.1336  0.7029
 2431Sol     MW12712   1.444   1.404   2.352 -0.1358  0.0193  0.2094
 2432Sol     OW12713   0.747   1.833   6.434  0.3522  0.1046 -0.0541
 2432Sol     HW12714   0.709   1.791   6.357 -0.9301 -1.6753  1.5259
 2432Sol     HW12715   0.693   1.911   6.448  0.5596  0.4081 -0.8871
 2432Sol     MW12716   0.739   1.836   6.428  0.2812  0.4194  0.2527
 2433Sol     OW12717   2.435   1.164   5.854 -0.3537 -0.4244  0.0694
 2433Sol     HW12718   2.417   1.213   5.775  2.7254  1.4443  0.4481
 2433Sol     HW12719   2.491   1.092   5.826 -2.4194 -2.0467 -0.0130
 2433Sol     MW12720   2.439   1.162   5.845 -0.8084 -0.5150  0.0028
 2434Sol     OW12721   0.102   1.122   4.177 -0.1355  0.0799 -0.5453
 2434Sol     HW12722   0.128   1.089   4.263  0.1886 -1.7540 -1.3328
 2434Sol     HW12723   0.184   1.137   4.131 -0.2963  1.5502 -0.3776
 2434Sol     MW12724   0.111   1.121   4.181  0.0781  0.2264  0.4902
 2435Sol     OW12725   1.348   1.445   7.573 -0.1339 -0.3271 -0.4598
 2435Sol     HW12726   1.406   1.508   7.530 -0.0921  0.2806  0.4671
 2435Sol     HW12727   1.270   1.442   7.517  0.3619 -0.3658 -1.1557
 2435Sol     MW12728   1.346   1.450   7.564 -0.2477  0.7771  0.2671
 2436Sol     OW12729   1.455   2.045   1.715 -0.9020  0.1131  0.4007
 2436Sol     HW12730   1.458   2.137   1.689 -2.2775  0.1335  0.2988
 2436Sol     HW12731   1.541   2.010   1.689 -0.9863  0.9593 -1.0973
 2436Sol     MW12732   1.463   2.050   1.710 -0.5337  0.7294 -0.0366
 2437Sol     OW12733   0.608   1.900   7.782  0.3704 -0.7983  0.2684
 2437Sol     HW12734   0.529   1.859   7.746  0.5521 -0.6250 -0.3208
 2437Sol     HW12735   0.664   1.916   7.707  0.6782 -0.2781  0.6047
 2437Sol     MW12736   0.606   1.897   7.772 -0.9302 -1.0434  0.6796
 2438Sol     OW12737   0.276   0.644   1.640 -0.4499 -0.0997  0.1692
 2438Sol     HW12738   0.186   0.671   1.659 -0.3114  0.6509 -0.1932
 2438Sol     HW12739   0.301   0.698   1.565  0.0544 -0.8221 -0.1855
 2438Sol     MW12740   0.270   0.652   1.635 -0.0138  0.1772 -0.1529
 2439Sol     OW12741   0.792   0.375   7.172 -0.2158  0.2054  0.4714
 2439Sol     HW12742   0.796   0.452   7.228  0.1129 -0.1488  0.9378
 2439Sol     HW12743   0.731   0.399   7.102 -2.0787  0.0317  1.9687
 2439Sol     MW12744   0.787   0.384   7.171  0.5061  0.3850  0.2188
 2440Sol     OW12745   2.372   1.073   5.169  0.2549 -0.0844  0.1955
 2440Sol     HW12746   2.344   0.981   5.168 -1.3407  0.3755  1.2571
 2440Sol     HW12747   2.291   1.123   5.167  1.1108  1.3161 -0.1489
 2440Sol     MW12748   2.362   1.069   5.169 -0.4805 -0.8229 -0.6491
 2441Sol     OW12749   0.372   1.390   6.053 -0.2519 -0.2045 -0.2465
 2441Sol     HW12750   0.444   1.438   6.011 -0.6685  0.7146  0.0805
 2441Sol     HW12751   0.300   1.453   6.056 -0.7122 -0.7605  0.4457
 2441Sol     MW12752   0.372   1.400   6.050 -0.4722  0.2677  0.4039
 2442Sol     OW12753   1.136   0.369   3.298 -0.1908  0.4795  0.7247
 2442Sol     HW12754   1.225   0.405   3.296  0.1287 -0.3322 -1.2454
 2442Sol     HW12755   1.118   0.354   3.390  1.9103  0.2236  1.1164
 2442Sol     MW12756   1.143   0.371   3.306  0.3737  0.6946  0.5558
 2443Sol     OW12757   1.785   2.612   5.346  0.1654  0.0448  0.2867
 2443Sol     HW12758   1.792   2.631   5.439 -0.2643 -0.8161  0.4991
 2443Sol     HW12759   1.691   2.606   5.330  0.2954 -1.9224  0.2302
 2443Sol     MW12760   1.777   2.614   5.353  0.1224 -0.4698  0.0505
 2444Sol     OW12761   2.079   2.365   9.916 -0.3810  0.0294 -0.0863
 2444Sol     HW12762   2.033   2.448   9.904 -1.2191 -0.4767 -0.3988
 2444Sol     HW12763   2.010   2.301   9.934  0.2142 -0.7001 -0.3515
 2444Sol     MW12764   2.068   2.367   9.917 -0.6936  0.1960  0.0868
 2445Sol     OW12765   3.237   1.479   3.930  0.0490 -0.3550  0.4625
 2445Sol     HW12766   3.323   1.453   3.899 -0.2082 -1.3621  0.6004
 2445Sol     HW12767   3.233   1.449   4.021  0.5875  2.0939  1.3527
 2445Sol     MW12768   3.244   1.474   3.935  0.3893  0.0401 -0.0882
 2446Sol     OW12769   1.689   2.401   3.458  0.1771  0.7464  0.0991
 2446Sol     HW12770   1.699   2.310   3.486  0.5027  0.6603 -0.2955
 2446Sol     HW12771   1.609   2.430   3.501  0.4794  0.5016  0.8263
 2446Sol     MW12772   1.683   2.395   3.464  0.3535  0.6734 -0.8869
 2447Sol     OW12773   2.384   2.797   4.920 -0.6163 -0.0037  0.1705
 2447Sol     HW12774   2.404   2.819   4.829 -0.4060 -1.7344 -0.2343
 2447Sol     HW12775   2.300   2.750   4.915 -1.0798  0.7290  0.9846
 2447Sol     MW12776   2.378   2.795   4.911 -0.0561 -0.1951  0.1109
 2448Sol     OW12777   3.255   1.522   8.104 -0.6210 -0.2710 -0.6306
 2448Sol     HW12778   3.271   1.574   8.025 -0.0384  0.4088 -0.0768
 2448Sol     HW12779   3.323   1.551   8.165 -2.6703  1.1261  1.0395
 2448Sol     MW12780   3.263   1.529   8.102 -0.5663 -0.0873  0.7920
 2449Sol     OW12781   2.113   2.502   7.327  0.2293 -0.2011  0.0981
 2449Sol     HW12782   2.049   2.454   7.380 -0.4786  0.0431 -0.5176
 2449Sol     HW12783   2.063   2.531   7.251  1.6138 -1.9210 -1.4940
 2449Sol     MW12784   2.102   2.500   7.325  0.9310 -0.8045  0.3168
 2450Sol     OW12785   2.426   1.495   1.950  0.3841 -0.3895 -0.1041
 2450Sol     HW12786   2.403   1.412   1.989 -3.0174  0.8941  0.7651
 2450Sol     HW12787   2.423   1.479   1.855 -0.8710 -1.0809  0.0514
 2450Sol     MW12788   2.424   1.487   1.945  0.1792 -0.4482 -0.0535
 2451Sol     OW12789   2.009   0.221   3.732 -0.1911  0.0580  0.1624
 2451Sol     HW12790   1.940   0.156   3.744 -1.2455  1.3558  1.3873
 2451Sol     HW12791   2.016   0.232   3.637  0.6350 -2.4793 -0.0976
 2451Sol     MW12792   2.003   0.216   3.725 -0.0521  0.2757 -0.1673
 2452Sol     OW12793   0.423   0.848   6.487  0.3795 -0.9461 -0.1022
 2452Sol     HW12794   0.343   0.898   6.469 -0.0602 -1.3963  0.6095
 2452Sol     HW12795   0.459   0.888   6.566  1.1780 -0.3533 -0.7671
 2452Sol     MW12796   0.419   0.856   6.492 -0.3507  0.3244 -0.3361
 2453Sol     OW12797   2.371   1.088   3.540 -0.7882 -0.3337 -0.3643
 2453Sol     HW12798   2.361   0.994   3.551 -0.5995 -0.3516 -0.3538
 2453Sol     HW12799   2.465   1.104   3.547 -0.8500 -0.1025 -0.0019
 2453Sol     MW12800   2.378   1.081   3.542 -0.2487  0.2578  0.3869
 2454Sol     OW12801   0.792   2.933   4.009  0.1660  0.2291 -0.3440
 2454Sol     HW12802   0.766   2.847   3.976 -0.7734 -0.2495  1.5546
 2454Sol     HW12803   0.746   2.995   3.952 -0.5410 -0.5573 -0.6433
 2454Sol     MW12804   0.785   2.931   4.001 -0.7534 -0.0221  1.0363
 2455Sol     OW12805   3.293   2.473   8.719  0.0366  0.4758  0.2064
 2455Sol     HW12806   3.263   2.473   8.810  0.3619 -2.4402  0.3329
 2455Sol     HW12807   3.213   2.463   8.668  0.0051  0.7322  0.2011
 2455Sol     MW12808   3.283   2.472   8.723 -0.0341  0.1009  0.4512
 2456Sol     OW12809   0.830   2.973   4.268 -0.0743 -0.1412  0.2181
 2456Sol     HW12810   0.811   2.969   4.175  1.4902  1.7663 -0.2026
 2456Sol     HW12811   0.747   3.001   4.309 -0.5115 -0.1310 -0.6692
 2456Sol     MW12812   0.821   2.975   4.264 -0.2961 -0.5265 -1.0367
 2457Sol     OW12813   2.151   1.301   1.573  0.7953  0.5052  0.3233
 2457Sol     HW12814   2.088   1.276   1.639  0.9631 -0.4879  0.1146
 2457Sol     HW12815   2.190   1.218   1.544  1.2392  0.9923 -0.4904
 2457Sol     MW12816   2.149   1.291   1.576  0.6743  0.2845  0.7261
 2458Sol     OW12817   1.309   2.908   1.744 -0.4366  0.0236  0.8308
 2458Sol     HW12818   1.251   2.917   1.668  1.9438  0.0669 -1.0293
 2458Sol     HW12819   1.292   2.820   1.777 -1.3743 -0.0470  0.1765
 2458Sol     MW12820   1.302   2.901   1.740 -0.2631 -0.0272  1.1521
 2459Sol     OW12821   2.251   2.121   1.828  0.1854  0.0598 -0.0679
 2459Sol     HW12822   2.324   2.173   1.860  0.2217  0.0769 -0.1773
 2459Sol     HW12823   2.278   2.030   1.839  0.1140  0.0658  0.1401
 2459Sol     MW12824   2.260   2.118   1.832  0.7698  0.5422 -0.5281
 2460Sol     OW12825   2.294   2.177   8.820  0.5619 -0.1781 -0.3977
 2460Sol     HW12826   2.219   2.124   8.794  0.2583 -0.5530  1.2134
 2460Sol     HW12827   2.327   2.135   8.899  1.7808  0.6535 -0.4521
 2460Sol     MW12828   2.290   2.169   8.825  0.1516 -0.3118  0.7380
 2461Sol     OW12829   3.166   0.518   4.450  0.2113  0.2410  0.2397
 2461Sol     HW12830   3.155   0.438   4.501  2.0436 -0.4123 -0.3468
 2461Sol     HW12831   3.079   0.535   4.414 -0.5892 -0.5426  1.7212
 2461Sol     MW12832   3.157   0.512   4.452  0.5502  0.2008  0.5909
 2462Sol     OW12833   3.265   2.617   5.028  0.0915 -0.8912 -0.0090
 2462Sol     HW12834   3.181   2.662   5.017  0.6524  0.2923  0.4777
 2462Sol     HW12835   3.321   2.654   4.961  0.4230 -1.1991  0.0994
 2462Sol     MW12836   3.262   2.625   5.021 -0.0151 -0.1381 -0.2188
 2463Sol     OW12837   2.513   0.291   4.543 -0.5591 -0.0236  0.2828
 2463Sol     HW12838   2.519   0.321   4.452  2.8329 -0.3512  0.3119
 2463Sol     HW12839   2.455   0.354   4.586  0.1527  1.8636 -1.4547
 2463Sol     MW12840   2.509   0.299   4.539  0.0327  0.6049 -0.7636
 2464Sol     OW12841   2.235   2.125   1.529 -0.3830  0.1140 -0.2735
 2464Sol     HW12842   2.206   2.126   1.620 -0.8837  0.3349 -0.4363
 2464Sol     HW12843   2.190   2.199   1.488 -0.3586 -0.1395 -0.7629
 2464Sol     MW12844   2.228   2.132   1.534  0.3423 -0.1478  0.5223
 2465Sol     OW12845   0.240   3.326   7.486 -0.6803 -0.3034 -0.0339
 2465Sol     HW12846   0.189   3.287   7.415 -0.6494 -2.3375  1.0201
 2465Sol     HW12847   0.231   3.421   7.473 -3.0824 -0.6292 -1.0091
 2465Sol     MW12848   0.235   3.331   7.478 -0.2290 -0.2149 -0.1675
 2466Sol     OW12849   2.076   0.500   2.104 -0.1177  0.5778  0.3330
 2466Sol     HW12850   2.124   0.490   2.022 -1.8063  2.1212 -0.8842
 2466Sol     HW12851   2.136   0.550   2.161  0.5225  0.6977 -0.4431
 2466Sol     MW12852   2.086   0.504   2.102 -0.6590 -0.3813  0.2426
 2467Sol     OW12853   1.624   1.319   6.717  0.2392  0.6122 -0.0587
 2467Sol     HW12854   1.677   1.366   6.653  0.0211  1.5271  0.4265
 2467Sol     HW12855   1.682   1.310   6.793 -0.9534  3.4018  1.2247
 2467Sol     MW12856   1.634   1.322   6.718  0.0017  0.4148  0.6880
 2468Sol     OW12857   0.182   0.501   7.041 -0.4983 -0.2381  0.2225
 2468Sol     HW12858   0.135   0.494   7.124 -0.0124 -1.0940  0.4351
 2468Sol     HW12859   0.264   0.454   7.057  0.3361  1.0386 -0.2089
 2468Sol     MW12860   0.185   0.496   7.050 -0.6521 -1.0400 -0.2380
 2469Sol     OW12861   2.883   2.363   7.164  0.6534 -0.2567  0.5443
 2469Sol     HW12862   2.936   2.314   7.101 -0.2157 -1.4977  0.7705
 2469Sol     HW12863   2.795   2.325   7.157 -0.1702  1.6175  0.3466
 2469Sol     MW12864   2.880   2.355   7.157 -0.5911 -0.4387  0.1990
 2470Sol     OW12865   1.685   0.239   1.611 -0.3056  0.6733  0.3744
 2470Sol     HW12866   1.698   0.195   1.695 -0.1803 -0.2029 -0.0980
 2470Sol     HW12867   1.591   0.241   1.599 -0.4025  2.2823  1.3089
 2470Sol     MW12868   1.678   0.235   1.618  0.0832 -0.1734  0.6836
 2471Sol     OW12869   0.781   1.383   8.530 -0.3076 -0.2209 -0.0583
 2471Sol     HW12870   0.804   1.395   8.438 -0.0406 -1.1843 -0.1249
 2471Sol     HW12871   0.742   1.467   8.556 -0.1528  0.1439 -0.9732
 2471Sol     MW12872   0.779   1.392   8.524  0.1762 -0.2930  0.0477
 2472Sol     OW12873   1.948   3.212   2.804  0.7161 -0.7767  0.7077
 2472Sol     HW12874   1.857   3.219   2.776  0.7261 -0.2118  0.8047
 2472Sol     HW12875   1.999   3.221   2.723  0.6919 -0.8503  0.6845
 2472Sol     MW12876   1.944   3.213   2.794 -0.5948  0.0421 -0.1174
 2473Sol     OW12877   3.053   0.746   7.255  0.5714 -0.4108 -0.2654
 2473Sol     HW12878   3.019   0.702   7.176  0.1140  0.1927 -0.4101
 2473Sol     HW12879   3.000   0.710   7.326  0.1072 -0.0041 -0.3999
 2473Sol     MW12880   3.045   0.739   7.254 -0.2507 -0.1367 -0.2982
 2474Sol     OW12881   0.426   1.548   7.618 -0.7390  0.6834  0.0345
 2474Sol     HW12882   0.372   1.533   7.696  1.1115 -0.6257  1.1094
 2474Sol     HW12883   0.421   1.642   7.603  0.9368  1.3455  3.2848
 2474Sol     MW12884   0.421   1.555   7.624  0.1606  0.1469  0.1187
 2475Sol     OW12885   2.778   0.954   9.989 -0.3207 -0.1008  0.2394
 2475Sol     HW12886   2.841   0.927   9.923  0.1013  1.1032  0.1372
 2475Sol     HW12887   2.772   1.049   9.979 -1.8070 -0.1527  0.5456
 2475Sol     MW12888   2.783   0.960   9.983 -0.1685 -0.0834  0.0436
 2476Sol     OW12889   2.571   2.767   8.349 -0.6940 -0.0773  0.2517
 2476Sol     HW12890   2.635   2.798   8.285 -2.6380  0.0377 -1.6939
 2476Sol     HW12891   2.623   2.721   8.415  1.2157 -1.2977 -2.0557
 2476Sol     MW12892   2.581   2.766   8.349  0.0619  0.0694 -0.0609
 2477Sol     OW12893   1.850   3.190   7.058  0.2396 -0.3202 -0.1836
 2477Sol     HW12894   1.887   3.237   7.133  0.5601 -0.0210 -0.5267
 2477Sol     HW12895   1.828   3.258   6.995  0.8191 -0.6287 -0.7322
 2477Sol     MW12896   1.851   3.200   7.059  0.7417 -0.0739 -0.8193
 2478Sol     OW12897   2.210   2.615   4.778  0.2293  0.3407 -0.1496
 2478Sol     HW12898   2.216   2.535   4.830  0.5225  1.0019  0.8675
 2478Sol     HW12899   2.281   2.608   4.714 -0.3134 -0.6113 -0.6523
 2478Sol     MW12900   2.217   2.607   4.777  0.2442  0.0268 -0.6574
 2479Sol     OW12901   3.284   2.043   4.274 -0.2257  0.0209 -0.0977
 2479Sol     HW12902   3.329   2.103   4.333  0.0721 -1.2293  0.9864
 2479Sol     HW12903   3.345   2.029   4.202  0.3348 -0.1436  0.4007
 2479Sol     MW12904   3.294   2.047   4.273  0.5560  0.2062 -0.5731
 2480Sol     OW12905   2.799   0.917   1.437 -0.3146 -0.1149  0.3004
 2480Sol     HW12906   2.849   0.956   1.365 -2.0356 -0.6722 -1.2451
 2480Sol     HW12907   2.824   0.967   1.514  0.8074  1.1680 -0.8643
 2480Sol     MW12908   2.806   0.925   1.437 -0.0635 -0.8104 -0.2451
 2481Sol     OW12909   2.292   1.154   2.410 -0.0677  0.1394  0.1866
 2481Sol     HW12910   2.257   1.242   2.423  0.4483  0.5330 -1.0269
 2481Sol     HW12911   2.372   1.152   2.462  0.1510  0.5332 -0.1346
 2481Sol     MW12912   2.296   1.162   2.416  0.4727 -0.1602  0.0721
 2482Sol     OW12913   2.312   1.762   3.927 -0.0814 -0.4121 -0.2354
 2482Sol     HW12914   2.399   1.752   3.966 -0.2789 -2.2653 -0.2330
 2482Sol     HW12915   2.328   1.810   3.846  0.9108 -0.5221 -0.1168
 2482Sol     MW12916   2.322   1.765   3.923 -0.3196  0.5280  0.5803
 2483Sol     OW12917   2.524   0.516   7.864  0.2136  0.0316  0.0319
 2483Sol     HW12918   2.598   0.458   7.879  0.7752  1.1089  1.6262
 2483Sol     HW12919   2.560   0.605   7.874 -0.9424  0.6077 -0.7747
 2483Sol     MW12920   2.534   0.519   7.867 -0.6048 -1.0254 -0.0807
 2484Sol     OW12921   2.249   1.073   6.899 -0.1178 -0.4859  0.2561
 2484Sol     HW12922   2.225   1.014   6.971 -2.4084  0.5679  0.3949
 2484Sol     HW12923   2.328   1.035   6.863 -1.0552 -3.1719  0.9058
 2484Sol     MW12924   2.254   1.065   6.902  0.6709 -0.1283  0.3798
 2485Sol     OW12925   2.714   2.532   8.912 -0.4421 -0.7805  0.6522
 2485Sol     HW12926   2.802   2.518   8.877 -1.0208 -0.8815 -0.7957
 2485Sol     HW12927   2.660   2.465   8.869 -1.6280  0.5885 -0.0314
 2485Sol     MW12928   2.717   2.525   8.905  0.0651 -0.1135  0.0700
 2486Sol     OW12929   2.028   1.973   4.684  0.4180 -0.3814  0.5028
 2486Sol     HW12930   1.960   1.982   4.751 -0.9956 -1.1392 -0.7928
 2486Sol     HW12931   2.061   2.062   4.671 -2.2320  0.4689 -0.7627
 2486Sol     MW12932   2.025   1.982   4.689 -0.3084  0.7077 -0.3698
 2487Sol     OW12933   0.074   2.331   4.986  0.5135  0.1703  0.0174
 2487Sol     HW12934   0.052   2.422   5.007  1.3942  0.9078 -2.0862
 2487Sol     HW12935   0.150   2.338   4.928  0.1090 -1.8616 -0.8041
 2487Sol     MW12936   0.079   2.340   4.982  0.0680 -0.8984 -0.6493
 2488Sol     OW12937   2.746   3.167   6.516  0.1426 -0.0672  0.3017
 2488Sol     HW12938   2.751   3.262   6.527  0.2572  0.0159 -0.4350
 2488Sol     HW12939   2.694   3.155   6.436  1.4179 -0.5790 -0.4793
 2488Sol     MW12940   2.742   3.174   6.510  0.3850  0.0843 -0.1091
 2489Sol     OW12941   0.921   2.034   4.528 -0.3506 -0.1890 -0.0712
 2489Sol     HW12942   0.994   1.985   4.564 -1.5641 -1.7699  0.2730
 2489Sol     HW12943   0.890   1.981   4.455 -0.0568  1.3304 -1.3198
 2489Sol     MW12944   0.924   2.025   4.525  0.1581 -0.1870  0.1121
 2490Sol     OW12945   3.266   2.009   3.338 -0.1575 -0.4561 -0.6659
 2490Sol     HW12946   3.294   1.999   3.247  0.8815 -2.1009 -0.1918
 2490Sol     HW12947   3.186   1.958   3.344 -2.3249  2.7247 -1.5577
 2490Sol     MW12948   3.262   2.004   3.330 -0.8150  0.5846  0.6718
 2491Sol     OW12949   1.797   3.002   2.608  0.0383 -0.7788  0.0690
 2491Sol     HW12950   1.794   3.010   2.513  0.3893 -0.8059  0.0557
 2491Sol     HW12951   1.766   3.086   2.640  1.1500 -0.3090 -0.0716
 2491Sol     MW12952   1.794   3.010   2.603  0.5020  0.4187  0.4266
 2492Sol     OW12953   1.589   1.181   4.961  0.1436  0.3254  0.1629
 2492Sol     HW12954   1.508   1.222   4.930 -2.2264 -2.5909  2.1797
 2492Sol     HW12955   1.605   1.110   4.900 -0.5715 -1.0115  1.5074
 2492Sol     MW12956   1.583   1.179   4.953  0.6724  0.5498 -0.0252
 2493Sol     OW12957   0.125   0.551   9.486 -0.7356  0.1855  0.1046
 2493Sol     HW12958   0.214   0.563   9.519 -1.5993  2.4998  1.6403
 2493Sol     HW12959   0.115   0.617   9.418 -1.6204  0.5748  0.6094
 2493Sol     MW12960   0.132   0.558   9.483  0.4055 -0.0048 -0.0445
 2494Sol     OW12961   3.145   0.795   2.348  0.1085  0.4004 -0.5428
 2494Sol     HW12962   3.105   0.719   2.390 -0.4325  0.8874 -0.1778
 2494Sol     HW12963   3.226   0.810   2.397 -1.2033  1.8303  1.2734
 2494Sol     MW12964   3.149   0.790   2.356 -0.4389  0.2065  0.5090
 2495Sol     OW12965   1.788   1.386   7.985 -0.0644 -0.6358  0.0880
 2495Sol     HW12966   1.711   1.437   7.961  0.2636  1.0996  2.5633
 2495Sol     HW12967   1.854   1.411   7.921  0.0723  2.0224  1.2274
 2495Sol     MW12968   1.787   1.393   7.977  0.1563  0.3661  0.3590
 2496Sol     OW12969   2.572   0.889   5.992  0.1380 -0.0861  0.6123
 2496Sol     HW12970   2.502   0.904   5.928  0.1296 -1.8077  0.1774
 2496Sol     HW12971   2.628   0.966   5.985 -1.0318  0.7404  0.0739
 2496Sol     MW12972   2.570   0.897   5.986 -0.5668  0.3987 -0.2532
 2497Sol     OW12973   1.330   0.472   1.352  0.3777  0.9606 -0.7529
 2497Sol     HW12974   1.318   0.387   1.310  1.5211 -0.0375  0.9039
 2497Sol     HW12975   1.328   0.535   1.279  0.9093 -0.5919 -2.1403
 2497Sol     MW12976   1.329   0.470   1.341  0.2534  0.1156  0.0449
 2498Sol     OW12977   2.991   2.059   9.127  0.8556 -0.5416 -0.6960
 2498Sol     HW12978   2.939   2.030   9.201  2.7529 -1.3239  0.3546
 2498Sol     HW12979   2.977   1.992   9.060 -0.1478 -0.3010 -0.7362
 2498Sol     MW12980   2.985   2.051   9.127  0.2950  0.3136 -0.6962
 2499Sol     OW12981   0.598   2.616   8.984  0.0610  0.5782  0.5816
 2499Sol     HW12982   0.625   2.581   9.069 -0.6604  0.1520  0.6433
 2499Sol     HW12983   0.592   2.710   8.997 -4.3871  0.1846  2.2919
 2499Sol     MW12984   0.599   2.621   8.992  0.2290 -0.1202 -0.4407
 2500Sol     OW12985   2.430   3.108   3.975  0.0748 -0.0514 -0.0778
 2500Sol     HW12986   2.444   3.014   3.963  0.8071  0.1343 -0.6665
 2500Sol     HW12987   2.439   3.121   4.070 -1.4699 -0.8033  0.1837
 2500Sol     MW12988   2.432   3.101   3.983  0.4963 -0.0777  0.0711
 2501Sol     OW12989   2.534   2.018   6.938 -0.5121  0.4847 -0.6315
 2501Sol     HW12990   2.612   2.019   6.882 -0.4391  2.1571 -0.5175
 2501Sol     HW12991   2.532   1.929   6.974  1.4605  0.4718 -0.4909
 2501Sol     MW12992   2.541   2.010   6.937 -0.0963 -0.2704  0.0272
 2502Sol     OW12993   2.491   0.858   4.482  0.8886 -0.4101 -0.4290
 2502Sol     HW12994   2.499   0.952   4.466  0.1005 -0.2986 -0.2094
 2502Sol     HW12995   2.402   0.836   4.453  0.6085 -0.8383  0.7067
 2502Sol     MW12996   2.484   0.864   4.478  0.0190 -0.3100  0.9268
 2503Sol     OW12997   2.888   3.433   4.673  0.1488  0.3078 -1.0315
 2503Sol     HW12998   2.813   3.400   4.623 -0.4374 -0.4931  0.3139
 2503Sol     HW12999   2.867   3.525   4.691 -1.5356 -0.4301  1.0714
 2503Sol     MW13000   2.879   3.438   4.670  0.3253 -0.8125 -0.0816
 2504Sol     OW13001   0.038   0.009   6.637 -0.7789 -0.3957 -0.2172
 2504Sol     HW13002  -0.010   0.046   6.712  0.3059  0.7428 -0.0664
 2504Sol     HW13003   0.030   0.076   6.569 -0.2523 -0.6436 -0.5246
 2504Sol     MW13004   0.033   0.019   6.638 -0.1050 -0.2616 -0.3381
 2505Sol     OW13005   1.161   1.722   5.549 -0.1414 -0.0665  0.6207
 2505Sol     HW13006   1.124   1.677   5.625 -1.1807 -1.0119 -0.4030
 2505Sol     HW13007   1.241   1.674   5.529 -0.3603 -0.4071  0.5569
 2505Sol     MW13008   1.165   1.714   5.554 -0.1529  0.4590 -0.5535
 2506Sol     OW13009   1.002   0.606   3.950  0.3475 -0.2065 -0.3309
 2506Sol     HW13010   1.067   0.675   3.962  1.0833 -0.8675 -0.4743
 2506Sol     HW13011   0.971   0.619   3.860 -0.7139  0.9467  0.1913
 2506Sol     MW13012   1.005   0.614   3.943 -0.0949 -0.0152  0.3605
 2507Sol     OW13013   2.583   2.925   9.631  1.2212  0.1700  0.0011
 2507Sol     HW13014   2.542   2.893   9.551 -1.3098  0.0286  1.3093
 2507Sol     HW13015   2.663   2.873   9.641  1.7466  0.4505 -2.5938
 2507Sol     MW13016   2.587   2.918   9.625  0.4499 -0.1699  0.2351
 2508Sol     OW13017   2.415   2.846   4.042  0.5887  0.2514  0.1838
 2508Sol     HW13018   2.399   2.806   4.128 -1.0939 -0.0594 -0.2611
 2508Sol     HW13019   2.354   2.802   3.983  1.1031  1.0937 -0.9892
 2508Sol     MW13020   2.408   2.839   4.045  0.1407 -0.6222 -0.1003
 2509Sol     OW13021   2.527   2.857   6.050 -0.6596  0.4334  0.5597
 2509Sol     HW13022   2.475   2.787   6.010  1.3673  0.1792 -1.6969
 2509Sol     HW13023   2.614   2.847   6.013  0.3838  2.4543  2.3499
 2509Sol     MW13024   2.530   2.850   6.044 -0.2105  0.2552 -0.3376
 2510Sol     OW13025   0.183   3.371   6.997 -0.2547  0.0836 -0.7982
 2510Sol     HW13026   0.134   3.313   6.939  0.8389 -0.7670 -0.8920
 2510Sol     HW13027   0.273   3.337   6.994  0.1138  0.9481  0.2241
 2510Sol     MW13028   0.187   3.363   6.991 -0.0368 -0.3376  0.5315
 2511Sol     OW13029   0.811   3.283   3.539  0.6622  0.5198  0.1638
 2511Sol     HW13030   0.718   3.277   3.564  0.9455 -2.0120  0.7267
 2511Sol     HW13031   0.844   3.358   3.588 -1.2444  1.8741 -0.5706
 2511Sol     MW13032   0.805   3.289   3.546 -0.1686 -0.5483  0.8740
 2512Sol     OW13033   2.167   1.387   8.466  0.4249 -0.4948 -0.2311
 2512Sol     HW13034   2.202   1.299   8.471  0.1473 -0.6935 -1.7175
 2512Sol     HW13035   2.073   1.377   8.485  0.3379 -0.5498 -0.7043
 2512Sol     MW13036   2.162   1.379   8.469  1.1696  0.3967  1.1550
 2513Sol     OW13037   0.474   0.631   7.290 -0.3755 -0.3313  0.3278
 2513Sol     HW13038   0.413   0.681   7.235 -0.2635 -0.7173 -0.1454
 2513Sol     HW13039   0.457   0.540   7.268  0.0673 -0.4603  0.5186
 2513Sol     MW13040   0.467   0.627   7.283  0.4283 -0.2484  1.1926
 2514Sol     OW13041   2.445   0.912   9.866 -0.2591 -0.1713 -0.3707
 2514Sol     HW13042   2.467   0.993   9.820 -2.3610  0.5967 -0.0614
 2514Sol     HW13043   2.469   0.930   9.957  0.2647 -0.2875 -0.4832
 2514Sol     MW13044   2.449   0.921   9.870 -0.0482  0.4286 -0.2537
 2515Sol     OW13045   3.243   1.417   2.657 -0.3774  0.2348  0.0915
 2515Sol     HW13046   3.179   1.460   2.714  1.3177  0.3534  1.9591
 2515Sol     HW13047   3.309   1.485   2.640 -1.1963  0.3869 -2.5551
 2515Sol     MW13048   3.243   1.427   2.661 -0.4170  0.3792 -0.3953
 2516Sol     OW13049   0.911   2.467   1.901  0.7337  0.2449 -0.1212
 2516Sol     HW13050   0.992   2.431   1.938  0.9955  1.5513  0.6236
 2516Sol     HW13051   0.940   2.522   1.829  0.7481  2.6311  1.6355
 2516Sol     MW13052   0.921   2.469   1.898 -0.6576  0.0898  0.5089
 2517Sol     OW13053   1.752   3.209   5.724  0.2827  0.0456 -0.2643
 2517Sol     HW13054   1.723   3.258   5.801 -0.3103 -0.2653 -0.2880
 2517Sol     HW13055   1.680   3.218   5.661  1.1821  1.1513 -1.1704
 2517Sol     MW13056   1.743   3.215   5.725 -0.6421  0.1824  0.0888
 2518Sol     OW13057   2.000   1.269   6.084  0.2073 -0.5569  0.6935
 2518Sol     HW13058   1.940   1.194   6.087  0.0954 -0.4150  3.2510
 2518Sol     HW13059   2.083   1.231   6.058 -0.5661 -1.0501 -1.1255
 2518Sol     MW13060   2.002   1.259   6.082  0.1788 -0.5842 -0.3639
 2519Sol     OW13061   2.895   1.804   2.616  0.6298 -0.2800 -0.1452
 2519Sol     HW13062   2.810   1.763   2.597  0.7773 -0.5206 -0.2956
 2519Sol     HW13063   2.908   1.866   2.545  0.4241 -0.0039  0.0595
 2519Sol     MW13064   2.888   1.806   2.608 -0.1495  0.1780  0.0555
 2520Sol     OW13065   0.635   0.931   3.327 -0.7783  0.1836 -0.4648
 2520Sol     HW13066   0.619   0.984   3.249  0.1490 -0.3021 -0.9950
 2520Sol     HW13067   0.630   0.841   3.296 -2.1255 -0.0513  0.3890
 2520Sol     MW13068   0.633   0.928   3.317 -0.0031 -0.3010  0.3135
 2521Sol     OW13069   1.996   1.229   4.342  0.2820  0.4346  0.5475
 2521Sol     HW13070   2.016   1.298   4.279 -0.6983 -1.7039 -2.2198
 2521Sol     HW13071   2.057   1.243   4.414  0.3249  3.9391 -0.1005
 2521Sol     MW13072   2.003   1.236   4.343  0.0991  0.1248  0.1366
 2522Sol     OW13073   0.195   1.110   3.302  0.1687  0.0873 -0.0498
 2522Sol     HW13074   0.129   1.049   3.271  1.7896 -1.3368 -0.7625
 2522Sol     HW13075   0.219   1.161   3.225  0.3776  0.1561  0.0609
 2522Sol     MW13076   0.191   1.109   3.293  0.1431 -0.6110 -0.4665
 2523Sol     OW13077   2.208   0.577   1.565 -0.1456 -0.2296 -0.0080
 2523Sol     HW13078   2.163   0.553   1.646  0.7310  1.0242  0.8736
 2523Sol     HW13079   2.152   0.645   1.526  0.3179  0.4186  0.4436
 2523Sol     MW13080   2.199   0.581   1.569 -0.6971 -0.2174  0.0183
 2524Sol     OW13081   2.553   1.729   1.954  0.9093 -0.0826 -0.3566
 2524Sol     HW13082   2.639   1.694   1.975  0.2823  0.0099  2.5840
 2524Sol     HW13083   2.495   1.653   1.959  0.4801  0.2615 -0.0700
 2524Sol     MW13084   2.555   1.719   1.956 -0.3097 -0.7490 -0.4589
 2525Sol     OW13085   2.841   1.383   4.380  0.0627 -0.3963  0.3029
 2525Sol     HW13086   2.757   1.398   4.421 -0.5847  0.1921 -1.1895
 2525Sol     HW13087   2.877   1.307   4.425 -1.1630 -0.5163  1.0900
 2525Sol     MW13088   2.837   1.378   4.387  0.2323  0.0975  0.4699
 2526Sol     OW13089   2.726   3.166   6.023 -0.2101  0.2710  0.4341
 2526Sol     HW13090   2.780   3.198   6.096 -0.5873  1.5582  0.1554
 2526Sol     HW13091   2.637   3.195   6.045 -0.2833  0.9033 -0.6735
 2526Sol     MW13092   2.723   3.171   6.032 -0.3030 -1.1295  0.0146
 2527Sol     OW13093   2.369   1.468   5.098  0.2097 -0.4623 -0.2362
 2527Sol     HW13094   2.372   1.510   5.012 -1.2285 -0.4949 -0.3178
 2527Sol     HW13095   2.303   1.399   5.088  0.0867 -0.5052  0.8811
 2527Sol     MW13096   2.363   1.465   5.089 -0.5253 -0.4111  0.4642
 2528Sol     OW13097   2.249   1.044   1.459  0.2561 -0.8122  0.4825
 2528Sol     HW13098   2.174   0.986   1.449 -0.2403  0.0564 -0.8748
 2528Sol     HW13099   2.300   1.033   1.379  0.1069  0.6830  0.1682
 2528Sol     MW13100   2.247   1.038   1.451 -0.2444 -0.6251  0.6443
 2529Sol     OW13101   1.293   1.941   3.704  0.3256  0.0114 -0.0442
 2529Sol     HW13102   1.249   1.895   3.633 -0.5620 -0.6596  0.9164
 2529Sol     HW13103   1.292   2.033   3.678  1.9778 -0.4623 -1.9150
 2529Sol     MW13104   1.289   1.945   3.695  0.5473 -0.1411 -0.5400
 2530Sol     OW13105   1.115   0.121   3.212  0.2041 -0.0972 -0.0150
 2530Sol     HW13106   1.112   0.209   3.249  0.9379 -0.0671 -0.0115
 2530Sol     HW13107   1.184   0.126   3.145  1.3680 -1.0773  1.0816
 2530Sol     MW13108   1.121   0.129   3.209  0.3131  0.3476 -0.4557
 2531Sol     OW13109   0.132   2.685   2.126 -0.8336 -0.3664  0.6706
 2531Sol     HW13110   0.188   2.692   2.203 -0.5231 -0.2389  0.4349
 2531Sol     HW13111   0.054   2.737   2.148  0.0141  1.1296  0.2316
 2531Sol     MW13112   0.130   2.690   2.135  0.0420 -0.3187  0.0725
 2532Sol     OW13113   0.762   0.809   9.700 -0.0479 -1.1026  0.8810
 2532Sol     HW13114   0.786   0.785   9.790  0.5151  0.9944  1.2976
 2532Sol     HW13115   0.833   0.774   9.646  0.9883 -0.0363  1.5283
 2532Sol     MW13116   0.770   0.803   9.704 -0.2447  0.0836  0.4333
 2533Sol     OW13117   2.997   2.267   6.879  0.6237  0.2125  0.2200
 2533Sol     HW13118   3.090   2.250   6.865  0.5869  0.9552 -1.0007
 2533Sol     HW13119   2.959   2.266   6.791 -0.6652 -0.9111  0.7872
 2533Sol     MW13120   3.002   2.266   6.870 -0.0036 -0.3280  0.2026
 2534Sol     OW13121   3.120   1.247   8.069 -0.3940  0.2447 -0.1387
 2534Sol     HW13122   3.033   1.284   8.082 -0.6559 -0.1655 -0.7190
 2534Sol     HW13123   3.151   1.285   7.987 -0.7185 -0.8914 -0.8044
 2534Sol     MW13124   3.115   1.254   8.063  0.5044  0.6898  0.3971
 2535Sol     OW13125   1.314   2.868   8.881 -0.2958 -0.1237  0.1884
 2535Sol     HW13126   1.254   2.877   8.807 -1.0869 -1.5876  0.6129
 2535Sol     HW13127   1.289   2.938   8.941 -0.3183  0.4406 -0.4731
 2535Sol     MW13128   1.306   2.875   8.880 -0.4677  0.1365  0.1225
 2536Sol     OW13129   2.945   0.583   4.108 -0.1898  0.1623  0.3294
 2536Sol     HW13130   2.987   0.667   4.089 -1.4110  0.5892 -0.6045
 2536Sol     HW13131   2.925   0.586   4.201  1.3084  0.1812  0.6691
 2536Sol     MW13132   2.947   0.591   4.114  0.5483  0.4951 -0.4080
 2537Sol     OW13133   2.331   2.020   6.542 -0.0390 -0.2503  0.3062
 2537Sol     HW13134   2.255   2.038   6.597  0.7569  0.4647  1.2057
 2537Sol     HW13135   2.332   1.925   6.531 -0.1294 -0.4139  1.6573
 2537Sol     MW13136   2.324   2.013   6.546 -0.2997 -0.1098 -0.5319
 2538Sol     OW13137   1.707   2.787   3.903  0.3044  0.6980 -0.1877
 2538Sol     HW13138   1.740   2.835   3.978  1.1697  2.7325 -1.8409
 2538Sol     HW13139   1.784   2.746   3.864 -0.2131 -0.8124  0.3013
 2538Sol     MW13140   1.717   2.787   3.906  0.6796  1.2597 -0.0341
 2539Sol     OW13141   1.958   2.882   1.759 -0.3329 -0.8657  0.2102
 2539Sol     HW13142   2.028   2.819   1.772  1.3666  0.9586  0.1857
 2539Sol     HW13143   1.942   2.882   1.665  0.9084  0.0071 -0.0124
 2539Sol     MW13144   1.963   2.877   1.752 -0.3203  0.2578  0.1672
 2540Sol     OW13145   1.380   2.595   7.250 -0.2541  0.1364  0.5871
 2540Sol     HW13146   1.323   2.670   7.234  0.8475  1.7969  3.9953
 2540Sol     HW13147   1.332   2.540   7.312 -0.4753 -1.3054 -0.8371
 2540Sol     MW13148   1.371   2.597   7.254  0.5748  0.6973 -0.0887
 2541Sol     OW13149   1.446   0.230   6.373  0.5700 -0.6409  0.3516
 2541Sol     HW13150   1.392   0.310   6.373  0.2028 -0.8835  0.9847
 2541Sol     HW13151   1.534   0.261   6.354  0.1864 -0.2550 -0.8201
 2541Sol     MW13152   1.449   0.240   6.372  0.1718  0.0567 -0.1650
 2542Sol     OW13153   1.037   1.655   3.377  0.0960  0.1863 -0.4677
 2542Sol     HW13154   0.989   1.700   3.307  0.5214  1.6848  0.1728
 2542Sol     HW13155   0.976   1.654   3.451  0.0521 -0.3990 -0.5090
 2542Sol     MW13156   1.027   1.659   3.377  0.2526  0.4991  0.9241
 2543Sol     OW13157   2.070   2.958   9.991 -0.0584  0.0339  0.3658
 2543Sol     HW13158   2.087   2.918  10.076  0.5957  3.2045  1.8013
 2543Sol     HW13159   2.096   2.892   9.928  1.7788 -1.4842  2.6263
 2543Sol     MW13160   2.074   2.949   9.993  0.0890  0.0716 -0.0823
 2544Sol     OW13161   0.840   1.839   7.906  0.2022 -0.4290 -0.0097
 2544Sol     HW13162   0.848   1.746   7.884 -0.1609 -1.0098  2.2387
 2544Sol     HW13163   0.749   1.860   7.884  0.0998 -0.7718  0.0764
 2544Sol     MW13164   0.832   1.833   7.902  0.2942 -0.1377 -0.1962
 2545Sol     OW13165   2.256   0.874   2.071  0.1384  0.0440 -0.2305
 2545Sol     HW13166   2.174   0.882   2.119 -0.9641  1.9531 -2.3307
 2545Sol     HW13167   2.324   0.897   2.135 -0.9851 -0.9057  1.3404
 2545Sol     MW13168   2.255   0.877   2.081 -0.2719 -0.8496 -0.2024
 2546Sol     OW13169   0.239   2.575   5.647  0.4846 -0.2645 -0.1825
 2546Sol     HW13170   0.269   2.488   5.673 -1.2014 -0.4397  1.3020
 2546Sol     HW13171   0.152   2.583   5.686 -0.3566  1.1937 -2.2171
 2546Sol     MW13172   0.234   2.568   5.653  0.0867 -0.3239  0.5273
 2547Sol     OW13173   0.305   1.501   8.926  0.5164 -0.2701 -0.1384
 2547Sol     HW13174   0.345   1.536   9.006  0.5218 -0.1035 -0.2128
 2547Sol     HW13175   0.359   1.538   8.856 -0.2193  0.5536 -0.2768
 2547Sol     MW13176   0.314   1.508   8.927  0.2106 -0.1571 -0.0220
 2548Sol     OW13177   2.722   2.482   9.200  0.3501 -0.1282 -1.1247
 2548Sol     HW13178   2.814   2.462   9.218  0.4660  0.6794 -0.7719
 2548Sol     HW13179   2.720   2.503   9.107  0.3081 -1.3186 -1.3936
 2548Sol     MW13180   2.730   2.482   9.193  0.2600 -0.0027 -0.3450
 2549Sol     OW13181   2.472   1.757   9.309 -0.3195  0.0810  0.1577
 2549Sol     HW13182   2.395   1.781   9.257 -0.6598  0.1910  0.7018
 2549Sol     HW13183   2.541   1.740   9.244 -0.9653 -0.6181 -0.3646
 2549Sol     MW13184   2.471   1.757   9.298  0.1968  0.4170 -0.3854
 2550Sol     OW13185   0.295   1.183   2.179 -0.8435 -0.4518  0.3449
 2550Sol     HW13186   0.382   1.221   2.184 -1.2025  0.8344 -2.2812
 2550Sol     HW13187   0.309   1.093   2.150 -0.4098 -0.0336 -0.7607
 2550Sol     MW13188   0.304   1.178   2.177  0.3318  0.5668 -0.1782
 2551Sol     OW13189   0.118   2.289   4.280 -0.5744 -0.5039  0.4016
 2551Sol     HW13190   0.203   2.252   4.302 -0.7630 -0.2673  1.5987
 2551Sol     HW13191   0.123   2.310   4.187  1.5761  1.8181  0.9853
 2551Sol     MW13192   0.126   2.288   4.274  0.0528  0.1425  0.2350
 2552Sol     OW13193   0.402   1.319   4.316 -0.2502 -0.4434  0.1535
 2552Sol     HW13194   0.381   1.349   4.405  0.7566 -0.5593  0.4345
 2552Sol     HW13195   0.419   1.226   4.326 -0.2665 -0.4805 -0.1826
 2552Sol     MW13196   0.402   1.314   4.325  0.2597  0.4669  0.4220
 2553Sol     OW13197   3.266   2.099   8.981 -0.1767  0.0474  0.1276
 2553Sol     HW13198   3.270   2.055   8.897  1.7867 -0.2364  0.3387
 2553Sol     HW13199   3.175   2.087   9.010  0.3615 -4.3320  0.4233
 2553Sol     MW13200   3.258   2.094   8.976  0.1653 -0.1791 -0.4433
 2554Sol     OW13201   1.821   2.562   6.154  0.0660  0.2834 -0.0221
 2554Sol     HW13202   1.807   2.647   6.196  1.9218 -0.0729  1.3787
 2554Sol     HW13203   1.870   2.582   6.074 -1.8294  0.7669 -1.1089
 2554Sol     MW13204   1.824   2.571   6.151  0.1327  0.4148 -0.3901
 2555Sol     OW13205   1.779   2.132   7.219 -0.8585  0.2550  0.2292
 2555Sol     HW13206   1.874   2.126   7.221 -0.9271 -1.5356 -0.6753
 2555Sol     HW13207   1.761   2.208   7.162  0.0328 -1.1788 -2.0507
 2555Sol     MW13208   1.786   2.138   7.214  0.4236  0.0913  0.4697
 2556Sol     OW13209   2.795   1.473   4.727 -0.5811  0.0649  0.2187
 2556Sol     HW13210   2.867   1.416   4.699 -1.9974 -2.1070  0.8033
 2556Sol     HW13211   2.805   1.480   4.822 -0.3863  0.8232  0.1413
 2556Sol     MW13212   2.802   1.468   4.733  0.1508 -0.5971 -0.2243
 2557Sol     OW13213   3.213   2.822   2.226 -0.9680 -0.2415  0.2613
 2557Sol     HW13214   3.159   2.761   2.176  0.1086 -0.3172 -0.8236
 2557Sol     HW13215   3.209   2.904   2.178 -0.3742 -0.1592  0.3412
 2557Sol     MW13216   3.208   2.824   2.218 -0.4612 -0.4149 -0.0230
 2558Sol     OW13217   2.737   2.228   1.996  0.4626 -0.2139  0.6878
 2558Sol     HW13218   2.728   2.170   1.921  0.6488  0.0632  0.4531
 2558Sol     HW13219   2.828   2.258   1.993  0.8123 -1.1185  1.6891
 2558Sol     MW13220   2.744   2.226   1.989 -0.3675  0.8250 -0.3636
 2559Sol     OW13221   2.026   1.055   8.114 -0.0290 -0.0453  0.1570
 2559Sol     HW13222   2.072   0.987   8.162 -0.1804 -1.1244 -1.2323
 2559Sol     HW13223   2.058   1.137   8.153 -0.1010 -0.8909  2.0529
 2559Sol     MW13224   2.033   1.057   8.122  0.7877 -0.7501  0.5948
 2560Sol     OW13225   0.740   3.137   5.792 -0.0051  0.0828  0.3112
 2560Sol     HW13226   0.685   3.187   5.730 -0.2227  0.0742  0.4974
 2560Sol     HW13227   0.805   3.094   5.736  0.5993  1.1084  0.2072
 2560Sol     MW13228   0.741   3.138   5.781  0.8417 -0.3154  0.1232
 2561Sol     OW13229   0.796   0.440   8.849  0.7096  0.0700  0.1642
 2561Sol     HW13230   0.761   0.509   8.793  0.0669  0.1468  0.6557
 2561Sol     HW13231   0.861   0.484   8.904  1.3808 -0.0166 -0.5538
 2561Sol     MW13232   0.799   0.450   8.849 -0.0931  0.8503 -0.5881
 2562Sol     OW13233   1.058   2.081   7.351 -0.5442  0.1874  0.2214
 2562Sol     HW13234   1.027   2.136   7.279  0.0566 -0.1304 -0.2931
 2562Sol     HW13235   1.151   2.065   7.331 -0.5692 -0.5599  0.6497
 2562Sol     MW13236   1.064   2.084   7.343 -0.0650 -0.1836 -0.3292
 2563Sol     OW13237   1.141   1.232   2.154  0.0059  0.1812 -0.5836
 2563Sol     HW13238   1.143   1.326   2.139 -0.6714  0.4632  0.9334
 2563Sol     HW13239   1.189   1.194   2.081  1.0594  1.7682 -0.7311
 2563Sol     MW13240   1.145   1.237   2.146  0.1040  0.3115 -0.7240
 2564Sol     OW13241   0.494   2.969   5.693  0.1647  0.2716 -0.3428
 2564Sol     HW13242   0.471   3.059   5.716  0.5566  0.3089 -0.1027
 2564Sol     HW13243   0.469   2.962   5.600 -1.0499  0.2305 -0.0218
 2564Sol     MW13244   0.490   2.977   5.686 -0.2206  0.1264  0.1838
 2565Sol     OW13245   3.300   1.372   4.158  0.1381  0.8106  0.9125
 2565Sol     HW13246   3.373   1.434   4.153  0.5738  0.2175 -0.6139
 2565Sol     HW13247   3.342   1.286   4.146 -0.8277  0.4876 -0.3054
 2565Sol     MW13248   3.311   1.370   4.156  0.2335  0.3140  0.0351
 2566Sol     OW13249   2.515   1.888   2.459  0.0971  0.1410  0.0412
 2566Sol     HW13250   2.443   1.846   2.412 -0.1485 -0.3893  0.8667
 2566Sol     HW13251   2.565   1.815   2.496 -0.4994  0.5642  1.7485
 2566Sol     MW13252   2.513   1.878   2.458  0.0241 -0.0704  0.0339
 2567Sol     OW13253   2.715   0.655   8.107  0.1992 -0.0722  0.1709
 2567Sol     HW13254   2.646   0.665   8.172  0.6730 -0.2079  0.7096
 2567Sol     HW13255   2.679   0.691   8.026 -0.2858  0.3927  0.5913
 2567Sol     MW13256   2.706   0.659   8.106  0.4788  0.0159 -0.4143
 2568Sol     OW13257   2.377   2.670   9.041 -0.5474  0.9119  0.0555
 2568Sol     HW13258   2.419   2.684   9.126 -0.1247 -1.3533  0.2396
 2568Sol     HW13259   2.408   2.584   9.012 -2.0452  0.8938 -1.5913
 2568Sol     MW13260   2.383   2.664   9.046 -0.6332  0.8517  0.1762
 2569Sol     OW13261   3.294   3.322   2.097  0.4598  0.1250 -0.5536
 2569Sol     HW13262   3.366   3.381   2.118  0.6929 -0.4327  0.2623
 2569Sol     HW13263   3.234   3.330   2.171  0.9683 -1.3659  0.0456
 2569Sol     MW13264   3.295   3.328   2.105 -0.3493  0.4498  0.1188
 2570Sol     OW13265   0.315   3.444   9.186  0.0342 -0.2678  0.5865
 2570Sol     HW13266   0.294   3.350   9.181  1.9157 -0.7776  1.6926
 2570Sol     HW13267   0.376   3.458   9.114 -0.2482  0.1074  0.4226
 2570Sol     MW13268   0.319   3.437   9.179 -0.5369 -0.1296 -0.4919
 2571Sol     OW13269   1.921   1.686   3.496  0.1883 -0.9123 -0.0104
 2571Sol     HW13270   1.916   1.646   3.582  1.9120 -0.0460  0.5067
 2571Sol     HW13271   1.913   1.613   3.434 -2.2011 -1.4183  0.8327
 2571Sol     MW13272   1.919   1.676   3.498  0.1727 -0.6627 -0.8476
 2572Sol     OW13273   1.685   2.417   8.724  0.0295 -0.1712  0.1647
 2572Sol     HW13274   1.627   2.447   8.654 -0.3072 -1.0676  0.0464
 2572Sol     HW13275   1.768   2.398   8.680  0.1400  0.2690  0.1842
 2572Sol     MW13276   1.687   2.418   8.714 -0.5857  0.0441 -0.6884
 2573Sol     OW13277   0.375   0.355   8.134  0.2548 -0.1633 -0.5859
 2573Sol     HW13278   0.311   0.425   8.133 -0.2887 -0.6166  1.0860
 2573Sol     HW13279   0.427   0.370   8.213  1.4632 -0.4684 -1.2981
 2573Sol     MW13280   0.374   0.362   8.141  0.8365 -0.0856 -0.1462
 2574Sol     OW13281   0.325   2.874   3.470 -0.7872  0.5045 -0.0701
 2574Sol     HW13282   0.287   2.836   3.390  0.2639  1.8313 -1.2348
 2574Sol     HW13283   0.391   2.936   3.438  0.3029  0.3817  1.8536
 2574Sol     MW13284   0.328   2.876   3.460  0.3862  0.2983 -0.2363
 2575Sol     OW13285   2.495   2.216   3.290 -0.2846 -0.2051  0.5939
 2575Sol     HW13286   2.417   2.161   3.301  0.0214 -1.1699 -1.7876
 2575Sol     HW13287   2.460   2.300   3.258 -0.6148  0.5262  2.7836
 2575Sol     MW13288   2.485   2.219   3.288  0.2830 -0.3680 -0.0302
 2576Sol     OW13289   2.935   1.927   8.501  0.1159  0.0896 -0.0208
 2576Sol     HW13290   3.023   1.890   8.494  0.1587  0.2698 -0.4304
 2576Sol     HW13291   2.903   1.929   8.411 -0.1294  0.4586  0.0760
 2576Sol     MW13292   2.940   1.924   8.492  0.2952 -0.3878  0.1623
 2577Sol     OW13293   1.140   1.487   2.142 -0.2826  0.4091 -0.4737
 2577Sol     HW13294   1.055   1.531   2.145 -0.3802  0.2931 -1.3975
 2577Sol     HW13295   1.192   1.533   2.208 -1.1774  0.2212  0.3867
 2577Sol     MW13296   1.137   1.495   2.149  0.9757  0.3053  0.0880
 2578Sol     OW13297   2.369   0.150   3.107  0.2948 -0.4687 -0.3665
 2578Sol     HW13298   2.333   0.091   3.173  2.6626 -2.2794 -0.6237
 2578Sol     HW13299   2.456   0.172   3.140  0.7456  0.1899 -1.9305
 2578Sol     MW13300   2.374   0.147   3.116  1.0970  0.3306 -1.3210
 2579Sol     OW13301   2.134   0.138   1.979  0.2057  0.0603  0.0506
 2579Sol     HW13302   2.222   0.104   1.962  0.5779  0.7329  0.5938
 2579Sol     HW13303   2.080   0.103   1.908  1.3073  1.1730 -1.3680
 2579Sol     MW13304   2.137   0.132   1.971 -0.1533  0.1408 -0.0789
 2580Sol     OW13305   0.082   2.903   6.889  0.1414 -0.0256  0.0740
 2580Sol     HW13306   0.162   2.851   6.891  0.1027 -0.0808  0.2458
 2580Sol     HW13307   0.068   2.928   6.981  0.3805  0.6192 -0.0606
 2580Sol     MW13308   0.088   2.901   6.898  0.1867 -0.5488 -0.3587
 2581Sol     OW13309   3.042   3.244   3.929  0.1658  0.2492 -0.0792
 2581Sol     HW13310   3.133   3.231   3.904  0.6016 -1.0351  2.1120
 2581Sol     HW13311   3.014   3.321   3.879  2.4633  0.7266 -0.6704
 2581Sol     MW13312   3.047   3.250   3.922 -0.3689  0.5017  0.3082
 2582Sol     OW13313   3.321   2.918   9.721  0.0858 -1.1706  0.8737
 2582Sol     HW13314   3.245   2.970   9.695 -0.7000 -2.9745 -0.5323
 2582Sol     HW13315   3.307   2.833   9.680  3.1850 -1.3546  0.0495
 2582Sol     MW13316   3.313   2.915   9.715  0.6508 -0.2530 -0.1010
 2583Sol     OW13317   0.881   2.357   5.247 -0.3220 -0.0220 -0.0210
 2583Sol     HW13318   0.853   2.445   5.223 -0.8423  0.6991  3.0080
 2583Sol     HW13319   0.969   2.369   5.284 -0.5713 -0.7150  0.8110
 2583Sol     MW13320   0.886   2.366   5.248  0.0822  0.1127  0.4129
 2584Sol     OW13321   1.863   2.201   9.519 -0.5977 -0.5997 -0.2705
 2584Sol     HW13322   1.838   2.224   9.430 -0.7681  2.2327  0.4635
 2584Sol     HW13323   1.790   2.231   9.573  0.3855 -0.4717  1.0130
 2584Sol     MW13324   1.854   2.206   9.516  0.2654 -0.0813 -0.4465
 2585Sol     OW13325   3.048   3.178   9.115  0.0819 -0.2142 -0.5012
 2585Sol     HW13326   3.031   3.129   9.195  2.8044 -0.9427 -0.3185
 2585Sol     HW13327   3.042   3.113   9.044 -1.4414  0.2470 -0.8005
 2585Sol     MW13328   3.046   3.168   9.115 -0.1142  0.1459  0.1897
 2586Sol     OW13329   0.982   2.475   7.920  0.7760 -0.1749 -0.2361
 2586Sol     HW13330   1.058   2.485   7.864  2.2319 -0.8697  1.5610
 2586Sol     HW13331   0.911   2.449   7.861  1.8122  0.9220 -1.9842
 2586Sol     MW13332   0.982   2.473   7.910 -1.0701 -0.0264 -0.1076
 2587Sol     OW13333   1.243   1.210   6.659 -0.3111  0.1830  0.8961
 2587Sol     HW13334   1.318   1.163   6.623 -0.7372 -0.1491  0.4348
 2587Sol     HW13335   1.270   1.234   6.747 -0.0035 -0.7314  1.0561
 2587Sol     MW13336   1.252   1.208   6.663  0.0583  0.0416 -0.0168
 2588Sol     OW13337   0.545   0.535   5.429  0.1418 -0.0945  0.3089
 2588Sol     HW13338   0.484   0.566   5.363  0.0284 -0.4417  0.2512
 2588Sol     HW13339   0.511   0.450   5.456  1.7651 -1.2932 -1.2604
 2588Sol     MW13340   0.537   0.530   5.426  0.0459 -0.1579 -0.4678
 2589Sol     OW13341   1.879   2.191   9.922  0.3163  0.2145 -0.5166
 2589Sol     HW13342   1.820   2.184   9.847  1.1557 -3.3162 -0.9621
 2589Sol     HW13343   1.907   2.100   9.939  1.2501  1.0868  3.1663
 2589Sol     MW13344   1.876   2.182   9.917  0.3534 -0.1002  0.0835
 2590Sol     OW13345   0.476   3.015   9.203  0.9697 -0.3129  0.2134
 2590Sol     HW13346   0.469   2.961   9.282  1.8131 -1.3456 -0.4035
 2590Sol     HW13347   0.525   2.961   9.142  0.2235  0.4317 -1.0666
 2590Sol     MW13348   0.479   3.005   9.205 -0.3676  0.6922  0.7237
 2591Sol     OW13349   0.061   1.136   8.031  0.2082  0.1669 -0.0125
 2591Sol     HW13350  -0.033   1.153   8.035  0.0938 -0.3666 -0.3298
 2591Sol     HW13351   0.071   1.049   8.071  0.5223  0.0662 -0.3060
 2591Sol     MW13352   0.053   1.129   8.035  1.1320 -0.3002 -0.3859
 2592Sol     OW13353   1.751   0.952   2.502 -0.0735 -0.1832  0.2020
 2592Sol     HW13354   1.728   0.993   2.419  0.4497 -0.6061 -0.1580
 2592Sol     HW13355   1.843   0.976   2.516 -0.0574 -0.4069  0.4802
 2592Sol     MW13356   1.758   0.958   2.496  0.2660  0.0763  0.0997
 2593Sol     OW13357   3.086   2.073   7.317  0.0368  0.0946  0.0902
 2593Sol     HW13358   3.093   2.167   7.333  0.9133  0.0087  0.2408
 2593Sol     HW13359   3.024   2.065   7.245 -0.9409  0.7144  0.8502
 2593Sol     MW13360   3.081   2.080   7.312 -0.2454 -0.8479 -0.0248
 2594Sol     OW13361   1.771   2.158   3.563  0.1182  0.2112 -0.0876
 2594Sol     HW13362   1.779   2.070   3.526 -0.8888  0.6363 -1.3543
 2594Sol     HW13363   1.739   2.144   3.652 -0.7026 -0.6785 -0.5162
 2594Sol     MW13364   1.769   2.149   3.568  0.7901  0.2232 -0.3641
 2595Sol     OW13365   0.349   0.656   1.908  0.4080 -0.0867 -0.0090
 2595Sol     HW13366   0.441   0.669   1.932 -0.2157  1.5596  1.5466
 2595Sol     HW13367   0.348   0.663   1.812  1.7716  0.7918  0.0298
 2595Sol     MW13368   0.357   0.658   1.901  0.3168 -0.1232  0.4276
 2596Sol     OW13369   2.242   0.023   1.506 -0.0183  0.4843  0.3369
 2596Sol     HW13370   2.307   0.091   1.484  0.5629 -0.0740  0.3091
 2596Sol     HW13371   2.165   0.046   1.454  0.8508  0.0099 -1.1870
 2596Sol     MW13372   2.241   0.031   1.499  1.0716 -0.3640 -0.2001
 2597Sol     OW13373   2.979   1.741   7.017  0.0236 -0.0478  0.4776
 2597Sol     HW13374   2.969   1.744   6.922  0.0187  0.0333  0.4804
 2597Sol     HW13375   3.065   1.778   7.033 -0.8263  1.9068  0.6580
 2597Sol     MW13376   2.986   1.744   7.010  0.4014 -0.0153  0.0200
 2598Sol     OW13377   0.613   0.206   7.445  0.8607 -0.0348 -0.0537
 2598Sol     HW13378   0.556   0.137   7.478  0.6063  0.0526 -0.3122
 2598Sol     HW13379   0.679   0.217   7.513 -0.5684  1.2503  1.1288
 2598Sol     MW13380   0.614   0.201   7.454  0.5300 -0.4673 -0.1444
 2599Sol     OW13381   3.201   1.207   9.668  0.0061  0.5002 -0.2306
 2599Sol     HW13382   3.267   1.257   9.715 -0.3256  0.3986  0.3522
 2599Sol     HW13383   3.234   1.201   9.579  0.7744  0.4713  0.0519
 2599Sol     MW13384   3.210   1.211   9.664 -0.8076 -0.1083  0.1833
 2600Sol     OW13385   1.621   3.082   3.329  0.5460 -0.0747  0.3618
 2600Sol     HW13386   1.679   3.062   3.401  0.6479  1.1717  0.6448
 2600Sol     HW13387   1.677   3.081   3.251  0.8341  0.5227  0.5570
 2600Sol     MW13388   1.631   3.080   3.328  0.2578 -0.3264  0.3438
 2601Sol     OW13389   1.208   1.759   7.044  0.2109  0.5371 -0.0954
 2601Sol     HW13390   1.289   1.801   7.015  0.0228  1.4442  0.6749
 2601Sol     HW13391   1.213   1.670   7.008  1.5226  0.5948 -0.0966
 2601Sol     MW13392   1.216   1.755   7.038  0.4946  0.3345  0.3092
 2602Sol     OW13393   1.376   1.612   3.193  0.3263 -0.3601 -0.2090
 2602Sol     HW13394   1.416   1.537   3.148  0.3375 -1.1048  1.0111
 2602Sol     HW13395   1.353   1.578   3.280  1.2940  1.3556  0.7312
 2602Sol     MW13396   1.377   1.602   3.197 -0.4015 -0.1754 -0.2711
 2603Sol     OW13397   0.305   3.165   5.024  0.6482 -0.3087  0.4123
 2603Sol     HW13398   0.258   3.098   4.974  2.1869 -0.9696 -0.1496
 2603Sol     HW13399   0.260   3.247   5.003  0.9172 -0.6630 -1.5909
 2603Sol     MW13400   0.296   3.166   5.018 -0.3481 -0.3294 -0.3095
 2604Sol     OW13401   2.457   0.328   1.766  0.1105  0.1785 -0.4489
 2604Sol     HW13402   2.442   0.323   1.672 -0.2118 -1.7505 -0.3052
 2604Sol     HW13403   2.371   0.344   1.804  0.0967 -0.0114 -0.4021
 2604Sol     MW13404   2.448   0.329   1.761  0.1654 -0.3301 -0.3911
 2605Sol     OW13405   1.585   1.742   8.195 -0.0443  0.5859 -0.0471
 2605Sol     HW13406   1.504   1.700   8.224 -0.5977  0.9620 -1.0397
 2605Sol     HW13407   1.648   1.670   8.188 -0.1137  0.3790  1.3246
 2605Sol     MW13408   1.584   1.732   8.197  0.7269  0.2115 -0.2384
 2606Sol     OW13409   2.227   1.964   9.479 -0.4944  0.2443 -0.2491
 2606Sol     HW13410   2.301   1.998   9.529 -0.3777  1.9033 -1.4699
 2606Sol     HW13411   2.217   2.027   9.407 -2.5289 -0.4392 -0.5939
 2606Sol     MW13412   2.233   1.973   9.477  0.0775  0.1541  0.4039
 2607Sol     OW13413   0.817   2.969   7.841 -0.2225 -0.0479  0.3743
 2607Sol     HW13414   0.737   2.928   7.876 -0.7283  1.3545  0.9163
 2607Sol     HW13415   0.810   3.061   7.869  2.6180 -0.3734  2.2662
 2607Sol     MW13416   0.809   2.974   7.847  0.3242  0.5739 -0.5121
 2608Sol     OW13417   0.358   3.036   4.740  0.9485 -0.4724  0.3522
 2608Sol     HW13418   0.330   3.052   4.650  0.1750 -1.8574  0.3329
 2608Sol     HW13419   0.452   3.055   4.740  0.8338  0.1172 -0.5999
 2608Sol     MW13420   0.364   3.039   4.732  0.6127 -0.1530  0.2996
 2609Sol     OW13421   0.837   2.698   6.230 -0.0455 -0.6585  0.9099
 2609Sol     HW13422   0.814   2.636   6.161  0.0580 -0.4815  0.7159
 2609Sol     HW13423   0.784   2.775   6.211  1.1314 -0.0303  0.1227
 2609Sol     MW13424   0.830   2.699   6.222 -0.9002 -0.1563  0.3433
 2610Sol     OW13425   0.935   3.318   4.964  0.4338 -0.1912 -0.3341
 2610Sol     HW13426   0.942   3.380   4.891 -1.7814  0.7287  0.1967
 2610Sol     HW13427   1.025   3.311   4.997  1.1413  0.8537 -1.9407
 2610Sol     MW13428   0.944   3.323   4.960  0.4042 -0.9337  0.2231
 2611Sol     OW13429   3.130   2.786   9.561  0.5932  0.0700 -0.0085
 2611Sol     HW13430   3.072   2.766   9.488  0.4157  0.8711 -0.0900
 2611Sol     HW13431   3.093   2.864   9.602  1.8830  0.9147 -0.3888
 2611Sol     MW13432   3.122   2.791   9.558 -0.6777 -0.5619  0.1122
 2612Sol     OW13433   3.088   3.440   7.689 -0.7353 -0.5288  0.6647
 2612Sol     HW13434   3.108   3.386   7.765  0.6379  0.7474  1.2418
 2612Sol     HW13435   2.993   3.446   7.688 -1.0025 -3.8555 -0.0743
 2612Sol     MW13436   3.082   3.436   7.696 -0.3199  0.3598 -0.1261
 2613Sol     OW13437   0.107   2.266   1.409 -0.2612 -0.5608  0.2799
 2613Sol     HW13438   0.183   2.229   1.455 -0.5516 -0.9261  0.4660
 2613Sol     HW13439   0.032   2.243   1.464 -0.4435  0.2979  0.3936
 2613Sol     MW13440   0.107   2.260   1.418  0.2688  0.8862  0.2855
 2614Sol     OW13441   2.546   0.156   2.128 -0.4256 -0.4162 -0.4001
 2614Sol     HW13442   2.537   0.089   2.196 -0.5285 -0.6678 -0.6628
 2614Sol     HW13443   2.516   0.237   2.171  1.9408 -0.0671  0.6653
 2614Sol     MW13444   2.542   0.157   2.138 -0.0948 -0.2170  0.4404
 2615Sol     OW13445   2.838   0.846   6.631 -0.2332  0.4427 -0.9391
 2615Sol     HW13446   2.810   0.760   6.663  1.6903  0.2869  0.4205
 2615Sol     HW13447   2.875   0.889   6.708  1.2345  1.4564 -2.1735
 2615Sol     MW13448   2.839   0.842   6.641  0.7651 -0.0836 -0.3779
 2616Sol     OW13449   2.559   1.667   3.527  0.6865  0.2000 -0.1113
 2616Sol     HW13450   2.573   1.677   3.621  2.1412 -0.7909 -0.2062
 2616Sol     HW13451   2.546   1.573   3.514  3.1478 -0.0347 -1.2045
 2616Sol     MW13452   2.559   1.660   3.535 -0.5584 -0.4302  0.1038
 2617Sol     OW13453   0.311   1.599   2.787 -0.6104 -0.3956 -0.8657
 2617Sol     HW13454   0.303   1.651   2.867  2.8981  0.2663 -0.8476
 2617Sol     HW13455   0.231   1.618   2.737 -0.1017  3.9578 -0.2172
 2617Sol     MW13456   0.303   1.605   2.789  0.3635 -0.2138  0.8224
 2618Sol     OW13457   0.955   2.994   9.337 -0.3631 -0.1294 -0.4254
 2618Sol     HW13458   0.871   3.029   9.367 -0.9961 -1.8994 -0.0569
 2618Sol     HW13459   0.936   2.955   9.252  0.3774  0.5557 -0.9191
 2618Sol     MW13460   0.946   2.994   9.332 -0.2229  0.0696 -0.1080
 2619Sol     OW13461   0.487   0.775   4.565  0.0755 -0.2391  0.2791
 2619Sol     HW13462   0.410   0.723   4.542 -0.2809 -0.5084  1.9999
 2619Sol     HW13463   0.557   0.740   4.510 -0.8902 -0.3906 -0.8731
 2619Sol     MW13464   0.486   0.767   4.558  0.2102 -0.4216  0.5914
 2620Sol     OW13465   1.911   0.440   6.629 -0.6546  0.3317 -0.0141
 2620Sol     HW13466   1.914   0.532   6.602  1.0701  0.5844  0.9491
 2620Sol     HW13467   2.002   0.411   6.623 -0.7953 -0.6185  2.0077
 2620Sol     MW13468   1.919   0.446   6.626 -0.5448 -0.1763  0.5862
 2621Sol     OW13469   0.925   2.153   5.561 -0.0185  0.4354 -0.7696
 2621Sol     HW13470   0.853   2.155   5.498 -1.3754 -2.6820  0.5693
 2621Sol     HW13471   0.982   2.083   5.530 -1.0542 -1.6043  1.7423
 2621Sol     MW13472   0.923   2.147   5.553 -0.2841  0.0914  0.0912
 2622Sol     OW13473   2.679   1.345   2.954 -0.1464  0.2947 -0.4051
 2622Sol     HW13474   2.720   1.261   2.975  0.4375  0.8128  0.5897
 2622Sol     HW13475   2.585   1.326   2.953 -0.0894 -0.1372  0.9621
 2622Sol     MW13476   2.674   1.335   2.956 -0.1114 -0.2621  0.0916
 2623Sol     OW13477   0.922   1.690   2.044  0.1969  0.2170 -0.3880
 2623Sol     HW13478   0.953   1.695   1.954  1.9208 -0.1103  0.1834
 2623Sol     HW13479   0.968   1.760   2.090  0.5428 -0.6417  0.5969
 2623Sol     MW13480   0.929   1.697   2.040  0.4941  0.5913  0.4596
 2624Sol     OW13481   1.305   1.368   5.305 -0.5101 -0.5669  0.0124
 2624Sol     HW13482   1.372   1.303   5.324 -0.6661 -0.5216  0.7453
 2624Sol     HW13483   1.328   1.402   5.219  1.1630  0.3598  0.8004
 2624Sol     MW13484   1.313   1.365   5.299 -0.2290 -0.5835  0.3751
 2625Sol     OW13485   0.864   1.971   6.694  0.4107  0.6850  0.0269
 2625Sol     HW13486   0.874   1.880   6.664 -0.2359  0.6807 -0.1867
 2625Sol     HW13487   0.928   1.980   6.765  1.6164  0.5468 -1.0111
 2625Sol     MW13488   0.871   1.963   6.698 -0.0703  0.3374 -0.3133
 2626Sol     OW13489   2.695   0.841   5.088  0.2437 -0.0708  0.3460
 2626Sol     HW13490   2.730   0.910   5.032 -1.0285 -0.1473 -0.5859
 2626Sol     HW13491   2.666   0.885   5.167  0.1224  0.3492  0.0666
 2626Sol     MW13492   2.695   0.851   5.090  1.7591 -0.0175 -0.1130
 2627Sol     OW13493   2.060   0.124   1.711 -0.1076  0.2125  0.4126
 2627Sol     HW13494   2.146   0.101   1.676 -0.4830  0.8154 -0.9332
 2627Sol     HW13495   2.015   0.167   1.638 -0.8076  1.7291  1.7117
 2627Sol     MW13496   2.064   0.126   1.701 -0.1743 -0.3094 -0.1979
 2628Sol     OW13497   2.619   1.441   8.987 -0.4223 -0.3090 -0.0270
 2628Sol     HW13498   2.682   1.378   8.950 -0.6315 -1.0048  0.8029
 2628Sol     HW13499   2.584   1.486   8.910 -1.2232 -2.1016 -0.7426
 2628Sol     MW13500   2.622   1.440   8.976 -0.1273 -0.5345  0.2354
 2629Sol     OW13501   2.057   2.905   5.789 -0.1880  0.0838  0.0577
 2629Sol     HW13502   1.978   2.925   5.739 -0.2649 -0.9533 -0.2387
 2629Sol     HW13503   2.034   2.829   5.842  0.1358  0.7164  1.1244
 2629Sol     MW13504   2.048   2.900   5.789  0.0052 -0.2543 -0.5602
 2630Sol     OW13505   0.227   1.771   8.946  0.6137 -0.0562  0.2421
 2630Sol     HW13506   0.234   1.675   8.939 -2.7744 -0.3825  0.2225
 2630Sol     HW13507   0.205   1.800   8.858  2.1398  0.8270  0.1386
 2630Sol     MW13508   0.225   1.765   8.938  0.5650 -0.3786  0.8351
 2631Sol     OW13509   2.801   1.380   3.616 -0.4287 -0.4959 -0.1431
 2631Sol     HW13510   2.870   1.380   3.683  0.8248 -2.2167 -1.3814
 2631Sol     HW13511   2.743   1.452   3.642  0.0205 -1.0907  2.7660
 2631Sol     MW13512   2.802   1.387   3.625 -0.6723  0.1500  0.5325
 2632Sol     OW13513   0.677   1.291   7.919 -0.3494 -0.1530 -0.3249
 2632Sol     HW13514   0.628   1.239   7.854  0.7981 -0.9363 -0.5793
 2632Sol     HW13515   0.683   1.234   7.995 -0.0266  0.0185 -0.2212
 2632Sol     MW13516   0.673   1.281   7.920  0.0737  0.2149 -0.2990
 2633Sol     OW13517   3.136   0.199   5.406 -0.6237  0.6033 -0.3685
 2633Sol     HW13518   3.194   0.126   5.382  0.2331  0.6220  1.5644
 2633Sol     HW13519   3.153   0.213   5.499 -2.2704  1.9578 -0.2626
 2633Sol     MW13520   3.143   0.194   5.412 -0.0045 -0.7220 -0.4718
 2634Sol     OW13521   3.000   2.982   2.909 -0.0595  0.6739 -0.0577
 2634Sol     HW13522   2.992   3.054   2.971 -0.8953 -1.0866  1.9620
 2634Sol     HW13523   3.005   2.904   2.965 -2.9423 -1.1641 -2.2251
 2634Sol     MW13524   3.000   2.981   2.920  0.3844  0.4284 -0.0282
 2635Sol     OW13525   2.435   0.980   2.263 -0.3856 -0.4106  0.3399
 2635Sol     HW13526   2.380   1.029   2.324  0.8828  0.6931  0.6145
 2635Sol     HW13527   2.450   1.039   2.190  0.3795 -0.7103  0.2457
 2635Sol     MW13528   2.431   0.989   2.262 -0.4215 -0.1590 -0.2085
 2636Sol     OW13529   1.845   1.509   4.557  0.0629 -0.2887 -0.6346
 2636Sol     HW13530   1.880   1.569   4.623  1.7336 -1.6967 -0.2005
 2636Sol     HW13531   1.879   1.542   4.474  2.6166 -1.6998 -0.2098
 2636Sol     MW13532   1.851   1.517   4.556  0.6438 -0.1559 -0.2705
 2637Sol     OW13533   0.164   2.716   7.619  0.3453  0.1925  0.3816
 2637Sol     HW13534   0.097   2.781   7.640 -0.1444  0.3827 -1.6935
 2637Sol     HW13535   0.240   2.768   7.594  0.4425 -0.0190  0.2341
 2637Sol     MW13536   0.165   2.727   7.619  0.1667 -0.0868 -0.0995
 2638Sol     OW13537   2.507   3.359   9.725 -0.1839 -0.1872  0.0046
 2638Sol     HW13538   2.469   3.305   9.794  1.9870 -1.1663  0.4711
 2638Sol     HW13539   2.435   3.373   9.663 -2.2900  1.0698  2.6274
 2638Sol     MW13540   2.497   3.356   9.726 -0.0453 -0.1872  0.4859
 2639Sol     OW13541   1.543   2.869   3.619  0.1114  0.1446  0.1668
 2639Sol     HW13542   1.614   2.930   3.598  0.3330 -0.7527 -1.7521
 2639Sol     HW13543   1.587   2.789   3.648 -0.1536  0.1609  0.6304
 2639Sol     MW13544   1.553   2.868   3.620 -0.2692 -0.4792 -0.0664
 2640Sol     OW13545   1.166   1.863   3.469  0.5485  0.1948  0.3035
 2640Sol     HW13546   1.134   1.780   3.434 -0.1564  1.3752 -1.9938
 2640Sol     HW13547   1.236   1.889   3.408  0.6233  1.3666  0.8797
 2640Sol     MW13548   1.169   1.858   3.460  0.4329 -0.5996 -0.0421
 2641Sol     OW13549   0.963   3.078   2.296 -0.4478  0.1256 -0.1475
 2641Sol     HW13550   0.961   2.983   2.303 -0.6226  0.0926 -0.6488
 2641Sol     HW13551   0.878   3.106   2.330 -0.6178  0.0675 -0.5198
 2641Sol     MW13552   0.955   3.072   2.300  0.0531  0.4535  0.0349
 2642Sol     OW13553   0.551   1.342   3.500 -1.0358 -0.0880 -0.1651
 2642Sol     HW13554   0.520   1.430   3.522 -1.4724 -0.2248 -0.2304
 2642Sol     HW13555   0.521   1.327   3.411 -1.0341 -0.3339 -0.1262
 2642Sol     MW13556   0.546   1.348   3.494 -0.0668  0.1552  0.9153
 2643Sol     OW13557   1.833   0.902   4.099 -0.0290  0.2892 -0.4641
 2643Sol     HW13558   1.843   0.977   4.040  0.4466 -0.7506 -1.7188
 2643Sol     HW13559   1.745   0.869   4.081  0.0111  0.1417 -0.3898
 2643Sol     MW13560   1.826   0.906   4.092 -0.4808  0.0410 -0.0330
 2644Sol     OW13561   1.263   1.315   9.324 -0.1852 -0.1824  0.4404
 2644Sol     HW13562   1.341   1.299   9.271 -1.0100  2.3981 -1.6827
 2644Sol     HW13563   1.260   1.242   9.386  2.5971 -1.5559 -0.9644
 2644Sol     MW13564   1.270   1.307   9.325 -0.8202  0.3160 -0.7017
 2645Sol     OW13565   1.969   1.256   9.864  0.2633 -0.4942 -0.4685
 2645Sol     HW13566   2.032   1.323   9.891 -1.1716  1.5631 -2.1371
 2645Sol     HW13567   1.887   1.303   9.852 -1.4861 -3.0326  1.0120
 2645Sol     MW13568   1.967   1.266   9.865  0.4037 -0.0810 -0.2499
 2646Sol     OW13569   0.712   1.639   1.662 -0.2301  0.2131  0.0547
 2646Sol     HW13570   0.706   1.650   1.567 -1.1368  0.9024  0.1906
 2646Sol     HW13571   0.794   1.684   1.685  0.4504 -0.7078 -0.4992
 2646Sol     MW13572   0.719   1.644   1.655 -0.0779 -0.2503  0.4195
 2647Sol     OW13573   0.101   0.384   6.070 -0.0882  0.0580  0.7917
 2647Sol     HW13574   0.065   0.415   6.154 -3.6868  0.2553 -0.7120
 2647Sol     HW13575   0.110   0.289   6.082 -1.4637 -0.0488  1.1556
 2647Sol     MW13576   0.098   0.378   6.079 -0.4603  0.2898 -0.0819
 2648Sol     OW13577   3.250   2.586   9.696  0.4456  0.1362  0.0919
 2648Sol     HW13578   3.214   2.652   9.637  1.1428  1.5956  1.2633
 2648Sol     HW13579   3.323   2.548   9.648 -1.7558 -1.8972 -1.7691
 2648Sol     MW13580   3.254   2.589   9.686 -0.4685 -0.0204 -0.1182
 2649Sol     OW13581   0.105   1.225   5.431  0.5974 -0.3599 -0.0249
 2649Sol     HW13582   0.027   1.194   5.386 -0.2684 -0.9321  1.7956
 2649Sol     HW13583   0.165   1.150   5.431 -0.3441 -1.1636  1.8019
 2649Sol     MW13584   0.103   1.216   5.427  0.6184 -0.5925  0.2743
 2650Sol     OW13585   2.116   2.617   7.726  0.2671  0.1158  0.2403
 2650Sol     HW13586   2.114   2.704   7.767 -0.8991  0.8508 -1.3069
 2650Sol     HW13587   2.120   2.556   7.799 -0.3053  1.4429  1.4067
 2650Sol     MW13588   2.116   2.620   7.736  0.7012  0.3835  0.5176
 2651Sol     OW13589   0.337   3.430   5.204  0.0697  0.5270  0.3112
 2651Sol     HW13590   0.338   3.367   5.276  0.0124 -2.0650 -1.8836
 2651Sol     HW13591   0.248   3.425   5.169  1.1099 -0.9670 -2.2215
 2651Sol     MW13592   0.329   3.424   5.208 -0.1801 -0.3984 -0.0494
 2652Sol     OW13593   2.668   2.516   2.416 -0.4219 -0.3228  0.0359
 2652Sol     HW13594   2.702   2.432   2.386 -0.0116 -0.0819 -0.1762
 2652Sol     HW13595   2.634   2.499   2.504  0.1418 -0.5931  0.2021
 2652Sol     MW13596   2.668   2.507   2.422 -0.5081  0.0223 -0.8380
 2653Sol     OW13597   1.334   0.930   6.865  0.3603 -0.2353 -0.3128
 2653Sol     HW13598   1.261   0.980   6.900  0.4647 -0.5792  0.3910
 2653Sol     HW13599   1.334   0.951   6.771  0.7100  1.4652  0.0495
 2653Sol     MW13600   1.328   0.936   6.859  0.2970 -0.5779  0.5906
 2654Sol     OW13601   1.604   0.345   4.563  0.4876 -0.5073  0.7797
 2654Sol     HW13602   1.550   0.347   4.641 -1.4660  1.6950 -0.5813
 2654Sol     HW13603   1.607   0.252   4.538 -0.7108 -0.9291  2.1875
 2654Sol     MW13604   1.600   0.336   4.567 -0.0461 -0.3283 -0.1973
 2655Sol     OW13605   2.566   2.716   9.244  0.2732  0.0610 -0.1300
 2655Sol     HW13606   2.614   2.634   9.231  0.0475 -0.1886  0.5813
 2655Sol     HW13607   2.631   2.785   9.230  1.2940 -0.2998  2.6477
 2655Sol     MW13608   2.576   2.715   9.241 -0.2783  0.8405 -0.2289
 2656Sol     OW13609   1.551   0.271   5.391 -0.2504  0.1832 -0.6220
 2656Sol     HW13610   1.532   0.317   5.310  1.2090 -1.5129 -1.9686
 2656Sol     HW13611   1.583   0.185   5.363  1.0956 -0.1191  1.7097
 2656Sol     MW13612   1.552   0.267   5.381  0.1980 -0.2246  0.4619
 2657Sol     OW13613   2.164   3.091   1.731 -0.3957  0.0543 -0.0137
 2657Sol     HW13614   2.103   3.019   1.746 -0.0584  0.0014  1.1040
 2657Sol     HW13615   2.159   3.144   1.810  1.1985 -0.0845  0.2030
 2657Sol     MW13616   2.158   3.089   1.739 -0.2734  0.4076 -0.1486
 2658Sol     OW13617   0.960   1.977   9.041 -0.1356  0.6647  0.2242
 2658Sol     HW13618   0.968   2.067   9.070  0.3100  0.8840 -0.5628
 2658Sol     HW13619   0.875   1.948   9.075 -0.0532  1.2130  0.9089
 2658Sol     MW13620   0.953   1.982   9.046  0.3001  0.0060 -0.3136
 2659Sol     OW13621   2.299   0.161   8.834  0.1643 -0.5219  0.4350
 2659Sol     HW13622   2.271   0.082   8.879 -1.9397 -0.0853 -0.0454
 2659Sol     HW13623   2.299   0.138   8.741  0.8069 -0.3381  0.3895
 2659Sol     MW13624   2.296   0.152   8.830  0.4507  0.3235 -0.0348
 2660Sol     OW13625   0.124   1.117   4.686 -0.2597 -0.2765  0.0730
 2660Sol     HW13626   0.056   1.182   4.703 -0.2329 -0.0922 -0.5171
 2660Sol     HW13627   0.189   1.132   4.754 -0.6144 -0.1793  0.3909
 2660Sol     MW13628   0.124   1.124   4.693 -0.0035  0.1861  0.8344
 2661Sol     OW13629   0.150   2.531   2.884  0.3503 -0.2760 -0.2846
 2661Sol     HW13630   0.072   2.560   2.836  2.0737 -0.4376 -3.2799
 2661Sol     HW13631   0.204   2.610   2.892  0.3401 -0.3809  0.9187
 2661Sol     MW13632   0.148   2.541   2.881  0.3465 -0.0630  0.1008
 2662Sol     OW13633   1.805   0.123   9.194  0.2585 -0.4557  0.1570
 2662Sol     HW13634   1.759   0.102   9.275  0.4664  3.7233  1.4927
 2662Sol     HW13635   1.737   0.157   9.136  0.6686  0.0098 -0.0610
 2662Sol     MW13636   1.795   0.124   9.196 -0.3856  0.4488  0.2062
 2663Sol     OW13637   2.522   2.370   4.374 -0.1638 -0.1299 -0.3405
 2663Sol     HW13638   2.569   2.387   4.292 -0.8203  0.7217 -0.5517
 2663Sol     HW13639   2.522   2.275   4.382 -0.2431 -0.2353 -1.4244
 2663Sol     MW13640   2.526   2.363   4.367  0.2035 -0.0061 -0.4487
 2664Sol     OW13641   2.218   0.414   1.885  0.1416 -0.3462 -0.2108
 2664Sol     HW13642   2.169   0.336   1.908 -0.2877  0.7091  2.7256
 2664Sol     HW13643   2.154   0.472   1.843 -0.7387  0.2832  1.9274
 2664Sol     MW13644   2.208   0.412   1.883  0.7330 -0.3742 -0.1498
 2665Sol     OW13645   0.111   1.287   6.663 -0.0051 -0.5873  0.3451
 2665Sol     HW13646   0.030   1.336   6.644  0.4712 -0.1803 -0.6600
 2665Sol     HW13647   0.174   1.354   6.687  0.6164 -0.7123 -0.9141
 2665Sol     MW13648   0.109   1.298   6.663  0.2308 -0.3831  0.0264
 2666Sol     OW13649   1.101   0.686   9.893 -0.1558  0.1798 -0.1352
 2666Sol     HW13650   1.075   0.644   9.811  2.8351 -0.4179 -0.8353
 2666Sol     HW13651   1.133   0.773   9.866  1.7731 -0.3918  0.2307
 2666Sol     MW13652   1.102   0.690   9.883  0.2612  0.0936 -0.0055
 2667Sol     OW13653   2.700   3.074   5.638  0.3234 -0.5639 -0.0167
 2667Sol     HW13654   2.622   3.126   5.657  0.5262 -0.1665 -0.2810
 2667Sol     HW13655   2.773   3.129   5.666  0.7066  0.5248 -3.0046
 2667Sol     MW13656   2.700   3.083   5.642 -0.6344 -0.3963  0.2746
 2668Sol     OW13657   1.255   2.358   7.347  0.3264  0.1593  0.3796
 2668Sol     HW13658   1.310   2.282   7.365 -0.8662 -0.8990 -0.3513
 2668Sol     HW13659   1.243   2.400   7.432  1.4972 -0.1067  0.6884
 2668Sol     MW13660   1.259   2.355   7.356  0.9328  0.2884 -0.2244
 2669Sol     OW13661   0.479   2.240   3.460  0.1163  0.2161 -0.1131
 2669Sol     HW13662   0.480   2.267   3.552  0.3755  0.1282 -0.0916
 2669Sol     HW13663   0.395   2.273   3.427  0.3327  0.8537 -0.0318
 2669Sol     MW13664   0.471   2.245   3.465 -0.4192 -0.0567  0.0548
 2670Sol     OW13665   0.971   1.751   8.596 -0.0326 -0.3141 -0.0624
 2670Sol     HW13666   0.984   1.836   8.639  3.3340 -1.2044  0.7942
 2670Sol     HW13667   1.036   1.694   8.636 -0.2187 -2.5289 -2.7982
 2670Sol     MW13668   0.978   1.754   8.604 -0.1926  0.3937 -0.6713
 2671Sol     OW13669   0.069   0.432   6.563 -0.4129 -0.2902  0.0973
 2671Sol     HW13670   0.045   0.503   6.623 -1.7118  0.5410 -1.3457
 2671Sol     HW13671   0.165   0.436   6.558 -0.3556  0.1558  1.4673
 2671Sol     MW13672   0.076   0.439   6.568  0.1215  0.2500  0.2144
 2672Sol     OW13673   2.355   2.878   1.528  0.3709 -0.2673 -0.0530
 2672Sol     HW13674   2.371   2.871   1.622 -1.0134  0.4924  0.2562
 2672Sol     HW13675   2.401   2.957   1.502 -1.5446  1.0849  0.5445
 2672Sol     MW13676   2.360   2.884   1.534  0.3183 -0.1407 -0.3829
 2673Sol     OW13677   3.023   2.667   2.101  0.3350 -0.1998 -0.3902
 2673Sol     HW13678   2.985   2.716   2.028 -1.4456  0.4779  0.9478
 2673Sol     HW13679   2.948   2.630   2.148  1.4764 -1.2790  0.6625
 2673Sol     MW13680   3.013   2.668   2.099 -0.1577 -0.3991  0.2971
 2674Sol     OW13681   2.180   2.639   5.570  0.1466 -0.5100  0.1752
 2674Sol     HW13682   2.200   2.716   5.516  1.5172 -0.4890  0.6973
 2674Sol     HW13683   2.209   2.565   5.516  0.8785 -0.5277  0.5862
 2674Sol     MW13684   2.185   2.639   5.560 -0.0510  0.0488  0.6894
 2675Sol     OW13685   1.716   1.375   6.043  1.0045 -0.1784  0.0773
 2675Sol     HW13686   1.641   1.433   6.031  0.7842 -0.8189 -1.8855
 2675Sol     HW13687   1.793   1.430   6.025  0.9214  0.0605  0.4498
 2675Sol     MW13688   1.717   1.385   6.040  0.5159 -0.5712 -0.1288
 2676Sol     OW13689   2.313   0.407   7.695 -0.2331 -0.2981 -0.0961
 2676Sol     HW13690   2.386   0.454   7.735  0.0614 -0.8952  0.0738
 2676Sol     HW13691   2.287   0.343   7.762 -1.0457  0.0522 -0.0680
 2676Sol     MW13692   2.317   0.405   7.705 -0.3134 -0.0464  0.1534
 2677Sol     OW13693   1.088   1.063   4.332 -0.2000  0.0014  0.3763
 2677Sol     HW13694   1.121   1.086   4.419  0.1364  0.5539  0.0987
 2677Sol     HW13695   1.046   1.142   4.300 -0.3981 -0.2277  0.0647
 2677Sol     MW13696   1.087   1.072   4.337  0.9287  0.7511 -0.2638
 2678Sol     OW13697   1.650   2.246   9.679 -0.2240 -0.7543 -0.5306
 2678Sol     HW13698   1.591   2.266   9.752 -0.8899 -0.0193 -1.2612
 2678Sol     HW13699   1.593   2.210   9.611  0.3812 -1.3542 -0.7262
 2678Sol     MW13700   1.639   2.245   9.680  0.6215 -0.4096  0.2743
 2679Sol     OW13701   1.749   3.366   6.205  0.4124  0.4166 -0.6606
 2679Sol     HW13702   1.839   3.337   6.195  0.0407 -0.8780 -0.3521
 2679Sol     HW13703   1.717   3.320   6.283 -0.7509  0.2626 -1.2157
 2679Sol     MW13704   1.754   3.359   6.211 -0.3619 -0.6796 -0.8449
 2680Sol     OW13705   1.574   0.609   5.037 -0.1231 -0.1945 -0.1829
 2680Sol     HW13706   1.637   0.659   5.087 -2.2908 -0.6892  3.2104
 2680Sol     HW13707   1.528   0.674   4.983  1.1348  0.5861 -0.3159
 2680Sol     MW13708   1.575   0.619   5.037  0.1622  0.3065 -0.7777
 2681Sol     OW13709   1.311   0.165   9.280 -0.9328  0.0456  0.1353
 2681Sol     HW13710   1.236   0.216   9.250 -0.1352  0.7533 -0.6743
 2681Sol     HW13711   1.301   0.162   9.375 -1.3372  1.1684  0.1402
 2681Sol     MW13712   1.303   0.169   9.285 -0.1965 -0.1655  0.1629
 2682Sol     OW13713   0.309   2.647   9.084  0.4286 -0.0704  0.0875
 2682Sol     HW13714   0.391   2.629   9.040  0.2556  0.1710 -0.3427
 2682Sol     HW13715   0.260   2.702   9.022 -0.8449 -1.8053 -0.4918
 2682Sol     MW13716   0.312   2.650   9.075  0.1780 -0.4331 -0.2573
 2683Sol     OW13717   1.960   0.740   2.657  0.5303 -0.1783  0.2042
 2683Sol     HW13718   2.034   0.700   2.704  0.0003 -0.2564  0.9724
 2683Sol     HW13719   1.920   0.799   2.720  1.6342  2.0173 -1.0765
 2683Sol     MW13720   1.963   0.742   2.667 -0.6690  0.0087 -0.2746
 2684Sol     OW13721   0.984   1.231   2.544  0.0177 -0.3383  0.4206
 2684Sol     HW13722   1.063   1.185   2.516  0.6199  0.8534  0.1202
 2684Sol     HW13723   0.922   1.218   2.471  0.5069  0.1148 -0.0797
 2684Sol     MW13724   0.985   1.226   2.535  0.3564 -0.1443  0.4698
 2685Sol     OW13725   3.124   1.903   5.129 -0.0839  0.3333  0.0939
 2685Sol     HW13726   3.220   1.895   5.136 -0.1334 -0.9809 -0.6013
 2685Sol     HW13727   3.109   1.926   5.038 -0.3746  1.6386  0.4660
 2685Sol     MW13728   3.132   1.904   5.122  0.6135 -0.3199  0.0272
 2686Sol     OW13729   2.757   2.576   2.098  0.3637  0.4807 -0.0846
 2686Sol     HW13730   2.673   2.621   2.098  0.2110  0.2088 -1.5120
 2686Sol     HW13731   2.734   2.483   2.110  0.6104  0.6278  1.7262
 2686Sol     MW13732   2.747   2.571   2.099 -0.2123 -0.5491 -0.4151
 2687Sol     OW13733   0.837   1.585   7.825 -0.1290  0.8605  0.2941
 2687Sol     HW13734   0.800   1.499   7.847 -0.7717  1.0742  0.0665
 2687Sol     HW13735   0.882   1.571   7.741  1.1037  0.3831  1.0210
 2687Sol     MW13736   0.837   1.576   7.819 -0.4592  0.2574  0.5684
 2688Sol     OW13737   0.038   0.887   8.195  0.1178 -0.8177 -0.0925
 2688Sol     HW13738  -0.045   0.843   8.177  0.8680 -1.5937 -1.7875
 2688Sol     HW13739   0.040   0.897   8.290 -1.6174 -1.3746  0.0145
 2688Sol     MW13740   0.031   0.884   8.202  0.3396  1.0161 -0.1323
 2689Sol     OW13741   2.762   3.284   2.332 -0.1199  0.4580  0.4899
 2689Sol     HW13742   2.809   3.362   2.304 -0.5042 -0.0913 -1.7267
 2689Sol     HW13743   2.716   3.253   2.254 -2.3523 -0.3059  2.0609
 2689Sol     MW13744   2.762   3.288   2.323  0.2492  0.3037 -0.7572
 2690Sol     OW13745   2.285   0.612   6.448  0.3888  0.1407 -0.4397
 2690Sol     HW13746   2.264   0.552   6.376 -1.2284 -0.8435  0.8094
 2690Sol     HW13747   2.379   0.603   6.460  0.8536  1.0493 -3.0739
 2690Sol     MW13748   2.291   0.606   6.442 -0.7467 -0.0069  0.2895
 2691Sol     OW13749   1.186   2.098   5.213 -0.4968  0.4021 -0.7423
 2691Sol     HW13750   1.136   2.146   5.147  0.6799  0.2465 -1.7661
 2691Sol     HW13751   1.245   2.163   5.250 -0.7823  0.3632 -0.2130
 2691Sol     MW13752   1.187   2.108   5.211 -0.5199 -0.4288 -0.1072
 2692Sol     OW13753   1.247   1.358   9.936  0.3933  0.1258  0.3190
 2692Sol     HW13754   1.198   1.428   9.894  0.0804  0.7758  1.7529
 2692Sol     HW13755   1.339   1.381   9.924  0.3091  0.2250 -0.1337
 2692Sol     MW13756   1.251   1.366   9.931  0.3822 -0.1261 -0.1292
 2693Sol     OW13757   0.451   2.514   2.586 -0.4033  0.3630 -0.2981
 2693Sol     HW13758   0.358   2.521   2.564 -0.4565  1.0003  0.0987
 2693Sol     HW13759   0.476   2.603   2.612  0.3617  0.2315 -0.5719
 2693Sol     MW13760   0.445   2.523   2.586  0.6092  0.5647  0.0129
 2694Sol     OW13761   1.248   0.737   8.203 -0.7555  0.1250 -0.1306
 2694Sol     HW13762   1.244   0.819   8.154 -0.4193 -0.5204 -1.2566
 2694Sol     HW13763   1.336   0.735   8.240 -0.9851  0.5777  0.4556
 2694Sol     MW13764   1.255   0.744   8.202  0.3205  0.4899  1.3501
 2695Sol     OW13765   2.233   1.709   9.123  0.7635  0.3891 -0.4070
 2695Sol     HW13766   2.257   1.701   9.031  2.9677 -0.5677  0.2349
 2695Sol     HW13767   2.144   1.673   9.128  0.5525  0.6275 -2.1707
 2695Sol     MW13768   2.227   1.705   9.116  0.0823 -0.8604 -0.1253
 2696Sol     OW13769   2.145   0.445   7.355 -0.0788  0.4315  1.1111
 2696Sol     HW13770   2.231   0.487   7.359  0.1145  0.0246  1.2316
 2696Sol     HW13771   2.156   0.362   7.400 -0.4197  0.1772  0.7354
 2696Sol     MW13772   2.154   0.442   7.359 -0.1516  0.6143  0.0481
 2697Sol     OW13773   0.345   0.339   6.488 -0.2460  0.4168  0.2395
 2697Sol     HW13774   0.358   0.269   6.424  0.9504  0.5495  0.3347
 2697Sol     HW13775   0.401   0.411   6.458  0.4657  0.4199  1.5267
 2697Sol     MW13776   0.351   0.339   6.480 -0.1559 -0.0576 -0.0487
 2698Sol     OW13777   0.707   1.663   8.899 -0.3357 -0.0880  0.3144
 2698Sol     HW13778   0.759   1.599   8.852 -0.4416 -0.9865  1.4254
 2698Sol     HW13779   0.753   1.677   8.981  0.0010  1.7023 -0.1585
 2698Sol     MW13780   0.715   1.659   8.902 -0.4048  0.2539  0.2900
 2699Sol     OW13781   2.132   0.835   8.289 -0.6671 -0.0915 -0.1746
 2699Sol     HW13782   2.088   0.751   8.303 -0.1301 -0.5235 -1.0711
 2699Sol     HW13783   2.220   0.822   8.322 -0.4915  0.0165 -0.5923
 2699Sol     MW13784   2.136   0.826   8.293 -0.0174  1.1108 -0.0580
 2700Sol     OW13785   2.793   0.525   1.360 -0.1380 -0.3147 -0.0675
 2700Sol     HW13786   2.855   0.559   1.424  1.2271 -1.0157 -0.9704
 2700Sol     HW13787   2.731   0.474   1.411 -0.2847  0.8162  0.9177
 2700Sol     MW13788   2.793   0.524   1.370 -0.9352 -0.8634 -0.3146
 2701Sol     OW13789   2.514   2.062   4.005  0.9648  0.0839 -0.4504
 2701Sol     HW13790   2.539   1.976   4.039  0.1825  0.3370  0.7954
 2701Sol     HW13791   2.454   2.097   4.070 -2.5938 -0.4689 -3.2620
 2701Sol     MW13792   2.511   2.057   4.014  0.4077  0.2675  0.0857
 2702Sol     OW13793   2.947   2.701   9.377  0.0310  0.1133  0.4771
 2702Sol     HW13794   2.981   2.657   9.299 -1.5081  2.0121 -1.3405
 2702Sol     HW13795   2.898   2.633   9.424  1.5984 -1.2296  0.1968
 2702Sol     MW13796   2.945   2.691   9.374 -0.3496 -0.3746  0.1785
 2703Sol     OW13797   3.017   0.332   8.619 -0.3013  0.0363 -0.6547
 2703Sol     HW13798   3.050   0.243   8.628 -2.2674 -0.6446  0.1137
 2703Sol     HW13799   2.955   0.328   8.546 -1.4335  0.4515  0.2608
 2703Sol     MW13800   3.015   0.324   8.613  0.2141  0.2971 -0.6538
 2704Sol     OW13801   3.013   1.516   2.158 -0.1018  0.2219 -0.4534
 2704Sol     HW13802   3.108   1.528   2.163 -0.1235  0.2738 -0.1776
 2704Sol     HW13803   3.002   1.441   2.100  0.0796  0.7335 -1.1630
 2704Sol     MW13804   3.021   1.510   2.153  0.3911 -0.2906 -0.0950
 2705Sol     OW13805   2.645   1.163   3.566  0.2616 -0.0109 -0.2899
 2705Sol     HW13806   2.695   1.244   3.579 -0.6945  0.4380  0.7569
 2705Sol     HW13807   2.671   1.107   3.640  1.1250 -0.7779 -1.1618
 2705Sol     MW13808   2.652   1.165   3.574  0.6929 -0.0484 -1.0160
 2706Sol     OW13809   0.927   2.316   9.592  0.5999  0.0091 -0.2434
 2706Sol     HW13810   0.870   2.283   9.522 -0.7440  1.5217  0.1092
 2706Sol     HW13811   1.005   2.347   9.546  0.3991 -0.4480 -0.9140
 2706Sol     MW13812   0.929   2.316   9.581 -0.1618  0.0095 -0.2528
 2707Sol     OW13813   1.179   0.313   4.422  0.4651  0.3034 -0.3149
 2707Sol     HW13814   1.256   0.367   4.405 -0.3294  1.0792 -1.5069
 2707Sol     HW13815   1.117   0.336   4.353 -0.8325 -0.3371  0.6056
 2707Sol     MW13816   1.180   0.320   4.414  0.1107 -0.1452  0.4411
 2708Sol     OW13817   2.237   3.089   4.733  0.3762 -0.0350 -0.5763
 2708Sol     HW13818   2.215   3.070   4.825  1.6158 -1.0348 -0.4778
 2708Sol     HW13819   2.307   3.154   4.738  0.8539 -0.5343 -0.8114
 2708Sol     MW13820   2.241   3.093   4.742  0.3072 -0.6512  0.0335
 2709Sol     OW13821   2.720   0.598   3.711  0.5308 -0.0672  0.0900
 2709Sol     HW13822   2.815   0.583   3.711  0.3100 -1.6781 -1.2802
 2709Sol     HW13823   2.698   0.603   3.618 -0.3367  3.0651  0.4338
 2709Sol     MW13824   2.727   0.597   3.702  0.1582  0.2065 -0.3191
 2710Sol     OW13825   1.089   2.386   5.611 -0.0749 -0.4780 -0.7197
 2710Sol     HW13826   1.178   2.353   5.624  0.1773 -0.0763 -1.4398
 2710Sol     HW13827   1.038   2.308   5.588  0.1940 -0.6178 -0.8422
 2710Sol     MW13828   1.093   2.376   5.610 -0.2285  0.1367 -0.8216
 2711Sol     OW13829   0.369   1.276   8.457 -0.0771 -0.3558  0.4420
 2711Sol     HW13830   0.405   1.345   8.402  1.3954 -1.9165 -0.6151
 2711Sol     HW13831   0.420   1.281   8.538  0.7019 -0.8027 -0.0093
 2711Sol     MW13832   0.377   1.282   8.459  0.2870 -0.1030 -0.2763
 2712Sol     OW13833   3.159   0.999   4.527  0.0426  0.1495  0.5224
 2712Sol     HW13834   3.222   1.064   4.557  0.1102  0.4482 -0.2662
 2712Sol     HW13835   3.209   0.918   4.521  0.8062  0.7499 -1.8079
 2712Sol     MW13836   3.169   0.998   4.529  0.6725 -0.4958 -0.6197
 2713Sol     OW13837   0.395   2.372   6.848  0.1958  0.9375  0.3615
 2713Sol     HW13838   0.395   2.465   6.826 -0.8319  0.8176 -0.1703
 2713Sol     HW13839   0.308   2.356   6.884  0.3317  0.1604  0.3580
 2713Sol     MW13840   0.387   2.379   6.849  0.1069  0.8425 -0.1955
 2714Sol     OW13841   2.368   3.217   1.564 -0.2499  0.0215  0.7451
 2714Sol     HW13842   2.298   3.159   1.592 -1.2891  0.3279 -1.1128
 2714Sol     HW13843   2.323   3.297   1.537  0.9616  0.8404  1.1182
 2714Sol     MW13844   2.358   3.219   1.564  0.4310  0.1836  0.0859
 2715Sol     OW13845   0.369   2.531   9.929  0.6595 -0.5715 -0.2034
 2715Sol     HW13846   0.339   2.443   9.954  0.9495 -0.4404  0.6136
 2715Sol     HW13847   0.296   2.567   9.878  0.7623 -1.4893 -1.0009
 2715Sol     MW13848   0.359   2.526   9.927  0.1184  0.5470 -0.4326
 2716Sol     OW13849   0.376   1.006   4.079  0.6275 -0.2326 -0.6264
 2716Sol     HW13850   0.422   0.938   4.030  0.2349 -0.9556 -0.0015
 2716Sol     HW13851   0.399   0.990   4.170  2.1308  1.6938 -0.6288
 2716Sol     MW13852   0.382   0.999   4.082  0.0321  0.5703  0.0160
 2717Sol     OW13853   2.861   3.342   2.905  0.2461  0.0414  0.0991
 2717Sol     HW13854   2.896   3.299   2.827  1.9315 -0.2539  0.9758
 2717Sol     HW13855   2.867   3.436   2.886  0.3276 -0.0373 -0.2641
 2717Sol     MW13856   2.865   3.347   2.896  0.8732  0.7770  0.0681
 2718Sol     OW13857   0.365   3.380   5.865  0.2164  0.0535 -0.2375
 2718Sol     HW13858   0.377   3.320   5.938  0.4438  2.3777  1.7112
 2718Sol     HW13859   0.434   3.445   5.876 -0.8194  1.4168 -1.5124
 2718Sol     MW13860   0.372   3.381   5.872  0.1179  0.0878 -0.0199
 2719Sol     OW13861   3.209   2.080   6.263  0.4623  0.7535  0.8341
 2719Sol     HW13862   3.257   2.108   6.341 -0.2170  2.5557  0.6323
 2719Sol     HW13863   3.224   2.149   6.199  0.9108 -0.6472 -0.6181
 2719Sol     MW13864   3.214   2.088   6.264 -0.3815  0.0550  0.2384
 2720Sol     OW13865   0.962   3.237   6.614  0.2104  0.2599  0.5157
 2720Sol     HW13866   1.009   3.320   6.621 -0.6406  0.7231  0.8256
 2720Sol     HW13867   0.977   3.193   6.698 -0.9160  0.9540  1.0935
 2720Sol     MW13868   0.967   3.240   6.622  0.0832  0.4568  0.2629
 2721Sol     OW13869   2.369   1.965   9.032  0.6559 -0.7337 -0.1632
 2721Sol     HW13870   2.302   1.984   9.098  0.2927 -1.5630 -0.2885
 2721Sol     HW13871   2.347   1.877   9.001  1.6364 -0.8895 -0.4122
 2721Sol     MW13872   2.361   1.959   9.036 -0.3214 -1.2229 -0.5520
 2722Sol     OW13873   1.251   0.197   2.136  0.3160  0.5406 -0.1783
 2722Sol     HW13874   1.213   0.277   2.171 -0.7065  0.1988 -0.5091
 2722Sol     HW13875   1.345   0.205   2.156  0.2805  1.9594 -0.4839
 2722Sol     MW13876   1.256   0.205   2.141  0.3456  0.0144  0.0863
 2723Sol     OW13877   3.153   0.842   7.923 -0.2202 -0.0740 -0.0260
 2723Sol     HW13878   3.099   0.834   8.002  0.4309  1.0786  0.5433
 2723Sol     HW13879   3.152   0.754   7.885 -1.5246 -0.3532  0.6153
 2723Sol     MW13880   3.148   0.833   7.927  0.3462  0.4016  0.1891
 2724Sol     OW13881   1.972   0.604   8.279 -0.1615 -0.3821 -0.0415
 2724Sol     HW13882   1.999   0.600   8.187  1.4033 -3.1400  0.4586
 2724Sol     HW13883   1.883   0.570   8.279 -0.6150  0.7915 -0.6821
 2724Sol     MW13884   1.967   0.600   8.270  0.3183 -0.4407  0.1872
 2725Sol     OW13885   0.275   2.757   2.361  0.2598 -0.0595  0.5837
 2725Sol     HW13886   0.247   2.703   2.435  1.2766  0.0439  1.0460
 2725Sol     HW13887   0.245   2.845   2.382 -0.2080 -0.1863  0.4609
 2725Sol     MW13888   0.269   2.760   2.369  0.5434 -0.4894  0.8614
 2726Sol     OW13889   1.677   3.277   6.451 -0.1080  0.0959  0.0873
 2726Sol     HW13890   1.710   3.189   6.433  1.8019  0.8879 -0.3934
 2726Sol     HW13891   1.584   3.264   6.472 -0.2186 -1.8626 -1.4527
 2726Sol     MW13892   1.672   3.268   6.451 -0.4603  0.5148  0.6399
 2727Sol     OW13893   0.750   0.212   8.262 -0.1973 -0.5254  0.8787
 2727Sol     HW13894   0.772   0.156   8.187 -0.4301 -1.2699  1.3599
 2727Sol     HW13895   0.834   0.227   8.306 -0.0181  0.1345  0.3275
 2727Sol     MW13896   0.760   0.208   8.259 -0.4790 -0.0125 -0.1552
 2728Sol     OW13897   0.046   0.617   8.689  0.3126  0.1552 -0.7562
 2728Sol     HW13898   0.122   0.621   8.747 -0.0026 -0.1018 -0.3241
 2728Sol     HW13899   0.058   0.536   8.640  1.1641  0.9385 -1.8631
 2728Sol     MW13900   0.054   0.610   8.690 -0.3015  0.2776 -0.2668
 2729Sol     OW13901   0.212   3.039   1.450  0.0420 -0.4573  0.2554
 2729Sol     HW13902   0.143   2.984   1.487 -0.9352  0.7540  0.2959
 2729Sol     HW13903   0.282   2.978   1.425 -0.0285 -1.4870  2.4419
 2729Sol     MW13904   0.212   3.029   1.451  0.0083  0.1301 -0.3161
 2730Sol     OW13905   2.980   3.089   6.629 -0.2601 -0.2383 -0.0142
 2730Sol     HW13906   3.043   3.089   6.557 -0.6077  0.6899 -0.3277
 2730Sol     HW13907   2.896   3.106   6.587 -0.9892 -3.0837  0.1965
 2730Sol     MW13908   2.978   3.091   6.619  0.5320 -0.3917 -0.3444
 2731Sol     OW13909   1.263   2.761   3.936 -0.1411 -0.1391 -0.0520
 2731Sol     HW13910   1.200   2.834   3.932 -1.3179 -1.1696 -0.8030
 2731Sol     HW13911   1.277   2.746   4.029 -3.1831 -1.6895  0.2338
 2731Sol     MW13912   1.259   2.766   3.944 -0.0335  0.6278  0.1216
 2732Sol     OW13913   2.289   0.263   5.244  0.3455 -0.1609  0.3828
 2732Sol     HW13914   2.336   0.299   5.169  0.9812  0.3059  0.9917
 2732Sol     HW13915   2.349   0.276   5.318 -0.0443 -1.0900  0.8789
 2732Sol     MW13916   2.299   0.267   5.244 -0.7673  0.1907  0.0079
 2733Sol     OW13917   1.861   1.876   4.457 -0.3205 -0.3402 -0.1278
 2733Sol     HW13918   1.876   1.923   4.539  1.1553 -1.1874  0.1089
 2733Sol     HW13919   1.923   1.803   4.460  1.4687  0.9396 -3.0432
 2733Sol     MW13920   1.868   1.874   4.465 -0.2581  0.2315  0.1340
 2734Sol     OW13921   3.277   0.305   4.236  0.2562  0.2535  0.2018
 2734Sol     HW13922   3.228   0.346   4.164  0.3408 -0.4466 -0.2587
 2734Sol     HW13923   3.269   0.367   4.309 -2.1203 -0.2582  0.4218
 2734Sol     MW13924   3.272   0.314   4.236  0.2420  0.2304 -0.1369
 2735Sol     OW13925   1.405   2.006   1.986  0.8234 -0.0375  0.0260
 2735Sol     HW13926   1.453   2.025   1.905  1.7356 -0.8271  0.3619
 2735Sol     HW13927   1.421   1.913   2.001 -0.4858 -0.2008  0.3810
 2735Sol     MW13928   1.411   2.000   1.980 -0.2978  0.4698  0.2602
 2736Sol     OW13929   1.909   0.221   2.115  0.5908 -0.3262  0.3162
 2736Sol     HW13930   1.908   0.317   2.120 -0.8782 -0.2841 -0.4818
 2736Sol     HW13931   1.997   0.200   2.084  0.7082  0.8117 -0.1657
 2736Sol     MW13932   1.917   0.228   2.113  0.5744 -0.2910 -0.4435
 2737Sol     OW13933   1.157   2.474   2.612 -0.0947 -0.4056 -0.5163
 2737Sol     HW13934   1.139   2.525   2.691  1.8918  0.1379 -0.3990
 2737Sol     HW13935   1.136   2.384   2.636  0.0261 -0.1766  0.4776
 2737Sol     MW13936   1.153   2.471   2.621  0.2798  0.2140  0.4275
 2738Sol     OW13937   2.893   1.041   5.316 -0.1911  0.2553 -0.3688
 2738Sol     HW13938   2.943   0.973   5.272  2.5744  0.2654  2.5619
 2738Sol     HW13939   2.827   0.993   5.366  0.1854 -0.1305 -0.2357
 2738Sol     MW13940   2.891   1.031   5.317 -0.5762  0.4304 -0.9780
 2739Sol     OW13941   2.470   2.862   3.209  0.3032  0.3343  0.4289
 2739Sol     HW13942   2.480   2.917   3.287 -0.7163 -0.9783  1.4918
 2739Sol     HW13943   2.559   2.832   3.190  0.5638  0.7046  1.0445
 2739Sol     MW13944   2.479   2.864   3.214 -0.1196 -0.3991 -0.1191
 2740Sol     OW13945   1.520   2.327   8.319 -0.3129 -0.4189  0.1663
 2740Sol     HW13946   1.490   2.282   8.240  1.4996  0.2677 -0.9785
 2740Sol     HW13947   1.569   2.261   8.368 -0.1306 -0.4597 -0.0681
 2740Sol     MW13948   1.522   2.317   8.316 -0.0431 -0.0066 -0.2899
 2741Sol     OW13949   0.578   2.468   2.310 -0.0023  0.2982  0.1124
 2741Sol     HW13950   0.530   2.435   2.234  0.6424 -1.3246  0.3721
 2741Sol     HW13951   0.515   2.463   2.382  0.6065 -2.2009  0.5352
 2741Sol     MW13952   0.568   2.464   2.310  0.0016  0.0708 -0.3727
 2742Sol     OW13953   2.399   3.104   7.328  0.2103  0.4313  0.2027
 2742Sol     HW13954   2.360   3.038   7.386 -0.7435  0.1401 -0.7642
 2742Sol     HW13955   2.377   3.075   7.240  1.4023  1.0379 -0.3063
 2742Sol     MW13956   2.393   3.096   7.325 -0.4781  0.1745  0.2532
 2743Sol     OW13957   0.946   2.603   5.642  0.2387  0.2691  0.0797
 2743Sol     HW13958   0.966   2.650   5.561  0.2651 -1.0444 -0.6781
 2743Sol     HW13959   0.996   2.522   5.637  0.5578  0.3483  1.6010
 2743Sol     MW13960   0.952   2.600   5.635 -0.5003 -0.1757  0.6368
 2744Sol     OW13961   0.481   1.140   3.672 -0.7228 -0.6569 -0.5343
 2744Sol     HW13962   0.555   1.082   3.685 -0.6525 -0.4407  0.0401
 2744Sol     HW13963   0.514   1.210   3.616 -0.3761 -0.3357  0.0695
 2744Sol     MW13964   0.490   1.141   3.668  0.0685  0.4213  0.3461
 2745Sol     OW13965   1.626   0.686   2.417  0.2618 -0.2702 -1.0429
 2745Sol     HW13966   1.577   0.699   2.335 -0.2784  0.5648 -0.5971
 2745Sol     HW13967   1.676   0.767   2.428  0.3269 -0.3766 -0.5388
 2745Sol     MW13968   1.626   0.695   2.411 -0.1616 -0.0977 -0.2130
 2746Sol     OW13969   0.569   1.983   6.707 -0.4174  0.2302 -0.1326
 2746Sol     HW13970   0.541   2.024   6.626 -1.3863 -0.5836 -0.2243
 2746Sol     HW13971   0.664   1.972   6.698 -0.7667 -1.5637 -1.9685
 2746Sol     MW13972   0.575   1.986   6.699  0.5513 -0.3665 -0.5614
 2747Sol     OW13973   1.170   1.418   8.198 -0.7148  0.4144 -0.1999
 2747Sol     HW13974   1.086   1.441   8.238 -0.6272  0.7032 -0.1767
 2747Sol     HW13975   1.210   1.357   8.260 -0.9818  0.1430 -0.2961
 2747Sol     MW13976   1.166   1.415   8.207  0.3728  0.0071 -1.1621
 2748Sol     OW13977   0.281   2.366   5.284 -0.0033 -0.0249 -0.4146
 2748Sol     HW13978   0.239   2.295   5.235  0.1067  0.6737 -1.5301
 2748Sol     HW13979   0.211   2.431   5.296  0.1319  0.0766 -0.1708
 2748Sol     MW13980   0.271   2.365   5.281 -0.0941 -0.4479 -0.2427
 2749Sol     OW13981   1.755   1.156   6.940  0.3706  0.3838 -0.2386
 2749Sol     HW13982   1.772   1.129   7.031  1.8046 -0.7829 -0.8346
 2749Sol     HW13983   1.717   1.078   6.899 -0.5617  1.0074 -0.5734
 2749Sol     MW13984   1.753   1.146   6.945 -0.2962 -0.6056  0.4862
 2750Sol     OW13985   2.665   3.231   9.333 -0.2400 -0.1332 -0.0544
 2750Sol     HW13986   2.693   3.207   9.422  1.9189 -1.2808 -0.9762
 2750Sol     HW13987   2.572   3.252   9.342  0.0932  0.5009  2.5989
 2750Sol     MW13988   2.659   3.230   9.342 -0.1441  0.3063 -0.2478
 2751Sol     OW13989   0.691   1.503   9.360  0.0463 -0.0182  0.5205
 2751Sol     HW13990   0.703   1.426   9.416  0.2602 -0.4283 -0.0835
 2751Sol     HW13991   0.765   1.499   9.299 -0.2436  0.3710  0.1438
 2751Sol     MW13992   0.699   1.495   9.360  0.1689  0.3667 -0.0667
 2752Sol     OW13993   1.360   1.122   8.807  0.1392 -0.0577  0.2155
 2752Sol     HW13994   1.272   1.145   8.837  0.3203  2.2170 -0.8659
 2752Sol     HW13995   1.347   1.083   8.721  0.1755  0.4644 -0.0326
 2752Sol     MW13996   1.351   1.121   8.802 -0.7321 -0.3320 -0.5616
 2753Sol     OW13997   1.823   3.145   7.652  0.4207  0.3424  0.1977
 2753Sol     HW13998   1.788   3.230   7.628  0.0507  1.1156  3.2419
 2753Sol     HW13999   1.772   3.082   7.601  0.0468  1.8816 -1.3568
 2753Sol     MW14000   1.815   3.147   7.645 -0.6164  0.2474  0.5323
 2754Sol     OW14001   0.121   1.563   5.359  0.2018 -0.0285  0.0222
 2754Sol     HW14002   0.093   1.488   5.411 -0.5627  0.2060 -0.0457
 2754Sol     HW14003   0.165   1.621   5.421  0.6498 -0.4578  0.1042
 2754Sol     MW14004   0.123   1.562   5.369  0.6952  0.2678 -0.5410
 2755Sol     OW14005   1.828   0.606   7.058 -0.0027 -0.2132 -0.2180
 2755Sol     HW14006   1.825   0.560   6.974  0.8281  1.4623 -1.1790
 2755Sol     HW14007   1.740   0.595   7.094 -0.3483 -0.9956 -1.2719
 2755Sol     MW14008   1.820   0.601   7.054  0.2916  0.3089 -0.6689
 2756Sol     OW14009   0.861   1.463   8.776 -0.2467  0.4356 -0.3827
 2756Sol     HW14010   0.949   1.500   8.783 -1.1977  2.7254  0.2003
 2756Sol     HW14011   0.848   1.451   8.682  0.0375  1.7954 -0.6122
 2756Sol     MW14012   0.868   1.466   8.768  0.3196  0.3579  0.0933
 2757Sol     OW14013   1.551   2.956   7.955  0.4026  0.1775  0.1809
 2757Sol     HW14014   1.531   2.951   8.049 -1.3079 -1.0315 -0.2468
 2757Sol     HW14015   1.525   3.045   7.930  0.0344  0.2064  0.6596
 2757Sol     MW14016   1.547   2.964   7.962 -0.7550 -0.2552  0.8722
 2758Sol     OW14017   2.826   0.535   6.526  0.3800 -0.3271  0.1972
 2758Sol     HW14018   2.737   0.552   6.496  0.1086 -1.6936  0.2103
 2758Sol     HW14019   2.819   0.533   6.622  0.3788 -0.7014  0.1880
 2758Sol     MW14020   2.817   0.536   6.532  0.1517 -0.6676  0.3712
 2759Sol     OW14021   1.721   0.934   8.293 -0.0081 -0.0167  0.2833
 2759Sol     HW14022   1.720   0.987   8.213 -0.0834 -0.7159 -0.1804
 2759Sol     HW14023   1.759   0.850   8.266 -0.7271 -0.5173  0.8186
 2759Sol     MW14024   1.724   0.931   8.283 -0.5722 -0.2464 -0.1075
 2760Sol     OW14025   0.240   2.494   1.362 -0.3782  0.4109 -0.0518
 2760Sol     HW14026   0.245   2.499   1.266  0.6059 -2.8440 -0.2175
 2760Sol     HW14027   0.185   2.418   1.379  0.3254  0.3424  1.9827
 2760Sol     MW14028   0.235   2.488   1.355 -0.7764  0.6133  0.3711
 2761Sol     OW14029   0.619   1.016   9.645 -0.4323  0.0060  0.0676
 2761Sol     HW14030   0.683   0.946   9.661  0.0004  0.7420  1.6232
 2761Sol     HW14031   0.668   1.080   9.593 -0.1079  0.2347  0.6457
 2761Sol     MW14032   0.629   1.016   9.642 -0.2166  0.3345  0.2173
 2762Sol     OW14033   1.640   1.763   4.335  0.5794 -0.4136  0.7287
 2762Sol     HW14034   1.702   1.691   4.330  0.2428 -0.6325 -0.4339
 2762Sol     HW14035   1.688   1.833   4.379  1.8866 -0.3333 -0.8033
 2762Sol     MW14036   1.650   1.763   4.338 -0.7037  0.1218 -0.3940
 2763Sol     OW14037   1.764   3.255   7.899 -0.7155 -0.3617 -0.1221
 2763Sol     HW14038   1.779   3.195   7.826 -0.5761  1.4351 -1.6121
 2763Sol     HW14039   1.669   3.257   7.909 -0.8077  0.2347 -1.0126
 2763Sol     MW14040   1.757   3.250   7.893  0.9962  0.4280  0.1156
 2764Sol     OW14041   0.095   2.380   3.999  0.5498 -0.3952  0.5050
 2764Sol     HW14042   0.139   2.408   3.918  1.1679  0.8986  1.2786
 2764Sol     HW14043   0.002   2.398   3.983  0.6272 -0.4881 -0.0607
 2764Sol     MW14044   0.091   2.384   3.990 -0.2766 -0.0538  0.7683
 2765Sol     OW14045   2.900   0.069   6.060 -0.5353  0.2280  0.5252
 2765Sol     HW14046   2.966   0.068   5.992 -1.2716 -2.7940 -0.1969
 2765Sol     HW14047   2.917  -0.009   6.113 -2.6840  0.1195  1.1197
 2765Sol     MW14048   2.907   0.062   6.059 -0.8000 -0.1159 -0.1708
 2766Sol     OW14049   3.042   1.046   4.846  0.2740 -0.1101  0.4672
 2766Sol     HW14050   3.102   1.120   4.835 -1.9107  1.5374 -0.9065
 2766Sol     HW14051   3.050   0.996   4.765 -0.4219  0.3175  0.1220
 2766Sol     MW14052   3.048   1.048   4.838  0.2355  0.5688  0.1077
 2767Sol     OW14053   0.787   3.369   9.443  0.0612  0.3211  0.2848
 2767Sol     HW14054   0.785   3.423   9.522 -1.1509  0.3096  0.2671
 2767Sol     HW14055   0.753   3.284   9.472 -1.4596  0.6464 -0.4858
 2767Sol     MW14056   0.784   3.366   9.453  0.0182 -0.0211 -0.6824
 2768Sol     OW14057   2.853   2.883   6.809  0.7632 -0.6965 -0.0969
 2768Sol     HW14058   2.915   2.950   6.778 -1.2141  0.6833 -1.1867
 2768Sol     HW14059   2.818   2.920   6.890  0.0382 -0.6535 -0.4333
 2768Sol     MW14060   2.856   2.893   6.813  0.5320 -0.1535 -0.3871
 2769Sol     OW14061   1.866   3.325   1.897  0.5624  0.5049  0.6924
 2769Sol     HW14062   1.819   3.290   1.973 -0.1990  0.3313  0.1556
 2769Sol     HW14063   1.833   3.415   1.888  0.5362  0.4753  0.4847
 2769Sol     MW14064   1.859   3.330   1.903 -0.2084  0.1537  0.0656
 2770Sol     OW14065   0.187   2.987   4.107 -0.4555  0.1536 -0.3534
 2770Sol     HW14066   0.143   2.923   4.163 -2.0622 -0.2505 -2.0302
 2770Sol     HW14067   0.214   2.936   4.030  0.8516  0.9064 -0.4058
 2770Sol     MW14068   0.186   2.976   4.105  0.7408 -0.0076  0.4074
 2771Sol     OW14069   1.808   0.882   2.859  0.1453  0.0062 -0.1489
 2771Sol     HW14070   1.759   0.834   2.926 -0.4151 -0.9600 -1.2367
 2771Sol     HW14071   1.744   0.899   2.790  0.7042  1.0420 -0.4274
 2771Sol     MW14072   1.798   0.879   2.859  0.1544  0.7047 -0.1726
 2772Sol     OW14073   1.744   2.817   9.076  0.0011  1.2305  0.3195
 2772Sol     HW14074   1.712   2.856   9.158  0.0372  0.8028  0.5382
 2772Sol     HW14075   1.789   2.737   9.103 -0.2772  0.9136 -0.1490
 2772Sol     MW14076   1.745   2.813   9.086 -0.1050 -0.0938  0.0233
 2773Sol     OW14077   0.668   2.689   6.475 -0.6460  0.5169 -0.1681
 2773Sol     HW14078   0.623   2.766   6.508 -0.9060  0.0851  0.4791
 2773Sol     HW14079   0.715   2.721   6.398  0.8119  1.7640  1.1956
 2773Sol     MW14080   0.668   2.699   6.471  0.9419 -0.0016  0.0162
 2774Sol     OW14081   0.192   0.924   6.353  0.5188 -0.0185 -0.4215
 2774Sol     HW14082   0.114   0.874   6.379  0.1823  0.7571  0.0971
 2774Sol     HW14083   0.166   1.016   6.364  2.2564  0.2277  2.0327
 2774Sol     MW14084   0.183   0.928   6.357  0.4394 -0.2960 -0.4523
 2775Sol     OW14085   3.309   1.847   7.676  0.0043 -0.0192  0.2293
 2775Sol     HW14086   3.220   1.884   7.678  0.1706  0.6337 -2.0200
 2775Sol     HW14087   3.325   1.832   7.583  2.0507 -0.6591  0.6746
 2775Sol     MW14088   3.302   1.849   7.668 -0.1876 -0.6055  0.1783
 2776Sol     OW14089   1.984   0.365   7.149 -0.1812 -0.0878  0.5899
 2776Sol     HW14090   1.953   0.447   7.109 -0.2067 -0.1201  0.5439
 2776Sol     HW14091   2.050   0.393   7.213 -1.1097  0.0643  1.4941
 2776Sol     MW14092   1.988   0.375   7.151 -0.5592  0.3803 -0.0273
 2777Sol     OW14093   0.750   1.006   9.323  0.5235 -0.4961 -0.3224
 2777Sol     HW14094   0.681   0.954   9.282 -0.5129  0.1637  0.5585
 2777Sol     HW14095   0.807   0.942   9.364  0.9341 -1.0977 -1.8152
 2777Sol     MW14096   0.749   0.996   9.323 -0.7743 -0.6922 -0.4143
 2778Sol     OW14097   1.070   0.057   5.275 -0.0866 -0.1250 -0.5885
 2778Sol     HW14098   0.983   0.094   5.287  0.3916  0.7577  0.2240
 2778Sol     HW14099   1.125   0.132   5.251  0.7367 -0.4093  0.3440
 2778Sol     MW14100   1.067   0.067   5.274 -0.5293 -0.4408  0.3370
 2779Sol     OW14101   1.111   2.365   4.839 -1.0949  0.4616  0.2730
 2779Sol     HW14102   1.079   2.331   4.923 -2.0995 -1.0969 -0.7120
 2779Sol     HW14103   1.038   2.353   4.778 -0.1482  0.9460 -0.9910
 2779Sol     MW14104   1.102   2.361   4.841  0.1667  0.0699  0.2730
 2780Sol     OW14105   0.962   2.040   3.379 -0.2857  0.8236  0.6219
 2780Sol     HW14106   1.024   1.975   3.412 -0.5760  0.4054  0.3568
 2780Sol     HW14107   0.889   2.037   3.441 -0.8894 -0.0535 -0.1094
 2780Sol     MW14108   0.961   2.034   3.387 -0.4470  0.1949 -0.5281
 2781Sol     OW14109   0.835   2.147   1.387  0.3922 -0.0222 -0.0681
 2781Sol     HW14110   0.830   2.200   1.307 -2.3896 -1.7647 -1.1604
 2781Sol     HW14111   0.758   2.174   1.437  1.4008  0.1099  1.4114
 2781Sol     MW14112   0.827   2.155   1.384  1.1418  0.1258  0.1189
 2782Sol     OW14113   2.203   2.566   6.967 -0.1844  0.2392  0.4103
 2782Sol     HW14114   2.123   2.554   7.019 -0.2994  1.3063  0.4809
 2782Sol     HW14115   2.259   2.492   6.992 -0.8844 -0.1481  0.8447
 2782Sol     MW14116   2.201   2.558   6.974  0.5248 -0.6944 -0.3375
 2783Sol     OW14117   0.104   3.022   3.243 -0.3565 -0.1354 -0.2145
 2783Sol     HW14118   0.160   3.063   3.309  2.9915 -2.3154 -1.5125
 2783Sol     HW14119   0.031   2.985   3.292  1.6255 -1.0008  2.1918
 2783Sol     MW14120   0.103   3.022   3.253 -0.3021  0.5120 -0.4023
 2784Sol     OW14121   3.038   0.298   6.813  0.4610  0.2408  0.0611
 2784Sol     HW14122   3.071   0.209   6.826  1.8786  0.8279  0.6066
 2784Sol     HW14123   3.110   0.354   6.842  0.4267  1.5718 -2.3108
 2784Sol     MW14124   3.048   0.295   6.817  0.4712 -0.3937 -0.0794
 2785Sol     OW14125   1.939   1.287   2.987  0.2328 -0.7260 -0.2360
 2785Sol     HW14126   1.982   1.322   2.908  0.2865 -0.4141 -0.0709
 2785Sol     HW14127   1.972   1.198   2.995  0.7831 -0.5168 -0.1593
 2785Sol     MW14128   1.946   1.283   2.981  0.0490  0.2150  0.5292
 2786Sol     OW14129   0.315   1.937   8.453  0.4095  0.7118  0.2824
 2786Sol     HW14130   0.383   1.870   8.463 -0.1327  0.4834  2.9229
 2786Sol     HW14131   0.336   2.003   8.520 -1.6316  0.8889  0.7824
 2786Sol     MW14132   0.323   1.937   8.460  0.2739 -0.3340 -0.1154
 2787Sol     OW14133   1.857   3.086   6.264 -0.2795 -0.5623  0.2649
 2787Sol     HW14134   1.898   3.126   6.187  1.7808 -2.5214  0.3069
 2787Sol     HW14135   1.925   3.085   6.331 -1.4896 -0.5883  1.5410
 2787Sol     MW14136   1.866   3.089   6.263  0.0251 -0.8448 -0.4989
 2788Sol     OW14137   0.172   0.918   3.730  0.1531 -0.4001 -0.2971
 2788Sol     HW14138   0.153   0.863   3.653 -0.4500  1.0423 -1.2057
 2788Sol     HW14139   0.178   1.007   3.694  1.6459  0.0671  1.0695
 2788Sol     MW14140   0.171   0.921   3.720  0.5049  0.5552 -0.0403
 2789Sol     OW14141   2.984   1.888   1.873 -0.1568  0.0771  0.4132
 2789Sol     HW14142   2.932   1.819   1.914  1.3719 -1.4013 -0.1048
 2789Sol     HW14143   2.919   1.954   1.848 -1.5985 -0.9753  1.2737
 2789Sol     MW14144   2.973   1.888   1.874 -0.5129  0.4590 -0.5979
 2790Sol     OW14145   1.518   2.021   3.991  0.2686  0.2491 -0.1964
 2790Sol     HW14146   1.506   1.929   4.015 -1.1417  0.6719  0.7552
 2790Sol     HW14147   1.457   2.035   3.919  0.5971  0.4042 -0.4454
 2790Sol     MW14148   1.512   2.014   3.987  0.2627  0.0342 -0.1906
 2791Sol     OW14149   2.847   1.263   7.725  0.2835  0.6901  0.1304
 2791Sol     HW14150   2.886   1.191   7.775  0.5458  0.5931 -0.2098
 2791Sol     HW14151   2.802   1.221   7.653  0.9920  0.8943 -0.4475
 2791Sol     MW14152   2.847   1.253   7.723 -0.3025  0.1400 -1.0130
 2792Sol     OW14153   2.484   2.169   2.411 -0.0512  1.0696 -0.3102
 2792Sol     HW14154   2.443   2.184   2.326 -0.7352  0.0838 -0.1551
 2792Sol     HW14155   2.513   2.078   2.408  3.0356  2.0132 -0.7961
 2792Sol     MW14156   2.483   2.162   2.403 -0.0275  0.2081 -0.5080
 2793Sol     OW14157   0.822   1.322   3.496 -0.2776  0.1453  0.4666
 2793Sol     HW14158   0.727   1.313   3.488 -0.2709  0.4368  0.0469
 2793Sol     HW14159   0.850   1.357   3.412  0.3560 -1.1275  0.1405
 2793Sol     MW14160   0.816   1.325   3.488 -0.0465 -0.2851 -0.2511
 2794Sol     OW14161   3.020   1.416   3.783 -0.2724  1.0824 -0.6551
 2794Sol     HW14162   3.057   1.390   3.698  0.7946 -0.9892  0.3798
 2794Sol     HW14163   3.096   1.424   3.841 -1.0146  2.0631  0.2004
 2794Sol     MW14164   3.030   1.414   3.781 -0.3211  0.8590 -0.0933
 2795Sol     OW14165   1.951   1.826   1.476 -0.8141 -0.7923  0.5586
 2795Sol     HW14166   2.038   1.829   1.436 -0.8343  1.2066  0.6188
 2795Sol     HW14167   1.935   1.733   1.491  1.3991 -1.1772  0.7537
 2795Sol     MW14168   1.958   1.818   1.473  0.2232  0.7949 -0.6080
 2796Sol     OW14169   0.809   3.391   2.657  0.0102  0.1211  0.2581
 2796Sol     HW14170   0.884   3.330   2.659 -1.3877 -1.5925  2.4412
 2796Sol     HW14171   0.818   3.442   2.738  0.2726  1.7430 -0.7805
 2796Sol     MW14172   0.817   3.390   2.665 -0.0036 -0.3926  0.1254
 2797Sol     OW14173   3.190   1.372   3.570  0.2452 -0.2985 -0.0093
 2797Sol     HW14174   3.177   1.446   3.511  0.4090  2.0604  2.8097
 2797Sol     HW14175   3.284   1.369   3.585  0.5069 -2.5124 -1.8126
 2797Sol     MW14176   3.197   1.378   3.566  0.7257  0.1484  0.1919
 2798Sol     OW14177   3.114   1.700   1.723 -0.1160  0.2665  0.0896
 2798Sol     HW14178   3.150   1.684   1.810 -1.0106 -0.2119  0.3720
 2798Sol     HW14179   3.042   1.761   1.738 -0.0962  0.4010 -0.3573
 2798Sol     MW14180   3.111   1.704   1.732  0.5119 -0.8491 -1.0389
 2799Sol     OW14181   2.790   1.078   8.683 -0.0310  0.4879 -0.1803
 2799Sol     HW14182   2.857   1.082   8.614  0.2114  1.6299  0.1062
 2799Sol     HW14183   2.772   0.985   8.694 -0.9201  0.3349 -2.5986
 2799Sol     MW14184   2.795   1.070   8.678  0.2843  0.6328  0.3185
 2800Sol     OW14185   2.931   2.191   8.657 -0.1668 -0.3351 -0.0013
 2800Sol     HW14186   2.928   2.104   8.618  0.3293  0.7141 -2.4816
 2800Sol     HW14187   2.993   2.240   8.603  0.8735  1.0985  2.3759
 2800Sol     MW14188   2.936   2.188   8.649  0.2098 -0.2542 -0.5807
 2801Sol     OW14189   0.566   2.189   6.928 -0.6997 -0.2519  0.4784
 2801Sol     HW14190   0.511   2.264   6.906 -2.6083 -1.4701  0.9200
 2801Sol     HW14191   0.576   2.141   6.846 -1.6614 -0.8602  0.6939
 2801Sol     MW14192   0.562   2.191   6.919 -0.6058  0.2959  0.1834
 2802Sol     OW14193   1.496   3.422   4.743 -0.1180  0.9613  0.6039
 2802Sol     HW14194   1.507   3.460   4.655 -1.3624 -1.0881 -0.4612
 2802Sol     HW14195   1.575   3.370   4.756  1.1056  2.9967  1.6471
 2802Sol     MW14196   1.504   3.421   4.736  0.0454 -0.1922 -0.4252
 2803Sol     OW14197   2.448   0.984   2.967  0.3187 -0.1502  0.2426
 2803Sol     HW14198   2.508   0.932   2.915  1.5118  1.6388 -0.2232
 2803Sol     HW14199   2.497   1.005   3.047 -0.2888 -0.1072  0.6044
 2803Sol     MW14200   2.458   0.981   2.969 -0.0502  0.1448 -0.2121
 2804Sol     OW14201   0.401   2.927   8.097 -0.7382 -0.3228 -0.3105
 2804Sol     HW14202   0.369   3.015   8.119  1.6282  0.7071 -0.7410
 2804Sol     HW14203   0.434   2.892   8.180 -0.8688 -0.4388 -0.3089
 2804Sol     MW14204   0.401   2.932   8.106  0.7184  0.2630 -0.2987
 2805Sol     OW14205   2.283   0.036   4.119  0.5330 -0.4500  0.2304
 2805Sol     HW14206   2.260   0.118   4.164 -0.8402 -1.1974  0.9254
 2805Sol     HW14207   2.201   0.009   4.077  0.6902 -2.0364  0.9168
 2805Sol     MW14208   2.273   0.041   4.120  0.8326  0.0146 -0.4359
 2806Sol     OW14209   1.099   1.200   4.978 -0.7288 -0.0001  0.0187
 2806Sol     HW14210   1.097   1.104   4.975  0.0373  0.0373 -2.1329
 2806Sol     HW14211   1.187   1.223   4.949 -1.2159  1.3932 -0.3605
 2806Sol     MW14212   1.107   1.193   4.975  0.5566  0.3520  0.1235
 2807Sol     OW14213   0.265   1.736   9.489  0.0066 -0.6165 -0.8050
 2807Sol     HW14214   0.320   1.777   9.423  1.5721 -0.5838  0.5081
 2807Sol     HW14215   0.299   1.768   9.573 -4.1474  2.2247  0.0241
 2807Sol     MW14216   0.273   1.743   9.491 -0.2244 -0.0345  0.1362
 2808Sol     OW14217   2.420   1.403   1.667  0.1196 -0.2525 -0.7539
 2808Sol     HW14218   2.334   1.364   1.682 -0.1176  0.7960  0.6194
 2808Sol     HW14219   2.402   1.488   1.628  0.6015 -0.8307 -2.2827
 2808Sol     MW14220   2.411   1.407   1.664  0.7269 -0.1710 -0.0222
 2809Sol     OW14221   3.058   0.006   7.285  0.3215 -0.1713 -0.0746
 2809Sol     HW14222   3.128   0.002   7.351 -1.1083 -2.6639  1.3787
 2809Sol     HW14223   3.034   0.098   7.281  2.7625  0.5206  0.3997
 2809Sol     MW14224   3.062   0.014   7.291  0.0378  0.2619 -0.1854
 2810Sol     OW14225   0.641   2.091   6.463 -0.3892  0.2973  0.0401
 2810Sol     HW14226   0.728   2.130   6.457 -0.5977  0.5908 -1.4683
 2810Sol     HW14227   0.590   2.138   6.397 -1.3576 -0.7268  0.0480
 2810Sol     MW14228   0.644   2.099   6.456 -0.2219 -0.5399 -1.0427
 2811Sol     OW14229   1.964   2.529   9.030  0.1301  0.1699 -0.5268
 2811Sol     HW14230   1.998   2.582   8.958 -0.4998  0.5997 -0.5031
 2811Sol     HW14231   1.870   2.522   9.014 -0.0663  0.5539  0.4376
 2811Sol     MW14232   1.959   2.533   9.022 -0.0758 -0.1472 -0.3343
 2812Sol     OW14233   0.187   1.900   6.439  1.0667 -0.3363 -0.3756
 2812Sol     HW14234   0.112   1.952   6.466  0.9424  0.3598 -1.9963
 2812Sol     HW14235   0.150   1.823   6.397  1.2444 -2.0471  2.4791
 2812Sol     MW14236   0.177   1.898   6.438  0.0519  0.6199 -0.7305
 2813Sol     OW14237   0.699   1.573   2.578 -0.2979  0.0865 -0.2215
 2813Sol     HW14238   0.636   1.528   2.523 -1.1595  1.2054 -0.1799
 2813Sol     HW14239   0.650   1.594   2.658 -0.4268  2.5574 -0.9131
 2813Sol     MW14240   0.689   1.571   2.581 -0.0583 -0.0107  1.1894
 2814Sol     OW14241   2.229   0.869   3.083  0.6096 -0.5336  0.2791
 2814Sol     HW14242   2.157   0.926   3.058 -0.1966 -1.9319 -0.6443
 2814Sol     HW14243   2.306   0.908   3.043  0.3031  0.6696  0.8223
 2814Sol     MW14244   2.229   0.878   3.077  0.4457  0.1029 -0.2659
 2815Sol     OW14245   0.853   2.143   2.290  0.5795 -0.0597 -0.0790
 2815Sol     HW14246   0.866   2.236   2.272  1.3027 -0.2472 -0.5396
 2815Sol     HW14247   0.910   2.123   2.364 -2.3735  0.7006  2.5354
 2815Sol     MW14248   0.859   2.149   2.295 -0.0107  0.3763 -0.0165
 2816Sol     OW14249   1.015   1.211   9.913 -0.3455 -0.3326  0.2434
 2816Sol     HW14250   1.091   1.263   9.939  0.2023  0.4357 -2.6820
 2816Sol     HW14251   1.050   1.147   9.852 -1.8640 -0.7726 -0.1895
 2816Sol     MW14252   1.025   1.210   9.910  0.4963 -0.0299  0.4604
 2817Sol     OW14253   1.680   3.033   9.246 -0.0566 -0.3582 -0.2546
 2817Sol     HW14254   1.756   3.072   9.202  0.7337 -1.6733 -0.1033
 2817Sol     HW14255   1.690   3.059   9.338 -1.2260  1.6518 -0.6820
 2817Sol     MW14256   1.688   3.039   9.251  0.9236  0.1752  0.7868
 2818Sol     OW14257   0.173   0.566   2.083 -0.0647  0.4172  0.0420
 2818Sol     HW14258   0.174   0.473   2.061  1.4164  0.7035 -1.1345
 2818Sol     HW14259   0.234   0.607   2.022 -0.5020  2.1363  0.7057
 2818Sol     MW14260   0.178   0.562   2.076  0.5984 -0.7025  0.5737
 2819Sol     OW14261   2.521   0.289   6.684 -0.0152 -0.0915  0.3164
 2819Sol     HW14262   2.452   0.225   6.666 -0.5644  0.6478 -0.2704
 2819Sol     HW14263   2.540   0.328   6.598 -1.3890  2.2089  1.0066
 2819Sol     MW14264   2.517   0.287   6.674  0.1398 -0.2128 -0.4265
 2820Sol     OW14265   1.755   2.924   5.273 -0.9330  0.2328 -0.1921
 2820Sol     HW14266   1.726   2.854   5.215 -2.1300  1.5012 -1.1689
 2820Sol     HW14267   1.686   2.931   5.338 -0.0364 -0.5585  0.8712
 2820Sol     MW14268   1.746   2.918   5.274 -0.0262  0.2683  0.5791
 2821Sol     OW14269   0.471   1.305   3.221 -0.2083  0.2831  0.8305
 2821Sol     HW14270   0.513   1.238   3.166  1.6795 -1.6127  4.4081
 2821Sol     HW14271   0.380   1.306   3.191  0.8856 -0.0992 -2.7916
 2821Sol     MW14272   0.467   1.299   3.213  0.8805  0.0907  0.6455
 2822Sol     OW14273   1.950   0.183   6.918  0.5395  0.3392 -0.6993
 2822Sol     HW14274   1.909   0.260   6.880 -0.2212  0.9666  1.3474
 2822Sol     HW14275   1.995   0.215   6.995 -0.4654 -1.3958  0.6487
 2822Sol     MW14276   1.951   0.192   6.921 -0.1878 -0.3110  0.1948
 2823Sol     OW14277   2.789   2.492   5.066  0.0095  0.1271  0.1410
 2823Sol     HW14278   2.704   2.490   5.111  0.0241 -0.1902  0.1541
 2823Sol     HW14279   2.787   2.573   5.015 -0.8113 -0.5217 -0.8563
 2823Sol     MW14280   2.781   2.499   5.066 -0.1852  0.9809 -0.4195
 2824Sol     OW14281   2.551   0.766   2.861  0.2253  0.6874  0.3595
 2824Sol     HW14282   2.545   0.756   2.766 -0.1576  3.1500  0.0812
 2824Sol     HW14283   2.644   0.759   2.880  0.1299 -1.7269  0.0683
 2824Sol     MW14284   2.559   0.764   2.854 -0.2744  0.3149 -0.4080
 2825Sol     OW14285   2.673   1.408   2.621  0.4100  0.3541 -0.1114
 2825Sol     HW14286   2.635   1.333   2.575  0.0838  0.2247  0.3655
 2825Sol     HW14287   2.680   1.379   2.712 -0.2930  1.1116  0.1975
 2825Sol     MW14288   2.670   1.399   2.625 -0.4124 -0.0469  0.2342
 2826Sol     OW14289   2.128   1.741   6.685  0.7825 -0.0580  0.2615
 2826Sol     HW14290   2.158   1.747   6.775  0.6546  1.3658  0.2224
 2826Sol     HW14291   2.064   1.812   6.676 -0.7265 -1.4787 -0.3670
 2826Sol     MW14292   2.125   1.748   6.692  0.0455 -0.2483  0.4947
 2827Sol     OW14293   2.358   2.608   8.092 -0.6722 -0.8087  0.2366
 2827Sol     HW14294   2.325   2.626   8.180  1.8412  0.8563  0.8773
 2827Sol     HW14295   2.386   2.693   8.059  0.1459 -1.7042 -1.4254
 2827Sol     MW14296   2.358   2.617   8.097 -0.7771 -0.8115  0.3651
 2828Sol     OW14297   2.545   2.471   5.212  0.9246  0.4642  0.4304
 2828Sol     HW14298   2.558   2.498   5.303  0.7182  1.1590  0.2547
 2828Sol     HW14299   2.543   2.375   5.215  2.2220  0.4436  0.9890
 2828Sol     MW14300   2.546   2.465   5.220 -0.0819 -0.5551 -0.6915
 2829Sol     OW14301   2.646   0.372   2.481  0.5593  0.6175 -0.1071
 2829Sol     HW14302   2.617   0.337   2.566  0.9535 -0.4779 -0.4185
 2829Sol     HW14303   2.565   0.379   2.430  0.4707  0.1595 -0.0380
 2829Sol     MW14304   2.636   0.369   2.484  0.0629 -0.2205  0.3273
 2830Sol     OW14305   1.488   1.171   5.351 -0.6877 -0.1145 -0.4025
 2830Sol     HW14306   1.561   1.230   5.334  0.1142 -0.5924  1.2418
 2830Sol     HW14307   1.510   1.090   5.305 -0.3412 -0.1523 -0.1663
 2830Sol     MW14308   1.496   1.169   5.345 -0.0150  0.1245 -0.4226
 2831Sol     OW14309   1.558   3.256   5.536  0.1248  0.4918  0.4270
 2831Sol     HW14310   1.565   3.308   5.456 -2.1058 -3.4039 -2.4435
 2831Sol     HW14311   1.471   3.277   5.570 -0.3588 -0.4995 -0.1674
 2831Sol     MW14312   1.551   3.263   5.532  0.0886 -0.7967 -0.4894
 2832Sol     OW14313   0.273   3.184   9.105 -0.5487 -0.2250 -0.4782
 2832Sol     HW14314   0.342   3.120   9.121 -1.6449 -0.6105  3.1269
 2832Sol     HW14315   0.192   3.132   9.099 -0.6249  0.1831 -4.9918
 2832Sol     MW14316   0.272   3.174   9.106 -0.0706 -0.2129 -0.3250
 2833Sol     OW14317   0.249   2.206   1.741  0.3190 -0.2611 -0.4934
 2833Sol     HW14318   0.202   2.122   1.741  0.9253 -0.6024  0.4722
 2833Sol     HW14319   0.340   2.182   1.727  0.0660  0.5106 -3.9537
 2833Sol     MW14320   0.253   2.196   1.739  0.4607 -0.0961  0.3278
 2834Sol     OW14321   0.340   1.330   2.597 -0.1788 -0.5420  0.2090
 2834Sol     HW14322   0.315   1.344   2.689  0.9474 -1.6207  0.7020
 2834Sol     HW14323   0.359   1.418   2.564 -0.7805 -0.1225  0.9520
 2834Sol     MW14324   0.339   1.339   2.603  0.0991 -0.6999 -0.0876
 2835Sol     OW14325   2.477   2.508   3.022 -0.1911 -0.0339  0.3549
 2835Sol     HW14326   2.438   2.518   3.109 -1.6295 -1.6392 -0.1007
 2835Sol     HW14327   2.483   2.598   2.989 -1.8236  0.3930  1.1542
 2835Sol     MW14328   2.474   2.517   3.027 -0.8884 -0.3153  0.1389
 2836Sol     OW14329   0.159   1.350   3.878 -0.3607 -0.3314 -0.4021
 2836Sol     HW14330   0.249   1.333   3.905 -0.3732  0.5016  0.1664
 2836Sol     HW14331   0.123   1.263   3.861  0.7544 -0.6308 -1.3022
 2836Sol     MW14332   0.164   1.340   3.879 -0.7106  0.1604 -0.2792
 2837Sol     OW14333   1.586   2.406   6.286 -0.1436  0.1329 -0.8178
 2837Sol     HW14334   1.660   2.448   6.241 -1.4840  0.7865 -2.5074
 2837Sol     HW14335   1.557   2.470   6.350 -0.0001  0.3858 -1.0044
 2837Sol     MW14336   1.590   2.416   6.287  0.2299  0.1543  0.5328
 2838Sol     OW14337   0.524   3.045   3.387  0.1050 -0.1864 -0.4586
 2838Sol     HW14338   0.575   3.037   3.468 -1.3573 -1.7337  0.3282
 2838Sol     HW14339   0.580   3.007   3.320  0.4030 -0.9651  0.2225
 2838Sol     MW14340   0.534   3.041   3.389 -0.0993 -0.1493 -0.3645
 2839Sol     OW14341   1.340   2.793   6.875 -0.0246 -0.6813  0.6600
 2839Sol     HW14342   1.267   2.797   6.813 -0.5906 -0.2209  1.3480
 2839Sol     HW14343   1.351   2.700   6.894 -1.7231 -0.6026  2.0689
 2839Sol     MW14344   1.334   2.785   6.871  0.9526  1.0635  0.1361
 2840Sol     OW14345   3.307   3.332   4.227 -0.0429  0.0208  0.1025
 2840Sol     HW14346   3.265   3.247   4.243  0.2021 -0.1268 -0.0311
 2840Sol     HW14347   3.241   3.383   4.180 -0.0572 -0.2242 -0.1442
 2840Sol     MW14348   3.297   3.329   4.225  0.4006  0.2345  0.0298
 2841Sol     OW14349   2.977   2.007   2.441 -0.0077 -0.5487 -0.5908
 2841Sol     HW14350   2.975   2.103   2.435 -0.6762 -0.7148 -3.5497
 2841Sol     HW14351   3.054   1.981   2.390 -0.5085 -1.6529 -0.7924
 2841Sol     MW14352   2.984   2.014   2.436 -0.2185  0.3363 -0.2367
 2842Sol     OW14353   3.319   0.848   6.531 -0.3064 -0.2573 -0.3745
 2842Sol     HW14354   3.325   0.863   6.625 -0.4955 -0.7965 -0.2777
 2842Sol     HW14355   3.344   0.757   6.519  0.9602  0.1544 -0.9902
 2842Sol     MW14356   3.322   0.841   6.538  0.4087  0.3511  0.5338
 2843Sol     OW14357   2.186   0.551   5.205 -0.6799 -0.8342  0.1155
 2843Sol     HW14358   2.226   0.485   5.262 -2.7610 -2.3280 -0.0952
 2843Sol     HW14359   2.106   0.576   5.251 -0.0071  1.4332  0.0912
 2843Sol     MW14360   2.182   0.547   5.214  0.1749  0.7086  0.2077
 2844Sol     OW14361   0.219   0.997   9.379 -0.2682 -0.2628  0.5027
 2844Sol     HW14362   0.243   0.927   9.318  0.2657 -0.4252  0.8978
 2844Sol     HW14363   0.125   0.986   9.392 -0.1427 -1.0488  0.7463
 2844Sol     MW14364   0.213   0.990   9.375  0.7251  0.0038 -0.2101
 2845Sol     OW14365   0.505   0.833   6.224 -0.3732  0.4277 -0.6183
 2845Sol     HW14366   0.485   0.845   6.317 -2.1562  0.9156 -1.0459
 2845Sol     HW14367   0.498   0.921   6.187 -1.7417 -0.0568 -1.5781
 2845Sol     MW14368   0.502   0.842   6.229 -0.3012 -0.3861  0.3400
 2846Sol     OW14369   2.037   2.793   3.004 -0.6691  0.0259  0.6734
 2846Sol     HW14370   2.109   2.843   2.964 -0.0006  0.0910  1.9410
 2846Sol     HW14371   2.054   2.702   2.979 -1.0772  0.2450 -0.4202
 2846Sol     MW14372   2.045   2.789   2.998  0.4571 -0.5097  0.3303
 2847Sol     OW14373   0.430   3.350   6.916  0.8563  0.3886  0.4862
 2847Sol     HW14374   0.510   3.396   6.889 -0.7645  1.6319 -2.4285
 2847Sol     HW14375   0.459   3.259   6.927  2.6203  0.7208 -0.9849
 2847Sol     MW14376   0.440   3.346   6.914 -0.2252  0.6248  0.8142
 2848Sol     OW14377   2.501   0.267   2.713 -0.1102  0.4291  0.1322
 2848Sol     HW14378   2.501   0.174   2.735 -1.7909  0.2138 -0.7038
 2848Sol     HW14379   2.515   0.311   2.797  2.7438 -0.5989  0.2590
 2848Sol     MW14380   2.502   0.262   2.723  0.3596  0.1411 -1.0390
 2849Sol     OW14381   1.582   0.075   7.201 -0.5119 -0.6472 -0.4592
 2849Sol     HW14382   1.651   0.121   7.249 -0.4586 -0.9122 -0.2817
 2849Sol     HW14383   1.575  -0.010   7.244 -0.7150 -0.7502 -0.6924
 2849Sol     MW14384   1.588   0.072   7.209 -0.7785 -0.2711  1.0428
 2850Sol     OW14385   3.287   0.206   6.431  0.0582 -0.2788  0.0114
 2850Sol     HW14386   3.318   0.286   6.475 -0.4878 -0.9349  1.6516
 2850Sol     HW14387   3.195   0.222   6.413  0.4052  0.1938 -1.4175
 2850Sol     MW14388   3.282   0.214   6.434 -0.1467 -0.5655  0.1920
 2851Sol     OW14389   1.918   1.569   8.645 -0.2667 -0.6054  0.1431
 2851Sol     HW14390   1.905   1.501   8.580  1.2950 -0.5842 -0.2093
 2851Sol     HW14391   2.000   1.545   8.689 -0.8861 -0.1960  1.5607
 2851Sol     MW14392   1.924   1.561   8.643  0.2906  0.1413  0.0192
 2852Sol     OW14393   1.652   3.060   7.202 -0.3343 -0.6256 -0.2168
 2852Sol     HW14394   1.659   2.965   7.208 -1.1841 -0.5662  1.7647
 2852Sol     HW14395   1.713   3.083   7.131 -0.9181 -2.7224 -1.4616
 2852Sol     MW14396   1.658   3.054   7.196  0.0895  0.8762  0.2998
 2853Sol     OW14397   2.255   2.496   5.322  0.5673  0.4638  0.3739
 2853Sol     HW14398   2.277   2.408   5.293  0.2802  0.7525 -0.7575
 2853Sol     HW14399   2.309   2.553   5.267 -0.9110  1.0753 -0.4716
 2853Sol     MW14400   2.262   2.493   5.314 -0.0563  0.5297  0.3679
 2854Sol     OW14401   0.023   0.436   7.625 -0.1186  0.1063 -0.0910
 2854Sol     HW14402  -0.005   0.346   7.608  2.4792 -0.8062  0.3250
 2854Sol     HW14403   0.048   0.469   7.539  0.8407 -0.2461  0.0494
 2854Sol     MW14404   0.022   0.431   7.615 -0.2556  0.3434 -0.5214
 2855Sol     OW14405   0.480   1.509   7.258  0.1965 -0.2982 -0.2707
 2855Sol     HW14406   0.571   1.519   7.229  0.3850  1.0093  0.7028
 2855Sol     HW14407   0.486   1.458   7.339  0.2420  1.3000  0.7537
 2855Sol     MW14408   0.489   1.505   7.263 -1.1708 -0.2975 -0.0583
 2856Sol     OW14409   2.808   1.847   4.722  0.7175  0.0032 -0.5168
 2856Sol     HW14410   2.829   1.780   4.657 -0.2684  0.0919 -0.9395
 2856Sol     HW14411   2.726   1.817   4.762 -0.2455  1.4035 -1.3675
 2856Sol     MW14412   2.802   1.839   4.719 -0.1971  0.0756  0.7651
 2857Sol     OW14413   3.108   0.958   7.048  0.1208 -0.5370  0.7797
 2857Sol     HW14414   3.195   0.982   7.081  0.1158 -0.2643  0.5981
 2857Sol     HW14415   3.090   0.873   7.087  0.9035 -1.0623  0.0163
 2857Sol     MW14416   3.115   0.953   7.054 -0.2051  0.2667 -0.4373
 2858Sol     OW14417   0.575   2.586   9.445  0.4963  0.4653 -0.3568
 2858Sol     HW14418   0.485   2.571   9.415 -0.2438 -0.6255  2.2624
 2858Sol     HW14419   0.627   2.525   9.394 -0.7824 -1.5597  0.6659
 2858Sol     MW14420   0.572   2.579   9.438  0.1009 -0.4799 -0.3020
 2859Sol     OW14421   3.216   0.075   3.841  0.1570 -0.2531  0.5470
 2859Sol     HW14422   3.200   0.066   3.934 -1.6974 -0.1776  0.2588
 2859Sol     HW14423   3.293   0.021   3.824  1.8080  1.4230  2.4681
 2859Sol     MW14424   3.222   0.069   3.847 -0.2385 -0.4564 -0.0978
 2860Sol     OW14425   1.802   2.838   4.869  0.4790 -0.5915  0.2192
 2860Sol     HW14426   1.890   2.855   4.902 -0.9008  2.2793  2.6206
 2860Sol     HW14427   1.788   2.907   4.803 -0.4665 -0.1962  0.8291
 2860Sol     MW14428   1.808   2.846   4.866  0.3729 -0.0834  0.3936
 2861Sol     OW14429   0.569   1.204   2.479 -0.7422  0.1127 -0.5755
 2861Sol     HW14430   0.532   1.115   2.479  1.5602 -0.8797 -0.0690
 2861Sol     HW14431   0.519   1.250   2.547 -1.3901 -1.0317 -0.2633
 2861Sol     MW14432   0.561   1.200   2.486 -0.1265 -0.0454 -0.0262
 2862Sol     OW14433   1.152   1.917   4.641 -0.1134  0.0667 -0.0625
 2862Sol     HW14434   1.176   1.857   4.712  0.6023  0.6301  0.1845
 2862Sol     HW14435   1.188   2.002   4.669 -0.9084  0.5602 -0.5151
 2862Sol     MW14436   1.157   1.919   4.650 -0.0612 -0.0654  0.9684
 2863Sol     OW14437   1.774   3.405   6.867 -0.0209 -0.4487  0.4876
 2863Sol     HW14438   1.682   3.420   6.887  0.0605  0.3447  0.2606
 2863Sol     HW14439   1.817   3.490   6.880  0.5431 -0.6251 -0.1676
 2863Sol     MW14440   1.770   3.414   6.870  0.3487  1.3764  0.3739
 2864Sol     OW14441   0.359   1.050   9.607  0.1593  0.0063 -0.4491
 2864Sol     HW14442   0.322   1.023   9.523 -1.5820  0.1298  0.2379
 2864Sol     HW14443   0.446   1.011   9.609  0.6818  0.9824 -2.8093
 2864Sol     MW14444   0.363   1.044   9.600 -0.4148  0.1452 -0.1131
 2865Sol     OW14445   0.128   0.803   4.276  0.0488  0.6730 -0.0961
 2865Sol     HW14446   0.052   0.781   4.331  0.1894  0.1670 -0.1008
 2865Sol     HW14447   0.119   0.747   4.199  1.2743 -0.5465  0.6256
 2865Sol     MW14448   0.120   0.796   4.274  0.3163 -0.6969 -0.0789
 2866Sol     OW14449   0.645   3.012   3.625 -0.0929  0.7989 -0.4411
 2866Sol     HW14450   0.740   3.018   3.627 -0.0410  0.2694 -1.0163
 2866Sol     HW14451   0.616   3.058   3.704  0.7601 -1.1131  1.0308
 2866Sol     MW14452   0.651   3.016   3.632  0.5080  0.3717 -0.6738
 2867Sol     OW14453   1.525   1.941   6.509  0.5240 -0.0524  0.0805
 2867Sol     HW14454   1.544   2.014   6.450  0.5853  0.6412  0.9460
 2867Sol     HW14455   1.430   1.939   6.515  0.5393  0.2852  0.4580
 2867Sol     MW14456   1.518   1.948   6.504 -0.5851  0.7609  0.8081
 2868Sol     OW14457   2.314   0.575   8.045 -0.1776 -0.1196 -0.4373
 2868Sol     HW14458   2.379   0.612   8.104  1.3317 -2.3537 -0.6306
 2868Sol     HW14459   2.365   0.545   7.970 -1.5903 -0.8861 -1.1106
 2868Sol     MW14460   2.324   0.576   8.043 -0.2716  0.6652  0.4439
 2869Sol     OW14461   1.820   0.176   8.344  0.3089  0.7911 -0.0202
 2869Sol     HW14462   1.910   0.145   8.357  0.0430 -0.5137 -1.2226
 2869Sol     HW14463   1.807   0.241   8.413  2.0881  0.8045  0.3241
 2869Sol     MW14464   1.827   0.179   8.351 -0.1930 -0.3445 -0.3199
 2870Sol     OW14465   2.006   0.345   2.506  0.1992  0.5221 -0.1802
 2870Sol     HW14466   2.091   0.329   2.546 -0.3029 -0.8333  0.3992
 2870Sol     HW14467   1.986   0.436   2.527  1.2704  0.6909  0.1326
 2870Sol     MW14468   2.012   0.351   2.512 -0.0141  0.3831 -0.1609
 2871Sol     OW14469   1.980   0.656   3.213  0.3046 -0.2783  0.0168
 2871Sol     HW14470   1.920   0.592   3.253 -1.3409  0.5681 -1.0271
 2871Sol     HW14471   1.996   0.621   3.125 -0.2068  0.4846 -0.3820
 2871Sol     MW14472   1.976   0.647   3.209 -0.5010 -0.5462  0.6848
 2872Sol     OW14473   2.804   2.500   3.704 -0.2920  0.2654 -0.6711
 2872Sol     HW14474   2.829   2.407   3.697  1.6531  0.6254  1.0159
 2872Sol     HW14475   2.734   2.501   3.770  1.2726  0.2406  1.0198
 2872Sol     MW14476   2.800   2.491   3.709  0.1521 -0.8072  0.3443
 2873Sol     OW14477   2.713   1.912   4.344  0.7824 -0.1415 -0.0523
 2873Sol     HW14478   2.635   1.963   4.365  0.4148 -0.1625 -1.3503
 2873Sol     HW14479   2.785   1.960   4.385  0.3649  1.0850 -0.7382
 2873Sol     MW14480   2.712   1.920   4.350  0.3258 -0.6166  0.7860
 2874Sol     OW14481   0.284   3.086   4.473 -0.3920  0.3944 -0.0364
 2874Sol     HW14482   0.310   3.177   4.459  0.3366  0.4717  1.7131
 2874Sol     HW14483   0.188   3.088   4.470 -0.4287  1.4536  1.2489
 2874Sol     MW14484   0.277   3.094   4.471 -0.3789 -0.4661  0.3548
 2875Sol     OW14485   3.245   3.442   2.878  0.3205  0.5814 -0.0129
 2875Sol     HW14486   3.211   3.446   2.968 -1.4417  0.5228 -0.6591
 2875Sol     HW14487   3.204   3.516   2.834  0.9302  0.4146 -0.8655
 2875Sol     MW14488   3.239   3.449   2.882 -0.4048 -0.3575  0.3196
 2876Sol     OW14489   2.363   2.971   8.275  0.3632 -0.1998  0.2154
 2876Sol     HW14490   2.442   2.922   8.299  0.6895  0.2170  0.0137
 2876Sol     HW14491   2.373   3.056   8.318  0.9396  0.5402 -1.3137
 2876Sol     MW14492   2.371   2.974   8.281  0.4410 -0.8342 -0.7398
 2877Sol     OW14493   3.274   1.770   9.465  1.0617  0.2819 -0.2016
 2877Sol     HW14494   3.269   1.681   9.429  1.4359  0.0256  0.3810
 2877Sol     HW14495   3.366   1.783   9.484  1.1049  1.0482 -0.9020
 2877Sol     MW14496   3.282   1.763   9.463  0.2582  1.0603 -0.2825
 2878Sol     OW14497   0.011   0.551   5.359  0.6448  0.3031 -0.0109
 2878Sol     HW14498   0.004   0.620   5.425 -1.2242 -0.3617  0.5327
 2878Sol     HW14499  -0.008   0.595   5.276 -0.0681  0.5594  0.2793
 2878Sol     MW14500   0.008   0.561   5.358  0.2510  0.3141 -0.6963
 2879Sol     OW14501   0.669   3.144   3.883 -0.2097 -0.0464  0.0024
 2879Sol     HW14502   0.661   3.221   3.827  2.1200  0.4710  0.3179
 2879Sol     HW14503   0.596   3.152   3.945  1.0722  2.9512  1.2360
 2879Sol     MW14504   0.662   3.152   3.884 -0.7601  0.3160  0.9720
 2880Sol     OW14505   2.062   1.349   3.357 -0.5303 -0.0646  0.6242
 2880Sol     HW14506   1.979   1.392   3.342  0.7136  1.7853 -1.1189
 2880Sol     HW14507   2.047   1.258   3.331 -1.5635  0.5998 -1.1566
 2880Sol     MW14508   2.053   1.344   3.353  0.1797 -0.4200 -0.2376
 2881Sol     OW14509   2.685   1.583   7.644 -0.2078 -0.1029  0.0450
 2881Sol     HW14510   2.777   1.567   7.622 -0.1905 -0.2415  0.2104
 2881Sol     HW14511   2.677   1.678   7.645 -0.5799 -0.1000 -2.0210
 2881Sol     MW14512   2.692   1.590   7.642 -0.6525 -0.0108 -0.4890
 2882Sol     OW14513   0.701   1.779   5.165 -1.1808 -0.3105  0.0294
 2882Sol     HW14514   0.737   1.708   5.219 -1.6479 -1.0084 -0.5593
 2882Sol     HW14515   0.651   1.733   5.097 -0.3003  0.5488 -1.2028
 2882Sol     MW14516   0.700   1.768   5.164  1.2734  0.5202 -0.7662
 2883Sol     OW14517   2.466   2.630   1.438  0.1274  0.4619  0.3198
 2883Sol     HW14518   2.431   2.719   1.444  0.3848  0.6264 -0.4906
 2883Sol     HW14519   2.408   2.577   1.493 -1.2022  0.8013 -0.7105
 2883Sol     MW14520   2.458   2.633   1.443 -0.5730 -0.4076 -0.3532
 2884Sol     OW14521   2.553   2.532   3.489 -0.0847  0.5066 -0.4935
 2884Sol     HW14522   2.628   2.564   3.439  1.4302 -0.2413  1.2480
 2884Sol     HW14523   2.520   2.609   3.534 -1.2908  1.1335 -2.3842
 2884Sol     MW14524   2.557   2.542   3.488  0.0094  0.2226  0.2463
 2885Sol     OW14525   2.676   2.427   4.156  0.3839  0.2338 -0.1170
 2885Sol     HW14526   2.705   2.516   4.176 -0.5268  1.1965 -2.8582
 2885Sol     HW14527   2.756   2.375   4.155  1.1935  1.4744 -0.7921
 2885Sol     MW14528   2.686   2.430   4.158 -0.2984 -0.4065 -0.8638
 2886Sol     OW14529   2.379   2.615   5.957  0.5897 -0.1519 -0.2382
 2886Sol     HW14530   2.456   2.560   5.968  1.0412  0.4322 -0.4559
 2886Sol     HW14531   2.387   2.650   5.868 -0.1245 -0.3947 -0.4028
 2886Sol     MW14532   2.387   2.613   5.950 -0.1004  0.1291  0.2958
 2887Sol     OW14533   2.228   1.895   6.221 -0.1019 -0.9892 -0.5532
 2887Sol     HW14534   2.282   1.974   6.216  0.2996 -1.0465  2.1978
 2887Sol     HW14535   2.266   1.844   6.293 -0.3886 -3.6740 -2.2425
 2887Sol     MW14536   2.236   1.897   6.227 -0.0828 -0.8111 -0.2937
 2888Sol     OW14537   3.100   0.945   5.100  0.3389  0.0356  0.2126
 2888Sol     HW14538   3.043   0.868   5.105 -0.1877  0.4674  0.9002
 2888Sol     HW14539   3.078   0.985   5.015  1.2533 -1.0558 -0.5538
 2888Sol     MW14540   3.093   0.942   5.093 -0.3897 -0.1297 -0.4356
 2889Sol     OW14541   1.606   0.935   7.513 -0.1820 -0.3017 -0.6168
 2889Sol     HW14542   1.659   0.949   7.591  1.4148  1.3125 -1.9301
 2889Sol     HW14543   1.526   0.985   7.529 -0.6599 -1.4543  0.7141
 2889Sol     MW14544   1.604   0.941   7.521  0.4591 -0.6144 -0.8938
 2890Sol     OW14545   2.118   3.301   2.568  0.0813  0.0090 -0.3950
 2890Sol     HW14546   2.211   3.307   2.589  0.1881 -3.7622  0.5221
 2890Sol     HW14547   2.116   3.290   2.472  0.4338  2.0156 -0.6512
 2890Sol     MW14548   2.126   3.300   2.561  0.0878  0.9176 -0.6913
 2891Sol     OW14549   3.286   2.464   7.081  0.1855  0.2802  0.6870
 2891Sol     HW14550   3.212   2.410   7.052  1.1824 -0.7480  0.0140
 2891Sol     HW14551   3.247   2.548   7.105 -1.1989 -0.2542  0.3484
 2891Sol     MW14552   3.276   2.466   7.081  0.1495  0.7349 -0.3535
 2892Sol     OW14553   1.664   0.661   1.869 -0.5965  0.1621  0.0285
 2892Sol     HW14554   1.660   0.606   1.948  1.5465 -0.6320 -0.3691
 2892Sol     HW14555   1.693   0.601   1.800  0.1527  1.4333 -0.7766
 2892Sol     MW14556   1.666   0.651   1.870 -0.2345 -0.2418 -0.4218
 2893Sol     OW14557   0.349   3.039   8.467 -0.0270  0.4104 -0.3786
 2893Sol     HW14558   0.410   3.111   8.450 -2.4494  2.2601 -1.4326
 2893Sol     HW14559   0.281   3.049   8.400 -2.6670 -0.2832  2.1359
 2893Sol     MW14560   0.349   3.046   8.459 -0.0238  0.2295  0.0223
 2894Sol     OW14561   2.006   0.328   9.951  0.3473  0.0294  0.0170
 2894Sol     HW14562   1.963   0.408   9.920 -1.6368 -0.6564  0.8848
 2894Sol     HW14563   1.934   0.265   9.962  1.5814 -1.1636  1.5064
 2894Sol     MW14564   1.996   0.329   9.949  0.2580  0.4860 -0.3680
 2895Sol     OW14565   1.521   0.648   3.653  0.6182  0.1827  0.0509
 2895Sol     HW14566   1.433   0.613   3.636  0.7867 -0.0568 -0.3282
 2895Sol     HW14567   1.536   0.630   3.746  0.7327 -0.8157 -0.1603
 2895Sol     MW14568   1.514   0.643   3.660 -0.1726  0.2489 -0.2240
 2896Sol     OW14569   1.052   0.171   4.079 -0.4530  0.4694 -0.4289
 2896Sol     HW14570   1.106   0.119   4.139 -2.8038  2.1128  3.3183
 2896Sol     HW14571   1.015   0.108   4.018  3.1511 -1.0843 -1.0915
 2896Sol     MW14572   1.053   0.161   4.079 -0.1403  0.4329 -0.1920
 2897Sol     OW14573   1.963   1.134   7.594 -0.2614  0.0223  0.3253
 2897Sol     HW14574   1.969   1.097   7.682  0.5972 -1.7888 -0.4734
 2897Sol     HW14575   1.896   1.202   7.601 -1.7770 -1.5914  1.8493
 2897Sol     MW14576   1.958   1.137   7.602  0.2612  0.2767  0.0957
 2898Sol     OW14577   1.350   3.264   8.491  0.4589  0.0758  0.5030
 2898Sol     HW14578   1.422   3.238   8.434  0.2956  0.5489  0.0693
 2898Sol     HW14579   1.383   3.250   8.580  0.5675 -1.0539  0.2896
 2898Sol     MW14580   1.359   3.261   8.494  0.3024 -0.8169 -0.1767
 2899Sol     OW14581   1.418   0.005   5.919  0.0648  0.1461 -0.1845
 2899Sol     HW14582   1.459   0.091   5.904  0.1586  0.0025 -0.7954
 2899Sol     HW14583   1.371  -0.013   5.838  0.5353 -0.6460 -0.2929
 2899Sol     MW14584   1.418   0.011   5.910 -0.0884  0.2566  0.0293
 2900Sol     OW14585   2.414   2.436   8.854  0.4234  0.0210  0.1132
 2900Sol     HW14586   2.373   2.350   8.844  2.6855 -0.7873 -2.7550
 2900Sol     HW14587   2.340   2.497   8.856 -1.2829 -1.9778  3.1693
 2900Sol     MW14588   2.403   2.433   8.854  0.0188  0.0378  0.0860
 2901Sol     OW14589   1.668   0.060   2.748  0.4661  0.6390  0.2379
 2901Sol     HW14590   1.718   0.135   2.782  1.3423  0.0758  0.2027
 2901Sol     HW14591   1.592   0.100   2.706  1.1654  1.5467 -0.1950
 2901Sol     MW14592   1.666   0.070   2.747  0.4966  0.0050  0.3936
 2902Sol     OW14593   1.120   1.987   7.607 -0.4709 -0.2438 -0.3508
 2902Sol     HW14594   1.123   2.025   7.519 -0.9238 -0.6357 -0.5392
 2902Sol     HW14595   1.188   1.919   7.606  1.1459  1.3473  0.3652
 2902Sol     MW14596   1.127   1.984   7.599 -0.2757  0.2154  0.2845
 2903Sol     OW14597   1.893   1.033   1.780  0.2424  0.1834  0.2416
 2903Sol     HW14598   1.966   0.984   1.818  0.1293 -0.2701 -0.1305
 2903Sol     HW14599   1.827   1.034   1.849  0.7936  1.0323  0.7673
 2903Sol     MW14600   1.894   1.029   1.790  0.5737 -0.3148 -0.9792
 2904Sol     OW14601   1.669   2.593   2.921  0.0490 -0.4440 -0.2467
 2904Sol     HW14602   1.640   2.682   2.938 -0.8825 -1.2781  2.6923
 2904Sol     HW14603   1.741   2.579   2.982 -1.1217 -2.3684  0.7398
 2904Sol     MW14604   1.673   2.600   2.928  0.1838  0.3785 -0.1139
 2905Sol     OW14605   2.469   0.658   8.256  0.3528  0.1723  0.0519
 2905Sol     HW14606   2.487   0.580   8.308 -0.8671 -0.8893 -1.0689
 2905Sol     HW14607   2.438   0.722   8.319  1.4739 -0.2028  1.0060
 2905Sol     MW14608   2.468   0.656   8.266 -0.0328 -0.2380 -0.2659
 2906Sol     OW14609   1.950   3.228   3.513  0.2390  0.0129  0.1115
 2906Sol     HW14610   1.951   3.268   3.426 -0.1986 -0.4539 -0.1164
 2906Sol     HW14611   2.042   3.225   3.539  0.3912  0.0155 -0.4066
 2906Sol     MW14612   1.958   3.231   3.507  0.4105 -0.7289  0.0369
 2907Sol     OW14613   1.179   2.449   7.757  0.2543  0.5011 -0.2823
 2907Sol     HW14614   1.259   2.473   7.802 -0.3698 -0.2808  1.2820
 2907Sol     HW14615   1.178   2.504   7.679  0.8946  2.5630  1.1280
 2907Sol     MW14616   1.186   2.456   7.754  0.2708  0.1444  0.3970
 2908Sol     OW14617   0.178   0.205   4.115  0.1776 -0.2995  0.3960
 2908Sol     HW14618   0.093   0.234   4.149  1.0424  1.4064  1.1859
 2908Sol     HW14619   0.215   0.284   4.074  0.9724 -1.2736 -0.7925
 2908Sol     MW14620   0.174   0.215   4.114 -0.2345 -0.0473  0.2189
 2909Sol     OW14621   0.916   0.241   5.480  0.2151  0.3710  0.0032
 2909Sol     HW14622   1.001   0.273   5.509  0.0174  0.2393  0.7185
 2909Sol     HW14623   0.863   0.320   5.469  0.4329  0.4543 -0.4623
 2909Sol     MW14624   0.919   0.251   5.481  0.0524  0.2111 -0.0935
 2910Sol     OW14625   2.753   1.586   5.263 -0.6865 -0.1620  0.3329
 2910Sol     HW14626   2.663   1.553   5.269 -0.2612 -1.2401  0.7802
 2910Sol     HW14627   2.778   1.573   5.172 -0.9164 -0.0152  0.2466
 2910Sol     MW14628   2.747   1.582   5.256 -0.0263  0.5300 -0.5570
 2911Sol     OW14629   0.570   1.017   1.517 -0.0479  0.3932  0.0855
 2911Sol     HW14630   0.521   1.047   1.594  0.8455  0.0698  0.7849
 2911Sol     HW14631   0.605   1.097   1.479  1.2710  0.3720  1.2237
 2911Sol     MW14632   0.568   1.027   1.521  0.0021 -0.5157 -0.2542
 2912Sol     OW14633   2.162   2.281   3.372  0.1196 -0.3677  0.2363
 2912Sol     HW14634   2.105   2.321   3.437  0.3390 -0.8768  0.7467
 2912Sol     HW14635   2.113   2.286   3.290 -0.2134  0.1558  0.4669
 2912Sol     MW14636   2.153   2.285   3.371  0.4070 -0.6901  0.2176
 2913Sol     OW14637   2.505   1.452   3.955 -0.2953 -0.1465  0.3330
 2913Sol     HW14638   2.464   1.491   4.032 -2.8763 -0.1203 -0.9724
 2913Sol     HW14639   2.433   1.406   3.911  0.9847  0.2648 -2.3002
 2913Sol     MW14640   2.495   1.452   3.958  0.1453 -0.0535 -0.6390
 2914Sol     OW14641   1.703   1.692   2.473 -0.1171  0.0334  0.0024
 2914Sol     HW14642   1.692   1.775   2.519  1.9706  0.0365  0.5158
 2914Sol     HW14643   1.651   1.629   2.523 -0.4251  0.6960  0.5165
 2914Sol     MW14644   1.697   1.694   2.481  0.5725 -0.2752  0.4965
 2915Sol     OW14645   2.825   1.618   2.335 -0.1440  0.5015 -0.3734
 2915Sol     HW14646   2.755   1.565   2.297 -0.7239  0.6789  0.4289
 2915Sol     HW14647   2.905   1.588   2.291 -0.2091 -2.2144  1.2242
 2915Sol     MW14648   2.826   1.610   2.328 -0.2389  0.5840  0.0426
 2916Sol     OW14649   2.046   1.253   7.121 -0.9876  0.6866 -0.0047
 2916Sol     HW14650   2.034   1.269   7.027 -0.6929 -1.9174 -0.5134
 2916Sol     HW14651   2.034   1.159   7.132  0.8255  0.6558  2.2765
 2916Sol     MW14652   2.044   1.246   7.113 -0.3070  0.2876  0.3202
 2917Sol     OW14653   0.210   2.094   8.939 -0.7326 -0.3290 -0.1736
 2917Sol     HW14654   0.270   2.054   9.002  0.8602  1.2676 -0.6109
 2917Sol     HW14655   0.124   2.088   8.980 -0.0227 -1.1748  1.2239
 2917Sol     MW14656   0.208   2.090   8.948  0.5075  0.1626 -0.8490
 2918Sol     OW14657   0.031   3.437   3.353  0.2619 -0.2556  0.3442
 2918Sol     HW14658   0.084   3.481   3.420  0.9805  1.4408 -1.3083
 2918Sol     HW14659   0.024   3.500   3.282 -4.4417 -0.2125  0.6612
 2918Sol     MW14660   0.035   3.447   3.353  0.6250 -0.6002 -0.3628
 2919Sol     OW14661   1.529   0.027   6.929 -0.3351 -0.5771 -0.5340
 2919Sol     HW14662   1.524   0.045   7.023  1.5800 -0.4946 -0.4203
 2919Sol     HW14663   1.481   0.099   6.888 -0.2286 -0.0011  0.3367
 2919Sol     MW14664   1.524   0.035   6.933  0.5015 -0.0803 -0.5956
 2920Sol     OW14665   0.188   2.273   2.449 -0.2441 -0.0770  0.1439
 2920Sol     HW14666   0.176   2.311   2.362 -1.2996 -2.0763 -0.6088
 2920Sol     HW14667   0.100   2.255   2.480  0.1173  0.8346  1.7486
 2920Sol     MW14668   0.179   2.274   2.444  0.5560  0.0306  0.1329
 2921Sol     OW14669   2.771   2.872   8.178 -0.0885 -0.2760  0.2840
 2921Sol     HW14670   2.807   2.937   8.238  0.4078 -0.8119  0.5747
 2921Sol     HW14671   2.810   2.892   8.093 -0.4333  0.1998  0.2383
 2921Sol     MW14672   2.777   2.880   8.176 -0.0580  0.6589 -0.6877
 2922Sol     OW14673   0.740   0.061   5.331  0.1024 -0.2156  0.3200
 2922Sol     HW14674   0.776   0.109   5.406 -0.0077 -0.2440  0.3930
 2922Sol     HW14675   0.648   0.089   5.327 -0.1553 -0.9638  0.8157
 2922Sol     MW14676   0.735   0.067   5.338 -0.5599  0.4004  0.6314
 2923Sol     OW14677   2.611   3.391   3.060 -0.3390  0.2160 -0.0148
 2923Sol     HW14678   2.580   3.300   3.058  0.2178  0.0330 -0.3113
 2923Sol     HW14679   2.686   3.392   3.001 -0.1737  0.8094  0.2057
 2923Sol     MW14680   2.615   3.383   3.055  0.4585 -0.0606 -0.4193
 2924Sol     OW14681   1.073   2.847   6.791  0.0689 -0.7813 -0.2588
 2924Sol     HW14682   1.061   2.753   6.778 -3.2383 -0.5220  0.5271
 2924Sol     HW14683   1.065   2.884   6.703 -1.2432 -1.0257 -0.2582
 2924Sol     MW14684   1.071   2.842   6.782  0.5115  0.8844  0.4730
 2925Sol     OW14685   0.573   2.634   4.350 -0.0182 -0.2008 -0.5464
 2925Sol     HW14686   0.549   2.717   4.391 -0.3158 -0.7137  0.3303
 2925Sol     HW14687   0.494   2.580   4.356  0.5424 -0.9776  0.0076
 2925Sol     MW14688   0.564   2.636   4.354  0.4940  0.0010 -1.2088
 2926Sol     OW14689   0.231   1.719   5.581  0.5084  0.0983 -0.3837
 2926Sol     HW14690   0.197   1.654   5.642  0.3895  0.9315  0.4456
 2926Sol     HW14691   0.323   1.729   5.605 -0.4151  3.2250  2.2193
 2926Sol     MW14692   0.236   1.714   5.588 -0.3938 -0.0162 -0.7380
 2927Sol     OW14693   2.532   1.133   4.603  0.3518 -0.5462 -0.1568
 2927Sol     HW14694   2.553   1.139   4.509  1.7212 -0.5838  0.1345
 2927Sol     HW14695   2.595   1.070   4.637 -1.4423 -2.0734  0.4287
 2927Sol     MW14696   2.540   1.128   4.597 -0.0908 -0.4902  0.1900
 2928Sol     OW14697   2.703   0.964   3.381  0.2263 -0.0981  0.3432
 2928Sol     HW14698   2.797   0.967   3.361  0.0682  1.3991 -0.2867
 2928Sol     HW14699   2.687   1.044   3.431 -0.6278 -0.5878  0.8618
 2928Sol     MW14700   2.710   0.972   3.383 -0.1639  1.1530 -0.2551
 2929Sol     OW14701   0.805   0.645   7.565 -0.0225 -0.2816  0.3848
 2929Sol     HW14702   0.841   0.732   7.578  1.5808 -1.0052  0.8708
 2929Sol     HW14703   0.789   0.639   7.470  0.7130  0.2055  0.2304
 2929Sol     MW14704   0.806   0.652   7.557 -0.0665  0.4083 -0.5199
 2930Sol     OW14705   0.363   1.560   5.167 -0.2684 -0.1437  0.0008
 2930Sol     HW14706   0.286   1.505   5.156  0.3134 -0.3249 -3.6406
 2930Sol     HW14707   0.435   1.499   5.180 -0.2737 -0.0626  0.4341
 2930Sol     MW14708   0.363   1.550   5.167 -0.4558 -0.3820 -0.2035
 2931Sol     OW14709   3.277   1.183   9.423  0.6332 -0.2600 -0.2622
 2931Sol     HW14710   3.247   1.216   9.339  0.8800 -0.2660 -0.3510
 2931Sol     HW14711   3.363   1.223   9.436 -0.6125  2.0286  1.3062
 2931Sol     MW14712   3.282   1.189   9.417 -0.9611 -0.3008  0.2408
 2932Sol     OW14713   2.610   2.799   8.756  0.4347 -0.4680  0.5980
 2932Sol     HW14714   2.625   2.721   8.809  0.0167 -1.2776 -0.4645
 2932Sol     HW14715   2.593   2.868   8.820  1.8407 -1.0039  1.5897
 2932Sol     MW14716   2.610   2.798   8.766 -0.0094  0.2030  0.3177
 2933Sol     OW14717   2.322   1.688   3.383 -0.3483 -0.2444  0.3074
 2933Sol     HW14718   2.300   1.596   3.395  0.2761 -0.4709 -0.2399
 2933Sol     HW14719   2.403   1.700   3.432 -1.6083  0.5656  2.2598
 2933Sol     MW14720   2.327   1.681   3.389  0.5441 -0.8585 -0.2377
 2934Sol     OW14721   3.241   2.843   4.660  0.0284 -0.1294 -0.1917
 2934Sol     HW14722   3.186   2.766   4.646  0.4348 -0.3464 -0.5934
 2934Sol     HW14723   3.200   2.888   4.734  0.4579 -1.3645  0.8258
 2934Sol     MW14724   3.232   2.840   4.666 -0.0417 -0.3940 -0.0878
 2935Sol     OW14725   2.192   3.149   6.829  0.6323  0.3926  0.3762
 2935Sol     HW14726   2.120   3.101   6.790  0.8927 -0.5985  1.1091
 2935Sol     HW14727   2.166   3.241   6.823 -0.0960  0.1275 -0.5458
 2935Sol     MW14728   2.183   3.153   6.825  0.1114  0.7462 -0.8636
 2936Sol     OW14729   2.758   2.274   2.295  0.0084  0.1201 -0.2996
 2936Sol     HW14730   2.755   2.247   2.204 -0.9889 -0.2959 -0.1565
 2936Sol     HW14731   2.694   2.218   2.339  1.4451 -0.6280  0.9141
 2936Sol     MW14732   2.752   2.267   2.291  0.0809 -0.0193 -0.3194
 2937Sol     OW14733   1.087   3.247   2.939  0.0824 -0.2979  0.7356
 2937Sol     HW14734   1.035   3.198   2.875 -0.3653  0.0586  0.8265
 2937Sol     HW14735   1.085   3.337   2.908  1.4459 -0.4222  0.2149
 2937Sol     MW14736   1.082   3.250   2.930 -0.4582  0.1881  0.0842
 2938Sol     OW14737   1.142   1.074   6.996 -0.5840 -0.5242 -0.2949
 2938Sol     HW14738   1.136   1.162   7.033 -0.1764 -0.3742 -0.5788
 2938Sol     HW14739   1.051   1.049   6.977 -0.7111 -0.2218 -0.0833
 2938Sol     MW14740   1.133   1.079   6.998  0.3620  0.3510  0.5501
 2939Sol     OW14741   0.678   2.521   3.607 -0.2895  0.6045  0.2396
 2939Sol     HW14742   0.634   2.568   3.536  0.3224  1.0927  0.1738
 2939Sol     HW14743   0.746   2.582   3.637  0.5297 -0.2543  0.1379
 2939Sol     MW14744   0.681   2.531   3.603  0.4233  0.2395 -1.0430
 2940Sol     OW14745   0.747   0.302   7.801  0.1088 -0.6179  0.0110
 2940Sol     HW14746   0.717   0.331   7.887 -1.1187 -1.4611 -0.1167
 2940Sol     HW14747   0.809   0.369   7.773 -0.0392  0.0434  1.2361
 2940Sol     MW14748   0.750   0.311   7.806 -0.6252  0.7150 -0.6562
 2941Sol     OW14749   2.769   0.207   8.977  0.5196 -0.5034  0.3977
 2941Sol     HW14750   2.799   0.212   9.068  1.3475  1.4156  0.0471
 2941Sol     HW14751   2.829   0.145   8.936  1.0018 -0.3473  0.8535
 2941Sol     MW14752   2.777   0.202   8.982  0.2358 -0.7884  0.3897
 2942Sol     OW14753   2.134   3.029   5.014  0.3178 -0.0078  0.6599
 2942Sol     HW14754   2.121   2.943   4.976 -0.6890  1.5394 -2.6331
 2942Sol     HW14755   2.051   3.050   5.056  0.1071 -0.0617  0.2683
 2942Sol     MW14756   2.126   3.023   5.014  0.3571  0.5866 -0.4677
 2943Sol     OW14757   1.300   1.313   1.772 -0.5068  0.6967 -0.8038
 2943Sol     HW14758   1.392   1.316   1.745 -0.4752 -0.0484 -0.8001
 2943Sol     HW14759   1.286   1.396   1.817  0.5899  0.2079  0.4946
 2943Sol     MW14760   1.307   1.320   1.774 -0.3285  0.0841 -0.0950
 2944Sol     OW14761   1.108   1.485   6.317 -0.5120  0.2000  0.4175
 2944Sol     HW14762   1.027   1.482   6.368 -0.5905  1.0274  0.3510
 2944Sol     HW14763   1.177   1.502   6.382 -0.4916  0.2782  0.3759
 2944Sol     MW14764   1.107   1.487   6.328 -0.3131 -0.5002  0.1231
 2945Sol     OW14765   0.772   0.365   9.280 -0.6695  0.4607 -0.0940
 2945Sol     HW14766   0.725   0.282   9.276  1.1719 -0.5622 -1.7331
 2945Sol     HW14767   0.729   0.420   9.215  0.0421 -0.3160 -1.2569
 2945Sol     MW14768   0.764   0.363   9.273  0.5131 -1.0514 -0.0524
 2946Sol     OW14769   0.665   2.937   8.790 -0.8177  0.6700 -0.0824
 2946Sol     HW14770   0.582   2.921   8.744 -0.6062  2.5846 -1.1755
 2946Sol     HW14771   0.676   3.032   8.787  1.0532  0.4948  0.7153
 2946Sol     MW14772   0.658   2.944   8.785 -0.2647 -0.9355 -0.1400
 2947Sol     OW14773   2.194   0.282   8.471 -0.2289  0.1090  0.2103
 2947Sol     HW14774   2.206   0.313   8.382 -3.4095  0.0174 -0.3157
 2947Sol     HW14775   2.155   0.355   8.518 -0.1057 -0.3883  1.1208
 2947Sol     MW14776   2.192   0.291   8.467  0.3584  0.5671 -0.3370
 2948Sol     OW14777   2.754   1.852   3.467  0.2984  0.1642 -0.0670
 2948Sol     HW14778   2.782   1.844   3.558 -1.0686  0.0366  0.3612
 2948Sol     HW14779   2.679   1.793   3.459 -0.8913  1.7201 -0.7123
 2948Sol     MW14780   2.749   1.846   3.474 -0.3660 -0.5817 -0.1140
 2949Sol     OW14781   0.380   2.170   6.630 -0.5457  0.9689  0.4082
 2949Sol     HW14782   0.379   2.247   6.686 -1.0862  1.8282 -0.7652
 2949Sol     HW14783   0.355   2.202   6.544 -1.8458 -0.7023  0.1300
 2949Sol     MW14784   0.378   2.180   6.627 -0.1791 -0.0319  0.2223
 2950Sol     OW14785   0.244   0.212   8.696  0.0147 -0.3194  0.1039
 2950Sol     HW14786   0.225   0.154   8.770  1.0774 -0.7597  0.0333
 2950Sol     HW14787   0.298   0.160   8.637 -2.5755 -0.6939 -2.0457
 2950Sol     MW14788   0.247   0.202   8.698  0.2293  0.4283  0.1759
 2951Sol     OW14789   0.884   2.483   8.368 -0.1241 -0.6460 -0.5222
 2951Sol     HW14790   0.918   2.399   8.400  1.4290  0.0572 -0.3044
 2951Sol     HW14791   0.937   2.502   8.291 -0.7664 -0.0814 -0.8200
 2951Sol     MW14792   0.892   2.477   8.364 -0.9047 -1.2424 -0.2909
 2952Sol     OW14793   1.320   1.884   6.299  0.0483  0.1645 -0.3293
 2952Sol     HW14794   1.317   1.979   6.309 -1.8192 -0.0220  1.2230
 2952Sol     HW14795   1.248   1.852   6.353  1.4134 -2.2295  0.1478
 2952Sol     MW14796   1.313   1.889   6.304 -0.0726  0.6152 -0.0722
 2953Sol     OW14797   3.023   1.066   8.540  0.0922  0.5473  0.2251
 2953Sol     HW14798   3.050   0.974   8.545 -1.2772  0.2567  2.9127
 2953Sol     HW14799   3.062   1.107   8.617  1.1767  2.4114 -1.2404
 2953Sol     MW14800   3.029   1.062   8.547 -0.0975  0.0800 -1.0152
 2954Sol     OW14801   3.120   1.357   5.197  0.0222  0.1501 -0.5256
 2954Sol     HW14802   3.039   1.306   5.205  0.1436 -0.1131 -0.9471
 2954Sol     HW14803   3.189   1.291   5.188  0.2025  0.3871 -0.8978
 2954Sol     MW14804   3.119   1.346   5.197 -0.2059  0.1712  0.6399
 2955Sol     OW14805   2.048   1.649   7.416  0.3460  0.2988 -0.0465
 2955Sol     HW14806   2.094   1.619   7.495 -0.1721 -0.2059  0.0666
 2955Sol     HW14807   2.013   1.569   7.377  2.1660  0.3196 -1.7979
 2955Sol     MW14808   2.049   1.639   7.420  0.1718 -0.0006 -0.1047
 2956Sol     OW14809   3.292   2.498   6.708 -0.2400 -0.5015  0.7323
 2956Sol     HW14810   3.226   2.557   6.745  0.9261  1.2882  0.0418
 2956Sol     HW14811   3.374   2.523   6.752  0.1406 -2.1356  0.9866
 2956Sol     MW14812   3.294   2.506   6.715 -0.1167  0.1178 -0.2970
 2957Sol     OW14813   2.516   3.359   1.758 -0.5017  0.1435  0.3610
 2957Sol     HW14814   2.452   3.313   1.703 -0.4560  0.1368  0.3133
 2957Sol     HW14815   2.466   3.431   1.797 -0.3454  0.6365 -0.3341
 2957Sol     MW14816   2.506   3.361   1.756  0.0878 -0.2591 -0.3400
 2958Sol     OW14817   0.817   2.327   7.262 -0.5136 -0.7432  0.1294
 2958Sol     HW14818   0.849   2.417   7.258  0.2308 -0.9231  1.7783
 2958Sol     HW14819   0.722   2.336   7.250 -0.4466  0.2596  0.2329
 2958Sol     MW14820   0.811   2.336   7.260  0.0439 -0.3625 -0.1883
 2959Sol     OW14821   3.259   1.745   3.965 -0.2686 -0.0395 -0.2765
 2959Sol     HW14822   3.254   1.651   3.943 -0.6051  0.1252 -0.9254
 2959Sol     HW14823   3.204   1.787   3.899  0.6571  0.7128 -0.5843
 2959Sol     MW14824   3.254   1.740   3.957 -0.3060 -0.0435  0.2549
 2960Sol     OW14825   0.076   0.278   5.240 -0.1898 -0.0234  0.1699
 2960Sol     HW14826   0.032   0.337   5.302 -0.4694  0.5146 -0.5381
 2960Sol     HW14827   0.104   0.204   5.294 -0.2395  0.5376  0.9878
 2960Sol     MW14828   0.075   0.277   5.251  0.3002 -0.9014 -0.7145
 2961Sol     OW14829   0.689   2.864   5.893 -0.2105  0.5058  0.1154
 2961Sol     HW14830   0.677   2.954   5.864 -1.4268 -0.0430 -1.1321
 2961Sol     HW14831   0.663   2.810   5.818 -1.3583 -0.9050  1.4705
 2961Sol     MW14832   0.685   2.867   5.884  0.0623 -0.4505 -0.1377
 2962Sol     OW14833   1.978   1.120   5.062 -0.3042  0.5692  0.1149
 2962Sol     HW14834   1.901   1.176   5.073  0.4879  1.6550  0.1821
 2962Sol     HW14835   1.968   1.082   4.974 -1.8828 -0.8090  0.8597
 2962Sol     MW14836   1.970   1.121   5.055 -0.4342  0.0845  0.3036
 2963Sol     OW14837   0.293   3.405   6.675  0.3418  0.6562  0.0430
 2963Sol     HW14838   0.207   3.445   6.688  0.7909  1.0615  1.8679
 2963Sol     HW14839   0.325   3.387   6.764  2.1074  0.4298 -0.6213
 2963Sol     MW14840   0.288   3.407   6.684 -0.0645  0.5150  0.3560
 2964Sol     OW14841   0.022   2.892   1.567  0.3262  0.0420 -0.5756
 2964Sol     HW14842  -0.073   2.879   1.576  0.7283 -1.4771  2.2983
 2964Sol     HW14843   0.055   2.806   1.540  1.0414  0.1506 -0.0504
 2964Sol     MW14844   0.016   2.883   1.565  0.1640  0.0041 -0.3414
 2965Sol     OW14845   0.432   2.676   5.492 -0.4481 -0.2875  0.3240
 2965Sol     HW14846   0.355   2.633   5.529 -0.0036 -0.6137  0.8892
 2965Sol     HW14847   0.403   2.765   5.472 -0.5717  0.0491  1.9311
 2965Sol     MW14848   0.423   2.680   5.493  0.1618  0.5006  0.7012
 2966Sol     OW14849   2.800   3.047   3.251  0.0148  0.2569  0.2471
 2966Sol     HW14850   2.876   3.095   3.218  0.7713  0.3366  2.0924
 2966Sol     HW14851   2.836   2.963   3.280 -0.5515  0.4066  1.4063
 2966Sol     MW14852   2.810   3.043   3.250  0.0678  0.5873 -0.5797
 2967Sol     OW14853   1.938   1.937   9.619  0.2184 -0.1877 -0.9061
 2967Sol     HW14854   1.911   2.025   9.595  1.5806  0.0909 -1.4380
 2967Sol     HW14855   2.028   1.929   9.587  0.4398 -1.4318 -0.0261
 2967Sol     MW14856   1.944   1.944   9.614  0.0215 -0.0865 -0.0890
 2968Sol     OW14857   2.682   2.204   1.548 -0.6905 -0.2822  0.4140
 2968Sol     HW14858   2.611   2.173   1.491  0.4863 -0.2909 -1.1034
 2968Sol     HW14859   2.681   2.299   1.538 -0.9197 -0.2341  0.9096
 2968Sol     MW14860   2.676   2.210   1.542 -0.0255 -0.0302  0.9712
 2969Sol     OW14861   3.171   0.992   3.754 -0.4800  0.1429  0.1017
 2969Sol     HW14862   3.087   1.012   3.796 -0.3897  1.8867 -0.5191
 2969Sol     HW14863   3.237   1.018   3.819 -0.3815  0.9285 -0.3089
 2969Sol     MW14864   3.170   0.996   3.764 -0.3316  0.7606  0.4098
 2970Sol     OW14865   0.164   3.002   2.478 -0.6097 -0.3579 -0.1674
 2970Sol     HW14866   0.072   3.017   2.457 -0.6720  0.6857  0.7720
 2970Sol     HW14867   0.212   3.066   2.425 -0.5419  0.1058  0.4429
 2970Sol     MW14868   0.160   3.009   2.472 -0.4387  0.0577  0.0764
 2971Sol     OW14869   0.864   0.353   6.502 -0.6627  0.3508  0.3157
 2971Sol     HW14870   0.895   0.428   6.452 -0.0974  0.4806  0.8542
 2971Sol     HW14871   0.943   0.318   6.545 -0.3545 -2.3925 -2.3367
 2971Sol     MW14872   0.874   0.357   6.502  0.6754 -0.0527 -0.1410
 2972Sol     OW14873   1.260   0.717   3.870 -0.7314 -0.1179  0.2500
 2972Sol     HW14874   1.259   0.790   3.808 -0.3385 -0.8363 -0.6277
 2972Sol     HW14875   1.260   0.639   3.814  2.1504 -0.7888  1.1237
 2972Sol     MW14876   1.260   0.716   3.859 -0.1512  0.2468  0.3183
 2973Sol     OW14877   1.421   0.578   9.378 -0.6334 -0.4225  0.0053
 2973Sol     HW14878   1.474   0.499   9.384 -0.6127 -0.7399 -3.3532
 2973Sol     HW14879   1.481   0.646   9.347 -1.2328  0.2763  0.3443
 2973Sol     MW14880   1.431   0.577   9.375 -0.4488 -0.2300 -1.0137
 2974Sol     OW14881   0.550   0.639   5.826 -0.7391  0.0147  0.0319
 2974Sol     HW14882   0.494   0.657   5.751 -1.1440  0.0643  0.3429
 2974Sol     HW14883   0.490   0.606   5.894 -0.5433  1.0416  0.7076
 2974Sol     MW14884   0.539   0.637   5.826  0.5276  0.0109 -0.2576
 2975Sol     OW14885   1.413   0.801   5.583 -0.1354  0.0821  0.3339
 2975Sol     HW14886   1.348   0.744   5.542 -1.0540  1.3710 -0.0045
 2975Sol     HW14887   1.389   0.889   5.556  0.0712  0.8376  2.4737
 2975Sol     MW14888   1.405   0.803   5.577 -0.2629  0.6368 -0.4063
 2976Sol     OW14889   0.366   1.933   1.864 -0.0925 -0.1673 -0.2227
 2976Sol     HW14890   0.409   1.848   1.862  2.0068  0.8761 -0.1749
 2976Sol     HW14891   0.282   1.919   1.820  0.3210 -2.1988 -0.3877
 2976Sol     MW14892   0.362   1.924   1.860  0.3426 -0.3903  0.5006
 2977Sol     OW14893   3.023   2.825   3.655 -0.0969  0.2547 -0.5192
 2977Sol     HW14894   3.052   2.854   3.741  0.4609 -0.4735 -0.4546
 2977Sol     HW14895   3.052   2.734   3.649 -1.2661 -0.1023 -0.9619
 2977Sol     MW14896   3.028   2.819   3.662  0.0558 -0.3781 -0.6451
 2978Sol     OW14897   0.606   0.572   6.128 -0.5521  0.4880 -0.1784
 2978Sol     HW14898   0.534   0.523   6.169  0.0235  0.2311  0.5306
 2978Sol     HW14899   0.583   0.663   6.142 -0.2759  0.4017  0.8778
 2978Sol     MW14900   0.597   0.575   6.133  0.4166 -0.6919  0.4064
 2979Sol     OW14901   1.531   1.769   3.639 -0.5361 -0.1438 -0.4855
 2979Sol     HW14902   1.464   1.833   3.663  0.7843  1.1172 -0.0821
 2979Sol     HW14903   1.578   1.810   3.566 -0.2459 -1.0446 -0.8087
 2979Sol     MW14904   1.529   1.778   3.634  0.2252  0.3522 -0.3457
 2980Sol     OW14905   0.621   3.096   4.397 -0.8889 -0.0891 -0.1045
 2980Sol     HW14906   0.593   3.183   4.369  0.6729 -0.0311 -1.5682
 2980Sol     HW14907   0.631   3.103   4.492 -2.5796  0.7803  0.0272
 2980Sol     MW14908   0.620   3.104   4.403  0.6065 -0.0141 -0.3145
 2981Sol     OW14909   0.974   3.326   8.074  0.4824 -0.5720  0.3277
 2981Sol     HW14910   1.044   3.279   8.028  0.8631  0.5282 -0.2374
 2981Sol     HW14911   0.990   3.308   8.167  1.1969 -0.7693  0.1713
 2981Sol     MW14912   0.982   3.320   8.078  0.0214  0.2044 -0.0438
 2982Sol     OW14913   0.883   1.144   2.812  0.2384  0.0768  0.0657
 2982Sol     HW14914   0.919   1.213   2.757  0.9558  0.6233  1.1962
 2982Sol     HW14915   0.916   1.063   2.774  1.7684  0.5172  0.4279
 2982Sol     MW14916   0.889   1.143   2.804  0.2725 -0.1141  0.1054
 2983Sol     OW14917   2.279   1.585   5.602  0.5603  0.2471  0.0096
 2983Sol     HW14918   2.349   1.523   5.582  0.1377  0.0378 -0.8390
 2983Sol     HW14919   2.270   1.581   5.697  1.1133 -0.3642  0.0398
 2983Sol     MW14920   2.285   1.579   5.609 -0.1057 -0.8431  0.4267
 2984Sol     OW14921   2.219   3.223   3.828 -0.1610  0.1711 -0.0285
 2984Sol     HW14922   2.251   3.209   3.739  1.5998  2.0102  0.2707
 2984Sol     HW14923   2.278   3.171   3.883 -0.7500 -0.3203  0.1511
 2984Sol     MW14924   2.227   3.217   3.825  0.5157  0.2067  0.1167
 2985Sol     OW14925   2.443   2.923   6.304  0.2712  0.0008  0.0199
 2985Sol     HW14926   2.499   2.895   6.231 -2.2941 -0.6764 -1.7322
 2985Sol     HW14927   2.479   3.008   6.330  1.8472 -0.2260 -1.3439
 2985Sol     MW14928   2.452   2.928   6.300  0.3187  0.4330 -0.4071
 2986Sol     OW14929   1.062   0.766   1.528 -0.1563  0.0271 -0.0272
 2986Sol     HW14930   1.037   0.811   1.609  0.3678  2.4572 -1.1822
 2986Sol     HW14931   0.980   0.758   1.479 -0.2121 -0.1308  0.0887
 2986Sol     MW14932   1.052   0.769   1.531 -0.0316  0.0571  0.4283
 2987Sol     OW14933   0.787   1.665   6.015  0.5951  0.2194  0.3263
 2987Sol     HW14934   0.874   1.644   6.050  0.4537  0.3161  0.7414
 2987Sol     HW14935   0.736   1.690   6.092  0.1085 -0.1395  0.1262
 2987Sol     MW14936   0.791   1.665   6.025  0.8959  0.1329 -0.2626
 2988Sol     OW14937   2.013   2.697   5.957  0.2824  0.1955  0.6679
 2988Sol     HW14938   2.071   2.679   6.031  0.7644 -1.8627 -0.1881
 2988Sol     HW14939   2.035   2.630   5.892 -2.0987  0.2423 -0.2215
 2988Sol     MW14940   2.020   2.690   5.958  0.2895 -0.2018  0.0568
 2989Sol     OW14941   0.062   3.117   9.476  0.0730  0.1070 -0.3761
 2989Sol     HW14942  -0.015   3.099   9.530  0.0864  3.0449  0.6954
 2989Sol     HW14943   0.027   3.132   9.389 -0.5464  0.9907  0.0144
 2989Sol     MW14944   0.052   3.116   9.473  0.2005  0.0580  0.2727
 2990Sol     OW14945   2.059   3.186   3.056  0.2320 -0.6651 -0.1195
 2990Sol     HW14946   2.153   3.171   3.061  0.4915  0.9287  0.1739
 2990Sol     HW14947   2.043   3.207   2.964  0.0115 -1.9027 -0.3601
 2990Sol     MW14948   2.066   3.187   3.048  0.1784  0.5664 -0.5621
 2991Sol     OW14949   0.780   2.823   8.293 -0.4126  0.4391 -0.0873
 2991Sol     HW14950   0.825   2.777   8.223 -0.8647 -1.1959  0.6615
 2991Sol     HW14951   0.806   2.776   8.373 -0.1396  2.0752  0.8095
 2991Sol     MW14952   0.786   2.815   8.294  0.3521 -0.6353  0.3252
 2992Sol     OW14953   1.578   1.540   2.686 -0.3043  0.3211  0.1578
 2992Sol     HW14954   1.601   1.604   2.753 -2.4987 -0.1183  1.3749
 2992Sol     HW14955   1.630   1.463   2.707 -0.2122  0.5418  0.7429
 2992Sol     MW14956   1.585   1.539   2.694 -0.1282  0.4177  0.4218
 2993Sol     OW14957   2.332   2.641   8.355 -0.1375  0.3713  0.3715
 2993Sol     HW14958   2.420   2.677   8.346  0.4140 -1.3451 -1.3812
 2993Sol     HW14959   2.344   2.553   8.389 -1.1775  0.1069  0.0815
 2993Sol     MW14960   2.341   2.637   8.357  0.0954 -0.5679  1.0915
 2994Sol     OW14961   0.172   2.252   7.005  0.3547 -0.3396  0.0078
 2994Sol     HW14962   0.161   2.289   7.092 -0.7903  0.1616 -0.3374
 2994Sol     HW14963   0.201   2.162   7.020 -0.8285 -0.5739  0.9310
 2994Sol     MW14964   0.173   2.247   7.014 -0.0281 -0.3798 -0.8311
 2995Sol     OW14965   2.163   1.199   7.411 -0.0488 -0.7101  0.1123
 2995Sol     HW14966   2.112   1.280   7.418 -1.3399 -1.5216  0.3285
 2995Sol     HW14967   2.114   1.135   7.464  0.4018 -1.9059 -0.8806
 2995Sol     MW14968   2.154   1.200   7.417  0.3163  0.2766  0.5038
 2996Sol     OW14969   2.334   3.228   8.392 -0.1704 -0.5482 -0.1752
 2996Sol     HW14970   2.300   3.276   8.317  0.7222 -0.5703 -0.6058
 2996Sol     HW14971   2.305   3.278   8.468  0.7524  0.6887 -0.6170
 2996Sol     MW14972   2.328   3.237   8.392  0.2661  0.1644  0.1685
 2997Sol     OW14973   1.676   2.066   4.681 -0.2584 -0.2094  0.3605
 2997Sol     HW14974   1.664   2.049   4.587  0.1109 -2.3623  0.6694
 2997Sol     HW14975   1.725   2.148   4.685 -0.0163 -0.2521 -1.3343
 2997Sol     MW14976   1.679   2.072   4.673  0.1602 -0.2674 -0.1401
 2998Sol     OW14977   1.754   1.330   7.583  0.0455 -0.2201 -0.4317
 2998Sol     HW14978   1.743   1.366   7.496 -2.2856 -0.0657 -0.1272
 2998Sol     HW14979   1.664   1.313   7.613  0.7411  0.5945  2.2847
 2998Sol     MW14980   1.745   1.331   7.578 -0.0807 -0.2211  0.4732
 2999Sol     OW14981   2.160   2.479   7.981  0.3105 -0.1409 -0.1534
 2999Sol     HW14982   2.245   2.513   8.010 -0.4058  1.6465 -0.0351
 2999Sol     HW14983   2.105   2.482   8.060  0.3964 -2.2340  0.0128
 2999Sol     MW14984   2.163   2.483   7.991 -1.3895  0.7484  0.1735
 3000Sol     OW14985   0.450   1.047   8.331 -0.2381 -0.3245  0.2188
 3000Sol     HW14986   0.419   1.118   8.388  0.3499 -0.0834  0.2510
 3000Sol     HW14987   0.507   0.995   8.387 -1.0321 -1.0864  0.3134
 3000Sol     MW14988   0.453   1.049   8.341 -0.4217 -0.8480 -0.4871
 3001Sol     OW14989   2.103   2.331   1.757  0.2249  0.3329  0.3486
 3001Sol     HW14990   2.071   2.369   1.839 -1.9172 -1.9342  0.6193
 3001Sol     HW14991   2.150   2.252   1.785  1.0466  0.5206 -0.4920
 3001Sol     MW14992   2.105   2.327   1.767  0.4102 -0.1292  0.0240
   3.32150   3.44930  11.29680
